AutoDock-GPU version: v1.6

**********************************************************
**    AutoDock-GPU AUTODOCKTOOLS-COMPATIBLE DLG FILE    **
**********************************************************


    DOCKING PARAMETERS
    ________________________


Ligand file:                               /home/a/REINVENT4/ReinventStudies/pleaseWork/justmol2mol_4_Compounds_ontop/graph-dock-8u2o5u/graph-DockGPU/node-autodockgpu/inputs/JNXXEJBFOHYRQC-ULDRSZSMNA-N.pdbqt
Grid fld file:                             /home/a/REINVENT4/ReinventStudies/mols/Rad51/maps/rad51_receptor.maps.fld

Random seed:                               42
Number of runs:                            20
Number of energy evaluations:              1259779
Number of generations:                     42000
Size of population:                        150
Rate of crossover:                         80.000000%
Tournament selection probability limit:    60.000000%
Rate of mutation:                          2.000000%
Maximal allowed delta movement:            +/- 6.000000A
Maximal allowed delta angle:               +/- 90.000000

Rate of local search:                      100.000000%
Maximal number of local search iterations: 300
Rho lower bound:                           0.010000
Spread of local search delta movement:     2.000000A
Spread of local search delta angle:        74.999999
Limit of consecutive successes/failures:   4

Handle symmetry during clustering:         YES
RMSD tolerance:                            2.000000A

Program call in command line was:          /home/a/REINVENT4/ReinventStudies/adgpu-v1.6_linux_x64_cuda12_128wi --filelist batch.txt --heuristics 1 --nrun 20 --psize 150 --lsit 300 --seed 42 --heurmax 12000000 


    GRID PARAMETERS
    ________________________


Receptor name:                             rad51_receptor
Number of grid points (x, y, z):           53, 53, 53
Grid center (x, y, z):                     139.950000, 75.640000, 221.970000A
Grid size (x, y, z):                       19.500000, 19.500000, 19.500000A
Grid spacing:                              0.375000A


    LIGAND PARAMETERS
    ________________________


Ligand name:                               /home/a/REINVENT4/ReinventStudies/pleaseWork/justmol2mol_4_Compounds_ontop/graph-dock-8u2o5u/graph-DockGPU/node-autodockgpu/inputs/JNXXEJBFOHYRQC-ULDRSZSMNA-N
Number of atoms:                           29
Number of rotatable bonds:                 7
Number of atom types:                      7


    DUMMY DATA (only for ADT-compatibility)
    ________________________


DPF> outlev 1
DPF> ga_run 20
DPF> fld /home/a/REINVENT4/ReinventStudies/mols/Rad51/maps/rad51_receptor.maps.fld
DPF> move /home/a/REINVENT4/ReinventStudies/pleaseWork/justmol2mol_4_Compounds_ontop/graph-dock-8u2o5u/graph-DockGPU/node-autodockgpu/inputs/JNXXEJBFOHYRQC-ULDRSZSMNA-N.pdbqt


    COUNTER STATES
    ________________________


Number of energy evaluations performed:    973513
Number of generations used:                45


    INPUT LIGAND PDBQT FILE:
    ________________________


INPUT-LIGAND-PDBQT: REMARK SMILES C[C@H](N/C(O)=C\NC(=O)c1ccc2cc(Cl)ccc2n1)c1ccccc1
INPUT-LIGAND-PDBQT: REMARK SMILES IDX 4 1 5 2 6 4 7 5 8 6 9 8 10 9 20 10 11 11 19 12 12 13 18 14
INPUT-LIGAND-PDBQT: REMARK SMILES IDX 13 15 17 16 14 17 15 18 16 19 3 20 2 22 1 23 21 24 22 25
INPUT-LIGAND-PDBQT: REMARK SMILES IDX 26 26 23 27 25 28 24 29
INPUT-LIGAND-PDBQT: REMARK H PARENT 5 3 7 7 3 21
INPUT-LIGAND-PDBQT: ROOT
INPUT-LIGAND-PDBQT: ATOM      1  C   UNL     1       0.177  -0.846   0.619  1.00  0.00     0.201 C 
INPUT-LIGAND-PDBQT: ENDROOT
INPUT-LIGAND-PDBQT: BRANCH   1   2
INPUT-LIGAND-PDBQT: ATOM      2  O   UNL     1       0.960  -1.950   0.952  1.00  0.00    -0.494 OA
INPUT-LIGAND-PDBQT: ATOM      3  H   UNL     1       0.846  -2.446   1.829  1.00  0.00     0.295 HD
INPUT-LIGAND-PDBQT: ENDBRANCH   1   2
INPUT-LIGAND-PDBQT: BRANCH   1   4
INPUT-LIGAND-PDBQT: ATOM      4  C   UNL     1      -0.765  -0.415   1.476  1.00  0.00     0.152 C 
INPUT-LIGAND-PDBQT: BRANCH   4   5
INPUT-LIGAND-PDBQT: ATOM      5  N   UNL     1      -1.542   0.776   1.271  1.00  0.00    -0.322 N 
INPUT-LIGAND-PDBQT: ATOM      6  C   UNL     1      -1.025   2.035   0.807  1.00  0.00     0.273 C 
INPUT-LIGAND-PDBQT: ATOM      7  H   UNL     1      -2.549   0.740   1.547  1.00  0.00     0.169 HD
INPUT-LIGAND-PDBQT: ATOM      8  O   UNL     1      -1.817   2.847   0.258  1.00  0.00    -0.267 OA
INPUT-LIGAND-PDBQT: BRANCH   6   9
INPUT-LIGAND-PDBQT: ATOM      9  C   UNL     1       0.394   2.419   0.992  1.00  0.00     0.129 A 
INPUT-LIGAND-PDBQT: ATOM     10  N   UNL     1       1.156   1.776   1.919  1.00  0.00    -0.243 NA
INPUT-LIGAND-PDBQT: ATOM     11  C   UNL     1       0.964   3.451   0.227  1.00  0.00     0.035 A 
INPUT-LIGAND-PDBQT: ATOM     12  C   UNL     1       2.465   2.084   2.122  1.00  0.00     0.071 A 
INPUT-LIGAND-PDBQT: ATOM     13  C   UNL     1       2.305   3.790   0.412  1.00  0.00     0.013 A 
INPUT-LIGAND-PDBQT: ATOM     14  C   UNL     1       3.211   1.385   3.076  1.00  0.00     0.030 A 
INPUT-LIGAND-PDBQT: ATOM     15  C   UNL     1       3.073   3.107   1.362  1.00  0.00     0.002 A 
INPUT-LIGAND-PDBQT: ATOM     16  C   UNL     1       4.558   1.701   3.279  1.00  0.00     0.023 A 
INPUT-LIGAND-PDBQT: ATOM     17  C   UNL     1       4.424   3.419   1.570  1.00  0.00     0.030 A 
INPUT-LIGAND-PDBQT: ATOM     18  C   UNL     1       5.165   2.715   2.528  1.00  0.00     0.041 A 
INPUT-LIGAND-PDBQT: ATOM     19  Cl  UNL     1       6.856   3.104   2.787  1.00  0.00    -0.084 Cl
INPUT-LIGAND-PDBQT: ENDBRANCH   6   9
INPUT-LIGAND-PDBQT: ENDBRANCH   4   5
INPUT-LIGAND-PDBQT: ENDBRANCH   1   4
INPUT-LIGAND-PDBQT: BRANCH   1  20
INPUT-LIGAND-PDBQT: ATOM     20  N   UNL     1       0.415  -0.201  -0.639  1.00  0.00    -0.349 N 
INPUT-LIGAND-PDBQT: ATOM     21  H   UNL     1       1.414  -0.130  -0.937  1.00  0.00     0.164 HD
INPUT-LIGAND-PDBQT: BRANCH  20  22
INPUT-LIGAND-PDBQT: ATOM     22  C   UNL     1      -0.609  -0.176  -1.688  1.00  0.00     0.109 C 
INPUT-LIGAND-PDBQT: ATOM     23  C   UNL     1      -0.315   0.946  -2.688  1.00  0.00     0.036 C 
INPUT-LIGAND-PDBQT: BRANCH  22  24
INPUT-LIGAND-PDBQT: ATOM     24  C   UNL     1      -0.677  -1.518  -2.388  1.00  0.00    -0.026 A 
INPUT-LIGAND-PDBQT: ATOM     25  C   UNL     1      -1.901  -2.203  -2.484  1.00  0.00     0.006 A 
INPUT-LIGAND-PDBQT: ATOM     26  C   UNL     1       0.475  -2.095  -2.957  1.00  0.00     0.006 A 
INPUT-LIGAND-PDBQT: ATOM     27  C   UNL     1      -1.971  -3.441  -3.130  1.00  0.00     0.000 A 
INPUT-LIGAND-PDBQT: ATOM     28  C   UNL     1       0.400  -3.333  -3.602  1.00  0.00     0.000 A 
INPUT-LIGAND-PDBQT: ATOM     29  C   UNL     1      -0.822  -4.006  -3.687  1.00  0.00     0.000 A 
INPUT-LIGAND-PDBQT: ENDBRANCH  22  24
INPUT-LIGAND-PDBQT: ENDBRANCH  20  22
INPUT-LIGAND-PDBQT: ENDBRANCH   1  20
INPUT-LIGAND-PDBQT: TORSDOF 7


    FINAL DOCKED STATE:
    ________________________


Run:   1 / 20
Time taken for this run:   0.040s

DOCKED: MODEL        1
DOCKED: USER    Run = 1
DOCKED: USER
DOCKED: USER    Estimated Free Energy of Binding    =  -8.06 kcal/mol  [=(1)+(2)+(3)-(4)]
DOCKED: USER
DOCKED: USER    (1) Final Intermolecular Energy     = -10.15 kcal/mol
DOCKED: USER        vdW + Hbond + desolv Energy     = -10.03 kcal/mol
DOCKED: USER        Electrostatic Energy            =  -0.11 kcal/mol
DOCKED: USER        Moving Ligand-Fixed Receptor    = -10.15 kcal/mol
DOCKED: USER        Moving Ligand-Moving Receptor   =  +0.00 kcal/mol
DOCKED: USER    (2) Final Total Internal Energy     =  -1.45 kcal/mol
DOCKED: USER    (3) Torsional Free Energy           =  +2.09 kcal/mol
DOCKED: USER    (4) Unbound System's Energy         =  -1.45 kcal/mol
DOCKED: USER
DOCKED: USER
DOCKED: REMARK SMILES C[C@H](N/C(O)=C\NC(=O)c1ccc2cc(Cl)ccc2n1)c1ccccc1
DOCKED: REMARK SMILES IDX 4 1 5 2 6 4 7 5 8 6 9 8 10 9 20 10 11 11 19 12 12 13 18 14
DOCKED: REMARK SMILES IDX 13 15 17 16 14 17 15 18 16 19 3 20 2 22 1 23 21 24 22 25
DOCKED: REMARK SMILES IDX 26 26 23 27 25 28 24 29
DOCKED: REMARK H PARENT 5 3 7 7 3 21
DOCKED: USER                              x       y       z     vdW  Elec       q    Type
DOCKED: USER                           _______ _______ _______ _____ _____    ______ ____
DOCKED: ROOT
DOCKED: ATOM      1  C   UNL     1     140.553  74.679 221.859 -0.09 -0.02    +0.201 C  
DOCKED: ENDROOT
DOCKED: BRANCH   1   2
DOCKED: ATOM      2  O   UNL     1     139.290  74.395 222.377 -0.57 +0.10    -0.494 OA 
DOCKED: ATOM      3  H   UNL     1     139.137  73.644 223.041 -0.46 -0.13    +0.295 HD 
DOCKED: ENDBRANCH   1   2
DOCKED: BRANCH   1   4
DOCKED: ATOM      4  C   UNL     1     141.216  73.736 221.167 -0.22 -0.02    +0.152 C  
DOCKED: BRANCH   4   5
DOCKED: ATOM      5  N   UNL     1     140.592  72.867 220.207 -0.04 +0.06    -0.322 N  
DOCKED: ATOM      6  C   UNL     1     139.672  71.808 220.522 -0.05 -0.05    +0.273 C  
DOCKED: ATOM      7  H   UNL     1     140.885  72.972 219.210 +0.03 -0.03    +0.169 HD 
DOCKED: ATOM      8  O   UNL     1     138.874  71.416 219.628 -0.01 +0.05    -0.267 OA 
DOCKED: BRANCH   6   9
DOCKED: ATOM      9  C   UNL     1     139.663  71.140 221.845 -0.16 -0.02    +0.129 A  
DOCKED: ATOM     10  N   UNL     1     140.209  71.765 222.924 -0.24 +0.03    -0.243 NA 
DOCKED: ATOM     11  C   UNL     1     139.106  69.860 221.999 -0.15 -0.01    +0.035 A  
DOCKED: ATOM     12  C   UNL     1     140.219  71.200 224.161 -0.40 -0.01    +0.071 A  
DOCKED: ATOM     13  C   UNL     1     139.101  69.253 223.256 -0.24 -0.00    +0.013 A  
DOCKED: ATOM     14  C   UNL     1     140.779  71.887 225.242 -0.38 -0.00    +0.030 A  
DOCKED: ATOM     15  C   UNL     1     139.656  69.919 224.354 -0.35 -0.00    +0.002 A  
DOCKED: ATOM     16  C   UNL     1     140.784  71.305 226.514 -0.66 -0.00    +0.023 A  
DOCKED: ATOM     17  C   UNL     1     139.664  69.341 225.631 -0.43 -0.00    +0.030 A  
DOCKED: ATOM     18  C   UNL     1     140.227  70.036 226.710 -0.52 -0.01    +0.041 A  
DOCKED: ATOM     19  Cl  UNL     1     140.234  69.313 228.309 -0.75 +0.02    -0.084 Cl 
DOCKED: ENDBRANCH   6   9
DOCKED: ENDBRANCH   4   5
DOCKED: ENDBRANCH   1   4
DOCKED: BRANCH   1  20
DOCKED: ATOM     20  N   UNL     1     141.100  75.985 222.085 -0.18 +0.11    -0.349 N  
DOCKED: ATOM     21  H   UNL     1     142.142  76.047 222.119 -0.53 -0.13    +0.164 HD 
DOCKED: BRANCH  20  22
DOCKED: ATOM     22  C   UNL     1     140.360  77.194 221.712 -0.29 -0.03    +0.109 C  
DOCKED: ATOM     23  C   UNL     1     138.964  77.176 222.340 -0.30 -0.01    +0.036 C  
DOCKED: BRANCH  22  24
DOCKED: ATOM     24  C   UNL     1     141.126  78.430 222.137 -0.41 +0.01    -0.026 A  
DOCKED: ATOM     25  C   UNL     1     141.482  79.403 221.186 -0.35 -0.00    +0.006 A  
DOCKED: ATOM     26  C   UNL     1     141.487  78.629 223.484 -0.59 -0.00    +0.006 A  
DOCKED: ATOM     27  C   UNL     1     142.187  80.546 221.572 -0.45 -0.00    +0.000 A  
DOCKED: ATOM     28  C   UNL     1     142.192  79.774 223.866 -0.63 -0.00    +0.000 A  
DOCKED: ATOM     29  C   UNL     1     142.543  80.731 222.910 -0.61 -0.00    +0.000 A  
DOCKED: ENDBRANCH  22  24
DOCKED: ENDBRANCH  20  22
DOCKED: ENDBRANCH   1  20
DOCKED: TORSDOF 7
DOCKED: TER
DOCKED: ENDMDL
________________________________________________________________________________


    FINAL DOCKED STATE:
    ________________________


Run:   2 / 20
Time taken for this run:   0.040s

DOCKED: MODEL        2
DOCKED: USER    Run = 2
DOCKED: USER
DOCKED: USER    Estimated Free Energy of Binding    =  -6.53 kcal/mol  [=(1)+(2)+(3)-(4)]
DOCKED: USER
DOCKED: USER    (1) Final Intermolecular Energy     =  -8.62 kcal/mol
DOCKED: USER        vdW + Hbond + desolv Energy     =  -8.55 kcal/mol
DOCKED: USER        Electrostatic Energy            =  -0.07 kcal/mol
DOCKED: USER        Moving Ligand-Fixed Receptor    =  -8.62 kcal/mol
DOCKED: USER        Moving Ligand-Moving Receptor   =  +0.00 kcal/mol
DOCKED: USER    (2) Final Total Internal Energy     =  -2.79 kcal/mol
DOCKED: USER    (3) Torsional Free Energy           =  +2.09 kcal/mol
DOCKED: USER    (4) Unbound System's Energy         =  -2.79 kcal/mol
DOCKED: USER
DOCKED: USER
DOCKED: REMARK SMILES C[C@H](N/C(O)=C\NC(=O)c1ccc2cc(Cl)ccc2n1)c1ccccc1
DOCKED: REMARK SMILES IDX 4 1 5 2 6 4 7 5 8 6 9 8 10 9 20 10 11 11 19 12 12 13 18 14
DOCKED: REMARK SMILES IDX 13 15 17 16 14 17 15 18 16 19 3 20 2 22 1 23 21 24 22 25
DOCKED: REMARK SMILES IDX 26 26 23 27 25 28 24 29
DOCKED: REMARK H PARENT 5 3 7 7 3 21
DOCKED: USER                              x       y       z     vdW  Elec       q    Type
DOCKED: USER                           _______ _______ _______ _____ _____    ______ ____
DOCKED: ROOT
DOCKED: ATOM      1  C   UNL     1     142.314  76.532 220.004 -0.22 -0.12    +0.201 C  
DOCKED: ENDROOT
DOCKED: BRANCH   1   2
DOCKED: ATOM      2  O   UNL     1     143.527  76.742 219.349 -0.20 +0.37    -0.494 OA 
DOCKED: ATOM      3  H   UNL     1     144.219  77.398 219.695 -0.42 -0.33    +0.295 HD 
DOCKED: ENDBRANCH   1   2
DOCKED: BRANCH   1   4
DOCKED: ATOM      4  C   UNL     1     141.667  75.364 219.847 -0.17 -0.06    +0.152 C  
DOCKED: BRANCH   4   5
DOCKED: ATOM      5  N   UNL     1     141.398  74.453 220.925 -0.15 +0.07    -0.322 N  
DOCKED: ATOM      6  C   UNL     1     140.217  74.463 221.745 -0.15 -0.03    +0.273 C  
DOCKED: ATOM      7  H   UNL     1     142.153  73.775 221.174 +0.06 -0.03    +0.169 HD 
DOCKED: ATOM      8  O   UNL     1     139.885  73.401 222.338 -0.79 +0.03    -0.267 OA 
DOCKED: BRANCH   6   9
DOCKED: ATOM      9  C   UNL     1     139.408  75.688 221.945 -0.27 -0.03    +0.129 A  
DOCKED: ATOM     10  N   UNL     1     139.913  76.724 222.669 -0.21 +0.05    -0.243 NA 
DOCKED: ATOM     11  C   UNL     1     138.115  75.790 221.403 -0.17 -0.01    +0.035 A  
DOCKED: ATOM     12  C   UNL     1     139.215  77.873 222.874 -0.22 -0.01    +0.071 A  
DOCKED: ATOM     13  C   UNL     1     137.374  76.957 221.596 -0.15 -0.00    +0.013 A  
DOCKED: ATOM     14  C   UNL     1     139.782  78.917 223.613 -0.27 -0.00    +0.030 A  
DOCKED: ATOM     15  C   UNL     1     137.918  78.015 222.334 -0.23 -0.00    +0.002 A  
DOCKED: ATOM     16  C   UNL     1     139.064  80.099 223.818 -0.41 -0.00    +0.023 A  
DOCKED: ATOM     17  C   UNL     1     137.203  79.203 222.543 -0.17 -0.00    +0.030 A  
DOCKED: ATOM     18  C   UNL     1     137.778  80.244 223.284 -0.27 -0.01    +0.041 A  
DOCKED: ATOM     19  Cl  UNL     1     136.884  81.731 223.545 -0.26 +0.01    -0.084 Cl 
DOCKED: ENDBRANCH   6   9
DOCKED: ENDBRANCH   4   5
DOCKED: ENDBRANCH   1   4
DOCKED: BRANCH   1  20
DOCKED: ATOM     20  N   UNL     1     141.802  77.582 220.834 -0.13 +0.22    -0.349 N  
DOCKED: ATOM     21  H   UNL     1     141.806  77.397 221.863 -0.38 -0.11    +0.164 HD 
DOCKED: BRANCH  20  22
DOCKED: ATOM     22  C   UNL     1     141.827  78.981 220.397 -0.23 -0.06    +0.109 C  
DOCKED: ATOM     23  C   UNL     1     140.559  79.311 219.604 -0.15 -0.01    +0.036 C  
DOCKED: BRANCH  22  24
DOCKED: ATOM     24  C   UNL     1     141.972  79.902 221.590 -0.42 +0.01    -0.026 A  
DOCKED: ATOM     25  C   UNL     1     141.312  81.144 221.608 -0.40 -0.00    +0.006 A  
DOCKED: ATOM     26  C   UNL     1     142.759  79.531 222.698 -0.58 -0.00    +0.006 A  
DOCKED: ATOM     27  C   UNL     1     141.440  81.998 222.708 -0.39 -0.00    +0.000 A  
DOCKED: ATOM     28  C   UNL     1     142.884  80.389 223.795 -0.66 -0.00    +0.000 A  
DOCKED: ATOM     29  C   UNL     1     142.226  81.622 223.799 -0.57 -0.00    +0.000 A  
DOCKED: ENDBRANCH  22  24
DOCKED: ENDBRANCH  20  22
DOCKED: ENDBRANCH   1  20
DOCKED: TORSDOF 7
DOCKED: TER
DOCKED: ENDMDL
________________________________________________________________________________


    FINAL DOCKED STATE:
    ________________________


Run:   3 / 20
Time taken for this run:   0.040s

DOCKED: MODEL        3
DOCKED: USER    Run = 3
DOCKED: USER
DOCKED: USER    Estimated Free Energy of Binding    =  -7.94 kcal/mol  [=(1)+(2)+(3)-(4)]
DOCKED: USER
DOCKED: USER    (1) Final Intermolecular Energy     = -10.03 kcal/mol
DOCKED: USER        vdW + Hbond + desolv Energy     =  -9.92 kcal/mol
DOCKED: USER        Electrostatic Energy            =  -0.11 kcal/mol
DOCKED: USER        Moving Ligand-Fixed Receptor    = -10.03 kcal/mol
DOCKED: USER        Moving Ligand-Moving Receptor   =  +0.00 kcal/mol
DOCKED: USER    (2) Final Total Internal Energy     =  -1.55 kcal/mol
DOCKED: USER    (3) Torsional Free Energy           =  +2.09 kcal/mol
DOCKED: USER    (4) Unbound System's Energy         =  -1.55 kcal/mol
DOCKED: USER
DOCKED: USER
DOCKED: REMARK SMILES C[C@H](N/C(O)=C\NC(=O)c1ccc2cc(Cl)ccc2n1)c1ccccc1
DOCKED: REMARK SMILES IDX 4 1 5 2 6 4 7 5 8 6 9 8 10 9 20 10 11 11 19 12 12 13 18 14
DOCKED: REMARK SMILES IDX 13 15 17 16 14 17 15 18 16 19 3 20 2 22 1 23 21 24 22 25
DOCKED: REMARK SMILES IDX 26 26 23 27 25 28 24 29
DOCKED: REMARK H PARENT 5 3 7 7 3 21
DOCKED: USER                              x       y       z     vdW  Elec       q    Type
DOCKED: USER                           _______ _______ _______ _____ _____    ______ ____
DOCKED: ROOT
DOCKED: ATOM      1  C   UNL     1     140.620  74.564 221.666 -0.19 -0.02    +0.201 C  
DOCKED: ENDROOT
DOCKED: BRANCH   1   2
DOCKED: ATOM      2  O   UNL     1     139.411  74.530 222.360 -0.62 +0.08    -0.494 OA 
DOCKED: ATOM      3  H   UNL     1     139.169  73.766 222.981 -0.46 -0.12    +0.295 HD 
DOCKED: ENDBRANCH   1   2
DOCKED: BRANCH   1   4
DOCKED: ATOM      4  C   UNL     1     141.000  73.500 220.937 -0.20 -0.02    +0.152 C  
DOCKED: BRANCH   4   5
DOCKED: ATOM      5  N   UNL     1     140.101  72.734 220.120 -0.02 +0.06    -0.322 N  
DOCKED: ATOM      6  C   UNL     1     139.129  71.795 220.610 -0.04 -0.05    +0.273 C  
DOCKED: ATOM      7  H   UNL     1     140.212  72.817 219.084 +0.02 -0.03    +0.169 HD 
DOCKED: ATOM      8  O   UNL     1     138.134  71.523 219.886 -0.01 +0.05    -0.267 OA 
DOCKED: BRANCH   6   9
DOCKED: ATOM      9  C   UNL     1     139.284  71.112 221.916 -0.15 -0.02    +0.129 A  
DOCKED: ATOM     10  N   UNL     1     139.910  71.747 222.944 -0.23 +0.04    -0.243 NA 
DOCKED: ATOM     11  C   UNL     1     138.800  69.806 222.105 -0.15 -0.01    +0.035 A  
DOCKED: ATOM     12  C   UNL     1     140.071  71.168 224.164 -0.40 -0.01    +0.071 A  
DOCKED: ATOM     13  C   UNL     1     138.950  69.185 223.346 -0.25 -0.00    +0.013 A  
DOCKED: ATOM     14  C   UNL     1     140.708  71.866 225.195 -0.40 -0.00    +0.030 A  
DOCKED: ATOM     15  C   UNL     1     139.586  69.861 224.393 -0.35 -0.00    +0.002 A  
DOCKED: ATOM     16  C   UNL     1     140.868  71.270 226.449 -0.66 -0.00    +0.023 A  
DOCKED: ATOM     17  C   UNL     1     139.748  69.269 225.653 -0.44 -0.00    +0.030 A  
DOCKED: ATOM     18  C   UNL     1     140.389  69.974 226.680 -0.53 -0.01    +0.041 A  
DOCKED: ATOM     19  Cl  UNL     1     140.590  69.234 228.258 -0.76 +0.02    -0.084 Cl 
DOCKED: ENDBRANCH   6   9
DOCKED: ENDBRANCH   4   5
DOCKED: ENDBRANCH   1   4
DOCKED: BRANCH   1  20
DOCKED: ATOM     20  N   UNL     1     141.418  75.752 221.754 -0.14 +0.13    -0.349 N  
DOCKED: ATOM     21  H   UNL     1     142.438  75.608 221.931 -0.50 -0.12    +0.164 HD 
DOCKED: BRANCH  20  22
DOCKED: ATOM     22  C   UNL     1     141.014  76.992 221.083 -0.27 -0.05    +0.109 C  
DOCKED: ATOM     23  C   UNL     1     139.501  76.999 220.850 -0.16 -0.01    +0.036 C  
DOCKED: BRANCH  22  24
DOCKED: ATOM     24  C   UNL     1     141.439  78.194 221.902 -0.39 +0.01    -0.026 A  
DOCKED: ATOM     25  C   UNL     1     141.836  79.381 221.260 -0.38 -0.00    +0.006 A  
DOCKED: ATOM     26  C   UNL     1     141.438  78.147 223.309 -0.50 -0.00    +0.006 A  
DOCKED: ATOM     27  C   UNL     1     142.228  80.494 222.009 -0.51 -0.00    +0.000 A  
DOCKED: ATOM     28  C   UNL     1     141.831  79.263 224.054 -0.59 -0.00    +0.000 A  
DOCKED: ATOM     29  C   UNL     1     142.227  80.435 223.404 -0.65 -0.00    +0.000 A  
DOCKED: ENDBRANCH  22  24
DOCKED: ENDBRANCH  20  22
DOCKED: ENDBRANCH   1  20
DOCKED: TORSDOF 7
DOCKED: TER
DOCKED: ENDMDL
________________________________________________________________________________


    FINAL DOCKED STATE:
    ________________________


Run:   4 / 20
Time taken for this run:   0.040s

DOCKED: MODEL        4
DOCKED: USER    Run = 4
DOCKED: USER
DOCKED: USER    Estimated Free Energy of Binding    =  -7.77 kcal/mol  [=(1)+(2)+(3)-(4)]
DOCKED: USER
DOCKED: USER    (1) Final Intermolecular Energy     =  -9.85 kcal/mol
DOCKED: USER        vdW + Hbond + desolv Energy     =  -9.76 kcal/mol
DOCKED: USER        Electrostatic Energy            =  -0.10 kcal/mol
DOCKED: USER        Moving Ligand-Fixed Receptor    =  -9.85 kcal/mol
DOCKED: USER        Moving Ligand-Moving Receptor   =  +0.00 kcal/mol
DOCKED: USER    (2) Final Total Internal Energy     =  -1.71 kcal/mol
DOCKED: USER    (3) Torsional Free Energy           =  +2.09 kcal/mol
DOCKED: USER    (4) Unbound System's Energy         =  -1.71 kcal/mol
DOCKED: USER
DOCKED: USER
DOCKED: REMARK SMILES C[C@H](N/C(O)=C\NC(=O)c1ccc2cc(Cl)ccc2n1)c1ccccc1
DOCKED: REMARK SMILES IDX 4 1 5 2 6 4 7 5 8 6 9 8 10 9 20 10 11 11 19 12 12 13 18 14
DOCKED: REMARK SMILES IDX 13 15 17 16 14 17 15 18 16 19 3 20 2 22 1 23 21 24 22 25
DOCKED: REMARK SMILES IDX 26 26 23 27 25 28 24 29
DOCKED: REMARK H PARENT 5 3 7 7 3 21
DOCKED: USER                              x       y       z     vdW  Elec       q    Type
DOCKED: USER                           _______ _______ _______ _____ _____    ______ ____
DOCKED: ROOT
DOCKED: ATOM      1  C   UNL     1     140.867  73.929 221.392 -0.21 -0.03    +0.201 C  
DOCKED: ENDROOT
DOCKED: BRANCH   1   2
DOCKED: ATOM      2  O   UNL     1     139.889  74.225 222.341 -0.73 +0.02    -0.494 OA 
DOCKED: ATOM      3  H   UNL     1     139.554  73.532 223.002 -0.37 -0.06    +0.295 HD 
DOCKED: ENDBRANCH   1   2
DOCKED: BRANCH   1   4
DOCKED: ATOM      4  C   UNL     1     140.855  72.736 220.772 -0.16 -0.02    +0.152 C  
DOCKED: BRANCH   4   5
DOCKED: ATOM      5  N   UNL     1     139.675  72.150 220.199 -0.02 +0.06    -0.322 N  
DOCKED: ATOM      6  C   UNL     1     138.673  71.419 220.928 -0.04 -0.05    +0.273 C  
DOCKED: ATOM      7  H   UNL     1     139.575  72.201 219.161 +0.02 -0.03    +0.169 HD 
DOCKED: ATOM      8  O   UNL     1     137.513  71.337 220.442 -0.01 +0.05    -0.267 OA 
DOCKED: BRANCH   6   9
DOCKED: ATOM      9  C   UNL     1     138.974  70.731 222.204 -0.14 -0.02    +0.129 A  
DOCKED: ATOM     10  N   UNL     1     139.667  71.381 223.180 -0.21 +0.05    -0.243 NA 
DOCKED: ATOM     11  C   UNL     1     138.563  69.404 222.419 -0.17 -0.01    +0.035 A  
DOCKED: ATOM     12  C   UNL     1     139.961  70.798 224.372 -0.39 -0.01    +0.071 A  
DOCKED: ATOM     13  C   UNL     1     138.850  68.778 223.633 -0.28 -0.00    +0.013 A  
DOCKED: ATOM     14  C   UNL     1     140.662  71.512 225.349 -0.55 -0.00    +0.030 A  
DOCKED: ATOM     15  C   UNL     1     139.552  69.470 224.626 -0.36 -0.00    +0.002 A  
DOCKED: ATOM     16  C   UNL     1     140.960  70.910 226.576 -0.63 -0.00    +0.023 A  
DOCKED: ATOM     17  C   UNL     1     139.853  68.873 225.858 -0.48 -0.00    +0.030 A  
DOCKED: ATOM     18  C   UNL     1     140.556  69.594 226.832 -0.53 -0.01    +0.041 A  
DOCKED: ATOM     19  Cl  UNL     1     140.931  68.847 228.375 -0.75 +0.02    -0.084 Cl 
DOCKED: ENDBRANCH   6   9
DOCKED: ENDBRANCH   4   5
DOCKED: ENDBRANCH   1   4
DOCKED: BRANCH   1  20
DOCKED: ATOM     20  N   UNL     1     141.857  74.926 221.107 -0.14 +0.11    -0.349 N  
DOCKED: ATOM     21  H   UNL     1     142.290  75.394 221.935 -0.49 -0.09    +0.164 HD 
DOCKED: BRANCH  20  22
DOCKED: ATOM     22  C   UNL     1     142.632  74.895 219.863 -0.25 -0.04    +0.109 C  
DOCKED: ATOM     23  C   UNL     1     143.007  76.318 219.437 -0.36 -0.02    +0.036 C  
DOCKED: BRANCH  22  24
DOCKED: ATOM     24  C   UNL     1     143.871  74.041 220.037 -0.37 +0.01    -0.026 A  
DOCKED: ATOM     25  C   UNL     1     143.902  72.730 219.530 -0.25 -0.00    +0.006 A  
DOCKED: ATOM     26  C   UNL     1     145.009  74.544 220.698 -0.40 -0.00    +0.006 A  
DOCKED: ATOM     27  C   UNL     1     145.042  71.936 219.685 -0.35 +0.00    +0.000 A  
DOCKED: ATOM     28  C   UNL     1     146.147  73.746 220.852 -0.71 -0.00    +0.000 A  
DOCKED: ATOM     29  C   UNL     1     146.163  72.443 220.347 -0.40 +0.00    +0.000 A  
DOCKED: ENDBRANCH  22  24
DOCKED: ENDBRANCH  20  22
DOCKED: ENDBRANCH   1  20
DOCKED: TORSDOF 7
DOCKED: TER
DOCKED: ENDMDL
________________________________________________________________________________


    FINAL DOCKED STATE:
    ________________________


Run:   5 / 20
Time taken for this run:   0.040s

DOCKED: MODEL        5
DOCKED: USER    Run = 5
DOCKED: USER
DOCKED: USER    Estimated Free Energy of Binding    =  -6.78 kcal/mol  [=(1)+(2)+(3)-(4)]
DOCKED: USER
DOCKED: USER    (1) Final Intermolecular Energy     =  -8.87 kcal/mol
DOCKED: USER        vdW + Hbond + desolv Energy     =  -8.83 kcal/mol
DOCKED: USER        Electrostatic Energy            =  -0.03 kcal/mol
DOCKED: USER        Moving Ligand-Fixed Receptor    =  -8.87 kcal/mol
DOCKED: USER        Moving Ligand-Moving Receptor   =  +0.00 kcal/mol
DOCKED: USER    (2) Final Total Internal Energy     =  -2.39 kcal/mol
DOCKED: USER    (3) Torsional Free Energy           =  +2.09 kcal/mol
DOCKED: USER    (4) Unbound System's Energy         =  -2.39 kcal/mol
DOCKED: USER
DOCKED: USER
DOCKED: REMARK SMILES C[C@H](N/C(O)=C\NC(=O)c1ccc2cc(Cl)ccc2n1)c1ccccc1
DOCKED: REMARK SMILES IDX 4 1 5 2 6 4 7 5 8 6 9 8 10 9 20 10 11 11 19 12 12 13 18 14
DOCKED: REMARK SMILES IDX 13 15 17 16 14 17 15 18 16 19 3 20 2 22 1 23 21 24 22 25
DOCKED: REMARK SMILES IDX 26 26 23 27 25 28 24 29
DOCKED: REMARK H PARENT 5 3 7 7 3 21
DOCKED: USER                              x       y       z     vdW  Elec       q    Type
DOCKED: USER                           _______ _______ _______ _____ _____    ______ ____
DOCKED: ROOT
DOCKED: ATOM      1  C   UNL     1     140.432  74.917 221.568 -0.25 -0.03    +0.201 C  
DOCKED: ENDROOT
DOCKED: BRANCH   1   2
DOCKED: ATOM      2  O   UNL     1     139.431  74.314 222.327 -0.64 +0.09    -0.494 OA 
DOCKED: ATOM      3  H   UNL     1     139.636  73.609 223.027 -0.36 -0.04    +0.295 HD 
DOCKED: ENDBRANCH   1   2
DOCKED: BRANCH   1   4
DOCKED: ATOM      4  C   UNL     1     140.979  74.249 220.537 -0.18 -0.03    +0.152 C  
DOCKED: BRANCH   4   5
DOCKED: ATOM      5  N   UNL     1     142.379  73.940 220.442 -0.12 +0.08    -0.322 N  
DOCKED: ATOM      6  C   UNL     1     143.412  74.873 220.084 -0.24 -0.12    +0.273 C  
DOCKED: ATOM      7  H   UNL     1     142.655  72.942 220.578 +0.07 -0.03    +0.169 HD 
DOCKED: ATOM      8  O   UNL     1     144.595  74.633 220.447 -0.39 +0.12    -0.267 OA 
DOCKED: BRANCH   6   9
DOCKED: ATOM      9  C   UNL     1     143.135  76.080 219.269 -0.31 -0.08    +0.129 A  
DOCKED: ATOM     10  N   UNL     1     142.613  77.191 219.858 -0.21 +0.18    -0.243 NA 
DOCKED: ATOM     11  C   UNL     1     143.396  76.089 217.889 -0.25 -0.02    +0.035 A  
DOCKED: ATOM     12  C   UNL     1     142.349  78.326 219.158 -0.18 -0.05    +0.071 A  
DOCKED: ATOM     13  C   UNL     1     143.136  77.240 217.143 -0.25 -0.01    +0.013 A  
DOCKED: ATOM     14  C   UNL     1     141.825  79.447 219.809 -0.28 -0.02    +0.030 A  
DOCKED: ATOM     15  C   UNL     1     142.610  78.375 217.771 -0.31 -0.00    +0.002 A  
DOCKED: ATOM     16  C   UNL     1     141.559  80.615 219.087 -0.26 -0.01    +0.023 A  
DOCKED: ATOM     17  C   UNL     1     142.341  79.548 217.053 -0.18 -0.03    +0.030 A  
DOCKED: ATOM     18  C   UNL     1     141.817  80.667 217.712 -0.23 -0.03    +0.041 A  
DOCKED: ATOM     19  Cl  UNL     1     141.482  82.136 216.814 -0.18 +0.05    -0.084 Cl 
DOCKED: ENDBRANCH   6   9
DOCKED: ENDBRANCH   4   5
DOCKED: ENDBRANCH   1   4
DOCKED: BRANCH   1  20
DOCKED: ATOM     20  N   UNL     1     140.840  76.246 221.917 -0.20 +0.11    -0.349 N  
DOCKED: ATOM     21  H   UNL     1     141.846  76.476 221.753 -0.50 -0.11    +0.164 HD 
DOCKED: BRANCH  20  22
DOCKED: ATOM     22  C   UNL     1     139.884  77.358 221.929 -0.29 -0.03    +0.109 C  
DOCKED: ATOM     23  C   UNL     1     138.624  76.964 222.704 -0.27 -0.01    +0.036 C  
DOCKED: BRANCH  22  24
DOCKED: ATOM     24  C   UNL     1     140.523  78.593 222.531 -0.39 +0.01    -0.026 A  
DOCKED: ATOM     25  C   UNL     1     139.888  79.843 222.418 -0.31 -0.00    +0.006 A  
DOCKED: ATOM     26  C   UNL     1     141.751  78.511 223.215 -0.54 -0.00    +0.006 A  
DOCKED: ATOM     27  C   UNL     1     140.471  80.986 222.972 -0.41 -0.00    +0.000 A  
DOCKED: ATOM     28  C   UNL     1     142.330  79.657 223.768 -0.60 -0.00    +0.000 A  
DOCKED: ATOM     29  C   UNL     1     141.691  80.894 223.645 -0.58 -0.00    +0.000 A  
DOCKED: ENDBRANCH  22  24
DOCKED: ENDBRANCH  20  22
DOCKED: ENDBRANCH   1  20
DOCKED: TORSDOF 7
DOCKED: TER
DOCKED: ENDMDL
________________________________________________________________________________


    FINAL DOCKED STATE:
    ________________________


Run:   6 / 20
Time taken for this run:   0.040s

DOCKED: MODEL        6
DOCKED: USER    Run = 6
DOCKED: USER
DOCKED: USER    Estimated Free Energy of Binding    =  -7.80 kcal/mol  [=(1)+(2)+(3)-(4)]
DOCKED: USER
DOCKED: USER    (1) Final Intermolecular Energy     =  -9.89 kcal/mol
DOCKED: USER        vdW + Hbond + desolv Energy     =  -9.79 kcal/mol
DOCKED: USER        Electrostatic Energy            =  -0.10 kcal/mol
DOCKED: USER        Moving Ligand-Fixed Receptor    =  -9.89 kcal/mol
DOCKED: USER        Moving Ligand-Moving Receptor   =  +0.00 kcal/mol
DOCKED: USER    (2) Final Total Internal Energy     =  -1.70 kcal/mol
DOCKED: USER    (3) Torsional Free Energy           =  +2.09 kcal/mol
DOCKED: USER    (4) Unbound System's Energy         =  -1.70 kcal/mol
DOCKED: USER
DOCKED: USER
DOCKED: REMARK SMILES C[C@H](N/C(O)=C\NC(=O)c1ccc2cc(Cl)ccc2n1)c1ccccc1
DOCKED: REMARK SMILES IDX 4 1 5 2 6 4 7 5 8 6 9 8 10 9 20 10 11 11 19 12 12 13 18 14
DOCKED: REMARK SMILES IDX 13 15 17 16 14 17 15 18 16 19 3 20 2 22 1 23 21 24 22 25
DOCKED: REMARK SMILES IDX 26 26 23 27 25 28 24 29
DOCKED: REMARK H PARENT 5 3 7 7 3 21
DOCKED: USER                              x       y       z     vdW  Elec       q    Type
DOCKED: USER                           _______ _______ _______ _____ _____    ______ ____
DOCKED: ROOT
DOCKED: ATOM      1  C   UNL     1     140.746  73.913 221.418 -0.22 -0.03    +0.201 C  
DOCKED: ENDROOT
DOCKED: BRANCH   1   2
DOCKED: ATOM      2  O   UNL     1     139.751  74.220 222.345 -0.72 +0.04    -0.494 OA 
DOCKED: ATOM      3  H   UNL     1     139.376  73.526 222.982 -0.39 -0.09    +0.295 HD 
DOCKED: ENDBRANCH   1   2
DOCKED: BRANCH   1   4
DOCKED: ATOM      4  C   UNL     1     140.715  72.733 220.775 -0.15 -0.02    +0.152 C  
DOCKED: BRANCH   4   5
DOCKED: ATOM      5  N   UNL     1     139.515  72.148 220.243 -0.02 +0.06    -0.322 N  
DOCKED: ATOM      6  C   UNL     1     138.540  71.417 221.006 -0.04 -0.05    +0.273 C  
DOCKED: ATOM      7  H   UNL     1     139.378  72.200 219.209 +0.02 -0.03    +0.169 HD 
DOCKED: ATOM      8  O   UNL     1     137.364  71.336 220.562 -0.01 +0.05    -0.267 OA 
DOCKED: BRANCH   6   9
DOCKED: ATOM      9  C   UNL     1     138.887  70.726 222.271 -0.15 -0.02    +0.129 A  
DOCKED: ATOM     10  N   UNL     1     139.614  71.375 223.221 -0.21 +0.05    -0.243 NA 
DOCKED: ATOM     11  C   UNL     1     138.481  69.400 222.499 -0.18 -0.01    +0.035 A  
DOCKED: ATOM     12  C   UNL     1     139.951  70.790 224.402 -0.39 -0.01    +0.071 A  
DOCKED: ATOM     13  C   UNL     1     138.812  68.773 223.701 -0.29 -0.00    +0.013 A  
DOCKED: ATOM     14  C   UNL     1     140.688  71.502 225.353 -0.55 -0.00    +0.030 A  
DOCKED: ATOM     15  C   UNL     1     139.550  69.463 224.669 -0.37 -0.00    +0.002 A  
DOCKED: ATOM     16  C   UNL     1     141.028  70.899 226.568 -0.63 -0.00    +0.023 A  
DOCKED: ATOM     17  C   UNL     1     139.894  68.864 225.889 -0.49 -0.00    +0.030 A  
DOCKED: ATOM     18  C   UNL     1     140.633  69.583 226.837 -0.54 -0.01    +0.041 A  
DOCKED: ATOM     19  Cl  UNL     1     141.063  68.835 228.365 -0.74 +0.02    -0.084 Cl 
DOCKED: ENDBRANCH   6   9
DOCKED: ENDBRANCH   4   5
DOCKED: ENDBRANCH   1   4
DOCKED: BRANCH   1  20
DOCKED: ATOM     20  N   UNL     1     141.774  74.884 221.181 -0.15 +0.10    -0.349 N  
DOCKED: ATOM     21  H   UNL     1     142.248  75.268 222.029 -0.48 -0.07    +0.164 HD 
DOCKED: BRANCH  20  22
DOCKED: ATOM     22  C   UNL     1     142.518  74.912 219.918 -0.25 -0.04    +0.109 C  
DOCKED: ATOM     23  C   UNL     1     142.919  76.349 219.572 -0.36 -0.02    +0.036 C  
DOCKED: BRANCH  22  24
DOCKED: ATOM     24  C   UNL     1     143.738  74.018 220.006 -0.35 +0.01    -0.026 A  
DOCKED: ATOM     25  C   UNL     1     144.945  74.520 220.523 -0.48 -0.00    +0.006 A  
DOCKED: ATOM     26  C   UNL     1     143.682  72.676 219.582 -0.24 -0.00    +0.006 A  
DOCKED: ATOM     27  C   UNL     1     146.074  73.700 220.608 -0.67 -0.00    +0.000 A  
DOCKED: ATOM     28  C   UNL     1     144.814  71.860 219.670 -0.33 +0.00    +0.000 A  
DOCKED: ATOM     29  C   UNL     1     146.009  72.372 220.181 -0.43 +0.00    +0.000 A  
DOCKED: ENDBRANCH  22  24
DOCKED: ENDBRANCH  20  22
DOCKED: ENDBRANCH   1  20
DOCKED: TORSDOF 7
DOCKED: TER
DOCKED: ENDMDL
________________________________________________________________________________


    FINAL DOCKED STATE:
    ________________________


Run:   7 / 20
Time taken for this run:   0.040s

DOCKED: MODEL        7
DOCKED: USER    Run = 7
DOCKED: USER
DOCKED: USER    Estimated Free Energy of Binding    =  -7.94 kcal/mol  [=(1)+(2)+(3)-(4)]
DOCKED: USER
DOCKED: USER    (1) Final Intermolecular Energy     = -10.03 kcal/mol
DOCKED: USER        vdW + Hbond + desolv Energy     =  -9.89 kcal/mol
DOCKED: USER        Electrostatic Energy            =  -0.14 kcal/mol
DOCKED: USER        Moving Ligand-Fixed Receptor    = -10.03 kcal/mol
DOCKED: USER        Moving Ligand-Moving Receptor   =  +0.00 kcal/mol
DOCKED: USER    (2) Final Total Internal Energy     =  -1.56 kcal/mol
DOCKED: USER    (3) Torsional Free Energy           =  +2.09 kcal/mol
DOCKED: USER    (4) Unbound System's Energy         =  -1.56 kcal/mol
DOCKED: USER
DOCKED: USER
DOCKED: REMARK SMILES C[C@H](N/C(O)=C\NC(=O)c1ccc2cc(Cl)ccc2n1)c1ccccc1
DOCKED: REMARK SMILES IDX 4 1 5 2 6 4 7 5 8 6 9 8 10 9 20 10 11 11 19 12 12 13 18 14
DOCKED: REMARK SMILES IDX 13 15 17 16 14 17 15 18 16 19 3 20 2 22 1 23 21 24 22 25
DOCKED: REMARK SMILES IDX 26 26 23 27 25 28 24 29
DOCKED: REMARK H PARENT 5 3 7 7 3 21
DOCKED: USER                              x       y       z     vdW  Elec       q    Type
DOCKED: USER                           _______ _______ _______ _____ _____    ______ ____
DOCKED: ROOT
DOCKED: ATOM      1  C   UNL     1     140.635  74.701 221.824 -0.10 -0.02    +0.201 C  
DOCKED: ENDROOT
DOCKED: BRANCH   1   2
DOCKED: ATOM      2  O   UNL     1     139.553  74.729 222.702 -0.46 +0.05    -0.494 OA 
DOCKED: ATOM      3  H   UNL     1     139.142  73.881 223.077 -0.48 -0.13    +0.295 HD 
DOCKED: ENDBRANCH   1   2
DOCKED: BRANCH   1   4
DOCKED: ATOM      4  C   UNL     1     140.888  73.588 221.114 -0.21 -0.02    +0.152 C  
DOCKED: BRANCH   4   5
DOCKED: ATOM      5  N   UNL     1     139.892  72.886 220.353 -0.03 +0.06    -0.322 N  
DOCKED: ATOM      6  C   UNL     1     138.928  71.967 220.895 -0.05 -0.05    +0.273 C  
DOCKED: ATOM      7  H   UNL     1     139.917  73.003 219.315 +0.03 -0.03    +0.169 HD 
DOCKED: ATOM      8  O   UNL     1     137.864  71.759 220.251 -0.02 +0.05    -0.267 OA 
DOCKED: BRANCH   6   9
DOCKED: ATOM      9  C   UNL     1     139.166  71.232 222.159 -0.16 -0.02    +0.129 A  
DOCKED: ATOM     10  N   UNL     1     139.815  71.843 223.188 -0.25 +0.05    -0.243 NA 
DOCKED: ATOM     11  C   UNL     1     138.739  69.901 222.307 -0.16 -0.01    +0.035 A  
DOCKED: ATOM     12  C   UNL     1     140.051  71.216 224.371 -0.41 -0.01    +0.071 A  
DOCKED: ATOM     13  C   UNL     1     138.967  69.231 223.509 -0.26 -0.00    +0.013 A  
DOCKED: ATOM     14  C   UNL     1     140.708  71.891 225.405 -0.42 -0.00    +0.030 A  
DOCKED: ATOM     15  C   UNL     1     139.624  69.883 224.558 -0.37 -0.00    +0.002 A  
DOCKED: ATOM     16  C   UNL     1     140.946  71.244 226.622 -0.67 -0.00    +0.023 A  
DOCKED: ATOM     17  C   UNL     1     139.865  69.240 225.781 -0.45 -0.00    +0.030 A  
DOCKED: ATOM     18  C   UNL     1     140.525  69.922 226.812 -0.53 -0.01    +0.041 A  
DOCKED: ATOM     19  Cl  UNL     1     140.824  69.119 228.342 -0.74 +0.02    -0.084 Cl 
DOCKED: ENDBRANCH   6   9
DOCKED: ENDBRANCH   4   5
DOCKED: ENDBRANCH   1   4
DOCKED: BRANCH   1  20
DOCKED: ATOM     20  N   UNL     1     141.442  75.880 221.706 -0.13 +0.14    -0.349 N  
DOCKED: ATOM     21  H   UNL     1     142.472  75.725 221.622 -0.49 -0.13    +0.164 HD 
DOCKED: BRANCH  20  22
DOCKED: ATOM     22  C   UNL     1     140.897  77.125 221.155 -0.27 -0.04    +0.109 C  
DOCKED: ATOM     23  C   UNL     1     139.367  77.070 221.136 -0.19 -0.01    +0.036 C  
DOCKED: BRANCH  22  24
DOCKED: ATOM     24  C   UNL     1     141.384  78.313 221.960 -0.40 +0.01    -0.026 A  
DOCKED: ATOM     25  C   UNL     1     141.413  78.250 223.364 -0.53 -0.00    +0.006 A  
DOCKED: ATOM     26  C   UNL     1     141.820  79.489 221.320 -0.40 -0.00    +0.006 A  
DOCKED: ATOM     27  C   UNL     1     141.862  79.342 224.113 -0.56 -0.00    +0.000 A  
DOCKED: ATOM     28  C   UNL     1     142.268  80.578 222.072 -0.51 -0.00    +0.000 A  
DOCKED: ATOM     29  C   UNL     1     142.288  80.505 223.468 -0.65 -0.00    +0.000 A  
DOCKED: ENDBRANCH  22  24
DOCKED: ENDBRANCH  20  22
DOCKED: ENDBRANCH   1  20
DOCKED: TORSDOF 7
DOCKED: TER
DOCKED: ENDMDL
________________________________________________________________________________


    FINAL DOCKED STATE:
    ________________________


Run:   8 / 20
Time taken for this run:   0.040s

DOCKED: MODEL        8
DOCKED: USER    Run = 8
DOCKED: USER
DOCKED: USER    Estimated Free Energy of Binding    =  -7.27 kcal/mol  [=(1)+(2)+(3)-(4)]
DOCKED: USER
DOCKED: USER    (1) Final Intermolecular Energy     =  -9.36 kcal/mol
DOCKED: USER        vdW + Hbond + desolv Energy     =  -9.21 kcal/mol
DOCKED: USER        Electrostatic Energy            =  -0.15 kcal/mol
DOCKED: USER        Moving Ligand-Fixed Receptor    =  -9.36 kcal/mol
DOCKED: USER        Moving Ligand-Moving Receptor   =  +0.00 kcal/mol
DOCKED: USER    (2) Final Total Internal Energy     =  -1.55 kcal/mol
DOCKED: USER    (3) Torsional Free Energy           =  +2.09 kcal/mol
DOCKED: USER    (4) Unbound System's Energy         =  -1.55 kcal/mol
DOCKED: USER
DOCKED: USER
DOCKED: REMARK SMILES C[C@H](N/C(O)=C\NC(=O)c1ccc2cc(Cl)ccc2n1)c1ccccc1
DOCKED: REMARK SMILES IDX 4 1 5 2 6 4 7 5 8 6 9 8 10 9 20 10 11 11 19 12 12 13 18 14
DOCKED: REMARK SMILES IDX 13 15 17 16 14 17 15 18 16 19 3 20 2 22 1 23 21 24 22 25
DOCKED: REMARK SMILES IDX 26 26 23 27 25 28 24 29
DOCKED: REMARK H PARENT 5 3 7 7 3 21
DOCKED: USER                              x       y       z     vdW  Elec       q    Type
DOCKED: USER                           _______ _______ _______ _____ _____    ______ ____
DOCKED: ROOT
DOCKED: ATOM      1  C   UNL     1     140.064  72.418 222.398 -0.23 -0.03    +0.201 C  
DOCKED: ENDROOT
DOCKED: BRANCH   1   2
DOCKED: ATOM      2  O   UNL     1     139.951  73.770 222.715 -0.62 -0.01    -0.494 OA 
DOCKED: ATOM      3  H   UNL     1     139.054  74.241 222.756 -0.48 -0.10    +0.295 HD 
DOCKED: ENDBRANCH   1   2
DOCKED: BRANCH   1   4
DOCKED: ATOM      4  C   UNL     1     139.784  72.000 221.151 -0.13 -0.03    +0.152 C  
DOCKED: BRANCH   4   5
DOCKED: ATOM      5  N   UNL     1     138.700  72.519 220.363 -0.01 +0.06    -0.322 N  
DOCKED: ATOM      6  C   UNL     1     138.661  73.825 219.763 -0.02 -0.06    +0.273 C  
DOCKED: ATOM      7  H   UNL     1     137.846  71.923 220.279 +0.02 -0.03    +0.169 HD 
DOCKED: ATOM      8  O   UNL     1     137.907  74.010 218.770 -0.00 +0.05    -0.267 OA 
DOCKED: BRANCH   6   9
DOCKED: ATOM      9  C   UNL     1     139.444  74.962 220.300 -0.09 -0.03    +0.129 A  
DOCKED: ATOM     10  N   UNL     1     138.889  75.792 221.225 -0.11 +0.05    -0.243 NA 
DOCKED: ATOM     11  C   UNL     1     140.756  75.203 219.857 -0.13 -0.01    +0.035 A  
DOCKED: ATOM     12  C   UNL     1     139.568  76.844 221.756 -0.27 -0.02    +0.071 A  
DOCKED: ATOM     13  C   UNL     1     141.479  76.274 220.383 -0.27 -0.01    +0.013 A  
DOCKED: ATOM     14  C   UNL     1     138.960  77.660 222.715 -0.29 -0.01    +0.030 A  
DOCKED: ATOM     15  C   UNL     1     140.892  77.107 221.343 -0.33 -0.00    +0.002 A  
DOCKED: ATOM     16  C   UNL     1     139.662  78.738 223.263 -0.33 -0.00    +0.023 A  
DOCKED: ATOM     17  C   UNL     1     141.591  78.190 221.895 -0.33 -0.02    +0.030 A  
DOCKED: ATOM     18  C   UNL     1     140.976  79.003 222.855 -0.45 -0.01    +0.041 A  
DOCKED: ATOM     19  Cl  UNL     1     141.851  80.356 223.548 -0.75 +0.02    -0.084 Cl 
DOCKED: ENDBRANCH   6   9
DOCKED: ENDBRANCH   4   5
DOCKED: ENDBRANCH   1   4
DOCKED: BRANCH   1  20
DOCKED: ATOM     20  N   UNL     1     140.485  71.513 223.428 -0.19 +0.04    -0.349 N  
DOCKED: ATOM     21  H   UNL     1     141.456  71.649 223.790 +0.09 +0.00    +0.164 HD 
DOCKED: BRANCH  20  22
DOCKED: ATOM     22  C   UNL     1     139.515  70.864 224.315 -0.35 -0.02    +0.109 C  
DOCKED: ATOM     23  C   UNL     1     139.173  69.466 223.793 -0.28 -0.01    +0.036 C  
DOCKED: BRANCH  22  24
DOCKED: ATOM     24  C   UNL     1     140.060  70.793 225.727 -0.51 +0.00    -0.026 A  
DOCKED: ATOM     25  C   UNL     1     140.744  71.892 226.276 -0.61 -0.00    +0.006 A  
DOCKED: ATOM     26  C   UNL     1     139.886  69.636 226.511 -0.52 -0.00    +0.006 A  
DOCKED: ATOM     27  C   UNL     1     141.248  71.834 227.579 -0.80 -0.00    +0.000 A  
DOCKED: ATOM     28  C   UNL     1     140.392  69.583 227.814 -0.63 -0.00    +0.000 A  
DOCKED: ATOM     29  C   UNL     1     141.074  70.681 228.346 -0.59 -0.00    +0.000 A  
DOCKED: ENDBRANCH  22  24
DOCKED: ENDBRANCH  20  22
DOCKED: ENDBRANCH   1  20
DOCKED: TORSDOF 7
DOCKED: TER
DOCKED: ENDMDL
________________________________________________________________________________


    FINAL DOCKED STATE:
    ________________________


Run:   9 / 20
Time taken for this run:   0.040s

DOCKED: MODEL        9
DOCKED: USER    Run = 9
DOCKED: USER
DOCKED: USER    Estimated Free Energy of Binding    =  -6.24 kcal/mol  [=(1)+(2)+(3)-(4)]
DOCKED: USER
DOCKED: USER    (1) Final Intermolecular Energy     =  -8.33 kcal/mol
DOCKED: USER        vdW + Hbond + desolv Energy     =  -8.13 kcal/mol
DOCKED: USER        Electrostatic Energy            =  -0.20 kcal/mol
DOCKED: USER        Moving Ligand-Fixed Receptor    =  -8.33 kcal/mol
DOCKED: USER        Moving Ligand-Moving Receptor   =  +0.00 kcal/mol
DOCKED: USER    (2) Final Total Internal Energy     =  -2.60 kcal/mol
DOCKED: USER    (3) Torsional Free Energy           =  +2.09 kcal/mol
DOCKED: USER    (4) Unbound System's Energy         =  -2.60 kcal/mol
DOCKED: USER
DOCKED: USER
DOCKED: REMARK SMILES C[C@H](N/C(O)=C\NC(=O)c1ccc2cc(Cl)ccc2n1)c1ccccc1
DOCKED: REMARK SMILES IDX 4 1 5 2 6 4 7 5 8 6 9 8 10 9 20 10 11 11 19 12 12 13 18 14
DOCKED: REMARK SMILES IDX 13 15 17 16 14 17 15 18 16 19 3 20 2 22 1 23 21 24 22 25
DOCKED: REMARK SMILES IDX 26 26 23 27 25 28 24 29
DOCKED: REMARK H PARENT 5 3 7 7 3 21
DOCKED: USER                              x       y       z     vdW  Elec       q    Type
DOCKED: USER                           _______ _______ _______ _____ _____    ______ ____
DOCKED: ROOT
DOCKED: ATOM      1  C   UNL     1     142.125  78.733 218.624 -0.22 -0.14    +0.201 C  
DOCKED: ENDROOT
DOCKED: BRANCH   1   2
DOCKED: ATOM      2  O   UNL     1     142.750  79.821 218.016 -0.17 +0.50    -0.494 OA 
DOCKED: ATOM      3  H   UNL     1     143.481  79.704 217.323 -0.47 -0.59    +0.295 HD 
DOCKED: ENDBRANCH   1   2
DOCKED: BRANCH   1   4
DOCKED: ATOM      4  C   UNL     1     142.557  77.487 218.364 -0.26 -0.10    +0.152 C  
DOCKED: BRANCH   4   5
DOCKED: ATOM      5  N   UNL     1     143.482  76.774 219.201 -0.20 +0.24    -0.322 N  
DOCKED: ATOM      6  C   UNL     1     143.139  75.690 220.081 -0.15 -0.16    +0.273 C  
DOCKED: ATOM      7  H   UNL     1     144.468  77.118 219.221 -0.34 -0.14    +0.169 HD 
DOCKED: ATOM      8  O   UNL     1     144.041  74.877 220.417 -0.35 +0.13    -0.267 OA 
DOCKED: BRANCH   6   9
DOCKED: ATOM      9  C   UNL     1     141.774  75.527 220.634 -0.24 -0.05    +0.129 A  
DOCKED: ATOM     10  N   UNL     1     141.125  76.598 221.168 -0.19 +0.10    -0.243 NA 
DOCKED: ATOM     11  C   UNL     1     141.140  74.272 220.624 -0.23 -0.01    +0.035 A  
DOCKED: ATOM     12  C   UNL     1     139.869  76.504 221.680 -0.29 -0.02    +0.071 A  
DOCKED: ATOM     13  C   UNL     1     139.851  74.144 221.142 -0.23 -0.00    +0.013 A  
DOCKED: ATOM     14  C   UNL     1     139.238  77.636 222.205 -0.29 -0.01    +0.030 A  
DOCKED: ATOM     15  C   UNL     1     139.198  75.261 221.674 -0.28 -0.00    +0.002 A  
DOCKED: ATOM     16  C   UNL     1     137.944  77.537 222.726 -0.26 -0.00    +0.023 A  
DOCKED: ATOM     17  C   UNL     1     137.901  75.168 222.198 -0.19 -0.01    +0.030 A  
DOCKED: ATOM     18  C   UNL     1     137.275  76.306 222.723 -0.26 -0.01    +0.041 A  
DOCKED: ATOM     19  Cl  UNL     1     135.651  76.190 223.377 -0.29 +0.01    -0.084 Cl 
DOCKED: ENDBRANCH   6   9
DOCKED: ENDBRANCH   4   5
DOCKED: ENDBRANCH   1   4
DOCKED: BRANCH   1  20
DOCKED: ATOM     20  N   UNL     1     141.036  78.991 219.520 -0.06 +0.16    -0.349 N  
DOCKED: ATOM     21  H   UNL     1     140.676  78.168 220.054 +0.06 -0.07    +0.164 HD 
DOCKED: BRANCH  20  22
DOCKED: ATOM     22  C   UNL     1     140.825  80.320 220.101 -0.19 -0.04    +0.109 C  
DOCKED: ATOM     23  C   UNL     1     139.330  80.647 220.146 -0.09 -0.01    +0.036 C  
DOCKED: BRANCH  22  24
DOCKED: ATOM     24  C   UNL     1     141.435  80.392 221.486 -0.37 +0.01    -0.026 A  
DOCKED: ATOM     25  C   UNL     1     141.241  81.532 222.285 -0.44 -0.00    +0.006 A  
DOCKED: ATOM     26  C   UNL     1     142.196  79.322 221.996 -0.48 -0.00    +0.006 A  
DOCKED: ATOM     27  C   UNL     1     141.799  81.604 223.564 -0.53 -0.00    +0.000 A  
DOCKED: ATOM     28  C   UNL     1     142.753  79.399 223.276 -0.51 -0.00    +0.000 A  
DOCKED: ATOM     29  C   UNL     1     142.556  80.539 224.059 -0.62 -0.00    +0.000 A  
DOCKED: ENDBRANCH  22  24
DOCKED: ENDBRANCH  20  22
DOCKED: ENDBRANCH   1  20
DOCKED: TORSDOF 7
DOCKED: TER
DOCKED: ENDMDL
________________________________________________________________________________


    FINAL DOCKED STATE:
    ________________________


Run:   10 / 20
Time taken for this run:   0.040s

DOCKED: MODEL        10
DOCKED: USER    Run = 10
DOCKED: USER
DOCKED: USER    Estimated Free Energy of Binding    =  -6.30 kcal/mol  [=(1)+(2)+(3)-(4)]
DOCKED: USER
DOCKED: USER    (1) Final Intermolecular Energy     =  -8.39 kcal/mol
DOCKED: USER        vdW + Hbond + desolv Energy     =  -8.18 kcal/mol
DOCKED: USER        Electrostatic Energy            =  -0.20 kcal/mol
DOCKED: USER        Moving Ligand-Fixed Receptor    =  -8.39 kcal/mol
DOCKED: USER        Moving Ligand-Moving Receptor   =  +0.00 kcal/mol
DOCKED: USER    (2) Final Total Internal Energy     =  -2.59 kcal/mol
DOCKED: USER    (3) Torsional Free Energy           =  +2.09 kcal/mol
DOCKED: USER    (4) Unbound System's Energy         =  -2.59 kcal/mol
DOCKED: USER
DOCKED: USER
DOCKED: REMARK SMILES C[C@H](N/C(O)=C\NC(=O)c1ccc2cc(Cl)ccc2n1)c1ccccc1
DOCKED: REMARK SMILES IDX 4 1 5 2 6 4 7 5 8 6 9 8 10 9 20 10 11 11 19 12 12 13 18 14
DOCKED: REMARK SMILES IDX 13 15 17 16 14 17 15 18 16 19 3 20 2 22 1 23 21 24 22 25
DOCKED: REMARK SMILES IDX 26 26 23 27 25 28 24 29
DOCKED: REMARK H PARENT 5 3 7 7 3 21
DOCKED: USER                              x       y       z     vdW  Elec       q    Type
DOCKED: USER                           _______ _______ _______ _____ _____    ______ ____
DOCKED: ROOT
DOCKED: ATOM      1  C   UNL     1     142.131  78.765 218.635 -0.22 -0.14    +0.201 C  
DOCKED: ENDROOT
DOCKED: BRANCH   1   2
DOCKED: ATOM      2  O   UNL     1     142.848  79.831 218.094 -0.17 +0.51    -0.494 OA 
DOCKED: ATOM      3  H   UNL     1     143.530  79.701 217.354 -0.47 -0.59    +0.295 HD 
DOCKED: ENDBRANCH   1   2
DOCKED: BRANCH   1   4
DOCKED: ATOM      4  C   UNL     1     142.524  77.504 218.385 -0.26 -0.10    +0.152 C  
DOCKED: BRANCH   4   5
DOCKED: ATOM      5  N   UNL     1     143.456  76.783 219.208 -0.20 +0.24    -0.322 N  
DOCKED: ATOM      6  C   UNL     1     143.120  75.696 220.086 -0.15 -0.16    +0.273 C  
DOCKED: ATOM      7  H   UNL     1     144.444  77.124 219.218 -0.36 -0.14    +0.169 HD 
DOCKED: ATOM      8  O   UNL     1     144.024  74.878 220.407 -0.34 +0.13    -0.267 OA 
DOCKED: BRANCH   6   9
DOCKED: ATOM      9  C   UNL     1     141.761  75.534 220.654 -0.24 -0.05    +0.129 A  
DOCKED: ATOM     10  N   UNL     1     141.111  76.610 221.176 -0.19 +0.10    -0.243 NA 
DOCKED: ATOM     11  C   UNL     1     141.136  74.275 220.670 -0.23 -0.01    +0.035 A  
DOCKED: ATOM     12  C   UNL     1     139.860  76.517 221.701 -0.29 -0.02    +0.071 A  
DOCKED: ATOM     13  C   UNL     1     139.852  74.148 221.202 -0.23 -0.00    +0.013 A  
DOCKED: ATOM     14  C   UNL     1     139.227  77.653 222.213 -0.29 -0.01    +0.030 A  
DOCKED: ATOM     15  C   UNL     1     139.197  75.270 221.722 -0.28 -0.00    +0.002 A  
DOCKED: ATOM     16  C   UNL     1     137.938  77.555 222.747 -0.26 -0.00    +0.023 A  
DOCKED: ATOM     17  C   UNL     1     137.905  75.178 222.259 -0.19 -0.01    +0.030 A  
DOCKED: ATOM     18  C   UNL     1     137.277  76.321 222.771 -0.26 -0.01    +0.041 A  
DOCKED: ATOM     19  Cl  UNL     1     135.660  76.207 223.441 -0.29 +0.01    -0.084 Cl 
DOCKED: ENDBRANCH   6   9
DOCKED: ENDBRANCH   4   5
DOCKED: ENDBRANCH   1   4
DOCKED: BRANCH   1  20
DOCKED: ATOM     20  N   UNL     1     140.991  79.060 219.452 -0.05 +0.16    -0.349 N  
DOCKED: ATOM     21  H   UNL     1     140.546  78.245 219.932 +0.06 -0.06    +0.164 HD 
DOCKED: BRANCH  20  22
DOCKED: ATOM     22  C   UNL     1     140.808  80.384 220.055 -0.19 -0.04    +0.109 C  
DOCKED: ATOM     23  C   UNL     1     139.319  80.732 220.127 -0.09 -0.01    +0.036 C  
DOCKED: BRANCH  22  24
DOCKED: ATOM     24  C   UNL     1     141.439  80.426 221.432 -0.37 +0.01    -0.026 A  
DOCKED: ATOM     25  C   UNL     1     141.283  81.562 222.246 -0.44 -0.00    +0.006 A  
DOCKED: ATOM     26  C   UNL     1     142.182  79.333 221.920 -0.47 -0.00    +0.006 A  
DOCKED: ATOM     27  C   UNL     1     141.861  81.606 223.518 -0.54 -0.00    +0.000 A  
DOCKED: ATOM     28  C   UNL     1     142.758  79.383 223.192 -0.53 -0.00    +0.000 A  
DOCKED: ATOM     29  C   UNL     1     142.599  80.519 223.990 -0.64 -0.00    +0.000 A  
DOCKED: ENDBRANCH  22  24
DOCKED: ENDBRANCH  20  22
DOCKED: ENDBRANCH   1  20
DOCKED: TORSDOF 7
DOCKED: TER
DOCKED: ENDMDL
________________________________________________________________________________


    FINAL DOCKED STATE:
    ________________________


Run:   11 / 20
Time taken for this run:   0.040s

DOCKED: MODEL        11
DOCKED: USER    Run = 11
DOCKED: USER
DOCKED: USER    Estimated Free Energy of Binding    =  -5.61 kcal/mol  [=(1)+(2)+(3)-(4)]
DOCKED: USER
DOCKED: USER    (1) Final Intermolecular Energy     =  -7.69 kcal/mol
DOCKED: USER        vdW + Hbond + desolv Energy     =  -7.41 kcal/mol
DOCKED: USER        Electrostatic Energy            =  -0.28 kcal/mol
DOCKED: USER        Moving Ligand-Fixed Receptor    =  -7.69 kcal/mol
DOCKED: USER        Moving Ligand-Moving Receptor   =  +0.00 kcal/mol
DOCKED: USER    (2) Final Total Internal Energy     =  -3.21 kcal/mol
DOCKED: USER    (3) Torsional Free Energy           =  +2.09 kcal/mol
DOCKED: USER    (4) Unbound System's Energy         =  -3.21 kcal/mol
DOCKED: USER
DOCKED: USER
DOCKED: REMARK SMILES C[C@H](N/C(O)=C\NC(=O)c1ccc2cc(Cl)ccc2n1)c1ccccc1
DOCKED: REMARK SMILES IDX 4 1 5 2 6 4 7 5 8 6 9 8 10 9 20 10 11 11 19 12 12 13 18 14
DOCKED: REMARK SMILES IDX 13 15 17 16 14 17 15 18 16 19 3 20 2 22 1 23 21 24 22 25
DOCKED: REMARK SMILES IDX 26 26 23 27 25 28 24 29
DOCKED: REMARK H PARENT 5 3 7 7 3 21
DOCKED: USER                              x       y       z     vdW  Elec       q    Type
DOCKED: USER                           _______ _______ _______ _____ _____    ______ ____
DOCKED: ROOT
DOCKED: ATOM      1  C   UNL     1     142.070  79.925 218.443 -0.23 -0.14    +0.201 C  
DOCKED: ENDROOT
DOCKED: BRANCH   1   2
DOCKED: ATOM      2  O   UNL     1     142.954  80.820 217.842 -0.19 +0.52    -0.494 OA 
DOCKED: ATOM      3  H   UNL     1     143.676  80.514 217.200 -0.42 -0.67    +0.295 HD 
DOCKED: ENDBRANCH   1   2
DOCKED: BRANCH   1   4
DOCKED: ATOM      4  C   UNL     1     142.158  78.613 218.162 -0.23 -0.11    +0.152 C  
DOCKED: BRANCH   4   5
DOCKED: ATOM      5  N   UNL     1     143.033  77.709 218.855 -0.10 +0.26    -0.322 N  
DOCKED: ATOM      6  C   UNL     1     142.616  76.717 219.810 -0.20 -0.18    +0.273 C  
DOCKED: ATOM      7  H   UNL     1     144.060  77.829 218.702 -0.29 -0.16    +0.169 HD 
DOCKED: ATOM      8  O   UNL     1     143.364  75.724 220.015 -0.31 +0.16    -0.267 OA 
DOCKED: BRANCH   6   9
DOCKED: ATOM      9  C   UNL     1     141.360  76.851 220.584 -0.23 -0.06    +0.129 A  
DOCKED: ATOM     10  N   UNL     1     140.474  77.838 220.277 -0.07 +0.09    -0.243 NA 
DOCKED: ATOM     11  C   UNL     1     141.074  75.974 221.645 -0.35 -0.01    +0.035 A  
DOCKED: ATOM     12  C   UNL     1     139.304  77.998 220.950 -0.13 -0.02    +0.071 A  
DOCKED: ATOM     13  C   UNL     1     139.880  76.113 222.355 -0.36 -0.00    +0.013 A  
DOCKED: ATOM     14  C   UNL     1     138.419  79.018 220.587 -0.08 -0.01    +0.030 A  
DOCKED: ATOM     15  C   UNL     1     138.979  77.127 222.013 -0.28 -0.00    +0.002 A  
DOCKED: ATOM     16  C   UNL     1     137.214  79.177 221.279 -0.08 -0.00    +0.023 A  
DOCKED: ATOM     17  C   UNL     1     137.769  77.291 222.702 -0.26 -0.01    +0.030 A  
DOCKED: ATOM     18  C   UNL     1     136.888  78.316 222.334 -0.16 -0.01    +0.041 A  
DOCKED: ATOM     19  Cl  UNL     1     135.373  78.521 223.195 -0.17 +0.01    -0.084 Cl 
DOCKED: ENDBRANCH   6   9
DOCKED: ENDBRANCH   4   5
DOCKED: ENDBRANCH   1   4
DOCKED: BRANCH   1  20
DOCKED: ATOM     20  N   UNL     1     141.092  80.446 219.353 -0.08 +0.15    -0.349 N  
DOCKED: ATOM     21  H   UNL     1     140.229  79.871 219.478 +0.05 -0.06    +0.164 HD 
DOCKED: BRANCH  20  22
DOCKED: ATOM     22  C   UNL     1     141.473  81.344 220.447 -0.27 -0.03    +0.109 C  
DOCKED: ATOM     23  C   UNL     1     140.527  82.548 220.497 -0.25 -0.01    +0.036 C  
DOCKED: BRANCH  22  24
DOCKED: ATOM     24  C   UNL     1     141.466  80.598 221.766 -0.41 +0.01    -0.026 A  
DOCKED: ATOM     25  C   UNL     1     140.361  80.701 222.630 -0.37 -0.00    +0.006 A  
DOCKED: ATOM     26  C   UNL     1     142.555  79.789 222.144 -0.49 -0.00    +0.006 A  
DOCKED: ATOM     27  C   UNL     1     140.348  80.014 223.847 -0.45 -0.00    +0.000 A  
DOCKED: ATOM     28  C   UNL     1     142.537  79.104 223.362 -0.49 -0.00    +0.000 A  
DOCKED: ATOM     29  C   UNL     1     141.435  79.218 224.214 -0.53 -0.00    +0.000 A  
DOCKED: ENDBRANCH  22  24
DOCKED: ENDBRANCH  20  22
DOCKED: ENDBRANCH   1  20
DOCKED: TORSDOF 7
DOCKED: TER
DOCKED: ENDMDL
________________________________________________________________________________


    FINAL DOCKED STATE:
    ________________________


Run:   12 / 20
Time taken for this run:   0.040s

DOCKED: MODEL        12
DOCKED: USER    Run = 12
DOCKED: USER
DOCKED: USER    Estimated Free Energy of Binding    =  -6.32 kcal/mol  [=(1)+(2)+(3)-(4)]
DOCKED: USER
DOCKED: USER    (1) Final Intermolecular Energy     =  -8.41 kcal/mol
DOCKED: USER        vdW + Hbond + desolv Energy     =  -8.35 kcal/mol
DOCKED: USER        Electrostatic Energy            =  -0.06 kcal/mol
DOCKED: USER        Moving Ligand-Fixed Receptor    =  -8.41 kcal/mol
DOCKED: USER        Moving Ligand-Moving Receptor   =  +0.00 kcal/mol
DOCKED: USER    (2) Final Total Internal Energy     =  -3.08 kcal/mol
DOCKED: USER    (3) Torsional Free Energy           =  +2.09 kcal/mol
DOCKED: USER    (4) Unbound System's Energy         =  -3.08 kcal/mol
DOCKED: USER
DOCKED: USER
DOCKED: REMARK SMILES C[C@H](N/C(O)=C\NC(=O)c1ccc2cc(Cl)ccc2n1)c1ccccc1
DOCKED: REMARK SMILES IDX 4 1 5 2 6 4 7 5 8 6 9 8 10 9 20 10 11 11 19 12 12 13 18 14
DOCKED: REMARK SMILES IDX 13 15 17 16 14 17 15 18 16 19 3 20 2 22 1 23 21 24 22 25
DOCKED: REMARK SMILES IDX 26 26 23 27 25 28 24 29
DOCKED: REMARK H PARENT 5 3 7 7 3 21
DOCKED: USER                              x       y       z     vdW  Elec       q    Type
DOCKED: USER                           _______ _______ _______ _____ _____    ______ ____
DOCKED: ROOT
DOCKED: ATOM      1  C   UNL     1     142.386  76.714 219.775 -0.24 -0.12    +0.201 C  
DOCKED: ENDROOT
DOCKED: BRANCH   1   2
DOCKED: ATOM      2  O   UNL     1     143.464  77.092 218.976 -0.15 +0.38    -0.494 OA 
DOCKED: ATOM      3  H   UNL     1     144.293  77.529 219.363 -0.37 -0.31    +0.295 HD 
DOCKED: ENDBRANCH   1   2
DOCKED: BRANCH   1   4
DOCKED: ATOM      4  C   UNL     1     141.907  75.460 219.696 -0.18 -0.06    +0.152 C  
DOCKED: BRANCH   4   5
DOCKED: ATOM      5  N   UNL     1     141.615  74.647 220.844 -0.15 +0.09    -0.322 N  
DOCKED: ATOM      6  C   UNL     1     140.439  74.757 221.663 -0.18 -0.04    +0.273 C  
DOCKED: ATOM      7  H   UNL     1     142.350  73.967 221.144 +0.05 -0.03    +0.169 HD 
DOCKED: ATOM      8  O   UNL     1     140.078  73.757 222.339 -0.84 +0.01    -0.267 OA 
DOCKED: BRANCH   6   9
DOCKED: ATOM      9  C   UNL     1     139.669  76.019 221.767 -0.27 -0.03    +0.129 A  
DOCKED: ATOM     10  N   UNL     1     139.986  76.931 222.726 -0.20 +0.05    -0.243 NA 
DOCKED: ATOM     11  C   UNL     1     138.601  76.282 220.891 -0.13 -0.01    +0.035 A  
DOCKED: ATOM     12  C   UNL     1     139.317  78.108 222.858 -0.26 -0.01    +0.071 A  
DOCKED: ATOM     13  C   UNL     1     137.895  77.481 221.002 -0.10 -0.00    +0.013 A  
DOCKED: ATOM     14  C   UNL     1     139.690  79.020 223.850 -0.27 -0.00    +0.030 A  
DOCKED: ATOM     15  C   UNL     1     138.247  78.410 221.987 -0.20 -0.00    +0.002 A  
DOCKED: ATOM     16  C   UNL     1     139.002  80.231 223.980 -0.40 -0.00    +0.023 A  
DOCKED: ATOM     17  C   UNL     1     137.562  79.626 222.123 -0.14 -0.00    +0.030 A  
DOCKED: ATOM     18  C   UNL     1     137.941  80.535 223.119 -0.26 -0.01    +0.041 A  
DOCKED: ATOM     19  Cl  UNL     1     137.085  82.057 223.287 -0.23 +0.01    -0.084 Cl 
DOCKED: ENDBRANCH   6   9
DOCKED: ENDBRANCH   4   5
DOCKED: ENDBRANCH   1   4
DOCKED: BRANCH   1  20
DOCKED: ATOM     20  N   UNL     1     141.828  77.689 220.666 -0.13 +0.22    -0.349 N  
DOCKED: ATOM     21  H   UNL     1     141.830  77.438 221.680 -0.34 -0.11    +0.164 HD 
DOCKED: BRANCH  20  22
DOCKED: ATOM     22  C   UNL     1     141.806  79.113 220.320 -0.24 -0.06    +0.109 C  
DOCKED: ATOM     23  C   UNL     1     140.513  79.457 219.575 -0.15 -0.01    +0.036 C  
DOCKED: BRANCH  22  24
DOCKED: ATOM     24  C   UNL     1     141.951  79.959 221.568 -0.42 +0.01    -0.026 A  
DOCKED: ATOM     25  C   UNL     1     141.317  81.212 221.650 -0.40 -0.00    +0.006 A  
DOCKED: ATOM     26  C   UNL     1     142.712  79.507 222.663 -0.57 -0.00    +0.006 A  
DOCKED: ATOM     27  C   UNL     1     141.445  81.997 222.799 -0.36 -0.00    +0.000 A  
DOCKED: ATOM     28  C   UNL     1     142.837  80.295 223.811 -0.64 -0.00    +0.000 A  
DOCKED: ATOM     29  C   UNL     1     142.205  81.540 223.878 -0.60 -0.00    +0.000 A  
DOCKED: ENDBRANCH  22  24
DOCKED: ENDBRANCH  20  22
DOCKED: ENDBRANCH   1  20
DOCKED: TORSDOF 7
DOCKED: TER
DOCKED: ENDMDL
________________________________________________________________________________


    FINAL DOCKED STATE:
    ________________________


Run:   13 / 20
Time taken for this run:   0.040s

DOCKED: MODEL        13
DOCKED: USER    Run = 13
DOCKED: USER
DOCKED: USER    Estimated Free Energy of Binding    =  -6.35 kcal/mol  [=(1)+(2)+(3)-(4)]
DOCKED: USER
DOCKED: USER    (1) Final Intermolecular Energy     =  -8.44 kcal/mol
DOCKED: USER        vdW + Hbond + desolv Energy     =  -8.22 kcal/mol
DOCKED: USER        Electrostatic Energy            =  -0.22 kcal/mol
DOCKED: USER        Moving Ligand-Fixed Receptor    =  -8.44 kcal/mol
DOCKED: USER        Moving Ligand-Moving Receptor   =  +0.00 kcal/mol
DOCKED: USER    (2) Final Total Internal Energy     =  -2.54 kcal/mol
DOCKED: USER    (3) Torsional Free Energy           =  +2.09 kcal/mol
DOCKED: USER    (4) Unbound System's Energy         =  -2.54 kcal/mol
DOCKED: USER
DOCKED: USER
DOCKED: REMARK SMILES C[C@H](N/C(O)=C\NC(=O)c1ccc2cc(Cl)ccc2n1)c1ccccc1
DOCKED: REMARK SMILES IDX 4 1 5 2 6 4 7 5 8 6 9 8 10 9 20 10 11 11 19 12 12 13 18 14
DOCKED: REMARK SMILES IDX 13 15 17 16 14 17 15 18 16 19 3 20 2 22 1 23 21 24 22 25
DOCKED: REMARK SMILES IDX 26 26 23 27 25 28 24 29
DOCKED: REMARK H PARENT 5 3 7 7 3 21
DOCKED: USER                              x       y       z     vdW  Elec       q    Type
DOCKED: USER                           _______ _______ _______ _____ _____    ______ ____
DOCKED: ROOT
DOCKED: ATOM      1  C   UNL     1     142.173  78.756 218.586 -0.22 -0.14    +0.201 C  
DOCKED: ENDROOT
DOCKED: BRANCH   1   2
DOCKED: ATOM      2  O   UNL     1     142.806  79.777 217.879 -0.17 +0.54    -0.494 OA 
DOCKED: ATOM      3  H   UNL     1     143.575  79.595 217.243 -0.47 -0.64    +0.295 HD 
DOCKED: ENDBRANCH   1   2
DOCKED: BRANCH   1   4
DOCKED: ATOM      4  C   UNL     1     142.534  77.478 218.377 -0.26 -0.10    +0.152 C  
DOCKED: BRANCH   4   5
DOCKED: ATOM      5  N   UNL     1     143.460  76.766 219.213 -0.20 +0.24    -0.322 N  
DOCKED: ATOM      6  C   UNL     1     143.117  75.688 220.101 -0.13 -0.16    +0.273 C  
DOCKED: ATOM      7  H   UNL     1     144.448  77.105 219.225 -0.35 -0.14    +0.169 HD 
DOCKED: ATOM      8  O   UNL     1     144.018  74.872 220.436 -0.34 +0.13    -0.267 OA 
DOCKED: BRANCH   6   9
DOCKED: ATOM      9  C   UNL     1     141.755  75.533 220.662 -0.24 -0.05    +0.129 A  
DOCKED: ATOM     10  N   UNL     1     141.109  76.613 221.182 -0.19 +0.10    -0.243 NA 
DOCKED: ATOM     11  C   UNL     1     141.121  74.279 220.673 -0.23 -0.01    +0.035 A  
DOCKED: ATOM     12  C   UNL     1     139.854  76.527 221.701 -0.29 -0.02    +0.071 A  
DOCKED: ATOM     13  C   UNL     1     139.834  74.159 221.199 -0.23 -0.00    +0.013 A  
DOCKED: ATOM     14  C   UNL     1     139.226  77.667 222.211 -0.29 -0.01    +0.030 A  
DOCKED: ATOM     15  C   UNL     1     139.183  75.284 221.717 -0.28 -0.00    +0.002 A  
DOCKED: ATOM     16  C   UNL     1     137.934  77.576 222.740 -0.26 -0.00    +0.023 A  
DOCKED: ATOM     17  C   UNL     1     137.889  75.200 222.248 -0.20 -0.01    +0.030 A  
DOCKED: ATOM     18  C   UNL     1     137.265  76.346 222.758 -0.26 -0.01    +0.041 A  
DOCKED: ATOM     19  Cl  UNL     1     135.644  76.241 223.421 -0.29 +0.01    -0.084 Cl 
DOCKED: ENDBRANCH   6   9
DOCKED: ENDBRANCH   4   5
DOCKED: ENDBRANCH   1   4
DOCKED: BRANCH   1  20
DOCKED: ATOM     20  N   UNL     1     141.153  79.115 219.527 -0.07 +0.16    -0.349 N  
DOCKED: ATOM     21  H   UNL     1     140.753  78.332 220.092 +0.06 -0.07    +0.164 HD 
DOCKED: BRANCH  20  22
DOCKED: ATOM     22  C   UNL     1     141.080  80.466 220.093 -0.22 -0.04    +0.109 C  
DOCKED: ATOM     23  C   UNL     1     139.646  80.997 220.012 -0.11 -0.01    +0.036 C  
DOCKED: BRANCH  22  24
DOCKED: ATOM     24  C   UNL     1     141.574  80.463 221.526 -0.39 +0.01    -0.026 A  
DOCKED: ATOM     25  C   UNL     1     142.140  79.299 222.075 -0.49 -0.00    +0.006 A  
DOCKED: ATOM     26  C   UNL     1     141.480  81.619 222.324 -0.46 -0.00    +0.006 A  
DOCKED: ATOM     27  C   UNL     1     142.599  79.290 223.395 -0.52 -0.00    +0.000 A  
DOCKED: ATOM     28  C   UNL     1     141.941  81.606 223.644 -0.54 -0.00    +0.000 A  
DOCKED: ATOM     29  C   UNL     1     142.498  80.441 224.180 -0.56 -0.00    +0.000 A  
DOCKED: ENDBRANCH  22  24
DOCKED: ENDBRANCH  20  22
DOCKED: ENDBRANCH   1  20
DOCKED: TORSDOF 7
DOCKED: TER
DOCKED: ENDMDL
________________________________________________________________________________


    FINAL DOCKED STATE:
    ________________________


Run:   14 / 20
Time taken for this run:   0.040s

DOCKED: MODEL        14
DOCKED: USER    Run = 14
DOCKED: USER
DOCKED: USER    Estimated Free Energy of Binding    =  -7.06 kcal/mol  [=(1)+(2)+(3)-(4)]
DOCKED: USER
DOCKED: USER    (1) Final Intermolecular Energy     =  -9.15 kcal/mol
DOCKED: USER        vdW + Hbond + desolv Energy     =  -9.11 kcal/mol
DOCKED: USER        Electrostatic Energy            =  -0.03 kcal/mol
DOCKED: USER        Moving Ligand-Fixed Receptor    =  -9.15 kcal/mol
DOCKED: USER        Moving Ligand-Moving Receptor   =  +0.00 kcal/mol
DOCKED: USER    (2) Final Total Internal Energy     =  -1.76 kcal/mol
DOCKED: USER    (3) Torsional Free Energy           =  +2.09 kcal/mol
DOCKED: USER    (4) Unbound System's Energy         =  -1.76 kcal/mol
DOCKED: USER
DOCKED: USER
DOCKED: REMARK SMILES C[C@H](N/C(O)=C\NC(=O)c1ccc2cc(Cl)ccc2n1)c1ccccc1
DOCKED: REMARK SMILES IDX 4 1 5 2 6 4 7 5 8 6 9 8 10 9 20 10 11 11 19 12 12 13 18 14
DOCKED: REMARK SMILES IDX 13 15 17 16 14 17 15 18 16 19 3 20 2 22 1 23 21 24 22 25
DOCKED: REMARK SMILES IDX 26 26 23 27 25 28 24 29
DOCKED: REMARK H PARENT 5 3 7 7 3 21
DOCKED: USER                              x       y       z     vdW  Elec       q    Type
DOCKED: USER                           _______ _______ _______ _____ _____    ______ ____
DOCKED: ROOT
DOCKED: ATOM      1  C   UNL     1     137.699  69.815 224.220 -0.21 -0.03    +0.201 C  
DOCKED: ENDROOT
DOCKED: BRANCH   1   2
DOCKED: ATOM      2  O   UNL     1     137.876  71.183 224.017 -0.08 +0.12    -0.494 OA 
DOCKED: ATOM      3  H   UNL     1     137.405  71.877 224.587 -0.21 -0.10    +0.295 HD 
DOCKED: ENDBRANCH   1   2
DOCKED: BRANCH   1   4
DOCKED: ATOM      4  C   UNL     1     136.480  69.270 224.059 -0.17 -0.01    +0.152 C  
DOCKED: BRANCH   4   5
DOCKED: ATOM      5  N   UNL     1     135.596  68.961 225.148 -0.08 +0.00    -0.322 N  
DOCKED: ATOM      6  C   UNL     1     134.544  69.813 225.631 -0.17 -0.02    +0.273 C  
DOCKED: ATOM      7  H   UNL     1     135.780  68.077 225.673 +0.09 +0.01    +0.169 HD 
DOCKED: ATOM      8  O   UNL     1     133.585  69.291 226.261 -0.73 -0.01    -0.267 OA 
DOCKED: BRANCH   6   9
DOCKED: ATOM      9  C   UNL     1     134.574  71.283 225.446 -0.16 -0.01    +0.129 A  
DOCKED: ATOM     10  N   UNL     1     135.263  71.822 224.402 -0.11 +0.03    -0.243 NA 
DOCKED: ATOM     11  C   UNL     1     133.907  72.134 226.344 -0.35 -0.00    +0.035 A  
DOCKED: ATOM     12  C   UNL     1     135.315  73.163 224.182 -0.21 -0.01    +0.071 A  
DOCKED: ATOM     13  C   UNL     1     133.941  73.515 226.145 -0.32 +0.00    +0.013 A  
DOCKED: ATOM     14  C   UNL     1     136.024  73.668 223.088 -0.17 -0.01    +0.030 A  
DOCKED: ATOM     15  C   UNL     1     134.645  74.046 225.058 -0.32 -0.00    +0.002 A  
DOCKED: ATOM     16  C   UNL     1     136.071  75.047 222.862 -0.21 -0.01    +0.023 A  
DOCKED: ATOM     17  C   UNL     1     134.697  75.427 224.826 -0.32 -0.00    +0.030 A  
DOCKED: ATOM     18  C   UNL     1     135.409  75.926 223.728 -0.25 -0.01    +0.041 A  
DOCKED: ATOM     19  Cl  UNL     1     135.472  77.655 223.436 -0.17 +0.01    -0.084 Cl 
DOCKED: ENDBRANCH   6   9
DOCKED: ENDBRANCH   4   5
DOCKED: ENDBRANCH   1   4
DOCKED: BRANCH   1  20
DOCKED: ATOM     20  N   UNL     1     138.840  69.032 224.592 -0.15 +0.04    -0.349 N  
DOCKED: ATOM     21  H   UNL     1     139.615  68.988 223.891 +0.01 -0.03    +0.164 HD 
DOCKED: BRANCH  20  22
DOCKED: ATOM     22  C   UNL     1     139.185  68.808 225.999 -0.42 -0.01    +0.109 C  
DOCKED: ATOM     23  C   UNL     1     139.992  67.514 226.147 -0.61 -0.01    +0.036 C  
DOCKED: BRANCH  22  24
DOCKED: ATOM     24  C   UNL     1     139.959  69.991 226.545 -0.51 +0.00    -0.026 A  
DOCKED: ATOM     25  C   UNL     1     140.767  70.761 225.691 -0.58 -0.00    +0.006 A  
DOCKED: ATOM     26  C   UNL     1     139.875  70.342 227.907 -0.61 -0.00    +0.006 A  
DOCKED: ATOM     27  C   UNL     1     141.482  71.855 226.188 -0.61 -0.00    +0.000 A  
DOCKED: ATOM     28  C   UNL     1     140.592  71.436 228.399 -0.68 -0.00    +0.000 A  
DOCKED: ATOM     29  C   UNL     1     141.396  72.191 227.541 -0.82 -0.00    +0.000 A  
DOCKED: ENDBRANCH  22  24
DOCKED: ENDBRANCH  20  22
DOCKED: ENDBRANCH   1  20
DOCKED: TORSDOF 7
DOCKED: TER
DOCKED: ENDMDL
________________________________________________________________________________


    FINAL DOCKED STATE:
    ________________________


Run:   15 / 20
Time taken for this run:   0.040s

DOCKED: MODEL        15
DOCKED: USER    Run = 15
DOCKED: USER
DOCKED: USER    Estimated Free Energy of Binding    =  -5.51 kcal/mol  [=(1)+(2)+(3)-(4)]
DOCKED: USER
DOCKED: USER    (1) Final Intermolecular Energy     =  -7.60 kcal/mol
DOCKED: USER        vdW + Hbond + desolv Energy     =  -7.33 kcal/mol
DOCKED: USER        Electrostatic Energy            =  -0.27 kcal/mol
DOCKED: USER        Moving Ligand-Fixed Receptor    =  -7.60 kcal/mol
DOCKED: USER        Moving Ligand-Moving Receptor   =  +0.00 kcal/mol
DOCKED: USER    (2) Final Total Internal Energy     =  -3.26 kcal/mol
DOCKED: USER    (3) Torsional Free Energy           =  +2.09 kcal/mol
DOCKED: USER    (4) Unbound System's Energy         =  -3.26 kcal/mol
DOCKED: USER
DOCKED: USER
DOCKED: REMARK SMILES C[C@H](N/C(O)=C\NC(=O)c1ccc2cc(Cl)ccc2n1)c1ccccc1
DOCKED: REMARK SMILES IDX 4 1 5 2 6 4 7 5 8 6 9 8 10 9 20 10 11 11 19 12 12 13 18 14
DOCKED: REMARK SMILES IDX 13 15 17 16 14 17 15 18 16 19 3 20 2 22 1 23 21 24 22 25
DOCKED: REMARK SMILES IDX 26 26 23 27 25 28 24 29
DOCKED: REMARK H PARENT 5 3 7 7 3 21
DOCKED: USER                              x       y       z     vdW  Elec       q    Type
DOCKED: USER                           _______ _______ _______ _____ _____    ______ ____
DOCKED: ROOT
DOCKED: ATOM      1  C   UNL     1     142.107  80.007 218.439 -0.24 -0.14    +0.201 C  
DOCKED: ENDROOT
DOCKED: BRANCH   1   2
DOCKED: ATOM      2  O   UNL     1     143.084  80.871 217.946 -0.18 +0.52    -0.494 OA 
DOCKED: ATOM      3  H   UNL     1     143.675  80.624 217.161 -0.41 -0.66    +0.295 HD 
DOCKED: ENDBRANCH   1   2
DOCKED: BRANCH   1   4
DOCKED: ATOM      4  C   UNL     1     142.148  78.703 218.116 -0.23 -0.11    +0.152 C  
DOCKED: BRANCH   4   5
DOCKED: ATOM      5  N   UNL     1     142.986  77.745 218.783 -0.14 +0.26    -0.322 N  
DOCKED: ATOM      6  C   UNL     1     142.535  76.767 219.736 -0.22 -0.17    +0.273 C  
DOCKED: ATOM      7  H   UNL     1     144.015  77.812 218.611 -0.24 -0.16    +0.169 HD 
DOCKED: ATOM      8  O   UNL     1     143.232  75.733 219.916 -0.29 +0.16    -0.267 OA 
DOCKED: BRANCH   6   9
DOCKED: ATOM      9  C   UNL     1     141.303  76.960 220.536 -0.22 -0.06    +0.129 A  
DOCKED: ATOM     10  N   UNL     1     140.422  77.943 220.202 -0.07 +0.09    -0.243 NA 
DOCKED: ATOM     11  C   UNL     1     141.035  76.144 221.649 -0.35 -0.01    +0.035 A  
DOCKED: ATOM     12  C   UNL     1     139.273  78.156 220.898 -0.12 -0.02    +0.071 A  
DOCKED: ATOM     13  C   UNL     1     139.864  76.338 222.383 -0.36 -0.00    +0.013 A  
DOCKED: ATOM     14  C   UNL     1     138.393  79.169 220.506 -0.07 -0.01    +0.030 A  
DOCKED: ATOM     15  C   UNL     1     138.967  77.346 222.014 -0.27 -0.00    +0.002 A  
DOCKED: ATOM     16  C   UNL     1     137.210  79.382 221.221 -0.07 -0.00    +0.023 A  
DOCKED: ATOM     17  C   UNL     1     137.779  77.565 222.726 -0.25 -0.01    +0.030 A  
DOCKED: ATOM     18  C   UNL     1     136.902  78.582 222.329 -0.15 -0.01    +0.041 A  
DOCKED: ATOM     19  Cl  UNL     1     135.415  78.854 223.219 -0.17 +0.01    -0.084 Cl 
DOCKED: ENDBRANCH   6   9
DOCKED: ENDBRANCH   4   5
DOCKED: ENDBRANCH   1   4
DOCKED: BRANCH   1  20
DOCKED: ATOM     20  N   UNL     1     141.087  80.551 219.286 -0.08 +0.15    -0.349 N  
DOCKED: ATOM     21  H   UNL     1     140.217  79.980 219.382 +0.05 -0.06    +0.164 HD 
DOCKED: BRANCH  20  22
DOCKED: ATOM     22  C   UNL     1     141.414  81.476 220.376 -0.27 -0.03    +0.109 C  
DOCKED: ATOM     23  C   UNL     1     140.400  82.622 220.420 -0.23 -0.01    +0.036 C  
DOCKED: BRANCH  22  24
DOCKED: ATOM     24  C   UNL     1     141.451  80.738 221.699 -0.40 +0.01    -0.026 A  
DOCKED: ATOM     25  C   UNL     1     140.389  80.869 222.610 -0.37 -0.00    +0.006 A  
DOCKED: ATOM     26  C   UNL     1     142.538  79.907 222.032 -0.47 -0.00    +0.006 A  
DOCKED: ATOM     27  C   UNL     1     140.416  80.190 223.832 -0.44 -0.00    +0.000 A  
DOCKED: ATOM     28  C   UNL     1     142.560  79.229 223.255 -0.55 -0.00    +0.000 A  
DOCKED: ATOM     29  C   UNL     1     141.500  79.372 224.155 -0.53 -0.00    +0.000 A  
DOCKED: ENDBRANCH  22  24
DOCKED: ENDBRANCH  20  22
DOCKED: ENDBRANCH   1  20
DOCKED: TORSDOF 7
DOCKED: TER
DOCKED: ENDMDL
________________________________________________________________________________


    FINAL DOCKED STATE:
    ________________________


Run:   16 / 20
Time taken for this run:   0.040s

DOCKED: MODEL        16
DOCKED: USER    Run = 16
DOCKED: USER
DOCKED: USER    Estimated Free Energy of Binding    =  -5.36 kcal/mol  [=(1)+(2)+(3)-(4)]
DOCKED: USER
DOCKED: USER    (1) Final Intermolecular Energy     =  -7.45 kcal/mol
DOCKED: USER        vdW + Hbond + desolv Energy     =  -7.26 kcal/mol
DOCKED: USER        Electrostatic Energy            =  -0.18 kcal/mol
DOCKED: USER        Moving Ligand-Fixed Receptor    =  -7.45 kcal/mol
DOCKED: USER        Moving Ligand-Moving Receptor   =  +0.00 kcal/mol
DOCKED: USER    (2) Final Total Internal Energy     =  -3.35 kcal/mol
DOCKED: USER    (3) Torsional Free Energy           =  +2.09 kcal/mol
DOCKED: USER    (4) Unbound System's Energy         =  -3.35 kcal/mol
DOCKED: USER
DOCKED: USER
DOCKED: REMARK SMILES C[C@H](N/C(O)=C\NC(=O)c1ccc2cc(Cl)ccc2n1)c1ccccc1
DOCKED: REMARK SMILES IDX 4 1 5 2 6 4 7 5 8 6 9 8 10 9 20 10 11 11 19 12 12 13 18 14
DOCKED: REMARK SMILES IDX 13 15 17 16 14 17 15 18 16 19 3 20 2 22 1 23 21 24 22 25
DOCKED: REMARK SMILES IDX 26 26 23 27 25 28 24 29
DOCKED: REMARK H PARENT 5 3 7 7 3 21
DOCKED: USER                              x       y       z     vdW  Elec       q    Type
DOCKED: USER                           _______ _______ _______ _____ _____    ______ ____
DOCKED: ROOT
DOCKED: ATOM      1  C   UNL     1     140.151  75.941 221.198 -0.21 -0.05    +0.201 C  
DOCKED: ENDROOT
DOCKED: BRANCH   1   2
DOCKED: ATOM      2  O   UNL     1     141.143  75.341 221.972 -0.39 +0.10    -0.494 OA 
DOCKED: ATOM      3  H   UNL     1     141.997  75.827 222.223 -0.42 -0.17    +0.295 HD 
DOCKED: ENDBRANCH   1   2
DOCKED: BRANCH   1   4
DOCKED: ATOM      4  C   UNL     1     138.903  75.443 221.212 -0.17 -0.03    +0.152 C  
DOCKED: BRANCH   4   5
DOCKED: ATOM      5  N   UNL     1     138.016  75.550 222.338 -0.15 +0.09    -0.322 N  
DOCKED: ATOM      6  C   UNL     1     137.343  76.751 222.753 -0.17 -0.05    +0.273 C  
DOCKED: ATOM      7  H   UNL     1     137.909  74.704 222.941 -0.46 -0.09    +0.169 HD 
DOCKED: ATOM      8  O   UNL     1     136.293  76.647 223.442 -0.18 +0.05    -0.267 OA 
DOCKED: BRANCH   6   9
DOCKED: ATOM      9  C   UNL     1     137.868  78.099 222.431 -0.19 -0.02    +0.129 A  
DOCKED: ATOM     10  N   UNL     1     138.175  78.418 221.143 -0.04 +0.05    -0.243 NA 
DOCKED: ATOM     11  C   UNL     1     138.063  79.054 223.443 -0.16 -0.00    +0.035 A  
DOCKED: ATOM     12  C   UNL     1     138.652  79.642 220.793 -0.08 -0.02    +0.071 A  
DOCKED: ATOM     13  C   UNL     1     138.550  80.320 223.115 -0.31 -0.00    +0.013 A  
DOCKED: ATOM     14  C   UNL     1     138.939  79.927 219.455 -0.05 -0.01    +0.030 A  
DOCKED: ATOM     15  C   UNL     1     138.848  80.630 221.783 -0.18 -0.00    +0.002 A  
DOCKED: ATOM     16  C   UNL     1     139.424  81.189 219.097 -0.07 -0.01    +0.023 A  
DOCKED: ATOM     17  C   UNL     1     139.335  81.893 221.418 -0.18 -0.01    +0.030 A  
DOCKED: ATOM     18  C   UNL     1     139.622  82.172 220.075 -0.12 -0.01    +0.041 A  
DOCKED: ATOM     19  Cl  UNL     1     140.228  83.753 219.619 -0.20 +0.02    -0.084 Cl 
DOCKED: ENDBRANCH   6   9
DOCKED: ENDBRANCH   4   5
DOCKED: ENDBRANCH   1   4
DOCKED: BRANCH   1  20
DOCKED: ATOM     20  N   UNL     1     140.506  77.086 220.411 -0.05 +0.12    -0.349 N  
DOCKED: ATOM     21  H   UNL     1     139.713  77.691 220.097 +0.05 -0.05    +0.164 HD 
DOCKED: BRANCH  20  22
DOCKED: ATOM     22  C   UNL     1     141.830  77.706 220.521 -0.27 -0.07    +0.109 C  
DOCKED: ATOM     23  C   UNL     1     142.202  78.396 219.205 -0.25 -0.02    +0.036 C  
DOCKED: BRANCH  22  24
DOCKED: ATOM     24  C   UNL     1     141.854  78.691 221.672 -0.40 +0.01    -0.026 A  
DOCKED: ATOM     25  C   UNL     1     141.518  78.269 222.970 -0.50 -0.00    +0.006 A  
DOCKED: ATOM     26  C   UNL     1     142.220  80.035 221.464 -0.40 -0.00    +0.006 A  
DOCKED: ATOM     27  C   UNL     1     141.540  79.172 224.037 -0.58 -0.00    +0.000 A  
DOCKED: ATOM     28  C   UNL     1     142.241  80.935 222.534 -0.55 -0.00    +0.000 A  
DOCKED: ATOM     29  C   UNL     1     141.900  80.504 223.819 -0.61 -0.00    +0.000 A  
DOCKED: ENDBRANCH  22  24
DOCKED: ENDBRANCH  20  22
DOCKED: ENDBRANCH   1  20
DOCKED: TORSDOF 7
DOCKED: TER
DOCKED: ENDMDL
________________________________________________________________________________


    FINAL DOCKED STATE:
    ________________________


Run:   17 / 20
Time taken for this run:   0.040s

DOCKED: MODEL        17
DOCKED: USER    Run = 17
DOCKED: USER
DOCKED: USER    Estimated Free Energy of Binding    =  -6.02 kcal/mol  [=(1)+(2)+(3)-(4)]
DOCKED: USER
DOCKED: USER    (1) Final Intermolecular Energy     =  -8.11 kcal/mol
DOCKED: USER        vdW + Hbond + desolv Energy     =  -8.04 kcal/mol
DOCKED: USER        Electrostatic Energy            =  -0.07 kcal/mol
DOCKED: USER        Moving Ligand-Fixed Receptor    =  -8.11 kcal/mol
DOCKED: USER        Moving Ligand-Moving Receptor   =  +0.00 kcal/mol
DOCKED: USER    (2) Final Total Internal Energy     =  -2.99 kcal/mol
DOCKED: USER    (3) Torsional Free Energy           =  +2.09 kcal/mol
DOCKED: USER    (4) Unbound System's Energy         =  -2.99 kcal/mol
DOCKED: USER
DOCKED: USER
DOCKED: REMARK SMILES C[C@H](N/C(O)=C\NC(=O)c1ccc2cc(Cl)ccc2n1)c1ccccc1
DOCKED: REMARK SMILES IDX 4 1 5 2 6 4 7 5 8 6 9 8 10 9 20 10 11 11 19 12 12 13 18 14
DOCKED: REMARK SMILES IDX 13 15 17 16 14 17 15 18 16 19 3 20 2 22 1 23 21 24 22 25
DOCKED: REMARK SMILES IDX 26 26 23 27 25 28 24 29
DOCKED: REMARK H PARENT 5 3 7 7 3 21
DOCKED: USER                              x       y       z     vdW  Elec       q    Type
DOCKED: USER                           _______ _______ _______ _____ _____    ______ ____
DOCKED: ROOT
DOCKED: ATOM      1  C   UNL     1     142.203  76.761 219.750 -0.24 -0.12    +0.201 C  
DOCKED: ENDROOT
DOCKED: BRANCH   1   2
DOCKED: ATOM      2  O   UNL     1     143.448  77.037 219.186 -0.15 +0.39    -0.494 OA 
DOCKED: ATOM      3  H   UNL     1     144.206  77.438 219.726 -0.42 -0.34    +0.295 HD 
DOCKED: ENDBRANCH   1   2
DOCKED: BRANCH   1   4
DOCKED: ATOM      4  C   UNL     1     141.695  75.519 219.666 -0.16 -0.06    +0.152 C  
DOCKED: BRANCH   4   5
DOCKED: ATOM      5  N   UNL     1     141.472  74.671 220.804 -0.14 +0.08    -0.322 N  
DOCKED: ATOM      6  C   UNL     1     140.330  74.735 221.675 -0.18 -0.04    +0.273 C  
DOCKED: ATOM      7  H   UNL     1     142.234  74.002 221.056 +0.05 -0.03    +0.169 HD 
DOCKED: ATOM      8  O   UNL     1     140.021  73.711 222.341 -0.84 +0.01    -0.267 OA 
DOCKED: BRANCH   6   9
DOCKED: ATOM      9  C   UNL     1     139.537  75.975 221.843 -0.27 -0.03    +0.129 A  
DOCKED: ATOM     10  N   UNL     1     139.952  76.933 222.717 -0.20 +0.05    -0.243 NA 
DOCKED: ATOM     11  C   UNL     1     138.350  76.172 221.117 -0.14 -0.01    +0.035 A  
DOCKED: ATOM     12  C   UNL     1     139.265  78.093 222.901 -0.25 -0.01    +0.071 A  
DOCKED: ATOM     13  C   UNL     1     137.624  77.352 221.284 -0.12 -0.00    +0.013 A  
DOCKED: ATOM     14  C   UNL     1     139.739  79.054 223.800 -0.30 -0.00    +0.030 A  
DOCKED: ATOM     15  C   UNL     1     138.075  78.329 222.179 -0.21 -0.00    +0.002 A  
DOCKED: ATOM     16  C   UNL     1     139.033  80.247 223.984 -0.39 -0.00    +0.023 A  
DOCKED: ATOM     17  C   UNL     1     137.372  79.527 222.367 -0.16 -0.00    +0.030 A  
DOCKED: ATOM     18  C   UNL     1     137.853  80.485 223.269 -0.27 -0.01    +0.041 A  
DOCKED: ATOM     19  Cl  UNL     1     136.974  81.985 223.504 -0.25 +0.01    -0.084 Cl 
DOCKED: ENDBRANCH   6   9
DOCKED: ENDBRANCH   4   5
DOCKED: ENDBRANCH   1   4
DOCKED: BRANCH   1  20
DOCKED: ATOM     20  N   UNL     1     141.508  77.825 220.413 -0.11 +0.19    -0.349 N  
DOCKED: ATOM     21  H   UNL     1     141.102  77.595 221.349 +0.05 -0.07    +0.164 HD 
DOCKED: BRANCH  20  22
DOCKED: ATOM     22  C   UNL     1     141.824  79.229 220.137 -0.23 -0.06    +0.109 C  
DOCKED: ATOM     23  C   UNL     1     140.735  79.854 219.260 -0.16 -0.01    +0.036 C  
DOCKED: BRANCH  22  24
DOCKED: ATOM     24  C   UNL     1     141.979  79.998 221.433 -0.40 +0.01    -0.026 A  
DOCKED: ATOM     25  C   UNL     1     141.416  81.280 221.566 -0.41 -0.00    +0.006 A  
DOCKED: ATOM     26  C   UNL     1     142.678  79.443 222.523 -0.53 -0.00    +0.006 A  
DOCKED: ATOM     27  C   UNL     1     141.554  81.994 222.760 -0.38 -0.00    +0.000 A  
DOCKED: ATOM     28  C   UNL     1     142.813  80.161 223.715 -0.63 -0.00    +0.000 A  
DOCKED: ATOM     29  C   UNL     1     142.252  81.436 223.833 -0.61 -0.00    +0.000 A  
DOCKED: ENDBRANCH  22  24
DOCKED: ENDBRANCH  20  22
DOCKED: ENDBRANCH   1  20
DOCKED: TORSDOF 7
DOCKED: TER
DOCKED: ENDMDL
________________________________________________________________________________


    FINAL DOCKED STATE:
    ________________________


Run:   18 / 20
Time taken for this run:   0.040s

DOCKED: MODEL        18
DOCKED: USER    Run = 18
DOCKED: USER
DOCKED: USER    Estimated Free Energy of Binding    =  -7.78 kcal/mol  [=(1)+(2)+(3)-(4)]
DOCKED: USER
DOCKED: USER    (1) Final Intermolecular Energy     =  -9.87 kcal/mol
DOCKED: USER        vdW + Hbond + desolv Energy     =  -9.76 kcal/mol
DOCKED: USER        Electrostatic Energy            =  -0.11 kcal/mol
DOCKED: USER        Moving Ligand-Fixed Receptor    =  -9.87 kcal/mol
DOCKED: USER        Moving Ligand-Moving Receptor   =  +0.00 kcal/mol
DOCKED: USER    (2) Final Total Internal Energy     =  -1.72 kcal/mol
DOCKED: USER    (3) Torsional Free Energy           =  +2.09 kcal/mol
DOCKED: USER    (4) Unbound System's Energy         =  -1.72 kcal/mol
DOCKED: USER
DOCKED: USER
DOCKED: REMARK SMILES C[C@H](N/C(O)=C\NC(=O)c1ccc2cc(Cl)ccc2n1)c1ccccc1
DOCKED: REMARK SMILES IDX 4 1 5 2 6 4 7 5 8 6 9 8 10 9 20 10 11 11 19 12 12 13 18 14
DOCKED: REMARK SMILES IDX 13 15 17 16 14 17 15 18 16 19 3 20 2 22 1 23 21 24 22 25
DOCKED: REMARK SMILES IDX 26 26 23 27 25 28 24 29
DOCKED: REMARK H PARENT 5 3 7 7 3 21
DOCKED: USER                              x       y       z     vdW  Elec       q    Type
DOCKED: USER                           _______ _______ _______ _____ _____    ______ ____
DOCKED: ROOT
DOCKED: ATOM      1  C   UNL     1     140.726  73.958 221.388 -0.22 -0.03    +0.201 C  
DOCKED: ENDROOT
DOCKED: BRANCH   1   2
DOCKED: ATOM      2  O   UNL     1     139.763  74.299 222.336 -0.71 +0.04    -0.494 OA 
DOCKED: ATOM      3  H   UNL     1     139.227  73.599 222.836 -0.41 -0.10    +0.295 HD 
DOCKED: ENDBRANCH   1   2
DOCKED: BRANCH   1   4
DOCKED: ATOM      4  C   UNL     1     140.633  72.784 220.738 -0.15 -0.02    +0.152 C  
DOCKED: BRANCH   4   5
DOCKED: ATOM      5  N   UNL     1     139.396  72.241 220.250 -0.01 +0.06    -0.322 N  
DOCKED: ATOM      6  C   UNL     1     138.426  71.539 221.046 -0.04 -0.05    +0.273 C  
DOCKED: ATOM      7  H   UNL     1     139.222  72.303 219.222 +0.02 -0.03    +0.169 HD 
DOCKED: ATOM      8  O   UNL     1     137.232  71.498 220.646 -0.01 +0.05    -0.267 OA 
DOCKED: BRANCH   6   9
DOCKED: ATOM      9  C   UNL     1     138.797  70.832 222.295 -0.15 -0.02    +0.129 A  
DOCKED: ATOM     10  N   UNL     1     139.523  71.475 223.250 -0.21 +0.05    -0.243 NA 
DOCKED: ATOM     11  C   UNL     1     138.417  69.495 222.502 -0.17 -0.01    +0.035 A  
DOCKED: ATOM     12  C   UNL     1     139.881  70.875 224.416 -0.39 -0.01    +0.071 A  
DOCKED: ATOM     13  C   UNL     1     138.769  68.851 223.689 -0.29 -0.00    +0.013 A  
DOCKED: ATOM     14  C   UNL     1     140.614  71.582 225.374 -0.52 -0.00    +0.030 A  
DOCKED: ATOM     15  C   UNL     1     139.505  69.536 224.663 -0.37 -0.00    +0.002 A  
DOCKED: ATOM     16  C   UNL     1     140.977  70.963 226.574 -0.64 -0.00    +0.023 A  
DOCKED: ATOM     17  C   UNL     1     139.872  68.921 225.868 -0.48 -0.00    +0.030 A  
DOCKED: ATOM     18  C   UNL     1     140.607  69.636 226.823 -0.53 -0.01    +0.041 A  
DOCKED: ATOM     19  Cl  UNL     1     141.064  68.867 228.332 -0.74 +0.02    -0.084 Cl 
DOCKED: ENDBRANCH   6   9
DOCKED: ENDBRANCH   4   5
DOCKED: ENDBRANCH   1   4
DOCKED: BRANCH   1  20
DOCKED: ATOM     20  N   UNL     1     141.788  74.887 221.135 -0.15 +0.10    -0.349 N  
DOCKED: ATOM     21  H   UNL     1     142.279  75.263 221.977 -0.48 -0.08    +0.164 HD 
DOCKED: BRANCH  20  22
DOCKED: ATOM     22  C   UNL     1     142.527  74.873 219.869 -0.24 -0.04    +0.109 C  
DOCKED: ATOM     23  C   UNL     1     142.915  76.299 219.467 -0.35 -0.02    +0.036 C  
DOCKED: BRANCH  22  24
DOCKED: ATOM     24  C   UNL     1     143.755  73.993 219.987 -0.35 +0.01    -0.026 A  
DOCKED: ATOM     25  C   UNL     1     144.959  74.524 220.484 -0.49 -0.00    +0.006 A  
DOCKED: ATOM     26  C   UNL     1     143.711  72.637 219.611 -0.24 -0.00    +0.006 A  
DOCKED: ATOM     27  C   UNL     1     146.095  73.718 220.597 -0.67 -0.00    +0.000 A  
DOCKED: ATOM     28  C   UNL     1     144.850  71.835 219.726 -0.34 +0.00    +0.000 A  
DOCKED: ATOM     29  C   UNL     1     146.042  72.375 220.218 -0.42 +0.00    +0.000 A  
DOCKED: ENDBRANCH  22  24
DOCKED: ENDBRANCH  20  22
DOCKED: ENDBRANCH   1  20
DOCKED: TORSDOF 7
DOCKED: TER
DOCKED: ENDMDL
________________________________________________________________________________


    FINAL DOCKED STATE:
    ________________________


Run:   19 / 20
Time taken for this run:   0.040s

DOCKED: MODEL        19
DOCKED: USER    Run = 19
DOCKED: USER
DOCKED: USER    Estimated Free Energy of Binding    =  -8.12 kcal/mol  [=(1)+(2)+(3)-(4)]
DOCKED: USER
DOCKED: USER    (1) Final Intermolecular Energy     = -10.20 kcal/mol
DOCKED: USER        vdW + Hbond + desolv Energy     = -10.08 kcal/mol
DOCKED: USER        Electrostatic Energy            =  -0.12 kcal/mol
DOCKED: USER        Moving Ligand-Fixed Receptor    = -10.20 kcal/mol
DOCKED: USER        Moving Ligand-Moving Receptor   =  +0.00 kcal/mol
DOCKED: USER    (2) Final Total Internal Energy     =  -1.02 kcal/mol
DOCKED: USER    (3) Torsional Free Energy           =  +2.09 kcal/mol
DOCKED: USER    (4) Unbound System's Energy         =  -1.02 kcal/mol
DOCKED: USER
DOCKED: USER
DOCKED: REMARK SMILES C[C@H](N/C(O)=C\NC(=O)c1ccc2cc(Cl)ccc2n1)c1ccccc1
DOCKED: REMARK SMILES IDX 4 1 5 2 6 4 7 5 8 6 9 8 10 9 20 10 11 11 19 12 12 13 18 14
DOCKED: REMARK SMILES IDX 13 15 17 16 14 17 15 18 16 19 3 20 2 22 1 23 21 24 22 25
DOCKED: REMARK SMILES IDX 26 26 23 27 25 28 24 29
DOCKED: REMARK H PARENT 5 3 7 7 3 21
DOCKED: USER                              x       y       z     vdW  Elec       q    Type
DOCKED: USER                           _______ _______ _______ _____ _____    ______ ____
DOCKED: ROOT
DOCKED: ATOM      1  C   UNL     1     140.663  74.337 221.672 -0.18 -0.02    +0.201 C  
DOCKED: ENDROOT
DOCKED: BRANCH   1   2
DOCKED: ATOM      2  O   UNL     1     139.607  74.948 222.347 -0.60 +0.06    -0.494 OA 
DOCKED: ATOM      3  H   UNL     1     138.884  74.411 222.814 -0.49 -0.12    +0.295 HD 
DOCKED: ENDBRANCH   1   2
DOCKED: BRANCH   1   4
DOCKED: ATOM      4  C   UNL     1     140.654  73.005 221.488 -0.23 -0.02    +0.152 C  
DOCKED: BRANCH   4   5
DOCKED: ATOM      5  N   UNL     1     139.605  72.304 220.801 -0.04 +0.06    -0.322 N  
DOCKED: ATOM      6  C   UNL     1     138.682  71.385 221.411 -0.07 -0.05    +0.273 C  
DOCKED: ATOM      7  H   UNL     1     139.555  72.421 219.764 +0.03 -0.03    +0.169 HD 
DOCKED: ATOM      8  O   UNL     1     137.575  71.178 220.846 -0.02 +0.05    -0.267 OA 
DOCKED: BRANCH   6   9
DOCKED: ATOM      9  C   UNL     1     139.011  70.649 222.654 -0.18 -0.02    +0.129 A  
DOCKED: ATOM     10  N   UNL     1     139.714  71.267 223.643 -0.23 +0.05    -0.243 NA 
DOCKED: ATOM     11  C   UNL     1     138.614  69.312 222.822 -0.20 -0.01    +0.035 A  
DOCKED: ATOM     12  C   UNL     1     140.033  70.639 224.806 -0.41 -0.01    +0.071 A  
DOCKED: ATOM     13  C   UNL     1     138.927  68.640 224.005 -0.31 -0.00    +0.013 A  
DOCKED: ATOM     14  C   UNL     1     140.744  71.320 225.799 -0.59 -0.00    +0.030 A  
DOCKED: ATOM     15  C   UNL     1     139.639  69.299 225.014 -0.40 -0.00    +0.002 A  
DOCKED: ATOM     16  C   UNL     1     141.068  70.673 226.996 -0.61 -0.00    +0.023 A  
DOCKED: ATOM     17  C   UNL     1     139.966  68.656 226.216 -0.54 -0.01    +0.030 A  
DOCKED: ATOM     18  C   UNL     1     140.679  69.344 227.206 -0.57 -0.01    +0.041 A  
DOCKED: ATOM     19  Cl  UNL     1     141.087  68.540 228.711 -0.70 +0.02    -0.084 Cl 
DOCKED: ENDBRANCH   6   9
DOCKED: ENDBRANCH   4   5
DOCKED: ENDBRANCH   1   4
DOCKED: BRANCH   1  20
DOCKED: ATOM     20  N   UNL     1     141.728  75.166 221.189 -0.15 +0.12    -0.349 N  
DOCKED: ATOM     21  H   UNL     1     142.295  75.656 221.917 -0.51 -0.11    +0.164 HD 
DOCKED: BRANCH  20  22
DOCKED: ATOM     22  C   UNL     1     142.363  74.911 219.893 -0.23 -0.04    +0.109 C  
DOCKED: ATOM     23  C   UNL     1     142.641  76.232 219.170 -0.31 -0.02    +0.036 C  
DOCKED: BRANCH  22  24
DOCKED: ATOM     24  C   UNL     1     143.642  74.120 220.080 -0.36 +0.01    -0.026 A  
DOCKED: ATOM     25  C   UNL     1     143.653  72.732 219.856 -0.27 -0.00    +0.006 A  
DOCKED: ATOM     26  C   UNL     1     144.834  74.758 220.473 -0.41 -0.00    +0.006 A  
DOCKED: ATOM     27  C   UNL     1     144.830  71.997 220.026 -0.36 +0.00    +0.000 A  
DOCKED: ATOM     28  C   UNL     1     146.009  74.019 220.642 -0.62 -0.00    +0.000 A  
DOCKED: ATOM     29  C   UNL     1     146.006  72.639 220.420 -0.54 +0.00    +0.000 A  
DOCKED: ENDBRANCH  22  24
DOCKED: ENDBRANCH  20  22
DOCKED: ENDBRANCH   1  20
DOCKED: TORSDOF 7
DOCKED: TER
DOCKED: ENDMDL
________________________________________________________________________________


    FINAL DOCKED STATE:
    ________________________


Run:   20 / 20
Time taken for this run:   0.040s

DOCKED: MODEL        20
DOCKED: USER    Run = 20
DOCKED: USER
DOCKED: USER    Estimated Free Energy of Binding    =  -6.95 kcal/mol  [=(1)+(2)+(3)-(4)]
DOCKED: USER
DOCKED: USER    (1) Final Intermolecular Energy     =  -9.04 kcal/mol
DOCKED: USER        vdW + Hbond + desolv Energy     =  -9.01 kcal/mol
DOCKED: USER        Electrostatic Energy            =  -0.03 kcal/mol
DOCKED: USER        Moving Ligand-Fixed Receptor    =  -9.04 kcal/mol
DOCKED: USER        Moving Ligand-Moving Receptor   =  +0.00 kcal/mol
DOCKED: USER    (2) Final Total Internal Energy     =  -2.34 kcal/mol
DOCKED: USER    (3) Torsional Free Energy           =  +2.09 kcal/mol
DOCKED: USER    (4) Unbound System's Energy         =  -2.34 kcal/mol
DOCKED: USER
DOCKED: USER
DOCKED: REMARK SMILES C[C@H](N/C(O)=C\NC(=O)c1ccc2cc(Cl)ccc2n1)c1ccccc1
DOCKED: REMARK SMILES IDX 4 1 5 2 6 4 7 5 8 6 9 8 10 9 20 10 11 11 19 12 12 13 18 14
DOCKED: REMARK SMILES IDX 13 15 17 16 14 17 15 18 16 19 3 20 2 22 1 23 21 24 22 25
DOCKED: REMARK SMILES IDX 26 26 23 27 25 28 24 29
DOCKED: REMARK H PARENT 5 3 7 7 3 21
DOCKED: USER                              x       y       z     vdW  Elec       q    Type
DOCKED: USER                           _______ _______ _______ _____ _____    ______ ____
DOCKED: ROOT
DOCKED: ATOM      1  C   UNL     1     140.417  75.330 221.616 -0.26 -0.04    +0.201 C  
DOCKED: ENDROOT
DOCKED: BRANCH   1   2
DOCKED: ATOM      2  O   UNL     1     139.344  74.840 222.358 -0.55 +0.09    -0.494 OA 
DOCKED: ATOM      3  H   UNL     1     139.469  74.168 223.107 -0.46 -0.05    +0.295 HD 
DOCKED: ENDBRANCH   1   2
DOCKED: BRANCH   1   4
DOCKED: ATOM      4  C   UNL     1     140.922  74.595 220.611 -0.19 -0.04    +0.152 C  
DOCKED: BRANCH   4   5
DOCKED: ATOM      5  N   UNL     1     142.318  74.276 220.481 -0.13 +0.09    -0.322 N  
DOCKED: ATOM      6  C   UNL     1     143.345  75.198 220.079 -0.22 -0.14    +0.273 C  
DOCKED: ATOM      7  H   UNL     1     142.593  73.279 220.625 +0.07 -0.03    +0.169 HD 
DOCKED: ATOM      8  O   UNL     1     144.536  74.957 220.413 -0.38 +0.14    -0.267 OA 
DOCKED: BRANCH   6   9
DOCKED: ATOM      9  C   UNL     1     143.052  76.393 219.255 -0.31 -0.08    +0.129 A  
DOCKED: ATOM     10  N   UNL     1     142.564  77.521 219.842 -0.17 +0.18    -0.243 NA 
DOCKED: ATOM     11  C   UNL     1     143.261  76.375 217.865 -0.27 -0.02    +0.035 A  
DOCKED: ATOM     12  C   UNL     1     142.286  78.647 219.132 -0.18 -0.05    +0.071 A  
DOCKED: ATOM     13  C   UNL     1     142.985  77.516 217.109 -0.27 -0.01    +0.013 A  
DOCKED: ATOM     14  C   UNL     1     141.801  79.785 219.783 -0.29 -0.02    +0.030 A  
DOCKED: ATOM     15  C   UNL     1     142.496  78.668 217.736 -0.31 -0.00    +0.002 A  
DOCKED: ATOM     16  C   UNL     1     141.521  80.943 219.050 -0.25 -0.01    +0.023 A  
DOCKED: ATOM     17  C   UNL     1     142.214  79.832 217.007 -0.21 -0.03    +0.030 A  
DOCKED: ATOM     18  C   UNL     1     141.727  80.968 217.665 -0.21 -0.03    +0.041 A  
DOCKED: ATOM     19  Cl  UNL     1     141.375  82.425 216.754 -0.16 +0.04    -0.084 Cl 
DOCKED: ENDBRANCH   6   9
DOCKED: ENDBRANCH   4   5
DOCKED: ENDBRANCH   1   4
DOCKED: BRANCH   1  20
DOCKED: ATOM     20  N   UNL     1     140.942  76.621 221.955 -0.19 +0.13    -0.349 N  
DOCKED: ATOM     21  H   UNL     1     141.963  76.760 221.784 -0.50 -0.13    +0.164 HD 
DOCKED: BRANCH  20  22
DOCKED: ATOM     22  C   UNL     1     140.088  77.812 221.965 -0.29 -0.03    +0.109 C  
DOCKED: ATOM     23  C   UNL     1     138.781  77.520 222.709 -0.28 -0.01    +0.036 C  
DOCKED: BRANCH  22  24
DOCKED: ATOM     24  C   UNL     1     140.819  78.978 222.599 -0.41 +0.01    -0.026 A  
DOCKED: ATOM     25  C   UNL     1     142.198  78.889 222.858 -0.49 -0.00    +0.006 A  
DOCKED: ATOM     26  C   UNL     1     140.137  80.164 222.931 -0.39 -0.00    +0.006 A  
DOCKED: ATOM     27  C   UNL     1     142.880  79.962 223.441 -0.62 -0.00    +0.000 A  
DOCKED: ATOM     28  C   UNL     1     140.823  81.234 223.514 -0.42 -0.00    +0.000 A  
DOCKED: ATOM     29  C   UNL     1     142.193  81.132 223.770 -0.64 -0.00    +0.000 A  
DOCKED: ENDBRANCH  22  24
DOCKED: ENDBRANCH  20  22
DOCKED: ENDBRANCH   1  20
DOCKED: TORSDOF 7
DOCKED: TER
DOCKED: ENDMDL
________________________________________________________________________________


    CLUSTERING HISTOGRAM
    ____________________


________________________________________________________________________________
     |           |     |           |     |
Clus | Lowest    | Run | Mean      | Num | Histogram
-ter | Binding   |     | Binding   | in  |
Rank | Energy    |     | Energy    | Clus|    5    10   15   20   25   30   35
_____|___________|_____|___________|_____|____:____|____:____|____:____|____:___
   1 |     -8.12 |  19 |     -7.86 |   4 |####
   2 |     -8.06 |   1 |     -7.98 |   3 |###
   3 |     -7.27 |   8 |     -7.27 |   1 |#
   4 |     -7.06 |  14 |     -7.06 |   1 |#
   5 |     -6.95 |  20 |     -6.86 |   2 |##
   6 |     -6.53 |   2 |     -6.29 |   3 |###
   7 |     -6.35 |  13 |     -6.00 |   5 |#####
   8 |     -5.36 |  16 |     -5.36 |   1 |#
_____|___________|_____|___________|_____|______________________________________


    RMSD TABLE
    __________


_______________________________________________________________________
     |      |      |           |         |                 |
Rank | Sub- | Run  | Binding   | Cluster | Reference       | Grep
     | Rank |      | Energy    | RMSD    | RMSD            | Pattern
_____|______|______|___________|_________|_________________|___________
   1      1     19       -8.12      0.00    269.77           RANKING
   1      2      6       -7.80      0.48    269.55           RANKING
   1      3     18       -7.78      0.48    269.53           RANKING
   1      4      4       -7.77      0.51    269.58           RANKING
   2      1      1       -8.06      0.00    270.17           RANKING
   2      2      3       -7.94      0.50    270.05           RANKING
   2      3      7       -7.94      0.59    270.18           RANKING
   3      1      8       -7.27      0.00    269.97           RANKING
   4      1     14       -7.06      0.00    269.77           RANKING
   5      1     20       -6.95      0.00    270.03           RANKING
   5      2      5       -6.78      0.45    269.89           RANKING
   6      1      2       -6.53      0.00    270.52           RANKING
   6      2     12       -6.32      0.40    270.53           RANKING
   6      3     17       -6.02      0.37    270.49           RANKING
   7      1     13       -6.35      0.00    270.06           RANKING
   7      2     10       -6.30      0.16    270.02           RANKING
   7      3      9       -6.24      0.15    270.01           RANKING
   7      4     11       -5.61      1.36    270.07           RANKING
   7      5     15       -5.51      1.43    270.07           RANKING
   8      1     16       -5.36      0.00    270.13           RANKING

Run time 0.761 sec
Idle time 0.000 sec
