AutoDock-GPU version: v1.6

**********************************************************
**    AutoDock-GPU AUTODOCKTOOLS-COMPATIBLE DLG FILE    **
**********************************************************


    DOCKING PARAMETERS
    ________________________


Ligand file:                               /home/a/REINVENT4/ReinventStudies/pleaseWork/justmol2mol_4_Compounds_ontop/graph-dock-8u2o5u/graph-DockGPU/node-autodockgpu/inputs/KHUMQYDRRHUCEJ-HLQKJRBRNA-N.pdbqt
Grid fld file:                             /home/a/REINVENT4/ReinventStudies/mols/Rad51/maps/rad51_receptor.maps.fld

Random seed:                               42
Number of runs:                            20
Number of energy evaluations:              2040163
Number of generations:                     42000
Size of population:                        150
Rate of crossover:                         80.000000%
Tournament selection probability limit:    60.000000%
Rate of mutation:                          2.000000%
Maximal allowed delta movement:            +/- 6.000000A
Maximal allowed delta angle:               +/- 90.000000

Rate of local search:                      100.000000%
Maximal number of local search iterations: 300
Rho lower bound:                           0.010000
Spread of local search delta movement:     2.000000A
Spread of local search delta angle:        74.999999
Limit of consecutive successes/failures:   4

Handle symmetry during clustering:         YES
RMSD tolerance:                            2.000000A

Program call in command line was:          /home/a/REINVENT4/ReinventStudies/adgpu-v1.6_linux_x64_cuda12_128wi --filelist batch.txt --heuristics 1 --nrun 20 --psize 150 --lsit 300 --seed 42 --heurmax 12000000 


    GRID PARAMETERS
    ________________________


Receptor name:                             rad51_receptor
Number of grid points (x, y, z):           53, 53, 53
Grid center (x, y, z):                     139.950000, 75.640000, 221.970000A
Grid size (x, y, z):                       19.500000, 19.500000, 19.500000A
Grid spacing:                              0.375000A


    LIGAND PARAMETERS
    ________________________


Ligand name:                               /home/a/REINVENT4/ReinventStudies/pleaseWork/justmol2mol_4_Compounds_ontop/graph-dock-8u2o5u/graph-DockGPU/node-autodockgpu/inputs/KHUMQYDRRHUCEJ-HLQKJRBRNA-N
Number of atoms:                           24
Number of rotatable bonds:                 9
Number of atom types:                      6


    DUMMY DATA (only for ADT-compatibility)
    ________________________


DPF> outlev 1
DPF> ga_run 20
DPF> fld /home/a/REINVENT4/ReinventStudies/mols/Rad51/maps/rad51_receptor.maps.fld
DPF> move /home/a/REINVENT4/ReinventStudies/pleaseWork/justmol2mol_4_Compounds_ontop/graph-dock-8u2o5u/graph-DockGPU/node-autodockgpu/inputs/KHUMQYDRRHUCEJ-HLQKJRBRNA-N.pdbqt


    COUNTER STATES
    ________________________


Number of energy evaluations performed:    1171986
Number of generations used:                55


    INPUT LIGAND PDBQT FILE:
    ________________________


INPUT-LIGAND-PDBQT: REMARK SMILES CC(C)C[N-]/C(O)=C\N=C(/O)c1ccc2cc(Cl)ccc2n1
INPUT-LIGAND-PDBQT: REMARK SMILES IDX 8 1 9 2 10 3 11 4 12 6 22 7 13 8 21 9 14 10 20 11 15 12
INPUT-LIGAND-PDBQT: REMARK SMILES IDX 19 13 16 14 17 15 18 16 6 17 5 18 4 19 2 20 1 21 3 22 7 23
INPUT-LIGAND-PDBQT: REMARK H PARENT 11 5 7 24
INPUT-LIGAND-PDBQT: ROOT
INPUT-LIGAND-PDBQT: ATOM      1  C   UNL     1      -0.727   0.698  -3.004  1.00  0.00     0.136 C 
INPUT-LIGAND-PDBQT: ENDROOT
INPUT-LIGAND-PDBQT: BRANCH   1   2
INPUT-LIGAND-PDBQT: ATOM      2  N   UNL     1      -0.606  -0.583  -2.372  1.00  0.00    -0.218 NA
INPUT-LIGAND-PDBQT: BRANCH   2   3
INPUT-LIGAND-PDBQT: ATOM      3  C   UNL     1      -0.546  -1.748  -2.953  1.00  0.00     0.237 C 
INPUT-LIGAND-PDBQT: BRANCH   3   4
INPUT-LIGAND-PDBQT: ATOM      4  O   UNL     1      -0.598  -1.895  -4.344  1.00  0.00    -0.492 OA
INPUT-LIGAND-PDBQT: ATOM      5  H   UNL     1      -0.688  -1.129  -4.995  1.00  0.00     0.295 HD
INPUT-LIGAND-PDBQT: ENDBRANCH   3   4
INPUT-LIGAND-PDBQT: BRANCH   3   6
INPUT-LIGAND-PDBQT: ATOM      6  C   UNL     1      -0.418  -2.954  -2.111  1.00  0.00     0.126 A 
INPUT-LIGAND-PDBQT: ATOM      7  N   UNL     1      -0.364  -2.825  -0.755  1.00  0.00    -0.243 NA
INPUT-LIGAND-PDBQT: ATOM      8  C   UNL     1      -0.350  -4.234  -2.686  1.00  0.00     0.035 A 
INPUT-LIGAND-PDBQT: ATOM      9  C   UNL     1      -0.245  -3.900   0.070  1.00  0.00     0.071 A 
INPUT-LIGAND-PDBQT: ATOM     10  C   UNL     1      -0.229  -5.357  -1.864  1.00  0.00     0.013 A 
INPUT-LIGAND-PDBQT: ATOM     11  C   UNL     1      -0.193  -3.719   1.456  1.00  0.00     0.030 A 
INPUT-LIGAND-PDBQT: ATOM     12  C   UNL     1      -0.175  -5.201  -0.474  1.00  0.00     0.002 A 
INPUT-LIGAND-PDBQT: ATOM     13  C   UNL     1      -0.072  -4.826   2.302  1.00  0.00     0.023 A 
INPUT-LIGAND-PDBQT: ATOM     14  C   UNL     1      -0.053  -6.307   0.380  1.00  0.00     0.030 A 
INPUT-LIGAND-PDBQT: ATOM     15  C   UNL     1      -0.002  -6.117   1.767  1.00  0.00     0.041 A 
INPUT-LIGAND-PDBQT: ATOM     16  Cl  UNL     1       0.150  -7.501   2.835  1.00  0.00    -0.084 Cl
INPUT-LIGAND-PDBQT: ENDBRANCH   3   6
INPUT-LIGAND-PDBQT: ENDBRANCH   2   3
INPUT-LIGAND-PDBQT: ENDBRANCH   1   2
INPUT-LIGAND-PDBQT: BRANCH   1  17
INPUT-LIGAND-PDBQT: ATOM     17  C   UNL     1      -0.780   1.807  -2.264  1.00  0.00     0.029 C 
INPUT-LIGAND-PDBQT: BRANCH  17  18
INPUT-LIGAND-PDBQT: ATOM     18  N   UNL     1      -0.723   1.716  -0.836  1.00  0.00    -0.653 NA
INPUT-LIGAND-PDBQT: BRANCH  18  19
INPUT-LIGAND-PDBQT: ATOM     19  C   UNL     1      -0.711   2.873   0.054  1.00  0.00    -0.115 C 
INPUT-LIGAND-PDBQT: BRANCH  19  20
INPUT-LIGAND-PDBQT: ATOM     20  C   UNL     1       0.730   3.272   0.428  1.00  0.00    -0.035 C 
INPUT-LIGAND-PDBQT: ATOM     21  C   UNL     1       1.515   3.783  -0.787  1.00  0.00     0.006 C 
INPUT-LIGAND-PDBQT: ATOM     22  C   UNL     1       0.714   4.339   1.529  1.00  0.00     0.006 C 
INPUT-LIGAND-PDBQT: ENDBRANCH  19  20
INPUT-LIGAND-PDBQT: ENDBRANCH  18  19
INPUT-LIGAND-PDBQT: ENDBRANCH  17  18
INPUT-LIGAND-PDBQT: BRANCH  17  23
INPUT-LIGAND-PDBQT: ATOM     23  O   UNL     1      -0.892   3.057  -2.876  1.00  0.00    -0.529 OA
INPUT-LIGAND-PDBQT: ATOM     24  H   UNL     1      -0.933   3.160  -3.884  1.00  0.00     0.290 HD
INPUT-LIGAND-PDBQT: ENDBRANCH  17  23
INPUT-LIGAND-PDBQT: ENDBRANCH   1  17
INPUT-LIGAND-PDBQT: TORSDOF 9


    FINAL DOCKED STATE:
    ________________________


Run:   1 / 20
Time taken for this run:   0.039s

DOCKED: MODEL        1
DOCKED: USER    Run = 1
DOCKED: USER
DOCKED: USER    Estimated Free Energy of Binding    =  -6.01 kcal/mol  [=(1)+(2)+(3)-(4)]
DOCKED: USER
DOCKED: USER    (1) Final Intermolecular Energy     =  -8.69 kcal/mol
DOCKED: USER        vdW + Hbond + desolv Energy     =  -8.94 kcal/mol
DOCKED: USER        Electrostatic Energy            =  +0.25 kcal/mol
DOCKED: USER        Moving Ligand-Fixed Receptor    =  -8.69 kcal/mol
DOCKED: USER        Moving Ligand-Moving Receptor   =  +0.00 kcal/mol
DOCKED: USER    (2) Final Total Internal Energy     =  -1.73 kcal/mol
DOCKED: USER    (3) Torsional Free Energy           =  +2.68 kcal/mol
DOCKED: USER    (4) Unbound System's Energy         =  -1.73 kcal/mol
DOCKED: USER
DOCKED: USER
DOCKED: REMARK SMILES CC(C)C[N-]/C(O)=C\N=C(/O)c1ccc2cc(Cl)ccc2n1
DOCKED: REMARK SMILES IDX 8 1 9 2 10 3 11 4 12 6 22 7 13 8 21 9 14 10 20 11 15 12
DOCKED: REMARK SMILES IDX 19 13 16 14 17 15 18 16 6 17 5 18 4 19 2 20 1 21 3 22 7 23
DOCKED: REMARK H PARENT 11 5 7 24
DOCKED: USER                              x       y       z     vdW  Elec       q    Type
DOCKED: USER                           _______ _______ _______ _____ _____    ______ ____
DOCKED: ROOT
DOCKED: ATOM      1  C   UNL     1     140.852  74.689 221.315 -0.26 -0.03    +0.136 C  
DOCKED: ENDROOT
DOCKED: BRANCH   1   2
DOCKED: ATOM      2  N   UNL     1     140.688  73.380 221.875 -0.57 +0.01    -0.218 NA 
DOCKED: BRANCH   2   3
DOCKED: ATOM      3  C   UNL     1     139.619  72.888 222.436 -0.12 -0.05    +0.237 C  
DOCKED: BRANCH   3   4
DOCKED: ATOM      4  O   UNL     1     138.331  73.319 222.098 -0.07 +0.15    -0.492 OA 
DOCKED: ATOM      5  H   UNL     1     137.794  73.985 222.634 -0.40 -0.14    +0.295 HD 
DOCKED: ENDBRANCH   3   4
DOCKED: BRANCH   3   6
DOCKED: ATOM      6  C   UNL     1     139.776  71.839 223.463 -0.29 -0.03    +0.126 A  
DOCKED: ATOM      7  N   UNL     1     140.253  72.171 224.696 +0.10 +0.05    -0.243 NA 
DOCKED: ATOM      8  C   UNL     1     139.443  70.502 223.188 -0.26 -0.01    +0.035 A  
DOCKED: ATOM      9  C   UNL     1     140.419  71.247 225.680 -0.52 -0.01    +0.071 A  
DOCKED: ATOM     10  C   UNL     1     139.602  69.531 224.180 -0.30 -0.00    +0.013 A  
DOCKED: ATOM     11  C   UNL     1     140.912  71.635 226.931 -0.72 -0.01    +0.030 A  
DOCKED: ATOM     12  C   UNL     1     140.093  69.895 225.439 -0.46 -0.00    +0.002 A  
DOCKED: ATOM     13  C   UNL     1     141.081  70.683 227.941 -0.65 -0.00    +0.023 A  
DOCKED: ATOM     14  C   UNL     1     140.266  68.945 226.457 -0.54 -0.01    +0.030 A  
DOCKED: ATOM     15  C   UNL     1     140.759  69.341 227.706 -0.59 -0.01    +0.041 A  
DOCKED: ATOM     16  Cl  UNL     1     140.975  68.153 228.979 -0.50 +0.02    -0.084 Cl 
DOCKED: ENDBRANCH   3   6
DOCKED: ENDBRANCH   2   3
DOCKED: ENDBRANCH   1   2
DOCKED: BRANCH   1  17
DOCKED: ATOM     17  C   UNL     1     140.364  75.755 221.953 -0.34 -0.01    +0.029 C  
DOCKED: BRANCH  17  18
DOCKED: ATOM     18  N   UNL     1     141.038  77.015 221.856 -0.01 +0.27    -0.653 NA 
DOCKED: BRANCH  18  19
DOCKED: ATOM     19  C   UNL     1     141.145  77.968 222.957 -0.38 +0.04    -0.115 C  
DOCKED: BRANCH  19  20
DOCKED: ATOM     20  C   UNL     1     140.453  79.300 222.609 -0.39 +0.01    -0.035 C  
DOCKED: ATOM     21  C   UNL     1     139.473  79.738 223.705 -0.43 -0.00    +0.006 C  
DOCKED: ATOM     22  C   UNL     1     141.501  80.394 222.374 -0.50 -0.00    +0.006 C  
DOCKED: ENDBRANCH  19  20
DOCKED: ENDBRANCH  18  19
DOCKED: ENDBRANCH  17  18
DOCKED: BRANCH  17  23
DOCKED: ATOM     23  O   UNL     1     139.199  75.648 222.715 -0.31 +0.10    -0.529 OA 
DOCKED: ATOM     24  H   UNL     1     139.044  74.875 223.353 -0.44 -0.13    +0.290 HD 
DOCKED: ENDBRANCH  17  23
DOCKED: ENDBRANCH   1  17
DOCKED: TORSDOF 9
DOCKED: TER
DOCKED: ENDMDL
________________________________________________________________________________


    FINAL DOCKED STATE:
    ________________________


Run:   2 / 20
Time taken for this run:   0.039s

DOCKED: MODEL        2
DOCKED: USER    Run = 2
DOCKED: USER
DOCKED: USER    Estimated Free Energy of Binding    =  -5.58 kcal/mol  [=(1)+(2)+(3)-(4)]
DOCKED: USER
DOCKED: USER    (1) Final Intermolecular Energy     =  -8.26 kcal/mol
DOCKED: USER        vdW + Hbond + desolv Energy     =  -8.54 kcal/mol
DOCKED: USER        Electrostatic Energy            =  +0.28 kcal/mol
DOCKED: USER        Moving Ligand-Fixed Receptor    =  -8.26 kcal/mol
DOCKED: USER        Moving Ligand-Moving Receptor   =  +0.00 kcal/mol
DOCKED: USER    (2) Final Total Internal Energy     =  -2.01 kcal/mol
DOCKED: USER    (3) Torsional Free Energy           =  +2.68 kcal/mol
DOCKED: USER    (4) Unbound System's Energy         =  -2.01 kcal/mol
DOCKED: USER
DOCKED: USER
DOCKED: REMARK SMILES CC(C)C[N-]/C(O)=C\N=C(/O)c1ccc2cc(Cl)ccc2n1
DOCKED: REMARK SMILES IDX 8 1 9 2 10 3 11 4 12 6 22 7 13 8 21 9 14 10 20 11 15 12
DOCKED: REMARK SMILES IDX 19 13 16 14 17 15 18 16 6 17 5 18 4 19 2 20 1 21 3 22 7 23
DOCKED: REMARK H PARENT 11 5 7 24
DOCKED: USER                              x       y       z     vdW  Elec       q    Type
DOCKED: USER                           _______ _______ _______ _____ _____    ______ ____
DOCKED: ROOT
DOCKED: ATOM      1  C   UNL     1     141.259  74.755 221.560 -0.20 -0.02    +0.136 C  
DOCKED: ENDROOT
DOCKED: BRANCH   1   2
DOCKED: ATOM      2  N   UNL     1     140.793  73.400 221.500 -0.32 +0.02    -0.218 NA 
DOCKED: BRANCH   2   3
DOCKED: ATOM      3  C   UNL     1     139.704  72.916 222.028 -0.19 -0.04    +0.237 C  
DOCKED: BRANCH   3   4
DOCKED: ATOM      4  O   UNL     1     138.429  73.327 221.623 -0.06 +0.12    -0.492 OA 
DOCKED: ATOM      5  H   UNL     1     138.141  74.290 221.535 +0.05 -0.08    +0.295 HD 
DOCKED: ENDBRANCH   3   4
DOCKED: BRANCH   3   6
DOCKED: ATOM      6  C   UNL     1     139.823  71.897 223.089 -0.29 -0.02    +0.126 A  
DOCKED: ATOM      7  N   UNL     1     140.329  72.248 224.306 -0.08 +0.04    -0.243 NA 
DOCKED: ATOM      8  C   UNL     1     139.425  70.568 222.865 -0.24 -0.01    +0.035 A  
DOCKED: ATOM      9  C   UNL     1     140.463  71.352 225.320 -0.50 -0.01    +0.071 A  
DOCKED: ATOM     10  C   UNL     1     139.549  69.626 223.889 -0.28 -0.00    +0.013 A  
DOCKED: ATOM     11  C   UNL     1     140.988  71.759 226.551 -0.69 -0.00    +0.030 A  
DOCKED: ATOM     12  C   UNL     1     140.071  70.009 225.130 -0.44 -0.00    +0.002 A  
DOCKED: ATOM     13  C   UNL     1     141.123  70.835 227.593 -0.62 -0.00    +0.023 A  
DOCKED: ATOM     14  C   UNL     1     140.211  69.088 226.178 -0.51 -0.01    +0.030 A  
DOCKED: ATOM     15  C   UNL     1     140.737  69.503 227.408 -0.57 -0.01    +0.041 A  
DOCKED: ATOM     16  Cl  UNL     1     140.911  68.351 228.720 -0.69 +0.02    -0.084 Cl 
DOCKED: ENDBRANCH   3   6
DOCKED: ENDBRANCH   2   3
DOCKED: ENDBRANCH   1   2
DOCKED: BRANCH   1  17
DOCKED: ATOM     17  C   UNL     1     140.394  75.753 221.747 -0.34 -0.01    +0.029 C  
DOCKED: BRANCH  17  18
DOCKED: ATOM     18  N   UNL     1     140.508  76.951 220.971 +0.04 +0.23    -0.653 NA 
DOCKED: BRANCH  18  19
DOCKED: ATOM     19  C   UNL     1     141.298  78.110 221.374 -0.30 +0.06    -0.115 C  
DOCKED: BRANCH  19  20
DOCKED: ATOM     20  C   UNL     1     141.116  78.413 222.875 -0.49 +0.01    -0.035 C  
DOCKED: ATOM     21  C   UNL     1     142.217  79.339 223.408 -0.62 -0.00    +0.006 C  
DOCKED: ATOM     22  C   UNL     1     139.738  79.036 223.125 -0.40 -0.00    +0.006 C  
DOCKED: ENDBRANCH  19  20
DOCKED: ENDBRANCH  18  19
DOCKED: ENDBRANCH  17  18
DOCKED: BRANCH  17  23
DOCKED: ATOM     23  O   UNL     1     139.377  75.635 222.697 -0.33 +0.09    -0.529 OA 
DOCKED: ATOM     24  H   UNL     1     139.125  74.742 223.106 -0.47 -0.10    +0.290 HD 
DOCKED: ENDBRANCH  17  23
DOCKED: ENDBRANCH   1  17
DOCKED: TORSDOF 9
DOCKED: TER
DOCKED: ENDMDL
________________________________________________________________________________


    FINAL DOCKED STATE:
    ________________________


Run:   3 / 20
Time taken for this run:   0.039s

DOCKED: MODEL        3
DOCKED: USER    Run = 3
DOCKED: USER
DOCKED: USER    Estimated Free Energy of Binding    =  -5.14 kcal/mol  [=(1)+(2)+(3)-(4)]
DOCKED: USER
DOCKED: USER    (1) Final Intermolecular Energy     =  -7.82 kcal/mol
DOCKED: USER        vdW + Hbond + desolv Energy     =  -6.62 kcal/mol
DOCKED: USER        Electrostatic Energy            =  -1.20 kcal/mol
DOCKED: USER        Moving Ligand-Fixed Receptor    =  -7.82 kcal/mol
DOCKED: USER        Moving Ligand-Moving Receptor   =  +0.00 kcal/mol
DOCKED: USER    (2) Final Total Internal Energy     =  -2.12 kcal/mol
DOCKED: USER    (3) Torsional Free Energy           =  +2.68 kcal/mol
DOCKED: USER    (4) Unbound System's Energy         =  -2.12 kcal/mol
DOCKED: USER
DOCKED: USER
DOCKED: REMARK SMILES CC(C)C[N-]/C(O)=C\N=C(/O)c1ccc2cc(Cl)ccc2n1
DOCKED: REMARK SMILES IDX 8 1 9 2 10 3 11 4 12 6 22 7 13 8 21 9 14 10 20 11 15 12
DOCKED: REMARK SMILES IDX 19 13 16 14 17 15 18 16 6 17 5 18 4 19 2 20 1 21 3 22 7 23
DOCKED: REMARK H PARENT 11 5 7 24
DOCKED: USER                              x       y       z     vdW  Elec       q    Type
DOCKED: USER                           _______ _______ _______ _____ _____    ______ ____
DOCKED: ROOT
DOCKED: ATOM      1  C   UNL     1     145.147  72.627 220.610 -0.39 -0.01    +0.136 C  
DOCKED: ENDROOT
DOCKED: BRANCH   1   2
DOCKED: ATOM      2  N   UNL     1     144.445  73.876 220.653 -0.31 +0.06    -0.218 NA 
DOCKED: BRANCH   2   3
DOCKED: ATOM      3  C   UNL     1     143.659  74.372 219.739 -0.24 -0.08    +0.237 C  
DOCKED: BRANCH   3   4
DOCKED: ATOM      4  O   UNL     1     143.595  73.849 218.442 -0.01 +0.12    -0.492 OA 
DOCKED: ATOM      5  H   UNL     1     144.269  73.208 218.052 +0.10 -0.02    +0.295 HD 
DOCKED: ENDBRANCH   3   4
DOCKED: BRANCH   3   6
DOCKED: ATOM      6  C   UNL     1     142.807  75.526 220.088 -0.28 -0.07    +0.126 A  
DOCKED: ATOM      7  N   UNL     1     141.811  75.374 221.006 -0.19 +0.10    -0.243 NA 
DOCKED: ATOM      8  C   UNL     1     143.006  76.780 219.486 -0.36 -0.02    +0.035 A  
DOCKED: ATOM      9  C   UNL     1     140.995  76.401 221.365 -0.31 -0.03    +0.071 A  
DOCKED: ATOM     10  C   UNL     1     142.184  77.854 219.836 -0.29 -0.01    +0.013 A  
DOCKED: ATOM     11  C   UNL     1     139.985  76.198 222.312 -0.36 -0.01    +0.030 A  
DOCKED: ATOM     12  C   UNL     1     141.167  77.675 220.781 -0.29 -0.00    +0.002 A  
DOCKED: ATOM     13  C   UNL     1     139.148  77.256 222.680 -0.28 -0.00    +0.023 A  
DOCKED: ATOM     14  C   UNL     1     140.324  78.732 221.154 -0.22 -0.01    +0.030 A  
DOCKED: ATOM     15  C   UNL     1     139.315  78.520 222.104 -0.25 -0.01    +0.041 A  
DOCKED: ATOM     16  Cl  UNL     1     138.261  79.842 222.571 -0.29 +0.01    -0.084 Cl 
DOCKED: ENDBRANCH   3   6
DOCKED: ENDBRANCH   2   3
DOCKED: ENDBRANCH   1   2
DOCKED: BRANCH   1  17
DOCKED: ATOM     17  C   UNL     1     145.851  72.291 219.528 -0.28 +0.02    +0.029 C  
DOCKED: BRANCH  17  18
DOCKED: ATOM     18  N   UNL     1     146.322  70.948 219.371 +0.03 -0.67    -0.653 NA 
DOCKED: BRANCH  18  19
DOCKED: ATOM     19  C   UNL     1     145.672  69.951 218.526 -0.25 -0.06    -0.115 C  
DOCKED: BRANCH  19  20
DOCKED: ATOM     20  C   UNL     1     145.291  68.697 219.338 -0.38 -0.01    -0.035 C  
DOCKED: ATOM     21  C   UNL     1     143.774  68.475 219.368 -0.28 -0.00    +0.006 C  
DOCKED: ATOM     22  C   UNL     1     145.991  67.461 218.762 -0.51 -0.00    +0.006 C  
DOCKED: ENDBRANCH  19  20
DOCKED: ENDBRANCH  18  19
DOCKED: ENDBRANCH  17  18
DOCKED: BRANCH  17  23
DOCKED: ATOM     23  O   UNL     1     146.133  73.245 218.548 -0.61 -0.41    -0.529 OA 
DOCKED: ATOM     24  H   UNL     1     145.737  74.178 218.577 -0.38 -0.10    +0.290 HD 
DOCKED: ENDBRANCH  17  23
DOCKED: ENDBRANCH   1  17
DOCKED: TORSDOF 9
DOCKED: TER
DOCKED: ENDMDL
________________________________________________________________________________


    FINAL DOCKED STATE:
    ________________________


Run:   4 / 20
Time taken for this run:   0.039s

DOCKED: MODEL        4
DOCKED: USER    Run = 4
DOCKED: USER
DOCKED: USER    Estimated Free Energy of Binding    =  -6.23 kcal/mol  [=(1)+(2)+(3)-(4)]
DOCKED: USER
DOCKED: USER    (1) Final Intermolecular Energy     =  -8.91 kcal/mol
DOCKED: USER        vdW + Hbond + desolv Energy     =  -9.16 kcal/mol
DOCKED: USER        Electrostatic Energy            =  +0.25 kcal/mol
DOCKED: USER        Moving Ligand-Fixed Receptor    =  -8.91 kcal/mol
DOCKED: USER        Moving Ligand-Moving Receptor   =  +0.00 kcal/mol
DOCKED: USER    (2) Final Total Internal Energy     =  -1.74 kcal/mol
DOCKED: USER    (3) Torsional Free Energy           =  +2.68 kcal/mol
DOCKED: USER    (4) Unbound System's Energy         =  -1.74 kcal/mol
DOCKED: USER
DOCKED: USER
DOCKED: REMARK SMILES CC(C)C[N-]/C(O)=C\N=C(/O)c1ccc2cc(Cl)ccc2n1
DOCKED: REMARK SMILES IDX 8 1 9 2 10 3 11 4 12 6 22 7 13 8 21 9 14 10 20 11 15 12
DOCKED: REMARK SMILES IDX 19 13 16 14 17 15 18 16 6 17 5 18 4 19 2 20 1 21 3 22 7 23
DOCKED: REMARK H PARENT 11 5 7 24
DOCKED: USER                              x       y       z     vdW  Elec       q    Type
DOCKED: USER                           _______ _______ _______ _____ _____    ______ ____
DOCKED: ROOT
DOCKED: ATOM      1  C   UNL     1     140.973  74.625 221.359 -0.25 -0.02    +0.136 C  
DOCKED: ENDROOT
DOCKED: BRANCH   1   2
DOCKED: ATOM      2  N   UNL     1     140.823  73.338 221.972 -0.58 +0.01    -0.218 NA 
DOCKED: BRANCH   2   3
DOCKED: ATOM      3  C   UNL     1     139.749  72.846 222.523 -0.10 -0.04    +0.237 C  
DOCKED: BRANCH   3   4
DOCKED: ATOM      4  O   UNL     1     138.463  73.271 222.169 -0.08 +0.16    -0.492 OA 
DOCKED: ATOM      5  H   UNL     1     137.921  73.943 222.693 -0.46 -0.15    +0.295 HD 
DOCKED: ENDBRANCH   3   4
DOCKED: BRANCH   3   6
DOCKED: ATOM      6  C   UNL     1     139.898  71.801 223.556 -0.30 -0.02    +0.126 A  
DOCKED: ATOM      7  N   UNL     1     140.389  72.134 224.783 +0.00 +0.04    -0.243 NA 
DOCKED: ATOM      8  C   UNL     1     139.542  70.468 223.293 -0.27 -0.01    +0.035 A  
DOCKED: ATOM      9  C   UNL     1     140.549  71.214 225.772 -0.54 -0.01    +0.071 A  
DOCKED: ATOM     10  C   UNL     1     139.694  69.501 224.290 -0.28 -0.00    +0.013 A  
DOCKED: ATOM     11  C   UNL     1     141.057  71.602 227.016 -0.74 -0.01    +0.030 A  
DOCKED: ATOM     12  C   UNL     1     140.201  69.865 225.543 -0.47 -0.00    +0.002 A  
DOCKED: ATOM     13  C   UNL     1     141.220  70.655 228.032 -0.54 -0.00    +0.023 A  
DOCKED: ATOM     14  C   UNL     1     140.367  68.920 226.566 -0.55 -0.01    +0.030 A  
DOCKED: ATOM     15  C   UNL     1     140.876  69.317 227.809 -0.58 -0.01    +0.041 A  
DOCKED: ATOM     16  Cl  UNL     1     141.083  68.134 229.088 -0.46 +0.02    -0.084 Cl 
DOCKED: ENDBRANCH   3   6
DOCKED: ENDBRANCH   2   3
DOCKED: ENDBRANCH   1   2
DOCKED: BRANCH   1  17
DOCKED: ATOM     17  C   UNL     1     140.458  75.709 221.943 -0.34 -0.01    +0.029 C  
DOCKED: BRANCH  17  18
DOCKED: ATOM     18  N   UNL     1     141.060  76.990 221.728 -0.01 +0.28    -0.653 NA 
DOCKED: BRANCH  18  19
DOCKED: ATOM     19  C   UNL     1     140.385  78.260 221.981 -0.29 +0.04    -0.115 C  
DOCKED: BRANCH  19  20
DOCKED: ATOM     20  C   UNL     1     140.928  78.933 223.257 -0.50 +0.01    -0.035 C  
DOCKED: ATOM     21  C   UNL     1     142.248  79.670 222.998 -0.63 -0.00    +0.006 C  
DOCKED: ATOM     22  C   UNL     1     139.887  79.905 223.825 -0.43 -0.00    +0.006 C  
DOCKED: ENDBRANCH  19  20
DOCKED: ENDBRANCH  18  19
DOCKED: ENDBRANCH  17  18
DOCKED: BRANCH  17  23
DOCKED: ATOM     23  O   UNL     1     139.335  75.599 222.766 -0.30 +0.09    -0.529 OA 
DOCKED: ATOM     24  H   UNL     1     139.199  74.809 223.387 -0.44 -0.11    +0.290 HD 
DOCKED: ENDBRANCH  17  23
DOCKED: ENDBRANCH   1  17
DOCKED: TORSDOF 9
DOCKED: TER
DOCKED: ENDMDL
________________________________________________________________________________


    FINAL DOCKED STATE:
    ________________________


Run:   5 / 20
Time taken for this run:   0.039s

DOCKED: MODEL        5
DOCKED: USER    Run = 5
DOCKED: USER
DOCKED: USER    Estimated Free Energy of Binding    =  -4.95 kcal/mol  [=(1)+(2)+(3)-(4)]
DOCKED: USER
DOCKED: USER    (1) Final Intermolecular Energy     =  -7.64 kcal/mol
DOCKED: USER        vdW + Hbond + desolv Energy     =  -8.06 kcal/mol
DOCKED: USER        Electrostatic Energy            =  +0.42 kcal/mol
DOCKED: USER        Moving Ligand-Fixed Receptor    =  -7.64 kcal/mol
DOCKED: USER        Moving Ligand-Moving Receptor   =  +0.00 kcal/mol
DOCKED: USER    (2) Final Total Internal Energy     =  -2.42 kcal/mol
DOCKED: USER    (3) Torsional Free Energy           =  +2.68 kcal/mol
DOCKED: USER    (4) Unbound System's Energy         =  -2.42 kcal/mol
DOCKED: USER
DOCKED: USER
DOCKED: REMARK SMILES CC(C)C[N-]/C(O)=C\N=C(/O)c1ccc2cc(Cl)ccc2n1
DOCKED: REMARK SMILES IDX 8 1 9 2 10 3 11 4 12 6 22 7 13 8 21 9 14 10 20 11 15 12
DOCKED: REMARK SMILES IDX 19 13 16 14 17 15 18 16 6 17 5 18 4 19 2 20 1 21 3 22 7 23
DOCKED: REMARK H PARENT 11 5 7 24
DOCKED: USER                              x       y       z     vdW  Elec       q    Type
DOCKED: USER                           _______ _______ _______ _____ _____    ______ ____
DOCKED: ROOT
DOCKED: ATOM      1  C   UNL     1     141.128  74.958 221.581 -0.25 -0.03    +0.136 C  
DOCKED: ENDROOT
DOCKED: BRANCH   1   2
DOCKED: ATOM      2  N   UNL     1     140.102  74.035 221.967 -0.79 +0.02    -0.218 NA 
DOCKED: BRANCH   2   3
DOCKED: ATOM      3  C   UNL     1     140.043  72.761 221.698 -0.19 -0.04    +0.237 C  
DOCKED: BRANCH   3   4
DOCKED: ATOM      4  O   UNL     1     139.988  72.274 220.387 -0.01 +0.09    -0.492 OA 
DOCKED: ATOM      5  H   UNL     1     140.685  72.458 219.681 +0.06 -0.05    +0.295 HD 
DOCKED: ENDBRANCH   3   4
DOCKED: BRANCH   3   6
DOCKED: ATOM      6  C   UNL     1     140.035  71.800 222.819 -0.28 -0.02    +0.126 A  
DOCKED: ATOM      7  N   UNL     1     140.526  72.178 224.033 -0.17 +0.03    -0.243 NA 
DOCKED: ATOM      8  C   UNL     1     139.528  70.500 222.653 -0.22 -0.01    +0.035 A  
DOCKED: ATOM      9  C   UNL     1     140.545  71.335 225.100 -0.49 -0.01    +0.071 A  
DOCKED: ATOM     10  C   UNL     1     139.534  69.612 223.732 -0.26 -0.00    +0.013 A  
DOCKED: ATOM     11  C   UNL     1     141.060  71.767 226.327 -0.67 -0.00    +0.030 A  
DOCKED: ATOM     12  C   UNL     1     140.044  70.021 224.970 -0.42 -0.00    +0.002 A  
DOCKED: ATOM     13  C   UNL     1     141.078  70.898 227.423 -0.66 -0.00    +0.023 A  
DOCKED: ATOM     14  C   UNL     1     140.065  69.155 226.073 -0.49 -0.01    +0.030 A  
DOCKED: ATOM     15  C   UNL     1     140.582  69.596 227.298 -0.56 -0.01    +0.041 A  
DOCKED: ATOM     16  Cl  UNL     1     140.607  68.512 228.678 -0.72 +0.02    -0.084 Cl 
DOCKED: ENDBRANCH   3   6
DOCKED: ENDBRANCH   2   3
DOCKED: ENDBRANCH   1   2
DOCKED: BRANCH   1  17
DOCKED: ATOM     17  C   UNL     1     141.616  74.935 220.339 -0.25 -0.01    +0.029 C  
DOCKED: BRANCH  17  18
DOCKED: ATOM     18  N   UNL     1     142.949  75.392 220.088 -0.00 +0.33    -0.653 NA 
DOCKED: BRANCH  18  19
DOCKED: ATOM     19  C   UNL     1     144.053  74.515 219.710 -0.33 +0.05    -0.115 C  
DOCKED: BRANCH  19  20
DOCKED: ATOM     20  C   UNL     1     144.342  73.478 220.814 -0.42 +0.01    -0.035 C  
DOCKED: ATOM     21  C   UNL     1     143.808  72.088 220.445 -0.32 -0.00    +0.006 C  
DOCKED: ATOM     22  C   UNL     1     145.848  73.406 221.090 -0.70 -0.00    +0.006 C  
DOCKED: ENDBRANCH  19  20
DOCKED: ENDBRANCH  18  19
DOCKED: ENDBRANCH  17  18
DOCKED: BRANCH  17  23
DOCKED: ATOM     23  O   UNL     1     140.831  74.468 219.283 +0.02 +0.13    -0.529 OA 
DOCKED: ATOM     24  H   UNL     1     139.938  74.013 219.437 +0.05 -0.06    +0.290 HD 
DOCKED: ENDBRANCH  17  23
DOCKED: ENDBRANCH   1  17
DOCKED: TORSDOF 9
DOCKED: TER
DOCKED: ENDMDL
________________________________________________________________________________


    FINAL DOCKED STATE:
    ________________________


Run:   6 / 20
Time taken for this run:   0.039s

DOCKED: MODEL        6
DOCKED: USER    Run = 6
DOCKED: USER
DOCKED: USER    Estimated Free Energy of Binding    =  -5.89 kcal/mol  [=(1)+(2)+(3)-(4)]
DOCKED: USER
DOCKED: USER    (1) Final Intermolecular Energy     =  -8.57 kcal/mol
DOCKED: USER        vdW + Hbond + desolv Energy     =  -8.78 kcal/mol
DOCKED: USER        Electrostatic Energy            =  +0.20 kcal/mol
DOCKED: USER        Moving Ligand-Fixed Receptor    =  -8.57 kcal/mol
DOCKED: USER        Moving Ligand-Moving Receptor   =  +0.00 kcal/mol
DOCKED: USER    (2) Final Total Internal Energy     =  -1.98 kcal/mol
DOCKED: USER    (3) Torsional Free Energy           =  +2.68 kcal/mol
DOCKED: USER    (4) Unbound System's Energy         =  -1.98 kcal/mol
DOCKED: USER
DOCKED: USER
DOCKED: REMARK SMILES CC(C)C[N-]/C(O)=C\N=C(/O)c1ccc2cc(Cl)ccc2n1
DOCKED: REMARK SMILES IDX 8 1 9 2 10 3 11 4 12 6 22 7 13 8 21 9 14 10 20 11 15 12
DOCKED: REMARK SMILES IDX 19 13 16 14 17 15 18 16 6 17 5 18 4 19 2 20 1 21 3 22 7 23
DOCKED: REMARK H PARENT 11 5 7 24
DOCKED: USER                              x       y       z     vdW  Elec       q    Type
DOCKED: USER                           _______ _______ _______ _____ _____    ______ ____
DOCKED: ROOT
DOCKED: ATOM      1  C   UNL     1     141.057  75.016 221.484 -0.27 -0.03    +0.136 C  
DOCKED: ENDROOT
DOCKED: BRANCH   1   2
DOCKED: ATOM      2  N   UNL     1     140.987  73.660 221.942 -0.60 +0.01    -0.218 NA 
DOCKED: BRANCH   2   3
DOCKED: ATOM      3  C   UNL     1     139.912  72.963 222.187 -0.19 -0.03    +0.237 C  
DOCKED: BRANCH   3   4
DOCKED: ATOM      4  O   UNL     1     138.709  73.178 221.504 -0.06 +0.11    -0.492 OA 
DOCKED: ATOM      5  H   UNL     1     138.244  74.071 221.435 +0.05 -0.07    +0.295 HD 
DOCKED: ENDBRANCH   3   4
DOCKED: BRANCH   3   6
DOCKED: ATOM      6  C   UNL     1     139.970  71.911 223.221 -0.30 -0.02    +0.126 A  
DOCKED: ATOM      7  N   UNL     1     140.466  72.208 224.455 -0.03 +0.04    -0.243 NA 
DOCKED: ATOM      8  C   UNL     1     139.522  70.607 222.952 -0.25 -0.01    +0.035 A  
DOCKED: ATOM      9  C   UNL     1     140.545  71.279 225.446 -0.52 -0.01    +0.071 A  
DOCKED: ATOM     10  C   UNL     1     139.589  69.632 223.950 -0.28 -0.00    +0.013 A  
DOCKED: ATOM     11  C   UNL     1     141.062  71.629 226.697 -0.71 -0.00    +0.030 A  
DOCKED: ATOM     12  C   UNL     1     140.102  69.959 225.210 -0.44 -0.00    +0.002 A  
DOCKED: ATOM     13  C   UNL     1     141.140  70.673 227.715 -0.59 -0.00    +0.023 A  
DOCKED: ATOM     14  C   UNL     1     140.184  69.004 226.235 -0.52 -0.01    +0.030 A  
DOCKED: ATOM     15  C   UNL     1     140.703  69.363 227.485 -0.58 -0.01    +0.041 A  
DOCKED: ATOM     16  Cl  UNL     1     140.805  68.169 228.766 -0.62 +0.02    -0.084 Cl 
DOCKED: ENDBRANCH   3   6
DOCKED: ENDBRANCH   2   3
DOCKED: ENDBRANCH   1   2
DOCKED: BRANCH   1  17
DOCKED: ATOM     17  C   UNL     1     140.187  75.921 221.936 -0.35 -0.01    +0.029 C  
DOCKED: BRANCH  17  18
DOCKED: ATOM     18  N   UNL     1     140.345  77.301 221.585 +0.02 +0.21    -0.653 NA 
DOCKED: BRANCH  18  19
DOCKED: ATOM     19  C   UNL     1     139.817  78.408 222.377 -0.29 +0.03    -0.115 C  
DOCKED: BRANCH  19  20
DOCKED: ATOM     20  C   UNL     1     140.939  79.378 222.796 -0.46 +0.01    -0.035 C  
DOCKED: ATOM     21  C   UNL     1     141.817  78.789 223.908 -0.59 -0.00    +0.006 C  
DOCKED: ATOM     22  C   UNL     1     141.803  79.742 221.582 -0.44 -0.00    +0.006 C  
DOCKED: ENDBRANCH  19  20
DOCKED: ENDBRANCH  18  19
DOCKED: ENDBRANCH  17  18
DOCKED: BRANCH  17  23
DOCKED: ATOM     23  O   UNL     1     139.123  75.529 222.750 -0.28 +0.11    -0.529 OA 
DOCKED: ATOM     24  H   UNL     1     139.038  74.583 223.105 -0.48 -0.12    +0.290 HD 
DOCKED: ENDBRANCH  17  23
DOCKED: ENDBRANCH   1  17
DOCKED: TORSDOF 9
DOCKED: TER
DOCKED: ENDMDL
________________________________________________________________________________


    FINAL DOCKED STATE:
    ________________________


Run:   7 / 20
Time taken for this run:   0.039s

DOCKED: MODEL        7
DOCKED: USER    Run = 7
DOCKED: USER
DOCKED: USER    Estimated Free Energy of Binding    =  -5.97 kcal/mol  [=(1)+(2)+(3)-(4)]
DOCKED: USER
DOCKED: USER    (1) Final Intermolecular Energy     =  -8.65 kcal/mol
DOCKED: USER        vdW + Hbond + desolv Energy     =  -8.94 kcal/mol
DOCKED: USER        Electrostatic Energy            =  +0.29 kcal/mol
DOCKED: USER        Moving Ligand-Fixed Receptor    =  -8.65 kcal/mol
DOCKED: USER        Moving Ligand-Moving Receptor   =  +0.00 kcal/mol
DOCKED: USER    (2) Final Total Internal Energy     =  -1.82 kcal/mol
DOCKED: USER    (3) Torsional Free Energy           =  +2.68 kcal/mol
DOCKED: USER    (4) Unbound System's Energy         =  -1.82 kcal/mol
DOCKED: USER
DOCKED: USER
DOCKED: REMARK SMILES CC(C)C[N-]/C(O)=C\N=C(/O)c1ccc2cc(Cl)ccc2n1
DOCKED: REMARK SMILES IDX 8 1 9 2 10 3 11 4 12 6 22 7 13 8 21 9 14 10 20 11 15 12
DOCKED: REMARK SMILES IDX 19 13 16 14 17 15 18 16 6 17 5 18 4 19 2 20 1 21 3 22 7 23
DOCKED: REMARK H PARENT 11 5 7 24
DOCKED: USER                              x       y       z     vdW  Elec       q    Type
DOCKED: USER                           _______ _______ _______ _____ _____    ______ ____
DOCKED: ROOT
DOCKED: ATOM      1  C   UNL     1     141.155  73.861 221.472 -0.21 -0.02    +0.136 C  
DOCKED: ENDROOT
DOCKED: BRANCH   1   2
DOCKED: ATOM      2  N   UNL     1     140.300  72.711 221.490 -0.19 +0.03    -0.218 NA 
DOCKED: BRANCH   2   3
DOCKED: ATOM      3  C   UNL     1     139.336  72.457 222.329 -0.18 -0.05    +0.237 C  
DOCKED: BRANCH   3   4
DOCKED: ATOM      4  O   UNL     1     138.086  73.082 222.247 -0.06 +0.17    -0.492 OA 
DOCKED: ATOM      5  H   UNL     1     137.843  73.935 222.729 -0.47 -0.15    +0.295 HD 
DOCKED: ENDBRANCH   3   4
DOCKED: BRANCH   3   6
DOCKED: ATOM      6  C   UNL     1     139.573  71.472 223.404 -0.30 -0.03    +0.126 A  
DOCKED: ATOM      7  N   UNL     1     140.080  71.890 224.598 -0.21 +0.05    -0.243 NA 
DOCKED: ATOM      8  C   UNL     1     139.285  70.111 223.214 -0.24 -0.01    +0.035 A  
DOCKED: ATOM      9  C   UNL     1     140.320  71.028 225.623 -0.51 -0.01    +0.071 A  
DOCKED: ATOM     10  C   UNL     1     139.519  69.202 224.249 -0.29 -0.00    +0.013 A  
DOCKED: ATOM     11  C   UNL     1     140.842  71.502 226.831 -0.70 -0.01    +0.030 A  
DOCKED: ATOM     12  C   UNL     1     140.041  69.653 225.467 -0.45 -0.00    +0.002 A  
DOCKED: ATOM     13  C   UNL     1     141.086  70.614 227.884 -0.63 -0.00    +0.023 A  
DOCKED: ATOM     14  C   UNL     1     140.289  68.768 226.526 -0.56 -0.01    +0.030 A  
DOCKED: ATOM     15  C   UNL     1     140.812  69.250 227.733 -0.59 -0.01    +0.041 A  
DOCKED: ATOM     16  Cl  UNL     1     141.121  68.143 229.058 -0.49 +0.02    -0.084 Cl 
DOCKED: ENDBRANCH   3   6
DOCKED: ENDBRANCH   2   3
DOCKED: ENDBRANCH   1   2
DOCKED: BRANCH   1  17
DOCKED: ATOM     17  C   UNL     1     140.638  75.082 221.621 -0.32 -0.01    +0.029 C  
DOCKED: BRANCH  17  18
DOCKED: ATOM     18  N   UNL     1     141.245  76.200 220.964 +0.01 +0.27    -0.653 NA 
DOCKED: BRANCH  18  19
DOCKED: ATOM     19  C   UNL     1     140.768  77.574 221.085 -0.24 +0.05    -0.115 C  
DOCKED: BRANCH  19  20
DOCKED: ATOM     20  C   UNL     1     141.021  78.127 222.502 -0.45 +0.01    -0.035 C  
DOCKED: ATOM     21  C   UNL     1     142.159  79.156 222.519 -0.54 -0.00    +0.006 C  
DOCKED: ATOM     22  C   UNL     1     139.738  78.755 223.061 -0.38 -0.00    +0.006 C  
DOCKED: ENDBRANCH  19  20
DOCKED: ENDBRANCH  18  19
DOCKED: ENDBRANCH  17  18
DOCKED: BRANCH  17  23
DOCKED: ATOM     23  O   UNL     1     139.507  75.275 222.416 -0.47 +0.08    -0.529 OA 
DOCKED: ATOM     24  H   UNL     1     139.209  74.591 223.102 -0.48 -0.09    +0.290 HD 
DOCKED: ENDBRANCH  17  23
DOCKED: ENDBRANCH   1  17
DOCKED: TORSDOF 9
DOCKED: TER
DOCKED: ENDMDL
________________________________________________________________________________


    FINAL DOCKED STATE:
    ________________________


Run:   8 / 20
Time taken for this run:   0.039s

DOCKED: MODEL        8
DOCKED: USER    Run = 8
DOCKED: USER
DOCKED: USER    Estimated Free Energy of Binding    =  -6.13 kcal/mol  [=(1)+(2)+(3)-(4)]
DOCKED: USER
DOCKED: USER    (1) Final Intermolecular Energy     =  -8.81 kcal/mol
DOCKED: USER        vdW + Hbond + desolv Energy     =  -9.00 kcal/mol
DOCKED: USER        Electrostatic Energy            =  +0.19 kcal/mol
DOCKED: USER        Moving Ligand-Fixed Receptor    =  -8.81 kcal/mol
DOCKED: USER        Moving Ligand-Moving Receptor   =  +0.00 kcal/mol
DOCKED: USER    (2) Final Total Internal Energy     =  -1.97 kcal/mol
DOCKED: USER    (3) Torsional Free Energy           =  +2.68 kcal/mol
DOCKED: USER    (4) Unbound System's Energy         =  -1.97 kcal/mol
DOCKED: USER
DOCKED: USER
DOCKED: REMARK SMILES CC(C)C[N-]/C(O)=C\N=C(/O)c1ccc2cc(Cl)ccc2n1
DOCKED: REMARK SMILES IDX 8 1 9 2 10 3 11 4 12 6 22 7 13 8 21 9 14 10 20 11 15 12
DOCKED: REMARK SMILES IDX 19 13 16 14 17 15 18 16 6 17 5 18 4 19 2 20 1 21 3 22 7 23
DOCKED: REMARK H PARENT 11 5 7 24
DOCKED: USER                              x       y       z     vdW  Elec       q    Type
DOCKED: USER                           _______ _______ _______ _____ _____    ______ ____
DOCKED: ROOT
DOCKED: ATOM      1  C   UNL     1     140.721  75.113 221.537 -0.28 -0.03    +0.136 C  
DOCKED: ENDROOT
DOCKED: BRANCH   1   2
DOCKED: ATOM      2  N   UNL     1     140.761  73.753 221.989 -0.71 +0.00    -0.218 NA 
DOCKED: BRANCH   2   3
DOCKED: ATOM      3  C   UNL     1     139.753  72.941 222.144 -0.19 -0.04    +0.237 C  
DOCKED: BRANCH   3   4
DOCKED: ATOM      4  O   UNL     1     138.591  73.035 221.369 -0.04 +0.11    -0.492 OA 
DOCKED: ATOM      5  H   UNL     1     138.068  73.886 221.226 +0.06 -0.07    +0.295 HD 
DOCKED: ENDBRANCH   3   4
DOCKED: BRANCH   3   6
DOCKED: ATOM      6  C   UNL     1     139.843  71.887 223.173 -0.29 -0.02    +0.126 A  
DOCKED: ATOM      7  N   UNL     1     140.333  72.192 224.408 -0.07 +0.04    -0.243 NA 
DOCKED: ATOM      8  C   UNL     1     139.432  70.572 222.900 -0.24 -0.01    +0.035 A  
DOCKED: ATOM      9  C   UNL     1     140.441  71.262 225.394 -0.50 -0.01    +0.071 A  
DOCKED: ATOM     10  C   UNL     1     139.530  69.595 223.893 -0.27 -0.00    +0.013 A  
DOCKED: ATOM     11  C   UNL     1     140.951  71.622 226.646 -0.70 -0.00    +0.030 A  
DOCKED: ATOM     12  C   UNL     1     140.037  69.931 225.154 -0.43 -0.00    +0.002 A  
DOCKED: ATOM     13  C   UNL     1     141.059  70.664 227.659 -0.63 -0.00    +0.023 A  
DOCKED: ATOM     14  C   UNL     1     140.148  68.974 226.174 -0.51 -0.01    +0.030 A  
DOCKED: ATOM     15  C   UNL     1     140.660  69.343 227.425 -0.58 -0.01    +0.041 A  
DOCKED: ATOM     16  Cl  UNL     1     140.799  68.146 228.701 -0.65 +0.02    -0.084 Cl 
DOCKED: ENDBRANCH   3   6
DOCKED: ENDBRANCH   2   3
DOCKED: ENDBRANCH   1   2
DOCKED: BRANCH   1  17
DOCKED: ATOM     17  C   UNL     1     139.760  75.933 221.968 -0.34 -0.01    +0.029 C  
DOCKED: BRANCH  17  18
DOCKED: ATOM     18  N   UNL     1     139.872  77.343 221.743 +0.02 +0.17    -0.653 NA 
DOCKED: BRANCH  18  19
DOCKED: ATOM     19  C   UNL     1     141.136  78.073 221.760 -0.33 +0.05    -0.115 C  
DOCKED: BRANCH  19  20
DOCKED: ATOM     20  C   UNL     1     141.390  78.713 223.139 -0.55 +0.01    -0.035 C  
DOCKED: ATOM     21  C   UNL     1     142.542  79.725 223.095 -0.64 -0.00    +0.006 C  
DOCKED: ATOM     22  C   UNL     1     140.114  79.392 223.650 -0.46 -0.00    +0.006 C  
DOCKED: ENDBRANCH  19  20
DOCKED: ENDBRANCH  18  19
DOCKED: ENDBRANCH  17  18
DOCKED: BRANCH  17  23
DOCKED: ATOM     23  O   UNL     1     138.647  75.422 222.638 -0.16 +0.15    -0.529 OA 
DOCKED: ATOM     24  H   UNL     1     138.624  74.475 222.998 -0.49 -0.17    +0.290 HD 
DOCKED: ENDBRANCH  17  23
DOCKED: ENDBRANCH   1  17
DOCKED: TORSDOF 9
DOCKED: TER
DOCKED: ENDMDL
________________________________________________________________________________


    FINAL DOCKED STATE:
    ________________________


Run:   9 / 20
Time taken for this run:   0.039s

DOCKED: MODEL        9
DOCKED: USER    Run = 9
DOCKED: USER
DOCKED: USER    Estimated Free Energy of Binding    =  -4.96 kcal/mol  [=(1)+(2)+(3)-(4)]
DOCKED: USER
DOCKED: USER    (1) Final Intermolecular Energy     =  -7.64 kcal/mol
DOCKED: USER        vdW + Hbond + desolv Energy     =  -8.06 kcal/mol
DOCKED: USER        Electrostatic Energy            =  +0.42 kcal/mol
DOCKED: USER        Moving Ligand-Fixed Receptor    =  -7.64 kcal/mol
DOCKED: USER        Moving Ligand-Moving Receptor   =  +0.00 kcal/mol
DOCKED: USER    (2) Final Total Internal Energy     =  -2.39 kcal/mol
DOCKED: USER    (3) Torsional Free Energy           =  +2.68 kcal/mol
DOCKED: USER    (4) Unbound System's Energy         =  -2.39 kcal/mol
DOCKED: USER
DOCKED: USER
DOCKED: REMARK SMILES CC(C)C[N-]/C(O)=C\N=C(/O)c1ccc2cc(Cl)ccc2n1
DOCKED: REMARK SMILES IDX 8 1 9 2 10 3 11 4 12 6 22 7 13 8 21 9 14 10 20 11 15 12
DOCKED: REMARK SMILES IDX 19 13 16 14 17 15 18 16 6 17 5 18 4 19 2 20 1 21 3 22 7 23
DOCKED: REMARK H PARENT 11 5 7 24
DOCKED: USER                              x       y       z     vdW  Elec       q    Type
DOCKED: USER                           _______ _______ _______ _____ _____    ______ ____
DOCKED: ROOT
DOCKED: ATOM      1  C   UNL     1     141.128  75.043 221.563 -0.26 -0.03    +0.136 C  
DOCKED: ENDROOT
DOCKED: BRANCH   1   2
DOCKED: ATOM      2  N   UNL     1     140.158  74.081 222.000 -0.80 +0.02    -0.218 NA 
DOCKED: BRANCH   2   3
DOCKED: ATOM      3  C   UNL     1     140.128  72.808 221.723 -0.19 -0.03    +0.237 C  
DOCKED: BRANCH   3   4
DOCKED: ATOM      4  O   UNL     1     140.144  72.327 220.409 -0.01 +0.08    -0.492 OA 
DOCKED: ATOM      5  H   UNL     1     140.793  72.631 219.699 +0.06 -0.05    +0.295 HD 
DOCKED: ENDBRANCH   3   4
DOCKED: BRANCH   3   6
DOCKED: ATOM      6  C   UNL     1     140.075  71.842 222.838 -0.29 -0.02    +0.126 A  
DOCKED: ATOM      7  N   UNL     1     140.570  72.195 224.058 -0.15 +0.03    -0.243 NA 
DOCKED: ATOM      8  C   UNL     1     139.522  70.563 222.661 -0.22 -0.01    +0.035 A  
DOCKED: ATOM      9  C   UNL     1     140.549  71.346 225.121 -0.49 -0.01    +0.071 A  
DOCKED: ATOM     10  C   UNL     1     139.486  69.669 223.735 -0.27 -0.00    +0.013 A  
DOCKED: ATOM     11  C   UNL     1     141.069  71.752 226.354 -0.67 -0.00    +0.030 A  
DOCKED: ATOM     12  C   UNL     1     140.000  70.053 224.979 -0.42 -0.00    +0.002 A  
DOCKED: ATOM     13  C   UNL     1     141.045  70.877 227.445 -0.66 -0.00    +0.023 A  
DOCKED: ATOM     14  C   UNL     1     139.980  69.180 226.077 -0.48 -0.00    +0.030 A  
DOCKED: ATOM     15  C   UNL     1     140.503  69.595 227.309 -0.56 -0.01    +0.041 A  
DOCKED: ATOM     16  Cl  UNL     1     140.476  68.503 228.682 -0.69 +0.02    -0.084 Cl 
DOCKED: ENDBRANCH   3   6
DOCKED: ENDBRANCH   2   3
DOCKED: ENDBRANCH   1   2
DOCKED: BRANCH   1  17
DOCKED: ATOM     17  C   UNL     1     141.630  74.974 220.329 -0.25 -0.01    +0.029 C  
DOCKED: BRANCH  17  18
DOCKED: ATOM     18  N   UNL     1     142.974  75.399 220.079 -0.00 +0.34    -0.653 NA 
DOCKED: BRANCH  18  19
DOCKED: ATOM     19  C   UNL     1     144.051  74.501 219.675 -0.32 +0.04    -0.115 C  
DOCKED: BRANCH  19  20
DOCKED: ATOM     20  C   UNL     1     144.379  73.489 220.791 -0.43 +0.01    -0.035 C  
DOCKED: ATOM     21  C   UNL     1     143.798  72.101 220.493 -0.33 -0.00    +0.006 C  
DOCKED: ATOM     22  C   UNL     1     145.897  73.392 220.986 -0.70 -0.00    +0.006 C  
DOCKED: ENDBRANCH  19  20
DOCKED: ENDBRANCH  18  19
DOCKED: ENDBRANCH  17  18
DOCKED: BRANCH  17  23
DOCKED: ATOM     23  O   UNL     1     140.849  74.489 219.278 +0.02 +0.14    -0.529 OA 
DOCKED: ATOM     24  H   UNL     1     139.924  74.101 219.430 +0.05 -0.06    +0.290 HD 
DOCKED: ENDBRANCH  17  23
DOCKED: ENDBRANCH   1  17
DOCKED: TORSDOF 9
DOCKED: TER
DOCKED: ENDMDL
________________________________________________________________________________


    FINAL DOCKED STATE:
    ________________________


Run:   10 / 20
Time taken for this run:   0.039s

DOCKED: MODEL        10
DOCKED: USER    Run = 10
DOCKED: USER
DOCKED: USER    Estimated Free Energy of Binding    =  -5.36 kcal/mol  [=(1)+(2)+(3)-(4)]
DOCKED: USER
DOCKED: USER    (1) Final Intermolecular Energy     =  -8.05 kcal/mol
DOCKED: USER        vdW + Hbond + desolv Energy     =  -6.92 kcal/mol
DOCKED: USER        Electrostatic Energy            =  -1.12 kcal/mol
DOCKED: USER        Moving Ligand-Fixed Receptor    =  -8.05 kcal/mol
DOCKED: USER        Moving Ligand-Moving Receptor   =  +0.00 kcal/mol
DOCKED: USER    (2) Final Total Internal Energy     =  -1.97 kcal/mol
DOCKED: USER    (3) Torsional Free Energy           =  +2.68 kcal/mol
DOCKED: USER    (4) Unbound System's Energy         =  -1.97 kcal/mol
DOCKED: USER
DOCKED: USER
DOCKED: REMARK SMILES CC(C)C[N-]/C(O)=C\N=C(/O)c1ccc2cc(Cl)ccc2n1
DOCKED: REMARK SMILES IDX 8 1 9 2 10 3 11 4 12 6 22 7 13 8 21 9 14 10 20 11 15 12
DOCKED: REMARK SMILES IDX 19 13 16 14 17 15 18 16 6 17 5 18 4 19 2 20 1 21 3 22 7 23
DOCKED: REMARK H PARENT 11 5 7 24
DOCKED: USER                              x       y       z     vdW  Elec       q    Type
DOCKED: USER                           _______ _______ _______ _____ _____    ______ ____
DOCKED: ROOT
DOCKED: ATOM      1  C   UNL     1     145.427  72.713 220.716 -0.41 -0.01    +0.136 C  
DOCKED: ENDROOT
DOCKED: BRANCH   1   2
DOCKED: ATOM      2  N   UNL     1     144.782  73.992 220.774 -0.35 +0.06    -0.218 NA 
DOCKED: BRANCH   2   3
DOCKED: ATOM      3  C   UNL     1     143.838  74.437 219.992 -0.27 -0.09    +0.237 C  
DOCKED: BRANCH   3   4
DOCKED: ATOM      4  O   UNL     1     144.092  74.878 218.688 -0.04 +0.24    -0.492 OA 
DOCKED: ATOM      5  H   UNL     1     144.991  74.823 218.232 -0.39 -0.21    +0.295 HD 
DOCKED: ENDBRANCH   3   4
DOCKED: BRANCH   3   6
DOCKED: ATOM      6  C   UNL     1     142.454  74.474 220.503 -0.25 -0.04    +0.126 A  
DOCKED: ATOM      7  N   UNL     1     141.920  75.660 220.913 -0.14 +0.11    -0.243 NA 
DOCKED: ATOM      8  C   UNL     1     141.677  73.306 220.574 -0.22 -0.01    +0.035 A  
DOCKED: ATOM      9  C   UNL     1     140.651  75.755 221.394 -0.30 -0.02    +0.071 A  
DOCKED: ATOM     10  C   UNL     1     140.370  73.373 221.062 -0.22 -0.00    +0.013 A  
DOCKED: ATOM     11  C   UNL     1     140.146  76.993 221.803 -0.32 -0.01    +0.030 A  
DOCKED: ATOM     12  C   UNL     1     139.842  74.601 221.478 -0.28 -0.00    +0.002 A  
DOCKED: ATOM     13  C   UNL     1     138.841  77.088 222.296 -0.30 -0.00    +0.023 A  
DOCKED: ATOM     14  C   UNL     1     138.534  74.702 221.974 -0.22 -0.01    +0.030 A  
DOCKED: ATOM     15  C   UNL     1     138.036  75.947 222.381 -0.27 -0.01    +0.041 A  
DOCKED: ATOM     16  Cl  UNL     1     136.399  76.074 223.001 -0.31 +0.02    -0.084 Cl 
DOCKED: ENDBRANCH   3   6
DOCKED: ENDBRANCH   2   3
DOCKED: ENDBRANCH   1   2
DOCKED: BRANCH   1  17
DOCKED: ATOM     17  C   UNL     1     145.908  72.258 219.558 -0.28 +0.02    +0.029 C  
DOCKED: BRANCH  17  18
DOCKED: ATOM     18  N   UNL     1     146.001  70.847 219.329 -0.03 -0.51    -0.653 NA 
DOCKED: BRANCH  18  19
DOCKED: ATOM     19  C   UNL     1     144.896  70.026 218.845 -0.22 -0.03    -0.115 C  
DOCKED: BRANCH  19  20
DOCKED: ATOM     20  C   UNL     1     144.791  68.710 219.640 -0.31 -0.01    -0.035 C  
DOCKED: ATOM     21  C   UNL     1     143.513  67.934 219.296 -0.26 -0.00    +0.006 C  
DOCKED: ATOM     22  C   UNL     1     146.022  67.834 219.377 -0.52 +0.00    +0.006 C  
DOCKED: ENDBRANCH  19  20
DOCKED: ENDBRANCH  18  19
DOCKED: ENDBRANCH  17  18
DOCKED: BRANCH  17  23
DOCKED: ATOM     23  O   UNL     1     146.321  73.151 218.567 -0.58 -0.57    -0.529 OA 
DOCKED: ATOM     24  H   UNL     1     146.146  74.147 218.635 -0.41 -0.06    +0.290 HD 
DOCKED: ENDBRANCH  17  23
DOCKED: ENDBRANCH   1  17
DOCKED: TORSDOF 9
DOCKED: TER
DOCKED: ENDMDL
________________________________________________________________________________


    FINAL DOCKED STATE:
    ________________________


Run:   11 / 20
Time taken for this run:   0.039s

DOCKED: MODEL        11
DOCKED: USER    Run = 11
DOCKED: USER
DOCKED: USER    Estimated Free Energy of Binding    =  -5.17 kcal/mol  [=(1)+(2)+(3)-(4)]
DOCKED: USER
DOCKED: USER    (1) Final Intermolecular Energy     =  -7.86 kcal/mol
DOCKED: USER        vdW + Hbond + desolv Energy     =  -7.98 kcal/mol
DOCKED: USER        Electrostatic Energy            =  +0.12 kcal/mol
DOCKED: USER        Moving Ligand-Fixed Receptor    =  -7.86 kcal/mol
DOCKED: USER        Moving Ligand-Moving Receptor   =  +0.00 kcal/mol
DOCKED: USER    (2) Final Total Internal Energy     =  -2.14 kcal/mol
DOCKED: USER    (3) Torsional Free Energy           =  +2.68 kcal/mol
DOCKED: USER    (4) Unbound System's Energy         =  -2.14 kcal/mol
DOCKED: USER
DOCKED: USER
DOCKED: REMARK SMILES CC(C)C[N-]/C(O)=C\N=C(/O)c1ccc2cc(Cl)ccc2n1
DOCKED: REMARK SMILES IDX 8 1 9 2 10 3 11 4 12 6 22 7 13 8 21 9 14 10 20 11 15 12
DOCKED: REMARK SMILES IDX 19 13 16 14 17 15 18 16 6 17 5 18 4 19 2 20 1 21 3 22 7 23
DOCKED: REMARK H PARENT 11 5 7 24
DOCKED: USER                              x       y       z     vdW  Elec       q    Type
DOCKED: USER                           _______ _______ _______ _____ _____    ______ ____
DOCKED: ROOT
DOCKED: ATOM      1  C   UNL     1     140.674  72.259 223.097 -0.16 -0.01    +0.136 C  
DOCKED: ENDROOT
DOCKED: BRANCH   1   2
DOCKED: ATOM      2  N   UNL     1     140.549  73.224 222.045 -0.58 +0.01    -0.218 NA 
DOCKED: BRANCH   2   3
DOCKED: ATOM      3  C   UNL     1     139.683  74.194 221.961 -0.17 -0.04    +0.237 C  
DOCKED: BRANCH   3   4
DOCKED: ATOM      4  O   UNL     1     138.302  73.974 222.030 -0.09 +0.15    -0.492 OA 
DOCKED: ATOM      5  H   UNL     1     137.827  73.581 222.829 -0.45 -0.16    +0.295 HD 
DOCKED: ENDBRANCH   3   4
DOCKED: BRANCH   3   6
DOCKED: ATOM      6  C   UNL     1     140.179  75.574 221.788 -0.29 -0.02    +0.126 A  
DOCKED: ATOM      7  N   UNL     1     139.645  76.579 222.538 -0.23 +0.05    -0.243 NA 
DOCKED: ATOM      8  C   UNL     1     141.192  75.868 220.861 -0.28 -0.01    +0.035 A  
DOCKED: ATOM      9  C   UNL     1     140.062  77.869 222.421 -0.34 -0.02    +0.071 A  
DOCKED: ATOM     10  C   UNL     1     141.641  77.183 220.719 -0.28 -0.01    +0.013 A  
DOCKED: ATOM     11  C   UNL     1     139.485  78.868 223.212 -0.34 -0.01    +0.030 A  
DOCKED: ATOM     12  C   UNL     1     141.079  78.200 221.499 -0.35 -0.00    +0.002 A  
DOCKED: ATOM     13  C   UNL     1     139.915  80.193 223.090 -0.38 -0.00    +0.023 A  
DOCKED: ATOM     14  C   UNL     1     141.506  79.531 221.382 -0.36 -0.01    +0.030 A  
DOCKED: ATOM     15  C   UNL     1     140.923  80.525 222.178 -0.36 -0.01    +0.041 A  
DOCKED: ATOM     16  Cl  UNL     1     141.458  82.190 222.031 -0.40 +0.01    -0.084 Cl 
DOCKED: ENDBRANCH   3   6
DOCKED: ENDBRANCH   2   3
DOCKED: ENDBRANCH   1   2
DOCKED: BRANCH   1  17
DOCKED: ATOM     17  C   UNL     1     139.613  71.544 223.478 -0.34 -0.01    +0.029 C  
DOCKED: BRANCH  17  18
DOCKED: ATOM     18  N   UNL     1     139.658  70.796 224.699 +0.00 +0.12    -0.653 NA 
DOCKED: BRANCH  18  19
DOCKED: ATOM     19  C   UNL     1     140.821  70.742 225.579 -0.50 +0.02    -0.115 C  
DOCKED: BRANCH  19  20
DOCKED: ATOM     20  C   UNL     1     140.424  71.011 227.043 -0.64 +0.01    -0.035 C  
DOCKED: ATOM     21  C   UNL     1     140.708  69.802 227.944 -0.64 -0.00    +0.006 C  
DOCKED: ATOM     22  C   UNL     1     141.163  72.246 227.573 -0.80 -0.00    +0.006 C  
DOCKED: ENDBRANCH  19  20
DOCKED: ENDBRANCH  18  19
DOCKED: ENDBRANCH  17  18
DOCKED: BRANCH  17  23
DOCKED: ATOM     23  O   UNL     1     138.460  71.521 222.692 -0.05 +0.13    -0.529 OA 
DOCKED: ATOM     24  H   UNL     1     138.345  72.129 221.889 +0.06 -0.07    +0.290 HD 
DOCKED: ENDBRANCH  17  23
DOCKED: ENDBRANCH   1  17
DOCKED: TORSDOF 9
DOCKED: TER
DOCKED: ENDMDL
________________________________________________________________________________


    FINAL DOCKED STATE:
    ________________________


Run:   12 / 20
Time taken for this run:   0.039s

DOCKED: MODEL        12
DOCKED: USER    Run = 12
DOCKED: USER
DOCKED: USER    Estimated Free Energy of Binding    =  -5.93 kcal/mol  [=(1)+(2)+(3)-(4)]
DOCKED: USER
DOCKED: USER    (1) Final Intermolecular Energy     =  -8.61 kcal/mol
DOCKED: USER        vdW + Hbond + desolv Energy     =  -8.87 kcal/mol
DOCKED: USER        Electrostatic Energy            =  +0.26 kcal/mol
DOCKED: USER        Moving Ligand-Fixed Receptor    =  -8.61 kcal/mol
DOCKED: USER        Moving Ligand-Moving Receptor   =  +0.00 kcal/mol
DOCKED: USER    (2) Final Total Internal Energy     =  -1.85 kcal/mol
DOCKED: USER    (3) Torsional Free Energy           =  +2.68 kcal/mol
DOCKED: USER    (4) Unbound System's Energy         =  -1.85 kcal/mol
DOCKED: USER
DOCKED: USER
DOCKED: REMARK SMILES CC(C)C[N-]/C(O)=C\N=C(/O)c1ccc2cc(Cl)ccc2n1
DOCKED: REMARK SMILES IDX 8 1 9 2 10 3 11 4 12 6 22 7 13 8 21 9 14 10 20 11 15 12
DOCKED: REMARK SMILES IDX 19 13 16 14 17 15 18 16 6 17 5 18 4 19 2 20 1 21 3 22 7 23
DOCKED: REMARK H PARENT 11 5 7 24
DOCKED: USER                              x       y       z     vdW  Elec       q    Type
DOCKED: USER                           _______ _______ _______ _____ _____    ______ ____
DOCKED: ROOT
DOCKED: ATOM      1  C   UNL     1     140.492  73.991 220.915 -0.20 -0.02    +0.136 C  
DOCKED: ENDROOT
DOCKED: BRANCH   1   2
DOCKED: ATOM      2  N   UNL     1     140.154  72.717 221.478 -0.18 +0.03    -0.218 NA 
DOCKED: BRANCH   2   3
DOCKED: ATOM      3  C   UNL     1     139.215  72.459 222.344 -0.17 -0.06    +0.237 C  
DOCKED: BRANCH   3   4
DOCKED: ATOM      4  O   UNL     1     137.963  73.084 222.300 -0.05 +0.17    -0.492 OA 
DOCKED: ATOM      5  H   UNL     1     137.744  73.954 222.761 -0.46 -0.16    +0.295 HD 
DOCKED: ENDBRANCH   3   4
DOCKED: BRANCH   3   6
DOCKED: ATOM      6  C   UNL     1     139.485  71.472 223.409 -0.29 -0.03    +0.126 A  
DOCKED: ATOM      7  N   UNL     1     140.010  71.890 224.595 -0.19 +0.05    -0.243 NA 
DOCKED: ATOM      8  C   UNL     1     139.208  70.108 223.218 -0.24 -0.01    +0.035 A  
DOCKED: ATOM      9  C   UNL     1     140.280  71.026 225.611 -0.51 -0.01    +0.071 A  
DOCKED: ATOM     10  C   UNL     1     139.474  69.198 224.243 -0.29 -0.00    +0.013 A  
DOCKED: ATOM     11  C   UNL     1     140.819  71.500 226.811 -0.70 -0.01    +0.030 A  
DOCKED: ATOM     12  C   UNL     1     140.014  69.648 225.453 -0.45 -0.00    +0.002 A  
DOCKED: ATOM     13  C   UNL     1     141.095  70.610 227.854 -0.62 -0.00    +0.023 A  
DOCKED: ATOM     14  C   UNL     1     140.293  68.761 226.503 -0.56 -0.01    +0.030 A  
DOCKED: ATOM     15  C   UNL     1     140.833  69.244 227.702 -0.58 -0.01    +0.041 A  
DOCKED: ATOM     16  Cl  UNL     1     141.181  68.134 229.015 -0.51 +0.02    -0.084 Cl 
DOCKED: ENDBRANCH   3   6
DOCKED: ENDBRANCH   2   3
DOCKED: ENDBRANCH   1   2
DOCKED: BRANCH   1  17
DOCKED: ATOM     17  C   UNL     1     140.464  75.087 221.676 -0.30 -0.00    +0.029 C  
DOCKED: BRANCH  17  18
DOCKED: ATOM     18  N   UNL     1     141.392  76.150 221.431 +0.02 +0.29    -0.653 NA 
DOCKED: BRANCH  18  19
DOCKED: ATOM     19  C   UNL     1     141.016  77.558 221.353 -0.29 +0.05    -0.115 C  
DOCKED: BRANCH  19  20
DOCKED: ATOM     20  C   UNL     1     141.051  78.221 222.745 -0.48 +0.01    -0.035 C  
DOCKED: ATOM     21  C   UNL     1     142.153  79.284 222.843 -0.59 -0.00    +0.006 C  
DOCKED: ATOM     22  C   UNL     1     139.688  78.846 223.067 -0.38 -0.00    +0.006 C  
DOCKED: ENDBRANCH  19  20
DOCKED: ENDBRANCH  18  19
DOCKED: ENDBRANCH  17  18
DOCKED: BRANCH  17  23
DOCKED: ATOM     23  O   UNL     1     139.535  75.202 222.712 -0.41 +0.06    -0.529 OA 
DOCKED: ATOM     24  H   UNL     1     139.242  74.402 223.262 -0.44 -0.11    +0.290 HD 
DOCKED: ENDBRANCH  17  23
DOCKED: ENDBRANCH   1  17
DOCKED: TORSDOF 9
DOCKED: TER
DOCKED: ENDMDL
________________________________________________________________________________


    FINAL DOCKED STATE:
    ________________________


Run:   13 / 20
Time taken for this run:   0.039s

DOCKED: MODEL        13
DOCKED: USER    Run = 13
DOCKED: USER
DOCKED: USER    Estimated Free Energy of Binding    =  -6.19 kcal/mol  [=(1)+(2)+(3)-(4)]
DOCKED: USER
DOCKED: USER    (1) Final Intermolecular Energy     =  -8.88 kcal/mol
DOCKED: USER        vdW + Hbond + desolv Energy     =  -9.08 kcal/mol
DOCKED: USER        Electrostatic Energy            =  +0.20 kcal/mol
DOCKED: USER        Moving Ligand-Fixed Receptor    =  -8.88 kcal/mol
DOCKED: USER        Moving Ligand-Moving Receptor   =  +0.00 kcal/mol
DOCKED: USER    (2) Final Total Internal Energy     =  -1.90 kcal/mol
DOCKED: USER    (3) Torsional Free Energy           =  +2.68 kcal/mol
DOCKED: USER    (4) Unbound System's Energy         =  -1.90 kcal/mol
DOCKED: USER
DOCKED: USER
DOCKED: REMARK SMILES CC(C)C[N-]/C(O)=C\N=C(/O)c1ccc2cc(Cl)ccc2n1
DOCKED: REMARK SMILES IDX 8 1 9 2 10 3 11 4 12 6 22 7 13 8 21 9 14 10 20 11 15 12
DOCKED: REMARK SMILES IDX 19 13 16 14 17 15 18 16 6 17 5 18 4 19 2 20 1 21 3 22 7 23
DOCKED: REMARK H PARENT 11 5 7 24
DOCKED: USER                              x       y       z     vdW  Elec       q    Type
DOCKED: USER                           _______ _______ _______ _____ _____    ______ ____
DOCKED: ROOT
DOCKED: ATOM      1  C   UNL     1     140.924  75.097 221.537 -0.28 -0.03    +0.136 C  
DOCKED: ENDROOT
DOCKED: BRANCH   1   2
DOCKED: ATOM      2  N   UNL     1     140.895  73.732 221.972 -0.66 +0.00    -0.218 NA 
DOCKED: BRANCH   2   3
DOCKED: ATOM      3  C   UNL     1     139.843  72.991 222.180 -0.19 -0.04    +0.237 C  
DOCKED: BRANCH   3   4
DOCKED: ATOM      4  O   UNL     1     138.651  73.167 221.468 -0.05 +0.11    -0.492 OA 
DOCKED: ATOM      5  H   UNL     1     138.137  74.035 221.420 +0.05 -0.07    +0.295 HD 
DOCKED: ENDBRANCH   3   4
DOCKED: BRANCH   3   6
DOCKED: ATOM      6  C   UNL     1     139.914  71.930 223.203 -0.29 -0.02    +0.126 A  
DOCKED: ATOM      7  N   UNL     1     140.397  72.223 224.444 -0.03 +0.04    -0.243 NA 
DOCKED: ATOM      8  C   UNL     1     139.493  70.620 222.919 -0.25 -0.01    +0.035 A  
DOCKED: ATOM      9  C   UNL     1     140.488  71.286 225.426 -0.51 -0.01    +0.071 A  
DOCKED: ATOM     10  C   UNL     1     139.572  69.636 223.907 -0.28 -0.00    +0.013 A  
DOCKED: ATOM     11  C   UNL     1     140.990  71.633 226.684 -0.70 -0.00    +0.030 A  
DOCKED: ATOM     12  C   UNL     1     140.072  69.960 225.174 -0.44 -0.00    +0.002 A  
DOCKED: ATOM     13  C   UNL     1     141.081  70.668 227.692 -0.63 -0.00    +0.023 A  
DOCKED: ATOM     14  C   UNL     1     140.166  68.997 226.189 -0.51 -0.01    +0.030 A  
DOCKED: ATOM     15  C   UNL     1     140.670  69.353 227.447 -0.58 -0.01    +0.041 A  
DOCKED: ATOM     16  Cl  UNL     1     140.787  68.147 228.716 -0.65 +0.02    -0.084 Cl 
DOCKED: ENDBRANCH   3   6
DOCKED: ENDBRANCH   2   3
DOCKED: ENDBRANCH   1   2
DOCKED: BRANCH   1  17
DOCKED: ATOM     17  C   UNL     1     140.105  75.993 222.090 -0.34 -0.01    +0.029 C  
DOCKED: BRANCH  17  18
DOCKED: ATOM     18  N   UNL     1     140.436  77.386 222.048 -0.01 +0.20    -0.653 NA 
DOCKED: BRANCH  18  19
DOCKED: ATOM     19  C   UNL     1     141.219  78.068 223.073 -0.39 +0.04    -0.115 C  
DOCKED: BRANCH  19  20
DOCKED: ATOM     20  C   UNL     1     141.292  79.583 222.801 -0.50 +0.01    -0.035 C  
DOCKED: ATOM     21  C   UNL     1     140.125  80.338 223.452 -0.46 -0.00    +0.006 C  
DOCKED: ATOM     22  C   UNL     1     142.627  80.147 223.303 -0.67 -0.00    +0.006 C  
DOCKED: ENDBRANCH  19  20
DOCKED: ENDBRANCH  18  19
DOCKED: ENDBRANCH  17  18
DOCKED: BRANCH  17  23
DOCKED: ATOM     23  O   UNL     1     138.925  75.579 222.711 -0.24 +0.13    -0.529 OA 
DOCKED: ATOM     24  H   UNL     1     138.799  74.630 223.047 -0.48 -0.15    +0.290 HD 
DOCKED: ENDBRANCH  17  23
DOCKED: ENDBRANCH   1  17
DOCKED: TORSDOF 9
DOCKED: TER
DOCKED: ENDMDL
________________________________________________________________________________


    FINAL DOCKED STATE:
    ________________________


Run:   14 / 20
Time taken for this run:   0.039s

DOCKED: MODEL        14
DOCKED: USER    Run = 14
DOCKED: USER
DOCKED: USER    Estimated Free Energy of Binding    =  -5.87 kcal/mol  [=(1)+(2)+(3)-(4)]
DOCKED: USER
DOCKED: USER    (1) Final Intermolecular Energy     =  -8.56 kcal/mol
DOCKED: USER        vdW + Hbond + desolv Energy     =  -8.74 kcal/mol
DOCKED: USER        Electrostatic Energy            =  +0.18 kcal/mol
DOCKED: USER        Moving Ligand-Fixed Receptor    =  -8.56 kcal/mol
DOCKED: USER        Moving Ligand-Moving Receptor   =  +0.00 kcal/mol
DOCKED: USER    (2) Final Total Internal Energy     =  -1.92 kcal/mol
DOCKED: USER    (3) Torsional Free Energy           =  +2.68 kcal/mol
DOCKED: USER    (4) Unbound System's Energy         =  -1.92 kcal/mol
DOCKED: USER
DOCKED: USER
DOCKED: REMARK SMILES CC(C)C[N-]/C(O)=C\N=C(/O)c1ccc2cc(Cl)ccc2n1
DOCKED: REMARK SMILES IDX 8 1 9 2 10 3 11 4 12 6 22 7 13 8 21 9 14 10 20 11 15 12
DOCKED: REMARK SMILES IDX 19 13 16 14 17 15 18 16 6 17 5 18 4 19 2 20 1 21 3 22 7 23
DOCKED: REMARK H PARENT 11 5 7 24
DOCKED: USER                              x       y       z     vdW  Elec       q    Type
DOCKED: USER                           _______ _______ _______ _____ _____    ______ ____
DOCKED: ROOT
DOCKED: ATOM      1  C   UNL     1     140.800  74.590 221.238 -0.25 -0.03    +0.136 C  
DOCKED: ENDROOT
DOCKED: BRANCH   1   2
DOCKED: ATOM      2  N   UNL     1     140.722  73.390 222.018 -0.65 +0.01    -0.218 NA 
DOCKED: BRANCH   2   3
DOCKED: ATOM      3  C   UNL     1     139.657  72.866 222.557 -0.06 -0.04    +0.237 C  
DOCKED: BRANCH   3   4
DOCKED: ATOM      4  O   UNL     1     138.363  73.262 222.199 -0.07 +0.16    -0.492 OA 
DOCKED: ATOM      5  H   UNL     1     137.844  73.995 222.660 -0.42 -0.14    +0.295 HD 
DOCKED: ENDBRANCH   3   4
DOCKED: BRANCH   3   6
DOCKED: ATOM      6  C   UNL     1     139.825  71.817 223.582 -0.28 -0.03    +0.126 A  
DOCKED: ATOM      7  N   UNL     1     140.323  72.147 224.808 +0.03 +0.05    -0.243 NA 
DOCKED: ATOM      8  C   UNL     1     139.481  70.481 223.314 -0.28 -0.01    +0.035 A  
DOCKED: ATOM      9  C   UNL     1     140.500  71.222 225.790 -0.54 -0.01    +0.071 A  
DOCKED: ATOM     10  C   UNL     1     139.651  69.510 224.303 -0.30 -0.00    +0.013 A  
DOCKED: ATOM     11  C   UNL     1     141.015  71.608 227.032 -0.74 -0.01    +0.030 A  
DOCKED: ATOM     12  C   UNL     1     140.164  69.871 225.554 -0.47 -0.00    +0.002 A  
DOCKED: ATOM     13  C   UNL     1     141.195  70.655 228.040 -0.56 -0.00    +0.023 A  
DOCKED: ATOM     14  C   UNL     1     140.348  68.921 226.569 -0.55 -0.01    +0.030 A  
DOCKED: ATOM     15  C   UNL     1     140.863  69.316 227.811 -0.58 -0.01    +0.041 A  
DOCKED: ATOM     16  Cl  UNL     1     141.093  68.126 229.081 -0.46 +0.02    -0.084 Cl 
DOCKED: ENDBRANCH   3   6
DOCKED: ENDBRANCH   2   3
DOCKED: ENDBRANCH   1   2
DOCKED: BRANCH   1  17
DOCKED: ATOM     17  C   UNL     1     140.070  75.655 221.575 -0.32 -0.01    +0.029 C  
DOCKED: BRANCH  17  18
DOCKED: ATOM     18  N   UNL     1     140.094  76.826 220.751 +0.05 +0.20    -0.653 NA 
DOCKED: BRANCH  18  19
DOCKED: ATOM     19  C   UNL     1     139.956  78.186 221.264 -0.18 +0.03    -0.115 C  
DOCKED: BRANCH  19  20
DOCKED: ATOM     20  C   UNL     1     140.756  78.373 222.567 -0.43 +0.01    -0.035 C  
DOCKED: ATOM     21  C   UNL     1     142.120  79.028 222.312 -0.49 -0.00    +0.006 C  
DOCKED: ATOM     22  C   UNL     1     139.950  79.211 223.567 -0.41 -0.00    +0.006 C  
DOCKED: ENDBRANCH  19  20
DOCKED: ENDBRANCH  18  19
DOCKED: ENDBRANCH  17  18
DOCKED: BRANCH  17  23
DOCKED: ATOM     23  O   UNL     1     139.284  75.634 222.728 -0.32 +0.10    -0.529 OA 
DOCKED: ATOM     24  H   UNL     1     139.205  74.807 223.310 -0.45 -0.10    +0.290 HD 
DOCKED: ENDBRANCH  17  23
DOCKED: ENDBRANCH   1  17
DOCKED: TORSDOF 9
DOCKED: TER
DOCKED: ENDMDL
________________________________________________________________________________


    FINAL DOCKED STATE:
    ________________________


Run:   15 / 20
Time taken for this run:   0.039s

DOCKED: MODEL        15
DOCKED: USER    Run = 15
DOCKED: USER
DOCKED: USER    Estimated Free Energy of Binding    =  -5.78 kcal/mol  [=(1)+(2)+(3)-(4)]
DOCKED: USER
DOCKED: USER    (1) Final Intermolecular Energy     =  -8.46 kcal/mol
DOCKED: USER        vdW + Hbond + desolv Energy     =  -8.67 kcal/mol
DOCKED: USER        Electrostatic Energy            =  +0.21 kcal/mol
DOCKED: USER        Moving Ligand-Fixed Receptor    =  -8.46 kcal/mol
DOCKED: USER        Moving Ligand-Moving Receptor   =  +0.00 kcal/mol
DOCKED: USER    (2) Final Total Internal Energy     =  -2.06 kcal/mol
DOCKED: USER    (3) Torsional Free Energy           =  +2.68 kcal/mol
DOCKED: USER    (4) Unbound System's Energy         =  -2.06 kcal/mol
DOCKED: USER
DOCKED: USER
DOCKED: REMARK SMILES CC(C)C[N-]/C(O)=C\N=C(/O)c1ccc2cc(Cl)ccc2n1
DOCKED: REMARK SMILES IDX 8 1 9 2 10 3 11 4 12 6 22 7 13 8 21 9 14 10 20 11 15 12
DOCKED: REMARK SMILES IDX 19 13 16 14 17 15 18 16 6 17 5 18 4 19 2 20 1 21 3 22 7 23
DOCKED: REMARK H PARENT 11 5 7 24
DOCKED: USER                              x       y       z     vdW  Elec       q    Type
DOCKED: USER                           _______ _______ _______ _____ _____    ______ ____
DOCKED: ROOT
DOCKED: ATOM      1  C   UNL     1     140.707  75.004 221.349 -0.27 -0.03    +0.136 C  
DOCKED: ENDROOT
DOCKED: BRANCH   1   2
DOCKED: ATOM      2  N   UNL     1     140.715  73.726 221.998 -0.72 +0.00    -0.218 NA 
DOCKED: BRANCH   2   3
DOCKED: ATOM      3  C   UNL     1     139.696  72.940 222.209 -0.18 -0.04    +0.237 C  
DOCKED: BRANCH   3   4
DOCKED: ATOM      4  O   UNL     1     138.496  73.062 221.499 -0.05 +0.12    -0.492 OA 
DOCKED: ATOM      5  H   UNL     1     138.021  73.936 221.329 +0.05 -0.07    +0.295 HD 
DOCKED: ENDBRANCH   3   4
DOCKED: BRANCH   3   6
DOCKED: ATOM      6  C   UNL     1     139.816  71.885 223.234 -0.29 -0.02    +0.126 A  
DOCKED: ATOM      7  N   UNL     1     140.310  72.196 224.466 -0.04 +0.04    -0.243 NA 
DOCKED: ATOM      8  C   UNL     1     139.429  70.563 222.960 -0.25 -0.01    +0.035 A  
DOCKED: ATOM      9  C   UNL     1     140.444  71.265 225.449 -0.51 -0.01    +0.071 A  
DOCKED: ATOM     10  C   UNL     1     139.553  69.585 223.950 -0.28 -0.00    +0.013 A  
DOCKED: ATOM     11  C   UNL     1     140.957  71.631 226.698 -0.70 -0.00    +0.030 A  
DOCKED: ATOM     12  C   UNL     1     140.064  69.927 225.208 -0.44 -0.00    +0.002 A  
DOCKED: ATOM     13  C   UNL     1     141.092  70.673 227.707 -0.62 -0.00    +0.023 A  
DOCKED: ATOM     14  C   UNL     1     140.203  68.970 226.224 -0.52 -0.01    +0.030 A  
DOCKED: ATOM     15  C   UNL     1     140.717  69.345 227.472 -0.58 -0.01    +0.041 A  
DOCKED: ATOM     16  Cl  UNL     1     140.890  68.148 228.743 -0.65 +0.02    -0.084 Cl 
DOCKED: ENDBRANCH   3   6
DOCKED: ENDBRANCH   2   3
DOCKED: ENDBRANCH   1   2
DOCKED: BRANCH   1  17
DOCKED: ATOM     17  C   UNL     1     139.809  75.927 221.700 -0.32 -0.01    +0.029 C  
DOCKED: BRANCH  17  18
DOCKED: ATOM     18  N   UNL     1     139.946  77.272 221.227 +0.04 +0.19    -0.653 NA 
DOCKED: BRANCH  18  19
DOCKED: ATOM     19  C   UNL     1     141.113  78.111 221.484 -0.30 +0.05    -0.115 C  
DOCKED: BRANCH  19  20
DOCKED: ATOM     20  C   UNL     1     140.860  79.068 222.665 -0.44 +0.01    -0.035 C  
DOCKED: ATOM     21  C   UNL     1     139.396  79.036 223.123 -0.37 -0.00    +0.006 C  
DOCKED: ATOM     22  C   UNL     1     141.784  78.717 223.837 -0.60 -0.00    +0.006 C  
DOCKED: ENDBRANCH  19  20
DOCKED: ENDBRANCH  18  19
DOCKED: ENDBRANCH  17  18
DOCKED: BRANCH  17  23
DOCKED: ATOM     23  O   UNL     1     138.737  75.588 222.527 -0.18 +0.13    -0.529 OA 
DOCKED: ATOM     24  H   UNL     1     138.651  74.668 222.946 -0.47 -0.14    +0.290 HD 
DOCKED: ENDBRANCH  17  23
DOCKED: ENDBRANCH   1  17
DOCKED: TORSDOF 9
DOCKED: TER
DOCKED: ENDMDL
________________________________________________________________________________


    FINAL DOCKED STATE:
    ________________________


Run:   16 / 20
Time taken for this run:   0.039s

DOCKED: MODEL        16
DOCKED: USER    Run = 16
DOCKED: USER
DOCKED: USER    Estimated Free Energy of Binding    =  -6.18 kcal/mol  [=(1)+(2)+(3)-(4)]
DOCKED: USER
DOCKED: USER    (1) Final Intermolecular Energy     =  -8.86 kcal/mol
DOCKED: USER        vdW + Hbond + desolv Energy     =  -9.05 kcal/mol
DOCKED: USER        Electrostatic Energy            =  +0.19 kcal/mol
DOCKED: USER        Moving Ligand-Fixed Receptor    =  -8.86 kcal/mol
DOCKED: USER        Moving Ligand-Moving Receptor   =  +0.00 kcal/mol
DOCKED: USER    (2) Final Total Internal Energy     =  -1.90 kcal/mol
DOCKED: USER    (3) Torsional Free Energy           =  +2.68 kcal/mol
DOCKED: USER    (4) Unbound System's Energy         =  -1.90 kcal/mol
DOCKED: USER
DOCKED: USER
DOCKED: REMARK SMILES CC(C)C[N-]/C(O)=C\N=C(/O)c1ccc2cc(Cl)ccc2n1
DOCKED: REMARK SMILES IDX 8 1 9 2 10 3 11 4 12 6 22 7 13 8 21 9 14 10 20 11 15 12
DOCKED: REMARK SMILES IDX 19 13 16 14 17 15 18 16 6 17 5 18 4 19 2 20 1 21 3 22 7 23
DOCKED: REMARK H PARENT 11 5 7 24
DOCKED: USER                              x       y       z     vdW  Elec       q    Type
DOCKED: USER                           _______ _______ _______ _____ _____    ______ ____
DOCKED: ROOT
DOCKED: ATOM      1  C   UNL     1     140.589  75.154 221.583 -0.29 -0.03    +0.136 C  
DOCKED: ENDROOT
DOCKED: BRANCH   1   2
DOCKED: ATOM      2  N   UNL     1     140.688  73.790 222.015 -0.73 +0.00    -0.218 NA 
DOCKED: BRANCH   2   3
DOCKED: ATOM      3  C   UNL     1     139.722  72.922 222.117 -0.19 -0.04    +0.237 C  
DOCKED: BRANCH   3   4
DOCKED: ATOM      4  O   UNL     1     138.604  72.942 221.276 -0.03 +0.11    -0.492 OA 
DOCKED: ATOM      5  H   UNL     1     138.025  73.754 221.117 +0.06 -0.07    +0.295 HD 
DOCKED: ENDBRANCH   3   4
DOCKED: BRANCH   3   6
DOCKED: ATOM      6  C   UNL     1     139.814  71.879 223.159 -0.29 -0.02    +0.126 A  
DOCKED: ATOM      7  N   UNL     1     140.326  72.194 224.382 -0.08 +0.04    -0.243 NA 
DOCKED: ATOM      8  C   UNL     1     139.381  70.566 222.909 -0.24 -0.01    +0.035 A  
DOCKED: ATOM      9  C   UNL     1     140.436  71.275 225.379 -0.50 -0.01    +0.071 A  
DOCKED: ATOM     10  C   UNL     1     139.480  69.601 223.914 -0.28 -0.00    +0.013 A  
DOCKED: ATOM     11  C   UNL     1     140.969  71.644 226.618 -0.70 -0.00    +0.030 A  
DOCKED: ATOM     12  C   UNL     1     140.010  69.947 225.162 -0.43 -0.00    +0.002 A  
DOCKED: ATOM     13  C   UNL     1     141.080  70.698 227.642 -0.63 -0.00    +0.023 A  
DOCKED: ATOM     14  C   UNL     1     140.125  69.002 226.193 -0.51 -0.01    +0.030 A  
DOCKED: ATOM     15  C   UNL     1     140.659  69.380 227.431 -0.58 -0.01    +0.041 A  
DOCKED: ATOM     16  Cl  UNL     1     140.802  68.198 228.720 -0.66 +0.02    -0.084 Cl 
DOCKED: ENDBRANCH   3   6
DOCKED: ENDBRANCH   2   3
DOCKED: ENDBRANCH   1   2
DOCKED: BRANCH   1  17
DOCKED: ATOM     17  C   UNL     1     139.636  75.945 222.079 -0.33 -0.01    +0.029 C  
DOCKED: BRANCH  17  18
DOCKED: ATOM     18  N   UNL     1     139.871  77.352 222.206 -0.01 +0.16    -0.653 NA 
DOCKED: BRANCH  18  19
DOCKED: ATOM     19  C   UNL     1     141.198  77.960 222.205 -0.35 +0.05    -0.115 C  
DOCKED: BRANCH  19  20
DOCKED: ATOM     20  C   UNL     1     141.379  78.904 223.410 -0.57 +0.01    -0.035 C  
DOCKED: ATOM     21  C   UNL     1     142.507  79.918 223.177 -0.65 -0.00    +0.006 C  
DOCKED: ATOM     22  C   UNL     1     140.066  79.639 223.706 -0.45 -0.00    +0.006 C  
DOCKED: ENDBRANCH  19  20
DOCKED: ENDBRANCH  18  19
DOCKED: ENDBRANCH  17  18
DOCKED: BRANCH  17  23
DOCKED: ATOM     23  O   UNL     1     138.411  75.407 222.477 -0.12 +0.15    -0.529 OA 
DOCKED: ATOM     24  H   UNL     1     138.325  74.453 222.808 -0.49 -0.15    +0.290 HD 
DOCKED: ENDBRANCH  17  23
DOCKED: ENDBRANCH   1  17
DOCKED: TORSDOF 9
DOCKED: TER
DOCKED: ENDMDL
________________________________________________________________________________


    FINAL DOCKED STATE:
    ________________________


Run:   17 / 20
Time taken for this run:   0.039s

DOCKED: MODEL        17
DOCKED: USER    Run = 17
DOCKED: USER
DOCKED: USER    Estimated Free Energy of Binding    =  -5.66 kcal/mol  [=(1)+(2)+(3)-(4)]
DOCKED: USER
DOCKED: USER    (1) Final Intermolecular Energy     =  -8.35 kcal/mol
DOCKED: USER        vdW + Hbond + desolv Energy     =  -7.10 kcal/mol
DOCKED: USER        Electrostatic Energy            =  -1.25 kcal/mol
DOCKED: USER        Moving Ligand-Fixed Receptor    =  -8.35 kcal/mol
DOCKED: USER        Moving Ligand-Moving Receptor   =  +0.00 kcal/mol
DOCKED: USER    (2) Final Total Internal Energy     =  -2.00 kcal/mol
DOCKED: USER    (3) Torsional Free Energy           =  +2.68 kcal/mol
DOCKED: USER    (4) Unbound System's Energy         =  -2.00 kcal/mol
DOCKED: USER
DOCKED: USER
DOCKED: REMARK SMILES CC(C)C[N-]/C(O)=C\N=C(/O)c1ccc2cc(Cl)ccc2n1
DOCKED: REMARK SMILES IDX 8 1 9 2 10 3 11 4 12 6 22 7 13 8 21 9 14 10 20 11 15 12
DOCKED: REMARK SMILES IDX 19 13 16 14 17 15 18 16 6 17 5 18 4 19 2 20 1 21 3 22 7 23
DOCKED: REMARK H PARENT 11 5 7 24
DOCKED: USER                              x       y       z     vdW  Elec       q    Type
DOCKED: USER                           _______ _______ _______ _____ _____    ______ ____
DOCKED: ROOT
DOCKED: ATOM      1  C   UNL     1     144.527  72.152 219.705 -0.26 +0.00    +0.136 C  
DOCKED: ENDROOT
DOCKED: BRANCH   1   2
DOCKED: ATOM      2  N   UNL     1     144.121  73.409 220.263 -0.24 +0.04    -0.218 NA 
DOCKED: BRANCH   2   3
DOCKED: ATOM      3  C   UNL     1     143.627  74.433 219.625 -0.23 -0.09    +0.237 C  
DOCKED: BRANCH   3   4
DOCKED: ATOM      4  O   UNL     1     144.004  74.753 218.316 -0.05 +0.21    -0.492 OA 
DOCKED: ATOM      5  H   UNL     1     144.960  74.825 217.999 -0.42 -0.19    +0.295 HD 
DOCKED: ENDBRANCH   3   4
DOCKED: BRANCH   3   6
DOCKED: ATOM      6  C   UNL     1     142.635  75.284 220.312 -0.24 -0.06    +0.126 A  
DOCKED: ATOM      7  N   UNL     1     142.654  76.633 220.115 -0.19 +0.17    -0.243 NA 
DOCKED: ATOM      8  C   UNL     1     141.670  74.725 221.167 -0.28 -0.01    +0.035 A  
DOCKED: ATOM      9  C   UNL     1     141.766  77.465 220.722 -0.26 -0.04    +0.071 A  
DOCKED: ATOM     10  C   UNL     1     140.744  75.555 221.803 -0.35 -0.00    +0.013 A  
DOCKED: ATOM     11  C   UNL     1     141.824  78.843 220.490 -0.29 -0.02    +0.030 A  
DOCKED: ATOM     12  C   UNL     1     140.782  76.937 221.586 -0.36 -0.00    +0.002 A  
DOCKED: ATOM     13  C   UNL     1     140.909  79.697 221.114 -0.27 -0.01    +0.023 A  
DOCKED: ATOM     14  C   UNL     1     139.868  77.799 222.209 -0.33 -0.01    +0.030 A  
DOCKED: ATOM     15  C   UNL     1     139.933  79.178 221.972 -0.25 -0.01    +0.041 A  
DOCKED: ATOM     16  Cl  UNL     1     138.788  80.255 222.751 -0.35 +0.01    -0.084 Cl 
DOCKED: ENDBRANCH   3   6
DOCKED: ENDBRANCH   2   3
DOCKED: ENDBRANCH   1   2
DOCKED: BRANCH   1  17
DOCKED: ATOM     17  C   UNL     1     145.564  72.095 218.868 -0.22 +0.02    +0.029 C  
DOCKED: BRANCH  17  18
DOCKED: ATOM     18  N   UNL     1     145.917  70.852 218.252 -0.04 -0.61    -0.653 NA 
DOCKED: BRANCH  18  19
DOCKED: ATOM     19  C   UNL     1     146.349  69.670 218.992 -0.27 -0.08    -0.115 C  
DOCKED: BRANCH  19  20
DOCKED: ATOM     20  C   UNL     1     145.346  68.511 218.824 -0.36 -0.00    -0.035 C  
DOCKED: ATOM     21  C   UNL     1     145.955  67.165 219.236 -0.57 -0.00    +0.006 C  
DOCKED: ATOM     22  C   UNL     1     144.079  68.786 219.643 -0.30 +0.00    +0.006 C  
DOCKED: ENDBRANCH  19  20
DOCKED: ENDBRANCH  18  19
DOCKED: ENDBRANCH  17  18
DOCKED: BRANCH  17  23
DOCKED: ATOM     23  O   UNL     1     146.308  73.244 218.590 -0.59 -0.50    -0.529 OA 
DOCKED: ATOM     24  H   UNL     1     146.013  74.163 218.900 -0.39 -0.08    +0.290 HD 
DOCKED: ENDBRANCH  17  23
DOCKED: ENDBRANCH   1  17
DOCKED: TORSDOF 9
DOCKED: TER
DOCKED: ENDMDL
________________________________________________________________________________


    FINAL DOCKED STATE:
    ________________________


Run:   18 / 20
Time taken for this run:   0.039s

DOCKED: MODEL        18
DOCKED: USER    Run = 18
DOCKED: USER
DOCKED: USER    Estimated Free Energy of Binding    =  -5.66 kcal/mol  [=(1)+(2)+(3)-(4)]
DOCKED: USER
DOCKED: USER    (1) Final Intermolecular Energy     =  -8.35 kcal/mol
DOCKED: USER        vdW + Hbond + desolv Energy     =  -8.57 kcal/mol
DOCKED: USER        Electrostatic Energy            =  +0.22 kcal/mol
DOCKED: USER        Moving Ligand-Fixed Receptor    =  -8.35 kcal/mol
DOCKED: USER        Moving Ligand-Moving Receptor   =  +0.00 kcal/mol
DOCKED: USER    (2) Final Total Internal Energy     =  -1.53 kcal/mol
DOCKED: USER    (3) Torsional Free Energy           =  +2.68 kcal/mol
DOCKED: USER    (4) Unbound System's Energy         =  -1.53 kcal/mol
DOCKED: USER
DOCKED: USER
DOCKED: REMARK SMILES CC(C)C[N-]/C(O)=C\N=C(/O)c1ccc2cc(Cl)ccc2n1
DOCKED: REMARK SMILES IDX 8 1 9 2 10 3 11 4 12 6 22 7 13 8 21 9 14 10 20 11 15 12
DOCKED: REMARK SMILES IDX 19 13 16 14 17 15 18 16 6 17 5 18 4 19 2 20 1 21 3 22 7 23
DOCKED: REMARK H PARENT 11 5 7 24
DOCKED: USER                              x       y       z     vdW  Elec       q    Type
DOCKED: USER                           _______ _______ _______ _____ _____    ______ ____
DOCKED: ROOT
DOCKED: ATOM      1  C   UNL     1     140.237  75.249 221.138 -0.23 -0.03    +0.136 C  
DOCKED: ENDROOT
DOCKED: BRANCH   1   2
DOCKED: ATOM      2  N   UNL     1     140.101  74.146 222.043 -0.80 +0.01    -0.218 NA 
DOCKED: BRANCH   2   3
DOCKED: ATOM      3  C   UNL     1     140.236  72.879 221.770 -0.20 -0.03    +0.237 C  
DOCKED: BRANCH   3   4
DOCKED: ATOM      4  O   UNL     1     140.445  72.411 220.467 -0.02 +0.08    -0.492 OA 
DOCKED: ATOM      5  H   UNL     1     141.065  72.844 219.799 +0.07 -0.05    +0.295 HD 
DOCKED: ENDBRANCH   3   4
DOCKED: BRANCH   3   6
DOCKED: ATOM      6  C   UNL     1     140.165  71.904 222.876 -0.29 -0.02    +0.126 A  
DOCKED: ATOM      7  N   UNL     1     140.640  72.248 224.107 -0.09 +0.02    -0.243 NA 
DOCKED: ATOM      8  C   UNL     1     139.617  70.625 222.681 -0.23 -0.01    +0.035 A  
DOCKED: ATOM      9  C   UNL     1     140.603  71.391 225.163 -0.49 -0.01    +0.071 A  
DOCKED: ATOM     10  C   UNL     1     139.564  69.724 223.746 -0.27 -0.00    +0.013 A  
DOCKED: ATOM     11  C   UNL     1     141.102  71.788 226.408 -0.68 -0.00    +0.030 A  
DOCKED: ATOM     12  C   UNL     1     140.058  70.098 225.002 -0.43 -0.00    +0.002 A  
DOCKED: ATOM     13  C   UNL     1     141.061  70.905 227.491 -0.67 -0.00    +0.023 A  
DOCKED: ATOM     14  C   UNL     1     140.021  69.217 226.093 -0.48 -0.00    +0.030 A  
DOCKED: ATOM     15  C   UNL     1     140.523  69.623 227.336 -0.56 -0.01    +0.041 A  
DOCKED: ATOM     16  Cl  UNL     1     140.475  68.521 228.701 -0.69 +0.02    -0.084 Cl 
DOCKED: ENDBRANCH   3   6
DOCKED: ENDBRANCH   2   3
DOCKED: ENDBRANCH   1   2
DOCKED: BRANCH   1  17
DOCKED: ATOM     17  C   UNL     1     141.434  75.559 220.637 -0.28 -0.01    +0.029 C  
DOCKED: BRANCH  17  18
DOCKED: ATOM     18  N   UNL     1     142.288  74.525 220.136 +0.03 +0.20    -0.653 NA 
DOCKED: BRANCH  18  19
DOCKED: ATOM     19  C   UNL     1     143.739  74.649 220.025 -0.35 +0.05    -0.115 C  
DOCKED: BRANCH  19  20
DOCKED: ATOM     20  C   UNL     1     144.454  73.558 220.846 -0.44 +0.01    -0.035 C  
DOCKED: ATOM     21  C   UNL     1     144.061  72.148 220.387 -0.34 -0.00    +0.006 C  
DOCKED: ATOM     22  C   UNL     1     145.974  73.737 220.751 -0.68 -0.00    +0.006 C  
DOCKED: ENDBRANCH  19  20
DOCKED: ENDBRANCH  18  19
DOCKED: ENDBRANCH  17  18
DOCKED: BRANCH  17  23
DOCKED: ATOM     23  O   UNL     1     141.858  76.889 220.599 -0.07 +0.31    -0.529 OA 
DOCKED: ATOM     24  H   UNL     1     142.650  77.216 221.141 -0.37 -0.31    +0.290 HD 
DOCKED: ENDBRANCH  17  23
DOCKED: ENDBRANCH   1  17
DOCKED: TORSDOF 9
DOCKED: TER
DOCKED: ENDMDL
________________________________________________________________________________


    FINAL DOCKED STATE:
    ________________________


Run:   19 / 20
Time taken for this run:   0.039s

DOCKED: MODEL        19
DOCKED: USER    Run = 19
DOCKED: USER
DOCKED: USER    Estimated Free Energy of Binding    =  -5.67 kcal/mol  [=(1)+(2)+(3)-(4)]
DOCKED: USER
DOCKED: USER    (1) Final Intermolecular Energy     =  -8.36 kcal/mol
DOCKED: USER        vdW + Hbond + desolv Energy     =  -7.12 kcal/mol
DOCKED: USER        Electrostatic Energy            =  -1.24 kcal/mol
DOCKED: USER        Moving Ligand-Fixed Receptor    =  -8.36 kcal/mol
DOCKED: USER        Moving Ligand-Moving Receptor   =  +0.00 kcal/mol
DOCKED: USER    (2) Final Total Internal Energy     =  -1.99 kcal/mol
DOCKED: USER    (3) Torsional Free Energy           =  +2.68 kcal/mol
DOCKED: USER    (4) Unbound System's Energy         =  -1.99 kcal/mol
DOCKED: USER
DOCKED: USER
DOCKED: REMARK SMILES CC(C)C[N-]/C(O)=C\N=C(/O)c1ccc2cc(Cl)ccc2n1
DOCKED: REMARK SMILES IDX 8 1 9 2 10 3 11 4 12 6 22 7 13 8 21 9 14 10 20 11 15 12
DOCKED: REMARK SMILES IDX 19 13 16 14 17 15 18 16 6 17 5 18 4 19 2 20 1 21 3 22 7 23
DOCKED: REMARK H PARENT 11 5 7 24
DOCKED: USER                              x       y       z     vdW  Elec       q    Type
DOCKED: USER                           _______ _______ _______ _____ _____    ______ ____
DOCKED: ROOT
DOCKED: ATOM      1  C   UNL     1     144.539  72.145 219.671 -0.25 +0.00    +0.136 C  
DOCKED: ENDROOT
DOCKED: BRANCH   1   2
DOCKED: ATOM      2  N   UNL     1     144.152  73.401 220.241 -0.24 +0.04    -0.218 NA 
DOCKED: BRANCH   2   3
DOCKED: ATOM      3  C   UNL     1     143.635  74.424 219.621 -0.23 -0.08    +0.237 C  
DOCKED: BRANCH   3   4
DOCKED: ATOM      4  O   UNL     1     143.979  74.755 218.305 -0.05 +0.21    -0.492 OA 
DOCKED: ATOM      5  H   UNL     1     144.926  74.824 217.964 -0.42 -0.19    +0.295 HD 
DOCKED: ENDBRANCH   3   4
DOCKED: BRANCH   3   6
DOCKED: ATOM      6  C   UNL     1     142.651  75.263 220.335 -0.24 -0.06    +0.126 A  
DOCKED: ATOM      7  N   UNL     1     142.662  76.614 220.154 -0.16 +0.17    -0.243 NA 
DOCKED: ATOM      8  C   UNL     1     141.702  74.689 221.198 -0.27 -0.01    +0.035 A  
DOCKED: ATOM      9  C   UNL     1     141.781  77.435 220.786 -0.25 -0.04    +0.071 A  
DOCKED: ATOM     10  C   UNL     1     140.784  75.507 221.860 -0.34 -0.00    +0.013 A  
DOCKED: ATOM     11  C   UNL     1     141.830  78.816 220.571 -0.29 -0.02    +0.030 A  
DOCKED: ATOM     12  C   UNL     1     140.814  76.892 221.660 -0.36 -0.00    +0.002 A  
DOCKED: ATOM     13  C   UNL     1     140.922  79.659 221.221 -0.28 -0.01    +0.023 A  
DOCKED: ATOM     14  C   UNL     1     139.907  77.743 222.309 -0.35 -0.01    +0.030 A  
DOCKED: ATOM     15  C   UNL     1     139.963  79.125 222.088 -0.26 -0.01    +0.041 A  
DOCKED: ATOM     16  Cl  UNL     1     138.827  80.188 222.900 -0.38 +0.01    -0.084 Cl 
DOCKED: ENDBRANCH   3   6
DOCKED: ENDBRANCH   2   3
DOCKED: ENDBRANCH   1   2
DOCKED: BRANCH   1  17
DOCKED: ATOM     17  C   UNL     1     145.570  72.083 218.826 -0.21 +0.02    +0.029 C  
DOCKED: BRANCH  17  18
DOCKED: ATOM     18  N   UNL     1     145.938  70.829 218.239 -0.03 -0.61    -0.653 NA 
DOCKED: BRANCH  18  19
DOCKED: ATOM     19  C   UNL     1     146.329  69.653 219.009 -0.28 -0.08    -0.115 C  
DOCKED: BRANCH  19  20
DOCKED: ATOM     20  C   UNL     1     145.340  68.491 218.792 -0.36 -0.00    -0.035 C  
DOCKED: ATOM     21  C   UNL     1     145.995  67.128 219.049 -0.56 -0.00    +0.006 C  
DOCKED: ATOM     22  C   UNL     1     144.115  68.664 219.697 -0.31 +0.00    +0.006 C  
DOCKED: ENDBRANCH  19  20
DOCKED: ENDBRANCH  18  19
DOCKED: ENDBRANCH  17  18
DOCKED: BRANCH  17  23
DOCKED: ATOM     23  O   UNL     1     146.292  73.235 218.511 -0.58 -0.50    -0.529 OA 
DOCKED: ATOM     24  H   UNL     1     146.008  74.153 218.836 -0.40 -0.07    +0.290 HD 
DOCKED: ENDBRANCH  17  23
DOCKED: ENDBRANCH   1  17
DOCKED: TORSDOF 9
DOCKED: TER
DOCKED: ENDMDL
________________________________________________________________________________


    FINAL DOCKED STATE:
    ________________________


Run:   20 / 20
Time taken for this run:   0.039s

DOCKED: MODEL        20
DOCKED: USER    Run = 20
DOCKED: USER
DOCKED: USER    Estimated Free Energy of Binding    =  -5.78 kcal/mol  [=(1)+(2)+(3)-(4)]
DOCKED: USER
DOCKED: USER    (1) Final Intermolecular Energy     =  -8.46 kcal/mol
DOCKED: USER        vdW + Hbond + desolv Energy     =  -7.33 kcal/mol
DOCKED: USER        Electrostatic Energy            =  -1.13 kcal/mol
DOCKED: USER        Moving Ligand-Fixed Receptor    =  -8.46 kcal/mol
DOCKED: USER        Moving Ligand-Moving Receptor   =  +0.00 kcal/mol
DOCKED: USER    (2) Final Total Internal Energy     =  -1.70 kcal/mol
DOCKED: USER    (3) Torsional Free Energy           =  +2.68 kcal/mol
DOCKED: USER    (4) Unbound System's Energy         =  -1.70 kcal/mol
DOCKED: USER
DOCKED: USER
DOCKED: REMARK SMILES CC(C)C[N-]/C(O)=C\N=C(/O)c1ccc2cc(Cl)ccc2n1
DOCKED: REMARK SMILES IDX 8 1 9 2 10 3 11 4 12 6 22 7 13 8 21 9 14 10 20 11 15 12
DOCKED: REMARK SMILES IDX 19 13 16 14 17 15 18 16 6 17 5 18 4 19 2 20 1 21 3 22 7 23
DOCKED: REMARK H PARENT 11 5 7 24
DOCKED: USER                              x       y       z     vdW  Elec       q    Type
DOCKED: USER                           _______ _______ _______ _____ _____    ______ ____
DOCKED: ROOT
DOCKED: ATOM      1  C   UNL     1     144.584  72.615 220.152 -0.33 -0.01    +0.136 C  
DOCKED: ENDROOT
DOCKED: BRANCH   1   2
DOCKED: ATOM      2  N   UNL     1     143.433  73.290 219.627 -0.13 +0.04    -0.218 NA 
DOCKED: BRANCH   2   3
DOCKED: ATOM      3  C   UNL     1     143.320  74.558 219.350 -0.20 -0.09    +0.237 C  
DOCKED: BRANCH   3   4
DOCKED: ATOM      4  O   UNL     1     143.978  75.150 218.266 -0.03 +0.25    -0.492 OA 
DOCKED: ATOM      5  H   UNL     1     144.892  74.876 217.936 -0.43 -0.19    +0.295 HD 
DOCKED: ENDBRANCH   3   4
DOCKED: BRANCH   3   6
DOCKED: ATOM      6  C   UNL     1     142.465  75.398 220.212 -0.25 -0.06    +0.126 A  
DOCKED: ATOM      7  N   UNL     1     142.512  76.755 220.090 -0.21 +0.16    -0.243 NA 
DOCKED: ATOM      8  C   UNL     1     141.602  74.820 221.159 -0.29 -0.01    +0.035 A  
DOCKED: ATOM      9  C   UNL     1     141.749  77.578 220.858 -0.27 -0.04    +0.071 A  
DOCKED: ATOM     10  C   UNL     1     140.805  75.640 221.961 -0.36 -0.00    +0.013 A  
DOCKED: ATOM     11  C   UNL     1     141.832  78.965 220.697 -0.30 -0.02    +0.030 A  
DOCKED: ATOM     12  C   UNL     1     140.871  77.031 221.819 -0.38 -0.00    +0.002 A  
DOCKED: ATOM     13  C   UNL     1     141.045  79.809 221.487 -0.32 -0.01    +0.023 A  
DOCKED: ATOM     14  C   UNL     1     140.085  77.883 222.608 -0.36 -0.01    +0.030 A  
DOCKED: ATOM     15  C   UNL     1     140.173  79.271 222.440 -0.32 -0.01    +0.041 A  
DOCKED: ATOM     16  Cl  UNL     1     139.189  80.337 223.428 -0.48 +0.01    -0.084 Cl 
DOCKED: ENDBRANCH   3   6
DOCKED: ENDBRANCH   2   3
DOCKED: ENDBRANCH   1   2
DOCKED: BRANCH   1  17
DOCKED: ATOM     17  C   UNL     1     145.617  72.336 219.356 -0.32 +0.01    +0.029 C  
DOCKED: BRANCH  17  18
DOCKED: ATOM     18  N   UNL     1     146.080  70.986 219.233 -0.04 -0.59    -0.653 NA 
DOCKED: BRANCH  18  19
DOCKED: ATOM     19  C   UNL     1     145.221  69.859 218.882 -0.25 -0.04    -0.115 C  
DOCKED: BRANCH  19  20
DOCKED: ATOM     20  C   UNL     1     146.052  68.590 218.608 -0.35 -0.01    -0.035 C  
DOCKED: ATOM     21  C   UNL     1     145.948  67.580 219.758 -0.53 +0.00    +0.006 C  
DOCKED: ATOM     22  C   UNL     1     145.604  67.938 217.295 -0.26 -0.00    +0.006 C  
DOCKED: ENDBRANCH  19  20
DOCKED: ENDBRANCH  18  19
DOCKED: ENDBRANCH  17  18
DOCKED: BRANCH  17  23
DOCKED: ATOM     23  O   UNL     1     146.251  73.355 218.643 -0.59 -0.39    -0.529 OA 
DOCKED: ATOM     24  H   UNL     1     145.937  74.318 218.688 -0.34 -0.14    +0.290 HD 
DOCKED: ENDBRANCH  17  23
DOCKED: ENDBRANCH   1  17
DOCKED: TORSDOF 9
DOCKED: TER
DOCKED: ENDMDL
________________________________________________________________________________


    CLUSTERING HISTOGRAM
    ____________________


________________________________________________________________________________
     |           |     |           |     |
Clus | Lowest    | Run | Mean      | Num | Histogram
-ter | Binding   |     | Binding   | in  |
Rank | Energy    |     | Energy    | Clus|    5    10   15   20   25   30   35
_____|___________|_____|___________|_____|____:____|____:____|____:____|____:___
   1 |     -6.23 |   4 |     -5.98 |  11 |###########
   2 |     -5.78 |  20 |     -5.52 |   5 |#####
   3 |     -5.66 |  18 |     -5.19 |   3 |###
   4 |     -5.17 |  11 |     -5.17 |   1 |#
_____|___________|_____|___________|_____|______________________________________


    RMSD TABLE
    __________


_______________________________________________________________________
     |      |      |           |         |                 |
Rank | Sub- | Run  | Binding   | Cluster | Reference       | Grep
     | Rank |      | Energy    | RMSD    | RMSD            | Pattern
_____|______|______|___________|_________|_________________|___________
   1      1      4       -6.23      0.00    273.83           RANKING
   1      2     13       -6.19      0.59    273.67           RANKING
   1      3     16       -6.18      0.69    273.53           RANKING
   1      4      8       -6.13      0.65    273.51           RANKING
   1      5      1       -6.01      0.41    273.72           RANKING
   1      6      7       -5.97      0.62    273.47           RANKING
   1      7     12       -5.93      0.63    273.49           RANKING
   1      8      6       -5.89      0.63    273.59           RANKING
   1      9     14       -5.87      0.46    273.62           RANKING
   1     10     15       -5.78      0.68    273.44           RANKING
   1     11      2       -5.58      0.62    273.49           RANKING
   2      1     20       -5.78      0.00    272.59           RANKING
   2      2     19       -5.67      0.65    272.51           RANKING
   2      3     17       -5.66      0.65    272.50           RANKING
   2      4     10       -5.36      1.70    272.19           RANKING
   2      5      3       -5.14      1.14    272.44           RANKING
   3      1     18       -5.66      0.00    273.20           RANKING
   3      2      9       -4.96      0.72    272.93           RANKING
   3      3      5       -4.95      0.73    272.91           RANKING
   4      1     11       -5.17      0.00    273.50           RANKING

Run time 0.811 sec
Idle time 0.325 sec
