AutoDock-GPU version: v1.6

**********************************************************
**    AutoDock-GPU AUTODOCKTOOLS-COMPATIBLE DLG FILE    **
**********************************************************


    DOCKING PARAMETERS
    ________________________


Ligand file:                               /home/a/REINVENT4/ReinventStudies/pleaseWork/justmol2mol_4_Compounds_ontop/graph-dock-8u2o5u/graph-DockGPU/node-autodockgpu/inputs/LJPMQFKXSHJUPZ-KOQZAAFANA-N.pdbqt
Grid fld file:                             /home/a/REINVENT4/ReinventStudies/mols/Rad51/maps/rad51_receptor.maps.fld

Random seed:                               42
Number of runs:                            20
Number of energy evaluations:              1613968
Number of generations:                     42000
Size of population:                        150
Rate of crossover:                         80.000000%
Tournament selection probability limit:    60.000000%
Rate of mutation:                          2.000000%
Maximal allowed delta movement:            +/- 6.000000A
Maximal allowed delta angle:               +/- 90.000000

Rate of local search:                      100.000000%
Maximal number of local search iterations: 300
Rho lower bound:                           0.010000
Spread of local search delta movement:     2.000000A
Spread of local search delta angle:        74.999999
Limit of consecutive successes/failures:   4

Handle symmetry during clustering:         YES
RMSD tolerance:                            2.000000A

Program call in command line was:          /home/a/REINVENT4/ReinventStudies/adgpu-v1.6_linux_x64_cuda12_128wi --filelist batch.txt --heuristics 1 --nrun 20 --psize 150 --lsit 300 --seed 42 --heurmax 12000000 


    GRID PARAMETERS
    ________________________


Receptor name:                             rad51_receptor
Number of grid points (x, y, z):           53, 53, 53
Grid center (x, y, z):                     139.950000, 75.640000, 221.970000A
Grid size (x, y, z):                       19.500000, 19.500000, 19.500000A
Grid spacing:                              0.375000A


    LIGAND PARAMETERS
    ________________________


Ligand name:                               /home/a/REINVENT4/ReinventStudies/pleaseWork/justmol2mol_4_Compounds_ontop/graph-dock-8u2o5u/graph-DockGPU/node-autodockgpu/inputs/LJPMQFKXSHJUPZ-KOQZAAFANA-N
Number of atoms:                           31
Number of rotatable bonds:                 8
Number of atom types:                      7


    DUMMY DATA (only for ADT-compatibility)
    ________________________


DPF> outlev 1
DPF> ga_run 20
DPF> fld /home/a/REINVENT4/ReinventStudies/mols/Rad51/maps/rad51_receptor.maps.fld
DPF> move /home/a/REINVENT4/ReinventStudies/pleaseWork/justmol2mol_4_Compounds_ontop/graph-dock-8u2o5u/graph-DockGPU/node-autodockgpu/inputs/LJPMQFKXSHJUPZ-KOQZAAFANA-N.pdbqt


    COUNTER STATES
    ________________________


Number of energy evaluations performed:    1065933
Number of generations used:                60


    INPUT LIGAND PDBQT FILE:
    ________________________


INPUT-LIGAND-PDBQT: REMARK SMILES O/C(=N\C=C(\O)N1CCCC[C@H]1c1ccccc1)c1ccc2cc(Cl)ccc2n1
INPUT-LIGAND-PDBQT: REMARK SMILES IDX 3 1 2 2 1 3 19 5 29 6 20 7 28 8 21 9 27 10 22 11 26 12 23 13
INPUT-LIGAND-PDBQT: REMARK SMILES IDX 24 14 25 15 4 16 5 17 6 18 7 20 8 21 12 22 9 23 11 24 10 25
INPUT-LIGAND-PDBQT: REMARK SMILES IDX 13 26 14 27 18 28 15 29 17 30 16 31
INPUT-LIGAND-PDBQT: REMARK H PARENT 1 4 6 19
INPUT-LIGAND-PDBQT: ROOT
INPUT-LIGAND-PDBQT: ATOM      1  N   UNL     1       0.622  -0.756   1.484  1.00  0.00    -0.215 NA
INPUT-LIGAND-PDBQT: ENDROOT
INPUT-LIGAND-PDBQT: BRANCH   1   2
INPUT-LIGAND-PDBQT: ATOM      2  C   UNL     1       0.696   0.194   2.371  1.00  0.00     0.237 C 
INPUT-LIGAND-PDBQT: BRANCH   2   3
INPUT-LIGAND-PDBQT: ATOM      3  O   UNL     1       1.755   0.287   3.280  1.00  0.00    -0.492 OA
INPUT-LIGAND-PDBQT: ATOM      4  H   UNL     1       2.513  -0.376   3.332  1.00  0.00     0.295 HD
INPUT-LIGAND-PDBQT: ENDBRANCH   2   3
INPUT-LIGAND-PDBQT: BRANCH   2   5
INPUT-LIGAND-PDBQT: ATOM      5  C   UNL     1      -0.362   1.220   2.382  1.00  0.00     0.126 A 
INPUT-LIGAND-PDBQT: ATOM      6  N   UNL     1      -1.390   1.125   1.492  1.00  0.00    -0.243 NA
INPUT-LIGAND-PDBQT: ATOM      7  C   UNL     1      -0.314   2.308   3.268  1.00  0.00     0.035 A 
INPUT-LIGAND-PDBQT: ATOM      8  C   UNL     1      -2.380   2.054   1.426  1.00  0.00     0.071 A 
INPUT-LIGAND-PDBQT: ATOM      9  C   UNL     1      -1.319   3.278   3.227  1.00  0.00     0.013 A 
INPUT-LIGAND-PDBQT: ATOM     10  C   UNL     1      -3.408   1.918   0.488  1.00  0.00     0.030 A 
INPUT-LIGAND-PDBQT: ATOM     11  C   UNL     1      -2.365   3.161   2.302  1.00  0.00     0.002 A 
INPUT-LIGAND-PDBQT: ATOM     12  C   UNL     1      -4.419   2.881   0.415  1.00  0.00     0.023 A 
INPUT-LIGAND-PDBQT: ATOM     13  C   UNL     1      -3.387   4.120   2.229  1.00  0.00     0.030 A 
INPUT-LIGAND-PDBQT: ATOM     14  C   UNL     1      -4.410   3.980   1.284  1.00  0.00     0.041 A 
INPUT-LIGAND-PDBQT: ATOM     15  Cl  UNL     1      -5.688   5.179   1.192  1.00  0.00    -0.084 Cl
INPUT-LIGAND-PDBQT: ENDBRANCH   2   5
INPUT-LIGAND-PDBQT: ENDBRANCH   1   2
INPUT-LIGAND-PDBQT: BRANCH   1  16
INPUT-LIGAND-PDBQT: ATOM     16  C   UNL     1       1.553  -1.820   1.257  1.00  0.00     0.181 C 
INPUT-LIGAND-PDBQT: BRANCH  16  17
INPUT-LIGAND-PDBQT: ATOM     17  C   UNL     1       1.417  -2.589   0.171  1.00  0.00     0.206 C 
INPUT-LIGAND-PDBQT: BRANCH  17  18
INPUT-LIGAND-PDBQT: ATOM     18  O   UNL     1       2.343  -3.594  -0.108  1.00  0.00    -0.494 OA
INPUT-LIGAND-PDBQT: ATOM     19  H   UNL     1       3.140  -3.771   0.494  1.00  0.00     0.295 HD
INPUT-LIGAND-PDBQT: ENDBRANCH  17  18
INPUT-LIGAND-PDBQT: BRANCH  17  20
INPUT-LIGAND-PDBQT: ATOM     20  N   UNL     1       0.318  -2.383  -0.729  1.00  0.00    -0.335 N 
INPUT-LIGAND-PDBQT: ATOM     21  C   UNL     1      -0.967  -3.008  -0.394  1.00  0.00     0.120 C 
INPUT-LIGAND-PDBQT: ATOM     22  C   UNL     1       0.543  -1.656  -1.993  1.00  0.00     0.115 C 
INPUT-LIGAND-PDBQT: ATOM     23  C   UNL     1      -2.104  -2.391  -1.199  1.00  0.00     0.022 C 
INPUT-LIGAND-PDBQT: ATOM     24  C   UNL     1      -0.389  -2.167  -3.123  1.00  0.00     0.030 C 
INPUT-LIGAND-PDBQT: ATOM     25  C   UNL     1      -1.840  -2.499  -2.704  1.00  0.00     0.004 C 
INPUT-LIGAND-PDBQT: BRANCH  22  26
INPUT-LIGAND-PDBQT: ATOM     26  C   UNL     1       0.502  -0.147  -1.763  1.00  0.00    -0.025 A 
INPUT-LIGAND-PDBQT: ATOM     27  C   UNL     1       1.635   0.483  -1.211  1.00  0.00     0.006 A 
INPUT-LIGAND-PDBQT: ATOM     28  C   UNL     1      -0.636   0.642  -2.040  1.00  0.00     0.006 A 
INPUT-LIGAND-PDBQT: ATOM     29  C   UNL     1       1.625   1.851  -0.923  1.00  0.00     0.000 A 
INPUT-LIGAND-PDBQT: ATOM     30  C   UNL     1      -0.637   2.012  -1.760  1.00  0.00     0.000 A 
INPUT-LIGAND-PDBQT: ATOM     31  C   UNL     1       0.488   2.615  -1.195  1.00  0.00     0.000 A 
INPUT-LIGAND-PDBQT: ENDBRANCH  22  26
INPUT-LIGAND-PDBQT: ENDBRANCH  17  20
INPUT-LIGAND-PDBQT: ENDBRANCH  16  17
INPUT-LIGAND-PDBQT: ENDBRANCH   1  16
INPUT-LIGAND-PDBQT: TORSDOF 8


    FINAL DOCKED STATE:
    ________________________


Run:   1 / 20
Time taken for this run:   0.046s

DOCKED: MODEL        1
DOCKED: USER    Run = 1
DOCKED: USER
DOCKED: USER    Estimated Free Energy of Binding    =  -8.66 kcal/mol  [=(1)+(2)+(3)-(4)]
DOCKED: USER
DOCKED: USER    (1) Final Intermolecular Energy     = -11.05 kcal/mol
DOCKED: USER        vdW + Hbond + desolv Energy     = -10.93 kcal/mol
DOCKED: USER        Electrostatic Energy            =  -0.12 kcal/mol
DOCKED: USER        Moving Ligand-Fixed Receptor    = -11.05 kcal/mol
DOCKED: USER        Moving Ligand-Moving Receptor   =  +0.00 kcal/mol
DOCKED: USER    (2) Final Total Internal Energy     =  -2.23 kcal/mol
DOCKED: USER    (3) Torsional Free Energy           =  +2.39 kcal/mol
DOCKED: USER    (4) Unbound System's Energy         =  -2.23 kcal/mol
DOCKED: USER
DOCKED: USER
DOCKED: REMARK SMILES O/C(=N\C=C(\O)N1CCCC[C@H]1c1ccccc1)c1ccc2cc(Cl)ccc2n1
DOCKED: REMARK SMILES IDX 3 1 2 2 1 3 19 5 29 6 20 7 28 8 21 9 27 10 22 11 26 12 23 13
DOCKED: REMARK SMILES IDX 24 14 25 15 4 16 5 17 6 18 7 20 8 21 12 22 9 23 11 24 10 25
DOCKED: REMARK SMILES IDX 13 26 14 27 18 28 15 29 17 30 16 31
DOCKED: REMARK H PARENT 1 4 6 19
DOCKED: USER                              x       y       z     vdW  Elec       q    Type
DOCKED: USER                           _______ _______ _______ _____ _____    ______ ____
DOCKED: ROOT
DOCKED: ATOM      1  N   UNL     1     140.703  73.224 221.726 -0.40 +0.02    -0.215 NA 
DOCKED: ENDROOT
DOCKED: BRANCH   1   2
DOCKED: ATOM      2  C   UNL     1     139.641  72.882 222.396 -0.15 -0.04    +0.237 C  
DOCKED: BRANCH   2   3
DOCKED: ATOM      3  O   UNL     1     138.385  73.445 222.144 -0.08 +0.16    -0.492 OA 
DOCKED: ATOM      4  H   UNL     1     137.959  74.153 222.722 -0.48 -0.15    +0.295 HD 
DOCKED: ENDBRANCH   2   3
DOCKED: BRANCH   2   5
DOCKED: ATOM      5  C   UNL     1     139.774  71.838 223.428 -0.29 -0.03    +0.126 A  
DOCKED: ATOM      6  N   UNL     1     140.294  72.167 224.644 +0.02 +0.05    -0.243 NA 
DOCKED: ATOM      7  C   UNL     1     139.406  70.507 223.171 -0.26 -0.01    +0.035 A  
DOCKED: ATOM      8  C   UNL     1     140.475  71.247 225.628 -0.52 -0.01    +0.071 A  
DOCKED: ATOM      9  C   UNL     1     139.577  69.539 224.164 -0.30 -0.00    +0.013 A  
DOCKED: ATOM     10  C   UNL     1     141.023  71.632 226.856 -0.73 -0.00    +0.030 A  
DOCKED: ATOM     11  C   UNL     1     140.116  69.900 225.406 -0.46 -0.00    +0.002 A  
DOCKED: ATOM     12  C   UNL     1     141.218  70.681 227.862 -0.54 -0.00    +0.023 A  
DOCKED: ATOM     13  C   UNL     1     140.307  68.952 226.423 -0.54 -0.01    +0.030 A  
DOCKED: ATOM     14  C   UNL     1     140.861  69.343 227.647 -0.58 -0.01    +0.041 A  
DOCKED: ATOM     15  Cl  UNL     1     141.101  68.159 228.919 -0.57 +0.02    -0.084 Cl 
DOCKED: ENDBRANCH   2   5
DOCKED: ENDBRANCH   1   2
DOCKED: BRANCH   1  16
DOCKED: ATOM     16  C   UNL     1     141.266  74.532 221.581 -0.14 -0.03    +0.181 C  
DOCKED: BRANCH  16  17
DOCKED: ATOM     17  C   UNL     1     140.477  75.604 221.718 -0.26 -0.04    +0.206 C  
DOCKED: BRANCH  17  18
DOCKED: ATOM     18  O   UNL     1     139.549  75.674 222.756 -0.33 +0.07    -0.494 OA 
DOCKED: ATOM     19  H   UNL     1     139.206  74.843 223.226 -0.46 -0.09    +0.295 HD 
DOCKED: ENDBRANCH  17  18
DOCKED: BRANCH  17  20
DOCKED: ATOM     20  N   UNL     1     140.570  76.694 220.789 -0.08 +0.12    -0.335 N  
DOCKED: ATOM     21  C   UNL     1     139.469  76.877 219.836 -0.06 -0.03    +0.120 C  
DOCKED: ATOM     22  C   UNL     1     141.798  77.512 220.752 -0.23 -0.07    +0.115 C  
DOCKED: ATOM     23  C   UNL     1     139.513  78.264 219.206 -0.06 -0.01    +0.022 C  
DOCKED: ATOM     24  C   UNL     1     142.088  78.048 219.325 -0.27 -0.02    +0.030 C  
DOCKED: ATOM     25  C   UNL     1     140.857  78.518 218.517 -0.13 -0.00    +0.004 C  
DOCKED: BRANCH  22  26
DOCKED: ATOM     26  C   UNL     1     141.769  78.580 221.843 -0.40 +0.01    -0.025 A  
DOCKED: ATOM     27  C   UNL     1     142.116  79.902 221.503 -0.41 -0.00    +0.006 A  
DOCKED: ATOM     28  C   UNL     1     141.451  78.295 223.189 -0.55 -0.00    +0.006 A  
DOCKED: ATOM     29  C   UNL     1     142.166  80.903 222.477 -0.55 -0.00    +0.000 A  
DOCKED: ATOM     30  C   UNL     1     141.492  79.302 224.158 -0.54 -0.00    +0.000 A  
DOCKED: ATOM     31  C   UNL     1     141.857  80.603 223.806 -0.60 -0.00    +0.000 A  
DOCKED: ENDBRANCH  22  26
DOCKED: ENDBRANCH  17  20
DOCKED: ENDBRANCH  16  17
DOCKED: ENDBRANCH   1  16
DOCKED: TORSDOF 8
DOCKED: TER
DOCKED: ENDMDL
________________________________________________________________________________


    FINAL DOCKED STATE:
    ________________________


Run:   2 / 20
Time taken for this run:   0.046s

DOCKED: MODEL        2
DOCKED: USER    Run = 2
DOCKED: USER
DOCKED: USER    Estimated Free Energy of Binding    =  -8.51 kcal/mol  [=(1)+(2)+(3)-(4)]
DOCKED: USER
DOCKED: USER    (1) Final Intermolecular Energy     = -10.90 kcal/mol
DOCKED: USER        vdW + Hbond + desolv Energy     = -10.77 kcal/mol
DOCKED: USER        Electrostatic Energy            =  -0.13 kcal/mol
DOCKED: USER        Moving Ligand-Fixed Receptor    = -10.90 kcal/mol
DOCKED: USER        Moving Ligand-Moving Receptor   =  +0.00 kcal/mol
DOCKED: USER    (2) Final Total Internal Energy     =  -2.28 kcal/mol
DOCKED: USER    (3) Torsional Free Energy           =  +2.39 kcal/mol
DOCKED: USER    (4) Unbound System's Energy         =  -2.28 kcal/mol
DOCKED: USER
DOCKED: USER
DOCKED: REMARK SMILES O/C(=N\C=C(\O)N1CCCC[C@H]1c1ccccc1)c1ccc2cc(Cl)ccc2n1
DOCKED: REMARK SMILES IDX 3 1 2 2 1 3 19 5 29 6 20 7 28 8 21 9 27 10 22 11 26 12 23 13
DOCKED: REMARK SMILES IDX 24 14 25 15 4 16 5 17 6 18 7 20 8 21 12 22 9 23 11 24 10 25
DOCKED: REMARK SMILES IDX 13 26 14 27 18 28 15 29 17 30 16 31
DOCKED: REMARK H PARENT 1 4 6 19
DOCKED: USER                              x       y       z     vdW  Elec       q    Type
DOCKED: USER                           _______ _______ _______ _____ _____    ______ ____
DOCKED: ROOT
DOCKED: ATOM      1  N   UNL     1     140.496  72.789 221.614 -0.24 +0.03    -0.215 NA 
DOCKED: ENDROOT
DOCKED: BRANCH   1   2
DOCKED: ATOM      2  C   UNL     1     139.474  72.531 222.377 -0.18 -0.05    +0.237 C  
DOCKED: BRANCH   2   3
DOCKED: ATOM      3  O   UNL     1     138.228  73.137 222.188 -0.06 +0.16    -0.492 OA 
DOCKED: ATOM      4  H   UNL     1     137.874  73.889 222.759 -0.47 -0.16    +0.295 HD 
DOCKED: ENDBRANCH   2   3
DOCKED: BRANCH   2   5
DOCKED: ATOM      5  C   UNL     1     139.641  71.536 223.452 -0.31 -0.03    +0.126 A  
DOCKED: ATOM      6  N   UNL     1     140.145  71.934 224.655 -0.15 +0.05    -0.243 NA 
DOCKED: ATOM      7  C   UNL     1     139.321  70.184 223.251 -0.25 -0.01    +0.035 A  
DOCKED: ATOM      8  C   UNL     1     140.355  71.064 225.677 -0.52 -0.01    +0.071 A  
DOCKED: ATOM      9  C   UNL     1     139.523  69.265 224.284 -0.30 -0.00    +0.013 A  
DOCKED: ATOM     10  C   UNL     1     140.884  71.519 226.888 -0.71 -0.01    +0.030 A  
DOCKED: ATOM     11  C   UNL     1     140.045  69.696 225.511 -0.45 -0.00    +0.002 A  
DOCKED: ATOM     12  C   UNL     1     141.110  70.619 227.934 -0.62 -0.00    +0.023 A  
DOCKED: ATOM     13  C   UNL     1     140.266  68.799 226.567 -0.56 -0.01    +0.030 A  
DOCKED: ATOM     14  C   UNL     1     140.801  69.261 227.775 -0.59 -0.01    +0.041 A  
DOCKED: ATOM     15  Cl  UNL     1     141.079  68.140 229.096 -0.46 +0.02    -0.084 Cl 
DOCKED: ENDBRANCH   2   5
DOCKED: ENDBRANCH   1   2
DOCKED: BRANCH   1  16
DOCKED: ATOM     16  C   UNL     1     141.106  74.060 221.362 -0.21 -0.02    +0.181 C  
DOCKED: BRANCH  16  17
DOCKED: ATOM     17  C   UNL     1     140.402  75.177 221.575 -0.25 -0.04    +0.206 C  
DOCKED: BRANCH  17  18
DOCKED: ATOM     18  O   UNL     1     139.538  75.276 222.665 -0.43 +0.06    -0.494 OA 
DOCKED: ATOM     19  H   UNL     1     139.291  74.470 223.229 -0.45 -0.09    +0.295 HD 
DOCKED: ENDBRANCH  17  18
DOCKED: BRANCH  17  20
DOCKED: ATOM     20  N   UNL     1     140.520  76.289 220.675 -0.08 +0.11    -0.335 N  
DOCKED: ATOM     21  C   UNL     1     139.548  76.390 219.580 -0.05 -0.03    +0.120 C  
DOCKED: ATOM     22  C   UNL     1     141.661  77.215 220.812 -0.20 -0.07    +0.115 C  
DOCKED: ATOM     23  C   UNL     1     139.549  77.786 218.971 -0.05 -0.01    +0.022 C  
DOCKED: ATOM     24  C   UNL     1     142.093  77.802 219.443 -0.28 -0.02    +0.030 C  
DOCKED: ATOM     25  C   UNL     1     140.945  78.174 218.475 -0.14 -0.00    +0.004 C  
DOCKED: BRANCH  22  26
DOCKED: ATOM     26  C   UNL     1     141.385  78.255 221.896 -0.39 +0.01    -0.025 A  
DOCKED: ATOM     27  C   UNL     1     140.098  78.310 222.467 -0.37 -0.00    +0.006 A  
DOCKED: ATOM     28  C   UNL     1     142.349  79.194 222.323 -0.49 -0.00    +0.006 A  
DOCKED: ATOM     29  C   UNL     1     139.777  79.284 223.417 -0.42 -0.00    +0.000 A  
DOCKED: ATOM     30  C   UNL     1     142.026  80.159 223.282 -0.62 -0.00    +0.000 A  
DOCKED: ATOM     31  C   UNL     1     140.740  80.210 223.822 -0.46 -0.00    +0.000 A  
DOCKED: ENDBRANCH  22  26
DOCKED: ENDBRANCH  17  20
DOCKED: ENDBRANCH  16  17
DOCKED: ENDBRANCH   1  16
DOCKED: TORSDOF 8
DOCKED: TER
DOCKED: ENDMDL
________________________________________________________________________________


    FINAL DOCKED STATE:
    ________________________


Run:   3 / 20
Time taken for this run:   0.046s

DOCKED: MODEL        3
DOCKED: USER    Run = 3
DOCKED: USER
DOCKED: USER    Estimated Free Energy of Binding    =  -8.33 kcal/mol  [=(1)+(2)+(3)-(4)]
DOCKED: USER
DOCKED: USER    (1) Final Intermolecular Energy     = -10.71 kcal/mol
DOCKED: USER        vdW + Hbond + desolv Energy     = -10.60 kcal/mol
DOCKED: USER        Electrostatic Energy            =  -0.11 kcal/mol
DOCKED: USER        Moving Ligand-Fixed Receptor    = -10.71 kcal/mol
DOCKED: USER        Moving Ligand-Moving Receptor   =  +0.00 kcal/mol
DOCKED: USER    (2) Final Total Internal Energy     =  -2.34 kcal/mol
DOCKED: USER    (3) Torsional Free Energy           =  +2.39 kcal/mol
DOCKED: USER    (4) Unbound System's Energy         =  -2.34 kcal/mol
DOCKED: USER
DOCKED: USER
DOCKED: REMARK SMILES O/C(=N\C=C(\O)N1CCCC[C@H]1c1ccccc1)c1ccc2cc(Cl)ccc2n1
DOCKED: REMARK SMILES IDX 3 1 2 2 1 3 19 5 29 6 20 7 28 8 21 9 27 10 22 11 26 12 23 13
DOCKED: REMARK SMILES IDX 24 14 25 15 4 16 5 17 6 18 7 20 8 21 12 22 9 23 11 24 10 25
DOCKED: REMARK SMILES IDX 13 26 14 27 18 28 15 29 17 30 16 31
DOCKED: REMARK H PARENT 1 4 6 19
DOCKED: USER                              x       y       z     vdW  Elec       q    Type
DOCKED: USER                           _______ _______ _______ _____ _____    ______ ____
DOCKED: ROOT
DOCKED: ATOM      1  N   UNL     1     140.543  73.010 221.628 -0.28 +0.02    -0.215 NA 
DOCKED: ENDROOT
DOCKED: BRANCH   1   2
DOCKED: ATOM      2  C   UNL     1     139.505  72.669 222.334 -0.18 -0.05    +0.237 C  
DOCKED: BRANCH   2   3
DOCKED: ATOM      3  O   UNL     1     138.236  73.215 222.111 -0.07 +0.16    -0.492 OA 
DOCKED: ATOM      4  H   UNL     1     137.876  74.020 222.600 -0.38 -0.14    +0.295 HD 
DOCKED: ENDBRANCH   2   3
DOCKED: BRANCH   2   5
DOCKED: ATOM      5  C   UNL     1     139.679  71.643 223.378 -0.29 -0.03    +0.126 A  
DOCKED: ATOM      6  N   UNL     1     140.178  72.008 224.593 -0.08 +0.05    -0.243 NA 
DOCKED: ATOM      7  C   UNL     1     139.373  70.295 223.134 -0.24 -0.01    +0.035 A  
DOCKED: ATOM      8  C   UNL     1     140.395  71.108 225.588 -0.52 -0.01    +0.071 A  
DOCKED: ATOM      9  C   UNL     1     139.583  69.346 224.138 -0.28 -0.00    +0.013 A  
DOCKED: ATOM     10  C   UNL     1     140.918  71.531 226.814 -0.71 -0.00    +0.030 A  
DOCKED: ATOM     11  C   UNL     1     140.098  69.744 225.379 -0.45 -0.00    +0.002 A  
DOCKED: ATOM     12  C   UNL     1     141.151  70.601 227.832 -0.58 -0.00    +0.023 A  
DOCKED: ATOM     13  C   UNL     1     140.327  68.817 226.407 -0.55 -0.01    +0.030 A  
DOCKED: ATOM     14  C   UNL     1     140.856  69.246 227.630 -0.58 -0.01    +0.041 A  
DOCKED: ATOM     15  Cl  UNL     1     141.142  68.087 228.916 -0.51 +0.02    -0.084 Cl 
DOCKED: ENDBRANCH   2   5
DOCKED: ENDBRANCH   1   2
DOCKED: BRANCH   1  16
DOCKED: ATOM     16  C   UNL     1     141.176  74.293 221.560 -0.17 -0.02    +0.181 C  
DOCKED: BRANCH  16  17
DOCKED: ATOM     17  C   UNL     1     140.433  75.398 221.688 -0.24 -0.04    +0.206 C  
DOCKED: BRANCH  17  18
DOCKED: ATOM     18  O   UNL     1     139.497  75.509 222.717 -0.38 +0.07    -0.494 OA 
DOCKED: ATOM     19  H   UNL     1     139.205  74.707 223.265 -0.46 -0.10    +0.295 HD 
DOCKED: ENDBRANCH  17  18
DOCKED: BRANCH  17  20
DOCKED: ATOM     20  N   UNL     1     140.582  76.483 220.761 -0.09 +0.11    -0.335 N  
DOCKED: ATOM     21  C   UNL     1     139.599  76.596 219.677 -0.06 -0.03    +0.120 C  
DOCKED: ATOM     22  C   UNL     1     141.760  77.365 220.861 -0.18 -0.07    +0.115 C  
DOCKED: ATOM     23  C   UNL     1     139.647  77.977 219.034 -0.06 -0.01    +0.022 C  
DOCKED: ATOM     24  C   UNL     1     142.196  77.902 219.472 -0.27 -0.02    +0.030 C  
DOCKED: ATOM     25  C   UNL     1     141.051  78.297 218.511 -0.15 -0.00    +0.004 C  
DOCKED: BRANCH  22  26
DOCKED: ATOM     26  C   UNL     1     141.541  78.440 221.923 -0.39 +0.01    -0.025 A  
DOCKED: ATOM     27  C   UNL     1     140.262  78.568 222.501 -0.38 -0.00    +0.006 A  
DOCKED: ATOM     28  C   UNL     1     142.551  79.342 222.324 -0.50 -0.00    +0.006 A  
DOCKED: ATOM     29  C   UNL     1     139.994  79.577 223.431 -0.45 -0.00    +0.000 A  
DOCKED: ATOM     30  C   UNL     1     142.280  80.343 223.262 -0.64 -0.00    +0.000 A  
DOCKED: ATOM     31  C   UNL     1     141.002  80.466 223.810 -0.48 -0.00    +0.000 A  
DOCKED: ENDBRANCH  22  26
DOCKED: ENDBRANCH  17  20
DOCKED: ENDBRANCH  16  17
DOCKED: ENDBRANCH   1  16
DOCKED: TORSDOF 8
DOCKED: TER
DOCKED: ENDMDL
________________________________________________________________________________


    FINAL DOCKED STATE:
    ________________________


Run:   4 / 20
Time taken for this run:   0.046s

DOCKED: MODEL        4
DOCKED: USER    Run = 4
DOCKED: USER
DOCKED: USER    Estimated Free Energy of Binding    =  -7.35 kcal/mol  [=(1)+(2)+(3)-(4)]
DOCKED: USER
DOCKED: USER    (1) Final Intermolecular Energy     =  -9.74 kcal/mol
DOCKED: USER        vdW + Hbond + desolv Energy     =  -9.73 kcal/mol
DOCKED: USER        Electrostatic Energy            =  -0.01 kcal/mol
DOCKED: USER        Moving Ligand-Fixed Receptor    =  -9.74 kcal/mol
DOCKED: USER        Moving Ligand-Moving Receptor   =  +0.00 kcal/mol
DOCKED: USER    (2) Final Total Internal Energy     =  -2.62 kcal/mol
DOCKED: USER    (3) Torsional Free Energy           =  +2.39 kcal/mol
DOCKED: USER    (4) Unbound System's Energy         =  -2.62 kcal/mol
DOCKED: USER
DOCKED: USER
DOCKED: REMARK SMILES O/C(=N\C=C(\O)N1CCCC[C@H]1c1ccccc1)c1ccc2cc(Cl)ccc2n1
DOCKED: REMARK SMILES IDX 3 1 2 2 1 3 19 5 29 6 20 7 28 8 21 9 27 10 22 11 26 12 23 13
DOCKED: REMARK SMILES IDX 24 14 25 15 4 16 5 17 6 18 7 20 8 21 12 22 9 23 11 24 10 25
DOCKED: REMARK SMILES IDX 13 26 14 27 18 28 15 29 17 30 16 31
DOCKED: REMARK H PARENT 1 4 6 19
DOCKED: USER                              x       y       z     vdW  Elec       q    Type
DOCKED: USER                           _______ _______ _______ _____ _____    ______ ____
DOCKED: ROOT
DOCKED: ATOM      1  N   UNL     1     140.720  73.859 221.918 -0.70 +0.01    -0.215 NA 
DOCKED: ENDROOT
DOCKED: BRANCH   1   2
DOCKED: ATOM      2  C   UNL     1     139.826  72.913 221.923 -0.20 -0.04    +0.237 C  
DOCKED: BRANCH   2   3
DOCKED: ATOM      3  O   UNL     1     138.843  72.809 220.933 -0.02 +0.10    -0.492 OA 
DOCKED: ATOM      4  H   UNL     1     138.181  73.539 220.717 +0.05 -0.06    +0.295 HD 
DOCKED: ENDBRANCH   2   3
DOCKED: BRANCH   2   5
DOCKED: ATOM      5  C   UNL     1     139.885  71.904 222.995 -0.29 -0.02    +0.126 A  
DOCKED: ATOM      6  N   UNL     1     140.360  72.264 224.221 -0.11 +0.04    -0.243 NA 
DOCKED: ATOM      7  C   UNL     1     139.494  70.575 222.769 -0.23 -0.01    +0.035 A  
DOCKED: ATOM      8  C   UNL     1     140.473  71.376 225.244 -0.49 -0.01    +0.071 A  
DOCKED: ATOM      9  C   UNL     1     139.595  69.639 223.802 -0.26 -0.00    +0.013 A  
DOCKED: ATOM     10  C   UNL     1     140.976  71.791 226.481 -0.68 -0.00    +0.030 A  
DOCKED: ATOM     11  C   UNL     1     140.088  70.031 225.053 -0.43 -0.00    +0.002 A  
DOCKED: ATOM     12  C   UNL     1     141.102  70.873 227.528 -0.64 -0.00    +0.023 A  
DOCKED: ATOM     13  C   UNL     1     140.209  69.116 226.110 -0.50 -0.01    +0.030 A  
DOCKED: ATOM     14  C   UNL     1     140.718  69.538 227.344 -0.56 -0.01    +0.041 A  
DOCKED: ATOM     15  Cl  UNL     1     140.870  68.394 228.666 -0.71 +0.02    -0.084 Cl 
DOCKED: ENDBRANCH   2   5
DOCKED: ENDBRANCH   1   2
DOCKED: BRANCH   1  16
DOCKED: ATOM     16  C   UNL     1     140.502  75.274 221.948 -0.18 -0.03    +0.181 C  
DOCKED: BRANCH  16  17
DOCKED: ATOM     17  C   UNL     1     139.601  75.816 221.121 -0.17 -0.05    +0.206 C  
DOCKED: BRANCH  17  18
DOCKED: ATOM     18  O   UNL     1     139.289  75.201 219.909 +0.01 +0.11    -0.494 OA 
DOCKED: ATOM     19  H   UNL     1     139.575  74.250 219.701 +0.05 -0.06    +0.295 HD 
DOCKED: ENDBRANCH  17  18
DOCKED: BRANCH  17  20
DOCKED: ATOM     20  N   UNL     1     138.947  77.046 221.469 -0.08 +0.08    -0.335 N  
DOCKED: ATOM     21  C   UNL     1     137.725  76.966 222.278 -0.22 -0.02    +0.120 C  
DOCKED: ATOM     22  C   UNL     1     139.454  78.317 220.917 -0.12 -0.03    +0.115 C  
DOCKED: ATOM     23  C   UNL     1     137.382  78.320 222.887 -0.16 -0.00    +0.022 C  
DOCKED: ATOM     24  C   UNL     1     138.313  79.345 220.702 -0.08 -0.01    +0.030 C  
DOCKED: ATOM     25  C   UNL     1     137.229  79.393 221.804 -0.12 -0.00    +0.004 C  
DOCKED: BRANCH  22  26
DOCKED: ATOM     26  C   UNL     1     140.633  78.831 221.741 -0.30 +0.01    -0.025 A  
DOCKED: ATOM     27  C   UNL     1     140.801  78.348 223.054 -0.47 -0.00    +0.006 A  
DOCKED: ATOM     28  C   UNL     1     141.540  79.801 221.262 -0.37 -0.00    +0.006 A  
DOCKED: ATOM     29  C   UNL     1     141.826  78.834 223.870 -0.62 -0.00    +0.000 A  
DOCKED: ATOM     30  C   UNL     1     142.571  80.276 222.079 -0.52 -0.00    +0.000 A  
DOCKED: ATOM     31  C   UNL     1     142.710  79.800 223.384 -0.62 -0.00    +0.000 A  
DOCKED: ENDBRANCH  22  26
DOCKED: ENDBRANCH  17  20
DOCKED: ENDBRANCH  16  17
DOCKED: ENDBRANCH   1  16
DOCKED: TORSDOF 8
DOCKED: TER
DOCKED: ENDMDL
________________________________________________________________________________


    FINAL DOCKED STATE:
    ________________________


Run:   5 / 20
Time taken for this run:   0.046s

DOCKED: MODEL        5
DOCKED: USER    Run = 5
DOCKED: USER
DOCKED: USER    Estimated Free Energy of Binding    =  -8.51 kcal/mol  [=(1)+(2)+(3)-(4)]
DOCKED: USER
DOCKED: USER    (1) Final Intermolecular Energy     = -10.89 kcal/mol
DOCKED: USER        vdW + Hbond + desolv Energy     = -10.80 kcal/mol
DOCKED: USER        Electrostatic Energy            =  -0.09 kcal/mol
DOCKED: USER        Moving Ligand-Fixed Receptor    = -10.89 kcal/mol
DOCKED: USER        Moving Ligand-Moving Receptor   =  +0.00 kcal/mol
DOCKED: USER    (2) Final Total Internal Energy     =  -2.46 kcal/mol
DOCKED: USER    (3) Torsional Free Energy           =  +2.39 kcal/mol
DOCKED: USER    (4) Unbound System's Energy         =  -2.46 kcal/mol
DOCKED: USER
DOCKED: USER
DOCKED: REMARK SMILES O/C(=N\C=C(\O)N1CCCC[C@H]1c1ccccc1)c1ccc2cc(Cl)ccc2n1
DOCKED: REMARK SMILES IDX 3 1 2 2 1 3 19 5 29 6 20 7 28 8 21 9 27 10 22 11 26 12 23 13
DOCKED: REMARK SMILES IDX 24 14 25 15 4 16 5 17 6 18 7 20 8 21 12 22 9 23 11 24 10 25
DOCKED: REMARK SMILES IDX 13 26 14 27 18 28 15 29 17 30 16 31
DOCKED: REMARK H PARENT 1 4 6 19
DOCKED: USER                              x       y       z     vdW  Elec       q    Type
DOCKED: USER                           _______ _______ _______ _____ _____    ______ ____
DOCKED: ROOT
DOCKED: ATOM      1  N   UNL     1     139.413  71.855 221.234 -0.08 +0.04    -0.215 NA 
DOCKED: ENDROOT
DOCKED: BRANCH   1   2
DOCKED: ATOM      2  C   UNL     1     138.720  71.940 222.333 -0.14 -0.06    +0.237 C  
DOCKED: BRANCH   2   3
DOCKED: ATOM      3  O   UNL     1     137.652  72.832 222.477 -0.03 +0.17    -0.492 OA 
DOCKED: ATOM      4  H   UNL     1     137.757  73.795 222.758 -0.46 -0.16    +0.295 HD 
DOCKED: ENDBRANCH   2   3
DOCKED: BRANCH   2   5
DOCKED: ATOM      5  C   UNL     1     139.061  71.032 223.443 -0.26 -0.03    +0.126 A  
DOCKED: ATOM      6  N   UNL     1     139.673  71.537 224.551 -0.24 +0.06    -0.243 NA 
DOCKED: ATOM      7  C   UNL     1     138.797  69.655 223.366 -0.24 -0.01    +0.035 A  
DOCKED: ATOM      8  C   UNL     1     140.045  70.750 225.595 -0.47 -0.01    +0.071 A  
DOCKED: ATOM      9  C   UNL     1     139.164  68.821 224.426 -0.35 -0.00    +0.013 A  
DOCKED: ATOM     10  C   UNL     1     140.681  71.314 226.706 -0.66 -0.01    +0.030 A  
DOCKED: ATOM     11  C   UNL     1     139.795  69.361 225.554 -0.45 -0.00    +0.002 A  
DOCKED: ATOM     12  C   UNL     1     141.072  70.501 227.774 -0.62 -0.00    +0.023 A  
DOCKED: ATOM     13  C   UNL     1     140.182  68.552 226.633 -0.59 -0.01    +0.030 A  
DOCKED: ATOM     14  C   UNL     1     140.823  69.122 227.739 -0.59 -0.01    +0.041 A  
DOCKED: ATOM     15  Cl  UNL     1     141.308  68.111 229.088 -0.45 +0.02    -0.084 Cl 
DOCKED: ENDBRANCH   2   5
DOCKED: ENDBRANCH   1   2
DOCKED: BRANCH   1  16
DOCKED: ATOM     16  C   UNL     1     140.495  72.692 220.812 -0.14 -0.03    +0.181 C  
DOCKED: BRANCH  16  17
DOCKED: ATOM     17  C   UNL     1     140.524  73.972 221.201 -0.20 -0.03    +0.206 C  
DOCKED: BRANCH  17  18
DOCKED: ATOM     18  O   UNL     1     139.828  74.385 222.337 -0.71 +0.03    -0.494 OA 
DOCKED: ATOM     19  H   UNL     1     139.530  73.729 223.051 -0.42 -0.06    +0.295 HD 
DOCKED: ENDBRANCH  17  18
DOCKED: BRANCH  17  20
DOCKED: ATOM     20  N   UNL     1     141.267  74.941 220.447 -0.10 +0.10    -0.335 N  
DOCKED: ATOM     21  C   UNL     1     141.095  76.356 220.794 -0.25 -0.05    +0.120 C  
DOCKED: ATOM     22  C   UNL     1     142.079  74.497 219.297 -0.14 -0.03    +0.115 C  
DOCKED: ATOM     23  C   UNL     1     142.211  77.207 220.201 -0.28 -0.01    +0.022 C  
DOCKED: ATOM     24  C   UNL     1     142.146  75.582 218.190 -0.14 -0.01    +0.030 C  
DOCKED: ATOM     25  C   UNL     1     142.287  77.041 218.680 -0.28 -0.00    +0.004 C  
DOCKED: BRANCH  22  26
DOCKED: ATOM     26  C   UNL     1     143.435  73.974 219.763 -0.30 +0.01    -0.025 A  
DOCKED: ATOM     27  C   UNL     1     143.715  72.600 219.618 -0.24 -0.00    +0.006 A  
DOCKED: ATOM     28  C   UNL     1     144.409  74.796 220.372 -0.42 -0.00    +0.006 A  
DOCKED: ATOM     29  C   UNL     1     144.917  72.061 220.086 -0.37 +0.00    +0.000 A  
DOCKED: ATOM     30  C   UNL     1     145.614  74.253 220.828 -0.58 -0.00    +0.000 A  
DOCKED: ATOM     31  C   UNL     1     145.865  72.886 220.694 -0.60 +0.00    +0.000 A  
DOCKED: ENDBRANCH  22  26
DOCKED: ENDBRANCH  17  20
DOCKED: ENDBRANCH  16  17
DOCKED: ENDBRANCH   1  16
DOCKED: TORSDOF 8
DOCKED: TER
DOCKED: ENDMDL
________________________________________________________________________________


    FINAL DOCKED STATE:
    ________________________


Run:   6 / 20
Time taken for this run:   0.046s

DOCKED: MODEL        6
DOCKED: USER    Run = 6
DOCKED: USER
DOCKED: USER    Estimated Free Energy of Binding    =  -7.30 kcal/mol  [=(1)+(2)+(3)-(4)]
DOCKED: USER
DOCKED: USER    (1) Final Intermolecular Energy     =  -9.69 kcal/mol
DOCKED: USER        vdW + Hbond + desolv Energy     =  -9.67 kcal/mol
DOCKED: USER        Electrostatic Energy            =  -0.02 kcal/mol
DOCKED: USER        Moving Ligand-Fixed Receptor    =  -9.69 kcal/mol
DOCKED: USER        Moving Ligand-Moving Receptor   =  +0.00 kcal/mol
DOCKED: USER    (2) Final Total Internal Energy     =  -2.77 kcal/mol
DOCKED: USER    (3) Torsional Free Energy           =  +2.39 kcal/mol
DOCKED: USER    (4) Unbound System's Energy         =  -2.77 kcal/mol
DOCKED: USER
DOCKED: USER
DOCKED: REMARK SMILES O/C(=N\C=C(\O)N1CCCC[C@H]1c1ccccc1)c1ccc2cc(Cl)ccc2n1
DOCKED: REMARK SMILES IDX 3 1 2 2 1 3 19 5 29 6 20 7 28 8 21 9 27 10 22 11 26 12 23 13
DOCKED: REMARK SMILES IDX 24 14 25 15 4 16 5 17 6 18 7 20 8 21 12 22 9 23 11 24 10 25
DOCKED: REMARK SMILES IDX 13 26 14 27 18 28 15 29 17 30 16 31
DOCKED: REMARK H PARENT 1 4 6 19
DOCKED: USER                              x       y       z     vdW  Elec       q    Type
DOCKED: USER                           _______ _______ _______ _____ _____    ______ ____
DOCKED: ROOT
DOCKED: ATOM      1  N   UNL     1     139.802  73.834 222.345 -0.78 +0.02    -0.215 NA 
DOCKED: ENDROOT
DOCKED: BRANCH   1   2
DOCKED: ATOM      2  C   UNL     1     139.726  72.573 222.031 -0.20 -0.04    +0.237 C  
DOCKED: BRANCH   2   3
DOCKED: ATOM      3  O   UNL     1     139.605  72.139 220.706 -0.01 +0.09    -0.492 OA 
DOCKED: ATOM      4  H   UNL     1     140.004  72.622 219.916 +0.05 -0.05    +0.295 HD 
DOCKED: ENDBRANCH   2   3
DOCKED: BRANCH   2   5
DOCKED: ATOM      5  C   UNL     1     139.809  71.578 223.115 -0.29 -0.02    +0.126 A  
DOCKED: ATOM      6  N   UNL     1     140.312  71.954 224.325 -0.24 +0.04    -0.243 NA 
DOCKED: ATOM      7  C   UNL     1     139.410  70.247 222.916 -0.22 -0.01    +0.035 A  
DOCKED: ATOM      8  C   UNL     1     140.447  71.080 225.357 -0.50 -0.01    +0.071 A  
DOCKED: ATOM      9  C   UNL     1     139.533  69.325 223.959 -0.25 -0.00    +0.013 A  
DOCKED: ATOM     10  C   UNL     1     140.979  71.511 226.576 -0.69 -0.00    +0.030 A  
DOCKED: ATOM     11  C   UNL     1     140.056  69.733 225.194 -0.43 -0.00    +0.002 A  
DOCKED: ATOM     12  C   UNL     1     141.127  70.607 227.633 -0.58 -0.00    +0.023 A  
DOCKED: ATOM     13  C   UNL     1     140.199  68.833 226.260 -0.53 -0.01    +0.030 A  
DOCKED: ATOM     14  C   UNL     1     140.737  69.270 227.476 -0.58 -0.01    +0.041 A  
DOCKED: ATOM     15  Cl  UNL     1     140.917  68.144 228.810 -0.61 +0.02    -0.084 Cl 
DOCKED: ENDBRANCH   2   5
DOCKED: ENDBRANCH   1   2
DOCKED: BRANCH   1  16
DOCKED: ATOM     16  C   UNL     1     140.510  74.870 221.657 -0.23 -0.03    +0.181 C  
DOCKED: BRANCH  16  17
DOCKED: ATOM     17  C   UNL     1     140.369  74.992 220.332 -0.12 -0.05    +0.206 C  
DOCKED: BRANCH  17  18
DOCKED: ATOM     18  O   UNL     1     139.188  74.595 219.705 +0.01 +0.11    -0.494 OA 
DOCKED: ATOM     19  H   UNL     1     138.552  73.929 220.131 +0.05 -0.06    +0.295 HD 
DOCKED: ENDBRANCH  17  18
DOCKED: BRANCH  17  20
DOCKED: ATOM     20  N   UNL     1     141.437  75.525 219.536 -0.05 +0.12    -0.335 N  
DOCKED: ATOM     21  C   UNL     1     141.553  76.985 219.435 -0.19 -0.06    +0.120 C  
DOCKED: ATOM     22  C   UNL     1     142.299  74.605 218.770 -0.12 -0.04    +0.115 C  
DOCKED: ATOM     23  C   UNL     1     142.923  77.392 218.908 -0.28 -0.02    +0.022 C  
DOCKED: ATOM     24  C   UNL     1     142.808  75.254 217.456 -0.14 -0.01    +0.030 C  
DOCKED: ATOM     25  C   UNL     1     143.209  76.745 217.550 -0.27 -0.00    +0.004 C  
DOCKED: BRANCH  22  26
DOCKED: ATOM     26  C   UNL     1     143.394  74.022 219.661 -0.29 +0.01    -0.025 A  
DOCKED: ATOM     27  C   UNL     1     144.449  74.861 220.071 -0.41 -0.00    +0.006 A  
DOCKED: ATOM     28  C   UNL     1     143.419  72.668 220.061 -0.27 -0.00    +0.006 A  
DOCKED: ATOM     29  C   UNL     1     145.507  74.360 220.835 -0.53 -0.00    +0.000 A  
DOCKED: ATOM     30  C   UNL     1     144.475  72.175 220.834 -0.33 -0.00    +0.000 A  
DOCKED: ATOM     31  C   UNL     1     145.522  73.017 221.214 -0.63 -0.00    +0.000 A  
DOCKED: ENDBRANCH  22  26
DOCKED: ENDBRANCH  17  20
DOCKED: ENDBRANCH  16  17
DOCKED: ENDBRANCH   1  16
DOCKED: TORSDOF 8
DOCKED: TER
DOCKED: ENDMDL
________________________________________________________________________________


    FINAL DOCKED STATE:
    ________________________


Run:   7 / 20
Time taken for this run:   0.046s

DOCKED: MODEL        7
DOCKED: USER    Run = 7
DOCKED: USER
DOCKED: USER    Estimated Free Energy of Binding    =  -8.59 kcal/mol  [=(1)+(2)+(3)-(4)]
DOCKED: USER
DOCKED: USER    (1) Final Intermolecular Energy     = -10.97 kcal/mol
DOCKED: USER        vdW + Hbond + desolv Energy     = -10.84 kcal/mol
DOCKED: USER        Electrostatic Energy            =  -0.13 kcal/mol
DOCKED: USER        Moving Ligand-Fixed Receptor    = -10.97 kcal/mol
DOCKED: USER        Moving Ligand-Moving Receptor   =  +0.00 kcal/mol
DOCKED: USER    (2) Final Total Internal Energy     =  -2.18 kcal/mol
DOCKED: USER    (3) Torsional Free Energy           =  +2.39 kcal/mol
DOCKED: USER    (4) Unbound System's Energy         =  -2.18 kcal/mol
DOCKED: USER
DOCKED: USER
DOCKED: REMARK SMILES O/C(=N\C=C(\O)N1CCCC[C@H]1c1ccccc1)c1ccc2cc(Cl)ccc2n1
DOCKED: REMARK SMILES IDX 3 1 2 2 1 3 19 5 29 6 20 7 28 8 21 9 27 10 22 11 26 12 23 13
DOCKED: REMARK SMILES IDX 24 14 25 15 4 16 5 17 6 18 7 20 8 21 12 22 9 23 11 24 10 25
DOCKED: REMARK SMILES IDX 13 26 14 27 18 28 15 29 17 30 16 31
DOCKED: REMARK H PARENT 1 4 6 19
DOCKED: USER                              x       y       z     vdW  Elec       q    Type
DOCKED: USER                           _______ _______ _______ _____ _____    ______ ____
DOCKED: ROOT
DOCKED: ATOM      1  N   UNL     1     139.483  71.935 221.304 -0.09 +0.04    -0.215 NA 
DOCKED: ENDROOT
DOCKED: BRANCH   1   2
DOCKED: ATOM      2  C   UNL     1     138.769  71.956 222.392 -0.15 -0.06    +0.237 C  
DOCKED: BRANCH   2   3
DOCKED: ATOM      3  O   UNL     1     137.659  72.794 222.541 -0.02 +0.18    -0.492 OA 
DOCKED: ATOM      4  H   UNL     1     137.717  73.765 222.805 -0.46 -0.16    +0.295 HD 
DOCKED: ENDBRANCH   2   3
DOCKED: BRANCH   2   5
DOCKED: ATOM      5  C   UNL     1     139.134  71.034 223.482 -0.26 -0.03    +0.126 A  
DOCKED: ATOM      6  N   UNL     1     139.693  71.537 224.619 -0.24 +0.06    -0.243 NA 
DOCKED: ATOM      7  C   UNL     1     138.947  69.648 223.359 -0.24 -0.01    +0.035 A  
DOCKED: ATOM      8  C   UNL     1     140.083  70.740 225.649 -0.48 -0.01    +0.071 A  
DOCKED: ATOM      9  C   UNL     1     139.335  68.803 224.401 -0.31 -0.00    +0.013 A  
DOCKED: ATOM     10  C   UNL     1     140.661  71.302 226.791 -0.67 -0.01    +0.030 A  
DOCKED: ATOM     11  C   UNL     1     139.909  69.342 225.560 -0.45 -0.00    +0.002 A  
DOCKED: ATOM     12  C   UNL     1     141.072  70.479 227.844 -0.62 -0.00    +0.023 A  
DOCKED: ATOM     13  C   UNL     1     140.316  68.522 226.624 -0.60 -0.01    +0.030 A  
DOCKED: ATOM     14  C   UNL     1     140.899  69.091 227.762 -0.59 -0.01    +0.041 A  
DOCKED: ATOM     15  Cl  UNL     1     141.409  68.066 229.092 -0.43 +0.02    -0.084 Cl 
DOCKED: ENDBRANCH   2   5
DOCKED: ENDBRANCH   1   2
DOCKED: BRANCH   1  16
DOCKED: ATOM     16  C   UNL     1     140.669  72.685 221.017 -0.16 -0.03    +0.181 C  
DOCKED: BRANCH  16  17
DOCKED: ATOM     17  C   UNL     1     140.683  74.002 221.247 -0.21 -0.03    +0.206 C  
DOCKED: BRANCH  17  18
DOCKED: ATOM     18  O   UNL     1     139.931  74.550 222.287 -0.69 +0.02    -0.494 OA 
DOCKED: ATOM     19  H   UNL     1     139.258  73.999 222.809 -0.44 -0.09    +0.295 HD 
DOCKED: ENDBRANCH  17  18
DOCKED: BRANCH  17  20
DOCKED: ATOM     20  N   UNL     1     141.466  74.874 220.418 -0.10 +0.10    -0.335 N  
DOCKED: ATOM     21  C   UNL     1     141.399  76.315 220.686 -0.24 -0.05    +0.120 C  
DOCKED: ATOM     22  C   UNL     1     142.210  74.311 219.275 -0.14 -0.03    +0.115 C  
DOCKED: ATOM     23  C   UNL     1     142.552  77.052 220.015 -0.27 -0.02    +0.022 C  
DOCKED: ATOM     24  C   UNL     1     142.316  75.324 218.104 -0.14 -0.01    +0.030 C  
DOCKED: ATOM     25  C   UNL     1     142.569  76.796 218.505 -0.30 -0.00    +0.004 C  
DOCKED: BRANCH  22  26
DOCKED: ATOM     26  C   UNL     1     143.542  73.723 219.735 -0.29 +0.01    -0.025 A  
DOCKED: ATOM     27  C   UNL     1     144.437  74.549 220.443 -0.47 -0.00    +0.006 A  
DOCKED: ATOM     28  C   UNL     1     143.937  72.398 219.447 -0.24 -0.00    +0.006 A  
DOCKED: ATOM     29  C   UNL     1     145.694  74.077 220.831 -0.64 -0.00    +0.000 A  
DOCKED: ATOM     30  C   UNL     1     145.192  71.927 219.847 -0.35 +0.00    +0.000 A  
DOCKED: ATOM     31  C   UNL     1     146.073  72.767 220.531 -0.55 +0.00    +0.000 A  
DOCKED: ENDBRANCH  22  26
DOCKED: ENDBRANCH  17  20
DOCKED: ENDBRANCH  16  17
DOCKED: ENDBRANCH   1  16
DOCKED: TORSDOF 8
DOCKED: TER
DOCKED: ENDMDL
________________________________________________________________________________


    FINAL DOCKED STATE:
    ________________________


Run:   8 / 20
Time taken for this run:   0.046s

DOCKED: MODEL        8
DOCKED: USER    Run = 8
DOCKED: USER
DOCKED: USER    Estimated Free Energy of Binding    =  -6.66 kcal/mol  [=(1)+(2)+(3)-(4)]
DOCKED: USER
DOCKED: USER    (1) Final Intermolecular Energy     =  -9.05 kcal/mol
DOCKED: USER        vdW + Hbond + desolv Energy     =  -8.91 kcal/mol
DOCKED: USER        Electrostatic Energy            =  -0.13 kcal/mol
DOCKED: USER        Moving Ligand-Fixed Receptor    =  -9.05 kcal/mol
DOCKED: USER        Moving Ligand-Moving Receptor   =  +0.00 kcal/mol
DOCKED: USER    (2) Final Total Internal Energy     =  -2.97 kcal/mol
DOCKED: USER    (3) Torsional Free Energy           =  +2.39 kcal/mol
DOCKED: USER    (4) Unbound System's Energy         =  -2.97 kcal/mol
DOCKED: USER
DOCKED: USER
DOCKED: REMARK SMILES O/C(=N\C=C(\O)N1CCCC[C@H]1c1ccccc1)c1ccc2cc(Cl)ccc2n1
DOCKED: REMARK SMILES IDX 3 1 2 2 1 3 19 5 29 6 20 7 28 8 21 9 27 10 22 11 26 12 23 13
DOCKED: REMARK SMILES IDX 24 14 25 15 4 16 5 17 6 18 7 20 8 21 12 22 9 23 11 24 10 25
DOCKED: REMARK SMILES IDX 13 26 14 27 18 28 15 29 17 30 16 31
DOCKED: REMARK H PARENT 1 4 6 19
DOCKED: USER                              x       y       z     vdW  Elec       q    Type
DOCKED: USER                           _______ _______ _______ _____ _____    ______ ____
DOCKED: ROOT
DOCKED: ATOM      1  N   UNL     1     141.282  75.858 221.349 -0.23 +0.08    -0.215 NA 
DOCKED: ENDROOT
DOCKED: BRANCH   1   2
DOCKED: ATOM      2  C   UNL     1     140.183  75.516 221.956 -0.22 -0.04    +0.237 C  
DOCKED: BRANCH   2   3
DOCKED: ATOM      3  O   UNL     1     139.919  74.196 222.335 -0.74 +0.02    -0.492 OA 
DOCKED: ATOM      4  H   UNL     1     139.129  73.918 222.898 -0.47 -0.11    +0.295 HD 
DOCKED: ENDBRANCH   2   3
DOCKED: BRANCH   2   5
DOCKED: ATOM      5  C   UNL     1     139.207  76.572 222.279 -0.28 -0.03    +0.126 A  
DOCKED: ATOM      6  N   UNL     1     139.644  77.726 222.859 -0.14 +0.05    -0.243 NA 
DOCKED: ATOM      7  C   UNL     1     137.836  76.401 222.030 -0.23 -0.01    +0.035 A  
DOCKED: ATOM      8  C   UNL     1     138.795  78.726 223.213 -0.25 -0.01    +0.071 A  
DOCKED: ATOM      9  C   UNL     1     136.938  77.413 222.380 -0.19 -0.00    +0.013 A  
DOCKED: ATOM     10  C   UNL     1     139.291  79.887 223.815 -0.42 -0.00    +0.030 A  
DOCKED: ATOM     11  C   UNL     1     137.410  78.589 222.977 -0.19 -0.00    +0.002 A  
DOCKED: ATOM     12  C   UNL     1     138.413  80.910 224.188 -0.39 -0.00    +0.023 A  
DOCKED: ATOM     13  C   UNL     1     136.535  79.623 223.347 -0.19 -0.00    +0.030 A  
DOCKED: ATOM     14  C   UNL     1     137.038  80.779 223.954 -0.27 -0.00    +0.041 A  
DOCKED: ATOM     15  Cl  UNL     1     135.945  82.072 224.417 -0.24 +0.01    -0.084 Cl 
DOCKED: ENDBRANCH   2   5
DOCKED: ENDBRANCH   1   2
DOCKED: BRANCH   1  16
DOCKED: ATOM     16  C   UNL     1     141.483  76.069 219.947 -0.17 -0.07    +0.181 C  
DOCKED: BRANCH  16  17
DOCKED: ATOM     17  C   UNL     1     141.879  77.272 219.515 -0.20 -0.11    +0.206 C  
DOCKED: BRANCH  17  18
DOCKED: ATOM     18  O   UNL     1     143.165  77.455 219.007 -0.13 +0.39    -0.494 OA 
DOCKED: ATOM     19  H   UNL     1     143.983  77.461 219.606 -0.41 -0.32    +0.295 HD 
DOCKED: ENDBRANCH  17  18
DOCKED: BRANCH  17  20
DOCKED: ATOM     20  N   UNL     1     140.986  78.394 219.579 -0.06 +0.15    -0.335 N  
DOCKED: ATOM     21  C   UNL     1     139.559  78.147 219.346 -0.05 -0.04    +0.120 C  
DOCKED: ATOM     22  C   UNL     1     141.539  79.750 219.763 -0.24 -0.06    +0.115 C  
DOCKED: ATOM     23  C   UNL     1     138.713  79.318 219.828 -0.06 -0.01    +0.022 C  
DOCKED: ATOM     24  C   UNL     1     140.670  80.824 219.058 -0.16 -0.01    +0.030 C  
DOCKED: ATOM     25  C   UNL     1     139.140  80.625 219.152 -0.06 -0.00    +0.004 C  
DOCKED: BRANCH  22  26
DOCKED: ATOM     26  C   UNL     1     141.820  80.022 221.239 -0.39 +0.01    -0.025 A  
DOCKED: ATOM     27  C   UNL     1     141.652  81.333 221.728 -0.43 -0.00    +0.006 A  
DOCKED: ATOM     28  C   UNL     1     142.281  79.028 222.130 -0.44 -0.00    +0.006 A  
DOCKED: ATOM     29  C   UNL     1     141.957  81.647 223.056 -0.48 -0.00    +0.000 A  
DOCKED: ATOM     30  C   UNL     1     142.574  79.346 223.460 -0.56 -0.00    +0.000 A  
DOCKED: ATOM     31  C   UNL     1     142.420  80.654 223.921 -0.64 -0.00    +0.000 A  
DOCKED: ENDBRANCH  22  26
DOCKED: ENDBRANCH  17  20
DOCKED: ENDBRANCH  16  17
DOCKED: ENDBRANCH   1  16
DOCKED: TORSDOF 8
DOCKED: TER
DOCKED: ENDMDL
________________________________________________________________________________


    FINAL DOCKED STATE:
    ________________________


Run:   9 / 20
Time taken for this run:   0.046s

DOCKED: MODEL        9
DOCKED: USER    Run = 9
DOCKED: USER
DOCKED: USER    Estimated Free Energy of Binding    =  -8.43 kcal/mol  [=(1)+(2)+(3)-(4)]
DOCKED: USER
DOCKED: USER    (1) Final Intermolecular Energy     = -10.81 kcal/mol
DOCKED: USER        vdW + Hbond + desolv Energy     = -10.72 kcal/mol
DOCKED: USER        Electrostatic Energy            =  -0.09 kcal/mol
DOCKED: USER        Moving Ligand-Fixed Receptor    = -10.81 kcal/mol
DOCKED: USER        Moving Ligand-Moving Receptor   =  +0.00 kcal/mol
DOCKED: USER    (2) Final Total Internal Energy     =  -2.51 kcal/mol
DOCKED: USER    (3) Torsional Free Energy           =  +2.39 kcal/mol
DOCKED: USER    (4) Unbound System's Energy         =  -2.51 kcal/mol
DOCKED: USER
DOCKED: USER
DOCKED: REMARK SMILES O/C(=N\C=C(\O)N1CCCC[C@H]1c1ccccc1)c1ccc2cc(Cl)ccc2n1
DOCKED: REMARK SMILES IDX 3 1 2 2 1 3 19 5 29 6 20 7 28 8 21 9 27 10 22 11 26 12 23 13
DOCKED: REMARK SMILES IDX 24 14 25 15 4 16 5 17 6 18 7 20 8 21 12 22 9 23 11 24 10 25
DOCKED: REMARK SMILES IDX 13 26 14 27 18 28 15 29 17 30 16 31
DOCKED: REMARK H PARENT 1 4 6 19
DOCKED: USER                              x       y       z     vdW  Elec       q    Type
DOCKED: USER                           _______ _______ _______ _____ _____    ______ ____
DOCKED: ROOT
DOCKED: ATOM      1  N   UNL     1     139.557  71.989 221.282 -0.09 +0.04    -0.215 NA 
DOCKED: ENDROOT
DOCKED: BRANCH   1   2
DOCKED: ATOM      2  C   UNL     1     138.790  72.017 222.333 -0.15 -0.06    +0.237 C  
DOCKED: BRANCH   2   3
DOCKED: ATOM      3  O   UNL     1     137.675  72.857 222.422 -0.04 +0.17    -0.492 OA 
DOCKED: ATOM      4  H   UNL     1     137.708  73.802 222.771 -0.46 -0.16    +0.295 HD 
DOCKED: ENDBRANCH   2   3
DOCKED: BRANCH   2   5
DOCKED: ATOM      5  C   UNL     1     139.098  71.100 223.445 -0.26 -0.03    +0.126 A  
DOCKED: ATOM      6  N   UNL     1     139.750  71.580 224.542 -0.23 +0.06    -0.243 NA 
DOCKED: ATOM      7  C   UNL     1     138.762  69.739 223.383 -0.24 -0.01    +0.035 A  
DOCKED: ATOM      8  C   UNL     1     140.095  70.783 225.587 -0.48 -0.01    +0.071 A  
DOCKED: ATOM      9  C   UNL     1     139.099  68.894 224.444 -0.35 -0.00    +0.013 A  
DOCKED: ATOM     10  C   UNL     1     140.773  71.321 226.685 -0.67 -0.00    +0.030 A  
DOCKED: ATOM     11  C   UNL     1     139.772  69.409 225.560 -0.45 -0.00    +0.002 A  
DOCKED: ATOM     12  C   UNL     1     141.136  70.496 227.755 -0.57 -0.00    +0.023 A  
DOCKED: ATOM     13  C   UNL     1     140.132  68.588 226.640 -0.58 -0.01    +0.030 A  
DOCKED: ATOM     14  C   UNL     1     140.815  69.132 227.733 -0.59 -0.01    +0.041 A  
DOCKED: ATOM     15  Cl  UNL     1     141.266  68.106 229.084 -0.45 +0.02    -0.084 Cl 
DOCKED: ENDBRANCH   2   5
DOCKED: ENDBRANCH   1   2
DOCKED: BRANCH   1  16
DOCKED: ATOM     16  C   UNL     1     140.022  73.097 220.504 -0.10 -0.03    +0.181 C  
DOCKED: BRANCH  16  17
DOCKED: ATOM     17  C   UNL     1     140.277  74.262 221.110 -0.19 -0.04    +0.206 C  
DOCKED: BRANCH  17  18
DOCKED: ATOM     18  O   UNL     1     139.716  74.553 222.354 -0.67 +0.04    -0.494 OA 
DOCKED: ATOM     19  H   UNL     1     139.504  73.827 223.030 -0.42 -0.06    +0.295 HD 
DOCKED: ENDBRANCH  17  18
DOCKED: BRANCH  17  20
DOCKED: ATOM     20  N   UNL     1     141.126  75.235 220.482 -0.10 +0.10    -0.335 N  
DOCKED: ATOM     21  C   UNL     1     140.965  76.639 220.876 -0.24 -0.05    +0.120 C  
DOCKED: ATOM     22  C   UNL     1     142.037  74.811 219.402 -0.16 -0.04    +0.115 C  
DOCKED: ATOM     23  C   UNL     1     142.164  77.472 220.441 -0.24 -0.02    +0.022 C  
DOCKED: ATOM     24  C   UNL     1     142.254  75.939 218.359 -0.19 -0.01    +0.030 C  
DOCKED: ATOM     25  C   UNL     1     142.391  77.370 218.930 -0.32 -0.00    +0.004 C  
DOCKED: BRANCH  22  26
DOCKED: ATOM     26  C   UNL     1     143.320  74.217 219.979 -0.32 +0.01    -0.025 A  
DOCKED: ATOM     27  C   UNL     1     143.352  72.840 220.276 -0.30 -0.00    +0.006 A  
DOCKED: ATOM     28  C   UNL     1     144.464  74.993 220.267 -0.35 -0.00    +0.006 A  
DOCKED: ATOM     29  C   UNL     1     144.480  72.261 220.864 -0.36 -0.00    +0.000 A  
DOCKED: ATOM     30  C   UNL     1     145.594  74.406 220.845 -0.52 -0.00    +0.000 A  
DOCKED: ATOM     31  C   UNL     1     145.600  73.044 221.151 -0.64 -0.00    +0.000 A  
DOCKED: ENDBRANCH  22  26
DOCKED: ENDBRANCH  17  20
DOCKED: ENDBRANCH  16  17
DOCKED: ENDBRANCH   1  16
DOCKED: TORSDOF 8
DOCKED: TER
DOCKED: ENDMDL
________________________________________________________________________________


    FINAL DOCKED STATE:
    ________________________


Run:   10 / 20
Time taken for this run:   0.046s

DOCKED: MODEL        10
DOCKED: USER    Run = 10
DOCKED: USER
DOCKED: USER    Estimated Free Energy of Binding    =  -8.42 kcal/mol  [=(1)+(2)+(3)-(4)]
DOCKED: USER
DOCKED: USER    (1) Final Intermolecular Energy     = -10.80 kcal/mol
DOCKED: USER        vdW + Hbond + desolv Energy     = -10.73 kcal/mol
DOCKED: USER        Electrostatic Energy            =  -0.07 kcal/mol
DOCKED: USER        Moving Ligand-Fixed Receptor    = -10.80 kcal/mol
DOCKED: USER        Moving Ligand-Moving Receptor   =  +0.00 kcal/mol
DOCKED: USER    (2) Final Total Internal Energy     =  -1.75 kcal/mol
DOCKED: USER    (3) Torsional Free Energy           =  +2.39 kcal/mol
DOCKED: USER    (4) Unbound System's Energy         =  -1.75 kcal/mol
DOCKED: USER
DOCKED: USER
DOCKED: REMARK SMILES O/C(=N\C=C(\O)N1CCCC[C@H]1c1ccccc1)c1ccc2cc(Cl)ccc2n1
DOCKED: REMARK SMILES IDX 3 1 2 2 1 3 19 5 29 6 20 7 28 8 21 9 27 10 22 11 26 12 23 13
DOCKED: REMARK SMILES IDX 24 14 25 15 4 16 5 17 6 18 7 20 8 21 12 22 9 23 11 24 10 25
DOCKED: REMARK SMILES IDX 13 26 14 27 18 28 15 29 17 30 16 31
DOCKED: REMARK H PARENT 1 4 6 19
DOCKED: USER                              x       y       z     vdW  Elec       q    Type
DOCKED: USER                           _______ _______ _______ _____ _____    ______ ____
DOCKED: ROOT
DOCKED: ATOM      1  N   UNL     1     140.880  73.713 221.958 -0.66 +0.01    -0.215 NA 
DOCKED: ENDROOT
DOCKED: BRANCH   1   2
DOCKED: ATOM      2  C   UNL     1     139.819  72.977 222.128 -0.19 -0.04    +0.237 C  
DOCKED: BRANCH   2   3
DOCKED: ATOM      3  O   UNL     1     138.668  73.134 221.349 -0.05 +0.11    -0.492 OA 
DOCKED: ATOM      4  H   UNL     1     137.999  72.399 221.178 +0.05 -0.06    +0.295 HD 
DOCKED: ENDBRANCH   2   3
DOCKED: BRANCH   2   5
DOCKED: ATOM      5  C   UNL     1     139.860  71.924 223.158 -0.29 -0.02    +0.126 A  
DOCKED: ATOM      6  N   UNL     1     140.354  72.220 224.393 -0.06 +0.04    -0.243 NA 
DOCKED: ATOM      7  C   UNL     1     139.432  70.616 222.881 -0.24 -0.01    +0.035 A  
DOCKED: ATOM      8  C   UNL     1     140.451  71.288 225.378 -0.50 -0.01    +0.071 A  
DOCKED: ATOM      9  C   UNL     1     139.516  69.636 223.873 -0.28 -0.00    +0.013 A  
DOCKED: ATOM     10  C   UNL     1     140.974  71.638 226.626 -0.70 -0.00    +0.030 A  
DOCKED: ATOM     11  C   UNL     1     140.029  69.963 225.136 -0.43 -0.00    +0.002 A  
DOCKED: ATOM     12  C   UNL     1     141.083  70.675 227.634 -0.63 -0.00    +0.023 A  
DOCKED: ATOM     13  C   UNL     1     140.134  69.002 226.153 -0.51 -0.01    +0.030 A  
DOCKED: ATOM     14  C   UNL     1     140.664  69.359 227.399 -0.58 -0.01    +0.041 A  
DOCKED: ATOM     15  Cl  UNL     1     140.795  68.158 228.672 -0.66 +0.02    -0.084 Cl 
DOCKED: ENDBRANCH   2   5
DOCKED: ENDBRANCH   1   2
DOCKED: BRANCH   1  16
DOCKED: ATOM     16  C   UNL     1     140.957  75.022 221.385 -0.25 -0.04    +0.181 C  
DOCKED: BRANCH  16  17
DOCKED: ATOM     17  C   UNL     1     140.276  76.026 221.948 -0.28 -0.05    +0.206 C  
DOCKED: BRANCH  17  18
DOCKED: ATOM     18  O   UNL     1     139.098  75.778 222.652 -0.27 +0.10    -0.494 OA 
DOCKED: ATOM     19  H   UNL     1     138.714  74.843 222.742 -0.42 -0.11    +0.295 HD 
DOCKED: ENDBRANCH  17  18
DOCKED: BRANCH  17  20
DOCKED: ATOM     20  N   UNL     1     140.746  77.377 221.829 -0.17 +0.12    -0.335 N  
DOCKED: ATOM     21  C   UNL     1     141.385  77.770 220.567 -0.25 -0.06    +0.120 C  
DOCKED: ATOM     22  C   UNL     1     140.673  78.276 222.997 -0.36 -0.03    +0.115 C  
DOCKED: ATOM     23  C   UNL     1     141.465  79.287 220.441 -0.30 -0.01    +0.022 C  
DOCKED: ATOM     24  C   UNL     1     141.833  79.306 223.002 -0.57 -0.01    +0.030 C  
DOCKED: ATOM     25  C   UNL     1     142.214  79.902 221.627 -0.42 -0.00    +0.004 C  
DOCKED: BRANCH  22  26
DOCKED: ATOM     26  C   UNL     1     139.278  78.883 223.125 -0.34 +0.00    -0.025 A  
DOCKED: ATOM     27  C   UNL     1     139.088  79.958 224.016 -0.40 -0.00    +0.006 A  
DOCKED: ATOM     28  C   UNL     1     138.158  78.389 222.421 -0.23 -0.00    +0.006 A  
DOCKED: ATOM     29  C   UNL     1     137.818  80.507 224.216 -0.37 -0.00    +0.000 A  
DOCKED: ATOM     30  C   UNL     1     136.891  78.949 222.617 -0.17 -0.00    +0.000 A  
DOCKED: ATOM     31  C   UNL     1     136.719  80.001 223.518 -0.22 -0.00    +0.000 A  
DOCKED: ENDBRANCH  22  26
DOCKED: ENDBRANCH  17  20
DOCKED: ENDBRANCH  16  17
DOCKED: ENDBRANCH   1  16
DOCKED: TORSDOF 8
DOCKED: TER
DOCKED: ENDMDL
________________________________________________________________________________


    FINAL DOCKED STATE:
    ________________________


Run:   11 / 20
Time taken for this run:   0.046s

DOCKED: MODEL        11
DOCKED: USER    Run = 11
DOCKED: USER
DOCKED: USER    Estimated Free Energy of Binding    =  -6.25 kcal/mol  [=(1)+(2)+(3)-(4)]
DOCKED: USER
DOCKED: USER    (1) Final Intermolecular Energy     =  -8.64 kcal/mol
DOCKED: USER        vdW + Hbond + desolv Energy     =  -8.41 kcal/mol
DOCKED: USER        Electrostatic Energy            =  -0.23 kcal/mol
DOCKED: USER        Moving Ligand-Fixed Receptor    =  -8.64 kcal/mol
DOCKED: USER        Moving Ligand-Moving Receptor   =  +0.00 kcal/mol
DOCKED: USER    (2) Final Total Internal Energy     =  -3.46 kcal/mol
DOCKED: USER    (3) Torsional Free Energy           =  +2.39 kcal/mol
DOCKED: USER    (4) Unbound System's Energy         =  -3.46 kcal/mol
DOCKED: USER
DOCKED: USER
DOCKED: REMARK SMILES O/C(=N\C=C(\O)N1CCCC[C@H]1c1ccccc1)c1ccc2cc(Cl)ccc2n1
DOCKED: REMARK SMILES IDX 3 1 2 2 1 3 19 5 29 6 20 7 28 8 21 9 27 10 22 11 26 12 23 13
DOCKED: REMARK SMILES IDX 24 14 25 15 4 16 5 17 6 18 7 20 8 21 12 22 9 23 11 24 10 25
DOCKED: REMARK SMILES IDX 13 26 14 27 18 28 15 29 17 30 16 31
DOCKED: REMARK H PARENT 1 4 6 19
DOCKED: USER                              x       y       z     vdW  Elec       q    Type
DOCKED: USER                           _______ _______ _______ _____ _____    ______ ____
DOCKED: ROOT
DOCKED: ATOM      1  N   UNL     1     137.849  74.335 220.608 -0.04 +0.05    -0.215 NA 
DOCKED: ENDROOT
DOCKED: BRANCH   1   2
DOCKED: ATOM      2  C   UNL     1     137.585  74.912 221.745 -0.12 -0.06    +0.237 C  
DOCKED: BRANCH   2   3
DOCKED: ATOM      3  O   UNL     1     136.780  74.311 222.718 -0.05 +0.18    -0.492 OA 
DOCKED: ATOM      4  H   UNL     1     137.131  73.705 223.444 -0.45 -0.20    +0.295 HD 
DOCKED: ENDBRANCH   2   3
DOCKED: BRANCH   2   5
DOCKED: ATOM      5  C   UNL     1     138.190  76.228 222.015 -0.22 -0.03    +0.126 A  
DOCKED: ATOM      6  N   UNL     1     139.493  76.292 222.410 -0.26 +0.05    -0.243 NA 
DOCKED: ATOM      7  C   UNL     1     137.443  77.411 221.905 -0.17 -0.01    +0.035 A  
DOCKED: ATOM      8  C   UNL     1     140.104  77.469 222.708 -0.31 -0.02    +0.071 A  
DOCKED: ATOM      9  C   UNL     1     138.043  78.638 222.201 -0.20 -0.00    +0.013 A  
DOCKED: ATOM     10  C   UNL     1     141.440  77.482 223.119 -0.24 -0.01    +0.030 A  
DOCKED: ATOM     11  C   UNL     1     139.384  78.680 222.607 -0.32 -0.00    +0.002 A  
DOCKED: ATOM     12  C   UNL     1     142.062  78.694 223.435 -0.53 -0.01    +0.023 A  
DOCKED: ATOM     13  C   UNL     1     140.016  79.893 222.918 -0.37 -0.01    +0.030 A  
DOCKED: ATOM     14  C   UNL     1     141.352  79.898 223.334 -0.52 -0.01    +0.041 A  
DOCKED: ATOM     15  Cl  UNL     1     142.144  81.415 223.724 -0.66 +0.01    -0.084 Cl 
DOCKED: ENDBRANCH   2   5
DOCKED: ENDBRANCH   1   2
DOCKED: BRANCH   1  16
DOCKED: ATOM     16  C   UNL     1     138.987  73.531 220.275 -0.06 -0.04    +0.181 C  
DOCKED: BRANCH  16  17
DOCKED: ATOM     17  C   UNL     1     140.072  73.577 221.054 -0.16 -0.04    +0.206 C  
DOCKED: BRANCH  17  18
DOCKED: ATOM     18  O   UNL     1     139.948  73.643 222.442 -0.71 +0.03    -0.494 OA 
DOCKED: ATOM     19  H   UNL     1     139.187  74.143 222.889 -0.48 -0.10    +0.295 HD 
DOCKED: ENDBRANCH  17  18
DOCKED: BRANCH  17  20
DOCKED: ATOM     20  N   UNL     1     141.384  73.568 220.471 -0.08 +0.06    -0.335 N  
DOCKED: ATOM     21  C   UNL     1     141.765  72.404 219.663 -0.10 -0.02    +0.120 C  
DOCKED: ATOM     22  C   UNL     1     142.326  74.658 220.790 -0.22 -0.04    +0.115 C  
DOCKED: ATOM     23  C   UNL     1     142.989  72.707 218.807 -0.11 -0.00    +0.022 C  
DOCKED: ATOM     24  C   UNL     1     143.797  74.165 220.785 -0.27 -0.01    +0.030 C  
DOCKED: ATOM     25  C   UNL     1     144.170  73.162 219.669 -0.33 -0.00    +0.004 C  
DOCKED: BRANCH  22  26
DOCKED: ATOM     26  C   UNL     1     142.057  75.878 219.912 -0.27 +0.01    -0.025 A  
DOCKED: ATOM     27  C   UNL     1     143.155  76.567 219.358 -0.39 -0.00    +0.006 A  
DOCKED: ATOM     28  C   UNL     1     140.759  76.374 219.662 -0.14 -0.00    +0.006 A  
DOCKED: ATOM     29  C   UNL     1     142.965  77.726 218.600 -0.30 -0.00    +0.000 A  
DOCKED: ATOM     30  C   UNL     1     140.574  77.528 218.893 -0.11 -0.00    +0.000 A  
DOCKED: ATOM     31  C   UNL     1     141.675  78.208 218.370 -0.22 -0.00    +0.000 A  
DOCKED: ENDBRANCH  22  26
DOCKED: ENDBRANCH  17  20
DOCKED: ENDBRANCH  16  17
DOCKED: ENDBRANCH   1  16
DOCKED: TORSDOF 8
DOCKED: TER
DOCKED: ENDMDL
________________________________________________________________________________


    FINAL DOCKED STATE:
    ________________________


Run:   12 / 20
Time taken for this run:   0.046s

DOCKED: MODEL        12
DOCKED: USER    Run = 12
DOCKED: USER
DOCKED: USER    Estimated Free Energy of Binding    =  -7.39 kcal/mol  [=(1)+(2)+(3)-(4)]
DOCKED: USER
DOCKED: USER    (1) Final Intermolecular Energy     =  -9.77 kcal/mol
DOCKED: USER        vdW + Hbond + desolv Energy     =  -9.76 kcal/mol
DOCKED: USER        Electrostatic Energy            =  -0.01 kcal/mol
DOCKED: USER        Moving Ligand-Fixed Receptor    =  -9.77 kcal/mol
DOCKED: USER        Moving Ligand-Moving Receptor   =  +0.00 kcal/mol
DOCKED: USER    (2) Final Total Internal Energy     =  -2.61 kcal/mol
DOCKED: USER    (3) Torsional Free Energy           =  +2.39 kcal/mol
DOCKED: USER    (4) Unbound System's Energy         =  -2.61 kcal/mol
DOCKED: USER
DOCKED: USER
DOCKED: REMARK SMILES O/C(=N\C=C(\O)N1CCCC[C@H]1c1ccccc1)c1ccc2cc(Cl)ccc2n1
DOCKED: REMARK SMILES IDX 3 1 2 2 1 3 19 5 29 6 20 7 28 8 21 9 27 10 22 11 26 12 23 13
DOCKED: REMARK SMILES IDX 24 14 25 15 4 16 5 17 6 18 7 20 8 21 12 22 9 23 11 24 10 25
DOCKED: REMARK SMILES IDX 13 26 14 27 18 28 15 29 17 30 16 31
DOCKED: REMARK H PARENT 1 4 6 19
DOCKED: USER                              x       y       z     vdW  Elec       q    Type
DOCKED: USER                           _______ _______ _______ _____ _____    ______ ____
DOCKED: ROOT
DOCKED: ATOM      1  N   UNL     1     139.914  73.512 222.356 -0.77 +0.02    -0.215 NA 
DOCKED: ENDROOT
DOCKED: BRANCH   1   2
DOCKED: ATOM      2  C   UNL     1     139.314  72.360 222.277 -0.18 -0.05    +0.237 C  
DOCKED: BRANCH   2   3
DOCKED: ATOM      3  O   UNL     1     138.517  72.006 221.183 -0.01 +0.10    -0.492 OA 
DOCKED: ATOM      4  H   UNL     1     138.880  71.802 220.264 +0.05 -0.05    +0.295 HD 
DOCKED: ENDBRANCH   2   3
DOCKED: BRANCH   2   5
DOCKED: ATOM      5  C   UNL     1     139.518  71.392 223.369 -0.29 -0.03    +0.126 A  
DOCKED: ATOM      6  N   UNL     1     140.059  71.820 224.545 -0.22 +0.05    -0.243 NA 
DOCKED: ATOM      7  C   UNL     1     139.197  70.034 223.211 -0.24 -0.01    +0.035 A  
DOCKED: ATOM      8  C   UNL     1     140.304  70.975 225.580 -0.50 -0.01    +0.071 A  
DOCKED: ATOM      9  C   UNL     1     139.434  69.141 224.258 -0.29 -0.00    +0.013 A  
DOCKED: ATOM     10  C   UNL     1     140.871  71.460 226.763 -0.69 -0.00    +0.030 A  
DOCKED: ATOM     11  C   UNL     1     139.993  69.603 225.457 -0.44 -0.00    +0.002 A  
DOCKED: ATOM     12  C   UNL     1     141.133  70.586 227.822 -0.59 -0.00    +0.023 A  
DOCKED: ATOM     13  C   UNL     1     140.252  68.732 226.527 -0.57 -0.01    +0.030 A  
DOCKED: ATOM     14  C   UNL     1     140.823  69.224 227.706 -0.58 -0.01    +0.041 A  
DOCKED: ATOM     15  Cl  UNL     1     141.147  68.136 229.044 -0.49 +0.02    -0.084 Cl 
DOCKED: ENDBRANCH   2   5
DOCKED: ENDBRANCH   1   2
DOCKED: BRANCH   1  16
DOCKED: ATOM     16  C   UNL     1     141.018  73.983 221.574 -0.21 -0.02    +0.181 C  
DOCKED: BRANCH  16  17
DOCKED: ATOM     17  C   UNL     1     140.848  74.203 220.266 -0.12 -0.05    +0.206 C  
DOCKED: BRANCH  17  18
DOCKED: ATOM     18  O   UNL     1     139.757  73.657 219.590 +0.01 +0.10    -0.494 OA 
DOCKED: ATOM     19  H   UNL     1     138.915  73.368 220.076 +0.05 -0.06    +0.295 HD 
DOCKED: ENDBRANCH  17  18
DOCKED: BRANCH  17  20
DOCKED: ATOM     20  N   UNL     1     141.793  75.000 219.537 -0.05 +0.11    -0.335 N  
DOCKED: ATOM     21  C   UNL     1     141.692  76.460 219.655 -0.20 -0.06    +0.120 C  
DOCKED: ATOM     22  C   UNL     1     142.746  74.340 218.625 -0.13 -0.03    +0.115 C  
DOCKED: ATOM     23  C   UNL     1     142.965  77.139 219.167 -0.31 -0.02    +0.022 C  
DOCKED: ATOM     24  C   UNL     1     143.099  75.242 217.413 -0.16 -0.01    +0.030 C  
DOCKED: ATOM     25  C   UNL     1     143.285  76.746 217.721 -0.27 -0.00    +0.004 C  
DOCKED: BRANCH  22  26
DOCKED: ATOM     26  C   UNL     1     143.950  73.805 219.396 -0.29 +0.01    -0.025 A  
DOCKED: ATOM     27  C   UNL     1     144.460  74.566 220.467 -0.47 -0.00    +0.006 A  
DOCKED: ATOM     28  C   UNL     1     144.604  72.599 219.060 -0.26 +0.00    +0.006 A  
DOCKED: ATOM     29  C   UNL     1     145.598  74.150 221.164 -0.51 -0.00    +0.000 A  
DOCKED: ATOM     30  C   UNL     1     145.735  72.182 219.768 -0.40 +0.00    +0.000 A  
DOCKED: ATOM     31  C   UNL     1     146.237  72.959 220.813 -0.60 +0.00    +0.000 A  
DOCKED: ENDBRANCH  22  26
DOCKED: ENDBRANCH  17  20
DOCKED: ENDBRANCH  16  17
DOCKED: ENDBRANCH   1  16
DOCKED: TORSDOF 8
DOCKED: TER
DOCKED: ENDMDL
________________________________________________________________________________


    FINAL DOCKED STATE:
    ________________________


Run:   13 / 20
Time taken for this run:   0.046s

DOCKED: MODEL        13
DOCKED: USER    Run = 13
DOCKED: USER
DOCKED: USER    Estimated Free Energy of Binding    =  -8.47 kcal/mol  [=(1)+(2)+(3)-(4)]
DOCKED: USER
DOCKED: USER    (1) Final Intermolecular Energy     = -10.86 kcal/mol
DOCKED: USER        vdW + Hbond + desolv Energy     = -10.78 kcal/mol
DOCKED: USER        Electrostatic Energy            =  -0.08 kcal/mol
DOCKED: USER        Moving Ligand-Fixed Receptor    = -10.86 kcal/mol
DOCKED: USER        Moving Ligand-Moving Receptor   =  +0.00 kcal/mol
DOCKED: USER    (2) Final Total Internal Energy     =  -2.48 kcal/mol
DOCKED: USER    (3) Torsional Free Energy           =  +2.39 kcal/mol
DOCKED: USER    (4) Unbound System's Energy         =  -2.48 kcal/mol
DOCKED: USER
DOCKED: USER
DOCKED: REMARK SMILES O/C(=N\C=C(\O)N1CCCC[C@H]1c1ccccc1)c1ccc2cc(Cl)ccc2n1
DOCKED: REMARK SMILES IDX 3 1 2 2 1 3 19 5 29 6 20 7 28 8 21 9 27 10 22 11 26 12 23 13
DOCKED: REMARK SMILES IDX 24 14 25 15 4 16 5 17 6 18 7 20 8 21 12 22 9 23 11 24 10 25
DOCKED: REMARK SMILES IDX 13 26 14 27 18 28 15 29 17 30 16 31
DOCKED: REMARK H PARENT 1 4 6 19
DOCKED: USER                              x       y       z     vdW  Elec       q    Type
DOCKED: USER                           _______ _______ _______ _____ _____    ______ ____
DOCKED: ROOT
DOCKED: ATOM      1  N   UNL     1     139.386  71.873 221.241 -0.08 +0.04    -0.215 NA 
DOCKED: ENDROOT
DOCKED: BRANCH   1   2
DOCKED: ATOM      2  C   UNL     1     138.711  71.966 222.350 -0.14 -0.06    +0.237 C  
DOCKED: BRANCH   2   3
DOCKED: ATOM      3  O   UNL     1     137.657  72.871 222.510 -0.02 +0.18    -0.492 OA 
DOCKED: ATOM      4  H   UNL     1     137.781  73.850 222.715 -0.46 -0.15    +0.295 HD 
DOCKED: ENDBRANCH   2   3
DOCKED: BRANCH   2   5
DOCKED: ATOM      5  C   UNL     1     139.059  71.055 223.455 -0.26 -0.03    +0.126 A  
DOCKED: ATOM      6  N   UNL     1     139.667  71.558 224.566 -0.23 +0.06    -0.243 NA 
DOCKED: ATOM      7  C   UNL     1     138.805  69.676 223.371 -0.24 -0.01    +0.035 A  
DOCKED: ATOM      8  C   UNL     1     140.045  70.769 225.606 -0.47 -0.01    +0.071 A  
DOCKED: ATOM      9  C   UNL     1     139.177  68.839 224.426 -0.35 -0.00    +0.013 A  
DOCKED: ATOM     10  C   UNL     1     140.676  71.331 226.720 -0.67 -0.01    +0.030 A  
DOCKED: ATOM     11  C   UNL     1     139.804  69.378 225.557 -0.45 -0.00    +0.002 A  
DOCKED: ATOM     12  C   UNL     1     141.073  70.515 227.784 -0.62 -0.00    +0.023 A  
DOCKED: ATOM     13  C   UNL     1     140.198  68.566 226.632 -0.59 -0.01    +0.030 A  
DOCKED: ATOM     14  C   UNL     1     140.834  69.135 227.741 -0.59 -0.01    +0.041 A  
DOCKED: ATOM     15  Cl  UNL     1     141.327  68.120 229.085 -0.46 +0.02    -0.084 Cl 
DOCKED: ENDBRANCH   2   5
DOCKED: ENDBRANCH   1   2
DOCKED: BRANCH   1  16
DOCKED: ATOM     16  C   UNL     1     140.483  72.686 220.810 -0.14 -0.03    +0.181 C  
DOCKED: BRANCH  16  17
DOCKED: ATOM     17  C   UNL     1     140.542  73.965 221.196 -0.20 -0.03    +0.206 C  
DOCKED: BRANCH  17  18
DOCKED: ATOM     18  O   UNL     1     139.866  74.394 222.338 -0.71 +0.03    -0.494 OA 
DOCKED: ATOM     19  H   UNL     1     139.554  73.744 223.052 -0.42 -0.05    +0.295 HD 
DOCKED: ENDBRANCH  17  18
DOCKED: BRANCH  17  20
DOCKED: ATOM     20  N   UNL     1     141.296  74.918 220.433 -0.10 +0.10    -0.335 N  
DOCKED: ATOM     21  C   UNL     1     141.137  76.339 220.762 -0.24 -0.05    +0.120 C  
DOCKED: ATOM     22  C   UNL     1     142.107  74.453 219.291 -0.14 -0.03    +0.115 C  
DOCKED: ATOM     23  C   UNL     1     142.263  77.172 220.163 -0.27 -0.01    +0.022 C  
DOCKED: ATOM     24  C   UNL     1     142.187  75.524 218.170 -0.14 -0.01    +0.030 C  
DOCKED: ATOM     25  C   UNL     1     142.341  76.988 218.644 -0.29 -0.00    +0.004 C  
DOCKED: BRANCH  22  26
DOCKED: ATOM     26  C   UNL     1     143.457  73.922 219.767 -0.30 +0.01    -0.025 A  
DOCKED: ATOM     27  C   UNL     1     143.749  72.556 219.581 -0.24 -0.00    +0.006 A  
DOCKED: ATOM     28  C   UNL     1     144.412  74.729 220.423 -0.43 -0.00    +0.006 A  
DOCKED: ATOM     29  C   UNL     1     144.944  72.008 220.056 -0.36 +0.00    +0.000 A  
DOCKED: ATOM     30  C   UNL     1     145.611  74.179 220.886 -0.60 -0.00    +0.000 A  
DOCKED: ATOM     31  C   UNL     1     145.874  72.819 220.710 -0.59 +0.00    +0.000 A  
DOCKED: ENDBRANCH  22  26
DOCKED: ENDBRANCH  17  20
DOCKED: ENDBRANCH  16  17
DOCKED: ENDBRANCH   1  16
DOCKED: TORSDOF 8
DOCKED: TER
DOCKED: ENDMDL
________________________________________________________________________________


    FINAL DOCKED STATE:
    ________________________


Run:   14 / 20
Time taken for this run:   0.046s

DOCKED: MODEL        14
DOCKED: USER    Run = 14
DOCKED: USER
DOCKED: USER    Estimated Free Energy of Binding    =  -7.29 kcal/mol  [=(1)+(2)+(3)-(4)]
DOCKED: USER
DOCKED: USER    (1) Final Intermolecular Energy     =  -9.68 kcal/mol
DOCKED: USER        vdW + Hbond + desolv Energy     =  -9.64 kcal/mol
DOCKED: USER        Electrostatic Energy            =  -0.03 kcal/mol
DOCKED: USER        Moving Ligand-Fixed Receptor    =  -9.68 kcal/mol
DOCKED: USER        Moving Ligand-Moving Receptor   =  +0.00 kcal/mol
DOCKED: USER    (2) Final Total Internal Energy     =  -2.70 kcal/mol
DOCKED: USER    (3) Torsional Free Energy           =  +2.39 kcal/mol
DOCKED: USER    (4) Unbound System's Energy         =  -2.70 kcal/mol
DOCKED: USER
DOCKED: USER
DOCKED: REMARK SMILES O/C(=N\C=C(\O)N1CCCC[C@H]1c1ccccc1)c1ccc2cc(Cl)ccc2n1
DOCKED: REMARK SMILES IDX 3 1 2 2 1 3 19 5 29 6 20 7 28 8 21 9 27 10 22 11 26 12 23 13
DOCKED: REMARK SMILES IDX 24 14 25 15 4 16 5 17 6 18 7 20 8 21 12 22 9 23 11 24 10 25
DOCKED: REMARK SMILES IDX 13 26 14 27 18 28 15 29 17 30 16 31
DOCKED: REMARK H PARENT 1 4 6 19
DOCKED: USER                              x       y       z     vdW  Elec       q    Type
DOCKED: USER                           _______ _______ _______ _____ _____    ______ ____
DOCKED: ROOT
DOCKED: ATOM      1  N   UNL     1     140.222  73.670 222.318 -0.77 +0.00    -0.215 NA 
DOCKED: ENDROOT
DOCKED: BRANCH   1   2
DOCKED: ATOM      2  C   UNL     1     139.712  72.488 222.121 -0.20 -0.04    +0.237 C  
DOCKED: BRANCH   2   3
DOCKED: ATOM      3  O   UNL     1     139.136  72.117 220.902 -0.01 +0.09    -0.492 OA 
DOCKED: ATOM      4  H   UNL     1     139.583  72.240 220.007 +0.05 -0.05    +0.295 HD 
DOCKED: ENDBRANCH   2   3
DOCKED: BRANCH   2   5
DOCKED: ATOM      5  C   UNL     1     139.785  71.507 223.218 -0.30 -0.02    +0.126 A  
DOCKED: ATOM      6  N   UNL     1     140.282  71.895 224.426 -0.26 +0.04    -0.243 NA 
DOCKED: ATOM      7  C   UNL     1     139.382  70.175 223.033 -0.23 -0.01    +0.035 A  
DOCKED: ATOM      8  C   UNL     1     140.407  71.033 225.470 -0.51 -0.01    +0.071 A  
DOCKED: ATOM      9  C   UNL     1     139.495  69.265 224.088 -0.27 -0.00    +0.013 A  
DOCKED: ATOM     10  C   UNL     1     140.934  71.477 226.687 -0.69 -0.00    +0.030 A  
DOCKED: ATOM     11  C   UNL     1     140.011  69.686 225.321 -0.44 -0.00    +0.002 A  
DOCKED: ATOM     12  C   UNL     1     141.072  70.585 227.755 -0.63 -0.00    +0.023 A  
DOCKED: ATOM     13  C   UNL     1     140.145  68.798 226.399 -0.54 -0.01    +0.030 A  
DOCKED: ATOM     14  C   UNL     1     140.678  69.248 227.613 -0.59 -0.01    +0.041 A  
DOCKED: ATOM     15  Cl  UNL     1     140.845  68.138 228.962 -0.48 +0.02    -0.084 Cl 
DOCKED: ENDBRANCH   2   5
DOCKED: ENDBRANCH   1   2
DOCKED: BRANCH   1  16
DOCKED: ATOM     16  C   UNL     1     141.158  74.371 221.493 -0.19 -0.03    +0.181 C  
DOCKED: BRANCH  16  17
DOCKED: ATOM     17  C   UNL     1     140.838  74.640 220.222 -0.12 -0.05    +0.206 C  
DOCKED: BRANCH  17  18
DOCKED: ATOM     18  O   UNL     1     139.561  74.360 219.737 +0.01 +0.11    -0.494 OA 
DOCKED: ATOM     19  H   UNL     1     138.856  73.911 220.312 +0.05 -0.06    +0.295 HD 
DOCKED: ENDBRANCH  17  18
DOCKED: BRANCH  17  20
DOCKED: ATOM     20  N   UNL     1     141.810  75.215 219.336 -0.05 +0.12    -0.335 N  
DOCKED: ATOM     21  C   UNL     1     141.866  76.678 219.237 -0.20 -0.06    +0.120 C  
DOCKED: ATOM     22  C   UNL     1     142.630  74.329 218.488 -0.11 -0.03    +0.115 C  
DOCKED: ATOM     23  C   UNL     1     143.167  77.136 218.591 -0.28 -0.02    +0.022 C  
DOCKED: ATOM     24  C   UNL     1     142.994  75.002 217.138 -0.13 -0.01    +0.030 C  
DOCKED: ATOM     25  C   UNL     1     143.351  76.505 217.207 -0.25 -0.00    +0.004 C  
DOCKED: BRANCH  22  26
DOCKED: ATOM     26  C   UNL     1     143.821  73.781 219.271 -0.26 +0.01    -0.025 A  
DOCKED: ATOM     27  C   UNL     1     144.415  74.596 220.255 -0.46 -0.00    +0.006 A  
DOCKED: ATOM     28  C   UNL     1     144.381  72.508 219.027 -0.23 +0.00    +0.006 A  
DOCKED: ATOM     29  C   UNL     1     145.546  74.165 220.955 -0.57 -0.00    +0.000 A  
DOCKED: ATOM     30  C   UNL     1     145.505  72.077 219.738 -0.39 +0.00    +0.000 A  
DOCKED: ATOM     31  C   UNL     1     146.092  72.907 220.695 -0.59 +0.00    +0.000 A  
DOCKED: ENDBRANCH  22  26
DOCKED: ENDBRANCH  17  20
DOCKED: ENDBRANCH  16  17
DOCKED: ENDBRANCH   1  16
DOCKED: TORSDOF 8
DOCKED: TER
DOCKED: ENDMDL
________________________________________________________________________________


    FINAL DOCKED STATE:
    ________________________


Run:   15 / 20
Time taken for this run:   0.046s

DOCKED: MODEL        15
DOCKED: USER    Run = 15
DOCKED: USER
DOCKED: USER    Estimated Free Energy of Binding    =  -7.53 kcal/mol  [=(1)+(2)+(3)-(4)]
DOCKED: USER
DOCKED: USER    (1) Final Intermolecular Energy     =  -9.91 kcal/mol
DOCKED: USER        vdW + Hbond + desolv Energy     =  -9.93 kcal/mol
DOCKED: USER        Electrostatic Energy            =  +0.02 kcal/mol
DOCKED: USER        Moving Ligand-Fixed Receptor    =  -9.91 kcal/mol
DOCKED: USER        Moving Ligand-Moving Receptor   =  +0.00 kcal/mol
DOCKED: USER    (2) Final Total Internal Energy     =  -2.52 kcal/mol
DOCKED: USER    (3) Torsional Free Energy           =  +2.39 kcal/mol
DOCKED: USER    (4) Unbound System's Energy         =  -2.52 kcal/mol
DOCKED: USER
DOCKED: USER
DOCKED: REMARK SMILES O/C(=N\C=C(\O)N1CCCC[C@H]1c1ccccc1)c1ccc2cc(Cl)ccc2n1
DOCKED: REMARK SMILES IDX 3 1 2 2 1 3 19 5 29 6 20 7 28 8 21 9 27 10 22 11 26 12 23 13
DOCKED: REMARK SMILES IDX 24 14 25 15 4 16 5 17 6 18 7 20 8 21 12 22 9 23 11 24 10 25
DOCKED: REMARK SMILES IDX 13 26 14 27 18 28 15 29 17 30 16 31
DOCKED: REMARK H PARENT 1 4 6 19
DOCKED: USER                              x       y       z     vdW  Elec       q    Type
DOCKED: USER                           _______ _______ _______ _____ _____    ______ ____
DOCKED: ROOT
DOCKED: ATOM      1  N   UNL     1     139.734  74.161 222.346 -0.76 +0.02    -0.215 NA 
DOCKED: ENDROOT
DOCKED: BRANCH   1   2
DOCKED: ATOM      2  C   UNL     1     140.094  72.949 222.035 -0.21 -0.03    +0.237 C  
DOCKED: BRANCH   2   3
DOCKED: ATOM      3  O   UNL     1     140.545  72.608 220.756 -0.04 +0.08    -0.492 OA 
DOCKED: ATOM      4  H   UNL     1     140.852  73.279 220.069 +0.07 -0.06    +0.295 HD 
DOCKED: ENDBRANCH   2   3
DOCKED: BRANCH   2   5
DOCKED: ATOM      5  C   UNL     1     140.052  71.918 223.088 -0.30 -0.02    +0.126 A  
DOCKED: ATOM      6  N   UNL     1     140.546  72.210 224.325 -0.06 +0.03    -0.243 NA 
DOCKED: ATOM      7  C   UNL     1     139.543  70.635 222.833 -0.24 -0.01    +0.035 A  
DOCKED: ATOM      8  C   UNL     1     140.568  71.297 225.331 -0.51 -0.01    +0.071 A  
DOCKED: ATOM      9  C   UNL     1     139.549  69.674 223.848 -0.28 -0.00    +0.013 A  
DOCKED: ATOM     10  C   UNL     1     141.095  71.641 226.579 -0.70 -0.00    +0.030 A  
DOCKED: ATOM     11  C   UNL     1     140.064  69.996 225.111 -0.43 -0.00    +0.002 A  
DOCKED: ATOM     12  C   UNL     1     141.127  70.696 227.609 -0.60 -0.00    +0.023 A  
DOCKED: ATOM     13  C   UNL     1     140.092  69.054 226.151 -0.50 -0.01    +0.030 A  
DOCKED: ATOM     14  C   UNL     1     140.626  69.404 227.396 -0.57 -0.01    +0.041 A  
DOCKED: ATOM     15  Cl  UNL     1     140.661  68.227 228.697 -0.64 +0.02    -0.084 Cl 
DOCKED: ENDBRANCH   2   5
DOCKED: ENDBRANCH   1   2
DOCKED: BRANCH   1  16
DOCKED: ATOM     16  C   UNL     1     139.671  75.305 221.488 -0.23 -0.04    +0.181 C  
DOCKED: BRANCH  16  17
DOCKED: ATOM     17  C   UNL     1     140.773  75.702 220.843 -0.20 -0.06    +0.206 C  
DOCKED: BRANCH  17  18
DOCKED: ATOM     18  O   UNL     1     141.934  74.930 220.879 -0.13 +0.17    -0.494 OA 
DOCKED: ATOM     19  H   UNL     1     141.992  74.074 221.420 +0.11 -0.05    +0.295 HD 
DOCKED: ENDBRANCH  17  18
DOCKED: BRANCH  17  20
DOCKED: ATOM     20  N   UNL     1     140.779  76.937 220.111 -0.05 +0.13    -0.335 N  
DOCKED: ATOM     21  C   UNL     1     139.668  77.189 219.186 -0.05 -0.04    +0.120 C  
DOCKED: ATOM     22  C   UNL     1     141.936  77.844 220.229 -0.24 -0.07    +0.115 C  
DOCKED: ATOM     23  C   UNL     1     139.599  78.661 218.798 -0.05 -0.01    +0.022 C  
DOCKED: ATOM     24  C   UNL     1     142.184  78.633 218.916 -0.28 -0.02    +0.030 C  
DOCKED: ATOM     25  C   UNL     1     140.919  79.132 218.180 -0.14 -0.00    +0.004 C  
DOCKED: BRANCH  22  26
DOCKED: ATOM     26  C   UNL     1     141.820  78.708 221.483 -0.39 +0.01    -0.025 A  
DOCKED: ATOM     27  C   UNL     1     141.407  78.102 222.685 -0.46 -0.00    +0.006 A  
DOCKED: ATOM     28  C   UNL     1     142.069  80.098 221.483 -0.43 -0.00    +0.006 A  
DOCKED: ATOM     29  C   UNL     1     141.225  78.861 223.845 -0.54 -0.00    +0.000 A  
DOCKED: ATOM     30  C   UNL     1     141.896  80.851 222.649 -0.55 -0.00    +0.000 A  
DOCKED: ATOM     31  C   UNL     1     141.467  80.236 223.826 -0.56 -0.00    +0.000 A  
DOCKED: ENDBRANCH  22  26
DOCKED: ENDBRANCH  17  20
DOCKED: ENDBRANCH  16  17
DOCKED: ENDBRANCH   1  16
DOCKED: TORSDOF 8
DOCKED: TER
DOCKED: ENDMDL
________________________________________________________________________________


    FINAL DOCKED STATE:
    ________________________


Run:   16 / 20
Time taken for this run:   0.046s

DOCKED: MODEL        16
DOCKED: USER    Run = 16
DOCKED: USER
DOCKED: USER    Estimated Free Energy of Binding    =  -8.53 kcal/mol  [=(1)+(2)+(3)-(4)]
DOCKED: USER
DOCKED: USER    (1) Final Intermolecular Energy     = -10.92 kcal/mol
DOCKED: USER        vdW + Hbond + desolv Energy     = -10.82 kcal/mol
DOCKED: USER        Electrostatic Energy            =  -0.10 kcal/mol
DOCKED: USER        Moving Ligand-Fixed Receptor    = -10.92 kcal/mol
DOCKED: USER        Moving Ligand-Moving Receptor   =  +0.00 kcal/mol
DOCKED: USER    (2) Final Total Internal Energy     =  -2.40 kcal/mol
DOCKED: USER    (3) Torsional Free Energy           =  +2.39 kcal/mol
DOCKED: USER    (4) Unbound System's Energy         =  -2.40 kcal/mol
DOCKED: USER
DOCKED: USER
DOCKED: REMARK SMILES O/C(=N\C=C(\O)N1CCCC[C@H]1c1ccccc1)c1ccc2cc(Cl)ccc2n1
DOCKED: REMARK SMILES IDX 3 1 2 2 1 3 19 5 29 6 20 7 28 8 21 9 27 10 22 11 26 12 23 13
DOCKED: REMARK SMILES IDX 24 14 25 15 4 16 5 17 6 18 7 20 8 21 12 22 9 23 11 24 10 25
DOCKED: REMARK SMILES IDX 13 26 14 27 18 28 15 29 17 30 16 31
DOCKED: REMARK H PARENT 1 4 6 19
DOCKED: USER                              x       y       z     vdW  Elec       q    Type
DOCKED: USER                           _______ _______ _______ _____ _____    ______ ____
DOCKED: ROOT
DOCKED: ATOM      1  N   UNL     1     139.505  71.875 221.247 -0.08 +0.04    -0.215 NA 
DOCKED: ENDROOT
DOCKED: BRANCH   1   2
DOCKED: ATOM      2  C   UNL     1     138.789  71.952 222.331 -0.15 -0.06    +0.237 C  
DOCKED: BRANCH   2   3
DOCKED: ATOM      3  O   UNL     1     137.719  72.845 222.459 -0.03 +0.17    -0.492 OA 
DOCKED: ATOM      4  H   UNL     1     137.818  73.804 222.753 -0.47 -0.16    +0.295 HD 
DOCKED: ENDBRANCH   2   3
DOCKED: BRANCH   2   5
DOCKED: ATOM      5  C   UNL     1     139.105  71.036 223.441 -0.26 -0.03    +0.126 A  
DOCKED: ATOM      6  N   UNL     1     139.718  71.527 224.555 -0.25 +0.06    -0.243 NA 
DOCKED: ATOM      7  C   UNL     1     138.818  69.664 223.359 -0.24 -0.01    +0.035 A  
DOCKED: ATOM      8  C   UNL     1     140.068  70.732 225.601 -0.47 -0.01    +0.071 A  
DOCKED: ATOM      9  C   UNL     1     139.163  68.821 224.419 -0.34 -0.00    +0.013 A  
DOCKED: ATOM     10  C   UNL     1     140.704  71.282 226.718 -0.67 -0.00    +0.030 A  
DOCKED: ATOM     11  C   UNL     1     139.794  69.348 225.554 -0.45 -0.00    +0.002 A  
DOCKED: ATOM     12  C   UNL     1     141.073  70.460 227.787 -0.61 -0.00    +0.023 A  
DOCKED: ATOM     13  C   UNL     1     140.159  68.530 226.634 -0.59 -0.01    +0.030 A  
DOCKED: ATOM     14  C   UNL     1     140.801  69.086 227.746 -0.59 -0.01    +0.041 A  
DOCKED: ATOM     15  Cl  UNL     1     141.258  68.063 229.096 -0.41 +0.02    -0.084 Cl 
DOCKED: ENDBRANCH   2   5
DOCKED: ENDBRANCH   1   2
DOCKED: BRANCH   1  16
DOCKED: ATOM     16  C   UNL     1     140.639  72.671 220.885 -0.15 -0.03    +0.181 C  
DOCKED: BRANCH  16  17
DOCKED: ATOM     17  C   UNL     1     140.664  73.966 221.219 -0.21 -0.03    +0.206 C  
DOCKED: BRANCH  17  18
DOCKED: ATOM     18  O   UNL     1     139.964  74.425 222.334 -0.71 +0.01    -0.494 OA 
DOCKED: ATOM     19  H   UNL     1     139.566  73.789 223.017 -0.41 -0.05    +0.295 HD 
DOCKED: ENDBRANCH  17  18
DOCKED: BRANCH  17  20
DOCKED: ATOM     20  N   UNL     1     141.407  74.904 220.427 -0.10 +0.10    -0.335 N  
DOCKED: ATOM     21  C   UNL     1     141.263  76.330 220.741 -0.24 -0.05    +0.120 C  
DOCKED: ATOM     22  C   UNL     1     142.190  74.419 219.274 -0.14 -0.03    +0.115 C  
DOCKED: ATOM     23  C   UNL     1     142.380  77.148 220.105 -0.27 -0.02    +0.022 C  
DOCKED: ATOM     24  C   UNL     1     142.252  75.473 218.138 -0.14 -0.01    +0.030 C  
DOCKED: ATOM     25  C   UNL     1     142.424  76.943 218.588 -0.29 -0.00    +0.004 C  
DOCKED: BRANCH  22  26
DOCKED: ATOM     26  C   UNL     1     143.547  73.886 219.728 -0.30 +0.01    -0.025 A  
DOCKED: ATOM     27  C   UNL     1     143.882  72.551 219.429 -0.23 -0.00    +0.006 A  
DOCKED: ATOM     28  C   UNL     1     144.466  74.659 220.470 -0.45 -0.00    +0.006 A  
DOCKED: ATOM     29  C   UNL     1     145.085  71.997 219.876 -0.36 +0.00    +0.000 A  
DOCKED: ATOM     30  C   UNL     1     145.673  74.103 220.907 -0.62 -0.00    +0.000 A  
DOCKED: ATOM     31  C   UNL     1     145.980  72.772 220.618 -0.57 +0.00    +0.000 A  
DOCKED: ENDBRANCH  22  26
DOCKED: ENDBRANCH  17  20
DOCKED: ENDBRANCH  16  17
DOCKED: ENDBRANCH   1  16
DOCKED: TORSDOF 8
DOCKED: TER
DOCKED: ENDMDL
________________________________________________________________________________


    FINAL DOCKED STATE:
    ________________________


Run:   17 / 20
Time taken for this run:   0.046s

DOCKED: MODEL        17
DOCKED: USER    Run = 17
DOCKED: USER
DOCKED: USER    Estimated Free Energy of Binding    =  -8.42 kcal/mol  [=(1)+(2)+(3)-(4)]
DOCKED: USER
DOCKED: USER    (1) Final Intermolecular Energy     = -10.81 kcal/mol
DOCKED: USER        vdW + Hbond + desolv Energy     = -10.72 kcal/mol
DOCKED: USER        Electrostatic Energy            =  -0.09 kcal/mol
DOCKED: USER        Moving Ligand-Fixed Receptor    = -10.81 kcal/mol
DOCKED: USER        Moving Ligand-Moving Receptor   =  +0.00 kcal/mol
DOCKED: USER    (2) Final Total Internal Energy     =  -2.43 kcal/mol
DOCKED: USER    (3) Torsional Free Energy           =  +2.39 kcal/mol
DOCKED: USER    (4) Unbound System's Energy         =  -2.43 kcal/mol
DOCKED: USER
DOCKED: USER
DOCKED: REMARK SMILES O/C(=N\C=C(\O)N1CCCC[C@H]1c1ccccc1)c1ccc2cc(Cl)ccc2n1
DOCKED: REMARK SMILES IDX 3 1 2 2 1 3 19 5 29 6 20 7 28 8 21 9 27 10 22 11 26 12 23 13
DOCKED: REMARK SMILES IDX 24 14 25 15 4 16 5 17 6 18 7 20 8 21 12 22 9 23 11 24 10 25
DOCKED: REMARK SMILES IDX 13 26 14 27 18 28 15 29 17 30 16 31
DOCKED: REMARK H PARENT 1 4 6 19
DOCKED: USER                              x       y       z     vdW  Elec       q    Type
DOCKED: USER                           _______ _______ _______ _____ _____    ______ ____
DOCKED: ROOT
DOCKED: ATOM      1  N   UNL     1     140.926  73.685 221.994 -0.63 +0.00    -0.215 NA 
DOCKED: ENDROOT
DOCKED: BRANCH   1   2
DOCKED: ATOM      2  C   UNL     1     139.882  72.919 222.123 -0.20 -0.04    +0.237 C  
DOCKED: BRANCH   2   3
DOCKED: ATOM      3  O   UNL     1     138.763  73.033 221.291 -0.04 +0.11    -0.492 OA 
DOCKED: ATOM      4  H   UNL     1     138.233  73.883 221.173 +0.06 -0.07    +0.295 HD 
DOCKED: ENDBRANCH   2   3
DOCKED: BRANCH   2   5
DOCKED: ATOM      5  C   UNL     1     139.909  71.875 223.164 -0.30 -0.02    +0.126 A  
DOCKED: ATOM      6  N   UNL     1     140.388  72.183 224.402 -0.08 +0.04    -0.243 NA 
DOCKED: ATOM      7  C   UNL     1     139.482  70.565 222.894 -0.24 -0.01    +0.035 A  
DOCKED: ATOM      8  C   UNL     1     140.471  71.261 225.397 -0.51 -0.01    +0.071 A  
DOCKED: ATOM      9  C   UNL     1     139.552  69.595 223.898 -0.27 -0.00    +0.013 A  
DOCKED: ATOM     10  C   UNL     1     140.980  71.623 226.648 -0.70 -0.00    +0.030 A  
DOCKED: ATOM     11  C   UNL     1     140.050  69.934 225.163 -0.43 -0.00    +0.002 A  
DOCKED: ATOM     12  C   UNL     1     141.075  70.669 227.666 -0.63 -0.00    +0.023 A  
DOCKED: ATOM     13  C   UNL     1     140.141  68.983 226.191 -0.51 -0.01    +0.030 A  
DOCKED: ATOM     14  C   UNL     1     140.656  69.351 227.439 -0.58 -0.01    +0.041 A  
DOCKED: ATOM     15  Cl  UNL     1     140.770  68.163 228.726 -0.64 +0.02    -0.084 Cl 
DOCKED: ENDBRANCH   2   5
DOCKED: ENDBRANCH   1   2
DOCKED: BRANCH   1  16
DOCKED: ATOM     16  C   UNL     1     141.000  74.971 221.367 -0.25 -0.04    +0.181 C  
DOCKED: BRANCH  16  17
DOCKED: ATOM     17  C   UNL     1     139.989  75.833 221.519 -0.24 -0.05    +0.206 C  
DOCKED: BRANCH  17  18
DOCKED: ATOM     18  O   UNL     1     138.933  75.543 222.383 -0.24 +0.11    -0.494 OA 
DOCKED: ATOM     19  H   UNL     1     138.809  74.622 222.789 -0.47 -0.12    +0.295 HD 
DOCKED: ENDBRANCH  17  18
DOCKED: BRANCH  17  20
DOCKED: ATOM     20  N   UNL     1     139.973  77.066 220.785 -0.05 +0.10    -0.335 N  
DOCKED: ATOM     21  C   UNL     1     138.698  77.496 220.197 -0.05 -0.03    +0.120 C  
DOCKED: ATOM     22  C   UNL     1     141.238  77.791 220.558 -0.24 -0.06    +0.115 C  
DOCKED: ATOM     23  C   UNL     1     138.742  78.968 219.808 -0.06 -0.01    +0.022 C  
DOCKED: ATOM     24  C   UNL     1     141.225  78.558 219.209 -0.20 -0.01    +0.030 C  
DOCKED: ATOM     25  C   UNL     1     139.894  79.252 218.839 -0.08 -0.00    +0.004 C  
DOCKED: BRANCH  22  26
DOCKED: ATOM     26  C   UNL     1     141.600  78.639 221.774 -0.40 +0.01    -0.025 A  
DOCKED: ATOM     27  C   UNL     1     142.170  79.911 221.564 -0.43 -0.00    +0.006 A  
DOCKED: ATOM     28  C   UNL     1     141.429  78.192 223.102 -0.53 -0.00    +0.006 A  
DOCKED: ATOM     29  C   UNL     1     142.577  80.701 222.644 -0.58 -0.00    +0.000 A  
DOCKED: ATOM     30  C   UNL     1     141.828  78.990 224.179 -0.58 -0.00    +0.000 A  
DOCKED: ATOM     31  C   UNL     1     142.409  80.239 223.951 -0.62 -0.00    +0.000 A  
DOCKED: ENDBRANCH  22  26
DOCKED: ENDBRANCH  17  20
DOCKED: ENDBRANCH  16  17
DOCKED: ENDBRANCH   1  16
DOCKED: TORSDOF 8
DOCKED: TER
DOCKED: ENDMDL
________________________________________________________________________________


    FINAL DOCKED STATE:
    ________________________


Run:   18 / 20
Time taken for this run:   0.046s

DOCKED: MODEL        18
DOCKED: USER    Run = 18
DOCKED: USER
DOCKED: USER    Estimated Free Energy of Binding    =  -8.41 kcal/mol  [=(1)+(2)+(3)-(4)]
DOCKED: USER
DOCKED: USER    (1) Final Intermolecular Energy     = -10.79 kcal/mol
DOCKED: USER        vdW + Hbond + desolv Energy     = -10.69 kcal/mol
DOCKED: USER        Electrostatic Energy            =  -0.11 kcal/mol
DOCKED: USER        Moving Ligand-Fixed Receptor    = -10.79 kcal/mol
DOCKED: USER        Moving Ligand-Moving Receptor   =  +0.00 kcal/mol
DOCKED: USER    (2) Final Total Internal Energy     =  -2.48 kcal/mol
DOCKED: USER    (3) Torsional Free Energy           =  +2.39 kcal/mol
DOCKED: USER    (4) Unbound System's Energy         =  -2.48 kcal/mol
DOCKED: USER
DOCKED: USER
DOCKED: REMARK SMILES O/C(=N\C=C(\O)N1CCCC[C@H]1c1ccccc1)c1ccc2cc(Cl)ccc2n1
DOCKED: REMARK SMILES IDX 3 1 2 2 1 3 19 5 29 6 20 7 28 8 21 9 27 10 22 11 26 12 23 13
DOCKED: REMARK SMILES IDX 24 14 25 15 4 16 5 17 6 18 7 20 8 21 12 22 9 23 11 24 10 25
DOCKED: REMARK SMILES IDX 13 26 14 27 18 28 15 29 17 30 16 31
DOCKED: REMARK H PARENT 1 4 6 19
DOCKED: USER                              x       y       z     vdW  Elec       q    Type
DOCKED: USER                           _______ _______ _______ _____ _____    ______ ____
DOCKED: ROOT
DOCKED: ATOM      1  N   UNL     1     139.528  72.009 221.318 -0.09 +0.04    -0.215 NA 
DOCKED: ENDROOT
DOCKED: BRANCH   1   2
DOCKED: ATOM      2  C   UNL     1     138.771  72.007 222.377 -0.15 -0.06    +0.237 C  
DOCKED: BRANCH   2   3
DOCKED: ATOM      3  O   UNL     1     137.637  72.820 222.487 -0.03 +0.17    -0.492 OA 
DOCKED: ATOM      4  H   UNL     1     137.660  73.780 222.792 -0.45 -0.16    +0.295 HD 
DOCKED: ENDBRANCH   2   3
DOCKED: BRANCH   2   5
DOCKED: ATOM      5  C   UNL     1     139.113  71.086 223.475 -0.26 -0.03    +0.126 A  
DOCKED: ATOM      6  N   UNL     1     139.710  71.581 224.597 -0.22 +0.06    -0.243 NA 
DOCKED: ATOM      7  C   UNL     1     138.865  69.708 223.376 -0.24 -0.01    +0.035 A  
DOCKED: ATOM      8  C   UNL     1     140.082  70.783 225.632 -0.48 -0.01    +0.071 A  
DOCKED: ATOM      9  C   UNL     1     139.232  68.862 224.425 -0.34 -0.00    +0.013 A  
DOCKED: ATOM     10  C   UNL     1     140.701  71.336 226.757 -0.68 -0.01    +0.030 A  
DOCKED: ATOM     11  C   UNL     1     139.847  69.392 225.567 -0.45 -0.00    +0.002 A  
DOCKED: ATOM     12  C   UNL     1     141.092  70.511 227.816 -0.61 -0.00    +0.023 A  
DOCKED: ATOM     13  C   UNL     1     140.235  68.570 226.637 -0.59 -0.01    +0.030 A  
DOCKED: ATOM     14  C   UNL     1     140.859  69.130 227.757 -0.59 -0.01    +0.041 A  
DOCKED: ATOM     15  Cl  UNL     1     141.345  68.104 229.095 -0.45 +0.02    -0.084 Cl 
DOCKED: ENDBRANCH   2   5
DOCKED: ENDBRANCH   1   2
DOCKED: BRANCH   1  16
DOCKED: ATOM     16  C   UNL     1     139.921  73.132 220.521 -0.10 -0.03    +0.181 C  
DOCKED: BRANCH  16  17
DOCKED: ATOM     17  C   UNL     1     140.206  74.294 221.120 -0.19 -0.04    +0.206 C  
DOCKED: BRANCH  17  18
DOCKED: ATOM     18  O   UNL     1     139.636  74.616 222.352 -0.66 +0.06    -0.494 OA 
DOCKED: ATOM     19  H   UNL     1     139.367  73.903 223.022 -0.44 -0.08    +0.295 HD 
DOCKED: ENDBRANCH  17  18
DOCKED: BRANCH  17  20
DOCKED: ATOM     20  N   UNL     1     141.098  75.230 220.498 -0.10 +0.10    -0.335 N  
DOCKED: ATOM     21  C   UNL     1     140.974  76.644 220.871 -0.24 -0.05    +0.120 C  
DOCKED: ATOM     22  C   UNL     1     142.016  74.764 219.441 -0.16 -0.04    +0.115 C  
DOCKED: ATOM     23  C   UNL     1     142.208  77.433 220.450 -0.21 -0.02    +0.022 C  
DOCKED: ATOM     24  C   UNL     1     142.290  75.870 218.389 -0.19 -0.01    +0.030 C  
DOCKED: ATOM     25  C   UNL     1     142.462  77.303 218.944 -0.32 -0.00    +0.004 C  
DOCKED: BRANCH  22  26
DOCKED: ATOM     26  C   UNL     1     143.267  74.136 220.051 -0.32 +0.01    -0.025 A  
DOCKED: ATOM     27  C   UNL     1     144.410  74.942 220.225 -0.39 -0.00    +0.006 A  
DOCKED: ATOM     28  C   UNL     1     143.346  72.773 220.412 -0.31 -0.00    +0.006 A  
DOCKED: ATOM     29  C   UNL     1     145.600  74.400 220.721 -0.49 -0.00    +0.000 A  
DOCKED: ATOM     30  C   UNL     1     144.535  72.239 220.917 -0.31 -0.00    +0.000 A  
DOCKED: ATOM     31  C   UNL     1     145.663  73.048 221.064 -0.64 -0.00    +0.000 A  
DOCKED: ENDBRANCH  22  26
DOCKED: ENDBRANCH  17  20
DOCKED: ENDBRANCH  16  17
DOCKED: ENDBRANCH   1  16
DOCKED: TORSDOF 8
DOCKED: TER
DOCKED: ENDMDL
________________________________________________________________________________


    FINAL DOCKED STATE:
    ________________________


Run:   19 / 20
Time taken for this run:   0.046s

DOCKED: MODEL        19
DOCKED: USER    Run = 19
DOCKED: USER
DOCKED: USER    Estimated Free Energy of Binding    =  -8.28 kcal/mol  [=(1)+(2)+(3)-(4)]
DOCKED: USER
DOCKED: USER    (1) Final Intermolecular Energy     = -10.66 kcal/mol
DOCKED: USER        vdW + Hbond + desolv Energy     = -10.59 kcal/mol
DOCKED: USER        Electrostatic Energy            =  -0.07 kcal/mol
DOCKED: USER        Moving Ligand-Fixed Receptor    = -10.66 kcal/mol
DOCKED: USER        Moving Ligand-Moving Receptor   =  +0.00 kcal/mol
DOCKED: USER    (2) Final Total Internal Energy     =  -2.43 kcal/mol
DOCKED: USER    (3) Torsional Free Energy           =  +2.39 kcal/mol
DOCKED: USER    (4) Unbound System's Energy         =  -2.43 kcal/mol
DOCKED: USER
DOCKED: USER
DOCKED: REMARK SMILES O/C(=N\C=C(\O)N1CCCC[C@H]1c1ccccc1)c1ccc2cc(Cl)ccc2n1
DOCKED: REMARK SMILES IDX 3 1 2 2 1 3 19 5 29 6 20 7 28 8 21 9 27 10 22 11 26 12 23 13
DOCKED: REMARK SMILES IDX 24 14 25 15 4 16 5 17 6 18 7 20 8 21 12 22 9 23 11 24 10 25
DOCKED: REMARK SMILES IDX 13 26 14 27 18 28 15 29 17 30 16 31
DOCKED: REMARK H PARENT 1 4 6 19
DOCKED: USER                              x       y       z     vdW  Elec       q    Type
DOCKED: USER                           _______ _______ _______ _____ _____    ______ ____
DOCKED: ROOT
DOCKED: ATOM      1  N   UNL     1     140.893  73.337 222.015 -0.56 +0.01    -0.215 NA 
DOCKED: ENDROOT
DOCKED: BRANCH   1   2
DOCKED: ATOM      2  C   UNL     1     139.786  72.826 222.470 -0.14 -0.04    +0.237 C  
DOCKED: BRANCH   2   3
DOCKED: ATOM      3  O   UNL     1     138.532  73.203 221.979 -0.09 +0.14    -0.492 OA 
DOCKED: ATOM      4  H   UNL     1     138.040  74.035 222.268 -0.16 -0.11    +0.295 HD 
DOCKED: ENDBRANCH   2   3
DOCKED: BRANCH   2   5
DOCKED: ATOM      5  C   UNL     1     139.875  71.789 223.513 -0.30 -0.02    +0.126 A  
DOCKED: ATOM      6  N   UNL     1     140.360  72.122 224.743 -0.02 +0.04    -0.243 NA 
DOCKED: ATOM      7  C   UNL     1     139.500  70.461 223.256 -0.27 -0.01    +0.035 A  
DOCKED: ATOM      8  C   UNL     1     140.499  71.209 225.739 -0.53 -0.01    +0.071 A  
DOCKED: ATOM      9  C   UNL     1     139.629  69.499 224.261 -0.30 -0.00    +0.013 A  
DOCKED: ATOM     10  C   UNL     1     141.012  71.597 226.980 -0.73 -0.01    +0.030 A  
DOCKED: ATOM     11  C   UNL     1     140.132  69.864 225.516 -0.46 -0.00    +0.002 A  
DOCKED: ATOM     12  C   UNL     1     141.165  70.653 228.000 -0.58 -0.00    +0.023 A  
DOCKED: ATOM     13  C   UNL     1     140.280  68.922 226.546 -0.55 -0.01    +0.030 A  
DOCKED: ATOM     14  C   UNL     1     140.799  69.318 227.785 -0.59 -0.01    +0.041 A  
DOCKED: ATOM     15  Cl  UNL     1     140.985  68.141 229.073 -0.45 +0.02    -0.084 Cl 
DOCKED: ENDBRANCH   2   5
DOCKED: ENDBRANCH   1   2
DOCKED: BRANCH   1  16
DOCKED: ATOM     16  C   UNL     1     141.049  74.474 221.158 -0.23 -0.03    +0.181 C  
DOCKED: BRANCH  16  17
DOCKED: ATOM     17  C   UNL     1     140.350  75.586 221.411 -0.24 -0.05    +0.206 C  
DOCKED: BRANCH  17  18
DOCKED: ATOM     18  O   UNL     1     139.496  75.652 222.512 -0.36 +0.08    -0.494 OA 
DOCKED: ATOM     19  H   UNL     1     139.337  74.853 223.117 -0.44 -0.05    +0.295 HD 
DOCKED: ENDBRANCH  17  18
DOCKED: BRANCH  17  20
DOCKED: ATOM     20  N   UNL     1     140.463  76.725 220.545 -0.06 +0.11    -0.335 N  
DOCKED: ATOM     21  C   UNL     1     139.421  76.918 219.530 -0.05 -0.03    +0.120 C  
DOCKED: ATOM     22  C   UNL     1     141.659  77.584 220.631 -0.25 -0.07    +0.115 C  
DOCKED: ATOM     23  C   UNL     1     139.454  78.336 218.973 -0.05 -0.01    +0.022 C  
DOCKED: ATOM     24  C   UNL     1     142.022  78.202 219.255 -0.26 -0.02    +0.030 C  
DOCKED: ATOM     25  C   UNL     1     140.829  78.670 218.389 -0.13 -0.00    +0.004 C  
DOCKED: BRANCH  22  26
DOCKED: ATOM     26  C   UNL     1     141.519  78.594 221.768 -0.39 +0.01    -0.025 A  
DOCKED: ATOM     27  C   UNL     1     142.536  79.552 221.950 -0.36 -0.00    +0.006 A  
DOCKED: ATOM     28  C   UNL     1     140.435  78.585 222.674 -0.41 -0.00    +0.006 A  
DOCKED: ATOM     29  C   UNL     1     142.485  80.457 223.014 -0.64 -0.00    +0.000 A  
DOCKED: ATOM     30  C   UNL     1     140.384  79.500 223.730 -0.48 -0.00    +0.000 A  
DOCKED: ATOM     31  C   UNL     1     141.411  80.429 223.906 -0.49 -0.00    +0.000 A  
DOCKED: ENDBRANCH  22  26
DOCKED: ENDBRANCH  17  20
DOCKED: ENDBRANCH  16  17
DOCKED: ENDBRANCH   1  16
DOCKED: TORSDOF 8
DOCKED: TER
DOCKED: ENDMDL
________________________________________________________________________________


    FINAL DOCKED STATE:
    ________________________


Run:   20 / 20
Time taken for this run:   0.046s

DOCKED: MODEL        20
DOCKED: USER    Run = 20
DOCKED: USER
DOCKED: USER    Estimated Free Energy of Binding    =  -8.26 kcal/mol  [=(1)+(2)+(3)-(4)]
DOCKED: USER
DOCKED: USER    (1) Final Intermolecular Energy     = -10.65 kcal/mol
DOCKED: USER        vdW + Hbond + desolv Energy     = -10.56 kcal/mol
DOCKED: USER        Electrostatic Energy            =  -0.09 kcal/mol
DOCKED: USER        Moving Ligand-Fixed Receptor    = -10.65 kcal/mol
DOCKED: USER        Moving Ligand-Moving Receptor   =  +0.00 kcal/mol
DOCKED: USER    (2) Final Total Internal Energy     =  -2.30 kcal/mol
DOCKED: USER    (3) Torsional Free Energy           =  +2.39 kcal/mol
DOCKED: USER    (4) Unbound System's Energy         =  -2.30 kcal/mol
DOCKED: USER
DOCKED: USER
DOCKED: REMARK SMILES O/C(=N\C=C(\O)N1CCCC[C@H]1c1ccccc1)c1ccc2cc(Cl)ccc2n1
DOCKED: REMARK SMILES IDX 3 1 2 2 1 3 19 5 29 6 20 7 28 8 21 9 27 10 22 11 26 12 23 13
DOCKED: REMARK SMILES IDX 24 14 25 15 4 16 5 17 6 18 7 20 8 21 12 22 9 23 11 24 10 25
DOCKED: REMARK SMILES IDX 13 26 14 27 18 28 15 29 17 30 16 31
DOCKED: REMARK H PARENT 1 4 6 19
DOCKED: USER                              x       y       z     vdW  Elec       q    Type
DOCKED: USER                           _______ _______ _______ _____ _____    ______ ____
DOCKED: ROOT
DOCKED: ATOM      1  N   UNL     1     140.963  73.736 221.959 -0.63 +0.00    -0.215 NA 
DOCKED: ENDROOT
DOCKED: BRANCH   1   2
DOCKED: ATOM      2  C   UNL     1     139.908  72.983 222.082 -0.20 -0.03    +0.237 C  
DOCKED: BRANCH   2   3
DOCKED: ATOM      3  O   UNL     1     138.802  73.103 221.235 -0.04 +0.11    -0.492 OA 
DOCKED: ATOM      4  H   UNL     1     138.262  73.948 221.130 +0.06 -0.07    +0.295 HD 
DOCKED: ENDBRANCH   2   3
DOCKED: BRANCH   2   5
DOCKED: ATOM      5  C   UNL     1     139.910  71.949 223.133 -0.29 -0.02    +0.126 A  
DOCKED: ATOM      6  N   UNL     1     140.414  72.251 224.363 -0.04 +0.04    -0.243 NA 
DOCKED: ATOM      7  C   UNL     1     139.432  70.653 222.882 -0.24 -0.01    +0.035 A  
DOCKED: ATOM      8  C   UNL     1     140.476  71.336 225.366 -0.50 -0.01    +0.071 A  
DOCKED: ATOM      9  C   UNL     1     139.479  69.691 223.894 -0.29 -0.00    +0.013 A  
DOCKED: ATOM     10  C   UNL     1     141.012  71.691 226.607 -0.70 -0.00    +0.030 A  
DOCKED: ATOM     11  C   UNL     1     140.004  70.023 225.149 -0.44 -0.00    +0.002 A  
DOCKED: ATOM     12  C   UNL     1     141.085  70.744 227.633 -0.63 -0.00    +0.023 A  
DOCKED: ATOM     13  C   UNL     1     140.072  69.079 226.186 -0.50 -0.01    +0.030 A  
DOCKED: ATOM     14  C   UNL     1     140.615  69.441 227.425 -0.57 -0.01    +0.041 A  
DOCKED: ATOM     15  Cl  UNL     1     140.701  68.261 228.721 -0.66 +0.02    -0.084 Cl 
DOCKED: ENDBRANCH   2   5
DOCKED: ENDBRANCH   1   2
DOCKED: BRANCH   1  16
DOCKED: ATOM     16  C   UNL     1     141.016  75.162 221.840 -0.12 -0.03    +0.181 C  
DOCKED: BRANCH  16  17
DOCKED: ATOM     17  C   UNL     1     139.877  75.863 221.865 -0.26 -0.04    +0.206 C  
DOCKED: BRANCH  17  18
DOCKED: ATOM     18  O   UNL     1     138.787  75.422 222.615 -0.21 +0.13    -0.494 OA 
DOCKED: ATOM     19  H   UNL     1     138.717  74.466 222.948 -0.49 -0.15    +0.295 HD 
DOCKED: ENDBRANCH  17  18
DOCKED: BRANCH  17  20
DOCKED: ATOM     20  N   UNL     1     139.759  77.079 221.111 -0.07 +0.09    -0.335 N  
DOCKED: ATOM     21  C   UNL     1     138.414  77.505 220.708 -0.08 -0.03    +0.120 C  
DOCKED: ATOM     22  C   UNL     1     140.980  77.786 220.680 -0.22 -0.05    +0.115 C  
DOCKED: ATOM     23  C   UNL     1     138.407  78.967 220.279 -0.07 -0.00    +0.022 C  
DOCKED: ATOM     24  C   UNL     1     140.772  78.520 219.329 -0.16 -0.01    +0.030 C  
DOCKED: ATOM     25  C   UNL     1     139.404  79.217 219.143 -0.06 -0.00    +0.004 C  
DOCKED: BRANCH  22  26
DOCKED: ATOM     26  C   UNL     1     141.524  78.661 221.807 -0.40 +0.01    -0.025 A  
DOCKED: ATOM     27  C   UNL     1     141.369  78.222 223.137 -0.53 -0.00    +0.006 A  
DOCKED: ATOM     28  C   UNL     1     142.140  79.911 221.580 -0.43 -0.00    +0.006 A  
DOCKED: ATOM     29  C   UNL     1     141.794  79.016 224.207 -0.58 -0.00    +0.000 A  
DOCKED: ATOM     30  C   UNL     1     142.573  80.696 222.653 -0.59 -0.00    +0.000 A  
DOCKED: ATOM     31  C   UNL     1     142.393  80.254 223.965 -0.61 -0.00    +0.000 A  
DOCKED: ENDBRANCH  22  26
DOCKED: ENDBRANCH  17  20
DOCKED: ENDBRANCH  16  17
DOCKED: ENDBRANCH   1  16
DOCKED: TORSDOF 8
DOCKED: TER
DOCKED: ENDMDL
________________________________________________________________________________


    CLUSTERING HISTOGRAM
    ____________________


________________________________________________________________________________
     |           |     |           |     |
Clus | Lowest    | Run | Mean      | Num | Histogram
-ter | Binding   |     | Binding   | in  |
Rank | Energy    |     | Energy    | Clus|    5    10   15   20   25   30   35
_____|___________|_____|___________|_____|____:____|____:____|____:____|____:___
   1 |     -8.66 |   1 |     -8.19 |   9 |#########
   2 |     -8.59 |   7 |     -8.10 |   9 |#########
   3 |     -6.66 |   8 |     -6.66 |   1 |#
   4 |     -6.25 |  11 |     -6.25 |   1 |#
_____|___________|_____|___________|_____|______________________________________


    RMSD TABLE
    __________


_______________________________________________________________________
     |      |      |           |         |                 |
Rank | Sub- | Run  | Binding   | Cluster | Reference       | Grep
     | Rank |      | Energy    | RMSD    | RMSD            | Pattern
_____|______|______|___________|_________|_________________|___________
   1      1      1       -8.66      0.00    271.48           RANKING
   1      2      2       -8.51      0.62    271.30           RANKING
   1      3     17       -8.42      0.64    271.30           RANKING
   1      4     10       -8.42      1.96    271.43           RANKING
   1      5      3       -8.33      0.53    271.36           RANKING
   1      6     19       -8.28      0.43    271.41           RANKING
   1      7     20       -8.26      0.74    271.33           RANKING
   1      8     15       -7.53      1.31    271.22           RANKING
   1      9      4       -7.35      1.65    271.12           RANKING
   2      1      7       -8.59      0.00    270.80           RANKING
   2      2     16       -8.53      0.15    270.78           RANKING
   2      3      5       -8.51      0.23    270.77           RANKING
   2      4     13       -8.47      0.21    270.77           RANKING
   2      5      9       -8.43      0.51    270.84           RANKING
   2      6     18       -8.41      0.51    270.85           RANKING
   2      7     12       -7.39      1.20    270.59           RANKING
   2      8      6       -7.30      1.34    270.54           RANKING
   2      9     14       -7.29      1.26    270.52           RANKING
   3      1      8       -6.66      0.00    271.16           RANKING
   4      1     11       -6.25      0.00    270.32           RANKING

Run time 0.874 sec
Idle time 0.000 sec
