AutoDock-GPU version: v1.6

**********************************************************
**    AutoDock-GPU AUTODOCKTOOLS-COMPATIBLE DLG FILE    **
**********************************************************


    DOCKING PARAMETERS
    ________________________


Ligand file:                               /home/a/REINVENT4/ReinventStudies/pleaseWork/justmol2mol_4_Compounds_ontop/graph-dock-8u2o5u/graph-DockGPU/node-autodockgpu/inputs/LJPMQFKXSHJUPZ-KTIXELSKNA-N.pdbqt
Grid fld file:                             /home/a/REINVENT4/ReinventStudies/mols/Rad51/maps/rad51_receptor.maps.fld

Random seed:                               42
Number of runs:                            20
Number of energy evaluations:              1613968
Number of generations:                     42000
Size of population:                        150
Rate of crossover:                         80.000000%
Tournament selection probability limit:    60.000000%
Rate of mutation:                          2.000000%
Maximal allowed delta movement:            +/- 6.000000A
Maximal allowed delta angle:               +/- 90.000000

Rate of local search:                      100.000000%
Maximal number of local search iterations: 300
Rho lower bound:                           0.010000
Spread of local search delta movement:     2.000000A
Spread of local search delta angle:        74.999999
Limit of consecutive successes/failures:   4

Handle symmetry during clustering:         YES
RMSD tolerance:                            2.000000A

Program call in command line was:          /home/a/REINVENT4/ReinventStudies/adgpu-v1.6_linux_x64_cuda12_128wi --filelist batch.txt --heuristics 1 --nrun 20 --psize 150 --lsit 300 --seed 42 --heurmax 12000000 


    GRID PARAMETERS
    ________________________


Receptor name:                             rad51_receptor
Number of grid points (x, y, z):           53, 53, 53
Grid center (x, y, z):                     139.950000, 75.640000, 221.970000A
Grid size (x, y, z):                       19.500000, 19.500000, 19.500000A
Grid spacing:                              0.375000A


    LIGAND PARAMETERS
    ________________________


Ligand name:                               /home/a/REINVENT4/ReinventStudies/pleaseWork/justmol2mol_4_Compounds_ontop/graph-dock-8u2o5u/graph-DockGPU/node-autodockgpu/inputs/LJPMQFKXSHJUPZ-KTIXELSKNA-N
Number of atoms:                           31
Number of rotatable bonds:                 8
Number of atom types:                      7


    DUMMY DATA (only for ADT-compatibility)
    ________________________


DPF> outlev 1
DPF> ga_run 20
DPF> fld /home/a/REINVENT4/ReinventStudies/mols/Rad51/maps/rad51_receptor.maps.fld
DPF> move /home/a/REINVENT4/ReinventStudies/pleaseWork/justmol2mol_4_Compounds_ontop/graph-dock-8u2o5u/graph-DockGPU/node-autodockgpu/inputs/LJPMQFKXSHJUPZ-KTIXELSKNA-N.pdbqt


    COUNTER STATES
    ________________________


Number of energy evaluations performed:    1229145
Number of generations used:                75


    INPUT LIGAND PDBQT FILE:
    ________________________


INPUT-LIGAND-PDBQT: REMARK SMILES O/C(=C\N=C(\O)c1ccc2cc(Cl)ccc2n1)N1CCCC[C@H]1c1ccccc1
INPUT-LIGAND-PDBQT: REMARK SMILES IDX 3 1 2 2 1 3 18 5 19 6 23 7 20 8 22 9 21 10 24 11 25 12 29 13
INPUT-LIGAND-PDBQT: REMARK SMILES IDX 26 14 28 15 27 16 4 17 5 18 6 19 7 21 17 22 8 23 16 24 9 25
INPUT-LIGAND-PDBQT: REMARK SMILES IDX 15 26 10 27 14 28 11 29 12 30 13 31
INPUT-LIGAND-PDBQT: REMARK H PARENT 1 4 6 20
INPUT-LIGAND-PDBQT: ROOT
INPUT-LIGAND-PDBQT: ATOM      1  C   UNL     1      -0.344  -1.885  -1.020  1.00  0.00     0.181 C 
INPUT-LIGAND-PDBQT: ENDROOT
INPUT-LIGAND-PDBQT: BRANCH   1   2
INPUT-LIGAND-PDBQT: ATOM      2  C   UNL     1       0.476  -2.240  -2.024  1.00  0.00     0.206 C 
INPUT-LIGAND-PDBQT: BRANCH   2   3
INPUT-LIGAND-PDBQT: ATOM      3  O   UNL     1       0.026  -3.129  -3.007  1.00  0.00    -0.494 OA
INPUT-LIGAND-PDBQT: ATOM      4  H   UNL     1      -0.902  -3.533  -3.007  1.00  0.00     0.295 HD
INPUT-LIGAND-PDBQT: ENDBRANCH   2   3
INPUT-LIGAND-PDBQT: BRANCH   2   5
INPUT-LIGAND-PDBQT: ATOM      5  N   UNL     1       1.826  -1.713  -2.125  1.00  0.00    -0.335 N 
INPUT-LIGAND-PDBQT: ATOM      6  C   UNL     1       2.586  -1.991  -3.357  1.00  0.00     0.120 C 
INPUT-LIGAND-PDBQT: ATOM      7  C   UNL     1       2.535  -1.173  -0.940  1.00  0.00     0.115 C 
INPUT-LIGAND-PDBQT: ATOM      8  C   UNL     1       3.623  -0.895  -3.641  1.00  0.00     0.022 C 
INPUT-LIGAND-PDBQT: ATOM      9  C   UNL     1       4.062  -1.230  -1.130  1.00  0.00     0.030 C 
INPUT-LIGAND-PDBQT: ATOM     10  C   UNL     1       4.506  -0.544  -2.428  1.00  0.00     0.004 C 
INPUT-LIGAND-PDBQT: BRANCH   7  11
INPUT-LIGAND-PDBQT: ATOM     11  C   UNL     1       2.089   0.239  -0.590  1.00  0.00    -0.025 A 
INPUT-LIGAND-PDBQT: ATOM     12  C   UNL     1       2.244   0.698   0.731  1.00  0.00     0.006 A 
INPUT-LIGAND-PDBQT: ATOM     13  C   UNL     1       1.525   1.106  -1.548  1.00  0.00     0.006 A 
INPUT-LIGAND-PDBQT: ATOM     14  C   UNL     1       1.840   1.987   1.088  1.00  0.00     0.000 A 
INPUT-LIGAND-PDBQT: ATOM     15  C   UNL     1       1.124   2.396  -1.186  1.00  0.00     0.000 A 
INPUT-LIGAND-PDBQT: ATOM     16  C   UNL     1       1.283   2.836   0.130  1.00  0.00     0.000 A 
INPUT-LIGAND-PDBQT: ENDBRANCH   7  11
INPUT-LIGAND-PDBQT: ENDBRANCH   2   5
INPUT-LIGAND-PDBQT: ENDBRANCH   1   2
INPUT-LIGAND-PDBQT: BRANCH   1  17
INPUT-LIGAND-PDBQT: ATOM     17  N   UNL     1      -1.673  -2.413  -0.920  1.00  0.00    -0.215 NA
INPUT-LIGAND-PDBQT: BRANCH  17  18
INPUT-LIGAND-PDBQT: ATOM     18  C   UNL     1      -2.604  -1.965  -0.124  1.00  0.00     0.237 C 
INPUT-LIGAND-PDBQT: BRANCH  18  19
INPUT-LIGAND-PDBQT: ATOM     19  O   UNL     1      -3.811  -2.652  -0.036  1.00  0.00    -0.492 OA
INPUT-LIGAND-PDBQT: ATOM     20  H   UNL     1      -3.977  -3.490  -0.581  1.00  0.00     0.295 HD
INPUT-LIGAND-PDBQT: ENDBRANCH  18  19
INPUT-LIGAND-PDBQT: BRANCH  18  21
INPUT-LIGAND-PDBQT: ATOM     21  C   UNL     1      -2.429  -0.754   0.702  1.00  0.00     0.126 A 
INPUT-LIGAND-PDBQT: ATOM     22  N   UNL     1      -2.641  -0.827   2.043  1.00  0.00    -0.243 NA
INPUT-LIGAND-PDBQT: ATOM     23  C   UNL     1      -2.076   0.473   0.118  1.00  0.00     0.035 A 
INPUT-LIGAND-PDBQT: ATOM     24  C   UNL     1      -2.484   0.253   2.856  1.00  0.00     0.071 A 
INPUT-LIGAND-PDBQT: ATOM     25  C   UNL     1      -1.914   1.600   0.924  1.00  0.00     0.013 A 
INPUT-LIGAND-PDBQT: ATOM     26  C   UNL     1      -2.691   0.133   4.234  1.00  0.00     0.030 A 
INPUT-LIGAND-PDBQT: ATOM     27  C   UNL     1      -2.105   1.499   2.307  1.00  0.00     0.002 A 
INPUT-LIGAND-PDBQT: ATOM     28  C   UNL     1      -2.513   1.241   5.067  1.00  0.00     0.023 A 
INPUT-LIGAND-PDBQT: ATOM     29  C   UNL     1      -1.931   2.607   3.149  1.00  0.00     0.030 A 
INPUT-LIGAND-PDBQT: ATOM     30  C   UNL     1      -2.132   2.475   4.528  1.00  0.00     0.041 A 
INPUT-LIGAND-PDBQT: ATOM     31  Cl  UNL     1      -1.909   3.860   5.581  1.00  0.00    -0.084 Cl
INPUT-LIGAND-PDBQT: ENDBRANCH  18  21
INPUT-LIGAND-PDBQT: ENDBRANCH  17  18
INPUT-LIGAND-PDBQT: ENDBRANCH   1  17
INPUT-LIGAND-PDBQT: TORSDOF 8


    FINAL DOCKED STATE:
    ________________________


Run:   1 / 20
Time taken for this run:   0.053s

DOCKED: MODEL        1
DOCKED: USER    Run = 1
DOCKED: USER
DOCKED: USER    Estimated Free Energy of Binding    =  -8.46 kcal/mol  [=(1)+(2)+(3)-(4)]
DOCKED: USER
DOCKED: USER    (1) Final Intermolecular Energy     = -10.84 kcal/mol
DOCKED: USER        vdW + Hbond + desolv Energy     = -10.75 kcal/mol
DOCKED: USER        Electrostatic Energy            =  -0.10 kcal/mol
DOCKED: USER        Moving Ligand-Fixed Receptor    = -10.84 kcal/mol
DOCKED: USER        Moving Ligand-Moving Receptor   =  +0.00 kcal/mol
DOCKED: USER    (2) Final Total Internal Energy     =  -2.33 kcal/mol
DOCKED: USER    (3) Torsional Free Energy           =  +2.39 kcal/mol
DOCKED: USER    (4) Unbound System's Energy         =  -2.33 kcal/mol
DOCKED: USER
DOCKED: USER
DOCKED: REMARK SMILES O/C(=C\N=C(\O)c1ccc2cc(Cl)ccc2n1)N1CCCC[C@H]1c1ccccc1
DOCKED: REMARK SMILES IDX 3 1 2 2 1 3 18 5 19 6 23 7 20 8 22 9 21 10 24 11 25 12 29 13
DOCKED: REMARK SMILES IDX 26 14 28 15 27 16 4 17 5 18 6 19 7 21 17 22 8 23 16 24 9 25
DOCKED: REMARK SMILES IDX 15 26 10 27 14 28 11 29 12 30 13 31
DOCKED: REMARK H PARENT 1 4 6 20
DOCKED: USER                              x       y       z     vdW  Elec       q    Type
DOCKED: USER                           _______ _______ _______ _____ _____    ______ ____
DOCKED: ROOT
DOCKED: ATOM      1  C   UNL     1     140.436  72.894 221.013 -0.16 -0.03    +0.181 C  
DOCKED: ENDROOT
DOCKED: BRANCH   1   2
DOCKED: ATOM      2  C   UNL     1     140.413  74.217 221.250 -0.21 -0.03    +0.206 C  
DOCKED: BRANCH   2   3
DOCKED: ATOM      3  O   UNL     1     139.620  74.724 222.286 -0.63 +0.06    -0.494 OA 
DOCKED: ATOM      4  H   UNL     1     139.224  74.145 223.016 -0.48 -0.10    +0.295 HD 
DOCKED: ENDBRANCH   2   3
DOCKED: BRANCH   2   5
DOCKED: ATOM      5  N   UNL     1     141.204  75.144 220.460 -0.10 +0.10    -0.335 N  
DOCKED: ATOM      6  C   UNL     1     140.924  76.585 220.599 -0.21 -0.05    +0.120 C  
DOCKED: ATOM      7  C   UNL     1     142.054  74.674 219.340 -0.15 -0.04    +0.115 C  
DOCKED: ATOM      8  C   UNL     1     142.168  77.434 220.302 -0.26 -0.02    +0.022 C  
DOCKED: ATOM      9  C   UNL     1     142.309  75.801 218.322 -0.18 -0.01    +0.030 C  
DOCKED: ATOM     10  C   UNL     1     142.879  77.060 218.987 -0.35 -0.00    +0.004 C  
DOCKED: BRANCH   7  11
DOCKED: ATOM     11  C   UNL     1     143.369  74.076 219.820 -0.31 +0.01    -0.025 A  
DOCKED: ATOM     12  C   UNL     1     143.600  72.700 219.642 -0.24 -0.00    +0.006 A  
DOCKED: ATOM     13  C   UNL     1     144.366  74.858 220.437 -0.40 -0.00    +0.006 A  
DOCKED: ATOM     14  C   UNL     1     144.794  72.117 220.076 -0.37 -0.00    +0.000 A  
DOCKED: ATOM     15  C   UNL     1     145.560  74.270 220.868 -0.56 -0.00    +0.000 A  
DOCKED: ATOM     16  C   UNL     1     145.774  72.902 220.686 -0.60 -0.00    +0.000 A  
DOCKED: ENDBRANCH   7  11
DOCKED: ENDBRANCH   2   5
DOCKED: ENDBRANCH   1   2
DOCKED: BRANCH   1  17
DOCKED: ATOM     17  N   UNL     1     139.297  72.067 221.286 -0.08 +0.04    -0.215 NA 
DOCKED: BRANCH  17  18
DOCKED: ATOM     18  C   UNL     1     138.669  72.002 222.427 -0.14 -0.06    +0.237 C  
DOCKED: BRANCH  18  19
DOCKED: ATOM     19  O   UNL     1     137.568  72.826 222.644 -0.01 +0.18    -0.492 OA 
DOCKED: ATOM     20  H   UNL     1     137.680  73.824 222.776 -0.45 -0.16    +0.295 HD 
DOCKED: ENDBRANCH  18  19
DOCKED: BRANCH  18  21
DOCKED: ATOM     21  C   UNL     1     139.072  71.079 223.505 -0.26 -0.03    +0.126 A  
DOCKED: ATOM     22  N   UNL     1     139.698  71.574 224.606 -0.22 +0.06    -0.243 NA 
DOCKED: ATOM     23  C   UNL     1     138.845  69.698 223.396 -0.24 -0.01    +0.035 A  
DOCKED: ATOM     24  C   UNL     1     140.083  70.773 225.637 -0.48 -0.01    +0.071 A  
DOCKED: ATOM     25  C   UNL     1     139.234  68.849 224.433 -0.34 -0.00    +0.013 A  
DOCKED: ATOM     26  C   UNL     1     140.705  71.323 226.762 -0.67 -0.01    +0.030 A  
DOCKED: ATOM     27  C   UNL     1     139.848  69.381 225.573 -0.45 -0.00    +0.002 A  
DOCKED: ATOM     28  C   UNL     1     141.084  70.499 227.825 -0.61 -0.00    +0.023 A  
DOCKED: ATOM     29  C   UNL     1     140.233  68.560 226.642 -0.59 -0.01    +0.030 A  
DOCKED: ATOM     30  C   UNL     1     140.848  69.121 227.768 -0.59 -0.01    +0.041 A  
DOCKED: ATOM     31  Cl  UNL     1     141.325  68.093 229.107 -0.41 +0.02    -0.084 Cl 
DOCKED: ENDBRANCH  18  21
DOCKED: ENDBRANCH  17  18
DOCKED: ENDBRANCH   1  17
DOCKED: TORSDOF 8
DOCKED: TER
DOCKED: ENDMDL
________________________________________________________________________________


    FINAL DOCKED STATE:
    ________________________


Run:   2 / 20
Time taken for this run:   0.053s

DOCKED: MODEL        2
DOCKED: USER    Run = 2
DOCKED: USER
DOCKED: USER    Estimated Free Energy of Binding    =  -8.52 kcal/mol  [=(1)+(2)+(3)-(4)]
DOCKED: USER
DOCKED: USER    (1) Final Intermolecular Energy     = -10.91 kcal/mol
DOCKED: USER        vdW + Hbond + desolv Energy     = -10.81 kcal/mol
DOCKED: USER        Electrostatic Energy            =  -0.10 kcal/mol
DOCKED: USER        Moving Ligand-Fixed Receptor    = -10.91 kcal/mol
DOCKED: USER        Moving Ligand-Moving Receptor   =  +0.00 kcal/mol
DOCKED: USER    (2) Final Total Internal Energy     =  -2.44 kcal/mol
DOCKED: USER    (3) Torsional Free Energy           =  +2.39 kcal/mol
DOCKED: USER    (4) Unbound System's Energy         =  -2.44 kcal/mol
DOCKED: USER
DOCKED: USER
DOCKED: REMARK SMILES O/C(=C\N=C(\O)c1ccc2cc(Cl)ccc2n1)N1CCCC[C@H]1c1ccccc1
DOCKED: REMARK SMILES IDX 3 1 2 2 1 3 18 5 19 6 23 7 20 8 22 9 21 10 24 11 25 12 29 13
DOCKED: REMARK SMILES IDX 26 14 28 15 27 16 4 17 5 18 6 19 7 21 17 22 8 23 16 24 9 25
DOCKED: REMARK SMILES IDX 15 26 10 27 14 28 11 29 12 30 13 31
DOCKED: REMARK H PARENT 1 4 6 20
DOCKED: USER                              x       y       z     vdW  Elec       q    Type
DOCKED: USER                           _______ _______ _______ _____ _____    ______ ____
DOCKED: ROOT
DOCKED: ATOM      1  C   UNL     1     140.459  72.684 220.769 -0.13 -0.03    +0.181 C  
DOCKED: ENDROOT
DOCKED: BRANCH   1   2
DOCKED: ATOM      2  C   UNL     1     140.558  73.975 221.128 -0.20 -0.03    +0.206 C  
DOCKED: BRANCH   2   3
DOCKED: ATOM      3  O   UNL     1     139.942  74.418 222.305 -0.71 +0.02    -0.494 OA 
DOCKED: ATOM      4  H   UNL     1     139.539  73.791 222.990 -0.40 -0.05    +0.295 HD 
DOCKED: ENDBRANCH   2   3
DOCKED: BRANCH   2   5
DOCKED: ATOM      5  N   UNL     1     141.302  74.932 220.328 -0.09 +0.10    -0.335 N  
DOCKED: ATOM      6  C   UNL     1     140.977  76.362 220.480 -0.20 -0.05    +0.120 C  
DOCKED: ATOM      7  C   UNL     1     142.146  74.496 219.190 -0.13 -0.03    +0.115 C  
DOCKED: ATOM      8  C   UNL     1     142.186  77.254 220.165 -0.29 -0.01    +0.022 C  
DOCKED: ATOM      9  C   UNL     1     142.343  75.636 218.173 -0.16 -0.01    +0.030 C  
DOCKED: ATOM     10  C   UNL     1     142.883  76.910 218.835 -0.35 -0.00    +0.004 C  
DOCKED: BRANCH   7  11
DOCKED: ATOM     11  C   UNL     1     143.489  73.941 219.642 -0.29 +0.01    -0.025 A  
DOCKED: ATOM     12  C   UNL     1     143.873  72.653 219.223 -0.21 -0.00    +0.006 A  
DOCKED: ATOM     13  C   UNL     1     144.364  74.675 220.467 -0.44 -0.00    +0.006 A  
DOCKED: ATOM     14  C   UNL     1     145.096  72.110 219.624 -0.36 +0.00    +0.000 A  
DOCKED: ATOM     15  C   UNL     1     145.589  74.128 220.864 -0.63 -0.00    +0.000 A  
DOCKED: ATOM     16  C   UNL     1     145.954  72.848 220.441 -0.59 +0.00    +0.000 A  
DOCKED: ENDBRANCH   7  11
DOCKED: ENDBRANCH   2   5
DOCKED: ENDBRANCH   1   2
DOCKED: BRANCH   1  17
DOCKED: ATOM     17  N   UNL     1     139.315  71.896 221.124 -0.07 +0.04    -0.215 NA 
DOCKED: BRANCH  17  18
DOCKED: ATOM     18  C   UNL     1     138.705  71.930 222.276 -0.14 -0.06    +0.237 C  
DOCKED: BRANCH  18  19
DOCKED: ATOM     19  O   UNL     1     137.674  72.844 222.472 -0.03 +0.17    -0.492 OA 
DOCKED: ATOM     20  H   UNL     1     137.867  73.795 222.765 -0.47 -0.16    +0.295 HD 
DOCKED: ENDBRANCH  18  19
DOCKED: BRANCH  18  21
DOCKED: ATOM     21  C   UNL     1     139.057  71.027 223.389 -0.25 -0.03    +0.126 A  
DOCKED: ATOM     22  N   UNL     1     139.724  71.524 224.465 -0.26 +0.06    -0.243 NA 
DOCKED: ATOM     23  C   UNL     1     138.739  69.660 223.338 -0.23 -0.01    +0.035 A  
DOCKED: ATOM     24  C   UNL     1     140.065  70.742 225.525 -0.47 -0.01    +0.071 A  
DOCKED: ATOM     25  C   UNL     1     139.081  68.831 224.406 -0.35 -0.00    +0.013 A  
DOCKED: ATOM     26  C   UNL     1     140.732  71.296 226.622 -0.66 -0.00    +0.030 A  
DOCKED: ATOM     27  C   UNL     1     139.739  69.367 225.520 -0.44 -0.00    +0.002 A  
DOCKED: ATOM     28  C   UNL     1     141.066  70.492 227.716 -0.61 -0.00    +0.023 A  
DOCKED: ATOM     29  C   UNL     1     140.080  68.566 226.620 -0.58 -0.01    +0.030 A  
DOCKED: ATOM     30  C   UNL     1     140.740  69.131 227.717 -0.60 -0.01    +0.041 A  
DOCKED: ATOM     31  Cl  UNL     1     141.161  68.130 229.095 -0.46 +0.02    -0.084 Cl 
DOCKED: ENDBRANCH  18  21
DOCKED: ENDBRANCH  17  18
DOCKED: ENDBRANCH   1  17
DOCKED: TORSDOF 8
DOCKED: TER
DOCKED: ENDMDL
________________________________________________________________________________


    FINAL DOCKED STATE:
    ________________________


Run:   3 / 20
Time taken for this run:   0.053s

DOCKED: MODEL        3
DOCKED: USER    Run = 3
DOCKED: USER
DOCKED: USER    Estimated Free Energy of Binding    =  -7.90 kcal/mol  [=(1)+(2)+(3)-(4)]
DOCKED: USER
DOCKED: USER    (1) Final Intermolecular Energy     = -10.28 kcal/mol
DOCKED: USER        vdW + Hbond + desolv Energy     = -10.20 kcal/mol
DOCKED: USER        Electrostatic Energy            =  -0.08 kcal/mol
DOCKED: USER        Moving Ligand-Fixed Receptor    = -10.28 kcal/mol
DOCKED: USER        Moving Ligand-Moving Receptor   =  +0.00 kcal/mol
DOCKED: USER    (2) Final Total Internal Energy     =  -2.56 kcal/mol
DOCKED: USER    (3) Torsional Free Energy           =  +2.39 kcal/mol
DOCKED: USER    (4) Unbound System's Energy         =  -2.56 kcal/mol
DOCKED: USER
DOCKED: USER
DOCKED: REMARK SMILES O/C(=C\N=C(\O)c1ccc2cc(Cl)ccc2n1)N1CCCC[C@H]1c1ccccc1
DOCKED: REMARK SMILES IDX 3 1 2 2 1 3 18 5 19 6 23 7 20 8 22 9 21 10 24 11 25 12 29 13
DOCKED: REMARK SMILES IDX 26 14 28 15 27 16 4 17 5 18 6 19 7 21 17 22 8 23 16 24 9 25
DOCKED: REMARK SMILES IDX 15 26 10 27 14 28 11 29 12 30 13 31
DOCKED: REMARK H PARENT 1 4 6 20
DOCKED: USER                              x       y       z     vdW  Elec       q    Type
DOCKED: USER                           _______ _______ _______ _____ _____    ______ ____
DOCKED: ROOT
DOCKED: ATOM      1  C   UNL     1     140.145  72.701 220.202 -0.07 -0.03    +0.181 C  
DOCKED: ENDROOT
DOCKED: BRANCH   1   2
DOCKED: ATOM      2  C   UNL     1     140.659  73.779 220.819 -0.16 -0.04    +0.206 C  
DOCKED: BRANCH   2   3
DOCKED: ATOM      3  O   UNL     1     140.411  73.984 222.181 -0.71 -0.01    -0.494 OA 
DOCKED: ATOM      4  H   UNL     1     140.031  73.270 222.789 -0.03 -0.01    +0.295 HD 
DOCKED: ENDBRANCH   2   3
DOCKED: BRANCH   2   5
DOCKED: ATOM      5  N   UNL     1     141.482  74.742 220.107 -0.07 +0.10    -0.335 N  
DOCKED: ATOM      6  C   UNL     1     141.171  76.174 220.273 -0.20 -0.05    +0.120 C  
DOCKED: ATOM      7  C   UNL     1     142.405  74.320 219.026 -0.13 -0.03    +0.115 C  
DOCKED: ATOM      8  C   UNL     1     142.417  77.049 220.079 -0.28 -0.02    +0.022 C  
DOCKED: ATOM      9  C   UNL     1     142.702  75.482 218.061 -0.18 -0.01    +0.030 C  
DOCKED: ATOM     10  C   UNL     1     143.211  76.727 218.799 -0.34 -0.00    +0.004 C  
DOCKED: BRANCH   7  11
DOCKED: ATOM     11  C   UNL     1     143.697  73.725 219.566 -0.29 +0.01    -0.025 A  
DOCKED: ATOM     12  C   UNL     1     144.334  74.347 220.657 -0.40 -0.00    +0.006 A  
DOCKED: ATOM     13  C   UNL     1     144.280  72.568 219.010 -0.22 +0.00    +0.006 A  
DOCKED: ATOM     14  C   UNL     1     145.525  73.831 221.174 -0.61 -0.00    +0.000 A  
DOCKED: ATOM     15  C   UNL     1     145.471  72.055 219.533 -0.37 +0.00    +0.000 A  
DOCKED: ATOM     16  C   UNL     1     146.091  72.684 220.614 -0.53 +0.00    +0.000 A  
DOCKED: ENDBRANCH   7  11
DOCKED: ENDBRANCH   2   5
DOCKED: ENDBRANCH   1   2
DOCKED: BRANCH   1  17
DOCKED: ATOM     17  N   UNL     1     139.191  71.853 220.853 -0.05 +0.04    -0.215 NA 
DOCKED: BRANCH  17  18
DOCKED: ATOM     18  C   UNL     1     138.727  72.028 222.060 -0.13 -0.05    +0.237 C  
DOCKED: BRANCH  18  19
DOCKED: ATOM     19  O   UNL     1     137.893  73.113 222.316 -0.05 +0.17    -0.492 OA 
DOCKED: ATOM     20  H   UNL     1     138.262  73.980 222.688 -0.47 -0.15    +0.295 HD 
DOCKED: ENDBRANCH  18  19
DOCKED: BRANCH  18  21
DOCKED: ATOM     21  C   UNL     1     139.043  71.113 223.174 -0.24 -0.03    +0.126 A  
DOCKED: ATOM     22  N   UNL     1     139.753  71.579 224.236 -0.25 +0.06    -0.243 NA 
DOCKED: ATOM     23  C   UNL     1     138.645  69.767 223.138 -0.22 -0.01    +0.035 A  
DOCKED: ATOM     24  C   UNL     1     140.064  70.785 225.297 -0.46 -0.01    +0.071 A  
DOCKED: ATOM     25  C   UNL     1     138.955  68.927 224.207 -0.33 -0.00    +0.013 A  
DOCKED: ATOM     26  C   UNL     1     140.779  71.307 226.380 -0.64 -0.00    +0.030 A  
DOCKED: ATOM     27  C   UNL     1     139.659  69.431 225.307 -0.42 -0.00    +0.002 A  
DOCKED: ATOM     28  C   UNL     1     141.082  70.492 227.475 -0.60 -0.00    +0.023 A  
DOCKED: ATOM     29  C   UNL     1     139.970  68.620 226.407 -0.56 -0.01    +0.030 A  
DOCKED: ATOM     30  C   UNL     1     140.678  69.152 227.491 -0.59 -0.01    +0.041 A  
DOCKED: ATOM     31  Cl  UNL     1     141.061  68.138 228.869 -0.60 +0.02    -0.084 Cl 
DOCKED: ENDBRANCH  18  21
DOCKED: ENDBRANCH  17  18
DOCKED: ENDBRANCH   1  17
DOCKED: TORSDOF 8
DOCKED: TER
DOCKED: ENDMDL
________________________________________________________________________________


    FINAL DOCKED STATE:
    ________________________


Run:   4 / 20
Time taken for this run:   0.053s

DOCKED: MODEL        4
DOCKED: USER    Run = 4
DOCKED: USER
DOCKED: USER    Estimated Free Energy of Binding    =  -8.78 kcal/mol  [=(1)+(2)+(3)-(4)]
DOCKED: USER
DOCKED: USER    (1) Final Intermolecular Energy     = -11.17 kcal/mol
DOCKED: USER        vdW + Hbond + desolv Energy     = -11.04 kcal/mol
DOCKED: USER        Electrostatic Energy            =  -0.13 kcal/mol
DOCKED: USER        Moving Ligand-Fixed Receptor    = -11.17 kcal/mol
DOCKED: USER        Moving Ligand-Moving Receptor   =  +0.00 kcal/mol
DOCKED: USER    (2) Final Total Internal Energy     =  -2.20 kcal/mol
DOCKED: USER    (3) Torsional Free Energy           =  +2.39 kcal/mol
DOCKED: USER    (4) Unbound System's Energy         =  -2.20 kcal/mol
DOCKED: USER
DOCKED: USER
DOCKED: REMARK SMILES O/C(=C\N=C(\O)c1ccc2cc(Cl)ccc2n1)N1CCCC[C@H]1c1ccccc1
DOCKED: REMARK SMILES IDX 3 1 2 2 1 3 18 5 19 6 23 7 20 8 22 9 21 10 24 11 25 12 29 13
DOCKED: REMARK SMILES IDX 26 14 28 15 27 16 4 17 5 18 6 19 7 21 17 22 8 23 16 24 9 25
DOCKED: REMARK SMILES IDX 15 26 10 27 14 28 11 29 12 30 13 31
DOCKED: REMARK H PARENT 1 4 6 20
DOCKED: USER                              x       y       z     vdW  Elec       q    Type
DOCKED: USER                           _______ _______ _______ _____ _____    ______ ____
DOCKED: ROOT
DOCKED: ATOM      1  C   UNL     1     140.711  74.817 221.258 -0.24 -0.04    +0.181 C  
DOCKED: ENDROOT
DOCKED: BRANCH   1   2
DOCKED: ATOM      2  C   UNL     1     140.305  75.882 221.970 -0.27 -0.04    +0.206 C  
DOCKED: BRANCH   2   3
DOCKED: ATOM      3  O   UNL     1     139.294  75.733 222.927 -0.19 +0.08    -0.494 OA 
DOCKED: ATOM      4  H   UNL     1     139.143  74.878 223.446 -0.43 -0.12    +0.295 HD 
DOCKED: ENDBRANCH   2   3
DOCKED: BRANCH   2   5
DOCKED: ATOM      5  N   UNL     1     140.899  77.194 221.781 -0.18 +0.13    -0.335 N  
DOCKED: ATOM      6  C   UNL     1     141.671  77.432 220.548 -0.25 -0.07    +0.120 C  
DOCKED: ATOM      7  C   UNL     1     140.990  78.169 222.894 -0.41 -0.04    +0.115 C  
DOCKED: ATOM      8  C   UNL     1     141.649  78.913 220.143 -0.28 -0.01    +0.022 C  
DOCKED: ATOM      9  C   UNL     1     142.122  79.184 222.656 -0.54 -0.01    +0.030 C  
DOCKED: ATOM     10  C   UNL     1     141.995  79.878 221.293 -0.37 -0.00    +0.004 C  
DOCKED: BRANCH   7  11
DOCKED: ATOM     11  C   UNL     1     139.671  78.884 223.149 -0.36 +0.00    -0.025 A  
DOCKED: ATOM     12  C   UNL     1     139.670  80.068 223.910 -0.39 -0.00    +0.006 A  
DOCKED: ATOM     13  C   UNL     1     138.446  78.400 222.646 -0.27 -0.00    +0.006 A  
DOCKED: ATOM     14  C   UNL     1     138.477  80.747 224.168 -0.41 -0.00    +0.000 A  
DOCKED: ATOM     15  C   UNL     1     137.254  79.084 222.906 -0.21 -0.00    +0.000 A  
DOCKED: ATOM     16  C   UNL     1     137.270  80.257 223.664 -0.28 -0.00    +0.000 A  
DOCKED: ENDBRANCH   7  11
DOCKED: ENDBRANCH   2   5
DOCKED: ENDBRANCH   1   2
DOCKED: BRANCH   1  17
DOCKED: ATOM     17  N   UNL     1     140.691  73.496 221.814 -0.56 +0.01    -0.215 NA 
DOCKED: BRANCH  17  18
DOCKED: ATOM     18  C   UNL     1     139.679  72.953 222.431 -0.12 -0.04    +0.237 C  
DOCKED: BRANCH  18  19
DOCKED: ATOM     19  O   UNL     1     138.390  73.381 222.128 -0.08 +0.16    -0.492 OA 
DOCKED: ATOM     20  H   UNL     1     137.912  74.057 222.713 -0.47 -0.15    +0.295 HD 
DOCKED: ENDBRANCH  18  19
DOCKED: BRANCH  18  21
DOCKED: ATOM     21  C   UNL     1     139.841  71.887 223.439 -0.29 -0.03    +0.126 A  
DOCKED: ATOM     22  N   UNL     1     140.358  72.198 224.658 +0.03 +0.04    -0.243 NA 
DOCKED: ATOM     23  C   UNL     1     139.497  70.558 223.147 -0.26 -0.01    +0.035 A  
DOCKED: ATOM     24  C   UNL     1     140.520  71.260 225.631 -0.53 -0.01    +0.071 A  
DOCKED: ATOM     25  C   UNL     1     139.657  69.573 224.121 -0.27 -0.00    +0.013 A  
DOCKED: ATOM     26  C   UNL     1     141.035  71.623 226.880 -0.73 -0.00    +0.030 A  
DOCKED: ATOM     27  C   UNL     1     140.161  69.916 225.381 -0.46 -0.00    +0.002 A  
DOCKED: ATOM     28  C   UNL     1     141.185  70.659 227.881 -0.57 -0.00    +0.023 A  
DOCKED: ATOM     29  C   UNL     1     140.316  68.955 226.390 -0.54 -0.01    +0.030 A  
DOCKED: ATOM     30  C   UNL     1     140.825  69.329 227.639 -0.58 -0.01    +0.041 A  
DOCKED: ATOM     31  Cl  UNL     1     141.014  68.126 228.902 -0.55 +0.02    -0.084 Cl 
DOCKED: ENDBRANCH  18  21
DOCKED: ENDBRANCH  17  18
DOCKED: ENDBRANCH   1  17
DOCKED: TORSDOF 8
DOCKED: TER
DOCKED: ENDMDL
________________________________________________________________________________


    FINAL DOCKED STATE:
    ________________________


Run:   5 / 20
Time taken for this run:   0.053s

DOCKED: MODEL        5
DOCKED: USER    Run = 5
DOCKED: USER
DOCKED: USER    Estimated Free Energy of Binding    =  -8.06 kcal/mol  [=(1)+(2)+(3)-(4)]
DOCKED: USER
DOCKED: USER    (1) Final Intermolecular Energy     = -10.45 kcal/mol
DOCKED: USER        vdW + Hbond + desolv Energy     = -10.39 kcal/mol
DOCKED: USER        Electrostatic Energy            =  -0.06 kcal/mol
DOCKED: USER        Moving Ligand-Fixed Receptor    = -10.45 kcal/mol
DOCKED: USER        Moving Ligand-Moving Receptor   =  +0.00 kcal/mol
DOCKED: USER    (2) Final Total Internal Energy     =  -2.32 kcal/mol
DOCKED: USER    (3) Torsional Free Energy           =  +2.39 kcal/mol
DOCKED: USER    (4) Unbound System's Energy         =  -2.32 kcal/mol
DOCKED: USER
DOCKED: USER
DOCKED: REMARK SMILES O/C(=C\N=C(\O)c1ccc2cc(Cl)ccc2n1)N1CCCC[C@H]1c1ccccc1
DOCKED: REMARK SMILES IDX 3 1 2 2 1 3 18 5 19 6 23 7 20 8 22 9 21 10 24 11 25 12 29 13
DOCKED: REMARK SMILES IDX 26 14 28 15 27 16 4 17 5 18 6 19 7 21 17 22 8 23 16 24 9 25
DOCKED: REMARK SMILES IDX 15 26 10 27 14 28 11 29 12 30 13 31
DOCKED: REMARK H PARENT 1 4 6 20
DOCKED: USER                              x       y       z     vdW  Elec       q    Type
DOCKED: USER                           _______ _______ _______ _____ _____    ______ ____
DOCKED: ROOT
DOCKED: ATOM      1  C   UNL     1     140.862  75.127 221.960 -0.08 -0.02    +0.181 C  
DOCKED: ENDROOT
DOCKED: BRANCH   1   2
DOCKED: ATOM      2  C   UNL     1     139.825  75.950 221.729 -0.25 -0.05    +0.206 C  
DOCKED: BRANCH   2   3
DOCKED: ATOM      3  O   UNL     1     138.588  75.697 222.333 -0.17 +0.12    -0.494 OA 
DOCKED: ATOM      4  H   UNL     1     138.357  74.816 222.776 -0.43 -0.13    +0.295 HD 
DOCKED: ENDBRANCH   2   3
DOCKED: BRANCH   2   5
DOCKED: ATOM      5  N   UNL     1     139.955  77.114 220.869 -0.05 +0.10    -0.335 N  
DOCKED: ATOM      6  C   UNL     1     138.834  77.437 219.968 -0.05 -0.03    +0.120 C  
DOCKED: ATOM      7  C   UNL     1     141.262  77.787 220.673 -0.25 -0.06    +0.115 C  
DOCKED: ATOM      8  C   UNL     1     138.772  78.940 219.659 -0.05 -0.01    +0.022 C  
DOCKED: ATOM      9  C   UNL     1     141.296  78.563 219.344 -0.22 -0.02    +0.030 C  
DOCKED: ATOM     10  C   UNL     1     140.121  79.541 219.219 -0.11 -0.00    +0.004 C  
DOCKED: BRANCH   7  11
DOCKED: ATOM     11  C   UNL     1     141.626  78.698 221.837 -0.41 +0.01    -0.025 A  
DOCKED: ATOM     12  C   UNL     1     142.170  79.967 221.568 -0.43 -0.00    +0.006 A  
DOCKED: ATOM     13  C   UNL     1     141.436  78.311 223.179 -0.55 -0.00    +0.006 A  
DOCKED: ATOM     14  C   UNL     1     142.520  80.826 222.613 -0.56 -0.00    +0.000 A  
DOCKED: ATOM     15  C   UNL     1     141.787  79.175 224.221 -0.56 -0.00    +0.000 A  
DOCKED: ATOM     16  C   UNL     1     142.327  80.432 223.938 -0.62 -0.00    +0.000 A  
DOCKED: ENDBRANCH   7  11
DOCKED: ENDBRANCH   2   5
DOCKED: ENDBRANCH   1   2
DOCKED: BRANCH   1  17
DOCKED: ATOM     17  N   UNL     1     140.761  73.716 221.729 -0.54 +0.02    -0.215 NA 
DOCKED: BRANCH  17  18
DOCKED: ATOM     18  C   UNL     1     139.746  72.968 222.064 -0.19 -0.04    +0.237 C  
DOCKED: BRANCH  18  19
DOCKED: ATOM     19  O   UNL     1     138.528  73.144 221.414 -0.05 +0.11    -0.492 OA 
DOCKED: ATOM     20  H   UNL     1     138.268  74.043 221.025 +0.06 -0.07    +0.295 HD 
DOCKED: ENDBRANCH  18  19
DOCKED: BRANCH  18  21
DOCKED: ATOM     21  C   UNL     1     139.836  71.927 223.107 -0.29 -0.02    +0.126 A  
DOCKED: ATOM     22  N   UNL     1     140.364  72.244 224.319 -0.07 +0.04    -0.243 NA 
DOCKED: ATOM     23  C   UNL     1     139.412  70.613 222.853 -0.24 -0.01    +0.035 A  
DOCKED: ATOM     24  C   UNL     1     140.461  71.330 225.322 -0.50 -0.01    +0.071 A  
DOCKED: ATOM     25  C   UNL     1     139.505  69.651 223.859 -0.28 -0.00    +0.013 A  
DOCKED: ATOM     26  C   UNL     1     140.991  71.700 226.563 -0.69 -0.00    +0.030 A  
DOCKED: ATOM     27  C   UNL     1     140.021  70.003 225.112 -0.43 -0.00    +0.002 A  
DOCKED: ATOM     28  C   UNL     1     141.074  70.761 227.595 -0.64 -0.00    +0.023 A  
DOCKED: ATOM     29  C   UNL     1     140.111  69.067 226.152 -0.50 -0.01    +0.030 A  
DOCKED: ATOM     30  C   UNL     1     140.634  69.448 227.393 -0.57 -0.01    +0.041 A  
DOCKED: ATOM     31  Cl  UNL     1     140.741  68.277 228.695 -0.67 +0.02    -0.084 Cl 
DOCKED: ENDBRANCH  18  21
DOCKED: ENDBRANCH  17  18
DOCKED: ENDBRANCH   1  17
DOCKED: TORSDOF 8
DOCKED: TER
DOCKED: ENDMDL
________________________________________________________________________________


    FINAL DOCKED STATE:
    ________________________


Run:   6 / 20
Time taken for this run:   0.053s

DOCKED: MODEL        6
DOCKED: USER    Run = 6
DOCKED: USER
DOCKED: USER    Estimated Free Energy of Binding    =  -7.36 kcal/mol  [=(1)+(2)+(3)-(4)]
DOCKED: USER
DOCKED: USER    (1) Final Intermolecular Energy     =  -9.75 kcal/mol
DOCKED: USER        vdW + Hbond + desolv Energy     =  -9.83 kcal/mol
DOCKED: USER        Electrostatic Energy            =  +0.08 kcal/mol
DOCKED: USER        Moving Ligand-Fixed Receptor    =  -9.75 kcal/mol
DOCKED: USER        Moving Ligand-Moving Receptor   =  +0.00 kcal/mol
DOCKED: USER    (2) Final Total Internal Energy     =  -2.32 kcal/mol
DOCKED: USER    (3) Torsional Free Energy           =  +2.39 kcal/mol
DOCKED: USER    (4) Unbound System's Energy         =  -2.32 kcal/mol
DOCKED: USER
DOCKED: USER
DOCKED: REMARK SMILES O/C(=C\N=C(\O)c1ccc2cc(Cl)ccc2n1)N1CCCC[C@H]1c1ccccc1
DOCKED: REMARK SMILES IDX 3 1 2 2 1 3 18 5 19 6 23 7 20 8 22 9 21 10 24 11 25 12 29 13
DOCKED: REMARK SMILES IDX 26 14 28 15 27 16 4 17 5 18 6 19 7 21 17 22 8 23 16 24 9 25
DOCKED: REMARK SMILES IDX 15 26 10 27 14 28 11 29 12 30 13 31
DOCKED: REMARK H PARENT 1 4 6 20
DOCKED: USER                              x       y       z     vdW  Elec       q    Type
DOCKED: USER                           _______ _______ _______ _____ _____    ______ ____
DOCKED: ROOT
DOCKED: ATOM      1  C   UNL     1     139.064  75.199 221.502 -0.20 -0.04    +0.181 C  
DOCKED: ENDROOT
DOCKED: BRANCH   1   2
DOCKED: ATOM      2  C   UNL     1     140.277  75.750 221.326 -0.23 -0.05    +0.206 C  
DOCKED: BRANCH   2   3
DOCKED: ATOM      3  O   UNL     1     141.395  75.185 221.951 -0.32 +0.10    -0.494 OA 
DOCKED: ATOM      4  H   UNL     1     141.393  74.259 222.359 +0.13 +0.04    +0.295 HD 
DOCKED: ENDBRANCH   2   3
DOCKED: BRANCH   2   5
DOCKED: ATOM      5  N   UNL     1     140.465  76.921 220.487 -0.06 +0.12    -0.335 N  
DOCKED: ATOM      6  C   UNL     1     139.511  77.143 219.386 -0.05 -0.03    +0.120 C  
DOCKED: ATOM      7  C   UNL     1     141.721  77.708 220.529 -0.26 -0.07    +0.115 C  
DOCKED: ATOM      8  C   UNL     1     139.377  78.634 219.045 -0.05 -0.01    +0.022 C  
DOCKED: ATOM      9  C   UNL     1     141.938  78.484 219.217 -0.26 -0.02    +0.030 C  
DOCKED: ATOM     10  C   UNL     1     140.726  79.354 218.856 -0.15 -0.00    +0.004 C  
DOCKED: BRANCH   7  11
DOCKED: ATOM     11  C   UNL     1     141.778  78.647 221.725 -0.40 +0.01    -0.025 A  
DOCKED: ATOM     12  C   UNL     1     142.208  79.973 221.534 -0.42 -0.00    +0.006 A  
DOCKED: ATOM     13  C   UNL     1     141.413  78.232 223.022 -0.53 -0.00    +0.006 A  
DOCKED: ATOM     14  C   UNL     1     142.278  80.861 222.611 -0.57 -0.00    +0.000 A  
DOCKED: ATOM     15  C   UNL     1     141.483  79.125 224.096 -0.57 -0.00    +0.000 A  
DOCKED: ATOM     16  C   UNL     1     141.913  80.438 223.890 -0.59 -0.00    +0.000 A  
DOCKED: ENDBRANCH   7  11
DOCKED: ENDBRANCH   2   5
DOCKED: ENDBRANCH   1   2
DOCKED: BRANCH   1  17
DOCKED: ATOM     17  N   UNL     1     138.906  73.942 222.172 -0.27 +0.06    -0.215 NA 
DOCKED: BRANCH  17  18
DOCKED: ATOM     18  C   UNL     1     139.730  72.934 222.086 -0.19 -0.04    +0.237 C  
DOCKED: BRANCH  18  19
DOCKED: ATOM     19  O   UNL     1     140.558  72.826 220.973 -0.06 +0.08    -0.492 OA 
DOCKED: ATOM     20  H   UNL     1     141.102  73.616 220.647 +0.10 -0.05    +0.295 HD 
DOCKED: ENDBRANCH  18  19
DOCKED: BRANCH  18  21
DOCKED: ATOM     21  C   UNL     1     139.828  71.896 223.131 -0.29 -0.02    +0.126 A  
DOCKED: ATOM     22  N   UNL     1     140.360  72.219 224.340 -0.08 +0.04    -0.243 NA 
DOCKED: ATOM     23  C   UNL     1     139.408  70.580 222.884 -0.24 -0.01    +0.035 A  
DOCKED: ATOM     24  C   UNL     1     140.466  71.308 225.346 -0.50 -0.01    +0.071 A  
DOCKED: ATOM     25  C   UNL     1     139.510  69.621 223.892 -0.28 -0.00    +0.013 A  
DOCKED: ATOM     26  C   UNL     1     141.000  71.683 226.583 -0.70 -0.00    +0.030 A  
DOCKED: ATOM     27  C   UNL     1     140.030  69.979 225.142 -0.43 -0.00    +0.002 A  
DOCKED: ATOM     28  C   UNL     1     141.092  70.748 227.618 -0.63 -0.00    +0.023 A  
DOCKED: ATOM     29  C   UNL     1     140.128  69.046 226.184 -0.51 -0.01    +0.030 A  
DOCKED: ATOM     30  C   UNL     1     140.656  69.433 227.421 -0.57 -0.01    +0.041 A  
DOCKED: ATOM     31  Cl  UNL     1     140.773  68.267 228.726 -0.66 +0.02    -0.084 Cl 
DOCKED: ENDBRANCH  18  21
DOCKED: ENDBRANCH  17  18
DOCKED: ENDBRANCH   1  17
DOCKED: TORSDOF 8
DOCKED: TER
DOCKED: ENDMDL
________________________________________________________________________________


    FINAL DOCKED STATE:
    ________________________


Run:   7 / 20
Time taken for this run:   0.053s

DOCKED: MODEL        7
DOCKED: USER    Run = 7
DOCKED: USER
DOCKED: USER    Estimated Free Energy of Binding    =  -7.64 kcal/mol  [=(1)+(2)+(3)-(4)]
DOCKED: USER
DOCKED: USER    (1) Final Intermolecular Energy     = -10.03 kcal/mol
DOCKED: USER        vdW + Hbond + desolv Energy     =  -9.99 kcal/mol
DOCKED: USER        Electrostatic Energy            =  -0.04 kcal/mol
DOCKED: USER        Moving Ligand-Fixed Receptor    = -10.03 kcal/mol
DOCKED: USER        Moving Ligand-Moving Receptor   =  +0.00 kcal/mol
DOCKED: USER    (2) Final Total Internal Energy     =  -2.33 kcal/mol
DOCKED: USER    (3) Torsional Free Energy           =  +2.39 kcal/mol
DOCKED: USER    (4) Unbound System's Energy         =  -2.33 kcal/mol
DOCKED: USER
DOCKED: USER
DOCKED: REMARK SMILES O/C(=C\N=C(\O)c1ccc2cc(Cl)ccc2n1)N1CCCC[C@H]1c1ccccc1
DOCKED: REMARK SMILES IDX 3 1 2 2 1 3 18 5 19 6 23 7 20 8 22 9 21 10 24 11 25 12 29 13
DOCKED: REMARK SMILES IDX 26 14 28 15 27 16 4 17 5 18 6 19 7 21 17 22 8 23 16 24 9 25
DOCKED: REMARK SMILES IDX 15 26 10 27 14 28 11 29 12 30 13 31
DOCKED: REMARK H PARENT 1 4 6 20
DOCKED: USER                              x       y       z     vdW  Elec       q    Type
DOCKED: USER                           _______ _______ _______ _____ _____    ______ ____
DOCKED: ROOT
DOCKED: ATOM      1  C   UNL     1     140.547  72.461 220.130 -0.08 -0.03    +0.181 C  
DOCKED: ENDROOT
DOCKED: BRANCH   1   2
DOCKED: ATOM      2  C   UNL     1     141.435  73.122 220.892 -0.18 -0.03    +0.206 C  
DOCKED: BRANCH   2   3
DOCKED: ATOM      3  O   UNL     1     140.999  73.804 222.034 -0.56 -0.00    -0.494 OA 
DOCKED: ATOM      4  H   UNL     1     140.295  73.440 222.663 +0.04 +0.02    +0.295 HD 
DOCKED: ENDBRANCH   2   3
DOCKED: BRANCH   2   5
DOCKED: ATOM      5  N   UNL     1     142.851  73.138 220.567 -0.11 +0.06    -0.335 N  
DOCKED: ATOM      6  C   UNL     1     143.549  71.844 220.456 -0.24 -0.02    +0.120 C  
DOCKED: ATOM      7  C   UNL     1     143.644  74.389 220.634 -0.22 -0.04    +0.115 C  
DOCKED: ATOM      8  C   UNL     1     144.745  71.928 219.497 -0.30 +0.00    +0.022 C  
DOCKED: ATOM      9  C   UNL     1     145.142  74.089 220.833 -0.52 -0.01    +0.030 C  
DOCKED: ATOM     10  C   UNL     1     145.681  73.122 219.771 -0.49 +0.00    +0.004 C  
DOCKED: BRANCH   7  11
DOCKED: ATOM     11  C   UNL     1     143.431  75.277 219.417 -0.35 +0.01    -0.025 A  
DOCKED: ATOM     12  C   UNL     1     143.526  74.712 218.132 -0.20 -0.00    +0.006 A  
DOCKED: ATOM     13  C   UNL     1     143.138  76.651 219.535 -0.38 -0.00    +0.006 A  
DOCKED: ATOM     14  C   UNL     1     143.341  75.501 216.993 -0.18 -0.00    +0.000 A  
DOCKED: ATOM     15  C   UNL     1     142.952  77.435 218.392 -0.34 -0.00    +0.000 A  
DOCKED: ATOM     16  C   UNL     1     143.052  76.860 217.123 -0.26 -0.00    +0.000 A  
DOCKED: ENDBRANCH   7  11
DOCKED: ENDBRANCH   2   5
DOCKED: ENDBRANCH   1   2
DOCKED: BRANCH   1  17
DOCKED: ATOM     17  N   UNL     1     139.313  71.974 220.675 -0.04 +0.04    -0.215 NA 
DOCKED: BRANCH  17  18
DOCKED: ATOM     18  C   UNL     1     138.888  72.189 221.889 -0.13 -0.05    +0.237 C  
DOCKED: BRANCH  18  19
DOCKED: ATOM     19  O   UNL     1     138.141  73.332 222.154 -0.06 +0.16    -0.492 OA 
DOCKED: ATOM     20  H   UNL     1     138.507  74.071 222.744 -0.50 -0.15    +0.295 HD 
DOCKED: ENDBRANCH  18  19
DOCKED: BRANCH  18  21
DOCKED: ATOM     21  C   UNL     1     139.161  71.260 223.003 -0.23 -0.03    +0.126 A  
DOCKED: ATOM     22  N   UNL     1     139.856  71.703 224.085 -0.24 +0.05    -0.243 NA 
DOCKED: ATOM     23  C   UNL     1     138.739  69.922 222.947 -0.21 -0.01    +0.035 A  
DOCKED: ATOM     24  C   UNL     1     140.127  70.896 225.146 -0.46 -0.01    +0.071 A  
DOCKED: ATOM     25  C   UNL     1     139.007  69.068 224.017 -0.31 -0.00    +0.013 A  
DOCKED: ATOM     26  C   UNL     1     140.826  71.395 226.250 -0.64 -0.00    +0.030 A  
DOCKED: ATOM     27  C   UNL     1     139.696  69.550 225.136 -0.41 -0.00    +0.002 A  
DOCKED: ATOM     28  C   UNL     1     141.089  70.567 227.344 -0.60 -0.00    +0.023 A  
DOCKED: ATOM     29  C   UNL     1     139.965  68.725 226.237 -0.53 -0.01    +0.030 A  
DOCKED: ATOM     30  C   UNL     1     140.658  69.236 227.341 -0.58 -0.01    +0.041 A  
DOCKED: ATOM     31  Cl  UNL     1     140.990  68.203 228.720 -0.69 +0.02    -0.084 Cl 
DOCKED: ENDBRANCH  18  21
DOCKED: ENDBRANCH  17  18
DOCKED: ENDBRANCH   1  17
DOCKED: TORSDOF 8
DOCKED: TER
DOCKED: ENDMDL
________________________________________________________________________________


    FINAL DOCKED STATE:
    ________________________


Run:   8 / 20
Time taken for this run:   0.053s

DOCKED: MODEL        8
DOCKED: USER    Run = 8
DOCKED: USER
DOCKED: USER    Estimated Free Energy of Binding    =  -6.22 kcal/mol  [=(1)+(2)+(3)-(4)]
DOCKED: USER
DOCKED: USER    (1) Final Intermolecular Energy     =  -8.60 kcal/mol
DOCKED: USER        vdW + Hbond + desolv Energy     =  -8.40 kcal/mol
DOCKED: USER        Electrostatic Energy            =  -0.21 kcal/mol
DOCKED: USER        Moving Ligand-Fixed Receptor    =  -8.60 kcal/mol
DOCKED: USER        Moving Ligand-Moving Receptor   =  +0.00 kcal/mol
DOCKED: USER    (2) Final Total Internal Energy     =  -3.35 kcal/mol
DOCKED: USER    (3) Torsional Free Energy           =  +2.39 kcal/mol
DOCKED: USER    (4) Unbound System's Energy         =  -3.35 kcal/mol
DOCKED: USER
DOCKED: USER
DOCKED: REMARK SMILES O/C(=C\N=C(\O)c1ccc2cc(Cl)ccc2n1)N1CCCC[C@H]1c1ccccc1
DOCKED: REMARK SMILES IDX 3 1 2 2 1 3 18 5 19 6 23 7 20 8 22 9 21 10 24 11 25 12 29 13
DOCKED: REMARK SMILES IDX 26 14 28 15 27 16 4 17 5 18 6 19 7 21 17 22 8 23 16 24 9 25
DOCKED: REMARK SMILES IDX 15 26 10 27 14 28 11 29 12 30 13 31
DOCKED: REMARK H PARENT 1 4 6 20
DOCKED: USER                              x       y       z     vdW  Elec       q    Type
DOCKED: USER                           _______ _______ _______ _____ _____    ______ ____
DOCKED: ROOT
DOCKED: ATOM      1  C   UNL     1     139.220  73.038 220.508 -0.07 -0.04    +0.181 C  
DOCKED: ENDROOT
DOCKED: BRANCH   1   2
DOCKED: ATOM      2  C   UNL     1     140.333  73.221 221.239 -0.18 -0.03    +0.206 C  
DOCKED: BRANCH   2   3
DOCKED: ATOM      3  O   UNL     1     140.236  73.371 222.627 -0.63 -0.01    -0.494 OA 
DOCKED: ATOM      4  H   UNL     1     139.537  73.949 223.075 -0.44 -0.05    +0.295 HD 
DOCKED: ENDBRANCH   2   3
DOCKED: BRANCH   2   5
DOCKED: ATOM      5  N   UNL     1     141.648  73.257 220.623 -0.09 +0.06    -0.335 N  
DOCKED: ATOM      6  C   UNL     1     142.163  72.014 220.019 -0.14 -0.02    +0.120 C  
DOCKED: ATOM      7  C   UNL     1     142.572  74.396 220.841 -0.20 -0.04    +0.115 C  
DOCKED: ATOM      8  C   UNL     1     143.145  72.306 218.876 -0.12 -0.00    +0.022 C  
DOCKED: ATOM      9  C   UNL     1     144.037  73.977 220.615 -0.38 -0.01    +0.030 C  
DOCKED: ATOM     10  C   UNL     1     144.243  73.324 219.242 -0.29 -0.00    +0.004 C  
DOCKED: BRANCH   7  11
DOCKED: ATOM     11  C   UNL     1     142.219  75.602 219.983 -0.28 +0.01    -0.025 A  
DOCKED: ATOM     12  C   UNL     1     143.253  76.435 219.515 -0.40 -0.00    +0.006 A  
DOCKED: ATOM     13  C   UNL     1     140.888  75.914 219.640 -0.15 -0.00    +0.006 A  
DOCKED: ATOM     14  C   UNL     1     142.963  77.554 218.731 -0.31 -0.00    +0.000 A  
DOCKED: ATOM     15  C   UNL     1     140.604  77.034 218.853 -0.10 -0.00    +0.000 A  
DOCKED: ATOM     16  C   UNL     1     141.641  77.852 218.397 -0.21 -0.00    +0.000 A  
DOCKED: ENDBRANCH   7  11
DOCKED: ENDBRANCH   2   5
DOCKED: ENDBRANCH   1   2
DOCKED: BRANCH   1  17
DOCKED: ATOM     17  N   UNL     1     138.074  73.884 220.670 -0.05 +0.05    -0.215 NA 
DOCKED: BRANCH  17  18
DOCKED: ATOM     18  C   UNL     1     137.765  74.535 221.757 -0.12 -0.07    +0.237 C  
DOCKED: BRANCH  18  19
DOCKED: ATOM     19  O   UNL     1     136.930  73.934 222.694 -0.02 +0.19    -0.492 OA 
DOCKED: ATOM     20  H   UNL     1     137.310  73.402 223.469 -0.47 -0.22    +0.295 HD 
DOCKED: ENDBRANCH  18  19
DOCKED: BRANCH  18  21
DOCKED: ATOM     21  C   UNL     1     138.273  75.891 222.044 -0.23 -0.03    +0.126 A  
DOCKED: ATOM     22  N   UNL     1     139.566  76.047 222.436 -0.31 +0.04    -0.243 NA 
DOCKED: ATOM     23  C   UNL     1     137.434  77.012 221.945 -0.18 -0.01    +0.035 A  
DOCKED: ATOM     24  C   UNL     1     140.093  77.273 222.703 -0.29 -0.02    +0.071 A  
DOCKED: ATOM     25  C   UNL     1     137.943  78.281 222.219 -0.20 -0.00    +0.013 A  
DOCKED: ATOM     26  C   UNL     1     141.433  77.395 223.083 -0.19 -0.01    +0.030 A  
DOCKED: ATOM     27  C   UNL     1     139.285  78.427 222.590 -0.32 -0.00    +0.002 A  
DOCKED: ATOM     28  C   UNL     1     141.975  78.658 223.341 -0.53 -0.01    +0.023 A  
DOCKED: ATOM     29  C   UNL     1     139.835  79.690 222.853 -0.35 -0.01    +0.030 A  
DOCKED: ATOM     30  C   UNL     1     141.180  79.804 223.224 -0.49 -0.01    +0.041 A  
DOCKED: ATOM     31  Cl  UNL     1     141.868  81.384 223.548 -0.66 +0.01    -0.084 Cl 
DOCKED: ENDBRANCH  18  21
DOCKED: ENDBRANCH  17  18
DOCKED: ENDBRANCH   1  17
DOCKED: TORSDOF 8
DOCKED: TER
DOCKED: ENDMDL
________________________________________________________________________________


    FINAL DOCKED STATE:
    ________________________


Run:   9 / 20
Time taken for this run:   0.053s

DOCKED: MODEL        9
DOCKED: USER    Run = 9
DOCKED: USER
DOCKED: USER    Estimated Free Energy of Binding    =  -8.77 kcal/mol  [=(1)+(2)+(3)-(4)]
DOCKED: USER
DOCKED: USER    (1) Final Intermolecular Energy     = -11.16 kcal/mol
DOCKED: USER        vdW + Hbond + desolv Energy     = -11.04 kcal/mol
DOCKED: USER        Electrostatic Energy            =  -0.12 kcal/mol
DOCKED: USER        Moving Ligand-Fixed Receptor    = -11.16 kcal/mol
DOCKED: USER        Moving Ligand-Moving Receptor   =  +0.00 kcal/mol
DOCKED: USER    (2) Final Total Internal Energy     =  -2.04 kcal/mol
DOCKED: USER    (3) Torsional Free Energy           =  +2.39 kcal/mol
DOCKED: USER    (4) Unbound System's Energy         =  -2.04 kcal/mol
DOCKED: USER
DOCKED: USER
DOCKED: REMARK SMILES O/C(=C\N=C(\O)c1ccc2cc(Cl)ccc2n1)N1CCCC[C@H]1c1ccccc1
DOCKED: REMARK SMILES IDX 3 1 2 2 1 3 18 5 19 6 23 7 20 8 22 9 21 10 24 11 25 12 29 13
DOCKED: REMARK SMILES IDX 26 14 28 15 27 16 4 17 5 18 6 19 7 21 17 22 8 23 16 24 9 25
DOCKED: REMARK SMILES IDX 15 26 10 27 14 28 11 29 12 30 13 31
DOCKED: REMARK H PARENT 1 4 6 20
DOCKED: USER                              x       y       z     vdW  Elec       q    Type
DOCKED: USER                           _______ _______ _______ _____ _____    ______ ____
DOCKED: ROOT
DOCKED: ATOM      1  C   UNL     1     141.173  74.726 221.401 -0.22 -0.03    +0.181 C  
DOCKED: ENDROOT
DOCKED: BRANCH   1   2
DOCKED: ATOM      2  C   UNL     1     140.277  75.696 221.652 -0.26 -0.05    +0.206 C  
DOCKED: BRANCH   2   3
DOCKED: ATOM      3  O   UNL     1     139.415  75.579 222.748 -0.34 +0.08    -0.494 OA 
DOCKED: ATOM      4  H   UNL     1     139.252  74.707 223.236 -0.45 -0.09    +0.295 HD 
DOCKED: ENDBRANCH   2   3
DOCKED: BRANCH   2   5
DOCKED: ATOM      5  N   UNL     1     140.184  76.880 220.815 -0.06 +0.10    -0.335 N  
DOCKED: ATOM      6  C   UNL     1     138.976  77.049 219.987 -0.05 -0.03    +0.120 C  
DOCKED: ATOM      7  C   UNL     1     141.365  77.741 220.562 -0.25 -0.06    +0.115 C  
DOCKED: ATOM      8  C   UNL     1     138.677  78.531 219.719 -0.05 -0.01    +0.022 C  
DOCKED: ATOM      9  C   UNL     1     141.205  78.535 219.252 -0.20 -0.01    +0.030 C  
DOCKED: ATOM     10  C   UNL     1     139.895  79.331 219.218 -0.09 -0.00    +0.004 C  
DOCKED: BRANCH   7  11
DOCKED: ATOM     11  C   UNL     1     141.661  78.676 221.725 -0.40 +0.01    -0.025 A  
DOCKED: ATOM     12  C   UNL     1     141.432  78.228 223.039 -0.53 -0.00    +0.006 A  
DOCKED: ATOM     13  C   UNL     1     142.161  79.980 221.529 -0.43 -0.00    +0.006 A  
DOCKED: ATOM     14  C   UNL     1     141.688  79.063 224.129 -0.58 -0.00    +0.000 A  
DOCKED: ATOM     15  C   UNL     1     142.417  80.811 222.625 -0.57 -0.00    +0.000 A  
DOCKED: ATOM     16  C   UNL     1     142.183  80.352 223.923 -0.61 -0.00    +0.000 A  
DOCKED: ENDBRANCH   7  11
DOCKED: ENDBRANCH   2   5
DOCKED: ENDBRANCH   1   2
DOCKED: BRANCH   1  17
DOCKED: ATOM     17  N   UNL     1     140.864  73.346 221.638 -0.36 +0.02    -0.215 NA 
DOCKED: BRANCH  17  18
DOCKED: ATOM     18  C   UNL     1     139.816  72.907 222.277 -0.19 -0.04    +0.237 C  
DOCKED: BRANCH  18  19
DOCKED: ATOM     19  O   UNL     1     138.565  73.440 221.977 -0.11 +0.14    -0.492 OA 
DOCKED: ATOM     20  H   UNL     1     138.020  73.924 222.681 -0.46 -0.15    +0.295 HD 
DOCKED: ENDBRANCH  18  19
DOCKED: BRANCH  18  21
DOCKED: ATOM     21  C   UNL     1     139.897  71.855 223.309 -0.30 -0.02    +0.126 A  
DOCKED: ATOM     22  N   UNL     1     140.404  72.160 224.533 -0.05 +0.04    -0.243 NA 
DOCKED: ATOM     23  C   UNL     1     139.484  70.541 223.034 -0.25 -0.01    +0.035 A  
DOCKED: ATOM     24  C   UNL     1     140.493  71.235 225.527 -0.52 -0.01    +0.071 A  
DOCKED: ATOM     25  C   UNL     1     139.568  69.568 224.030 -0.29 -0.00    +0.013 A  
DOCKED: ATOM     26  C   UNL     1     141.002  71.593 226.779 -0.71 -0.00    +0.030 A  
DOCKED: ATOM     27  C   UNL     1     140.064  69.908 225.294 -0.45 -0.00    +0.002 A  
DOCKED: ATOM     28  C   UNL     1     141.076  70.643 227.801 -0.64 -0.00    +0.023 A  
DOCKED: ATOM     29  C   UNL     1     140.144  68.960 226.324 -0.52 -0.01    +0.030 A  
DOCKED: ATOM     30  C   UNL     1     140.647  69.330 227.577 -0.59 -0.01    +0.041 A  
DOCKED: ATOM     31  Cl  UNL     1     140.742  68.145 228.867 -0.53 +0.02    -0.084 Cl 
DOCKED: ENDBRANCH  18  21
DOCKED: ENDBRANCH  17  18
DOCKED: ENDBRANCH   1  17
DOCKED: TORSDOF 8
DOCKED: TER
DOCKED: ENDMDL
________________________________________________________________________________


    FINAL DOCKED STATE:
    ________________________


Run:   10 / 20
Time taken for this run:   0.053s

DOCKED: MODEL        10
DOCKED: USER    Run = 10
DOCKED: USER
DOCKED: USER    Estimated Free Energy of Binding    =  -7.94 kcal/mol  [=(1)+(2)+(3)-(4)]
DOCKED: USER
DOCKED: USER    (1) Final Intermolecular Energy     = -10.32 kcal/mol
DOCKED: USER        vdW + Hbond + desolv Energy     = -10.23 kcal/mol
DOCKED: USER        Electrostatic Energy            =  -0.10 kcal/mol
DOCKED: USER        Moving Ligand-Fixed Receptor    = -10.32 kcal/mol
DOCKED: USER        Moving Ligand-Moving Receptor   =  +0.00 kcal/mol
DOCKED: USER    (2) Final Total Internal Energy     =  -2.58 kcal/mol
DOCKED: USER    (3) Torsional Free Energy           =  +2.39 kcal/mol
DOCKED: USER    (4) Unbound System's Energy         =  -2.58 kcal/mol
DOCKED: USER
DOCKED: USER
DOCKED: REMARK SMILES O/C(=C\N=C(\O)c1ccc2cc(Cl)ccc2n1)N1CCCC[C@H]1c1ccccc1
DOCKED: REMARK SMILES IDX 3 1 2 2 1 3 18 5 19 6 23 7 20 8 22 9 21 10 24 11 25 12 29 13
DOCKED: REMARK SMILES IDX 26 14 28 15 27 16 4 17 5 18 6 19 7 21 17 22 8 23 16 24 9 25
DOCKED: REMARK SMILES IDX 15 26 10 27 14 28 11 29 12 30 13 31
DOCKED: REMARK H PARENT 1 4 6 20
DOCKED: USER                              x       y       z     vdW  Elec       q    Type
DOCKED: USER                           _______ _______ _______ _____ _____    ______ ____
DOCKED: ROOT
DOCKED: ATOM      1  C   UNL     1     140.029  73.059 220.300 -0.08 -0.03    +0.181 C  
DOCKED: ENDROOT
DOCKED: BRANCH   1   2
DOCKED: ATOM      2  C   UNL     1     140.453  74.162 220.940 -0.18 -0.04    +0.206 C  
DOCKED: BRANCH   2   3
DOCKED: ATOM      3  O   UNL     1     140.147  74.340 222.294 -0.71 -0.00    -0.494 OA 
DOCKED: ATOM      4  H   UNL     1     139.852  73.585 222.900 -0.19 -0.01    +0.295 HD 
DOCKED: ENDBRANCH   2   3
DOCKED: BRANCH   2   5
DOCKED: ATOM      5  N   UNL     1     141.238  75.179 220.262 -0.08 +0.10    -0.335 N  
DOCKED: ATOM      6  C   UNL     1     140.945  76.592 220.563 -0.21 -0.05    +0.120 C  
DOCKED: ATOM      7  C   UNL     1     142.095  74.847 219.099 -0.14 -0.04    +0.115 C  
DOCKED: ATOM      8  C   UNL     1     142.183  77.480 220.369 -0.25 -0.02    +0.022 C  
DOCKED: ATOM      9  C   UNL     1     142.341  76.084 218.216 -0.20 -0.01    +0.030 C  
DOCKED: ATOM     10  C   UNL     1     142.899  77.263 219.022 -0.31 -0.00    +0.004 C  
DOCKED: BRANCH   7  11
DOCKED: ATOM     11  C   UNL     1     143.413  74.209 219.511 -0.29 +0.01    -0.025 A  
DOCKED: ATOM     12  C   UNL     1     144.233  73.633 218.524 -0.21 -0.00    +0.006 A  
DOCKED: ATOM     13  C   UNL     1     143.843  74.178 220.854 -0.31 -0.00    +0.006 A  
DOCKED: ATOM     14  C   UNL     1     145.448  73.034 218.869 -0.32 +0.00    +0.000 A  
DOCKED: ATOM     15  C   UNL     1     145.060  73.579 221.194 -0.51 -0.00    +0.000 A  
DOCKED: ATOM     16  C   UNL     1     145.862  73.009 220.202 -0.57 +0.00    +0.000 A  
DOCKED: ENDBRANCH   7  11
DOCKED: ENDBRANCH   2   5
DOCKED: ENDBRANCH   1   2
DOCKED: BRANCH   1  17
DOCKED: ATOM     17  N   UNL     1     139.532  71.923 221.019 -0.07 +0.04    -0.215 NA 
DOCKED: BRANCH  17  18
DOCKED: ATOM     18  C   UNL     1     138.900  71.971 222.159 -0.14 -0.05    +0.237 C  
DOCKED: BRANCH  18  19
DOCKED: ATOM     19  O   UNL     1     137.885  72.906 222.334 -0.06 +0.16    -0.492 OA 
DOCKED: ATOM     20  H   UNL     1     138.076  73.816 222.738 -0.49 -0.16    +0.295 HD 
DOCKED: ENDBRANCH  18  19
DOCKED: BRANCH  18  21
DOCKED: ATOM     21  C   UNL     1     139.212  71.062 223.280 -0.25 -0.03    +0.126 A  
DOCKED: ATOM     22  N   UNL     1     139.848  71.552 224.377 -0.26 +0.05    -0.243 NA 
DOCKED: ATOM     23  C   UNL     1     138.887  69.698 223.214 -0.23 -0.01    +0.035 A  
DOCKED: ATOM     24  C   UNL     1     140.150  70.765 225.445 -0.48 -0.01    +0.071 A  
DOCKED: ATOM     25  C   UNL     1     139.191  68.863 224.290 -0.33 -0.00    +0.013 A  
DOCKED: ATOM     26  C   UNL     1     140.786  71.311 226.565 -0.66 -0.00    +0.030 A  
DOCKED: ATOM     27  C   UNL     1     139.816  69.392 225.425 -0.44 -0.00    +0.002 A  
DOCKED: ATOM     28  C   UNL     1     141.081  70.502 227.666 -0.61 -0.00    +0.023 A  
DOCKED: ATOM     29  C   UNL     1     140.118  68.586 226.532 -0.58 -0.01    +0.030 A  
DOCKED: ATOM     30  C   UNL     1     140.746  69.143 227.652 -0.59 -0.01    +0.041 A  
DOCKED: ATOM     31  Cl  UNL     1     141.118  68.135 229.039 -0.50 +0.02    -0.084 Cl 
DOCKED: ENDBRANCH  18  21
DOCKED: ENDBRANCH  17  18
DOCKED: ENDBRANCH   1  17
DOCKED: TORSDOF 8
DOCKED: TER
DOCKED: ENDMDL
________________________________________________________________________________


    FINAL DOCKED STATE:
    ________________________


Run:   11 / 20
Time taken for this run:   0.053s

DOCKED: MODEL        11
DOCKED: USER    Run = 11
DOCKED: USER
DOCKED: USER    Estimated Free Energy of Binding    =  -7.72 kcal/mol  [=(1)+(2)+(3)-(4)]
DOCKED: USER
DOCKED: USER    (1) Final Intermolecular Energy     = -10.10 kcal/mol
DOCKED: USER        vdW + Hbond + desolv Energy     =  -9.90 kcal/mol
DOCKED: USER        Electrostatic Energy            =  -0.20 kcal/mol
DOCKED: USER        Moving Ligand-Fixed Receptor    = -10.10 kcal/mol
DOCKED: USER        Moving Ligand-Moving Receptor   =  +0.00 kcal/mol
DOCKED: USER    (2) Final Total Internal Energy     =  -2.30 kcal/mol
DOCKED: USER    (3) Torsional Free Energy           =  +2.39 kcal/mol
DOCKED: USER    (4) Unbound System's Energy         =  -2.30 kcal/mol
DOCKED: USER
DOCKED: USER
DOCKED: REMARK SMILES O/C(=C\N=C(\O)c1ccc2cc(Cl)ccc2n1)N1CCCC[C@H]1c1ccccc1
DOCKED: REMARK SMILES IDX 3 1 2 2 1 3 18 5 19 6 23 7 20 8 22 9 21 10 24 11 25 12 29 13
DOCKED: REMARK SMILES IDX 26 14 28 15 27 16 4 17 5 18 6 19 7 21 17 22 8 23 16 24 9 25
DOCKED: REMARK SMILES IDX 15 26 10 27 14 28 11 29 12 30 13 31
DOCKED: REMARK H PARENT 1 4 6 20
DOCKED: USER                              x       y       z     vdW  Elec       q    Type
DOCKED: USER                           _______ _______ _______ _____ _____    ______ ____
DOCKED: ROOT
DOCKED: ATOM      1  C   UNL     1     139.337  72.792 220.334 -0.06 -0.03    +0.181 C  
DOCKED: ENDROOT
DOCKED: BRANCH   1   2
DOCKED: ATOM      2  C   UNL     1     139.913  73.798 221.014 -0.16 -0.04    +0.206 C  
DOCKED: BRANCH   2   3
DOCKED: ATOM      3  O   UNL     1     139.930  73.770 222.413 -0.72 +0.03    -0.494 OA 
DOCKED: ATOM      4  H   UNL     1     139.193  73.354 222.969 -0.40 -0.12    +0.295 HD 
DOCKED: ENDBRANCH   2   3
DOCKED: BRANCH   2   5
DOCKED: ATOM      5  N   UNL     1     140.536  74.919 220.331 -0.06 +0.08    -0.335 N  
DOCKED: ATOM      6  C   UNL     1     140.517  74.926 218.857 -0.04 -0.03    +0.120 C  
DOCKED: ATOM      7  C   UNL     1     141.415  75.870 221.052 -0.25 -0.05    +0.115 C  
DOCKED: ATOM      8  C   UNL     1     140.553  76.356 218.299 -0.06 -0.01    +0.022 C  
DOCKED: ATOM      9  C   UNL     1     142.389  76.570 220.086 -0.29 -0.02    +0.030 C  
DOCKED: ATOM     10  C   UNL     1     141.658  77.237 218.914 -0.22 -0.00    +0.004 C  
DOCKED: BRANCH   7  11
DOCKED: ATOM     11  C   UNL     1     140.627  76.894 221.856 -0.37 +0.01    -0.025 A  
DOCKED: ATOM     12  C   UNL     1     141.315  77.954 222.474 -0.42 -0.00    +0.006 A  
DOCKED: ATOM     13  C   UNL     1     139.227  76.815 222.002 -0.31 -0.00    +0.006 A  
DOCKED: ATOM     14  C   UNL     1     140.623  78.908 223.225 -0.48 -0.00    +0.000 A  
DOCKED: ATOM     15  C   UNL     1     138.539  77.774 222.753 -0.29 -0.00    +0.000 A  
DOCKED: ATOM     16  C   UNL     1     139.236  78.820 223.362 -0.32 -0.00    +0.000 A  
DOCKED: ENDBRANCH   7  11
DOCKED: ENDBRANCH   2   5
DOCKED: ENDBRANCH   1   2
DOCKED: BRANCH   1  17
DOCKED: ATOM     17  N   UNL     1     138.484  71.842 220.986 -0.04 +0.04    -0.215 NA 
DOCKED: BRANCH  17  18
DOCKED: ATOM     18  C   UNL     1     138.033  71.948 222.206 -0.11 -0.06    +0.237 C  
DOCKED: BRANCH  18  19
DOCKED: ATOM     19  O   UNL     1     137.104  72.940 222.503 -0.04 +0.16    -0.492 OA 
DOCKED: ATOM     20  H   UNL     1     137.335  73.702 223.130 -0.45 -0.18    +0.295 HD 
DOCKED: ENDBRANCH  18  19
DOCKED: BRANCH  18  21
DOCKED: ATOM     21  C   UNL     1     138.463  71.046 223.293 -0.21 -0.03    +0.126 A  
DOCKED: ATOM     22  N   UNL     1     139.305  71.515 224.252 -0.21 +0.07    -0.243 NA 
DOCKED: ATOM     23  C   UNL     1     138.037  69.709 223.332 -0.22 -0.01    +0.035 A  
DOCKED: ATOM     24  C   UNL     1     139.725  70.734 225.284 -0.42 -0.01    +0.071 A  
DOCKED: ATOM     25  C   UNL     1     138.456  68.882 224.374 -0.34 -0.00    +0.013 A  
DOCKED: ATOM     26  C   UNL     1     140.575  71.259 226.263 -0.61 -0.00    +0.030 A  
DOCKED: ATOM     27  C   UNL     1     139.298  69.390 225.371 -0.42 -0.00    +0.002 A  
DOCKED: ATOM     28  C   UNL     1     140.992  70.458 227.330 -0.60 -0.00    +0.023 A  
DOCKED: ATOM     29  C   UNL     1     139.722  68.592 226.443 -0.56 -0.00    +0.030 A  
DOCKED: ATOM     30  C   UNL     1     140.566  69.129 227.422 -0.59 -0.01    +0.041 A  
DOCKED: ATOM     31  Cl  UNL     1     141.092  68.131 228.766 -0.66 +0.02    -0.084 Cl 
DOCKED: ENDBRANCH  18  21
DOCKED: ENDBRANCH  17  18
DOCKED: ENDBRANCH   1  17
DOCKED: TORSDOF 8
DOCKED: TER
DOCKED: ENDMDL
________________________________________________________________________________


    FINAL DOCKED STATE:
    ________________________


Run:   12 / 20
Time taken for this run:   0.053s

DOCKED: MODEL        12
DOCKED: USER    Run = 12
DOCKED: USER
DOCKED: USER    Estimated Free Energy of Binding    =  -8.05 kcal/mol  [=(1)+(2)+(3)-(4)]
DOCKED: USER
DOCKED: USER    (1) Final Intermolecular Energy     = -10.44 kcal/mol
DOCKED: USER        vdW + Hbond + desolv Energy     = -10.32 kcal/mol
DOCKED: USER        Electrostatic Energy            =  -0.11 kcal/mol
DOCKED: USER        Moving Ligand-Fixed Receptor    = -10.44 kcal/mol
DOCKED: USER        Moving Ligand-Moving Receptor   =  +0.00 kcal/mol
DOCKED: USER    (2) Final Total Internal Energy     =  -2.65 kcal/mol
DOCKED: USER    (3) Torsional Free Energy           =  +2.39 kcal/mol
DOCKED: USER    (4) Unbound System's Energy         =  -2.65 kcal/mol
DOCKED: USER
DOCKED: USER
DOCKED: REMARK SMILES O/C(=C\N=C(\O)c1ccc2cc(Cl)ccc2n1)N1CCCC[C@H]1c1ccccc1
DOCKED: REMARK SMILES IDX 3 1 2 2 1 3 18 5 19 6 23 7 20 8 22 9 21 10 24 11 25 12 29 13
DOCKED: REMARK SMILES IDX 26 14 28 15 27 16 4 17 5 18 6 19 7 21 17 22 8 23 16 24 9 25
DOCKED: REMARK SMILES IDX 15 26 10 27 14 28 11 29 12 30 13 31
DOCKED: REMARK H PARENT 1 4 6 20
DOCKED: USER                              x       y       z     vdW  Elec       q    Type
DOCKED: USER                           _______ _______ _______ _____ _____    ______ ____
DOCKED: ROOT
DOCKED: ATOM      1  C   UNL     1     140.270  72.721 220.431 -0.09 -0.03    +0.181 C  
DOCKED: ENDROOT
DOCKED: BRANCH   1   2
DOCKED: ATOM      2  C   UNL     1     140.543  73.897 221.021 -0.18 -0.03    +0.206 C  
DOCKED: BRANCH   2   3
DOCKED: ATOM      3  O   UNL     1     140.114  74.132 222.333 -0.74 -0.00    -0.494 OA 
DOCKED: ATOM      4  H   UNL     1     139.799  73.398 222.954 -0.22 -0.03    +0.295 HD 
DOCKED: ENDBRANCH   2   3
DOCKED: BRANCH   2   5
DOCKED: ATOM      5  N   UNL     1     141.289  74.937 220.334 -0.09 +0.10    -0.335 N  
DOCKED: ATOM      6  C   UNL     1     140.959  76.341 220.639 -0.22 -0.05    +0.120 C  
DOCKED: ATOM      7  C   UNL     1     142.140  74.630 219.159 -0.14 -0.04    +0.115 C  
DOCKED: ATOM      8  C   UNL     1     142.167  77.265 220.430 -0.22 -0.02    +0.022 C  
DOCKED: ATOM      9  C   UNL     1     142.338  75.874 218.274 -0.19 -0.01    +0.030 C  
DOCKED: ATOM     10  C   UNL     1     142.872  77.070 219.073 -0.34 -0.00    +0.004 C  
DOCKED: BRANCH   7  11
DOCKED: ATOM     11  C   UNL     1     143.482  74.032 219.555 -0.29 +0.01    -0.025 A  
DOCKED: ATOM     12  C   UNL     1     144.205  73.287 218.606 -0.20 -0.00    +0.006 A  
DOCKED: ATOM     13  C   UNL     1     144.027  74.200 220.844 -0.34 -0.00    +0.006 A  
DOCKED: ATOM     14  C   UNL     1     145.438  72.718 218.937 -0.31 +0.00    +0.000 A  
DOCKED: ATOM     15  C   UNL     1     145.262  73.631 221.170 -0.58 -0.00    +0.000 A  
DOCKED: ATOM     16  C   UNL     1     145.967  72.893 220.217 -0.56 +0.00    +0.000 A  
DOCKED: ENDBRANCH   7  11
DOCKED: ENDBRANCH   2   5
DOCKED: ENDBRANCH   1   2
DOCKED: BRANCH   1  17
DOCKED: ATOM     17  N   UNL     1     139.269  71.838 220.954 -0.06 +0.04    -0.215 NA 
DOCKED: BRANCH  17  18
DOCKED: ATOM     18  C   UNL     1     138.716  71.939 222.131 -0.13 -0.05    +0.237 C  
DOCKED: BRANCH  18  19
DOCKED: ATOM     19  O   UNL     1     137.757  72.923 222.349 -0.05 +0.17    -0.492 OA 
DOCKED: ATOM     20  H   UNL     1     138.005  73.811 222.769 -0.48 -0.16    +0.295 HD 
DOCKED: ENDBRANCH  18  19
DOCKED: BRANCH  18  21
DOCKED: ATOM     21  C   UNL     1     139.061  71.041 223.251 -0.24 -0.03    +0.126 A  
DOCKED: ATOM     22  N   UNL     1     139.731  71.541 224.323 -0.25 +0.06    -0.243 NA 
DOCKED: ATOM     23  C   UNL     1     138.732  69.676 223.209 -0.23 -0.01    +0.035 A  
DOCKED: ATOM     24  C   UNL     1     140.066  70.763 225.389 -0.47 -0.01    +0.071 A  
DOCKED: ATOM     25  C   UNL     1     139.068  68.852 224.283 -0.33 -0.00    +0.013 A  
DOCKED: ATOM     26  C   UNL     1     140.737  71.319 226.482 -0.65 -0.00    +0.030 A  
DOCKED: ATOM     27  C   UNL     1     139.729  69.391 225.393 -0.43 -0.00    +0.002 A  
DOCKED: ATOM     28  C   UNL     1     141.064  70.521 227.582 -0.61 -0.00    +0.023 A  
DOCKED: ATOM     29  C   UNL     1     140.063  68.595 226.498 -0.57 -0.01    +0.030 A  
DOCKED: ATOM     30  C   UNL     1     140.727  69.163 227.592 -0.59 -0.01    +0.041 A  
DOCKED: ATOM     31  Cl  UNL     1     141.140  68.168 228.977 -0.52 +0.02    -0.084 Cl 
DOCKED: ENDBRANCH  18  21
DOCKED: ENDBRANCH  17  18
DOCKED: ENDBRANCH   1  17
DOCKED: TORSDOF 8
DOCKED: TER
DOCKED: ENDMDL
________________________________________________________________________________


    FINAL DOCKED STATE:
    ________________________


Run:   13 / 20
Time taken for this run:   0.053s

DOCKED: MODEL        13
DOCKED: USER    Run = 13
DOCKED: USER
DOCKED: USER    Estimated Free Energy of Binding    =  -8.92 kcal/mol  [=(1)+(2)+(3)-(4)]
DOCKED: USER
DOCKED: USER    (1) Final Intermolecular Energy     = -11.30 kcal/mol
DOCKED: USER        vdW + Hbond + desolv Energy     = -11.18 kcal/mol
DOCKED: USER        Electrostatic Energy            =  -0.13 kcal/mol
DOCKED: USER        Moving Ligand-Fixed Receptor    = -11.30 kcal/mol
DOCKED: USER        Moving Ligand-Moving Receptor   =  +0.00 kcal/mol
DOCKED: USER    (2) Final Total Internal Energy     =  -2.08 kcal/mol
DOCKED: USER    (3) Torsional Free Energy           =  +2.39 kcal/mol
DOCKED: USER    (4) Unbound System's Energy         =  -2.08 kcal/mol
DOCKED: USER
DOCKED: USER
DOCKED: REMARK SMILES O/C(=C\N=C(\O)c1ccc2cc(Cl)ccc2n1)N1CCCC[C@H]1c1ccccc1
DOCKED: REMARK SMILES IDX 3 1 2 2 1 3 18 5 19 6 23 7 20 8 22 9 21 10 24 11 25 12 29 13
DOCKED: REMARK SMILES IDX 26 14 28 15 27 16 4 17 5 18 6 19 7 21 17 22 8 23 16 24 9 25
DOCKED: REMARK SMILES IDX 15 26 10 27 14 28 11 29 12 30 13 31
DOCKED: REMARK H PARENT 1 4 6 20
DOCKED: USER                              x       y       z     vdW  Elec       q    Type
DOCKED: USER                           _______ _______ _______ _____ _____    ______ ____
DOCKED: ROOT
DOCKED: ATOM      1  C   UNL     1     140.931  74.733 221.207 -0.24 -0.04    +0.181 C  
DOCKED: ENDROOT
DOCKED: BRANCH   1   2
DOCKED: ATOM      2  C   UNL     1     140.413  75.788 221.860 -0.26 -0.05    +0.206 C  
DOCKED: BRANCH   2   3
DOCKED: ATOM      3  O   UNL     1     139.341  75.602 222.740 -0.34 +0.08    -0.494 OA 
DOCKED: ATOM      4  H   UNL     1     139.173  74.735 223.235 -0.45 -0.11    +0.295 HD 
DOCKED: ENDBRANCH   2   3
DOCKED: BRANCH   2   5
DOCKED: ATOM      5  N   UNL     1     140.949  77.127 221.685 -0.17 +0.14    -0.335 N  
DOCKED: ATOM      6  C   UNL     1     141.728  77.406 220.466 -0.25 -0.07    +0.120 C  
DOCKED: ATOM      7  C   UNL     1     140.977  78.099 222.804 -0.41 -0.04    +0.115 C  
DOCKED: ATOM      8  C   UNL     1     141.642  78.886 220.067 -0.27 -0.01    +0.022 C  
DOCKED: ATOM      9  C   UNL     1     142.065  79.167 222.587 -0.53 -0.01    +0.030 C  
DOCKED: ATOM     10  C   UNL     1     141.926  79.861 221.226 -0.37 -0.00    +0.004 C  
DOCKED: BRANCH   7  11
DOCKED: ATOM     11  C   UNL     1     139.623  78.751 223.042 -0.35 +0.00    -0.025 A  
DOCKED: ATOM     12  C   UNL     1     139.546  79.886 223.870 -0.43 -0.00    +0.006 A  
DOCKED: ATOM     13  C   UNL     1     138.440  78.255 222.458 -0.26 -0.00    +0.006 A  
DOCKED: ATOM     14  C   UNL     1     138.318  80.506 224.114 -0.40 -0.00    +0.000 A  
DOCKED: ATOM     15  C   UNL     1     137.213  78.881 222.704 -0.20 -0.00    +0.000 A  
DOCKED: ATOM     16  C   UNL     1     137.153  80.005 223.530 -0.25 -0.00    +0.000 A  
DOCKED: ENDBRANCH   7  11
DOCKED: ENDBRANCH   2   5
DOCKED: ENDBRANCH   1   2
DOCKED: BRANCH   1  17
DOCKED: ATOM     17  N   UNL     1     140.830  73.405 221.736 -0.45 +0.02    -0.215 NA 
DOCKED: BRANCH  17  18
DOCKED: ATOM     18  C   UNL     1     139.782  72.910 222.335 -0.18 -0.04    +0.237 C  
DOCKED: BRANCH  18  19
DOCKED: ATOM     19  O   UNL     1     138.518  73.381 221.993 -0.10 +0.14    -0.492 OA 
DOCKED: ATOM     20  H   UNL     1     137.963  73.917 222.650 -0.43 -0.15    +0.295 HD 
DOCKED: ENDBRANCH  18  19
DOCKED: BRANCH  18  21
DOCKED: ATOM     21  C   UNL     1     139.878  71.856 223.364 -0.30 -0.02    +0.126 A  
DOCKED: ATOM     22  N   UNL     1     140.384  72.165 224.588 -0.03 +0.04    -0.243 NA 
DOCKED: ATOM     23  C   UNL     1     139.482  70.538 223.087 -0.26 -0.01    +0.035 A  
DOCKED: ATOM     24  C   UNL     1     140.486  71.238 225.579 -0.52 -0.01    +0.071 A  
DOCKED: ATOM     25  C   UNL     1     139.581  69.563 224.080 -0.29 -0.00    +0.013 A  
DOCKED: ATOM     26  C   UNL     1     140.993  71.600 226.832 -0.72 -0.00    +0.030 A  
DOCKED: ATOM     27  C   UNL     1     140.074  69.907 225.344 -0.45 -0.00    +0.002 A  
DOCKED: ATOM     28  C   UNL     1     141.081  70.649 227.852 -0.64 -0.00    +0.023 A  
DOCKED: ATOM     29  C   UNL     1     140.168  68.957 226.372 -0.53 -0.01    +0.030 A  
DOCKED: ATOM     30  C   UNL     1     140.668  69.331 227.625 -0.59 -0.01    +0.041 A  
DOCKED: ATOM     31  Cl  UNL     1     140.780  68.144 228.911 -0.50 +0.02    -0.084 Cl 
DOCKED: ENDBRANCH  18  21
DOCKED: ENDBRANCH  17  18
DOCKED: ENDBRANCH   1  17
DOCKED: TORSDOF 8
DOCKED: TER
DOCKED: ENDMDL
________________________________________________________________________________


    FINAL DOCKED STATE:
    ________________________


Run:   14 / 20
Time taken for this run:   0.053s

DOCKED: MODEL        14
DOCKED: USER    Run = 14
DOCKED: USER
DOCKED: USER    Estimated Free Energy of Binding    =  -6.62 kcal/mol  [=(1)+(2)+(3)-(4)]
DOCKED: USER
DOCKED: USER    (1) Final Intermolecular Energy     =  -9.01 kcal/mol
DOCKED: USER        vdW + Hbond + desolv Energy     =  -8.87 kcal/mol
DOCKED: USER        Electrostatic Energy            =  -0.13 kcal/mol
DOCKED: USER        Moving Ligand-Fixed Receptor    =  -9.01 kcal/mol
DOCKED: USER        Moving Ligand-Moving Receptor   =  +0.00 kcal/mol
DOCKED: USER    (2) Final Total Internal Energy     =  -3.07 kcal/mol
DOCKED: USER    (3) Torsional Free Energy           =  +2.39 kcal/mol
DOCKED: USER    (4) Unbound System's Energy         =  -3.07 kcal/mol
DOCKED: USER
DOCKED: USER
DOCKED: REMARK SMILES O/C(=C\N=C(\O)c1ccc2cc(Cl)ccc2n1)N1CCCC[C@H]1c1ccccc1
DOCKED: REMARK SMILES IDX 3 1 2 2 1 3 18 5 19 6 23 7 20 8 22 9 21 10 24 11 25 12 29 13
DOCKED: REMARK SMILES IDX 26 14 28 15 27 16 4 17 5 18 6 19 7 21 17 22 8 23 16 24 9 25
DOCKED: REMARK SMILES IDX 15 26 10 27 14 28 11 29 12 30 13 31
DOCKED: REMARK H PARENT 1 4 6 20
DOCKED: USER                              x       y       z     vdW  Elec       q    Type
DOCKED: USER                           _______ _______ _______ _____ _____    ______ ____
DOCKED: ROOT
DOCKED: ATOM      1  C   UNL     1     141.132  76.327 219.723 -0.13 -0.07    +0.181 C  
DOCKED: ENDROOT
DOCKED: BRANCH   1   2
DOCKED: ATOM      2  C   UNL     1     141.639  77.536 219.428 -0.18 -0.11    +0.206 C  
DOCKED: BRANCH   2   3
DOCKED: ATOM      3  O   UNL     1     142.951  77.642 218.953 -0.15 +0.39    -0.494 OA 
DOCKED: ATOM      4  H   UNL     1     143.765  77.568 219.551 -0.40 -0.32    +0.295 HD 
DOCKED: ENDBRANCH   2   3
DOCKED: BRANCH   2   5
DOCKED: ATOM      5  N   UNL     1     140.851  78.747 219.578 -0.05 +0.14    -0.335 N  
DOCKED: ATOM      6  C   UNL     1     139.444  78.715 219.141 -0.04 -0.04    +0.120 C  
DOCKED: ATOM      7  C   UNL     1     141.489  80.052 219.876 -0.24 -0.05    +0.115 C  
DOCKED: ATOM      8  C   UNL     1     138.584  79.714 219.927 -0.06 -0.01    +0.022 C  
DOCKED: ATOM      9  C   UNL     1     140.602  81.224 219.419 -0.17 -0.01    +0.030 C  
DOCKED: ATOM     10  C   UNL     1     139.184  81.132 219.997 -0.09 -0.00    +0.004 C  
DOCKED: BRANCH   7  11
DOCKED: ATOM     11  C   UNL     1     141.855  80.196 221.346 -0.40 +0.01    -0.025 A  
DOCKED: ATOM     12  C   UNL     1     141.824  81.472 221.937 -0.45 -0.00    +0.006 A  
DOCKED: ATOM     13  C   UNL     1     142.225  79.090 222.138 -0.47 -0.00    +0.006 A  
DOCKED: ATOM     14  C   UNL     1     142.160  81.641 223.283 -0.48 -0.00    +0.000 A  
DOCKED: ATOM     15  C   UNL     1     142.559  79.264 223.485 -0.52 -0.00    +0.000 A  
DOCKED: ATOM     16  C   UNL     1     142.524  80.538 224.057 -0.62 -0.00    +0.000 A  
DOCKED: ENDBRANCH   7  11
DOCKED: ENDBRANCH   2   5
DOCKED: ENDBRANCH   1   2
DOCKED: BRANCH   1  17
DOCKED: ATOM     17  N   UNL     1     141.192  75.797 221.054 -0.21 +0.08    -0.215 NA 
DOCKED: BRANCH  17  18
DOCKED: ATOM     18  C   UNL     1     140.162  75.572 221.821 -0.23 -0.05    +0.237 C  
DOCKED: BRANCH  18  19
DOCKED: ATOM     19  O   UNL     1     139.954  74.289 222.319 -0.73 +0.02    -0.492 OA 
DOCKED: ATOM     20  H   UNL     1     139.160  74.080 222.913 -0.48 -0.11    +0.295 HD 
DOCKED: ENDBRANCH  18  19
DOCKED: BRANCH  18  21
DOCKED: ATOM     21  C   UNL     1     139.202  76.629 222.197 -0.27 -0.03    +0.126 A  
DOCKED: ATOM     22  N   UNL     1     139.655  77.745 222.827 -0.16 +0.05    -0.243 NA 
DOCKED: ATOM     23  C   UNL     1     137.830  76.484 221.937 -0.22 -0.01    +0.035 A  
DOCKED: ATOM     24  C   UNL     1     138.820  78.758 223.186 -0.27 -0.01    +0.071 A  
DOCKED: ATOM     25  C   UNL     1     136.947  77.501 222.300 -0.19 -0.00    +0.013 A  
DOCKED: ATOM     26  C   UNL     1     139.327  79.900 223.814 -0.42 -0.00    +0.030 A  
DOCKED: ATOM     27  C   UNL     1     137.436  78.658 222.919 -0.20 -0.00    +0.002 A  
DOCKED: ATOM     28  C   UNL     1     138.468  80.944 224.167 -0.38 -0.00    +0.023 A  
DOCKED: ATOM     29  C   UNL     1     136.579  79.708 223.278 -0.19 -0.00    +0.030 A  
DOCKED: ATOM     30  C   UNL     1     137.098  80.851 223.899 -0.27 -0.00    +0.041 A  
DOCKED: ATOM     31  Cl  UNL     1     136.026  82.167 224.343 -0.24 +0.01    -0.084 Cl 
DOCKED: ENDBRANCH  18  21
DOCKED: ENDBRANCH  17  18
DOCKED: ENDBRANCH   1  17
DOCKED: TORSDOF 8
DOCKED: TER
DOCKED: ENDMDL
________________________________________________________________________________


    FINAL DOCKED STATE:
    ________________________


Run:   15 / 20
Time taken for this run:   0.053s

DOCKED: MODEL        15
DOCKED: USER    Run = 15
DOCKED: USER
DOCKED: USER    Estimated Free Energy of Binding    =  -6.64 kcal/mol  [=(1)+(2)+(3)-(4)]
DOCKED: USER
DOCKED: USER    (1) Final Intermolecular Energy     =  -9.03 kcal/mol
DOCKED: USER        vdW + Hbond + desolv Energy     =  -8.86 kcal/mol
DOCKED: USER        Electrostatic Energy            =  -0.17 kcal/mol
DOCKED: USER        Moving Ligand-Fixed Receptor    =  -9.03 kcal/mol
DOCKED: USER        Moving Ligand-Moving Receptor   =  +0.00 kcal/mol
DOCKED: USER    (2) Final Total Internal Energy     =  -3.04 kcal/mol
DOCKED: USER    (3) Torsional Free Energy           =  +2.39 kcal/mol
DOCKED: USER    (4) Unbound System's Energy         =  -3.04 kcal/mol
DOCKED: USER
DOCKED: USER
DOCKED: REMARK SMILES O/C(=C\N=C(\O)c1ccc2cc(Cl)ccc2n1)N1CCCC[C@H]1c1ccccc1
DOCKED: REMARK SMILES IDX 3 1 2 2 1 3 18 5 19 6 23 7 20 8 22 9 21 10 24 11 25 12 29 13
DOCKED: REMARK SMILES IDX 26 14 28 15 27 16 4 17 5 18 6 19 7 21 17 22 8 23 16 24 9 25
DOCKED: REMARK SMILES IDX 15 26 10 27 14 28 11 29 12 30 13 31
DOCKED: REMARK H PARENT 1 4 6 20
DOCKED: USER                              x       y       z     vdW  Elec       q    Type
DOCKED: USER                           _______ _______ _______ _____ _____    ______ ____
DOCKED: ROOT
DOCKED: ATOM      1  C   UNL     1     141.030  76.402 219.711 -0.12 -0.07    +0.181 C  
DOCKED: ENDROOT
DOCKED: BRANCH   1   2
DOCKED: ATOM      2  C   UNL     1     141.563  77.603 219.429 -0.17 -0.11    +0.206 C  
DOCKED: BRANCH   2   3
DOCKED: ATOM      3  O   UNL     1     142.875  77.686 218.949 -0.14 +0.38    -0.494 OA 
DOCKED: ATOM      4  H   UNL     1     143.679  77.813 219.551 -0.38 -0.35    +0.295 HD 
DOCKED: ENDBRANCH   2   3
DOCKED: BRANCH   2   5
DOCKED: ATOM      5  N   UNL     1     140.804  78.830 219.600 -0.05 +0.14    -0.335 N  
DOCKED: ATOM      6  C   UNL     1     139.396  78.838 219.164 -0.04 -0.04    +0.120 C  
DOCKED: ATOM      7  C   UNL     1     141.473  80.114 219.920 -0.24 -0.05    +0.115 C  
DOCKED: ATOM      8  C   UNL     1     138.561  79.845 219.968 -0.06 -0.01    +0.022 C  
DOCKED: ATOM      9  C   UNL     1     140.614  81.315 219.483 -0.18 -0.01    +0.030 C  
DOCKED: ATOM     10  C   UNL     1     139.194  81.246 220.061 -0.09 -0.00    +0.004 C  
DOCKED: BRANCH   7  11
DOCKED: ATOM     11  C   UNL     1     141.844  80.225 221.391 -0.40 +0.01    -0.025 A  
DOCKED: ATOM     12  C   UNL     1     141.814  81.488 222.011 -0.45 -0.00    +0.006 A  
DOCKED: ATOM     13  C   UNL     1     142.216  79.102 222.158 -0.48 -0.00    +0.006 A  
DOCKED: ATOM     14  C   UNL     1     142.153  81.627 223.359 -0.50 -0.00    +0.000 A  
DOCKED: ATOM     15  C   UNL     1     142.554  79.246 223.507 -0.50 -0.00    +0.000 A  
DOCKED: ATOM     16  C   UNL     1     142.521  80.507 224.107 -0.60 -0.00    +0.000 A  
DOCKED: ENDBRANCH   7  11
DOCKED: ENDBRANCH   2   5
DOCKED: ENDBRANCH   1   2
DOCKED: BRANCH   1  17
DOCKED: ATOM     17  N   UNL     1     141.136  75.828 221.020 -0.20 +0.08    -0.215 NA 
DOCKED: BRANCH  17  18
DOCKED: ATOM     18  C   UNL     1     140.135  75.597 221.825 -0.24 -0.05    +0.237 C  
DOCKED: BRANCH  18  19
DOCKED: ATOM     19  O   UNL     1     139.957  74.316 222.337 -0.73 +0.01    -0.492 OA 
DOCKED: ATOM     20  H   UNL     1     139.152  74.089 222.910 -0.48 -0.11    +0.295 HD 
DOCKED: ENDBRANCH  18  19
DOCKED: BRANCH  18  21
DOCKED: ATOM     21  C   UNL     1     139.180  76.648 222.226 -0.27 -0.03    +0.126 A  
DOCKED: ATOM     22  N   UNL     1     139.643  77.770 222.840 -0.15 +0.05    -0.243 NA 
DOCKED: ATOM     23  C   UNL     1     137.801  76.492 222.009 -0.22 -0.01    +0.035 A  
DOCKED: ATOM     24  C   UNL     1     138.811  78.777 223.222 -0.26 -0.01    +0.071 A  
DOCKED: ATOM     25  C   UNL     1     136.922  77.503 222.395 -0.19 -0.00    +0.013 A  
DOCKED: ATOM     26  C   UNL     1     139.328  79.924 223.831 -0.42 -0.00    +0.030 A  
DOCKED: ATOM     27  C   UNL     1     137.420  78.665 222.997 -0.19 -0.00    +0.002 A  
DOCKED: ATOM     28  C   UNL     1     138.472  80.963 224.207 -0.37 -0.00    +0.023 A  
DOCKED: ATOM     29  C   UNL     1     136.567  79.710 223.379 -0.19 -0.00    +0.030 A  
DOCKED: ATOM     30  C   UNL     1     137.094  80.859 223.981 -0.27 -0.00    +0.041 A  
DOCKED: ATOM     31  Cl  UNL     1     136.027  82.167 224.454 -0.25 +0.01    -0.084 Cl 
DOCKED: ENDBRANCH  18  21
DOCKED: ENDBRANCH  17  18
DOCKED: ENDBRANCH   1  17
DOCKED: TORSDOF 8
DOCKED: TER
DOCKED: ENDMDL
________________________________________________________________________________


    FINAL DOCKED STATE:
    ________________________


Run:   16 / 20
Time taken for this run:   0.053s

DOCKED: MODEL        16
DOCKED: USER    Run = 16
DOCKED: USER
DOCKED: USER    Estimated Free Energy of Binding    =  -7.18 kcal/mol  [=(1)+(2)+(3)-(4)]
DOCKED: USER
DOCKED: USER    (1) Final Intermolecular Energy     =  -9.57 kcal/mol
DOCKED: USER        vdW + Hbond + desolv Energy     =  -9.56 kcal/mol
DOCKED: USER        Electrostatic Energy            =  -0.01 kcal/mol
DOCKED: USER        Moving Ligand-Fixed Receptor    =  -9.57 kcal/mol
DOCKED: USER        Moving Ligand-Moving Receptor   =  +0.00 kcal/mol
DOCKED: USER    (2) Final Total Internal Energy     =  -2.45 kcal/mol
DOCKED: USER    (3) Torsional Free Energy           =  +2.39 kcal/mol
DOCKED: USER    (4) Unbound System's Energy         =  -2.45 kcal/mol
DOCKED: USER
DOCKED: USER
DOCKED: REMARK SMILES O/C(=C\N=C(\O)c1ccc2cc(Cl)ccc2n1)N1CCCC[C@H]1c1ccccc1
DOCKED: REMARK SMILES IDX 3 1 2 2 1 3 18 5 19 6 23 7 20 8 22 9 21 10 24 11 25 12 29 13
DOCKED: REMARK SMILES IDX 26 14 28 15 27 16 4 17 5 18 6 19 7 21 17 22 8 23 16 24 9 25
DOCKED: REMARK SMILES IDX 15 26 10 27 14 28 11 29 12 30 13 31
DOCKED: REMARK H PARENT 1 4 6 20
DOCKED: USER                              x       y       z     vdW  Elec       q    Type
DOCKED: USER                           _______ _______ _______ _____ _____    ______ ____
DOCKED: ROOT
DOCKED: ATOM      1  C   UNL     1     139.837  75.146 221.218 -0.21 -0.04    +0.181 C  
DOCKED: ENDROOT
DOCKED: BRANCH   1   2
DOCKED: ATOM      2  C   UNL     1     140.928  75.560 220.553 -0.17 -0.06    +0.206 C  
DOCKED: BRANCH   2   3
DOCKED: ATOM      3  O   UNL     1     142.059  74.737 220.491 -0.09 +0.16    -0.494 OA 
DOCKED: ATOM      4  H   UNL     1     142.167  73.901 221.051 +0.12 -0.06    +0.295 HD 
DOCKED: ENDBRANCH   2   3
DOCKED: BRANCH   2   5
DOCKED: ATOM      5  N   UNL     1     140.964  76.847 219.880 -0.05 +0.13    -0.335 N  
DOCKED: ATOM      6  C   UNL     1     140.160  77.009 218.655 -0.05 -0.04    +0.120 C  
DOCKED: ATOM      7  C   UNL     1     141.984  77.868 220.220 -0.22 -0.07    +0.115 C  
DOCKED: ATOM      8  C   UNL     1     139.737  78.471 218.446 -0.05 -0.01    +0.022 C  
DOCKED: ATOM      9  C   UNL     1     142.209  78.843 219.049 -0.25 -0.02    +0.030 C  
DOCKED: ATOM     10  C   UNL     1     140.897  79.478 218.569 -0.16 -0.00    +0.004 C  
DOCKED: BRANCH   7  11
DOCKED: ATOM     11  C   UNL     1     141.644  78.628 221.494 -0.38 +0.01    -0.025 A  
DOCKED: ATOM     12  C   UNL     1     140.361  78.484 222.054 -0.33 -0.00    +0.006 A  
DOCKED: ATOM     13  C   UNL     1     142.574  79.471 222.135 -0.43 -0.00    +0.006 A  
DOCKED: ATOM     14  C   UNL     1     140.013  79.171 223.220 -0.42 -0.00    +0.000 A  
DOCKED: ATOM     15  C   UNL     1     142.221  80.155 223.303 -0.64 -0.00    +0.000 A  
DOCKED: ATOM     16  C   UNL     1     140.943  80.003 223.845 -0.50 -0.00    +0.000 A  
DOCKED: ENDBRANCH   7  11
DOCKED: ENDBRANCH   2   5
DOCKED: ENDBRANCH   1   2
DOCKED: BRANCH   1  17
DOCKED: ATOM     17  N   UNL     1     139.917  74.125 222.222 -0.79 +0.01    -0.215 NA 
DOCKED: BRANCH  17  18
DOCKED: ATOM     18  C   UNL     1     140.208  72.872 222.001 -0.21 -0.03    +0.237 C  
DOCKED: BRANCH  18  19
DOCKED: ATOM     19  O   UNL     1     140.595  72.480 220.723 -0.03 +0.08    -0.492 OA 
DOCKED: ATOM     20  H   UNL     1     140.700  73.158 219.977 +0.07 -0.06    +0.295 HD 
DOCKED: ENDBRANCH  18  19
DOCKED: BRANCH  18  21
DOCKED: ATOM     21  C   UNL     1     140.151  71.845 223.059 -0.30 -0.02    +0.126 A  
DOCKED: ATOM     22  N   UNL     1     140.660  72.126 224.288 -0.11 +0.03    -0.243 NA 
DOCKED: ATOM     23  C   UNL     1     139.607  70.576 222.804 -0.23 -0.01    +0.035 A  
DOCKED: ATOM     24  C   UNL     1     140.625  71.223 225.305 -0.51 -0.01    +0.071 A  
DOCKED: ATOM     25  C   UNL     1     139.563  69.626 223.824 -0.27 -0.00    +0.013 A  
DOCKED: ATOM     26  C   UNL     1     141.140  71.557 226.562 -0.69 -0.00    +0.030 A  
DOCKED: ATOM     27  C   UNL     1     140.062  69.944 225.093 -0.43 -0.00    +0.002 A  
DOCKED: ATOM     28  C   UNL     1     141.087  70.632 227.608 -0.62 -0.00    +0.023 A  
DOCKED: ATOM     29  C   UNL     1     140.016  69.020 226.146 -0.50 -0.01    +0.030 A  
DOCKED: ATOM     30  C   UNL     1     140.525  69.367 227.403 -0.58 -0.01    +0.041 A  
DOCKED: ATOM     31  Cl  UNL     1     140.462  68.212 228.722 -0.52 +0.02    -0.084 Cl 
DOCKED: ENDBRANCH  18  21
DOCKED: ENDBRANCH  17  18
DOCKED: ENDBRANCH   1  17
DOCKED: TORSDOF 8
DOCKED: TER
DOCKED: ENDMDL
________________________________________________________________________________


    FINAL DOCKED STATE:
    ________________________


Run:   17 / 20
Time taken for this run:   0.053s

DOCKED: MODEL        17
DOCKED: USER    Run = 17
DOCKED: USER
DOCKED: USER    Estimated Free Energy of Binding    =  -7.36 kcal/mol  [=(1)+(2)+(3)-(4)]
DOCKED: USER
DOCKED: USER    (1) Final Intermolecular Energy     =  -9.75 kcal/mol
DOCKED: USER        vdW + Hbond + desolv Energy     =  -9.60 kcal/mol
DOCKED: USER        Electrostatic Energy            =  -0.15 kcal/mol
DOCKED: USER        Moving Ligand-Fixed Receptor    =  -9.75 kcal/mol
DOCKED: USER        Moving Ligand-Moving Receptor   =  +0.00 kcal/mol
DOCKED: USER    (2) Final Total Internal Energy     =  -1.90 kcal/mol
DOCKED: USER    (3) Torsional Free Energy           =  +2.39 kcal/mol
DOCKED: USER    (4) Unbound System's Energy         =  -1.90 kcal/mol
DOCKED: USER
DOCKED: USER
DOCKED: REMARK SMILES O/C(=C\N=C(\O)c1ccc2cc(Cl)ccc2n1)N1CCCC[C@H]1c1ccccc1
DOCKED: REMARK SMILES IDX 3 1 2 2 1 3 18 5 19 6 23 7 20 8 22 9 21 10 24 11 25 12 29 13
DOCKED: REMARK SMILES IDX 26 14 28 15 27 16 4 17 5 18 6 19 7 21 17 22 8 23 16 24 9 25
DOCKED: REMARK SMILES IDX 15 26 10 27 14 28 11 29 12 30 13 31
DOCKED: REMARK H PARENT 1 4 6 20
DOCKED: USER                              x       y       z     vdW  Elec       q    Type
DOCKED: USER                           _______ _______ _______ _____ _____    ______ ____
DOCKED: ROOT
DOCKED: ATOM      1  C   UNL     1     138.764  73.303 220.727 -0.08 -0.04    +0.181 C  
DOCKED: ENDROOT
DOCKED: BRANCH   1   2
DOCKED: ATOM      2  C   UNL     1     139.760  73.875 221.424 -0.19 -0.04    +0.206 C  
DOCKED: BRANCH   2   3
DOCKED: ATOM      3  O   UNL     1     140.076  73.400 222.702 -0.62 +0.01    -0.494 OA 
DOCKED: ATOM      4  H   UNL     1     139.405  72.944 223.306 -0.30 -0.11    +0.295 HD 
DOCKED: ENDBRANCH   2   3
DOCKED: BRANCH   2   5
DOCKED: ATOM      5  N   UNL     1     140.534  74.977 220.878 -0.11 +0.08    -0.335 N  
DOCKED: ATOM      6  C   UNL     1     140.175  76.345 221.293 -0.25 -0.03    +0.120 C  
DOCKED: ATOM      7  C   UNL     1     141.451  74.783 219.729 -0.14 -0.03    +0.115 C  
DOCKED: ATOM      8  C   UNL     1     141.385  77.289 221.237 -0.28 -0.01    +0.022 C  
DOCKED: ATOM      9  C   UNL     1     141.687  76.104 218.975 -0.17 -0.01    +0.030 C  
DOCKED: ATOM     10  C   UNL     1     142.165  77.222 219.909 -0.32 -0.00    +0.004 C  
DOCKED: BRANCH   7  11
DOCKED: ATOM     11  C   UNL     1     142.774  74.155 220.142 -0.28 +0.01    -0.025 A  
DOCKED: ATOM     12  C   UNL     1     143.941  74.940 220.117 -0.43 -0.00    +0.006 A  
DOCKED: ATOM     13  C   UNL     1     142.870  72.809 220.550 -0.28 -0.00    +0.006 A  
DOCKED: ATOM     14  C   UNL     1     145.173  74.394 220.485 -0.51 -0.00    +0.000 A  
DOCKED: ATOM     15  C   UNL     1     144.105  72.267 220.918 -0.32 -0.00    +0.000 A  
DOCKED: ATOM     16  C   UNL     1     145.255  73.059 220.887 -0.59 -0.00    +0.000 A  
DOCKED: ENDBRANCH   7  11
DOCKED: ENDBRANCH   2   5
DOCKED: ENDBRANCH   1   2
DOCKED: BRANCH   1  17
DOCKED: ATOM     17  N   UNL     1     138.003  72.216 221.270 -0.05 +0.05    -0.215 NA 
DOCKED: BRANCH  17  18
DOCKED: ATOM     18  C   UNL     1     138.386  70.970 221.302 -0.06 -0.04    +0.237 C  
DOCKED: BRANCH  18  19
DOCKED: ATOM     19  O   UNL     1     138.452  70.248 220.114 +0.01 +0.09    -0.492 OA 
DOCKED: ATOM     20  H   UNL     1     139.270  69.697 219.882 +0.04 -0.05    +0.295 HD 
DOCKED: ENDBRANCH  18  19
DOCKED: BRANCH  18  21
DOCKED: ATOM     21  C   UNL     1     138.765  70.287 222.555 -0.15 -0.02    +0.126 A  
DOCKED: ATOM     22  N   UNL     1     139.458  70.972 223.503 -0.19 +0.05    -0.243 NA 
DOCKED: ATOM     23  C   UNL     1     138.444  68.936 222.766 -0.21 -0.01    +0.035 A  
DOCKED: ATOM     24  C   UNL     1     139.824  70.399 224.682 -0.38 -0.01    +0.071 A  
DOCKED: ATOM     25  C   UNL     1     138.812  68.318 223.962 -0.32 -0.00    +0.013 A  
DOCKED: ATOM     26  C   UNL     1     140.518  71.143 225.641 -0.56 -0.00    +0.030 A  
DOCKED: ATOM     27  C   UNL     1     139.497  69.048 224.940 -0.40 -0.00    +0.002 A  
DOCKED: ATOM     28  C   UNL     1     140.878  70.555 226.857 -0.60 -0.00    +0.023 A  
DOCKED: ATOM     29  C   UNL     1     139.864  68.464 226.161 -0.55 -0.00    +0.030 A  
DOCKED: ATOM     30  C   UNL     1     140.550  69.219 227.119 -0.57 -0.01    +0.041 A  
DOCKED: ATOM     31  Cl  UNL     1     141.004  68.489 228.648 -0.72 +0.02    -0.084 Cl 
DOCKED: ENDBRANCH  18  21
DOCKED: ENDBRANCH  17  18
DOCKED: ENDBRANCH   1  17
DOCKED: TORSDOF 8
DOCKED: TER
DOCKED: ENDMDL
________________________________________________________________________________


    FINAL DOCKED STATE:
    ________________________


Run:   18 / 20
Time taken for this run:   0.053s

DOCKED: MODEL        18
DOCKED: USER    Run = 18
DOCKED: USER
DOCKED: USER    Estimated Free Energy of Binding    =  -6.59 kcal/mol  [=(1)+(2)+(3)-(4)]
DOCKED: USER
DOCKED: USER    (1) Final Intermolecular Energy     =  -8.97 kcal/mol
DOCKED: USER        vdW + Hbond + desolv Energy     =  -8.83 kcal/mol
DOCKED: USER        Electrostatic Energy            =  -0.15 kcal/mol
DOCKED: USER        Moving Ligand-Fixed Receptor    =  -8.97 kcal/mol
DOCKED: USER        Moving Ligand-Moving Receptor   =  +0.00 kcal/mol
DOCKED: USER    (2) Final Total Internal Energy     =  -3.03 kcal/mol
DOCKED: USER    (3) Torsional Free Energy           =  +2.39 kcal/mol
DOCKED: USER    (4) Unbound System's Energy         =  -3.03 kcal/mol
DOCKED: USER
DOCKED: USER
DOCKED: REMARK SMILES O/C(=C\N=C(\O)c1ccc2cc(Cl)ccc2n1)N1CCCC[C@H]1c1ccccc1
DOCKED: REMARK SMILES IDX 3 1 2 2 1 3 18 5 19 6 23 7 20 8 22 9 21 10 24 11 25 12 29 13
DOCKED: REMARK SMILES IDX 26 14 28 15 27 16 4 17 5 18 6 19 7 21 17 22 8 23 16 24 9 25
DOCKED: REMARK SMILES IDX 15 26 10 27 14 28 11 29 12 30 13 31
DOCKED: REMARK H PARENT 1 4 6 20
DOCKED: USER                              x       y       z     vdW  Elec       q    Type
DOCKED: USER                           _______ _______ _______ _____ _____    ______ ____
DOCKED: ROOT
DOCKED: ATOM      1  C   UNL     1     140.596  76.670 219.574 -0.09 -0.06    +0.181 C  
DOCKED: ENDROOT
DOCKED: BRANCH   1   2
DOCKED: ATOM      2  C   UNL     1     141.291  77.818 219.497 -0.15 -0.10    +0.206 C  
DOCKED: BRANCH   2   3
DOCKED: ATOM      3  O   UNL     1     142.665  77.781 219.235 -0.11 +0.38    -0.494 OA 
DOCKED: ATOM      4  H   UNL     1     143.362  77.599 219.946 -0.39 -0.32    +0.295 HD 
DOCKED: ENDBRANCH   2   3
DOCKED: BRANCH   2   5
DOCKED: ATOM      5  N   UNL     1     140.648  79.109 219.670 -0.04 +0.13    -0.335 N  
DOCKED: ATOM      6  C   UNL     1     139.243  79.243 219.244 -0.04 -0.03    +0.120 C  
DOCKED: ATOM      7  C   UNL     1     141.433  80.328 219.981 -0.25 -0.05    +0.115 C  
DOCKED: ATOM      8  C   UNL     1     138.508  80.323 220.051 -0.06 -0.00    +0.022 C  
DOCKED: ATOM      9  C   UNL     1     140.682  81.600 219.547 -0.19 -0.01    +0.030 C  
DOCKED: ATOM     10  C   UNL     1     139.267  81.662 220.135 -0.11 -0.00    +0.004 C  
DOCKED: BRANCH   7  11
DOCKED: ATOM     11  C   UNL     1     141.823  80.408 221.450 -0.41 +0.01    -0.025 A  
DOCKED: ATOM     12  C   UNL     1     142.208  79.233 222.121 -0.49 -0.00    +0.006 A  
DOCKED: ATOM     13  C   UNL     1     141.812  81.624 222.163 -0.45 -0.00    +0.006 A  
DOCKED: ATOM     14  C   UNL     1     142.567  79.270 223.471 -0.53 -0.00    +0.000 A  
DOCKED: ATOM     15  C   UNL     1     142.174  81.656 223.513 -0.51 -0.00    +0.000 A  
DOCKED: ATOM     16  C   UNL     1     142.552  80.481 224.165 -0.58 -0.00    +0.000 A  
DOCKED: ENDBRANCH   7  11
DOCKED: ENDBRANCH   2   5
DOCKED: ENDBRANCH   1   2
DOCKED: BRANCH   1  17
DOCKED: ATOM     17  N   UNL     1     140.795  75.748 220.653 -0.14 +0.07    -0.215 NA 
DOCKED: BRANCH  17  18
DOCKED: ATOM     18  C   UNL     1     139.986  75.584 221.663 -0.24 -0.05    +0.237 C  
DOCKED: BRANCH  18  19
DOCKED: ATOM     19  O   UNL     1     139.982  74.369 222.340 -0.72 +0.01    -0.492 OA 
DOCKED: ATOM     20  H   UNL     1     139.178  74.074 222.883 -0.48 -0.10    +0.295 HD 
DOCKED: ENDBRANCH  18  19
DOCKED: BRANCH  18  21
DOCKED: ATOM     21  C   UNL     1     139.070  76.645 222.128 -0.26 -0.03    +0.126 A  
DOCKED: ATOM     22  N   UNL     1     139.583  77.746 222.739 -0.19 +0.05    -0.243 NA 
DOCKED: ATOM     23  C   UNL     1     137.680  76.517 221.975 -0.21 -0.01    +0.035 A  
DOCKED: ATOM     24  C   UNL     1     138.790  78.760 223.178 -0.27 -0.01    +0.071 A  
DOCKED: ATOM     25  C   UNL     1     136.840  77.537 222.421 -0.19 -0.00    +0.013 A  
DOCKED: ATOM     26  C   UNL     1     139.357  79.887 223.783 -0.42 -0.00    +0.030 A  
DOCKED: ATOM     27  C   UNL     1     137.388  78.678 223.019 -0.19 -0.00    +0.002 A  
DOCKED: ATOM     28  C   UNL     1     138.539  80.933 224.218 -0.37 -0.00    +0.023 A  
DOCKED: ATOM     29  C   UNL     1     136.573  79.731 223.460 -0.20 -0.00    +0.030 A  
DOCKED: ATOM     30  C   UNL     1     137.151  80.858 224.056 -0.28 -0.00    +0.041 A  
DOCKED: ATOM     31  Cl  UNL     1     136.132  82.177 224.604 -0.27 +0.01    -0.084 Cl 
DOCKED: ENDBRANCH  18  21
DOCKED: ENDBRANCH  17  18
DOCKED: ENDBRANCH   1  17
DOCKED: TORSDOF 8
DOCKED: TER
DOCKED: ENDMDL
________________________________________________________________________________


    FINAL DOCKED STATE:
    ________________________


Run:   19 / 20
Time taken for this run:   0.053s

DOCKED: MODEL        19
DOCKED: USER    Run = 19
DOCKED: USER
DOCKED: USER    Estimated Free Energy of Binding    =  -8.35 kcal/mol  [=(1)+(2)+(3)-(4)]
DOCKED: USER
DOCKED: USER    (1) Final Intermolecular Energy     = -10.74 kcal/mol
DOCKED: USER        vdW + Hbond + desolv Energy     = -10.62 kcal/mol
DOCKED: USER        Electrostatic Energy            =  -0.11 kcal/mol
DOCKED: USER        Moving Ligand-Fixed Receptor    = -10.74 kcal/mol
DOCKED: USER        Moving Ligand-Moving Receptor   =  +0.00 kcal/mol
DOCKED: USER    (2) Final Total Internal Energy     =  -2.46 kcal/mol
DOCKED: USER    (3) Torsional Free Energy           =  +2.39 kcal/mol
DOCKED: USER    (4) Unbound System's Energy         =  -2.46 kcal/mol
DOCKED: USER
DOCKED: USER
DOCKED: REMARK SMILES O/C(=C\N=C(\O)c1ccc2cc(Cl)ccc2n1)N1CCCC[C@H]1c1ccccc1
DOCKED: REMARK SMILES IDX 3 1 2 2 1 3 18 5 19 6 23 7 20 8 22 9 21 10 24 11 25 12 29 13
DOCKED: REMARK SMILES IDX 26 14 28 15 27 16 4 17 5 18 6 19 7 21 17 22 8 23 16 24 9 25
DOCKED: REMARK SMILES IDX 15 26 10 27 14 28 11 29 12 30 13 31
DOCKED: REMARK H PARENT 1 4 6 20
DOCKED: USER                              x       y       z     vdW  Elec       q    Type
DOCKED: USER                           _______ _______ _______ _____ _____    ______ ____
DOCKED: ROOT
DOCKED: ATOM      1  C   UNL     1     140.121  72.645 220.483 -0.09 -0.03    +0.181 C  
DOCKED: ENDROOT
DOCKED: BRANCH   1   2
DOCKED: ATOM      2  C   UNL     1     140.431  73.830 221.034 -0.18 -0.03    +0.206 C  
DOCKED: BRANCH   2   3
DOCKED: ATOM      3  O   UNL     1     139.986  74.133 222.326 -0.75 +0.01    -0.494 OA 
DOCKED: ATOM      4  H   UNL     1     139.590  73.444 222.953 -0.32 -0.06    +0.295 HD 
DOCKED: ENDBRANCH   2   3
DOCKED: BRANCH   2   5
DOCKED: ATOM      5  N   UNL     1     141.233  74.812 220.325 -0.08 +0.09    -0.335 N  
DOCKED: ATOM      6  C   UNL     1     140.907  76.237 220.513 -0.20 -0.04    +0.120 C  
DOCKED: ATOM      7  C   UNL     1     142.147  74.415 219.227 -0.13 -0.03    +0.115 C  
DOCKED: ATOM      8  C   UNL     1     142.140  77.130 220.315 -0.25 -0.01    +0.022 C  
DOCKED: ATOM      9  C   UNL     1     142.418  75.593 218.273 -0.18 -0.01    +0.030 C  
DOCKED: ATOM     10  C   UNL     1     142.921  76.834 219.020 -0.36 -0.00    +0.004 C  
DOCKED: BRANCH   7  11
DOCKED: ATOM     11  C   UNL     1     143.454  73.830 219.744 -0.29 +0.01    -0.025 A  
DOCKED: ATOM     12  C   UNL     1     144.355  74.666 220.428 -0.44 -0.00    +0.006 A  
DOCKED: ATOM     13  C   UNL     1     143.792  72.473 219.560 -0.24 -0.00    +0.006 A  
DOCKED: ATOM     14  C   UNL     1     145.566  74.162 220.910 -0.59 -0.00    +0.000 A  
DOCKED: ATOM     15  C   UNL     1     145.004  71.974 220.046 -0.35 +0.00    +0.000 A  
DOCKED: ATOM     16  C   UNL     1     145.889  72.817 220.722 -0.59 +0.00    +0.000 A  
DOCKED: ENDBRANCH   7  11
DOCKED: ENDBRANCH   2   5
DOCKED: ENDBRANCH   1   2
DOCKED: BRANCH   1  17
DOCKED: ATOM     17  N   UNL     1     139.024  71.860 220.968 -0.05 +0.04    -0.215 NA 
DOCKED: BRANCH  17  18
DOCKED: ATOM     18  C   UNL     1     138.491  71.963 222.154 -0.12 -0.06    +0.237 C  
DOCKED: BRANCH  18  19
DOCKED: ATOM     19  O   UNL     1     137.541  72.952 222.389 -0.04 +0.17    -0.492 OA 
DOCKED: ATOM     20  H   UNL     1     137.812  73.866 222.734 -0.47 -0.15    +0.295 HD 
DOCKED: ENDBRANCH  18  19
DOCKED: BRANCH  18  21
DOCKED: ATOM     21  C   UNL     1     138.848  71.061 223.267 -0.23 -0.03    +0.126 A  
DOCKED: ATOM     22  N   UNL     1     139.623  71.529 224.281 -0.25 +0.06    -0.243 NA 
DOCKED: ATOM     23  C   UNL     1     138.422  69.723 223.277 -0.23 -0.01    +0.035 A  
DOCKED: ATOM     24  C   UNL     1     139.975  70.748 225.338 -0.46 -0.01    +0.071 A  
DOCKED: ATOM     25  C   UNL     1     138.772  68.895 224.344 -0.34 -0.00    +0.013 A  
DOCKED: ATOM     26  C   UNL     1     140.757  71.273 226.372 -0.64 -0.00    +0.030 A  
DOCKED: ATOM     27  C   UNL     1     139.544  69.403 225.395 -0.43 -0.00    +0.002 A  
DOCKED: ATOM     28  C   UNL     1     141.102  70.471 227.464 -0.58 -0.00    +0.023 A  
DOCKED: ATOM     29  C   UNL     1     139.896  68.604 226.492 -0.56 -0.00    +0.030 A  
DOCKED: ATOM     30  C   UNL     1     140.672  69.141 227.526 -0.59 -0.01    +0.041 A  
DOCKED: ATOM     31  Cl  UNL     1     141.108  68.142 228.901 -0.58 +0.02    -0.084 Cl 
DOCKED: ENDBRANCH  18  21
DOCKED: ENDBRANCH  17  18
DOCKED: ENDBRANCH   1  17
DOCKED: TORSDOF 8
DOCKED: TER
DOCKED: ENDMDL
________________________________________________________________________________


    FINAL DOCKED STATE:
    ________________________


Run:   20 / 20
Time taken for this run:   0.053s

DOCKED: MODEL        20
DOCKED: USER    Run = 20
DOCKED: USER
DOCKED: USER    Estimated Free Energy of Binding    =  -7.17 kcal/mol  [=(1)+(2)+(3)-(4)]
DOCKED: USER
DOCKED: USER    (1) Final Intermolecular Energy     =  -9.55 kcal/mol
DOCKED: USER        vdW + Hbond + desolv Energy     =  -9.52 kcal/mol
DOCKED: USER        Electrostatic Energy            =  -0.03 kcal/mol
DOCKED: USER        Moving Ligand-Fixed Receptor    =  -9.55 kcal/mol
DOCKED: USER        Moving Ligand-Moving Receptor   =  +0.00 kcal/mol
DOCKED: USER    (2) Final Total Internal Energy     =  -2.65 kcal/mol
DOCKED: USER    (3) Torsional Free Energy           =  +2.39 kcal/mol
DOCKED: USER    (4) Unbound System's Energy         =  -2.65 kcal/mol
DOCKED: USER
DOCKED: USER
DOCKED: REMARK SMILES O/C(=C\N=C(\O)c1ccc2cc(Cl)ccc2n1)N1CCCC[C@H]1c1ccccc1
DOCKED: REMARK SMILES IDX 3 1 2 2 1 3 18 5 19 6 23 7 20 8 22 9 21 10 24 11 25 12 29 13
DOCKED: REMARK SMILES IDX 26 14 28 15 27 16 4 17 5 18 6 19 7 21 17 22 8 23 16 24 9 25
DOCKED: REMARK SMILES IDX 15 26 10 27 14 28 11 29 12 30 13 31
DOCKED: REMARK H PARENT 1 4 6 20
DOCKED: USER                              x       y       z     vdW  Elec       q    Type
DOCKED: USER                           _______ _______ _______ _____ _____    ______ ____
DOCKED: ROOT
DOCKED: ATOM      1  C   UNL     1     141.051  74.423 221.419 -0.22 -0.03    +0.181 C  
DOCKED: ENDROOT
DOCKED: BRANCH   1   2
DOCKED: ATOM      2  C   UNL     1     140.716  74.681 220.143 -0.11 -0.05    +0.206 C  
DOCKED: BRANCH   2   3
DOCKED: ATOM      3  O   UNL     1     139.409  74.437 219.705 +0.01 +0.11    -0.494 OA 
DOCKED: ATOM      4  H   UNL     1     138.690  74.042 220.298 +0.05 -0.06    +0.295 HD 
DOCKED: ENDBRANCH   2   3
DOCKED: BRANCH   2   5
DOCKED: ATOM      5  N   UNL     1     141.679  75.223 219.200 -0.04 +0.12    -0.335 N  
DOCKED: ATOM      6  C   UNL     1     141.576  76.652 218.851 -0.15 -0.05    +0.120 C  
DOCKED: ATOM      7  C   UNL     1     142.545  74.337 218.386 -0.10 -0.03    +0.115 C  
DOCKED: ATOM      8  C   UNL     1     142.938  77.235 218.450 -0.32 -0.02    +0.022 C  
DOCKED: ATOM      9  C   UNL     1     143.020  75.046 217.104 -0.13 -0.01    +0.030 C  
DOCKED: ATOM     10  C   UNL     1     143.694  76.391 217.406 -0.19 -0.00    +0.004 C  
DOCKED: BRANCH   7  11
DOCKED: ATOM     11  C   UNL     1     143.731  73.801 219.174 -0.24 +0.01    -0.025 A  
DOCKED: ATOM     12  C   UNL     1     144.356  74.633 220.121 -0.45 -0.00    +0.006 A  
DOCKED: ATOM     13  C   UNL     1     144.225  72.494 218.989 -0.21 +0.00    +0.006 A  
DOCKED: ATOM     14  C   UNL     1     145.451  74.175 220.858 -0.59 -0.00    +0.000 A  
DOCKED: ATOM     15  C   UNL     1     145.320  72.039 219.730 -0.38 +0.00    +0.000 A  
DOCKED: ATOM     16  C   UNL     1     145.931  72.878 220.665 -0.60 +0.00    +0.000 A  
DOCKED: ENDBRANCH   7  11
DOCKED: ENDBRANCH   2   5
DOCKED: ENDBRANCH   1   2
DOCKED: BRANCH   1  17
DOCKED: ATOM     17  N   UNL     1     140.156  73.732 222.300 -0.78 +0.01    -0.215 NA 
DOCKED: BRANCH  17  18
DOCKED: ATOM     18  C   UNL     1     139.771  72.493 222.164 -0.20 -0.04    +0.237 C  
DOCKED: BRANCH  18  19
DOCKED: ATOM     19  O   UNL     1     139.251  72.074 220.943 -0.01 +0.09    -0.492 OA 
DOCKED: ATOM     20  H   UNL     1     139.686  72.343 220.069 +0.05 -0.05    +0.295 HD 
DOCKED: ENDBRANCH  18  19
DOCKED: BRANCH  18  21
DOCKED: ATOM     21  C   UNL     1     139.871  71.505 223.256 -0.30 -0.02    +0.126 A  
DOCKED: ATOM     22  N   UNL     1     140.397  71.885 224.451 -0.27 +0.04    -0.243 NA 
DOCKED: ATOM     23  C   UNL     1     139.458  70.177 223.068 -0.23 -0.01    +0.035 A  
DOCKED: ATOM     24  C   UNL     1     140.504  71.021 225.497 -0.51 -0.01    +0.071 A  
DOCKED: ATOM     25  C   UNL     1     139.561  69.266 224.119 -0.27 -0.00    +0.013 A  
DOCKED: ATOM     26  C   UNL     1     141.031  71.455 226.718 -0.70 -0.00    +0.030 A  
DOCKED: ATOM     27  C   UNL     1     140.075  69.682 225.352 -0.44 -0.00    +0.002 A  
DOCKED: ATOM     28  C   UNL     1     141.124  70.569 227.794 -0.59 -0.00    +0.023 A  
DOCKED: ATOM     29  C   UNL     1     140.174  68.798 226.436 -0.55 -0.01    +0.030 A  
DOCKED: ATOM     30  C   UNL     1     140.695  69.244 227.656 -0.59 -0.01    +0.041 A  
DOCKED: ATOM     31  Cl  UNL     1     140.814  68.139 229.013 -0.44 +0.02    -0.084 Cl 
DOCKED: ENDBRANCH  18  21
DOCKED: ENDBRANCH  17  18
DOCKED: ENDBRANCH   1  17
DOCKED: TORSDOF 8
DOCKED: TER
DOCKED: ENDMDL
________________________________________________________________________________


    CLUSTERING HISTOGRAM
    ____________________


________________________________________________________________________________
     |           |     |           |     |
Clus | Lowest    | Run | Mean      | Num | Histogram
-ter | Binding   |     | Binding   | in  |
Rank | Energy    |     | Energy    | Clus|    5    10   15   20   25   30   35
_____|___________|_____|___________|_____|____:____|____:____|____:____|____:___
   1 |     -8.92 |  13 |     -8.11 |   7 |#######
   2 |     -8.52 |   2 |     -7.93 |   9 |#########
   3 |     -6.64 |  15 |     -6.62 |   3 |###
   4 |     -6.22 |   8 |     -6.22 |   1 |#
_____|___________|_____|___________|_____|______________________________________


    RMSD TABLE
    __________


_______________________________________________________________________
     |      |      |           |         |                 |
Rank | Sub- | Run  | Binding   | Cluster | Reference       | Grep
     | Rank |      | Energy    | RMSD    | RMSD            | Pattern
_____|______|______|___________|_________|_________________|___________
   1      1     13       -8.92      0.00    272.69           RANKING
   1      2      4       -8.78      0.18    272.79           RANKING
   1      3      9       -8.77      1.46    272.56           RANKING
   1      4      5       -8.06      1.55    272.44           RANKING
   1      5     11       -7.72      1.57    271.71           RANKING
   1      6      6       -7.36      1.74    272.47           RANKING
   1      7     16       -7.18      1.83    272.27           RANKING
   2      1      2       -8.52      0.00    271.86           RANKING
   2      2      1       -8.46      0.26    271.96           RANKING
   2      3     19       -8.35      0.25    271.78           RANKING
   2      4     12       -8.05      0.36    271.81           RANKING
   2      5     10       -7.94      0.46    271.84           RANKING
   2      6      3       -7.90      0.37    271.77           RANKING
   2      7      7       -7.64      1.95    271.66           RANKING
   2      8     17       -7.36      1.50    271.43           RANKING
   2      9     20       -7.17      1.30    271.63           RANKING
   3      1     15       -6.64      0.00    272.39           RANKING
   3      2     14       -6.62      0.09    272.36           RANKING
   3      3     18       -6.59      0.27    272.41           RANKING
   4      1      8       -6.22      0.00    271.46           RANKING

Run time 1.012 sec
Idle time 0.000 sec
