AutoDock-GPU version: v1.6

**********************************************************
**    AutoDock-GPU AUTODOCKTOOLS-COMPATIBLE DLG FILE    **
**********************************************************


    DOCKING PARAMETERS
    ________________________


Ligand file:                               /home/a/REINVENT4/ReinventStudies/pleaseWork/justmol2mol_4_Compounds_ontop/graph-dock-8u2o5u/graph-DockGPU/node-autodockgpu/inputs/LRHAYHKTPAMLCZ-SOZSISJXNA-O.pdbqt
Grid fld file:                             /home/a/REINVENT4/ReinventStudies/mols/Rad51/maps/rad51_receptor.maps.fld

Random seed:                               42
Number of runs:                            20
Number of energy evaluations:              1132076
Number of generations:                     42000
Size of population:                        150
Rate of crossover:                         80.000000%
Tournament selection probability limit:    60.000000%
Rate of mutation:                          2.000000%
Maximal allowed delta movement:            +/- 6.000000A
Maximal allowed delta angle:               +/- 90.000000

Rate of local search:                      100.000000%
Maximal number of local search iterations: 300
Rho lower bound:                           0.010000
Spread of local search delta movement:     2.000000A
Spread of local search delta angle:        74.999999
Limit of consecutive successes/failures:   4

Handle symmetry during clustering:         YES
RMSD tolerance:                            2.000000A

Program call in command line was:          /home/a/REINVENT4/ReinventStudies/adgpu-v1.6_linux_x64_cuda12_128wi --filelist batch.txt --heuristics 1 --nrun 20 --psize 150 --lsit 300 --seed 42 --heurmax 12000000 


    GRID PARAMETERS
    ________________________


Receptor name:                             rad51_receptor
Number of grid points (x, y, z):           53, 53, 53
Grid center (x, y, z):                     139.950000, 75.640000, 221.970000A
Grid size (x, y, z):                       19.500000, 19.500000, 19.500000A
Grid spacing:                              0.375000A


    LIGAND PARAMETERS
    ________________________


Ligand name:                               /home/a/REINVENT4/ReinventStudies/pleaseWork/justmol2mol_4_Compounds_ontop/graph-dock-8u2o5u/graph-DockGPU/node-autodockgpu/inputs/LRHAYHKTPAMLCZ-SOZSISJXNA-O
Number of atoms:                           29
Number of rotatable bonds:                 6
Number of atom types:                      8


    DUMMY DATA (only for ADT-compatibility)
    ________________________


DPF> outlev 1
DPF> ga_run 20
DPF> fld /home/a/REINVENT4/ReinventStudies/mols/Rad51/maps/rad51_receptor.maps.fld
DPF> move /home/a/REINVENT4/ReinventStudies/pleaseWork/justmol2mol_4_Compounds_ontop/graph-dock-8u2o5u/graph-DockGPU/node-autodockgpu/inputs/LRHAYHKTPAMLCZ-SOZSISJXNA-O.pdbqt


    COUNTER STATES
    ________________________


Number of energy evaluations performed:    591123
Number of generations used:                30


    INPUT LIGAND PDBQT FILE:
    ________________________


INPUT-LIGAND-PDBQT: REMARK SMILES O=C(NC/C(O)=[N+]1\CCC[C@H]1c1cscn1)c1ccc2cc(F)ccc2n1
INPUT-LIGAND-PDBQT: REMARK SMILES IDX 4 1 5 2 6 3 7 5 8 6 11 7 9 8 10 9 12 10 16 11 13 12 15 13
INPUT-LIGAND-PDBQT: REMARK SMILES IDX 14 14 3 15 2 16 1 18 17 19 27 20 18 21 26 22 19 23 25 24
INPUT-LIGAND-PDBQT: REMARK SMILES IDX 20 25 24 26 21 27 22 28 23 29
INPUT-LIGAND-PDBQT: REMARK H PARENT 6 4 3 17
INPUT-LIGAND-PDBQT: ROOT
INPUT-LIGAND-PDBQT: ATOM      1  C   UNL     1       0.138   3.156  -2.011  1.00  0.00     0.269 C 
INPUT-LIGAND-PDBQT: ENDROOT
INPUT-LIGAND-PDBQT: BRANCH   1   2
INPUT-LIGAND-PDBQT: ATOM      2  C   UNL     1      -1.231   2.809  -1.484  1.00  0.00     0.354 C 
INPUT-LIGAND-PDBQT: BRANCH   2   3
INPUT-LIGAND-PDBQT: ATOM      3  O   UNL     1      -1.724   3.606  -0.445  1.00  0.00    -0.462 OA
INPUT-LIGAND-PDBQT: ATOM      4  H   UNL     1      -2.622   3.467  -0.004  1.00  0.00     0.299 HD
INPUT-LIGAND-PDBQT: ENDBRANCH   2   3
INPUT-LIGAND-PDBQT: BRANCH   2   5
INPUT-LIGAND-PDBQT: ATOM      5  N   UNL     1      -1.903   1.770  -1.932  1.00  0.00    -0.192 N 
INPUT-LIGAND-PDBQT: ATOM      6  C   UNL     1      -1.476   0.941  -3.057  1.00  0.00     0.355 C 
INPUT-LIGAND-PDBQT: ATOM      7  C   UNL     1      -3.156   1.288  -1.351  1.00  0.00     0.314 C 
INPUT-LIGAND-PDBQT: ATOM      8  C   UNL     1      -2.483  -0.197  -3.159  1.00  0.00     0.080 C 
INPUT-LIGAND-PDBQT: ATOM      9  C   UNL     1      -3.683   0.233  -2.325  1.00  0.00     0.090 C 
INPUT-LIGAND-PDBQT: BRANCH   7  10
INPUT-LIGAND-PDBQT: ATOM     10  C   UNL     1      -2.912   0.691   0.015  1.00  0.00     0.119 A 
INPUT-LIGAND-PDBQT: ATOM     11  N   UNL     1      -3.746   0.943   1.060  1.00  0.00    -0.243 NA
INPUT-LIGAND-PDBQT: ATOM     12  C   UNL     1      -1.847  -0.162   0.307  1.00  0.00     0.097 A 
INPUT-LIGAND-PDBQT: ATOM     13  C   UNL     1      -3.356   0.314   2.190  1.00  0.00     0.176 A 
INPUT-LIGAND-PDBQT: ATOM     14  S   UNL     1      -1.962  -0.586   1.927  1.00  0.00    -0.130 S 
INPUT-LIGAND-PDBQT: ENDBRANCH   7  10
INPUT-LIGAND-PDBQT: ENDBRANCH   2   5
INPUT-LIGAND-PDBQT: ENDBRANCH   1   2
INPUT-LIGAND-PDBQT: BRANCH   1  15
INPUT-LIGAND-PDBQT: ATOM     15  N   UNL     1       1.122   2.206  -1.496  1.00  0.00    -0.337 N 
INPUT-LIGAND-PDBQT: ATOM     16  C   UNL     1       1.331   2.026  -0.087  1.00  0.00     0.270 C 
INPUT-LIGAND-PDBQT: ATOM     17  H   UNL     1       1.596   1.566  -2.171  1.00  0.00     0.164 HD
INPUT-LIGAND-PDBQT: ATOM     18  O   UNL     1       1.137   2.992   0.701  1.00  0.00    -0.268 OA
INPUT-LIGAND-PDBQT: BRANCH  16  19
INPUT-LIGAND-PDBQT: ATOM     19  C   UNL     1       1.719   0.704   0.443  1.00  0.00     0.128 A 
INPUT-LIGAND-PDBQT: ATOM     20  N   UNL     1       1.815  -0.356  -0.406  1.00  0.00    -0.243 NA
INPUT-LIGAND-PDBQT: ATOM     21  C   UNL     1       1.932   0.508   1.818  1.00  0.00     0.035 A 
INPUT-LIGAND-PDBQT: ATOM     22  C   UNL     1       2.113  -1.609   0.029  1.00  0.00     0.071 A 
INPUT-LIGAND-PDBQT: ATOM     23  C   UNL     1       2.241  -0.767   2.296  1.00  0.00     0.013 A 
INPUT-LIGAND-PDBQT: ATOM     24  C   UNL     1       2.194  -2.668  -0.881  1.00  0.00     0.032 A 
INPUT-LIGAND-PDBQT: ATOM     25  C   UNL     1       2.332  -1.842   1.404  1.00  0.00     0.003 A 
INPUT-LIGAND-PDBQT: ATOM     26  C   UNL     1       2.493  -3.957  -0.428  1.00  0.00     0.041 A 
INPUT-LIGAND-PDBQT: ATOM     27  C   UNL     1       2.633  -3.138   1.851  1.00  0.00     0.049 A 
INPUT-LIGAND-PDBQT: ATOM     28  C   UNL     1       2.713  -4.192   0.934  1.00  0.00     0.123 A 
INPUT-LIGAND-PDBQT: ATOM     29  F   UNL     1       3.002  -5.444   1.366  1.00  0.00    -0.207 F 
INPUT-LIGAND-PDBQT: ENDBRANCH  16  19
INPUT-LIGAND-PDBQT: ENDBRANCH   1  15
INPUT-LIGAND-PDBQT: TORSDOF 6


    FINAL DOCKED STATE:
    ________________________


Run:   1 / 20
Time taken for this run:   0.024s

DOCKED: MODEL        1
DOCKED: USER    Run = 1
DOCKED: USER
DOCKED: USER    Estimated Free Energy of Binding    =  -7.53 kcal/mol  [=(1)+(2)+(3)-(4)]
DOCKED: USER
DOCKED: USER    (1) Final Intermolecular Energy     =  -9.32 kcal/mol
DOCKED: USER        vdW + Hbond + desolv Energy     =  -8.88 kcal/mol
DOCKED: USER        Electrostatic Energy            =  -0.44 kcal/mol
DOCKED: USER        Moving Ligand-Fixed Receptor    =  -9.32 kcal/mol
DOCKED: USER        Moving Ligand-Moving Receptor   =  +0.00 kcal/mol
DOCKED: USER    (2) Final Total Internal Energy     =  -2.23 kcal/mol
DOCKED: USER    (3) Torsional Free Energy           =  +1.79 kcal/mol
DOCKED: USER    (4) Unbound System's Energy         =  -2.23 kcal/mol
DOCKED: USER
DOCKED: USER
DOCKED: REMARK SMILES O=C(NC/C(O)=[N+]1\CCC[C@H]1c1cscn1)c1ccc2cc(F)ccc2n1
DOCKED: REMARK SMILES IDX 4 1 5 2 6 3 7 5 8 6 11 7 9 8 10 9 12 10 16 11 13 12 15 13
DOCKED: REMARK SMILES IDX 14 14 3 15 2 16 1 18 17 19 27 20 18 21 26 22 19 23 25 24
DOCKED: REMARK SMILES IDX 20 25 24 26 21 27 22 28 23 29
DOCKED: REMARK H PARENT 6 4 3 17
DOCKED: USER                              x       y       z     vdW  Elec       q    Type
DOCKED: USER                           _______ _______ _______ _____ _____    ______ ____
DOCKED: ROOT
DOCKED: ATOM      1  C   UNL     1     140.530  74.495 221.235 -0.20 -0.05    +0.269 C  
DOCKED: ENDROOT
DOCKED: BRANCH   1   2
DOCKED: ATOM      2  C   UNL     1     140.260  75.946 221.542 -0.19 -0.09    +0.354 C  
DOCKED: BRANCH   2   3
DOCKED: ATOM      3  O   UNL     1     139.595  76.220 222.742 -0.23 +0.08    -0.462 OA 
DOCKED: ATOM      4  H   UNL     1     139.559  77.133 223.172 +0.15 -0.04    +0.299 HD 
DOCKED: ENDBRANCH   2   3
DOCKED: BRANCH   2   5
DOCKED: ATOM      5  N   UNL     1     140.575  76.904 220.696 -0.13 +0.07    -0.192 N  
DOCKED: ATOM      6  C   UNL     1     139.716  77.342 219.598 -0.01 -0.11    +0.355 C  
DOCKED: ATOM      7  C   UNL     1     141.816  77.676 220.752 -0.14 -0.20    +0.314 C  
DOCKED: ATOM      8  C   UNL     1     140.418  78.529 218.951 -0.09 -0.03    +0.080 C  
DOCKED: ATOM      9  C   UNL     1     141.854  78.491 219.458 -0.24 -0.06    +0.090 C  
DOCKED: BRANCH   7  10
DOCKED: ATOM     10  C   UNL     1     141.823  78.580 221.962 -0.34 -0.07    +0.119 A  
DOCKED: ATOM     11  N   UNL     1     141.472  78.122 223.194 -0.33 +0.09    -0.243 NA 
DOCKED: ATOM     12  C   UNL     1     142.199  79.923 221.922 -0.43 -0.04    +0.097 A  
DOCKED: ATOM     13  C   UNL     1     141.547  79.084 224.140 -0.41 -0.04    +0.176 A  
DOCKED: ATOM     14  S   UNL     1     142.063  80.539 223.477 -0.69 +0.03    -0.130 S  
DOCKED: ENDBRANCH   7  10
DOCKED: ENDBRANCH   2   5
DOCKED: ENDBRANCH   1   2
DOCKED: BRANCH   1  15
DOCKED: ATOM     15  N   UNL     1     139.879  73.648 222.232 -0.12 +0.03    -0.337 N  
DOCKED: ATOM     16  C   UNL     1     139.870  72.217 222.117 -0.19 -0.04    +0.270 C  
DOCKED: ATOM     17  H   UNL     1     139.515  74.095 223.102 -0.53 -0.02    +0.164 HD 
DOCKED: ATOM     18  O   UNL     1     139.894  71.683 220.974 -0.08 +0.04    -0.268 OA 
DOCKED: BRANCH  16  19
DOCKED: ATOM     19  C   UNL     1     139.888  71.375 223.329 -0.30 -0.02    +0.128 A  
DOCKED: ATOM     20  N   UNL     1     140.376  71.886 224.493 -0.27 +0.04    -0.243 NA 
DOCKED: ATOM     21  C   UNL     1     139.465  70.036 223.287 -0.24 -0.01    +0.035 A  
DOCKED: ATOM     22  C   UNL     1     140.470  71.144 225.628 -0.53 -0.01    +0.071 A  
DOCKED: ATOM     23  C   UNL     1     139.548  69.247 224.437 -0.32 -0.00    +0.013 A  
DOCKED: ATOM     24  C   UNL     1     140.985  71.711 226.798 -0.72 -0.01    +0.032 A  
DOCKED: ATOM     25  C   UNL     1     140.055  69.794 225.621 -0.47 -0.00    +0.003 A  
DOCKED: ATOM     26  C   UNL     1     141.087  70.942 227.961 -0.67 -0.01    +0.041 A  
DOCKED: ATOM     27  C   UNL     1     140.160  69.028 226.793 -0.54 -0.01    +0.049 A  
DOCKED: ATOM     28  C   UNL     1     140.675  69.604 227.959 -0.52 -0.02    +0.123 A  
DOCKED: ATOM     29  F   UNL     1     140.778  68.864 229.091 -0.11 +0.04    -0.207 F  
DOCKED: ENDBRANCH  16  19
DOCKED: ENDBRANCH   1  15
DOCKED: TORSDOF 6
DOCKED: TER
DOCKED: ENDMDL
________________________________________________________________________________


    FINAL DOCKED STATE:
    ________________________


Run:   2 / 20
Time taken for this run:   0.024s

DOCKED: MODEL        2
DOCKED: USER    Run = 2
DOCKED: USER
DOCKED: USER    Estimated Free Energy of Binding    =  -7.60 kcal/mol  [=(1)+(2)+(3)-(4)]
DOCKED: USER
DOCKED: USER    (1) Final Intermolecular Energy     =  -9.39 kcal/mol
DOCKED: USER        vdW + Hbond + desolv Energy     =  -8.93 kcal/mol
DOCKED: USER        Electrostatic Energy            =  -0.46 kcal/mol
DOCKED: USER        Moving Ligand-Fixed Receptor    =  -9.39 kcal/mol
DOCKED: USER        Moving Ligand-Moving Receptor   =  +0.00 kcal/mol
DOCKED: USER    (2) Final Total Internal Energy     =  -2.19 kcal/mol
DOCKED: USER    (3) Torsional Free Energy           =  +1.79 kcal/mol
DOCKED: USER    (4) Unbound System's Energy         =  -2.19 kcal/mol
DOCKED: USER
DOCKED: USER
DOCKED: REMARK SMILES O=C(NC/C(O)=[N+]1\CCC[C@H]1c1cscn1)c1ccc2cc(F)ccc2n1
DOCKED: REMARK SMILES IDX 4 1 5 2 6 3 7 5 8 6 11 7 9 8 10 9 12 10 16 11 13 12 15 13
DOCKED: REMARK SMILES IDX 14 14 3 15 2 16 1 18 17 19 27 20 18 21 26 22 19 23 25 24
DOCKED: REMARK SMILES IDX 20 25 24 26 21 27 22 28 23 29
DOCKED: REMARK H PARENT 6 4 3 17
DOCKED: USER                              x       y       z     vdW  Elec       q    Type
DOCKED: USER                           _______ _______ _______ _____ _____    ______ ____
DOCKED: ROOT
DOCKED: ATOM      1  C   UNL     1     140.656  74.579 221.287 -0.20 -0.05    +0.269 C  
DOCKED: ENDROOT
DOCKED: BRANCH   1   2
DOCKED: ATOM      2  C   UNL     1     140.276  76.010 221.569 -0.19 -0.09    +0.354 C  
DOCKED: BRANCH   2   3
DOCKED: ATOM      3  O   UNL     1     139.529  76.244 222.728 -0.23 +0.08    -0.462 OA 
DOCKED: ATOM      4  H   UNL     1     139.571  77.100 223.264 +0.16 -0.04    +0.299 HD 
DOCKED: ENDBRANCH   2   3
DOCKED: BRANCH   2   5
DOCKED: ATOM      5  N   UNL     1     140.574  76.983 220.734 -0.13 +0.07    -0.192 N  
DOCKED: ATOM      6  C   UNL     1     139.700  77.431 219.652 -0.01 -0.11    +0.355 C  
DOCKED: ATOM      7  C   UNL     1     141.809  77.765 220.790 -0.14 -0.20    +0.314 C  
DOCKED: ATOM      8  C   UNL     1     140.386  78.633 219.016 -0.10 -0.03    +0.080 C  
DOCKED: ATOM      9  C   UNL     1     141.827  78.599 219.508 -0.25 -0.05    +0.090 C  
DOCKED: BRANCH   7  10
DOCKED: ATOM     10  C   UNL     1     141.821  78.650 222.014 -0.37 -0.06    +0.119 A  
DOCKED: ATOM     11  N   UNL     1     141.440  78.183 223.233 -0.34 +0.09    -0.243 NA 
DOCKED: ATOM     12  C   UNL     1     142.231  79.984 221.999 -0.44 -0.04    +0.097 A  
DOCKED: ATOM     13  C   UNL     1     141.526  79.128 224.194 -0.40 -0.04    +0.176 A  
DOCKED: ATOM     14  S   UNL     1     142.087  80.580 223.562 -0.68 +0.03    -0.130 S  
DOCKED: ENDBRANCH   7  10
DOCKED: ENDBRANCH   2   5
DOCKED: ENDBRANCH   1   2
DOCKED: BRANCH   1  15
DOCKED: ATOM     15  N   UNL     1     139.918  73.686 222.179 -0.13 +0.03    -0.337 N  
DOCKED: ATOM     16  C   UNL     1     140.049  72.259 222.095 -0.19 -0.04    +0.270 C  
DOCKED: ATOM     17  H   UNL     1     139.377  74.106 222.967 -0.50 -0.04    +0.164 HD 
DOCKED: ATOM     18  O   UNL     1     140.310  71.721 220.984 -0.09 +0.04    -0.268 OA 
DOCKED: BRANCH  16  19
DOCKED: ATOM     19  C   UNL     1     139.932  71.430 223.311 -0.31 -0.02    +0.128 A  
DOCKED: ATOM     20  N   UNL     1     140.481  71.870 224.477 -0.27 +0.04    -0.243 NA 
DOCKED: ATOM     21  C   UNL     1     139.317  70.167 223.271 -0.25 -0.01    +0.035 A  
DOCKED: ATOM     22  C   UNL     1     140.456  71.128 225.616 -0.52 -0.01    +0.071 A  
DOCKED: ATOM     23  C   UNL     1     139.274  69.381 224.425 -0.34 -0.00    +0.013 A  
DOCKED: ATOM     24  C   UNL     1     141.039  71.619 226.788 -0.72 -0.01    +0.032 A  
DOCKED: ATOM     25  C   UNL     1     139.847  69.854 225.611 -0.46 -0.00    +0.003 A  
DOCKED: ATOM     26  C   UNL     1     141.018  70.849 227.955 -0.66 -0.01    +0.041 A  
DOCKED: ATOM     27  C   UNL     1     139.828  69.088 226.787 -0.52 -0.01    +0.049 A  
DOCKED: ATOM     28  C   UNL     1     140.413  69.587 227.956 -0.52 -0.02    +0.123 A  
DOCKED: ATOM     29  F   UNL     1     140.396  68.846 229.091 -0.12 +0.04    -0.207 F  
DOCKED: ENDBRANCH  16  19
DOCKED: ENDBRANCH   1  15
DOCKED: TORSDOF 6
DOCKED: TER
DOCKED: ENDMDL
________________________________________________________________________________


    FINAL DOCKED STATE:
    ________________________


Run:   3 / 20
Time taken for this run:   0.024s

DOCKED: MODEL        3
DOCKED: USER    Run = 3
DOCKED: USER
DOCKED: USER    Estimated Free Energy of Binding    =  -7.48 kcal/mol  [=(1)+(2)+(3)-(4)]
DOCKED: USER
DOCKED: USER    (1) Final Intermolecular Energy     =  -9.27 kcal/mol
DOCKED: USER        vdW + Hbond + desolv Energy     =  -8.80 kcal/mol
DOCKED: USER        Electrostatic Energy            =  -0.47 kcal/mol
DOCKED: USER        Moving Ligand-Fixed Receptor    =  -9.27 kcal/mol
DOCKED: USER        Moving Ligand-Moving Receptor   =  +0.00 kcal/mol
DOCKED: USER    (2) Final Total Internal Energy     =  -1.97 kcal/mol
DOCKED: USER    (3) Torsional Free Energy           =  +1.79 kcal/mol
DOCKED: USER    (4) Unbound System's Energy         =  -1.97 kcal/mol
DOCKED: USER
DOCKED: USER
DOCKED: REMARK SMILES O=C(NC/C(O)=[N+]1\CCC[C@H]1c1cscn1)c1ccc2cc(F)ccc2n1
DOCKED: REMARK SMILES IDX 4 1 5 2 6 3 7 5 8 6 11 7 9 8 10 9 12 10 16 11 13 12 15 13
DOCKED: REMARK SMILES IDX 14 14 3 15 2 16 1 18 17 19 27 20 18 21 26 22 19 23 25 24
DOCKED: REMARK SMILES IDX 20 25 24 26 21 27 22 28 23 29
DOCKED: REMARK H PARENT 6 4 3 17
DOCKED: USER                              x       y       z     vdW  Elec       q    Type
DOCKED: USER                           _______ _______ _______ _____ _____    ______ ____
DOCKED: ROOT
DOCKED: ATOM      1  C   UNL     1     138.850  74.089 221.555 -0.15 -0.06    +0.269 C  
DOCKED: ENDROOT
DOCKED: BRANCH   1   2
DOCKED: ATOM      2  C   UNL     1     140.352  74.221 221.565 -0.17 -0.05    +0.354 C  
DOCKED: BRANCH   2   3
DOCKED: ATOM      3  O   UNL     1     141.060  73.284 222.326 -0.47 -0.02    -0.462 OA 
DOCKED: ATOM      4  H   UNL     1     141.448  72.430 221.952 +0.12 -0.01    +0.299 HD 
DOCKED: ENDBRANCH   2   3
DOCKED: BRANCH   2   5
DOCKED: ATOM      5  N   UNL     1     140.965  75.206 220.943 -0.19 +0.05    -0.192 N  
DOCKED: ATOM      6  C   UNL     1     140.889  76.606 221.351 -0.17 -0.13    +0.355 C  
DOCKED: ATOM      7  C   UNL     1     141.825  75.030 219.772 -0.11 -0.11    +0.314 C  
DOCKED: ATOM      8  C   UNL     1     141.824  77.375 220.427 -0.28 -0.05    +0.080 C  
DOCKED: ATOM      9  C   UNL     1     142.115  76.442 219.259 -0.24 -0.05    +0.090 C  
DOCKED: BRANCH   7  10
DOCKED: ATOM     10  C   UNL     1     143.102  74.319 220.155 -0.28 -0.04    +0.119 A  
DOCKED: ATOM     11  N   UNL     1     143.095  73.026 220.579 -0.16 +0.04    -0.243 NA 
DOCKED: ATOM     12  C   UNL     1     144.365  74.909 220.089 -0.36 -0.05    +0.097 A  
DOCKED: ATOM     13  C   UNL     1     144.336  72.576 220.867 -0.28 -0.03    +0.176 A  
DOCKED: ATOM     14  S   UNL     1     145.487  73.769 220.597 -0.68 +0.02    -0.130 S  
DOCKED: ENDBRANCH   7  10
DOCKED: ENDBRANCH   2   5
DOCKED: ENDBRANCH   1   2
DOCKED: BRANCH   1  15
DOCKED: ATOM     15  N   UNL     1     138.449  72.944 222.370 -0.03 +0.11    -0.337 N  
DOCKED: ATOM     16  C   UNL     1     139.132  71.684 222.288 -0.15 -0.06    +0.270 C  
DOCKED: ATOM     17  H   UNL     1     137.725  73.088 223.107 -0.49 -0.10    +0.164 HD 
DOCKED: ATOM     18  O   UNL     1     139.671  71.335 221.202 -0.08 +0.05    -0.268 OA 
DOCKED: BRANCH  16  19
DOCKED: ATOM     19  C   UNL     1     139.249  70.824 223.483 -0.26 -0.03    +0.128 A  
DOCKED: ATOM     20  N   UNL     1     139.882  71.299 224.590 -0.28 +0.05    -0.243 NA 
DOCKED: ATOM     21  C   UNL     1     138.771  69.503 223.475 -0.25 -0.01    +0.035 A  
DOCKED: ATOM     22  C   UNL     1     140.071  70.538 225.701 -0.47 -0.01    +0.071 A  
DOCKED: ATOM     23  C   UNL     1     138.949  68.695 224.600 -0.37 -0.00    +0.013 A  
DOCKED: ATOM     24  C   UNL     1     140.734  71.069 226.812 -0.65 -0.01    +0.032 A  
DOCKED: ATOM     25  C   UNL     1     139.605  69.206 225.727 -0.46 -0.00    +0.003 A  
DOCKED: ATOM     26  C   UNL     1     140.933  70.279 227.949 -0.59 -0.01    +0.041 A  
DOCKED: ATOM     27  C   UNL     1     139.807  68.420 226.872 -0.58 -0.01    +0.049 A  
DOCKED: ATOM     28  C   UNL     1     140.470  68.958 227.980 -0.54 -0.02    +0.123 A  
DOCKED: ATOM     29  F   UNL     1     140.667  68.199 229.086 -0.18 +0.05    -0.207 F  
DOCKED: ENDBRANCH  16  19
DOCKED: ENDBRANCH   1  15
DOCKED: TORSDOF 6
DOCKED: TER
DOCKED: ENDMDL
________________________________________________________________________________


    FINAL DOCKED STATE:
    ________________________


Run:   4 / 20
Time taken for this run:   0.024s

DOCKED: MODEL        4
DOCKED: USER    Run = 4
DOCKED: USER
DOCKED: USER    Estimated Free Energy of Binding    =  -7.46 kcal/mol  [=(1)+(2)+(3)-(4)]
DOCKED: USER
DOCKED: USER    (1) Final Intermolecular Energy     =  -9.25 kcal/mol
DOCKED: USER        vdW + Hbond + desolv Energy     =  -8.81 kcal/mol
DOCKED: USER        Electrostatic Energy            =  -0.44 kcal/mol
DOCKED: USER        Moving Ligand-Fixed Receptor    =  -9.25 kcal/mol
DOCKED: USER        Moving Ligand-Moving Receptor   =  +0.00 kcal/mol
DOCKED: USER    (2) Final Total Internal Energy     =  -2.15 kcal/mol
DOCKED: USER    (3) Torsional Free Energy           =  +1.79 kcal/mol
DOCKED: USER    (4) Unbound System's Energy         =  -2.15 kcal/mol
DOCKED: USER
DOCKED: USER
DOCKED: REMARK SMILES O=C(NC/C(O)=[N+]1\CCC[C@H]1c1cscn1)c1ccc2cc(F)ccc2n1
DOCKED: REMARK SMILES IDX 4 1 5 2 6 3 7 5 8 6 11 7 9 8 10 9 12 10 16 11 13 12 15 13
DOCKED: REMARK SMILES IDX 14 14 3 15 2 16 1 18 17 19 27 20 18 21 26 22 19 23 25 24
DOCKED: REMARK SMILES IDX 20 25 24 26 21 27 22 28 23 29
DOCKED: REMARK H PARENT 6 4 3 17
DOCKED: USER                              x       y       z     vdW  Elec       q    Type
DOCKED: USER                           _______ _______ _______ _____ _____    ______ ____
DOCKED: ROOT
DOCKED: ATOM      1  C   UNL     1     140.624  74.756 221.425 -0.21 -0.05    +0.269 C  
DOCKED: ENDROOT
DOCKED: BRANCH   1   2
DOCKED: ATOM      2  C   UNL     1     140.211  76.096 221.976 -0.21 -0.08    +0.354 C  
DOCKED: BRANCH   2   3
DOCKED: ATOM      3  O   UNL     1     139.106  76.109 222.835 -0.18 +0.09    -0.462 OA 
DOCKED: ATOM      4  H   UNL     1     138.244  76.596 222.638 +0.09 -0.06    +0.299 HD 
DOCKED: ENDBRANCH   2   3
DOCKED: BRANCH   2   5
DOCKED: ATOM      5  N   UNL     1     140.817  77.209 221.619 -0.23 +0.07    -0.192 N  
DOCKED: ATOM      6  C   UNL     1     141.295  77.484 220.266 -0.12 -0.17    +0.355 C  
DOCKED: ATOM      7  C   UNL     1     141.072  78.332 222.521 -0.28 -0.12    +0.314 C  
DOCKED: ATOM      8  C   UNL     1     141.827  78.911 220.280 -0.25 -0.05    +0.080 C  
DOCKED: ATOM      9  C   UNL     1     141.991  79.280 221.748 -0.37 -0.05    +0.090 C  
DOCKED: BRANCH   7  10
DOCKED: ATOM     10  C   UNL     1     139.779  79.017 222.895 -0.31 -0.02    +0.119 A  
DOCKED: ATOM     11  N   UNL     1     138.598  78.670 222.316 -0.12 +0.04    -0.243 NA 
DOCKED: ATOM     12  C   UNL     1     139.688  80.024 223.856 -0.37 -0.01    +0.097 A  
DOCKED: ATOM     13  C   UNL     1     137.562  79.396 222.790 -0.16 -0.03    +0.176 A  
DOCKED: ATOM     14  S   UNL     1     138.078  80.492 223.954 -0.40 +0.01    -0.130 S  
DOCKED: ENDBRANCH   7  10
DOCKED: ENDBRANCH   2   5
DOCKED: ENDBRANCH   1   2
DOCKED: BRANCH   1  15
DOCKED: ATOM     15  N   UNL     1     139.918  73.690 222.134 -0.13 +0.03    -0.337 N  
DOCKED: ATOM     16  C   UNL     1     140.417  72.344 222.163 -0.20 -0.03    +0.270 C  
DOCKED: ATOM     17  H   UNL     1     139.097  73.946 222.725 -0.53 -0.06    +0.164 HD 
DOCKED: ATOM     18  O   UNL     1     141.095  71.909 221.191 -0.14 +0.03    -0.268 OA 
DOCKED: BRANCH  16  19
DOCKED: ATOM     19  C   UNL     1     140.185  71.492 223.345 -0.31 -0.02    +0.128 A  
DOCKED: ATOM     20  N   UNL     1     140.680  71.875 224.555 -0.26 +0.03    -0.243 NA 
DOCKED: ATOM     21  C   UNL     1     139.515  70.262 223.233 -0.25 -0.01    +0.035 A  
DOCKED: ATOM     22  C   UNL     1     140.548  71.107 225.669 -0.53 -0.01    +0.071 A  
DOCKED: ATOM     23  C   UNL     1     139.363  69.451 224.359 -0.33 -0.00    +0.013 A  
DOCKED: ATOM     24  C   UNL     1     141.079  71.541 226.888 -0.72 -0.01    +0.032 A  
DOCKED: ATOM     25  C   UNL     1     139.881  69.865 225.591 -0.46 -0.00    +0.003 A  
DOCKED: ATOM     26  C   UNL     1     140.948  70.744 228.029 -0.64 -0.01    +0.041 A  
DOCKED: ATOM     27  C   UNL     1     139.753  69.071 226.741 -0.52 -0.01    +0.049 A  
DOCKED: ATOM     28  C   UNL     1     140.286  69.513 227.958 -0.52 -0.02    +0.123 A  
DOCKED: ATOM     29  F   UNL     1     140.163  68.745 229.068 -0.14 +0.04    -0.207 F  
DOCKED: ENDBRANCH  16  19
DOCKED: ENDBRANCH   1  15
DOCKED: TORSDOF 6
DOCKED: TER
DOCKED: ENDMDL
________________________________________________________________________________


    FINAL DOCKED STATE:
    ________________________


Run:   5 / 20
Time taken for this run:   0.024s

DOCKED: MODEL        5
DOCKED: USER    Run = 5
DOCKED: USER
DOCKED: USER    Estimated Free Energy of Binding    =  -7.56 kcal/mol  [=(1)+(2)+(3)-(4)]
DOCKED: USER
DOCKED: USER    (1) Final Intermolecular Energy     =  -9.35 kcal/mol
DOCKED: USER        vdW + Hbond + desolv Energy     =  -8.92 kcal/mol
DOCKED: USER        Electrostatic Energy            =  -0.44 kcal/mol
DOCKED: USER        Moving Ligand-Fixed Receptor    =  -9.35 kcal/mol
DOCKED: USER        Moving Ligand-Moving Receptor   =  +0.00 kcal/mol
DOCKED: USER    (2) Final Total Internal Energy     =  -2.24 kcal/mol
DOCKED: USER    (3) Torsional Free Energy           =  +1.79 kcal/mol
DOCKED: USER    (4) Unbound System's Energy         =  -2.24 kcal/mol
DOCKED: USER
DOCKED: USER
DOCKED: REMARK SMILES O=C(NC/C(O)=[N+]1\CCC[C@H]1c1cscn1)c1ccc2cc(F)ccc2n1
DOCKED: REMARK SMILES IDX 4 1 5 2 6 3 7 5 8 6 11 7 9 8 10 9 12 10 16 11 13 12 15 13
DOCKED: REMARK SMILES IDX 14 14 3 15 2 16 1 18 17 19 27 20 18 21 26 22 19 23 25 24
DOCKED: REMARK SMILES IDX 20 25 24 26 21 27 22 28 23 29
DOCKED: REMARK H PARENT 6 4 3 17
DOCKED: USER                              x       y       z     vdW  Elec       q    Type
DOCKED: USER                           _______ _______ _______ _____ _____    ______ ____
DOCKED: ROOT
DOCKED: ATOM      1  C   UNL     1     140.644  74.561 221.314 -0.20 -0.05    +0.269 C  
DOCKED: ENDROOT
DOCKED: BRANCH   1   2
DOCKED: ATOM      2  C   UNL     1     140.248  75.995 221.557 -0.19 -0.09    +0.354 C  
DOCKED: BRANCH   2   3
DOCKED: ATOM      3  O   UNL     1     139.477  76.248 222.697 -0.23 +0.08    -0.462 OA 
DOCKED: ATOM      4  H   UNL     1     139.614  77.043 223.306 +0.16 -0.04    +0.299 HD 
DOCKED: ENDBRANCH   2   3
DOCKED: BRANCH   2   5
DOCKED: ATOM      5  N   UNL     1     140.554  76.952 220.707 -0.13 +0.07    -0.192 N  
DOCKED: ATOM      6  C   UNL     1     139.687  77.387 219.615 -0.01 -0.11    +0.355 C  
DOCKED: ATOM      7  C   UNL     1     141.794  77.727 220.754 -0.14 -0.19    +0.314 C  
DOCKED: ATOM      8  C   UNL     1     140.382  78.574 218.961 -0.09 -0.03    +0.080 C  
DOCKED: ATOM      9  C   UNL     1     141.821  78.539 219.458 -0.25 -0.05    +0.090 C  
DOCKED: BRANCH   7  10
DOCKED: ATOM     10  C   UNL     1     141.808  78.633 221.962 -0.36 -0.06    +0.119 A  
DOCKED: ATOM     11  N   UNL     1     141.443  78.182 223.193 -0.34 +0.09    -0.243 NA 
DOCKED: ATOM     12  C   UNL     1     142.203  79.971 221.921 -0.43 -0.04    +0.097 A  
DOCKED: ATOM     13  C   UNL     1     141.527  79.144 224.137 -0.41 -0.04    +0.176 A  
DOCKED: ATOM     14  S   UNL     1     142.067  80.591 223.475 -0.68 +0.03    -0.130 S  
DOCKED: ENDBRANCH   7  10
DOCKED: ENDBRANCH   2   5
DOCKED: ENDBRANCH   1   2
DOCKED: BRANCH   1  15
DOCKED: ATOM     15  N   UNL     1     139.948  73.688 222.257 -0.11 +0.03    -0.337 N  
DOCKED: ATOM     16  C   UNL     1     139.984  72.259 222.130 -0.20 -0.04    +0.270 C  
DOCKED: ATOM     17  H   UNL     1     139.514  74.117 223.104 -0.53 -0.02    +0.164 HD 
DOCKED: ATOM     18  O   UNL     1     140.100  71.736 220.988 -0.08 +0.04    -0.268 OA 
DOCKED: BRANCH  16  19
DOCKED: ATOM     19  C   UNL     1     139.940  71.405 223.334 -0.31 -0.02    +0.128 A  
DOCKED: ATOM     20  N   UNL     1     140.431  71.881 224.511 -0.27 +0.04    -0.243 NA 
DOCKED: ATOM     21  C   UNL     1     139.455  70.088 223.271 -0.24 -0.01    +0.035 A  
DOCKED: ATOM     22  C   UNL     1     140.470  71.125 225.640 -0.53 -0.01    +0.071 A  
DOCKED: ATOM     23  C   UNL     1     139.480  69.286 224.414 -0.32 -0.00    +0.013 A  
DOCKED: ATOM     24  C   UNL     1     140.990  71.656 226.824 -0.72 -0.01    +0.032 A  
DOCKED: ATOM     25  C   UNL     1     139.992  69.797 225.612 -0.46 -0.00    +0.003 A  
DOCKED: ATOM     26  C   UNL     1     141.035  70.872 227.981 -0.66 -0.01    +0.041 A  
DOCKED: ATOM     27  C   UNL     1     140.039  69.016 226.778 -0.54 -0.01    +0.049 A  
DOCKED: ATOM     28  C   UNL     1     140.560  69.555 227.959 -0.52 -0.02    +0.123 A  
DOCKED: ATOM     29  F   UNL     1     140.608  68.800 229.084 -0.12 +0.04    -0.207 F  
DOCKED: ENDBRANCH  16  19
DOCKED: ENDBRANCH   1  15
DOCKED: TORSDOF 6
DOCKED: TER
DOCKED: ENDMDL
________________________________________________________________________________


    FINAL DOCKED STATE:
    ________________________


Run:   6 / 20
Time taken for this run:   0.024s

DOCKED: MODEL        6
DOCKED: USER    Run = 6
DOCKED: USER
DOCKED: USER    Estimated Free Energy of Binding    =  -7.48 kcal/mol  [=(1)+(2)+(3)-(4)]
DOCKED: USER
DOCKED: USER    (1) Final Intermolecular Energy     =  -9.27 kcal/mol
DOCKED: USER        vdW + Hbond + desolv Energy     =  -8.83 kcal/mol
DOCKED: USER        Electrostatic Energy            =  -0.44 kcal/mol
DOCKED: USER        Moving Ligand-Fixed Receptor    =  -9.27 kcal/mol
DOCKED: USER        Moving Ligand-Moving Receptor   =  +0.00 kcal/mol
DOCKED: USER    (2) Final Total Internal Energy     =  -2.13 kcal/mol
DOCKED: USER    (3) Torsional Free Energy           =  +1.79 kcal/mol
DOCKED: USER    (4) Unbound System's Energy         =  -2.13 kcal/mol
DOCKED: USER
DOCKED: USER
DOCKED: REMARK SMILES O=C(NC/C(O)=[N+]1\CCC[C@H]1c1cscn1)c1ccc2cc(F)ccc2n1
DOCKED: REMARK SMILES IDX 4 1 5 2 6 3 7 5 8 6 11 7 9 8 10 9 12 10 16 11 13 12 15 13
DOCKED: REMARK SMILES IDX 14 14 3 15 2 16 1 18 17 19 27 20 18 21 26 22 19 23 25 24
DOCKED: REMARK SMILES IDX 20 25 24 26 21 27 22 28 23 29
DOCKED: REMARK H PARENT 6 4 3 17
DOCKED: USER                              x       y       z     vdW  Elec       q    Type
DOCKED: USER                           _______ _______ _______ _____ _____    ______ ____
DOCKED: ROOT
DOCKED: ATOM      1  C   UNL     1     140.562  74.763 221.416 -0.21 -0.05    +0.269 C  
DOCKED: ENDROOT
DOCKED: BRANCH   1   2
DOCKED: ATOM      2  C   UNL     1     140.182  76.094 222.012 -0.20 -0.08    +0.354 C  
DOCKED: BRANCH   2   3
DOCKED: ATOM      3  O   UNL     1     139.097  76.100 222.895 -0.16 +0.09    -0.462 OA 
DOCKED: ATOM      4  H   UNL     1     138.210  76.542 222.699 +0.09 -0.06    +0.299 HD 
DOCKED: ENDBRANCH   2   3
DOCKED: BRANCH   2   5
DOCKED: ATOM      5  N   UNL     1     140.795  77.207 221.669 -0.23 +0.07    -0.192 N  
DOCKED: ATOM      6  C   UNL     1     141.290  77.490 220.324 -0.12 -0.17    +0.355 C  
DOCKED: ATOM      7  C   UNL     1     141.044  78.323 222.582 -0.29 -0.11    +0.314 C  
DOCKED: ATOM      8  C   UNL     1     141.826  78.915 220.353 -0.25 -0.05    +0.080 C  
DOCKED: ATOM      9  C   UNL     1     141.975  79.273 221.826 -0.39 -0.05    +0.090 C  
DOCKED: BRANCH   7  10
DOCKED: ATOM     10  C   UNL     1     139.749  79.010 222.946 -0.31 -0.02    +0.119 A  
DOCKED: ATOM     11  N   UNL     1     138.564  78.628 222.398 -0.13 +0.04    -0.243 NA 
DOCKED: ATOM     12  C   UNL     1     139.660  80.055 223.866 -0.36 -0.01    +0.097 A  
DOCKED: ATOM     13  C   UNL     1     137.527  79.363 222.857 -0.16 -0.03    +0.176 A  
DOCKED: ATOM     14  S   UNL     1     138.048  80.510 223.968 -0.40 +0.01    -0.130 S  
DOCKED: ENDBRANCH   7  10
DOCKED: ENDBRANCH   2   5
DOCKED: ENDBRANCH   1   2
DOCKED: BRANCH   1  15
DOCKED: ATOM     15  N   UNL     1     139.876  73.688 222.129 -0.14 +0.04    -0.337 N  
DOCKED: ATOM     16  C   UNL     1     140.396  72.350 222.159 -0.20 -0.03    +0.270 C  
DOCKED: ATOM     17  H   UNL     1     139.052  73.931 222.723 -0.53 -0.06    +0.164 HD 
DOCKED: ATOM     18  O   UNL     1     141.077  71.924 221.187 -0.14 +0.03    -0.268 OA 
DOCKED: BRANCH  16  19
DOCKED: ATOM     19  C   UNL     1     140.181  71.496 223.344 -0.31 -0.02    +0.128 A  
DOCKED: ATOM     20  N   UNL     1     140.673  71.889 224.551 -0.26 +0.03    -0.243 NA 
DOCKED: ATOM     21  C   UNL     1     139.530  70.255 223.235 -0.25 -0.01    +0.035 A  
DOCKED: ATOM     22  C   UNL     1     140.556  71.121 225.667 -0.53 -0.01    +0.071 A  
DOCKED: ATOM     23  C   UNL     1     139.394  69.444 224.363 -0.33 -0.00    +0.013 A  
DOCKED: ATOM     24  C   UNL     1     141.084  71.565 226.884 -0.72 -0.01    +0.032 A  
DOCKED: ATOM     25  C   UNL     1     139.909  69.869 225.593 -0.46 -0.00    +0.003 A  
DOCKED: ATOM     26  C   UNL     1     140.968  70.768 228.027 -0.64 -0.01    +0.041 A  
DOCKED: ATOM     27  C   UNL     1     139.796  69.075 226.745 -0.52 -0.01    +0.049 A  
DOCKED: ATOM     28  C   UNL     1     140.326  69.527 227.959 -0.52 -0.02    +0.123 A  
DOCKED: ATOM     29  F   UNL     1     140.218  68.759 229.071 -0.14 +0.04    -0.207 F  
DOCKED: ENDBRANCH  16  19
DOCKED: ENDBRANCH   1  15
DOCKED: TORSDOF 6
DOCKED: TER
DOCKED: ENDMDL
________________________________________________________________________________


    FINAL DOCKED STATE:
    ________________________


Run:   7 / 20
Time taken for this run:   0.024s

DOCKED: MODEL        7
DOCKED: USER    Run = 7
DOCKED: USER
DOCKED: USER    Estimated Free Energy of Binding    =  -8.08 kcal/mol  [=(1)+(2)+(3)-(4)]
DOCKED: USER
DOCKED: USER    (1) Final Intermolecular Energy     =  -9.87 kcal/mol
DOCKED: USER        vdW + Hbond + desolv Energy     =  -9.35 kcal/mol
DOCKED: USER        Electrostatic Energy            =  -0.52 kcal/mol
DOCKED: USER        Moving Ligand-Fixed Receptor    =  -9.87 kcal/mol
DOCKED: USER        Moving Ligand-Moving Receptor   =  +0.00 kcal/mol
DOCKED: USER    (2) Final Total Internal Energy     =  -1.55 kcal/mol
DOCKED: USER    (3) Torsional Free Energy           =  +1.79 kcal/mol
DOCKED: USER    (4) Unbound System's Energy         =  -1.55 kcal/mol
DOCKED: USER
DOCKED: USER
DOCKED: REMARK SMILES O=C(NC/C(O)=[N+]1\CCC[C@H]1c1cscn1)c1ccc2cc(F)ccc2n1
DOCKED: REMARK SMILES IDX 4 1 5 2 6 3 7 5 8 6 11 7 9 8 10 9 12 10 16 11 13 12 15 13
DOCKED: REMARK SMILES IDX 14 14 3 15 2 16 1 18 17 19 27 20 18 21 26 22 19 23 25 24
DOCKED: REMARK SMILES IDX 20 25 24 26 21 27 22 28 23 29
DOCKED: REMARK H PARENT 6 4 3 17
DOCKED: USER                              x       y       z     vdW  Elec       q    Type
DOCKED: USER                           _______ _______ _______ _____ _____    ______ ____
DOCKED: ROOT
DOCKED: ATOM      1  C   UNL     1     140.658  74.290 221.316 -0.20 -0.04    +0.269 C  
DOCKED: ENDROOT
DOCKED: BRANCH   1   2
DOCKED: ATOM      2  C   UNL     1     140.245  75.718 221.568 -0.19 -0.08    +0.354 C  
DOCKED: BRANCH   2   3
DOCKED: ATOM      3  O   UNL     1     139.483  75.957 222.717 -0.30 +0.08    -0.462 OA 
DOCKED: ATOM      4  H   UNL     1     138.836  75.291 223.114 -0.41 -0.10    +0.299 HD 
DOCKED: ENDBRANCH   2   3
DOCKED: BRANCH   2   5
DOCKED: ATOM      5  N   UNL     1     140.531  76.682 220.719 -0.13 +0.07    -0.192 N  
DOCKED: ATOM      6  C   UNL     1     139.709  77.022 219.560 -0.01 -0.10    +0.355 C  
DOCKED: ATOM      7  C   UNL     1     141.695  77.561 220.833 -0.13 -0.19    +0.314 C  
DOCKED: ATOM      8  C   UNL     1     140.347  78.252 218.927 -0.08 -0.03    +0.080 C  
DOCKED: ATOM      9  C   UNL     1     141.745  78.349 219.523 -0.24 -0.05    +0.090 C  
DOCKED: BRANCH   7  10
DOCKED: ATOM     10  C   UNL     1     141.547  78.486 222.018 -0.35 -0.06    +0.119 A  
DOCKED: ATOM     11  N   UNL     1     140.399  78.528 222.748 -0.23 +0.06    -0.243 NA 
DOCKED: ATOM     12  C   UNL     1     142.556  79.341 222.462 -0.46 -0.05    +0.097 A  
DOCKED: ATOM     13  C   UNL     1     140.471  79.416 223.764 -0.37 -0.03    +0.176 A  
DOCKED: ATOM     14  S   UNL     1     141.969  80.176 223.795 -0.66 +0.03    -0.130 S  
DOCKED: ENDBRANCH   7  10
DOCKED: ENDBRANCH   2   5
DOCKED: ENDBRANCH   1   2
DOCKED: BRANCH   1  15
DOCKED: ATOM     15  N   UNL     1     139.919  73.397 222.206 -0.15 +0.04    -0.337 N  
DOCKED: ATOM     16  C   UNL     1     140.050  71.970 222.120 -0.19 -0.04    +0.270 C  
DOCKED: ATOM     17  H   UNL     1     139.377  73.816 222.993 -0.50 -0.05    +0.164 HD 
DOCKED: ATOM     18  O   UNL     1     140.311  71.433 221.008 -0.09 +0.04    -0.268 OA 
DOCKED: BRANCH  16  19
DOCKED: ATOM     19  C   UNL     1     139.931  71.139 223.334 -0.29 -0.02    +0.128 A  
DOCKED: ATOM     20  N   UNL     1     140.491  71.570 224.498 -0.29 +0.04    -0.243 NA 
DOCKED: ATOM     21  C   UNL     1     139.302  69.883 223.295 -0.24 -0.01    +0.035 A  
DOCKED: ATOM     22  C   UNL     1     140.464  70.825 225.635 -0.51 -0.01    +0.071 A  
DOCKED: ATOM     23  C   UNL     1     139.257  69.095 224.447 -0.34 -0.00    +0.013 A  
DOCKED: ATOM     24  C   UNL     1     141.060  71.308 226.805 -0.69 -0.00    +0.032 A  
DOCKED: ATOM     25  C   UNL     1     139.842  69.558 225.631 -0.45 -0.00    +0.003 A  
DOCKED: ATOM     26  C   UNL     1     141.037  70.535 227.970 -0.62 -0.01    +0.041 A  
DOCKED: ATOM     27  C   UNL     1     139.821  68.789 226.805 -0.55 -0.01    +0.049 A  
DOCKED: ATOM     28  C   UNL     1     140.419  69.279 227.971 -0.53 -0.02    +0.123 A  
DOCKED: ATOM     29  F   UNL     1     140.401  68.536 229.105 -0.15 +0.04    -0.207 F  
DOCKED: ENDBRANCH  16  19
DOCKED: ENDBRANCH   1  15
DOCKED: TORSDOF 6
DOCKED: TER
DOCKED: ENDMDL
________________________________________________________________________________


    FINAL DOCKED STATE:
    ________________________


Run:   8 / 20
Time taken for this run:   0.024s

DOCKED: MODEL        8
DOCKED: USER    Run = 8
DOCKED: USER
DOCKED: USER    Estimated Free Energy of Binding    =  -7.45 kcal/mol  [=(1)+(2)+(3)-(4)]
DOCKED: USER
DOCKED: USER    (1) Final Intermolecular Energy     =  -9.24 kcal/mol
DOCKED: USER        vdW + Hbond + desolv Energy     =  -8.81 kcal/mol
DOCKED: USER        Electrostatic Energy            =  -0.43 kcal/mol
DOCKED: USER        Moving Ligand-Fixed Receptor    =  -9.24 kcal/mol
DOCKED: USER        Moving Ligand-Moving Receptor   =  +0.00 kcal/mol
DOCKED: USER    (2) Final Total Internal Energy     =  -2.16 kcal/mol
DOCKED: USER    (3) Torsional Free Energy           =  +1.79 kcal/mol
DOCKED: USER    (4) Unbound System's Energy         =  -2.16 kcal/mol
DOCKED: USER
DOCKED: USER
DOCKED: REMARK SMILES O=C(NC/C(O)=[N+]1\CCC[C@H]1c1cscn1)c1ccc2cc(F)ccc2n1
DOCKED: REMARK SMILES IDX 4 1 5 2 6 3 7 5 8 6 11 7 9 8 10 9 12 10 16 11 13 12 15 13
DOCKED: REMARK SMILES IDX 14 14 3 15 2 16 1 18 17 19 27 20 18 21 26 22 19 23 25 24
DOCKED: REMARK SMILES IDX 20 25 24 26 21 27 22 28 23 29
DOCKED: REMARK H PARENT 6 4 3 17
DOCKED: USER                              x       y       z     vdW  Elec       q    Type
DOCKED: USER                           _______ _______ _______ _____ _____    ______ ____
DOCKED: ROOT
DOCKED: ATOM      1  C   UNL     1     140.642  74.807 221.533 -0.22 -0.04    +0.269 C  
DOCKED: ENDROOT
DOCKED: BRANCH   1   2
DOCKED: ATOM      2  C   UNL     1     140.149  76.134 222.052 -0.20 -0.08    +0.354 C  
DOCKED: BRANCH   2   3
DOCKED: ATOM      3  O   UNL     1     138.963  76.116 222.795 -0.19 +0.09    -0.462 OA 
DOCKED: ATOM      4  H   UNL     1     138.167  76.707 222.602 +0.09 -0.06    +0.299 HD 
DOCKED: ENDBRANCH   2   3
DOCKED: BRANCH   2   5
DOCKED: ATOM      5  N   UNL     1     140.765  77.261 221.766 -0.24 +0.07    -0.192 N  
DOCKED: ATOM      6  C   UNL     1     141.302  77.591 220.448 -0.13 -0.17    +0.355 C  
DOCKED: ATOM      7  C   UNL     1     140.975  78.349 222.722 -0.30 -0.11    +0.314 C  
DOCKED: ATOM      8  C   UNL     1     141.826  79.018 220.541 -0.25 -0.05    +0.080 C  
DOCKED: ATOM      9  C   UNL     1     141.923  79.329 222.029 -0.43 -0.04    +0.090 C  
DOCKED: BRANCH   7  10
DOCKED: ATOM     10  C   UNL     1     139.662  79.014 223.064 -0.32 -0.02    +0.119 A  
DOCKED: ATOM     11  N   UNL     1     138.522  78.734 222.377 -0.13 +0.04    -0.243 NA 
DOCKED: ATOM     12  C   UNL     1     139.510  79.936 224.101 -0.28 -0.01    +0.097 A  
DOCKED: ATOM     13  C   UNL     1     137.461  79.429 222.839 -0.16 -0.03    +0.176 A  
DOCKED: ATOM     14  S   UNL     1     137.901  80.413 224.128 -0.37 +0.01    -0.130 S  
DOCKED: ENDBRANCH   7  10
DOCKED: ENDBRANCH   2   5
DOCKED: ENDBRANCH   1   2
DOCKED: BRANCH   1  15
DOCKED: ATOM     15  N   UNL     1     139.928  73.720 222.199 -0.12 +0.03    -0.337 N  
DOCKED: ATOM     16  C   UNL     1     140.464  72.389 222.256 -0.20 -0.03    +0.270 C  
DOCKED: ATOM     17  H   UNL     1     139.066  73.949 222.742 -0.53 -0.06    +0.164 HD 
DOCKED: ATOM     18  O   UNL     1     141.209  71.976 221.326 -0.16 +0.03    -0.268 OA 
DOCKED: BRANCH  16  19
DOCKED: ATOM     19  C   UNL     1     140.188  71.527 223.423 -0.32 -0.02    +0.128 A  
DOCKED: ATOM     20  N   UNL     1     140.688  71.870 224.642 -0.26 +0.03    -0.243 NA 
DOCKED: ATOM     21  C   UNL     1     139.470  70.327 223.285 -0.26 -0.01    +0.035 A  
DOCKED: ATOM     22  C   UNL     1     140.517  71.090 225.742 -0.53 -0.01    +0.071 A  
DOCKED: ATOM     23  C   UNL     1     139.276  69.504 224.396 -0.34 -0.00    +0.013 A  
DOCKED: ATOM     24  C   UNL     1     141.055  71.481 226.972 -0.72 -0.01    +0.032 A  
DOCKED: ATOM     25  C   UNL     1     139.801  69.877 225.639 -0.46 -0.00    +0.003 A  
DOCKED: ATOM     26  C   UNL     1     140.883  70.671 228.099 -0.61 -0.01    +0.041 A  
DOCKED: ATOM     27  C   UNL     1     139.632  69.070 226.774 -0.51 -0.01    +0.049 A  
DOCKED: ATOM     28  C   UNL     1     140.173  69.469 228.002 -0.52 -0.02    +0.123 A  
DOCKED: ATOM     29  F   UNL     1     140.010  68.689 229.098 -0.14 +0.04    -0.207 F  
DOCKED: ENDBRANCH  16  19
DOCKED: ENDBRANCH   1  15
DOCKED: TORSDOF 6
DOCKED: TER
DOCKED: ENDMDL
________________________________________________________________________________


    FINAL DOCKED STATE:
    ________________________


Run:   9 / 20
Time taken for this run:   0.024s

DOCKED: MODEL        9
DOCKED: USER    Run = 9
DOCKED: USER
DOCKED: USER    Estimated Free Energy of Binding    =  -7.56 kcal/mol  [=(1)+(2)+(3)-(4)]
DOCKED: USER
DOCKED: USER    (1) Final Intermolecular Energy     =  -9.35 kcal/mol
DOCKED: USER        vdW + Hbond + desolv Energy     =  -8.91 kcal/mol
DOCKED: USER        Electrostatic Energy            =  -0.44 kcal/mol
DOCKED: USER        Moving Ligand-Fixed Receptor    =  -9.35 kcal/mol
DOCKED: USER        Moving Ligand-Moving Receptor   =  +0.00 kcal/mol
DOCKED: USER    (2) Final Total Internal Energy     =  -2.24 kcal/mol
DOCKED: USER    (3) Torsional Free Energy           =  +1.79 kcal/mol
DOCKED: USER    (4) Unbound System's Energy         =  -2.24 kcal/mol
DOCKED: USER
DOCKED: USER
DOCKED: REMARK SMILES O=C(NC/C(O)=[N+]1\CCC[C@H]1c1cscn1)c1ccc2cc(F)ccc2n1
DOCKED: REMARK SMILES IDX 4 1 5 2 6 3 7 5 8 6 11 7 9 8 10 9 12 10 16 11 13 12 15 13
DOCKED: REMARK SMILES IDX 14 14 3 15 2 16 1 18 17 19 27 20 18 21 26 22 19 23 25 24
DOCKED: REMARK SMILES IDX 20 25 24 26 21 27 22 28 23 29
DOCKED: REMARK H PARENT 6 4 3 17
DOCKED: USER                              x       y       z     vdW  Elec       q    Type
DOCKED: USER                           _______ _______ _______ _____ _____    ______ ____
DOCKED: ROOT
DOCKED: ATOM      1  C   UNL     1     140.618  74.553 221.314 -0.20 -0.05    +0.269 C  
DOCKED: ENDROOT
DOCKED: BRANCH   1   2
DOCKED: ATOM      2  C   UNL     1     140.247  75.992 221.566 -0.19 -0.09    +0.354 C  
DOCKED: BRANCH   2   3
DOCKED: ATOM      3  O   UNL     1     139.496  76.255 222.717 -0.23 +0.08    -0.462 OA 
DOCKED: ATOM      4  H   UNL     1     139.558  77.112 223.248 +0.15 -0.04    +0.299 HD 
DOCKED: ENDBRANCH   2   3
DOCKED: BRANCH   2   5
DOCKED: ATOM      5  N   UNL     1     140.557  76.946 220.714 -0.13 +0.07    -0.192 N  
DOCKED: ATOM      6  C   UNL     1     139.696  77.374 219.614 -0.01 -0.11    +0.355 C  
DOCKED: ATOM      7  C   UNL     1     141.794  77.726 220.767 -0.14 -0.19    +0.314 C  
DOCKED: ATOM      8  C   UNL     1     140.392  78.560 218.960 -0.09 -0.03    +0.080 C  
DOCKED: ATOM      9  C   UNL     1     141.828  78.533 219.468 -0.25 -0.05    +0.090 C  
DOCKED: BRANCH   7  10
DOCKED: ATOM     10  C   UNL     1     141.796  78.637 221.971 -0.36 -0.06    +0.119 A  
DOCKED: ATOM     11  N   UNL     1     141.423  78.190 223.201 -0.34 +0.09    -0.243 NA 
DOCKED: ATOM     12  C   UNL     1     142.186  79.976 221.928 -0.43 -0.04    +0.097 A  
DOCKED: ATOM     13  C   UNL     1     141.498  79.157 224.142 -0.40 -0.04    +0.176 A  
DOCKED: ATOM     14  S   UNL     1     142.037  80.602 223.478 -0.68 +0.03    -0.130 S  
DOCKED: ENDBRANCH   7  10
DOCKED: ENDBRANCH   2   5
DOCKED: ENDBRANCH   1   2
DOCKED: BRANCH   1  15
DOCKED: ATOM     15  N   UNL     1     139.932  73.690 222.275 -0.11 +0.03    -0.337 N  
DOCKED: ATOM     16  C   UNL     1     139.942  72.260 222.145 -0.20 -0.04    +0.270 C  
DOCKED: ATOM     17  H   UNL     1     139.528  74.125 223.133 -0.52 -0.02    +0.164 HD 
DOCKED: ATOM     18  O   UNL     1     140.019  71.738 220.999 -0.08 +0.04    -0.268 OA 
DOCKED: BRANCH  16  19
DOCKED: ATOM     19  C   UNL     1     139.916  71.406 223.348 -0.31 -0.02    +0.128 A  
DOCKED: ATOM     20  N   UNL     1     140.405  71.888 224.523 -0.27 +0.04    -0.243 NA 
DOCKED: ATOM     21  C   UNL     1     139.450  70.081 223.287 -0.24 -0.01    +0.035 A  
DOCKED: ATOM     22  C   UNL     1     140.460  71.132 225.651 -0.53 -0.01    +0.071 A  
DOCKED: ATOM     23  C   UNL     1     139.492  69.279 224.429 -0.33 -0.00    +0.013 A  
DOCKED: ATOM     24  C   UNL     1     140.978  71.670 226.834 -0.72 -0.01    +0.032 A  
DOCKED: ATOM     25  C   UNL     1     140.001  69.797 225.625 -0.46 -0.00    +0.003 A  
DOCKED: ATOM     26  C   UNL     1     141.040  70.885 227.990 -0.66 -0.01    +0.041 A  
DOCKED: ATOM     27  C   UNL     1     140.066  69.016 226.790 -0.54 -0.01    +0.049 A  
DOCKED: ATOM     28  C   UNL     1     140.584  69.562 227.969 -0.52 -0.02    +0.123 A  
DOCKED: ATOM     29  F   UNL     1     140.648  68.808 229.094 -0.11 +0.04    -0.207 F  
DOCKED: ENDBRANCH  16  19
DOCKED: ENDBRANCH   1  15
DOCKED: TORSDOF 6
DOCKED: TER
DOCKED: ENDMDL
________________________________________________________________________________


    FINAL DOCKED STATE:
    ________________________


Run:   10 / 20
Time taken for this run:   0.024s

DOCKED: MODEL        10
DOCKED: USER    Run = 10
DOCKED: USER
DOCKED: USER    Estimated Free Energy of Binding    =  -7.51 kcal/mol  [=(1)+(2)+(3)-(4)]
DOCKED: USER
DOCKED: USER    (1) Final Intermolecular Energy     =  -9.30 kcal/mol
DOCKED: USER        vdW + Hbond + desolv Energy     =  -8.82 kcal/mol
DOCKED: USER        Electrostatic Energy            =  -0.47 kcal/mol
DOCKED: USER        Moving Ligand-Fixed Receptor    =  -9.30 kcal/mol
DOCKED: USER        Moving Ligand-Moving Receptor   =  +0.00 kcal/mol
DOCKED: USER    (2) Final Total Internal Energy     =  -2.27 kcal/mol
DOCKED: USER    (3) Torsional Free Energy           =  +1.79 kcal/mol
DOCKED: USER    (4) Unbound System's Energy         =  -2.27 kcal/mol
DOCKED: USER
DOCKED: USER
DOCKED: REMARK SMILES O=C(NC/C(O)=[N+]1\CCC[C@H]1c1cscn1)c1ccc2cc(F)ccc2n1
DOCKED: REMARK SMILES IDX 4 1 5 2 6 3 7 5 8 6 11 7 9 8 10 9 12 10 16 11 13 12 15 13
DOCKED: REMARK SMILES IDX 14 14 3 15 2 16 1 18 17 19 27 20 18 21 26 22 19 23 25 24
DOCKED: REMARK SMILES IDX 20 25 24 26 21 27 22 28 23 29
DOCKED: REMARK H PARENT 6 4 3 17
DOCKED: USER                              x       y       z     vdW  Elec       q    Type
DOCKED: USER                           _______ _______ _______ _____ _____    ______ ____
DOCKED: ROOT
DOCKED: ATOM      1  C   UNL     1     140.647  74.438 221.304 -0.20 -0.04    +0.269 C  
DOCKED: ENDROOT
DOCKED: BRANCH   1   2
DOCKED: ATOM      2  C   UNL     1     140.294  75.881 221.561 -0.19 -0.09    +0.354 C  
DOCKED: BRANCH   2   3
DOCKED: ATOM      3  O   UNL     1     139.555  76.149 222.719 -0.26 +0.08    -0.462 OA 
DOCKED: ATOM      4  H   UNL     1     139.165  77.054 222.942 +0.12 -0.05    +0.299 HD 
DOCKED: ENDBRANCH   2   3
DOCKED: BRANCH   2   5
DOCKED: ATOM      5  N   UNL     1     140.608  76.833 220.709 -0.13 +0.07    -0.192 N  
DOCKED: ATOM      6  C   UNL     1     139.822  77.161 219.522 -0.01 -0.11    +0.355 C  
DOCKED: ATOM      7  C   UNL     1     141.772  77.708 220.845 -0.14 -0.19    +0.314 C  
DOCKED: ATOM      8  C   UNL     1     140.483  78.381 218.892 -0.09 -0.03    +0.080 C  
DOCKED: ATOM      9  C   UNL     1     141.864  78.480 219.528 -0.24 -0.06    +0.090 C  
DOCKED: BRANCH   7  10
DOCKED: ATOM     10  C   UNL     1     141.593  78.649 222.013 -0.36 -0.06    +0.119 A  
DOCKED: ATOM     11  N   UNL     1     140.394  78.783 222.642 -0.21 +0.06    -0.243 NA 
DOCKED: ATOM     12  C   UNL     1     142.623  79.427 222.544 -0.48 -0.05    +0.097 A  
DOCKED: ATOM     13  C   UNL     1     140.445  79.668 223.661 -0.36 -0.03    +0.176 A  
DOCKED: ATOM     14  S   UNL     1     141.989  80.312 223.821 -0.66 +0.03    -0.130 S  
DOCKED: ENDBRANCH   7  10
DOCKED: ENDBRANCH   2   5
DOCKED: ENDBRANCH   1   2
DOCKED: BRANCH   1  15
DOCKED: ATOM     15  N   UNL     1     139.939  73.579 222.252 -0.13 +0.03    -0.337 N  
DOCKED: ATOM     16  C   UNL     1     139.953  72.148 222.130 -0.19 -0.04    +0.270 C  
DOCKED: ATOM     17  H   UNL     1     139.514  74.017 223.099 -0.52 -0.03    +0.164 HD 
DOCKED: ATOM     18  O   UNL     1     140.059  71.621 220.988 -0.08 +0.04    -0.268 OA 
DOCKED: BRANCH  16  19
DOCKED: ATOM     19  C   UNL     1     139.899  71.300 223.336 -0.30 -0.02    +0.128 A  
DOCKED: ATOM     20  N   UNL     1     140.411  71.768 224.508 -0.28 +0.04    -0.243 NA 
DOCKED: ATOM     21  C   UNL     1     139.383  69.994 223.282 -0.24 -0.01    +0.035 A  
DOCKED: ATOM     22  C   UNL     1     140.441  71.014 225.639 -0.52 -0.01    +0.071 A  
DOCKED: ATOM     23  C   UNL     1     139.399  69.195 224.426 -0.33 -0.00    +0.013 A  
DOCKED: ATOM     24  C   UNL     1     140.983  71.536 226.817 -0.71 -0.01    +0.032 A  
DOCKED: ATOM     25  C   UNL     1     139.932  69.697 225.619 -0.46 -0.00    +0.003 A  
DOCKED: ATOM     26  C   UNL     1     141.020  70.754 227.976 -0.65 -0.01    +0.041 A  
DOCKED: ATOM     27  C   UNL     1     139.971  68.919 226.787 -0.54 -0.01    +0.049 A  
DOCKED: ATOM     28  C   UNL     1     140.514  69.449 227.962 -0.52 -0.02    +0.123 A  
DOCKED: ATOM     29  F   UNL     1     140.553  68.697 229.089 -0.13 +0.04    -0.207 F  
DOCKED: ENDBRANCH  16  19
DOCKED: ENDBRANCH   1  15
DOCKED: TORSDOF 6
DOCKED: TER
DOCKED: ENDMDL
________________________________________________________________________________


    FINAL DOCKED STATE:
    ________________________


Run:   11 / 20
Time taken for this run:   0.024s

DOCKED: MODEL        11
DOCKED: USER    Run = 11
DOCKED: USER
DOCKED: USER    Estimated Free Energy of Binding    =  -7.59 kcal/mol  [=(1)+(2)+(3)-(4)]
DOCKED: USER
DOCKED: USER    (1) Final Intermolecular Energy     =  -9.38 kcal/mol
DOCKED: USER        vdW + Hbond + desolv Energy     =  -8.93 kcal/mol
DOCKED: USER        Electrostatic Energy            =  -0.45 kcal/mol
DOCKED: USER        Moving Ligand-Fixed Receptor    =  -9.38 kcal/mol
DOCKED: USER        Moving Ligand-Moving Receptor   =  +0.00 kcal/mol
DOCKED: USER    (2) Final Total Internal Energy     =  -2.21 kcal/mol
DOCKED: USER    (3) Torsional Free Energy           =  +1.79 kcal/mol
DOCKED: USER    (4) Unbound System's Energy         =  -2.21 kcal/mol
DOCKED: USER
DOCKED: USER
DOCKED: REMARK SMILES O=C(NC/C(O)=[N+]1\CCC[C@H]1c1cscn1)c1ccc2cc(F)ccc2n1
DOCKED: REMARK SMILES IDX 4 1 5 2 6 3 7 5 8 6 11 7 9 8 10 9 12 10 16 11 13 12 15 13
DOCKED: REMARK SMILES IDX 14 14 3 15 2 16 1 18 17 19 27 20 18 21 26 22 19 23 25 24
DOCKED: REMARK SMILES IDX 20 25 24 26 21 27 22 28 23 29
DOCKED: REMARK H PARENT 6 4 3 17
DOCKED: USER                              x       y       z     vdW  Elec       q    Type
DOCKED: USER                           _______ _______ _______ _____ _____    ______ ____
DOCKED: ROOT
DOCKED: ATOM      1  C   UNL     1     140.708  74.566 221.356 -0.20 -0.04    +0.269 C  
DOCKED: ENDROOT
DOCKED: BRANCH   1   2
DOCKED: ATOM      2  C   UNL     1     140.288  75.995 221.587 -0.20 -0.09    +0.354 C  
DOCKED: BRANCH   2   3
DOCKED: ATOM      3  O   UNL     1     139.503  76.243 222.718 -0.24 +0.08    -0.462 OA 
DOCKED: ATOM      4  H   UNL     1     139.607  77.054 223.311 +0.16 -0.04    +0.299 HD 
DOCKED: ENDBRANCH   2   3
DOCKED: BRANCH   2   5
DOCKED: ATOM      5  N   UNL     1     140.589  76.951 220.735 -0.13 +0.07    -0.192 N  
DOCKED: ATOM      6  C   UNL     1     139.721  77.375 219.638 -0.01 -0.11    +0.355 C  
DOCKED: ATOM      7  C   UNL     1     141.822  77.738 220.782 -0.14 -0.20    +0.314 C  
DOCKED: ATOM      8  C   UNL     1     140.407  78.566 218.982 -0.09 -0.03    +0.080 C  
DOCKED: ATOM      9  C   UNL     1     141.845  78.546 219.484 -0.24 -0.06    +0.090 C  
DOCKED: BRANCH   7  10
DOCKED: ATOM     10  C   UNL     1     141.824  78.648 221.987 -0.37 -0.06    +0.119 A  
DOCKED: ATOM     11  N   UNL     1     141.440  78.203 223.215 -0.34 +0.09    -0.243 NA 
DOCKED: ATOM     12  C   UNL     1     142.226  79.984 221.947 -0.43 -0.04    +0.097 A  
DOCKED: ATOM     13  C   UNL     1     141.517  79.169 224.156 -0.40 -0.04    +0.176 A  
DOCKED: ATOM     14  S   UNL     1     142.073  80.610 223.497 -0.68 +0.03    -0.130 S  
DOCKED: ENDBRANCH   7  10
DOCKED: ENDBRANCH   2   5
DOCKED: ENDBRANCH   1   2
DOCKED: BRANCH   1  15
DOCKED: ATOM     15  N   UNL     1     139.966  73.681 222.253 -0.11 +0.03    -0.337 N  
DOCKED: ATOM     16  C   UNL     1     140.050  72.252 222.141 -0.20 -0.04    +0.270 C  
DOCKED: ATOM     17  H   UNL     1     139.459  74.104 223.061 -0.52 -0.03    +0.164 HD 
DOCKED: ATOM     18  O   UNL     1     140.264  71.725 221.015 -0.09 +0.04    -0.268 OA 
DOCKED: BRANCH  16  19
DOCKED: ATOM     19  C   UNL     1     139.938  71.406 223.346 -0.31 -0.02    +0.128 A  
DOCKED: ATOM     20  N   UNL     1     140.473  71.839 224.520 -0.27 +0.04    -0.243 NA 
DOCKED: ATOM     21  C   UNL     1     139.343  70.134 223.286 -0.25 -0.01    +0.035 A  
DOCKED: ATOM     22  C   UNL     1     140.452  71.082 225.649 -0.52 -0.01    +0.071 A  
DOCKED: ATOM     23  C   UNL     1     139.305  69.333 224.429 -0.34 -0.00    +0.013 A  
DOCKED: ATOM     24  C   UNL     1     141.020  71.568 226.832 -0.72 -0.01    +0.032 A  
DOCKED: ATOM     25  C   UNL     1     139.863  69.799 225.625 -0.46 -0.00    +0.003 A  
DOCKED: ATOM     26  C   UNL     1     141.003  70.783 227.989 -0.65 -0.01    +0.041 A  
DOCKED: ATOM     27  C   UNL     1     139.849  69.018 226.791 -0.53 -0.01    +0.049 A  
DOCKED: ATOM     28  C   UNL     1     140.419  69.511 227.969 -0.52 -0.02    +0.123 A  
DOCKED: ATOM     29  F   UNL     1     140.407  68.756 229.095 -0.13 +0.04    -0.207 F  
DOCKED: ENDBRANCH  16  19
DOCKED: ENDBRANCH   1  15
DOCKED: TORSDOF 6
DOCKED: TER
DOCKED: ENDMDL
________________________________________________________________________________


    FINAL DOCKED STATE:
    ________________________


Run:   12 / 20
Time taken for this run:   0.024s

DOCKED: MODEL        12
DOCKED: USER    Run = 12
DOCKED: USER
DOCKED: USER    Estimated Free Energy of Binding    =  -7.51 kcal/mol  [=(1)+(2)+(3)-(4)]
DOCKED: USER
DOCKED: USER    (1) Final Intermolecular Energy     =  -9.30 kcal/mol
DOCKED: USER        vdW + Hbond + desolv Energy     =  -8.82 kcal/mol
DOCKED: USER        Electrostatic Energy            =  -0.47 kcal/mol
DOCKED: USER        Moving Ligand-Fixed Receptor    =  -9.30 kcal/mol
DOCKED: USER        Moving Ligand-Moving Receptor   =  +0.00 kcal/mol
DOCKED: USER    (2) Final Total Internal Energy     =  -2.19 kcal/mol
DOCKED: USER    (3) Torsional Free Energy           =  +1.79 kcal/mol
DOCKED: USER    (4) Unbound System's Energy         =  -2.19 kcal/mol
DOCKED: USER
DOCKED: USER
DOCKED: REMARK SMILES O=C(NC/C(O)=[N+]1\CCC[C@H]1c1cscn1)c1ccc2cc(F)ccc2n1
DOCKED: REMARK SMILES IDX 4 1 5 2 6 3 7 5 8 6 11 7 9 8 10 9 12 10 16 11 13 12 15 13
DOCKED: REMARK SMILES IDX 14 14 3 15 2 16 1 18 17 19 27 20 18 21 26 22 19 23 25 24
DOCKED: REMARK SMILES IDX 20 25 24 26 21 27 22 28 23 29
DOCKED: REMARK H PARENT 6 4 3 17
DOCKED: USER                              x       y       z     vdW  Elec       q    Type
DOCKED: USER                           _______ _______ _______ _____ _____    ______ ____
DOCKED: ROOT
DOCKED: ATOM      1  C   UNL     1     140.690  74.651 221.333 -0.21 -0.05    +0.269 C  
DOCKED: ENDROOT
DOCKED: BRANCH   1   2
DOCKED: ATOM      2  C   UNL     1     140.116  76.041 221.448 -0.18 -0.09    +0.354 C  
DOCKED: BRANCH   2   3
DOCKED: ATOM      3  O   UNL     1     139.129  76.234 222.421 -0.19 +0.09    -0.462 OA 
DOCKED: ATOM      4  H   UNL     1     139.111  77.015 223.060 +0.12 -0.05    +0.299 HD 
DOCKED: ENDBRANCH   2   3
DOCKED: BRANCH   2   5
DOCKED: ATOM      5  N   UNL     1     140.477  77.009 220.633 -0.12 +0.07    -0.192 N  
DOCKED: ATOM      6  C   UNL     1     139.701  77.434 219.471 -0.01 -0.11    +0.355 C  
DOCKED: ATOM      7  C   UNL     1     141.692  77.808 220.792 -0.16 -0.19    +0.314 C  
DOCKED: ATOM      8  C   UNL     1     140.427  78.638 218.886 -0.09 -0.03    +0.080 C  
DOCKED: ATOM      9  C   UNL     1     141.817  78.629 219.508 -0.25 -0.05    +0.090 C  
DOCKED: BRANCH   7  10
DOCKED: ATOM     10  C   UNL     1     141.581  78.707 222.002 -0.36 -0.06    +0.119 A  
DOCKED: ATOM     11  N   UNL     1     140.513  78.639 222.842 -0.24 +0.06    -0.243 NA 
DOCKED: ATOM     12  C   UNL     1     142.550  79.646 222.359 -0.48 -0.05    +0.097 A  
DOCKED: ATOM     13  C   UNL     1     140.606  79.521 223.860 -0.37 -0.03    +0.176 A  
DOCKED: ATOM     14  S   UNL     1     142.026  80.413 223.757 -0.66 +0.03    -0.130 S  
DOCKED: ENDBRANCH   7  10
DOCKED: ENDBRANCH   2   5
DOCKED: ENDBRANCH   1   2
DOCKED: BRANCH   1  15
DOCKED: ATOM     15  N   UNL     1     139.910  73.725 222.152 -0.13 +0.03    -0.337 N  
DOCKED: ATOM     16  C   UNL     1     140.143  72.309 222.118 -0.20 -0.04    +0.270 C  
DOCKED: ATOM     17  H   UNL     1     139.251  74.120 222.859 -0.52 -0.05    +0.164 HD 
DOCKED: ATOM     18  O   UNL     1     140.571  71.772 221.060 -0.11 +0.04    -0.268 OA 
DOCKED: BRANCH  16  19
DOCKED: ATOM     19  C   UNL     1     139.935  71.493 223.331 -0.31 -0.02    +0.128 A  
DOCKED: ATOM     20  N   UNL     1     140.521  71.870 224.500 -0.27 +0.03    -0.243 NA 
DOCKED: ATOM     21  C   UNL     1     139.192  70.301 223.284 -0.26 -0.01    +0.035 A  
DOCKED: ATOM     22  C   UNL     1     140.413  71.132 225.637 -0.52 -0.01    +0.071 A  
DOCKED: ATOM     23  C   UNL     1     139.062  69.521 224.435 -0.34 -0.00    +0.013 A  
DOCKED: ATOM     24  C   UNL     1     141.038  71.557 226.813 -0.72 -0.01    +0.032 A  
DOCKED: ATOM     25  C   UNL     1     139.675  69.928 225.625 -0.45 -0.00    +0.003 A  
DOCKED: ATOM     26  C   UNL     1     140.931  70.790 227.978 -0.66 -0.01    +0.041 A  
DOCKED: ATOM     27  C   UNL     1     139.571  69.164 226.798 -0.51 -0.01    +0.049 A  
DOCKED: ATOM     28  C   UNL     1     140.199  69.597 227.971 -0.52 -0.02    +0.123 A  
DOCKED: ATOM     29  F   UNL     1     140.100  68.859 229.104 -0.13 +0.04    -0.207 F  
DOCKED: ENDBRANCH  16  19
DOCKED: ENDBRANCH   1  15
DOCKED: TORSDOF 6
DOCKED: TER
DOCKED: ENDMDL
________________________________________________________________________________


    FINAL DOCKED STATE:
    ________________________


Run:   13 / 20
Time taken for this run:   0.024s

DOCKED: MODEL        13
DOCKED: USER    Run = 13
DOCKED: USER
DOCKED: USER    Estimated Free Energy of Binding    =  -7.59 kcal/mol  [=(1)+(2)+(3)-(4)]
DOCKED: USER
DOCKED: USER    (1) Final Intermolecular Energy     =  -9.38 kcal/mol
DOCKED: USER        vdW + Hbond + desolv Energy     =  -8.90 kcal/mol
DOCKED: USER        Electrostatic Energy            =  -0.48 kcal/mol
DOCKED: USER        Moving Ligand-Fixed Receptor    =  -9.38 kcal/mol
DOCKED: USER        Moving Ligand-Moving Receptor   =  +0.00 kcal/mol
DOCKED: USER    (2) Final Total Internal Energy     =  -2.14 kcal/mol
DOCKED: USER    (3) Torsional Free Energy           =  +1.79 kcal/mol
DOCKED: USER    (4) Unbound System's Energy         =  -2.14 kcal/mol
DOCKED: USER
DOCKED: USER
DOCKED: REMARK SMILES O=C(NC/C(O)=[N+]1\CCC[C@H]1c1cscn1)c1ccc2cc(F)ccc2n1
DOCKED: REMARK SMILES IDX 4 1 5 2 6 3 7 5 8 6 11 7 9 8 10 9 12 10 16 11 13 12 15 13
DOCKED: REMARK SMILES IDX 14 14 3 15 2 16 1 18 17 19 27 20 18 21 26 22 19 23 25 24
DOCKED: REMARK SMILES IDX 20 25 24 26 21 27 22 28 23 29
DOCKED: REMARK H PARENT 6 4 3 17
DOCKED: USER                              x       y       z     vdW  Elec       q    Type
DOCKED: USER                           _______ _______ _______ _____ _____    ______ ____
DOCKED: ROOT
DOCKED: ATOM      1  C   UNL     1     140.736  74.686 221.354 -0.21 -0.05    +0.269 C  
DOCKED: ENDROOT
DOCKED: BRANCH   1   2
DOCKED: ATOM      2  C   UNL     1     140.222  76.082 221.597 -0.19 -0.09    +0.354 C  
DOCKED: BRANCH   2   3
DOCKED: ATOM      3  O   UNL     1     139.355  76.252 222.682 -0.22 +0.08    -0.462 OA 
DOCKED: ATOM      4  H   UNL     1     139.229  77.126 223.173 +0.13 -0.04    +0.299 HD 
DOCKED: ENDBRANCH   2   3
DOCKED: BRANCH   2   5
DOCKED: ATOM      5  N   UNL     1     140.520  77.080 220.792 -0.13 +0.07    -0.192 N  
DOCKED: ATOM      6  C   UNL     1     139.653  77.551 219.715 -0.01 -0.11    +0.355 C  
DOCKED: ATOM      7  C   UNL     1     141.749  77.869 220.881 -0.15 -0.19    +0.314 C  
DOCKED: ATOM      8  C   UNL     1     140.335  78.775 219.118 -0.10 -0.03    +0.080 C  
DOCKED: ATOM      9  C   UNL     1     141.772  78.738 219.623 -0.24 -0.05    +0.090 C  
DOCKED: BRANCH   7  10
DOCKED: ATOM     10  C   UNL     1     141.743  78.720 222.128 -0.38 -0.06    +0.119 A  
DOCKED: ATOM     11  N   UNL     1     140.920  78.443 223.175 -0.30 +0.07    -0.243 NA 
DOCKED: ATOM     12  C   UNL     1     142.575  79.825 222.314 -0.48 -0.04    +0.097 A  
DOCKED: ATOM     13  C   UNL     1     141.070  79.319 224.192 -0.30 -0.03    +0.176 A  
DOCKED: ATOM     14  S   UNL     1     142.241  80.467 223.828 -0.69 +0.03    -0.130 S  
DOCKED: ENDBRANCH   7  10
DOCKED: ENDBRANCH   2   5
DOCKED: ENDBRANCH   1   2
DOCKED: BRANCH   1  15
DOCKED: ATOM     15  N   UNL     1     139.955  73.729 222.135 -0.13 +0.03    -0.337 N  
DOCKED: ATOM     16  C   UNL     1     140.252  72.324 222.122 -0.20 -0.03    +0.270 C  
DOCKED: ATOM     17  H   UNL     1     139.242  74.096 222.804 -0.51 -0.05    +0.164 HD 
DOCKED: ATOM     18  O   UNL     1     140.759  71.803 221.091 -0.12 +0.04    -0.268 OA 
DOCKED: BRANCH  16  19
DOCKED: ATOM     19  C   UNL     1     140.015  71.504 223.326 -0.31 -0.02    +0.128 A  
DOCKED: ATOM     20  N   UNL     1     140.566  71.882 224.513 -0.26 +0.03    -0.243 NA 
DOCKED: ATOM     21  C   UNL     1     139.282  70.307 223.256 -0.26 -0.01    +0.035 A  
DOCKED: ATOM     22  C   UNL     1     140.431  71.140 225.644 -0.52 -0.01    +0.071 A  
DOCKED: ATOM     23  C   UNL     1     139.124  69.524 224.401 -0.34 -0.00    +0.013 A  
DOCKED: ATOM     24  C   UNL     1     141.021  71.566 226.838 -0.72 -0.01    +0.032 A  
DOCKED: ATOM     25  C   UNL     1     139.702  69.932 225.609 -0.45 -0.00    +0.003 A  
DOCKED: ATOM     26  C   UNL     1     140.887  70.795 227.998 -0.65 -0.01    +0.041 A  
DOCKED: ATOM     27  C   UNL     1     139.570  69.164 226.777 -0.50 -0.01    +0.049 A  
DOCKED: ATOM     28  C   UNL     1     140.162  69.598 227.968 -0.52 -0.02    +0.123 A  
DOCKED: ATOM     29  F   UNL     1     140.037  68.856 229.096 -0.14 +0.03    -0.207 F  
DOCKED: ENDBRANCH  16  19
DOCKED: ENDBRANCH   1  15
DOCKED: TORSDOF 6
DOCKED: TER
DOCKED: ENDMDL
________________________________________________________________________________


    FINAL DOCKED STATE:
    ________________________


Run:   14 / 20
Time taken for this run:   0.024s

DOCKED: MODEL        14
DOCKED: USER    Run = 14
DOCKED: USER
DOCKED: USER    Estimated Free Energy of Binding    =  -6.26 kcal/mol  [=(1)+(2)+(3)-(4)]
DOCKED: USER
DOCKED: USER    (1) Final Intermolecular Energy     =  -8.05 kcal/mol
DOCKED: USER        vdW + Hbond + desolv Energy     =  -7.75 kcal/mol
DOCKED: USER        Electrostatic Energy            =  -0.31 kcal/mol
DOCKED: USER        Moving Ligand-Fixed Receptor    =  -8.05 kcal/mol
DOCKED: USER        Moving Ligand-Moving Receptor   =  +0.00 kcal/mol
DOCKED: USER    (2) Final Total Internal Energy     =  -2.89 kcal/mol
DOCKED: USER    (3) Torsional Free Energy           =  +1.79 kcal/mol
DOCKED: USER    (4) Unbound System's Energy         =  -2.89 kcal/mol
DOCKED: USER
DOCKED: USER
DOCKED: REMARK SMILES O=C(NC/C(O)=[N+]1\CCC[C@H]1c1cscn1)c1ccc2cc(F)ccc2n1
DOCKED: REMARK SMILES IDX 4 1 5 2 6 3 7 5 8 6 11 7 9 8 10 9 12 10 16 11 13 12 15 13
DOCKED: REMARK SMILES IDX 14 14 3 15 2 16 1 18 17 19 27 20 18 21 26 22 19 23 25 24
DOCKED: REMARK SMILES IDX 20 25 24 26 21 27 22 28 23 29
DOCKED: REMARK H PARENT 6 4 3 17
DOCKED: USER                              x       y       z     vdW  Elec       q    Type
DOCKED: USER                           _______ _______ _______ _____ _____    ______ ____
DOCKED: ROOT
DOCKED: ATOM      1  C   UNL     1     139.581  73.989 220.336 -0.06 -0.06    +0.269 C  
DOCKED: ENDROOT
DOCKED: BRANCH   1   2
DOCKED: ATOM      2  C   UNL     1     140.660  73.471 221.253 -0.15 -0.05    +0.354 C  
DOCKED: BRANCH   2   3
DOCKED: ATOM      3  O   UNL     1     140.326  73.342 222.605 -0.64 -0.01    -0.462 OA 
DOCKED: ATOM      4  H   UNL     1     139.512  73.765 223.028 -0.42 -0.06    +0.299 HD 
DOCKED: ENDBRANCH   2   3
DOCKED: BRANCH   2   5
DOCKED: ATOM      5  N   UNL     1     141.875  73.214 220.817 -0.17 +0.03    -0.192 N  
DOCKED: ATOM      6  C   UNL     1     142.284  71.937 220.236 -0.08 -0.05    +0.355 C  
DOCKED: ATOM      7  C   UNL     1     142.975  74.178 220.832 -0.07 -0.09    +0.314 C  
DOCKED: ATOM      8  C   UNL     1     143.725  72.116 219.776 -0.22 -0.01    +0.080 C  
DOCKED: ATOM      9  C   UNL     1     144.227  73.380 220.462 -0.39 -0.02    +0.090 C  
DOCKED: BRANCH   7  10
DOCKED: ATOM     10  C   UNL     1     142.724  75.285 219.836 -0.27 -0.05    +0.119 A  
DOCKED: ATOM     11  N   UNL     1     141.656  75.255 218.994 -0.05 +0.08    -0.243 NA 
DOCKED: ATOM     12  C   UNL     1     143.538  76.412 219.712 -0.34 -0.07    +0.097 A  
DOCKED: ATOM     13  C   UNL     1     141.609  76.337 218.187 -0.08 -0.07    +0.176 A  
DOCKED: ATOM     14  S   UNL     1     142.893  77.375 218.497 -0.35 +0.09    -0.130 S  
DOCKED: ENDBRANCH   7  10
DOCKED: ENDBRANCH   2   5
DOCKED: ENDBRANCH   1   2
DOCKED: BRANCH   1  15
DOCKED: ATOM     15  N   UNL     1     139.406  75.426 220.541 -0.04 +0.08    -0.337 N  
DOCKED: ATOM     16  C   UNL     1     138.868  75.953 221.763 -0.18 -0.06    +0.270 C  
DOCKED: ATOM     17  H   UNL     1     139.789  76.081 219.824 +0.04 -0.04    +0.164 HD 
DOCKED: ATOM     18  O   UNL     1     138.045  75.269 222.429 -0.19 +0.08    -0.268 OA 
DOCKED: BRANCH  16  19
DOCKED: ATOM     19  C   UNL     1     139.318  77.267 222.265 -0.27 -0.03    +0.128 A  
DOCKED: ATOM     20  N   UNL     1     140.642  77.580 222.232 -0.24 +0.08    -0.243 NA 
DOCKED: ATOM     21  C   UNL     1     138.409  78.176 222.833 -0.26 -0.01    +0.035 A  
DOCKED: ATOM     22  C   UNL     1     141.124  78.749 222.730 -0.44 -0.02    +0.071 A  
DOCKED: ATOM     23  C   UNL     1     138.872  79.386 223.352 -0.35 -0.00    +0.013 A  
DOCKED: ATOM     24  C   UNL     1     142.495  79.023 222.678 -0.46 -0.02    +0.032 A  
DOCKED: ATOM     25  C   UNL     1     140.239  79.684 223.308 -0.45 -0.00    +0.003 A  
DOCKED: ATOM     26  C   UNL     1     142.988  80.223 223.199 -0.63 -0.01    +0.041 A  
DOCKED: ATOM     27  C   UNL     1     140.741  80.888 223.828 -0.39 -0.01    +0.049 A  
DOCKED: ATOM     28  C   UNL     1     142.113  81.154 223.772 -0.53 -0.02    +0.123 A  
DOCKED: ATOM     29  F   UNL     1     142.598  82.316 224.275 -0.09 +0.00    -0.207 F  
DOCKED: ENDBRANCH  16  19
DOCKED: ENDBRANCH   1  15
DOCKED: TORSDOF 6
DOCKED: TER
DOCKED: ENDMDL
________________________________________________________________________________


    FINAL DOCKED STATE:
    ________________________


Run:   15 / 20
Time taken for this run:   0.024s

DOCKED: MODEL        15
DOCKED: USER    Run = 15
DOCKED: USER
DOCKED: USER    Estimated Free Energy of Binding    =  -7.45 kcal/mol  [=(1)+(2)+(3)-(4)]
DOCKED: USER
DOCKED: USER    (1) Final Intermolecular Energy     =  -9.24 kcal/mol
DOCKED: USER        vdW + Hbond + desolv Energy     =  -8.75 kcal/mol
DOCKED: USER        Electrostatic Energy            =  -0.49 kcal/mol
DOCKED: USER        Moving Ligand-Fixed Receptor    =  -9.24 kcal/mol
DOCKED: USER        Moving Ligand-Moving Receptor   =  +0.00 kcal/mol
DOCKED: USER    (2) Final Total Internal Energy     =  -1.70 kcal/mol
DOCKED: USER    (3) Torsional Free Energy           =  +1.79 kcal/mol
DOCKED: USER    (4) Unbound System's Energy         =  -1.70 kcal/mol
DOCKED: USER
DOCKED: USER
DOCKED: REMARK SMILES O=C(NC/C(O)=[N+]1\CCC[C@H]1c1cscn1)c1ccc2cc(F)ccc2n1
DOCKED: REMARK SMILES IDX 4 1 5 2 6 3 7 5 8 6 11 7 9 8 10 9 12 10 16 11 13 12 15 13
DOCKED: REMARK SMILES IDX 14 14 3 15 2 16 1 18 17 19 27 20 18 21 26 22 19 23 25 24
DOCKED: REMARK SMILES IDX 20 25 24 26 21 27 22 28 23 29
DOCKED: REMARK H PARENT 6 4 3 17
DOCKED: USER                              x       y       z     vdW  Elec       q    Type
DOCKED: USER                           _______ _______ _______ _____ _____    ______ ____
DOCKED: ROOT
DOCKED: ATOM      1  C   UNL     1     139.428  73.789 220.851 -0.10 -0.05    +0.269 C  
DOCKED: ENDROOT
DOCKED: BRANCH   1   2
DOCKED: ATOM      2  C   UNL     1     140.088  75.014 221.430 -0.17 -0.07    +0.354 C  
DOCKED: BRANCH   2   3
DOCKED: ATOM      3  O   UNL     1     139.716  75.373 222.730 -0.36 +0.04    -0.462 OA 
DOCKED: ATOM      4  H   UNL     1     139.002  74.898 223.264 -0.45 -0.13    +0.299 HD 
DOCKED: ENDBRANCH   2   3
DOCKED: BRANCH   2   5
DOCKED: ATOM      5  N   UNL     1     140.924  75.749 220.727 -0.17 +0.06    -0.192 N  
DOCKED: ATOM      6  C   UNL     1     141.194  77.161 220.989 -0.14 -0.17    +0.355 C  
DOCKED: ATOM      7  C   UNL     1     141.714  75.247 219.603 -0.10 -0.11    +0.314 C  
DOCKED: ATOM      8  C   UNL     1     142.290  77.576 220.016 -0.20 -0.06    +0.080 C  
DOCKED: ATOM      9  C   UNL     1     142.342  76.483 218.957 -0.25 -0.05    +0.090 C  
DOCKED: BRANCH   7  10
DOCKED: ATOM     10  C   UNL     1     142.777  74.289 220.088 -0.24 -0.04    +0.119 A  
DOCKED: ATOM     11  N   UNL     1     144.030  74.717 220.401 -0.27 +0.11    -0.243 NA 
DOCKED: ATOM     12  C   UNL     1     142.563  72.922 220.267 -0.20 -0.02    +0.097 A  
DOCKED: ATOM     13  C   UNL     1     144.827  73.709 220.816 -0.42 -0.04    +0.176 A  
DOCKED: ATOM     14  S   UNL     1     143.998  72.248 220.817 -0.35 +0.02    -0.130 S  
DOCKED: ENDBRANCH   7  10
DOCKED: ENDBRANCH   2   5
DOCKED: ENDBRANCH   1   2
DOCKED: BRANCH   1  15
DOCKED: ATOM     15  N   UNL     1     138.961  72.922 221.931 -0.11 +0.08    -0.337 N  
DOCKED: ATOM     16  C   UNL     1     139.233  71.512 221.937 -0.13 -0.05    +0.270 C  
DOCKED: ATOM     17  H   UNL     1     138.521  73.363 222.768 -0.51 -0.08    +0.164 HD 
DOCKED: ATOM     18  O   UNL     1     139.355  70.895 220.843 -0.05 +0.05    -0.268 OA 
DOCKED: BRANCH  16  19
DOCKED: ATOM     19  C   UNL     1     139.423  70.798 223.215 -0.24 -0.02    +0.128 A  
DOCKED: ATOM     20  N   UNL     1     139.985  71.451 224.270 -0.28 +0.05    -0.243 NA 
DOCKED: ATOM     21  C   UNL     1     139.089  69.440 223.343 -0.24 -0.01    +0.035 A  
DOCKED: ATOM     22  C   UNL     1     140.237  70.833 225.454 -0.49 -0.01    +0.071 A  
DOCKED: ATOM     23  C   UNL     1     139.334  68.777 224.548 -0.33 -0.00    +0.013 A  
DOCKED: ATOM     24  C   UNL     1     140.822  71.544 226.507 -0.67 -0.01    +0.032 A  
DOCKED: ATOM     25  C   UNL     1     139.915  69.468 225.617 -0.46 -0.00    +0.003 A  
DOCKED: ATOM     26  C   UNL     1     141.086  70.902 227.721 -0.65 -0.01    +0.041 A  
DOCKED: ATOM     27  C   UNL     1     140.182  68.832 226.839 -0.56 -0.01    +0.049 A  
DOCKED: ATOM     28  C   UNL     1     140.767  69.550 227.888 -0.51 -0.02    +0.123 A  
DOCKED: ATOM     29  F   UNL     1     141.026  68.934 229.068 -0.09 +0.04    -0.207 F  
DOCKED: ENDBRANCH  16  19
DOCKED: ENDBRANCH   1  15
DOCKED: TORSDOF 6
DOCKED: TER
DOCKED: ENDMDL
________________________________________________________________________________


    FINAL DOCKED STATE:
    ________________________


Run:   16 / 20
Time taken for this run:   0.024s

DOCKED: MODEL        16
DOCKED: USER    Run = 16
DOCKED: USER
DOCKED: USER    Estimated Free Energy of Binding    =  -7.59 kcal/mol  [=(1)+(2)+(3)-(4)]
DOCKED: USER
DOCKED: USER    (1) Final Intermolecular Energy     =  -9.38 kcal/mol
DOCKED: USER        vdW + Hbond + desolv Energy     =  -8.92 kcal/mol
DOCKED: USER        Electrostatic Energy            =  -0.46 kcal/mol
DOCKED: USER        Moving Ligand-Fixed Receptor    =  -9.38 kcal/mol
DOCKED: USER        Moving Ligand-Moving Receptor   =  +0.00 kcal/mol
DOCKED: USER    (2) Final Total Internal Energy     =  -2.19 kcal/mol
DOCKED: USER    (3) Torsional Free Energy           =  +1.79 kcal/mol
DOCKED: USER    (4) Unbound System's Energy         =  -2.19 kcal/mol
DOCKED: USER
DOCKED: USER
DOCKED: REMARK SMILES O=C(NC/C(O)=[N+]1\CCC[C@H]1c1cscn1)c1ccc2cc(F)ccc2n1
DOCKED: REMARK SMILES IDX 4 1 5 2 6 3 7 5 8 6 11 7 9 8 10 9 12 10 16 11 13 12 15 13
DOCKED: REMARK SMILES IDX 14 14 3 15 2 16 1 18 17 19 27 20 18 21 26 22 19 23 25 24
DOCKED: REMARK SMILES IDX 20 25 24 26 21 27 22 28 23 29
DOCKED: REMARK H PARENT 6 4 3 17
DOCKED: USER                              x       y       z     vdW  Elec       q    Type
DOCKED: USER                           _______ _______ _______ _____ _____    ______ ____
DOCKED: ROOT
DOCKED: ATOM      1  C   UNL     1     140.711  74.635 221.324 -0.21 -0.05    +0.269 C  
DOCKED: ENDROOT
DOCKED: BRANCH   1   2
DOCKED: ATOM      2  C   UNL     1     140.280  76.056 221.580 -0.19 -0.09    +0.354 C  
DOCKED: BRANCH   2   3
DOCKED: ATOM      3  O   UNL     1     139.490  76.278 222.713 -0.23 +0.08    -0.462 OA 
DOCKED: ATOM      4  H   UNL     1     139.630  77.042 223.359 +0.17 -0.03    +0.299 HD 
DOCKED: ENDBRANCH   2   3
DOCKED: BRANCH   2   5
DOCKED: ATOM      5  N   UNL     1     140.576  77.031 220.747 -0.13 +0.07    -0.192 N  
DOCKED: ATOM      6  C   UNL     1     139.700  77.481 219.667 -0.01 -0.11    +0.355 C  
DOCKED: ATOM      7  C   UNL     1     141.811  77.813 220.801 -0.15 -0.20    +0.314 C  
DOCKED: ATOM      8  C   UNL     1     140.383  78.684 219.032 -0.10 -0.03    +0.080 C  
DOCKED: ATOM      9  C   UNL     1     141.826  78.650 219.521 -0.25 -0.05    +0.090 C  
DOCKED: BRANCH   7  10
DOCKED: ATOM     10  C   UNL     1     141.826  78.696 222.026 -0.37 -0.06    +0.119 A  
DOCKED: ATOM     11  N   UNL     1     141.429  78.232 223.242 -0.34 +0.09    -0.243 NA 
DOCKED: ATOM     12  C   UNL     1     142.253  80.025 222.017 -0.44 -0.04    +0.097 A  
DOCKED: ATOM     13  C   UNL     1     141.521  79.175 224.205 -0.39 -0.04    +0.176 A  
DOCKED: ATOM     14  S   UNL     1     142.106  80.619 223.579 -0.68 +0.03    -0.130 S  
DOCKED: ENDBRANCH   7  10
DOCKED: ENDBRANCH   2   5
DOCKED: ENDBRANCH   1   2
DOCKED: BRANCH   1  15
DOCKED: ATOM     15  N   UNL     1     139.947  73.725 222.175 -0.12 +0.03    -0.337 N  
DOCKED: ATOM     16  C   UNL     1     140.130  72.302 222.115 -0.20 -0.04    +0.270 C  
DOCKED: ATOM     17  H   UNL     1     139.342  74.133 222.922 -0.50 -0.04    +0.164 HD 
DOCKED: ATOM     18  O   UNL     1     140.481  71.764 221.028 -0.10 +0.04    -0.268 OA 
DOCKED: BRANCH  16  19
DOCKED: ATOM     19  C   UNL     1     139.962  71.479 223.329 -0.31 -0.02    +0.128 A  
DOCKED: ATOM     20  N   UNL     1     140.520  71.892 224.500 -0.26 +0.03    -0.243 NA 
DOCKED: ATOM     21  C   UNL     1     139.288  70.247 223.282 -0.25 -0.01    +0.035 A  
DOCKED: ATOM     22  C   UNL     1     140.448  71.152 225.638 -0.52 -0.01    +0.071 A  
DOCKED: ATOM     23  C   UNL     1     139.196  69.465 224.435 -0.34 -0.00    +0.013 A  
DOCKED: ATOM     24  C   UNL     1     141.043  71.616 226.816 -0.72 -0.01    +0.032 A  
DOCKED: ATOM     25  C   UNL     1     139.779  69.909 225.627 -0.46 -0.00    +0.003 A  
DOCKED: ATOM     26  C   UNL     1     140.973  70.847 227.983 -0.66 -0.01    +0.041 A  
DOCKED: ATOM     27  C   UNL     1     139.713  69.144 226.802 -0.51 -0.01    +0.049 A  
DOCKED: ATOM     28  C   UNL     1     140.309  69.615 227.977 -0.52 -0.02    +0.123 A  
DOCKED: ATOM     29  F   UNL     1     140.246  68.876 229.111 -0.11 +0.04    -0.207 F  
DOCKED: ENDBRANCH  16  19
DOCKED: ENDBRANCH   1  15
DOCKED: TORSDOF 6
DOCKED: TER
DOCKED: ENDMDL
________________________________________________________________________________


    FINAL DOCKED STATE:
    ________________________


Run:   17 / 20
Time taken for this run:   0.024s

DOCKED: MODEL        17
DOCKED: USER    Run = 17
DOCKED: USER
DOCKED: USER    Estimated Free Energy of Binding    =  -7.58 kcal/mol  [=(1)+(2)+(3)-(4)]
DOCKED: USER
DOCKED: USER    (1) Final Intermolecular Energy     =  -9.37 kcal/mol
DOCKED: USER        vdW + Hbond + desolv Energy     =  -8.92 kcal/mol
DOCKED: USER        Electrostatic Energy            =  -0.45 kcal/mol
DOCKED: USER        Moving Ligand-Fixed Receptor    =  -9.37 kcal/mol
DOCKED: USER        Moving Ligand-Moving Receptor   =  +0.00 kcal/mol
DOCKED: USER    (2) Final Total Internal Energy     =  -2.22 kcal/mol
DOCKED: USER    (3) Torsional Free Energy           =  +1.79 kcal/mol
DOCKED: USER    (4) Unbound System's Energy         =  -2.22 kcal/mol
DOCKED: USER
DOCKED: USER
DOCKED: REMARK SMILES O=C(NC/C(O)=[N+]1\CCC[C@H]1c1cscn1)c1ccc2cc(F)ccc2n1
DOCKED: REMARK SMILES IDX 4 1 5 2 6 3 7 5 8 6 11 7 9 8 10 9 12 10 16 11 13 12 15 13
DOCKED: REMARK SMILES IDX 14 14 3 15 2 16 1 18 17 19 27 20 18 21 26 22 19 23 25 24
DOCKED: REMARK SMILES IDX 20 25 24 26 21 27 22 28 23 29
DOCKED: REMARK H PARENT 6 4 3 17
DOCKED: USER                              x       y       z     vdW  Elec       q    Type
DOCKED: USER                           _______ _______ _______ _____ _____    ______ ____
DOCKED: ROOT
DOCKED: ATOM      1  C   UNL     1     140.629  74.555 221.310 -0.20 -0.05    +0.269 C  
DOCKED: ENDROOT
DOCKED: BRANCH   1   2
DOCKED: ATOM      2  C   UNL     1     140.278  75.997 221.571 -0.19 -0.09    +0.354 C  
DOCKED: BRANCH   2   3
DOCKED: ATOM      3  O   UNL     1     139.545  76.264 222.732 -0.23 +0.08    -0.462 OA 
DOCKED: ATOM      4  H   UNL     1     139.566  77.147 223.223 +0.15 -0.04    +0.299 HD 
DOCKED: ENDBRANCH   2   3
DOCKED: BRANCH   2   5
DOCKED: ATOM      5  N   UNL     1     140.587  76.951 220.718 -0.13 +0.07    -0.192 N  
DOCKED: ATOM      6  C   UNL     1     139.728  77.374 219.615 -0.01 -0.11    +0.355 C  
DOCKED: ATOM      7  C   UNL     1     141.821  77.734 220.773 -0.14 -0.20    +0.314 C  
DOCKED: ATOM      8  C   UNL     1     140.422  78.561 218.960 -0.09 -0.03    +0.080 C  
DOCKED: ATOM      9  C   UNL     1     141.856  78.539 219.472 -0.24 -0.06    +0.090 C  
DOCKED: BRANCH   7  10
DOCKED: ATOM     10  C   UNL     1     141.817  78.648 221.976 -0.37 -0.06    +0.119 A  
DOCKED: ATOM     11  N   UNL     1     141.449  78.200 223.207 -0.34 +0.09    -0.243 NA 
DOCKED: ATOM     12  C   UNL     1     142.197  79.990 221.929 -0.43 -0.04    +0.097 A  
DOCKED: ATOM     13  C   UNL     1     141.517  79.169 224.145 -0.40 -0.04    +0.176 A  
DOCKED: ATOM     14  S   UNL     1     142.044  80.618 223.478 -0.68 +0.03    -0.130 S  
DOCKED: ENDBRANCH   7  10
DOCKED: ENDBRANCH   2   5
DOCKED: ENDBRANCH   1   2
DOCKED: BRANCH   1  15
DOCKED: ATOM     15  N   UNL     1     139.917  73.694 222.252 -0.11 +0.03    -0.337 N  
DOCKED: ATOM     16  C   UNL     1     139.946  72.263 222.136 -0.20 -0.04    +0.270 C  
DOCKED: ATOM     17  H   UNL     1     139.477  74.132 223.091 -0.53 -0.03    +0.164 HD 
DOCKED: ATOM     18  O   UNL     1     140.070  71.731 220.999 -0.08 +0.04    -0.268 OA 
DOCKED: BRANCH  16  19
DOCKED: ATOM     19  C   UNL     1     139.884  71.419 223.346 -0.31 -0.02    +0.128 A  
DOCKED: ATOM     20  N   UNL     1     140.404  71.884 224.515 -0.27 +0.04    -0.243 NA 
DOCKED: ATOM     21  C   UNL     1     139.352  70.119 223.297 -0.25 -0.01    +0.035 A  
DOCKED: ATOM     22  C   UNL     1     140.428  71.134 225.648 -0.52 -0.01    +0.071 A  
DOCKED: ATOM     23  C   UNL     1     139.360  69.324 224.444 -0.34 -0.00    +0.013 A  
DOCKED: ATOM     24  C   UNL     1     140.979  71.653 226.824 -0.72 -0.01    +0.032 A  
DOCKED: ATOM     25  C   UNL     1     139.902  69.823 225.634 -0.46 -0.00    +0.003 A  
DOCKED: ATOM     26  C   UNL     1     141.009  70.875 227.985 -0.66 -0.01    +0.041 A  
DOCKED: ATOM     27  C   UNL     1     139.934  69.048 226.804 -0.53 -0.01    +0.049 A  
DOCKED: ATOM     28  C   UNL     1     140.487  69.576 227.976 -0.52 -0.02    +0.123 A  
DOCKED: ATOM     29  F   UNL     1     140.519  68.827 229.105 -0.11 +0.04    -0.207 F  
DOCKED: ENDBRANCH  16  19
DOCKED: ENDBRANCH   1  15
DOCKED: TORSDOF 6
DOCKED: TER
DOCKED: ENDMDL
________________________________________________________________________________


    FINAL DOCKED STATE:
    ________________________


Run:   18 / 20
Time taken for this run:   0.024s

DOCKED: MODEL        18
DOCKED: USER    Run = 18
DOCKED: USER
DOCKED: USER    Estimated Free Energy of Binding    =  -7.58 kcal/mol  [=(1)+(2)+(3)-(4)]
DOCKED: USER
DOCKED: USER    (1) Final Intermolecular Energy     =  -9.37 kcal/mol
DOCKED: USER        vdW + Hbond + desolv Energy     =  -8.93 kcal/mol
DOCKED: USER        Electrostatic Energy            =  -0.45 kcal/mol
DOCKED: USER        Moving Ligand-Fixed Receptor    =  -9.37 kcal/mol
DOCKED: USER        Moving Ligand-Moving Receptor   =  +0.00 kcal/mol
DOCKED: USER    (2) Final Total Internal Energy     =  -2.22 kcal/mol
DOCKED: USER    (3) Torsional Free Energy           =  +1.79 kcal/mol
DOCKED: USER    (4) Unbound System's Energy         =  -2.22 kcal/mol
DOCKED: USER
DOCKED: USER
DOCKED: REMARK SMILES O=C(NC/C(O)=[N+]1\CCC[C@H]1c1cscn1)c1ccc2cc(F)ccc2n1
DOCKED: REMARK SMILES IDX 4 1 5 2 6 3 7 5 8 6 11 7 9 8 10 9 12 10 16 11 13 12 15 13
DOCKED: REMARK SMILES IDX 14 14 3 15 2 16 1 18 17 19 27 20 18 21 26 22 19 23 25 24
DOCKED: REMARK SMILES IDX 20 25 24 26 21 27 22 28 23 29
DOCKED: REMARK H PARENT 6 4 3 17
DOCKED: USER                              x       y       z     vdW  Elec       q    Type
DOCKED: USER                           _______ _______ _______ _____ _____    ______ ____
DOCKED: ROOT
DOCKED: ATOM      1  C   UNL     1     140.695  74.561 221.364 -0.20 -0.04    +0.269 C  
DOCKED: ENDROOT
DOCKED: BRANCH   1   2
DOCKED: ATOM      2  C   UNL     1     140.279  75.992 221.587 -0.20 -0.09    +0.354 C  
DOCKED: BRANCH   2   3
DOCKED: ATOM      3  O   UNL     1     139.500  76.250 222.721 -0.23 +0.08    -0.462 OA 
DOCKED: ATOM      4  H   UNL     1     139.560  77.098 223.266 +0.16 -0.04    +0.299 HD 
DOCKED: ENDBRANCH   2   3
DOCKED: BRANCH   2   5
DOCKED: ATOM      5  N   UNL     1     140.576  76.942 220.726 -0.13 +0.07    -0.192 N  
DOCKED: ATOM      6  C   UNL     1     139.707  77.351 219.625 -0.01 -0.11    +0.355 C  
DOCKED: ATOM      7  C   UNL     1     141.804  77.735 220.768 -0.14 -0.19    +0.314 C  
DOCKED: ATOM      8  C   UNL     1     140.388  78.539 218.958 -0.09 -0.03    +0.080 C  
DOCKED: ATOM      9  C   UNL     1     141.825  78.532 219.462 -0.25 -0.05    +0.090 C  
DOCKED: BRANCH   7  10
DOCKED: ATOM     10  C   UNL     1     141.800  78.657 221.965 -0.36 -0.06    +0.119 A  
DOCKED: ATOM     11  N   UNL     1     141.404  78.225 223.193 -0.34 +0.09    -0.243 NA 
DOCKED: ATOM     12  C   UNL     1     142.209  79.990 221.915 -0.43 -0.04    +0.097 A  
DOCKED: ATOM     13  C   UNL     1     141.477  79.199 224.126 -0.40 -0.04    +0.176 A  
DOCKED: ATOM     14  S   UNL     1     142.046  80.632 223.458 -0.68 +0.03    -0.130 S  
DOCKED: ENDBRANCH   7  10
DOCKED: ENDBRANCH   2   5
DOCKED: ENDBRANCH   1   2
DOCKED: BRANCH   1  15
DOCKED: ATOM     15  N   UNL     1     139.952  73.683 222.265 -0.11 +0.03    -0.337 N  
DOCKED: ATOM     16  C   UNL     1     140.010  72.253 222.144 -0.20 -0.04    +0.270 C  
DOCKED: ATOM     17  H   UNL     1     139.464  74.109 223.084 -0.53 -0.03    +0.164 HD 
DOCKED: ATOM     18  O   UNL     1     140.199  71.731 221.011 -0.09 +0.04    -0.268 OA 
DOCKED: BRANCH  16  19
DOCKED: ATOM     19  C   UNL     1     139.902  71.401 223.344 -0.31 -0.02    +0.128 A  
DOCKED: ATOM     20  N   UNL     1     140.403  71.847 224.529 -0.27 +0.04    -0.243 NA 
DOCKED: ATOM     21  C   UNL     1     139.347  70.113 223.272 -0.25 -0.01    +0.035 A  
DOCKED: ATOM     22  C   UNL     1     140.384  71.088 225.657 -0.52 -0.01    +0.071 A  
DOCKED: ATOM     23  C   UNL     1     139.312  69.308 224.412 -0.33 -0.00    +0.013 A  
DOCKED: ATOM     24  C   UNL     1     140.917  71.587 226.850 -0.71 -0.01    +0.032 A  
DOCKED: ATOM     25  C   UNL     1     139.834  69.788 225.619 -0.46 -0.00    +0.003 A  
DOCKED: ATOM     26  C   UNL     1     140.903  70.799 228.005 -0.65 -0.01    +0.041 A  
DOCKED: ATOM     27  C   UNL     1     139.823  69.004 226.783 -0.53 -0.01    +0.049 A  
DOCKED: ATOM     28  C   UNL     1     140.357  69.511 227.973 -0.52 -0.02    +0.123 A  
DOCKED: ATOM     29  F   UNL     1     140.347  68.753 229.096 -0.13 +0.04    -0.207 F  
DOCKED: ENDBRANCH  16  19
DOCKED: ENDBRANCH   1  15
DOCKED: TORSDOF 6
DOCKED: TER
DOCKED: ENDMDL
________________________________________________________________________________


    FINAL DOCKED STATE:
    ________________________


Run:   19 / 20
Time taken for this run:   0.024s

DOCKED: MODEL        19
DOCKED: USER    Run = 19
DOCKED: USER
DOCKED: USER    Estimated Free Energy of Binding    =  -7.34 kcal/mol  [=(1)+(2)+(3)-(4)]
DOCKED: USER
DOCKED: USER    (1) Final Intermolecular Energy     =  -9.13 kcal/mol
DOCKED: USER        vdW + Hbond + desolv Energy     =  -8.70 kcal/mol
DOCKED: USER        Electrostatic Energy            =  -0.43 kcal/mol
DOCKED: USER        Moving Ligand-Fixed Receptor    =  -9.13 kcal/mol
DOCKED: USER        Moving Ligand-Moving Receptor   =  +0.00 kcal/mol
DOCKED: USER    (2) Final Total Internal Energy     =  -2.28 kcal/mol
DOCKED: USER    (3) Torsional Free Energy           =  +1.79 kcal/mol
DOCKED: USER    (4) Unbound System's Energy         =  -2.28 kcal/mol
DOCKED: USER
DOCKED: USER
DOCKED: REMARK SMILES O=C(NC/C(O)=[N+]1\CCC[C@H]1c1cscn1)c1ccc2cc(F)ccc2n1
DOCKED: REMARK SMILES IDX 4 1 5 2 6 3 7 5 8 6 11 7 9 8 10 9 12 10 16 11 13 12 15 13
DOCKED: REMARK SMILES IDX 14 14 3 15 2 16 1 18 17 19 27 20 18 21 26 22 19 23 25 24
DOCKED: REMARK SMILES IDX 20 25 24 26 21 27 22 28 23 29
DOCKED: REMARK H PARENT 6 4 3 17
DOCKED: USER                              x       y       z     vdW  Elec       q    Type
DOCKED: USER                           _______ _______ _______ _____ _____    ______ ____
DOCKED: ROOT
DOCKED: ATOM      1  C   UNL     1     140.333  74.388 221.120 -0.18 -0.05    +0.269 C  
DOCKED: ENDROOT
DOCKED: BRANCH   1   2
DOCKED: ATOM      2  C   UNL     1     140.254  75.856 221.453 -0.18 -0.09    +0.354 C  
DOCKED: BRANCH   2   3
DOCKED: ATOM      3  O   UNL     1     139.744  76.187 222.713 -0.26 +0.07    -0.462 OA 
DOCKED: ATOM      4  H   UNL     1     140.083  76.954 223.276 +0.17 -0.04    +0.299 HD 
DOCKED: ENDBRANCH   2   3
DOCKED: BRANCH   2   5
DOCKED: ATOM      5  N   UNL     1     140.587  76.783 220.580 -0.12 +0.07    -0.192 N  
DOCKED: ATOM      6  C   UNL     1     139.767  77.158 219.430 -0.01 -0.11    +0.355 C  
DOCKED: ATOM      7  C   UNL     1     141.810  77.582 220.655 -0.14 -0.19    +0.314 C  
DOCKED: ATOM      8  C   UNL     1     140.473  78.330 218.762 -0.09 -0.03    +0.080 C  
DOCKED: ATOM      9  C   UNL     1     141.887  78.342 219.330 -0.24 -0.06    +0.090 C  
DOCKED: BRANCH   7  10
DOCKED: ATOM     10  C   UNL     1     141.749  78.536 221.824 -0.33 -0.07    +0.119 A  
DOCKED: ATOM     11  N   UNL     1     141.474  78.101 223.083 -0.32 +0.10    -0.243 NA 
DOCKED: ATOM     12  C   UNL     1     141.982  79.908 221.716 -0.39 -0.04    +0.097 A  
DOCKED: ATOM     13  C   UNL     1     141.470  79.108 223.984 -0.44 -0.04    +0.176 A  
DOCKED: ATOM     14  S   UNL     1     141.817  80.576 223.246 -0.64 +0.03    -0.130 S  
DOCKED: ENDBRANCH   7  10
DOCKED: ENDBRANCH   2   5
DOCKED: ENDBRANCH   1   2
DOCKED: BRANCH   1  15
DOCKED: ATOM     15  N   UNL     1     139.739  73.603 222.200 -0.13 +0.05    -0.337 N  
DOCKED: ATOM     16  C   UNL     1     139.601  72.177 222.108 -0.18 -0.05    +0.270 C  
DOCKED: ATOM     17  H   UNL     1     139.520  74.082 223.101 -0.53 -0.02    +0.164 HD 
DOCKED: ATOM     18  O   UNL     1     139.443  71.637 220.979 -0.06 +0.05    -0.268 OA 
DOCKED: BRANCH  16  19
DOCKED: ATOM     19  C   UNL     1     139.695  71.341 223.322 -0.29 -0.02    +0.128 A  
DOCKED: ATOM     20  N   UNL     1     140.208  71.876 224.464 -0.25 +0.05    -0.243 NA 
DOCKED: ATOM     21  C   UNL     1     139.320  69.987 223.301 -0.24 -0.01    +0.035 A  
DOCKED: ATOM     22  C   UNL     1     140.373  71.143 225.597 -0.52 -0.01    +0.071 A  
DOCKED: ATOM     23  C   UNL     1     139.475  69.208 224.449 -0.32 -0.00    +0.013 A  
DOCKED: ATOM     24  C   UNL     1     140.911  71.734 226.744 -0.70 -0.01    +0.032 A  
DOCKED: ATOM     25  C   UNL     1     140.008  69.779 225.611 -0.46 -0.00    +0.003 A  
DOCKED: ATOM     26  C   UNL     1     141.086  70.975 227.906 -0.67 -0.01    +0.041 A  
DOCKED: ATOM     27  C   UNL     1     140.185  69.023 226.781 -0.54 -0.01    +0.049 A  
DOCKED: ATOM     28  C   UNL     1     140.723  69.623 227.925 -0.51 -0.02    +0.123 A  
DOCKED: ATOM     29  F   UNL     1     140.896  68.893 229.054 -0.11 +0.04    -0.207 F  
DOCKED: ENDBRANCH  16  19
DOCKED: ENDBRANCH   1  15
DOCKED: TORSDOF 6
DOCKED: TER
DOCKED: ENDMDL
________________________________________________________________________________


    FINAL DOCKED STATE:
    ________________________


Run:   20 / 20
Time taken for this run:   0.024s

DOCKED: MODEL        20
DOCKED: USER    Run = 20
DOCKED: USER
DOCKED: USER    Estimated Free Energy of Binding    =  -7.56 kcal/mol  [=(1)+(2)+(3)-(4)]
DOCKED: USER
DOCKED: USER    (1) Final Intermolecular Energy     =  -9.35 kcal/mol
DOCKED: USER        vdW + Hbond + desolv Energy     =  -8.86 kcal/mol
DOCKED: USER        Electrostatic Energy            =  -0.49 kcal/mol
DOCKED: USER        Moving Ligand-Fixed Receptor    =  -9.35 kcal/mol
DOCKED: USER        Moving Ligand-Moving Receptor   =  +0.00 kcal/mol
DOCKED: USER    (2) Final Total Internal Energy     =  -2.18 kcal/mol
DOCKED: USER    (3) Torsional Free Energy           =  +1.79 kcal/mol
DOCKED: USER    (4) Unbound System's Energy         =  -2.18 kcal/mol
DOCKED: USER
DOCKED: USER
DOCKED: REMARK SMILES O=C(NC/C(O)=[N+]1\CCC[C@H]1c1cscn1)c1ccc2cc(F)ccc2n1
DOCKED: REMARK SMILES IDX 4 1 5 2 6 3 7 5 8 6 11 7 9 8 10 9 12 10 16 11 13 12 15 13
DOCKED: REMARK SMILES IDX 14 14 3 15 2 16 1 18 17 19 27 20 18 21 26 22 19 23 25 24
DOCKED: REMARK SMILES IDX 20 25 24 26 21 27 22 28 23 29
DOCKED: REMARK H PARENT 6 4 3 17
DOCKED: USER                              x       y       z     vdW  Elec       q    Type
DOCKED: USER                           _______ _______ _______ _____ _____    ______ ____
DOCKED: ROOT
DOCKED: ATOM      1  C   UNL     1     140.769  74.659 221.310 -0.20 -0.05    +0.269 C  
DOCKED: ENDROOT
DOCKED: BRANCH   1   2
DOCKED: ATOM      2  C   UNL     1     140.262  76.062 221.526 -0.19 -0.09    +0.354 C  
DOCKED: BRANCH   2   3
DOCKED: ATOM      3  O   UNL     1     139.397  76.257 222.608 -0.22 +0.08    -0.462 OA 
DOCKED: ATOM      4  H   UNL     1     139.250  77.148 223.060 +0.13 -0.05    +0.299 HD 
DOCKED: ENDBRANCH   2   3
DOCKED: BRANCH   2   5
DOCKED: ATOM      5  N   UNL     1     140.565  77.043 220.702 -0.13 +0.07    -0.192 N  
DOCKED: ATOM      6  C   UNL     1     139.742  77.437 219.561 -0.01 -0.11    +0.355 C  
DOCKED: ATOM      7  C   UNL     1     141.753  77.887 220.829 -0.16 -0.19    +0.314 C  
DOCKED: ATOM      8  C   UNL     1     140.406  78.668 218.957 -0.09 -0.03    +0.080 C  
DOCKED: ATOM      9  C   UNL     1     141.812  78.711 219.542 -0.25 -0.05    +0.090 C  
DOCKED: BRANCH   7  10
DOCKED: ATOM     10  C   UNL     1     141.640  78.782 222.041 -0.37 -0.06    +0.119 A  
DOCKED: ATOM     11  N   UNL     1     140.525  78.785 222.821 -0.24 +0.06    -0.243 NA 
DOCKED: ATOM     12  C   UNL     1     142.653  79.644 222.462 -0.47 -0.05    +0.097 A  
DOCKED: ATOM     13  C   UNL     1     140.624  79.650 223.854 -0.36 -0.03    +0.176 A  
DOCKED: ATOM     14  S   UNL     1     142.109  80.436 223.839 -0.67 +0.03    -0.130 S  
DOCKED: ENDBRANCH   7  10
DOCKED: ENDBRANCH   2   5
DOCKED: ENDBRANCH   1   2
DOCKED: BRANCH   1  15
DOCKED: ATOM     15  N   UNL     1     139.973  73.719 222.096 -0.14 +0.03    -0.337 N  
DOCKED: ATOM     16  C   UNL     1     140.255  72.311 222.099 -0.20 -0.03    +0.270 C  
DOCKED: ATOM     17  H   UNL     1     139.260  74.101 222.756 -0.50 -0.04    +0.164 HD 
DOCKED: ATOM     18  O   UNL     1     140.762  71.774 221.077 -0.12 +0.04    -0.268 OA 
DOCKED: BRANCH  16  19
DOCKED: ATOM     19  C   UNL     1     140.001  71.506 223.311 -0.31 -0.02    +0.128 A  
DOCKED: ATOM     20  N   UNL     1     140.580  71.868 224.489 -0.26 +0.03    -0.243 NA 
DOCKED: ATOM     21  C   UNL     1     139.221  70.338 223.255 -0.26 -0.01    +0.035 A  
DOCKED: ATOM     22  C   UNL     1     140.430  71.137 225.625 -0.52 -0.01    +0.071 A  
DOCKED: ATOM     23  C   UNL     1     139.047  69.567 224.406 -0.34 -0.00    +0.013 A  
DOCKED: ATOM     24  C   UNL     1     141.050  71.545 226.810 -0.72 -0.01    +0.032 A  
DOCKED: ATOM     25  C   UNL     1     139.654  69.957 225.605 -0.45 -0.00    +0.003 A  
DOCKED: ATOM     26  C   UNL     1     140.900  70.786 227.975 -0.66 -0.01    +0.041 A  
DOCKED: ATOM     27  C   UNL     1     139.507  69.201 226.778 -0.49 -0.01    +0.049 A  
DOCKED: ATOM     28  C   UNL     1     140.130  69.617 227.960 -0.52 -0.02    +0.123 A  
DOCKED: ATOM     29  F   UNL     1     139.989  68.886 229.093 -0.14 +0.03    -0.207 F  
DOCKED: ENDBRANCH  16  19
DOCKED: ENDBRANCH   1  15
DOCKED: TORSDOF 6
DOCKED: TER
DOCKED: ENDMDL
________________________________________________________________________________


    CLUSTERING HISTOGRAM
    ____________________


________________________________________________________________________________
     |           |     |           |     |
Clus | Lowest    | Run | Mean      | Num | Histogram
-ter | Binding   |     | Binding   | in  |
Rank | Energy    |     | Energy    | Clus|    5    10   15   20   25   30   35
_____|___________|_____|___________|_____|____:____|____:____|____:____|____:___
   1 |     -8.08 |   7 |     -7.56 |  17 |#################
   2 |     -7.48 |   3 |     -7.47 |   2 |##
   3 |     -6.26 |  14 |     -6.26 |   1 |#
_____|___________|_____|___________|_____|______________________________________


    RMSD TABLE
    __________


_______________________________________________________________________
     |      |      |           |         |                 |
Rank | Sub- | Run  | Binding   | Cluster | Reference       | Grep
     | Rank |      | Energy    | RMSD    | RMSD            | Pattern
_____|______|______|___________|_________|_________________|___________
   1      1      7       -8.08      0.00    272.39           RANKING
   1      2      2       -7.60      0.58    272.54           RANKING
   1      3     16       -7.59      0.60    272.56           RANKING
   1      4     13       -7.59      0.55    272.55           RANKING
   1      5     11       -7.59      0.57    272.55           RANKING
   1      6     18       -7.58      0.57    272.53           RANKING
   1      7     17       -7.58      0.59    272.54           RANKING
   1      8      5       -7.56      0.58    272.54           RANKING
   1      9     20       -7.56      0.52    272.49           RANKING
   1     10      9       -7.56      0.59    272.55           RANKING
   1     11      1       -7.53      0.60    272.54           RANKING
   1     12     12       -7.51      0.48    272.45           RANKING
   1     13     10       -7.51      0.39    272.47           RANKING
   1     14      6       -7.48      1.28    272.56           RANKING
   1     15      4       -7.46      1.26    272.55           RANKING
   1     16      8       -7.45      1.35    272.60           RANKING
   1     17     19       -7.34      0.65    272.44           RANKING
   2      1      3       -7.48      0.00    271.88           RANKING
   2      2     15       -7.45      1.04    271.83           RANKING
   3      1     14       -6.26      0.00    271.96           RANKING

Run time 0.448 sec
Idle time 0.000 sec
