AutoDock-GPU version: v1.6

**********************************************************
**    AutoDock-GPU AUTODOCKTOOLS-COMPATIBLE DLG FILE    **
**********************************************************


    DOCKING PARAMETERS
    ________________________


Ligand file:                               /home/a/REINVENT4/ReinventStudies/pleaseWork/justmol2mol_4_Compounds_ontop/graph-dock-8u2o5u/graph-DockGPU/node-autodockgpu/inputs/LRHAYHKTPAMLCZ-ZENVLUNZNA-O.pdbqt
Grid fld file:                             /home/a/REINVENT4/ReinventStudies/mols/Rad51/maps/rad51_receptor.maps.fld

Random seed:                               42
Number of runs:                            20
Number of energy evaluations:              1132076
Number of generations:                     42000
Size of population:                        150
Rate of crossover:                         80.000000%
Tournament selection probability limit:    60.000000%
Rate of mutation:                          2.000000%
Maximal allowed delta movement:            +/- 6.000000A
Maximal allowed delta angle:               +/- 90.000000

Rate of local search:                      100.000000%
Maximal number of local search iterations: 300
Rho lower bound:                           0.010000
Spread of local search delta movement:     2.000000A
Spread of local search delta angle:        74.999999
Limit of consecutive successes/failures:   4

Handle symmetry during clustering:         YES
RMSD tolerance:                            2.000000A

Program call in command line was:          /home/a/REINVENT4/ReinventStudies/adgpu-v1.6_linux_x64_cuda12_128wi --filelist batch.txt --heuristics 1 --nrun 20 --psize 150 --lsit 300 --seed 42 --heurmax 12000000 


    GRID PARAMETERS
    ________________________


Receptor name:                             rad51_receptor
Number of grid points (x, y, z):           53, 53, 53
Grid center (x, y, z):                     139.950000, 75.640000, 221.970000A
Grid size (x, y, z):                       19.500000, 19.500000, 19.500000A
Grid spacing:                              0.375000A


    LIGAND PARAMETERS
    ________________________


Ligand name:                               /home/a/REINVENT4/ReinventStudies/pleaseWork/justmol2mol_4_Compounds_ontop/graph-dock-8u2o5u/graph-DockGPU/node-autodockgpu/inputs/LRHAYHKTPAMLCZ-ZENVLUNZNA-O
Number of atoms:                           29
Number of rotatable bonds:                 6
Number of atom types:                      8


    DUMMY DATA (only for ADT-compatibility)
    ________________________


DPF> outlev 1
DPF> ga_run 20
DPF> fld /home/a/REINVENT4/ReinventStudies/mols/Rad51/maps/rad51_receptor.maps.fld
DPF> move /home/a/REINVENT4/ReinventStudies/pleaseWork/justmol2mol_4_Compounds_ontop/graph-dock-8u2o5u/graph-DockGPU/node-autodockgpu/inputs/LRHAYHKTPAMLCZ-ZENVLUNZNA-O.pdbqt


    COUNTER STATES
    ________________________


Number of energy evaluations performed:    594202
Number of generations used:                30


    INPUT LIGAND PDBQT FILE:
    ________________________


INPUT-LIGAND-PDBQT: REMARK SMILES O=C(NC/C(O)=[N+]1/CCC[C@@H]1c1cscn1)c1ccc2cc(F)ccc2n1
INPUT-LIGAND-PDBQT: REMARK SMILES IDX 4 1 5 2 6 3 7 5 8 6 11 7 9 8 10 9 12 10 16 11 13 12 15 13
INPUT-LIGAND-PDBQT: REMARK SMILES IDX 14 14 3 15 2 16 1 18 17 19 27 20 18 21 26 22 19 23 25 24
INPUT-LIGAND-PDBQT: REMARK SMILES IDX 20 25 24 26 21 27 22 28 23 29
INPUT-LIGAND-PDBQT: REMARK H PARENT 6 4 3 17
INPUT-LIGAND-PDBQT: ROOT
INPUT-LIGAND-PDBQT: ATOM      1  C   UNL     1      -0.234   1.852  -1.373  1.00  0.00     0.269 C 
INPUT-LIGAND-PDBQT: ENDROOT
INPUT-LIGAND-PDBQT: BRANCH   1   2
INPUT-LIGAND-PDBQT: ATOM      2  C   UNL     1      -0.017   0.641  -2.248  1.00  0.00     0.354 C 
INPUT-LIGAND-PDBQT: BRANCH   2   3
INPUT-LIGAND-PDBQT: ATOM      3  O   UNL     1       0.903   0.782  -3.292  1.00  0.00    -0.462 OA
INPUT-LIGAND-PDBQT: ATOM      4  H   UNL     1       1.142   0.039  -3.935  1.00  0.00     0.299 HD
INPUT-LIGAND-PDBQT: ENDBRANCH   2   3
INPUT-LIGAND-PDBQT: BRANCH   2   5
INPUT-LIGAND-PDBQT: ATOM      5  N   UNL     1      -0.639  -0.500  -2.039  1.00  0.00    -0.192 N 
INPUT-LIGAND-PDBQT: ATOM      6  C   UNL     1      -0.407  -1.697  -2.843  1.00  0.00     0.355 C 
INPUT-LIGAND-PDBQT: ATOM      7  C   UNL     1      -1.599  -0.755  -0.961  1.00  0.00     0.314 C 
INPUT-LIGAND-PDBQT: ATOM      8  C   UNL     1      -1.337  -2.769  -2.290  1.00  0.00     0.080 C 
INPUT-LIGAND-PDBQT: ATOM      9  C   UNL     1      -1.762  -2.274  -0.915  1.00  0.00     0.090 C 
INPUT-LIGAND-PDBQT: BRANCH   7  10
INPUT-LIGAND-PDBQT: ATOM     10  C   UNL     1      -2.920  -0.091  -1.253  1.00  0.00     0.119 A 
INPUT-LIGAND-PDBQT: ATOM     11  N   UNL     1      -3.462  -0.075  -2.503  1.00  0.00    -0.243 NA
INPUT-LIGAND-PDBQT: ATOM     12  C   UNL     1      -3.698   0.506  -0.266  1.00  0.00     0.097 A 
INPUT-LIGAND-PDBQT: ATOM     13  C   UNL     1      -4.661   0.544  -2.532  1.00  0.00     0.176 A 
INPUT-LIGAND-PDBQT: ATOM     14  S   UNL     1      -5.095   1.082  -1.001  1.00  0.00    -0.130 S 
INPUT-LIGAND-PDBQT: ENDBRANCH   7  10
INPUT-LIGAND-PDBQT: ENDBRANCH   2   5
INPUT-LIGAND-PDBQT: ENDBRANCH   1   2
INPUT-LIGAND-PDBQT: BRANCH   1  15
INPUT-LIGAND-PDBQT: ATOM     15  N   UNL     1       0.396   1.671  -0.067  1.00  0.00    -0.337 N 
INPUT-LIGAND-PDBQT: ATOM     16  C   UNL     1       1.820   1.577   0.098  1.00  0.00     0.270 C 
INPUT-LIGAND-PDBQT: ATOM     17  H   UNL     1      -0.223   1.652   0.775  1.00  0.00     0.164 HD
INPUT-LIGAND-PDBQT: ATOM     18  O   UNL     1       2.578   1.749  -0.896  1.00  0.00    -0.268 OA
INPUT-LIGAND-PDBQT: BRANCH  16  19
INPUT-LIGAND-PDBQT: ATOM     19  C   UNL     1       2.402   1.278   1.424  1.00  0.00     0.128 A 
INPUT-LIGAND-PDBQT: ATOM     20  N   UNL     1       1.579   1.044   2.484  1.00  0.00    -0.243 NA
INPUT-LIGAND-PDBQT: ATOM     21  C   UNL     1       3.795   1.221   1.608  1.00  0.00     0.035 A 
INPUT-LIGAND-PDBQT: ATOM     22  C   UNL     1       2.057   0.757   3.724  1.00  0.00     0.071 A 
INPUT-LIGAND-PDBQT: ATOM     23  C   UNL     1       4.316   0.929   2.871  1.00  0.00     0.013 A 
INPUT-LIGAND-PDBQT: ATOM     24  C   UNL     1       1.172   0.524   4.783  1.00  0.00     0.032 A 
INPUT-LIGAND-PDBQT: ATOM     25  C   UNL     1       3.450   0.694   3.945  1.00  0.00     0.003 A 
INPUT-LIGAND-PDBQT: ATOM     26  C   UNL     1       1.667   0.230   6.057  1.00  0.00     0.041 A 
INPUT-LIGAND-PDBQT: ATOM     27  C   UNL     1       3.940   0.398   5.226  1.00  0.00     0.049 A 
INPUT-LIGAND-PDBQT: ATOM     28  C   UNL     1       3.047   0.167   6.278  1.00  0.00     0.123 A 
INPUT-LIGAND-PDBQT: ATOM     29  F   UNL     1       3.521  -0.120   7.516  1.00  0.00    -0.207 F 
INPUT-LIGAND-PDBQT: ENDBRANCH  16  19
INPUT-LIGAND-PDBQT: ENDBRANCH   1  15
INPUT-LIGAND-PDBQT: TORSDOF 6


    FINAL DOCKED STATE:
    ________________________


Run:   1 / 20
Time taken for this run:   0.024s

DOCKED: MODEL        1
DOCKED: USER    Run = 1
DOCKED: USER
DOCKED: USER    Estimated Free Energy of Binding    =  -8.04 kcal/mol  [=(1)+(2)+(3)-(4)]
DOCKED: USER
DOCKED: USER    (1) Final Intermolecular Energy     =  -9.83 kcal/mol
DOCKED: USER        vdW + Hbond + desolv Energy     =  -9.22 kcal/mol
DOCKED: USER        Electrostatic Energy            =  -0.61 kcal/mol
DOCKED: USER        Moving Ligand-Fixed Receptor    =  -9.83 kcal/mol
DOCKED: USER        Moving Ligand-Moving Receptor   =  +0.00 kcal/mol
DOCKED: USER    (2) Final Total Internal Energy     =  -1.63 kcal/mol
DOCKED: USER    (3) Torsional Free Energy           =  +1.79 kcal/mol
DOCKED: USER    (4) Unbound System's Energy         =  -1.63 kcal/mol
DOCKED: USER
DOCKED: USER
DOCKED: REMARK SMILES O=C(NC/C(O)=[N+]1/CCC[C@@H]1c1cscn1)c1ccc2cc(F)ccc2n1
DOCKED: REMARK SMILES IDX 4 1 5 2 6 3 7 5 8 6 11 7 9 8 10 9 12 10 16 11 13 12 15 13
DOCKED: REMARK SMILES IDX 14 14 3 15 2 16 1 18 17 19 27 20 18 21 26 22 19 23 25 24
DOCKED: REMARK SMILES IDX 20 25 24 26 21 27 22 28 23 29
DOCKED: REMARK H PARENT 6 4 3 17
DOCKED: USER                              x       y       z     vdW  Elec       q    Type
DOCKED: USER                           _______ _______ _______ _____ _____    ______ ____
DOCKED: ROOT
DOCKED: ATOM      1  C   UNL     1     139.809  74.686 221.005 -0.15 -0.06    +0.269 C  
DOCKED: ENDROOT
DOCKED: BRANCH   1   2
DOCKED: ATOM      2  C   UNL     1     140.782  75.787 221.350 -0.19 -0.10    +0.354 C  
DOCKED: BRANCH   2   3
DOCKED: ATOM      3  O   UNL     1     141.020  76.006 222.711 -0.10 +0.10    -0.462 OA 
DOCKED: ATOM      4  H   UNL     1     141.863  76.432 223.073 -0.33 -0.17    +0.299 HD 
DOCKED: ENDBRANCH   2   3
DOCKED: BRANCH   2   5
DOCKED: ATOM      5  N   UNL     1     141.396  76.498 220.429 -0.17 +0.09    -0.192 N  
DOCKED: ATOM      6  C   UNL     1     142.496  75.980 219.619 -0.17 -0.18    +0.355 C  
DOCKED: ATOM      7  C   UNL     1     141.048  77.870 220.046 -0.11 -0.14    +0.314 C  
DOCKED: ATOM      8  C   UNL     1     142.930  77.122 218.709 -0.31 -0.05    +0.080 C  
DOCKED: ATOM      9  C   UNL     1     141.783  78.123 218.731 -0.22 -0.05    +0.090 C  
DOCKED: BRANCH   7  10
DOCKED: ATOM     10  C   UNL     1     141.497  78.850 221.099 -0.29 -0.06    +0.119 A  
DOCKED: ATOM     11  N   UNL     1     141.806  78.459 222.368 -0.25 +0.13    -0.243 NA 
DOCKED: ATOM     12  C   UNL     1     141.675  80.205 220.841 -0.30 -0.04    +0.097 A  
DOCKED: ATOM     13  C   UNL     1     142.214  79.491 223.135 -0.48 -0.06    +0.176 A  
DOCKED: ATOM     14  S   UNL     1     142.218  80.925 222.259 -0.54 +0.03    -0.130 S  
DOCKED: ENDBRANCH   7  10
DOCKED: ENDBRANCH   2   5
DOCKED: ENDBRANCH   1   2
DOCKED: BRANCH   1  15
DOCKED: ATOM     15  N   UNL     1     139.653  73.758 222.124 -0.14 +0.05    -0.337 N  
DOCKED: ATOM     16  C   UNL     1     140.545  72.654 222.342 -0.19 -0.02    +0.270 C  
DOCKED: ATOM     17  H   UNL     1     138.883  73.942 222.807 -0.55 -0.07    +0.164 HD 
DOCKED: ATOM     18  O   UNL     1     141.562  72.516 221.608 -0.21 +0.02    -0.268 OA 
DOCKED: BRANCH  16  19
DOCKED: ATOM     19  C   UNL     1     140.278  71.677 223.420 -0.32 -0.02    +0.128 A  
DOCKED: ATOM     20  N   UNL     1     140.768  71.903 224.671 -0.22 +0.03    -0.243 NA 
DOCKED: ATOM     21  C   UNL     1     139.516  70.520 223.177 -0.27 -0.01    +0.035 A  
DOCKED: ATOM     22  C   UNL     1     140.548  71.044 225.701 -0.53 -0.01    +0.071 A  
DOCKED: ATOM     23  C   UNL     1     139.273  69.619 224.216 -0.32 -0.00    +0.013 A  
DOCKED: ATOM     24  C   UNL     1     141.072  71.318 226.970 -0.70 -0.01    +0.032 A  
DOCKED: ATOM     25  C   UNL     1     139.789  69.872 225.493 -0.45 -0.00    +0.003 A  
DOCKED: ATOM     26  C   UNL     1     140.844  70.433 228.028 -0.60 -0.01    +0.041 A  
DOCKED: ATOM     27  C   UNL     1     139.564  68.988 226.559 -0.50 -0.01    +0.049 A  
DOCKED: ATOM     28  C   UNL     1     140.093  69.271 227.823 -0.52 -0.02    +0.123 A  
DOCKED: ATOM     29  F   UNL     1     139.874  68.416 228.853 -0.12 +0.04    -0.207 F  
DOCKED: ENDBRANCH  16  19
DOCKED: ENDBRANCH   1  15
DOCKED: TORSDOF 6
DOCKED: TER
DOCKED: ENDMDL
________________________________________________________________________________


    FINAL DOCKED STATE:
    ________________________


Run:   2 / 20
Time taken for this run:   0.024s

DOCKED: MODEL        2
DOCKED: USER    Run = 2
DOCKED: USER
DOCKED: USER    Estimated Free Energy of Binding    =  -7.87 kcal/mol  [=(1)+(2)+(3)-(4)]
DOCKED: USER
DOCKED: USER    (1) Final Intermolecular Energy     =  -9.66 kcal/mol
DOCKED: USER        vdW + Hbond + desolv Energy     =  -9.17 kcal/mol
DOCKED: USER        Electrostatic Energy            =  -0.48 kcal/mol
DOCKED: USER        Moving Ligand-Fixed Receptor    =  -9.66 kcal/mol
DOCKED: USER        Moving Ligand-Moving Receptor   =  +0.00 kcal/mol
DOCKED: USER    (2) Final Total Internal Energy     =  -1.96 kcal/mol
DOCKED: USER    (3) Torsional Free Energy           =  +1.79 kcal/mol
DOCKED: USER    (4) Unbound System's Energy         =  -1.96 kcal/mol
DOCKED: USER
DOCKED: USER
DOCKED: REMARK SMILES O=C(NC/C(O)=[N+]1/CCC[C@@H]1c1cscn1)c1ccc2cc(F)ccc2n1
DOCKED: REMARK SMILES IDX 4 1 5 2 6 3 7 5 8 6 11 7 9 8 10 9 12 10 16 11 13 12 15 13
DOCKED: REMARK SMILES IDX 14 14 3 15 2 16 1 18 17 19 27 20 18 21 26 22 19 23 25 24
DOCKED: REMARK SMILES IDX 20 25 24 26 21 27 22 28 23 29
DOCKED: REMARK H PARENT 6 4 3 17
DOCKED: USER                              x       y       z     vdW  Elec       q    Type
DOCKED: USER                           _______ _______ _______ _____ _____    ______ ____
DOCKED: ROOT
DOCKED: ATOM      1  C   UNL     1     140.198  74.387 221.081 -0.17 -0.05    +0.269 C  
DOCKED: ENDROOT
DOCKED: BRANCH   1   2
DOCKED: ATOM      2  C   UNL     1     140.348  75.845 221.441 -0.19 -0.09    +0.354 C  
DOCKED: BRANCH   2   3
DOCKED: ATOM      3  O   UNL     1     139.752  76.258 222.637 -0.24 +0.08    -0.462 OA 
DOCKED: ATOM      4  H   UNL     1     140.008  77.103 223.130 +0.15 -0.05    +0.299 HD 
DOCKED: ENDBRANCH   2   3
DOCKED: BRANCH   2   5
DOCKED: ATOM      5  N   UNL     1     141.018  76.691 220.687 -0.16 +0.08    -0.192 N  
DOCKED: ATOM      6  C   UNL     1     142.038  76.275 219.729 -0.14 -0.18    +0.355 C  
DOCKED: ATOM      7  C   UNL     1     140.813  78.142 220.657 -0.12 -0.13    +0.314 C  
DOCKED: ATOM      8  C   UNL     1     142.576  77.552 219.096 -0.27 -0.06    +0.080 C  
DOCKED: ATOM      9  C   UNL     1     141.546  78.628 219.407 -0.23 -0.05    +0.090 C  
DOCKED: BRANCH   7  10
DOCKED: ATOM     10  C   UNL     1     141.388  78.790 221.891 -0.34 -0.05    +0.119 A  
DOCKED: ATOM     11  N   UNL     1     141.197  78.271 223.136 -0.33 +0.08    -0.243 NA 
DOCKED: ATOM     12  C   UNL     1     142.189  79.926 221.842 -0.42 -0.04    +0.097 A  
DOCKED: ATOM     13  C   UNL     1     141.823  78.991 224.091 -0.44 -0.05    +0.176 A  
DOCKED: ATOM     14  S   UNL     1     142.648  80.290 223.417 -0.72 +0.03    -0.130 S  
DOCKED: ENDBRANCH   7  10
DOCKED: ENDBRANCH   2   5
DOCKED: ENDBRANCH   1   2
DOCKED: BRANCH   1  15
DOCKED: ATOM     15  N   UNL     1     140.033  73.569 222.281 -0.11 +0.02    -0.337 N  
DOCKED: ATOM     16  C   UNL     1     140.576  72.243 222.393 -0.20 -0.02    +0.270 C  
DOCKED: ATOM     17  H   UNL     1     139.534  73.992 223.096 -0.52 -0.02    +0.164 HD 
DOCKED: ATOM     18  O   UNL     1     141.305  71.785 221.471 -0.16 +0.03    -0.268 OA 
DOCKED: BRANCH  16  19
DOCKED: ATOM     19  C   UNL     1     140.283  71.413 223.581 -0.33 -0.02    +0.128 A  
DOCKED: ATOM     20  N   UNL     1     140.684  71.833 224.813 -0.28 +0.03    -0.243 NA 
DOCKED: ATOM     21  C   UNL     1     139.587  70.196 223.461 -0.27 -0.01    +0.035 A  
DOCKED: ATOM     22  C   UNL     1     140.437  71.115 225.941 -0.54 -0.01    +0.071 A  
DOCKED: ATOM     23  C   UNL     1     139.319  69.436 224.603 -0.35 -0.00    +0.013 A  
DOCKED: ATOM     24  C   UNL     1     140.869  71.589 227.185 -0.74 -0.01    +0.032 A  
DOCKED: ATOM     25  C   UNL     1     139.743  69.889 225.857 -0.47 -0.00    +0.003 A  
DOCKED: ATOM     26  C   UNL     1     140.614  70.847 228.343 -0.59 -0.01    +0.041 A  
DOCKED: ATOM     27  C   UNL     1     139.490  69.150 227.023 -0.50 -0.01    +0.049 A  
DOCKED: ATOM     28  C   UNL     1     139.926  69.632 228.262 -0.51 -0.02    +0.123 A  
DOCKED: ATOM     29  F   UNL     1     139.680  68.918 229.389 +0.00 +0.03    -0.207 F  
DOCKED: ENDBRANCH  16  19
DOCKED: ENDBRANCH   1  15
DOCKED: TORSDOF 6
DOCKED: TER
DOCKED: ENDMDL
________________________________________________________________________________


    FINAL DOCKED STATE:
    ________________________


Run:   3 / 20
Time taken for this run:   0.024s

DOCKED: MODEL        3
DOCKED: USER    Run = 3
DOCKED: USER
DOCKED: USER    Estimated Free Energy of Binding    =  -7.42 kcal/mol  [=(1)+(2)+(3)-(4)]
DOCKED: USER
DOCKED: USER    (1) Final Intermolecular Energy     =  -9.21 kcal/mol
DOCKED: USER        vdW + Hbond + desolv Energy     =  -8.76 kcal/mol
DOCKED: USER        Electrostatic Energy            =  -0.45 kcal/mol
DOCKED: USER        Moving Ligand-Fixed Receptor    =  -9.21 kcal/mol
DOCKED: USER        Moving Ligand-Moving Receptor   =  +0.00 kcal/mol
DOCKED: USER    (2) Final Total Internal Energy     =  -1.79 kcal/mol
DOCKED: USER    (3) Torsional Free Energy           =  +1.79 kcal/mol
DOCKED: USER    (4) Unbound System's Energy         =  -1.79 kcal/mol
DOCKED: USER
DOCKED: USER
DOCKED: REMARK SMILES O=C(NC/C(O)=[N+]1/CCC[C@@H]1c1cscn1)c1ccc2cc(F)ccc2n1
DOCKED: REMARK SMILES IDX 4 1 5 2 6 3 7 5 8 6 11 7 9 8 10 9 12 10 16 11 13 12 15 13
DOCKED: REMARK SMILES IDX 14 14 3 15 2 16 1 18 17 19 27 20 18 21 26 22 19 23 25 24
DOCKED: REMARK SMILES IDX 20 25 24 26 21 27 22 28 23 29
DOCKED: REMARK H PARENT 6 4 3 17
DOCKED: USER                              x       y       z     vdW  Elec       q    Type
DOCKED: USER                           _______ _______ _______ _____ _____    ______ ____
DOCKED: ROOT
DOCKED: ATOM      1  C   UNL     1     139.925  74.650 221.035 -0.16 -0.05    +0.269 C  
DOCKED: ENDROOT
DOCKED: BRANCH   1   2
DOCKED: ATOM      2  C   UNL     1     141.338  75.099 220.753 -0.15 -0.11    +0.354 C  
DOCKED: BRANCH   2   3
DOCKED: ATOM      3  O   UNL     1     142.361  74.261 221.208 -0.08 +0.11    -0.462 OA 
DOCKED: ATOM      4  H   UNL     1     142.341  73.253 221.127 +0.13 -0.04    +0.299 HD 
DOCKED: ENDBRANCH   2   3
DOCKED: BRANCH   2   5
DOCKED: ATOM      5  N   UNL     1     141.608  76.208 220.098 -0.16 +0.09    -0.192 N  
DOCKED: ATOM      6  C   UNL     1     142.640  76.298 219.068 -0.17 -0.19    +0.355 C  
DOCKED: ATOM      7  C   UNL     1     140.898  77.480 220.258 -0.11 -0.13    +0.314 C  
DOCKED: ATOM      8  C   UNL     1     142.641  77.744 218.591 -0.29 -0.06    +0.080 C  
DOCKED: ATOM      9  C   UNL     1     141.320  78.333 219.063 -0.18 -0.05    +0.090 C  
DOCKED: BRANCH   7  10
DOCKED: ATOM     10  C   UNL     1     141.289  78.151 221.550 -0.30 -0.06    +0.119 A  
DOCKED: ATOM     11  N   UNL     1     141.099  77.557 222.761 -0.29 +0.09    -0.243 NA 
DOCKED: ATOM     12  C   UNL     1     141.910  79.395 221.595 -0.36 -0.05    +0.097 A  
DOCKED: ATOM     13  C   UNL     1     141.548  78.320 223.780 -0.32 -0.05    +0.176 A  
DOCKED: ATOM     14  S   UNL     1     142.209  79.755 223.209 -0.68 +0.04    -0.130 S  
DOCKED: ENDBRANCH   7  10
DOCKED: ENDBRANCH   2   5
DOCKED: ENDBRANCH   1   2
DOCKED: BRANCH   1  15
DOCKED: ATOM     15  N   UNL     1     139.879  73.772 222.202 -0.11 +0.03    -0.337 N  
DOCKED: ATOM     16  C   UNL     1     140.312  72.403 222.156 -0.20 -0.03    +0.270 C  
DOCKED: ATOM     17  H   UNL     1     139.556  74.180 223.108 -0.53 -0.02    +0.164 HD 
DOCKED: ATOM     18  O   UNL     1     140.842  71.949 221.105 -0.13 +0.04    -0.268 OA 
DOCKED: BRANCH  16  19
DOCKED: ATOM     19  C   UNL     1     140.138  71.523 223.331 -0.31 -0.02    +0.128 A  
DOCKED: ATOM     20  N   UNL     1     140.656  71.896 224.535 -0.25 +0.03    -0.243 NA 
DOCKED: ATOM     21  C   UNL     1     139.436  70.308 223.230 -0.25 -0.01    +0.035 A  
DOCKED: ATOM     22  C   UNL     1     140.521  71.131 225.651 -0.53 -0.01    +0.071 A  
DOCKED: ATOM     23  C   UNL     1     139.281  69.501 224.360 -0.33 -0.00    +0.013 A  
DOCKED: ATOM     24  C   UNL     1     141.071  71.556 226.866 -0.72 -0.01    +0.032 A  
DOCKED: ATOM     25  C   UNL     1     139.824  69.905 225.585 -0.46 -0.00    +0.003 A  
DOCKED: ATOM     26  C   UNL     1     140.931  70.767 228.011 -0.64 -0.01    +0.041 A  
DOCKED: ATOM     27  C   UNL     1     139.687  69.118 226.738 -0.51 -0.01    +0.049 A  
DOCKED: ATOM     28  C   UNL     1     140.240  69.551 227.948 -0.52 -0.02    +0.123 A  
DOCKED: ATOM     29  F   UNL     1     140.107  68.791 229.063 -0.14 +0.04    -0.207 F  
DOCKED: ENDBRANCH  16  19
DOCKED: ENDBRANCH   1  15
DOCKED: TORSDOF 6
DOCKED: TER
DOCKED: ENDMDL
________________________________________________________________________________


    FINAL DOCKED STATE:
    ________________________


Run:   4 / 20
Time taken for this run:   0.024s

DOCKED: MODEL        4
DOCKED: USER    Run = 4
DOCKED: USER
DOCKED: USER    Estimated Free Energy of Binding    =  -7.95 kcal/mol  [=(1)+(2)+(3)-(4)]
DOCKED: USER
DOCKED: USER    (1) Final Intermolecular Energy     =  -9.74 kcal/mol
DOCKED: USER        vdW + Hbond + desolv Energy     =  -9.20 kcal/mol
DOCKED: USER        Electrostatic Energy            =  -0.55 kcal/mol
DOCKED: USER        Moving Ligand-Fixed Receptor    =  -9.74 kcal/mol
DOCKED: USER        Moving Ligand-Moving Receptor   =  +0.00 kcal/mol
DOCKED: USER    (2) Final Total Internal Energy     =  -1.86 kcal/mol
DOCKED: USER    (3) Torsional Free Energy           =  +1.79 kcal/mol
DOCKED: USER    (4) Unbound System's Energy         =  -1.86 kcal/mol
DOCKED: USER
DOCKED: USER
DOCKED: REMARK SMILES O=C(NC/C(O)=[N+]1/CCC[C@@H]1c1cscn1)c1ccc2cc(F)ccc2n1
DOCKED: REMARK SMILES IDX 4 1 5 2 6 3 7 5 8 6 11 7 9 8 10 9 12 10 16 11 13 12 15 13
DOCKED: REMARK SMILES IDX 14 14 3 15 2 16 1 18 17 19 27 20 18 21 26 22 19 23 25 24
DOCKED: REMARK SMILES IDX 20 25 24 26 21 27 22 28 23 29
DOCKED: REMARK H PARENT 6 4 3 17
DOCKED: USER                              x       y       z     vdW  Elec       q    Type
DOCKED: USER                           _______ _______ _______ _____ _____    ______ ____
DOCKED: ROOT
DOCKED: ATOM      1  C   UNL     1     140.012  74.689 221.059 -0.16 -0.05    +0.269 C  
DOCKED: ENDROOT
DOCKED: BRANCH   1   2
DOCKED: ATOM      2  C   UNL     1     140.859  75.900 221.367 -0.18 -0.11    +0.354 C  
DOCKED: BRANCH   2   3
DOCKED: ATOM      3  O   UNL     1     141.015  76.225 222.719 -0.16 +0.12    -0.462 OA 
DOCKED: ATOM      4  H   UNL     1     141.817  76.718 223.089 -0.30 -0.18    +0.299 HD 
DOCKED: ENDBRANCH   2   3
DOCKED: BRANCH   2   5
DOCKED: ATOM      5  N   UNL     1     141.442  76.611 220.425 -0.17 +0.09    -0.192 N  
DOCKED: ATOM      6  C   UNL     1     142.567  76.121 219.633 -0.18 -0.19    +0.355 C  
DOCKED: ATOM      7  C   UNL     1     141.029  77.951 219.999 -0.11 -0.14    +0.314 C  
DOCKED: ATOM      8  C   UNL     1     142.949  77.253 218.688 -0.30 -0.06    +0.080 C  
DOCKED: ATOM      9  C   UNL     1     141.756  78.198 218.677 -0.22 -0.05    +0.090 C  
DOCKED: BRANCH   7  10
DOCKED: ATOM     10  C   UNL     1     141.428  78.984 221.021 -0.28 -0.06    +0.119 A  
DOCKED: ATOM     11  N   UNL     1     142.088  78.653 222.166 -0.24 +0.14    -0.243 NA 
DOCKED: ATOM     12  C   UNL     1     141.195  80.345 220.848 -0.27 -0.03    +0.097 A  
DOCKED: ATOM     13  C   UNL     1     142.374  79.734 222.922 -0.48 -0.06    +0.176 A  
DOCKED: ATOM     14  S   UNL     1     141.827  81.141 222.186 -0.52 +0.03    -0.130 S  
DOCKED: ENDBRANCH   7  10
DOCKED: ENDBRANCH   2   5
DOCKED: ENDBRANCH   1   2
DOCKED: BRANCH   1  15
DOCKED: ATOM     15  N   UNL     1     139.928  73.803 222.219 -0.10 +0.03    -0.337 N  
DOCKED: ATOM     16  C   UNL     1     140.387  72.442 222.187 -0.20 -0.03    +0.270 C  
DOCKED: ATOM     17  H   UNL     1     139.555  74.201 223.111 -0.52 -0.02    +0.164 HD 
DOCKED: ATOM     18  O   UNL     1     140.974  72.003 221.160 -0.14 +0.03    -0.268 OA 
DOCKED: BRANCH  16  19
DOCKED: ATOM     19  C   UNL     1     140.174  71.553 223.349 -0.31 -0.02    +0.128 A  
DOCKED: ATOM     20  N   UNL     1     140.681  71.900 224.565 -0.25 +0.03    -0.243 NA 
DOCKED: ATOM     21  C   UNL     1     139.447  70.356 223.222 -0.26 -0.01    +0.035 A  
DOCKED: ATOM     22  C   UNL     1     140.510  71.126 225.670 -0.53 -0.01    +0.071 A  
DOCKED: ATOM     23  C   UNL     1     139.255  69.539 224.339 -0.33 -0.00    +0.013 A  
DOCKED: ATOM     24  C   UNL     1     141.049  71.524 226.898 -0.72 -0.01    +0.032 A  
DOCKED: ATOM     25  C   UNL     1     139.787  69.917 225.578 -0.46 -0.00    +0.003 A  
DOCKED: ATOM     26  C   UNL     1     140.872  70.725 228.032 -0.64 -0.01    +0.041 A  
DOCKED: ATOM     27  C   UNL     1     139.613  69.120 226.720 -0.51 -0.01    +0.049 A  
DOCKED: ATOM     28  C   UNL     1     140.156  69.527 227.943 -0.52 -0.02    +0.123 A  
DOCKED: ATOM     29  F   UNL     1     139.987  68.757 229.047 -0.15 +0.04    -0.207 F  
DOCKED: ENDBRANCH  16  19
DOCKED: ENDBRANCH   1  15
DOCKED: TORSDOF 6
DOCKED: TER
DOCKED: ENDMDL
________________________________________________________________________________


    FINAL DOCKED STATE:
    ________________________


Run:   5 / 20
Time taken for this run:   0.024s

DOCKED: MODEL        5
DOCKED: USER    Run = 5
DOCKED: USER
DOCKED: USER    Estimated Free Energy of Binding    =  -7.92 kcal/mol  [=(1)+(2)+(3)-(4)]
DOCKED: USER
DOCKED: USER    (1) Final Intermolecular Energy     =  -9.71 kcal/mol
DOCKED: USER        vdW + Hbond + desolv Energy     =  -9.23 kcal/mol
DOCKED: USER        Electrostatic Energy            =  -0.48 kcal/mol
DOCKED: USER        Moving Ligand-Fixed Receptor    =  -9.71 kcal/mol
DOCKED: USER        Moving Ligand-Moving Receptor   =  +0.00 kcal/mol
DOCKED: USER    (2) Final Total Internal Energy     =  -1.89 kcal/mol
DOCKED: USER    (3) Torsional Free Energy           =  +1.79 kcal/mol
DOCKED: USER    (4) Unbound System's Energy         =  -1.89 kcal/mol
DOCKED: USER
DOCKED: USER
DOCKED: REMARK SMILES O=C(NC/C(O)=[N+]1/CCC[C@@H]1c1cscn1)c1ccc2cc(F)ccc2n1
DOCKED: REMARK SMILES IDX 4 1 5 2 6 3 7 5 8 6 11 7 9 8 10 9 12 10 16 11 13 12 15 13
DOCKED: REMARK SMILES IDX 14 14 3 15 2 16 1 18 17 19 27 20 18 21 26 22 19 23 25 24
DOCKED: REMARK SMILES IDX 20 25 24 26 21 27 22 28 23 29
DOCKED: REMARK H PARENT 6 4 3 17
DOCKED: USER                              x       y       z     vdW  Elec       q    Type
DOCKED: USER                           _______ _______ _______ _____ _____    ______ ____
DOCKED: ROOT
DOCKED: ATOM      1  C   UNL     1     140.033  74.222 221.120 -0.16 -0.05    +0.269 C  
DOCKED: ENDROOT
DOCKED: BRANCH   1   2
DOCKED: ATOM      2  C   UNL     1     140.344  75.651 221.494 -0.19 -0.08    +0.354 C  
DOCKED: BRANCH   2   3
DOCKED: ATOM      3  O   UNL     1     139.771  76.124 222.679 -0.27 +0.07    -0.462 OA 
DOCKED: ATOM      4  H   UNL     1     140.114  76.929 223.187 +0.16 -0.05    +0.299 HD 
DOCKED: ENDBRANCH   2   3
DOCKED: BRANCH   2   5
DOCKED: ATOM      5  N   UNL     1     141.127  76.416 220.764 -0.18 +0.08    -0.192 N  
DOCKED: ATOM      6  C   UNL     1     142.237  75.898 219.969 -0.15 -0.18    +0.355 C  
DOCKED: ATOM      7  C   UNL     1     140.979  77.865 220.599 -0.13 -0.14    +0.314 C  
DOCKED: ATOM      8  C   UNL     1     142.890  77.106 219.310 -0.28 -0.06    +0.080 C  
DOCKED: ATOM      9  C   UNL     1     141.870  78.230 219.412 -0.24 -0.05    +0.090 C  
DOCKED: BRANCH   7  10
DOCKED: ATOM     10  C   UNL     1     141.428  78.593 221.839 -0.34 -0.06    +0.119 A  
DOCKED: ATOM     11  N   UNL     1     141.353  78.029 223.078 -0.32 +0.09    -0.243 NA 
DOCKED: ATOM     12  C   UNL     1     141.991  79.865 221.805 -0.40 -0.04    +0.097 A  
DOCKED: ATOM     13  C   UNL     1     141.836  78.843 224.040 -0.43 -0.05    +0.176 A  
DOCKED: ATOM     14  S   UNL     1     142.385  80.288 223.382 -0.71 +0.03    -0.130 S  
DOCKED: ENDBRANCH   7  10
DOCKED: ENDBRANCH   2   5
DOCKED: ENDBRANCH   1   2
DOCKED: BRANCH   1  15
DOCKED: ATOM     15  N   UNL     1     139.950  73.377 222.309 -0.15 +0.03    -0.337 N  
DOCKED: ATOM     16  C   UNL     1     140.430  72.023 222.331 -0.20 -0.03    +0.270 C  
DOCKED: ATOM     17  H   UNL     1     139.563  73.801 223.183 -0.50 -0.03    +0.164 HD 
DOCKED: ATOM     18  O   UNL     1     141.033  71.557 221.326 -0.14 +0.03    -0.268 OA 
DOCKED: BRANCH  16  19
DOCKED: ATOM     19  C   UNL     1     140.219  71.173 223.522 -0.31 -0.02    +0.128 A  
DOCKED: ATOM     20  N   UNL     1     140.678  71.587 224.736 -0.30 +0.03    -0.243 NA 
DOCKED: ATOM     21  C   UNL     1     139.541  69.945 223.425 -0.25 -0.01    +0.035 A  
DOCKED: ATOM     22  C   UNL     1     140.507  70.852 225.866 -0.53 -0.01    +0.071 A  
DOCKED: ATOM     23  C   UNL     1     139.350  69.166 224.569 -0.35 -0.00    +0.013 A  
DOCKED: ATOM     24  C   UNL     1     140.996  71.319 227.091 -0.70 -0.01    +0.032 A  
DOCKED: ATOM     25  C   UNL     1     139.833  69.612 225.805 -0.46 -0.00    +0.003 A  
DOCKED: ATOM     26  C   UNL     1     140.819  70.559 228.252 -0.57 -0.01    +0.041 A  
DOCKED: ATOM     27  C   UNL     1     139.658  68.855 226.973 -0.54 -0.01    +0.049 A  
DOCKED: ATOM     28  C   UNL     1     140.151  69.331 228.193 -0.52 -0.02    +0.123 A  
DOCKED: ATOM     29  F   UNL     1     139.981  68.599 229.322 -0.05 +0.03    -0.207 F  
DOCKED: ENDBRANCH  16  19
DOCKED: ENDBRANCH   1  15
DOCKED: TORSDOF 6
DOCKED: TER
DOCKED: ENDMDL
________________________________________________________________________________


    FINAL DOCKED STATE:
    ________________________


Run:   6 / 20
Time taken for this run:   0.024s

DOCKED: MODEL        6
DOCKED: USER    Run = 6
DOCKED: USER
DOCKED: USER    Estimated Free Energy of Binding    =  -7.88 kcal/mol  [=(1)+(2)+(3)-(4)]
DOCKED: USER
DOCKED: USER    (1) Final Intermolecular Energy     =  -9.67 kcal/mol
DOCKED: USER        vdW + Hbond + desolv Energy     =  -9.18 kcal/mol
DOCKED: USER        Electrostatic Energy            =  -0.49 kcal/mol
DOCKED: USER        Moving Ligand-Fixed Receptor    =  -9.67 kcal/mol
DOCKED: USER        Moving Ligand-Moving Receptor   =  +0.00 kcal/mol
DOCKED: USER    (2) Final Total Internal Energy     =  -1.68 kcal/mol
DOCKED: USER    (3) Torsional Free Energy           =  +1.79 kcal/mol
DOCKED: USER    (4) Unbound System's Energy         =  -1.68 kcal/mol
DOCKED: USER
DOCKED: USER
DOCKED: REMARK SMILES O=C(NC/C(O)=[N+]1/CCC[C@@H]1c1cscn1)c1ccc2cc(F)ccc2n1
DOCKED: REMARK SMILES IDX 4 1 5 2 6 3 7 5 8 6 11 7 9 8 10 9 12 10 16 11 13 12 15 13
DOCKED: REMARK SMILES IDX 14 14 3 15 2 16 1 18 17 19 27 20 18 21 26 22 19 23 25 24
DOCKED: REMARK SMILES IDX 20 25 24 26 21 27 22 28 23 29
DOCKED: REMARK H PARENT 6 4 3 17
DOCKED: USER                              x       y       z     vdW  Elec       q    Type
DOCKED: USER                           _______ _______ _______ _____ _____    ______ ____
DOCKED: ROOT
DOCKED: ATOM      1  C   UNL     1     139.235  74.346 221.166 -0.14 -0.06    +0.269 C  
DOCKED: ENDROOT
DOCKED: BRANCH   1   2
DOCKED: ATOM      2  C   UNL     1     139.761  75.699 221.579 -0.18 -0.08    +0.354 C  
DOCKED: BRANCH   2   3
DOCKED: ATOM      3  O   UNL     1     139.190  76.269 222.722 -0.21 +0.09    -0.462 OA 
DOCKED: ATOM      4  H   UNL     1     139.354  77.222 223.017 +0.13 -0.05    +0.299 HD 
DOCKED: ENDBRANCH   2   3
DOCKED: BRANCH   2   5
DOCKED: ATOM      5  N   UNL     1     140.720  76.314 220.919 -0.17 +0.07    -0.192 N  
DOCKED: ATOM      6  C   UNL     1     141.890  75.625 220.381 -0.14 -0.15    +0.355 C  
DOCKED: ATOM      7  C   UNL     1     140.737  77.741 220.586 -0.12 -0.12    +0.314 C  
DOCKED: ATOM      8  C   UNL     1     142.751  76.696 219.725 -0.32 -0.05    +0.080 C  
DOCKED: ATOM      9  C   UNL     1     141.838  77.899 219.538 -0.25 -0.05    +0.090 C  
DOCKED: BRANCH   7  10
DOCKED: ATOM     10  C   UNL     1     141.047  78.571 221.805 -0.31 -0.05    +0.119 A  
DOCKED: ATOM     11  N   UNL     1     140.204  78.631 222.874 -0.23 +0.06    -0.243 NA 
DOCKED: ATOM     12  C   UNL     1     142.228  79.293 221.946 -0.39 -0.05    +0.097 A  
DOCKED: ATOM     13  C   UNL     1     140.690  79.406 223.866 -0.38 -0.03    +0.176 A  
DOCKED: ATOM     14  S   UNL     1     142.192  80.035 223.453 -0.70 +0.03    -0.130 S  
DOCKED: ENDBRANCH   7  10
DOCKED: ENDBRANCH   2   5
DOCKED: ENDBRANCH   1   2
DOCKED: BRANCH   1  15
DOCKED: ATOM     15  N   UNL     1     139.223  73.423 222.298 -0.10 +0.08    -0.337 N  
DOCKED: ATOM     16  C   UNL     1     140.321  72.544 222.591 -0.19 -0.03    +0.270 C  
DOCKED: ATOM     17  H   UNL     1     138.395  73.443 222.936 -0.52 -0.10    +0.164 HD 
DOCKED: ATOM     18  O   UNL     1     141.383  72.622 221.913 -0.25 +0.01    -0.268 OA 
DOCKED: BRANCH  16  19
DOCKED: ATOM     19  C   UNL     1     140.214  71.548 223.678 -0.34 -0.02    +0.128 A  
DOCKED: ATOM     20  N   UNL     1     140.678  71.854 224.921 -0.29 +0.03    -0.243 NA 
DOCKED: ATOM     21  C   UNL     1     139.629  70.289 223.452 -0.27 -0.01    +0.035 A  
DOCKED: ATOM     22  C   UNL     1     140.600  70.981 225.961 -0.55 -0.01    +0.071 A  
DOCKED: ATOM     23  C   UNL     1     139.535  69.370 224.501 -0.34 -0.00    +0.013 A  
DOCKED: ATOM     24  C   UNL     1     141.091  71.341 227.221 -0.71 -0.01    +0.032 A  
DOCKED: ATOM     25  C   UNL     1     140.021  69.708 225.769 -0.47 -0.00    +0.003 A  
DOCKED: ATOM     26  C   UNL     1     141.009  70.441 228.287 -0.54 -0.01    +0.041 A  
DOCKED: ATOM     27  C   UNL     1     139.942  68.809 226.844 -0.56 -0.01    +0.049 A  
DOCKED: ATOM     28  C   UNL     1     140.436  69.179 228.099 -0.53 -0.02    +0.123 A  
DOCKED: ATOM     29  F   UNL     1     140.359  68.310 229.138 -0.15 +0.05    -0.207 F  
DOCKED: ENDBRANCH  16  19
DOCKED: ENDBRANCH   1  15
DOCKED: TORSDOF 6
DOCKED: TER
DOCKED: ENDMDL
________________________________________________________________________________


    FINAL DOCKED STATE:
    ________________________


Run:   7 / 20
Time taken for this run:   0.024s

DOCKED: MODEL        7
DOCKED: USER    Run = 7
DOCKED: USER
DOCKED: USER    Estimated Free Energy of Binding    =  -7.26 kcal/mol  [=(1)+(2)+(3)-(4)]
DOCKED: USER
DOCKED: USER    (1) Final Intermolecular Energy     =  -9.05 kcal/mol
DOCKED: USER        vdW + Hbond + desolv Energy     =  -8.77 kcal/mol
DOCKED: USER        Electrostatic Energy            =  -0.29 kcal/mol
DOCKED: USER        Moving Ligand-Fixed Receptor    =  -9.05 kcal/mol
DOCKED: USER        Moving Ligand-Moving Receptor   =  +0.00 kcal/mol
DOCKED: USER    (2) Final Total Internal Energy     =  -1.90 kcal/mol
DOCKED: USER    (3) Torsional Free Energy           =  +1.79 kcal/mol
DOCKED: USER    (4) Unbound System's Energy         =  -1.90 kcal/mol
DOCKED: USER
DOCKED: USER
DOCKED: REMARK SMILES O=C(NC/C(O)=[N+]1/CCC[C@@H]1c1cscn1)c1ccc2cc(F)ccc2n1
DOCKED: REMARK SMILES IDX 4 1 5 2 6 3 7 5 8 6 11 7 9 8 10 9 12 10 16 11 13 12 15 13
DOCKED: REMARK SMILES IDX 14 14 3 15 2 16 1 18 17 19 27 20 18 21 26 22 19 23 25 24
DOCKED: REMARK SMILES IDX 20 25 24 26 21 27 22 28 23 29
DOCKED: REMARK H PARENT 6 4 3 17
DOCKED: USER                              x       y       z     vdW  Elec       q    Type
DOCKED: USER                           _______ _______ _______ _____ _____    ______ ____
DOCKED: ROOT
DOCKED: ATOM      1  C   UNL     1     138.710  72.556 222.286 -0.10 -0.07    +0.269 C  
DOCKED: ENDROOT
DOCKED: BRANCH   1   2
DOCKED: ATOM      2  C   UNL     1     139.637  71.720 223.133 -0.18 -0.07    +0.354 C  
DOCKED: BRANCH   2   3
DOCKED: ATOM      3  O   UNL     1     140.996  72.048 223.082 -0.15 +0.01    -0.462 OA 
DOCKED: ATOM      4  H   UNL     1     141.450  72.435 222.265 +0.12 -0.00    +0.299 HD 
DOCKED: ENDBRANCH   2   3
DOCKED: BRANCH   2   5
DOCKED: ATOM      5  N   UNL     1     139.202  70.743 223.901 -0.22 +0.04    -0.192 N  
DOCKED: ATOM      6  C   UNL     1     137.805  70.322 223.945 -0.13 -0.06    +0.355 C  
DOCKED: ATOM      7  C   UNL     1     140.041  69.912 224.770 -0.19 -0.05    +0.314 C  
DOCKED: ATOM      8  C   UNL     1     137.730  69.196 224.967 -0.29 -0.01    +0.080 C  
DOCKED: ATOM      9  C   UNL     1     139.164  68.724 225.163 -0.38 -0.01    +0.090 C  
DOCKED: BRANCH   7  10
DOCKED: ATOM     10  C   UNL     1     140.468  70.681 225.994 -0.48 -0.02    +0.119 A  
DOCKED: ATOM     11  N   UNL     1     141.215  71.817 225.912 -0.37 +0.03    -0.243 NA 
DOCKED: ATOM     12  C   UNL     1     140.091  70.315 227.283 -0.51 -0.02    +0.097 A  
DOCKED: ATOM     13  C   UNL     1     141.456  72.359 227.124 -0.58 -0.03    +0.176 A  
DOCKED: ATOM     14  S   UNL     1     140.737  71.450 228.341 -0.76 +0.03    -0.130 S  
DOCKED: ENDBRANCH   7  10
DOCKED: ENDBRANCH   2   5
DOCKED: ENDBRANCH   1   2
DOCKED: BRANCH   1  15
DOCKED: ATOM     15  N   UNL     1     139.180  73.937 222.206 -0.09 +0.08    -0.337 N  
DOCKED: ATOM     16  C   UNL     1     140.248  74.341 221.334 -0.19 -0.04    +0.270 C  
DOCKED: ATOM     17  H   UNL     1     138.684  74.656 222.780 -0.52 -0.07    +0.164 HD 
DOCKED: ATOM     18  O   UNL     1     140.750  73.507 220.531 -0.10 +0.05    -0.268 OA 
DOCKED: BRANCH  16  19
DOCKED: ATOM     19  C   UNL     1     140.765  75.726 221.375 -0.28 -0.04    +0.128 A  
DOCKED: ATOM     20  N   UNL     1     140.346  76.573 222.356 -0.29 +0.06    -0.243 NA 
DOCKED: ATOM     21  C   UNL     1     141.692  76.182 220.421 -0.27 -0.02    +0.035 A  
DOCKED: ATOM     22  C   UNL     1     140.792  77.854 222.448 -0.40 -0.02    +0.071 A  
DOCKED: ATOM     23  C   UNL     1     142.168  77.494 220.489 -0.27 -0.01    +0.013 A  
DOCKED: ATOM     24  C   UNL     1     140.332  78.688 223.474 -0.34 -0.01    +0.032 A  
DOCKED: ATOM     25  C   UNL     1     141.721  78.346 221.505 -0.36 -0.00    +0.003 A  
DOCKED: ATOM     26  C   UNL     1     140.792  80.005 223.564 -0.47 -0.01    +0.041 A  
DOCKED: ATOM     27  C   UNL     1     142.179  79.669 221.602 -0.39 -0.03    +0.049 A  
DOCKED: ATOM     28  C   UNL     1     141.713  80.494 222.631 -0.45 -0.03    +0.123 A  
DOCKED: ATOM     29  F   UNL     1     142.157  81.772 222.726 -0.12 +0.03    -0.207 F  
DOCKED: ENDBRANCH  16  19
DOCKED: ENDBRANCH   1  15
DOCKED: TORSDOF 6
DOCKED: TER
DOCKED: ENDMDL
________________________________________________________________________________


    FINAL DOCKED STATE:
    ________________________


Run:   8 / 20
Time taken for this run:   0.024s

DOCKED: MODEL        8
DOCKED: USER    Run = 8
DOCKED: USER
DOCKED: USER    Estimated Free Energy of Binding    =  -7.10 kcal/mol  [=(1)+(2)+(3)-(4)]
DOCKED: USER
DOCKED: USER    (1) Final Intermolecular Energy     =  -8.89 kcal/mol
DOCKED: USER        vdW + Hbond + desolv Energy     =  -8.46 kcal/mol
DOCKED: USER        Electrostatic Energy            =  -0.43 kcal/mol
DOCKED: USER        Moving Ligand-Fixed Receptor    =  -8.89 kcal/mol
DOCKED: USER        Moving Ligand-Moving Receptor   =  +0.00 kcal/mol
DOCKED: USER    (2) Final Total Internal Energy     =  -2.04 kcal/mol
DOCKED: USER    (3) Torsional Free Energy           =  +1.79 kcal/mol
DOCKED: USER    (4) Unbound System's Energy         =  -2.04 kcal/mol
DOCKED: USER
DOCKED: USER
DOCKED: REMARK SMILES O=C(NC/C(O)=[N+]1/CCC[C@@H]1c1cscn1)c1ccc2cc(F)ccc2n1
DOCKED: REMARK SMILES IDX 4 1 5 2 6 3 7 5 8 6 11 7 9 8 10 9 12 10 16 11 13 12 15 13
DOCKED: REMARK SMILES IDX 14 14 3 15 2 16 1 18 17 19 27 20 18 21 26 22 19 23 25 24
DOCKED: REMARK SMILES IDX 20 25 24 26 21 27 22 28 23 29
DOCKED: REMARK H PARENT 6 4 3 17
DOCKED: USER                              x       y       z     vdW  Elec       q    Type
DOCKED: USER                           _______ _______ _______ _____ _____    ______ ____
DOCKED: ROOT
DOCKED: ATOM      1  C   UNL     1     141.035  74.156 220.802 -0.17 -0.05    +0.269 C  
DOCKED: ENDROOT
DOCKED: BRANCH   1   2
DOCKED: ATOM      2  C   UNL     1     140.868  75.615 221.150 -0.17 -0.10    +0.354 C  
DOCKED: BRANCH   2   3
DOCKED: ATOM      3  O   UNL     1     140.207  75.899 222.350 -0.37 +0.08    -0.462 OA 
DOCKED: ATOM      4  H   UNL     1     140.516  76.600 223.010 +0.14 -0.06    +0.299 HD 
DOCKED: ENDBRANCH   2   3
DOCKED: BRANCH   2   5
DOCKED: ATOM      5  N   UNL     1     141.333  76.580 220.385 -0.16 +0.09    -0.192 N  
DOCKED: ATOM      6  C   UNL     1     142.341  76.365 219.350 -0.16 -0.19    +0.355 C  
DOCKED: ATOM      7  C   UNL     1     140.886  77.975 220.417 -0.12 -0.13    +0.314 C  
DOCKED: ATOM      8  C   UNL     1     142.612  77.729 218.728 -0.28 -0.06    +0.080 C  
DOCKED: ATOM      9  C   UNL     1     141.439  78.607 219.140 -0.20 -0.05    +0.090 C  
DOCKED: BRANCH   7  10
DOCKED: ATOM     10  C   UNL     1     141.426  78.682 221.633 -0.32 -0.06    +0.119 A  
DOCKED: ATOM     11  N   UNL     1     141.245  78.197 222.894 -0.31 +0.09    -0.243 NA 
DOCKED: ATOM     12  C   UNL     1     142.185  79.846 221.553 -0.36 -0.05    +0.097 A  
DOCKED: ATOM     13  C   UNL     1     141.837  78.970 223.828 -0.48 -0.05    +0.176 A  
DOCKED: ATOM     14  S   UNL     1     142.618  80.277 223.119 -0.71 +0.04    -0.130 S  
DOCKED: ENDBRANCH   7  10
DOCKED: ENDBRANCH   2   5
DOCKED: ENDBRANCH   1   2
DOCKED: BRANCH   1  15
DOCKED: ATOM     15  N   UNL     1     140.890  73.316 221.989 -0.15 +0.01    -0.337 N  
DOCKED: ATOM     16  C   UNL     1     140.494  71.938 221.918 -0.18 -0.03    +0.270 C  
DOCKED: ATOM     17  H   UNL     1     141.128  73.737 222.916 +0.16 +0.08    +0.164 HD 
DOCKED: ATOM     18  O   UNL     1     140.351  71.385 220.793 -0.08 +0.04    -0.268 OA 
DOCKED: BRANCH  16  19
DOCKED: ATOM     19  C   UNL     1     140.249  71.164 223.154 -0.26 -0.02    +0.128 A  
DOCKED: ATOM     20  N   UNL     1     140.686  71.649 224.350 -0.27 +0.03    -0.243 NA 
DOCKED: ATOM     21  C   UNL     1     139.563  69.937 223.117 -0.21 -0.01    +0.035 A  
DOCKED: ATOM     22  C   UNL     1     140.483  70.985 225.519 -0.51 -0.01    +0.071 A  
DOCKED: ATOM     23  C   UNL     1     139.340  69.232 224.303 -0.32 -0.00    +0.013 A  
DOCKED: ATOM     24  C   UNL     1     140.950  71.523 226.724 -0.70 -0.01    +0.032 A  
DOCKED: ATOM     25  C   UNL     1     139.800  69.749 225.519 -0.45 -0.00    +0.003 A  
DOCKED: ATOM     26  C   UNL     1     140.741  70.837 227.924 -0.67 -0.01    +0.041 A  
DOCKED: ATOM     27  C   UNL     1     139.593  69.067 226.727 -0.51 -0.01    +0.049 A  
DOCKED: ATOM     28  C   UNL     1     140.064  69.613 227.926 -0.52 -0.02    +0.123 A  
DOCKED: ATOM     29  F   UNL     1     139.863  68.953 229.094 -0.13 +0.03    -0.207 F  
DOCKED: ENDBRANCH  16  19
DOCKED: ENDBRANCH   1  15
DOCKED: TORSDOF 6
DOCKED: TER
DOCKED: ENDMDL
________________________________________________________________________________


    FINAL DOCKED STATE:
    ________________________


Run:   9 / 20
Time taken for this run:   0.024s

DOCKED: MODEL        9
DOCKED: USER    Run = 9
DOCKED: USER
DOCKED: USER    Estimated Free Energy of Binding    =  -8.05 kcal/mol  [=(1)+(2)+(3)-(4)]
DOCKED: USER
DOCKED: USER    (1) Final Intermolecular Energy     =  -9.84 kcal/mol
DOCKED: USER        vdW + Hbond + desolv Energy     =  -9.16 kcal/mol
DOCKED: USER        Electrostatic Energy            =  -0.68 kcal/mol
DOCKED: USER        Moving Ligand-Fixed Receptor    =  -9.84 kcal/mol
DOCKED: USER        Moving Ligand-Moving Receptor   =  +0.00 kcal/mol
DOCKED: USER    (2) Final Total Internal Energy     =  -1.35 kcal/mol
DOCKED: USER    (3) Torsional Free Energy           =  +1.79 kcal/mol
DOCKED: USER    (4) Unbound System's Energy         =  -1.35 kcal/mol
DOCKED: USER
DOCKED: USER
DOCKED: REMARK SMILES O=C(NC/C(O)=[N+]1/CCC[C@@H]1c1cscn1)c1ccc2cc(F)ccc2n1
DOCKED: REMARK SMILES IDX 4 1 5 2 6 3 7 5 8 6 11 7 9 8 10 9 12 10 16 11 13 12 15 13
DOCKED: REMARK SMILES IDX 14 14 3 15 2 16 1 18 17 19 27 20 18 21 26 22 19 23 25 24
DOCKED: REMARK SMILES IDX 20 25 24 26 21 27 22 28 23 29
DOCKED: REMARK H PARENT 6 4 3 17
DOCKED: USER                              x       y       z     vdW  Elec       q    Type
DOCKED: USER                           _______ _______ _______ _____ _____    ______ ____
DOCKED: ROOT
DOCKED: ATOM      1  C   UNL     1     139.632  74.479 221.041 -0.14 -0.05    +0.269 C  
DOCKED: ENDROOT
DOCKED: BRANCH   1   2
DOCKED: ATOM      2  C   UNL     1     140.889  75.315 221.011 -0.16 -0.10    +0.354 C  
DOCKED: BRANCH   2   3
DOCKED: ATOM      3  O   UNL     1     141.278  75.901 222.220 -0.22 +0.15    -0.462 OA 
DOCKED: ATOM      4  H   UNL     1     142.156  76.384 222.353 -0.42 -0.28    +0.299 HD 
DOCKED: ENDBRANCH   2   3
DOCKED: BRANCH   2   5
DOCKED: ATOM      5  N   UNL     1     141.601  75.476 219.916 -0.13 +0.07    -0.192 N  
DOCKED: ATOM      6  C   UNL     1     141.026  75.438 218.574 -0.01 -0.11    +0.355 C  
DOCKED: ATOM      7  C   UNL     1     143.038  75.763 219.877 -0.18 -0.18    +0.314 C  
DOCKED: ATOM      8  C   UNL     1     142.186  75.639 217.607 -0.11 -0.03    +0.080 C  
DOCKED: ATOM      9  C   UNL     1     143.322  76.211 218.443 -0.28 -0.05    +0.090 C  
DOCKED: BRANCH   7  10
DOCKED: ATOM     10  C   UNL     1     143.839  74.532 220.214 -0.35 -0.05    +0.119 A  
DOCKED: ATOM     11  N   UNL     1     143.287  73.286 220.214 -0.15 +0.05    -0.243 NA 
DOCKED: ATOM     12  C   UNL     1     145.200  74.573 220.500 -0.36 -0.04    +0.097 A  
DOCKED: ATOM     13  C   UNL     1     144.189  72.328 220.513 -0.27 -0.02    +0.176 A  
DOCKED: ATOM     14  S   UNL     1     145.708  72.995 220.776 -0.67 +0.01    -0.130 S  
DOCKED: ENDBRANCH   7  10
DOCKED: ENDBRANCH   2   5
DOCKED: ENDBRANCH   1   2
DOCKED: BRANCH   1  15
DOCKED: ATOM     15  N   UNL     1     139.617  73.602 222.210 -0.14 +0.05    -0.337 N  
DOCKED: ATOM     16  C   UNL     1     140.337  72.360 222.254 -0.21 -0.03    +0.270 C  
DOCKED: ATOM     17  H   UNL     1     139.091  73.924 223.055 -0.54 -0.08    +0.164 HD 
DOCKED: ATOM     18  O   UNL     1     141.093  72.041 221.295 -0.15 +0.03    -0.268 OA 
DOCKED: BRANCH  16  19
DOCKED: ATOM     19  C   UNL     1     140.198  71.454 223.414 -0.32 -0.02    +0.128 A  
DOCKED: ATOM     20  N   UNL     1     140.678  71.837 224.630 -0.27 +0.03    -0.243 NA 
DOCKED: ATOM     21  C   UNL     1     139.566  70.204 223.285 -0.25 -0.01    +0.035 A  
DOCKED: ATOM     22  C   UNL     1     140.571  71.049 225.733 -0.54 -0.01    +0.071 A  
DOCKED: ATOM     23  C   UNL     1     139.442  69.372 224.400 -0.33 -0.00    +0.013 A  
DOCKED: ATOM     24  C   UNL     1     141.080  71.485 226.962 -0.72 -0.01    +0.032 A  
DOCKED: ATOM     25  C   UNL     1     139.945  69.787 225.639 -0.46 -0.00    +0.003 A  
DOCKED: ATOM     26  C   UNL     1     140.969  70.672 228.093 -0.61 -0.01    +0.041 A  
DOCKED: ATOM     27  C   UNL     1     139.837  68.976 226.779 -0.53 -0.01    +0.049 A  
DOCKED: ATOM     28  C   UNL     1     140.349  69.421 228.002 -0.52 -0.02    +0.123 A  
DOCKED: ATOM     29  F   UNL     1     140.244  68.637 229.104 -0.14 +0.04    -0.207 F  
DOCKED: ENDBRANCH  16  19
DOCKED: ENDBRANCH   1  15
DOCKED: TORSDOF 6
DOCKED: TER
DOCKED: ENDMDL
________________________________________________________________________________


    FINAL DOCKED STATE:
    ________________________


Run:   10 / 20
Time taken for this run:   0.024s

DOCKED: MODEL        10
DOCKED: USER    Run = 10
DOCKED: USER
DOCKED: USER    Estimated Free Energy of Binding    =  -7.84 kcal/mol  [=(1)+(2)+(3)-(4)]
DOCKED: USER
DOCKED: USER    (1) Final Intermolecular Energy     =  -9.63 kcal/mol
DOCKED: USER        vdW + Hbond + desolv Energy     =  -9.15 kcal/mol
DOCKED: USER        Electrostatic Energy            =  -0.48 kcal/mol
DOCKED: USER        Moving Ligand-Fixed Receptor    =  -9.63 kcal/mol
DOCKED: USER        Moving Ligand-Moving Receptor   =  +0.00 kcal/mol
DOCKED: USER    (2) Final Total Internal Energy     =  -1.98 kcal/mol
DOCKED: USER    (3) Torsional Free Energy           =  +1.79 kcal/mol
DOCKED: USER    (4) Unbound System's Energy         =  -1.98 kcal/mol
DOCKED: USER
DOCKED: USER
DOCKED: REMARK SMILES O=C(NC/C(O)=[N+]1/CCC[C@@H]1c1cscn1)c1ccc2cc(F)ccc2n1
DOCKED: REMARK SMILES IDX 4 1 5 2 6 3 7 5 8 6 11 7 9 8 10 9 12 10 16 11 13 12 15 13
DOCKED: REMARK SMILES IDX 14 14 3 15 2 16 1 18 17 19 27 20 18 21 26 22 19 23 25 24
DOCKED: REMARK SMILES IDX 20 25 24 26 21 27 22 28 23 29
DOCKED: REMARK H PARENT 6 4 3 17
DOCKED: USER                              x       y       z     vdW  Elec       q    Type
DOCKED: USER                           _______ _______ _______ _____ _____    ______ ____
DOCKED: ROOT
DOCKED: ATOM      1  C   UNL     1     140.227  74.375 221.072 -0.17 -0.05    +0.269 C  
DOCKED: ENDROOT
DOCKED: BRANCH   1   2
DOCKED: ATOM      2  C   UNL     1     140.359  75.834 221.437 -0.19 -0.09    +0.354 C  
DOCKED: BRANCH   2   3
DOCKED: ATOM      3  O   UNL     1     139.751  76.236 222.631 -0.25 +0.08    -0.462 OA 
DOCKED: ATOM      4  H   UNL     1     140.066  77.021 223.186 +0.16 -0.05    +0.299 HD 
DOCKED: ENDBRANCH   2   3
DOCKED: BRANCH   2   5
DOCKED: ATOM      5  N   UNL     1     141.025  76.690 220.691 -0.16 +0.08    -0.192 N  
DOCKED: ATOM      6  C   UNL     1     142.048  76.287 219.729 -0.14 -0.18    +0.355 C  
DOCKED: ATOM      7  C   UNL     1     140.814  78.140 220.673 -0.12 -0.13    +0.314 C  
DOCKED: ATOM      8  C   UNL     1     142.580  77.572 219.108 -0.27 -0.06    +0.080 C  
DOCKED: ATOM      9  C   UNL     1     141.545  78.641 219.428 -0.23 -0.05    +0.090 C  
DOCKED: BRANCH   7  10
DOCKED: ATOM     10  C   UNL     1     141.384  78.780 221.913 -0.34 -0.05    +0.119 A  
DOCKED: ATOM     11  N   UNL     1     141.200  78.247 223.153 -0.32 +0.08    -0.243 NA 
DOCKED: ATOM     12  C   UNL     1     142.175  79.924 221.875 -0.42 -0.04    +0.097 A  
DOCKED: ATOM     13  C   UNL     1     141.822  78.962 224.114 -0.43 -0.05    +0.176 A  
DOCKED: ATOM     14  S   UNL     1     142.634  80.275 223.453 -0.72 +0.03    -0.130 S  
DOCKED: ENDBRANCH   7  10
DOCKED: ENDBRANCH   2   5
DOCKED: ENDBRANCH   1   2
DOCKED: BRANCH   1  15
DOCKED: ATOM     15  N   UNL     1     140.051  73.553 222.266 -0.11 +0.02    -0.337 N  
DOCKED: ATOM     16  C   UNL     1     140.578  72.220 222.372 -0.20 -0.03    +0.270 C  
DOCKED: ATOM     17  H   UNL     1     139.557  73.978 223.083 -0.51 -0.02    +0.164 HD 
DOCKED: ATOM     18  O   UNL     1     141.302  71.759 221.447 -0.16 +0.03    -0.268 OA 
DOCKED: BRANCH  16  19
DOCKED: ATOM     19  C   UNL     1     140.275  71.387 223.555 -0.32 -0.02    +0.128 A  
DOCKED: ATOM     20  N   UNL     1     140.667  71.803 224.791 -0.28 +0.03    -0.243 NA 
DOCKED: ATOM     21  C   UNL     1     139.577  70.172 223.426 -0.26 -0.01    +0.035 A  
DOCKED: ATOM     22  C   UNL     1     140.409  71.082 225.915 -0.54 -0.01    +0.071 A  
DOCKED: ATOM     23  C   UNL     1     139.299  69.409 224.562 -0.35 -0.00    +0.013 A  
DOCKED: ATOM     24  C   UNL     1     140.832  71.550 227.164 -0.73 -0.01    +0.032 A  
DOCKED: ATOM     25  C   UNL     1     139.713  69.857 225.822 -0.47 -0.00    +0.003 A  
DOCKED: ATOM     26  C   UNL     1     140.566  70.806 228.317 -0.59 -0.01    +0.041 A  
DOCKED: ATOM     27  C   UNL     1     139.449  69.115 226.983 -0.49 -0.01    +0.049 A  
DOCKED: ATOM     28  C   UNL     1     139.877  69.592 228.227 -0.51 -0.02    +0.123 A  
DOCKED: ATOM     29  F   UNL     1     139.621  68.875 229.350 -0.02 +0.03    -0.207 F  
DOCKED: ENDBRANCH  16  19
DOCKED: ENDBRANCH   1  15
DOCKED: TORSDOF 6
DOCKED: TER
DOCKED: ENDMDL
________________________________________________________________________________


    FINAL DOCKED STATE:
    ________________________


Run:   11 / 20
Time taken for this run:   0.024s

DOCKED: MODEL        11
DOCKED: USER    Run = 11
DOCKED: USER
DOCKED: USER    Estimated Free Energy of Binding    =  -7.94 kcal/mol  [=(1)+(2)+(3)-(4)]
DOCKED: USER
DOCKED: USER    (1) Final Intermolecular Energy     =  -9.73 kcal/mol
DOCKED: USER        vdW + Hbond + desolv Energy     =  -9.24 kcal/mol
DOCKED: USER        Electrostatic Energy            =  -0.49 kcal/mol
DOCKED: USER        Moving Ligand-Fixed Receptor    =  -9.73 kcal/mol
DOCKED: USER        Moving Ligand-Moving Receptor   =  +0.00 kcal/mol
DOCKED: USER    (2) Final Total Internal Energy     =  -1.87 kcal/mol
DOCKED: USER    (3) Torsional Free Energy           =  +1.79 kcal/mol
DOCKED: USER    (4) Unbound System's Energy         =  -1.87 kcal/mol
DOCKED: USER
DOCKED: USER
DOCKED: REMARK SMILES O=C(NC/C(O)=[N+]1/CCC[C@@H]1c1cscn1)c1ccc2cc(F)ccc2n1
DOCKED: REMARK SMILES IDX 4 1 5 2 6 3 7 5 8 6 11 7 9 8 10 9 12 10 16 11 13 12 15 13
DOCKED: REMARK SMILES IDX 14 14 3 15 2 16 1 18 17 19 27 20 18 21 26 22 19 23 25 24
DOCKED: REMARK SMILES IDX 20 25 24 26 21 27 22 28 23 29
DOCKED: REMARK H PARENT 6 4 3 17
DOCKED: USER                              x       y       z     vdW  Elec       q    Type
DOCKED: USER                           _______ _______ _______ _____ _____    ______ ____
DOCKED: ROOT
DOCKED: ATOM      1  C   UNL     1     140.056  74.206 221.136 -0.16 -0.05    +0.269 C  
DOCKED: ENDROOT
DOCKED: BRANCH   1   2
DOCKED: ATOM      2  C   UNL     1     140.369  75.633 221.515 -0.19 -0.08    +0.354 C  
DOCKED: BRANCH   2   3
DOCKED: ATOM      3  O   UNL     1     139.806  76.101 222.706 -0.28 +0.07    -0.462 OA 
DOCKED: ATOM      4  H   UNL     1     140.113  76.938 223.183 +0.16 -0.05    +0.299 HD 
DOCKED: ENDBRANCH   2   3
DOCKED: BRANCH   2   5
DOCKED: ATOM      5  N   UNL     1     141.147  76.402 220.782 -0.18 +0.08    -0.192 N  
DOCKED: ATOM      6  C   UNL     1     142.253  75.888 219.979 -0.15 -0.18    +0.355 C  
DOCKED: ATOM      7  C   UNL     1     140.995  77.851 220.622 -0.13 -0.14    +0.314 C  
DOCKED: ATOM      8  C   UNL     1     142.900  77.099 219.319 -0.28 -0.06    +0.080 C  
DOCKED: ATOM      9  C   UNL     1     141.878  78.222 219.431 -0.24 -0.06    +0.090 C  
DOCKED: BRANCH   7  10
DOCKED: ATOM     10  C   UNL     1     141.449  78.577 221.862 -0.35 -0.06    +0.119 A  
DOCKED: ATOM     11  N   UNL     1     141.350  78.023 223.103 -0.32 +0.09    -0.243 NA 
DOCKED: ATOM     12  C   UNL     1     142.043  79.835 221.824 -0.41 -0.04    +0.097 A  
DOCKED: ATOM     13  C   UNL     1     141.844  78.831 224.064 -0.42 -0.05    +0.176 A  
DOCKED: ATOM     14  S   UNL     1     142.433  80.259 223.403 -0.71 +0.03    -0.130 S  
DOCKED: ENDBRANCH   7  10
DOCKED: ENDBRANCH   2   5
DOCKED: ENDBRANCH   1   2
DOCKED: BRANCH   1  15
DOCKED: ATOM     15  N   UNL     1     139.966  73.359 222.324 -0.15 +0.03    -0.337 N  
DOCKED: ATOM     16  C   UNL     1     140.463  72.011 222.352 -0.20 -0.03    +0.270 C  
DOCKED: ATOM     17  H   UNL     1     139.559  73.777 223.191 -0.50 -0.03    +0.164 HD 
DOCKED: ATOM     18  O   UNL     1     141.089  71.554 221.356 -0.14 +0.03    -0.268 OA 
DOCKED: BRANCH  16  19
DOCKED: ATOM     19  C   UNL     1     140.245  71.157 223.539 -0.31 -0.02    +0.128 A  
DOCKED: ATOM     20  N   UNL     1     140.714  71.558 224.753 -0.30 +0.03    -0.243 NA 
DOCKED: ATOM     21  C   UNL     1     139.550  69.939 223.437 -0.25 -0.01    +0.035 A  
DOCKED: ATOM     22  C   UNL     1     140.536  70.818 225.880 -0.53 -0.01    +0.071 A  
DOCKED: ATOM     23  C   UNL     1     139.352  69.156 224.577 -0.35 -0.00    +0.013 A  
DOCKED: ATOM     24  C   UNL     1     141.037  71.272 227.106 -0.70 -0.01    +0.032 A  
DOCKED: ATOM     25  C   UNL     1     139.845  69.589 225.814 -0.47 -0.00    +0.003 A  
DOCKED: ATOM     26  C   UNL     1     140.853  70.508 228.262 -0.56 -0.01    +0.041 A  
DOCKED: ATOM     27  C   UNL     1     139.664  68.827 226.978 -0.54 -0.01    +0.049 A  
DOCKED: ATOM     28  C   UNL     1     140.168  69.289 228.199 -0.53 -0.02    +0.123 A  
DOCKED: ATOM     29  F   UNL     1     139.992  68.553 229.325 -0.06 +0.03    -0.207 F  
DOCKED: ENDBRANCH  16  19
DOCKED: ENDBRANCH   1  15
DOCKED: TORSDOF 6
DOCKED: TER
DOCKED: ENDMDL
________________________________________________________________________________


    FINAL DOCKED STATE:
    ________________________


Run:   12 / 20
Time taken for this run:   0.024s

DOCKED: MODEL        12
DOCKED: USER    Run = 12
DOCKED: USER
DOCKED: USER    Estimated Free Energy of Binding    =  -7.85 kcal/mol  [=(1)+(2)+(3)-(4)]
DOCKED: USER
DOCKED: USER    (1) Final Intermolecular Energy     =  -9.63 kcal/mol
DOCKED: USER        vdW + Hbond + desolv Energy     =  -9.16 kcal/mol
DOCKED: USER        Electrostatic Energy            =  -0.48 kcal/mol
DOCKED: USER        Moving Ligand-Fixed Receptor    =  -9.63 kcal/mol
DOCKED: USER        Moving Ligand-Moving Receptor   =  +0.00 kcal/mol
DOCKED: USER    (2) Final Total Internal Energy     =  -1.98 kcal/mol
DOCKED: USER    (3) Torsional Free Energy           =  +1.79 kcal/mol
DOCKED: USER    (4) Unbound System's Energy         =  -1.98 kcal/mol
DOCKED: USER
DOCKED: USER
DOCKED: REMARK SMILES O=C(NC/C(O)=[N+]1/CCC[C@@H]1c1cscn1)c1ccc2cc(F)ccc2n1
DOCKED: REMARK SMILES IDX 4 1 5 2 6 3 7 5 8 6 11 7 9 8 10 9 12 10 16 11 13 12 15 13
DOCKED: REMARK SMILES IDX 14 14 3 15 2 16 1 18 17 19 27 20 18 21 26 22 19 23 25 24
DOCKED: REMARK SMILES IDX 20 25 24 26 21 27 22 28 23 29
DOCKED: REMARK H PARENT 6 4 3 17
DOCKED: USER                              x       y       z     vdW  Elec       q    Type
DOCKED: USER                           _______ _______ _______ _____ _____    ______ ____
DOCKED: ROOT
DOCKED: ATOM      1  C   UNL     1     140.188  74.356 221.085 -0.17 -0.05    +0.269 C  
DOCKED: ENDROOT
DOCKED: BRANCH   1   2
DOCKED: ATOM      2  C   UNL     1     140.337  75.814 221.445 -0.19 -0.09    +0.354 C  
DOCKED: BRANCH   2   3
DOCKED: ATOM      3  O   UNL     1     139.726  76.230 222.633 -0.25 +0.08    -0.462 OA 
DOCKED: ATOM      4  H   UNL     1     140.044  77.015 223.184 +0.16 -0.05    +0.299 HD 
DOCKED: ENDBRANCH   2   3
DOCKED: BRANCH   2   5
DOCKED: ATOM      5  N   UNL     1     141.022  76.658 220.702 -0.16 +0.08    -0.192 N  
DOCKED: ATOM      6  C   UNL     1     142.047  76.236 219.751 -0.14 -0.18    +0.355 C  
DOCKED: ATOM      7  C   UNL     1     140.829  78.110 220.675 -0.13 -0.13    +0.314 C  
DOCKED: ATOM      8  C   UNL     1     142.601  77.511 219.128 -0.27 -0.06    +0.080 C  
DOCKED: ATOM      9  C   UNL     1     141.577  78.595 219.434 -0.23 -0.05    +0.090 C  
DOCKED: BRANCH   7  10
DOCKED: ATOM     10  C   UNL     1     141.397  78.748 221.917 -0.35 -0.05    +0.119 A  
DOCKED: ATOM     11  N   UNL     1     141.204  78.218 223.157 -0.32 +0.08    -0.243 NA 
DOCKED: ATOM     12  C   UNL     1     142.194  79.888 221.881 -0.42 -0.04    +0.097 A  
DOCKED: ATOM     13  C   UNL     1     141.826  78.930 224.120 -0.43 -0.05    +0.176 A  
DOCKED: ATOM     14  S   UNL     1     142.648  80.239 223.461 -0.72 +0.03    -0.130 S  
DOCKED: ENDBRANCH   7  10
DOCKED: ENDBRANCH   2   5
DOCKED: ENDBRANCH   1   2
DOCKED: BRANCH   1  15
DOCKED: ATOM     15  N   UNL     1     140.027  73.536 222.284 -0.12 +0.03    -0.337 N  
DOCKED: ATOM     16  C   UNL     1     140.537  72.197 222.379 -0.20 -0.03    +0.270 C  
DOCKED: ATOM     17  H   UNL     1     139.556  73.969 223.111 -0.52 -0.02    +0.164 HD 
DOCKED: ATOM     18  O   UNL     1     141.235  71.725 221.440 -0.15 +0.03    -0.268 OA 
DOCKED: BRANCH  16  19
DOCKED: ATOM     19  C   UNL     1     140.247  71.368 223.569 -0.32 -0.02    +0.128 A  
DOCKED: ATOM     20  N   UNL     1     140.641  71.796 224.801 -0.28 +0.03    -0.243 NA 
DOCKED: ATOM     21  C   UNL     1     139.561  70.146 223.451 -0.27 -0.01    +0.035 A  
DOCKED: ATOM     22  C   UNL     1     140.396  71.081 225.930 -0.54 -0.01    +0.071 A  
DOCKED: ATOM     23  C   UNL     1     139.295  69.388 224.594 -0.35 -0.00    +0.013 A  
DOCKED: ATOM     24  C   UNL     1     140.820  71.561 227.174 -0.74 -0.01    +0.032 A  
DOCKED: ATOM     25  C   UNL     1     139.711  69.848 225.849 -0.47 -0.00    +0.003 A  
DOCKED: ATOM     26  C   UNL     1     140.567  70.822 228.334 -0.58 -0.01    +0.041 A  
DOCKED: ATOM     27  C   UNL     1     139.460  69.112 227.016 -0.49 -0.01    +0.049 A  
DOCKED: ATOM     28  C   UNL     1     139.889  69.601 228.255 -0.51 -0.02    +0.123 A  
DOCKED: ATOM     29  F   UNL     1     139.645  68.889 229.384 -0.01 +0.03    -0.207 F  
DOCKED: ENDBRANCH  16  19
DOCKED: ENDBRANCH   1  15
DOCKED: TORSDOF 6
DOCKED: TER
DOCKED: ENDMDL
________________________________________________________________________________


    FINAL DOCKED STATE:
    ________________________


Run:   13 / 20
Time taken for this run:   0.024s

DOCKED: MODEL        13
DOCKED: USER    Run = 13
DOCKED: USER
DOCKED: USER    Estimated Free Energy of Binding    =  -7.93 kcal/mol  [=(1)+(2)+(3)-(4)]
DOCKED: USER
DOCKED: USER    (1) Final Intermolecular Energy     =  -9.72 kcal/mol
DOCKED: USER        vdW + Hbond + desolv Energy     =  -9.18 kcal/mol
DOCKED: USER        Electrostatic Energy            =  -0.55 kcal/mol
DOCKED: USER        Moving Ligand-Fixed Receptor    =  -9.72 kcal/mol
DOCKED: USER        Moving Ligand-Moving Receptor   =  +0.00 kcal/mol
DOCKED: USER    (2) Final Total Internal Energy     =  -1.87 kcal/mol
DOCKED: USER    (3) Torsional Free Energy           =  +1.79 kcal/mol
DOCKED: USER    (4) Unbound System's Energy         =  -1.87 kcal/mol
DOCKED: USER
DOCKED: USER
DOCKED: REMARK SMILES O=C(NC/C(O)=[N+]1/CCC[C@@H]1c1cscn1)c1ccc2cc(F)ccc2n1
DOCKED: REMARK SMILES IDX 4 1 5 2 6 3 7 5 8 6 11 7 9 8 10 9 12 10 16 11 13 12 15 13
DOCKED: REMARK SMILES IDX 14 14 3 15 2 16 1 18 17 19 27 20 18 21 26 22 19 23 25 24
DOCKED: REMARK SMILES IDX 20 25 24 26 21 27 22 28 23 29
DOCKED: REMARK H PARENT 6 4 3 17
DOCKED: USER                              x       y       z     vdW  Elec       q    Type
DOCKED: USER                           _______ _______ _______ _____ _____    ______ ____
DOCKED: ROOT
DOCKED: ATOM      1  C   UNL     1     140.010  74.693 221.064 -0.16 -0.05    +0.269 C  
DOCKED: ENDROOT
DOCKED: BRANCH   1   2
DOCKED: ATOM      2  C   UNL     1     140.872  75.897 221.360 -0.18 -0.11    +0.354 C  
DOCKED: BRANCH   2   3
DOCKED: ATOM      3  O   UNL     1     141.033  76.231 222.708 -0.16 +0.13    -0.462 OA 
DOCKED: ATOM      4  H   UNL     1     141.825  76.747 223.069 -0.30 -0.18    +0.299 HD 
DOCKED: ENDBRANCH   2   3
DOCKED: BRANCH   2   5
DOCKED: ATOM      5  N   UNL     1     141.462  76.592 220.411 -0.17 +0.09    -0.192 N  
DOCKED: ATOM      6  C   UNL     1     142.591  76.087 219.634 -0.18 -0.19    +0.355 C  
DOCKED: ATOM      7  C   UNL     1     141.055  77.926 219.963 -0.11 -0.14    +0.314 C  
DOCKED: ATOM      8  C   UNL     1     142.982  77.204 218.675 -0.29 -0.06    +0.080 C  
DOCKED: ATOM      9  C   UNL     1     141.791  78.151 218.642 -0.22 -0.05    +0.090 C  
DOCKED: BRANCH   7  10
DOCKED: ATOM     10  C   UNL     1     141.450  78.973 220.972 -0.28 -0.06    +0.119 A  
DOCKED: ATOM     11  N   UNL     1     142.132  78.662 222.110 -0.24 +0.15    -0.243 NA 
DOCKED: ATOM     12  C   UNL     1     141.193  80.329 220.792 -0.26 -0.03    +0.097 A  
DOCKED: ATOM     13  C   UNL     1     142.410  79.753 222.854 -0.48 -0.07    +0.176 A  
DOCKED: ATOM     14  S   UNL     1     141.828  81.146 222.116 -0.52 +0.03    -0.130 S  
DOCKED: ENDBRANCH   7  10
DOCKED: ENDBRANCH   2   5
DOCKED: ENDBRANCH   1   2
DOCKED: BRANCH   1  15
DOCKED: ATOM     15  N   UNL     1     139.933  73.808 222.224 -0.10 +0.03    -0.337 N  
DOCKED: ATOM     16  C   UNL     1     140.395  72.448 222.190 -0.20 -0.03    +0.270 C  
DOCKED: ATOM     17  H   UNL     1     139.564  74.205 223.117 -0.52 -0.01    +0.164 HD 
DOCKED: ATOM     18  O   UNL     1     140.978  72.010 221.161 -0.14 +0.03    -0.268 OA 
DOCKED: BRANCH  16  19
DOCKED: ATOM     19  C   UNL     1     140.190  71.559 223.354 -0.32 -0.02    +0.128 A  
DOCKED: ATOM     20  N   UNL     1     140.694  71.912 224.569 -0.24 +0.03    -0.243 NA 
DOCKED: ATOM     21  C   UNL     1     139.472  70.356 223.229 -0.26 -0.01    +0.035 A  
DOCKED: ATOM     22  C   UNL     1     140.530  71.138 225.675 -0.53 -0.01    +0.071 A  
DOCKED: ATOM     23  C   UNL     1     139.288  69.540 224.348 -0.33 -0.00    +0.013 A  
DOCKED: ATOM     24  C   UNL     1     141.067  71.542 226.903 -0.72 -0.01    +0.032 A  
DOCKED: ATOM     25  C   UNL     1     139.817  69.923 225.585 -0.46 -0.00    +0.003 A  
DOCKED: ATOM     26  C   UNL     1     140.898  70.744 228.038 -0.64 -0.01    +0.041 A  
DOCKED: ATOM     27  C   UNL     1     139.650  69.127 226.729 -0.51 -0.01    +0.049 A  
DOCKED: ATOM     28  C   UNL     1     140.191  69.539 227.951 -0.52 -0.02    +0.123 A  
DOCKED: ATOM     29  F   UNL     1     140.029  68.770 229.056 -0.14 +0.04    -0.207 F  
DOCKED: ENDBRANCH  16  19
DOCKED: ENDBRANCH   1  15
DOCKED: TORSDOF 6
DOCKED: TER
DOCKED: ENDMDL
________________________________________________________________________________


    FINAL DOCKED STATE:
    ________________________


Run:   14 / 20
Time taken for this run:   0.024s

DOCKED: MODEL        14
DOCKED: USER    Run = 14
DOCKED: USER
DOCKED: USER    Estimated Free Energy of Binding    =  -7.86 kcal/mol  [=(1)+(2)+(3)-(4)]
DOCKED: USER
DOCKED: USER    (1) Final Intermolecular Energy     =  -9.65 kcal/mol
DOCKED: USER        vdW + Hbond + desolv Energy     =  -9.13 kcal/mol
DOCKED: USER        Electrostatic Energy            =  -0.52 kcal/mol
DOCKED: USER        Moving Ligand-Fixed Receptor    =  -9.65 kcal/mol
DOCKED: USER        Moving Ligand-Moving Receptor   =  +0.00 kcal/mol
DOCKED: USER    (2) Final Total Internal Energy     =  -1.94 kcal/mol
DOCKED: USER    (3) Torsional Free Energy           =  +1.79 kcal/mol
DOCKED: USER    (4) Unbound System's Energy         =  -1.94 kcal/mol
DOCKED: USER
DOCKED: USER
DOCKED: REMARK SMILES O=C(NC/C(O)=[N+]1/CCC[C@@H]1c1cscn1)c1ccc2cc(F)ccc2n1
DOCKED: REMARK SMILES IDX 4 1 5 2 6 3 7 5 8 6 11 7 9 8 10 9 12 10 16 11 13 12 15 13
DOCKED: REMARK SMILES IDX 14 14 3 15 2 16 1 18 17 19 27 20 18 21 26 22 19 23 25 24
DOCKED: REMARK SMILES IDX 20 25 24 26 21 27 22 28 23 29
DOCKED: REMARK H PARENT 6 4 3 17
DOCKED: USER                              x       y       z     vdW  Elec       q    Type
DOCKED: USER                           _______ _______ _______ _____ _____    ______ ____
DOCKED: ROOT
DOCKED: ATOM      1  C   UNL     1     140.120  74.693 221.023 -0.16 -0.05    +0.269 C  
DOCKED: ENDROOT
DOCKED: BRANCH   1   2
DOCKED: ATOM      2  C   UNL     1     140.861  75.963 221.364 -0.18 -0.11    +0.354 C  
DOCKED: BRANCH   2   3
DOCKED: ATOM      3  O   UNL     1     140.992  76.265 222.723 -0.17 +0.13    -0.462 OA 
DOCKED: ATOM      4  H   UNL     1     141.812  76.697 223.127 -0.29 -0.17    +0.299 HD 
DOCKED: ENDBRANCH   2   3
DOCKED: BRANCH   2   5
DOCKED: ATOM      5  N   UNL     1     141.380  76.746 220.441 -0.17 +0.09    -0.192 N  
DOCKED: ATOM      6  C   UNL     1     142.443  76.319 219.535 -0.17 -0.19    +0.355 C  
DOCKED: ATOM      7  C   UNL     1     140.946  78.115 220.152 -0.11 -0.14    +0.314 C  
DOCKED: ATOM      8  C   UNL     1     142.764  77.521 218.657 -0.28 -0.06    +0.080 C  
DOCKED: ATOM      9  C   UNL     1     141.579  78.465 218.805 -0.20 -0.05    +0.090 C  
DOCKED: BRANCH   7  10
DOCKED: ATOM     10  C   UNL     1     141.423  79.065 221.221 -0.29 -0.06    +0.119 A  
DOCKED: ATOM     11  N   UNL     1     142.184  78.648 222.272 -0.23 +0.15    -0.243 NA 
DOCKED: ATOM     12  C   UNL     1     141.164  80.431 221.186 -0.28 -0.03    +0.097 A  
DOCKED: ATOM     13  C   UNL     1     142.525  79.666 223.090 -0.49 -0.06    +0.176 A  
DOCKED: ATOM     14  S   UNL     1     141.902  81.121 222.529 -0.56 +0.03    -0.130 S  
DOCKED: ENDBRANCH   7  10
DOCKED: ENDBRANCH   2   5
DOCKED: ENDBRANCH   1   2
DOCKED: BRANCH   1  15
DOCKED: ATOM     15  N   UNL     1     140.012  73.823 222.192 -0.09 +0.02    -0.337 N  
DOCKED: ATOM     16  C   UNL     1     140.416  72.445 222.170 -0.20 -0.03    +0.270 C  
DOCKED: ATOM     17  H   UNL     1     139.664  74.244 223.083 -0.46 +0.00    +0.164 HD 
DOCKED: ATOM     18  O   UNL     1     140.975  71.973 221.142 -0.13 +0.03    -0.268 OA 
DOCKED: BRANCH  16  19
DOCKED: ATOM     19  C   UNL     1     140.180  71.576 223.343 -0.31 -0.02    +0.128 A  
DOCKED: ATOM     20  N   UNL     1     140.707  71.917 224.552 -0.23 +0.03    -0.243 NA 
DOCKED: ATOM     21  C   UNL     1     139.408  70.405 223.234 -0.26 -0.01    +0.035 A  
DOCKED: ATOM     22  C   UNL     1     140.517  71.161 225.666 -0.53 -0.01    +0.071 A  
DOCKED: ATOM     23  C   UNL     1     139.195  69.608 224.362 -0.33 -0.00    +0.013 A  
DOCKED: ATOM     24  C   UNL     1     141.079  71.552 226.886 -0.72 -0.01    +0.032 A  
DOCKED: ATOM     25  C   UNL     1     139.750  69.979 225.592 -0.46 -0.00    +0.003 A  
DOCKED: ATOM     26  C   UNL     1     140.882  70.772 228.030 -0.64 -0.01    +0.041 A  
DOCKED: ATOM     27  C   UNL     1     139.555  69.201 226.744 -0.50 -0.01    +0.049 A  
DOCKED: ATOM     28  C   UNL     1     140.122  69.600 227.959 -0.52 -0.02    +0.123 A  
DOCKED: ATOM     29  F   UNL     1     139.933  68.848 229.072 -0.14 +0.03    -0.207 F  
DOCKED: ENDBRANCH  16  19
DOCKED: ENDBRANCH   1  15
DOCKED: TORSDOF 6
DOCKED: TER
DOCKED: ENDMDL
________________________________________________________________________________


    FINAL DOCKED STATE:
    ________________________


Run:   15 / 20
Time taken for this run:   0.024s

DOCKED: MODEL        15
DOCKED: USER    Run = 15
DOCKED: USER
DOCKED: USER    Estimated Free Energy of Binding    =  -8.56 kcal/mol  [=(1)+(2)+(3)-(4)]
DOCKED: USER
DOCKED: USER    (1) Final Intermolecular Energy     = -10.35 kcal/mol
DOCKED: USER        vdW + Hbond + desolv Energy     =  -9.85 kcal/mol
DOCKED: USER        Electrostatic Energy            =  -0.50 kcal/mol
DOCKED: USER        Moving Ligand-Fixed Receptor    = -10.35 kcal/mol
DOCKED: USER        Moving Ligand-Moving Receptor   =  +0.00 kcal/mol
DOCKED: USER    (2) Final Total Internal Energy     =  -1.13 kcal/mol
DOCKED: USER    (3) Torsional Free Energy           =  +1.79 kcal/mol
DOCKED: USER    (4) Unbound System's Energy         =  -1.13 kcal/mol
DOCKED: USER
DOCKED: USER
DOCKED: REMARK SMILES O=C(NC/C(O)=[N+]1/CCC[C@@H]1c1cscn1)c1ccc2cc(F)ccc2n1
DOCKED: REMARK SMILES IDX 4 1 5 2 6 3 7 5 8 6 11 7 9 8 10 9 12 10 16 11 13 12 15 13
DOCKED: REMARK SMILES IDX 14 14 3 15 2 16 1 18 17 19 27 20 18 21 26 22 19 23 25 24
DOCKED: REMARK SMILES IDX 20 25 24 26 21 27 22 28 23 29
DOCKED: REMARK H PARENT 6 4 3 17
DOCKED: USER                              x       y       z     vdW  Elec       q    Type
DOCKED: USER                           _______ _______ _______ _____ _____    ______ ____
DOCKED: ROOT
DOCKED: ATOM      1  C   UNL     1     139.378  74.204 221.175 -0.14 -0.05    +0.269 C  
DOCKED: ENDROOT
DOCKED: BRANCH   1   2
DOCKED: ATOM      2  C   UNL     1     139.980  75.527 221.581 -0.19 -0.07    +0.354 C  
DOCKED: BRANCH   2   3
DOCKED: ATOM      3  O   UNL     1     139.443  76.134 222.720 -0.25 +0.08    -0.462 OA 
DOCKED: ATOM      4  H   UNL     1     139.003  75.624 223.475 -0.34 -0.07    +0.299 HD 
DOCKED: ENDBRANCH   2   3
DOCKED: BRANCH   2   5
DOCKED: ATOM      5  N   UNL     1     140.973  76.082 220.918 -0.19 +0.07    -0.192 N  
DOCKED: ATOM      6  C   UNL     1     142.108  75.326 220.396 -0.14 -0.15    +0.355 C  
DOCKED: ATOM      7  C   UNL     1     141.066  77.502 220.566 -0.14 -0.14    +0.314 C  
DOCKED: ATOM      8  C   UNL     1     143.027  76.343 219.729 -0.33 -0.05    +0.080 C  
DOCKED: ATOM      9  C   UNL     1     142.178  77.589 219.522 -0.27 -0.06    +0.090 C  
DOCKED: BRANCH   7  10
DOCKED: ATOM     10  C   UNL     1     141.412  78.332 221.776 -0.33 -0.06    +0.119 A  
DOCKED: ATOM     11  N   UNL     1     141.459  77.800 223.029 -0.28 +0.10    -0.243 NA 
DOCKED: ATOM     12  C   UNL     1     141.753  79.678 221.694 -0.38 -0.04    +0.097 A  
DOCKED: ATOM     13  C   UNL     1     141.819  78.711 223.958 -0.44 -0.05    +0.176 A  
DOCKED: ATOM     14  S   UNL     1     142.104  80.208 223.250 -0.68 +0.03    -0.130 S  
DOCKED: ENDBRANCH   7  10
DOCKED: ENDBRANCH   2   5
DOCKED: ENDBRANCH   1   2
DOCKED: BRANCH   1  15
DOCKED: ATOM     15  N   UNL     1     139.326  73.285 222.310 -0.12 +0.08    -0.337 N  
DOCKED: ATOM     16  C   UNL     1     140.367  72.333 222.583 -0.21 -0.03    +0.270 C  
DOCKED: ATOM     17  H   UNL     1     138.513  73.362 222.963 -0.51 -0.10    +0.164 HD 
DOCKED: ATOM     18  O   UNL     1     141.418  72.338 221.885 -0.22 +0.02    -0.268 OA 
DOCKED: BRANCH  16  19
DOCKED: ATOM     19  C   UNL     1     140.213  71.348 223.674 -0.33 -0.02    +0.128 A  
DOCKED: ATOM     20  N   UNL     1     140.692  71.637 224.916 -0.31 +0.03    -0.243 NA 
DOCKED: ATOM     21  C   UNL     1     139.570  70.117 223.454 -0.26 -0.01    +0.035 A  
DOCKED: ATOM     22  C   UNL     1     140.572  70.773 225.959 -0.53 -0.01    +0.071 A  
DOCKED: ATOM     23  C   UNL     1     139.433  69.208 224.507 -0.34 -0.00    +0.013 A  
DOCKED: ATOM     24  C   UNL     1     141.081  71.115 227.218 -0.68 -0.01    +0.032 A  
DOCKED: ATOM     25  C   UNL     1     139.934  69.528 225.773 -0.47 -0.00    +0.003 A  
DOCKED: ATOM     26  C   UNL     1     140.957  70.224 228.288 -0.53 -0.01    +0.041 A  
DOCKED: ATOM     27  C   UNL     1     139.813  68.639 226.852 -0.56 -0.01    +0.049 A  
DOCKED: ATOM     28  C   UNL     1     140.325  68.989 228.106 -0.54 -0.02    +0.123 A  
DOCKED: ATOM     29  F   UNL     1     140.207  68.130 229.148 -0.13 +0.05    -0.207 F  
DOCKED: ENDBRANCH  16  19
DOCKED: ENDBRANCH   1  15
DOCKED: TORSDOF 6
DOCKED: TER
DOCKED: ENDMDL
________________________________________________________________________________


    FINAL DOCKED STATE:
    ________________________


Run:   16 / 20
Time taken for this run:   0.024s

DOCKED: MODEL        16
DOCKED: USER    Run = 16
DOCKED: USER
DOCKED: USER    Estimated Free Energy of Binding    =  -7.16 kcal/mol  [=(1)+(2)+(3)-(4)]
DOCKED: USER
DOCKED: USER    (1) Final Intermolecular Energy     =  -8.95 kcal/mol
DOCKED: USER        vdW + Hbond + desolv Energy     =  -8.43 kcal/mol
DOCKED: USER        Electrostatic Energy            =  -0.52 kcal/mol
DOCKED: USER        Moving Ligand-Fixed Receptor    =  -8.95 kcal/mol
DOCKED: USER        Moving Ligand-Moving Receptor   =  +0.00 kcal/mol
DOCKED: USER    (2) Final Total Internal Energy     =  -1.78 kcal/mol
DOCKED: USER    (3) Torsional Free Energy           =  +1.79 kcal/mol
DOCKED: USER    (4) Unbound System's Energy         =  -1.78 kcal/mol
DOCKED: USER
DOCKED: USER
DOCKED: REMARK SMILES O=C(NC/C(O)=[N+]1/CCC[C@@H]1c1cscn1)c1ccc2cc(F)ccc2n1
DOCKED: REMARK SMILES IDX 4 1 5 2 6 3 7 5 8 6 11 7 9 8 10 9 12 10 16 11 13 12 15 13
DOCKED: REMARK SMILES IDX 14 14 3 15 2 16 1 18 17 19 27 20 18 21 26 22 19 23 25 24
DOCKED: REMARK SMILES IDX 20 25 24 26 21 27 22 28 23 29
DOCKED: REMARK H PARENT 6 4 3 17
DOCKED: USER                              x       y       z     vdW  Elec       q    Type
DOCKED: USER                           _______ _______ _______ _____ _____    ______ ____
DOCKED: ROOT
DOCKED: ATOM      1  C   UNL     1     138.552  76.569 222.085 -0.19 -0.06    +0.269 C  
DOCKED: ENDROOT
DOCKED: BRANCH   1   2
DOCKED: ATOM      2  C   UNL     1     139.713  75.636 221.837 -0.19 -0.07    +0.354 C  
DOCKED: BRANCH   2   3
DOCKED: ATOM      3  O   UNL     1     139.591  74.339 222.346 -0.71 +0.06    -0.462 OA 
DOCKED: ATOM      4  H   UNL     1     138.915  74.072 223.050 -0.49 -0.16    +0.299 HD 
DOCKED: ENDBRANCH   2   3
DOCKED: BRANCH   2   5
DOCKED: ATOM      5  N   UNL     1     140.781  76.004 221.163 -0.21 +0.06    -0.192 N  
DOCKED: ATOM      6  C   UNL     1     141.839  75.077 220.770 -0.15 -0.12    +0.355 C  
DOCKED: ATOM      7  C   UNL     1     141.044  77.359 220.669 -0.15 -0.14    +0.314 C  
DOCKED: ATOM      8  C   UNL     1     142.886  75.908 220.041 -0.25 -0.05    +0.080 C  
DOCKED: ATOM      9  C   UNL     1     142.190  77.210 219.669 -0.29 -0.06    +0.090 C  
DOCKED: BRANCH   7  10
DOCKED: ATOM     10  C   UNL     1     141.446  78.272 221.799 -0.33 -0.06    +0.119 A  
DOCKED: ATOM     11  N   UNL     1     141.363  77.888 223.104 -0.31 +0.10    -0.243 NA 
DOCKED: ATOM     12  C   UNL     1     141.971  79.543 221.591 -0.36 -0.05    +0.097 A  
DOCKED: ATOM     13  C   UNL     1     141.802  78.847 223.947 -0.45 -0.05    +0.176 A  
DOCKED: ATOM     14  S   UNL     1     142.321  80.200 223.098 -0.69 +0.04    -0.130 S  
DOCKED: ENDBRANCH   7  10
DOCKED: ENDBRANCH   2   5
DOCKED: ENDBRANCH   1   2
DOCKED: BRANCH   1  15
DOCKED: ATOM     15  N   UNL     1     137.522  75.916 222.890 -0.13 +0.09    -0.337 N  
DOCKED: ATOM     16  C   UNL     1     136.331  76.596 223.321 -0.07 -0.05    +0.270 C  
DOCKED: ATOM     17  H   UNL     1     137.650  74.905 223.121 -0.43 -0.09    +0.164 HD 
DOCKED: ATOM     18  O   UNL     1     136.101  77.770 222.920 -0.12 +0.04    -0.268 OA 
DOCKED: BRANCH  16  19
DOCKED: ATOM     19  C   UNL     1     135.376  75.928 224.231 -0.24 -0.02    +0.128 A  
DOCKED: ATOM     20  N   UNL     1     135.427  74.576 224.388 -0.21 +0.05    -0.243 NA 
DOCKED: ATOM     21  C   UNL     1     134.418  76.669 224.946 -0.20 -0.00    +0.035 A  
DOCKED: ATOM     22  C   UNL     1     134.579  73.910 225.216 -0.28 -0.00    +0.071 A  
DOCKED: ATOM     23  C   UNL     1     133.533  76.012 225.804 -0.30 -0.00    +0.013 A  
DOCKED: ATOM     24  C   UNL     1     134.670  72.519 225.345 -0.21 -0.00    +0.032 A  
DOCKED: ATOM     25  C   UNL     1     133.604  74.622 225.948 -0.34 +0.00    +0.003 A  
DOCKED: ATOM     26  C   UNL     1     133.796  71.837 226.197 -0.33 -0.00    +0.041 A  
DOCKED: ATOM     27  C   UNL     1     132.731  73.931 226.802 -0.36 -0.00    +0.049 A  
DOCKED: ATOM     28  C   UNL     1     132.830  72.541 226.923 -0.35 -0.01    +0.123 A  
DOCKED: ATOM     29  F   UNL     1     131.986  71.873 227.749 -0.10 +0.05    -0.207 F  
DOCKED: ENDBRANCH  16  19
DOCKED: ENDBRANCH   1  15
DOCKED: TORSDOF 6
DOCKED: TER
DOCKED: ENDMDL
________________________________________________________________________________


    FINAL DOCKED STATE:
    ________________________


Run:   17 / 20
Time taken for this run:   0.024s

DOCKED: MODEL        17
DOCKED: USER    Run = 17
DOCKED: USER
DOCKED: USER    Estimated Free Energy of Binding    =  -7.84 kcal/mol  [=(1)+(2)+(3)-(4)]
DOCKED: USER
DOCKED: USER    (1) Final Intermolecular Energy     =  -9.63 kcal/mol
DOCKED: USER        vdW + Hbond + desolv Energy     =  -9.15 kcal/mol
DOCKED: USER        Electrostatic Energy            =  -0.48 kcal/mol
DOCKED: USER        Moving Ligand-Fixed Receptor    =  -9.63 kcal/mol
DOCKED: USER        Moving Ligand-Moving Receptor   =  +0.00 kcal/mol
DOCKED: USER    (2) Final Total Internal Energy     =  -1.99 kcal/mol
DOCKED: USER    (3) Torsional Free Energy           =  +1.79 kcal/mol
DOCKED: USER    (4) Unbound System's Energy         =  -1.99 kcal/mol
DOCKED: USER
DOCKED: USER
DOCKED: REMARK SMILES O=C(NC/C(O)=[N+]1/CCC[C@@H]1c1cscn1)c1ccc2cc(F)ccc2n1
DOCKED: REMARK SMILES IDX 4 1 5 2 6 3 7 5 8 6 11 7 9 8 10 9 12 10 16 11 13 12 15 13
DOCKED: REMARK SMILES IDX 14 14 3 15 2 16 1 18 17 19 27 20 18 21 26 22 19 23 25 24
DOCKED: REMARK SMILES IDX 20 25 24 26 21 27 22 28 23 29
DOCKED: REMARK H PARENT 6 4 3 17
DOCKED: USER                              x       y       z     vdW  Elec       q    Type
DOCKED: USER                           _______ _______ _______ _____ _____    ______ ____
DOCKED: ROOT
DOCKED: ATOM      1  C   UNL     1     140.238  74.366 221.071 -0.17 -0.05    +0.269 C  
DOCKED: ENDROOT
DOCKED: BRANCH   1   2
DOCKED: ATOM      2  C   UNL     1     140.352  75.827 221.431 -0.18 -0.09    +0.354 C  
DOCKED: BRANCH   2   3
DOCKED: ATOM      3  O   UNL     1     139.726  76.230 222.615 -0.25 +0.08    -0.462 OA 
DOCKED: ATOM      4  H   UNL     1     140.023  77.023 223.167 +0.16 -0.05    +0.299 HD 
DOCKED: ENDBRANCH   2   3
DOCKED: BRANCH   2   5
DOCKED: ATOM      5  N   UNL     1     141.019  76.686 220.688 -0.16 +0.08    -0.192 N  
DOCKED: ATOM      6  C   UNL     1     142.041  76.286 219.725 -0.14 -0.18    +0.355 C  
DOCKED: ATOM      7  C   UNL     1     140.808  78.136 220.676 -0.12 -0.13    +0.314 C  
DOCKED: ATOM      8  C   UNL     1     142.574  77.573 219.109 -0.27 -0.06    +0.080 C  
DOCKED: ATOM      9  C   UNL     1     141.539  78.641 219.433 -0.23 -0.05    +0.090 C  
DOCKED: BRANCH   7  10
DOCKED: ATOM     10  C   UNL     1     141.379  78.770 221.919 -0.34 -0.05    +0.119 A  
DOCKED: ATOM     11  N   UNL     1     141.198  78.230 223.156 -0.32 +0.08    -0.243 NA 
DOCKED: ATOM     12  C   UNL     1     142.168  79.916 221.886 -0.42 -0.04    +0.097 A  
DOCKED: ATOM     13  C   UNL     1     141.820  78.941 224.120 -0.43 -0.05    +0.176 A  
DOCKED: ATOM     14  S   UNL     1     142.628  80.260 223.465 -0.72 +0.03    -0.130 S  
DOCKED: ENDBRANCH   7  10
DOCKED: ENDBRANCH   2   5
DOCKED: ENDBRANCH   1   2
DOCKED: BRANCH   1  15
DOCKED: ATOM     15  N   UNL     1     140.063  73.546 222.269 -0.11 +0.02    -0.337 N  
DOCKED: ATOM     16  C   UNL     1     140.581  72.210 222.374 -0.20 -0.03    +0.270 C  
DOCKED: ATOM     17  H   UNL     1     139.576  73.977 223.087 -0.51 -0.02    +0.164 HD 
DOCKED: ATOM     18  O   UNL     1     141.297  71.742 221.446 -0.15 +0.03    -0.268 OA 
DOCKED: BRANCH  16  19
DOCKED: ATOM     19  C   UNL     1     140.278  71.381 223.560 -0.32 -0.02    +0.128 A  
DOCKED: ATOM     20  N   UNL     1     140.657  71.809 224.796 -0.28 +0.03    -0.243 NA 
DOCKED: ATOM     21  C   UNL     1     139.594  70.159 223.434 -0.26 -0.01    +0.035 A  
DOCKED: ATOM     22  C   UNL     1     140.399  71.093 225.923 -0.54 -0.01    +0.071 A  
DOCKED: ATOM     23  C   UNL     1     139.316  69.400 224.574 -0.35 -0.00    +0.013 A  
DOCKED: ATOM     24  C   UNL     1     140.809  71.574 227.172 -0.74 -0.01    +0.032 A  
DOCKED: ATOM     25  C   UNL     1     139.717  69.860 225.833 -0.47 -0.00    +0.003 A  
DOCKED: ATOM     26  C   UNL     1     140.543  70.835 228.328 -0.59 -0.01    +0.041 A  
DOCKED: ATOM     27  C   UNL     1     139.453  69.124 226.997 -0.49 -0.01    +0.049 A  
DOCKED: ATOM     28  C   UNL     1     139.866  69.613 228.241 -0.51 -0.02    +0.123 A  
DOCKED: ATOM     29  F   UNL     1     139.610  68.901 229.367 -0.02 +0.03    -0.207 F  
DOCKED: ENDBRANCH  16  19
DOCKED: ENDBRANCH   1  15
DOCKED: TORSDOF 6
DOCKED: TER
DOCKED: ENDMDL
________________________________________________________________________________


    FINAL DOCKED STATE:
    ________________________


Run:   18 / 20
Time taken for this run:   0.024s

DOCKED: MODEL        18
DOCKED: USER    Run = 18
DOCKED: USER
DOCKED: USER    Estimated Free Energy of Binding    =  -7.73 kcal/mol  [=(1)+(2)+(3)-(4)]
DOCKED: USER
DOCKED: USER    (1) Final Intermolecular Energy     =  -9.52 kcal/mol
DOCKED: USER        vdW + Hbond + desolv Energy     =  -8.97 kcal/mol
DOCKED: USER        Electrostatic Energy            =  -0.54 kcal/mol
DOCKED: USER        Moving Ligand-Fixed Receptor    =  -9.52 kcal/mol
DOCKED: USER        Moving Ligand-Moving Receptor   =  +0.00 kcal/mol
DOCKED: USER    (2) Final Total Internal Energy     =  -1.52 kcal/mol
DOCKED: USER    (3) Torsional Free Energy           =  +1.79 kcal/mol
DOCKED: USER    (4) Unbound System's Energy         =  -1.52 kcal/mol
DOCKED: USER
DOCKED: USER
DOCKED: REMARK SMILES O=C(NC/C(O)=[N+]1/CCC[C@@H]1c1cscn1)c1ccc2cc(F)ccc2n1
DOCKED: REMARK SMILES IDX 4 1 5 2 6 3 7 5 8 6 11 7 9 8 10 9 12 10 16 11 13 12 15 13
DOCKED: REMARK SMILES IDX 14 14 3 15 2 16 1 18 17 19 27 20 18 21 26 22 19 23 25 24
DOCKED: REMARK SMILES IDX 20 25 24 26 21 27 22 28 23 29
DOCKED: REMARK H PARENT 6 4 3 17
DOCKED: USER                              x       y       z     vdW  Elec       q    Type
DOCKED: USER                           _______ _______ _______ _____ _____    ______ ____
DOCKED: ROOT
DOCKED: ATOM      1  C   UNL     1     139.566  74.569 221.139 -0.15 -0.05    +0.269 C  
DOCKED: ENDROOT
DOCKED: BRANCH   1   2
DOCKED: ATOM      2  C   UNL     1     140.823  75.387 220.962 -0.15 -0.10    +0.354 C  
DOCKED: BRANCH   2   3
DOCKED: ATOM      3  O   UNL     1     141.235  76.143 222.065 -0.20 +0.17    -0.462 OA 
DOCKED: ATOM      4  H   UNL     1     142.174  76.125 222.439 -0.41 -0.25    +0.299 HD 
DOCKED: ENDBRANCH   2   3
DOCKED: BRANCH   2   5
DOCKED: ATOM      5  N   UNL     1     141.514  75.384 219.843 -0.12 +0.07    -0.192 N  
DOCKED: ATOM      6  C   UNL     1     140.912  75.163 218.530 -0.00 -0.11    +0.355 C  
DOCKED: ATOM      7  C   UNL     1     142.952  75.647 219.736 -0.21 -0.17    +0.314 C  
DOCKED: ATOM      8  C   UNL     1     142.054  75.213 217.523 -0.07 -0.03    +0.080 C  
DOCKED: ATOM      9  C   UNL     1     143.211  75.884 218.248 -0.24 -0.05    +0.090 C  
DOCKED: BRANCH   7  10
DOCKED: ATOM     10  C   UNL     1     143.750  74.467 220.229 -0.34 -0.05    +0.119 A  
DOCKED: ATOM     11  N   UNL     1     143.187  73.241 220.418 -0.16 +0.05    -0.243 NA 
DOCKED: ATOM     12  C   UNL     1     145.117  74.533 220.478 -0.40 -0.04    +0.097 A  
DOCKED: ATOM     13  C   UNL     1     144.087  72.324 220.832 -0.26 -0.03    +0.176 A  
DOCKED: ATOM     14  S   UNL     1     145.617  73.004 220.966 -0.67 +0.02    -0.130 S  
DOCKED: ENDBRANCH   7  10
DOCKED: ENDBRANCH   2   5
DOCKED: ENDBRANCH   1   2
DOCKED: BRANCH   1  15
DOCKED: ATOM     15  N   UNL     1     139.684  73.675 222.289 -0.12 +0.05    -0.337 N  
DOCKED: ATOM     16  C   UNL     1     140.075  72.298 222.161 -0.20 -0.04    +0.270 C  
DOCKED: ATOM     17  H   UNL     1     139.513  74.077 223.239 -0.49 -0.03    +0.164 HD 
DOCKED: ATOM     18  O   UNL     1     140.427  71.849 221.036 -0.10 +0.04    -0.268 OA 
DOCKED: BRANCH  16  19
DOCKED: ATOM     19  C   UNL     1     140.067  71.405 223.340 -0.31 -0.02    +0.128 A  
DOCKED: ATOM     20  N   UNL     1     140.521  71.867 224.538 -0.27 +0.04    -0.243 NA 
DOCKED: ATOM     21  C   UNL     1     139.588  70.087 223.247 -0.24 -0.01    +0.035 A  
DOCKED: ATOM     22  C   UNL     1     140.531  71.094 225.657 -0.53 -0.01    +0.071 A  
DOCKED: ATOM     23  C   UNL     1     139.585  69.268 224.379 -0.31 -0.00    +0.013 A  
DOCKED: ATOM     24  C   UNL     1     141.007  71.613 226.867 -0.72 -0.01    +0.032 A  
DOCKED: ATOM     25  C   UNL     1     140.059  69.765 225.599 -0.46 -0.00    +0.003 A  
DOCKED: ATOM     26  C   UNL     1     141.016  70.815 228.015 -0.65 -0.01    +0.041 A  
DOCKED: ATOM     27  C   UNL     1     140.070  68.970 226.755 -0.54 -0.01    +0.049 A  
DOCKED: ATOM     28  C   UNL     1     140.549  69.497 227.959 -0.52 -0.02    +0.123 A  
DOCKED: ATOM     29  F   UNL     1     140.559  68.729 229.077 -0.13 +0.04    -0.207 F  
DOCKED: ENDBRANCH  16  19
DOCKED: ENDBRANCH   1  15
DOCKED: TORSDOF 6
DOCKED: TER
DOCKED: ENDMDL
________________________________________________________________________________


    FINAL DOCKED STATE:
    ________________________


Run:   19 / 20
Time taken for this run:   0.024s

DOCKED: MODEL        19
DOCKED: USER    Run = 19
DOCKED: USER
DOCKED: USER    Estimated Free Energy of Binding    =  -7.21 kcal/mol  [=(1)+(2)+(3)-(4)]
DOCKED: USER
DOCKED: USER    (1) Final Intermolecular Energy     =  -9.00 kcal/mol
DOCKED: USER        vdW + Hbond + desolv Energy     =  -8.72 kcal/mol
DOCKED: USER        Electrostatic Energy            =  -0.29 kcal/mol
DOCKED: USER        Moving Ligand-Fixed Receptor    =  -9.00 kcal/mol
DOCKED: USER        Moving Ligand-Moving Receptor   =  +0.00 kcal/mol
DOCKED: USER    (2) Final Total Internal Energy     =  -2.17 kcal/mol
DOCKED: USER    (3) Torsional Free Energy           =  +1.79 kcal/mol
DOCKED: USER    (4) Unbound System's Energy         =  -2.17 kcal/mol
DOCKED: USER
DOCKED: USER
DOCKED: REMARK SMILES O=C(NC/C(O)=[N+]1/CCC[C@@H]1c1cscn1)c1ccc2cc(F)ccc2n1
DOCKED: REMARK SMILES IDX 4 1 5 2 6 3 7 5 8 6 11 7 9 8 10 9 12 10 16 11 13 12 15 13
DOCKED: REMARK SMILES IDX 14 14 3 15 2 16 1 18 17 19 27 20 18 21 26 22 19 23 25 24
DOCKED: REMARK SMILES IDX 20 25 24 26 21 27 22 28 23 29
DOCKED: REMARK H PARENT 6 4 3 17
DOCKED: USER                              x       y       z     vdW  Elec       q    Type
DOCKED: USER                           _______ _______ _______ _____ _____    ______ ____
DOCKED: ROOT
DOCKED: ATOM      1  C   UNL     1     139.160  74.217 221.367 -0.15 -0.06    +0.269 C  
DOCKED: ENDROOT
DOCKED: BRANCH   1   2
DOCKED: ATOM      2  C   UNL     1     139.853  75.537 221.602 -0.18 -0.07    +0.354 C  
DOCKED: BRANCH   2   3
DOCKED: ATOM      3  O   UNL     1     141.072  75.488 222.287 -0.31 +0.07    -0.462 OA 
DOCKED: ATOM      4  H   UNL     1     141.838  76.126 222.118 -0.44 -0.18    +0.299 HD 
DOCKED: ENDBRANCH   2   3
DOCKED: BRANCH   2   5
DOCKED: ATOM      5  N   UNL     1     139.359  76.679 221.174 -0.11 +0.05    -0.192 N  
DOCKED: ATOM      6  C   UNL     1     139.079  76.952 219.767 -0.01 -0.09    +0.355 C  
DOCKED: ATOM      7  C   UNL     1     138.974  77.807 222.027 -0.14 -0.07    +0.314 C  
DOCKED: ATOM      8  C   UNL     1     138.550  78.379 219.706 -0.04 -0.02    +0.080 C  
DOCKED: ATOM      9  C   UNL     1     138.144  78.727 221.131 -0.09 -0.02    +0.090 C  
DOCKED: BRANCH   7  10
DOCKED: ATOM     10  C   UNL     1     140.193  78.530 222.540 -0.31 -0.03    +0.119 A  
DOCKED: ATOM     11  N   UNL     1     141.446  78.254 222.081 -0.25 +0.12    -0.243 NA 
DOCKED: ATOM     12  C   UNL     1     140.122  79.556 223.477 -0.40 -0.02    +0.097 A  
DOCKED: ATOM     13  C   UNL     1     142.384  79.039 222.652 -0.37 -0.09    +0.176 A  
DOCKED: ATOM     14  S   UNL     1     141.686  80.112 223.740 -0.62 +0.03    -0.130 S  
DOCKED: ENDBRANCH   7  10
DOCKED: ENDBRANCH   2   5
DOCKED: ENDBRANCH   1   2
DOCKED: BRANCH   1  15
DOCKED: ATOM     15  N   UNL     1     139.464  73.270 222.438 -0.08 +0.07    -0.337 N  
DOCKED: ATOM     16  C   UNL     1     139.171  71.868 222.337 -0.16 -0.06    +0.270 C  
DOCKED: ATOM     17  H   UNL     1     139.950  73.635 223.289 -0.32 +0.02    +0.164 HD 
DOCKED: ATOM     18  O   UNL     1     138.721  71.399 221.255 -0.05 +0.05    -0.268 OA 
DOCKED: BRANCH  16  19
DOCKED: ATOM     19  C   UNL     1     139.390  70.971 223.492 -0.28 -0.03    +0.128 A  
DOCKED: ATOM     20  N   UNL     1     139.972  71.459 224.623 -0.29 +0.05    -0.243 NA 
DOCKED: ATOM     21  C   UNL     1     138.999  69.621 223.446 -0.24 -0.01    +0.035 A  
DOCKED: ATOM     22  C   UNL     1     140.193  70.684 225.718 -0.49 -0.01    +0.071 A  
DOCKED: ATOM     23  C   UNL     1     139.213  68.799 224.556 -0.36 -0.00    +0.013 A  
DOCKED: ATOM     24  C   UNL     1     140.794  71.230 226.857 -0.67 -0.01    +0.032 A  
DOCKED: ATOM     25  C   UNL     1     139.814  69.324 225.706 -0.46 -0.00    +0.003 A  
DOCKED: ATOM     26  C   UNL     1     141.020  70.430 227.981 -0.60 -0.01    +0.041 A  
DOCKED: ATOM     27  C   UNL     1     140.043  68.526 226.837 -0.58 -0.01    +0.049 A  
DOCKED: ATOM     28  C   UNL     1     140.646  69.082 227.971 -0.53 -0.03    +0.123 A  
DOCKED: ATOM     29  F   UNL     1     140.866  68.311 229.065 -0.17 +0.05    -0.207 F  
DOCKED: ENDBRANCH  16  19
DOCKED: ENDBRANCH   1  15
DOCKED: TORSDOF 6
DOCKED: TER
DOCKED: ENDMDL
________________________________________________________________________________


    FINAL DOCKED STATE:
    ________________________


Run:   20 / 20
Time taken for this run:   0.024s

DOCKED: MODEL        20
DOCKED: USER    Run = 20
DOCKED: USER
DOCKED: USER    Estimated Free Energy of Binding    =  -7.29 kcal/mol  [=(1)+(2)+(3)-(4)]
DOCKED: USER
DOCKED: USER    (1) Final Intermolecular Energy     =  -9.08 kcal/mol
DOCKED: USER        vdW + Hbond + desolv Energy     =  -8.56 kcal/mol
DOCKED: USER        Electrostatic Energy            =  -0.53 kcal/mol
DOCKED: USER        Moving Ligand-Fixed Receptor    =  -9.08 kcal/mol
DOCKED: USER        Moving Ligand-Moving Receptor   =  +0.00 kcal/mol
DOCKED: USER    (2) Final Total Internal Energy     =  -2.15 kcal/mol
DOCKED: USER    (3) Torsional Free Energy           =  +1.79 kcal/mol
DOCKED: USER    (4) Unbound System's Energy         =  -2.15 kcal/mol
DOCKED: USER
DOCKED: USER
DOCKED: REMARK SMILES O=C(NC/C(O)=[N+]1/CCC[C@@H]1c1cscn1)c1ccc2cc(F)ccc2n1
DOCKED: REMARK SMILES IDX 4 1 5 2 6 3 7 5 8 6 11 7 9 8 10 9 12 10 16 11 13 12 15 13
DOCKED: REMARK SMILES IDX 14 14 3 15 2 16 1 18 17 19 27 20 18 21 26 22 19 23 25 24
DOCKED: REMARK SMILES IDX 20 25 24 26 21 27 22 28 23 29
DOCKED: REMARK H PARENT 6 4 3 17
DOCKED: USER                              x       y       z     vdW  Elec       q    Type
DOCKED: USER                           _______ _______ _______ _____ _____    ______ ____
DOCKED: ROOT
DOCKED: ATOM      1  C   UNL     1     140.752  74.397 220.833 -0.16 -0.06    +0.269 C  
DOCKED: ENDROOT
DOCKED: BRANCH   1   2
DOCKED: ATOM      2  C   UNL     1     141.140  75.785 221.281 -0.17 -0.12    +0.354 C  
DOCKED: BRANCH   2   3
DOCKED: ATOM      3  O   UNL     1     141.139  76.019 222.660 -0.09 +0.12    -0.462 OA 
DOCKED: ATOM      4  H   UNL     1     141.861  76.538 223.143 -0.30 -0.17    +0.299 HD 
DOCKED: ENDBRANCH   2   3
DOCKED: BRANCH   2   5
DOCKED: ATOM      5  N   UNL     1     141.483  76.730 220.431 -0.18 +0.09    -0.192 N  
DOCKED: ATOM      6  C   UNL     1     142.462  76.531 219.365 -0.17 -0.20    +0.355 C  
DOCKED: ATOM      7  C   UNL     1     140.912  78.080 220.391 -0.12 -0.13    +0.314 C  
DOCKED: ATOM      8  C   UNL     1     142.581  77.866 218.641 -0.29 -0.06    +0.080 C  
DOCKED: ATOM      9  C   UNL     1     141.352  78.665 219.049 -0.19 -0.05    +0.090 C  
DOCKED: BRANCH   7  10
DOCKED: ATOM     10  C   UNL     1     141.437  78.917 221.529 -0.31 -0.05    +0.119 A  
DOCKED: ATOM     11  N   UNL     1     141.242  78.570 222.833 -0.30 +0.09    -0.243 NA 
DOCKED: ATOM     12  C   UNL     1     142.193  80.068 221.332 -0.33 -0.05    +0.097 A  
DOCKED: ATOM     13  C   UNL     1     141.821  79.442 223.685 -0.47 -0.05    +0.176 A  
DOCKED: ATOM     14  S   UNL     1     142.607  80.667 222.847 -0.64 +0.03    -0.130 S  
DOCKED: ENDBRANCH   7  10
DOCKED: ENDBRANCH   2   5
DOCKED: ENDBRANCH   1   2
DOCKED: BRANCH   1  15
DOCKED: ATOM     15  N   UNL     1     140.702  73.478 221.968 -0.17 +0.01    -0.337 N  
DOCKED: ATOM     16  C   UNL     1     140.039  72.205 221.904 -0.18 -0.04    +0.270 C  
DOCKED: ATOM     17  H   UNL     1     141.208  73.752 222.841 +0.13 +0.07    +0.164 HD 
DOCKED: ATOM     18  O   UNL     1     139.557  71.806 220.808 -0.06 +0.05    -0.268 OA 
DOCKED: BRANCH  16  19
DOCKED: ATOM     19  C   UNL     1     139.916  71.363 223.113 -0.28 -0.02    +0.128 A  
DOCKED: ATOM     20  N   UNL     1     140.417  71.808 224.298 -0.28 +0.04    -0.243 NA 
DOCKED: ATOM     21  C   UNL     1     139.280  70.110 223.061 -0.23 -0.01    +0.035 A  
DOCKED: ATOM     22  C   UNL     1     140.327  71.081 225.443 -0.50 -0.01    +0.071 A  
DOCKED: ATOM     23  C   UNL     1     139.173  69.339 224.221 -0.32 -0.00    +0.013 A  
DOCKED: ATOM     24  C   UNL     1     140.857  71.581 226.638 -0.68 -0.01    +0.032 A  
DOCKED: ATOM     25  C   UNL     1     139.697  69.818 225.428 -0.44 -0.00    +0.003 A  
DOCKED: ATOM     26  C   UNL     1     140.763  70.829 227.814 -0.67 -0.01    +0.041 A  
DOCKED: ATOM     27  C   UNL     1     139.606  69.069 226.611 -0.50 -0.01    +0.049 A  
DOCKED: ATOM     28  C   UNL     1     140.139  69.577 227.800 -0.51 -0.02    +0.123 A  
DOCKED: ATOM     29  F   UNL     1     140.050  68.854 228.944 -0.15 +0.04    -0.207 F  
DOCKED: ENDBRANCH  16  19
DOCKED: ENDBRANCH   1  15
DOCKED: TORSDOF 6
DOCKED: TER
DOCKED: ENDMDL
________________________________________________________________________________


    CLUSTERING HISTOGRAM
    ____________________


________________________________________________________________________________
     |           |     |           |     |
Clus | Lowest    | Run | Mean      | Num | Histogram
-ter | Binding   |     | Binding   | in  |
Rank | Energy    |     | Energy    | Clus|    5    10   15   20   25   30   35
_____|___________|_____|___________|_____|____:____|____:____|____:____|____:___
   1 |     -8.56 |  15 |     -7.78 |  16 |################
   2 |     -8.05 |   9 |     -7.89 |   2 |##
   3 |     -7.26 |   7 |     -7.26 |   1 |#
   4 |     -7.16 |  16 |     -7.16 |   1 |#
_____|___________|_____|___________|_____|______________________________________


    RMSD TABLE
    __________


_______________________________________________________________________
     |      |      |           |         |                 |
Rank | Sub- | Run  | Binding   | Cluster | Reference       | Grep
     | Rank |      | Energy    | RMSD    | RMSD            | Pattern
_____|______|______|___________|_________|_________________|___________
   1      1     15       -8.56      0.00    270.52           RANKING
   1      2      1       -8.04      0.94    270.41           RANKING
   1      3      4       -7.95      1.05    270.43           RANKING
   1      4     11       -7.94      0.58    270.60           RANKING
   1      5     13       -7.93      1.06    270.43           RANKING
   1      6      5       -7.92      0.59    270.58           RANKING
   1      7      6       -7.88      0.57    270.53           RANKING
   1      8      2       -7.87      0.72    270.63           RANKING
   1      9     14       -7.86      1.06    270.48           RANKING
   1     10     12       -7.85      0.71    270.62           RANKING
   1     11     10       -7.84      0.72    270.61           RANKING
   1     12     17       -7.84      0.72    270.61           RANKING
   1     13      3       -7.42      1.12    270.30           RANKING
   1     14     20       -7.29      1.21    270.41           RANKING
   1     15     19       -7.21      1.57    270.24           RANKING
   1     16      8       -7.10      1.02    270.41           RANKING
   2      1      9       -8.05      0.00    270.01           RANKING
   2      2     18       -7.73      0.28    269.97           RANKING
   3      1      7       -7.26      0.00    270.47           RANKING
   4      1     16       -7.16      0.00    269.60           RANKING

Run time 0.453 sec
Idle time 0.000 sec
