AutoDock-GPU version: v1.6

**********************************************************
**    AutoDock-GPU AUTODOCKTOOLS-COMPATIBLE DLG FILE    **
**********************************************************


    DOCKING PARAMETERS
    ________________________


Ligand file:                               /home/a/REINVENT4/ReinventStudies/pleaseWork/justmol2mol_4_Compounds_ontop/graph-dock-8u2o5u/graph-DockGPU/node-autodockgpu/inputs/LRHAYHKTPAMLCZ-XFBZNCQUNA-O.pdbqt
Grid fld file:                             /home/a/REINVENT4/ReinventStudies/mols/Rad51/maps/rad51_receptor.maps.fld

Random seed:                               42
Number of runs:                            20
Number of energy evaluations:              1132076
Number of generations:                     42000
Size of population:                        150
Rate of crossover:                         80.000000%
Tournament selection probability limit:    60.000000%
Rate of mutation:                          2.000000%
Maximal allowed delta movement:            +/- 6.000000A
Maximal allowed delta angle:               +/- 90.000000

Rate of local search:                      100.000000%
Maximal number of local search iterations: 300
Rho lower bound:                           0.010000
Spread of local search delta movement:     2.000000A
Spread of local search delta angle:        74.999999
Limit of consecutive successes/failures:   4

Handle symmetry during clustering:         YES
RMSD tolerance:                            2.000000A

Program call in command line was:          /home/a/REINVENT4/ReinventStudies/adgpu-v1.6_linux_x64_cuda12_128wi --filelist batch.txt --heuristics 1 --nrun 20 --psize 150 --lsit 300 --seed 42 --heurmax 12000000 


    GRID PARAMETERS
    ________________________


Receptor name:                             rad51_receptor
Number of grid points (x, y, z):           53, 53, 53
Grid center (x, y, z):                     139.950000, 75.640000, 221.970000A
Grid size (x, y, z):                       19.500000, 19.500000, 19.500000A
Grid spacing:                              0.375000A


    LIGAND PARAMETERS
    ________________________


Ligand name:                               /home/a/REINVENT4/ReinventStudies/pleaseWork/justmol2mol_4_Compounds_ontop/graph-dock-8u2o5u/graph-DockGPU/node-autodockgpu/inputs/LRHAYHKTPAMLCZ-XFBZNCQUNA-O
Number of atoms:                           29
Number of rotatable bonds:                 6
Number of atom types:                      8


    DUMMY DATA (only for ADT-compatibility)
    ________________________


DPF> outlev 1
DPF> ga_run 20
DPF> fld /home/a/REINVENT4/ReinventStudies/mols/Rad51/maps/rad51_receptor.maps.fld
DPF> move /home/a/REINVENT4/ReinventStudies/pleaseWork/justmol2mol_4_Compounds_ontop/graph-dock-8u2o5u/graph-DockGPU/node-autodockgpu/inputs/LRHAYHKTPAMLCZ-XFBZNCQUNA-O.pdbqt


    COUNTER STATES
    ________________________


Number of energy evaluations performed:    597567
Number of generations used:                30


    INPUT LIGAND PDBQT FILE:
    ________________________


INPUT-LIGAND-PDBQT: REMARK SMILES O=C(NC/C(O)=[N+]1/CCC[C@H]1c1cscn1)c1ccc2cc(F)ccc2n1
INPUT-LIGAND-PDBQT: REMARK SMILES IDX 4 1 5 2 6 3 7 5 8 6 11 7 9 8 10 9 12 10 16 11 13 12 15 13
INPUT-LIGAND-PDBQT: REMARK SMILES IDX 14 14 3 15 2 16 1 18 17 19 27 20 18 21 26 22 19 23 25 24
INPUT-LIGAND-PDBQT: REMARK SMILES IDX 20 25 24 26 21 27 22 28 23 29
INPUT-LIGAND-PDBQT: REMARK H PARENT 6 4 3 17
INPUT-LIGAND-PDBQT: ROOT
INPUT-LIGAND-PDBQT: ATOM      1  C   UNL     1      -2.500   0.815   1.899  1.00  0.00     0.269 C 
INPUT-LIGAND-PDBQT: ENDROOT
INPUT-LIGAND-PDBQT: BRANCH   1   2
INPUT-LIGAND-PDBQT: ATOM      2  C   UNL     1      -2.692   1.902   0.869  1.00  0.00     0.354 C 
INPUT-LIGAND-PDBQT: BRANCH   2   3
INPUT-LIGAND-PDBQT: ATOM      3  O   UNL     1      -2.783   3.210   1.358  1.00  0.00    -0.462 OA
INPUT-LIGAND-PDBQT: ATOM      4  H   UNL     1      -2.911   4.022   0.769  1.00  0.00     0.299 HD
INPUT-LIGAND-PDBQT: ENDBRANCH   2   3
INPUT-LIGAND-PDBQT: BRANCH   2   5
INPUT-LIGAND-PDBQT: ATOM      5  N   UNL     1      -2.743   1.652  -0.424  1.00  0.00    -0.192 N 
INPUT-LIGAND-PDBQT: ATOM      6  C   UNL     1      -2.941   2.693  -1.429  1.00  0.00     0.355 C 
INPUT-LIGAND-PDBQT: ATOM      7  C   UNL     1      -2.677   0.320  -1.034  1.00  0.00     0.314 C 
INPUT-LIGAND-PDBQT: ATOM      8  C   UNL     1      -2.915   1.996  -2.783  1.00  0.00     0.080 C 
INPUT-LIGAND-PDBQT: ATOM      9  C   UNL     1      -3.098   0.513  -2.492  1.00  0.00     0.090 C 
INPUT-LIGAND-PDBQT: BRANCH   7  10
INPUT-LIGAND-PDBQT: ATOM     10  C   UNL     1      -1.283  -0.254  -0.945  1.00  0.00     0.119 A 
INPUT-LIGAND-PDBQT: ATOM     11  N   UNL     1      -1.070  -1.535  -0.535  1.00  0.00    -0.243 NA
INPUT-LIGAND-PDBQT: ATOM     12  C   UNL     1      -0.132   0.447  -1.304  1.00  0.00     0.097 A 
INPUT-LIGAND-PDBQT: ATOM     13  C   UNL     1       0.239  -1.866  -0.550  1.00  0.00     0.176 A 
INPUT-LIGAND-PDBQT: ATOM     14  S   UNL     1       1.178  -0.581  -1.086  1.00  0.00    -0.130 S 
INPUT-LIGAND-PDBQT: ENDBRANCH   7  10
INPUT-LIGAND-PDBQT: ENDBRANCH   2   5
INPUT-LIGAND-PDBQT: ENDBRANCH   1   2
INPUT-LIGAND-PDBQT: BRANCH   1  15
INPUT-LIGAND-PDBQT: ATOM     15  N   UNL     1      -1.080   0.514   2.075  1.00  0.00    -0.337 N 
INPUT-LIGAND-PDBQT: ATOM     16  C   UNL     1      -0.645  -0.600   2.869  1.00  0.00     0.270 C 
INPUT-LIGAND-PDBQT: ATOM     17  H   UNL     1      -0.367   1.115   1.603  1.00  0.00     0.164 HD
INPUT-LIGAND-PDBQT: ATOM     18  O   UNL     1      -1.495  -1.284   3.503  1.00  0.00    -0.268 OA
INPUT-LIGAND-PDBQT: BRANCH  16  19
INPUT-LIGAND-PDBQT: ATOM     19  C   UNL     1       0.787  -0.964   2.932  1.00  0.00     0.128 A 
INPUT-LIGAND-PDBQT: ATOM     20  N   UNL     1       1.701  -0.218   2.252  1.00  0.00    -0.243 NA
INPUT-LIGAND-PDBQT: ATOM     21  C   UNL     1       1.220  -2.081   3.668  1.00  0.00     0.035 A 
INPUT-LIGAND-PDBQT: ATOM     22  C   UNL     1       3.027  -0.518   2.251  1.00  0.00     0.071 A 
INPUT-LIGAND-PDBQT: ATOM     23  C   UNL     1       2.576  -2.414   3.687  1.00  0.00     0.013 A 
INPUT-LIGAND-PDBQT: ATOM     24  C   UNL     1       3.927   0.274   1.530  1.00  0.00     0.032 A 
INPUT-LIGAND-PDBQT: ATOM     25  C   UNL     1       3.496  -1.636   2.975  1.00  0.00     0.003 A 
INPUT-LIGAND-PDBQT: ATOM     26  C   UNL     1       5.289  -0.040   1.528  1.00  0.00     0.041 A 
INPUT-LIGAND-PDBQT: ATOM     27  C   UNL     1       4.864  -1.945   2.970  1.00  0.00     0.049 A 
INPUT-LIGAND-PDBQT: ATOM     28  C   UNL     1       5.757  -1.147   2.246  1.00  0.00     0.123 A 
INPUT-LIGAND-PDBQT: ATOM     29  F   UNL     1       7.080  -1.447   2.239  1.00  0.00    -0.207 F 
INPUT-LIGAND-PDBQT: ENDBRANCH  16  19
INPUT-LIGAND-PDBQT: ENDBRANCH   1  15
INPUT-LIGAND-PDBQT: TORSDOF 6


    FINAL DOCKED STATE:
    ________________________


Run:   1 / 20
Time taken for this run:   0.024s

DOCKED: MODEL        1
DOCKED: USER    Run = 1
DOCKED: USER
DOCKED: USER    Estimated Free Energy of Binding    =  -7.73 kcal/mol  [=(1)+(2)+(3)-(4)]
DOCKED: USER
DOCKED: USER    (1) Final Intermolecular Energy     =  -9.52 kcal/mol
DOCKED: USER        vdW + Hbond + desolv Energy     =  -8.99 kcal/mol
DOCKED: USER        Electrostatic Energy            =  -0.53 kcal/mol
DOCKED: USER        Moving Ligand-Fixed Receptor    =  -9.52 kcal/mol
DOCKED: USER        Moving Ligand-Moving Receptor   =  +0.00 kcal/mol
DOCKED: USER    (2) Final Total Internal Energy     =  -1.97 kcal/mol
DOCKED: USER    (3) Torsional Free Energy           =  +1.79 kcal/mol
DOCKED: USER    (4) Unbound System's Energy         =  -1.97 kcal/mol
DOCKED: USER
DOCKED: USER
DOCKED: REMARK SMILES O=C(NC/C(O)=[N+]1/CCC[C@H]1c1cscn1)c1ccc2cc(F)ccc2n1
DOCKED: REMARK SMILES IDX 4 1 5 2 6 3 7 5 8 6 11 7 9 8 10 9 12 10 16 11 13 12 15 13
DOCKED: REMARK SMILES IDX 14 14 3 15 2 16 1 18 17 19 27 20 18 21 26 22 19 23 25 24
DOCKED: REMARK SMILES IDX 20 25 24 26 21 27 22 28 23 29
DOCKED: REMARK H PARENT 6 4 3 17
DOCKED: USER                              x       y       z     vdW  Elec       q    Type
DOCKED: USER                           _______ _______ _______ _____ _____    ______ ____
DOCKED: ROOT
DOCKED: ATOM      1  C   UNL     1     139.820  74.589 221.010 -0.15 -0.05    +0.269 C  
DOCKED: ENDROOT
DOCKED: BRANCH   1   2
DOCKED: ATOM      2  C   UNL     1     140.518  75.878 221.373 -0.18 -0.10    +0.354 C  
DOCKED: BRANCH   2   3
DOCKED: ATOM      3  O   UNL     1     140.902  76.019 222.712 -0.13 +0.10    -0.462 OA 
DOCKED: ATOM      4  H   UNL     1     141.826  76.307 223.003 -0.34 -0.16    +0.299 HD 
DOCKED: ENDBRANCH   2   3
DOCKED: BRANCH   2   5
DOCKED: ATOM      5  N   UNL     1     140.784  76.815 220.485 -0.13 +0.07    -0.192 N  
DOCKED: ATOM      6  C   UNL     1     139.967  77.038 219.295 -0.01 -0.11    +0.355 C  
DOCKED: ATOM      7  C   UNL     1     141.945  77.710 220.517 -0.12 -0.20    +0.314 C  
DOCKED: ATOM      8  C   UNL     1     140.595  78.211 218.555 -0.09 -0.03    +0.080 C  
DOCKED: ATOM      9  C   UNL     1     141.991  78.375 219.140 -0.24 -0.06    +0.090 C  
DOCKED: BRANCH   7  10
DOCKED: ATOM     10  C   UNL     1     141.810  78.741 221.612 -0.34 -0.07    +0.119 A  
DOCKED: ATOM     11  N   UNL     1     141.795  78.381 222.925 -0.29 +0.11    -0.243 NA 
DOCKED: ATOM     12  C   UNL     1     141.733  80.114 221.378 -0.35 -0.04    +0.097 A  
DOCKED: ATOM     13  C   UNL     1     141.696  79.448 223.747 -0.47 -0.04    +0.176 A  
DOCKED: ATOM     14  S   UNL     1     141.635  80.879 222.870 -0.58 +0.03    -0.130 S  
DOCKED: ENDBRANCH   7  10
DOCKED: ENDBRANCH   2   5
DOCKED: ENDBRANCH   1   2
DOCKED: BRANCH   1  15
DOCKED: ATOM     15  N   UNL     1     139.697  73.721 222.180 -0.13 +0.05    -0.337 N  
DOCKED: ATOM     16  C   UNL     1     139.762  72.292 222.060 -0.18 -0.05    +0.270 C  
DOCKED: ATOM     17  H   UNL     1     139.571  74.149 223.125 -0.52 -0.01    +0.164 HD 
DOCKED: ATOM     18  O   UNL     1     139.837  71.764 220.916 -0.07 +0.05    -0.268 OA 
DOCKED: BRANCH  16  19
DOCKED: ATOM     19  C   UNL     1     139.762  71.435 223.266 -0.29 -0.02    +0.128 A  
DOCKED: ATOM     20  N   UNL     1     140.331  71.893 224.415 -0.27 +0.04    -0.243 NA 
DOCKED: ATOM     21  C   UNL     1     139.202  70.146 223.241 -0.25 -0.01    +0.035 A  
DOCKED: ATOM     22  C   UNL     1     140.385  71.143 225.548 -0.52 -0.01    +0.071 A  
DOCKED: ATOM     23  C   UNL     1     139.241  69.352 224.389 -0.34 -0.00    +0.013 A  
DOCKED: ATOM     24  C   UNL     1     140.988  71.654 226.702 -0.71 -0.01    +0.032 A  
DOCKED: ATOM     25  C   UNL     1     139.837  69.842 225.556 -0.45 -0.00    +0.003 A  
DOCKED: ATOM     26  C   UNL     1     141.045  70.878 227.863 -0.66 -0.01    +0.041 A  
DOCKED: ATOM     27  C   UNL     1     139.896  69.069 226.725 -0.52 -0.01    +0.049 A  
DOCKED: ATOM     28  C   UNL     1     140.501  69.588 227.875 -0.52 -0.02    +0.123 A  
DOCKED: ATOM     29  F   UNL     1     140.561  68.840 229.005 -0.13 +0.04    -0.207 F  
DOCKED: ENDBRANCH  16  19
DOCKED: ENDBRANCH   1  15
DOCKED: TORSDOF 6
DOCKED: TER
DOCKED: ENDMDL
________________________________________________________________________________


    FINAL DOCKED STATE:
    ________________________


Run:   2 / 20
Time taken for this run:   0.024s

DOCKED: MODEL        2
DOCKED: USER    Run = 2
DOCKED: USER
DOCKED: USER    Estimated Free Energy of Binding    =  -7.46 kcal/mol  [=(1)+(2)+(3)-(4)]
DOCKED: USER
DOCKED: USER    (1) Final Intermolecular Energy     =  -9.25 kcal/mol
DOCKED: USER        vdW + Hbond + desolv Energy     =  -8.78 kcal/mol
DOCKED: USER        Electrostatic Energy            =  -0.47 kcal/mol
DOCKED: USER        Moving Ligand-Fixed Receptor    =  -9.25 kcal/mol
DOCKED: USER        Moving Ligand-Moving Receptor   =  +0.00 kcal/mol
DOCKED: USER    (2) Final Total Internal Energy     =  -2.20 kcal/mol
DOCKED: USER    (3) Torsional Free Energy           =  +1.79 kcal/mol
DOCKED: USER    (4) Unbound System's Energy         =  -2.20 kcal/mol
DOCKED: USER
DOCKED: USER
DOCKED: REMARK SMILES O=C(NC/C(O)=[N+]1/CCC[C@H]1c1cscn1)c1ccc2cc(F)ccc2n1
DOCKED: REMARK SMILES IDX 4 1 5 2 6 3 7 5 8 6 11 7 9 8 10 9 12 10 16 11 13 12 15 13
DOCKED: REMARK SMILES IDX 14 14 3 15 2 16 1 18 17 19 27 20 18 21 26 22 19 23 25 24
DOCKED: REMARK SMILES IDX 20 25 24 26 21 27 22 28 23 29
DOCKED: REMARK H PARENT 6 4 3 17
DOCKED: USER                              x       y       z     vdW  Elec       q    Type
DOCKED: USER                           _______ _______ _______ _____ _____    ______ ____
DOCKED: ROOT
DOCKED: ATOM      1  C   UNL     1     140.265  74.567 221.073 -0.17 -0.05    +0.269 C  
DOCKED: ENDROOT
DOCKED: BRANCH   1   2
DOCKED: ATOM      2  C   UNL     1     140.100  76.015 221.469 -0.18 -0.09    +0.354 C  
DOCKED: BRANCH   2   3
DOCKED: ATOM      3  O   UNL     1     139.565  76.253 222.740 -0.22 +0.08    -0.462 OA 
DOCKED: ATOM      4  H   UNL     1     139.150  77.132 223.019 +0.12 -0.05    +0.299 HD 
DOCKED: ENDBRANCH   2   3
DOCKED: BRANCH   2   5
DOCKED: ATOM      5  N   UNL     1     140.463  77.010 220.685 -0.12 +0.07    -0.192 N  
DOCKED: ATOM      6  C   UNL     1     139.714  77.397 219.492 -0.01 -0.11    +0.355 C  
DOCKED: ATOM      7  C   UNL     1     141.676  77.818 220.845 -0.16 -0.19    +0.314 C  
DOCKED: ATOM      8  C   UNL     1     140.446  78.589 218.891 -0.09 -0.03    +0.080 C  
DOCKED: ATOM      9  C   UNL     1     141.823  78.604 219.541 -0.25 -0.05    +0.090 C  
DOCKED: BRANCH   7  10
DOCKED: ATOM     10  C   UNL     1     141.559  78.750 222.028 -0.37 -0.06    +0.119 A  
DOCKED: ATOM     11  N   UNL     1     140.401  78.853 222.737 -0.22 +0.06    -0.243 NA 
DOCKED: ATOM     12  C   UNL     1     142.611  79.532 222.505 -0.48 -0.05    +0.097 A  
DOCKED: ATOM     13  C   UNL     1     140.508  79.716 223.769 -0.36 -0.03    +0.176 A  
DOCKED: ATOM     14  S   UNL     1     142.051  80.374 223.846 -0.66 +0.03    -0.130 S  
DOCKED: ENDBRANCH   7  10
DOCKED: ENDBRANCH   2   5
DOCKED: ENDBRANCH   1   2
DOCKED: BRANCH   1  15
DOCKED: ATOM     15  N   UNL     1     139.960  73.685 222.199 -0.12 +0.03    -0.337 N  
DOCKED: ATOM     16  C   UNL     1     140.263  72.283 222.153 -0.20 -0.03    +0.270 C  
DOCKED: ATOM     17  H   UNL     1     139.523  74.086 223.059 -0.51 -0.02    +0.164 HD 
DOCKED: ATOM     18  O   UNL     1     140.721  71.778 221.091 -0.12 +0.04    -0.268 OA 
DOCKED: BRANCH  16  19
DOCKED: ATOM     19  C   UNL     1     140.065  71.432 223.346 -0.31 -0.02    +0.128 A  
DOCKED: ATOM     20  N   UNL     1     140.529  71.850 224.555 -0.27 +0.04    -0.243 NA 
DOCKED: ATOM     21  C   UNL     1     139.419  70.186 223.249 -0.25 -0.01    +0.035 A  
DOCKED: ATOM     22  C   UNL     1     140.399  71.101 225.682 -0.52 -0.01    +0.071 A  
DOCKED: ATOM     23  C   UNL     1     139.270  69.394 224.389 -0.34 -0.00    +0.013 A  
DOCKED: ATOM     24  C   UNL     1     140.901  71.570 226.901 -0.72 -0.01    +0.032 A  
DOCKED: ATOM     25  C   UNL     1     139.761  69.842 225.620 -0.46 -0.00    +0.003 A  
DOCKED: ATOM     26  C   UNL     1     140.768  70.794 228.056 -0.65 -0.01    +0.041 A  
DOCKED: ATOM     27  C   UNL     1     139.631  69.070 226.784 -0.51 -0.01    +0.049 A  
DOCKED: ATOM     28  C   UNL     1     140.135  69.547 227.998 -0.52 -0.02    +0.123 A  
DOCKED: ATOM     29  F   UNL     1     140.011  68.799 229.123 -0.12 +0.03    -0.207 F  
DOCKED: ENDBRANCH  16  19
DOCKED: ENDBRANCH   1  15
DOCKED: TORSDOF 6
DOCKED: TER
DOCKED: ENDMDL
________________________________________________________________________________


    FINAL DOCKED STATE:
    ________________________


Run:   3 / 20
Time taken for this run:   0.024s

DOCKED: MODEL        3
DOCKED: USER    Run = 3
DOCKED: USER
DOCKED: USER    Estimated Free Energy of Binding    =  -8.16 kcal/mol  [=(1)+(2)+(3)-(4)]
DOCKED: USER
DOCKED: USER    (1) Final Intermolecular Energy     =  -9.95 kcal/mol
DOCKED: USER        vdW + Hbond + desolv Energy     =  -9.57 kcal/mol
DOCKED: USER        Electrostatic Energy            =  -0.38 kcal/mol
DOCKED: USER        Moving Ligand-Fixed Receptor    =  -9.95 kcal/mol
DOCKED: USER        Moving Ligand-Moving Receptor   =  +0.00 kcal/mol
DOCKED: USER    (2) Final Total Internal Energy     =  -1.54 kcal/mol
DOCKED: USER    (3) Torsional Free Energy           =  +1.79 kcal/mol
DOCKED: USER    (4) Unbound System's Energy         =  -1.54 kcal/mol
DOCKED: USER
DOCKED: USER
DOCKED: REMARK SMILES O=C(NC/C(O)=[N+]1/CCC[C@H]1c1cscn1)c1ccc2cc(F)ccc2n1
DOCKED: REMARK SMILES IDX 4 1 5 2 6 3 7 5 8 6 11 7 9 8 10 9 12 10 16 11 13 12 15 13
DOCKED: REMARK SMILES IDX 14 14 3 15 2 16 1 18 17 19 27 20 18 21 26 22 19 23 25 24
DOCKED: REMARK SMILES IDX 20 25 24 26 21 27 22 28 23 29
DOCKED: REMARK H PARENT 6 4 3 17
DOCKED: USER                              x       y       z     vdW  Elec       q    Type
DOCKED: USER                           _______ _______ _______ _____ _____    ______ ____
DOCKED: ROOT
DOCKED: ATOM      1  C   UNL     1     139.405  74.508 221.237 -0.15 -0.05    +0.269 C  
DOCKED: ENDROOT
DOCKED: BRANCH   1   2
DOCKED: ATOM      2  C   UNL     1     139.951  75.777 221.848 -0.19 -0.07    +0.354 C  
DOCKED: BRANCH   2   3
DOCKED: ATOM      3  O   UNL     1     141.301  75.758 222.215 -0.22 +0.14    -0.462 OA 
DOCKED: ATOM      4  H   UNL     1     141.861  76.590 222.338 -0.41 -0.22    +0.299 HD 
DOCKED: ENDBRANCH   2   3
DOCKED: BRANCH   2   5
DOCKED: ATOM      5  N   UNL     1     139.216  76.860 222.005 -0.20 +0.04    -0.192 N  
DOCKED: ATOM      6  C   UNL     1     137.941  76.861 222.717 -0.15 -0.07    +0.355 C  
DOCKED: ATOM      7  C   UNL     1     139.524  78.182 221.449 -0.10 -0.08    +0.314 C  
DOCKED: ATOM      8  C   UNL     1     137.434  78.297 222.692 -0.19 -0.01    +0.080 C  
DOCKED: ATOM      9  C   UNL     1     138.248  79.008 221.619 -0.13 -0.02    +0.090 C  
DOCKED: BRANCH   7  10
DOCKED: ATOM     10  C   UNL     1     140.684  78.823 222.174 -0.30 -0.04    +0.119 A  
DOCKED: ATOM     11  N   UNL     1     141.123  78.344 223.370 -0.31 +0.07    -0.243 NA 
DOCKED: ATOM     12  C   UNL     1     141.408  79.905 221.672 -0.34 -0.04    +0.097 A  
DOCKED: ATOM     13  C   UNL     1     142.184  79.036 223.840 -0.40 -0.06    +0.176 A  
DOCKED: ATOM     14  S   UNL     1     142.621  80.261 222.777 -0.67 +0.04    -0.130 S  
DOCKED: ENDBRANCH   7  10
DOCKED: ENDBRANCH   2   5
DOCKED: ENDBRANCH   1   2
DOCKED: BRANCH   1  15
DOCKED: ATOM     15  N   UNL     1     139.253  73.469 222.254 -0.10 +0.08    -0.337 N  
DOCKED: ATOM     16  C   UNL     1     140.280  72.494 222.487 -0.20 -0.03    +0.270 C  
DOCKED: ATOM     17  H   UNL     1     138.382  73.443 222.832 -0.52 -0.09    +0.164 HD 
DOCKED: ATOM     18  O   UNL     1     141.299  72.472 221.743 -0.22 +0.02    -0.268 OA 
DOCKED: BRANCH  16  19
DOCKED: ATOM     19  C   UNL     1     140.163  71.531 223.603 -0.33 -0.02    +0.128 A  
DOCKED: ATOM     20  N   UNL     1     140.631  71.870 224.836 -0.28 +0.03    -0.243 NA 
DOCKED: ATOM     21  C   UNL     1     139.593  70.260 223.408 -0.27 -0.01    +0.035 A  
DOCKED: ATOM     22  C   UNL     1     140.575  71.018 225.893 -0.54 -0.01    +0.071 A  
DOCKED: ATOM     23  C   UNL     1     139.520  69.363 224.475 -0.33 -0.00    +0.013 A  
DOCKED: ATOM     24  C   UNL     1     141.077  71.409 227.139 -0.72 -0.01    +0.032 A  
DOCKED: ATOM     25  C   UNL     1     140.014  69.732 225.732 -0.47 -0.00    +0.003 A  
DOCKED: ATOM     26  C   UNL     1     141.021  70.529 228.224 -0.56 -0.01    +0.041 A  
DOCKED: ATOM     27  C   UNL     1     139.960  68.854 226.824 -0.55 -0.01    +0.049 A  
DOCKED: ATOM     28  C   UNL     1     140.464  69.254 228.067 -0.53 -0.02    +0.123 A  
DOCKED: ATOM     29  F   UNL     1     140.414  68.404 229.123 -0.15 +0.04    -0.207 F  
DOCKED: ENDBRANCH  16  19
DOCKED: ENDBRANCH   1  15
DOCKED: TORSDOF 6
DOCKED: TER
DOCKED: ENDMDL
________________________________________________________________________________


    FINAL DOCKED STATE:
    ________________________


Run:   4 / 20
Time taken for this run:   0.024s

DOCKED: MODEL        4
DOCKED: USER    Run = 4
DOCKED: USER
DOCKED: USER    Estimated Free Energy of Binding    =  -7.94 kcal/mol  [=(1)+(2)+(3)-(4)]
DOCKED: USER
DOCKED: USER    (1) Final Intermolecular Energy     =  -9.73 kcal/mol
DOCKED: USER        vdW + Hbond + desolv Energy     =  -9.26 kcal/mol
DOCKED: USER        Electrostatic Energy            =  -0.47 kcal/mol
DOCKED: USER        Moving Ligand-Fixed Receptor    =  -9.73 kcal/mol
DOCKED: USER        Moving Ligand-Moving Receptor   =  +0.00 kcal/mol
DOCKED: USER    (2) Final Total Internal Energy     =  -1.83 kcal/mol
DOCKED: USER    (3) Torsional Free Energy           =  +1.79 kcal/mol
DOCKED: USER    (4) Unbound System's Energy         =  -1.83 kcal/mol
DOCKED: USER
DOCKED: USER
DOCKED: REMARK SMILES O=C(NC/C(O)=[N+]1/CCC[C@H]1c1cscn1)c1ccc2cc(F)ccc2n1
DOCKED: REMARK SMILES IDX 4 1 5 2 6 3 7 5 8 6 11 7 9 8 10 9 12 10 16 11 13 12 15 13
DOCKED: REMARK SMILES IDX 14 14 3 15 2 16 1 18 17 19 27 20 18 21 26 22 19 23 25 24
DOCKED: REMARK SMILES IDX 20 25 24 26 21 27 22 28 23 29
DOCKED: REMARK H PARENT 6 4 3 17
DOCKED: USER                              x       y       z     vdW  Elec       q    Type
DOCKED: USER                           _______ _______ _______ _____ _____    ______ ____
DOCKED: ROOT
DOCKED: ATOM      1  C   UNL     1     140.349  72.939 220.890 -0.12 -0.04    +0.269 C  
DOCKED: ENDROOT
DOCKED: BRANCH   1   2
DOCKED: ATOM      2  C   UNL     1     140.414  74.398 221.274 -0.16 -0.06    +0.354 C  
DOCKED: BRANCH   2   3
DOCKED: ATOM      3  O   UNL     1     139.597  74.796 222.338 -0.64 +0.06    -0.462 OA 
DOCKED: ATOM      4  H   UNL     1     138.936  74.185 222.798 -0.49 -0.12    +0.299 HD 
DOCKED: ENDBRANCH   2   3
DOCKED: BRANCH   2   5
DOCKED: ATOM      5  N   UNL     1     141.212  75.255 220.669 -0.17 +0.06    -0.192 N  
DOCKED: ATOM      6  C   UNL     1     141.189  76.690 220.937 -0.14 -0.16    +0.355 C  
DOCKED: ATOM      7  C   UNL     1     142.175  74.919 219.615 -0.12 -0.11    +0.314 C  
DOCKED: ATOM      8  C   UNL     1     142.268  77.310 220.059 -0.26 -0.05    +0.080 C  
DOCKED: ATOM      9  C   UNL     1     142.614  76.257 219.017 -0.27 -0.05    +0.090 C  
DOCKED: BRANCH   7  10
DOCKED: ATOM     10  C   UNL     1     143.357  74.163 220.175 -0.29 -0.04    +0.119 A  
DOCKED: ATOM     11  N   UNL     1     143.287  72.827 220.428 -0.16 +0.04    -0.243 NA 
DOCKED: ATOM     12  C   UNL     1     144.597  74.746 220.434 -0.35 -0.04    +0.097 A  
DOCKED: ATOM     13  C   UNL     1     144.452  72.333 220.898 -0.25 -0.03    +0.176 A  
DOCKED: ATOM     14  S   UNL     1     145.617  73.539 221.003 -0.71 +0.02    -0.130 S  
DOCKED: ENDBRANCH   7  10
DOCKED: ENDBRANCH   2   5
DOCKED: ENDBRANCH   1   2
DOCKED: BRANCH   1  15
DOCKED: ATOM     15  N   UNL     1     140.524  72.087 222.065 -0.15 +0.04    -0.337 N  
DOCKED: ATOM     16  C   UNL     1     139.419  71.751 222.916 -0.19 -0.06    +0.270 C  
DOCKED: ATOM     17  H   UNL     1     141.473  71.705 222.284 +0.06 -0.01    +0.164 HD 
DOCKED: ATOM     18  O   UNL     1     138.287  72.268 222.704 -0.14 +0.09    -0.268 OA 
DOCKED: BRANCH  16  19
DOCKED: ATOM     19  C   UNL     1     139.590  70.787 224.025 -0.32 -0.02    +0.128 A  
DOCKED: ATOM     20  N   UNL     1     140.212  71.183 225.170 -0.32 +0.04    -0.243 NA 
DOCKED: ATOM     21  C   UNL     1     139.138  69.461 223.910 -0.28 -0.01    +0.035 A  
DOCKED: ATOM     22  C   UNL     1     140.421  70.336 226.213 -0.50 -0.01    +0.071 A  
DOCKED: ATOM     23  C   UNL     1     139.337  68.567 224.965 -0.40 -0.00    +0.013 A  
DOCKED: ATOM     24  C   UNL     1     141.073  70.787 227.366 -0.63 -0.01    +0.032 A  
DOCKED: ATOM     25  C   UNL     1     139.985  68.995 226.129 -0.52 -0.00    +0.003 A  
DOCKED: ATOM     26  C   UNL     1     141.290  69.912 228.434 -0.38 -0.01    +0.041 A  
DOCKED: ATOM     27  C   UNL     1     140.205  68.123 227.205 -0.63 -0.01    +0.049 A  
DOCKED: ATOM     28  C   UNL     1     140.857  68.583 228.354 -0.55 -0.03    +0.123 A  
DOCKED: ATOM     29  F   UNL     1     141.072  67.739 229.394 -0.16 +0.06    -0.207 F  
DOCKED: ENDBRANCH  16  19
DOCKED: ENDBRANCH   1  15
DOCKED: TORSDOF 6
DOCKED: TER
DOCKED: ENDMDL
________________________________________________________________________________


    FINAL DOCKED STATE:
    ________________________


Run:   5 / 20
Time taken for this run:   0.024s

DOCKED: MODEL        5
DOCKED: USER    Run = 5
DOCKED: USER
DOCKED: USER    Estimated Free Energy of Binding    =  -7.54 kcal/mol  [=(1)+(2)+(3)-(4)]
DOCKED: USER
DOCKED: USER    (1) Final Intermolecular Energy     =  -9.33 kcal/mol
DOCKED: USER        vdW + Hbond + desolv Energy     =  -8.89 kcal/mol
DOCKED: USER        Electrostatic Energy            =  -0.44 kcal/mol
DOCKED: USER        Moving Ligand-Fixed Receptor    =  -9.33 kcal/mol
DOCKED: USER        Moving Ligand-Moving Receptor   =  +0.00 kcal/mol
DOCKED: USER    (2) Final Total Internal Energy     =  -2.20 kcal/mol
DOCKED: USER    (3) Torsional Free Energy           =  +1.79 kcal/mol
DOCKED: USER    (4) Unbound System's Energy         =  -2.20 kcal/mol
DOCKED: USER
DOCKED: USER
DOCKED: REMARK SMILES O=C(NC/C(O)=[N+]1/CCC[C@H]1c1cscn1)c1ccc2cc(F)ccc2n1
DOCKED: REMARK SMILES IDX 4 1 5 2 6 3 7 5 8 6 11 7 9 8 10 9 12 10 16 11 13 12 15 13
DOCKED: REMARK SMILES IDX 14 14 3 15 2 16 1 18 17 19 27 20 18 21 26 22 19 23 25 24
DOCKED: REMARK SMILES IDX 20 25 24 26 21 27 22 28 23 29
DOCKED: REMARK H PARENT 6 4 3 17
DOCKED: USER                              x       y       z     vdW  Elec       q    Type
DOCKED: USER                           _______ _______ _______ _____ _____    ______ ____
DOCKED: ROOT
DOCKED: ATOM      1  C   UNL     1     140.294  74.637 221.092 -0.18 -0.05    +0.269 C  
DOCKED: ENDROOT
DOCKED: BRANCH   1   2
DOCKED: ATOM      2  C   UNL     1     140.072  76.080 221.477 -0.18 -0.09    +0.354 C  
DOCKED: BRANCH   2   3
DOCKED: ATOM      3  O   UNL     1     139.468  76.304 222.719 -0.22 +0.08    -0.462 OA 
DOCKED: ATOM      4  H   UNL     1     139.698  77.081 223.323 +0.17 -0.04    +0.299 HD 
DOCKED: ENDBRANCH   2   3
DOCKED: BRANCH   2   5
DOCKED: ATOM      5  N   UNL     1     140.448  77.084 220.710 -0.12 +0.07    -0.192 N  
DOCKED: ATOM      6  C   UNL     1     139.629  77.600 219.617 -0.01 -0.11    +0.355 C  
DOCKED: ATOM      7  C   UNL     1     141.738  77.776 220.791 -0.15 -0.19    +0.314 C  
DOCKED: ATOM      8  C   UNL     1     140.406  78.759 219.006 -0.10 -0.03    +0.080 C  
DOCKED: ATOM      9  C   UNL     1     141.833  78.620 219.518 -0.25 -0.05    +0.090 C  
DOCKED: BRANCH   7  10
DOCKED: ATOM     10  C   UNL     1     141.817  78.645 222.023 -0.37 -0.06    +0.119 A  
DOCKED: ATOM     11  N   UNL     1     141.468  78.168 223.250 -0.34 +0.09    -0.243 NA 
DOCKED: ATOM     12  C   UNL     1     142.279  79.961 222.015 -0.43 -0.04    +0.097 A  
DOCKED: ATOM     13  C   UNL     1     141.634  79.088 224.224 -0.40 -0.04    +0.176 A  
DOCKED: ATOM     14  S   UNL     1     142.233  80.526 223.596 -0.70 +0.03    -0.130 S  
DOCKED: ENDBRANCH   7  10
DOCKED: ENDBRANCH   2   5
DOCKED: ENDBRANCH   1   2
DOCKED: BRANCH   1  15
DOCKED: ATOM     15  N   UNL     1     139.991  73.749 222.214 -0.10 +0.02    -0.337 N  
DOCKED: ATOM     16  C   UNL     1     140.288  72.346 222.158 -0.20 -0.03    +0.270 C  
DOCKED: ATOM     17  H   UNL     1     139.561  74.147 223.079 -0.52 -0.02    +0.164 HD 
DOCKED: ATOM     18  O   UNL     1     140.736  71.845 221.090 -0.12 +0.04    -0.268 OA 
DOCKED: BRANCH  16  19
DOCKED: ATOM     19  C   UNL     1     140.092  71.489 223.347 -0.31 -0.02    +0.128 A  
DOCKED: ATOM     20  N   UNL     1     140.579  71.891 224.553 -0.26 +0.03    -0.243 NA 
DOCKED: ATOM     21  C   UNL     1     139.427  70.254 223.249 -0.25 -0.01    +0.035 A  
DOCKED: ATOM     22  C   UNL     1     140.452  71.135 225.676 -0.53 -0.01    +0.071 A  
DOCKED: ATOM     23  C   UNL     1     139.280  69.455 224.385 -0.33 -0.00    +0.013 A  
DOCKED: ATOM     24  C   UNL     1     140.977  71.586 226.892 -0.72 -0.01    +0.032 A  
DOCKED: ATOM     25  C   UNL     1     139.795  69.886 225.613 -0.46 -0.00    +0.003 A  
DOCKED: ATOM     26  C   UNL     1     140.848  70.804 228.043 -0.65 -0.01    +0.041 A  
DOCKED: ATOM     27  C   UNL     1     139.668  69.107 226.772 -0.51 -0.01    +0.049 A  
DOCKED: ATOM     28  C   UNL     1     140.196  69.567 227.984 -0.52 -0.02    +0.123 A  
DOCKED: ATOM     29  F   UNL     1     140.075  68.812 229.105 -0.13 +0.04    -0.207 F  
DOCKED: ENDBRANCH  16  19
DOCKED: ENDBRANCH   1  15
DOCKED: TORSDOF 6
DOCKED: TER
DOCKED: ENDMDL
________________________________________________________________________________


    FINAL DOCKED STATE:
    ________________________


Run:   6 / 20
Time taken for this run:   0.024s

DOCKED: MODEL        6
DOCKED: USER    Run = 6
DOCKED: USER
DOCKED: USER    Estimated Free Energy of Binding    =  -7.98 kcal/mol  [=(1)+(2)+(3)-(4)]
DOCKED: USER
DOCKED: USER    (1) Final Intermolecular Energy     =  -9.77 kcal/mol
DOCKED: USER        vdW + Hbond + desolv Energy     =  -9.29 kcal/mol
DOCKED: USER        Electrostatic Energy            =  -0.48 kcal/mol
DOCKED: USER        Moving Ligand-Fixed Receptor    =  -9.77 kcal/mol
DOCKED: USER        Moving Ligand-Moving Receptor   =  +0.00 kcal/mol
DOCKED: USER    (2) Final Total Internal Energy     =  -1.80 kcal/mol
DOCKED: USER    (3) Torsional Free Energy           =  +1.79 kcal/mol
DOCKED: USER    (4) Unbound System's Energy         =  -1.80 kcal/mol
DOCKED: USER
DOCKED: USER
DOCKED: REMARK SMILES O=C(NC/C(O)=[N+]1/CCC[C@H]1c1cscn1)c1ccc2cc(F)ccc2n1
DOCKED: REMARK SMILES IDX 4 1 5 2 6 3 7 5 8 6 11 7 9 8 10 9 12 10 16 11 13 12 15 13
DOCKED: REMARK SMILES IDX 14 14 3 15 2 16 1 18 17 19 27 20 18 21 26 22 19 23 25 24
DOCKED: REMARK SMILES IDX 20 25 24 26 21 27 22 28 23 29
DOCKED: REMARK H PARENT 6 4 3 17
DOCKED: USER                              x       y       z     vdW  Elec       q    Type
DOCKED: USER                           _______ _______ _______ _____ _____    ______ ____
DOCKED: ROOT
DOCKED: ATOM      1  C   UNL     1     140.512  72.886 220.859 -0.12 -0.04    +0.269 C  
DOCKED: ENDROOT
DOCKED: BRANCH   1   2
DOCKED: ATOM      2  C   UNL     1     140.631  74.346 221.221 -0.16 -0.06    +0.354 C  
DOCKED: BRANCH   2   3
DOCKED: ATOM      3  O   UNL     1     139.871  74.777 222.314 -0.65 +0.03    -0.462 OA 
DOCKED: ATOM      4  H   UNL     1     139.192  74.198 222.789 -0.47 -0.09    +0.299 HD 
DOCKED: ENDBRANCH   2   3
DOCKED: BRANCH   2   5
DOCKED: ATOM      5  N   UNL     1     141.424  75.175 220.572 -0.17 +0.06    -0.192 N  
DOCKED: ATOM      6  C   UNL     1     141.397  76.622 220.770 -0.14 -0.17    +0.355 C  
DOCKED: ATOM      7  C   UNL     1     142.384  74.792 219.532 -0.12 -0.11    +0.314 C  
DOCKED: ATOM      8  C   UNL     1     142.471  77.202 219.860 -0.26 -0.06    +0.080 C  
DOCKED: ATOM      9  C   UNL     1     142.816  76.100 218.868 -0.27 -0.05    +0.090 C  
DOCKED: BRANCH   7  10
DOCKED: ATOM     10  C   UNL     1     143.570  74.067 220.123 -0.30 -0.04    +0.119 A  
DOCKED: ATOM     11  N   UNL     1     143.540  72.725 220.347 -0.16 +0.04    -0.243 NA 
DOCKED: ATOM     12  C   UNL     1     144.778  74.689 220.441 -0.37 -0.04    +0.097 A  
DOCKED: ATOM     13  C   UNL     1     144.704  72.263 220.852 -0.22 -0.04    +0.176 A  
DOCKED: ATOM     14  S   UNL     1     145.818  73.508 221.026 -0.74 +0.02    -0.130 S  
DOCKED: ENDBRANCH   7  10
DOCKED: ENDBRANCH   2   5
DOCKED: ENDBRANCH   1   2
DOCKED: BRANCH   1  15
DOCKED: ATOM     15  N   UNL     1     140.634  72.046 222.049 -0.14 +0.04    -0.337 N  
DOCKED: ATOM     16  C   UNL     1     139.493  71.733 222.863 -0.20 -0.06    +0.270 C  
DOCKED: ATOM     17  H   UNL     1     141.568  71.654 222.306 +0.06 -0.01    +0.164 HD 
DOCKED: ATOM     18  O   UNL     1     138.378  72.262 222.603 -0.14 +0.08    -0.268 OA 
DOCKED: BRANCH  16  19
DOCKED: ATOM     19  C   UNL     1     139.612  70.781 223.988 -0.31 -0.02    +0.128 A  
DOCKED: ATOM     20  N   UNL     1     140.244  71.166 225.131 -0.32 +0.04    -0.243 NA 
DOCKED: ATOM     21  C   UNL     1     139.098  69.476 223.891 -0.28 -0.01    +0.035 A  
DOCKED: ATOM     22  C   UNL     1     140.406  70.327 226.189 -0.50 -0.01    +0.071 A  
DOCKED: ATOM     23  C   UNL     1     139.249  68.591 224.962 -0.41 -0.00    +0.013 A  
DOCKED: ATOM     24  C   UNL     1     141.071  70.766 227.339 -0.63 -0.01    +0.032 A  
DOCKED: ATOM     25  C   UNL     1     139.908  69.008 226.124 -0.52 -0.00    +0.003 A  
DOCKED: ATOM     26  C   UNL     1     141.239  69.900 228.423 -0.40 -0.01    +0.041 A  
DOCKED: ATOM     27  C   UNL     1     140.079  68.144 227.215 -0.63 -0.01    +0.049 A  
DOCKED: ATOM     28  C   UNL     1     140.745  68.591 228.362 -0.55 -0.03    +0.123 A  
DOCKED: ATOM     29  F   UNL     1     140.913  67.755 229.417 -0.15 +0.06    -0.207 F  
DOCKED: ENDBRANCH  16  19
DOCKED: ENDBRANCH   1  15
DOCKED: TORSDOF 6
DOCKED: TER
DOCKED: ENDMDL
________________________________________________________________________________


    FINAL DOCKED STATE:
    ________________________


Run:   7 / 20
Time taken for this run:   0.024s

DOCKED: MODEL        7
DOCKED: USER    Run = 7
DOCKED: USER
DOCKED: USER    Estimated Free Energy of Binding    =  -8.04 kcal/mol  [=(1)+(2)+(3)-(4)]
DOCKED: USER
DOCKED: USER    (1) Final Intermolecular Energy     =  -9.83 kcal/mol
DOCKED: USER        vdW + Hbond + desolv Energy     =  -9.20 kcal/mol
DOCKED: USER        Electrostatic Energy            =  -0.63 kcal/mol
DOCKED: USER        Moving Ligand-Fixed Receptor    =  -9.83 kcal/mol
DOCKED: USER        Moving Ligand-Moving Receptor   =  +0.00 kcal/mol
DOCKED: USER    (2) Final Total Internal Energy     =  -1.57 kcal/mol
DOCKED: USER    (3) Torsional Free Energy           =  +1.79 kcal/mol
DOCKED: USER    (4) Unbound System's Energy         =  -1.57 kcal/mol
DOCKED: USER
DOCKED: USER
DOCKED: REMARK SMILES O=C(NC/C(O)=[N+]1/CCC[C@H]1c1cscn1)c1ccc2cc(F)ccc2n1
DOCKED: REMARK SMILES IDX 4 1 5 2 6 3 7 5 8 6 11 7 9 8 10 9 12 10 16 11 13 12 15 13
DOCKED: REMARK SMILES IDX 14 14 3 15 2 16 1 18 17 19 27 20 18 21 26 22 19 23 25 24
DOCKED: REMARK SMILES IDX 20 25 24 26 21 27 22 28 23 29
DOCKED: REMARK H PARENT 6 4 3 17
DOCKED: USER                              x       y       z     vdW  Elec       q    Type
DOCKED: USER                           _______ _______ _______ _____ _____    ______ ____
DOCKED: ROOT
DOCKED: ATOM      1  C   UNL     1     139.237  74.964 221.018 -0.13 -0.06    +0.269 C  
DOCKED: ENDROOT
DOCKED: BRANCH   1   2
DOCKED: ATOM      2  C   UNL     1     140.409  75.885 221.258 -0.17 -0.10    +0.354 C  
DOCKED: BRANCH   2   3
DOCKED: ATOM      3  O   UNL     1     141.270  75.534 222.304 -0.21 +0.10    -0.462 OA 
DOCKED: ATOM      4  H   UNL     1     142.043  76.108 222.612 -0.40 -0.21    +0.299 HD 
DOCKED: ENDBRANCH   2   3
DOCKED: BRANCH   2   5
DOCKED: ATOM      5  N   UNL     1     140.637  76.949 220.515 -0.12 +0.07    -0.192 N  
DOCKED: ATOM      6  C   UNL     1     139.744  77.377 219.441 -0.01 -0.11    +0.355 C  
DOCKED: ATOM      7  C   UNL     1     141.824  77.806 220.602 -0.16 -0.19    +0.314 C  
DOCKED: ATOM      8  C   UNL     1     140.352  78.644 218.854 -0.09 -0.03    +0.080 C  
DOCKED: ATOM      9  C   UNL     1     141.790  78.686 219.351 -0.25 -0.05    +0.090 C  
DOCKED: BRANCH   7  10
DOCKED: ATOM     10  C   UNL     1     141.799  78.648 221.856 -0.36 -0.06    +0.119 A  
DOCKED: ATOM     11  N   UNL     1     141.428  78.121 223.055 -0.33 +0.10    -0.243 NA 
DOCKED: ATOM     12  C   UNL     1     142.182  79.989 221.897 -0.43 -0.04    +0.097 A  
DOCKED: ATOM     13  C   UNL     1     141.499  79.025 224.056 -0.43 -0.04    +0.176 A  
DOCKED: ATOM     14  S   UNL     1     142.037  80.510 223.486 -0.68 +0.03    -0.130 S  
DOCKED: ENDBRANCH   7  10
DOCKED: ENDBRANCH   2   5
DOCKED: ENDBRANCH   1   2
DOCKED: BRANCH   1  15
DOCKED: ATOM     15  N   UNL     1     139.147  73.955 222.073 -0.11 +0.08    -0.337 N  
DOCKED: ATOM     16  C   UNL     1     139.962  72.774 222.049 -0.19 -0.04    +0.270 C  
DOCKED: ATOM     17  H   UNL     1     138.485  74.104 222.868 -0.56 -0.10    +0.164 HD 
DOCKED: ATOM     18  O   UNL     1     140.708  72.550 221.056 -0.14 +0.04    -0.268 OA 
DOCKED: BRANCH  16  19
DOCKED: ATOM     19  C   UNL     1     139.950  71.829 223.187 -0.30 -0.02    +0.128 A  
DOCKED: ATOM     20  N   UNL     1     140.455  72.219 224.390 -0.05 +0.04    -0.243 NA 
DOCKED: ATOM     21  C   UNL     1     139.441  70.526 223.043 -0.25 -0.01    +0.035 A  
DOCKED: ATOM     22  C   UNL     1     140.495  71.387 225.465 -0.51 -0.01    +0.071 A  
DOCKED: ATOM     23  C   UNL     1     139.467  69.649 224.129 -0.31 -0.00    +0.013 A  
DOCKED: ATOM     24  C   UNL     1     141.032  71.830 226.678 -0.72 -0.01    +0.032 A  
DOCKED: ATOM     25  C   UNL     1     139.998  70.070 225.354 -0.46 -0.00    +0.003 A  
DOCKED: ATOM     26  C   UNL     1     141.074  70.971 227.780 -0.67 -0.01    +0.041 A  
DOCKED: ATOM     27  C   UNL     1     140.042  69.213 226.463 -0.50 -0.01    +0.049 A  
DOCKED: ATOM     28  C   UNL     1     140.581  69.665 227.673 -0.51 -0.02    +0.123 A  
DOCKED: ATOM     29  F   UNL     1     140.626  68.836 228.746 -0.17 +0.04    -0.207 F  
DOCKED: ENDBRANCH  16  19
DOCKED: ENDBRANCH   1  15
DOCKED: TORSDOF 6
DOCKED: TER
DOCKED: ENDMDL
________________________________________________________________________________


    FINAL DOCKED STATE:
    ________________________


Run:   8 / 20
Time taken for this run:   0.024s

DOCKED: MODEL        8
DOCKED: USER    Run = 8
DOCKED: USER
DOCKED: USER    Estimated Free Energy of Binding    =  -7.98 kcal/mol  [=(1)+(2)+(3)-(4)]
DOCKED: USER
DOCKED: USER    (1) Final Intermolecular Energy     =  -9.77 kcal/mol
DOCKED: USER        vdW + Hbond + desolv Energy     =  -9.20 kcal/mol
DOCKED: USER        Electrostatic Energy            =  -0.57 kcal/mol
DOCKED: USER        Moving Ligand-Fixed Receptor    =  -9.77 kcal/mol
DOCKED: USER        Moving Ligand-Moving Receptor   =  +0.00 kcal/mol
DOCKED: USER    (2) Final Total Internal Energy     =  -1.59 kcal/mol
DOCKED: USER    (3) Torsional Free Energy           =  +1.79 kcal/mol
DOCKED: USER    (4) Unbound System's Energy         =  -1.59 kcal/mol
DOCKED: USER
DOCKED: USER
DOCKED: REMARK SMILES O=C(NC/C(O)=[N+]1/CCC[C@H]1c1cscn1)c1ccc2cc(F)ccc2n1
DOCKED: REMARK SMILES IDX 4 1 5 2 6 3 7 5 8 6 11 7 9 8 10 9 12 10 16 11 13 12 15 13
DOCKED: REMARK SMILES IDX 14 14 3 15 2 16 1 18 17 19 27 20 18 21 26 22 19 23 25 24
DOCKED: REMARK SMILES IDX 20 25 24 26 21 27 22 28 23 29
DOCKED: REMARK H PARENT 6 4 3 17
DOCKED: USER                              x       y       z     vdW  Elec       q    Type
DOCKED: USER                           _______ _______ _______ _____ _____    ______ ____
DOCKED: ROOT
DOCKED: ATOM      1  C   UNL     1     139.863  73.540 221.101 -0.14 -0.05    +0.269 C  
DOCKED: ENDROOT
DOCKED: BRANCH   1   2
DOCKED: ATOM      2  C   UNL     1     140.214  74.954 221.494 -0.18 -0.06    +0.354 C  
DOCKED: BRANCH   2   3
DOCKED: ATOM      3  O   UNL     1     139.660  75.420 222.691 -0.40 +0.05    -0.462 OA 
DOCKED: ATOM      4  H   UNL     1     138.899  74.961 223.174 -0.45 -0.13    +0.299 HD 
DOCKED: ENDBRANCH   2   3
DOCKED: BRANCH   2   5
DOCKED: ATOM      5  N   UNL     1     141.019  75.711 220.775 -0.18 +0.06    -0.192 N  
DOCKED: ATOM      6  C   UNL     1     141.146  77.152 220.974 -0.15 -0.16    +0.355 C  
DOCKED: ATOM      7  C   UNL     1     141.840  75.248 219.651 -0.11 -0.11    +0.314 C  
DOCKED: ATOM      8  C   UNL     1     142.183  77.637 219.969 -0.26 -0.05    +0.080 C  
DOCKED: ATOM      9  C   UNL     1     142.331  76.516 218.950 -0.25 -0.05    +0.090 C  
DOCKED: BRANCH   7  10
DOCKED: ATOM     10  C   UNL     1     143.001  74.411 220.131 -0.27 -0.04    +0.119 A  
DOCKED: ATOM     11  N   UNL     1     142.839  73.100 220.464 -0.15 +0.04    -0.243 NA 
DOCKED: ATOM     12  C   UNL     1     144.309  74.885 220.230 -0.36 -0.05    +0.097 A  
DOCKED: ATOM     13  C   UNL     1     143.999  72.521 220.841 -0.26 -0.03    +0.176 A  
DOCKED: ATOM     14  S   UNL     1     145.271  73.615 220.761 -0.66 +0.02    -0.130 S  
DOCKED: ENDBRANCH   7  10
DOCKED: ENDBRANCH   2   5
DOCKED: ENDBRANCH   1   2
DOCKED: BRANCH   1  15
DOCKED: ATOM     15  N   UNL     1     139.653  72.710 222.286 -0.15 +0.06    -0.337 N  
DOCKED: ATOM     16  C   UNL     1     139.997  71.317 222.294 -0.17 -0.04    +0.270 C  
DOCKED: ATOM     17  H   UNL     1     139.256  73.144 223.150 -0.45 -0.07    +0.164 HD 
DOCKED: ATOM     18  O   UNL     1     140.406  70.769 221.233 -0.10 +0.04    -0.268 OA 
DOCKED: BRANCH  16  19
DOCKED: ATOM     19  C   UNL     1     139.897  70.525 223.539 -0.24 -0.02    +0.128 A  
DOCKED: ATOM     20  N   UNL     1     140.475  70.991 224.681 -0.29 +0.04    -0.243 NA 
DOCKED: ATOM     21  C   UNL     1     139.230  69.287 223.560 -0.25 -0.01    +0.035 A  
DOCKED: ATOM     22  C   UNL     1     140.438  70.296 225.849 -0.48 -0.01    +0.071 A  
DOCKED: ATOM     23  C   UNL     1     139.174  68.551 224.745 -0.39 -0.00    +0.013 A  
DOCKED: ATOM     24  C   UNL     1     141.053  70.813 226.994 -0.62 -0.01    +0.032 A  
DOCKED: ATOM     25  C   UNL     1     139.781  69.047 225.905 -0.49 -0.00    +0.003 A  
DOCKED: ATOM     26  C   UNL     1     141.017  70.094 228.193 -0.55 -0.01    +0.041 A  
DOCKED: ATOM     27  C   UNL     1     139.747  68.332 227.110 -0.58 -0.01    +0.049 A  
DOCKED: ATOM     28  C   UNL     1     140.365  68.856 228.251 -0.54 -0.02    +0.123 A  
DOCKED: ATOM     29  F   UNL     1     140.334  68.163 229.417 -0.10 +0.04    -0.207 F  
DOCKED: ENDBRANCH  16  19
DOCKED: ENDBRANCH   1  15
DOCKED: TORSDOF 6
DOCKED: TER
DOCKED: ENDMDL
________________________________________________________________________________


    FINAL DOCKED STATE:
    ________________________


Run:   9 / 20
Time taken for this run:   0.024s

DOCKED: MODEL        9
DOCKED: USER    Run = 9
DOCKED: USER
DOCKED: USER    Estimated Free Energy of Binding    =  -7.55 kcal/mol  [=(1)+(2)+(3)-(4)]
DOCKED: USER
DOCKED: USER    (1) Final Intermolecular Energy     =  -9.34 kcal/mol
DOCKED: USER        vdW + Hbond + desolv Energy     =  -8.89 kcal/mol
DOCKED: USER        Electrostatic Energy            =  -0.45 kcal/mol
DOCKED: USER        Moving Ligand-Fixed Receptor    =  -9.34 kcal/mol
DOCKED: USER        Moving Ligand-Moving Receptor   =  +0.00 kcal/mol
DOCKED: USER    (2) Final Total Internal Energy     =  -2.17 kcal/mol
DOCKED: USER    (3) Torsional Free Energy           =  +1.79 kcal/mol
DOCKED: USER    (4) Unbound System's Energy         =  -2.17 kcal/mol
DOCKED: USER
DOCKED: USER
DOCKED: REMARK SMILES O=C(NC/C(O)=[N+]1/CCC[C@H]1c1cscn1)c1ccc2cc(F)ccc2n1
DOCKED: REMARK SMILES IDX 4 1 5 2 6 3 7 5 8 6 11 7 9 8 10 9 12 10 16 11 13 12 15 13
DOCKED: REMARK SMILES IDX 14 14 3 15 2 16 1 18 17 19 27 20 18 21 26 22 19 23 25 24
DOCKED: REMARK SMILES IDX 20 25 24 26 21 27 22 28 23 29
DOCKED: REMARK H PARENT 6 4 3 17
DOCKED: USER                              x       y       z     vdW  Elec       q    Type
DOCKED: USER                           _______ _______ _______ _____ _____    ______ ____
DOCKED: ROOT
DOCKED: ATOM      1  C   UNL     1     140.280  74.616 221.058 -0.17 -0.05    +0.269 C  
DOCKED: ENDROOT
DOCKED: BRANCH   1   2
DOCKED: ATOM      2  C   UNL     1     140.108  76.063 221.452 -0.18 -0.09    +0.354 C  
DOCKED: BRANCH   2   3
DOCKED: ATOM      3  O   UNL     1     139.550  76.299 222.714 -0.23 +0.08    -0.462 OA 
DOCKED: ATOM      4  H   UNL     1     139.555  77.202 223.170 +0.15 -0.04    +0.299 HD 
DOCKED: ENDBRANCH   2   3
DOCKED: BRANCH   2   5
DOCKED: ATOM      5  N   UNL     1     140.484  77.059 220.676 -0.12 +0.07    -0.192 N  
DOCKED: ATOM      6  C   UNL     1     139.676  77.551 219.563 -0.01 -0.11    +0.355 C  
DOCKED: ATOM      7  C   UNL     1     141.767  77.766 220.764 -0.15 -0.19    +0.314 C  
DOCKED: ATOM      8  C   UNL     1     140.451  78.708 218.946 -0.10 -0.03    +0.080 C  
DOCKED: ATOM      9  C   UNL     1     141.871  78.591 219.480 -0.24 -0.06    +0.090 C  
DOCKED: BRANCH   7  10
DOCKED: ATOM     10  C   UNL     1     141.819  78.654 221.984 -0.37 -0.06    +0.119 A  
DOCKED: ATOM     11  N   UNL     1     141.461  78.191 223.213 -0.34 +0.09    -0.243 NA 
DOCKED: ATOM     12  C   UNL     1     142.265  79.976 221.962 -0.43 -0.04    +0.097 A  
DOCKED: ATOM     13  C   UNL     1     141.603  79.127 224.175 -0.41 -0.04    +0.176 A  
DOCKED: ATOM     14  S   UNL     1     142.192  80.563 223.533 -0.70 +0.03    -0.130 S  
DOCKED: ENDBRANCH   7  10
DOCKED: ENDBRANCH   2   5
DOCKED: ENDBRANCH   1   2
DOCKED: BRANCH   1  15
DOCKED: ATOM     15  N   UNL     1     139.967  73.733 222.180 -0.12 +0.03    -0.337 N  
DOCKED: ATOM     16  C   UNL     1     140.259  72.329 222.130 -0.20 -0.03    +0.270 C  
DOCKED: ATOM     17  H   UNL     1     139.533  74.135 223.042 -0.51 -0.02    +0.164 HD 
DOCKED: ATOM     18  O   UNL     1     140.712  71.823 221.066 -0.11 +0.04    -0.268 OA 
DOCKED: BRANCH  16  19
DOCKED: ATOM     19  C   UNL     1     140.053  71.475 223.320 -0.31 -0.02    +0.128 A  
DOCKED: ATOM     20  N   UNL     1     140.522  71.885 224.531 -0.26 +0.04    -0.243 NA 
DOCKED: ATOM     21  C   UNL     1     139.396  70.236 223.219 -0.25 -0.01    +0.035 A  
DOCKED: ATOM     22  C   UNL     1     140.386  71.133 225.655 -0.52 -0.01    +0.071 A  
DOCKED: ATOM     23  C   UNL     1     139.240  69.441 224.357 -0.33 -0.00    +0.013 A  
DOCKED: ATOM     24  C   UNL     1     140.892  71.594 226.875 -0.71 -0.01    +0.032 A  
DOCKED: ATOM     25  C   UNL     1     139.736  69.881 225.589 -0.45 -0.00    +0.003 A  
DOCKED: ATOM     26  C   UNL     1     140.753  70.816 228.028 -0.66 -0.01    +0.041 A  
DOCKED: ATOM     27  C   UNL     1     139.600  69.106 226.750 -0.51 -0.01    +0.049 A  
DOCKED: ATOM     28  C   UNL     1     140.109  69.574 227.966 -0.52 -0.02    +0.123 A  
DOCKED: ATOM     29  F   UNL     1     139.979  68.824 229.088 -0.14 +0.03    -0.207 F  
DOCKED: ENDBRANCH  16  19
DOCKED: ENDBRANCH   1  15
DOCKED: TORSDOF 6
DOCKED: TER
DOCKED: ENDMDL
________________________________________________________________________________


    FINAL DOCKED STATE:
    ________________________


Run:   10 / 20
Time taken for this run:   0.024s

DOCKED: MODEL        10
DOCKED: USER    Run = 10
DOCKED: USER
DOCKED: USER    Estimated Free Energy of Binding    =  -7.57 kcal/mol  [=(1)+(2)+(3)-(4)]
DOCKED: USER
DOCKED: USER    (1) Final Intermolecular Energy     =  -9.36 kcal/mol
DOCKED: USER        vdW + Hbond + desolv Energy     =  -8.90 kcal/mol
DOCKED: USER        Electrostatic Energy            =  -0.46 kcal/mol
DOCKED: USER        Moving Ligand-Fixed Receptor    =  -9.36 kcal/mol
DOCKED: USER        Moving Ligand-Moving Receptor   =  +0.00 kcal/mol
DOCKED: USER    (2) Final Total Internal Energy     =  -2.13 kcal/mol
DOCKED: USER    (3) Torsional Free Energy           =  +1.79 kcal/mol
DOCKED: USER    (4) Unbound System's Energy         =  -2.13 kcal/mol
DOCKED: USER
DOCKED: USER
DOCKED: REMARK SMILES O=C(NC/C(O)=[N+]1/CCC[C@H]1c1cscn1)c1ccc2cc(F)ccc2n1
DOCKED: REMARK SMILES IDX 4 1 5 2 6 3 7 5 8 6 11 7 9 8 10 9 12 10 16 11 13 12 15 13
DOCKED: REMARK SMILES IDX 14 14 3 15 2 16 1 18 17 19 27 20 18 21 26 22 19 23 25 24
DOCKED: REMARK SMILES IDX 20 25 24 26 21 27 22 28 23 29
DOCKED: REMARK H PARENT 6 4 3 17
DOCKED: USER                              x       y       z     vdW  Elec       q    Type
DOCKED: USER                           _______ _______ _______ _____ _____    ______ ____
DOCKED: ROOT
DOCKED: ATOM      1  C   UNL     1     140.208  74.617 221.026 -0.17 -0.05    +0.269 C  
DOCKED: ENDROOT
DOCKED: BRANCH   1   2
DOCKED: ATOM      2  C   UNL     1     140.078  76.061 221.448 -0.18 -0.09    +0.354 C  
DOCKED: BRANCH   2   3
DOCKED: ATOM      3  O   UNL     1     139.554  76.289 222.726 -0.23 +0.08    -0.462 OA 
DOCKED: ATOM      4  H   UNL     1     139.823  77.067 223.312 +0.17 -0.04    +0.299 HD 
DOCKED: ENDBRANCH   2   3
DOCKED: BRANCH   2   5
DOCKED: ATOM      5  N   UNL     1     140.460  77.061 220.679 -0.12 +0.07    -0.192 N  
DOCKED: ATOM      6  C   UNL     1     139.654  77.565 219.571 -0.01 -0.11    +0.355 C  
DOCKED: ATOM      7  C   UNL     1     141.746  77.759 220.772 -0.15 -0.19    +0.314 C  
DOCKED: ATOM      8  C   UNL     1     140.435  78.723 218.962 -0.10 -0.03    +0.080 C  
DOCKED: ATOM      9  C   UNL     1     141.855  78.594 219.495 -0.24 -0.06    +0.090 C  
DOCKED: BRANCH   7  10
DOCKED: ATOM     10  C   UNL     1     141.804  78.638 221.999 -0.37 -0.06    +0.119 A  
DOCKED: ATOM     11  N   UNL     1     141.483  78.155 223.231 -0.33 +0.09    -0.243 NA 
DOCKED: ATOM     12  C   UNL     1     142.217  79.970 221.979 -0.44 -0.04    +0.097 A  
DOCKED: ATOM     13  C   UNL     1     141.624  79.086 224.198 -0.41 -0.04    +0.176 A  
DOCKED: ATOM     14  S   UNL     1     142.165  80.542 223.558 -0.69 +0.03    -0.130 S  
DOCKED: ENDBRANCH   7  10
DOCKED: ENDBRANCH   2   5
DOCKED: ENDBRANCH   1   2
DOCKED: BRANCH   1  15
DOCKED: ATOM     15  N   UNL     1     139.890  73.723 222.139 -0.13 +0.04    -0.337 N  
DOCKED: ATOM     16  C   UNL     1     140.334  72.357 222.150 -0.20 -0.03    +0.270 C  
DOCKED: ATOM     17  H   UNL     1     139.339  74.088 222.948 -0.51 -0.04    +0.164 HD 
DOCKED: ATOM     18  O   UNL     1     140.934  71.888 221.144 -0.13 +0.03    -0.268 OA 
DOCKED: BRANCH  16  19
DOCKED: ATOM     19  C   UNL     1     140.112  71.505 223.339 -0.31 -0.02    +0.128 A  
DOCKED: ATOM     20  N   UNL     1     140.644  71.872 224.537 -0.26 +0.03    -0.243 NA 
DOCKED: ATOM     21  C   UNL     1     139.376  70.311 223.248 -0.26 -0.01    +0.035 A  
DOCKED: ATOM     22  C   UNL     1     140.496  71.117 225.659 -0.53 -0.01    +0.071 A  
DOCKED: ATOM     23  C   UNL     1     139.206  69.515 224.383 -0.34 -0.00    +0.013 A  
DOCKED: ATOM     24  C   UNL     1     141.069  71.532 226.866 -0.72 -0.01    +0.032 A  
DOCKED: ATOM     25  C   UNL     1     139.768  69.909 225.602 -0.46 -0.00    +0.003 A  
DOCKED: ATOM     26  C   UNL     1     140.918  70.751 228.016 -0.64 -0.01    +0.041 A  
DOCKED: ATOM     27  C   UNL     1     139.619  69.131 226.760 -0.51 -0.01    +0.049 A  
DOCKED: ATOM     28  C   UNL     1     140.195  69.553 227.963 -0.52 -0.02    +0.123 A  
DOCKED: ATOM     29  F   UNL     1     140.054  68.800 229.082 -0.14 +0.04    -0.207 F  
DOCKED: ENDBRANCH  16  19
DOCKED: ENDBRANCH   1  15
DOCKED: TORSDOF 6
DOCKED: TER
DOCKED: ENDMDL
________________________________________________________________________________


    FINAL DOCKED STATE:
    ________________________


Run:   11 / 20
Time taken for this run:   0.024s

DOCKED: MODEL        11
DOCKED: USER    Run = 11
DOCKED: USER
DOCKED: USER    Estimated Free Energy of Binding    =  -8.03 kcal/mol  [=(1)+(2)+(3)-(4)]
DOCKED: USER
DOCKED: USER    (1) Final Intermolecular Energy     =  -9.82 kcal/mol
DOCKED: USER        vdW + Hbond + desolv Energy     =  -9.16 kcal/mol
DOCKED: USER        Electrostatic Energy            =  -0.65 kcal/mol
DOCKED: USER        Moving Ligand-Fixed Receptor    =  -9.82 kcal/mol
DOCKED: USER        Moving Ligand-Moving Receptor   =  +0.00 kcal/mol
DOCKED: USER    (2) Final Total Internal Energy     =  -1.61 kcal/mol
DOCKED: USER    (3) Torsional Free Energy           =  +1.79 kcal/mol
DOCKED: USER    (4) Unbound System's Energy         =  -1.61 kcal/mol
DOCKED: USER
DOCKED: USER
DOCKED: REMARK SMILES O=C(NC/C(O)=[N+]1/CCC[C@H]1c1cscn1)c1ccc2cc(F)ccc2n1
DOCKED: REMARK SMILES IDX 4 1 5 2 6 3 7 5 8 6 11 7 9 8 10 9 12 10 16 11 13 12 15 13
DOCKED: REMARK SMILES IDX 14 14 3 15 2 16 1 18 17 19 27 20 18 21 26 22 19 23 25 24
DOCKED: REMARK SMILES IDX 20 25 24 26 21 27 22 28 23 29
DOCKED: REMARK H PARENT 6 4 3 17
DOCKED: USER                              x       y       z     vdW  Elec       q    Type
DOCKED: USER                           _______ _______ _______ _____ _____    ______ ____
DOCKED: ROOT
DOCKED: ATOM      1  C   UNL     1     139.407  74.830 221.078 -0.14 -0.06    +0.269 C  
DOCKED: ENDROOT
DOCKED: BRANCH   1   2
DOCKED: ATOM      2  C   UNL     1     140.521  75.824 221.305 -0.18 -0.10    +0.354 C  
DOCKED: BRANCH   2   3
DOCKED: ATOM      3  O   UNL     1     141.417  75.526 222.337 -0.13 +0.11    -0.462 OA 
DOCKED: ATOM      4  H   UNL     1     142.163  76.143 222.628 -0.39 -0.24    +0.299 HD 
DOCKED: ENDBRANCH   2   3
DOCKED: BRANCH   2   5
DOCKED: ATOM      5  N   UNL     1     140.671  76.902 220.561 -0.12 +0.07    -0.192 N  
DOCKED: ATOM      6  C   UNL     1     139.717  77.294 219.527 -0.01 -0.11    +0.355 C  
DOCKED: ATOM      7  C   UNL     1     141.819  77.812 220.608 -0.16 -0.19    +0.314 C  
DOCKED: ATOM      8  C   UNL     1     140.242  78.592 218.926 -0.08 -0.03    +0.080 C  
DOCKED: ATOM      9  C   UNL     1     141.695  78.697 219.366 -0.24 -0.05    +0.090 C  
DOCKED: BRANCH   7  10
DOCKED: ATOM     10  C   UNL     1     141.806  78.645 221.868 -0.36 -0.07    +0.119 A  
DOCKED: ATOM     11  N   UNL     1     141.430  78.112 223.064 -0.33 +0.10    -0.243 NA 
DOCKED: ATOM     12  C   UNL     1     142.205  79.980 221.919 -0.43 -0.04    +0.097 A  
DOCKED: ATOM     13  C   UNL     1     141.512  79.008 224.071 -0.43 -0.04    +0.176 A  
DOCKED: ATOM     14  S   UNL     1     142.068  80.491 223.513 -0.68 +0.03    -0.130 S  
DOCKED: ENDBRANCH   7  10
DOCKED: ENDBRANCH   2   5
DOCKED: ENDBRANCH   1   2
DOCKED: BRANCH   1  15
DOCKED: ATOM     15  N   UNL     1     139.338  73.871 222.180 -0.11 +0.07    -0.337 N  
DOCKED: ATOM     16  C   UNL     1     139.905  72.558 222.065 -0.19 -0.04    +0.270 C  
DOCKED: ATOM     17  H   UNL     1     138.877  74.153 223.075 -0.56 -0.10    +0.164 HD 
DOCKED: ATOM     18  O   UNL     1     140.395  72.184 220.964 -0.10 +0.04    -0.268 OA 
DOCKED: BRANCH  16  19
DOCKED: ATOM     19  C   UNL     1     139.937  71.648 223.231 -0.30 -0.02    +0.128 A  
DOCKED: ATOM     20  N   UNL     1     140.413  72.101 224.424 -0.12 +0.04    -0.243 NA 
DOCKED: ATOM     21  C   UNL     1     139.502  70.316 223.124 -0.24 -0.01    +0.035 A  
DOCKED: ATOM     22  C   UNL     1     140.491  71.305 225.523 -0.51 -0.01    +0.071 A  
DOCKED: ATOM     23  C   UNL     1     139.569  69.474 224.236 -0.31 -0.00    +0.013 A  
DOCKED: ATOM     24  C   UNL     1     140.996  71.814 226.725 -0.72 -0.01    +0.032 A  
DOCKED: ATOM     25  C   UNL     1     140.068  69.960 225.450 -0.46 -0.00    +0.003 A  
DOCKED: ATOM     26  C   UNL     1     141.079  70.991 227.852 -0.68 -0.01    +0.041 A  
DOCKED: ATOM     27  C   UNL     1     140.152  69.141 226.585 -0.52 -0.01    +0.049 A  
DOCKED: ATOM     28  C   UNL     1     140.658  69.658 227.783 -0.51 -0.02    +0.123 A  
DOCKED: ATOM     29  F   UNL     1     140.742  68.865 228.880 -0.14 +0.04    -0.207 F  
DOCKED: ENDBRANCH  16  19
DOCKED: ENDBRANCH   1  15
DOCKED: TORSDOF 6
DOCKED: TER
DOCKED: ENDMDL
________________________________________________________________________________


    FINAL DOCKED STATE:
    ________________________


Run:   12 / 20
Time taken for this run:   0.024s

DOCKED: MODEL        12
DOCKED: USER    Run = 12
DOCKED: USER
DOCKED: USER    Estimated Free Energy of Binding    =  -7.51 kcal/mol  [=(1)+(2)+(3)-(4)]
DOCKED: USER
DOCKED: USER    (1) Final Intermolecular Energy     =  -9.30 kcal/mol
DOCKED: USER        vdW + Hbond + desolv Energy     =  -8.86 kcal/mol
DOCKED: USER        Electrostatic Energy            =  -0.44 kcal/mol
DOCKED: USER        Moving Ligand-Fixed Receptor    =  -9.30 kcal/mol
DOCKED: USER        Moving Ligand-Moving Receptor   =  +0.00 kcal/mol
DOCKED: USER    (2) Final Total Internal Energy     =  -2.21 kcal/mol
DOCKED: USER    (3) Torsional Free Energy           =  +1.79 kcal/mol
DOCKED: USER    (4) Unbound System's Energy         =  -2.21 kcal/mol
DOCKED: USER
DOCKED: USER
DOCKED: REMARK SMILES O=C(NC/C(O)=[N+]1/CCC[C@H]1c1cscn1)c1ccc2cc(F)ccc2n1
DOCKED: REMARK SMILES IDX 4 1 5 2 6 3 7 5 8 6 11 7 9 8 10 9 12 10 16 11 13 12 15 13
DOCKED: REMARK SMILES IDX 14 14 3 15 2 16 1 18 17 19 27 20 18 21 26 22 19 23 25 24
DOCKED: REMARK SMILES IDX 20 25 24 26 21 27 22 28 23 29
DOCKED: REMARK H PARENT 6 4 3 17
DOCKED: USER                              x       y       z     vdW  Elec       q    Type
DOCKED: USER                           _______ _______ _______ _____ _____    ______ ____
DOCKED: ROOT
DOCKED: ATOM      1  C   UNL     1     140.209  74.626 221.081 -0.17 -0.05    +0.269 C  
DOCKED: ENDROOT
DOCKED: BRANCH   1   2
DOCKED: ATOM      2  C   UNL     1     140.053  76.072 221.486 -0.18 -0.09    +0.354 C  
DOCKED: BRANCH   2   3
DOCKED: ATOM      3  O   UNL     1     139.506  76.306 222.753 -0.20 +0.08    -0.462 OA 
DOCKED: ATOM      4  H   UNL     1     139.764  77.088 223.340 +0.17 -0.04    +0.299 HD 
DOCKED: ENDBRANCH   2   3
DOCKED: BRANCH   2   5
DOCKED: ATOM      5  N   UNL     1     140.434  77.069 220.713 -0.12 +0.07    -0.192 N  
DOCKED: ATOM      6  C   UNL     1     139.626  77.570 219.604 -0.01 -0.11    +0.355 C  
DOCKED: ATOM      7  C   UNL     1     141.720  77.768 220.801 -0.15 -0.19    +0.314 C  
DOCKED: ATOM      8  C   UNL     1     140.405  78.725 218.989 -0.10 -0.03    +0.080 C  
DOCKED: ATOM      9  C   UNL     1     141.827  78.598 219.520 -0.25 -0.05    +0.090 C  
DOCKED: BRANCH   7  10
DOCKED: ATOM     10  C   UNL     1     141.780  78.651 222.024 -0.37 -0.06    +0.119 A  
DOCKED: ATOM     11  N   UNL     1     141.448  78.177 223.257 -0.34 +0.09    -0.243 NA 
DOCKED: ATOM     12  C   UNL     1     142.207  79.979 222.002 -0.44 -0.04    +0.097 A  
DOCKED: ATOM     13  C   UNL     1     141.593  79.111 224.221 -0.40 -0.04    +0.176 A  
DOCKED: ATOM     14  S   UNL     1     142.151  80.558 223.577 -0.69 +0.03    -0.130 S  
DOCKED: ENDBRANCH   7  10
DOCKED: ENDBRANCH   2   5
DOCKED: ENDBRANCH   1   2
DOCKED: BRANCH   1  15
DOCKED: ATOM     15  N   UNL     1     139.926  73.740 222.210 -0.11 +0.03    -0.337 N  
DOCKED: ATOM     16  C   UNL     1     140.177  72.328 222.133 -0.20 -0.04    +0.270 C  
DOCKED: ATOM     17  H   UNL     1     139.545  74.144 223.095 -0.53 -0.02    +0.164 HD 
DOCKED: ATOM     18  O   UNL     1     140.565  71.822 221.044 -0.11 +0.04    -0.268 OA 
DOCKED: BRANCH  16  19
DOCKED: ATOM     19  C   UNL     1     140.005  71.469 223.324 -0.31 -0.02    +0.128 A  
DOCKED: ATOM     20  N   UNL     1     140.481  71.887 224.529 -0.27 +0.04    -0.243 NA 
DOCKED: ATOM     21  C   UNL     1     139.374  70.216 223.229 -0.25 -0.01    +0.035 A  
DOCKED: ATOM     22  C   UNL     1     140.375  71.130 225.653 -0.52 -0.01    +0.071 A  
DOCKED: ATOM     23  C   UNL     1     139.249  69.416 224.367 -0.33 -0.00    +0.013 A  
DOCKED: ATOM     24  C   UNL     1     140.887  71.599 226.868 -0.71 -0.01    +0.032 A  
DOCKED: ATOM     25  C   UNL     1     139.752  69.864 225.593 -0.45 -0.00    +0.003 A  
DOCKED: ATOM     26  C   UNL     1     140.781  70.816 228.021 -0.66 -0.01    +0.041 A  
DOCKED: ATOM     27  C   UNL     1     139.647  69.084 226.754 -0.51 -0.01    +0.049 A  
DOCKED: ATOM     28  C   UNL     1     140.162  69.561 227.965 -0.52 -0.02    +0.123 A  
DOCKED: ATOM     29  F   UNL     1     140.063  68.806 229.087 -0.14 +0.04    -0.207 F  
DOCKED: ENDBRANCH  16  19
DOCKED: ENDBRANCH   1  15
DOCKED: TORSDOF 6
DOCKED: TER
DOCKED: ENDMDL
________________________________________________________________________________


    FINAL DOCKED STATE:
    ________________________


Run:   13 / 20
Time taken for this run:   0.024s

DOCKED: MODEL        13
DOCKED: USER    Run = 13
DOCKED: USER
DOCKED: USER    Estimated Free Energy of Binding    =  -7.54 kcal/mol  [=(1)+(2)+(3)-(4)]
DOCKED: USER
DOCKED: USER    (1) Final Intermolecular Energy     =  -9.33 kcal/mol
DOCKED: USER        vdW + Hbond + desolv Energy     =  -8.89 kcal/mol
DOCKED: USER        Electrostatic Energy            =  -0.44 kcal/mol
DOCKED: USER        Moving Ligand-Fixed Receptor    =  -9.33 kcal/mol
DOCKED: USER        Moving Ligand-Moving Receptor   =  +0.00 kcal/mol
DOCKED: USER    (2) Final Total Internal Energy     =  -2.19 kcal/mol
DOCKED: USER    (3) Torsional Free Energy           =  +1.79 kcal/mol
DOCKED: USER    (4) Unbound System's Energy         =  -2.19 kcal/mol
DOCKED: USER
DOCKED: USER
DOCKED: REMARK SMILES O=C(NC/C(O)=[N+]1/CCC[C@H]1c1cscn1)c1ccc2cc(F)ccc2n1
DOCKED: REMARK SMILES IDX 4 1 5 2 6 3 7 5 8 6 11 7 9 8 10 9 12 10 16 11 13 12 15 13
DOCKED: REMARK SMILES IDX 14 14 3 15 2 16 1 18 17 19 27 20 18 21 26 22 19 23 25 24
DOCKED: REMARK SMILES IDX 20 25 24 26 21 27 22 28 23 29
DOCKED: REMARK H PARENT 6 4 3 17
DOCKED: USER                              x       y       z     vdW  Elec       q    Type
DOCKED: USER                           _______ _______ _______ _____ _____    ______ ____
DOCKED: ROOT
DOCKED: ATOM      1  C   UNL     1     140.343  74.631 221.096 -0.18 -0.05    +0.269 C  
DOCKED: ENDROOT
DOCKED: BRANCH   1   2
DOCKED: ATOM      2  C   UNL     1     140.094  76.072 221.473 -0.18 -0.09    +0.354 C  
DOCKED: BRANCH   2   3
DOCKED: ATOM      3  O   UNL     1     139.484  76.292 222.713 -0.22 +0.08    -0.462 OA 
DOCKED: ATOM      4  H   UNL     1     139.679  77.092 223.300 +0.17 -0.04    +0.299 HD 
DOCKED: ENDBRANCH   2   3
DOCKED: BRANCH   2   5
DOCKED: ATOM      5  N   UNL     1     140.452  77.078 220.700 -0.12 +0.07    -0.192 N  
DOCKED: ATOM      6  C   UNL     1     139.625  77.573 219.603 -0.01 -0.11    +0.355 C  
DOCKED: ATOM      7  C   UNL     1     141.729  77.794 220.778 -0.15 -0.19    +0.314 C  
DOCKED: ATOM      8  C   UNL     1     140.381  78.742 218.986 -0.09 -0.03    +0.080 C  
DOCKED: ATOM      9  C   UNL     1     141.810  78.632 219.500 -0.25 -0.05    +0.090 C  
DOCKED: BRANCH   7  10
DOCKED: ATOM     10  C   UNL     1     141.791  78.672 222.005 -0.37 -0.06    +0.119 A  
DOCKED: ATOM     11  N   UNL     1     141.440  78.198 223.232 -0.34 +0.09    -0.243 NA 
DOCKED: ATOM     12  C   UNL     1     142.239  79.993 221.991 -0.44 -0.04    +0.097 A  
DOCKED: ATOM     13  C   UNL     1     141.590  79.127 224.201 -0.40 -0.04    +0.176 A  
DOCKED: ATOM     14  S   UNL     1     142.177  80.567 223.568 -0.69 +0.03    -0.130 S  
DOCKED: ENDBRANCH   7  10
DOCKED: ENDBRANCH   2   5
DOCKED: ENDBRANCH   1   2
DOCKED: BRANCH   1  15
DOCKED: ATOM     15  N   UNL     1     140.015  73.742 222.210 -0.10 +0.02    -0.337 N  
DOCKED: ATOM     16  C   UNL     1     140.335  72.343 222.168 -0.20 -0.03    +0.270 C  
DOCKED: ATOM     17  H   UNL     1     139.548  74.135 223.059 -0.51 -0.02    +0.164 HD 
DOCKED: ATOM     18  O   UNL     1     140.828  71.847 221.118 -0.12 +0.04    -0.268 OA 
DOCKED: BRANCH  16  19
DOCKED: ATOM     19  C   UNL     1     140.111  71.486 223.352 -0.31 -0.02    +0.128 A  
DOCKED: ATOM     20  N   UNL     1     140.594  71.874 224.565 -0.26 +0.03    -0.243 NA 
DOCKED: ATOM     21  C   UNL     1     139.423  70.264 223.244 -0.25 -0.01    +0.035 A  
DOCKED: ATOM     22  C   UNL     1     140.442  71.117 225.683 -0.53 -0.01    +0.071 A  
DOCKED: ATOM     23  C   UNL     1     139.250  69.465 224.375 -0.33 -0.00    +0.013 A  
DOCKED: ATOM     24  C   UNL     1     140.964  71.554 226.905 -0.72 -0.01    +0.032 A  
DOCKED: ATOM     25  C   UNL     1     139.761  69.882 225.610 -0.46 -0.00    +0.003 A  
DOCKED: ATOM     26  C   UNL     1     140.809  70.771 228.052 -0.64 -0.01    +0.041 A  
DOCKED: ATOM     27  C   UNL     1     139.608  69.101 226.764 -0.51 -0.01    +0.049 A  
DOCKED: ATOM     28  C   UNL     1     140.133  69.546 227.983 -0.52 -0.02    +0.123 A  
DOCKED: ATOM     29  F   UNL     1     139.988  68.790 229.100 -0.14 +0.03    -0.207 F  
DOCKED: ENDBRANCH  16  19
DOCKED: ENDBRANCH   1  15
DOCKED: TORSDOF 6
DOCKED: TER
DOCKED: ENDMDL
________________________________________________________________________________


    FINAL DOCKED STATE:
    ________________________


Run:   14 / 20
Time taken for this run:   0.024s

DOCKED: MODEL        14
DOCKED: USER    Run = 14
DOCKED: USER
DOCKED: USER    Estimated Free Energy of Binding    =  -7.55 kcal/mol  [=(1)+(2)+(3)-(4)]
DOCKED: USER
DOCKED: USER    (1) Final Intermolecular Energy     =  -9.34 kcal/mol
DOCKED: USER        vdW + Hbond + desolv Energy     =  -8.89 kcal/mol
DOCKED: USER        Electrostatic Energy            =  -0.45 kcal/mol
DOCKED: USER        Moving Ligand-Fixed Receptor    =  -9.34 kcal/mol
DOCKED: USER        Moving Ligand-Moving Receptor   =  +0.00 kcal/mol
DOCKED: USER    (2) Final Total Internal Energy     =  -2.18 kcal/mol
DOCKED: USER    (3) Torsional Free Energy           =  +1.79 kcal/mol
DOCKED: USER    (4) Unbound System's Energy         =  -2.18 kcal/mol
DOCKED: USER
DOCKED: USER
DOCKED: REMARK SMILES O=C(NC/C(O)=[N+]1/CCC[C@H]1c1cscn1)c1ccc2cc(F)ccc2n1
DOCKED: REMARK SMILES IDX 4 1 5 2 6 3 7 5 8 6 11 7 9 8 10 9 12 10 16 11 13 12 15 13
DOCKED: REMARK SMILES IDX 14 14 3 15 2 16 1 18 17 19 27 20 18 21 26 22 19 23 25 24
DOCKED: REMARK SMILES IDX 20 25 24 26 21 27 22 28 23 29
DOCKED: REMARK H PARENT 6 4 3 17
DOCKED: USER                              x       y       z     vdW  Elec       q    Type
DOCKED: USER                           _______ _______ _______ _____ _____    ______ ____
DOCKED: ROOT
DOCKED: ATOM      1  C   UNL     1     140.362  74.619 221.108 -0.18 -0.05    +0.269 C  
DOCKED: ENDROOT
DOCKED: BRANCH   1   2
DOCKED: ATOM      2  C   UNL     1     140.103  76.059 221.480 -0.18 -0.09    +0.354 C  
DOCKED: BRANCH   2   3
DOCKED: ATOM      3  O   UNL     1     139.484  76.279 222.715 -0.23 +0.08    -0.462 OA 
DOCKED: ATOM      4  H   UNL     1     139.622  77.112 223.273 +0.16 -0.04    +0.299 HD 
DOCKED: ENDBRANCH   2   3
DOCKED: BRANCH   2   5
DOCKED: ATOM      5  N   UNL     1     140.462  77.066 220.708 -0.12 +0.07    -0.192 N  
DOCKED: ATOM      6  C   UNL     1     139.631  77.569 219.618 -0.01 -0.11    +0.355 C  
DOCKED: ATOM      7  C   UNL     1     141.744  77.774 220.779 -0.15 -0.19    +0.314 C  
DOCKED: ATOM      8  C   UNL     1     140.390  78.735 218.999 -0.10 -0.03    +0.080 C  
DOCKED: ATOM      9  C   UNL     1     141.821  78.615 219.504 -0.25 -0.05    +0.090 C  
DOCKED: BRANCH   7  10
DOCKED: ATOM     10  C   UNL     1     141.819  78.648 222.008 -0.37 -0.06    +0.119 A  
DOCKED: ATOM     11  N   UNL     1     141.465  78.175 223.235 -0.34 +0.09    -0.243 NA 
DOCKED: ATOM     12  C   UNL     1     142.283  79.963 221.997 -0.43 -0.04    +0.097 A  
DOCKED: ATOM     13  C   UNL     1     141.629  79.099 224.206 -0.40 -0.04    +0.176 A  
DOCKED: ATOM     14  S   UNL     1     142.231  80.534 223.576 -0.70 +0.03    -0.130 S  
DOCKED: ENDBRANCH   7  10
DOCKED: ENDBRANCH   2   5
DOCKED: ENDBRANCH   1   2
DOCKED: BRANCH   1  15
DOCKED: ATOM     15  N   UNL     1     140.032  73.730 222.222 -0.09 +0.02    -0.337 N  
DOCKED: ATOM     16  C   UNL     1     140.354  72.332 222.182 -0.20 -0.03    +0.270 C  
DOCKED: ATOM     17  H   UNL     1     139.564  74.124 223.069 -0.51 -0.02    +0.164 HD 
DOCKED: ATOM     18  O   UNL     1     140.850  71.835 221.134 -0.13 +0.04    -0.268 OA 
DOCKED: BRANCH  16  19
DOCKED: ATOM     19  C   UNL     1     140.128  71.476 223.367 -0.31 -0.02    +0.128 A  
DOCKED: ATOM     20  N   UNL     1     140.612  71.864 224.579 -0.26 +0.03    -0.243 NA 
DOCKED: ATOM     21  C   UNL     1     139.439  70.255 223.259 -0.25 -0.01    +0.035 A  
DOCKED: ATOM     22  C   UNL     1     140.458  71.107 225.698 -0.53 -0.01    +0.071 A  
DOCKED: ATOM     23  C   UNL     1     139.264  69.456 224.391 -0.34 -0.00    +0.013 A  
DOCKED: ATOM     24  C   UNL     1     140.980  71.545 226.920 -0.72 -0.01    +0.032 A  
DOCKED: ATOM     25  C   UNL     1     139.776  69.873 225.625 -0.46 -0.00    +0.003 A  
DOCKED: ATOM     26  C   UNL     1     140.823  70.762 228.068 -0.63 -0.01    +0.041 A  
DOCKED: ATOM     27  C   UNL     1     139.621  69.093 226.780 -0.51 -0.01    +0.049 A  
DOCKED: ATOM     28  C   UNL     1     140.146  69.539 227.999 -0.52 -0.02    +0.123 A  
DOCKED: ATOM     29  F   UNL     1     139.999  68.783 229.116 -0.13 +0.03    -0.207 F  
DOCKED: ENDBRANCH  16  19
DOCKED: ENDBRANCH   1  15
DOCKED: TORSDOF 6
DOCKED: TER
DOCKED: ENDMDL
________________________________________________________________________________


    FINAL DOCKED STATE:
    ________________________


Run:   15 / 20
Time taken for this run:   0.024s

DOCKED: MODEL        15
DOCKED: USER    Run = 15
DOCKED: USER
DOCKED: USER    Estimated Free Energy of Binding    =  -7.63 kcal/mol  [=(1)+(2)+(3)-(4)]
DOCKED: USER
DOCKED: USER    (1) Final Intermolecular Energy     =  -9.41 kcal/mol
DOCKED: USER        vdW + Hbond + desolv Energy     =  -8.95 kcal/mol
DOCKED: USER        Electrostatic Energy            =  -0.47 kcal/mol
DOCKED: USER        Moving Ligand-Fixed Receptor    =  -9.41 kcal/mol
DOCKED: USER        Moving Ligand-Moving Receptor   =  +0.00 kcal/mol
DOCKED: USER    (2) Final Total Internal Energy     =  -2.09 kcal/mol
DOCKED: USER    (3) Torsional Free Energy           =  +1.79 kcal/mol
DOCKED: USER    (4) Unbound System's Energy         =  -2.09 kcal/mol
DOCKED: USER
DOCKED: USER
DOCKED: REMARK SMILES O=C(NC/C(O)=[N+]1/CCC[C@H]1c1cscn1)c1ccc2cc(F)ccc2n1
DOCKED: REMARK SMILES IDX 4 1 5 2 6 3 7 5 8 6 11 7 9 8 10 9 12 10 16 11 13 12 15 13
DOCKED: REMARK SMILES IDX 14 14 3 15 2 16 1 18 17 19 27 20 18 21 26 22 19 23 25 24
DOCKED: REMARK SMILES IDX 20 25 24 26 21 27 22 28 23 29
DOCKED: REMARK H PARENT 6 4 3 17
DOCKED: USER                              x       y       z     vdW  Elec       q    Type
DOCKED: USER                           _______ _______ _______ _____ _____    ______ ____
DOCKED: ROOT
DOCKED: ATOM      1  C   UNL     1     140.260  74.633 221.044 -0.17 -0.05    +0.269 C  
DOCKED: ENDROOT
DOCKED: BRANCH   1   2
DOCKED: ATOM      2  C   UNL     1     140.073  76.074 221.455 -0.18 -0.09    +0.354 C  
DOCKED: BRANCH   2   3
DOCKED: ATOM      3  O   UNL     1     139.516  76.291 222.720 -0.23 +0.08    -0.462 OA 
DOCKED: ATOM      4  H   UNL     1     139.515  77.188 223.187 +0.15 -0.04    +0.299 HD 
DOCKED: ENDBRANCH   2   3
DOCKED: BRANCH   2   5
DOCKED: ATOM      5  N   UNL     1     140.437  77.083 220.688 -0.12 +0.07    -0.192 N  
DOCKED: ATOM      6  C   UNL     1     139.616  77.583 219.588 -0.01 -0.11    +0.355 C  
DOCKED: ATOM      7  C   UNL     1     141.715  77.797 220.774 -0.15 -0.19    +0.314 C  
DOCKED: ATOM      8  C   UNL     1     140.377  78.753 218.979 -0.09 -0.03    +0.080 C  
DOCKED: ATOM      9  C   UNL     1     141.803  78.639 219.500 -0.25 -0.05    +0.090 C  
DOCKED: BRANCH   7  10
DOCKED: ATOM     10  C   UNL     1     141.771  78.670 222.005 -0.37 -0.06    +0.119 A  
DOCKED: ATOM     11  N   UNL     1     141.423  78.189 223.231 -0.34 +0.09    -0.243 NA 
DOCKED: ATOM     12  C   UNL     1     142.211  79.994 221.997 -0.44 -0.04    +0.097 A  
DOCKED: ATOM     13  C   UNL     1     141.568  79.115 224.203 -0.40 -0.04    +0.176 A  
DOCKED: ATOM     14  S   UNL     1     142.145  80.561 223.576 -0.69 +0.03    -0.130 S  
DOCKED: ENDBRANCH   7  10
DOCKED: ENDBRANCH   2   5
DOCKED: ENDBRANCH   1   2
DOCKED: BRANCH   1  15
DOCKED: ATOM     15  N   UNL     1     139.918  73.733 222.144 -0.13 +0.03    -0.337 N  
DOCKED: ATOM     16  C   UNL     1     140.411  72.385 222.188 -0.20 -0.03    +0.270 C  
DOCKED: ATOM     17  H   UNL     1     139.313  74.082 222.922 -0.51 -0.05    +0.164 HD 
DOCKED: ATOM     18  O   UNL     1     141.078  71.934 221.217 -0.14 +0.03    -0.268 OA 
DOCKED: BRANCH  16  19
DOCKED: ATOM     19  C   UNL     1     140.159  71.532 223.369 -0.32 -0.02    +0.128 A  
DOCKED: ATOM     20  N   UNL     1     140.667  71.893 224.580 -0.26 +0.03    -0.243 NA 
DOCKED: ATOM     21  C   UNL     1     139.420  70.340 223.259 -0.26 -0.01    +0.035 A  
DOCKED: ATOM     22  C   UNL     1     140.491  71.136 225.696 -0.53 -0.01    +0.071 A  
DOCKED: ATOM     23  C   UNL     1     139.222  69.542 224.388 -0.34 -0.00    +0.013 A  
DOCKED: ATOM     24  C   UNL     1     141.038  71.545 226.916 -0.72 -0.01    +0.032 A  
DOCKED: ATOM     25  C   UNL     1     139.759  69.931 225.620 -0.46 -0.00    +0.003 A  
DOCKED: ATOM     26  C   UNL     1     140.859  70.762 228.060 -0.63 -0.01    +0.041 A  
DOCKED: ATOM     27  C   UNL     1     139.581  69.151 226.772 -0.51 -0.01    +0.049 A  
DOCKED: ATOM     28  C   UNL     1     140.133  69.568 227.989 -0.52 -0.02    +0.123 A  
DOCKED: ATOM     29  F   UNL     1     139.963  68.812 229.103 -0.14 +0.03    -0.207 F  
DOCKED: ENDBRANCH  16  19
DOCKED: ENDBRANCH   1  15
DOCKED: TORSDOF 6
DOCKED: TER
DOCKED: ENDMDL
________________________________________________________________________________


    FINAL DOCKED STATE:
    ________________________


Run:   16 / 20
Time taken for this run:   0.024s

DOCKED: MODEL        16
DOCKED: USER    Run = 16
DOCKED: USER
DOCKED: USER    Estimated Free Energy of Binding    =  -8.16 kcal/mol  [=(1)+(2)+(3)-(4)]
DOCKED: USER
DOCKED: USER    (1) Final Intermolecular Energy     =  -9.95 kcal/mol
DOCKED: USER        vdW + Hbond + desolv Energy     =  -9.57 kcal/mol
DOCKED: USER        Electrostatic Energy            =  -0.39 kcal/mol
DOCKED: USER        Moving Ligand-Fixed Receptor    =  -9.95 kcal/mol
DOCKED: USER        Moving Ligand-Moving Receptor   =  +0.00 kcal/mol
DOCKED: USER    (2) Final Total Internal Energy     =  -1.54 kcal/mol
DOCKED: USER    (3) Torsional Free Energy           =  +1.79 kcal/mol
DOCKED: USER    (4) Unbound System's Energy         =  -1.54 kcal/mol
DOCKED: USER
DOCKED: USER
DOCKED: REMARK SMILES O=C(NC/C(O)=[N+]1/CCC[C@H]1c1cscn1)c1ccc2cc(F)ccc2n1
DOCKED: REMARK SMILES IDX 4 1 5 2 6 3 7 5 8 6 11 7 9 8 10 9 12 10 16 11 13 12 15 13
DOCKED: REMARK SMILES IDX 14 14 3 15 2 16 1 18 17 19 27 20 18 21 26 22 19 23 25 24
DOCKED: REMARK SMILES IDX 20 25 24 26 21 27 22 28 23 29
DOCKED: REMARK H PARENT 6 4 3 17
DOCKED: USER                              x       y       z     vdW  Elec       q    Type
DOCKED: USER                           _______ _______ _______ _____ _____    ______ ____
DOCKED: ROOT
DOCKED: ATOM      1  C   UNL     1     139.422  74.518 221.237 -0.15 -0.05    +0.269 C  
DOCKED: ENDROOT
DOCKED: BRANCH   1   2
DOCKED: ATOM      2  C   UNL     1     139.962  75.780 221.865 -0.19 -0.07    +0.354 C  
DOCKED: BRANCH   2   3
DOCKED: ATOM      3  O   UNL     1     141.303  75.748 222.264 -0.21 +0.13    -0.462 OA 
DOCKED: ATOM      4  H   UNL     1     141.874  76.575 222.380 -0.41 -0.22    +0.299 HD 
DOCKED: ENDBRANCH   2   3
DOCKED: BRANCH   2   5
DOCKED: ATOM      5  N   UNL     1     139.233  76.868 222.010 -0.20 +0.04    -0.192 N  
DOCKED: ATOM      6  C   UNL     1     137.953  76.882 222.712 -0.15 -0.07    +0.355 C  
DOCKED: ATOM      7  C   UNL     1     139.553  78.185 221.447 -0.10 -0.08    +0.314 C  
DOCKED: ATOM      8  C   UNL     1     137.455  78.320 222.674 -0.19 -0.01    +0.080 C  
DOCKED: ATOM      9  C   UNL     1     138.280  79.019 221.602 -0.13 -0.02    +0.090 C  
DOCKED: BRANCH   7  10
DOCKED: ATOM     10  C   UNL     1     140.711  78.824 222.175 -0.30 -0.04    +0.119 A  
DOCKED: ATOM     11  N   UNL     1     141.143  78.346 223.375 -0.31 +0.07    -0.243 NA 
DOCKED: ATOM     12  C   UNL     1     141.440  79.903 221.675 -0.35 -0.04    +0.097 A  
DOCKED: ATOM     13  C   UNL     1     142.204  79.036 223.848 -0.39 -0.06    +0.176 A  
DOCKED: ATOM     14  S   UNL     1     142.649  80.258 222.785 -0.67 +0.04    -0.130 S  
DOCKED: ENDBRANCH   7  10
DOCKED: ENDBRANCH   2   5
DOCKED: ENDBRANCH   1   2
DOCKED: BRANCH   1  15
DOCKED: ATOM     15  N   UNL     1     139.252  73.471 222.243 -0.11 +0.08    -0.337 N  
DOCKED: ATOM     16  C   UNL     1     140.307  72.545 222.543 -0.19 -0.03    +0.270 C  
DOCKED: ATOM     17  H   UNL     1     138.348  73.403 222.763 -0.52 -0.08    +0.164 HD 
DOCKED: ATOM     18  O   UNL     1     141.372  72.572 221.867 -0.24 +0.02    -0.268 OA 
DOCKED: BRANCH  16  19
DOCKED: ATOM     19  C   UNL     1     140.163  71.575 223.650 -0.33 -0.02    +0.128 A  
DOCKED: ATOM     20  N   UNL     1     140.642  71.888 224.885 -0.28 +0.03    -0.243 NA 
DOCKED: ATOM     21  C   UNL     1     139.555  70.324 223.444 -0.28 -0.01    +0.035 A  
DOCKED: ATOM     22  C   UNL     1     140.562  71.028 225.935 -0.55 -0.01    +0.071 A  
DOCKED: ATOM     23  C   UNL     1     139.457  69.419 224.503 -0.34 -0.00    +0.013 A  
DOCKED: ATOM     24  C   UNL     1     141.077  71.393 227.184 -0.72 -0.01    +0.032 A  
DOCKED: ATOM     25  C   UNL     1     139.963  69.761 225.763 -0.47 -0.00    +0.003 A  
DOCKED: ATOM     26  C   UNL     1     140.996  70.504 228.260 -0.55 -0.01    +0.041 A  
DOCKED: ATOM     27  C   UNL     1     139.884  68.875 226.847 -0.55 -0.01    +0.049 A  
DOCKED: ATOM     28  C   UNL     1     140.402  69.248 228.092 -0.53 -0.02    +0.123 A  
DOCKED: ATOM     29  F   UNL     1     140.328  68.390 229.140 -0.15 +0.04    -0.207 F  
DOCKED: ENDBRANCH  16  19
DOCKED: ENDBRANCH   1  15
DOCKED: TORSDOF 6
DOCKED: TER
DOCKED: ENDMDL
________________________________________________________________________________


    FINAL DOCKED STATE:
    ________________________


Run:   17 / 20
Time taken for this run:   0.024s

DOCKED: MODEL        17
DOCKED: USER    Run = 17
DOCKED: USER
DOCKED: USER    Estimated Free Energy of Binding    =  -7.96 kcal/mol  [=(1)+(2)+(3)-(4)]
DOCKED: USER
DOCKED: USER    (1) Final Intermolecular Energy     =  -9.74 kcal/mol
DOCKED: USER        vdW + Hbond + desolv Energy     =  -9.28 kcal/mol
DOCKED: USER        Electrostatic Energy            =  -0.47 kcal/mol
DOCKED: USER        Moving Ligand-Fixed Receptor    =  -9.74 kcal/mol
DOCKED: USER        Moving Ligand-Moving Receptor   =  +0.00 kcal/mol
DOCKED: USER    (2) Final Total Internal Energy     =  -1.82 kcal/mol
DOCKED: USER    (3) Torsional Free Energy           =  +1.79 kcal/mol
DOCKED: USER    (4) Unbound System's Energy         =  -1.82 kcal/mol
DOCKED: USER
DOCKED: USER
DOCKED: REMARK SMILES O=C(NC/C(O)=[N+]1/CCC[C@H]1c1cscn1)c1ccc2cc(F)ccc2n1
DOCKED: REMARK SMILES IDX 4 1 5 2 6 3 7 5 8 6 11 7 9 8 10 9 12 10 16 11 13 12 15 13
DOCKED: REMARK SMILES IDX 14 14 3 15 2 16 1 18 17 19 27 20 18 21 26 22 19 23 25 24
DOCKED: REMARK SMILES IDX 20 25 24 26 21 27 22 28 23 29
DOCKED: REMARK H PARENT 6 4 3 17
DOCKED: USER                              x       y       z     vdW  Elec       q    Type
DOCKED: USER                           _______ _______ _______ _____ _____    ______ ____
DOCKED: ROOT
DOCKED: ATOM      1  C   UNL     1     140.326  73.001 220.875 -0.12 -0.04    +0.269 C  
DOCKED: ENDROOT
DOCKED: BRANCH   1   2
DOCKED: ATOM      2  C   UNL     1     140.398  74.459 221.262 -0.16 -0.06    +0.354 C  
DOCKED: BRANCH   2   3
DOCKED: ATOM      3  O   UNL     1     139.602  74.853 222.343 -0.63 +0.06    -0.462 OA 
DOCKED: ATOM      4  H   UNL     1     138.871  74.279 222.741 -0.50 -0.12    +0.299 HD 
DOCKED: ENDBRANCH   2   3
DOCKED: BRANCH   2   5
DOCKED: ATOM      5  N   UNL     1     141.185  75.317 220.644 -0.17 +0.06    -0.192 N  
DOCKED: ATOM      6  C   UNL     1     141.156  76.754 220.907 -0.15 -0.16    +0.355 C  
DOCKED: ATOM      7  C   UNL     1     142.138  74.983 219.581 -0.12 -0.11    +0.314 C  
DOCKED: ATOM      8  C   UNL     1     142.222  77.376 220.014 -0.27 -0.05    +0.080 C  
DOCKED: ATOM      9  C   UNL     1     142.562  76.320 218.972 -0.27 -0.05    +0.090 C  
DOCKED: BRANCH   7  10
DOCKED: ATOM     10  C   UNL     1     143.330  74.235 220.130 -0.29 -0.04    +0.119 A  
DOCKED: ATOM     11  N   UNL     1     143.262  72.905 220.414 -0.16 +0.04    -0.243 NA 
DOCKED: ATOM     12  C   UNL     1     144.577  74.820 220.348 -0.32 -0.05    +0.097 A  
DOCKED: ATOM     13  C   UNL     1     144.437  72.418 220.868 -0.27 -0.03    +0.176 A  
DOCKED: ATOM     14  S   UNL     1     145.606  73.622 220.920 -0.71 +0.02    -0.130 S  
DOCKED: ENDBRANCH   7  10
DOCKED: ENDBRANCH   2   5
DOCKED: ENDBRANCH   1   2
DOCKED: BRANCH   1  15
DOCKED: ATOM     15  N   UNL     1     140.501  72.145 222.047 -0.15 +0.04    -0.337 N  
DOCKED: ATOM     16  C   UNL     1     139.387  71.771 222.873 -0.19 -0.06    +0.270 C  
DOCKED: ATOM     17  H   UNL     1     141.454  71.788 222.283 +0.06 -0.01    +0.164 HD 
DOCKED: ATOM     18  O   UNL     1     138.247  72.259 222.640 -0.14 +0.08    -0.268 OA 
DOCKED: BRANCH  16  19
DOCKED: ATOM     19  C   UNL     1     139.563  70.804 223.978 -0.31 -0.02    +0.128 A  
DOCKED: ATOM     20  N   UNL     1     140.190  71.196 225.121 -0.31 +0.04    -0.243 NA 
DOCKED: ATOM     21  C   UNL     1     139.109  69.479 223.861 -0.28 -0.01    +0.035 A  
DOCKED: ATOM     22  C   UNL     1     140.403  70.346 226.161 -0.50 -0.01    +0.071 A  
DOCKED: ATOM     23  C   UNL     1     139.313  68.582 224.912 -0.39 -0.00    +0.013 A  
DOCKED: ATOM     24  C   UNL     1     141.060  70.794 227.312 -0.63 -0.01    +0.032 A  
DOCKED: ATOM     25  C   UNL     1     139.966  69.007 226.075 -0.52 -0.00    +0.003 A  
DOCKED: ATOM     26  C   UNL     1     141.281  69.916 228.377 -0.43 -0.01    +0.041 A  
DOCKED: ATOM     27  C   UNL     1     140.189  68.131 227.147 -0.63 -0.01    +0.049 A  
DOCKED: ATOM     28  C   UNL     1     140.847  68.587 228.295 -0.55 -0.03    +0.123 A  
DOCKED: ATOM     29  F   UNL     1     141.066  67.740 229.332 -0.17 +0.06    -0.207 F  
DOCKED: ENDBRANCH  16  19
DOCKED: ENDBRANCH   1  15
DOCKED: TORSDOF 6
DOCKED: TER
DOCKED: ENDMDL
________________________________________________________________________________


    FINAL DOCKED STATE:
    ________________________


Run:   18 / 20
Time taken for this run:   0.024s

DOCKED: MODEL        18
DOCKED: USER    Run = 18
DOCKED: USER
DOCKED: USER    Estimated Free Energy of Binding    =  -7.50 kcal/mol  [=(1)+(2)+(3)-(4)]
DOCKED: USER
DOCKED: USER    (1) Final Intermolecular Energy     =  -9.28 kcal/mol
DOCKED: USER        vdW + Hbond + desolv Energy     =  -8.80 kcal/mol
DOCKED: USER        Electrostatic Energy            =  -0.49 kcal/mol
DOCKED: USER        Moving Ligand-Fixed Receptor    =  -9.28 kcal/mol
DOCKED: USER        Moving Ligand-Moving Receptor   =  +0.00 kcal/mol
DOCKED: USER    (2) Final Total Internal Energy     =  -2.16 kcal/mol
DOCKED: USER    (3) Torsional Free Energy           =  +1.79 kcal/mol
DOCKED: USER    (4) Unbound System's Energy         =  -2.16 kcal/mol
DOCKED: USER
DOCKED: USER
DOCKED: REMARK SMILES O=C(NC/C(O)=[N+]1/CCC[C@H]1c1cscn1)c1ccc2cc(F)ccc2n1
DOCKED: REMARK SMILES IDX 4 1 5 2 6 3 7 5 8 6 11 7 9 8 10 9 12 10 16 11 13 12 15 13
DOCKED: REMARK SMILES IDX 14 14 3 15 2 16 1 18 17 19 27 20 18 21 26 22 19 23 25 24
DOCKED: REMARK SMILES IDX 20 25 24 26 21 27 22 28 23 29
DOCKED: REMARK H PARENT 6 4 3 17
DOCKED: USER                              x       y       z     vdW  Elec       q    Type
DOCKED: USER                           _______ _______ _______ _____ _____    ______ ____
DOCKED: ROOT
DOCKED: ATOM      1  C   UNL     1     140.294  74.595 221.059 -0.17 -0.05    +0.269 C  
DOCKED: ENDROOT
DOCKED: BRANCH   1   2
DOCKED: ATOM      2  C   UNL     1     140.088  76.040 221.445 -0.18 -0.09    +0.354 C  
DOCKED: BRANCH   2   3
DOCKED: ATOM      3  O   UNL     1     139.511  76.271 222.698 -0.23 +0.08    -0.462 OA 
DOCKED: ATOM      4  H   UNL     1     139.174  77.174 223.004 +0.12 -0.05    +0.299 HD 
DOCKED: ENDBRANCH   2   3
DOCKED: BRANCH   2   5
DOCKED: ATOM      5  N   UNL     1     140.455  77.040 220.668 -0.12 +0.07    -0.192 N  
DOCKED: ATOM      6  C   UNL     1     139.699  77.449 219.487 -0.01 -0.11    +0.355 C  
DOCKED: ATOM      7  C   UNL     1     141.679  77.832 220.825 -0.16 -0.19    +0.314 C  
DOCKED: ATOM      8  C   UNL     1     140.439  78.640 218.893 -0.09 -0.03    +0.080 C  
DOCKED: ATOM      9  C   UNL     1     141.822  78.631 219.529 -0.25 -0.05    +0.090 C  
DOCKED: BRANCH   7  10
DOCKED: ATOM     10  C   UNL     1     141.585  78.752 222.020 -0.37 -0.06    +0.119 A  
DOCKED: ATOM     11  N   UNL     1     140.440  78.849 222.750 -0.22 +0.06    -0.243 NA 
DOCKED: ATOM     12  C   UNL     1     142.647  79.526 222.487 -0.47 -0.05    +0.097 A  
DOCKED: ATOM     13  C   UNL     1     140.567  79.701 223.790 -0.36 -0.03    +0.176 A  
DOCKED: ATOM     14  S   UNL     1     142.113  80.354 223.846 -0.67 +0.03    -0.130 S  
DOCKED: ENDBRANCH   7  10
DOCKED: ENDBRANCH   2   5
DOCKED: ENDBRANCH   1   2
DOCKED: BRANCH   1  15
DOCKED: ATOM     15  N   UNL     1     139.952  73.709 222.171 -0.12 +0.03    -0.337 N  
DOCKED: ATOM     16  C   UNL     1     140.382  72.339 222.195 -0.20 -0.03    +0.270 C  
DOCKED: ATOM     17  H   UNL     1     139.394  74.084 222.971 -0.50 -0.04    +0.164 HD 
DOCKED: ATOM     18  O   UNL     1     140.990  71.859 221.199 -0.14 +0.03    -0.268 OA 
DOCKED: BRANCH  16  19
DOCKED: ATOM     19  C   UNL     1     140.136  71.495 223.384 -0.32 -0.02    +0.128 A  
DOCKED: ATOM     20  N   UNL     1     140.629  71.878 224.594 -0.26 +0.03    -0.243 NA 
DOCKED: ATOM     21  C   UNL     1     139.416  70.292 223.283 -0.26 -0.01    +0.035 A  
DOCKED: ATOM     22  C   UNL     1     140.458  71.132 225.717 -0.53 -0.01    +0.071 A  
DOCKED: ATOM     23  C   UNL     1     139.223  69.504 224.420 -0.34 -0.00    +0.013 A  
DOCKED: ATOM     24  C   UNL     1     140.991  71.563 226.937 -0.72 -0.01    +0.032 A  
DOCKED: ATOM     25  C   UNL     1     139.745  69.915 225.651 -0.46 -0.00    +0.003 A  
DOCKED: ATOM     26  C   UNL     1     140.816  70.791 228.089 -0.63 -0.01    +0.041 A  
DOCKED: ATOM     27  C   UNL     1     139.572  69.145 226.811 -0.51 -0.01    +0.049 A  
DOCKED: ATOM     28  C   UNL     1     140.108  69.585 228.026 -0.52 -0.02    +0.123 A  
DOCKED: ATOM     29  F   UNL     1     139.943  68.839 229.148 -0.11 +0.03    -0.207 F  
DOCKED: ENDBRANCH  16  19
DOCKED: ENDBRANCH   1  15
DOCKED: TORSDOF 6
DOCKED: TER
DOCKED: ENDMDL
________________________________________________________________________________


    FINAL DOCKED STATE:
    ________________________


Run:   19 / 20
Time taken for this run:   0.024s

DOCKED: MODEL        19
DOCKED: USER    Run = 19
DOCKED: USER
DOCKED: USER    Estimated Free Energy of Binding    =  -7.44 kcal/mol  [=(1)+(2)+(3)-(4)]
DOCKED: USER
DOCKED: USER    (1) Final Intermolecular Energy     =  -9.23 kcal/mol
DOCKED: USER        vdW + Hbond + desolv Energy     =  -8.76 kcal/mol
DOCKED: USER        Electrostatic Energy            =  -0.47 kcal/mol
DOCKED: USER        Moving Ligand-Fixed Receptor    =  -9.23 kcal/mol
DOCKED: USER        Moving Ligand-Moving Receptor   =  +0.00 kcal/mol
DOCKED: USER    (2) Final Total Internal Energy     =  -2.14 kcal/mol
DOCKED: USER    (3) Torsional Free Energy           =  +1.79 kcal/mol
DOCKED: USER    (4) Unbound System's Energy         =  -2.14 kcal/mol
DOCKED: USER
DOCKED: USER
DOCKED: REMARK SMILES O=C(NC/C(O)=[N+]1/CCC[C@H]1c1cscn1)c1ccc2cc(F)ccc2n1
DOCKED: REMARK SMILES IDX 4 1 5 2 6 3 7 5 8 6 11 7 9 8 10 9 12 10 16 11 13 12 15 13
DOCKED: REMARK SMILES IDX 14 14 3 15 2 16 1 18 17 19 27 20 18 21 26 22 19 23 25 24
DOCKED: REMARK SMILES IDX 20 25 24 26 21 27 22 28 23 29
DOCKED: REMARK H PARENT 6 4 3 17
DOCKED: USER                              x       y       z     vdW  Elec       q    Type
DOCKED: USER                           _______ _______ _______ _____ _____    ______ ____
DOCKED: ROOT
DOCKED: ATOM      1  C   UNL     1     139.917  74.524 220.954 -0.15 -0.05    +0.269 C  
DOCKED: ENDROOT
DOCKED: BRANCH   1   2
DOCKED: ATOM      2  C   UNL     1     140.065  75.963 221.384 -0.17 -0.09    +0.354 C  
DOCKED: BRANCH   2   3
DOCKED: ATOM      3  O   UNL     1     139.751  76.247 222.718 -0.25 +0.08    -0.462 OA 
DOCKED: ATOM      4  H   UNL     1     140.223  76.953 223.268 +0.17 -0.05    +0.299 HD 
DOCKED: ENDBRANCH   2   3
DOCKED: BRANCH   2   5
DOCKED: ATOM      5  N   UNL     1     140.493  76.906 220.569 -0.11 +0.07    -0.192 N  
DOCKED: ATOM      6  C   UNL     1     139.751  77.332 219.385 -0.01 -0.11    +0.355 C  
DOCKED: ATOM      7  C   UNL     1     141.776  77.608 220.682 -0.14 -0.19    +0.314 C  
DOCKED: ATOM      8  C   UNL     1     140.569  78.443 218.740 -0.10 -0.03    +0.080 C  
DOCKED: ATOM      9  C   UNL     1     141.958  78.350 219.356 -0.23 -0.06    +0.090 C  
DOCKED: BRANCH   7  10
DOCKED: ATOM     10  C   UNL     1     141.771  78.571 221.845 -0.34 -0.07    +0.119 A  
DOCKED: ATOM     11  N   UNL     1     141.445  78.161 223.102 -0.34 +0.09    -0.243 NA 
DOCKED: ATOM     12  C   UNL     1     142.130  79.915 221.740 -0.40 -0.04    +0.097 A  
DOCKED: ATOM     13  C   UNL     1     141.527  79.163 224.004 -0.44 -0.04    +0.176 A  
DOCKED: ATOM     14  S   UNL     1     142.021  80.592 223.273 -0.67 +0.03    -0.130 S  
DOCKED: ENDBRANCH   7  10
DOCKED: ENDBRANCH   2   5
DOCKED: ENDBRANCH   1   2
DOCKED: BRANCH   1  15
DOCKED: ATOM     15  N   UNL     1     139.729  73.654 222.115 -0.14 +0.05    -0.337 N  
DOCKED: ATOM     16  C   UNL     1     140.022  72.250 222.052 -0.19 -0.04    +0.270 C  
DOCKED: ATOM     17  H   UNL     1     139.385  74.065 223.012 -0.51 -0.04    +0.164 HD 
DOCKED: ATOM     18  O   UNL     1     140.365  71.733 220.954 -0.09 +0.04    -0.268 OA 
DOCKED: BRANCH  16  19
DOCKED: ATOM     19  C   UNL     1     139.947  71.412 223.268 -0.30 -0.02    +0.128 A  
DOCKED: ATOM     20  N   UNL     1     140.476  71.872 224.436 -0.27 +0.04    -0.243 NA 
DOCKED: ATOM     21  C   UNL     1     139.354  70.138 223.235 -0.24 -0.01    +0.035 A  
DOCKED: ATOM     22  C   UNL     1     140.459  71.137 225.580 -0.52 -0.01    +0.071 A  
DOCKED: ATOM     23  C   UNL     1     139.321  69.359 224.394 -0.33 -0.00    +0.013 A  
DOCKED: ATOM     24  C   UNL     1     141.023  71.649 226.753 -0.71 -0.01    +0.032 A  
DOCKED: ATOM     25  C   UNL     1     139.877  69.851 225.581 -0.46 -0.00    +0.003 A  
DOCKED: ATOM     26  C   UNL     1     141.008  70.889 227.926 -0.67 -0.01    +0.041 A  
DOCKED: ATOM     27  C   UNL     1     139.864  69.094 226.762 -0.52 -0.01    +0.049 A  
DOCKED: ATOM     28  C   UNL     1     140.430  69.614 227.931 -0.52 -0.02    +0.123 A  
DOCKED: ATOM     29  F   UNL     1     140.420  68.881 229.072 -0.12 +0.04    -0.207 F  
DOCKED: ENDBRANCH  16  19
DOCKED: ENDBRANCH   1  15
DOCKED: TORSDOF 6
DOCKED: TER
DOCKED: ENDMDL
________________________________________________________________________________


    FINAL DOCKED STATE:
    ________________________


Run:   20 / 20
Time taken for this run:   0.024s

DOCKED: MODEL        20
DOCKED: USER    Run = 20
DOCKED: USER
DOCKED: USER    Estimated Free Energy of Binding    =  -7.54 kcal/mol  [=(1)+(2)+(3)-(4)]
DOCKED: USER
DOCKED: USER    (1) Final Intermolecular Energy     =  -9.32 kcal/mol
DOCKED: USER        vdW + Hbond + desolv Energy     =  -8.88 kcal/mol
DOCKED: USER        Electrostatic Energy            =  -0.44 kcal/mol
DOCKED: USER        Moving Ligand-Fixed Receptor    =  -9.32 kcal/mol
DOCKED: USER        Moving Ligand-Moving Receptor   =  +0.00 kcal/mol
DOCKED: USER    (2) Final Total Internal Energy     =  -2.19 kcal/mol
DOCKED: USER    (3) Torsional Free Energy           =  +1.79 kcal/mol
DOCKED: USER    (4) Unbound System's Energy         =  -2.19 kcal/mol
DOCKED: USER
DOCKED: USER
DOCKED: REMARK SMILES O=C(NC/C(O)=[N+]1/CCC[C@H]1c1cscn1)c1ccc2cc(F)ccc2n1
DOCKED: REMARK SMILES IDX 4 1 5 2 6 3 7 5 8 6 11 7 9 8 10 9 12 10 16 11 13 12 15 13
DOCKED: REMARK SMILES IDX 14 14 3 15 2 16 1 18 17 19 27 20 18 21 26 22 19 23 25 24
DOCKED: REMARK SMILES IDX 20 25 24 26 21 27 22 28 23 29
DOCKED: REMARK H PARENT 6 4 3 17
DOCKED: USER                              x       y       z     vdW  Elec       q    Type
DOCKED: USER                           _______ _______ _______ _____ _____    ______ ____
DOCKED: ROOT
DOCKED: ATOM      1  C   UNL     1     140.402  74.655 221.143 -0.19 -0.05    +0.269 C  
DOCKED: ENDROOT
DOCKED: BRANCH   1   2
DOCKED: ATOM      2  C   UNL     1     140.088  76.089 221.495 -0.18 -0.09    +0.354 C  
DOCKED: BRANCH   2   3
DOCKED: ATOM      3  O   UNL     1     139.423  76.298 222.709 -0.22 +0.08    -0.462 OA 
DOCKED: ATOM      4  H   UNL     1     139.639  77.054 223.344 +0.17 -0.03    +0.299 HD 
DOCKED: ENDBRANCH   2   3
DOCKED: BRANCH   2   5
DOCKED: ATOM      5  N   UNL     1     140.441  77.101 220.727 -0.12 +0.07    -0.192 N  
DOCKED: ATOM      6  C   UNL     1     139.595  77.619 219.655 -0.01 -0.11    +0.355 C  
DOCKED: ATOM      7  C   UNL     1     141.727  77.802 220.785 -0.15 -0.19    +0.314 C  
DOCKED: ATOM      8  C   UNL     1     140.351  78.787 219.036 -0.09 -0.03    +0.080 C  
DOCKED: ATOM      9  C   UNL     1     141.790  78.655 219.517 -0.25 -0.05    +0.090 C  
DOCKED: BRANCH   7  10
DOCKED: ATOM     10  C   UNL     1     141.826  78.663 222.022 -0.37 -0.06    +0.119 A  
DOCKED: ATOM     11  N   UNL     1     141.460  78.190 223.245 -0.34 +0.09    -0.243 NA 
DOCKED: ATOM     12  C   UNL     1     142.324  79.966 222.021 -0.43 -0.04    +0.097 A  
DOCKED: ATOM     13  C   UNL     1     141.648  79.102 224.223 -0.40 -0.04    +0.176 A  
DOCKED: ATOM     14  S   UNL     1     142.289  80.525 223.604 -0.70 +0.03    -0.130 S  
DOCKED: ENDBRANCH   7  10
DOCKED: ENDBRANCH   2   5
DOCKED: ENDBRANCH   1   2
DOCKED: BRANCH   1  15
DOCKED: ATOM     15  N   UNL     1     140.054  73.763 222.247 -0.07 +0.02    -0.337 N  
DOCKED: ATOM     16  C   UNL     1     140.393  72.368 222.217 -0.20 -0.03    +0.270 C  
DOCKED: ATOM     17  H   UNL     1     139.559  74.150 223.082 -0.52 -0.02    +0.164 HD 
DOCKED: ATOM     18  O   UNL     1     140.923  71.877 221.182 -0.13 +0.03    -0.268 OA 
DOCKED: BRANCH  16  19
DOCKED: ATOM     19  C   UNL     1     140.147  71.509 223.396 -0.32 -0.02    +0.128 A  
DOCKED: ATOM     20  N   UNL     1     140.636  71.879 224.611 -0.26 +0.03    -0.243 NA 
DOCKED: ATOM     21  C   UNL     1     139.431  70.305 223.279 -0.26 -0.01    +0.035 A  
DOCKED: ATOM     22  C   UNL     1     140.464  71.119 225.725 -0.53 -0.01    +0.071 A  
DOCKED: ATOM     23  C   UNL     1     139.237  69.503 224.405 -0.34 -0.00    +0.013 A  
DOCKED: ATOM     24  C   UNL     1     140.992  71.537 226.951 -0.72 -0.01    +0.032 A  
DOCKED: ATOM     25  C   UNL     1     139.755  69.901 225.643 -0.46 -0.00    +0.003 A  
DOCKED: ATOM     26  C   UNL     1     140.817  70.751 228.093 -0.63 -0.01    +0.041 A  
DOCKED: ATOM     27  C   UNL     1     139.581  69.117 226.793 -0.51 -0.01    +0.049 A  
DOCKED: ATOM     28  C   UNL     1     140.113  69.543 228.015 -0.52 -0.02    +0.123 A  
DOCKED: ATOM     29  F   UNL     1     139.948  68.784 229.127 -0.13 +0.03    -0.207 F  
DOCKED: ENDBRANCH  16  19
DOCKED: ENDBRANCH   1  15
DOCKED: TORSDOF 6
DOCKED: TER
DOCKED: ENDMDL
________________________________________________________________________________


    CLUSTERING HISTOGRAM
    ____________________


________________________________________________________________________________
     |           |     |           |     |
Clus | Lowest    | Run | Mean      | Num | Histogram
-ter | Binding   |     | Binding   | in  |
Rank | Energy    |     | Energy    | Clus|    5    10   15   20   25   30   35
_____|___________|_____|___________|_____|____:____|____:____|____:____|____:___
   1 |     -8.16 |  16 |     -7.68 |  16 |################
   2 |     -7.98 |   6 |     -7.96 |   4 |####
_____|___________|_____|___________|_____|______________________________________


    RMSD TABLE
    __________


_______________________________________________________________________
     |      |      |           |         |                 |
Rank | Sub- | Run  | Binding   | Cluster | Reference       | Grep
     | Rank |      | Energy    | RMSD    | RMSD            | Pattern
_____|______|______|___________|_________|_________________|___________
   1      1     16       -8.16      0.00    271.40           RANKING
   1      2      3       -8.16      0.06    271.38           RANKING
   1      3      7       -8.04      1.22    271.17           RANKING
   1      4     11       -8.03      1.20    271.21           RANKING
   1      5      1       -7.73      1.36    271.14           RANKING
   1      6     15       -7.63      1.28    271.27           RANKING
   1      7     10       -7.57      1.28    271.26           RANKING
   1      8      9       -7.55      1.32    271.24           RANKING
   1      9     14       -7.55      1.30    271.29           RANKING
   1     10     13       -7.54      1.29    271.27           RANKING
   1     11      5       -7.54      1.29    271.28           RANKING
   1     12     20       -7.54      1.29    271.31           RANKING
   1     13     12       -7.51      1.29    271.25           RANKING
   1     14     18       -7.50      1.39    271.23           RANKING
   1     15      2       -7.46      1.40    271.20           RANKING
   1     16     19       -7.44      1.31    271.17           RANKING
   2      1      6       -7.98      0.00    270.87           RANKING
   2      2      8       -7.98      0.86    270.73           RANKING
   2      3     17       -7.96      0.22    270.83           RANKING
   2      4      4       -7.94      0.19    270.87           RANKING

Run time 0.452 sec
Idle time 0.000 sec
