AutoDock-GPU version: v1.6

**********************************************************
**    AutoDock-GPU AUTODOCKTOOLS-COMPATIBLE DLG FILE    **
**********************************************************


    DOCKING PARAMETERS
    ________________________


Ligand file:                               /home/a/REINVENT4/ReinventStudies/pleaseWork/justmol2mol_4_Compounds_ontop/graph-dock-8u2o5u/graph-DockGPU/node-autodockgpu/inputs/NAGJCNRFVZSZNN-UNTQKXRANA-M.pdbqt
Grid fld file:                             /home/a/REINVENT4/ReinventStudies/mols/Rad51/maps/rad51_receptor.maps.fld

Random seed:                               42
Number of runs:                            20
Number of energy evaluations:              1613968
Number of generations:                     42000
Size of population:                        150
Rate of crossover:                         80.000000%
Tournament selection probability limit:    60.000000%
Rate of mutation:                          2.000000%
Maximal allowed delta movement:            +/- 6.000000A
Maximal allowed delta angle:               +/- 90.000000

Rate of local search:                      100.000000%
Maximal number of local search iterations: 300
Rho lower bound:                           0.010000
Spread of local search delta movement:     2.000000A
Spread of local search delta angle:        74.999999
Limit of consecutive successes/failures:   4

Handle symmetry during clustering:         YES
RMSD tolerance:                            2.000000A

Program call in command line was:          /home/a/REINVENT4/ReinventStudies/adgpu-v1.6_linux_x64_cuda12_128wi --filelist batch.txt --heuristics 1 --nrun 20 --psize 150 --lsit 300 --seed 42 --heurmax 12000000 


    GRID PARAMETERS
    ________________________


Receptor name:                             rad51_receptor
Number of grid points (x, y, z):           53, 53, 53
Grid center (x, y, z):                     139.950000, 75.640000, 221.970000A
Grid size (x, y, z):                       19.500000, 19.500000, 19.500000A
Grid spacing:                              0.375000A


    LIGAND PARAMETERS
    ________________________


Ligand name:                               /home/a/REINVENT4/ReinventStudies/pleaseWork/justmol2mol_4_Compounds_ontop/graph-dock-8u2o5u/graph-DockGPU/node-autodockgpu/inputs/NAGJCNRFVZSZNN-UNTQKXRANA-M
Number of atoms:                           22
Number of rotatable bonds:                 8
Number of atom types:                      5


    DUMMY DATA (only for ADT-compatibility)
    ________________________


DPF> outlev 1
DPF> ga_run 20
DPF> fld /home/a/REINVENT4/ReinventStudies/mols/Rad51/maps/rad51_receptor.maps.fld
DPF> move /home/a/REINVENT4/ReinventStudies/pleaseWork/justmol2mol_4_Compounds_ontop/graph-dock-8u2o5u/graph-DockGPU/node-autodockgpu/inputs/NAGJCNRFVZSZNN-UNTQKXRANA-M.pdbqt


    COUNTER STATES
    ________________________


Number of energy evaluations performed:    845753
Number of generations used:                45


    INPUT LIGAND PDBQT FILE:
    ________________________


INPUT-LIGAND-PDBQT: REMARK SMILES CC(C)C[N-]/C(O)=C\[N-]C(=O)c1ccc2ccccc2n1
INPUT-LIGAND-PDBQT: REMARK SMILES IDX 6 1 7 2 5 4 4 5 2 6 1 7 3 8 8 9 9 10 10 11 11 12 12 13 21 14
INPUT-LIGAND-PDBQT: REMARK SMILES IDX 13 15 20 16 14 17 19 18 15 19 18 20 16 21 17 22
INPUT-LIGAND-PDBQT: REMARK H PARENT 7 3
INPUT-LIGAND-PDBQT: ROOT
INPUT-LIGAND-PDBQT: ATOM      1  C   UNL     1       1.667   1.564   0.095  1.00  0.00    -0.012 C 
INPUT-LIGAND-PDBQT: ENDROOT
INPUT-LIGAND-PDBQT: BRANCH   1   2
INPUT-LIGAND-PDBQT: ATOM      2  O   UNL     1       2.278   1.701   1.343  1.00  0.00    -0.533 OA
INPUT-LIGAND-PDBQT: ATOM      3  H   UNL     1       2.468   2.608   1.752  1.00  0.00     0.290 HD
INPUT-LIGAND-PDBQT: ENDBRANCH   1   2
INPUT-LIGAND-PDBQT: BRANCH   1   4
INPUT-LIGAND-PDBQT: ATOM      4  N   UNL     1       1.432   0.254  -0.431  1.00  0.00    -0.655 NA
INPUT-LIGAND-PDBQT: BRANCH   4   5
INPUT-LIGAND-PDBQT: ATOM      5  C   UNL     1       1.689  -0.955   0.343  1.00  0.00    -0.115 C 
INPUT-LIGAND-PDBQT: BRANCH   5   6
INPUT-LIGAND-PDBQT: ATOM      6  C   UNL     1       1.607  -2.203  -0.552  1.00  0.00    -0.035 C 
INPUT-LIGAND-PDBQT: ATOM      7  C   UNL     1       0.214  -2.358  -1.177  1.00  0.00     0.006 C 
INPUT-LIGAND-PDBQT: ATOM      8  C   UNL     1       1.967  -3.457   0.254  1.00  0.00     0.006 C 
INPUT-LIGAND-PDBQT: ENDBRANCH   5   6
INPUT-LIGAND-PDBQT: ENDBRANCH   4   5
INPUT-LIGAND-PDBQT: ENDBRANCH   1   4
INPUT-LIGAND-PDBQT: BRANCH   1   9
INPUT-LIGAND-PDBQT: ATOM      9  C   UNL     1       1.337   2.656  -0.609  1.00  0.00    -0.114 C 
INPUT-LIGAND-PDBQT: BRANCH   9  10
INPUT-LIGAND-PDBQT: ATOM     10  N   UNL     1       0.656   2.599  -1.871  1.00  0.00    -0.626 NA
INPUT-LIGAND-PDBQT: BRANCH  10  11
INPUT-LIGAND-PDBQT: ATOM     11  C   UNL     1      -0.430   1.725  -2.213  1.00  0.00     0.104 C 
INPUT-LIGAND-PDBQT: ATOM     12  O   UNL     1      -0.563   1.372  -3.414  1.00  0.00    -0.313 OA
INPUT-LIGAND-PDBQT: BRANCH  11  13
INPUT-LIGAND-PDBQT: ATOM     13  C   UNL     1      -1.412   1.245  -1.215  1.00  0.00     0.089 A 
INPUT-LIGAND-PDBQT: ATOM     14  N   UNL     1      -2.092   0.092  -1.464  1.00  0.00    -0.246 NA
INPUT-LIGAND-PDBQT: ATOM     15  C   UNL     1      -1.683   1.963  -0.038  1.00  0.00     0.031 A 
INPUT-LIGAND-PDBQT: ATOM     16  C   UNL     1      -3.001  -0.417  -0.591  1.00  0.00     0.071 A 
INPUT-LIGAND-PDBQT: ATOM     17  C   UNL     1      -2.610   1.464   0.880  1.00  0.00     0.012 A 
INPUT-LIGAND-PDBQT: ATOM     18  C   UNL     1      -3.657  -1.619  -0.880  1.00  0.00     0.029 A 
INPUT-LIGAND-PDBQT: ATOM     19  C   UNL     1      -3.275   0.262   0.615  1.00  0.00     0.000 A 
INPUT-LIGAND-PDBQT: ATOM     20  C   UNL     1      -4.583  -2.145   0.025  1.00  0.00     0.002 A 
INPUT-LIGAND-PDBQT: ATOM     21  C   UNL     1      -4.208  -0.270   1.518  1.00  0.00     0.010 A 
INPUT-LIGAND-PDBQT: ATOM     22  C   UNL     1      -4.858  -1.472   1.221  1.00  0.00     0.001 A 
INPUT-LIGAND-PDBQT: ENDBRANCH  11  13
INPUT-LIGAND-PDBQT: ENDBRANCH  10  11
INPUT-LIGAND-PDBQT: ENDBRANCH   9  10
INPUT-LIGAND-PDBQT: ENDBRANCH   1   9
INPUT-LIGAND-PDBQT: TORSDOF 8


    FINAL DOCKED STATE:
    ________________________


Run:   1 / 20
Time taken for this run:   0.030s

DOCKED: MODEL        1
DOCKED: USER    Run = 1
DOCKED: USER
DOCKED: USER    Estimated Free Energy of Binding    =  -5.55 kcal/mol  [=(1)+(2)+(3)-(4)]
DOCKED: USER
DOCKED: USER    (1) Final Intermolecular Energy     =  -7.94 kcal/mol
DOCKED: USER        vdW + Hbond + desolv Energy     =  -8.02 kcal/mol
DOCKED: USER        Electrostatic Energy            =  +0.08 kcal/mol
DOCKED: USER        Moving Ligand-Fixed Receptor    =  -7.94 kcal/mol
DOCKED: USER        Moving Ligand-Moving Receptor   =  +0.00 kcal/mol
DOCKED: USER    (2) Final Total Internal Energy     =  -1.02 kcal/mol
DOCKED: USER    (3) Torsional Free Energy           =  +2.39 kcal/mol
DOCKED: USER    (4) Unbound System's Energy         =  -1.02 kcal/mol
DOCKED: USER
DOCKED: USER
DOCKED: REMARK SMILES CC(C)C[N-]/C(O)=C\[N-]C(=O)c1ccc2ccccc2n1
DOCKED: REMARK SMILES IDX 6 1 7 2 5 4 4 5 2 6 1 7 3 8 8 9 9 10 10 11 11 12 12 13 21 14
DOCKED: REMARK SMILES IDX 13 15 20 16 14 17 19 18 15 19 18 20 16 21 17 22
DOCKED: REMARK H PARENT 7 3
DOCKED: USER                              x       y       z     vdW  Elec       q    Type
DOCKED: USER                           _______ _______ _______ _____ _____    ______ ____
DOCKED: ROOT
DOCKED: ATOM      1  C   UNL     1     142.846  71.908 219.706 -0.18 +0.00    -0.012 C  
DOCKED: ENDROOT
DOCKED: BRANCH   1   2
DOCKED: ATOM      2  O   UNL     1     142.252  72.966 219.015 +0.03 +0.10    -0.533 OA 
DOCKED: ATOM      3  H   UNL     1     141.331  73.315 219.253 +0.07 -0.06    +0.290 HD 
DOCKED: ENDBRANCH   1   2
DOCKED: BRANCH   1   4
DOCKED: ATOM      4  N   UNL     1     144.160  71.479 219.337 +0.07 -0.02    -0.655 NA 
DOCKED: BRANCH   4   5
DOCKED: ATOM      5  C   UNL     1     145.353  72.252 219.662 -0.33 -0.03    -0.115 C  
DOCKED: BRANCH   5   6
DOCKED: ATOM      6  C   UNL     1     145.096  73.170 220.869 -0.55 +0.01    -0.035 C  
DOCKED: ATOM      7  C   UNL     1     144.553  74.537 220.431 -0.45 -0.00    +0.006 C  
DOCKED: ATOM      8  C   UNL     1     146.384  73.349 221.682 -0.71 -0.00    +0.006 C  
DOCKED: ENDBRANCH   5   6
DOCKED: ENDBRANCH   4   5
DOCKED: ENDBRANCH   1   4
DOCKED: BRANCH   1   9
DOCKED: ATOM      9  C   UNL     1     142.170  71.288 220.684 -0.07 +0.01    -0.114 C  
DOCKED: BRANCH   9  10
DOCKED: ATOM     10  N   UNL     1     140.825  71.632 221.048 +0.01 +0.09    -0.626 NA 
DOCKED: BRANCH  10  11
DOCKED: ATOM     11  C   UNL     1     140.402  72.207 222.293 -0.27 -0.01    +0.104 C  
DOCKED: ATOM     12  O   UNL     1     140.196  73.448 222.344 -0.78 +0.01    -0.313 OA 
DOCKED: BRANCH  11  13
DOCKED: ATOM     13  C   UNL     1     140.223  71.403 223.523 -0.34 -0.01    +0.089 A  
DOCKED: ATOM     14  N   UNL     1     140.714  71.882 224.699 -0.26 +0.03    -0.246 NA 
DOCKED: ATOM     15  C   UNL     1     139.593  70.147 223.502 -0.27 -0.01    +0.031 A  
DOCKED: ATOM     16  C   UNL     1     140.580  71.206 225.870 -0.55 -0.01    +0.071 A  
DOCKED: ATOM     17  C   UNL     1     139.437  69.430 224.690 -0.36 -0.00    +0.012 A  
DOCKED: ATOM     18  C   UNL     1     141.079  71.752 227.058 -0.76 -0.01    +0.029 A  
DOCKED: ATOM     19  C   UNL     1     139.925  69.957 225.891 -0.49 -0.00    +0.000 A  
DOCKED: ATOM     20  C   UNL     1     140.930  71.059 228.263 -0.68 -0.00    +0.002 A  
DOCKED: ATOM     21  C   UNL     1     139.780  69.265 227.103 -0.56 -0.00    +0.010 A  
DOCKED: ATOM     22  C   UNL     1     140.282  69.819 228.285 -0.61 -0.00    +0.001 A  
DOCKED: ENDBRANCH  11  13
DOCKED: ENDBRANCH  10  11
DOCKED: ENDBRANCH   9  10
DOCKED: ENDBRANCH   1   9
DOCKED: TORSDOF 8
DOCKED: TER
DOCKED: ENDMDL
________________________________________________________________________________


    FINAL DOCKED STATE:
    ________________________


Run:   2 / 20
Time taken for this run:   0.030s

DOCKED: MODEL        2
DOCKED: USER    Run = 2
DOCKED: USER
DOCKED: USER    Estimated Free Energy of Binding    =  -4.77 kcal/mol  [=(1)+(2)+(3)-(4)]
DOCKED: USER
DOCKED: USER    (1) Final Intermolecular Energy     =  -7.16 kcal/mol
DOCKED: USER        vdW + Hbond + desolv Energy     =  -7.65 kcal/mol
DOCKED: USER        Electrostatic Energy            =  +0.49 kcal/mol
DOCKED: USER        Moving Ligand-Fixed Receptor    =  -7.16 kcal/mol
DOCKED: USER        Moving Ligand-Moving Receptor   =  +0.00 kcal/mol
DOCKED: USER    (2) Final Total Internal Energy     =  -1.47 kcal/mol
DOCKED: USER    (3) Torsional Free Energy           =  +2.39 kcal/mol
DOCKED: USER    (4) Unbound System's Energy         =  -1.47 kcal/mol
DOCKED: USER
DOCKED: USER
DOCKED: REMARK SMILES CC(C)C[N-]/C(O)=C\[N-]C(=O)c1ccc2ccccc2n1
DOCKED: REMARK SMILES IDX 6 1 7 2 5 4 4 5 2 6 1 7 3 8 8 9 9 10 10 11 11 12 12 13 21 14
DOCKED: REMARK SMILES IDX 13 15 20 16 14 17 19 18 15 19 18 20 16 21 17 22
DOCKED: REMARK H PARENT 7 3
DOCKED: USER                              x       y       z     vdW  Elec       q    Type
DOCKED: USER                           _______ _______ _______ _____ _____    ______ ____
DOCKED: ROOT
DOCKED: ATOM      1  C   UNL     1     140.138  75.752 221.758 -0.34 +0.00    -0.012 C  
DOCKED: ENDROOT
DOCKED: BRANCH   1   2
DOCKED: ATOM      2  O   UNL     1     141.457  75.324 221.591 -0.20 +0.16    -0.533 OA 
DOCKED: ATOM      3  H   UNL     1     141.716  74.346 221.639 +0.10 -0.04    +0.290 HD 
DOCKED: ENDBRANCH   1   2
DOCKED: BRANCH   1   4
DOCKED: ATOM      4  N   UNL     1     139.767  77.065 221.328 +0.03 +0.18    -0.655 NA 
DOCKED: BRANCH   4   5
DOCKED: ATOM      5  C   UNL     1     139.645  78.184 222.256 -0.27 +0.03    -0.115 C  
DOCKED: BRANCH   5   6
DOCKED: ATOM      6  C   UNL     1     140.929  79.030 222.261 -0.40 +0.01    -0.035 C  
DOCKED: ATOM      7  C   UNL     1     141.811  78.724 221.043 -0.35 -0.00    +0.006 C  
DOCKED: ATOM      8  C   UNL     1     141.715  78.790 223.556 -0.61 -0.00    +0.006 C  
DOCKED: ENDBRANCH   5   6
DOCKED: ENDBRANCH   4   5
DOCKED: ENDBRANCH   1   4
DOCKED: BRANCH   1   9
DOCKED: ATOM      9  C   UNL     1     139.245  74.943 222.344 -0.10 +0.02    -0.114 C  
DOCKED: BRANCH   9  10
DOCKED: ATOM     10  N   UNL     1     139.265  73.515 222.199 -0.27 +0.14    -0.626 NA 
DOCKED: BRANCH  10  11
DOCKED: ATOM     11  C   UNL     1     140.322  72.634 222.607 -0.25 -0.01    +0.104 C  
DOCKED: ATOM     12  O   UNL     1     141.430  72.708 222.014 -0.22 +0.01    -0.313 OA 
DOCKED: BRANCH  11  13
DOCKED: ATOM     13  C   UNL     1     140.151  71.625 223.677 -0.35 -0.01    +0.089 A  
DOCKED: ATOM     14  N   UNL     1     140.660  71.886 224.912 -0.28 +0.03    -0.246 NA 
DOCKED: ATOM     15  C   UNL     1     139.509  70.398 223.442 -0.29 -0.01    +0.031 A  
DOCKED: ATOM     16  C   UNL     1     140.534  71.014 225.947 -0.54 -0.01    +0.071 A  
DOCKED: ATOM     17  C   UNL     1     139.361  69.483 224.487 -0.34 -0.00    +0.012 A  
DOCKED: ATOM     18  C   UNL     1     141.053  71.337 227.206 -0.72 -0.00    +0.029 A  
DOCKED: ATOM     19  C   UNL     1     139.868  69.785 225.755 -0.47 -0.00    +0.000 A  
DOCKED: ATOM     20  C   UNL     1     140.911  70.443 228.271 -0.58 -0.00    +0.002 A  
DOCKED: ATOM     21  C   UNL     1     139.732  68.891 226.828 -0.56 -0.00    +0.010 A  
DOCKED: ATOM     22  C   UNL     1     140.253  69.223 228.082 -0.64 -0.00    +0.001 A  
DOCKED: ENDBRANCH  11  13
DOCKED: ENDBRANCH  10  11
DOCKED: ENDBRANCH   9  10
DOCKED: ENDBRANCH   1   9
DOCKED: TORSDOF 8
DOCKED: TER
DOCKED: ENDMDL
________________________________________________________________________________


    FINAL DOCKED STATE:
    ________________________


Run:   3 / 20
Time taken for this run:   0.030s

DOCKED: MODEL        3
DOCKED: USER    Run = 3
DOCKED: USER
DOCKED: USER    Estimated Free Energy of Binding    =  -5.29 kcal/mol  [=(1)+(2)+(3)-(4)]
DOCKED: USER
DOCKED: USER    (1) Final Intermolecular Energy     =  -7.68 kcal/mol
DOCKED: USER        vdW + Hbond + desolv Energy     =  -7.86 kcal/mol
DOCKED: USER        Electrostatic Energy            =  +0.18 kcal/mol
DOCKED: USER        Moving Ligand-Fixed Receptor    =  -7.68 kcal/mol
DOCKED: USER        Moving Ligand-Moving Receptor   =  +0.00 kcal/mol
DOCKED: USER    (2) Final Total Internal Energy     =  -1.55 kcal/mol
DOCKED: USER    (3) Torsional Free Energy           =  +2.39 kcal/mol
DOCKED: USER    (4) Unbound System's Energy         =  -1.55 kcal/mol
DOCKED: USER
DOCKED: USER
DOCKED: REMARK SMILES CC(C)C[N-]/C(O)=C\[N-]C(=O)c1ccc2ccccc2n1
DOCKED: REMARK SMILES IDX 6 1 7 2 5 4 4 5 2 6 1 7 3 8 8 9 9 10 10 11 11 12 12 13 21 14
DOCKED: REMARK SMILES IDX 13 15 20 16 14 17 19 18 15 19 18 20 16 21 17 22
DOCKED: REMARK H PARENT 7 3
DOCKED: USER                              x       y       z     vdW  Elec       q    Type
DOCKED: USER                           _______ _______ _______ _____ _____    ______ ____
DOCKED: ROOT
DOCKED: ATOM      1  C   UNL     1     140.722  72.685 221.743 -0.29 +0.00    -0.012 C  
DOCKED: ENDROOT
DOCKED: BRANCH   1   2
DOCKED: ATOM      2  O   UNL     1     140.294  73.013 223.031 -0.42 +0.00    -0.533 OA 
DOCKED: ATOM      3  H   UNL     1     139.440  72.638 223.425 -0.23 -0.10    +0.290 HD 
DOCKED: ENDBRANCH   1   2
DOCKED: BRANCH   1   4
DOCKED: ATOM      4  N   UNL     1     141.873  73.339 221.198 +0.02 +0.08    -0.655 NA 
DOCKED: BRANCH   4   5
DOCKED: ATOM      5  C   UNL     1     143.073  72.608 220.805 -0.22 +0.02    -0.115 C  
DOCKED: BRANCH   5   6
DOCKED: ATOM      6  C   UNL     1     144.305  73.528 220.835 -0.41 +0.01    -0.035 C  
DOCKED: ATOM      7  C   UNL     1     144.060  74.824 220.051 -0.43 -0.00    +0.006 C  
DOCKED: ATOM      8  C   UNL     1     145.528  72.792 220.272 -0.53 +0.00    +0.006 C  
DOCKED: ENDBRANCH   5   6
DOCKED: ENDBRANCH   4   5
DOCKED: ENDBRANCH   1   4
DOCKED: BRANCH   1   9
DOCKED: ATOM      9  C   UNL     1     140.036  71.788 221.020 -0.13 +0.02    -0.114 C  
DOCKED: BRANCH   9  10
DOCKED: ATOM     10  N   UNL     1     138.963  71.003 221.560 +0.03 +0.12    -0.626 NA 
DOCKED: BRANCH  10  11
DOCKED: ATOM     11  C   UNL     1     139.091  69.775 222.293 -0.15 -0.02    +0.104 C  
DOCKED: ATOM     12  O   UNL     1     138.916  68.689 221.682 -0.09 +0.06    -0.313 OA 
DOCKED: BRANCH  11  13
DOCKED: ATOM     13  C   UNL     1     139.395  69.739 223.741 -0.24 -0.02    +0.089 A  
DOCKED: ATOM     14  N   UNL     1     140.104  70.764 224.289 -0.24 +0.04    -0.246 NA 
DOCKED: ATOM     15  C   UNL     1     139.001  68.663 224.554 -0.36 -0.00    +0.031 A  
DOCKED: ATOM     16  C   UNL     1     140.413  70.807 225.612 -0.51 -0.01    +0.071 A  
DOCKED: ATOM     17  C   UNL     1     139.301  68.679 225.918 -0.49 -0.00    +0.012 A  
DOCKED: ATOM     18  C   UNL     1     141.123  71.894 226.134 -0.61 -0.00    +0.029 A  
DOCKED: ATOM     19  C   UNL     1     140.006  69.758 226.464 -0.53 -0.00    +0.000 A  
DOCKED: ATOM     20  C   UNL     1     141.429  71.940 227.497 -0.78 -0.00    +0.002 A  
DOCKED: ATOM     21  C   UNL     1     140.319  69.808 227.830 -0.62 -0.00    +0.010 A  
DOCKED: ATOM     22  C   UNL     1     141.028  70.899 228.343 -0.63 -0.00    +0.001 A  
DOCKED: ENDBRANCH  11  13
DOCKED: ENDBRANCH  10  11
DOCKED: ENDBRANCH   9  10
DOCKED: ENDBRANCH   1   9
DOCKED: TORSDOF 8
DOCKED: TER
DOCKED: ENDMDL
________________________________________________________________________________


    FINAL DOCKED STATE:
    ________________________


Run:   4 / 20
Time taken for this run:   0.030s

DOCKED: MODEL        4
DOCKED: USER    Run = 4
DOCKED: USER
DOCKED: USER    Estimated Free Energy of Binding    =  -5.33 kcal/mol  [=(1)+(2)+(3)-(4)]
DOCKED: USER
DOCKED: USER    (1) Final Intermolecular Energy     =  -7.71 kcal/mol
DOCKED: USER        vdW + Hbond + desolv Energy     =  -8.00 kcal/mol
DOCKED: USER        Electrostatic Energy            =  +0.29 kcal/mol
DOCKED: USER        Moving Ligand-Fixed Receptor    =  -7.71 kcal/mol
DOCKED: USER        Moving Ligand-Moving Receptor   =  +0.00 kcal/mol
DOCKED: USER    (2) Final Total Internal Energy     =  -1.71 kcal/mol
DOCKED: USER    (3) Torsional Free Energy           =  +2.39 kcal/mol
DOCKED: USER    (4) Unbound System's Energy         =  -1.71 kcal/mol
DOCKED: USER
DOCKED: USER
DOCKED: REMARK SMILES CC(C)C[N-]/C(O)=C\[N-]C(=O)c1ccc2ccccc2n1
DOCKED: REMARK SMILES IDX 6 1 7 2 5 4 4 5 2 6 1 7 3 8 8 9 9 10 10 11 11 12 12 13 21 14
DOCKED: REMARK SMILES IDX 13 15 20 16 14 17 19 18 15 19 18 20 16 21 17 22
DOCKED: REMARK H PARENT 7 3
DOCKED: USER                              x       y       z     vdW  Elec       q    Type
DOCKED: USER                           _______ _______ _______ _____ _____    ______ ____
DOCKED: ROOT
DOCKED: ATOM      1  C   UNL     1     140.774  73.589 221.610 -0.29 +0.00    -0.012 C  
DOCKED: ENDROOT
DOCKED: BRANCH   1   2
DOCKED: ATOM      2  O   UNL     1     139.919  73.762 222.700 -0.61 -0.00    -0.533 OA 
DOCKED: ATOM      3  H   UNL     1     139.355  73.005 223.067 -0.33 -0.10    +0.290 HD 
DOCKED: ENDBRANCH   1   2
DOCKED: BRANCH   1   4
DOCKED: ATOM      4  N   UNL     1     141.561  74.694 221.154 -0.04 +0.16    -0.655 NA 
DOCKED: BRANCH   4   5
DOCKED: ATOM      5  C   UNL     1     140.995  76.021 220.944 -0.26 +0.04    -0.115 C  
DOCKED: BRANCH   5   6
DOCKED: ATOM      6  C   UNL     1     140.496  76.617 222.271 -0.38 +0.01    -0.035 C  
DOCKED: ATOM      7  C   UNL     1     138.963  76.656 222.330 -0.32 -0.00    +0.006 C  
DOCKED: ATOM      8  C   UNL     1     141.069  78.026 222.467 -0.47 -0.00    +0.006 C  
DOCKED: ENDBRANCH   5   6
DOCKED: ENDBRANCH   4   5
DOCKED: ENDBRANCH   1   4
DOCKED: BRANCH   1   9
DOCKED: ATOM      9  C   UNL     1     140.826  72.404 220.985 -0.18 +0.02    -0.114 C  
DOCKED: BRANCH   9  10
DOCKED: ATOM     10  N   UNL     1     139.903  71.337 221.250 +0.02 +0.10    -0.626 NA 
DOCKED: BRANCH  10  11
DOCKED: ATOM     11  C   UNL     1     138.966  71.273 222.335 -0.18 -0.02    +0.104 C  
DOCKED: ATOM     12  O   UNL     1     137.805  71.724 222.154 -0.07 +0.07    -0.313 OA 
DOCKED: BRANCH  11  13
DOCKED: ATOM     13  C   UNL     1     139.319  70.721 223.662 -0.29 -0.02    +0.089 A  
DOCKED: ATOM     14  N   UNL     1     140.006  71.504 224.538 -0.29 +0.05    -0.246 NA 
DOCKED: ATOM     15  C   UNL     1     138.993  69.403 224.026 -0.30 -0.00    +0.031 A  
DOCKED: ATOM     16  C   UNL     1     140.356  71.071 225.778 -0.52 -0.01    +0.071 A  
DOCKED: ATOM     17  C   UNL     1     139.337  68.930 225.295 -0.43 -0.00    +0.012 A  
DOCKED: ATOM     18  C   UNL     1     141.041  71.922 226.652 -0.71 -0.00    +0.029 A  
DOCKED: ATOM     19  C   UNL     1     140.018  69.764 226.188 -0.51 -0.00    +0.000 A  
DOCKED: ATOM     20  C   UNL     1     141.390  71.477 227.930 -0.68 -0.00    +0.002 A  
DOCKED: ATOM     21  C   UNL     1     140.374  69.323 227.472 -0.61 -0.00    +0.010 A  
DOCKED: ATOM     22  C   UNL     1     141.057  70.181 228.339 -0.56 -0.00    +0.001 A  
DOCKED: ENDBRANCH  11  13
DOCKED: ENDBRANCH  10  11
DOCKED: ENDBRANCH   9  10
DOCKED: ENDBRANCH   1   9
DOCKED: TORSDOF 8
DOCKED: TER
DOCKED: ENDMDL
________________________________________________________________________________


    FINAL DOCKED STATE:
    ________________________


Run:   5 / 20
Time taken for this run:   0.030s

DOCKED: MODEL        5
DOCKED: USER    Run = 5
DOCKED: USER
DOCKED: USER    Estimated Free Energy of Binding    =  -5.58 kcal/mol  [=(1)+(2)+(3)-(4)]
DOCKED: USER
DOCKED: USER    (1) Final Intermolecular Energy     =  -7.97 kcal/mol
DOCKED: USER        vdW + Hbond + desolv Energy     =  -8.24 kcal/mol
DOCKED: USER        Electrostatic Energy            =  +0.27 kcal/mol
DOCKED: USER        Moving Ligand-Fixed Receptor    =  -7.97 kcal/mol
DOCKED: USER        Moving Ligand-Moving Receptor   =  +0.00 kcal/mol
DOCKED: USER    (2) Final Total Internal Energy     =  -1.58 kcal/mol
DOCKED: USER    (3) Torsional Free Energy           =  +2.39 kcal/mol
DOCKED: USER    (4) Unbound System's Energy         =  -1.58 kcal/mol
DOCKED: USER
DOCKED: USER
DOCKED: REMARK SMILES CC(C)C[N-]/C(O)=C\[N-]C(=O)c1ccc2ccccc2n1
DOCKED: REMARK SMILES IDX 6 1 7 2 5 4 4 5 2 6 1 7 3 8 8 9 9 10 10 11 11 12 12 13 21 14
DOCKED: REMARK SMILES IDX 13 15 20 16 14 17 19 18 15 19 18 20 16 21 17 22
DOCKED: REMARK H PARENT 7 3
DOCKED: USER                              x       y       z     vdW  Elec       q    Type
DOCKED: USER                           _______ _______ _______ _____ _____    ______ ____
DOCKED: ROOT
DOCKED: ATOM      1  C   UNL     1     140.685  72.974 221.563 -0.29 +0.00    -0.012 C  
DOCKED: ENDROOT
DOCKED: BRANCH   1   2
DOCKED: ATOM      2  O   UNL     1     139.879  73.732 222.414 -0.70 +0.04    -0.533 OA 
DOCKED: ATOM      3  H   UNL     1     138.993  73.389 222.763 -0.41 -0.11    +0.290 HD 
DOCKED: ENDBRANCH   1   2
DOCKED: BRANCH   1   4
DOCKED: ATOM      4  N   UNL     1     141.877  73.553 221.024 +0.02 +0.10    -0.655 NA 
DOCKED: BRANCH   4   5
DOCKED: ATOM      5  C   UNL     1     143.099  72.783 220.827 -0.21 +0.02    -0.115 C  
DOCKED: BRANCH   5   6
DOCKED: ATOM      6  C   UNL     1     144.330  73.704 220.824 -0.41 +0.01    -0.035 C  
DOCKED: ATOM      7  C   UNL     1     144.075  74.984 220.016 -0.41 -0.00    +0.006 C  
DOCKED: ATOM      8  C   UNL     1     145.548  72.959 220.263 -0.55 +0.00    +0.006 C  
DOCKED: ENDBRANCH   5   6
DOCKED: ENDBRANCH   4   5
DOCKED: ENDBRANCH   1   4
DOCKED: BRANCH   1   9
DOCKED: ATOM      9  C   UNL     1     140.318  71.727 221.234 -0.16 +0.02    -0.114 C  
DOCKED: BRANCH   9  10
DOCKED: ATOM     10  N   UNL     1     139.060  71.153 221.617 +0.03 +0.12    -0.626 NA 
DOCKED: BRANCH  10  11
DOCKED: ATOM     11  C   UNL     1     138.466  71.199 222.923 -0.20 -0.02    +0.104 C  
DOCKED: ATOM     12  O   UNL     1     137.518  72.001 223.126 -0.12 +0.10    -0.313 OA 
DOCKED: BRANCH  11  13
DOCKED: ATOM     13  C   UNL     1     138.943  70.359 224.046 -0.29 -0.02    +0.089 A  
DOCKED: ATOM     14  N   UNL     1     139.583  70.957 225.088 -0.26 +0.05    -0.246 NA 
DOCKED: ATOM     15  C   UNL     1     138.781  68.963 224.047 -0.31 -0.00    +0.031 A  
DOCKED: ATOM     16  C   UNL     1     140.039  70.255 226.158 -0.47 -0.01    +0.071 A  
DOCKED: ATOM     17  C   UNL     1     139.237  68.214 225.134 -0.44 -0.00    +0.012 A  
DOCKED: ATOM     18  C   UNL     1     140.669  70.917 227.218 -0.66 -0.01    +0.029 A  
DOCKED: ATOM     19  C   UNL     1     139.866  68.855 226.207 -0.54 -0.00    +0.000 A  
DOCKED: ATOM     20  C   UNL     1     141.128  70.193 228.322 -0.54 -0.00    +0.002 A  
DOCKED: ATOM     21  C   UNL     1     140.331  68.134 227.317 -0.67 -0.00    +0.010 A  
DOCKED: ATOM     22  C   UNL     1     140.959  68.804 228.371 -0.64 -0.00    +0.001 A  
DOCKED: ENDBRANCH  11  13
DOCKED: ENDBRANCH  10  11
DOCKED: ENDBRANCH   9  10
DOCKED: ENDBRANCH   1   9
DOCKED: TORSDOF 8
DOCKED: TER
DOCKED: ENDMDL
________________________________________________________________________________


    FINAL DOCKED STATE:
    ________________________


Run:   6 / 20
Time taken for this run:   0.030s

DOCKED: MODEL        6
DOCKED: USER    Run = 6
DOCKED: USER
DOCKED: USER    Estimated Free Energy of Binding    =  -5.87 kcal/mol  [=(1)+(2)+(3)-(4)]
DOCKED: USER
DOCKED: USER    (1) Final Intermolecular Energy     =  -8.26 kcal/mol
DOCKED: USER        vdW + Hbond + desolv Energy     =  -8.57 kcal/mol
DOCKED: USER        Electrostatic Energy            =  +0.32 kcal/mol
DOCKED: USER        Moving Ligand-Fixed Receptor    =  -8.26 kcal/mol
DOCKED: USER        Moving Ligand-Moving Receptor   =  +0.00 kcal/mol
DOCKED: USER    (2) Final Total Internal Energy     =  -1.39 kcal/mol
DOCKED: USER    (3) Torsional Free Energy           =  +2.39 kcal/mol
DOCKED: USER    (4) Unbound System's Energy         =  -1.39 kcal/mol
DOCKED: USER
DOCKED: USER
DOCKED: REMARK SMILES CC(C)C[N-]/C(O)=C\[N-]C(=O)c1ccc2ccccc2n1
DOCKED: REMARK SMILES IDX 6 1 7 2 5 4 4 5 2 6 1 7 3 8 8 9 9 10 10 11 11 12 12 13 21 14
DOCKED: REMARK SMILES IDX 13 15 20 16 14 17 19 18 15 19 18 20 16 21 17 22
DOCKED: REMARK H PARENT 7 3
DOCKED: USER                              x       y       z     vdW  Elec       q    Type
DOCKED: USER                           _______ _______ _______ _____ _____    ______ ____
DOCKED: ROOT
DOCKED: ATOM      1  C   UNL     1     140.056  75.636 221.803 -0.33 +0.00    -0.012 C  
DOCKED: ENDROOT
DOCKED: BRANCH   1   2
DOCKED: ATOM      2  O   UNL     1     139.060  75.280 222.714 -0.31 +0.13    -0.533 OA 
DOCKED: ATOM      3  H   UNL     1     138.838  74.313 222.918 -0.50 -0.14    +0.290 HD 
DOCKED: ENDBRANCH   1   2
DOCKED: BRANCH   1   4
DOCKED: ATOM      4  N   UNL     1     140.048  76.948 221.232 +0.03 +0.19    -0.655 NA 
DOCKED: BRANCH   4   5
DOCKED: ATOM      5  C   UNL     1     141.118  77.910 221.471 -0.30 +0.05    -0.115 C  
DOCKED: BRANCH   5   6
DOCKED: ATOM      6  C   UNL     1     141.066  78.435 222.915 -0.49 +0.01    -0.035 C  
DOCKED: ATOM      7  C   UNL     1     139.713  79.088 223.229 -0.40 -0.00    +0.006 C  
DOCKED: ATOM      8  C   UNL     1     142.204  79.436 223.156 -0.63 -0.00    +0.006 C  
DOCKED: ENDBRANCH   5   6
DOCKED: ENDBRANCH   4   5
DOCKED: ENDBRANCH   1   4
DOCKED: BRANCH   1   9
DOCKED: ATOM      9  C   UNL     1     140.987  74.739 221.449 -0.27 +0.02    -0.114 C  
DOCKED: BRANCH   9  10
DOCKED: ATOM     10  N   UNL     1     141.046  73.413 221.995 -0.35 +0.01    -0.626 NA 
DOCKED: BRANCH  10  11
DOCKED: ATOM     11  C   UNL     1     139.925  72.575 222.315 -0.27 -0.02    +0.104 C  
DOCKED: ATOM     12  O   UNL     1     138.915  72.608 221.565 -0.10 +0.07    -0.313 OA 
DOCKED: BRANCH  11  13
DOCKED: ATOM     13  C   UNL     1     139.902  71.695 223.505 -0.33 -0.02    +0.089 A  
DOCKED: ATOM     14  N   UNL     1     140.472  72.137 224.660 -0.03 +0.04    -0.246 NA 
DOCKED: ATOM     15  C   UNL     1     139.339  70.408 223.464 -0.28 -0.01    +0.031 A  
DOCKED: ATOM     16  C   UNL     1     140.481  71.391 225.796 -0.53 -0.01    +0.071 A  
DOCKED: ATOM     17  C   UNL     1     139.330  69.619 224.616 -0.36 -0.00    +0.012 A  
DOCKED: ATOM     18  C   UNL     1     141.057  71.898 226.966 -0.76 -0.01    +0.029 A  
DOCKED: ATOM     19  C   UNL     1     139.896  70.107 225.799 -0.49 -0.00    +0.000 A  
DOCKED: ATOM     20  C   UNL     1     141.054  71.133 228.136 -0.72 -0.00    +0.002 A  
DOCKED: ATOM     21  C   UNL     1     139.900  69.342 226.976 -0.56 -0.00    +0.010 A  
DOCKED: ATOM     22  C   UNL     1     140.477  69.857 228.140 -0.61 -0.00    +0.001 A  
DOCKED: ENDBRANCH  11  13
DOCKED: ENDBRANCH  10  11
DOCKED: ENDBRANCH   9  10
DOCKED: ENDBRANCH   1   9
DOCKED: TORSDOF 8
DOCKED: TER
DOCKED: ENDMDL
________________________________________________________________________________


    FINAL DOCKED STATE:
    ________________________


Run:   7 / 20
Time taken for this run:   0.030s

DOCKED: MODEL        7
DOCKED: USER    Run = 7
DOCKED: USER
DOCKED: USER    Estimated Free Energy of Binding    =  -5.95 kcal/mol  [=(1)+(2)+(3)-(4)]
DOCKED: USER
DOCKED: USER    (1) Final Intermolecular Energy     =  -8.34 kcal/mol
DOCKED: USER        vdW + Hbond + desolv Energy     =  -8.60 kcal/mol
DOCKED: USER        Electrostatic Energy            =  +0.27 kcal/mol
DOCKED: USER        Moving Ligand-Fixed Receptor    =  -8.34 kcal/mol
DOCKED: USER        Moving Ligand-Moving Receptor   =  +0.00 kcal/mol
DOCKED: USER    (2) Final Total Internal Energy     =  -1.40 kcal/mol
DOCKED: USER    (3) Torsional Free Energy           =  +2.39 kcal/mol
DOCKED: USER    (4) Unbound System's Energy         =  -1.40 kcal/mol
DOCKED: USER
DOCKED: USER
DOCKED: REMARK SMILES CC(C)C[N-]/C(O)=C\[N-]C(=O)c1ccc2ccccc2n1
DOCKED: REMARK SMILES IDX 6 1 7 2 5 4 4 5 2 6 1 7 3 8 8 9 9 10 10 11 11 12 12 13 21 14
DOCKED: REMARK SMILES IDX 13 15 20 16 14 17 19 18 15 19 18 20 16 21 17 22
DOCKED: REMARK H PARENT 7 3
DOCKED: USER                              x       y       z     vdW  Elec       q    Type
DOCKED: USER                           _______ _______ _______ _____ _____    ______ ____
DOCKED: ROOT
DOCKED: ATOM      1  C   UNL     1     139.787  75.580 221.876 -0.33 +0.00    -0.012 C  
DOCKED: ENDROOT
DOCKED: BRANCH   1   2
DOCKED: ATOM      2  O   UNL     1     138.646  75.330 222.640 -0.15 +0.16    -0.533 OA 
DOCKED: ATOM      3  H   UNL     1     138.457  74.420 223.043 -0.49 -0.19    +0.290 HD 
DOCKED: ENDBRANCH   1   2
DOCKED: BRANCH   1   4
DOCKED: ATOM      4  N   UNL     1     140.032  76.905 221.393 +0.02 +0.19    -0.655 NA 
DOCKED: BRANCH   4   5
DOCKED: ATOM      5  C   UNL     1     141.227  77.659 221.755 -0.28 +0.05    -0.115 C  
DOCKED: BRANCH   5   6
DOCKED: ATOM      6  C   UNL     1     141.024  78.391 223.093 -0.49 +0.01    -0.035 C  
DOCKED: ATOM      7  C   UNL     1     139.664  79.099 223.148 -0.39 -0.00    +0.006 C  
DOCKED: ATOM      8  C   UNL     1     142.156  79.400 223.320 -0.63 -0.00    +0.006 C  
DOCKED: ENDBRANCH   5   6
DOCKED: ENDBRANCH   4   5
DOCKED: ENDBRANCH   1   4
DOCKED: BRANCH   1   9
DOCKED: ATOM      9  C   UNL     1     140.622  74.575 221.576 -0.27 +0.02    -0.114 C  
DOCKED: BRANCH   9  10
DOCKED: ATOM     10  N   UNL     1     140.724  73.379 222.363 -0.44 -0.03    -0.626 NA 
DOCKED: BRANCH  10  11
DOCKED: ATOM     11  C   UNL     1     139.655  72.473 222.675 -0.22 -0.02    +0.104 C  
DOCKED: ATOM     12  O   UNL     1     138.601  72.527 221.990 -0.11 +0.08    -0.313 OA 
DOCKED: BRANCH  11  13
DOCKED: ATOM     13  C   UNL     1     139.736  71.497 223.785 -0.35 -0.02    +0.089 A  
DOCKED: ATOM     14  N   UNL     1     140.309  71.882 224.959 -0.24 +0.05    -0.246 NA 
DOCKED: ATOM     15  C   UNL     1     139.269  70.179 223.648 -0.28 -0.01    +0.031 A  
DOCKED: ATOM     16  C   UNL     1     140.410  71.046 226.026 -0.54 -0.01    +0.071 A  
DOCKED: ATOM     17  C   UNL     1     139.356  69.297 224.728 -0.37 -0.00    +0.012 A  
DOCKED: ATOM     18  C   UNL     1     140.985  71.496 227.220 -0.74 -0.01    +0.029 A  
DOCKED: ATOM     19  C   UNL     1     139.923  69.726 225.933 -0.48 -0.00    +0.000 A  
DOCKED: ATOM     20  C   UNL     1     141.078  70.637 228.318 -0.59 -0.00    +0.002 A  
DOCKED: ATOM     21  C   UNL     1     140.021  68.867 227.039 -0.60 -0.00    +0.010 A  
DOCKED: ATOM     22  C   UNL     1     140.597  69.326 228.228 -0.63 -0.00    +0.001 A  
DOCKED: ENDBRANCH  11  13
DOCKED: ENDBRANCH  10  11
DOCKED: ENDBRANCH   9  10
DOCKED: ENDBRANCH   1   9
DOCKED: TORSDOF 8
DOCKED: TER
DOCKED: ENDMDL
________________________________________________________________________________


    FINAL DOCKED STATE:
    ________________________


Run:   8 / 20
Time taken for this run:   0.030s

DOCKED: MODEL        8
DOCKED: USER    Run = 8
DOCKED: USER
DOCKED: USER    Estimated Free Energy of Binding    =  -6.10 kcal/mol  [=(1)+(2)+(3)-(4)]
DOCKED: USER
DOCKED: USER    (1) Final Intermolecular Energy     =  -8.48 kcal/mol
DOCKED: USER        vdW + Hbond + desolv Energy     =  -8.79 kcal/mol
DOCKED: USER        Electrostatic Energy            =  +0.31 kcal/mol
DOCKED: USER        Moving Ligand-Fixed Receptor    =  -8.48 kcal/mol
DOCKED: USER        Moving Ligand-Moving Receptor   =  +0.00 kcal/mol
DOCKED: USER    (2) Final Total Internal Energy     =  -1.34 kcal/mol
DOCKED: USER    (3) Torsional Free Energy           =  +2.39 kcal/mol
DOCKED: USER    (4) Unbound System's Energy         =  -1.34 kcal/mol
DOCKED: USER
DOCKED: USER
DOCKED: REMARK SMILES CC(C)C[N-]/C(O)=C\[N-]C(=O)c1ccc2ccccc2n1
DOCKED: REMARK SMILES IDX 6 1 7 2 5 4 4 5 2 6 1 7 3 8 8 9 9 10 10 11 11 12 12 13 21 14
DOCKED: REMARK SMILES IDX 13 15 20 16 14 17 19 18 15 19 18 20 16 21 17 22
DOCKED: REMARK H PARENT 7 3
DOCKED: USER                              x       y       z     vdW  Elec       q    Type
DOCKED: USER                           _______ _______ _______ _____ _____    ______ ____
DOCKED: ROOT
DOCKED: ATOM      1  C   UNL     1     140.310  75.323 221.888 -0.29 +0.00    -0.012 C  
DOCKED: ENDROOT
DOCKED: BRANCH   1   2
DOCKED: ATOM      2  O   UNL     1     139.180  75.282 222.706 -0.37 +0.11    -0.533 OA 
DOCKED: ATOM      3  H   UNL     1     138.799  74.411 223.054 -0.50 -0.16    +0.290 HD 
DOCKED: ENDBRANCH   1   2
DOCKED: BRANCH   1   4
DOCKED: ATOM      4  N   UNL     1     140.791  76.586 221.418 -0.01 +0.24    -0.655 NA 
DOCKED: BRANCH   4   5
DOCKED: ATOM      5  C   UNL     1     140.450  77.843 222.073 -0.32 +0.04    -0.115 C  
DOCKED: BRANCH   5   6
DOCKED: ATOM      6  C   UNL     1     141.718  78.648 222.403 -0.45 +0.02    -0.035 C  
DOCKED: ATOM      7  C   UNL     1     141.780  79.019 223.891 -0.61 -0.00    +0.006 C  
DOCKED: ATOM      8  C   UNL     1     141.781  79.914 221.540 -0.43 -0.00    +0.006 C  
DOCKED: ENDBRANCH   5   6
DOCKED: ENDBRANCH   4   5
DOCKED: ENDBRANCH   1   4
DOCKED: BRANCH   1   9
DOCKED: ATOM      9  C   UNL     1     140.912  74.181 221.525 -0.25 +0.01    -0.114 C  
DOCKED: BRANCH   9  10
DOCKED: ATOM     10  N   UNL     1     140.902  72.998 222.338 -0.34 -0.00    -0.626 NA 
DOCKED: BRANCH  10  11
DOCKED: ATOM     11  C   UNL     1     139.744  72.249 222.736 -0.27 -0.02    +0.104 C  
DOCKED: ATOM     12  O   UNL     1     138.653  72.472 222.150 -0.13 +0.08    -0.313 OA 
DOCKED: BRANCH  11  13
DOCKED: ATOM     13  C   UNL     1     139.779  71.246 223.824 -0.35 -0.02    +0.089 A  
DOCKED: ATOM     14  N   UNL     1     140.363  71.580 225.008 -0.31 +0.04    -0.246 NA 
DOCKED: ATOM     15  C   UNL     1     139.256  69.953 223.656 -0.27 -0.01    +0.031 A  
DOCKED: ATOM     16  C   UNL     1     140.423  70.717 226.056 -0.53 -0.01    +0.071 A  
DOCKED: ATOM     17  C   UNL     1     139.300  69.044 224.715 -0.37 -0.00    +0.012 A  
DOCKED: ATOM     18  C   UNL     1     141.012  71.115 227.261 -0.69 -0.00    +0.029 A  
DOCKED: ATOM     19  C   UNL     1     139.880  69.421 225.932 -0.48 -0.00    +0.000 A  
DOCKED: ATOM     20  C   UNL     1     141.063  70.228 228.340 -0.56 -0.00    +0.002 A  
DOCKED: ATOM     21  C   UNL     1     139.937  68.534 227.018 -0.62 -0.00    +0.010 A  
DOCKED: ATOM     22  C   UNL     1     140.527  68.941 228.219 -0.65 -0.00    +0.001 A  
DOCKED: ENDBRANCH  11  13
DOCKED: ENDBRANCH  10  11
DOCKED: ENDBRANCH   9  10
DOCKED: ENDBRANCH   1   9
DOCKED: TORSDOF 8
DOCKED: TER
DOCKED: ENDMDL
________________________________________________________________________________


    FINAL DOCKED STATE:
    ________________________


Run:   9 / 20
Time taken for this run:   0.030s

DOCKED: MODEL        9
DOCKED: USER    Run = 9
DOCKED: USER
DOCKED: USER    Estimated Free Energy of Binding    =  -5.22 kcal/mol  [=(1)+(2)+(3)-(4)]
DOCKED: USER
DOCKED: USER    (1) Final Intermolecular Energy     =  -7.60 kcal/mol
DOCKED: USER        vdW + Hbond + desolv Energy     =  -7.82 kcal/mol
DOCKED: USER        Electrostatic Energy            =  +0.22 kcal/mol
DOCKED: USER        Moving Ligand-Fixed Receptor    =  -7.60 kcal/mol
DOCKED: USER        Moving Ligand-Moving Receptor   =  +0.00 kcal/mol
DOCKED: USER    (2) Final Total Internal Energy     =  -1.58 kcal/mol
DOCKED: USER    (3) Torsional Free Energy           =  +2.39 kcal/mol
DOCKED: USER    (4) Unbound System's Energy         =  -1.58 kcal/mol
DOCKED: USER
DOCKED: USER
DOCKED: REMARK SMILES CC(C)C[N-]/C(O)=C\[N-]C(=O)c1ccc2ccccc2n1
DOCKED: REMARK SMILES IDX 6 1 7 2 5 4 4 5 2 6 1 7 3 8 8 9 9 10 10 11 11 12 12 13 21 14
DOCKED: REMARK SMILES IDX 13 15 20 16 14 17 19 18 15 19 18 20 16 21 17 22
DOCKED: REMARK H PARENT 7 3
DOCKED: USER                              x       y       z     vdW  Elec       q    Type
DOCKED: USER                           _______ _______ _______ _____ _____    ______ ____
DOCKED: ROOT
DOCKED: ATOM      1  C   UNL     1     140.773  72.775 221.733 -0.29 +0.00    -0.012 C  
DOCKED: ENDROOT
DOCKED: BRANCH   1   2
DOCKED: ATOM      2  O   UNL     1     139.959  73.260 222.758 -0.57 +0.04    -0.533 OA 
DOCKED: ATOM      3  H   UNL     1     139.448  72.642 223.377 -0.22 -0.10    +0.290 HD 
DOCKED: ENDBRANCH   1   2
DOCKED: BRANCH   1   4
DOCKED: ATOM      4  N   UNL     1     141.876  73.565 221.279 +0.05 +0.08    -0.655 NA 
DOCKED: BRANCH   4   5
DOCKED: ATOM      5  C   UNL     1     142.723  73.156 220.165 -0.21 +0.02    -0.115 C  
DOCKED: BRANCH   5   6
DOCKED: ATOM      6  C   UNL     1     144.076  72.631 220.673 -0.35 +0.01    -0.035 C  
DOCKED: ATOM      7  C   UNL     1     145.101  73.763 220.821 -0.59 -0.00    +0.006 C  
DOCKED: ATOM      8  C   UNL     1     144.615  71.552 219.726 -0.30 +0.00    +0.006 C  
DOCKED: ENDBRANCH   5   6
DOCKED: ENDBRANCH   4   5
DOCKED: ENDBRANCH   1   4
DOCKED: BRANCH   1   9
DOCKED: ATOM      9  C   UNL     1     140.495  71.593 221.164 -0.16 +0.02    -0.114 C  
DOCKED: BRANCH   9  10
DOCKED: ATOM     10  N   UNL     1     139.300  70.850 221.444 +0.03 +0.11    -0.626 NA 
DOCKED: BRANCH  10  11
DOCKED: ATOM     11  C   UNL     1     139.199  69.682 222.272 -0.15 -0.02    +0.104 C  
DOCKED: ATOM     12  O   UNL     1     138.876  68.590 221.736 -0.09 +0.06    -0.313 OA 
DOCKED: BRANCH  11  13
DOCKED: ATOM     13  C   UNL     1     139.434  69.717 223.733 -0.23 -0.02    +0.089 A  
DOCKED: ATOM     14  N   UNL     1     140.143  70.754 224.260 -0.24 +0.04    -0.246 NA 
DOCKED: ATOM     15  C   UNL     1     138.976  68.696 224.582 -0.36 -0.00    +0.031 A  
DOCKED: ATOM     16  C   UNL     1     140.390  70.860 225.592 -0.51 -0.01    +0.071 A  
DOCKED: ATOM     17  C   UNL     1     139.212  68.779 225.956 -0.49 -0.00    +0.012 A  
DOCKED: ATOM     18  C   UNL     1     141.102  71.958 226.089 -0.54 -0.00    +0.029 A  
DOCKED: ATOM     19  C   UNL     1     139.918  69.868 226.477 -0.52 -0.00    +0.000 A  
DOCKED: ATOM     20  C   UNL     1     141.346  72.070 227.461 -0.80 -0.00    +0.002 A  
DOCKED: ATOM     21  C   UNL     1     140.168  69.985 227.853 -0.62 -0.00    +0.010 A  
DOCKED: ATOM     22  C   UNL     1     140.880  71.086 228.341 -0.67 -0.00    +0.001 A  
DOCKED: ENDBRANCH  11  13
DOCKED: ENDBRANCH  10  11
DOCKED: ENDBRANCH   9  10
DOCKED: ENDBRANCH   1   9
DOCKED: TORSDOF 8
DOCKED: TER
DOCKED: ENDMDL
________________________________________________________________________________


    FINAL DOCKED STATE:
    ________________________


Run:   10 / 20
Time taken for this run:   0.030s

DOCKED: MODEL        10
DOCKED: USER    Run = 10
DOCKED: USER
DOCKED: USER    Estimated Free Energy of Binding    =  -5.23 kcal/mol  [=(1)+(2)+(3)-(4)]
DOCKED: USER
DOCKED: USER    (1) Final Intermolecular Energy     =  -7.62 kcal/mol
DOCKED: USER        vdW + Hbond + desolv Energy     =  -7.90 kcal/mol
DOCKED: USER        Electrostatic Energy            =  +0.28 kcal/mol
DOCKED: USER        Moving Ligand-Fixed Receptor    =  -7.62 kcal/mol
DOCKED: USER        Moving Ligand-Moving Receptor   =  +0.00 kcal/mol
DOCKED: USER    (2) Final Total Internal Energy     =  -1.64 kcal/mol
DOCKED: USER    (3) Torsional Free Energy           =  +2.39 kcal/mol
DOCKED: USER    (4) Unbound System's Energy         =  -1.64 kcal/mol
DOCKED: USER
DOCKED: USER
DOCKED: REMARK SMILES CC(C)C[N-]/C(O)=C\[N-]C(=O)c1ccc2ccccc2n1
DOCKED: REMARK SMILES IDX 6 1 7 2 5 4 4 5 2 6 1 7 3 8 8 9 9 10 10 11 11 12 12 13 21 14
DOCKED: REMARK SMILES IDX 13 15 20 16 14 17 19 18 15 19 18 20 16 21 17 22
DOCKED: REMARK H PARENT 7 3
DOCKED: USER                              x       y       z     vdW  Elec       q    Type
DOCKED: USER                           _______ _______ _______ _____ _____    ______ ____
DOCKED: ROOT
DOCKED: ATOM      1  C   UNL     1     140.351  73.759 221.349 -0.27 +0.00    -0.012 C  
DOCKED: ENDROOT
DOCKED: BRANCH   1   2
DOCKED: ATOM      2  O   UNL     1     139.892  73.778 222.668 -0.60 +0.01    -0.533 OA 
DOCKED: ATOM      3  H   UNL     1     139.386  73.000 223.072 -0.32 -0.09    +0.290 HD 
DOCKED: ENDBRANCH   1   2
DOCKED: BRANCH   1   4
DOCKED: ATOM      4  N   UNL     1     140.378  74.977 220.598 +0.02 +0.16    -0.655 NA 
DOCKED: BRANCH   4   5
DOCKED: ATOM      5  C   UNL     1     141.107  76.156 221.051 -0.27 +0.04    -0.115 C  
DOCKED: BRANCH   5   6
DOCKED: ATOM      6  C   UNL     1     140.476  76.728 222.331 -0.39 +0.01    -0.035 C  
DOCKED: ATOM      7  C   UNL     1     138.951  76.848 222.204 -0.31 -0.00    +0.006 C  
DOCKED: ATOM      8  C   UNL     1     141.088  78.096 222.657 -0.49 -0.00    +0.006 C  
DOCKED: ENDBRANCH   5   6
DOCKED: ENDBRANCH   4   5
DOCKED: ENDBRANCH   1   4
DOCKED: BRANCH   1   9
DOCKED: ATOM      9  C   UNL     1     140.729  72.600 220.792 -0.16 +0.02    -0.114 C  
DOCKED: BRANCH   9  10
DOCKED: ATOM     10  N   UNL     1     140.230  71.324 221.221 +0.02 +0.10    -0.626 NA 
DOCKED: BRANCH  10  11
DOCKED: ATOM     11  C   UNL     1     139.219  71.096 222.214 -0.18 -0.02    +0.104 C  
DOCKED: ATOM     12  O   UNL     1     138.020  71.341 221.920 -0.06 +0.06    -0.313 OA 
DOCKED: BRANCH  11  13
DOCKED: ATOM     13  C   UNL     1     139.535  70.610 223.576 -0.29 -0.02    +0.089 A  
DOCKED: ATOM     14  N   UNL     1     140.140  71.458 224.453 -0.29 +0.04    -0.246 NA 
DOCKED: ATOM     15  C   UNL     1     139.257  69.292 223.975 -0.28 -0.01    +0.031 A  
DOCKED: ATOM     16  C   UNL     1     140.451  71.087 225.723 -0.53 -0.01    +0.071 A  
DOCKED: ATOM     17  C   UNL     1     139.563  68.882 225.275 -0.43 -0.00    +0.012 A  
DOCKED: ATOM     18  C   UNL     1     141.051  72.002 226.596 -0.67 -0.00    +0.029 A  
DOCKED: ATOM     19  C   UNL     1     140.159  69.780 226.166 -0.51 -0.00    +0.000 A  
DOCKED: ATOM     20  C   UNL     1     141.360  71.621 227.905 -0.73 -0.00    +0.002 A  
DOCKED: ATOM     21  C   UNL     1     140.474  69.403 227.481 -0.61 -0.00    +0.010 A  
DOCKED: ATOM     22  C   UNL     1     141.072  70.324 228.346 -0.56 -0.00    +0.001 A  
DOCKED: ENDBRANCH  11  13
DOCKED: ENDBRANCH  10  11
DOCKED: ENDBRANCH   9  10
DOCKED: ENDBRANCH   1   9
DOCKED: TORSDOF 8
DOCKED: TER
DOCKED: ENDMDL
________________________________________________________________________________


    FINAL DOCKED STATE:
    ________________________


Run:   11 / 20
Time taken for this run:   0.030s

DOCKED: MODEL        11
DOCKED: USER    Run = 11
DOCKED: USER
DOCKED: USER    Estimated Free Energy of Binding    =  -5.96 kcal/mol  [=(1)+(2)+(3)-(4)]
DOCKED: USER
DOCKED: USER    (1) Final Intermolecular Energy     =  -8.34 kcal/mol
DOCKED: USER        vdW + Hbond + desolv Energy     =  -8.63 kcal/mol
DOCKED: USER        Electrostatic Energy            =  +0.29 kcal/mol
DOCKED: USER        Moving Ligand-Fixed Receptor    =  -8.34 kcal/mol
DOCKED: USER        Moving Ligand-Moving Receptor   =  +0.00 kcal/mol
DOCKED: USER    (2) Final Total Internal Energy     =  -1.40 kcal/mol
DOCKED: USER    (3) Torsional Free Energy           =  +2.39 kcal/mol
DOCKED: USER    (4) Unbound System's Energy         =  -1.40 kcal/mol
DOCKED: USER
DOCKED: USER
DOCKED: REMARK SMILES CC(C)C[N-]/C(O)=C\[N-]C(=O)c1ccc2ccccc2n1
DOCKED: REMARK SMILES IDX 6 1 7 2 5 4 4 5 2 6 1 7 3 8 8 9 9 10 10 11 11 12 12 13 21 14
DOCKED: REMARK SMILES IDX 13 15 20 16 14 17 19 18 15 19 18 20 16 21 17 22
DOCKED: REMARK H PARENT 7 3
DOCKED: USER                              x       y       z     vdW  Elec       q    Type
DOCKED: USER                           _______ _______ _______ _____ _____    ______ ____
DOCKED: ROOT
DOCKED: ATOM      1  C   UNL     1     140.168  75.478 221.677 -0.33 +0.00    -0.012 C  
DOCKED: ENDROOT
DOCKED: BRANCH   1   2
DOCKED: ATOM      2  O   UNL     1     139.232  75.398 222.710 -0.36 +0.10    -0.533 OA 
DOCKED: ATOM      3  H   UNL     1     138.849  74.513 223.021 -0.49 -0.15    +0.290 HD 
DOCKED: ENDBRANCH   1   2
DOCKED: BRANCH   1   4
DOCKED: ATOM      4  N   UNL     1     140.244  76.671 220.890 +0.04 +0.20    -0.655 NA 
DOCKED: BRANCH   4   5
DOCKED: ATOM      5  C   UNL     1     141.155  77.763 221.215 -0.28 +0.05    -0.115 C  
DOCKED: BRANCH   5   6
DOCKED: ATOM      6  C   UNL     1     141.042  78.143 222.701 -0.48 +0.01    -0.035 C  
DOCKED: ATOM      7  C   UNL     1     139.676  78.762 223.023 -0.37 -0.00    +0.006 C  
DOCKED: ATOM      8  C   UNL     1     142.166  79.112 223.086 -0.59 -0.00    +0.006 C  
DOCKED: ENDBRANCH   5   6
DOCKED: ENDBRANCH   4   5
DOCKED: ENDBRANCH   1   4
DOCKED: BRANCH   1   9
DOCKED: ATOM      9  C   UNL     1     140.961  74.430 221.414 -0.25 +0.02    -0.114 C  
DOCKED: BRANCH   9  10
DOCKED: ATOM     10  N   UNL     1     140.982  73.241 222.217 -0.30 -0.01    -0.626 NA 
DOCKED: BRANCH  10  11
DOCKED: ATOM     11  C   UNL     1     139.844  72.460 222.611 -0.25 -0.02    +0.104 C  
DOCKED: ATOM     12  O   UNL     1     138.759  72.625 221.995 -0.13 +0.08    -0.313 OA 
DOCKED: BRANCH  11  13
DOCKED: ATOM     13  C   UNL     1     139.891  71.489 223.727 -0.36 -0.02    +0.089 A  
DOCKED: ATOM     14  N   UNL     1     140.422  71.881 224.918 -0.26 +0.04    -0.246 NA 
DOCKED: ATOM     15  C   UNL     1     139.434  70.168 223.580 -0.28 -0.01    +0.031 A  
DOCKED: ATOM     16  C   UNL     1     140.490  71.050 225.991 -0.54 -0.01    +0.071 A  
DOCKED: ATOM     17  C   UNL     1     139.488  69.291 224.665 -0.36 -0.00    +0.012 A  
DOCKED: ATOM     18  C   UNL     1     141.022  71.507 227.202 -0.74 -0.00    +0.029 A  
DOCKED: ATOM     19  C   UNL     1     140.011  69.727 225.887 -0.48 -0.00    +0.000 A  
DOCKED: ATOM     20  C   UNL     1     141.080  70.653 228.307 -0.59 -0.00    +0.002 A  
DOCKED: ATOM     21  C   UNL     1     140.075  68.873 226.999 -0.60 -0.00    +0.010 A  
DOCKED: ATOM     22  C   UNL     1     140.608  69.339 228.205 -0.63 -0.00    +0.001 A  
DOCKED: ENDBRANCH  11  13
DOCKED: ENDBRANCH  10  11
DOCKED: ENDBRANCH   9  10
DOCKED: ENDBRANCH   1   9
DOCKED: TORSDOF 8
DOCKED: TER
DOCKED: ENDMDL
________________________________________________________________________________


    FINAL DOCKED STATE:
    ________________________


Run:   12 / 20
Time taken for this run:   0.030s

DOCKED: MODEL        12
DOCKED: USER    Run = 12
DOCKED: USER
DOCKED: USER    Estimated Free Energy of Binding    =  -5.46 kcal/mol  [=(1)+(2)+(3)-(4)]
DOCKED: USER
DOCKED: USER    (1) Final Intermolecular Energy     =  -7.85 kcal/mol
DOCKED: USER        vdW + Hbond + desolv Energy     =  -8.12 kcal/mol
DOCKED: USER        Electrostatic Energy            =  +0.28 kcal/mol
DOCKED: USER        Moving Ligand-Fixed Receptor    =  -7.85 kcal/mol
DOCKED: USER        Moving Ligand-Moving Receptor   =  +0.00 kcal/mol
DOCKED: USER    (2) Final Total Internal Energy     =  -1.53 kcal/mol
DOCKED: USER    (3) Torsional Free Energy           =  +2.39 kcal/mol
DOCKED: USER    (4) Unbound System's Energy         =  -1.53 kcal/mol
DOCKED: USER
DOCKED: USER
DOCKED: REMARK SMILES CC(C)C[N-]/C(O)=C\[N-]C(=O)c1ccc2ccccc2n1
DOCKED: REMARK SMILES IDX 6 1 7 2 5 4 4 5 2 6 1 7 3 8 8 9 9 10 10 11 11 12 12 13 21 14
DOCKED: REMARK SMILES IDX 13 15 20 16 14 17 19 18 15 19 18 20 16 21 17 22
DOCKED: REMARK H PARENT 7 3
DOCKED: USER                              x       y       z     vdW  Elec       q    Type
DOCKED: USER                           _______ _______ _______ _____ _____    ______ ____
DOCKED: ROOT
DOCKED: ATOM      1  C   UNL     1     140.709  73.446 221.415 -0.28 +0.00    -0.012 C  
DOCKED: ENDROOT
DOCKED: BRANCH   1   2
DOCKED: ATOM      2  O   UNL     1     139.931  74.139 222.345 -0.73 +0.02    -0.533 OA 
DOCKED: ATOM      3  H   UNL     1     139.078  73.750 222.728 -0.46 -0.10    +0.290 HD 
DOCKED: ENDBRANCH   1   2
DOCKED: BRANCH   1   4
DOCKED: ATOM      4  N   UNL     1     142.016  73.932 221.093 +0.04 +0.12    -0.655 NA 
DOCKED: BRANCH   4   5
DOCKED: ATOM      5  C   UNL     1     143.133  73.039 220.812 -0.21 +0.02    -0.115 C  
DOCKED: BRANCH   5   6
DOCKED: ATOM      6  C   UNL     1     144.253  73.784 220.067 -0.41 +0.01    -0.035 C  
DOCKED: ATOM      7  C   UNL     1     145.577  73.732 220.841 -0.66 -0.00    +0.006 C  
DOCKED: ATOM      8  C   UNL     1     143.845  75.240 219.817 -0.38 -0.00    +0.006 C  
DOCKED: ENDBRANCH   5   6
DOCKED: ENDBRANCH   4   5
DOCKED: ENDBRANCH   1   4
DOCKED: BRANCH   1   9
DOCKED: ATOM      9  C   UNL     1     140.214  72.355 220.813 -0.14 +0.02    -0.114 C  
DOCKED: BRANCH   9  10
DOCKED: ATOM     10  N   UNL     1     139.134  71.582 221.357 +0.02 +0.12    -0.626 NA 
DOCKED: BRANCH  10  11
DOCKED: ATOM     11  C   UNL     1     138.613  71.668 222.691 -0.19 -0.03    +0.104 C  
DOCKED: ATOM     12  O   UNL     1     137.519  72.262 222.873 -0.11 +0.10    -0.313 OA 
DOCKED: BRANCH  11  13
DOCKED: ATOM     13  C   UNL     1     139.325  71.109 223.863 -0.32 -0.02    +0.089 A  
DOCKED: ATOM     14  N   UNL     1     138.966  69.880 224.325 -0.18 +0.04    -0.246 NA 
DOCKED: ATOM     15  C   UNL     1     140.334  71.827 224.528 -0.37 -0.01    +0.031 A  
DOCKED: ATOM     16  C   UNL     1     139.580  69.297 225.388 -0.38 -0.01    +0.071 A  
DOCKED: ATOM     17  C   UNL     1     140.985  71.253 225.623 -0.59 -0.00    +0.012 A  
DOCKED: ATOM     18  C   UNL     1     139.192  68.020 225.811 -0.51 -0.00    +0.029 A  
DOCKED: ATOM     19  C   UNL     1     140.618  69.976 226.060 -0.53 -0.00    +0.000 A  
DOCKED: ATOM     20  C   UNL     1     139.833  67.419 226.898 -0.57 -0.00    +0.002 A  
DOCKED: ATOM     21  C   UNL     1     141.255  69.368 227.153 -0.48 -0.00    +0.010 A  
DOCKED: ATOM     22  C   UNL     1     140.862  68.092 227.567 -0.67 -0.00    +0.001 A  
DOCKED: ENDBRANCH  11  13
DOCKED: ENDBRANCH  10  11
DOCKED: ENDBRANCH   9  10
DOCKED: ENDBRANCH   1   9
DOCKED: TORSDOF 8
DOCKED: TER
DOCKED: ENDMDL
________________________________________________________________________________


    FINAL DOCKED STATE:
    ________________________


Run:   13 / 20
Time taken for this run:   0.030s

DOCKED: MODEL        13
DOCKED: USER    Run = 13
DOCKED: USER
DOCKED: USER    Estimated Free Energy of Binding    =  -4.52 kcal/mol  [=(1)+(2)+(3)-(4)]
DOCKED: USER
DOCKED: USER    (1) Final Intermolecular Energy     =  -6.90 kcal/mol
DOCKED: USER        vdW + Hbond + desolv Energy     =  -7.19 kcal/mol
DOCKED: USER        Electrostatic Energy            =  +0.29 kcal/mol
DOCKED: USER        Moving Ligand-Fixed Receptor    =  -6.90 kcal/mol
DOCKED: USER        Moving Ligand-Moving Receptor   =  +0.00 kcal/mol
DOCKED: USER    (2) Final Total Internal Energy     =  -1.99 kcal/mol
DOCKED: USER    (3) Torsional Free Energy           =  +2.39 kcal/mol
DOCKED: USER    (4) Unbound System's Energy         =  -1.99 kcal/mol
DOCKED: USER
DOCKED: USER
DOCKED: REMARK SMILES CC(C)C[N-]/C(O)=C\[N-]C(=O)c1ccc2ccccc2n1
DOCKED: REMARK SMILES IDX 6 1 7 2 5 4 4 5 2 6 1 7 3 8 8 9 9 10 10 11 11 12 12 13 21 14
DOCKED: REMARK SMILES IDX 13 15 20 16 14 17 19 18 15 19 18 20 16 21 17 22
DOCKED: REMARK H PARENT 7 3
DOCKED: USER                              x       y       z     vdW  Elec       q    Type
DOCKED: USER                           _______ _______ _______ _____ _____    ______ ____
DOCKED: ROOT
DOCKED: ATOM      1  C   UNL     1     137.001  72.576 221.469 -0.09 +0.00    -0.012 C  
DOCKED: ENDROOT
DOCKED: BRANCH   1   2
DOCKED: ATOM      2  O   UNL     1     137.321  73.620 222.339 -0.04 +0.19    -0.533 OA 
DOCKED: ATOM      3  H   UNL     1     138.247  73.724 222.737 -0.49 -0.15    +0.290 HD 
DOCKED: ENDBRANCH   1   2
DOCKED: BRANCH   1   4
DOCKED: ATOM      4  N   UNL     1     135.658  72.085 221.427 +0.03 +0.12    -0.655 NA 
DOCKED: BRANCH   4   5
DOCKED: ATOM      5  C   UNL     1     135.130  71.172 222.435 -0.04 +0.02    -0.115 C  
DOCKED: BRANCH   5   6
DOCKED: ATOM      6  C   UNL     1     135.834  71.383 223.785 -0.18 +0.01    -0.035 C  
DOCKED: ATOM      7  C   UNL     1     135.902  70.082 224.596 -0.23 -0.00    +0.006 C  
DOCKED: ATOM      8  C   UNL     1     135.117  72.472 224.592 -0.21 -0.00    +0.006 C  
DOCKED: ENDBRANCH   5   6
DOCKED: ENDBRANCH   4   5
DOCKED: ENDBRANCH   1   4
DOCKED: BRANCH   1   9
DOCKED: ATOM      9  C   UNL     1     137.958  72.026 220.709 -0.05 +0.02    -0.114 C  
DOCKED: BRANCH   9  10
DOCKED: ATOM     10  N   UNL     1     139.283  71.754 221.189 +0.02 +0.11    -0.626 NA 
DOCKED: BRANCH  10  11
DOCKED: ATOM     11  C   UNL     1     139.847  72.205 222.430 -0.27 -0.02    +0.104 C  
DOCKED: ATOM     12  O   UNL     1     140.357  73.355 222.476 -0.73 -0.00    -0.313 OA 
DOCKED: BRANCH  11  13
DOCKED: ATOM     13  C   UNL     1     139.874  71.363 223.646 -0.35 -0.02    +0.089 A  
DOCKED: ATOM     14  N   UNL     1     140.425  71.869 224.784 -0.26 +0.04    -0.246 NA 
DOCKED: ATOM     15  C   UNL     1     139.379  70.048 223.648 -0.28 -0.01    +0.031 A  
DOCKED: ATOM     16  C   UNL     1     140.477  71.160 225.942 -0.54 -0.01    +0.071 A  
DOCKED: ATOM     17  C   UNL     1     139.416  69.295 224.824 -0.37 -0.00    +0.012 A  
DOCKED: ATOM     18  C   UNL     1     141.031  71.732 227.093 -0.76 -0.01    +0.029 A  
DOCKED: ATOM     19  C   UNL     1     139.961  69.848 225.988 -0.49 -0.00    +0.000 A  
DOCKED: ATOM     20  C   UNL     1     141.073  71.004 228.285 -0.66 -0.00    +0.002 A  
DOCKED: ATOM     21  C   UNL     1     140.009  69.121 227.187 -0.59 -0.00    +0.010 A  
DOCKED: ATOM     22  C   UNL     1     140.564  69.701 228.332 -0.60 -0.00    +0.001 A  
DOCKED: ENDBRANCH  11  13
DOCKED: ENDBRANCH  10  11
DOCKED: ENDBRANCH   9  10
DOCKED: ENDBRANCH   1   9
DOCKED: TORSDOF 8
DOCKED: TER
DOCKED: ENDMDL
________________________________________________________________________________


    FINAL DOCKED STATE:
    ________________________


Run:   14 / 20
Time taken for this run:   0.030s

DOCKED: MODEL        14
DOCKED: USER    Run = 14
DOCKED: USER
DOCKED: USER    Estimated Free Energy of Binding    =  -5.96 kcal/mol  [=(1)+(2)+(3)-(4)]
DOCKED: USER
DOCKED: USER    (1) Final Intermolecular Energy     =  -8.35 kcal/mol
DOCKED: USER        vdW + Hbond + desolv Energy     =  -8.64 kcal/mol
DOCKED: USER        Electrostatic Energy            =  +0.29 kcal/mol
DOCKED: USER        Moving Ligand-Fixed Receptor    =  -8.35 kcal/mol
DOCKED: USER        Moving Ligand-Moving Receptor   =  +0.00 kcal/mol
DOCKED: USER    (2) Final Total Internal Energy     =  -1.42 kcal/mol
DOCKED: USER    (3) Torsional Free Energy           =  +2.39 kcal/mol
DOCKED: USER    (4) Unbound System's Energy         =  -1.42 kcal/mol
DOCKED: USER
DOCKED: USER
DOCKED: REMARK SMILES CC(C)C[N-]/C(O)=C\[N-]C(=O)c1ccc2ccccc2n1
DOCKED: REMARK SMILES IDX 6 1 7 2 5 4 4 5 2 6 1 7 3 8 8 9 9 10 10 11 11 12 12 13 21 14
DOCKED: REMARK SMILES IDX 13 15 20 16 14 17 19 18 15 19 18 20 16 21 17 22
DOCKED: REMARK H PARENT 7 3
DOCKED: USER                              x       y       z     vdW  Elec       q    Type
DOCKED: USER                           _______ _______ _______ _____ _____    ______ ____
DOCKED: ROOT
DOCKED: ATOM      1  C   UNL     1     140.125  75.596 221.806 -0.33 +0.00    -0.012 C  
DOCKED: ENDROOT
DOCKED: BRANCH   1   2
DOCKED: ATOM      2  O   UNL     1     139.075  75.465 222.717 -0.30 +0.12    -0.533 OA 
DOCKED: ATOM      3  H   UNL     1     138.797  74.566 223.091 -0.49 -0.16    +0.290 HD 
DOCKED: ENDBRANCH   1   2
DOCKED: BRANCH   1   4
DOCKED: ATOM      4  N   UNL     1     140.344  76.856 221.164 +0.03 +0.21    -0.655 NA 
DOCKED: BRANCH   4   5
DOCKED: ATOM      5  C   UNL     1     141.383  77.782 221.597 -0.27 +0.06    -0.115 C  
DOCKED: BRANCH   5   6
DOCKED: ATOM      6  C   UNL     1     141.085  78.315 223.008 -0.49 +0.01    -0.035 C  
DOCKED: ATOM      7  C   UNL     1     139.694  78.957 223.087 -0.39 -0.00    +0.006 C  
DOCKED: ATOM      8  C   UNL     1     142.158  79.326 223.430 -0.62 -0.00    +0.006 C  
DOCKED: ENDBRANCH   5   6
DOCKED: ENDBRANCH   4   5
DOCKED: ENDBRANCH   1   4
DOCKED: BRANCH   1   9
DOCKED: ATOM      9  C   UNL     1     140.895  74.536 221.519 -0.26 +0.02    -0.114 C  
DOCKED: BRANCH   9  10
DOCKED: ATOM     10  N   UNL     1     140.946  73.359 222.339 -0.31 -0.03    -0.626 NA 
DOCKED: BRANCH  10  11
DOCKED: ATOM     11  C   UNL     1     139.835  72.525 222.699 -0.24 -0.02    +0.104 C  
DOCKED: ATOM     12  O   UNL     1     138.750  72.666 222.077 -0.14 +0.08    -0.313 OA 
DOCKED: BRANCH  11  13
DOCKED: ATOM     13  C   UNL     1     139.908  71.526 223.789 -0.36 -0.02    +0.089 A  
DOCKED: ATOM     14  N   UNL     1     140.433  71.899 224.989 -0.25 +0.04    -0.246 NA 
DOCKED: ATOM     15  C   UNL     1     139.482  70.199 223.607 -0.29 -0.01    +0.031 A  
DOCKED: ATOM     16  C   UNL     1     140.524  71.042 226.039 -0.55 -0.01    +0.071 A  
DOCKED: ATOM     17  C   UNL     1     139.561  69.295 224.669 -0.36 -0.00    +0.012 A  
DOCKED: ATOM     18  C   UNL     1     141.049  71.479 227.260 -0.74 -0.01    +0.029 A  
DOCKED: ATOM     19  C   UNL     1     140.078  69.710 225.901 -0.49 -0.00    +0.000 A  
DOCKED: ATOM     20  C   UNL     1     141.131  70.597 228.342 -0.56 -0.00    +0.002 A  
DOCKED: ATOM     21  C   UNL     1     140.165  68.829 226.990 -0.61 -0.00    +0.010 A  
DOCKED: ATOM     22  C   UNL     1     140.691  69.275 228.207 -0.63 -0.00    +0.001 A  
DOCKED: ENDBRANCH  11  13
DOCKED: ENDBRANCH  10  11
DOCKED: ENDBRANCH   9  10
DOCKED: ENDBRANCH   1   9
DOCKED: TORSDOF 8
DOCKED: TER
DOCKED: ENDMDL
________________________________________________________________________________


    FINAL DOCKED STATE:
    ________________________


Run:   15 / 20
Time taken for this run:   0.030s

DOCKED: MODEL        15
DOCKED: USER    Run = 15
DOCKED: USER
DOCKED: USER    Estimated Free Energy of Binding    =  -4.98 kcal/mol  [=(1)+(2)+(3)-(4)]
DOCKED: USER
DOCKED: USER    (1) Final Intermolecular Energy     =  -7.37 kcal/mol
DOCKED: USER        vdW + Hbond + desolv Energy     =  -7.64 kcal/mol
DOCKED: USER        Electrostatic Energy            =  +0.27 kcal/mol
DOCKED: USER        Moving Ligand-Fixed Receptor    =  -7.37 kcal/mol
DOCKED: USER        Moving Ligand-Moving Receptor   =  +0.00 kcal/mol
DOCKED: USER    (2) Final Total Internal Energy     =  -1.74 kcal/mol
DOCKED: USER    (3) Torsional Free Energy           =  +2.39 kcal/mol
DOCKED: USER    (4) Unbound System's Energy         =  -1.74 kcal/mol
DOCKED: USER
DOCKED: USER
DOCKED: REMARK SMILES CC(C)C[N-]/C(O)=C\[N-]C(=O)c1ccc2ccccc2n1
DOCKED: REMARK SMILES IDX 6 1 7 2 5 4 4 5 2 6 1 7 3 8 8 9 9 10 10 11 11 12 12 13 21 14
DOCKED: REMARK SMILES IDX 13 15 20 16 14 17 19 18 15 19 18 20 16 21 17 22
DOCKED: REMARK H PARENT 7 3
DOCKED: USER                              x       y       z     vdW  Elec       q    Type
DOCKED: USER                           _______ _______ _______ _____ _____    ______ ____
DOCKED: ROOT
DOCKED: ATOM      1  C   UNL     1     140.274  72.982 221.328 -0.24 +0.00    -0.012 C  
DOCKED: ENDROOT
DOCKED: BRANCH   1   2
DOCKED: ATOM      2  O   UNL     1     140.110  73.373 222.659 -0.61 +0.01    -0.533 OA 
DOCKED: ATOM      3  H   UNL     1     139.575  72.821 223.319 -0.24 -0.09    +0.290 HD 
DOCKED: ENDBRANCH   1   2
DOCKED: BRANCH   1   4
DOCKED: ATOM      4  N   UNL     1     141.109  73.762 220.466 +0.03 +0.13    -0.655 NA 
DOCKED: BRANCH   4   5
DOCKED: ATOM      5  C   UNL     1     142.450  74.184 220.852 -0.20 +0.03    -0.115 C  
DOCKED: BRANCH   5   6
DOCKED: ATOM      6  C   UNL     1     143.511  73.250 220.245 -0.32 +0.01    -0.035 C  
DOCKED: ATOM      7  C   UNL     1     143.370  71.817 220.776 -0.28 -0.00    +0.006 C  
DOCKED: ATOM      8  C   UNL     1     144.918  73.786 220.539 -0.55 -0.00    +0.006 C  
DOCKED: ENDBRANCH   5   6
DOCKED: ENDBRANCH   4   5
DOCKED: ENDBRANCH   1   4
DOCKED: BRANCH   1   9
DOCKED: ATOM      9  C   UNL     1     139.625  71.904 220.866 -0.11 +0.02    -0.114 C  
DOCKED: BRANCH   9  10
DOCKED: ATOM     10  N   UNL     1     138.725  71.126 221.669 +0.03 +0.12    -0.626 NA 
DOCKED: BRANCH  10  11
DOCKED: ATOM     11  C   UNL     1     139.042  69.915 222.370 -0.15 -0.02    +0.104 C  
DOCKED: ATOM     12  O   UNL     1     139.011  68.827 221.737 -0.09 +0.06    -0.313 OA 
DOCKED: BRANCH  11  13
DOCKED: ATOM     13  C   UNL     1     139.378  69.892 223.811 -0.25 -0.02    +0.089 A  
DOCKED: ATOM     14  N   UNL     1     140.069  70.939 224.341 -0.26 +0.04    -0.246 NA 
DOCKED: ATOM     15  C   UNL     1     139.033  68.808 224.636 -0.36 -0.00    +0.031 A  
DOCKED: ATOM     16  C   UNL     1     140.404  70.995 225.657 -0.52 -0.01    +0.071 A  
DOCKED: ATOM     17  C   UNL     1     139.362  68.838 225.993 -0.49 -0.00    +0.012 A  
DOCKED: ATOM     18  C   UNL     1     141.093  72.104 226.161 -0.43 -0.00    +0.029 A  
DOCKED: ATOM     19  C   UNL     1     140.047  69.938 226.520 -0.53 -0.00    +0.000 A  
DOCKED: ATOM     20  C   UNL     1     141.427  72.163 227.517 -0.81 -0.00    +0.002 A  
DOCKED: ATOM     21  C   UNL     1     140.387  70.002 227.880 -0.62 -0.00    +0.010 A  
DOCKED: ATOM     22  C   UNL     1     141.075  71.115 228.374 -0.63 -0.00    +0.001 A  
DOCKED: ENDBRANCH  11  13
DOCKED: ENDBRANCH  10  11
DOCKED: ENDBRANCH   9  10
DOCKED: ENDBRANCH   1   9
DOCKED: TORSDOF 8
DOCKED: TER
DOCKED: ENDMDL
________________________________________________________________________________


    FINAL DOCKED STATE:
    ________________________


Run:   16 / 20
Time taken for this run:   0.030s

DOCKED: MODEL        16
DOCKED: USER    Run = 16
DOCKED: USER
DOCKED: USER    Estimated Free Energy of Binding    =  -5.36 kcal/mol  [=(1)+(2)+(3)-(4)]
DOCKED: USER
DOCKED: USER    (1) Final Intermolecular Energy     =  -7.75 kcal/mol
DOCKED: USER        vdW + Hbond + desolv Energy     =  -8.10 kcal/mol
DOCKED: USER        Electrostatic Energy            =  +0.35 kcal/mol
DOCKED: USER        Moving Ligand-Fixed Receptor    =  -7.75 kcal/mol
DOCKED: USER        Moving Ligand-Moving Receptor   =  +0.00 kcal/mol
DOCKED: USER    (2) Final Total Internal Energy     =  -1.52 kcal/mol
DOCKED: USER    (3) Torsional Free Energy           =  +2.39 kcal/mol
DOCKED: USER    (4) Unbound System's Energy         =  -1.52 kcal/mol
DOCKED: USER
DOCKED: USER
DOCKED: REMARK SMILES CC(C)C[N-]/C(O)=C\[N-]C(=O)c1ccc2ccccc2n1
DOCKED: REMARK SMILES IDX 6 1 7 2 5 4 4 5 2 6 1 7 3 8 8 9 9 10 10 11 11 12 12 13 21 14
DOCKED: REMARK SMILES IDX 13 15 20 16 14 17 19 18 15 19 18 20 16 21 17 22
DOCKED: REMARK H PARENT 7 3
DOCKED: USER                              x       y       z     vdW  Elec       q    Type
DOCKED: USER                           _______ _______ _______ _____ _____    ______ ____
DOCKED: ROOT
DOCKED: ATOM      1  C   UNL     1     140.506  73.907 221.849 -0.22 +0.00    -0.012 C  
DOCKED: ENDROOT
DOCKED: BRANCH   1   2
DOCKED: ATOM      2  O   UNL     1     139.233  74.159 222.364 -0.54 +0.12    -0.533 OA 
DOCKED: ATOM      3  H   UNL     1     138.644  73.419 222.727 -0.47 -0.13    +0.290 HD 
DOCKED: ENDBRANCH   1   2
DOCKED: BRANCH   1   4
DOCKED: ATOM      4  N   UNL     1     141.454  74.976 221.770 -0.07 +0.13    -0.655 NA 
DOCKED: BRANCH   4   5
DOCKED: ATOM      5  C   UNL     1     141.082  76.320 221.343 -0.28 +0.04    -0.115 C  
DOCKED: BRANCH   5   6
DOCKED: ATOM      6  C   UNL     1     140.550  77.140 222.530 -0.37 +0.01    -0.035 C  
DOCKED: ATOM      7  C   UNL     1     139.060  77.471 222.365 -0.31 -0.00    +0.006 C  
DOCKED: ATOM      8  C   UNL     1     141.363  78.431 222.689 -0.50 -0.00    +0.006 C  
DOCKED: ENDBRANCH   5   6
DOCKED: ENDBRANCH   4   5
DOCKED: ENDBRANCH   1   4
DOCKED: BRANCH   1   9
DOCKED: ATOM      9  C   UNL     1     140.815  72.680 221.407 -0.23 +0.01    -0.114 C  
DOCKED: BRANCH   9  10
DOCKED: ATOM     10  N   UNL     1     139.876  71.595 221.384 +0.01 +0.10    -0.626 NA 
DOCKED: BRANCH  10  11
DOCKED: ATOM     11  C   UNL     1     138.892  71.300 222.387 -0.18 -0.02    +0.104 C  
DOCKED: ATOM     12  O   UNL     1     137.684  71.545 222.135 -0.06 +0.07    -0.313 OA 
DOCKED: BRANCH  11  13
DOCKED: ATOM     13  C   UNL     1     139.247  70.744 223.712 -0.29 -0.02    +0.089 A  
DOCKED: ATOM     14  N   UNL     1     139.978  71.507 224.570 -0.29 +0.05    -0.246 NA 
DOCKED: ATOM     15  C   UNL     1     138.878  69.443 224.092 -0.30 -0.00    +0.031 A  
DOCKED: ATOM     16  C   UNL     1     140.333  71.069 225.807 -0.52 -0.01    +0.071 A  
DOCKED: ATOM     17  C   UNL     1     139.225  68.966 225.358 -0.43 -0.00    +0.012 A  
DOCKED: ATOM     18  C   UNL     1     141.065  71.900 226.664 -0.72 -0.00    +0.029 A  
DOCKED: ATOM     19  C   UNL     1     139.952  69.779 226.233 -0.51 -0.00    +0.000 A  
DOCKED: ATOM     20  C   UNL     1     141.418  71.451 227.939 -0.66 -0.00    +0.002 A  
DOCKED: ATOM     21  C   UNL     1     140.313  69.333 227.514 -0.61 -0.00    +0.010 A  
DOCKED: ATOM     22  C   UNL     1     141.043  70.170 228.363 -0.54 -0.00    +0.001 A  
DOCKED: ENDBRANCH  11  13
DOCKED: ENDBRANCH  10  11
DOCKED: ENDBRANCH   9  10
DOCKED: ENDBRANCH   1   9
DOCKED: TORSDOF 8
DOCKED: TER
DOCKED: ENDMDL
________________________________________________________________________________


    FINAL DOCKED STATE:
    ________________________


Run:   17 / 20
Time taken for this run:   0.030s

DOCKED: MODEL        17
DOCKED: USER    Run = 17
DOCKED: USER
DOCKED: USER    Estimated Free Energy of Binding    =  -6.03 kcal/mol  [=(1)+(2)+(3)-(4)]
DOCKED: USER
DOCKED: USER    (1) Final Intermolecular Energy     =  -8.42 kcal/mol
DOCKED: USER        vdW + Hbond + desolv Energy     =  -8.69 kcal/mol
DOCKED: USER        Electrostatic Energy            =  +0.28 kcal/mol
DOCKED: USER        Moving Ligand-Fixed Receptor    =  -8.42 kcal/mol
DOCKED: USER        Moving Ligand-Moving Receptor   =  +0.00 kcal/mol
DOCKED: USER    (2) Final Total Internal Energy     =  -1.39 kcal/mol
DOCKED: USER    (3) Torsional Free Energy           =  +2.39 kcal/mol
DOCKED: USER    (4) Unbound System's Energy         =  -1.39 kcal/mol
DOCKED: USER
DOCKED: USER
DOCKED: REMARK SMILES CC(C)C[N-]/C(O)=C\[N-]C(=O)c1ccc2ccccc2n1
DOCKED: REMARK SMILES IDX 6 1 7 2 5 4 4 5 2 6 1 7 3 8 8 9 9 10 10 11 11 12 12 13 21 14
DOCKED: REMARK SMILES IDX 13 15 20 16 14 17 19 18 15 19 18 20 16 21 17 22
DOCKED: REMARK H PARENT 7 3
DOCKED: USER                              x       y       z     vdW  Elec       q    Type
DOCKED: USER                           _______ _______ _______ _____ _____    ______ ____
DOCKED: ROOT
DOCKED: ATOM      1  C   UNL     1     140.181  75.499 221.871 -0.32 +0.00    -0.012 C  
DOCKED: ENDROOT
DOCKED: BRANCH   1   2
DOCKED: ATOM      2  O   UNL     1     139.105  75.247 222.724 -0.32 +0.12    -0.533 OA 
DOCKED: ATOM      3  H   UNL     1     138.868  74.311 223.030 -0.50 -0.15    +0.290 HD 
DOCKED: ENDBRANCH   1   2
DOCKED: BRANCH   1   4
DOCKED: ATOM      4  N   UNL     1     140.370  76.818 221.350 +0.01 +0.21    -0.655 NA 
DOCKED: BRANCH   4   5
DOCKED: ATOM      5  C   UNL     1     140.251  78.009 222.183 -0.32 +0.03    -0.115 C  
DOCKED: BRANCH   5   6
DOCKED: ATOM      6  C   UNL     1     141.630  78.644 222.427 -0.46 +0.02    -0.035 C  
DOCKED: ATOM      7  C   UNL     1     141.830  79.008 223.904 -0.61 -0.00    +0.006 C  
DOCKED: ATOM      8  C   UNL     1     141.803  79.889 221.548 -0.44 -0.00    +0.006 C  
DOCKED: ENDBRANCH   5   6
DOCKED: ENDBRANCH   4   5
DOCKED: ENDBRANCH   1   4
DOCKED: BRANCH   1   9
DOCKED: ATOM      9  C   UNL     1     141.003  74.499 221.523 -0.25 +0.02    -0.114 C  
DOCKED: BRANCH   9  10
DOCKED: ATOM     10  N   UNL     1     141.055  73.247 222.223 -0.26 -0.01    -0.626 NA 
DOCKED: BRANCH  10  11
DOCKED: ATOM     11  C   UNL     1     139.938  72.407 222.548 -0.27 -0.02    +0.104 C  
DOCKED: ATOM     12  O   UNL     1     138.889  72.507 221.859 -0.12 +0.07    -0.313 OA 
DOCKED: BRANCH  11  13
DOCKED: ATOM     13  C   UNL     1     139.962  71.448 223.676 -0.35 -0.02    +0.089 A  
DOCKED: ATOM     14  N   UNL     1     140.467  71.855 224.873 -0.27 +0.04    -0.246 NA 
DOCKED: ATOM     15  C   UNL     1     139.510  70.126 223.533 -0.27 -0.01    +0.031 A  
DOCKED: ATOM     16  C   UNL     1     140.513  71.036 225.957 -0.54 -0.01    +0.071 A  
DOCKED: ATOM     17  C   UNL     1     139.543  69.261 224.630 -0.35 -0.00    +0.012 A  
DOCKED: ATOM     18  C   UNL     1     141.019  71.507 227.174 -0.74 -0.00    +0.029 A  
DOCKED: ATOM     19  C   UNL     1     140.039  69.710 225.858 -0.48 -0.00    +0.000 A  
DOCKED: ATOM     20  C   UNL     1     141.054  70.665 228.289 -0.60 -0.00    +0.002 A  
DOCKED: ATOM     21  C   UNL     1     140.081  68.869 226.980 -0.60 -0.00    +0.010 A  
DOCKED: ATOM     22  C   UNL     1     140.587  69.349 228.192 -0.63 -0.00    +0.001 A  
DOCKED: ENDBRANCH  11  13
DOCKED: ENDBRANCH  10  11
DOCKED: ENDBRANCH   9  10
DOCKED: ENDBRANCH   1   9
DOCKED: TORSDOF 8
DOCKED: TER
DOCKED: ENDMDL
________________________________________________________________________________


    FINAL DOCKED STATE:
    ________________________


Run:   18 / 20
Time taken for this run:   0.030s

DOCKED: MODEL        18
DOCKED: USER    Run = 18
DOCKED: USER
DOCKED: USER    Estimated Free Energy of Binding    =  -5.26 kcal/mol  [=(1)+(2)+(3)-(4)]
DOCKED: USER
DOCKED: USER    (1) Final Intermolecular Energy     =  -7.65 kcal/mol
DOCKED: USER        vdW + Hbond + desolv Energy     =  -7.91 kcal/mol
DOCKED: USER        Electrostatic Energy            =  +0.26 kcal/mol
DOCKED: USER        Moving Ligand-Fixed Receptor    =  -7.65 kcal/mol
DOCKED: USER        Moving Ligand-Moving Receptor   =  +0.00 kcal/mol
DOCKED: USER    (2) Final Total Internal Energy     =  -1.81 kcal/mol
DOCKED: USER    (3) Torsional Free Energy           =  +2.39 kcal/mol
DOCKED: USER    (4) Unbound System's Energy         =  -1.81 kcal/mol
DOCKED: USER
DOCKED: USER
DOCKED: REMARK SMILES CC(C)C[N-]/C(O)=C\[N-]C(=O)c1ccc2ccccc2n1
DOCKED: REMARK SMILES IDX 6 1 7 2 5 4 4 5 2 6 1 7 3 8 8 9 9 10 10 11 11 12 12 13 21 14
DOCKED: REMARK SMILES IDX 13 15 20 16 14 17 19 18 15 19 18 20 16 21 17 22
DOCKED: REMARK H PARENT 7 3
DOCKED: USER                              x       y       z     vdW  Elec       q    Type
DOCKED: USER                           _______ _______ _______ _____ _____    ______ ____
DOCKED: ROOT
DOCKED: ATOM      1  C   UNL     1     140.533  73.492 221.455 -0.28 +0.00    -0.012 C  
DOCKED: ENDROOT
DOCKED: BRANCH   1   2
DOCKED: ATOM      2  O   UNL     1     139.954  73.746 222.700 -0.61 -0.01    -0.533 OA 
DOCKED: ATOM      3  H   UNL     1     139.295  73.107 223.127 -0.38 -0.11    +0.290 HD 
DOCKED: ENDBRANCH   1   2
DOCKED: BRANCH   1   4
DOCKED: ATOM      4  N   UNL     1     141.549  74.370 220.962 -0.03 +0.14    -0.655 NA 
DOCKED: BRANCH   4   5
DOCKED: ATOM      5  C   UNL     1     142.597  73.918 220.054 -0.22 +0.03    -0.115 C  
DOCKED: BRANCH   5   6
DOCKED: ATOM      6  C   UNL     1     143.713  73.194 220.827 -0.29 +0.01    -0.035 C  
DOCKED: ATOM      7  C   UNL     1     145.092  73.791 220.518 -0.58 -0.00    +0.006 C  
DOCKED: ATOM      8  C   UNL     1     143.699  71.697 220.496 -0.30 -0.00    +0.006 C  
DOCKED: ENDBRANCH   5   6
DOCKED: ENDBRANCH   4   5
DOCKED: ENDBRANCH   1   4
DOCKED: BRANCH   1   9
DOCKED: ATOM      9  C   UNL     1     140.110  72.451 220.724 -0.13 +0.02    -0.114 C  
DOCKED: BRANCH   9  10
DOCKED: ATOM     10  N   UNL     1     139.455  71.308 221.292 +0.02 +0.11    -0.626 NA 
DOCKED: BRANCH  10  11
DOCKED: ATOM     11  C   UNL     1     138.652  71.292 222.482 -0.18 -0.02    +0.104 C  
DOCKED: ATOM     12  O   UNL     1     137.512  71.824 222.445 -0.08 +0.08    -0.313 OA 
DOCKED: BRANCH  11  13
DOCKED: ATOM     13  C   UNL     1     139.122  70.698 223.754 -0.29 -0.02    +0.089 A  
DOCKED: ATOM     14  N   UNL     1     139.724  71.503 224.672 -0.26 +0.06    -0.246 NA 
DOCKED: ATOM     15  C   UNL     1     138.992  69.325 224.022 -0.30 -0.00    +0.031 A  
DOCKED: ATOM     16  C   UNL     1     140.171  71.033 225.866 -0.50 -0.01    +0.071 A  
DOCKED: ATOM     17  C   UNL     1     139.441  68.812 225.242 -0.43 -0.00    +0.012 A  
DOCKED: ATOM     18  C   UNL     1     140.762  71.905 226.788 -0.69 -0.01    +0.029 A  
DOCKED: ATOM     19  C   UNL     1     140.030  69.665 226.181 -0.50 -0.00    +0.000 A  
DOCKED: ATOM     20  C   UNL     1     141.211  71.420 228.020 -0.74 -0.00    +0.002 A  
DOCKED: ATOM     21  C   UNL     1     140.486  69.184 227.418 -0.61 -0.00    +0.010 A  
DOCKED: ATOM     22  C   UNL     1     141.074  70.063 228.334 -0.56 -0.00    +0.001 A  
DOCKED: ENDBRANCH  11  13
DOCKED: ENDBRANCH  10  11
DOCKED: ENDBRANCH   9  10
DOCKED: ENDBRANCH   1   9
DOCKED: TORSDOF 8
DOCKED: TER
DOCKED: ENDMDL
________________________________________________________________________________


    FINAL DOCKED STATE:
    ________________________


Run:   19 / 20
Time taken for this run:   0.030s

DOCKED: MODEL        19
DOCKED: USER    Run = 19
DOCKED: USER
DOCKED: USER    Estimated Free Energy of Binding    =  -5.19 kcal/mol  [=(1)+(2)+(3)-(4)]
DOCKED: USER
DOCKED: USER    (1) Final Intermolecular Energy     =  -7.58 kcal/mol
DOCKED: USER        vdW + Hbond + desolv Energy     =  -7.86 kcal/mol
DOCKED: USER        Electrostatic Energy            =  +0.28 kcal/mol
DOCKED: USER        Moving Ligand-Fixed Receptor    =  -7.58 kcal/mol
DOCKED: USER        Moving Ligand-Moving Receptor   =  +0.00 kcal/mol
DOCKED: USER    (2) Final Total Internal Energy     =  -1.68 kcal/mol
DOCKED: USER    (3) Torsional Free Energy           =  +2.39 kcal/mol
DOCKED: USER    (4) Unbound System's Energy         =  -1.68 kcal/mol
DOCKED: USER
DOCKED: USER
DOCKED: REMARK SMILES CC(C)C[N-]/C(O)=C\[N-]C(=O)c1ccc2ccccc2n1
DOCKED: REMARK SMILES IDX 6 1 7 2 5 4 4 5 2 6 1 7 3 8 8 9 9 10 10 11 11 12 12 13 21 14
DOCKED: REMARK SMILES IDX 13 15 20 16 14 17 19 18 15 19 18 20 16 21 17 22
DOCKED: REMARK H PARENT 7 3
DOCKED: USER                              x       y       z     vdW  Elec       q    Type
DOCKED: USER                           _______ _______ _______ _____ _____    ______ ____
DOCKED: ROOT
DOCKED: ATOM      1  C   UNL     1     140.086  73.691 221.321 -0.25 +0.00    -0.012 C  
DOCKED: ENDROOT
DOCKED: BRANCH   1   2
DOCKED: ATOM      2  O   UNL     1     139.946  73.742 222.709 -0.61 -0.01    -0.533 OA 
DOCKED: ATOM      3  H   UNL     1     139.346  73.100 223.213 -0.36 -0.11    +0.290 HD 
DOCKED: ENDBRANCH   1   2
DOCKED: BRANCH   1   4
DOCKED: ATOM      4  N   UNL     1     140.290  74.905 220.591 +0.02 +0.15    -0.655 NA 
DOCKED: BRANCH   4   5
DOCKED: ATOM      5  C   UNL     1     141.105  75.998 221.108 -0.27 +0.04    -0.115 C  
DOCKED: BRANCH   5   6
DOCKED: ATOM      6  C   UNL     1     140.448  76.629 222.347 -0.38 +0.01    -0.035 C  
DOCKED: ATOM      7  C   UNL     1     138.934  76.798 222.158 -0.31 -0.00    +0.006 C  
DOCKED: ATOM      8  C   UNL     1     141.096  77.983 222.659 -0.48 -0.00    +0.006 C  
DOCKED: ENDBRANCH   5   6
DOCKED: ENDBRANCH   4   5
DOCKED: ENDBRANCH   1   4
DOCKED: BRANCH   1   9
DOCKED: ATOM      9  C   UNL     1     139.997  72.514 220.685 -0.12 +0.02    -0.114 C  
DOCKED: BRANCH   9  10
DOCKED: ATOM     10  N   UNL     1     139.470  71.329 221.300 +0.02 +0.11    -0.626 NA 
DOCKED: BRANCH  10  11
DOCKED: ATOM     11  C   UNL     1     138.662  71.272 222.485 -0.18 -0.02    +0.104 C  
DOCKED: ATOM     12  O   UNL     1     137.506  71.769 222.450 -0.08 +0.08    -0.313 OA 
DOCKED: BRANCH  11  13
DOCKED: ATOM     13  C   UNL     1     139.145  70.677 223.751 -0.29 -0.02    +0.089 A  
DOCKED: ATOM     14  N   UNL     1     139.730  71.485 224.677 -0.26 +0.06    -0.246 NA 
DOCKED: ATOM     15  C   UNL     1     139.045  69.299 224.007 -0.30 -0.00    +0.031 A  
DOCKED: ATOM     16  C   UNL     1     140.188  71.013 225.866 -0.50 -0.01    +0.071 A  
DOCKED: ATOM     17  C   UNL     1     139.504  68.784 225.221 -0.43 -0.00    +0.012 A  
DOCKED: ATOM     18  C   UNL     1     140.761  71.888 226.796 -0.69 -0.01    +0.029 A  
DOCKED: ATOM     19  C   UNL     1     140.076  69.640 226.169 -0.50 -0.00    +0.000 A  
DOCKED: ATOM     20  C   UNL     1     141.221  71.401 228.023 -0.73 -0.00    +0.002 A  
DOCKED: ATOM     21  C   UNL     1     140.542  69.157 227.401 -0.61 -0.00    +0.010 A  
DOCKED: ATOM     22  C   UNL     1     141.112  70.039 228.324 -0.55 -0.00    +0.001 A  
DOCKED: ENDBRANCH  11  13
DOCKED: ENDBRANCH  10  11
DOCKED: ENDBRANCH   9  10
DOCKED: ENDBRANCH   1   9
DOCKED: TORSDOF 8
DOCKED: TER
DOCKED: ENDMDL
________________________________________________________________________________


    FINAL DOCKED STATE:
    ________________________


Run:   20 / 20
Time taken for this run:   0.030s

DOCKED: MODEL        20
DOCKED: USER    Run = 20
DOCKED: USER
DOCKED: USER    Estimated Free Energy of Binding    =  -5.29 kcal/mol  [=(1)+(2)+(3)-(4)]
DOCKED: USER
DOCKED: USER    (1) Final Intermolecular Energy     =  -7.67 kcal/mol
DOCKED: USER        vdW + Hbond + desolv Energy     =  -7.98 kcal/mol
DOCKED: USER        Electrostatic Energy            =  +0.30 kcal/mol
DOCKED: USER        Moving Ligand-Fixed Receptor    =  -7.67 kcal/mol
DOCKED: USER        Moving Ligand-Moving Receptor   =  +0.00 kcal/mol
DOCKED: USER    (2) Final Total Internal Energy     =  -1.75 kcal/mol
DOCKED: USER    (3) Torsional Free Energy           =  +2.39 kcal/mol
DOCKED: USER    (4) Unbound System's Energy         =  -1.75 kcal/mol
DOCKED: USER
DOCKED: USER
DOCKED: REMARK SMILES CC(C)C[N-]/C(O)=C\[N-]C(=O)c1ccc2ccccc2n1
DOCKED: REMARK SMILES IDX 6 1 7 2 5 4 4 5 2 6 1 7 3 8 8 9 9 10 10 11 11 12 12 13 21 14
DOCKED: REMARK SMILES IDX 13 15 20 16 14 17 19 18 15 19 18 20 16 21 17 22
DOCKED: REMARK H PARENT 7 3
DOCKED: USER                              x       y       z     vdW  Elec       q    Type
DOCKED: USER                           _______ _______ _______ _____ _____    ______ ____
DOCKED: ROOT
DOCKED: ATOM      1  C   UNL     1     140.647  73.545 221.782 -0.27 +0.00    -0.012 C  
DOCKED: ENDROOT
DOCKED: BRANCH   1   2
DOCKED: ATOM      2  O   UNL     1     139.612  73.743 222.698 -0.52 +0.08    -0.533 OA 
DOCKED: ATOM      3  H   UNL     1     139.107  72.969 223.114 -0.37 -0.12    +0.290 HD 
DOCKED: ENDBRANCH   1   2
DOCKED: BRANCH   1   4
DOCKED: ATOM      4  N   UNL     1     141.532  74.628 221.480 -0.06 +0.13    -0.655 NA 
DOCKED: BRANCH   4   5
DOCKED: ATOM      5  C   UNL     1     141.046  75.954 221.114 -0.28 +0.04    -0.115 C  
DOCKED: BRANCH   5   6
DOCKED: ATOM      6  C   UNL     1     140.493  76.690 222.346 -0.39 +0.01    -0.035 C  
DOCKED: ATOM      7  C   UNL     1     138.961  76.770 222.314 -0.32 -0.00    +0.006 C  
DOCKED: ATOM      8  C   UNL     1     141.094  78.099 222.435 -0.47 -0.00    +0.006 C  
DOCKED: ENDBRANCH   5   6
DOCKED: ENDBRANCH   4   5
DOCKED: ENDBRANCH   1   4
DOCKED: BRANCH   1   9
DOCKED: ATOM      9  C   UNL     1     140.781  72.358 221.174 -0.19 +0.02    -0.114 C  
DOCKED: BRANCH   9  10
DOCKED: ATOM     10  N   UNL     1     139.798  71.316 221.263 +0.02 +0.10    -0.626 NA 
DOCKED: BRANCH  10  11
DOCKED: ATOM     11  C   UNL     1     138.872  71.110 222.340 -0.17 -0.02    +0.104 C  
DOCKED: ATOM     12  O   UNL     1     137.665  71.423 222.163 -0.06 +0.07    -0.313 OA 
DOCKED: BRANCH  11  13
DOCKED: ATOM     13  C   UNL     1     139.284  70.570 223.655 -0.28 -0.02    +0.089 A  
DOCKED: ATOM     14  N   UNL     1     139.850  71.412 224.562 -0.27 +0.05    -0.246 NA 
DOCKED: ATOM     15  C   UNL     1     139.136  69.210 223.976 -0.29 -0.01    +0.031 A  
DOCKED: ATOM     16  C   UNL     1     140.245  70.992 225.794 -0.51 -0.01    +0.071 A  
DOCKED: ATOM     17  C   UNL     1     139.529  68.749 225.234 -0.43 -0.00    +0.012 A  
DOCKED: ATOM     18  C   UNL     1     140.800  71.900 226.702 -0.68 -0.01    +0.029 A  
DOCKED: ATOM     19  C   UNL     1     140.083  69.639 226.161 -0.50 -0.00    +0.000 A  
DOCKED: ATOM     20  C   UNL     1     141.194  71.467 227.971 -0.76 -0.00    +0.002 A  
DOCKED: ATOM     21  C   UNL     1     140.483  69.210 227.435 -0.61 -0.00    +0.010 A  
DOCKED: ATOM     22  C   UNL     1     141.036  70.125 228.337 -0.56 -0.00    +0.001 A  
DOCKED: ENDBRANCH  11  13
DOCKED: ENDBRANCH  10  11
DOCKED: ENDBRANCH   9  10
DOCKED: ENDBRANCH   1   9
DOCKED: TORSDOF 8
DOCKED: TER
DOCKED: ENDMDL
________________________________________________________________________________


    CLUSTERING HISTOGRAM
    ____________________


________________________________________________________________________________
     |           |     |           |     |
Clus | Lowest    | Run | Mean      | Num | Histogram
-ter | Binding   |     | Binding   | in  |
Rank | Energy    |     | Energy    | Clus|    5    10   15   20   25   30   35
_____|___________|_____|___________|_____|____:____|____:____|____:____|____:___
   1 |     -6.10 |   8 |     -5.56 |  14 |##############
   2 |     -5.55 |   1 |     -5.30 |   5 |#####
   3 |     -4.52 |  13 |     -4.52 |   1 |#
_____|___________|_____|___________|_____|______________________________________


    RMSD TABLE
    __________


_______________________________________________________________________
     |      |      |           |         |                 |
Rank | Sub- | Run  | Binding   | Cluster | Reference       | Grep
     | Rank |      | Energy    | RMSD    | RMSD            | Pattern
_____|______|______|___________|_________|_________________|___________
   1      1      8       -6.10      0.00    273.48           RANKING
   1      2     17       -6.03      0.31    273.51           RANKING
   1      3     14       -5.96      0.58    273.54           RANKING
   1      4     11       -5.96      0.58    273.43           RANKING
   1      5      7       -5.95      0.63    273.47           RANKING
   1      6      6       -5.87      0.77    273.43           RANKING
   1      7      5       -5.58      1.97    272.90           RANKING
   1      8     16       -5.36      1.08    273.10           RANKING
   1      9      4       -5.33      1.23    273.02           RANKING
   1     10     20       -5.29      1.23    273.00           RANKING
   1     11     18       -5.26      1.87    272.86           RANKING
   1     12     10       -5.23      1.22    272.98           RANKING
   1     13     19       -5.19      1.28    272.92           RANKING
   1     14      2       -4.77      1.29    273.45           RANKING
   2      1      1       -5.55      0.00    272.99           RANKING
   2      2     12       -5.46      1.81    272.76           RANKING
   2      3      3       -5.29      1.86    272.93           RANKING
   2      4      9       -5.22      1.86    272.86           RANKING
   2      5     15       -4.98      1.90    272.83           RANKING
   3      1     13       -4.52      0.00    272.26           RANKING

Run time 0.575 sec
Idle time 0.000 sec
