AutoDock-GPU version: v1.6

**********************************************************
**    AutoDock-GPU AUTODOCKTOOLS-COMPATIBLE DLG FILE    **
**********************************************************


    DOCKING PARAMETERS
    ________________________


Ligand file:                               /home/a/REINVENT4/ReinventStudies/pleaseWork/justmol2mol_4_Compounds_ontop/graph-dock-8u2o5u/graph-DockGPU/node-autodockgpu/inputs/NAQSRPMEZGOCKZ-WKWOZFNGNA-M.pdbqt
Grid fld file:                             /home/a/REINVENT4/ReinventStudies/mols/Rad51/maps/rad51_receptor.maps.fld

Random seed:                               42
Number of runs:                            20
Number of energy evaluations:              1259779
Number of generations:                     42000
Size of population:                        150
Rate of crossover:                         80.000000%
Tournament selection probability limit:    60.000000%
Rate of mutation:                          2.000000%
Maximal allowed delta movement:            +/- 6.000000A
Maximal allowed delta angle:               +/- 90.000000

Rate of local search:                      100.000000%
Maximal number of local search iterations: 300
Rho lower bound:                           0.010000
Spread of local search delta movement:     2.000000A
Spread of local search delta angle:        74.999999
Limit of consecutive successes/failures:   4

Handle symmetry during clustering:         YES
RMSD tolerance:                            2.000000A

Program call in command line was:          /home/a/REINVENT4/ReinventStudies/adgpu-v1.6_linux_x64_cuda12_128wi --filelist batch.txt --heuristics 1 --nrun 20 --psize 150 --lsit 300 --seed 42 --heurmax 12000000 


    GRID PARAMETERS
    ________________________


Receptor name:                             rad51_receptor
Number of grid points (x, y, z):           53, 53, 53
Grid center (x, y, z):                     139.950000, 75.640000, 221.970000A
Grid size (x, y, z):                       19.500000, 19.500000, 19.500000A
Grid spacing:                              0.375000A


    LIGAND PARAMETERS
    ________________________


Ligand name:                               /home/a/REINVENT4/ReinventStudies/pleaseWork/justmol2mol_4_Compounds_ontop/graph-dock-8u2o5u/graph-DockGPU/node-autodockgpu/inputs/NAQSRPMEZGOCKZ-WKWOZFNGNA-M
Number of atoms:                           30
Number of rotatable bonds:                 7
Number of atom types:                      7


    DUMMY DATA (only for ADT-compatibility)
    ________________________


DPF> outlev 1
DPF> ga_run 20
DPF> fld /home/a/REINVENT4/ReinventStudies/mols/Rad51/maps/rad51_receptor.maps.fld
DPF> move /home/a/REINVENT4/ReinventStudies/pleaseWork/justmol2mol_4_Compounds_ontop/graph-dock-8u2o5u/graph-DockGPU/node-autodockgpu/inputs/NAQSRPMEZGOCKZ-WKWOZFNGNA-M.pdbqt


    COUNTER STATES
    ________________________


Number of energy evaluations performed:    1267491
Number of generations used:                67


    INPUT LIGAND PDBQT FILE:
    ________________________


INPUT-LIGAND-PDBQT: REMARK SMILES O=C([N-]/C=C(\O)N1CCCC[C@@H]1C1CCCCC1)c1ccc2cc(F)ccc2n1
INPUT-LIGAND-PDBQT: REMARK SMILES IDX 4 1 5 2 6 3 7 5 8 6 12 7 9 8 11 9 10 10 13 11 14 12 18 13
INPUT-LIGAND-PDBQT: REMARK SMILES IDX 15 14 17 15 16 16 3 17 2 18 1 19 19 20 29 21 20 22 28 23
INPUT-LIGAND-PDBQT: REMARK SMILES IDX 21 24 27 25 22 26 26 27 23 28 24 29 25 30
INPUT-LIGAND-PDBQT: REMARK H PARENT 6 4
INPUT-LIGAND-PDBQT: ROOT
INPUT-LIGAND-PDBQT: ATOM      1  C   UNL     1       1.736   0.964   0.935  1.00  0.00    -0.069 C 
INPUT-LIGAND-PDBQT: ENDROOT
INPUT-LIGAND-PDBQT: BRANCH   1   2
INPUT-LIGAND-PDBQT: ATOM      2  C   UNL     1       2.294   0.709  -0.251  1.00  0.00     0.164 C 
INPUT-LIGAND-PDBQT: BRANCH   2   3
INPUT-LIGAND-PDBQT: ATOM      3  O   UNL     1       3.517   0.035  -0.354  1.00  0.00    -0.496 OA
INPUT-LIGAND-PDBQT: ATOM      4  H   UNL     1       4.032  -0.286   0.457  1.00  0.00     0.295 HD
INPUT-LIGAND-PDBQT: ENDBRANCH   2   3
INPUT-LIGAND-PDBQT: BRANCH   2   5
INPUT-LIGAND-PDBQT: ATOM      5  N   UNL     1       1.633   1.135  -1.452  1.00  0.00    -0.342 N 
INPUT-LIGAND-PDBQT: ATOM      6  C   UNL     1       1.884   2.491  -1.943  1.00  0.00     0.120 C 
INPUT-LIGAND-PDBQT: ATOM      7  C   UNL     1       1.128   0.124  -2.402  1.00  0.00     0.088 C 
INPUT-LIGAND-PDBQT: ATOM      8  C   UNL     1       2.948   2.467  -3.055  1.00  0.00     0.022 C 
INPUT-LIGAND-PDBQT: ATOM      9  C   UNL     1       1.788   0.329  -3.797  1.00  0.00     0.025 C 
INPUT-LIGAND-PDBQT: ATOM     10  C   UNL     1       3.122   1.077  -3.696  1.00  0.00     0.004 C 
INPUT-LIGAND-PDBQT: BRANCH   7  11
INPUT-LIGAND-PDBQT: ATOM     11  C   UNL     1      -0.429   0.179  -2.499  1.00  0.00     0.012 C 
INPUT-LIGAND-PDBQT: ATOM     12  C   UNL     1      -0.995  -1.012  -3.335  1.00  0.00     0.006 C 
INPUT-LIGAND-PDBQT: ATOM     13  C   UNL     1      -1.088   0.277  -1.102  1.00  0.00     0.006 C 
INPUT-LIGAND-PDBQT: ATOM     14  C   UNL     1      -1.837  -1.989  -2.506  1.00  0.00     0.000 C 
INPUT-LIGAND-PDBQT: ATOM     15  C   UNL     1      -2.606   0.073  -1.176  1.00  0.00     0.000 C 
INPUT-LIGAND-PDBQT: ATOM     16  C   UNL     1      -3.007  -1.268  -1.823  1.00  0.00     0.000 C 
INPUT-LIGAND-PDBQT: ENDBRANCH   7  11
INPUT-LIGAND-PDBQT: ENDBRANCH   2   5
INPUT-LIGAND-PDBQT: ENDBRANCH   1   2
INPUT-LIGAND-PDBQT: BRANCH   1  17
INPUT-LIGAND-PDBQT: ATOM     17  N   UNL     1       2.397   0.619   2.155  1.00  0.00    -0.623 NA
INPUT-LIGAND-PDBQT: BRANCH  17  18
INPUT-LIGAND-PDBQT: ATOM     18  C   UNL     1       1.726   0.576   3.416  1.00  0.00     0.104 C 
INPUT-LIGAND-PDBQT: ATOM     19  O   UNL     1       2.370   0.867   4.456  1.00  0.00    -0.313 OA
INPUT-LIGAND-PDBQT: BRANCH  18  20
INPUT-LIGAND-PDBQT: ATOM     20  C   UNL     1       0.330   0.111   3.526  1.00  0.00     0.089 A 
INPUT-LIGAND-PDBQT: ATOM     21  N   UNL     1      -0.164  -0.754   2.598  1.00  0.00    -0.246 NA
INPUT-LIGAND-PDBQT: ATOM     22  C   UNL     1      -0.472   0.492   4.614  1.00  0.00     0.031 A 
INPUT-LIGAND-PDBQT: ATOM     23  C   UNL     1      -1.420  -1.271   2.688  1.00  0.00     0.071 A 
INPUT-LIGAND-PDBQT: ATOM     24  C   UNL     1      -1.768  -0.017   4.730  1.00  0.00     0.013 A 
INPUT-LIGAND-PDBQT: ATOM     25  C   UNL     1      -1.886  -2.169   1.720  1.00  0.00     0.032 A 
INPUT-LIGAND-PDBQT: ATOM     26  C   UNL     1      -2.253  -0.911   3.770  1.00  0.00     0.003 A 
INPUT-LIGAND-PDBQT: ATOM     27  C   UNL     1      -3.177  -2.697   1.822  1.00  0.00     0.041 A 
INPUT-LIGAND-PDBQT: ATOM     28  C   UNL     1      -3.548  -1.446   3.863  1.00  0.00     0.049 A 
INPUT-LIGAND-PDBQT: ATOM     29  C   UNL     1      -4.008  -2.334   2.888  1.00  0.00     0.123 A 
INPUT-LIGAND-PDBQT: ATOM     30  F   UNL     1      -5.258  -2.848   2.981  1.00  0.00    -0.207 F 
INPUT-LIGAND-PDBQT: ENDBRANCH  18  20
INPUT-LIGAND-PDBQT: ENDBRANCH  17  18
INPUT-LIGAND-PDBQT: ENDBRANCH   1  17
INPUT-LIGAND-PDBQT: TORSDOF 7


    FINAL DOCKED STATE:
    ________________________


Run:   1 / 20
Time taken for this run:   0.051s

DOCKED: MODEL        1
DOCKED: USER    Run = 1
DOCKED: USER
DOCKED: USER    Estimated Free Energy of Binding    =  -7.43 kcal/mol  [=(1)+(2)+(3)-(4)]
DOCKED: USER
DOCKED: USER    (1) Final Intermolecular Energy     =  -9.52 kcal/mol
DOCKED: USER        vdW + Hbond + desolv Energy     =  -9.66 kcal/mol
DOCKED: USER        Electrostatic Energy            =  +0.15 kcal/mol
DOCKED: USER        Moving Ligand-Fixed Receptor    =  -9.52 kcal/mol
DOCKED: USER        Moving Ligand-Moving Receptor   =  +0.00 kcal/mol
DOCKED: USER    (2) Final Total Internal Energy     =  -2.24 kcal/mol
DOCKED: USER    (3) Torsional Free Energy           =  +2.09 kcal/mol
DOCKED: USER    (4) Unbound System's Energy         =  -2.24 kcal/mol
DOCKED: USER
DOCKED: USER
DOCKED: REMARK SMILES O=C([N-]/C=C(\O)N1CCCC[C@@H]1C1CCCCC1)c1ccc2cc(F)ccc2n1
DOCKED: REMARK SMILES IDX 4 1 5 2 6 3 7 5 8 6 12 7 9 8 11 9 10 10 13 11 14 12 18 13
DOCKED: REMARK SMILES IDX 15 14 17 15 16 16 3 17 2 18 1 19 19 20 29 21 20 22 28 23
DOCKED: REMARK SMILES IDX 21 24 27 25 22 26 26 27 23 28 24 29 25 30
DOCKED: REMARK H PARENT 6 4
DOCKED: USER                              x       y       z     vdW  Elec       q    Type
DOCKED: USER                           _______ _______ _______ _____ _____    ______ ____
DOCKED: ROOT
DOCKED: ATOM      1  C   UNL     1     140.849  72.146 221.266 -0.21 +0.01    -0.069 C  
DOCKED: ENDROOT
DOCKED: BRANCH   1   2
DOCKED: ATOM      2  C   UNL     1     140.648  73.462 221.172 -0.20 -0.02    +0.164 C  
DOCKED: BRANCH   2   3
DOCKED: ATOM      3  O   UNL     1     139.801  74.138 222.059 -0.69 +0.06    -0.496 OA 
DOCKED: ATOM      4  H   UNL     1     139.208  73.653 222.722 -0.41 -0.09    +0.295 HD 
DOCKED: ENDBRANCH   2   3
DOCKED: BRANCH   2   5
DOCKED: ATOM      5  N   UNL     1     141.309  74.209 220.139 -0.06 +0.08    -0.342 N  
DOCKED: ATOM      6  C   UNL     1     140.541  74.586 218.951 -0.04 -0.03    +0.120 C  
DOCKED: ATOM      7  C   UNL     1     142.529  74.974 220.462 -0.27 -0.04    +0.088 C  
DOCKED: ATOM      8  C   UNL     1     140.042  76.037 219.078 -0.07 -0.01    +0.022 C  
DOCKED: ATOM      9  C   UNL     1     142.315  76.480 220.129 -0.27 -0.02    +0.025 C  
DOCKED: ATOM     10  C   UNL     1     140.830  76.859 220.116 -0.20 -0.00    +0.004 C  
DOCKED: BRANCH   7  11
DOCKED: ATOM     11  C   UNL     1     143.766  74.397 219.705 -0.36 -0.00    +0.012 C  
DOCKED: ATOM     12  C   UNL     1     145.062  74.488 220.569 -0.41 -0.00    +0.006 C  
DOCKED: ATOM     13  C   UNL     1     143.506  72.961 219.191 -0.20 -0.00    +0.006 C  
DOCKED: ATOM     14  C   UNL     1     145.621  73.118 220.971 -0.64 -0.00    +0.000 C  
DOCKED: ATOM     15  C   UNL     1     144.791  72.301 218.679 -0.24 +0.00    +0.000 C  
DOCKED: ATOM     16  C   UNL     1     145.914  72.257 219.735 -0.38 +0.00    +0.000 C  
DOCKED: ENDBRANCH   7  11
DOCKED: ENDBRANCH   2   5
DOCKED: ENDBRANCH   1   2
DOCKED: BRANCH   1  17
DOCKED: ATOM     17  N   UNL     1     139.786  71.256 221.616 +0.01 +0.10    -0.623 NA 
DOCKED: BRANCH  17  18
DOCKED: ATOM     18  C   UNL     1     139.091  71.330 222.863 -0.24 -0.02    +0.104 C  
DOCKED: ATOM     19  O   UNL     1     138.240  72.240 223.030 -0.08 +0.12    -0.313 OA 
DOCKED: BRANCH  18  20
DOCKED: ATOM     20  C   UNL     1     139.419  70.421 223.978 -0.30 -0.02    +0.089 A  
DOCKED: ATOM     21  N   UNL     1     140.075  70.906 225.068 -0.29 +0.04    -0.246 NA 
DOCKED: ATOM     22  C   UNL     1     139.000  69.080 223.961 -0.29 -0.00    +0.031 A  
DOCKED: ATOM     23  C   UNL     1     140.341  70.131 226.155 -0.48 -0.01    +0.071 A  
DOCKED: ATOM     24  C   UNL     1     139.265  68.259 225.060 -0.43 -0.00    +0.013 A  
DOCKED: ATOM     25  C   UNL     1     141.006  70.672 227.262 -0.62 -0.01    +0.032 A  
DOCKED: ATOM     26  C   UNL     1     139.933  68.779 226.173 -0.54 -0.00    +0.003 A  
DOCKED: ATOM     27  C   UNL     1     141.273  69.869 228.376 -0.43 -0.01    +0.041 A  
DOCKED: ATOM     28  C   UNL     1     140.206  67.982 227.296 -0.60 -0.01    +0.049 A  
DOCKED: ATOM     29  C   UNL     1     140.878  68.526 228.392 -0.55 -0.03    +0.123 A  
DOCKED: ATOM     30  F   UNL     1     141.140  67.754 229.474 -0.16 +0.06    -0.207 F  
DOCKED: ENDBRANCH  18  20
DOCKED: ENDBRANCH  17  18
DOCKED: ENDBRANCH   1  17
DOCKED: TORSDOF 7
DOCKED: TER
DOCKED: ENDMDL
________________________________________________________________________________


    FINAL DOCKED STATE:
    ________________________


Run:   2 / 20
Time taken for this run:   0.051s

DOCKED: MODEL        2
DOCKED: USER    Run = 2
DOCKED: USER
DOCKED: USER    Estimated Free Energy of Binding    =  -7.91 kcal/mol  [=(1)+(2)+(3)-(4)]
DOCKED: USER
DOCKED: USER    (1) Final Intermolecular Energy     = -10.00 kcal/mol
DOCKED: USER        vdW + Hbond + desolv Energy     = -10.13 kcal/mol
DOCKED: USER        Electrostatic Energy            =  +0.13 kcal/mol
DOCKED: USER        Moving Ligand-Fixed Receptor    = -10.00 kcal/mol
DOCKED: USER        Moving Ligand-Moving Receptor   =  +0.00 kcal/mol
DOCKED: USER    (2) Final Total Internal Energy     =  -2.23 kcal/mol
DOCKED: USER    (3) Torsional Free Energy           =  +2.09 kcal/mol
DOCKED: USER    (4) Unbound System's Energy         =  -2.23 kcal/mol
DOCKED: USER
DOCKED: USER
DOCKED: REMARK SMILES O=C([N-]/C=C(\O)N1CCCC[C@@H]1C1CCCCC1)c1ccc2cc(F)ccc2n1
DOCKED: REMARK SMILES IDX 4 1 5 2 6 3 7 5 8 6 12 7 9 8 11 9 10 10 13 11 14 12 18 13
DOCKED: REMARK SMILES IDX 15 14 17 15 16 16 3 17 2 18 1 19 19 20 29 21 20 22 28 23
DOCKED: REMARK SMILES IDX 21 24 27 25 22 26 26 27 23 28 24 29 25 30
DOCKED: REMARK H PARENT 6 4
DOCKED: USER                              x       y       z     vdW  Elec       q    Type
DOCKED: USER                           _______ _______ _______ _____ _____    ______ ____
DOCKED: ROOT
DOCKED: ATOM      1  C   UNL     1     140.595  75.207 221.919 -0.22 +0.01    -0.069 C  
DOCKED: ENDROOT
DOCKED: BRANCH   1   2
DOCKED: ATOM      2  C   UNL     1     141.150  75.379 220.716 -0.22 -0.05    +0.164 C  
DOCKED: BRANCH   2   3
DOCKED: ATOM      3  O   UNL     1     140.943  74.462 219.678 +0.00 +0.13    -0.496 OA 
DOCKED: ATOM      4  H   UNL     1     140.509  73.560 219.827 +0.06 -0.06    +0.295 HD 
DOCKED: ENDBRANCH   2   3
DOCKED: BRANCH   2   5
DOCKED: ATOM      5  N   UNL     1     141.981  76.525 220.476 -0.12 +0.20    -0.342 N  
DOCKED: ATOM      6  C   UNL     1     143.206  76.346 219.694 -0.32 -0.08    +0.120 C  
DOCKED: ATOM      7  C   UNL     1     141.401  77.878 220.577 -0.27 -0.05    +0.088 C  
DOCKED: ATOM      8  C   UNL     1     142.967  76.755 218.229 -0.30 -0.01    +0.022 C  
DOCKED: ATOM      9  C   UNL     1     141.568  78.631 219.224 -0.24 -0.01    +0.025 C  
DOCKED: ATOM     10  C   UNL     1     141.737  77.664 218.047 -0.20 -0.00    +0.004 C  
DOCKED: BRANCH   7  11
DOCKED: ATOM     11  C   UNL     1     142.048  78.676 221.752 -0.31 -0.01    +0.012 C  
DOCKED: ATOM     12  C   UNL     1     142.154  80.199 221.423 -0.41 -0.00    +0.006 C  
DOCKED: ATOM     13  C   UNL     1     141.317  78.418 223.092 -0.54 -0.00    +0.006 C  
DOCKED: ATOM     14  C   UNL     1     141.269  81.075 222.317 -0.46 -0.00    +0.000 C  
DOCKED: ATOM     15  C   UNL     1     141.782  79.386 224.186 -0.50 -0.00    +0.000 C  
DOCKED: ATOM     16  C   UNL     1     141.604  80.868 223.800 -0.57 -0.00    +0.000 C  
DOCKED: ENDBRANCH   7  11
DOCKED: ENDBRANCH   2   5
DOCKED: ENDBRANCH   1   2
DOCKED: BRANCH   1  17
DOCKED: ATOM     17  N   UNL     1     139.848  74.028 222.229 -0.60 +0.05    -0.623 NA 
DOCKED: BRANCH  17  18
DOCKED: ATOM     18  C   UNL     1     140.413  72.716 222.179 -0.27 -0.01    +0.104 C  
DOCKED: ATOM     19  O   UNL     1     140.978  72.339 221.121 -0.13 +0.04    -0.313 OA 
DOCKED: BRANCH  18  20
DOCKED: ATOM     20  C   UNL     1     140.265  71.774 223.305 -0.33 -0.01    +0.089 A  
DOCKED: ATOM     21  N   UNL     1     140.714  72.129 224.540 -0.04 +0.03    -0.246 NA 
DOCKED: ATOM     22  C   UNL     1     139.602  70.548 223.134 -0.26 -0.01    +0.031 A  
DOCKED: ATOM     23  C   UNL     1     140.541  71.331 225.629 -0.53 -0.01    +0.071 A  
DOCKED: ATOM     24  C   UNL     1     139.415  69.704 224.232 -0.32 -0.00    +0.013 A  
DOCKED: ATOM     25  C   UNL     1     141.006  71.738 226.885 -0.73 -0.01    +0.032 A  
DOCKED: ATOM     26  C   UNL     1     139.877  70.091 225.494 -0.46 -0.00    +0.003 A  
DOCKED: ATOM     27  C   UNL     1     140.821  70.912 227.999 -0.68 -0.01    +0.041 A  
DOCKED: ATOM     28  C   UNL     1     139.698  69.269 226.618 -0.49 -0.01    +0.049 A  
DOCKED: ATOM     29  C   UNL     1     140.173  69.679 227.866 -0.52 -0.02    +0.123 A  
DOCKED: ATOM     30  F   UNL     1     139.998  68.883 228.948 -0.15 +0.03    -0.207 F  
DOCKED: ENDBRANCH  18  20
DOCKED: ENDBRANCH  17  18
DOCKED: ENDBRANCH   1  17
DOCKED: TORSDOF 7
DOCKED: TER
DOCKED: ENDMDL
________________________________________________________________________________


    FINAL DOCKED STATE:
    ________________________


Run:   3 / 20
Time taken for this run:   0.051s

DOCKED: MODEL        3
DOCKED: USER    Run = 3
DOCKED: USER
DOCKED: USER    Estimated Free Energy of Binding    =  -7.71 kcal/mol  [=(1)+(2)+(3)-(4)]
DOCKED: USER
DOCKED: USER    (1) Final Intermolecular Energy     =  -9.80 kcal/mol
DOCKED: USER        vdW + Hbond + desolv Energy     =  -9.93 kcal/mol
DOCKED: USER        Electrostatic Energy            =  +0.13 kcal/mol
DOCKED: USER        Moving Ligand-Fixed Receptor    =  -9.80 kcal/mol
DOCKED: USER        Moving Ligand-Moving Receptor   =  +0.00 kcal/mol
DOCKED: USER    (2) Final Total Internal Energy     =  -2.25 kcal/mol
DOCKED: USER    (3) Torsional Free Energy           =  +2.09 kcal/mol
DOCKED: USER    (4) Unbound System's Energy         =  -2.25 kcal/mol
DOCKED: USER
DOCKED: USER
DOCKED: REMARK SMILES O=C([N-]/C=C(\O)N1CCCC[C@@H]1C1CCCCC1)c1ccc2cc(F)ccc2n1
DOCKED: REMARK SMILES IDX 4 1 5 2 6 3 7 5 8 6 12 7 9 8 11 9 10 10 13 11 14 12 18 13
DOCKED: REMARK SMILES IDX 15 14 17 15 16 16 3 17 2 18 1 19 19 20 29 21 20 22 28 23
DOCKED: REMARK SMILES IDX 21 24 27 25 22 26 26 27 23 28 24 29 25 30
DOCKED: REMARK H PARENT 6 4
DOCKED: USER                              x       y       z     vdW  Elec       q    Type
DOCKED: USER                           _______ _______ _______ _____ _____    ______ ____
DOCKED: ROOT
DOCKED: ATOM      1  C   UNL     1     140.134  74.870 221.304 -0.26 +0.01    -0.069 C  
DOCKED: ENDROOT
DOCKED: BRANCH   1   2
DOCKED: ATOM      2  C   UNL     1     141.358  75.161 220.858 -0.24 -0.05    +0.164 C  
DOCKED: BRANCH   2   3
DOCKED: ATOM      3  O   UNL     1     142.368  74.193 220.808 -0.11 +0.13    -0.496 OA 
DOCKED: ATOM      4  H   UNL     1     142.216  73.232 221.090 +0.12 -0.04    +0.295 HD 
DOCKED: ENDBRANCH   2   3
DOCKED: BRANCH   2   5
DOCKED: ATOM      5  N   UNL     1     141.654  76.496 220.420 -0.12 +0.17    -0.342 N  
DOCKED: ATOM      6  C   UNL     1     142.945  76.750 219.779 -0.26 -0.09    +0.120 C  
DOCKED: ATOM      7  C   UNL     1     140.548  77.444 220.177 -0.16 -0.03    +0.088 C  
DOCKED: ATOM      8  C   UNL     1     142.789  76.749 218.247 -0.29 -0.01    +0.022 C  
DOCKED: ATOM      9  C   UNL     1     140.591  77.945 218.703 -0.10 -0.01    +0.025 C  
DOCKED: ATOM     10  C   UNL     1     141.335  76.967 217.787 -0.11 -0.00    +0.004 C  
DOCKED: BRANCH   7  11
DOCKED: ATOM     11  C   UNL     1     140.604  78.636 221.182 -0.27 -0.00    +0.012 C  
DOCKED: ATOM     12  C   UNL     1     140.537  78.144 222.662 -0.44 -0.00    +0.006 C  
DOCKED: ATOM     13  C   UNL     1     141.829  79.547 220.924 -0.35 -0.00    +0.006 C  
DOCKED: ATOM     14  C   UNL     1     141.827  78.407 223.448 -0.52 -0.00    +0.000 C  
DOCKED: ATOM     15  C   UNL     1     142.031  80.560 222.057 -0.51 -0.00    +0.000 C  
DOCKED: ATOM     16  C   UNL     1     142.183  79.900 223.442 -0.66 -0.00    +0.000 C  
DOCKED: ENDBRANCH   7  11
DOCKED: ENDBRANCH   2   5
DOCKED: ENDBRANCH   1   2
DOCKED: BRANCH   1  17
DOCKED: ATOM     17  N   UNL     1     139.932  73.895 222.330 -0.62 +0.04    -0.623 NA 
DOCKED: BRANCH  17  18
DOCKED: ATOM     18  C   UNL     1     140.297  72.521 222.179 -0.27 -0.01    +0.104 C  
DOCKED: ATOM     19  O   UNL     1     140.621  72.102 221.039 -0.10 +0.05    -0.313 OA 
DOCKED: BRANCH  18  20
DOCKED: ATOM     20  C   UNL     1     140.210  71.576 223.309 -0.33 -0.01    +0.089 A  
DOCKED: ATOM     21  N   UNL     1     140.698  71.940 224.526 -0.21 +0.03    -0.246 NA 
DOCKED: ATOM     22  C   UNL     1     139.566  70.337 223.162 -0.25 -0.01    +0.031 A  
DOCKED: ATOM     23  C   UNL     1     140.582  71.138 225.620 -0.53 -0.01    +0.071 A  
DOCKED: ATOM     24  C   UNL     1     139.438  69.489 224.266 -0.32 -0.00    +0.013 A  
DOCKED: ATOM     25  C   UNL     1     141.086  71.555 226.859 -0.72 -0.01    +0.032 A  
DOCKED: ATOM     26  C   UNL     1     139.939  69.886 225.510 -0.46 -0.00    +0.003 A  
DOCKED: ATOM     27  C   UNL     1     140.960  70.725 227.978 -0.64 -0.01    +0.041 A  
DOCKED: ATOM     28  C   UNL     1     139.819  69.060 226.639 -0.51 -0.01    +0.049 A  
DOCKED: ATOM     29  C   UNL     1     140.332  69.479 227.868 -0.52 -0.02    +0.123 A  
DOCKED: ATOM     30  F   UNL     1     140.214  68.680 228.956 -0.16 +0.04    -0.207 F  
DOCKED: ENDBRANCH  18  20
DOCKED: ENDBRANCH  17  18
DOCKED: ENDBRANCH   1  17
DOCKED: TORSDOF 7
DOCKED: TER
DOCKED: ENDMDL
________________________________________________________________________________


    FINAL DOCKED STATE:
    ________________________


Run:   4 / 20
Time taken for this run:   0.051s

DOCKED: MODEL        4
DOCKED: USER    Run = 4
DOCKED: USER
DOCKED: USER    Estimated Free Energy of Binding    =  -8.18 kcal/mol  [=(1)+(2)+(3)-(4)]
DOCKED: USER
DOCKED: USER    (1) Final Intermolecular Energy     = -10.27 kcal/mol
DOCKED: USER        vdW + Hbond + desolv Energy     = -10.43 kcal/mol
DOCKED: USER        Electrostatic Energy            =  +0.16 kcal/mol
DOCKED: USER        Moving Ligand-Fixed Receptor    = -10.27 kcal/mol
DOCKED: USER        Moving Ligand-Moving Receptor   =  +0.00 kcal/mol
DOCKED: USER    (2) Final Total Internal Energy     =  -2.15 kcal/mol
DOCKED: USER    (3) Torsional Free Energy           =  +2.09 kcal/mol
DOCKED: USER    (4) Unbound System's Energy         =  -2.15 kcal/mol
DOCKED: USER
DOCKED: USER
DOCKED: REMARK SMILES O=C([N-]/C=C(\O)N1CCCC[C@@H]1C1CCCCC1)c1ccc2cc(F)ccc2n1
DOCKED: REMARK SMILES IDX 4 1 5 2 6 3 7 5 8 6 12 7 9 8 11 9 10 10 13 11 14 12 18 13
DOCKED: REMARK SMILES IDX 15 14 17 15 16 16 3 17 2 18 1 19 19 20 29 21 20 22 28 23
DOCKED: REMARK SMILES IDX 21 24 27 25 22 26 26 27 23 28 24 29 25 30
DOCKED: REMARK H PARENT 6 4
DOCKED: USER                              x       y       z     vdW  Elec       q    Type
DOCKED: USER                           _______ _______ _______ _____ _____    ______ ____
DOCKED: ROOT
DOCKED: ATOM      1  C   UNL     1     141.381  73.775 221.450 -0.19 +0.01    -0.069 C  
DOCKED: ENDROOT
DOCKED: BRANCH   1   2
DOCKED: ATOM      2  C   UNL     1     140.882  75.008 221.569 -0.26 -0.03    +0.164 C  
DOCKED: BRANCH   2   3
DOCKED: ATOM      3  O   UNL     1     139.745  75.265 222.345 -0.52 +0.06    -0.496 OA 
DOCKED: ATOM      4  H   UNL     1     139.176  74.525 222.740 -0.42 -0.08    +0.295 HD 
DOCKED: ENDBRANCH   2   3
DOCKED: BRANCH   2   5
DOCKED: ATOM      5  N   UNL     1     141.518  76.099 220.887 -0.13 +0.15    -0.342 N  
DOCKED: ATOM      6  C   UNL     1     142.468  75.794 219.816 -0.27 -0.06    +0.120 C  
DOCKED: ATOM      7  C   UNL     1     140.893  77.436 220.914 -0.25 -0.04    +0.088 C  
DOCKED: ATOM      8  C   UNL     1     141.780  75.906 218.444 -0.14 -0.01    +0.022 C  
DOCKED: ATOM      9  C   UNL     1     140.599  77.915 219.462 -0.14 -0.01    +0.025 C  
DOCKED: ATOM     10  C   UNL     1     140.486  76.742 218.483 -0.07 -0.00    +0.004 C  
DOCKED: BRANCH   7  11
DOCKED: ATOM     11  C   UNL     1     141.796  78.458 221.675 -0.35 -0.01    +0.012 C  
DOCKED: ATOM     12  C   UNL     1     141.823  79.845 220.960 -0.37 -0.00    +0.006 C  
DOCKED: ATOM     13  C   UNL     1     141.396  78.577 223.166 -0.56 -0.00    +0.006 C  
DOCKED: ATOM     14  C   UNL     1     141.169  80.964 221.780 -0.41 -0.00    +0.000 C  
DOCKED: ATOM     15  C   UNL     1     142.102  79.754 223.849 -0.63 -0.00    +0.000 C  
DOCKED: ATOM     16  C   UNL     1     141.840  81.105 223.153 -0.59 -0.00    +0.000 C  
DOCKED: ENDBRANCH   7  11
DOCKED: ENDBRANCH   2   5
DOCKED: ENDBRANCH   1   2
DOCKED: BRANCH   1  17
DOCKED: ATOM     17  N   UNL     1     140.525  72.633 221.371 -0.04 +0.08    -0.623 NA 
DOCKED: BRANCH  17  18
DOCKED: ATOM     18  C   UNL     1     139.485  72.375 222.318 -0.24 -0.02    +0.104 C  
DOCKED: ATOM     19  O   UNL     1     138.411  73.023 222.230 -0.13 +0.10    -0.313 OA 
DOCKED: BRANCH  18  20
DOCKED: ATOM     20  C   UNL     1     139.685  71.437 223.439 -0.32 -0.02    +0.089 A  
DOCKED: ATOM     21  N   UNL     1     140.227  71.889 224.603 -0.24 +0.05    -0.246 NA 
DOCKED: ATOM     22  C   UNL     1     139.257  70.103 223.347 -0.25 -0.01    +0.031 A  
DOCKED: ATOM     23  C   UNL     1     140.369  71.088 225.694 -0.52 -0.01    +0.071 A  
DOCKED: ATOM     24  C   UNL     1     139.395  69.254 224.448 -0.33 -0.00    +0.013 A  
DOCKED: ATOM     25  C   UNL     1     140.919  71.595 226.878 -0.72 -0.01    +0.032 A  
DOCKED: ATOM     26  C   UNL     1     139.947  69.741 225.637 -0.46 -0.00    +0.003 A  
DOCKED: ATOM     27  C   UNL     1     141.059  70.764 227.994 -0.64 -0.01    +0.041 A  
DOCKED: ATOM     28  C   UNL     1     140.093  68.915 226.763 -0.55 -0.01    +0.049 A  
DOCKED: ATOM     29  C   UNL     1     140.651  69.427 227.937 -0.52 -0.02    +0.123 A  
DOCKED: ATOM     30  F   UNL     1     140.790  68.626 229.021 -0.15 +0.05    -0.207 F  
DOCKED: ENDBRANCH  18  20
DOCKED: ENDBRANCH  17  18
DOCKED: ENDBRANCH   1  17
DOCKED: TORSDOF 7
DOCKED: TER
DOCKED: ENDMDL
________________________________________________________________________________


    FINAL DOCKED STATE:
    ________________________


Run:   5 / 20
Time taken for this run:   0.051s

DOCKED: MODEL        5
DOCKED: USER    Run = 5
DOCKED: USER
DOCKED: USER    Estimated Free Energy of Binding    =  -7.57 kcal/mol  [=(1)+(2)+(3)-(4)]
DOCKED: USER
DOCKED: USER    (1) Final Intermolecular Energy     =  -9.66 kcal/mol
DOCKED: USER        vdW + Hbond + desolv Energy     =  -9.77 kcal/mol
DOCKED: USER        Electrostatic Energy            =  +0.12 kcal/mol
DOCKED: USER        Moving Ligand-Fixed Receptor    =  -9.66 kcal/mol
DOCKED: USER        Moving Ligand-Moving Receptor   =  +0.00 kcal/mol
DOCKED: USER    (2) Final Total Internal Energy     =  -2.24 kcal/mol
DOCKED: USER    (3) Torsional Free Energy           =  +2.09 kcal/mol
DOCKED: USER    (4) Unbound System's Energy         =  -2.24 kcal/mol
DOCKED: USER
DOCKED: USER
DOCKED: REMARK SMILES O=C([N-]/C=C(\O)N1CCCC[C@@H]1C1CCCCC1)c1ccc2cc(F)ccc2n1
DOCKED: REMARK SMILES IDX 4 1 5 2 6 3 7 5 8 6 12 7 9 8 11 9 10 10 13 11 14 12 18 13
DOCKED: REMARK SMILES IDX 15 14 17 15 16 16 3 17 2 18 1 19 19 20 29 21 20 22 28 23
DOCKED: REMARK SMILES IDX 21 24 27 25 22 26 26 27 23 28 24 29 25 30
DOCKED: REMARK H PARENT 6 4
DOCKED: USER                              x       y       z     vdW  Elec       q    Type
DOCKED: USER                           _______ _______ _______ _____ _____    ______ ____
DOCKED: ROOT
DOCKED: ATOM      1  C   UNL     1     140.271  71.831 221.095 -0.16 +0.01    -0.069 C  
DOCKED: ENDROOT
DOCKED: BRANCH   1   2
DOCKED: ATOM      2  C   UNL     1     140.355  73.155 221.248 -0.20 -0.02    +0.164 C  
DOCKED: BRANCH   2   3
DOCKED: ATOM      3  O   UNL     1     139.799  73.800 222.359 -0.73 +0.05    -0.496 OA 
DOCKED: ATOM      4  H   UNL     1     138.947  73.480 222.805 -0.44 -0.12    +0.295 HD 
DOCKED: ENDBRANCH   2   3
DOCKED: BRANCH   2   5
DOCKED: ATOM      5  N   UNL     1     141.026  73.942 220.252 -0.06 +0.07    -0.342 N  
DOCKED: ATOM      6  C   UNL     1     140.264  74.383 219.082 -0.04 -0.03    +0.120 C  
DOCKED: ATOM      7  C   UNL     1     142.252  74.680 220.613 -0.26 -0.03    +0.088 C  
DOCKED: ATOM      8  C   UNL     1     139.779  75.831 219.276 -0.06 -0.01    +0.022 C  
DOCKED: ATOM      9  C   UNL     1     142.054  76.202 220.350 -0.24 -0.01    +0.025 C  
DOCKED: ATOM     10  C   UNL     1     140.573  76.596 220.352 -0.20 -0.00    +0.004 C  
DOCKED: BRANCH   7  11
DOCKED: ATOM     11  C   UNL     1     143.485  74.127 219.832 -0.33 -0.00    +0.012 C  
DOCKED: ATOM     12  C   UNL     1     144.829  74.570 220.492 -0.42 -0.00    +0.006 C  
DOCKED: ATOM     13  C   UNL     1     143.405  72.593 219.644 -0.23 -0.00    +0.006 C  
DOCKED: ATOM     14  C   UNL     1     145.631  73.402 221.078 -0.68 -0.00    +0.000 C  
DOCKED: ATOM     15  C   UNL     1     144.723  72.017 219.111 -0.27 +0.00    +0.000 C  
DOCKED: ATOM     16  C   UNL     1     145.935  72.347 220.006 -0.42 +0.00    +0.000 C  
DOCKED: ENDBRANCH   7  11
DOCKED: ENDBRANCH   2   5
DOCKED: ENDBRANCH   1   2
DOCKED: BRANCH   1  17
DOCKED: ATOM     17  N   UNL     1     139.121  71.105 221.535 +0.03 +0.11    -0.623 NA 
DOCKED: BRANCH  17  18
DOCKED: ATOM     18  C   UNL     1     138.584  71.227 222.854 -0.20 -0.02    +0.104 C  
DOCKED: ATOM     19  O   UNL     1     137.760  72.147 223.091 -0.10 +0.11    -0.313 OA 
DOCKED: BRANCH  18  20
DOCKED: ATOM     20  C   UNL     1     139.046  70.358 223.953 -0.28 -0.02    +0.089 A  
DOCKED: ATOM     21  N   UNL     1     139.671  70.912 225.029 -0.27 +0.05    -0.246 NA 
DOCKED: ATOM     22  C   UNL     1     138.785  68.978 223.938 -0.30 -0.00    +0.031 A  
DOCKED: ATOM     23  C   UNL     1     140.055  70.170 226.103 -0.47 -0.01    +0.071 A  
DOCKED: ATOM     24  C   UNL     1     139.174  68.189 225.024 -0.43 -0.00    +0.013 A  
DOCKED: ATOM     25  C   UNL     1     140.683  70.779 227.196 -0.64 -0.01    +0.032 A  
DOCKED: ATOM     26  C   UNL     1     139.807  68.779 226.122 -0.53 -0.00    +0.003 A  
DOCKED: ATOM     27  C   UNL     1     141.072  70.009 228.296 -0.53 -0.01    +0.041 A  
DOCKED: ATOM     28  C   UNL     1     140.202  68.015 227.232 -0.62 -0.01    +0.049 A  
DOCKED: ATOM     29  C   UNL     1     140.836  68.630 228.313 -0.55 -0.03    +0.123 A  
DOCKED: ATOM     30  F   UNL     1     141.216  67.888 229.382 -0.15 +0.06    -0.207 F  
DOCKED: ENDBRANCH  18  20
DOCKED: ENDBRANCH  17  18
DOCKED: ENDBRANCH   1  17
DOCKED: TORSDOF 7
DOCKED: TER
DOCKED: ENDMDL
________________________________________________________________________________


    FINAL DOCKED STATE:
    ________________________


Run:   6 / 20
Time taken for this run:   0.051s

DOCKED: MODEL        6
DOCKED: USER    Run = 6
DOCKED: USER
DOCKED: USER    Estimated Free Energy of Binding    =  -8.69 kcal/mol  [=(1)+(2)+(3)-(4)]
DOCKED: USER
DOCKED: USER    (1) Final Intermolecular Energy     = -10.78 kcal/mol
DOCKED: USER        vdW + Hbond + desolv Energy     = -10.74 kcal/mol
DOCKED: USER        Electrostatic Energy            =  -0.03 kcal/mol
DOCKED: USER        Moving Ligand-Fixed Receptor    = -10.78 kcal/mol
DOCKED: USER        Moving Ligand-Moving Receptor   =  +0.00 kcal/mol
DOCKED: USER    (2) Final Total Internal Energy     =  -2.21 kcal/mol
DOCKED: USER    (3) Torsional Free Energy           =  +2.09 kcal/mol
DOCKED: USER    (4) Unbound System's Energy         =  -2.21 kcal/mol
DOCKED: USER
DOCKED: USER
DOCKED: REMARK SMILES O=C([N-]/C=C(\O)N1CCCC[C@@H]1C1CCCCC1)c1ccc2cc(F)ccc2n1
DOCKED: REMARK SMILES IDX 4 1 5 2 6 3 7 5 8 6 12 7 9 8 11 9 10 10 13 11 14 12 18 13
DOCKED: REMARK SMILES IDX 15 14 17 15 16 16 3 17 2 18 1 19 19 20 29 21 20 22 28 23
DOCKED: REMARK SMILES IDX 21 24 27 25 22 26 26 27 23 28 24 29 25 30
DOCKED: REMARK H PARENT 6 4
DOCKED: USER                              x       y       z     vdW  Elec       q    Type
DOCKED: USER                           _______ _______ _______ _____ _____    ______ ____
DOCKED: ROOT
DOCKED: ATOM      1  C   UNL     1     140.899  74.608 221.552 -0.28 +0.01    -0.069 C  
DOCKED: ENDROOT
DOCKED: BRANCH   1   2
DOCKED: ATOM      2  C   UNL     1     140.153  75.632 221.973 -0.27 -0.03    +0.164 C  
DOCKED: BRANCH   2   3
DOCKED: ATOM      3  O   UNL     1     138.981  75.427 222.712 -0.28 +0.12    -0.496 OA 
DOCKED: ATOM      4  H   UNL     1     138.698  74.512 223.042 -0.49 -0.17    +0.295 HD 
DOCKED: ENDBRANCH   2   3
DOCKED: BRANCH   2   5
DOCKED: ATOM      5  N   UNL     1     140.552  76.976 221.664 -0.16 +0.12    -0.342 N  
DOCKED: ATOM      6  C   UNL     1     141.527  77.184 220.593 -0.24 -0.06    +0.120 C  
DOCKED: ATOM      7  C   UNL     1     139.679  78.101 222.051 -0.27 -0.02    +0.088 C  
DOCKED: ATOM      8  C   UNL     1     140.809  77.560 219.284 -0.15 -0.01    +0.022 C  
DOCKED: ATOM      9  C   UNL     1     139.274  78.918 220.789 -0.12 -0.01    +0.025 C  
DOCKED: ATOM     10  C   UNL     1     139.378  78.083 219.508 -0.07 -0.00    +0.004 C  
DOCKED: BRANCH   7  11
DOCKED: ATOM     11  C   UNL     1     140.376  79.008 223.113 -0.46 -0.00    +0.012 C  
DOCKED: ATOM     12  C   UNL     1     141.800  78.480 223.474 -0.55 -0.00    +0.006 C  
DOCKED: ATOM     13  C   UNL     1     140.397  80.492 222.675 -0.40 -0.00    +0.006 C  
DOCKED: ATOM     14  C   UNL     1     142.926  79.424 223.037 -0.49 -0.00    +0.000 C  
DOCKED: ATOM     15  C   UNL     1     141.298  81.338 223.583 -0.45 -0.00    +0.000 C  
DOCKED: ATOM     16  C   UNL     1     142.748  80.818 223.652 -0.66 -0.00    +0.000 C  
DOCKED: ENDBRANCH   7  11
DOCKED: ENDBRANCH   2   5
DOCKED: ENDBRANCH   1   2
DOCKED: BRANCH   1  17
DOCKED: ATOM     17  N   UNL     1     141.028  73.415 222.328 -0.26 -0.04    -0.623 NA 
DOCKED: BRANCH  17  18
DOCKED: ATOM     18  C   UNL     1     139.927  72.549 222.610 -0.25 -0.02    +0.104 C  
DOCKED: ATOM     19  O   UNL     1     138.847  72.719 221.988 -0.14 +0.08    -0.313 OA 
DOCKED: BRANCH  18  20
DOCKED: ATOM     20  C   UNL     1     140.006  71.528 223.672 -0.36 -0.02    +0.089 A  
DOCKED: ATOM     21  N   UNL     1     140.506  71.868 224.892 -0.27 +0.04    -0.246 NA 
DOCKED: ATOM     22  C   UNL     1     139.506  70.233 223.465 -0.27 -0.01    +0.031 A  
DOCKED: ATOM     23  C   UNL     1     140.538  70.988 225.931 -0.54 -0.01    +0.071 A  
DOCKED: ATOM     24  C   UNL     1     139.531  69.306 224.510 -0.34 -0.00    +0.013 A  
DOCKED: ATOM     25  C   UNL     1     141.048  71.381 227.174 -0.72 -0.01    +0.032 A  
DOCKED: ATOM     26  C   UNL     1     140.042  69.677 225.758 -0.47 -0.00    +0.003 A  
DOCKED: ATOM     27  C   UNL     1     141.075  70.471 228.236 -0.55 -0.01    +0.041 A  
DOCKED: ATOM     28  C   UNL     1     140.073  68.771 226.830 -0.56 -0.01    +0.049 A  
DOCKED: ATOM     29  C   UNL     1     140.592  69.168 228.064 -0.53 -0.02    +0.123 A  
DOCKED: ATOM     30  F   UNL     1     140.621  68.291 229.097 -0.17 +0.05    -0.207 F  
DOCKED: ENDBRANCH  18  20
DOCKED: ENDBRANCH  17  18
DOCKED: ENDBRANCH   1  17
DOCKED: TORSDOF 7
DOCKED: TER
DOCKED: ENDMDL
________________________________________________________________________________


    FINAL DOCKED STATE:
    ________________________


Run:   7 / 20
Time taken for this run:   0.051s

DOCKED: MODEL        7
DOCKED: USER    Run = 7
DOCKED: USER
DOCKED: USER    Estimated Free Energy of Binding    =  -7.67 kcal/mol  [=(1)+(2)+(3)-(4)]
DOCKED: USER
DOCKED: USER    (1) Final Intermolecular Energy     =  -9.76 kcal/mol
DOCKED: USER        vdW + Hbond + desolv Energy     =  -9.78 kcal/mol
DOCKED: USER        Electrostatic Energy            =  +0.02 kcal/mol
DOCKED: USER        Moving Ligand-Fixed Receptor    =  -9.76 kcal/mol
DOCKED: USER        Moving Ligand-Moving Receptor   =  +0.00 kcal/mol
DOCKED: USER    (2) Final Total Internal Energy     =  -2.64 kcal/mol
DOCKED: USER    (3) Torsional Free Energy           =  +2.09 kcal/mol
DOCKED: USER    (4) Unbound System's Energy         =  -2.64 kcal/mol
DOCKED: USER
DOCKED: USER
DOCKED: REMARK SMILES O=C([N-]/C=C(\O)N1CCCC[C@@H]1C1CCCCC1)c1ccc2cc(F)ccc2n1
DOCKED: REMARK SMILES IDX 4 1 5 2 6 3 7 5 8 6 12 7 9 8 11 9 10 10 13 11 14 12 18 13
DOCKED: REMARK SMILES IDX 15 14 17 15 16 16 3 17 2 18 1 19 19 20 29 21 20 22 28 23
DOCKED: REMARK SMILES IDX 21 24 27 25 22 26 26 27 23 28 24 29 25 30
DOCKED: REMARK H PARENT 6 4
DOCKED: USER                              x       y       z     vdW  Elec       q    Type
DOCKED: USER                           _______ _______ _______ _____ _____    ______ ____
DOCKED: ROOT
DOCKED: ATOM      1  C   UNL     1     136.761  69.186 224.893 -0.18 +0.00    -0.069 C  
DOCKED: ENDROOT
DOCKED: BRANCH   1   2
DOCKED: ATOM      2  C   UNL     1     137.328  69.987 223.987 -0.19 -0.02    +0.164 C  
DOCKED: BRANCH   2   3
DOCKED: ATOM      3  O   UNL     1     136.559  70.806 223.152 -0.02 +0.09    -0.496 OA 
DOCKED: ATOM      4  H   UNL     1     135.547  70.830 223.194 +0.07 -0.04    +0.295 HD 
DOCKED: ENDBRANCH   2   3
DOCKED: BRANCH   2   5
DOCKED: ATOM      5  N   UNL     1     138.758  70.012 223.858 -0.12 +0.06    -0.342 N  
DOCKED: ATOM      6  C   UNL     1     139.353  69.554 222.602 -0.13 -0.02    +0.120 C  
DOCKED: ATOM      7  C   UNL     1     139.551  70.899 224.731 -0.38 -0.02    +0.088 C  
DOCKED: ATOM      8  C   UNL     1     139.686  70.756 221.700 -0.17 -0.00    +0.022 C  
DOCKED: ATOM      9  C   UNL     1     140.384  71.890 223.867 -0.34 -0.00    +0.025 C  
DOCKED: ATOM     10  C   UNL     1     139.777  72.085 222.473 -0.30 -0.00    +0.004 C  
DOCKED: BRANCH   7  11
DOCKED: ATOM     11  C   UNL     1     140.469  70.068 225.683 -0.51 -0.00    +0.012 C  
DOCKED: ATOM     12  C   UNL     1     140.659  70.777 227.061 -0.67 -0.00    +0.006 C  
DOCKED: ATOM     13  C   UNL     1     139.967  68.613 225.839 -0.54 -0.00    +0.006 C  
DOCKED: ATOM     14  C   UNL     1     140.033  70.007 228.230 -0.62 -0.00    +0.000 C  
DOCKED: ATOM     15  C   UNL     1     140.707  67.875 226.961 -0.68 -0.00    +0.000 C  
DOCKED: ATOM     16  C   UNL     1     140.605  68.586 228.325 -0.68 -0.00    +0.000 C  
DOCKED: ENDBRANCH   7  11
DOCKED: ENDBRANCH   2   5
DOCKED: ENDBRANCH   1   2
DOCKED: BRANCH   1  17
DOCKED: ATOM     17  N   UNL     1     135.375  68.844 224.816 -0.32 -0.00    -0.623 NA 
DOCKED: BRANCH  17  18
DOCKED: ATOM     18  C   UNL     1     134.393  69.381 225.704 -0.24 -0.01    +0.104 C  
DOCKED: ATOM     19  O   UNL     1     133.594  68.593 226.273 -0.79 -0.01    -0.313 OA 
DOCKED: BRANCH  18  20
DOCKED: ATOM     20  C   UNL     1     134.242  70.837 225.892 -0.26 -0.01    +0.089 A  
DOCKED: ATOM     21  N   UNL     1     134.889  71.691 225.053 -0.09 +0.02    -0.246 NA 
DOCKED: ATOM     22  C   UNL     1     133.384  71.350 226.878 -0.41 -0.00    +0.031 A  
DOCKED: ATOM     23  C   UNL     1     134.732  73.041 225.133 -0.22 -0.00    +0.071 A  
DOCKED: ATOM     24  C   UNL     1     133.207  72.732 226.989 -0.40 -0.00    +0.013 A  
DOCKED: ATOM     25  C   UNL     1     135.404  73.886 224.242 -0.26 -0.01    +0.032 A  
DOCKED: ATOM     26  C   UNL     1     133.875  73.592 226.112 -0.34 +0.00    +0.003 A  
DOCKED: ATOM     27  C   UNL     1     135.235  75.271 224.331 -0.30 -0.01    +0.041 A  
DOCKED: ATOM     28  C   UNL     1     133.712  74.984 226.193 -0.34 +0.00    +0.049 A  
DOCKED: ATOM     29  C   UNL     1     134.394  75.820 225.306 -0.28 -0.01    +0.123 A  
DOCKED: ATOM     30  F   UNL     1     134.234  77.163 225.388 -0.04 +0.02    -0.207 F  
DOCKED: ENDBRANCH  18  20
DOCKED: ENDBRANCH  17  18
DOCKED: ENDBRANCH   1  17
DOCKED: TORSDOF 7
DOCKED: TER
DOCKED: ENDMDL
________________________________________________________________________________


    FINAL DOCKED STATE:
    ________________________


Run:   8 / 20
Time taken for this run:   0.051s

DOCKED: MODEL        8
DOCKED: USER    Run = 8
DOCKED: USER
DOCKED: USER    Estimated Free Energy of Binding    =  -8.17 kcal/mol  [=(1)+(2)+(3)-(4)]
DOCKED: USER
DOCKED: USER    (1) Final Intermolecular Energy     = -10.26 kcal/mol
DOCKED: USER        vdW + Hbond + desolv Energy     = -10.41 kcal/mol
DOCKED: USER        Electrostatic Energy            =  +0.15 kcal/mol
DOCKED: USER        Moving Ligand-Fixed Receptor    = -10.26 kcal/mol
DOCKED: USER        Moving Ligand-Moving Receptor   =  +0.00 kcal/mol
DOCKED: USER    (2) Final Total Internal Energy     =  -2.16 kcal/mol
DOCKED: USER    (3) Torsional Free Energy           =  +2.09 kcal/mol
DOCKED: USER    (4) Unbound System's Energy         =  -2.16 kcal/mol
DOCKED: USER
DOCKED: USER
DOCKED: REMARK SMILES O=C([N-]/C=C(\O)N1CCCC[C@@H]1C1CCCCC1)c1ccc2cc(F)ccc2n1
DOCKED: REMARK SMILES IDX 4 1 5 2 6 3 7 5 8 6 12 7 9 8 11 9 10 10 13 11 14 12 18 13
DOCKED: REMARK SMILES IDX 15 14 17 15 16 16 3 17 2 18 1 19 19 20 29 21 20 22 28 23
DOCKED: REMARK SMILES IDX 21 24 27 25 22 26 26 27 23 28 24 29 25 30
DOCKED: REMARK H PARENT 6 4
DOCKED: USER                              x       y       z     vdW  Elec       q    Type
DOCKED: USER                           _______ _______ _______ _____ _____    ______ ____
DOCKED: ROOT
DOCKED: ATOM      1  C   UNL     1     141.345  73.856 221.529 -0.17 +0.01    -0.069 C  
DOCKED: ENDROOT
DOCKED: BRANCH   1   2
DOCKED: ATOM      2  C   UNL     1     140.785  75.065 221.608 -0.26 -0.03    +0.164 C  
DOCKED: BRANCH   2   3
DOCKED: ATOM      3  O   UNL     1     139.623  75.286 222.356 -0.51 +0.07    -0.496 OA 
DOCKED: ATOM      4  H   UNL     1     139.058  74.528 222.721 -0.44 -0.09    +0.295 HD 
DOCKED: ENDBRANCH   2   3
DOCKED: BRANCH   2   5
DOCKED: ATOM      5  N   UNL     1     141.381  76.169 220.909 -0.14 +0.15    -0.342 N  
DOCKED: ATOM      6  C   UNL     1     142.239  75.885 219.758 -0.25 -0.06    +0.120 C  
DOCKED: ATOM      7  C   UNL     1     140.780  77.513 221.026 -0.25 -0.04    +0.088 C  
DOCKED: ATOM      8  C   UNL     1     141.446  76.048 218.449 -0.12 -0.01    +0.022 C  
DOCKED: ATOM      9  C   UNL     1     140.379  78.040 219.617 -0.13 -0.01    +0.025 C  
DOCKED: ATOM     10  C   UNL     1     140.172  76.898 218.615 -0.07 -0.00    +0.004 C  
DOCKED: BRANCH   7  11
DOCKED: ATOM     11  C   UNL     1     141.755  78.499 221.742 -0.37 -0.01    +0.012 C  
DOCKED: ATOM     12  C   UNL     1     141.825  79.874 221.006 -0.38 -0.00    +0.006 C  
DOCKED: ATOM     13  C   UNL     1     141.411  78.657 223.243 -0.58 -0.00    +0.006 C  
DOCKED: ATOM     14  C   UNL     1     141.254  81.033 221.831 -0.42 -0.00    +0.000 C  
DOCKED: ATOM     15  C   UNL     1     142.195  79.808 223.886 -0.61 -0.00    +0.000 C  
DOCKED: ATOM     16  C   UNL     1     141.975  81.161 223.179 -0.59 -0.00    +0.000 C  
DOCKED: ENDBRANCH   7  11
DOCKED: ENDBRANCH   2   5
DOCKED: ENDBRANCH   1   2
DOCKED: BRANCH   1  17
DOCKED: ATOM     17  N   UNL     1     140.546  72.675 221.417 -0.05 +0.08    -0.623 NA 
DOCKED: BRANCH  17  18
DOCKED: ATOM     18  C   UNL     1     139.493  72.361 222.330 -0.24 -0.02    +0.104 C  
DOCKED: ATOM     19  O   UNL     1     138.392  72.957 222.215 -0.13 +0.10    -0.313 OA 
DOCKED: BRANCH  18  20
DOCKED: ATOM     20  C   UNL     1     139.705  71.426 223.452 -0.33 -0.02    +0.089 A  
DOCKED: ATOM     21  N   UNL     1     140.220  71.890 224.624 -0.24 +0.05    -0.246 NA 
DOCKED: ATOM     22  C   UNL     1     139.316  70.080 223.351 -0.25 -0.01    +0.031 A  
DOCKED: ATOM     23  C   UNL     1     140.371  71.089 225.714 -0.52 -0.01    +0.071 A  
DOCKED: ATOM     24  C   UNL     1     139.465  69.232 224.451 -0.33 -0.00    +0.013 A  
DOCKED: ATOM     25  C   UNL     1     140.892  71.608 226.906 -0.72 -0.01    +0.032 A  
DOCKED: ATOM     26  C   UNL     1     139.988  69.731 225.648 -0.46 -0.00    +0.003 A  
DOCKED: ATOM     27  C   UNL     1     141.041  70.779 228.022 -0.64 -0.01    +0.041 A  
DOCKED: ATOM     28  C   UNL     1     140.143  68.907 226.774 -0.55 -0.01    +0.049 A  
DOCKED: ATOM     29  C   UNL     1     140.671  69.430 227.956 -0.52 -0.02    +0.123 A  
DOCKED: ATOM     30  F   UNL     1     140.819  68.631 229.040 -0.15 +0.05    -0.207 F  
DOCKED: ENDBRANCH  18  20
DOCKED: ENDBRANCH  17  18
DOCKED: ENDBRANCH   1  17
DOCKED: TORSDOF 7
DOCKED: TER
DOCKED: ENDMDL
________________________________________________________________________________


    FINAL DOCKED STATE:
    ________________________


Run:   9 / 20
Time taken for this run:   0.051s

DOCKED: MODEL        9
DOCKED: USER    Run = 9
DOCKED: USER
DOCKED: USER    Estimated Free Energy of Binding    =  -7.86 kcal/mol  [=(1)+(2)+(3)-(4)]
DOCKED: USER
DOCKED: USER    (1) Final Intermolecular Energy     =  -9.94 kcal/mol
DOCKED: USER        vdW + Hbond + desolv Energy     =  -9.92 kcal/mol
DOCKED: USER        Electrostatic Energy            =  -0.02 kcal/mol
DOCKED: USER        Moving Ligand-Fixed Receptor    =  -9.94 kcal/mol
DOCKED: USER        Moving Ligand-Moving Receptor   =  +0.00 kcal/mol
DOCKED: USER    (2) Final Total Internal Energy     =  -2.34 kcal/mol
DOCKED: USER    (3) Torsional Free Energy           =  +2.09 kcal/mol
DOCKED: USER    (4) Unbound System's Energy         =  -2.34 kcal/mol
DOCKED: USER
DOCKED: USER
DOCKED: REMARK SMILES O=C([N-]/C=C(\O)N1CCCC[C@@H]1C1CCCCC1)c1ccc2cc(F)ccc2n1
DOCKED: REMARK SMILES IDX 4 1 5 2 6 3 7 5 8 6 12 7 9 8 11 9 10 10 13 11 14 12 18 13
DOCKED: REMARK SMILES IDX 15 14 17 15 16 16 3 17 2 18 1 19 19 20 29 21 20 22 28 23
DOCKED: REMARK SMILES IDX 21 24 27 25 22 26 26 27 23 28 24 29 25 30
DOCKED: REMARK H PARENT 6 4
DOCKED: USER                              x       y       z     vdW  Elec       q    Type
DOCKED: USER                           _______ _______ _______ _____ _____    ______ ____
DOCKED: ROOT
DOCKED: ATOM      1  C   UNL     1     135.888  71.138 224.322 -0.14 +0.01    -0.069 C  
DOCKED: ENDROOT
DOCKED: BRANCH   1   2
DOCKED: ATOM      2  C   UNL     1     136.500  69.958 224.456 -0.18 -0.02    +0.164 C  
DOCKED: BRANCH   2   3
DOCKED: ATOM      3  O   UNL     1     135.835  68.845 224.984 -0.30 -0.01    -0.496 OA 
DOCKED: ATOM      4  H   UNL     1     134.872  68.884 225.297 +0.11 -0.01    +0.295 HD 
DOCKED: ENDBRANCH   2   3
DOCKED: BRANCH   2   5
DOCKED: ATOM      5  N   UNL     1     137.872  69.821 224.056 -0.11 +0.05    -0.342 N  
DOCKED: ATOM      6  C   UNL     1     138.166  69.122 222.804 -0.18 -0.02    +0.120 C  
DOCKED: ATOM      7  C   UNL     1     138.885  70.747 224.600 -0.31 -0.02    +0.088 C  
DOCKED: ATOM      8  C   UNL     1     138.389  70.135 221.667 -0.12 -0.00    +0.022 C  
DOCKED: ATOM      9  C   UNL     1     139.588  71.508 223.439 -0.35 -0.01    +0.025 C  
DOCKED: ATOM     10  C   UNL     1     138.724  71.550 222.174 -0.19 -0.00    +0.004 C  
DOCKED: BRANCH   7  11
DOCKED: ATOM     11  C   UNL     1     139.919  69.983 225.485 -0.47 -0.00    +0.012 C  
DOCKED: ATOM     12  C   UNL     1     140.652  70.946 226.472 -0.65 -0.00    +0.006 C  
DOCKED: ATOM     13  C   UNL     1     139.273  68.780 226.215 -0.52 -0.00    +0.006 C  
DOCKED: ATOM     14  C   UNL     1     140.326  70.669 227.945 -0.70 -0.00    +0.000 C  
DOCKED: ATOM     15  C   UNL     1     140.212  68.189 227.273 -0.68 -0.00    +0.000 C  
DOCKED: ATOM     16  C   UNL     1     140.669  69.222 228.324 -0.64 -0.00    +0.000 C  
DOCKED: ENDBRANCH   7  11
DOCKED: ENDBRANCH   2   5
DOCKED: ENDBRANCH   1   2
DOCKED: BRANCH   1  17
DOCKED: ATOM     17  N   UNL     1     134.490  71.282 224.582 +0.03 +0.06    -0.623 NA 
DOCKED: BRANCH  17  18
DOCKED: ATOM     18  C   UNL     1     133.937  71.237 225.899 -0.27 -0.01    +0.104 C  
DOCKED: ATOM     19  O   UNL     1     133.934  70.143 226.519 -0.44 +0.01    -0.313 OA 
DOCKED: BRANCH  18  20
DOCKED: ATOM     20  C   UNL     1     133.292  72.420 226.501 -0.34 -0.00    +0.089 A  
DOCKED: ATOM     21  N   UNL     1     133.867  73.645 226.354 -0.72 -0.02    -0.246 NA 
DOCKED: ATOM     22  C   UNL     1     132.057  72.309 227.160 -0.39 -0.01    +0.031 A  
DOCKED: ATOM     23  C   UNL     1     133.282  74.780 226.825 -0.26 +0.01    +0.071 A  
DOCKED: ATOM     24  C   UNL     1     131.435  73.456 227.661 -0.38 -0.00    +0.013 A  
DOCKED: ATOM     25  C   UNL     1     133.900  76.023 226.641 -0.40 -0.00    +0.032 A  
DOCKED: ATOM     26  C   UNL     1     132.039  74.705 227.492 -0.42 -0.00    +0.003 A  
DOCKED: ATOM     27  C   UNL     1     133.290  77.184 227.127 -0.34 -0.00    +0.041 A  
DOCKED: ATOM     28  C   UNL     1     131.436  75.877 227.977 -0.26 +0.00    +0.049 A  
DOCKED: ATOM     29  C   UNL     1     132.063  77.111 227.797 -0.27 +0.00    +0.123 A  
DOCKED: ATOM     30  F   UNL     1     131.478  78.239 228.266 -0.06 -0.03    -0.207 F  
DOCKED: ENDBRANCH  18  20
DOCKED: ENDBRANCH  17  18
DOCKED: ENDBRANCH   1  17
DOCKED: TORSDOF 7
DOCKED: TER
DOCKED: ENDMDL
________________________________________________________________________________


    FINAL DOCKED STATE:
    ________________________


Run:   10 / 20
Time taken for this run:   0.051s

DOCKED: MODEL        10
DOCKED: USER    Run = 10
DOCKED: USER
DOCKED: USER    Estimated Free Energy of Binding    =  -8.60 kcal/mol  [=(1)+(2)+(3)-(4)]
DOCKED: USER
DOCKED: USER    (1) Final Intermolecular Energy     = -10.68 kcal/mol
DOCKED: USER        vdW + Hbond + desolv Energy     = -10.67 kcal/mol
DOCKED: USER        Electrostatic Energy            =  -0.02 kcal/mol
DOCKED: USER        Moving Ligand-Fixed Receptor    = -10.68 kcal/mol
DOCKED: USER        Moving Ligand-Moving Receptor   =  +0.00 kcal/mol
DOCKED: USER    (2) Final Total Internal Energy     =  -2.26 kcal/mol
DOCKED: USER    (3) Torsional Free Energy           =  +2.09 kcal/mol
DOCKED: USER    (4) Unbound System's Energy         =  -2.26 kcal/mol
DOCKED: USER
DOCKED: USER
DOCKED: REMARK SMILES O=C([N-]/C=C(\O)N1CCCC[C@@H]1C1CCCCC1)c1ccc2cc(F)ccc2n1
DOCKED: REMARK SMILES IDX 4 1 5 2 6 3 7 5 8 6 12 7 9 8 11 9 10 10 13 11 14 12 18 13
DOCKED: REMARK SMILES IDX 15 14 17 15 16 16 3 17 2 18 1 19 19 20 29 21 20 22 28 23
DOCKED: REMARK SMILES IDX 21 24 27 25 22 26 26 27 23 28 24 29 25 30
DOCKED: REMARK H PARENT 6 4
DOCKED: USER                              x       y       z     vdW  Elec       q    Type
DOCKED: USER                           _______ _______ _______ _____ _____    ______ ____
DOCKED: ROOT
DOCKED: ATOM      1  C   UNL     1     140.985  74.569 221.439 -0.28 +0.01    -0.069 C  
DOCKED: ENDROOT
DOCKED: BRANCH   1   2
DOCKED: ATOM      2  C   UNL     1     140.308  75.630 221.886 -0.27 -0.03    +0.164 C  
DOCKED: BRANCH   2   3
DOCKED: ATOM      3  O   UNL     1     139.215  75.489 222.751 -0.33 +0.10    -0.496 OA 
DOCKED: ATOM      4  H   UNL     1     138.897  74.586 223.082 -0.49 -0.14    +0.295 HD 
DOCKED: ENDBRANCH   2   3
DOCKED: BRANCH   2   5
DOCKED: ATOM      5  N   UNL     1     140.700  76.947 221.472 -0.15 +0.12    -0.342 N  
DOCKED: ATOM      6  C   UNL     1     141.818  77.081 220.537 -0.22 -0.07    +0.120 C  
DOCKED: ATOM      7  C   UNL     1     139.737  78.061 221.583 -0.22 -0.02    +0.088 C  
DOCKED: ATOM      8  C   UNL     1     141.294  77.259 219.101 -0.18 -0.01    +0.022 C  
DOCKED: ATOM      9  C   UNL     1     139.499  78.699 220.183 -0.10 -0.01    +0.025 C  
DOCKED: ATOM     10  C   UNL     1     139.827  77.726 219.046 -0.07 -0.00    +0.004 C  
DOCKED: BRANCH   7  11
DOCKED: ATOM     11  C   UNL     1     140.231  79.125 222.614 -0.38 -0.00    +0.012 C  
DOCKED: ATOM     12  C   UNL     1     141.461  78.610 223.425 -0.59 -0.00    +0.006 C  
DOCKED: ATOM     13  C   UNL     1     140.505  80.491 221.941 -0.33 -0.00    +0.006 C  
DOCKED: ATOM     14  C   UNL     1     142.747  79.395 223.140 -0.52 -0.00    +0.000 C  
DOCKED: ATOM     15  C   UNL     1     141.228  81.455 222.890 -0.47 -0.00    +0.000 C  
DOCKED: ATOM     16  C   UNL     1     142.557  80.890 223.431 -0.65 -0.00    +0.000 C  
DOCKED: ENDBRANCH   7  11
DOCKED: ENDBRANCH   2   5
DOCKED: ENDBRANCH   1   2
DOCKED: BRANCH   1  17
DOCKED: ATOM     17  N   UNL     1     141.065  73.364 222.204 -0.27 -0.02    -0.623 NA 
DOCKED: BRANCH  17  18
DOCKED: ATOM     18  C   UNL     1     139.920  72.569 222.522 -0.26 -0.02    +0.104 C  
DOCKED: ATOM     19  O   UNL     1     138.840  72.792 221.917 -0.14 +0.08    -0.313 OA 
DOCKED: BRANCH  18  20
DOCKED: ATOM     20  C   UNL     1     139.960  71.565 223.602 -0.35 -0.02    +0.089 A  
DOCKED: ATOM     21  N   UNL     1     140.512  71.893 224.802 -0.26 +0.04    -0.246 NA 
DOCKED: ATOM     22  C   UNL     1     139.373  70.301 223.432 -0.27 -0.01    +0.031 A  
DOCKED: ATOM     23  C   UNL     1     140.513  71.032 225.857 -0.54 -0.01    +0.071 A  
DOCKED: ATOM     24  C   UNL     1     139.365  69.393 224.494 -0.34 -0.00    +0.013 A  
DOCKED: ATOM     25  C   UNL     1     141.079  71.413 227.080 -0.72 -0.01    +0.032 A  
DOCKED: ATOM     26  C   UNL     1     139.929  69.753 225.721 -0.47 -0.00    +0.003 A  
DOCKED: ATOM     27  C   UNL     1     141.073  70.522 228.158 -0.57 -0.01    +0.041 A  
DOCKED: ATOM     28  C   UNL     1     139.930  68.866 226.810 -0.55 -0.01    +0.049 A  
DOCKED: ATOM     29  C   UNL     1     140.504  69.251 228.024 -0.53 -0.02    +0.123 A  
DOCKED: ATOM     30  F   UNL     1     140.502  68.392 229.072 -0.17 +0.05    -0.207 F  
DOCKED: ENDBRANCH  18  20
DOCKED: ENDBRANCH  17  18
DOCKED: ENDBRANCH   1  17
DOCKED: TORSDOF 7
DOCKED: TER
DOCKED: ENDMDL
________________________________________________________________________________


    FINAL DOCKED STATE:
    ________________________


Run:   11 / 20
Time taken for this run:   0.051s

DOCKED: MODEL        11
DOCKED: USER    Run = 11
DOCKED: USER
DOCKED: USER    Estimated Free Energy of Binding    =  -8.14 kcal/mol  [=(1)+(2)+(3)-(4)]
DOCKED: USER
DOCKED: USER    (1) Final Intermolecular Energy     = -10.23 kcal/mol
DOCKED: USER        vdW + Hbond + desolv Energy     = -10.39 kcal/mol
DOCKED: USER        Electrostatic Energy            =  +0.16 kcal/mol
DOCKED: USER        Moving Ligand-Fixed Receptor    = -10.23 kcal/mol
DOCKED: USER        Moving Ligand-Moving Receptor   =  +0.00 kcal/mol
DOCKED: USER    (2) Final Total Internal Energy     =  -2.16 kcal/mol
DOCKED: USER    (3) Torsional Free Energy           =  +2.09 kcal/mol
DOCKED: USER    (4) Unbound System's Energy         =  -2.16 kcal/mol
DOCKED: USER
DOCKED: USER
DOCKED: REMARK SMILES O=C([N-]/C=C(\O)N1CCCC[C@@H]1C1CCCCC1)c1ccc2cc(F)ccc2n1
DOCKED: REMARK SMILES IDX 4 1 5 2 6 3 7 5 8 6 12 7 9 8 11 9 10 10 13 11 14 12 18 13
DOCKED: REMARK SMILES IDX 15 14 17 15 16 16 3 17 2 18 1 19 19 20 29 21 20 22 28 23
DOCKED: REMARK SMILES IDX 21 24 27 25 22 26 26 27 23 28 24 29 25 30
DOCKED: REMARK H PARENT 6 4
DOCKED: USER                              x       y       z     vdW  Elec       q    Type
DOCKED: USER                           _______ _______ _______ _____ _____    ______ ____
DOCKED: ROOT
DOCKED: ATOM      1  C   UNL     1     141.304  73.687 221.448 -0.21 +0.01    -0.069 C  
DOCKED: ENDROOT
DOCKED: BRANCH   1   2
DOCKED: ATOM      2  C   UNL     1     140.858  74.940 221.573 -0.26 -0.03    +0.164 C  
DOCKED: BRANCH   2   3
DOCKED: ATOM      3  O   UNL     1     139.723  75.239 222.337 -0.53 +0.06    -0.496 OA 
DOCKED: ATOM      4  H   UNL     1     139.163  74.524 222.785 -0.43 -0.08    +0.295 HD 
DOCKED: ENDBRANCH   2   3
DOCKED: BRANCH   2   5
DOCKED: ATOM      5  N   UNL     1     141.550  76.008 220.910 -0.13 +0.15    -0.342 N  
DOCKED: ATOM      6  C   UNL     1     142.564  75.668 219.910 -0.27 -0.06    +0.120 C  
DOCKED: ATOM      7  C   UNL     1     140.942  77.353 220.868 -0.25 -0.04    +0.088 C  
DOCKED: ATOM      8  C   UNL     1     141.967  75.758 218.494 -0.16 -0.01    +0.022 C  
DOCKED: ATOM      9  C   UNL     1     140.749  77.803 219.390 -0.15 -0.01    +0.025 C  
DOCKED: ATOM     10  C   UNL     1     140.684  76.609 218.431 -0.08 -0.00    +0.004 C  
DOCKED: BRANCH   7  11
DOCKED: ATOM     11  C   UNL     1     141.807  78.381 221.664 -0.33 -0.01    +0.012 C  
DOCKED: ATOM     12  C   UNL     1     141.833  79.775 220.962 -0.36 -0.00    +0.006 C  
DOCKED: ATOM     13  C   UNL     1     141.363  78.480 223.143 -0.55 -0.00    +0.006 C  
DOCKED: ATOM     14  C   UNL     1     141.139  80.876 221.773 -0.40 -0.00    +0.000 C  
DOCKED: ATOM     15  C   UNL     1     142.031  79.662 223.857 -0.62 -0.00    +0.000 C  
DOCKED: ATOM     16  C   UNL     1     141.768  81.015 223.166 -0.59 -0.00    +0.000 C  
DOCKED: ENDBRANCH   7  11
DOCKED: ENDBRANCH   2   5
DOCKED: ENDBRANCH   1   2
DOCKED: BRANCH   1  17
DOCKED: ATOM     17  N   UNL     1     140.399  72.582 221.377 -0.04 +0.09    -0.623 NA 
DOCKED: BRANCH  17  18
DOCKED: ATOM     18  C   UNL     1     139.392  72.339 222.361 -0.23 -0.02    +0.104 C  
DOCKED: ATOM     19  O   UNL     1     138.318  72.990 222.303 -0.13 +0.10    -0.313 OA 
DOCKED: BRANCH  18  20
DOCKED: ATOM     20  C   UNL     1     139.627  71.413 223.486 -0.32 -0.02    +0.089 A  
DOCKED: ATOM     21  N   UNL     1     140.150  71.890 224.649 -0.22 +0.05    -0.246 NA 
DOCKED: ATOM     22  C   UNL     1     139.251  70.063 223.398 -0.26 -0.01    +0.031 A  
DOCKED: ATOM     23  C   UNL     1     140.322  71.098 225.743 -0.52 -0.01    +0.071 A  
DOCKED: ATOM     24  C   UNL     1     139.422  69.223 224.502 -0.34 -0.00    +0.013 A  
DOCKED: ATOM     25  C   UNL     1     140.850  71.630 226.925 -0.72 -0.01    +0.032 A  
DOCKED: ATOM     26  C   UNL     1     139.953  69.736 225.690 -0.46 -0.00    +0.003 A  
DOCKED: ATOM     27  C   UNL     1     141.021  70.809 228.045 -0.64 -0.01    +0.041 A  
DOCKED: ATOM     28  C   UNL     1     140.130  68.919 226.819 -0.55 -0.01    +0.049 A  
DOCKED: ATOM     29  C   UNL     1     140.666  69.456 227.991 -0.52 -0.02    +0.123 A  
DOCKED: ATOM     30  F   UNL     1     140.835  68.666 229.078 -0.14 +0.05    -0.207 F  
DOCKED: ENDBRANCH  18  20
DOCKED: ENDBRANCH  17  18
DOCKED: ENDBRANCH   1  17
DOCKED: TORSDOF 7
DOCKED: TER
DOCKED: ENDMDL
________________________________________________________________________________


    FINAL DOCKED STATE:
    ________________________


Run:   12 / 20
Time taken for this run:   0.051s

DOCKED: MODEL        12
DOCKED: USER    Run = 12
DOCKED: USER
DOCKED: USER    Estimated Free Energy of Binding    =  -8.10 kcal/mol  [=(1)+(2)+(3)-(4)]
DOCKED: USER
DOCKED: USER    (1) Final Intermolecular Energy     = -10.19 kcal/mol
DOCKED: USER        vdW + Hbond + desolv Energy     = -10.35 kcal/mol
DOCKED: USER        Electrostatic Energy            =  +0.16 kcal/mol
DOCKED: USER        Moving Ligand-Fixed Receptor    = -10.19 kcal/mol
DOCKED: USER        Moving Ligand-Moving Receptor   =  +0.00 kcal/mol
DOCKED: USER    (2) Final Total Internal Energy     =  -2.20 kcal/mol
DOCKED: USER    (3) Torsional Free Energy           =  +2.09 kcal/mol
DOCKED: USER    (4) Unbound System's Energy         =  -2.20 kcal/mol
DOCKED: USER
DOCKED: USER
DOCKED: REMARK SMILES O=C([N-]/C=C(\O)N1CCCC[C@@H]1C1CCCCC1)c1ccc2cc(F)ccc2n1
DOCKED: REMARK SMILES IDX 4 1 5 2 6 3 7 5 8 6 12 7 9 8 11 9 10 10 13 11 14 12 18 13
DOCKED: REMARK SMILES IDX 15 14 17 15 16 16 3 17 2 18 1 19 19 20 29 21 20 22 28 23
DOCKED: REMARK SMILES IDX 21 24 27 25 22 26 26 27 23 28 24 29 25 30
DOCKED: REMARK H PARENT 6 4
DOCKED: USER                              x       y       z     vdW  Elec       q    Type
DOCKED: USER                           _______ _______ _______ _____ _____    ______ ____
DOCKED: ROOT
DOCKED: ATOM      1  C   UNL     1     141.165  73.575 221.423 -0.24 +0.01    -0.069 C  
DOCKED: ENDROOT
DOCKED: BRANCH   1   2
DOCKED: ATOM      2  C   UNL     1     140.781  74.845 221.571 -0.26 -0.03    +0.164 C  
DOCKED: BRANCH   2   3
DOCKED: ATOM      3  O   UNL     1     139.662  75.185 222.341 -0.54 +0.07    -0.496 OA 
DOCKED: ATOM      4  H   UNL     1     139.030  74.491 222.720 -0.46 -0.09    +0.295 HD 
DOCKED: ENDBRANCH   2   3
DOCKED: BRANCH   2   5
DOCKED: ATOM      5  N   UNL     1     141.525  75.890 220.927 -0.14 +0.15    -0.342 N  
DOCKED: ATOM      6  C   UNL     1     142.590  75.517 219.995 -0.27 -0.06    +0.120 C  
DOCKED: ATOM      7  C   UNL     1     140.939  77.241 220.823 -0.25 -0.04    +0.088 C  
DOCKED: ATOM      8  C   UNL     1     142.076  75.584 218.545 -0.16 -0.01    +0.022 C  
DOCKED: ATOM      9  C   UNL     1     140.837  77.663 219.328 -0.15 -0.01    +0.025 C  
DOCKED: ATOM     10  C   UNL     1     140.811  76.450 218.391 -0.08 -0.00    +0.004 C  
DOCKED: BRANCH   7  11
DOCKED: ATOM     11  C   UNL     1     141.771  78.275 221.646 -0.31 -0.01    +0.012 C  
DOCKED: ATOM     12  C   UNL     1     141.814  79.668 220.944 -0.36 -0.00    +0.006 C  
DOCKED: ATOM     13  C   UNL     1     141.278  78.373 223.110 -0.53 -0.00    +0.006 C  
DOCKED: ATOM     14  C   UNL     1     141.087  80.766 221.730 -0.39 -0.00    +0.000 C  
DOCKED: ATOM     15  C   UNL     1     141.915  79.559 223.844 -0.62 -0.00    +0.000 C  
DOCKED: ATOM     16  C   UNL     1     141.668  80.910 223.143 -0.58 -0.00    +0.000 C  
DOCKED: ENDBRANCH   7  11
DOCKED: ENDBRANCH   2   5
DOCKED: ENDBRANCH   1   2
DOCKED: BRANCH   1  17
DOCKED: ATOM     17  N   UNL     1     140.208  72.519 221.308 -0.02 +0.09    -0.623 NA 
DOCKED: BRANCH  17  18
DOCKED: ATOM     18  C   UNL     1     139.240  72.235 222.321 -0.22 -0.02    +0.104 C  
DOCKED: ATOM     19  O   UNL     1     138.139  72.842 222.294 -0.12 +0.10    -0.313 OA 
DOCKED: BRANCH  18  20
DOCKED: ATOM     20  C   UNL     1     139.545  71.321 223.438 -0.31 -0.02    +0.089 A  
DOCKED: ATOM     21  N   UNL     1     140.070  71.821 224.590 -0.22 +0.05    -0.246 NA 
DOCKED: ATOM     22  C   UNL     1     139.234  69.954 223.354 -0.25 -0.01    +0.031 A  
DOCKED: ATOM     23  C   UNL     1     140.306  71.037 225.677 -0.51 -0.01    +0.071 A  
DOCKED: ATOM     24  C   UNL     1     139.470  69.122 224.452 -0.32 -0.00    +0.013 A  
DOCKED: ATOM     25  C   UNL     1     140.834  71.592 226.849 -0.71 -0.01    +0.032 A  
DOCKED: ATOM     26  C   UNL     1     140.003  69.658 225.629 -0.46 -0.00    +0.003 A  
DOCKED: ATOM     27  C   UNL     1     141.070  70.779 227.962 -0.65 -0.01    +0.041 A  
DOCKED: ATOM     28  C   UNL     1     140.244  68.850 226.752 -0.56 -0.01    +0.049 A  
DOCKED: ATOM     29  C   UNL     1     140.780  69.411 227.913 -0.51 -0.02    +0.123 A  
DOCKED: ATOM     30  F   UNL     1     141.012  68.628 228.994 -0.15 +0.05    -0.207 F  
DOCKED: ENDBRANCH  18  20
DOCKED: ENDBRANCH  17  18
DOCKED: ENDBRANCH   1  17
DOCKED: TORSDOF 7
DOCKED: TER
DOCKED: ENDMDL
________________________________________________________________________________


    FINAL DOCKED STATE:
    ________________________


Run:   13 / 20
Time taken for this run:   0.051s

DOCKED: MODEL        13
DOCKED: USER    Run = 13
DOCKED: USER
DOCKED: USER    Estimated Free Energy of Binding    =  -7.93 kcal/mol  [=(1)+(2)+(3)-(4)]
DOCKED: USER
DOCKED: USER    (1) Final Intermolecular Energy     = -10.02 kcal/mol
DOCKED: USER        vdW + Hbond + desolv Energy     = -10.11 kcal/mol
DOCKED: USER        Electrostatic Energy            =  +0.09 kcal/mol
DOCKED: USER        Moving Ligand-Fixed Receptor    = -10.02 kcal/mol
DOCKED: USER        Moving Ligand-Moving Receptor   =  +0.00 kcal/mol
DOCKED: USER    (2) Final Total Internal Energy     =  -2.10 kcal/mol
DOCKED: USER    (3) Torsional Free Energy           =  +2.09 kcal/mol
DOCKED: USER    (4) Unbound System's Energy         =  -2.10 kcal/mol
DOCKED: USER
DOCKED: USER
DOCKED: REMARK SMILES O=C([N-]/C=C(\O)N1CCCC[C@@H]1C1CCCCC1)c1ccc2cc(F)ccc2n1
DOCKED: REMARK SMILES IDX 4 1 5 2 6 3 7 5 8 6 12 7 9 8 11 9 10 10 13 11 14 12 18 13
DOCKED: REMARK SMILES IDX 15 14 17 15 16 16 3 17 2 18 1 19 19 20 29 21 20 22 28 23
DOCKED: REMARK SMILES IDX 21 24 27 25 22 26 26 27 23 28 24 29 25 30
DOCKED: REMARK H PARENT 6 4
DOCKED: USER                              x       y       z     vdW  Elec       q    Type
DOCKED: USER                           _______ _______ _______ _____ _____    ______ ____
DOCKED: ROOT
DOCKED: ATOM      1  C   UNL     1     140.452  74.814 221.266 -0.27 +0.01    -0.069 C  
DOCKED: ENDROOT
DOCKED: BRANCH   1   2
DOCKED: ATOM      2  C   UNL     1     141.672  74.918 220.734 -0.23 -0.05    +0.164 C  
DOCKED: BRANCH   2   3
DOCKED: ATOM      3  O   UNL     1     142.468  73.789 220.503 -0.08 +0.11    -0.496 OA 
DOCKED: ATOM      4  H   UNL     1     142.184  72.857 220.781 +0.11 -0.04    +0.295 HD 
DOCKED: ENDBRANCH   2   3
DOCKED: BRANCH   2   5
DOCKED: ATOM      5  N   UNL     1     142.188  76.212 220.390 -0.12 +0.19    -0.342 N  
DOCKED: ATOM      6  C   UNL     1     143.365  76.286 219.522 -0.33 -0.08    +0.120 C  
DOCKED: ATOM      7  C   UNL     1     141.311  77.395 220.489 -0.25 -0.04    +0.088 C  
DOCKED: ATOM      8  C   UNL     1     142.938  76.551 218.067 -0.28 -0.01    +0.022 C  
DOCKED: ATOM      9  C   UNL     1     141.203  78.095 219.102 -0.19 -0.01    +0.025 C  
DOCKED: ATOM     10  C   UNL     1     141.517  77.135 217.950 -0.15 -0.00    +0.004 C  
DOCKED: BRANCH   7  11
DOCKED: ATOM     11  C   UNL     1     141.827  78.383 221.582 -0.33 -0.01    +0.012 C  
DOCKED: ATOM     12  C   UNL     1     141.832  79.857 221.069 -0.38 -0.00    +0.006 C  
DOCKED: ATOM     13  C   UNL     1     141.046  78.229 222.910 -0.50 -0.00    +0.006 C  
DOCKED: ATOM     14  C   UNL     1     140.832  80.758 221.804 -0.36 -0.00    +0.000 C  
DOCKED: ATOM     15  C   UNL     1     141.371  79.360 223.893 -0.58 -0.00    +0.000 C  
DOCKED: ATOM     16  C   UNL     1     141.100  80.763 223.315 -0.52 -0.00    +0.000 C  
DOCKED: ENDBRANCH   7  11
DOCKED: ENDBRANCH   2   5
DOCKED: ENDBRANCH   1   2
DOCKED: BRANCH   1  17
DOCKED: ATOM     17  N   UNL     1     140.181  73.894 222.326 -0.59 -0.00    -0.623 NA 
DOCKED: BRANCH  17  18
DOCKED: ATOM     18  C   UNL     1     140.333  72.480 222.184 -0.27 -0.01    +0.104 C  
DOCKED: ATOM     19  O   UNL     1     140.528  72.003 221.037 -0.10 +0.05    -0.313 OA 
DOCKED: BRANCH  18  20
DOCKED: ATOM     20  C   UNL     1     140.174  71.572 223.337 -0.33 -0.01    +0.089 A  
DOCKED: ATOM     21  N   UNL     1     140.702  71.920 224.542 -0.23 +0.03    -0.246 NA 
DOCKED: ATOM     22  C   UNL     1     139.424  70.390 223.224 -0.26 -0.01    +0.031 A  
DOCKED: ATOM     23  C   UNL     1     140.526  71.157 225.656 -0.53 -0.01    +0.071 A  
DOCKED: ATOM     24  C   UNL     1     139.232  69.583 224.348 -0.33 -0.00    +0.013 A  
DOCKED: ATOM     25  C   UNL     1     141.073  71.557 226.881 -0.72 -0.01    +0.032 A  
DOCKED: ATOM     26  C   UNL     1     139.776  69.963 225.579 -0.46 -0.00    +0.003 A  
DOCKED: ATOM     27  C   UNL     1     140.885  70.768 228.020 -0.64 -0.01    +0.041 A  
DOCKED: ATOM     28  C   UNL     1     139.593  69.177 226.728 -0.50 -0.01    +0.049 A  
DOCKED: ATOM     29  C   UNL     1     140.151  69.579 227.944 -0.52 -0.02    +0.123 A  
DOCKED: ATOM     30  F   UNL     1     139.973  68.818 229.051 -0.15 +0.03    -0.207 F  
DOCKED: ENDBRANCH  18  20
DOCKED: ENDBRANCH  17  18
DOCKED: ENDBRANCH   1  17
DOCKED: TORSDOF 7
DOCKED: TER
DOCKED: ENDMDL
________________________________________________________________________________


    FINAL DOCKED STATE:
    ________________________


Run:   14 / 20
Time taken for this run:   0.051s

DOCKED: MODEL        14
DOCKED: USER    Run = 14
DOCKED: USER
DOCKED: USER    Estimated Free Energy of Binding    =  -7.74 kcal/mol  [=(1)+(2)+(3)-(4)]
DOCKED: USER
DOCKED: USER    (1) Final Intermolecular Energy     =  -9.83 kcal/mol
DOCKED: USER        vdW + Hbond + desolv Energy     =  -9.97 kcal/mol
DOCKED: USER        Electrostatic Energy            =  +0.14 kcal/mol
DOCKED: USER        Moving Ligand-Fixed Receptor    =  -9.83 kcal/mol
DOCKED: USER        Moving Ligand-Moving Receptor   =  +0.00 kcal/mol
DOCKED: USER    (2) Final Total Internal Energy     =  -2.19 kcal/mol
DOCKED: USER    (3) Torsional Free Energy           =  +2.09 kcal/mol
DOCKED: USER    (4) Unbound System's Energy         =  -2.19 kcal/mol
DOCKED: USER
DOCKED: USER
DOCKED: REMARK SMILES O=C([N-]/C=C(\O)N1CCCC[C@@H]1C1CCCCC1)c1ccc2cc(F)ccc2n1
DOCKED: REMARK SMILES IDX 4 1 5 2 6 3 7 5 8 6 12 7 9 8 11 9 10 10 13 11 14 12 18 13
DOCKED: REMARK SMILES IDX 15 14 17 15 16 16 3 17 2 18 1 19 19 20 29 21 20 22 28 23
DOCKED: REMARK SMILES IDX 21 24 27 25 22 26 26 27 23 28 24 29 25 30
DOCKED: REMARK H PARENT 6 4
DOCKED: USER                              x       y       z     vdW  Elec       q    Type
DOCKED: USER                           _______ _______ _______ _____ _____    ______ ____
DOCKED: ROOT
DOCKED: ATOM      1  C   UNL     1     142.057  73.902 220.855 -0.24 +0.01    -0.069 C  
DOCKED: ENDROOT
DOCKED: BRANCH   1   2
DOCKED: ATOM      2  C   UNL     1     141.377  74.925 220.333 -0.18 -0.05    +0.164 C  
DOCKED: BRANCH   2   3
DOCKED: ATOM      3  O   UNL     1     140.026  74.803 219.985 +0.00 +0.12    -0.496 OA 
DOCKED: ATOM      4  H   UNL     1     139.441  74.051 220.329 +0.06 -0.06    +0.295 HD 
DOCKED: ENDBRANCH   2   3
DOCKED: BRANCH   2   5
DOCKED: ATOM      5  N   UNL     1     142.038  76.181 220.118 -0.13 +0.17    -0.342 N  
DOCKED: ATOM      6  C   UNL     1     143.266  76.195 219.320 -0.33 -0.07    +0.120 C  
DOCKED: ATOM      7  C   UNL     1     141.278  77.438 220.262 -0.23 -0.04    +0.088 C  
DOCKED: ATOM      8  C   UNL     1     142.954  76.606 217.870 -0.28 -0.01    +0.022 C  
DOCKED: ATOM      9  C   UNL     1     141.322  78.242 218.930 -0.19 -0.01    +0.025 C  
DOCKED: ATOM     10  C   UNL     1     141.608  77.340 217.724 -0.16 -0.00    +0.004 C  
DOCKED: BRANCH   7  11
DOCKED: ATOM     11  C   UNL     1     141.823  78.286 221.454 -0.32 -0.01    +0.012 C  
DOCKED: ATOM     12  C   UNL     1     141.873  79.806 221.102 -0.37 -0.00    +0.006 C  
DOCKED: ATOM     13  C   UNL     1     141.038  78.013 222.759 -0.48 -0.00    +0.006 C  
DOCKED: ATOM     14  C   UNL     1     140.901  80.652 221.933 -0.38 -0.00    +0.000 C  
DOCKED: ATOM     15  C   UNL     1     141.397  79.021 223.858 -0.61 -0.00    +0.000 C  
DOCKED: ATOM     16  C   UNL     1     141.168  80.486 223.435 -0.54 -0.00    +0.000 C  
DOCKED: ENDBRANCH   7  11
DOCKED: ENDBRANCH   2   5
DOCKED: ENDBRANCH   1   2
DOCKED: BRANCH   1  17
DOCKED: ATOM     17  N   UNL     1     141.387  72.739 221.347 -0.02 +0.07    -0.623 NA 
DOCKED: BRANCH  17  18
DOCKED: ATOM     18  C   UNL     1     140.345  72.799 222.324 -0.26 -0.01    +0.104 C  
DOCKED: ATOM     19  O   UNL     1     139.598  73.810 222.352 -0.78 +0.05    -0.313 OA 
DOCKED: BRANCH  18  20
DOCKED: ATOM     20  C   UNL     1     140.193  71.748 223.348 -0.33 -0.01    +0.089 A  
DOCKED: ATOM     21  N   UNL     1     140.703  71.947 224.595 -0.20 +0.03    -0.246 NA 
DOCKED: ATOM     22  C   UNL     1     139.468  70.577 223.076 -0.26 -0.01    +0.031 A  
DOCKED: ATOM     23  C   UNL     1     140.532  71.044 225.599 -0.52 -0.01    +0.071 A  
DOCKED: ATOM     24  C   UNL     1     139.281  69.629 224.084 -0.31 -0.00    +0.013 A  
DOCKED: ATOM     25  C   UNL     1     141.060  71.293 226.871 -0.69 -0.01    +0.032 A  
DOCKED: ATOM     26  C   UNL     1     139.806  69.857 225.360 -0.44 -0.00    +0.003 A  
DOCKED: ATOM     27  C   UNL     1     140.877  70.361 227.897 -0.60 -0.01    +0.041 A  
DOCKED: ATOM     28  C   UNL     1     139.628  68.926 226.397 -0.50 -0.01    +0.049 A  
DOCKED: ATOM     29  C   UNL     1     140.167  69.178 227.661 -0.52 -0.02    +0.123 A  
DOCKED: ATOM     30  F   UNL     1     139.993  68.278 228.658 -0.16 +0.04    -0.207 F  
DOCKED: ENDBRANCH  18  20
DOCKED: ENDBRANCH  17  18
DOCKED: ENDBRANCH   1  17
DOCKED: TORSDOF 7
DOCKED: TER
DOCKED: ENDMDL
________________________________________________________________________________


    FINAL DOCKED STATE:
    ________________________


Run:   15 / 20
Time taken for this run:   0.051s

DOCKED: MODEL        15
DOCKED: USER    Run = 15
DOCKED: USER
DOCKED: USER    Estimated Free Energy of Binding    =  -7.69 kcal/mol  [=(1)+(2)+(3)-(4)]
DOCKED: USER
DOCKED: USER    (1) Final Intermolecular Energy     =  -9.78 kcal/mol
DOCKED: USER        vdW + Hbond + desolv Energy     = -10.00 kcal/mol
DOCKED: USER        Electrostatic Energy            =  +0.21 kcal/mol
DOCKED: USER        Moving Ligand-Fixed Receptor    =  -9.78 kcal/mol
DOCKED: USER        Moving Ligand-Moving Receptor   =  +0.00 kcal/mol
DOCKED: USER    (2) Final Total Internal Energy     =  -2.20 kcal/mol
DOCKED: USER    (3) Torsional Free Energy           =  +2.09 kcal/mol
DOCKED: USER    (4) Unbound System's Energy         =  -2.20 kcal/mol
DOCKED: USER
DOCKED: USER
DOCKED: REMARK SMILES O=C([N-]/C=C(\O)N1CCCC[C@@H]1C1CCCCC1)c1ccc2cc(F)ccc2n1
DOCKED: REMARK SMILES IDX 4 1 5 2 6 3 7 5 8 6 12 7 9 8 11 9 10 10 13 11 14 12 18 13
DOCKED: REMARK SMILES IDX 15 14 17 15 16 16 3 17 2 18 1 19 19 20 29 21 20 22 28 23
DOCKED: REMARK SMILES IDX 21 24 27 25 22 26 26 27 23 28 24 29 25 30
DOCKED: REMARK H PARENT 6 4
DOCKED: USER                              x       y       z     vdW  Elec       q    Type
DOCKED: USER                           _______ _______ _______ _____ _____    ______ ____
DOCKED: ROOT
DOCKED: ATOM      1  C   UNL     1     139.875  74.842 221.342 -0.25 +0.01    -0.069 C  
DOCKED: ENDROOT
DOCKED: BRANCH   1   2
DOCKED: ATOM      2  C   UNL     1     141.031  75.495 221.197 -0.26 -0.05    +0.164 C  
DOCKED: BRANCH   2   3
DOCKED: ATOM      3  O   UNL     1     142.256  74.818 221.178 -0.10 +0.17    -0.496 OA 
DOCKED: ATOM      4  H   UNL     1     142.339  73.836 221.412 +0.13 -0.04    +0.295 HD 
DOCKED: ENDBRANCH   2   3
DOCKED: BRANCH   2   5
DOCKED: ATOM      5  N   UNL     1     141.026  76.924 221.061 -0.12 +0.14    -0.342 N  
DOCKED: ATOM      6  C   UNL     1     141.936  77.536 220.092 -0.26 -0.07    +0.120 C  
DOCKED: ATOM      7  C   UNL     1     139.843  77.692 221.498 -0.22 -0.02    +0.088 C  
DOCKED: ATOM      8  C   UNL     1     141.191  77.843 218.780 -0.17 -0.01    +0.022 C  
DOCKED: ATOM      9  C   UNL     1     139.265  78.504 220.303 -0.10 -0.01    +0.025 C  
DOCKED: ATOM     10  C   UNL     1     139.662  77.898 218.952 -0.06 -0.00    +0.004 C  
DOCKED: BRANCH   7  11
DOCKED: ATOM     11  C   UNL     1     140.198  78.626 222.698 -0.41 -0.00    +0.012 C  
DOCKED: ATOM     12  C   UNL     1     141.603  78.292 223.291 -0.49 -0.00    +0.006 C  
DOCKED: ATOM     13  C   UNL     1     140.064  80.121 222.320 -0.32 -0.00    +0.006 C  
DOCKED: ATOM     14  C   UNL     1     142.627  79.416 223.094 -0.60 -0.00    +0.000 C  
DOCKED: ATOM     15  C   UNL     1     140.653  81.034 223.402 -0.44 -0.00    +0.000 C  
DOCKED: ATOM     16  C   UNL     1     142.132  80.729 223.714 -0.65 -0.00    +0.000 C  
DOCKED: ENDBRANCH   7  11
DOCKED: ENDBRANCH   2   5
DOCKED: ENDBRANCH   1   2
DOCKED: BRANCH   1  17
DOCKED: ATOM     17  N   UNL     1     139.712  73.838 222.347 -0.60 +0.08    -0.623 NA 
DOCKED: BRANCH  17  18
DOCKED: ATOM     18  C   UNL     1     140.382  72.577 222.300 -0.28 -0.01    +0.104 C  
DOCKED: ATOM     19  O   UNL     1     141.032  72.274 221.268 -0.14 +0.04    -0.313 OA 
DOCKED: BRANCH  18  20
DOCKED: ATOM     20  C   UNL     1     140.247  71.596 223.394 -0.34 -0.01    +0.089 A  
DOCKED: ATOM     21  N   UNL     1     140.721  71.904 224.633 -0.24 +0.03    -0.246 NA 
DOCKED: ATOM     22  C   UNL     1     139.573  70.381 223.193 -0.26 -0.01    +0.031 A  
DOCKED: ATOM     23  C   UNL     1     140.562  71.068 225.696 -0.53 -0.01    +0.071 A  
DOCKED: ATOM     24  C   UNL     1     139.400  69.500 224.263 -0.32 -0.00    +0.013 A  
DOCKED: ATOM     25  C   UNL     1     141.052  71.428 226.957 -0.71 -0.01    +0.032 A  
DOCKED: ATOM     26  C   UNL     1     139.887  69.839 225.529 -0.45 -0.00    +0.003 A  
DOCKED: ATOM     27  C   UNL     1     140.881  70.565 228.044 -0.61 -0.01    +0.041 A  
DOCKED: ATOM     28  C   UNL     1     139.722  68.978 226.627 -0.51 -0.01    +0.049 A  
DOCKED: ATOM     29  C   UNL     1     140.222  69.341 227.879 -0.52 -0.02    +0.123 A  
DOCKED: ATOM     30  F   UNL     1     140.061  68.508 228.936 -0.16 +0.04    -0.207 F  
DOCKED: ENDBRANCH  18  20
DOCKED: ENDBRANCH  17  18
DOCKED: ENDBRANCH   1  17
DOCKED: TORSDOF 7
DOCKED: TER
DOCKED: ENDMDL
________________________________________________________________________________


    FINAL DOCKED STATE:
    ________________________


Run:   16 / 20
Time taken for this run:   0.051s

DOCKED: MODEL        16
DOCKED: USER    Run = 16
DOCKED: USER
DOCKED: USER    Estimated Free Energy of Binding    =  -7.04 kcal/mol  [=(1)+(2)+(3)-(4)]
DOCKED: USER
DOCKED: USER    (1) Final Intermolecular Energy     =  -9.13 kcal/mol
DOCKED: USER        vdW + Hbond + desolv Energy     =  -9.27 kcal/mol
DOCKED: USER        Electrostatic Energy            =  +0.14 kcal/mol
DOCKED: USER        Moving Ligand-Fixed Receptor    =  -9.13 kcal/mol
DOCKED: USER        Moving Ligand-Moving Receptor   =  +0.00 kcal/mol
DOCKED: USER    (2) Final Total Internal Energy     =  -2.55 kcal/mol
DOCKED: USER    (3) Torsional Free Energy           =  +2.09 kcal/mol
DOCKED: USER    (4) Unbound System's Energy         =  -2.55 kcal/mol
DOCKED: USER
DOCKED: USER
DOCKED: REMARK SMILES O=C([N-]/C=C(\O)N1CCCC[C@@H]1C1CCCCC1)c1ccc2cc(F)ccc2n1
DOCKED: REMARK SMILES IDX 4 1 5 2 6 3 7 5 8 6 12 7 9 8 11 9 10 10 13 11 14 12 18 13
DOCKED: REMARK SMILES IDX 15 14 17 15 16 16 3 17 2 18 1 19 19 20 29 21 20 22 28 23
DOCKED: REMARK SMILES IDX 21 24 27 25 22 26 26 27 23 28 24 29 25 30
DOCKED: REMARK H PARENT 6 4
DOCKED: USER                              x       y       z     vdW  Elec       q    Type
DOCKED: USER                           _______ _______ _______ _____ _____    ______ ____
DOCKED: ROOT
DOCKED: ATOM      1  C   UNL     1     136.440  69.761 223.077 -0.14 +0.01    -0.069 C  
DOCKED: ENDROOT
DOCKED: BRANCH   1   2
DOCKED: ATOM      2  C   UNL     1     137.300  70.641 223.597 -0.17 -0.03    +0.164 C  
DOCKED: BRANCH   2   3
DOCKED: ATOM      3  O   UNL     1     136.858  71.825 224.199 -0.05 +0.13    -0.496 OA 
DOCKED: ATOM      4  H   UNL     1     135.884  71.994 224.420 +0.07 -0.05    +0.295 HD 
DOCKED: ENDBRANCH   2   3
DOCKED: BRANCH   2   5
DOCKED: ATOM      5  N   UNL     1     138.709  70.375 223.539 -0.11 +0.06    -0.342 N  
DOCKED: ATOM      6  C   UNL     1     139.249  69.733 222.339 -0.14 -0.02    +0.120 C  
DOCKED: ATOM      7  C   UNL     1     139.630  71.139 224.404 -0.38 -0.02    +0.088 C  
DOCKED: ATOM      8  C   UNL     1     139.850  70.789 221.394 -0.16 -0.00    +0.022 C  
DOCKED: ATOM      9  C   UNL     1     140.676  71.892 223.531 -0.28 -0.00    +0.025 C  
DOCKED: ATOM     10  C   UNL     1     140.174  72.119 222.101 -0.29 -0.00    +0.004 C  
DOCKED: BRANCH   7  11
DOCKED: ATOM     11  C   UNL     1     140.326  70.203 225.441 -0.50 -0.00    +0.012 C  
DOCKED: ATOM     12  C   UNL     1     140.987  71.018 226.597 -0.67 -0.00    +0.006 C  
DOCKED: ATOM     13  C   UNL     1     139.361  69.116 225.971 -0.49 -0.00    +0.006 C  
DOCKED: ATOM     14  C   UNL     1     140.327  70.781 227.961 -0.71 -0.00    +0.000 C  
DOCKED: ATOM     15  C   UNL     1     139.956  68.364 227.167 -0.66 -0.00    +0.000 C  
DOCKED: ATOM     16  C   UNL     1     140.348  69.293 228.334 -0.64 -0.00    +0.000 C  
DOCKED: ENDBRANCH   7  11
DOCKED: ENDBRANCH   2   5
DOCKED: ENDBRANCH   1   2
DOCKED: BRANCH   1  17
DOCKED: ATOM     17  N   UNL     1     135.065  69.748 223.467 +0.02 +0.07    -0.623 NA 
DOCKED: BRANCH  17  18
DOCKED: ATOM     18  C   UNL     1     134.644  69.597 224.825 -0.19 -0.01    +0.104 C  
DOCKED: ATOM     19  O   UNL     1     134.698  68.458 225.354 -0.56 +0.01    -0.313 OA 
DOCKED: BRANCH  18  20
DOCKED: ATOM     20  C   UNL     1     134.068  70.727 225.579 -0.23 -0.01    +0.089 A  
DOCKED: ATOM     21  N   UNL     1     134.488  71.994 225.314 -0.13 +0.02    -0.246 NA 
DOCKED: ATOM     22  C   UNL     1     133.040  70.519 226.513 -0.28 -0.00    +0.031 A  
DOCKED: ATOM     23  C   UNL     1     133.942  73.080 225.927 -0.30 +0.00    +0.071 A  
DOCKED: ATOM     24  C   UNL     1     132.464  71.613 227.164 -0.35 -0.00    +0.013 A  
DOCKED: ATOM     25  C   UNL     1     134.394  74.369 225.617 -0.34 -0.00    +0.032 A  
DOCKED: ATOM     26  C   UNL     1     132.906  72.908 226.871 -0.41 -0.00    +0.003 A  
DOCKED: ATOM     27  C   UNL     1     133.825  75.479 226.250 -0.37 -0.00    +0.041 A  
DOCKED: ATOM     28  C   UNL     1     132.342  74.029 227.502 -0.39 -0.00    +0.049 A  
DOCKED: ATOM     29  C   UNL     1     132.804  75.310 227.193 -0.33 +0.00    +0.123 A  
DOCKED: ATOM     30  F   UNL     1     132.258  76.388 227.804 -0.10 -0.01    -0.207 F  
DOCKED: ENDBRANCH  18  20
DOCKED: ENDBRANCH  17  18
DOCKED: ENDBRANCH   1  17
DOCKED: TORSDOF 7
DOCKED: TER
DOCKED: ENDMDL
________________________________________________________________________________


    FINAL DOCKED STATE:
    ________________________


Run:   17 / 20
Time taken for this run:   0.051s

DOCKED: MODEL        17
DOCKED: USER    Run = 17
DOCKED: USER
DOCKED: USER    Estimated Free Energy of Binding    =  -8.36 kcal/mol  [=(1)+(2)+(3)-(4)]
DOCKED: USER
DOCKED: USER    (1) Final Intermolecular Energy     = -10.45 kcal/mol
DOCKED: USER        vdW + Hbond + desolv Energy     = -10.49 kcal/mol
DOCKED: USER        Electrostatic Energy            =  +0.04 kcal/mol
DOCKED: USER        Moving Ligand-Fixed Receptor    = -10.45 kcal/mol
DOCKED: USER        Moving Ligand-Moving Receptor   =  +0.00 kcal/mol
DOCKED: USER    (2) Final Total Internal Energy     =  -1.68 kcal/mol
DOCKED: USER    (3) Torsional Free Energy           =  +2.09 kcal/mol
DOCKED: USER    (4) Unbound System's Energy         =  -1.68 kcal/mol
DOCKED: USER
DOCKED: USER
DOCKED: REMARK SMILES O=C([N-]/C=C(\O)N1CCCC[C@@H]1C1CCCCC1)c1ccc2cc(F)ccc2n1
DOCKED: REMARK SMILES IDX 4 1 5 2 6 3 7 5 8 6 12 7 9 8 11 9 10 10 13 11 14 12 18 13
DOCKED: REMARK SMILES IDX 15 14 17 15 16 16 3 17 2 18 1 19 19 20 29 21 20 22 28 23
DOCKED: REMARK SMILES IDX 21 24 27 25 22 26 26 27 23 28 24 29 25 30
DOCKED: REMARK H PARENT 6 4
DOCKED: USER                              x       y       z     vdW  Elec       q    Type
DOCKED: USER                           _______ _______ _______ _____ _____    ______ ____
DOCKED: ROOT
DOCKED: ATOM      1  C   UNL     1     140.191  74.909 221.730 -0.26 +0.01    -0.069 C  
DOCKED: ENDROOT
DOCKED: BRANCH   1   2
DOCKED: ATOM      2  C   UNL     1     139.727  76.108 222.091 -0.28 -0.03    +0.164 C  
DOCKED: BRANCH   2   3
DOCKED: ATOM      3  O   UNL     1     138.630  76.238 222.952 -0.13 +0.10    -0.496 OA 
DOCKED: ATOM      4  H   UNL     1     138.204  75.444 223.416 -0.32 -0.14    +0.295 HD 
DOCKED: ENDBRANCH   2   3
DOCKED: BRANCH   2   5
DOCKED: ATOM      5  N   UNL     1     140.358  77.295 221.588 -0.13 +0.11    -0.342 N  
DOCKED: ATOM      6  C   UNL     1     141.596  77.154 220.819 -0.21 -0.07    +0.120 C  
DOCKED: ATOM      7  C   UNL     1     139.563  78.528 221.423 -0.18 -0.02    +0.088 C  
DOCKED: ATOM      8  C   UNL     1     141.295  77.198 219.310 -0.19 -0.01    +0.022 C  
DOCKED: ATOM      9  C   UNL     1     139.606  78.993 219.937 -0.10 -0.01    +0.025 C  
DOCKED: ATOM     10  C   UNL     1     139.932  77.838 218.984 -0.08 -0.00    +0.004 C  
DOCKED: BRANCH   7  11
DOCKED: ATOM     11  C   UNL     1     140.070  79.650 222.382 -0.33 -0.00    +0.012 C  
DOCKED: ATOM     12  C   UNL     1     140.668  79.056 223.696 -0.47 -0.00    +0.006 C  
DOCKED: ATOM     13  C   UNL     1     141.056  80.609 221.673 -0.38 -0.00    +0.006 C  
DOCKED: ATOM     14  C   UNL     1     142.175  79.300 223.841 -0.57 -0.00    +0.000 C  
DOCKED: ATOM     15  C   UNL     1     141.747  81.548 222.668 -0.50 -0.00    +0.000 C  
DOCKED: ATOM     16  C   UNL     1     142.499  80.800 223.787 -0.68 -0.00    +0.000 C  
DOCKED: ENDBRANCH   7  11
DOCKED: ENDBRANCH   2   5
DOCKED: ENDBRANCH   1   2
DOCKED: BRANCH   1  17
DOCKED: ATOM     17  N   UNL     1     139.689  73.710 222.324 -0.58 +0.09    -0.623 NA 
DOCKED: BRANCH  17  18
DOCKED: ATOM     18  C   UNL     1     140.441  72.495 222.375 -0.27 -0.01    +0.104 C  
DOCKED: ATOM     19  O   UNL     1     141.194  72.207 221.411 -0.16 +0.03    -0.313 OA 
DOCKED: BRANCH  18  20
DOCKED: ATOM     20  C   UNL     1     140.278  71.540 223.488 -0.35 -0.01    +0.089 A  
DOCKED: ATOM     21  N   UNL     1     140.733  71.870 224.728 -0.25 +0.03    -0.246 NA 
DOCKED: ATOM     22  C   UNL     1     139.597  70.326 223.301 -0.26 -0.01    +0.031 A  
DOCKED: ATOM     23  C   UNL     1     140.548  71.060 225.805 -0.54 -0.01    +0.071 A  
DOCKED: ATOM     24  C   UNL     1     139.398  69.470 224.387 -0.33 -0.00    +0.013 A  
DOCKED: ATOM     25  C   UNL     1     141.019  71.443 227.067 -0.72 -0.01    +0.032 A  
DOCKED: ATOM     26  C   UNL     1     139.866  69.833 225.654 -0.46 -0.00    +0.003 A  
DOCKED: ATOM     27  C   UNL     1     140.822  70.605 228.169 -0.59 -0.01    +0.041 A  
DOCKED: ATOM     28  C   UNL     1     139.674  68.998 226.767 -0.52 -0.01    +0.049 A  
DOCKED: ATOM     29  C   UNL     1     140.155  69.383 228.020 -0.52 -0.02    +0.123 A  
DOCKED: ATOM     30  F   UNL     1     139.968  68.575 229.091 -0.14 +0.04    -0.207 F  
DOCKED: ENDBRANCH  18  20
DOCKED: ENDBRANCH  17  18
DOCKED: ENDBRANCH   1  17
DOCKED: TORSDOF 7
DOCKED: TER
DOCKED: ENDMDL
________________________________________________________________________________


    FINAL DOCKED STATE:
    ________________________


Run:   18 / 20
Time taken for this run:   0.051s

DOCKED: MODEL        18
DOCKED: USER    Run = 18
DOCKED: USER
DOCKED: USER    Estimated Free Energy of Binding    =  -6.21 kcal/mol  [=(1)+(2)+(3)-(4)]
DOCKED: USER
DOCKED: USER    (1) Final Intermolecular Energy     =  -8.30 kcal/mol
DOCKED: USER        vdW + Hbond + desolv Energy     =  -8.41 kcal/mol
DOCKED: USER        Electrostatic Energy            =  +0.11 kcal/mol
DOCKED: USER        Moving Ligand-Fixed Receptor    =  -8.30 kcal/mol
DOCKED: USER        Moving Ligand-Moving Receptor   =  +0.00 kcal/mol
DOCKED: USER    (2) Final Total Internal Energy     =  -3.22 kcal/mol
DOCKED: USER    (3) Torsional Free Energy           =  +2.09 kcal/mol
DOCKED: USER    (4) Unbound System's Energy         =  -3.22 kcal/mol
DOCKED: USER
DOCKED: USER
DOCKED: REMARK SMILES O=C([N-]/C=C(\O)N1CCCC[C@@H]1C1CCCCC1)c1ccc2cc(F)ccc2n1
DOCKED: REMARK SMILES IDX 4 1 5 2 6 3 7 5 8 6 12 7 9 8 11 9 10 10 13 11 14 12 18 13
DOCKED: REMARK SMILES IDX 15 14 17 15 16 16 3 17 2 18 1 19 19 20 29 21 20 22 28 23
DOCKED: REMARK SMILES IDX 21 24 27 25 22 26 26 27 23 28 24 29 25 30
DOCKED: REMARK H PARENT 6 4
DOCKED: USER                              x       y       z     vdW  Elec       q    Type
DOCKED: USER                           _______ _______ _______ _____ _____    ______ ____
DOCKED: ROOT
DOCKED: ATOM      1  C   UNL     1     138.035  74.755 220.558 -0.09 +0.01    -0.069 C  
DOCKED: ENDROOT
DOCKED: BRANCH   1   2
DOCKED: ATOM      2  C   UNL     1     139.302  74.821 220.972 -0.15 -0.04    +0.164 C  
DOCKED: BRANCH   2   3
DOCKED: ATOM      3  O   UNL     1     139.648  74.588 222.309 -0.66 +0.06    -0.496 OA 
DOCKED: ATOM      4  H   UNL     1     139.160  75.024 223.081 -0.43 -0.08    +0.295 HD 
DOCKED: ENDBRANCH   2   3
DOCKED: BRANCH   2   5
DOCKED: ATOM      5  N   UNL     1     140.339  75.141 220.032 -0.03 +0.09    -0.342 N  
DOCKED: ATOM      6  C   UNL     1     139.957  75.705 218.736 -0.03 -0.03    +0.120 C  
DOCKED: ATOM      7  C   UNL     1     141.717  75.358 220.516 -0.25 -0.03    +0.088 C  
DOCKED: ATOM      8  C   UNL     1     140.103  77.237 218.757 -0.07 -0.01    +0.022 C  
DOCKED: ATOM      9  C   UNL     1     142.200  76.785 220.123 -0.30 -0.02    +0.025 C  
DOCKED: ATOM     10  C   UNL     1     141.027  77.742 219.882 -0.22 -0.00    +0.004 C  
DOCKED: BRANCH   7  11
DOCKED: ATOM     11  C   UNL     1     142.681  74.262 219.962 -0.28 -0.00    +0.012 C  
DOCKED: ATOM     12  C   UNL     1     144.136  74.806 219.799 -0.37 -0.00    +0.006 C  
DOCKED: ATOM     13  C   UNL     1     142.633  72.972 220.815 -0.27 -0.00    +0.006 C  
DOCKED: ATOM     14  C   UNL     1     145.142  74.140 220.745 -0.54 -0.00    +0.000 C  
DOCKED: ATOM     15  C   UNL     1     143.754  71.998 220.433 -0.32 -0.00    +0.000 C  
DOCKED: ATOM     16  C   UNL     1     145.161  72.618 220.548 -0.49 -0.00    +0.000 C  
DOCKED: ENDBRANCH   7  11
DOCKED: ENDBRANCH   2   5
DOCKED: ENDBRANCH   1   2
DOCKED: BRANCH   1  17
DOCKED: ATOM     17  N   UNL     1     137.010  75.535 221.178 +0.02 +0.13    -0.623 NA 
DOCKED: BRANCH  17  18
DOCKED: ATOM     18  C   UNL     1     137.145  76.094 222.487 -0.22 -0.02    +0.104 C  
DOCKED: ATOM     19  O   UNL     1     136.500  75.579 223.436 -0.21 +0.09    -0.313 OA 
DOCKED: BRANCH  18  20
DOCKED: ATOM     20  C   UNL     1     137.948  77.309 222.722 -0.25 -0.02    +0.089 A  
DOCKED: ATOM     21  N   UNL     1     139.296  77.202 222.883 -0.06 +0.04    -0.246 NA 
DOCKED: ATOM     22  C   UNL     1     137.351  78.580 222.710 -0.20 -0.00    +0.031 A  
DOCKED: ATOM     23  C   UNL     1     140.095  78.294 223.033 -0.31 -0.01    +0.071 A  
DOCKED: ATOM     24  C   UNL     1     138.145  79.719 222.868 -0.26 -0.00    +0.013 A  
DOCKED: ATOM     25  C   UNL     1     141.479  78.141 223.182 -0.48 -0.01    +0.032 A  
DOCKED: ATOM     26  C   UNL     1     139.528  79.587 223.024 -0.37 -0.00    +0.003 A  
DOCKED: ATOM     27  C   UNL     1     142.293  79.269 223.333 -0.56 -0.02    +0.041 A  
DOCKED: ATOM     28  C   UNL     1     140.354  80.713 223.176 -0.40 -0.01    +0.049 A  
DOCKED: ATOM     29  C   UNL     1     141.732  80.551 223.334 -0.49 -0.03    +0.123 A  
DOCKED: ATOM     30  F   UNL     1     142.526  81.640 223.481 -0.15 +0.03    -0.207 F  
DOCKED: ENDBRANCH  18  20
DOCKED: ENDBRANCH  17  18
DOCKED: ENDBRANCH   1  17
DOCKED: TORSDOF 7
DOCKED: TER
DOCKED: ENDMDL
________________________________________________________________________________


    FINAL DOCKED STATE:
    ________________________


Run:   19 / 20
Time taken for this run:   0.051s

DOCKED: MODEL        19
DOCKED: USER    Run = 19
DOCKED: USER
DOCKED: USER    Estimated Free Energy of Binding    =  -7.74 kcal/mol  [=(1)+(2)+(3)-(4)]
DOCKED: USER
DOCKED: USER    (1) Final Intermolecular Energy     =  -9.83 kcal/mol
DOCKED: USER        vdW + Hbond + desolv Energy     =  -9.97 kcal/mol
DOCKED: USER        Electrostatic Energy            =  +0.14 kcal/mol
DOCKED: USER        Moving Ligand-Fixed Receptor    =  -9.83 kcal/mol
DOCKED: USER        Moving Ligand-Moving Receptor   =  +0.00 kcal/mol
DOCKED: USER    (2) Final Total Internal Energy     =  -2.26 kcal/mol
DOCKED: USER    (3) Torsional Free Energy           =  +2.09 kcal/mol
DOCKED: USER    (4) Unbound System's Energy         =  -2.26 kcal/mol
DOCKED: USER
DOCKED: USER
DOCKED: REMARK SMILES O=C([N-]/C=C(\O)N1CCCC[C@@H]1C1CCCCC1)c1ccc2cc(F)ccc2n1
DOCKED: REMARK SMILES IDX 4 1 5 2 6 3 7 5 8 6 12 7 9 8 11 9 10 10 13 11 14 12 18 13
DOCKED: REMARK SMILES IDX 15 14 17 15 16 16 3 17 2 18 1 19 19 20 29 21 20 22 28 23
DOCKED: REMARK SMILES IDX 21 24 27 25 22 26 26 27 23 28 24 29 25 30
DOCKED: REMARK H PARENT 6 4
DOCKED: USER                              x       y       z     vdW  Elec       q    Type
DOCKED: USER                           _______ _______ _______ _____ _____    ______ ____
DOCKED: ROOT
DOCKED: ATOM      1  C   UNL     1     140.992  75.111 221.794 -0.20 +0.01    -0.069 C  
DOCKED: ENDROOT
DOCKED: BRANCH   1   2
DOCKED: ATOM      2  C   UNL     1     141.360  75.443 220.554 -0.21 -0.06    +0.164 C  
DOCKED: BRANCH   2   3
DOCKED: ATOM      3  O   UNL     1     141.037  74.637 219.456 +0.01 +0.13    -0.496 OA 
DOCKED: ATOM      4  H   UNL     1     140.471  73.801 219.541 +0.06 -0.06    +0.295 HD 
DOCKED: ENDBRANCH   2   3
DOCKED: BRANCH   2   5
DOCKED: ATOM      5  N   UNL     1     142.106  76.649 220.335 -0.12 +0.21    -0.342 N  
DOCKED: ATOM      6  C   UNL     1     143.301  76.587 219.492 -0.29 -0.09    +0.120 C  
DOCKED: ATOM      7  C   UNL     1     141.449  77.957 220.530 -0.27 -0.05    +0.088 C  
DOCKED: ATOM      8  C   UNL     1     142.968  77.048 218.061 -0.30 -0.01    +0.022 C  
DOCKED: ATOM      9  C   UNL     1     141.505  78.781 219.210 -0.24 -0.01    +0.025 C  
DOCKED: ATOM     10  C   UNL     1     141.677  77.884 217.980 -0.20 -0.00    +0.004 C  
DOCKED: BRANCH   7  11
DOCKED: ATOM     11  C   UNL     1     142.101  78.738 221.714 -0.30 -0.01    +0.012 C  
DOCKED: ATOM     12  C   UNL     1     142.191  80.267 221.413 -0.40 -0.00    +0.006 C  
DOCKED: ATOM     13  C   UNL     1     141.385  78.448 223.055 -0.55 -0.00    +0.006 C  
DOCKED: ATOM     14  C   UNL     1     141.307  81.119 222.331 -0.47 -0.00    +0.000 C  
DOCKED: ATOM     15  C   UNL     1     141.852  79.400 224.163 -0.51 -0.00    +0.000 C  
DOCKED: ATOM     16  C   UNL     1     141.658  80.887 223.807 -0.57 -0.00    +0.000 C  
DOCKED: ENDBRANCH   7  11
DOCKED: ENDBRANCH   2   5
DOCKED: ENDBRANCH   1   2
DOCKED: BRANCH   1  17
DOCKED: ATOM     17  N   UNL     1     139.974  74.135 222.030 -0.64 +0.06    -0.623 NA 
DOCKED: BRANCH  17  18
DOCKED: ATOM     18  C   UNL     1     140.197  72.731 221.887 -0.26 -0.01    +0.104 C  
DOCKED: ATOM     19  O   UNL     1     140.380  72.259 220.736 -0.07 +0.05    -0.313 OA 
DOCKED: BRANCH  18  20
DOCKED: ATOM     20  C   UNL     1     140.124  71.821 223.047 -0.32 -0.01    +0.089 A  
DOCKED: ATOM     21  N   UNL     1     140.653  72.211 224.239 -0.07 +0.02    -0.246 NA 
DOCKED: ATOM     22  C   UNL     1     139.454  70.590 222.956 -0.25 -0.01    +0.031 A  
DOCKED: ATOM     23  C   UNL     1     140.553  71.445 225.360 -0.51 -0.01    +0.071 A  
DOCKED: ATOM     24  C   UNL     1     139.341  69.779 224.087 -0.31 -0.00    +0.013 A  
DOCKED: ATOM     25  C   UNL     1     141.098  71.888 226.571 -0.71 -0.00    +0.032 A  
DOCKED: ATOM     26  C   UNL     1     139.884  70.202 225.304 -0.46 -0.00    +0.003 A  
DOCKED: ATOM     27  C   UNL     1     140.988  71.095 227.717 -0.69 -0.01    +0.041 A  
DOCKED: ATOM     28  C   UNL     1     139.780  69.413 226.461 -0.48 -0.01    +0.049 A  
DOCKED: ATOM     29  C   UNL     1     140.335  69.859 227.663 -0.51 -0.02    +0.123 A  
DOCKED: ATOM     30  F   UNL     1     140.232  69.094 228.777 -0.15 +0.04    -0.207 F  
DOCKED: ENDBRANCH  18  20
DOCKED: ENDBRANCH  17  18
DOCKED: ENDBRANCH   1  17
DOCKED: TORSDOF 7
DOCKED: TER
DOCKED: ENDMDL
________________________________________________________________________________


    FINAL DOCKED STATE:
    ________________________


Run:   20 / 20
Time taken for this run:   0.051s

DOCKED: MODEL        20
DOCKED: USER    Run = 20
DOCKED: USER
DOCKED: USER    Estimated Free Energy of Binding    =  -8.41 kcal/mol  [=(1)+(2)+(3)-(4)]
DOCKED: USER
DOCKED: USER    (1) Final Intermolecular Energy     = -10.50 kcal/mol
DOCKED: USER        vdW + Hbond + desolv Energy     = -10.51 kcal/mol
DOCKED: USER        Electrostatic Energy            =  +0.02 kcal/mol
DOCKED: USER        Moving Ligand-Fixed Receptor    = -10.50 kcal/mol
DOCKED: USER        Moving Ligand-Moving Receptor   =  +0.00 kcal/mol
DOCKED: USER    (2) Final Total Internal Energy     =  -2.11 kcal/mol
DOCKED: USER    (3) Torsional Free Energy           =  +2.09 kcal/mol
DOCKED: USER    (4) Unbound System's Energy         =  -2.11 kcal/mol
DOCKED: USER
DOCKED: USER
DOCKED: REMARK SMILES O=C([N-]/C=C(\O)N1CCCC[C@@H]1C1CCCCC1)c1ccc2cc(F)ccc2n1
DOCKED: REMARK SMILES IDX 4 1 5 2 6 3 7 5 8 6 12 7 9 8 11 9 10 10 13 11 14 12 18 13
DOCKED: REMARK SMILES IDX 15 14 17 15 16 16 3 17 2 18 1 19 19 20 29 21 20 22 28 23
DOCKED: REMARK SMILES IDX 21 24 27 25 22 26 26 27 23 28 24 29 25 30
DOCKED: REMARK H PARENT 6 4
DOCKED: USER                              x       y       z     vdW  Elec       q    Type
DOCKED: USER                           _______ _______ _______ _____ _____    ______ ____
DOCKED: ROOT
DOCKED: ATOM      1  C   UNL     1     140.356  74.780 221.595 -0.30 +0.01    -0.069 C  
DOCKED: ENDROOT
DOCKED: BRANCH   1   2
DOCKED: ATOM      2  C   UNL     1     139.250  75.484 221.849 -0.24 -0.03    +0.164 C  
DOCKED: BRANCH   2   3
DOCKED: ATOM      3  O   UNL     1     138.092  74.874 222.346 -0.10 +0.17    -0.496 OA 
DOCKED: ATOM      4  H   UNL     1     138.102  73.958 222.777 -0.49 -0.17    +0.295 HD 
DOCKED: ENDBRANCH   2   3
DOCKED: BRANCH   2   5
DOCKED: ATOM      5  N   UNL     1     139.240  76.899 221.606 -0.10 +0.08    -0.342 N  
DOCKED: ATOM      6  C   UNL     1     138.539  77.398 220.422 -0.06 -0.03    +0.120 C  
DOCKED: ATOM      7  C   UNL     1     139.485  77.831 222.724 -0.27 -0.02    +0.088 C  
DOCKED: ATOM      8  C   UNL     1     137.132  77.893 220.804 -0.07 -0.00    +0.022 C  
DOCKED: ATOM      9  C   UNL     1     138.269  78.789 222.894 -0.25 -0.00    +0.025 C  
DOCKED: ATOM     10  C   UNL     1     136.984  78.194 222.307 -0.18 -0.00    +0.004 C  
DOCKED: BRANCH   7  11
DOCKED: ATOM     11  C   UNL     1     140.808  78.630 222.505 -0.44 -0.00    +0.012 C  
DOCKED: ATOM     12  C   UNL     1     140.598  79.834 221.534 -0.29 -0.00    +0.006 C  
DOCKED: ATOM     13  C   UNL     1     141.445  79.066 223.846 -0.61 -0.00    +0.006 C  
DOCKED: ATOM     14  C   UNL     1     140.776  81.198 222.211 -0.40 -0.00    +0.000 C  
DOCKED: ATOM     15  C   UNL     1     142.592  80.060 223.632 -0.65 -0.00    +0.000 C  
DOCKED: ATOM     16  C   UNL     1     142.166  81.319 222.850 -0.50 -0.00    +0.000 C  
DOCKED: ENDBRANCH   7  11
DOCKED: ENDBRANCH   2   5
DOCKED: ENDBRANCH   1   2
DOCKED: BRANCH   1  17
DOCKED: ATOM     17  N   UNL     1     140.660  73.589 222.326 -0.48 -0.03    -0.623 NA 
DOCKED: BRANCH  17  18
DOCKED: ATOM     18  C   UNL     1     139.769  72.474 222.399 -0.26 -0.02    +0.104 C  
DOCKED: ATOM     19  O   UNL     1     138.860  72.367 221.537 -0.08 +0.07    -0.313 OA 
DOCKED: BRANCH  18  20
DOCKED: ATOM     20  C   UNL     1     139.840  71.508 223.512 -0.34 -0.02    +0.089 A  
DOCKED: ATOM     21  N   UNL     1     140.398  71.886 224.694 -0.26 +0.04    -0.246 NA 
DOCKED: ATOM     22  C   UNL     1     139.276  70.228 223.390 -0.26 -0.01    +0.031 A  
DOCKED: ATOM     23  C   UNL     1     140.428  71.062 225.777 -0.53 -0.01    +0.071 A  
DOCKED: ATOM     24  C   UNL     1     139.296  69.356 224.482 -0.34 -0.00    +0.013 A  
DOCKED: ATOM     25  C   UNL     1     140.999  71.494 226.980 -0.72 -0.01    +0.032 A  
DOCKED: ATOM     26  C   UNL     1     139.867  69.768 225.691 -0.46 -0.00    +0.003 A  
DOCKED: ATOM     27  C   UNL     1     141.022  70.641 228.088 -0.61 -0.01    +0.041 A  
DOCKED: ATOM     28  C   UNL     1     139.896  68.919 226.808 -0.54 -0.01    +0.049 A  
DOCKED: ATOM     29  C   UNL     1     140.476  69.355 228.002 -0.52 -0.02    +0.123 A  
DOCKED: ATOM     30  F   UNL     1     140.502  68.532 229.078 -0.16 +0.04    -0.207 F  
DOCKED: ENDBRANCH  18  20
DOCKED: ENDBRANCH  17  18
DOCKED: ENDBRANCH   1  17
DOCKED: TORSDOF 7
DOCKED: TER
DOCKED: ENDMDL
________________________________________________________________________________


    CLUSTERING HISTOGRAM
    ____________________


________________________________________________________________________________
     |           |     |           |     |
Clus | Lowest    | Run | Mean      | Num | Histogram
-ter | Binding   |     | Binding   | in  |
Rank | Energy    |     | Energy    | Clus|    5    10   15   20   25   30   35
_____|___________|_____|___________|_____|____:____|____:____|____:____|____:___
   1 |     -8.69 |   6 |     -8.10 |  14 |##############
   2 |     -7.86 |   9 |     -7.52 |   3 |###
   3 |     -7.57 |   5 |     -7.50 |   2 |##
   4 |     -6.21 |  18 |     -6.21 |   1 |#
_____|___________|_____|___________|_____|______________________________________


    RMSD TABLE
    __________


_______________________________________________________________________
     |      |      |           |         |                 |
Rank | Sub- | Run  | Binding   | Cluster | Reference       | Grep
     | Rank |      | Energy    | RMSD    | RMSD            | Pattern
_____|______|______|___________|_________|_________________|___________
   1      1      6       -8.69      0.00    270.92           RANKING
   1      2     10       -8.60      0.35    270.80           RANKING
   1      3     20       -8.41      1.01    270.66           RANKING
   1      4     17       -8.36      0.82    270.82           RANKING
   1      5      4       -8.18      1.00    270.56           RANKING
   1      6      8       -8.17      0.97    270.57           RANKING
   1      7     11       -8.14      1.03    270.56           RANKING
   1      8     12       -8.10      1.08    270.49           RANKING
   1      9     13       -7.93      1.61    270.51           RANKING
   1     10      2       -7.91      1.52    270.60           RANKING
   1     11     19       -7.74      1.60    270.51           RANKING
   1     12     14       -7.74      1.43    270.33           RANKING
   1     13      3       -7.71      1.55    270.45           RANKING
   1     14     15       -7.69      1.24    270.69           RANKING
   2      1      9       -7.86      0.00    269.78           RANKING
   2      2      7       -7.67      1.75    269.53           RANKING
   2      3     16       -7.04      1.48    269.52           RANKING
   3      1      5       -7.57      0.00    269.92           RANKING
   3      2      1       -7.43      0.40    270.02           RANKING
   4      1     18       -6.21      0.00    269.92           RANKING

Run time 0.973 sec
Idle time 0.000 sec
