AutoDock-GPU version: v1.6

**********************************************************
**    AutoDock-GPU AUTODOCKTOOLS-COMPATIBLE DLG FILE    **
**********************************************************


    DOCKING PARAMETERS
    ________________________


Ligand file:                               /home/a/REINVENT4/ReinventStudies/pleaseWork/justmol2mol_4_Compounds_ontop/graph-dock-8u2o5u/graph-DockGPU/node-autodockgpu/inputs/OGESSYIQADKGAC-GWQRUUHCNA-M.pdbqt
Grid fld file:                             /home/a/REINVENT4/ReinventStudies/mols/Rad51/maps/rad51_receptor.maps.fld

Random seed:                               42
Number of runs:                            20
Number of energy evaluations:              1613968
Number of generations:                     42000
Size of population:                        150
Rate of crossover:                         80.000000%
Tournament selection probability limit:    60.000000%
Rate of mutation:                          2.000000%
Maximal allowed delta movement:            +/- 6.000000A
Maximal allowed delta angle:               +/- 90.000000

Rate of local search:                      100.000000%
Maximal number of local search iterations: 300
Rho lower bound:                           0.010000
Spread of local search delta movement:     2.000000A
Spread of local search delta angle:        74.999999
Limit of consecutive successes/failures:   4

Handle symmetry during clustering:         YES
RMSD tolerance:                            2.000000A

Program call in command line was:          /home/a/REINVENT4/ReinventStudies/adgpu-v1.6_linux_x64_cuda12_128wi --filelist batch.txt --heuristics 1 --nrun 20 --psize 150 --lsit 300 --seed 42 --heurmax 12000000 


    GRID PARAMETERS
    ________________________


Receptor name:                             rad51_receptor
Number of grid points (x, y, z):           53, 53, 53
Grid center (x, y, z):                     139.950000, 75.640000, 221.970000A
Grid size (x, y, z):                       19.500000, 19.500000, 19.500000A
Grid spacing:                              0.375000A


    LIGAND PARAMETERS
    ________________________


Ligand name:                               /home/a/REINVENT4/ReinventStudies/pleaseWork/justmol2mol_4_Compounds_ontop/graph-dock-8u2o5u/graph-DockGPU/node-autodockgpu/inputs/OGESSYIQADKGAC-GWQRUUHCNA-M
Number of atoms:                           22
Number of rotatable bonds:                 8
Number of atom types:                      5


    DUMMY DATA (only for ADT-compatibility)
    ________________________


DPF> outlev 1
DPF> ga_run 20
DPF> fld /home/a/REINVENT4/ReinventStudies/mols/Rad51/maps/rad51_receptor.maps.fld
DPF> move /home/a/REINVENT4/ReinventStudies/pleaseWork/justmol2mol_4_Compounds_ontop/graph-dock-8u2o5u/graph-DockGPU/node-autodockgpu/inputs/OGESSYIQADKGAC-GWQRUUHCNA-M.pdbqt


    COUNTER STATES
    ________________________


Number of energy evaluations performed:    990229
Number of generations used:                45


    INPUT LIGAND PDBQT FILE:
    ________________________


INPUT-LIGAND-PDBQT: REMARK SMILES CC(C)C[N-]C(=O)C/N=C(/O)c1ccc2ccccc2n1
INPUT-LIGAND-PDBQT: REMARK SMILES IDX 8 1 9 2 10 3 11 4 12 6 21 7 13 8 20 9 14 10 19 11 15 12
INPUT-LIGAND-PDBQT: REMARK SMILES IDX 18 13 16 14 17 15 6 16 7 17 5 18 4 19 2 20 1 21 3 22
INPUT-LIGAND-PDBQT: REMARK H PARENT 11 5
INPUT-LIGAND-PDBQT: ROOT
INPUT-LIGAND-PDBQT: ATOM      1  C   UNL     1       0.346   0.454   0.174  1.00  0.00     0.201 C 
INPUT-LIGAND-PDBQT: ENDROOT
INPUT-LIGAND-PDBQT: BRANCH   1   2
INPUT-LIGAND-PDBQT: ATOM      2  N   UNL     1      -0.887  -0.316   0.311  1.00  0.00    -0.244 NA
INPUT-LIGAND-PDBQT: BRANCH   2   3
INPUT-LIGAND-PDBQT: ATOM      3  C   UNL     1      -0.991  -1.515   0.811  1.00  0.00     0.233 C 
INPUT-LIGAND-PDBQT: BRANCH   3   4
INPUT-LIGAND-PDBQT: ATOM      4  O   UNL     1      -2.225  -2.157   0.779  1.00  0.00    -0.492 OA
INPUT-LIGAND-PDBQT: ATOM      5  H   UNL     1      -3.038  -1.708   0.371  1.00  0.00     0.295 HD
INPUT-LIGAND-PDBQT: ENDBRANCH   3   4
INPUT-LIGAND-PDBQT: BRANCH   3   6
INPUT-LIGAND-PDBQT: ATOM      6  C   UNL     1       0.151  -2.238   1.395  1.00  0.00     0.125 A 
INPUT-LIGAND-PDBQT: ATOM      7  N   UNL     1       0.459  -3.479   0.925  1.00  0.00    -0.243 NA
INPUT-LIGAND-PDBQT: ATOM      8  C   UNL     1       0.836  -1.726   2.505  1.00  0.00     0.035 A 
INPUT-LIGAND-PDBQT: ATOM      9  C   UNL     1       1.444  -4.233   1.482  1.00  0.00     0.071 A 
INPUT-LIGAND-PDBQT: ATOM     10  C   UNL     1       1.862  -2.469   3.087  1.00  0.00     0.013 A 
INPUT-LIGAND-PDBQT: ATOM     11  C   UNL     1       1.732  -5.503   0.972  1.00  0.00     0.029 A 
INPUT-LIGAND-PDBQT: ATOM     12  C   UNL     1       2.174  -3.736   2.584  1.00  0.00     0.000 A 
INPUT-LIGAND-PDBQT: ATOM     13  C   UNL     1       2.734  -6.282   1.560  1.00  0.00     0.002 A 
INPUT-LIGAND-PDBQT: ATOM     14  C   UNL     1       3.173  -4.525   3.170  1.00  0.00     0.010 A 
INPUT-LIGAND-PDBQT: ATOM     15  C   UNL     1       3.446  -5.799   2.661  1.00  0.00     0.001 A 
INPUT-LIGAND-PDBQT: ENDBRANCH   3   6
INPUT-LIGAND-PDBQT: ENDBRANCH   2   3
INPUT-LIGAND-PDBQT: ENDBRANCH   1   2
INPUT-LIGAND-PDBQT: BRANCH   1  16
INPUT-LIGAND-PDBQT: ATOM     16  C   UNL     1       0.040   1.767  -0.465  1.00  0.00     0.073 C 
INPUT-LIGAND-PDBQT: ATOM     17  O   UNL     1       0.216   1.919  -1.705  1.00  0.00    -0.318 OA
INPUT-LIGAND-PDBQT: BRANCH  16  18
INPUT-LIGAND-PDBQT: ATOM     18  N   UNL     1      -0.483   2.836   0.329  1.00  0.00    -0.652 NA
INPUT-LIGAND-PDBQT: BRANCH  18  19
INPUT-LIGAND-PDBQT: ATOM     19  C   UNL     1      -0.815   4.140  -0.233  1.00  0.00    -0.115 C 
INPUT-LIGAND-PDBQT: BRANCH  19  20
INPUT-LIGAND-PDBQT: ATOM     20  C   UNL     1      -1.252   5.112   0.873  1.00  0.00    -0.035 C 
INPUT-LIGAND-PDBQT: ATOM     21  C   UNL     1      -0.133   5.330   1.900  1.00  0.00     0.006 C 
INPUT-LIGAND-PDBQT: ATOM     22  C   UNL     1      -1.683   6.452   0.265  1.00  0.00     0.006 C 
INPUT-LIGAND-PDBQT: ENDBRANCH  19  20
INPUT-LIGAND-PDBQT: ENDBRANCH  18  19
INPUT-LIGAND-PDBQT: ENDBRANCH  16  18
INPUT-LIGAND-PDBQT: ENDBRANCH   1  16
INPUT-LIGAND-PDBQT: TORSDOF 8


    FINAL DOCKED STATE:
    ________________________


Run:   1 / 20
Time taken for this run:   0.034s

DOCKED: MODEL        1
DOCKED: USER    Run = 1
DOCKED: USER
DOCKED: USER    Estimated Free Energy of Binding    =  -5.93 kcal/mol  [=(1)+(2)+(3)-(4)]
DOCKED: USER
DOCKED: USER    (1) Final Intermolecular Energy     =  -8.32 kcal/mol
DOCKED: USER        vdW + Hbond + desolv Energy     =  -8.41 kcal/mol
DOCKED: USER        Electrostatic Energy            =  +0.09 kcal/mol
DOCKED: USER        Moving Ligand-Fixed Receptor    =  -8.32 kcal/mol
DOCKED: USER        Moving Ligand-Moving Receptor   =  +0.00 kcal/mol
DOCKED: USER    (2) Final Total Internal Energy     =  -1.40 kcal/mol
DOCKED: USER    (3) Torsional Free Energy           =  +2.39 kcal/mol
DOCKED: USER    (4) Unbound System's Energy         =  -1.40 kcal/mol
DOCKED: USER
DOCKED: USER
DOCKED: REMARK SMILES CC(C)C[N-]C(=O)C/N=C(/O)c1ccc2ccccc2n1
DOCKED: REMARK SMILES IDX 8 1 9 2 10 3 11 4 12 6 21 7 13 8 20 9 14 10 19 11 15 12
DOCKED: REMARK SMILES IDX 18 13 16 14 17 15 6 16 7 17 5 18 4 19 2 20 1 21 3 22
DOCKED: REMARK H PARENT 11 5
DOCKED: USER                              x       y       z     vdW  Elec       q    Type
DOCKED: USER                           _______ _______ _______ _____ _____    ______ ____
DOCKED: ROOT
DOCKED: ATOM      1  C   UNL     1     141.393  72.550 221.510 -0.17 -0.02    +0.201 C  
DOCKED: ENDROOT
DOCKED: BRANCH   1   2
DOCKED: ATOM      2  N   UNL     1     141.014  73.842 220.944 -0.18 +0.04    -0.244 NA 
DOCKED: BRANCH   2   3
DOCKED: ATOM      3  C   UNL     1     140.472  74.834 221.593 -0.23 -0.04    +0.233 C  
DOCKED: BRANCH   3   4
DOCKED: ATOM      4  O   UNL     1     139.347  74.596 222.377 -0.58 +0.09    -0.492 OA 
DOCKED: ATOM      5  H   UNL     1     139.245  73.731 222.896 -0.44 -0.10    +0.295 HD 
DOCKED: ENDBRANCH   3   4
DOCKED: BRANCH   3   6
DOCKED: ATOM      6  C   UNL     1     141.011  76.203 221.552 -0.30 -0.05    +0.125 A  
DOCKED: ATOM      7  N   UNL     1     141.045  76.936 222.700 -0.27 +0.09    -0.243 NA 
DOCKED: ATOM      8  C   UNL     1     141.364  76.802 220.335 -0.25 -0.02    +0.035 A  
DOCKED: ATOM      9  C   UNL     1     141.447  78.235 222.711 -0.44 -0.03    +0.071 A  
DOCKED: ATOM     10  C   UNL     1     141.796  78.128 220.317 -0.31 -0.01    +0.013 A  
DOCKED: ATOM     11  C   UNL     1     141.469  78.955 223.910 -0.57 -0.01    +0.029 A  
DOCKED: ATOM     12  C   UNL     1     141.837  78.861 221.507 -0.41 -0.00    +0.000 A  
DOCKED: ATOM     13  C   UNL     1     141.867  80.296 223.912 -0.57 -0.00    +0.002 A  
DOCKED: ATOM     14  C   UNL     1     142.230  80.207 221.518 -0.42 -0.00    +0.010 A  
DOCKED: ATOM     15  C   UNL     1     142.237  80.923 222.720 -0.57 -0.00    +0.001 A  
DOCKED: ENDBRANCH   3   6
DOCKED: ENDBRANCH   2   3
DOCKED: ENDBRANCH   1   2
DOCKED: BRANCH   1  16
DOCKED: ATOM     16  C   UNL     1     140.342  72.104 222.470 -0.30 -0.01    +0.073 C  
DOCKED: ATOM     17  O   UNL     1     139.261  71.618 222.038 -0.11 +0.06    -0.318 OA 
DOCKED: BRANCH  16  18
DOCKED: ATOM     18  N   UNL     1     140.582  72.199 223.877 +0.05 +0.06    -0.652 NA 
DOCKED: BRANCH  18  19
DOCKED: ATOM     19  C   UNL     1     140.080  71.213 224.827 -0.41 +0.02    -0.115 C  
DOCKED: BRANCH  19  20
DOCKED: ATOM     20  C   UNL     1     141.143  70.892 225.888 -0.59 +0.00    -0.035 C  
DOCKED: ATOM     21  C   UNL     1     141.042  71.845 227.087 -0.79 -0.00    +0.006 C  
DOCKED: ATOM     22  C   UNL     1     141.008  69.437 226.354 -0.55 -0.00    +0.006 C  
DOCKED: ENDBRANCH  19  20
DOCKED: ENDBRANCH  18  19
DOCKED: ENDBRANCH  16  18
DOCKED: ENDBRANCH   1  16
DOCKED: TORSDOF 8
DOCKED: TER
DOCKED: ENDMDL
________________________________________________________________________________


    FINAL DOCKED STATE:
    ________________________


Run:   2 / 20
Time taken for this run:   0.034s

DOCKED: MODEL        2
DOCKED: USER    Run = 2
DOCKED: USER
DOCKED: USER    Estimated Free Energy of Binding    =  -5.68 kcal/mol  [=(1)+(2)+(3)-(4)]
DOCKED: USER
DOCKED: USER    (1) Final Intermolecular Energy     =  -8.07 kcal/mol
DOCKED: USER        vdW + Hbond + desolv Energy     =  -8.21 kcal/mol
DOCKED: USER        Electrostatic Energy            =  +0.14 kcal/mol
DOCKED: USER        Moving Ligand-Fixed Receptor    =  -8.07 kcal/mol
DOCKED: USER        Moving Ligand-Moving Receptor   =  +0.00 kcal/mol
DOCKED: USER    (2) Final Total Internal Energy     =  -1.15 kcal/mol
DOCKED: USER    (3) Torsional Free Energy           =  +2.39 kcal/mol
DOCKED: USER    (4) Unbound System's Energy         =  -1.15 kcal/mol
DOCKED: USER
DOCKED: USER
DOCKED: REMARK SMILES CC(C)C[N-]C(=O)C/N=C(/O)c1ccc2ccccc2n1
DOCKED: REMARK SMILES IDX 8 1 9 2 10 3 11 4 12 6 21 7 13 8 20 9 14 10 19 11 15 12
DOCKED: REMARK SMILES IDX 18 13 16 14 17 15 6 16 7 17 5 18 4 19 2 20 1 21 3 22
DOCKED: REMARK H PARENT 11 5
DOCKED: USER                              x       y       z     vdW  Elec       q    Type
DOCKED: USER                           _______ _______ _______ _____ _____    ______ ____
DOCKED: ROOT
DOCKED: ATOM      1  C   UNL     1     140.336  73.069 221.739 -0.22 -0.02    +0.201 C  
DOCKED: ENDROOT
DOCKED: BRANCH   1   2
DOCKED: ATOM      2  N   UNL     1     140.382  74.449 222.212 -0.68 -0.01    -0.244 NA 
DOCKED: BRANCH   2   3
DOCKED: ATOM      3  C   UNL     1     139.380  75.281 222.251 -0.15 -0.04    +0.233 C  
DOCKED: BRANCH   3   4
DOCKED: ATOM      4  O   UNL     1     138.087  74.790 222.101 -0.09 +0.15    -0.492 OA 
DOCKED: ATOM      5  H   UNL     1     137.717  74.088 222.733 -0.46 -0.15    +0.295 HD 
DOCKED: ENDBRANCH   3   4
DOCKED: BRANCH   3   6
DOCKED: ATOM      6  C   UNL     1     139.551  76.727 222.470 -0.26 -0.02    +0.125 A  
DOCKED: ATOM      7  N   UNL     1     140.808  77.229 222.624 -0.27 +0.08    -0.243 NA 
DOCKED: ATOM      8  C   UNL     1     138.442  77.564 222.651 -0.28 -0.01    +0.035 A  
DOCKED: ATOM      9  C   UNL     1     141.026  78.539 222.918 -0.46 -0.02    +0.071 A  
DOCKED: ATOM     10  C   UNL     1     138.635  78.915 222.936 -0.30 -0.00    +0.013 A  
DOCKED: ATOM     11  C   UNL     1     142.332  79.018 223.068 -0.53 -0.01    +0.029 A  
DOCKED: ATOM     12  C   UNL     1     139.932  79.417 223.078 -0.40 -0.00    +0.000 A  
DOCKED: ATOM     13  C   UNL     1     142.550  80.362 223.388 -0.67 -0.00    +0.002 A  
DOCKED: ATOM     14  C   UNL     1     140.160  80.761 223.403 -0.42 -0.00    +0.010 A  
DOCKED: ATOM     15  C   UNL     1     141.469  81.229 223.564 -0.54 -0.00    +0.001 A  
DOCKED: ENDBRANCH   3   6
DOCKED: ENDBRANCH   2   3
DOCKED: ENDBRANCH   1   2
DOCKED: BRANCH   1  16
DOCKED: ATOM     16  C   UNL     1     139.554  72.242 222.704 -0.27 -0.02    +0.073 C  
DOCKED: ATOM     17  O   UNL     1     138.293  72.290 222.697 -0.12 +0.10    -0.318 OA 
DOCKED: BRANCH  16  18
DOCKED: ATOM     18  N   UNL     1     140.240  71.373 223.610 -0.03 +0.10    -0.652 NA 
DOCKED: BRANCH  18  19
DOCKED: ATOM     19  C   UNL     1     140.707  71.816 224.919 -0.25 +0.02    -0.115 C  
DOCKED: BRANCH  19  20
DOCKED: ATOM     20  C   UNL     1     140.204  70.873 226.022 -0.54 +0.01    -0.035 C  
DOCKED: ATOM     21  C   UNL     1     140.701  69.438 225.802 -0.50 -0.00    +0.006 C  
DOCKED: ATOM     22  C   UNL     1     140.644  71.382 227.400 -0.76 -0.00    +0.006 C  
DOCKED: ENDBRANCH  19  20
DOCKED: ENDBRANCH  18  19
DOCKED: ENDBRANCH  16  18
DOCKED: ENDBRANCH   1  16
DOCKED: TORSDOF 8
DOCKED: TER
DOCKED: ENDMDL
________________________________________________________________________________


    FINAL DOCKED STATE:
    ________________________


Run:   3 / 20
Time taken for this run:   0.034s

DOCKED: MODEL        3
DOCKED: USER    Run = 3
DOCKED: USER
DOCKED: USER    Estimated Free Energy of Binding    =  -6.14 kcal/mol  [=(1)+(2)+(3)-(4)]
DOCKED: USER
DOCKED: USER    (1) Final Intermolecular Energy     =  -8.52 kcal/mol
DOCKED: USER        vdW + Hbond + desolv Energy     =  -8.58 kcal/mol
DOCKED: USER        Electrostatic Energy            =  +0.06 kcal/mol
DOCKED: USER        Moving Ligand-Fixed Receptor    =  -8.52 kcal/mol
DOCKED: USER        Moving Ligand-Moving Receptor   =  +0.00 kcal/mol
DOCKED: USER    (2) Final Total Internal Energy     =  -1.16 kcal/mol
DOCKED: USER    (3) Torsional Free Energy           =  +2.39 kcal/mol
DOCKED: USER    (4) Unbound System's Energy         =  -1.16 kcal/mol
DOCKED: USER
DOCKED: USER
DOCKED: REMARK SMILES CC(C)C[N-]C(=O)C/N=C(/O)c1ccc2ccccc2n1
DOCKED: REMARK SMILES IDX 8 1 9 2 10 3 11 4 12 6 21 7 13 8 20 9 14 10 19 11 15 12
DOCKED: REMARK SMILES IDX 18 13 16 14 17 15 6 16 7 17 5 18 4 19 2 20 1 21 3 22
DOCKED: REMARK H PARENT 11 5
DOCKED: USER                              x       y       z     vdW  Elec       q    Type
DOCKED: USER                           _______ _______ _______ _____ _____    ______ ____
DOCKED: ROOT
DOCKED: ATOM      1  C   UNL     1     140.655  72.331 221.798 -0.21 -0.02    +0.201 C  
DOCKED: ENDROOT
DOCKED: BRANCH   1   2
DOCKED: ATOM      2  N   UNL     1     141.146  73.706 221.820 -0.45 +0.01    -0.244 NA 
DOCKED: BRANCH   2   3
DOCKED: ATOM      3  C   UNL     1     140.419  74.778 221.971 -0.05 -0.02    +0.233 C  
DOCKED: BRANCH   3   4
DOCKED: ATOM      4  O   UNL     1     139.080  74.643 222.324 -0.45 +0.12    -0.492 OA 
DOCKED: ATOM      5  H   UNL     1     138.790  73.974 223.030 -0.50 -0.18    +0.295 HD 
DOCKED: ENDBRANCH   3   4
DOCKED: BRANCH   3   6
DOCKED: ATOM      6  C   UNL     1     140.957  76.138 221.803 -0.31 -0.04    +0.125 A  
DOCKED: ATOM      7  N   UNL     1     141.033  76.958 222.887 -0.20 +0.08    -0.243 NA 
DOCKED: ATOM      8  C   UNL     1     141.267  76.637 220.531 -0.26 -0.02    +0.035 A  
DOCKED: ATOM      9  C   UNL     1     141.437  78.252 222.781 -0.46 -0.03    +0.071 A  
DOCKED: ATOM     10  C   UNL     1     141.700  77.955 220.392 -0.31 -0.01    +0.013 A  
DOCKED: ATOM     11  C   UNL     1     141.502  79.065 223.917 -0.58 -0.01    +0.029 A  
DOCKED: ATOM     12  C   UNL     1     141.784  78.781 221.518 -0.41 -0.00    +0.000 A  
DOCKED: ATOM     13  C   UNL     1     141.901  80.400 223.800 -0.61 -0.00    +0.002 A  
DOCKED: ATOM     14  C   UNL     1     142.178  80.121 221.409 -0.41 -0.00    +0.010 A  
DOCKED: ATOM     15  C   UNL     1     142.229  80.930 222.549 -0.55 -0.00    +0.001 A  
DOCKED: ENDBRANCH   3   6
DOCKED: ENDBRANCH   2   3
DOCKED: ENDBRANCH   1   2
DOCKED: BRANCH   1  16
DOCKED: ATOM     16  C   UNL     1     139.945  72.039 223.077 -0.30 -0.01    +0.073 C  
DOCKED: ATOM     17  O   UNL     1     138.704  71.811 223.069 -0.16 +0.09    -0.318 OA 
DOCKED: BRANCH  16  18
DOCKED: ATOM     18  N   UNL     1     140.684  71.987 224.301 +0.09 +0.07    -0.652 NA 
DOCKED: BRANCH  18  19
DOCKED: ATOM     19  C   UNL     1     140.760  70.782 225.119 -0.45 +0.02    -0.115 C  
DOCKED: BRANCH  19  20
DOCKED: ATOM     20  C   UNL     1     140.486  71.111 226.595 -0.62 +0.01    -0.035 C  
DOCKED: ATOM     21  C   UNL     1     140.619  69.864 227.479 -0.62 -0.00    +0.006 C  
DOCKED: ATOM     22  C   UNL     1     141.436  72.211 227.082 -0.75 -0.00    +0.006 C  
DOCKED: ENDBRANCH  19  20
DOCKED: ENDBRANCH  18  19
DOCKED: ENDBRANCH  16  18
DOCKED: ENDBRANCH   1  16
DOCKED: TORSDOF 8
DOCKED: TER
DOCKED: ENDMDL
________________________________________________________________________________


    FINAL DOCKED STATE:
    ________________________


Run:   4 / 20
Time taken for this run:   0.034s

DOCKED: MODEL        4
DOCKED: USER    Run = 4
DOCKED: USER
DOCKED: USER    Estimated Free Energy of Binding    =  -5.45 kcal/mol  [=(1)+(2)+(3)-(4)]
DOCKED: USER
DOCKED: USER    (1) Final Intermolecular Energy     =  -7.84 kcal/mol
DOCKED: USER        vdW + Hbond + desolv Energy     =  -8.03 kcal/mol
DOCKED: USER        Electrostatic Energy            =  +0.19 kcal/mol
DOCKED: USER        Moving Ligand-Fixed Receptor    =  -7.84 kcal/mol
DOCKED: USER        Moving Ligand-Moving Receptor   =  +0.00 kcal/mol
DOCKED: USER    (2) Final Total Internal Energy     =  -1.46 kcal/mol
DOCKED: USER    (3) Torsional Free Energy           =  +2.39 kcal/mol
DOCKED: USER    (4) Unbound System's Energy         =  -1.46 kcal/mol
DOCKED: USER
DOCKED: USER
DOCKED: REMARK SMILES CC(C)C[N-]C(=O)C/N=C(/O)c1ccc2ccccc2n1
DOCKED: REMARK SMILES IDX 8 1 9 2 10 3 11 4 12 6 21 7 13 8 20 9 14 10 19 11 15 12
DOCKED: REMARK SMILES IDX 18 13 16 14 17 15 6 16 7 17 5 18 4 19 2 20 1 21 3 22
DOCKED: REMARK H PARENT 11 5
DOCKED: USER                              x       y       z     vdW  Elec       q    Type
DOCKED: USER                           _______ _______ _______ _____ _____    ______ ____
DOCKED: ROOT
DOCKED: ATOM      1  C   UNL     1     140.838  74.346 221.654 -0.17 -0.02    +0.201 C  
DOCKED: ENDROOT
DOCKED: BRANCH   1   2
DOCKED: ATOM      2  N   UNL     1     139.904  73.445 222.324 -0.74 +0.03    -0.244 NA 
DOCKED: BRANCH   2   3
DOCKED: ATOM      3  C   UNL     1     139.998  72.146 222.379 -0.22 -0.04    +0.233 C  
DOCKED: BRANCH   3   4
DOCKED: ATOM      4  O   UNL     1     140.218  71.433 221.205 -0.04 +0.08    -0.492 OA 
DOCKED: ATOM      5  H   UNL     1     140.869  71.768 220.503 +0.07 -0.04    +0.295 HD 
DOCKED: ENDBRANCH   3   4
DOCKED: BRANCH   3   6
DOCKED: ATOM      6  C   UNL     1     139.902  71.392 223.640 -0.33 -0.02    +0.125 A  
DOCKED: ATOM      7  N   UNL     1     140.445  71.922 224.771 -0.23 +0.04    -0.243 NA 
DOCKED: ATOM      8  C   UNL     1     139.382  70.091 223.663 -0.28 -0.01    +0.035 A  
DOCKED: ATOM      9  C   UNL     1     140.468  71.237 225.945 -0.54 -0.01    +0.071 A  
DOCKED: ATOM     10  C   UNL     1     139.376  69.370 224.856 -0.38 -0.00    +0.013 A  
DOCKED: ATOM     11  C   UNL     1     141.034  71.814 227.086 -0.76 -0.01    +0.029 A  
DOCKED: ATOM     12  C   UNL     1     139.926  69.935 226.012 -0.50 -0.00    +0.000 A  
DOCKED: ATOM     13  C   UNL     1     141.072  71.098 228.287 -0.68 -0.00    +0.002 A  
DOCKED: ATOM     14  C   UNL     1     139.972  69.222 227.218 -0.59 -0.00    +0.010 A  
DOCKED: ATOM     15  C   UNL     1     140.551  69.803 228.351 -0.58 -0.00    +0.001 A  
DOCKED: ENDBRANCH   3   6
DOCKED: ENDBRANCH   2   3
DOCKED: ENDBRANCH   1   2
DOCKED: BRANCH   1  16
DOCKED: ATOM     16  C   UNL     1     141.388  73.675 220.441 -0.20 -0.01    +0.073 C  
DOCKED: ATOM     17  O   UNL     1     140.737  73.696 219.360 -0.02 +0.07    -0.318 OA 
DOCKED: BRANCH  16  18
DOCKED: ATOM     18  N   UNL     1     142.668  73.039 220.503 +0.04 +0.11    -0.652 NA 
DOCKED: BRANCH  18  19
DOCKED: ATOM     19  C   UNL     1     143.918  73.790 220.491 -0.35 +0.03    -0.115 C  
DOCKED: BRANCH  19  20
DOCKED: ATOM     20  C   UNL     1     145.103  72.878 220.841 -0.51 +0.01    -0.035 C  
DOCKED: ATOM     21  C   UNL     1     145.503  71.999 219.648 -0.36 +0.00    +0.006 C  
DOCKED: ATOM     22  C   UNL     1     146.299  73.714 221.310 -0.67 -0.00    +0.006 C  
DOCKED: ENDBRANCH  19  20
DOCKED: ENDBRANCH  18  19
DOCKED: ENDBRANCH  16  18
DOCKED: ENDBRANCH   1  16
DOCKED: TORSDOF 8
DOCKED: TER
DOCKED: ENDMDL
________________________________________________________________________________


    FINAL DOCKED STATE:
    ________________________


Run:   5 / 20
Time taken for this run:   0.034s

DOCKED: MODEL        5
DOCKED: USER    Run = 5
DOCKED: USER
DOCKED: USER    Estimated Free Energy of Binding    =  -5.23 kcal/mol  [=(1)+(2)+(3)-(4)]
DOCKED: USER
DOCKED: USER    (1) Final Intermolecular Energy     =  -7.62 kcal/mol
DOCKED: USER        vdW + Hbond + desolv Energy     =  -7.69 kcal/mol
DOCKED: USER        Electrostatic Energy            =  +0.07 kcal/mol
DOCKED: USER        Moving Ligand-Fixed Receptor    =  -7.62 kcal/mol
DOCKED: USER        Moving Ligand-Moving Receptor   =  +0.00 kcal/mol
DOCKED: USER    (2) Final Total Internal Energy     =  -1.73 kcal/mol
DOCKED: USER    (3) Torsional Free Energy           =  +2.39 kcal/mol
DOCKED: USER    (4) Unbound System's Energy         =  -1.73 kcal/mol
DOCKED: USER
DOCKED: USER
DOCKED: REMARK SMILES CC(C)C[N-]C(=O)C/N=C(/O)c1ccc2ccccc2n1
DOCKED: REMARK SMILES IDX 8 1 9 2 10 3 11 4 12 6 21 7 13 8 20 9 14 10 19 11 15 12
DOCKED: REMARK SMILES IDX 18 13 16 14 17 15 6 16 7 17 5 18 4 19 2 20 1 21 3 22
DOCKED: REMARK H PARENT 11 5
DOCKED: USER                              x       y       z     vdW  Elec       q    Type
DOCKED: USER                           _______ _______ _______ _____ _____    ______ ____
DOCKED: ROOT
DOCKED: ATOM      1  C   UNL     1     140.141  72.963 220.461 -0.09 -0.04    +0.201 C  
DOCKED: ENDROOT
DOCKED: BRANCH   1   2
DOCKED: ATOM      2  N   UNL     1     140.088  74.421 220.407 -0.07 +0.05    -0.244 NA 
DOCKED: BRANCH   2   3
DOCKED: ATOM      3  C   UNL     1     140.001  75.224 221.430 -0.22 -0.05    +0.233 C  
DOCKED: BRANCH   3   4
DOCKED: ATOM      4  O   UNL     1     139.212  74.855 222.515 -0.44 +0.11    -0.492 OA 
DOCKED: ATOM      5  H   UNL     1     139.444  74.045 223.079 -0.46 -0.06    +0.295 HD 
DOCKED: ENDBRANCH   3   4
DOCKED: BRANCH   3   6
DOCKED: ATOM      6  C   UNL     1     140.722  76.506 221.502 -0.29 -0.04    +0.125 A  
DOCKED: ATOM      7  N   UNL     1     140.863  77.119 222.710 -0.27 +0.08    -0.243 NA 
DOCKED: ATOM      8  C   UNL     1     141.146  77.160 220.337 -0.23 -0.02    +0.035 A  
DOCKED: ATOM      9  C   UNL     1     141.439  78.345 222.830 -0.47 -0.03    +0.071 A  
DOCKED: ATOM     10  C   UNL     1     141.755  78.410 220.430 -0.30 -0.01    +0.013 A  
DOCKED: ATOM     11  C   UNL     1     141.567  78.943 224.087 -0.55 -0.01    +0.029 A  
DOCKED: ATOM     12  C   UNL     1     141.904  79.020 221.680 -0.42 -0.00    +0.000 A  
DOCKED: ATOM     13  C   UNL     1     142.144  80.212 224.203 -0.48 -0.00    +0.002 A  
DOCKED: ATOM     14  C   UNL     1     142.476  80.293 221.804 -0.43 -0.00    +0.010 A  
DOCKED: ATOM     15  C   UNL     1     142.589  80.889 223.064 -0.61 -0.00    +0.001 A  
DOCKED: ENDBRANCH   3   6
DOCKED: ENDBRANCH   2   3
DOCKED: ENDBRANCH   1   2
DOCKED: BRANCH   1  16
DOCKED: ATOM     16  C   UNL     1     141.070  72.543 221.550 -0.25 -0.01    +0.073 C  
DOCKED: ATOM     17  O   UNL     1     140.713  72.646 222.756 -0.53 +0.01    -0.318 OA 
DOCKED: BRANCH  16  18
DOCKED: ATOM     18  N   UNL     1     142.348  71.993 221.217 +0.06 +0.07    -0.652 NA 
DOCKED: BRANCH  18  19
DOCKED: ATOM     19  C   UNL     1     143.223  72.593 220.216 -0.23 +0.02    -0.115 C  
DOCKED: BRANCH  19  20
DOCKED: ATOM     20  C   UNL     1     144.047  73.734 220.830 -0.35 +0.01    -0.035 C  
DOCKED: ATOM     21  C   UNL     1     145.540  73.382 220.877 -0.65 -0.00    +0.006 C  
DOCKED: ATOM     22  C   UNL     1     143.832  75.031 220.042 -0.40 -0.00    +0.006 C  
DOCKED: ENDBRANCH  19  20
DOCKED: ENDBRANCH  18  19
DOCKED: ENDBRANCH  16  18
DOCKED: ENDBRANCH   1  16
DOCKED: TORSDOF 8
DOCKED: TER
DOCKED: ENDMDL
________________________________________________________________________________


    FINAL DOCKED STATE:
    ________________________


Run:   6 / 20
Time taken for this run:   0.034s

DOCKED: MODEL        6
DOCKED: USER    Run = 6
DOCKED: USER
DOCKED: USER    Estimated Free Energy of Binding    =  -5.60 kcal/mol  [=(1)+(2)+(3)-(4)]
DOCKED: USER
DOCKED: USER    (1) Final Intermolecular Energy     =  -7.98 kcal/mol
DOCKED: USER        vdW + Hbond + desolv Energy     =  -8.11 kcal/mol
DOCKED: USER        Electrostatic Energy            =  +0.13 kcal/mol
DOCKED: USER        Moving Ligand-Fixed Receptor    =  -7.98 kcal/mol
DOCKED: USER        Moving Ligand-Moving Receptor   =  +0.00 kcal/mol
DOCKED: USER    (2) Final Total Internal Energy     =  -1.27 kcal/mol
DOCKED: USER    (3) Torsional Free Energy           =  +2.39 kcal/mol
DOCKED: USER    (4) Unbound System's Energy         =  -1.27 kcal/mol
DOCKED: USER
DOCKED: USER
DOCKED: REMARK SMILES CC(C)C[N-]C(=O)C/N=C(/O)c1ccc2ccccc2n1
DOCKED: REMARK SMILES IDX 8 1 9 2 10 3 11 4 12 6 21 7 13 8 20 9 14 10 19 11 15 12
DOCKED: REMARK SMILES IDX 18 13 16 14 17 15 6 16 7 17 5 18 4 19 2 20 1 21 3 22
DOCKED: REMARK H PARENT 11 5
DOCKED: USER                              x       y       z     vdW  Elec       q    Type
DOCKED: USER                           _______ _______ _______ _____ _____    ______ ____
DOCKED: ROOT
DOCKED: ATOM      1  C   UNL     1     141.278  73.691 221.111 -0.20 -0.03    +0.201 C  
DOCKED: ENDROOT
DOCKED: BRANCH   1   2
DOCKED: ATOM      2  N   UNL     1     140.667  73.226 222.353 -0.65 -0.00    -0.244 NA 
DOCKED: BRANCH   2   3
DOCKED: ATOM      3  C   UNL     1     139.924  72.164 222.492 -0.22 -0.04    +0.233 C  
DOCKED: BRANCH   3   4
DOCKED: ATOM      4  O   UNL     1     139.107  71.768 221.437 -0.02 +0.09    -0.492 OA 
DOCKED: ATOM      5  H   UNL     1     139.502  71.506 220.540 +0.06 -0.05    +0.295 HD 
DOCKED: ENDBRANCH   3   4
DOCKED: BRANCH   3   6
DOCKED: ATOM      6  C   UNL     1     139.922  71.345 223.715 -0.33 -0.02    +0.125 A  
DOCKED: ATOM      7  N   UNL     1     140.432  71.870 224.864 -0.27 +0.04    -0.243 NA 
DOCKED: ATOM      8  C   UNL     1     139.528  70.001 223.681 -0.28 -0.01    +0.035 A  
DOCKED: ATOM      9  C   UNL     1     140.540  71.135 226.003 -0.55 -0.01    +0.071 A  
DOCKED: ATOM     10  C   UNL     1     139.612  69.226 224.837 -0.37 -0.00    +0.013 A  
DOCKED: ATOM     11  C   UNL     1     141.069  71.709 227.163 -0.76 -0.01    +0.029 A  
DOCKED: ATOM     12  C   UNL     1     140.126  69.785 226.012 -0.50 -0.00    +0.000 A  
DOCKED: ATOM     13  C   UNL     1     141.195  70.943 228.327 -0.60 -0.00    +0.002 A  
DOCKED: ATOM     14  C   UNL     1     140.260  69.024 227.180 -0.61 -0.00    +0.010 A  
DOCKED: ATOM     15  C   UNL     1     140.801  69.602 228.334 -0.60 -0.00    +0.001 A  
DOCKED: ENDBRANCH   3   6
DOCKED: ENDBRANCH   2   3
DOCKED: ENDBRANCH   1   2
DOCKED: BRANCH   1  16
DOCKED: ATOM     16  C   UNL     1     142.028  72.567 220.478 -0.19 -0.01    +0.073 C  
DOCKED: ATOM     17  O   UNL     1     141.400  71.644 219.892 -0.05 +0.05    -0.318 OA 
DOCKED: BRANCH  16  18
DOCKED: ATOM     18  N   UNL     1     143.458  72.562 220.513 +0.05 +0.10    -0.652 NA 
DOCKED: BRANCH  18  19
DOCKED: ATOM     19  C   UNL     1     144.240  73.762 220.789 -0.34 +0.03    -0.115 C  
DOCKED: BRANCH  19  20
DOCKED: ATOM     20  C   UNL     1     145.737  73.496 220.574 -0.62 +0.00    -0.035 C  
DOCKED: ATOM     21  C   UNL     1     146.484  73.392 221.910 -0.69 -0.00    +0.006 C  
DOCKED: ATOM     22  C   UNL     1     145.938  72.217 219.752 -0.37 +0.00    +0.006 C  
DOCKED: ENDBRANCH  19  20
DOCKED: ENDBRANCH  18  19
DOCKED: ENDBRANCH  16  18
DOCKED: ENDBRANCH   1  16
DOCKED: TORSDOF 8
DOCKED: TER
DOCKED: ENDMDL
________________________________________________________________________________


    FINAL DOCKED STATE:
    ________________________


Run:   7 / 20
Time taken for this run:   0.034s

DOCKED: MODEL        7
DOCKED: USER    Run = 7
DOCKED: USER
DOCKED: USER    Estimated Free Energy of Binding    =  -5.60 kcal/mol  [=(1)+(2)+(3)-(4)]
DOCKED: USER
DOCKED: USER    (1) Final Intermolecular Energy     =  -7.98 kcal/mol
DOCKED: USER        vdW + Hbond + desolv Energy     =  -8.28 kcal/mol
DOCKED: USER        Electrostatic Energy            =  +0.29 kcal/mol
DOCKED: USER        Moving Ligand-Fixed Receptor    =  -7.98 kcal/mol
DOCKED: USER        Moving Ligand-Moving Receptor   =  +0.00 kcal/mol
DOCKED: USER    (2) Final Total Internal Energy     =  -1.46 kcal/mol
DOCKED: USER    (3) Torsional Free Energy           =  +2.39 kcal/mol
DOCKED: USER    (4) Unbound System's Energy         =  -1.46 kcal/mol
DOCKED: USER
DOCKED: USER
DOCKED: REMARK SMILES CC(C)C[N-]C(=O)C/N=C(/O)c1ccc2ccccc2n1
DOCKED: REMARK SMILES IDX 8 1 9 2 10 3 11 4 12 6 21 7 13 8 20 9 14 10 19 11 15 12
DOCKED: REMARK SMILES IDX 18 13 16 14 17 15 6 16 7 17 5 18 4 19 2 20 1 21 3 22
DOCKED: REMARK H PARENT 11 5
DOCKED: USER                              x       y       z     vdW  Elec       q    Type
DOCKED: USER                           _______ _______ _______ _____ _____    ______ ____
DOCKED: ROOT
DOCKED: ATOM      1  C   UNL     1     140.045  74.356 221.150 -0.19 -0.04    +0.201 C  
DOCKED: ENDROOT
DOCKED: BRANCH   1   2
DOCKED: ATOM      2  N   UNL     1     140.021  73.534 222.356 -0.76 +0.02    -0.244 NA 
DOCKED: BRANCH   2   3
DOCKED: ATOM      3  C   UNL     1     140.419  72.296 222.449 -0.22 -0.02    +0.233 C  
DOCKED: BRANCH   3   4
DOCKED: ATOM      4  O   UNL     1     141.108  71.725 221.383 -0.07 +0.06    -0.492 OA 
DOCKED: ATOM      5  H   UNL     1     141.751  72.273 220.822 +0.10 -0.04    +0.295 HD 
DOCKED: ENDBRANCH   3   4
DOCKED: BRANCH   3   6
DOCKED: ATOM      6  C   UNL     1     140.190  71.472 223.647 -0.34 -0.02    +0.125 A  
DOCKED: ATOM      7  N   UNL     1     140.684  71.894 224.845 -0.27 +0.03    -0.243 NA 
DOCKED: ATOM      8  C   UNL     1     139.592  70.209 223.549 -0.28 -0.01    +0.035 A  
DOCKED: ATOM      9  C   UNL     1     140.583  71.136 225.970 -0.56 -0.01    +0.071 A  
DOCKED: ATOM     10  C   UNL     1     139.460  69.416 224.688 -0.36 -0.00    +0.013 A  
DOCKED: ATOM     11  C   UNL     1     141.101  71.603 227.182 -0.75 -0.00    +0.029 A  
DOCKED: ATOM     12  C   UNL     1     139.961  69.870 225.913 -0.49 -0.00    +0.000 A  
DOCKED: ATOM     13  C   UNL     1     141.012  70.812 228.332 -0.61 -0.00    +0.002 A  
DOCKED: ATOM     14  C   UNL     1     139.879  69.082 227.069 -0.58 -0.00    +0.010 A  
DOCKED: ATOM     15  C   UNL     1     140.411  69.552 228.274 -0.62 -0.00    +0.001 A  
DOCKED: ENDBRANCH   3   6
DOCKED: ENDBRANCH   2   3
DOCKED: ENDBRANCH   1   2
DOCKED: BRANCH   1  16
DOCKED: ATOM     16  C   UNL     1     141.446  74.790 220.875 -0.27 -0.02    +0.073 C  
DOCKED: ATOM     17  O   UNL     1     141.762  76.006 220.993 -0.18 +0.16    -0.318 OA 
DOCKED: BRANCH  16  18
DOCKED: ATOM     18  N   UNL     1     142.430  73.817 220.512 +0.02 +0.15    -0.652 NA 
DOCKED: BRANCH  18  19
DOCKED: ATOM     19  C   UNL     1     143.843  74.147 220.372 -0.34 +0.04    -0.115 C  
DOCKED: BRANCH  19  20
DOCKED: ATOM     20  C   UNL     1     144.722  72.971 220.824 -0.47 +0.01    -0.035 C  
DOCKED: ATOM     21  C   UNL     1     144.862  71.919 219.716 -0.34 +0.00    +0.006 C  
DOCKED: ATOM     22  C   UNL     1     146.104  73.474 221.256 -0.71 -0.00    +0.006 C  
DOCKED: ENDBRANCH  19  20
DOCKED: ENDBRANCH  18  19
DOCKED: ENDBRANCH  16  18
DOCKED: ENDBRANCH   1  16
DOCKED: TORSDOF 8
DOCKED: TER
DOCKED: ENDMDL
________________________________________________________________________________


    FINAL DOCKED STATE:
    ________________________


Run:   8 / 20
Time taken for this run:   0.034s

DOCKED: MODEL        8
DOCKED: USER    Run = 8
DOCKED: USER
DOCKED: USER    Estimated Free Energy of Binding    =  -5.47 kcal/mol  [=(1)+(2)+(3)-(4)]
DOCKED: USER
DOCKED: USER    (1) Final Intermolecular Energy     =  -7.86 kcal/mol
DOCKED: USER        vdW + Hbond + desolv Energy     =  -7.97 kcal/mol
DOCKED: USER        Electrostatic Energy            =  +0.11 kcal/mol
DOCKED: USER        Moving Ligand-Fixed Receptor    =  -7.86 kcal/mol
DOCKED: USER        Moving Ligand-Moving Receptor   =  +0.00 kcal/mol
DOCKED: USER    (2) Final Total Internal Energy     =  -1.35 kcal/mol
DOCKED: USER    (3) Torsional Free Energy           =  +2.39 kcal/mol
DOCKED: USER    (4) Unbound System's Energy         =  -1.35 kcal/mol
DOCKED: USER
DOCKED: USER
DOCKED: REMARK SMILES CC(C)C[N-]C(=O)C/N=C(/O)c1ccc2ccccc2n1
DOCKED: REMARK SMILES IDX 8 1 9 2 10 3 11 4 12 6 21 7 13 8 20 9 14 10 19 11 15 12
DOCKED: REMARK SMILES IDX 18 13 16 14 17 15 6 16 7 17 5 18 4 19 2 20 1 21 3 22
DOCKED: REMARK H PARENT 11 5
DOCKED: USER                              x       y       z     vdW  Elec       q    Type
DOCKED: USER                           _______ _______ _______ _____ _____    ______ ____
DOCKED: ROOT
DOCKED: ATOM      1  C   UNL     1     141.094  73.748 221.212 -0.21 -0.03    +0.201 C  
DOCKED: ENDROOT
DOCKED: BRANCH   1   2
DOCKED: ATOM      2  N   UNL     1     140.306  73.280 222.349 -0.72 +0.01    -0.244 NA 
DOCKED: BRANCH   2   3
DOCKED: ATOM      3  C   UNL     1     139.736  72.114 222.459 -0.21 -0.04    +0.233 C  
DOCKED: BRANCH   3   4
DOCKED: ATOM      4  O   UNL     1     139.086  71.571 221.354 -0.02 +0.09    -0.492 OA 
DOCKED: ATOM      5  H   UNL     1     139.570  71.444 220.472 +0.06 -0.05    +0.295 HD 
DOCKED: ENDBRANCH   3   4
DOCKED: BRANCH   3   6
DOCKED: ATOM      6  C   UNL     1     139.764  71.325 223.702 -0.32 -0.02    +0.125 A  
DOCKED: ATOM      7  N   UNL     1     140.338  71.863 224.814 -0.26 +0.04    -0.243 NA 
DOCKED: ATOM      8  C   UNL     1     139.331  69.993 223.720 -0.28 -0.01    +0.035 A  
DOCKED: ATOM      9  C   UNL     1     140.475  71.154 225.966 -0.55 -0.01    +0.071 A  
DOCKED: ATOM     10  C   UNL     1     139.444  69.245 224.891 -0.38 -0.00    +0.013 A  
DOCKED: ATOM     11  C   UNL     1     141.069  71.740 227.088 -0.76 -0.01    +0.029 A  
DOCKED: ATOM     12  C   UNL     1     140.024  69.817 226.028 -0.50 -0.00    +0.000 A  
DOCKED: ATOM     13  C   UNL     1     141.225  71.000 228.264 -0.61 -0.00    +0.002 A  
DOCKED: ATOM     14  C   UNL     1     140.187  69.081 227.209 -0.60 -0.00    +0.010 A  
DOCKED: ATOM     15  C   UNL     1     140.794  69.672 228.322 -0.59 -0.00    +0.001 A  
DOCKED: ENDBRANCH   3   6
DOCKED: ENDBRANCH   2   3
DOCKED: ENDBRANCH   1   2
DOCKED: BRANCH   1  16
DOCKED: ATOM     16  C   UNL     1     141.704  72.577 220.518 -0.18 -0.01    +0.073 C  
DOCKED: ATOM     17  O   UNL     1     141.123  72.063 219.523 -0.03 +0.05    -0.318 OA 
DOCKED: BRANCH  16  18
DOCKED: ATOM     18  N   UNL     1     142.962  72.065 220.967 +0.07 +0.08    -0.652 NA 
DOCKED: BRANCH  18  19
DOCKED: ATOM     19  C   UNL     1     144.221  72.391 220.309 -0.31 +0.01    -0.115 C  
DOCKED: BRANCH  19  20
DOCKED: ATOM     20  C   UNL     1     144.786  73.715 220.846 -0.51 +0.01    -0.035 C  
DOCKED: ATOM     21  C   UNL     1     146.317  73.753 220.742 -0.65 -0.00    +0.006 C  
DOCKED: ATOM     22  C   UNL     1     144.173  74.901 220.090 -0.42 -0.00    +0.006 C  
DOCKED: ENDBRANCH  19  20
DOCKED: ENDBRANCH  18  19
DOCKED: ENDBRANCH  16  18
DOCKED: ENDBRANCH   1  16
DOCKED: TORSDOF 8
DOCKED: TER
DOCKED: ENDMDL
________________________________________________________________________________


    FINAL DOCKED STATE:
    ________________________


Run:   9 / 20
Time taken for this run:   0.034s

DOCKED: MODEL        9
DOCKED: USER    Run = 9
DOCKED: USER
DOCKED: USER    Estimated Free Energy of Binding    =  -5.49 kcal/mol  [=(1)+(2)+(3)-(4)]
DOCKED: USER
DOCKED: USER    (1) Final Intermolecular Energy     =  -7.88 kcal/mol
DOCKED: USER        vdW + Hbond + desolv Energy     =  -8.03 kcal/mol
DOCKED: USER        Electrostatic Energy            =  +0.15 kcal/mol
DOCKED: USER        Moving Ligand-Fixed Receptor    =  -7.88 kcal/mol
DOCKED: USER        Moving Ligand-Moving Receptor   =  +0.00 kcal/mol
DOCKED: USER    (2) Final Total Internal Energy     =  -1.30 kcal/mol
DOCKED: USER    (3) Torsional Free Energy           =  +2.39 kcal/mol
DOCKED: USER    (4) Unbound System's Energy         =  -1.30 kcal/mol
DOCKED: USER
DOCKED: USER
DOCKED: REMARK SMILES CC(C)C[N-]C(=O)C/N=C(/O)c1ccc2ccccc2n1
DOCKED: REMARK SMILES IDX 8 1 9 2 10 3 11 4 12 6 21 7 13 8 20 9 14 10 19 11 15 12
DOCKED: REMARK SMILES IDX 18 13 16 14 17 15 6 16 7 17 5 18 4 19 2 20 1 21 3 22
DOCKED: REMARK H PARENT 11 5
DOCKED: USER                              x       y       z     vdW  Elec       q    Type
DOCKED: USER                           _______ _______ _______ _____ _____    ______ ____
DOCKED: ROOT
DOCKED: ATOM      1  C   UNL     1     140.862  72.709 220.430 -0.11 -0.03    +0.201 C  
DOCKED: ENDROOT
DOCKED: BRANCH   1   2
DOCKED: ATOM      2  N   UNL     1     140.409  71.729 221.414 -0.11 +0.03    -0.244 NA 
DOCKED: BRANCH   2   3
DOCKED: ATOM      3  C   UNL     1     139.649  71.972 222.444 -0.21 -0.04    +0.233 C  
DOCKED: BRANCH   3   4
DOCKED: ATOM      4  O   UNL     1     138.683  72.969 222.353 -0.11 +0.15    -0.492 OA 
DOCKED: ATOM      5  H   UNL     1     138.850  73.895 222.733 -0.50 -0.13    +0.295 HD 
DOCKED: ENDBRANCH   3   4
DOCKED: BRANCH   3   6
DOCKED: ATOM      6  C   UNL     1     139.749  71.219 223.705 -0.32 -0.02    +0.125 A  
DOCKED: ATOM      7  N   UNL     1     140.304  71.822 224.794 -0.26 +0.04    -0.243 NA 
DOCKED: ATOM      8  C   UNL     1     139.406  69.861 223.763 -0.27 -0.01    +0.035 A  
DOCKED: ATOM      9  C   UNL     1     140.506  71.152 225.960 -0.55 -0.01    +0.071 A  
DOCKED: ATOM     10  C   UNL     1     139.586  69.153 224.950 -0.39 -0.00    +0.013 A  
DOCKED: ATOM     11  C   UNL     1     141.078  71.805 227.056 -0.76 -0.01    +0.029 A  
DOCKED: ATOM     12  C   UNL     1     140.145  69.791 226.062 -0.50 -0.00    +0.000 A  
DOCKED: ATOM     13  C   UNL     1     141.300  71.106 228.248 -0.60 -0.00    +0.002 A  
DOCKED: ATOM     14  C   UNL     1     140.375  69.097 227.258 -0.61 -0.00    +0.010 A  
DOCKED: ATOM     15  C   UNL     1     140.959  69.755 228.346 -0.58 -0.00    +0.001 A  
DOCKED: ENDBRANCH   3   6
DOCKED: ENDBRANCH   2   3
DOCKED: ENDBRANCH   1   2
DOCKED: BRANCH   1  16
DOCKED: ATOM     16  C   UNL     1     141.451  73.883 221.137 -0.25 -0.01    +0.073 C  
DOCKED: ATOM     17  O   UNL     1     142.696  74.082 221.096 -0.13 +0.08    -0.318 OA 
DOCKED: BRANCH  16  18
DOCKED: ATOM     18  N   UNL     1     140.594  74.795 221.831 -0.41 +0.07    -0.652 NA 
DOCKED: BRANCH  18  19
DOCKED: ATOM     19  C   UNL     1     140.447  76.190 221.432 -0.28 +0.03    -0.115 C  
DOCKED: BRANCH  19  20
DOCKED: ATOM     20  C   UNL     1     140.164  77.076 222.654 -0.27 +0.01    -0.035 C  
DOCKED: ATOM     21  C   UNL     1     141.104  78.289 222.695 -0.50 -0.00    +0.006 C  
DOCKED: ATOM     22  C   UNL     1     138.702  77.538 222.651 -0.29 -0.00    +0.006 C  
DOCKED: ENDBRANCH  19  20
DOCKED: ENDBRANCH  18  19
DOCKED: ENDBRANCH  16  18
DOCKED: ENDBRANCH   1  16
DOCKED: TORSDOF 8
DOCKED: TER
DOCKED: ENDMDL
________________________________________________________________________________


    FINAL DOCKED STATE:
    ________________________


Run:   10 / 20
Time taken for this run:   0.034s

DOCKED: MODEL        10
DOCKED: USER    Run = 10
DOCKED: USER
DOCKED: USER    Estimated Free Energy of Binding    =  -5.47 kcal/mol  [=(1)+(2)+(3)-(4)]
DOCKED: USER
DOCKED: USER    (1) Final Intermolecular Energy     =  -7.86 kcal/mol
DOCKED: USER        vdW + Hbond + desolv Energy     =  -7.94 kcal/mol
DOCKED: USER        Electrostatic Energy            =  +0.08 kcal/mol
DOCKED: USER        Moving Ligand-Fixed Receptor    =  -7.86 kcal/mol
DOCKED: USER        Moving Ligand-Moving Receptor   =  +0.00 kcal/mol
DOCKED: USER    (2) Final Total Internal Energy     =  -1.45 kcal/mol
DOCKED: USER    (3) Torsional Free Energy           =  +2.39 kcal/mol
DOCKED: USER    (4) Unbound System's Energy         =  -1.45 kcal/mol
DOCKED: USER
DOCKED: USER
DOCKED: REMARK SMILES CC(C)C[N-]C(=O)C/N=C(/O)c1ccc2ccccc2n1
DOCKED: REMARK SMILES IDX 8 1 9 2 10 3 11 4 12 6 21 7 13 8 20 9 14 10 19 11 15 12
DOCKED: REMARK SMILES IDX 18 13 16 14 17 15 6 16 7 17 5 18 4 19 2 20 1 21 3 22
DOCKED: REMARK H PARENT 11 5
DOCKED: USER                              x       y       z     vdW  Elec       q    Type
DOCKED: USER                           _______ _______ _______ _____ _____    ______ ____
DOCKED: ROOT
DOCKED: ATOM      1  C   UNL     1     140.229  72.373 220.550 -0.09 -0.03    +0.201 C  
DOCKED: ENDROOT
DOCKED: BRANCH   1   2
DOCKED: ATOM      2  N   UNL     1     139.763  71.371 221.504 -0.09 +0.04    -0.244 NA 
DOCKED: BRANCH   2   3
DOCKED: ATOM      3  C   UNL     1     139.137  71.610 222.622 -0.18 -0.05    +0.233 C  
DOCKED: BRANCH   3   4
DOCKED: ATOM      4  O   UNL     1     138.198  72.636 222.666 -0.03 +0.18    -0.492 OA 
DOCKED: ATOM      5  H   UNL     1     138.483  73.600 222.799 -0.49 -0.16    +0.295 HD 
DOCKED: ENDBRANCH   3   4
DOCKED: BRANCH   3   6
DOCKED: ATOM      6  C   UNL     1     139.363  70.824 223.847 -0.29 -0.02    +0.125 A  
DOCKED: ATOM      7  N   UNL     1     139.888  71.441 224.942 -0.28 +0.05    -0.243 NA 
DOCKED: ATOM      8  C   UNL     1     139.169  69.436 223.858 -0.28 -0.01    +0.035 A  
DOCKED: ATOM      9  C   UNL     1     140.202  70.753 226.071 -0.50 -0.01    +0.071 A  
DOCKED: ATOM     10  C   UNL     1     139.467  68.706 225.007 -0.40 -0.00    +0.013 A  
DOCKED: ATOM     11  C   UNL     1     140.739  71.421 227.176 -0.72 -0.01    +0.029 A  
DOCKED: ATOM     12  C   UNL     1     139.993  69.357 226.127 -0.50 -0.00    +0.000 A  
DOCKED: ATOM     13  C   UNL     1     141.077  70.705 228.330 -0.60 -0.00    +0.002 A  
DOCKED: ATOM     14  C   UNL     1     140.339  68.647 227.285 -0.64 -0.00    +0.010 A  
DOCKED: ATOM     15  C   UNL     1     140.887  69.322 228.381 -0.60 -0.00    +0.001 A  
DOCKED: ENDBRANCH   3   6
DOCKED: ENDBRANCH   2   3
DOCKED: ENDBRANCH   1   2
DOCKED: BRANCH   1  16
DOCKED: ATOM     16  C   UNL     1     141.002  73.423 221.274 -0.25 -0.01    +0.073 C  
DOCKED: ATOM     17  O   UNL     1     142.262  73.429 221.216 -0.17 +0.04    -0.318 OA 
DOCKED: BRANCH  16  18
DOCKED: ATOM     18  N   UNL     1     140.305  74.438 222.003 -0.57 +0.04    -0.652 NA 
DOCKED: BRANCH  18  19
DOCKED: ATOM     19  C   UNL     1     140.703  75.841 221.968 -0.31 +0.03    -0.115 C  
DOCKED: BRANCH  19  20
DOCKED: ATOM     20  C   UNL     1     139.469  76.755 221.954 -0.32 +0.01    -0.035 C  
DOCKED: ATOM     21  C   UNL     1     138.258  76.068 222.598 -0.27 -0.00    +0.006 C  
DOCKED: ATOM     22  C   UNL     1     139.775  78.075 222.672 -0.35 -0.00    +0.006 C  
DOCKED: ENDBRANCH  19  20
DOCKED: ENDBRANCH  18  19
DOCKED: ENDBRANCH  16  18
DOCKED: ENDBRANCH   1  16
DOCKED: TORSDOF 8
DOCKED: TER
DOCKED: ENDMDL
________________________________________________________________________________


    FINAL DOCKED STATE:
    ________________________


Run:   11 / 20
Time taken for this run:   0.034s

DOCKED: MODEL        11
DOCKED: USER    Run = 11
DOCKED: USER
DOCKED: USER    Estimated Free Energy of Binding    =  -5.65 kcal/mol  [=(1)+(2)+(3)-(4)]
DOCKED: USER
DOCKED: USER    (1) Final Intermolecular Energy     =  -8.04 kcal/mol
DOCKED: USER        vdW + Hbond + desolv Energy     =  -8.13 kcal/mol
DOCKED: USER        Electrostatic Energy            =  +0.10 kcal/mol
DOCKED: USER        Moving Ligand-Fixed Receptor    =  -8.04 kcal/mol
DOCKED: USER        Moving Ligand-Moving Receptor   =  +0.00 kcal/mol
DOCKED: USER    (2) Final Total Internal Energy     =  -1.34 kcal/mol
DOCKED: USER    (3) Torsional Free Energy           =  +2.39 kcal/mol
DOCKED: USER    (4) Unbound System's Energy         =  -1.34 kcal/mol
DOCKED: USER
DOCKED: USER
DOCKED: REMARK SMILES CC(C)C[N-]C(=O)C/N=C(/O)c1ccc2ccccc2n1
DOCKED: REMARK SMILES IDX 8 1 9 2 10 3 11 4 12 6 21 7 13 8 20 9 14 10 19 11 15 12
DOCKED: REMARK SMILES IDX 18 13 16 14 17 15 6 16 7 17 5 18 4 19 2 20 1 21 3 22
DOCKED: REMARK H PARENT 11 5
DOCKED: USER                              x       y       z     vdW  Elec       q    Type
DOCKED: USER                           _______ _______ _______ _____ _____    ______ ____
DOCKED: ROOT
DOCKED: ATOM      1  C   UNL     1     141.269  72.917 221.343 -0.19 -0.02    +0.201 C  
DOCKED: ENDROOT
DOCKED: BRANCH   1   2
DOCKED: ATOM      2  N   UNL     1     140.355  71.824 221.661 -0.14 +0.03    -0.244 NA 
DOCKED: BRANCH   2   3
DOCKED: ATOM      3  C   UNL     1     139.449  71.830 222.599 -0.21 -0.05    +0.233 C  
DOCKED: BRANCH   3   4
DOCKED: ATOM      4  O   UNL     1     138.326  72.638 222.449 -0.06 +0.16    -0.492 OA 
DOCKED: ATOM      5  H   UNL     1     138.329  73.602 222.765 -0.49 -0.16    +0.295 HD 
DOCKED: ENDBRANCH   3   4
DOCKED: BRANCH   3   6
DOCKED: ATOM      6  C   UNL     1     139.549  71.000 223.811 -0.31 -0.02    +0.125 A  
DOCKED: ATOM      7  N   UNL     1     140.092  71.537 224.938 -0.29 +0.05    -0.243 NA 
DOCKED: ATOM      8  C   UNL     1     139.216  69.639 223.780 -0.27 -0.01    +0.035 A  
DOCKED: ATOM      9  C   UNL     1     140.294  70.797 226.061 -0.52 -0.01    +0.071 A  
DOCKED: ATOM     10  C   UNL     1     139.396  68.858 224.921 -0.39 -0.00    +0.013 A  
DOCKED: ATOM     11  C   UNL     1     140.854  71.383 227.200 -0.72 -0.01    +0.029 A  
DOCKED: ATOM     12  C   UNL     1     139.943  69.429 226.075 -0.49 -0.00    +0.000 A  
DOCKED: ATOM     13  C   UNL     1     141.076  70.613 228.346 -0.58 -0.00    +0.002 A  
DOCKED: ATOM     14  C   UNL     1     140.173  68.663 227.226 -0.63 -0.00    +0.010 A  
DOCKED: ATOM     15  C   UNL     1     140.745  69.255 228.356 -0.62 -0.00    +0.001 A  
DOCKED: ENDBRANCH   3   6
DOCKED: ENDBRANCH   2   3
DOCKED: ENDBRANCH   1   2
DOCKED: BRANCH   1  16
DOCKED: ATOM     16  C   UNL     1     140.489  74.173 221.148 -0.25 -0.01    +0.073 C  
DOCKED: ATOM     17  O   UNL     1     140.256  74.595 219.982 -0.04 +0.07    -0.318 OA 
DOCKED: BRANCH  16  18
DOCKED: ATOM     18  N   UNL     1     139.981  74.875 222.287 -0.46 +0.04    -0.652 NA 
DOCKED: BRANCH  18  19
DOCKED: ATOM     19  C   UNL     1     139.733  76.312 222.276 -0.30 +0.02    -0.115 C  
DOCKED: BRANCH  19  20
DOCKED: ATOM     20  C   UNL     1     141.056  77.089 222.213 -0.36 +0.01    -0.035 C  
DOCKED: ATOM     21  C   UNL     1     141.417  77.463 220.769 -0.31 -0.00    +0.006 C  
DOCKED: ATOM     22  C   UNL     1     140.976  78.349 223.083 -0.50 -0.00    +0.006 C  
DOCKED: ENDBRANCH  19  20
DOCKED: ENDBRANCH  18  19
DOCKED: ENDBRANCH  16  18
DOCKED: ENDBRANCH   1  16
DOCKED: TORSDOF 8
DOCKED: TER
DOCKED: ENDMDL
________________________________________________________________________________


    FINAL DOCKED STATE:
    ________________________


Run:   12 / 20
Time taken for this run:   0.034s

DOCKED: MODEL        12
DOCKED: USER    Run = 12
DOCKED: USER
DOCKED: USER    Estimated Free Energy of Binding    =  -6.06 kcal/mol  [=(1)+(2)+(3)-(4)]
DOCKED: USER
DOCKED: USER    (1) Final Intermolecular Energy     =  -8.45 kcal/mol
DOCKED: USER        vdW + Hbond + desolv Energy     =  -8.59 kcal/mol
DOCKED: USER        Electrostatic Energy            =  +0.15 kcal/mol
DOCKED: USER        Moving Ligand-Fixed Receptor    =  -8.45 kcal/mol
DOCKED: USER        Moving Ligand-Moving Receptor   =  +0.00 kcal/mol
DOCKED: USER    (2) Final Total Internal Energy     =  -1.18 kcal/mol
DOCKED: USER    (3) Torsional Free Energy           =  +2.39 kcal/mol
DOCKED: USER    (4) Unbound System's Energy         =  -1.18 kcal/mol
DOCKED: USER
DOCKED: USER
DOCKED: REMARK SMILES CC(C)C[N-]C(=O)C/N=C(/O)c1ccc2ccccc2n1
DOCKED: REMARK SMILES IDX 8 1 9 2 10 3 11 4 12 6 21 7 13 8 20 9 14 10 19 11 15 12
DOCKED: REMARK SMILES IDX 18 13 16 14 17 15 6 16 7 17 5 18 4 19 2 20 1 21 3 22
DOCKED: REMARK H PARENT 11 5
DOCKED: USER                              x       y       z     vdW  Elec       q    Type
DOCKED: USER                           _______ _______ _______ _____ _____    ______ ____
DOCKED: ROOT
DOCKED: ATOM      1  C   UNL     1     140.627  72.426 220.452 -0.10 -0.03    +0.201 C  
DOCKED: ENDROOT
DOCKED: BRANCH   1   2
DOCKED: ATOM      2  N   UNL     1     140.197  71.443 221.442 -0.10 +0.04    -0.244 NA 
DOCKED: BRANCH   2   3
DOCKED: ATOM      3  C   UNL     1     139.449  71.680 222.483 -0.19 -0.05    +0.233 C  
DOCKED: BRANCH   3   4
DOCKED: ATOM      4  O   UNL     1     138.493  72.688 222.414 -0.07 +0.16    -0.492 OA 
DOCKED: ATOM      5  H   UNL     1     138.691  73.622 222.758 -0.48 -0.14    +0.295 HD 
DOCKED: ENDBRANCH   3   4
DOCKED: BRANCH   3   6
DOCKED: ATOM      6  C   UNL     1     139.554  70.909 223.733 -0.30 -0.02    +0.125 A  
DOCKED: ATOM      7  N   UNL     1     140.070  71.512 224.841 -0.30 +0.05    -0.243 NA 
DOCKED: ATOM      8  C   UNL     1     139.256  69.541 223.763 -0.27 -0.01    +0.035 A  
DOCKED: ATOM      9  C   UNL     1     140.276  70.830 225.999 -0.52 -0.01    +0.071 A  
DOCKED: ATOM     10  C   UNL     1     139.441  68.819 224.941 -0.39 -0.00    +0.013 A  
DOCKED: ATOM     11  C   UNL     1     140.807  71.483 227.116 -0.73 -0.01    +0.029 A  
DOCKED: ATOM     12  C   UNL     1     139.959  69.456 226.073 -0.49 -0.00    +0.000 A  
DOCKED: ATOM     13  C   UNL     1     141.034  70.773 228.299 -0.61 -0.00    +0.002 A  
DOCKED: ATOM     14  C   UNL     1     140.194  68.751 227.261 -0.63 -0.00    +0.010 A  
DOCKED: ATOM     15  C   UNL     1     140.737  69.409 228.369 -0.60 -0.00    +0.001 A  
DOCKED: ENDBRANCH   3   6
DOCKED: ENDBRANCH   2   3
DOCKED: ENDBRANCH   1   2
DOCKED: BRANCH   1  16
DOCKED: ATOM     16  C   UNL     1     141.271  73.578 221.146 -0.25 -0.01    +0.073 C  
DOCKED: ATOM     17  O   UNL     1     140.626  74.231 222.012 -0.75 +0.01    -0.318 OA 
DOCKED: BRANCH  16  18
DOCKED: ATOM     18  N   UNL     1     142.630  73.914 220.849 +0.04 +0.15    -0.652 NA 
DOCKED: BRANCH  18  19
DOCKED: ATOM     19  C   UNL     1     143.697  72.921 220.828 -0.24 +0.02    -0.115 C  
DOCKED: BRANCH  19  20
DOCKED: ATOM     20  C   UNL     1     145.041  73.575 220.475 -0.54 +0.01    -0.035 C  
DOCKED: ATOM     21  C   UNL     1     146.071  73.376 221.594 -0.70 -0.00    +0.006 C  
DOCKED: ATOM     22  C   UNL     1     145.577  73.011 219.154 -0.37 +0.00    +0.006 C  
DOCKED: ENDBRANCH  19  20
DOCKED: ENDBRANCH  18  19
DOCKED: ENDBRANCH  16  18
DOCKED: ENDBRANCH   1  16
DOCKED: TORSDOF 8
DOCKED: TER
DOCKED: ENDMDL
________________________________________________________________________________


    FINAL DOCKED STATE:
    ________________________


Run:   13 / 20
Time taken for this run:   0.034s

DOCKED: MODEL        13
DOCKED: USER    Run = 13
DOCKED: USER
DOCKED: USER    Estimated Free Energy of Binding    =  -6.17 kcal/mol  [=(1)+(2)+(3)-(4)]
DOCKED: USER
DOCKED: USER    (1) Final Intermolecular Energy     =  -8.55 kcal/mol
DOCKED: USER        vdW + Hbond + desolv Energy     =  -8.62 kcal/mol
DOCKED: USER        Electrostatic Energy            =  +0.07 kcal/mol
DOCKED: USER        Moving Ligand-Fixed Receptor    =  -8.55 kcal/mol
DOCKED: USER        Moving Ligand-Moving Receptor   =  +0.00 kcal/mol
DOCKED: USER    (2) Final Total Internal Energy     =  -1.15 kcal/mol
DOCKED: USER    (3) Torsional Free Energy           =  +2.39 kcal/mol
DOCKED: USER    (4) Unbound System's Energy         =  -1.15 kcal/mol
DOCKED: USER
DOCKED: USER
DOCKED: REMARK SMILES CC(C)C[N-]C(=O)C/N=C(/O)c1ccc2ccccc2n1
DOCKED: REMARK SMILES IDX 8 1 9 2 10 3 11 4 12 6 21 7 13 8 20 9 14 10 19 11 15 12
DOCKED: REMARK SMILES IDX 18 13 16 14 17 15 6 16 7 17 5 18 4 19 2 20 1 21 3 22
DOCKED: REMARK H PARENT 11 5
DOCKED: USER                              x       y       z     vdW  Elec       q    Type
DOCKED: USER                           _______ _______ _______ _____ _____    ______ ____
DOCKED: ROOT
DOCKED: ATOM      1  C   UNL     1     140.666  72.424 221.654 -0.20 -0.02    +0.201 C  
DOCKED: ENDROOT
DOCKED: BRANCH   1   2
DOCKED: ATOM      2  N   UNL     1     141.143  73.783 221.894 -0.50 +0.01    -0.244 NA 
DOCKED: BRANCH   2   3
DOCKED: ATOM      3  C   UNL     1     140.404  74.854 221.967 -0.07 -0.02    +0.233 C  
DOCKED: BRANCH   3   4
DOCKED: ATOM      4  O   UNL     1     139.043  74.720 222.224 -0.37 +0.12    -0.492 OA 
DOCKED: ATOM      5  H   UNL     1     138.705  74.077 222.931 -0.50 -0.17    +0.295 HD 
DOCKED: ENDBRANCH   3   4
DOCKED: BRANCH   3   6
DOCKED: ATOM      6  C   UNL     1     140.949  76.213 221.810 -0.31 -0.04    +0.125 A  
DOCKED: ATOM      7  N   UNL     1     141.037  77.021 222.903 -0.21 +0.08    -0.243 NA 
DOCKED: ATOM      8  C   UNL     1     141.254  76.724 220.542 -0.26 -0.02    +0.035 A  
DOCKED: ATOM      9  C   UNL     1     141.447  78.314 222.809 -0.47 -0.03    +0.071 A  
DOCKED: ATOM     10  C   UNL     1     141.694  78.041 220.415 -0.31 -0.01    +0.013 A  
DOCKED: ATOM     11  C   UNL     1     141.525  79.113 223.953 -0.57 -0.01    +0.029 A  
DOCKED: ATOM     12  C   UNL     1     141.790  78.854 221.550 -0.41 -0.00    +0.000 A  
DOCKED: ATOM     13  C   UNL     1     141.930  80.448 223.848 -0.61 -0.00    +0.002 A  
DOCKED: ATOM     14  C   UNL     1     142.191  80.193 221.452 -0.42 -0.00    +0.010 A  
DOCKED: ATOM     15  C   UNL     1     142.253  80.989 222.601 -0.54 -0.00    +0.001 A  
DOCKED: ENDBRANCH   3   6
DOCKED: ENDBRANCH   2   3
DOCKED: ENDBRANCH   1   2
DOCKED: BRANCH   1  16
DOCKED: ATOM     16  C   UNL     1     139.928  71.940 222.857 -0.30 -0.01    +0.073 C  
DOCKED: ATOM     17  O   UNL     1     138.667  71.927 222.858 -0.15 +0.09    -0.318 OA 
DOCKED: BRANCH  16  18
DOCKED: ATOM     18  N   UNL     1     140.658  71.463 223.991 -0.01 +0.07    -0.652 NA 
DOCKED: BRANCH  18  19
DOCKED: ATOM     19  C   UNL     1     140.088  71.427 225.333 -0.37 +0.02    -0.115 C  
DOCKED: BRANCH  19  20
DOCKED: ATOM     20  C   UNL     1     141.157  71.047 226.367 -0.62 +0.00    -0.035 C  
DOCKED: ATOM     21  C   UNL     1     141.070  71.937 227.614 -0.84 -0.00    +0.006 C  
DOCKED: ATOM     22  C   UNL     1     141.019  69.571 226.758 -0.57 -0.00    +0.006 C  
DOCKED: ENDBRANCH  19  20
DOCKED: ENDBRANCH  18  19
DOCKED: ENDBRANCH  16  18
DOCKED: ENDBRANCH   1  16
DOCKED: TORSDOF 8
DOCKED: TER
DOCKED: ENDMDL
________________________________________________________________________________


    FINAL DOCKED STATE:
    ________________________


Run:   14 / 20
Time taken for this run:   0.034s

DOCKED: MODEL        14
DOCKED: USER    Run = 14
DOCKED: USER
DOCKED: USER    Estimated Free Energy of Binding    =  -5.29 kcal/mol  [=(1)+(2)+(3)-(4)]
DOCKED: USER
DOCKED: USER    (1) Final Intermolecular Energy     =  -7.68 kcal/mol
DOCKED: USER        vdW + Hbond + desolv Energy     =  -7.75 kcal/mol
DOCKED: USER        Electrostatic Energy            =  +0.07 kcal/mol
DOCKED: USER        Moving Ligand-Fixed Receptor    =  -7.68 kcal/mol
DOCKED: USER        Moving Ligand-Moving Receptor   =  +0.00 kcal/mol
DOCKED: USER    (2) Final Total Internal Energy     =  -1.39 kcal/mol
DOCKED: USER    (3) Torsional Free Energy           =  +2.39 kcal/mol
DOCKED: USER    (4) Unbound System's Energy         =  -1.39 kcal/mol
DOCKED: USER
DOCKED: USER
DOCKED: REMARK SMILES CC(C)C[N-]C(=O)C/N=C(/O)c1ccc2ccccc2n1
DOCKED: REMARK SMILES IDX 8 1 9 2 10 3 11 4 12 6 21 7 13 8 20 9 14 10 19 11 15 12
DOCKED: REMARK SMILES IDX 18 13 16 14 17 15 6 16 7 17 5 18 4 19 2 20 1 21 3 22
DOCKED: REMARK H PARENT 11 5
DOCKED: USER                              x       y       z     vdW  Elec       q    Type
DOCKED: USER                           _______ _______ _______ _____ _____    ______ ____
DOCKED: ROOT
DOCKED: ATOM      1  C   UNL     1     140.117  73.347 220.210 -0.08 -0.04    +0.201 C  
DOCKED: ENDROOT
DOCKED: BRANCH   1   2
DOCKED: ATOM      2  N   UNL     1     139.707  74.739 220.368 -0.06 +0.05    -0.244 NA 
DOCKED: BRANCH   2   3
DOCKED: ATOM      3  C   UNL     1     139.806  75.449 221.456 -0.21 -0.05    +0.233 C  
DOCKED: BRANCH   3   4
DOCKED: ATOM      4  O   UNL     1     139.223  74.976 222.628 -0.40 +0.10    -0.492 OA 
DOCKED: ATOM      5  H   UNL     1     139.137  73.981 222.805 -0.47 -0.10    +0.295 HD 
DOCKED: ENDBRANCH   3   4
DOCKED: BRANCH   3   6
DOCKED: ATOM      6  C   UNL     1     140.529  76.730 221.510 -0.28 -0.04    +0.125 A  
DOCKED: ATOM      7  N   UNL     1     140.816  77.278 222.725 -0.27 +0.08    -0.243 NA 
DOCKED: ATOM      8  C   UNL     1     140.809  77.450 220.341 -0.20 -0.01    +0.035 A  
DOCKED: ATOM      9  C   UNL     1     141.401  78.500 222.841 -0.48 -0.03    +0.071 A  
DOCKED: ATOM     10  C   UNL     1     141.424  78.698 220.428 -0.29 -0.01    +0.013 A  
DOCKED: ATOM     11  C   UNL     1     141.680  79.029 224.105 -0.56 -0.01    +0.029 A  
DOCKED: ATOM     12  C   UNL     1     141.723  79.240 221.682 -0.43 -0.00    +0.000 A  
DOCKED: ATOM     13  C   UNL     1     142.266  80.294 224.219 -0.49 -0.00    +0.002 A  
DOCKED: ATOM     14  C   UNL     1     142.305  80.508 221.805 -0.46 -0.00    +0.010 A  
DOCKED: ATOM     15  C   UNL     1     142.570  81.036 223.074 -0.55 -0.00    +0.001 A  
DOCKED: ENDBRANCH   3   6
DOCKED: ENDBRANCH   2   3
DOCKED: ENDBRANCH   1   2
DOCKED: BRANCH   1  16
DOCKED: ATOM     16  C   UNL     1     141.228  73.048 221.160 -0.24 -0.01    +0.073 C  
DOCKED: ATOM     17  O   UNL     1     140.988  72.940 222.394 -0.51 -0.00    -0.318 OA 
DOCKED: BRANCH  16  18
DOCKED: ATOM     18  N   UNL     1     142.554  72.853 220.660 +0.04 +0.10    -0.652 NA 
DOCKED: BRANCH  18  19
DOCKED: ATOM     19  C   UNL     1     143.507  73.948 220.519 -0.29 +0.03    -0.115 C  
DOCKED: BRANCH  19  20
DOCKED: ATOM     20  C   UNL     1     144.892  73.414 220.122 -0.48 +0.00    -0.035 C  
DOCKED: ATOM     21  C   UNL     1     145.920  73.642 221.238 -0.69 -0.00    +0.006 C  
DOCKED: ATOM     22  C   UNL     1     144.808  71.923 219.774 -0.34 +0.00    +0.006 C  
DOCKED: ENDBRANCH  19  20
DOCKED: ENDBRANCH  18  19
DOCKED: ENDBRANCH  16  18
DOCKED: ENDBRANCH   1  16
DOCKED: TORSDOF 8
DOCKED: TER
DOCKED: ENDMDL
________________________________________________________________________________


    FINAL DOCKED STATE:
    ________________________


Run:   15 / 20
Time taken for this run:   0.034s

DOCKED: MODEL        15
DOCKED: USER    Run = 15
DOCKED: USER
DOCKED: USER    Estimated Free Energy of Binding    =  -5.52 kcal/mol  [=(1)+(2)+(3)-(4)]
DOCKED: USER
DOCKED: USER    (1) Final Intermolecular Energy     =  -7.91 kcal/mol
DOCKED: USER        vdW + Hbond + desolv Energy     =  -8.07 kcal/mol
DOCKED: USER        Electrostatic Energy            =  +0.16 kcal/mol
DOCKED: USER        Moving Ligand-Fixed Receptor    =  -7.91 kcal/mol
DOCKED: USER        Moving Ligand-Moving Receptor   =  +0.00 kcal/mol
DOCKED: USER    (2) Final Total Internal Energy     =  -1.26 kcal/mol
DOCKED: USER    (3) Torsional Free Energy           =  +2.39 kcal/mol
DOCKED: USER    (4) Unbound System's Energy         =  -1.26 kcal/mol
DOCKED: USER
DOCKED: USER
DOCKED: REMARK SMILES CC(C)C[N-]C(=O)C/N=C(/O)c1ccc2ccccc2n1
DOCKED: REMARK SMILES IDX 8 1 9 2 10 3 11 4 12 6 21 7 13 8 20 9 14 10 19 11 15 12
DOCKED: REMARK SMILES IDX 18 13 16 14 17 15 6 16 7 17 5 18 4 19 2 20 1 21 3 22
DOCKED: REMARK H PARENT 11 5
DOCKED: USER                              x       y       z     vdW  Elec       q    Type
DOCKED: USER                           _______ _______ _______ _____ _____    ______ ____
DOCKED: ROOT
DOCKED: ATOM      1  C   UNL     1     141.167  72.194 221.769 -0.17 -0.02    +0.201 C  
DOCKED: ENDROOT
DOCKED: BRANCH   1   2
DOCKED: ATOM      2  N   UNL     1     139.999  71.340 221.968 -0.13 +0.04    -0.244 NA 
DOCKED: BRANCH   2   3
DOCKED: ATOM      3  C   UNL     1     139.214  71.346 223.008 -0.20 -0.05    +0.233 C  
DOCKED: BRANCH   3   4
DOCKED: ATOM      4  O   UNL     1     138.146  72.236 223.045 -0.01 +0.19    -0.492 OA 
DOCKED: ATOM      5  H   UNL     1     138.301  73.239 223.066 -0.44 -0.19    +0.295 HD 
DOCKED: ENDBRANCH   3   4
DOCKED: BRANCH   3   6
DOCKED: ATOM      6  C   UNL     1     139.392  70.431 224.148 -0.29 -0.02    +0.125 A  
DOCKED: ATOM      7  N   UNL     1     140.075  70.864 225.244 -0.30 +0.04    -0.243 NA 
DOCKED: ATOM      8  C   UNL     1     138.987  69.092 224.067 -0.30 -0.01    +0.035 A  
DOCKED: ATOM      9  C   UNL     1     140.350  70.040 226.290 -0.48 -0.01    +0.071 A  
DOCKED: ATOM     10  C   UNL     1     139.240  68.227 225.131 -0.44 -0.00    +0.013 A  
DOCKED: ATOM     11  C   UNL     1     141.054  70.521 227.399 -0.60 -0.01    +0.029 A  
DOCKED: ATOM     12  C   UNL     1     139.931  68.692 226.254 -0.56 -0.00    +0.000 A  
DOCKED: ATOM     13  C   UNL     1     141.350  69.664 228.464 -0.42 -0.00    +0.002 A  
DOCKED: ATOM     14  C   UNL     1     140.236  67.839 227.324 -0.61 -0.00    +0.010 A  
DOCKED: ATOM     15  C   UNL     1     140.951  68.326 228.424 -0.66 -0.00    +0.001 A  
DOCKED: ENDBRANCH   3   6
DOCKED: ENDBRANCH   2   3
DOCKED: ENDBRANCH   1   2
DOCKED: BRANCH   1  16
DOCKED: ATOM     16  C   UNL     1     140.718  73.553 221.346 -0.26 -0.01    +0.073 C  
DOCKED: ATOM     17  O   UNL     1     139.953  74.223 222.093 -0.81 +0.03    -0.318 OA 
DOCKED: BRANCH  16  18
DOCKED: ATOM     18  N   UNL     1     141.186  74.101 220.110 +0.04 +0.15    -0.652 NA 
DOCKED: BRANCH  18  19
DOCKED: ATOM     19  C   UNL     1     142.497  73.781 219.558 -0.16 +0.03    -0.115 C  
DOCKED: BRANCH  19  20
DOCKED: ATOM     20  C   UNL     1     143.598  74.574 220.279 -0.37 +0.01    -0.035 C  
DOCKED: ATOM     21  C   UNL     1     144.953  73.859 220.187 -0.51 -0.00    +0.006 C  
DOCKED: ATOM     22  C   UNL     1     143.703  75.988 219.697 -0.39 -0.00    +0.006 C  
DOCKED: ENDBRANCH  19  20
DOCKED: ENDBRANCH  18  19
DOCKED: ENDBRANCH  16  18
DOCKED: ENDBRANCH   1  16
DOCKED: TORSDOF 8
DOCKED: TER
DOCKED: ENDMDL
________________________________________________________________________________


    FINAL DOCKED STATE:
    ________________________


Run:   16 / 20
Time taken for this run:   0.034s

DOCKED: MODEL        16
DOCKED: USER    Run = 16
DOCKED: USER
DOCKED: USER    Estimated Free Energy of Binding    =  -6.13 kcal/mol  [=(1)+(2)+(3)-(4)]
DOCKED: USER
DOCKED: USER    (1) Final Intermolecular Energy     =  -8.52 kcal/mol
DOCKED: USER        vdW + Hbond + desolv Energy     =  -8.65 kcal/mol
DOCKED: USER        Electrostatic Energy            =  +0.13 kcal/mol
DOCKED: USER        Moving Ligand-Fixed Receptor    =  -8.52 kcal/mol
DOCKED: USER        Moving Ligand-Moving Receptor   =  +0.00 kcal/mol
DOCKED: USER    (2) Final Total Internal Energy     =  -1.14 kcal/mol
DOCKED: USER    (3) Torsional Free Energy           =  +2.39 kcal/mol
DOCKED: USER    (4) Unbound System's Energy         =  -1.14 kcal/mol
DOCKED: USER
DOCKED: USER
DOCKED: REMARK SMILES CC(C)C[N-]C(=O)C/N=C(/O)c1ccc2ccccc2n1
DOCKED: REMARK SMILES IDX 8 1 9 2 10 3 11 4 12 6 21 7 13 8 20 9 14 10 19 11 15 12
DOCKED: REMARK SMILES IDX 18 13 16 14 17 15 6 16 7 17 5 18 4 19 2 20 1 21 3 22
DOCKED: REMARK H PARENT 11 5
DOCKED: USER                              x       y       z     vdW  Elec       q    Type
DOCKED: USER                           _______ _______ _______ _____ _____    ______ ____
DOCKED: ROOT
DOCKED: ATOM      1  C   UNL     1     140.616  73.052 221.658 -0.22 -0.02    +0.201 C  
DOCKED: ENDROOT
DOCKED: BRANCH   1   2
DOCKED: ATOM      2  N   UNL     1     140.673  74.484 221.937 -0.68 +0.01    -0.244 NA 
DOCKED: BRANCH   2   3
DOCKED: ATOM      3  C   UNL     1     139.651  75.274 222.108 -0.16 -0.04    +0.233 C  
DOCKED: BRANCH   3   4
DOCKED: ATOM      4  O   UNL     1     138.367  74.741 222.051 -0.12 +0.14    -0.492 OA 
DOCKED: ATOM      5  H   UNL     1     138.056  74.051 222.727 -0.49 -0.16    +0.295 HD 
DOCKED: ENDBRANCH   3   4
DOCKED: BRANCH   3   6
DOCKED: ATOM      6  C   UNL     1     139.791  76.714 222.381 -0.30 -0.03    +0.125 A  
DOCKED: ATOM      7  N   UNL     1     141.038  77.240 222.537 -0.27 +0.09    -0.243 NA 
DOCKED: ATOM      8  C   UNL     1     138.665  77.517 222.609 -0.29 -0.01    +0.035 A  
DOCKED: ATOM      9  C   UNL     1     141.230  78.542 222.878 -0.47 -0.02    +0.071 A  
DOCKED: ATOM     10  C   UNL     1     138.830  78.860 222.944 -0.31 -0.00    +0.013 A  
DOCKED: ATOM     11  C   UNL     1     142.525  79.046 223.030 -0.49 -0.01    +0.029 A  
DOCKED: ATOM     12  C   UNL     1     140.118  79.387 223.088 -0.42 -0.00    +0.000 A  
DOCKED: ATOM     13  C   UNL     1     142.717  80.382 223.399 -0.67 -0.00    +0.002 A  
DOCKED: ATOM     14  C   UNL     1     140.319  80.722 223.462 -0.44 -0.00    +0.010 A  
DOCKED: ATOM     15  C   UNL     1     141.618  81.215 223.623 -0.57 -0.00    +0.001 A  
DOCKED: ENDBRANCH   3   6
DOCKED: ENDBRANCH   2   3
DOCKED: ENDBRANCH   1   2
DOCKED: BRANCH   1  16
DOCKED: ATOM     16  C   UNL     1     139.914  72.359 222.777 -0.27 -0.01    +0.073 C  
DOCKED: ATOM     17  O   UNL     1     138.668  72.173 222.719 -0.15 +0.10    -0.318 OA 
DOCKED: BRANCH  16  18
DOCKED: ATOM     18  N   UNL     1     140.666  71.879 223.896 +0.00 +0.06    -0.652 NA 
DOCKED: BRANCH  18  19
DOCKED: ATOM     19  C   UNL     1     140.240  70.737 224.696 -0.40 +0.02    -0.115 C  
DOCKED: BRANCH  19  20
DOCKED: ATOM     20  C   UNL     1     141.095  70.614 225.965 -0.58 +0.01    -0.035 C  
DOCKED: ATOM     21  C   UNL     1     141.064  71.909 226.788 -0.75 -0.00    +0.006 C  
DOCKED: ATOM     22  C   UNL     1     140.617  69.432 226.817 -0.59 -0.00    +0.006 C  
DOCKED: ENDBRANCH  19  20
DOCKED: ENDBRANCH  18  19
DOCKED: ENDBRANCH  16  18
DOCKED: ENDBRANCH   1  16
DOCKED: TORSDOF 8
DOCKED: TER
DOCKED: ENDMDL
________________________________________________________________________________


    FINAL DOCKED STATE:
    ________________________


Run:   17 / 20
Time taken for this run:   0.034s

DOCKED: MODEL        17
DOCKED: USER    Run = 17
DOCKED: USER
DOCKED: USER    Estimated Free Energy of Binding    =  -6.24 kcal/mol  [=(1)+(2)+(3)-(4)]
DOCKED: USER
DOCKED: USER    (1) Final Intermolecular Energy     =  -8.63 kcal/mol
DOCKED: USER        vdW + Hbond + desolv Energy     =  -8.70 kcal/mol
DOCKED: USER        Electrostatic Energy            =  +0.07 kcal/mol
DOCKED: USER        Moving Ligand-Fixed Receptor    =  -8.63 kcal/mol
DOCKED: USER        Moving Ligand-Moving Receptor   =  +0.00 kcal/mol
DOCKED: USER    (2) Final Total Internal Energy     =  -1.15 kcal/mol
DOCKED: USER    (3) Torsional Free Energy           =  +2.39 kcal/mol
DOCKED: USER    (4) Unbound System's Energy         =  -1.15 kcal/mol
DOCKED: USER
DOCKED: USER
DOCKED: REMARK SMILES CC(C)C[N-]C(=O)C/N=C(/O)c1ccc2ccccc2n1
DOCKED: REMARK SMILES IDX 8 1 9 2 10 3 11 4 12 6 21 7 13 8 20 9 14 10 19 11 15 12
DOCKED: REMARK SMILES IDX 18 13 16 14 17 15 6 16 7 17 5 18 4 19 2 20 1 21 3 22
DOCKED: REMARK H PARENT 11 5
DOCKED: USER                              x       y       z     vdW  Elec       q    Type
DOCKED: USER                           _______ _______ _______ _____ _____    ______ ____
DOCKED: ROOT
DOCKED: ATOM      1  C   UNL     1     140.598  72.394 221.777 -0.21 -0.02    +0.201 C  
DOCKED: ENDROOT
DOCKED: BRANCH   1   2
DOCKED: ATOM      2  N   UNL     1     141.090  73.762 221.909 -0.55 +0.01    -0.244 NA 
DOCKED: BRANCH   2   3
DOCKED: ATOM      3  C   UNL     1     140.358  74.839 221.965 -0.08 -0.02    +0.233 C  
DOCKED: BRANCH   3   4
DOCKED: ATOM      4  O   UNL     1     138.992  74.717 222.201 -0.34 +0.12    -0.492 OA 
DOCKED: ATOM      5  H   UNL     1     138.638  74.081 222.907 -0.50 -0.17    +0.295 HD 
DOCKED: ENDBRANCH   3   4
DOCKED: BRANCH   3   6
DOCKED: ATOM      6  C   UNL     1     140.915  76.192 221.809 -0.31 -0.04    +0.125 A  
DOCKED: ATOM      7  N   UNL     1     141.021  76.995 222.905 -0.20 +0.08    -0.243 NA 
DOCKED: ATOM      8  C   UNL     1     141.214  76.707 220.541 -0.26 -0.02    +0.035 A  
DOCKED: ATOM      9  C   UNL     1     141.443  78.284 222.813 -0.46 -0.03    +0.071 A  
DOCKED: ATOM     10  C   UNL     1     141.666  78.020 220.416 -0.30 -0.01    +0.013 A  
DOCKED: ATOM     11  C   UNL     1     141.539  79.077 223.960 -0.57 -0.01    +0.029 A  
DOCKED: ATOM     12  C   UNL     1     141.780  78.826 221.553 -0.41 -0.00    +0.000 A  
DOCKED: ATOM     13  C   UNL     1     141.957  80.408 223.858 -0.61 -0.00    +0.002 A  
DOCKED: ATOM     14  C   UNL     1     142.194  80.162 221.459 -0.42 -0.00    +0.010 A  
DOCKED: ATOM     15  C   UNL     1     142.275  80.952 222.610 -0.55 -0.00    +0.001 A  
DOCKED: ENDBRANCH   3   6
DOCKED: ENDBRANCH   2   3
DOCKED: ENDBRANCH   1   2
DOCKED: BRANCH   1  16
DOCKED: ATOM     16  C   UNL     1     139.884  72.002 223.027 -0.30 -0.01    +0.073 C  
DOCKED: ATOM     17  O   UNL     1     138.625  71.934 223.037 -0.15 +0.10    -0.318 OA 
DOCKED: BRANCH  16  18
DOCKED: ATOM     18  N   UNL     1     140.637  71.675 224.199 +0.00 +0.08    -0.652 NA 
DOCKED: BRANCH  18  19
DOCKED: ATOM     19  C   UNL     1     140.042  71.010 225.352 -0.44 +0.02    -0.115 C  
DOCKED: BRANCH  19  20
DOCKED: ATOM     20  C   UNL     1     141.063  70.884 226.492 -0.63 +0.01    -0.035 C  
DOCKED: ATOM     21  C   UNL     1     141.181  72.194 227.284 -0.79 -0.00    +0.006 C  
DOCKED: ATOM     22  C   UNL     1     140.678  69.732 227.428 -0.62 -0.00    +0.006 C  
DOCKED: ENDBRANCH  19  20
DOCKED: ENDBRANCH  18  19
DOCKED: ENDBRANCH  16  18
DOCKED: ENDBRANCH   1  16
DOCKED: TORSDOF 8
DOCKED: TER
DOCKED: ENDMDL
________________________________________________________________________________


    FINAL DOCKED STATE:
    ________________________


Run:   18 / 20
Time taken for this run:   0.034s

DOCKED: MODEL        18
DOCKED: USER    Run = 18
DOCKED: USER
DOCKED: USER    Estimated Free Energy of Binding    =  -6.28 kcal/mol  [=(1)+(2)+(3)-(4)]
DOCKED: USER
DOCKED: USER    (1) Final Intermolecular Energy     =  -8.66 kcal/mol
DOCKED: USER        vdW + Hbond + desolv Energy     =  -8.60 kcal/mol
DOCKED: USER        Electrostatic Energy            =  -0.06 kcal/mol
DOCKED: USER        Moving Ligand-Fixed Receptor    =  -8.66 kcal/mol
DOCKED: USER        Moving Ligand-Moving Receptor   =  +0.00 kcal/mol
DOCKED: USER    (2) Final Total Internal Energy     =  -0.66 kcal/mol
DOCKED: USER    (3) Torsional Free Energy           =  +2.39 kcal/mol
DOCKED: USER    (4) Unbound System's Energy         =  -0.66 kcal/mol
DOCKED: USER
DOCKED: USER
DOCKED: REMARK SMILES CC(C)C[N-]C(=O)C/N=C(/O)c1ccc2ccccc2n1
DOCKED: REMARK SMILES IDX 8 1 9 2 10 3 11 4 12 6 21 7 13 8 20 9 14 10 19 11 15 12
DOCKED: REMARK SMILES IDX 18 13 16 14 17 15 6 16 7 17 5 18 4 19 2 20 1 21 3 22
DOCKED: REMARK H PARENT 11 5
DOCKED: USER                              x       y       z     vdW  Elec       q    Type
DOCKED: USER                           _______ _______ _______ _____ _____    ______ ____
DOCKED: ROOT
DOCKED: ATOM      1  C   UNL     1     141.407  71.179 220.540 -0.09 -0.03    +0.201 C  
DOCKED: ENDROOT
DOCKED: BRANCH   1   2
DOCKED: ATOM      2  N   UNL     1     141.444  72.252 221.529 -0.16 +0.02    -0.244 NA 
DOCKED: BRANCH   2   3
DOCKED: ATOM      3  C   UNL     1     140.540  72.489 222.438 -0.20 -0.02    +0.233 C  
DOCKED: BRANCH   3   4
DOCKED: ATOM      4  O   UNL     1     139.778  73.650 222.347 -0.71 +0.06    -0.492 OA 
DOCKED: ATOM      5  H   UNL     1     139.089  73.880 223.056 -0.48 -0.14    +0.295 HD 
DOCKED: ENDBRANCH   3   4
DOCKED: BRANCH   3   6
DOCKED: ATOM      6  C   UNL     1     140.270  71.569 223.555 -0.33 -0.02    +0.125 A  
DOCKED: ATOM      7  N   UNL     1     140.717  71.891 224.801 -0.27 +0.03    -0.243 NA 
DOCKED: ATOM      8  C   UNL     1     139.681  70.318 223.330 -0.25 -0.01    +0.035 A  
DOCKED: ATOM      9  C   UNL     1     140.578  71.042 225.854 -0.54 -0.01    +0.071 A  
DOCKED: ATOM     10  C   UNL     1     139.509  69.433 224.394 -0.33 -0.00    +0.013 A  
DOCKED: ATOM     11  C   UNL     1     141.050  71.407 227.119 -0.72 -0.00    +0.029 A  
DOCKED: ATOM     12  C   UNL     1     139.962  69.785 225.670 -0.47 -0.00    +0.000 A  
DOCKED: ATOM     13  C   UNL     1     140.920  70.524 228.196 -0.61 -0.00    +0.002 A  
DOCKED: ATOM     14  C   UNL     1     139.841  68.904 226.753 -0.57 -0.00    +0.010 A  
DOCKED: ATOM     15  C   UNL     1     140.327  69.272 228.012 -0.64 -0.00    +0.001 A  
DOCKED: ENDBRANCH   3   6
DOCKED: ENDBRANCH   2   3
DOCKED: ENDBRANCH   1   2
DOCKED: BRANCH   1  16
DOCKED: ATOM     16  C   UNL     1     142.784  70.942 220.017 -0.16 -0.01    +0.073 C  
DOCKED: ATOM     17  O   UNL     1     143.196  69.762 219.845 -0.10 +0.02    -0.318 OA 
DOCKED: BRANCH  16  18
DOCKED: ATOM     18  N   UNL     1     143.615  72.056 219.681 +0.06 +0.06    -0.652 NA 
DOCKED: BRANCH  18  19
DOCKED: ATOM     19  C   UNL     1     145.056  72.054 219.905 -0.29 -0.01    -0.115 C  
DOCKED: BRANCH  19  20
DOCKED: ATOM     20  C   UNL     1     145.547  73.457 220.292 -0.57 +0.00    -0.035 C  
DOCKED: ATOM     21  C   UNL     1     144.379  74.444 220.414 -0.46 -0.00    +0.006 C  
DOCKED: ATOM     22  C   UNL     1     146.335  73.402 221.606 -0.74 -0.00    +0.006 C  
DOCKED: ENDBRANCH  19  20
DOCKED: ENDBRANCH  18  19
DOCKED: ENDBRANCH  16  18
DOCKED: ENDBRANCH   1  16
DOCKED: TORSDOF 8
DOCKED: TER
DOCKED: ENDMDL
________________________________________________________________________________


    FINAL DOCKED STATE:
    ________________________


Run:   19 / 20
Time taken for this run:   0.034s

DOCKED: MODEL        19
DOCKED: USER    Run = 19
DOCKED: USER
DOCKED: USER    Estimated Free Energy of Binding    =  -6.24 kcal/mol  [=(1)+(2)+(3)-(4)]
DOCKED: USER
DOCKED: USER    (1) Final Intermolecular Energy     =  -8.63 kcal/mol
DOCKED: USER        vdW + Hbond + desolv Energy     =  -8.71 kcal/mol
DOCKED: USER        Electrostatic Energy            =  +0.08 kcal/mol
DOCKED: USER        Moving Ligand-Fixed Receptor    =  -8.63 kcal/mol
DOCKED: USER        Moving Ligand-Moving Receptor   =  +0.00 kcal/mol
DOCKED: USER    (2) Final Total Internal Energy     =  -1.14 kcal/mol
DOCKED: USER    (3) Torsional Free Energy           =  +2.39 kcal/mol
DOCKED: USER    (4) Unbound System's Energy         =  -1.14 kcal/mol
DOCKED: USER
DOCKED: USER
DOCKED: REMARK SMILES CC(C)C[N-]C(=O)C/N=C(/O)c1ccc2ccccc2n1
DOCKED: REMARK SMILES IDX 8 1 9 2 10 3 11 4 12 6 21 7 13 8 20 9 14 10 19 11 15 12
DOCKED: REMARK SMILES IDX 18 13 16 14 17 15 6 16 7 17 5 18 4 19 2 20 1 21 3 22
DOCKED: REMARK H PARENT 11 5
DOCKED: USER                              x       y       z     vdW  Elec       q    Type
DOCKED: USER                           _______ _______ _______ _____ _____    ______ ____
DOCKED: ROOT
DOCKED: ATOM      1  C   UNL     1     140.598  72.378 221.842 -0.21 -0.02    +0.201 C  
DOCKED: ENDROOT
DOCKED: BRANCH   1   2
DOCKED: ATOM      2  N   UNL     1     141.073  73.754 221.956 -0.58 +0.00    -0.244 NA 
DOCKED: BRANCH   2   3
DOCKED: ATOM      3  C   UNL     1     140.330  74.824 221.969 -0.08 -0.02    +0.233 C  
DOCKED: BRANCH   3   4
DOCKED: ATOM      4  O   UNL     1     138.958  74.693 222.161 -0.31 +0.12    -0.492 OA 
DOCKED: ATOM      5  H   UNL     1     138.587  74.081 222.881 -0.50 -0.17    +0.295 HD 
DOCKED: ENDBRANCH   3   4
DOCKED: BRANCH   3   6
DOCKED: ATOM      6  C   UNL     1     140.880  76.180 221.809 -0.31 -0.04    +0.125 A  
DOCKED: ATOM      7  N   UNL     1     140.985  76.986 222.902 -0.19 +0.08    -0.243 NA 
DOCKED: ATOM      8  C   UNL     1     141.172  76.694 220.538 -0.25 -0.02    +0.035 A  
DOCKED: ATOM      9  C   UNL     1     141.401  78.277 222.805 -0.46 -0.03    +0.071 A  
DOCKED: ATOM     10  C   UNL     1     141.616  78.009 220.409 -0.30 -0.01    +0.013 A  
DOCKED: ATOM     11  C   UNL     1     141.496  79.073 223.951 -0.57 -0.01    +0.029 A  
DOCKED: ATOM     12  C   UNL     1     141.731  78.818 221.543 -0.41 -0.00    +0.000 A  
DOCKED: ATOM     13  C   UNL     1     141.907  80.406 223.844 -0.61 -0.00    +0.002 A  
DOCKED: ATOM     14  C   UNL     1     142.137  80.155 221.444 -0.42 -0.00    +0.010 A  
DOCKED: ATOM     15  C   UNL     1     142.218  80.948 222.594 -0.56 -0.00    +0.001 A  
DOCKED: ENDBRANCH   3   6
DOCKED: ENDBRANCH   2   3
DOCKED: ENDBRANCH   1   2
DOCKED: BRANCH   1  16
DOCKED: ATOM     16  C   UNL     1     139.876  71.999 223.091 -0.30 -0.01    +0.073 C  
DOCKED: ATOM     17  O   UNL     1     138.616  71.938 223.096 -0.15 +0.10    -0.318 OA 
DOCKED: BRANCH  16  18
DOCKED: ATOM     18  N   UNL     1     140.621  71.676 224.269 +0.00 +0.08    -0.652 NA 
DOCKED: BRANCH  18  19
DOCKED: ATOM     19  C   UNL     1     140.000  71.099 225.456 -0.43 +0.02    -0.115 C  
DOCKED: BRANCH  19  20
DOCKED: ATOM     20  C   UNL     1     141.033  70.930 226.580 -0.64 +0.01    -0.035 C  
DOCKED: ATOM     21  C   UNL     1     141.085  72.171 227.482 -0.81 -0.00    +0.006 C  
DOCKED: ATOM     22  C   UNL     1     140.715  69.682 227.412 -0.62 -0.00    +0.006 C  
DOCKED: ENDBRANCH  19  20
DOCKED: ENDBRANCH  18  19
DOCKED: ENDBRANCH  16  18
DOCKED: ENDBRANCH   1  16
DOCKED: TORSDOF 8
DOCKED: TER
DOCKED: ENDMDL
________________________________________________________________________________


    FINAL DOCKED STATE:
    ________________________


Run:   20 / 20
Time taken for this run:   0.034s

DOCKED: MODEL        20
DOCKED: USER    Run = 20
DOCKED: USER
DOCKED: USER    Estimated Free Energy of Binding    =  -5.92 kcal/mol  [=(1)+(2)+(3)-(4)]
DOCKED: USER
DOCKED: USER    (1) Final Intermolecular Energy     =  -8.30 kcal/mol
DOCKED: USER        vdW + Hbond + desolv Energy     =  -8.40 kcal/mol
DOCKED: USER        Electrostatic Energy            =  +0.10 kcal/mol
DOCKED: USER        Moving Ligand-Fixed Receptor    =  -8.30 kcal/mol
DOCKED: USER        Moving Ligand-Moving Receptor   =  +0.00 kcal/mol
DOCKED: USER    (2) Final Total Internal Energy     =  -1.18 kcal/mol
DOCKED: USER    (3) Torsional Free Energy           =  +2.39 kcal/mol
DOCKED: USER    (4) Unbound System's Energy         =  -1.18 kcal/mol
DOCKED: USER
DOCKED: USER
DOCKED: REMARK SMILES CC(C)C[N-]C(=O)C/N=C(/O)c1ccc2ccccc2n1
DOCKED: REMARK SMILES IDX 8 1 9 2 10 3 11 4 12 6 21 7 13 8 20 9 14 10 19 11 15 12
DOCKED: REMARK SMILES IDX 18 13 16 14 17 15 6 16 7 17 5 18 4 19 2 20 1 21 3 22
DOCKED: REMARK H PARENT 11 5
DOCKED: USER                              x       y       z     vdW  Elec       q    Type
DOCKED: USER                           _______ _______ _______ _____ _____    ______ ____
DOCKED: ROOT
DOCKED: ATOM      1  C   UNL     1     140.731  72.321 221.791 -0.21 -0.02    +0.201 C  
DOCKED: ENDROOT
DOCKED: BRANCH   1   2
DOCKED: ATOM      2  N   UNL     1     141.201  73.700 221.896 -0.44 +0.01    -0.244 NA 
DOCKED: BRANCH   2   3
DOCKED: ATOM      3  C   UNL     1     140.450  74.764 221.946 -0.06 -0.02    +0.233 C  
DOCKED: BRANCH   3   4
DOCKED: ATOM      4  O   UNL     1     139.085  74.619 222.176 -0.39 +0.12    -0.492 OA 
DOCKED: ATOM      5  H   UNL     1     138.738  73.976 222.880 -0.50 -0.16    +0.295 HD 
DOCKED: ENDBRANCH   3   4
DOCKED: BRANCH   3   6
DOCKED: ATOM      6  C   UNL     1     140.985  76.126 221.790 -0.31 -0.04    +0.125 A  
DOCKED: ATOM      7  N   UNL     1     141.036  76.946 222.877 -0.20 +0.08    -0.243 NA 
DOCKED: ATOM      8  C   UNL     1     141.318  76.629 220.525 -0.26 -0.02    +0.035 A  
DOCKED: ATOM      9  C   UNL     1     141.435  78.242 222.780 -0.45 -0.03    +0.071 A  
DOCKED: ATOM     10  C   UNL     1     141.747  77.949 220.397 -0.31 -0.01    +0.013 A  
DOCKED: ATOM     11  C   UNL     1     141.475  79.054 223.918 -0.58 -0.01    +0.029 A  
DOCKED: ATOM     12  C   UNL     1     141.805  78.774 221.525 -0.41 -0.00    +0.000 A  
DOCKED: ATOM     13  C   UNL     1     141.869  80.391 223.810 -0.61 -0.00    +0.002 A  
DOCKED: ATOM     14  C   UNL     1     142.195  80.116 221.425 -0.41 -0.00    +0.010 A  
DOCKED: ATOM     15  C   UNL     1     142.219  80.924 222.567 -0.56 -0.00    +0.001 A  
DOCKED: ENDBRANCH   3   6
DOCKED: ENDBRANCH   2   3
DOCKED: ENDBRANCH   1   2
DOCKED: BRANCH   1  16
DOCKED: ATOM     16  C   UNL     1     139.940  71.975 223.008 -0.31 -0.01    +0.073 C  
DOCKED: ATOM     17  O   UNL     1     138.700  72.201 223.037 -0.11 +0.11    -0.318 OA 
DOCKED: BRANCH  16  18
DOCKED: ATOM     18  N   UNL     1     140.590  71.357 224.123 -0.01 +0.08    -0.652 NA 
DOCKED: BRANCH  18  19
DOCKED: ATOM     19  C   UNL     1     139.879  70.511 225.074 -0.40 +0.02    -0.115 C  
DOCKED: BRANCH  19  20
DOCKED: ATOM     20  C   UNL     1     140.320  70.822 226.512 -0.58 +0.01    -0.035 C  
DOCKED: ATOM     21  C   UNL     1     140.803  69.558 227.235 -0.60 -0.00    +0.006 C  
DOCKED: ATOM     22  C   UNL     1     141.422  71.888 226.513 -0.69 -0.00    +0.006 C  
DOCKED: ENDBRANCH  19  20
DOCKED: ENDBRANCH  18  19
DOCKED: ENDBRANCH  16  18
DOCKED: ENDBRANCH   1  16
DOCKED: TORSDOF 8
DOCKED: TER
DOCKED: ENDMDL
________________________________________________________________________________


    CLUSTERING HISTOGRAM
    ____________________


________________________________________________________________________________
     |           |     |           |     |
Clus | Lowest    | Run | Mean      | Num | Histogram
-ter | Binding   |     | Binding   | in  |
Rank | Energy    |     | Energy    | Clus|    5    10   15   20   25   30   35
_____|___________|_____|___________|_____|____:____|____:____|____:____|____:___
   1 |     -6.28 |  18 |     -5.71 |   7 |#######
   2 |     -6.24 |  19 |     -5.96 |   9 |#########
   3 |     -5.65 |  11 |     -5.54 |   3 |###
   4 |     -5.29 |  14 |     -5.29 |   1 |#
_____|___________|_____|___________|_____|______________________________________


    RMSD TABLE
    __________


_______________________________________________________________________
     |      |      |           |         |                 |
Rank | Sub- | Run  | Binding   | Cluster | Reference       | Grep
     | Rank |      | Energy    | RMSD    | RMSD            | Pattern
_____|______|______|___________|_________|_________________|___________
   1      1     18       -6.28      0.00    271.76           RANKING
   1      2     12       -6.06      1.10    271.76           RANKING
   1      3      7       -5.60      1.62    271.89           RANKING
   1      4      6       -5.60      1.30    271.82           RANKING
   1      5     15       -5.52      1.38    271.61           RANKING
   1      6      8       -5.47      1.44    271.66           RANKING
   1      7      4       -5.45      1.54    271.74           RANKING
   2      1     19       -6.24      0.00    272.39           RANKING
   2      2     17       -6.24      0.08    272.39           RANKING
   2      3     13       -6.17      0.23    272.37           RANKING
   2      4      3       -6.14      0.29    272.40           RANKING
   2      5     16       -6.13      1.18    272.37           RANKING
   2      6      1       -5.93      0.61    272.22           RANKING
   2      7     20       -5.92      0.34    272.31           RANKING
   2      8      2       -5.68      1.35    272.26           RANKING
   2      9      5       -5.23      1.99    271.84           RANKING
   3      1     11       -5.65      0.00    271.75           RANKING
   3      2      9       -5.49      0.90    271.87           RANKING
   3      3     10       -5.47      0.86    271.63           RANKING
   4      1     14       -5.29      0.00    271.83           RANKING

Run time 0.652 sec
Idle time 0.000 sec
