AutoDock-GPU version: v1.6

**********************************************************
**    AutoDock-GPU AUTODOCKTOOLS-COMPATIBLE DLG FILE    **
**********************************************************


    DOCKING PARAMETERS
    ________________________


Ligand file:                               /home/a/REINVENT4/ReinventStudies/pleaseWork/justmol2mol_4_Compounds_ontop/graph-dock-8u2o5u/graph-DockGPU/node-autodockgpu/inputs/OGESSYIQADKGAC-LOUTZOSWNA-L.pdbqt
Grid fld file:                             /home/a/REINVENT4/ReinventStudies/mols/Rad51/maps/rad51_receptor.maps.fld

Random seed:                               42
Number of runs:                            20
Number of energy evaluations:              1259779
Number of generations:                     42000
Size of population:                        150
Rate of crossover:                         80.000000%
Tournament selection probability limit:    60.000000%
Rate of mutation:                          2.000000%
Maximal allowed delta movement:            +/- 6.000000A
Maximal allowed delta angle:               +/- 90.000000

Rate of local search:                      100.000000%
Maximal number of local search iterations: 300
Rho lower bound:                           0.010000
Spread of local search delta movement:     2.000000A
Spread of local search delta angle:        74.999999
Limit of consecutive successes/failures:   4

Handle symmetry during clustering:         YES
RMSD tolerance:                            2.000000A

Program call in command line was:          /home/a/REINVENT4/ReinventStudies/adgpu-v1.6_linux_x64_cuda12_128wi --filelist batch.txt --heuristics 1 --nrun 20 --psize 150 --lsit 300 --seed 42 --heurmax 12000000 


    GRID PARAMETERS
    ________________________


Receptor name:                             rad51_receptor
Number of grid points (x, y, z):           53, 53, 53
Grid center (x, y, z):                     139.950000, 75.640000, 221.970000A
Grid size (x, y, z):                       19.500000, 19.500000, 19.500000A
Grid spacing:                              0.375000A


    LIGAND PARAMETERS
    ________________________


Ligand name:                               /home/a/REINVENT4/ReinventStudies/pleaseWork/justmol2mol_4_Compounds_ontop/graph-dock-8u2o5u/graph-DockGPU/node-autodockgpu/inputs/OGESSYIQADKGAC-LOUTZOSWNA-L
Number of atoms:                           21
Number of rotatable bonds:                 7
Number of atom types:                      4


    DUMMY DATA (only for ADT-compatibility)
    ________________________


DPF> outlev 1
DPF> ga_run 20
DPF> fld /home/a/REINVENT4/ReinventStudies/mols/Rad51/maps/rad51_receptor.maps.fld
DPF> move /home/a/REINVENT4/ReinventStudies/pleaseWork/justmol2mol_4_Compounds_ontop/graph-dock-8u2o5u/graph-DockGPU/node-autodockgpu/inputs/OGESSYIQADKGAC-LOUTZOSWNA-L.pdbqt


    COUNTER STATES
    ________________________


Number of energy evaluations performed:    1271621
Number of generations used:                61


    INPUT LIGAND PDBQT FILE:
    ________________________


INPUT-LIGAND-PDBQT: REMARK SMILES CC(C)C[N-]C(=O)C[N-]C(=O)c1ccc2ccccc2n1
INPUT-LIGAND-PDBQT: REMARK SMILES IDX 6 1 7 2 5 3 4 4 2 5 1 6 3 7 8 8 9 9 10 10 11 11 12 12 13 13
INPUT-LIGAND-PDBQT: REMARK SMILES IDX 21 14 14 15 20 16 15 17 19 18 16 19 18 20 17 21
INPUT-LIGAND-PDBQT: REMARK H PARENT
INPUT-LIGAND-PDBQT: ROOT
INPUT-LIGAND-PDBQT: ATOM      1  C   UNL     1      -2.528   0.411   1.230  1.00  0.00     0.033 C 
INPUT-LIGAND-PDBQT: ATOM      2  O   UNL     1      -2.107   0.793   2.355  1.00  0.00    -0.322 OA
INPUT-LIGAND-PDBQT: ENDROOT
INPUT-LIGAND-PDBQT: BRANCH   1   3
INPUT-LIGAND-PDBQT: ATOM      3  N   UNL     1      -2.212  -0.901   0.754  1.00  0.00    -0.654 NA
INPUT-LIGAND-PDBQT: BRANCH   3   4
INPUT-LIGAND-PDBQT: ATOM      4  C   UNL     1      -1.290  -1.789   1.451  1.00  0.00    -0.115 C 
INPUT-LIGAND-PDBQT: BRANCH   4   5
INPUT-LIGAND-PDBQT: ATOM      5  C   UNL     1      -1.055  -3.070   0.632  1.00  0.00    -0.035 C 
INPUT-LIGAND-PDBQT: ATOM      6  C   UNL     1      -0.186  -4.053   1.425  1.00  0.00     0.006 C 
INPUT-LIGAND-PDBQT: ATOM      7  C   UNL     1      -0.400  -2.755  -0.720  1.00  0.00     0.006 C 
INPUT-LIGAND-PDBQT: ENDBRANCH   4   5
INPUT-LIGAND-PDBQT: ENDBRANCH   3   4
INPUT-LIGAND-PDBQT: ENDBRANCH   1   3
INPUT-LIGAND-PDBQT: BRANCH   1   8
INPUT-LIGAND-PDBQT: ATOM      8  C   UNL     1      -3.312   1.370   0.381  1.00  0.00    -0.061 C 
INPUT-LIGAND-PDBQT: BRANCH   8   9
INPUT-LIGAND-PDBQT: ATOM      9  N   UNL     1      -3.884   0.721  -0.797  1.00  0.00    -0.643 NA
INPUT-LIGAND-PDBQT: BRANCH   9  10
INPUT-LIGAND-PDBQT: ATOM     10  C   UNL     1      -3.232   0.381  -2.033  1.00  0.00     0.101 C 
INPUT-LIGAND-PDBQT: ATOM     11  O   UNL     1      -3.949  -0.074  -2.963  1.00  0.00    -0.313 OA
INPUT-LIGAND-PDBQT: BRANCH  10  12
INPUT-LIGAND-PDBQT: ATOM     12  C   UNL     1      -1.767   0.520  -2.259  1.00  0.00     0.088 A 
INPUT-LIGAND-PDBQT: ATOM     13  C   UNL     1      -1.210   0.231  -3.519  1.00  0.00     0.031 A 
INPUT-LIGAND-PDBQT: ATOM     14  N   UNL     1      -0.938   0.869  -1.239  1.00  0.00    -0.246 NA
INPUT-LIGAND-PDBQT: ATOM     15  C   UNL     1       0.173   0.299  -3.702  1.00  0.00     0.012 A 
INPUT-LIGAND-PDBQT: ATOM     16  C   UNL     1       0.411   0.939  -1.382  1.00  0.00     0.071 A 
INPUT-LIGAND-PDBQT: ATOM     17  C   UNL     1       1.001   0.649  -2.631  1.00  0.00     0.000 A 
INPUT-LIGAND-PDBQT: ATOM     18  C   UNL     1       1.217   1.277  -0.289  1.00  0.00     0.029 A 
INPUT-LIGAND-PDBQT: ATOM     19  C   UNL     1       2.395   0.708  -2.772  1.00  0.00     0.010 A 
INPUT-LIGAND-PDBQT: ATOM     20  C   UNL     1       2.607   1.330  -0.436  1.00  0.00     0.002 A 
INPUT-LIGAND-PDBQT: ATOM     21  C   UNL     1       3.194   1.047  -1.674  1.00  0.00     0.001 A 
INPUT-LIGAND-PDBQT: ENDBRANCH  10  12
INPUT-LIGAND-PDBQT: ENDBRANCH   9  10
INPUT-LIGAND-PDBQT: ENDBRANCH   8   9
INPUT-LIGAND-PDBQT: ENDBRANCH   1   8
INPUT-LIGAND-PDBQT: TORSDOF 7


    FINAL DOCKED STATE:
    ________________________


Run:   1 / 20
Time taken for this run:   0.040s

DOCKED: MODEL        1
DOCKED: USER    Run = 1
DOCKED: USER
DOCKED: USER    Estimated Free Energy of Binding    =  -6.01 kcal/mol  [=(1)+(2)+(3)-(4)]
DOCKED: USER
DOCKED: USER    (1) Final Intermolecular Energy     =  -8.10 kcal/mol
DOCKED: USER        vdW + Hbond + desolv Energy     =  -8.44 kcal/mol
DOCKED: USER        Electrostatic Energy            =  +0.34 kcal/mol
DOCKED: USER        Moving Ligand-Fixed Receptor    =  -8.10 kcal/mol
DOCKED: USER        Moving Ligand-Moving Receptor   =  +0.00 kcal/mol
DOCKED: USER    (2) Final Total Internal Energy     =  -0.32 kcal/mol
DOCKED: USER    (3) Torsional Free Energy           =  +2.09 kcal/mol
DOCKED: USER    (4) Unbound System's Energy         =  -0.32 kcal/mol
DOCKED: USER
DOCKED: USER
DOCKED: REMARK SMILES CC(C)C[N-]C(=O)C[N-]C(=O)c1ccc2ccccc2n1
DOCKED: REMARK SMILES IDX 6 1 7 2 5 3 4 4 2 5 1 6 3 7 8 8 9 9 10 10 11 11 12 12 13 13
DOCKED: REMARK SMILES IDX 21 14 14 15 20 16 15 17 19 18 16 19 18 20 17 21
DOCKED: REMARK H PARENT
DOCKED: USER                              x       y       z     vdW  Elec       q    Type
DOCKED: USER                           _______ _______ _______ _____ _____    ______ ____
DOCKED: ROOT
DOCKED: ATOM      1  C   UNL     1     139.969  71.846 223.520 -0.34 -0.01    +0.033 C  
DOCKED: ATOM      2  O   UNL     1     138.766  71.475 223.472 -0.18 +0.09    -0.322 OA 
DOCKED: ENDROOT
DOCKED: BRANCH   1   3
DOCKED: ATOM      3  N   UNL     1     140.767  71.541 224.668 +0.01 +0.08    -0.654 NA 
DOCKED: BRANCH   3   4
DOCKED: ATOM      4  C   UNL     1     140.481  70.414 225.547 -0.46 +0.02    -0.115 C  
DOCKED: BRANCH   4   5
DOCKED: ATOM      5  C   UNL     1     140.955  70.716 226.980 -0.62 +0.01    -0.035 C  
DOCKED: ATOM      6  C   UNL     1     139.995  70.089 227.998 -0.64 -0.00    +0.006 C  
DOCKED: ATOM      7  C   UNL     1     141.072  72.227 227.221 -0.79 -0.00    +0.006 C  
DOCKED: ENDBRANCH   4   5
DOCKED: ENDBRANCH   3   4
DOCKED: ENDBRANCH   1   3
DOCKED: BRANCH   1   8
DOCKED: ATOM      8  C   UNL     1     140.529  72.657 222.387 -0.27 +0.00    -0.061 C  
DOCKED: BRANCH   8   9
DOCKED: ATOM      9  N   UNL     1     139.952  73.999 222.333 -0.61 +0.03    -0.643 NA 
DOCKED: BRANCH   9  10
DOCKED: ATOM     10  C   UNL     1     140.470  75.167 221.673 -0.28 -0.02    +0.101 C  
DOCKED: ATOM     11  O   UNL     1     141.080  74.997 220.585 -0.14 +0.09    -0.313 OA 
DOCKED: BRANCH  10  12
DOCKED: ATOM     12  C   UNL     1     140.339  76.547 222.216 -0.35 -0.02    +0.088 A  
DOCKED: ATOM     13  C   UNL     1     139.068  77.113 222.425 -0.30 -0.01    +0.031 A  
DOCKED: ATOM     14  N   UNL     1     141.443  77.303 222.460 -0.11 +0.13    -0.246 NA 
DOCKED: ATOM     15  C   UNL     1     138.956  78.432 222.869 -0.30 -0.00    +0.012 A  
DOCKED: ATOM     16  C   UNL     1     141.369  78.591 222.887 -0.48 -0.03    +0.071 A  
DOCKED: ATOM     17  C   UNL     1     140.109  79.189 223.100 -0.42 -0.00    +0.000 A  
DOCKED: ATOM     18  C   UNL     1     142.539  79.330 223.095 -0.58 -0.01    +0.029 A  
DOCKED: ATOM     19  C   UNL     1     140.036  80.523 223.528 -0.43 -0.00    +0.010 A  
DOCKED: ATOM     20  C   UNL     1     142.459  80.661 223.518 -0.66 -0.00    +0.002 A  
DOCKED: ATOM     21  C   UNL     1     141.211  81.255 223.734 -0.47 -0.00    +0.001 A  
DOCKED: ENDBRANCH  10  12
DOCKED: ENDBRANCH   9  10
DOCKED: ENDBRANCH   8   9
DOCKED: ENDBRANCH   1   8
DOCKED: TORSDOF 7
DOCKED: TER
DOCKED: ENDMDL
________________________________________________________________________________


    FINAL DOCKED STATE:
    ________________________


Run:   2 / 20
Time taken for this run:   0.040s

DOCKED: MODEL        2
DOCKED: USER    Run = 2
DOCKED: USER
DOCKED: USER    Estimated Free Energy of Binding    =  -5.15 kcal/mol  [=(1)+(2)+(3)-(4)]
DOCKED: USER
DOCKED: USER    (1) Final Intermolecular Energy     =  -7.23 kcal/mol
DOCKED: USER        vdW + Hbond + desolv Energy     =  -7.39 kcal/mol
DOCKED: USER        Electrostatic Energy            =  +0.15 kcal/mol
DOCKED: USER        Moving Ligand-Fixed Receptor    =  -7.23 kcal/mol
DOCKED: USER        Moving Ligand-Moving Receptor   =  +0.00 kcal/mol
DOCKED: USER    (2) Final Total Internal Energy     =  -0.93 kcal/mol
DOCKED: USER    (3) Torsional Free Energy           =  +2.09 kcal/mol
DOCKED: USER    (4) Unbound System's Energy         =  -0.93 kcal/mol
DOCKED: USER
DOCKED: USER
DOCKED: REMARK SMILES CC(C)C[N-]C(=O)C[N-]C(=O)c1ccc2ccccc2n1
DOCKED: REMARK SMILES IDX 6 1 7 2 5 3 4 4 2 5 1 6 3 7 8 8 9 9 10 10 11 11 12 12 13 13
DOCKED: REMARK SMILES IDX 21 14 14 15 20 16 15 17 19 18 16 19 18 20 17 21
DOCKED: REMARK H PARENT
DOCKED: USER                              x       y       z     vdW  Elec       q    Type
DOCKED: USER                           _______ _______ _______ _____ _____    ______ ____
DOCKED: ROOT
DOCKED: ATOM      1  C   UNL     1     135.617  68.836 222.871 -0.13 -0.00    +0.033 C  
DOCKED: ATOM      2  O   UNL     1     135.837  70.037 222.559 -0.03 +0.05    -0.322 OA 
DOCKED: ENDROOT
DOCKED: BRANCH   1   3
DOCKED: ATOM      3  N   UNL     1     135.082  68.515 224.158 -0.47 -0.01    -0.654 NA 
DOCKED: BRANCH   3   4
DOCKED: ATOM      4  C   UNL     1     135.248  69.384 225.317 -0.19 +0.01    -0.115 C  
DOCKED: BRANCH   4   5
DOCKED: ATOM      5  C   UNL     1     133.905  69.573 226.043 -0.29 +0.00    -0.035 C  
DOCKED: ATOM      6  C   UNL     1     132.744  69.462 225.047 -0.17 -0.00    +0.006 C  
DOCKED: ATOM      7  C   UNL     1     133.851  70.922 226.772 -0.42 -0.00    +0.006 C  
DOCKED: ENDBRANCH   4   5
DOCKED: ENDBRANCH   3   4
DOCKED: ENDBRANCH   1   3
DOCKED: BRANCH   1   8
DOCKED: ATOM      8  C   UNL     1     135.979  67.752 221.895 -0.11 +0.01    -0.061 C  
DOCKED: BRANCH   8   9
DOCKED: ATOM      9  N   UNL     1     137.424  67.631 221.719 +0.01 +0.11    -0.643 NA 
DOCKED: BRANCH   9  10
DOCKED: ATOM     10  C   UNL     1     138.417  67.283 222.700 -0.20 -0.01    +0.101 C  
DOCKED: ATOM     11  O   UNL     1     138.940  66.141 222.618 -0.25 +0.05    -0.313 OA 
DOCKED: BRANCH  10  12
DOCKED: ATOM     12  C   UNL     1     138.837  68.187 223.806 -0.27 -0.01    +0.088 A  
DOCKED: ATOM     13  C   UNL     1     138.923  69.576 223.596 -0.26 -0.01    +0.031 A  
DOCKED: ATOM     14  N   UNL     1     139.201  67.682 225.014 -0.79 -0.00    -0.246 NA 
DOCKED: ATOM     15  C   UNL     1     139.383  70.409 224.619 -0.39 -0.00    +0.012 A  
DOCKED: ATOM     16  C   UNL     1     139.657  68.462 226.028 -0.50 -0.01    +0.071 A  
DOCKED: ATOM     17  C   UNL     1     139.762  69.858 225.847 -0.47 -0.00    +0.000 A  
DOCKED: ATOM     18  C   UNL     1     140.044  67.883 227.242 -0.61 -0.01    +0.029 A  
DOCKED: ATOM     19  C   UNL     1     140.247  70.660 226.890 -0.58 -0.00    +0.010 A  
DOCKED: ATOM     20  C   UNL     1     140.531  68.689 228.277 -0.66 -0.00    +0.002 A  
DOCKED: ATOM     21  C   UNL     1     140.631  70.073 228.101 -0.61 -0.00    +0.001 A  
DOCKED: ENDBRANCH  10  12
DOCKED: ENDBRANCH   9  10
DOCKED: ENDBRANCH   8   9
DOCKED: ENDBRANCH   1   8
DOCKED: TORSDOF 7
DOCKED: TER
DOCKED: ENDMDL
________________________________________________________________________________


    FINAL DOCKED STATE:
    ________________________


Run:   3 / 20
Time taken for this run:   0.040s

DOCKED: MODEL        3
DOCKED: USER    Run = 3
DOCKED: USER
DOCKED: USER    Estimated Free Energy of Binding    =  -6.16 kcal/mol  [=(1)+(2)+(3)-(4)]
DOCKED: USER
DOCKED: USER    (1) Final Intermolecular Energy     =  -8.25 kcal/mol
DOCKED: USER        vdW + Hbond + desolv Energy     =  -8.70 kcal/mol
DOCKED: USER        Electrostatic Energy            =  +0.44 kcal/mol
DOCKED: USER        Moving Ligand-Fixed Receptor    =  -8.25 kcal/mol
DOCKED: USER        Moving Ligand-Moving Receptor   =  +0.00 kcal/mol
DOCKED: USER    (2) Final Total Internal Energy     =  -0.33 kcal/mol
DOCKED: USER    (3) Torsional Free Energy           =  +2.09 kcal/mol
DOCKED: USER    (4) Unbound System's Energy         =  -0.33 kcal/mol
DOCKED: USER
DOCKED: USER
DOCKED: REMARK SMILES CC(C)C[N-]C(=O)C[N-]C(=O)c1ccc2ccccc2n1
DOCKED: REMARK SMILES IDX 6 1 7 2 5 3 4 4 2 5 1 6 3 7 8 8 9 9 10 10 11 11 12 12 13 13
DOCKED: REMARK SMILES IDX 21 14 14 15 20 16 15 17 19 18 16 19 18 20 17 21
DOCKED: REMARK H PARENT
DOCKED: USER                              x       y       z     vdW  Elec       q    Type
DOCKED: USER                           _______ _______ _______ _____ _____    ______ ____
DOCKED: ROOT
DOCKED: ATOM      1  C   UNL     1     140.462  76.076 221.839 -0.36 -0.01    +0.033 C  
DOCKED: ATOM      2  O   UNL     1     139.577  76.278 222.713 -0.30 +0.05    -0.322 OA 
DOCKED: ENDROOT
DOCKED: BRANCH   1   3
DOCKED: ATOM      3  N   UNL     1     141.096  77.183 221.192 +0.02 +0.29    -0.654 NA 
DOCKED: BRANCH   3   4
DOCKED: ATOM      4  C   UNL     1     140.835  78.567 221.566 -0.28 +0.04    -0.115 C  
DOCKED: BRANCH   4   5
DOCKED: ATOM      5  C   UNL     1     141.980  79.114 222.436 -0.50 +0.02    -0.035 C  
DOCKED: ATOM      6  C   UNL     1     141.792  78.677 223.894 -0.58 -0.00    +0.006 C  
DOCKED: ATOM      7  C   UNL     1     142.065  80.644 222.348 -0.55 -0.00    +0.006 C  
DOCKED: ENDBRANCH   4   5
DOCKED: ENDBRANCH   3   4
DOCKED: ENDBRANCH   1   3
DOCKED: BRANCH   1   8
DOCKED: ATOM      8  C   UNL     1     140.794  74.664 221.450 -0.29 +0.01    -0.061 C  
DOCKED: BRANCH   8   9
DOCKED: ATOM      9  N   UNL     1     140.161  73.687 222.334 -0.59 +0.01    -0.643 NA 
DOCKED: BRANCH   9  10
DOCKED: ATOM     10  C   UNL     1     140.319  72.257 222.342 -0.28 -0.01    +0.101 C  
DOCKED: ATOM     11  O   UNL     1     140.531  71.690 221.238 -0.10 +0.04    -0.313 OA 
DOCKED: BRANCH  10  12
DOCKED: ATOM     12  C   UNL     1     140.226  71.423 223.571 -0.35 -0.01    +0.088 A  
DOCKED: ATOM     13  C   UNL     1     139.571  70.177 223.538 -0.28 -0.01    +0.031 A  
DOCKED: ATOM     14  N   UNL     1     140.716  71.876 224.756 -0.26 +0.03    -0.246 NA 
DOCKED: ATOM     15  C   UNL     1     139.430  69.433 224.712 -0.36 -0.00    +0.012 A  
DOCKED: ATOM     16  C   UNL     1     140.591  71.180 225.915 -0.55 -0.01    +0.071 A  
DOCKED: ATOM     17  C   UNL     1     139.934  69.930 225.917 -0.49 -0.00    +0.000 A  
DOCKED: ATOM     18  C   UNL     1     141.091  71.709 227.110 -0.76 -0.01    +0.029 A  
DOCKED: ATOM     19  C   UNL     1     139.793  69.221 227.119 -0.57 -0.00    +0.010 A  
DOCKED: ATOM     20  C   UNL     1     140.944  70.997 228.305 -0.66 -0.00    +0.002 A  
DOCKED: ATOM     21  C   UNL     1     140.297  69.757 228.309 -0.61 -0.00    +0.001 A  
DOCKED: ENDBRANCH  10  12
DOCKED: ENDBRANCH   9  10
DOCKED: ENDBRANCH   8   9
DOCKED: ENDBRANCH   1   8
DOCKED: TORSDOF 7
DOCKED: TER
DOCKED: ENDMDL
________________________________________________________________________________


    FINAL DOCKED STATE:
    ________________________


Run:   4 / 20
Time taken for this run:   0.040s

DOCKED: MODEL        4
DOCKED: USER    Run = 4
DOCKED: USER
DOCKED: USER    Estimated Free Energy of Binding    =  -6.10 kcal/mol  [=(1)+(2)+(3)-(4)]
DOCKED: USER
DOCKED: USER    (1) Final Intermolecular Energy     =  -8.19 kcal/mol
DOCKED: USER        vdW + Hbond + desolv Energy     =  -8.60 kcal/mol
DOCKED: USER        Electrostatic Energy            =  +0.41 kcal/mol
DOCKED: USER        Moving Ligand-Fixed Receptor    =  -8.19 kcal/mol
DOCKED: USER        Moving Ligand-Moving Receptor   =  +0.00 kcal/mol
DOCKED: USER    (2) Final Total Internal Energy     =  -0.34 kcal/mol
DOCKED: USER    (3) Torsional Free Energy           =  +2.09 kcal/mol
DOCKED: USER    (4) Unbound System's Energy         =  -0.34 kcal/mol
DOCKED: USER
DOCKED: USER
DOCKED: REMARK SMILES CC(C)C[N-]C(=O)C[N-]C(=O)c1ccc2ccccc2n1
DOCKED: REMARK SMILES IDX 6 1 7 2 5 3 4 4 2 5 1 6 3 7 8 8 9 9 10 10 11 11 12 12 13 13
DOCKED: REMARK SMILES IDX 21 14 14 15 20 16 15 17 19 18 16 19 18 20 17 21
DOCKED: REMARK H PARENT
DOCKED: USER                              x       y       z     vdW  Elec       q    Type
DOCKED: USER                           _______ _______ _______ _____ _____    ______ ____
DOCKED: ROOT
DOCKED: ATOM      1  C   UNL     1     140.351  76.049 221.860 -0.36 -0.01    +0.033 C  
DOCKED: ATOM      2  O   UNL     1     139.452  76.215 222.727 -0.30 +0.06    -0.322 OA 
DOCKED: ENDROOT
DOCKED: BRANCH   1   3
DOCKED: ATOM      3  N   UNL     1     140.803  77.157 221.075 +0.03 +0.26    -0.654 NA 
DOCKED: BRANCH   3   4
DOCKED: ATOM      4  C   UNL     1     140.663  78.540 221.513 -0.26 +0.04    -0.115 C  
DOCKED: BRANCH   4   5
DOCKED: ATOM      5  C   UNL     1     141.914  78.987 222.289 -0.48 +0.02    -0.035 C  
DOCKED: ATOM      6  C   UNL     1     141.748  78.680 223.782 -0.59 -0.00    +0.006 C  
DOCKED: ATOM      7  C   UNL     1     142.193  80.482 222.083 -0.53 -0.00    +0.006 C  
DOCKED: ENDBRANCH   4   5
DOCKED: ENDBRANCH   3   4
DOCKED: ENDBRANCH   1   3
DOCKED: BRANCH   1   8
DOCKED: ATOM      8  C   UNL     1     140.894  74.668 221.628 -0.26 +0.01    -0.061 C  
DOCKED: BRANCH   8   9
DOCKED: ATOM      9  N   UNL     1     140.123  73.648 222.336 -0.59 +0.02    -0.643 NA 
DOCKED: BRANCH   9  10
DOCKED: ATOM     10  C   UNL     1     140.337  72.226 222.361 -0.28 -0.01    +0.101 C  
DOCKED: ATOM     11  O   UNL     1     140.605  71.659 221.269 -0.11 +0.04    -0.313 OA 
DOCKED: BRANCH  10  12
DOCKED: ATOM     12  C   UNL     1     140.240  71.398 223.595 -0.35 -0.01    +0.088 A  
DOCKED: ATOM     13  C   UNL     1     139.581  70.155 223.568 -0.28 -0.01    +0.031 A  
DOCKED: ATOM     14  N   UNL     1     140.732  71.856 224.777 -0.26 +0.03    -0.246 NA 
DOCKED: ATOM     15  C   UNL     1     139.436  69.418 224.745 -0.37 -0.00    +0.012 A  
DOCKED: ATOM     16  C   UNL     1     140.603  71.166 225.940 -0.56 -0.01    +0.071 A  
DOCKED: ATOM     17  C   UNL     1     139.942  69.919 225.948 -0.49 -0.00    +0.000 A  
DOCKED: ATOM     18  C   UNL     1     141.106  71.699 227.133 -0.75 -0.01    +0.029 A  
DOCKED: ATOM     19  C   UNL     1     139.797  69.217 227.153 -0.57 -0.00    +0.010 A  
DOCKED: ATOM     20  C   UNL     1     140.954  70.995 228.332 -0.65 -0.00    +0.002 A  
DOCKED: ATOM     21  C   UNL     1     140.303  69.757 228.341 -0.60 -0.00    +0.001 A  
DOCKED: ENDBRANCH  10  12
DOCKED: ENDBRANCH   9  10
DOCKED: ENDBRANCH   8   9
DOCKED: ENDBRANCH   1   8
DOCKED: TORSDOF 7
DOCKED: TER
DOCKED: ENDMDL
________________________________________________________________________________


    FINAL DOCKED STATE:
    ________________________


Run:   5 / 20
Time taken for this run:   0.040s

DOCKED: MODEL        5
DOCKED: USER    Run = 5
DOCKED: USER
DOCKED: USER    Estimated Free Energy of Binding    =  -6.04 kcal/mol  [=(1)+(2)+(3)-(4)]
DOCKED: USER
DOCKED: USER    (1) Final Intermolecular Energy     =  -8.13 kcal/mol
DOCKED: USER        vdW + Hbond + desolv Energy     =  -8.54 kcal/mol
DOCKED: USER        Electrostatic Energy            =  +0.41 kcal/mol
DOCKED: USER        Moving Ligand-Fixed Receptor    =  -8.13 kcal/mol
DOCKED: USER        Moving Ligand-Moving Receptor   =  +0.00 kcal/mol
DOCKED: USER    (2) Final Total Internal Energy     =  -0.28 kcal/mol
DOCKED: USER    (3) Torsional Free Energy           =  +2.09 kcal/mol
DOCKED: USER    (4) Unbound System's Energy         =  -0.28 kcal/mol
DOCKED: USER
DOCKED: USER
DOCKED: REMARK SMILES CC(C)C[N-]C(=O)C[N-]C(=O)c1ccc2ccccc2n1
DOCKED: REMARK SMILES IDX 6 1 7 2 5 3 4 4 2 5 1 6 3 7 8 8 9 9 10 10 11 11 12 12 13 13
DOCKED: REMARK SMILES IDX 21 14 14 15 20 16 15 17 19 18 16 19 18 20 17 21
DOCKED: REMARK H PARENT
DOCKED: USER                              x       y       z     vdW  Elec       q    Type
DOCKED: USER                           _______ _______ _______ _____ _____    ______ ____
DOCKED: ROOT
DOCKED: ATOM      1  C   UNL     1     142.399  73.714 220.552 -0.26 -0.01    +0.033 C  
DOCKED: ATOM      2  O   UNL     1     141.654  74.557 221.119 -0.23 +0.08    -0.322 OA 
DOCKED: ENDROOT
DOCKED: BRANCH   1   3
DOCKED: ATOM      3  N   UNL     1     143.560  74.149 219.837 +0.02 +0.20    -0.654 NA 
DOCKED: BRANCH   3   4
DOCKED: ATOM      4  C   UNL     1     144.836  74.405 220.491 -0.40 +0.04    -0.115 C  
DOCKED: BRANCH   4   5
DOCKED: ATOM      5  C   UNL     1     145.451  73.092 221.004 -0.58 +0.01    -0.035 C  
DOCKED: ATOM      6  C   UNL     1     146.622  73.389 221.949 -0.68 -0.00    +0.006 C  
DOCKED: ATOM      7  C   UNL     1     145.920  72.205 219.842 -0.37 +0.00    +0.006 C  
DOCKED: ENDBRANCH   4   5
DOCKED: ENDBRANCH   3   4
DOCKED: ENDBRANCH   1   3
DOCKED: BRANCH   1   8
DOCKED: ATOM      8  C   UNL     1     142.020  72.261 220.593 -0.20 +0.01    -0.061 C  
DOCKED: BRANCH   8   9
DOCKED: ATOM      9  N   UNL     1     140.705  72.053 221.196 +0.01 +0.09    -0.643 NA 
DOCKED: BRANCH   9  10
DOCKED: ATOM     10  C   UNL     1     140.257  72.426 222.511 -0.28 -0.01    +0.101 C  
DOCKED: ATOM     11  O   UNL     1     139.902  73.621 222.688 -0.71 +0.01    -0.313 OA 
DOCKED: BRANCH  10  12
DOCKED: ATOM     12  C   UNL     1     140.211  71.486 223.665 -0.36 -0.01    +0.088 A  
DOCKED: ATOM     13  C   UNL     1     139.607  70.222 223.530 -0.28 -0.01    +0.031 A  
DOCKED: ATOM     14  N   UNL     1     140.696  71.856 224.880 -0.28 +0.03    -0.246 NA 
DOCKED: ATOM     15  C   UNL     1     139.509  69.375 224.636 -0.36 -0.00    +0.012 A  
DOCKED: ATOM     16  C   UNL     1     140.611  71.059 225.977 -0.55 -0.01    +0.071 A  
DOCKED: ATOM     17  C   UNL     1     140.006  69.788 225.876 -0.48 -0.00    +0.000 A  
DOCKED: ATOM     18  C   UNL     1     141.104  71.503 227.209 -0.73 -0.00    +0.029 A  
DOCKED: ATOM     19  C   UNL     1     139.907  68.972 227.013 -0.58 -0.00    +0.010 A  
DOCKED: ATOM     20  C   UNL     1     140.998  70.687 228.340 -0.59 -0.00    +0.002 A  
DOCKED: ATOM     21  C   UNL     1     140.402  69.425 228.241 -0.63 -0.00    +0.001 A  
DOCKED: ENDBRANCH  10  12
DOCKED: ENDBRANCH   9  10
DOCKED: ENDBRANCH   8   9
DOCKED: ENDBRANCH   1   8
DOCKED: TORSDOF 7
DOCKED: TER
DOCKED: ENDMDL
________________________________________________________________________________


    FINAL DOCKED STATE:
    ________________________


Run:   6 / 20
Time taken for this run:   0.040s

DOCKED: MODEL        6
DOCKED: USER    Run = 6
DOCKED: USER
DOCKED: USER    Estimated Free Energy of Binding    =  -5.65 kcal/mol  [=(1)+(2)+(3)-(4)]
DOCKED: USER
DOCKED: USER    (1) Final Intermolecular Energy     =  -7.74 kcal/mol
DOCKED: USER        vdW + Hbond + desolv Energy     =  -7.89 kcal/mol
DOCKED: USER        Electrostatic Energy            =  +0.15 kcal/mol
DOCKED: USER        Moving Ligand-Fixed Receptor    =  -7.74 kcal/mol
DOCKED: USER        Moving Ligand-Moving Receptor   =  +0.00 kcal/mol
DOCKED: USER    (2) Final Total Internal Energy     =  -0.52 kcal/mol
DOCKED: USER    (3) Torsional Free Energy           =  +2.09 kcal/mol
DOCKED: USER    (4) Unbound System's Energy         =  -0.52 kcal/mol
DOCKED: USER
DOCKED: USER
DOCKED: REMARK SMILES CC(C)C[N-]C(=O)C[N-]C(=O)c1ccc2ccccc2n1
DOCKED: REMARK SMILES IDX 6 1 7 2 5 3 4 4 2 5 1 6 3 7 8 8 9 9 10 10 11 11 12 12 13 13
DOCKED: REMARK SMILES IDX 21 14 14 15 20 16 15 17 19 18 16 19 18 20 17 21
DOCKED: REMARK H PARENT
DOCKED: USER                              x       y       z     vdW  Elec       q    Type
DOCKED: USER                           _______ _______ _______ _____ _____    ______ ____
DOCKED: ROOT
DOCKED: ATOM      1  C   UNL     1     142.605  71.853 219.503 -0.14 -0.00    +0.033 C  
DOCKED: ATOM      2  O   UNL     1     141.684  71.570 218.690 -0.01 +0.05    -0.322 OA 
DOCKED: ENDROOT
DOCKED: BRANCH   1   3
DOCKED: ATOM      3  N   UNL     1     143.889  72.258 219.020 +0.08 +0.02    -0.654 NA 
DOCKED: BRANCH   3   4
DOCKED: ATOM      4  C   UNL     1     145.105  72.128 219.814 -0.31 -0.02    -0.115 C  
DOCKED: BRANCH   4   5
DOCKED: ATOM      5  C   UNL     1     145.585  73.509 220.291 -0.57 +0.00    -0.035 C  
DOCKED: ATOM      6  C   UNL     1     146.299  73.384 221.642 -0.73 -0.00    +0.006 C  
DOCKED: ATOM      7  C   UNL     1     144.418  74.500 220.398 -0.45 -0.00    +0.006 C  
DOCKED: ENDBRANCH   4   5
DOCKED: ENDBRANCH   3   4
DOCKED: ENDBRANCH   1   3
DOCKED: BRANCH   1   8
DOCKED: ATOM      8  C   UNL     1     142.348  71.703 220.975 -0.16 +0.01    -0.061 C  
DOCKED: BRANCH   8   9
DOCKED: ATOM      9  N   UNL     1     141.555  72.808 221.511 +0.01 +0.05    -0.643 NA 
DOCKED: BRANCH   9  10
DOCKED: ATOM     10  C   UNL     1     140.440  72.747 222.417 -0.23 -0.01    +0.101 C  
DOCKED: ATOM     11  O   UNL     1     139.574  73.658 222.336 -0.75 +0.05    -0.313 OA 
DOCKED: BRANCH  10  12
DOCKED: ATOM     12  C   UNL     1     140.270  71.686 223.447 -0.34 -0.01    +0.088 A  
DOCKED: ATOM     13  C   UNL     1     139.608  70.485 223.130 -0.26 -0.01    +0.031 A  
DOCKED: ATOM     14  N   UNL     1     140.696  71.884 224.723 -0.27 +0.03    -0.246 NA 
DOCKED: ATOM     15  C   UNL     1     139.394  69.524 224.121 -0.31 -0.00    +0.012 A  
DOCKED: ATOM     16  C   UNL     1     140.499  70.973 225.711 -0.53 -0.01    +0.071 A  
DOCKED: ATOM     17  C   UNL     1     139.833  69.761 225.427 -0.44 -0.00    +0.000 A  
DOCKED: ATOM     18  C   UNL     1     140.935  71.242 227.014 -0.69 -0.00    +0.029 A  
DOCKED: ATOM     19  C   UNL     1     139.618  68.828 226.452 -0.54 -0.00    +0.010 A  
DOCKED: ATOM     20  C   UNL     1     140.713  70.309 228.032 -0.63 -0.00    +0.002 A  
DOCKED: ATOM     21  C   UNL     1     140.058  69.106 227.752 -0.63 -0.00    +0.001 A  
DOCKED: ENDBRANCH  10  12
DOCKED: ENDBRANCH   9  10
DOCKED: ENDBRANCH   8   9
DOCKED: ENDBRANCH   1   8
DOCKED: TORSDOF 7
DOCKED: TER
DOCKED: ENDMDL
________________________________________________________________________________


    FINAL DOCKED STATE:
    ________________________


Run:   7 / 20
Time taken for this run:   0.040s

DOCKED: MODEL        7
DOCKED: USER    Run = 7
DOCKED: USER
DOCKED: USER    Estimated Free Energy of Binding    =  -6.12 kcal/mol  [=(1)+(2)+(3)-(4)]
DOCKED: USER
DOCKED: USER    (1) Final Intermolecular Energy     =  -8.21 kcal/mol
DOCKED: USER        vdW + Hbond + desolv Energy     =  -8.61 kcal/mol
DOCKED: USER        Electrostatic Energy            =  +0.41 kcal/mol
DOCKED: USER        Moving Ligand-Fixed Receptor    =  -8.21 kcal/mol
DOCKED: USER        Moving Ligand-Moving Receptor   =  +0.00 kcal/mol
DOCKED: USER    (2) Final Total Internal Energy     =  -0.33 kcal/mol
DOCKED: USER    (3) Torsional Free Energy           =  +2.09 kcal/mol
DOCKED: USER    (4) Unbound System's Energy         =  -0.33 kcal/mol
DOCKED: USER
DOCKED: USER
DOCKED: REMARK SMILES CC(C)C[N-]C(=O)C[N-]C(=O)c1ccc2ccccc2n1
DOCKED: REMARK SMILES IDX 6 1 7 2 5 3 4 4 2 5 1 6 3 7 8 8 9 9 10 10 11 11 12 12 13 13
DOCKED: REMARK SMILES IDX 21 14 14 15 20 16 15 17 19 18 16 19 18 20 17 21
DOCKED: REMARK H PARENT
DOCKED: USER                              x       y       z     vdW  Elec       q    Type
DOCKED: USER                           _______ _______ _______ _____ _____    ______ ____
DOCKED: ROOT
DOCKED: ATOM      1  C   UNL     1     139.362  76.213 222.356 -0.32 -0.01    +0.033 C  
DOCKED: ATOM      2  O   UNL     1     138.268  76.019 222.953 -0.22 +0.08    -0.322 OA 
DOCKED: ENDROOT
DOCKED: BRANCH   1   3
DOCKED: ATOM      3  N   UNL     1     139.882  77.540 222.227 +0.00 +0.16    -0.654 NA 
DOCKED: BRANCH   3   4
DOCKED: ATOM      4  C   UNL     1     141.216  77.909 222.685 -0.37 +0.05    -0.115 C  
DOCKED: BRANCH   4   5
DOCKED: ATOM      5  C   UNL     1     141.138  79.089 223.670 -0.54 +0.01    -0.035 C  
DOCKED: ATOM      6  C   UNL     1     139.785  79.798 223.541 -0.44 -0.00    +0.006 C  
DOCKED: ATOM      7  C   UNL     1     142.282  80.085 223.438 -0.66 -0.00    +0.006 C  
DOCKED: ENDBRANCH   4   5
DOCKED: ENDBRANCH   3   4
DOCKED: ENDBRANCH   1   3
DOCKED: BRANCH   1   8
DOCKED: ATOM      8  C   UNL     1     140.073  75.044 221.739 -0.27 +0.01    -0.061 C  
DOCKED: BRANCH   8   9
DOCKED: ATOM      9  N   UNL     1     139.652  73.772 222.324 -0.58 +0.09    -0.643 NA 
DOCKED: BRANCH   9  10
DOCKED: ATOM     10  C   UNL     1     140.413  72.560 222.466 -0.26 -0.01    +0.101 C  
DOCKED: ATOM     11  O   UNL     1     141.253  72.292 221.567 -0.17 +0.03    -0.313 OA 
DOCKED: BRANCH  10  12
DOCKED: ATOM     12  C   UNL     1     140.246  71.608 223.599 -0.35 -0.01    +0.088 A  
DOCKED: ATOM     13  C   UNL     1     139.544  70.402 223.417 -0.28 -0.01    +0.031 A  
DOCKED: ATOM     14  N   UNL     1     140.714  71.916 224.838 -0.24 +0.03    -0.246 NA 
DOCKED: ATOM     15  C   UNL     1     139.334  69.548 224.502 -0.35 -0.00    +0.012 A  
DOCKED: ATOM     16  C   UNL     1     140.522  71.110 225.915 -0.55 -0.01    +0.071 A  
DOCKED: ATOM     17  C   UNL     1     139.817  69.897 225.767 -0.47 -0.00    +0.000 A  
DOCKED: ATOM     18  C   UNL     1     141.003  71.492 227.172 -0.74 -0.00    +0.029 A  
DOCKED: ATOM     19  C   UNL     1     139.608  69.074 226.884 -0.55 -0.00    +0.010 A  
DOCKED: ATOM     20  C   UNL     1     140.787  70.668 228.282 -0.61 -0.00    +0.002 A  
DOCKED: ATOM     21  C   UNL     1     140.092  69.462 228.138 -0.63 -0.00    +0.001 A  
DOCKED: ENDBRANCH  10  12
DOCKED: ENDBRANCH   9  10
DOCKED: ENDBRANCH   8   9
DOCKED: ENDBRANCH   1   8
DOCKED: TORSDOF 7
DOCKED: TER
DOCKED: ENDMDL
________________________________________________________________________________


    FINAL DOCKED STATE:
    ________________________


Run:   8 / 20
Time taken for this run:   0.040s

DOCKED: MODEL        8
DOCKED: USER    Run = 8
DOCKED: USER
DOCKED: USER    Estimated Free Energy of Binding    =  -5.95 kcal/mol  [=(1)+(2)+(3)-(4)]
DOCKED: USER
DOCKED: USER    (1) Final Intermolecular Energy     =  -8.04 kcal/mol
DOCKED: USER        vdW + Hbond + desolv Energy     =  -8.37 kcal/mol
DOCKED: USER        Electrostatic Energy            =  +0.33 kcal/mol
DOCKED: USER        Moving Ligand-Fixed Receptor    =  -8.04 kcal/mol
DOCKED: USER        Moving Ligand-Moving Receptor   =  +0.00 kcal/mol
DOCKED: USER    (2) Final Total Internal Energy     =  -0.37 kcal/mol
DOCKED: USER    (3) Torsional Free Energy           =  +2.09 kcal/mol
DOCKED: USER    (4) Unbound System's Energy         =  -0.37 kcal/mol
DOCKED: USER
DOCKED: USER
DOCKED: REMARK SMILES CC(C)C[N-]C(=O)C[N-]C(=O)c1ccc2ccccc2n1
DOCKED: REMARK SMILES IDX 6 1 7 2 5 3 4 4 2 5 1 6 3 7 8 8 9 9 10 10 11 11 12 12 13 13
DOCKED: REMARK SMILES IDX 21 14 14 15 20 16 15 17 19 18 16 19 18 20 17 21
DOCKED: REMARK H PARENT
DOCKED: USER                              x       y       z     vdW  Elec       q    Type
DOCKED: USER                           _______ _______ _______ _____ _____    ______ ____
DOCKED: ROOT
DOCKED: ATOM      1  C   UNL     1     139.376  75.960 222.004 -0.31 -0.01    +0.033 C  
DOCKED: ATOM      2  O   UNL     1     138.747  76.016 223.095 -0.20 +0.07    -0.322 OA 
DOCKED: ENDROOT
DOCKED: BRANCH   1   3
DOCKED: ATOM      3  N   UNL     1     139.773  77.166 221.343 +0.04 +0.18    -0.654 NA 
DOCKED: BRANCH   3   4
DOCKED: ATOM      4  C   UNL     1     141.047  77.823 221.604 -0.31 +0.05    -0.115 C  
DOCKED: BRANCH   4   5
DOCKED: ATOM      5  C   UNL     1     141.038  78.480 222.995 -0.50 +0.01    -0.035 C  
DOCKED: ATOM      6  C   UNL     1     139.719  79.228 223.218 -0.40 -0.00    +0.006 C  
DOCKED: ATOM      7  C   UNL     1     142.226  79.438 223.167 -0.63 -0.00    +0.006 C  
DOCKED: ENDBRANCH   4   5
DOCKED: ENDBRANCH   3   4
DOCKED: ENDBRANCH   1   3
DOCKED: BRANCH   1   8
DOCKED: ATOM      8  C   UNL     1     139.649  74.618 221.388 -0.24 +0.01    -0.061 C  
DOCKED: BRANCH   8   9
DOCKED: ATOM      9  N   UNL     1     140.293  73.702 222.327 -0.58 -0.01    -0.643 NA 
DOCKED: BRANCH   9  10
DOCKED: ATOM     10  C   UNL     1     140.258  72.265 222.337 -0.28 -0.01    +0.101 C  
DOCKED: ATOM     11  O   UNL     1     140.334  71.673 221.228 -0.10 +0.05    -0.313 OA 
DOCKED: BRANCH  10  12
DOCKED: ATOM     12  C   UNL     1     140.117  71.451 223.576 -0.35 -0.01    +0.088 A  
DOCKED: ATOM     13  C   UNL     1     139.400  70.240 223.556 -0.28 -0.01    +0.031 A  
DOCKED: ATOM     14  N   UNL     1     140.625  71.894 224.758 -0.26 +0.03    -0.246 NA 
DOCKED: ATOM     15  C   UNL     1     139.216  69.519 224.738 -0.36 -0.00    +0.012 A  
DOCKED: ATOM     16  C   UNL     1     140.460  71.219 225.925 -0.54 -0.01    +0.071 A  
DOCKED: ATOM     17  C   UNL     1     139.740  70.005 225.939 -0.48 -0.00    +0.000 A  
DOCKED: ATOM     18  C   UNL     1     140.982  71.737 227.116 -0.76 -0.01    +0.029 A  
DOCKED: ATOM     19  C   UNL     1     139.559  69.318 227.148 -0.55 -0.00    +0.010 A  
DOCKED: ATOM     20  C   UNL     1     140.793  71.049 228.319 -0.66 -0.00    +0.002 A  
DOCKED: ATOM     21  C   UNL     1     140.084  69.843 228.335 -0.61 -0.00    +0.001 A  
DOCKED: ENDBRANCH  10  12
DOCKED: ENDBRANCH   9  10
DOCKED: ENDBRANCH   8   9
DOCKED: ENDBRANCH   1   8
DOCKED: TORSDOF 7
DOCKED: TER
DOCKED: ENDMDL
________________________________________________________________________________


    FINAL DOCKED STATE:
    ________________________


Run:   9 / 20
Time taken for this run:   0.040s

DOCKED: MODEL        9
DOCKED: USER    Run = 9
DOCKED: USER
DOCKED: USER    Estimated Free Energy of Binding    =  -6.19 kcal/mol  [=(1)+(2)+(3)-(4)]
DOCKED: USER
DOCKED: USER    (1) Final Intermolecular Energy     =  -8.28 kcal/mol
DOCKED: USER        vdW + Hbond + desolv Energy     =  -8.64 kcal/mol
DOCKED: USER        Electrostatic Energy            =  +0.36 kcal/mol
DOCKED: USER        Moving Ligand-Fixed Receptor    =  -8.28 kcal/mol
DOCKED: USER        Moving Ligand-Moving Receptor   =  +0.00 kcal/mol
DOCKED: USER    (2) Final Total Internal Energy     =  -0.34 kcal/mol
DOCKED: USER    (3) Torsional Free Energy           =  +2.09 kcal/mol
DOCKED: USER    (4) Unbound System's Energy         =  -0.34 kcal/mol
DOCKED: USER
DOCKED: USER
DOCKED: REMARK SMILES CC(C)C[N-]C(=O)C[N-]C(=O)c1ccc2ccccc2n1
DOCKED: REMARK SMILES IDX 6 1 7 2 5 3 4 4 2 5 1 6 3 7 8 8 9 9 10 10 11 11 12 12 13 13
DOCKED: REMARK SMILES IDX 21 14 14 15 20 16 15 17 19 18 16 19 18 20 17 21
DOCKED: REMARK H PARENT
DOCKED: USER                              x       y       z     vdW  Elec       q    Type
DOCKED: USER                           _______ _______ _______ _____ _____    ______ ____
DOCKED: ROOT
DOCKED: ATOM      1  C   UNL     1     139.410  75.968 222.354 -0.32 -0.01    +0.033 C  
DOCKED: ATOM      2  O   UNL     1     138.451  76.693 222.731 -0.23 +0.06    -0.322 OA 
DOCKED: ENDROOT
DOCKED: BRANCH   1   3
DOCKED: ATOM      3  N   UNL     1     140.728  76.517 222.257 -0.06 +0.20    -0.654 NA 
DOCKED: BRANCH   3   4
DOCKED: ATOM      4  C   UNL     1     140.974  77.926 221.975 -0.35 +0.05    -0.115 C  
DOCKED: BRANCH   4   5
DOCKED: ATOM      5  C   UNL     1     141.315  78.681 223.272 -0.54 +0.01    -0.035 C  
DOCKED: ATOM      6  C   UNL     1     140.087  79.448 223.776 -0.45 -0.00    +0.006 C  
DOCKED: ATOM      7  C   UNL     1     142.492  79.644 223.063 -0.63 -0.00    +0.006 C  
DOCKED: ENDBRANCH   4   5
DOCKED: ENDBRANCH   3   4
DOCKED: ENDBRANCH   1   3
DOCKED: BRANCH   1   8
DOCKED: ATOM      8  C   UNL     1     139.137  74.546 221.958 -0.24 +0.01    -0.061 C  
DOCKED: BRANCH   8   9
DOCKED: ATOM      9  N   UNL     1     140.269  73.667 222.247 -0.58 +0.01    -0.643 NA 
DOCKED: BRANCH   9  10
DOCKED: ATOM     10  C   UNL     1     140.293  72.230 222.293 -0.28 -0.01    +0.101 C  
DOCKED: ATOM     11  O   UNL     1     140.428  71.615 221.202 -0.10 +0.05    -0.313 OA 
DOCKED: BRANCH  10  12
DOCKED: ATOM     12  C   UNL     1     140.149  71.442 223.548 -0.35 -0.01    +0.088 A  
DOCKED: ATOM     13  C   UNL     1     139.410  70.244 223.556 -0.28 -0.01    +0.031 A  
DOCKED: ATOM     14  N   UNL     1     140.677  71.895 224.716 -0.26 +0.03    -0.246 NA 
DOCKED: ATOM     15  C   UNL     1     139.224  69.547 224.752 -0.37 -0.00    +0.012 A  
DOCKED: ATOM     16  C   UNL     1     140.510  71.245 225.897 -0.54 -0.01    +0.071 A  
DOCKED: ATOM     17  C   UNL     1     139.768  70.045 225.940 -0.48 -0.00    +0.000 A  
DOCKED: ATOM     18  C   UNL     1     141.053  71.774 227.074 -0.76 -0.01    +0.029 A  
DOCKED: ATOM     19  C   UNL     1     139.585  69.384 227.163 -0.55 -0.00    +0.010 A  
DOCKED: ATOM     20  C   UNL     1     140.863  71.111 228.290 -0.68 -0.00    +0.002 A  
DOCKED: ATOM     21  C   UNL     1     140.132  69.919 228.335 -0.61 -0.00    +0.001 A  
DOCKED: ENDBRANCH  10  12
DOCKED: ENDBRANCH   9  10
DOCKED: ENDBRANCH   8   9
DOCKED: ENDBRANCH   1   8
DOCKED: TORSDOF 7
DOCKED: TER
DOCKED: ENDMDL
________________________________________________________________________________


    FINAL DOCKED STATE:
    ________________________


Run:   10 / 20
Time taken for this run:   0.040s

DOCKED: MODEL        10
DOCKED: USER    Run = 10
DOCKED: USER
DOCKED: USER    Estimated Free Energy of Binding    =  -6.02 kcal/mol  [=(1)+(2)+(3)-(4)]
DOCKED: USER
DOCKED: USER    (1) Final Intermolecular Energy     =  -8.11 kcal/mol
DOCKED: USER        vdW + Hbond + desolv Energy     =  -8.45 kcal/mol
DOCKED: USER        Electrostatic Energy            =  +0.33 kcal/mol
DOCKED: USER        Moving Ligand-Fixed Receptor    =  -8.11 kcal/mol
DOCKED: USER        Moving Ligand-Moving Receptor   =  +0.00 kcal/mol
DOCKED: USER    (2) Final Total Internal Energy     =  -0.30 kcal/mol
DOCKED: USER    (3) Torsional Free Energy           =  +2.09 kcal/mol
DOCKED: USER    (4) Unbound System's Energy         =  -0.30 kcal/mol
DOCKED: USER
DOCKED: USER
DOCKED: REMARK SMILES CC(C)C[N-]C(=O)C[N-]C(=O)c1ccc2ccccc2n1
DOCKED: REMARK SMILES IDX 6 1 7 2 5 3 4 4 2 5 1 6 3 7 8 8 9 9 10 10 11 11 12 12 13 13
DOCKED: REMARK SMILES IDX 21 14 14 15 20 16 15 17 19 18 16 19 18 20 17 21
DOCKED: REMARK H PARENT
DOCKED: USER                              x       y       z     vdW  Elec       q    Type
DOCKED: USER                           _______ _______ _______ _____ _____    ______ ____
DOCKED: ROOT
DOCKED: ATOM      1  C   UNL     1     140.053  71.891 223.440 -0.34 -0.01    +0.033 C  
DOCKED: ATOM      2  O   UNL     1     138.974  71.271 223.240 -0.16 +0.07    -0.322 OA 
DOCKED: ENDROOT
DOCKED: BRANCH   1   3
DOCKED: ATOM      3  N   UNL     1     140.699  71.814 224.714 +0.02 +0.08    -0.654 NA 
DOCKED: BRANCH   3   4
DOCKED: ATOM      4  C   UNL     1     140.848  70.562 225.445 -0.47 +0.02    -0.115 C  
DOCKED: BRANCH   4   5
DOCKED: ATOM      5  C   UNL     1     140.391  70.735 226.905 -0.61 +0.01    -0.035 C  
DOCKED: ATOM      6  C   UNL     1     141.081  71.951 227.534 -0.83 -0.00    +0.006 C  
DOCKED: ATOM      7  C   UNL     1     140.680  69.474 227.732 -0.64 -0.00    +0.006 C  
DOCKED: ENDBRANCH   4   5
DOCKED: ENDBRANCH   3   4
DOCKED: ENDBRANCH   1   3
DOCKED: BRANCH   1   8
DOCKED: ATOM      8  C   UNL     1     140.612  72.752 222.344 -0.26 +0.00    -0.061 C  
DOCKED: BRANCH   8   9
DOCKED: ATOM      9  N   UNL     1     139.944  74.050 222.268 -0.61 +0.04    -0.643 NA 
DOCKED: BRANCH   9  10
DOCKED: ATOM     10  C   UNL     1     140.385  75.243 221.597 -0.30 -0.02    +0.101 C  
DOCKED: ATOM     11  O   UNL     1     140.885  75.114 220.449 -0.11 +0.09    -0.313 OA 
DOCKED: BRANCH  10  12
DOCKED: ATOM     12  C   UNL     1     140.301  76.604 222.194 -0.35 -0.02    +0.088 A  
DOCKED: ATOM     13  C   UNL     1     139.049  77.176 222.489 -0.30 -0.01    +0.031 A  
DOCKED: ATOM     14  N   UNL     1     141.425  77.340 222.406 -0.12 +0.13    -0.246 NA 
DOCKED: ATOM     15  C   UNL     1     138.977  78.480 222.985 -0.31 -0.00    +0.012 A  
DOCKED: ATOM     16  C   UNL     1     141.390  78.612 222.882 -0.48 -0.03    +0.071 A  
DOCKED: ATOM     17  C   UNL     1     140.150  79.216 223.181 -0.43 -0.00    +0.000 A  
DOCKED: ATOM     18  C   UNL     1     142.578  79.330 223.055 -0.57 -0.01    +0.029 A  
DOCKED: ATOM     19  C   UNL     1     140.116  80.534 223.659 -0.42 -0.00    +0.010 A  
DOCKED: ATOM     20  C   UNL     1     142.536  80.646 223.527 -0.67 -0.00    +0.002 A  
DOCKED: ATOM     21  C   UNL     1     141.309  81.246 223.829 -0.49 -0.00    +0.001 A  
DOCKED: ENDBRANCH  10  12
DOCKED: ENDBRANCH   9  10
DOCKED: ENDBRANCH   8   9
DOCKED: ENDBRANCH   1   8
DOCKED: TORSDOF 7
DOCKED: TER
DOCKED: ENDMDL
________________________________________________________________________________


    FINAL DOCKED STATE:
    ________________________


Run:   11 / 20
Time taken for this run:   0.040s

DOCKED: MODEL        11
DOCKED: USER    Run = 11
DOCKED: USER
DOCKED: USER    Estimated Free Energy of Binding    =  -6.00 kcal/mol  [=(1)+(2)+(3)-(4)]
DOCKED: USER
DOCKED: USER    (1) Final Intermolecular Energy     =  -8.08 kcal/mol
DOCKED: USER        vdW + Hbond + desolv Energy     =  -8.37 kcal/mol
DOCKED: USER        Electrostatic Energy            =  +0.29 kcal/mol
DOCKED: USER        Moving Ligand-Fixed Receptor    =  -8.08 kcal/mol
DOCKED: USER        Moving Ligand-Moving Receptor   =  +0.00 kcal/mol
DOCKED: USER    (2) Final Total Internal Energy     =  -0.45 kcal/mol
DOCKED: USER    (3) Torsional Free Energy           =  +2.09 kcal/mol
DOCKED: USER    (4) Unbound System's Energy         =  -0.45 kcal/mol
DOCKED: USER
DOCKED: USER
DOCKED: REMARK SMILES CC(C)C[N-]C(=O)C[N-]C(=O)c1ccc2ccccc2n1
DOCKED: REMARK SMILES IDX 6 1 7 2 5 3 4 4 2 5 1 6 3 7 8 8 9 9 10 10 11 11 12 12 13 13
DOCKED: REMARK SMILES IDX 21 14 14 15 20 16 15 17 19 18 16 19 18 20 17 21
DOCKED: REMARK H PARENT
DOCKED: USER                              x       y       z     vdW  Elec       q    Type
DOCKED: USER                           _______ _______ _______ _____ _____    ______ ____
DOCKED: ROOT
DOCKED: ATOM      1  C   UNL     1     142.674  72.207 220.058 -0.20 -0.00    +0.033 C  
DOCKED: ATOM      2  O   UNL     1     143.130  71.168 220.607 -0.13 +0.03    -0.322 OA 
DOCKED: ENDROOT
DOCKED: BRANCH   1   3
DOCKED: ATOM      3  N   UNL     1     143.568  73.224 219.594 +0.06 +0.12    -0.654 NA 
DOCKED: BRANCH   3   4
DOCKED: ATOM      4  C   UNL     1     144.369  74.039 220.499 -0.40 +0.04    -0.115 C  
DOCKED: BRANCH   4   5
DOCKED: ATOM      5  C   UNL     1     145.828  73.554 220.511 -0.62 +0.00    -0.035 C  
DOCKED: ATOM      6  C   UNL     1     145.948  72.217 219.770 -0.37 +0.00    +0.006 C  
DOCKED: ATOM      7  C   UNL     1     146.357  73.413 221.945 -0.68 -0.00    +0.006 C  
DOCKED: ENDBRANCH   4   5
DOCKED: ENDBRANCH   3   4
DOCKED: ENDBRANCH   1   3
DOCKED: BRANCH   1   8
DOCKED: ATOM      8  C   UNL     1     141.187  72.384 219.953 -0.11 +0.01    -0.061 C  
DOCKED: BRANCH   8   9
DOCKED: ATOM      9  N   UNL     1     140.476  71.735 221.054 +0.02 +0.10    -0.643 NA 
DOCKED: BRANCH   9  10
DOCKED: ATOM     10  C   UNL     1     140.207  72.252 222.369 -0.28 -0.01    +0.101 C  
DOCKED: ATOM     11  O   UNL     1     139.994  73.488 222.476 -0.76 +0.02    -0.313 OA 
DOCKED: BRANCH  10  12
DOCKED: ATOM     12  C   UNL     1     140.187  71.411 223.597 -0.35 -0.01    +0.088 A  
DOCKED: ATOM     13  C   UNL     1     139.602  70.131 223.575 -0.27 -0.01    +0.031 A  
DOCKED: ATOM     14  N   UNL     1     140.677  71.889 224.772 -0.27 +0.03    -0.246 NA 
DOCKED: ATOM     15  C   UNL     1     139.527  69.378 224.749 -0.37 -0.00    +0.012 A  
DOCKED: ATOM     16  C   UNL     1     140.616  71.185 225.933 -0.56 -0.01    +0.071 A  
DOCKED: ATOM     17  C   UNL     1     140.030  69.901 225.945 -0.49 -0.00    +0.000 A  
DOCKED: ATOM     18  C   UNL     1     141.112  71.739 227.118 -0.76 -0.01    +0.029 A  
DOCKED: ATOM     19  C   UNL     1     139.954  69.183 227.147 -0.58 -0.00    +0.010 A  
DOCKED: ATOM     20  C   UNL     1     141.030  71.018 228.314 -0.66 -0.00    +0.002 A  
DOCKED: ATOM     21  C   UNL     1     140.454  69.744 228.328 -0.60 -0.00    +0.001 A  
DOCKED: ENDBRANCH  10  12
DOCKED: ENDBRANCH   9  10
DOCKED: ENDBRANCH   8   9
DOCKED: ENDBRANCH   1   8
DOCKED: TORSDOF 7
DOCKED: TER
DOCKED: ENDMDL
________________________________________________________________________________


    FINAL DOCKED STATE:
    ________________________


Run:   12 / 20
Time taken for this run:   0.040s

DOCKED: MODEL        12
DOCKED: USER    Run = 12
DOCKED: USER
DOCKED: USER    Estimated Free Energy of Binding    =  -5.99 kcal/mol  [=(1)+(2)+(3)-(4)]
DOCKED: USER
DOCKED: USER    (1) Final Intermolecular Energy     =  -8.08 kcal/mol
DOCKED: USER        vdW + Hbond + desolv Energy     =  -8.42 kcal/mol
DOCKED: USER        Electrostatic Energy            =  +0.34 kcal/mol
DOCKED: USER        Moving Ligand-Fixed Receptor    =  -8.08 kcal/mol
DOCKED: USER        Moving Ligand-Moving Receptor   =  +0.00 kcal/mol
DOCKED: USER    (2) Final Total Internal Energy     =  -0.37 kcal/mol
DOCKED: USER    (3) Torsional Free Energy           =  +2.09 kcal/mol
DOCKED: USER    (4) Unbound System's Energy         =  -0.37 kcal/mol
DOCKED: USER
DOCKED: USER
DOCKED: REMARK SMILES CC(C)C[N-]C(=O)C[N-]C(=O)c1ccc2ccccc2n1
DOCKED: REMARK SMILES IDX 6 1 7 2 5 3 4 4 2 5 1 6 3 7 8 8 9 9 10 10 11 11 12 12 13 13
DOCKED: REMARK SMILES IDX 21 14 14 15 20 16 15 17 19 18 16 19 18 20 17 21
DOCKED: REMARK H PARENT
DOCKED: USER                              x       y       z     vdW  Elec       q    Type
DOCKED: USER                           _______ _______ _______ _____ _____    ______ ____
DOCKED: ROOT
DOCKED: ATOM      1  C   UNL     1     140.000  75.754 221.706 -0.32 -0.01    +0.033 C  
DOCKED: ATOM      2  O   UNL     1     139.311  75.753 222.761 -0.37 +0.06    -0.322 OA 
DOCKED: ENDROOT
DOCKED: BRANCH   1   3
DOCKED: ATOM      3  N   UNL     1     140.156  76.961 220.952 +0.04 +0.20    -0.654 NA 
DOCKED: BRANCH   3   4
DOCKED: ATOM      4  C   UNL     1     141.165  77.962 221.272 -0.28 +0.05    -0.115 C  
DOCKED: BRANCH   4   5
DOCKED: ATOM      5  C   UNL     1     141.085  78.350 222.759 -0.49 +0.01    -0.035 C  
DOCKED: ATOM      6  C   UNL     1     139.719  78.972 223.071 -0.39 -0.00    +0.006 C  
DOCKED: ATOM      7  C   UNL     1     142.210  79.322 223.143 -0.62 -0.00    +0.006 C  
DOCKED: ENDBRANCH   4   5
DOCKED: ENDBRANCH   3   4
DOCKED: ENDBRANCH   1   3
DOCKED: BRANCH   1   8
DOCKED: ATOM      8  C   UNL     1     140.601  74.464 221.227 -0.27 +0.01    -0.061 C  
DOCKED: BRANCH   8   9
DOCKED: ATOM      9  N   UNL     1     140.706  73.475 222.297 -0.46 -0.02    -0.643 NA 
DOCKED: BRANCH   9  10
DOCKED: ATOM     10  C   UNL     1     140.039  72.206 222.408 -0.28 -0.01    +0.101 C  
DOCKED: ATOM     11  O   UNL     1     139.383  71.805 221.410 -0.07 +0.06    -0.313 OA 
DOCKED: BRANCH  10  12
DOCKED: ATOM     12  C   UNL     1     140.069  71.361 223.634 -0.35 -0.01    +0.088 A  
DOCKED: ATOM     13  C   UNL     1     139.502  70.073 223.625 -0.28 -0.01    +0.031 A  
DOCKED: ATOM     14  N   UNL     1     140.589  71.842 224.795 -0.27 +0.04    -0.246 NA 
DOCKED: ATOM     15  C   UNL     1     139.475  69.316 224.798 -0.37 -0.00    +0.012 A  
DOCKED: ATOM     16  C   UNL     1     140.573  71.134 225.954 -0.55 -0.01    +0.071 A  
DOCKED: ATOM     17  C   UNL     1     140.006  69.842 225.980 -0.49 -0.00    +0.000 A  
DOCKED: ATOM     18  C   UNL     1     141.098  71.692 227.125 -0.75 -0.01    +0.029 A  
DOCKED: ATOM     19  C   UNL     1     139.978  69.119 227.181 -0.59 -0.00    +0.010 A  
DOCKED: ATOM     20  C   UNL     1     141.063  70.966 228.321 -0.65 -0.00    +0.002 A  
DOCKED: ATOM     21  C   UNL     1     140.506  69.684 228.348 -0.60 -0.00    +0.001 A  
DOCKED: ENDBRANCH  10  12
DOCKED: ENDBRANCH   9  10
DOCKED: ENDBRANCH   8   9
DOCKED: ENDBRANCH   1   8
DOCKED: TORSDOF 7
DOCKED: TER
DOCKED: ENDMDL
________________________________________________________________________________


    FINAL DOCKED STATE:
    ________________________


Run:   13 / 20
Time taken for this run:   0.040s

DOCKED: MODEL        13
DOCKED: USER    Run = 13
DOCKED: USER
DOCKED: USER    Estimated Free Energy of Binding    =  -6.10 kcal/mol  [=(1)+(2)+(3)-(4)]
DOCKED: USER
DOCKED: USER    (1) Final Intermolecular Energy     =  -8.19 kcal/mol
DOCKED: USER        vdW + Hbond + desolv Energy     =  -8.55 kcal/mol
DOCKED: USER        Electrostatic Energy            =  +0.36 kcal/mol
DOCKED: USER        Moving Ligand-Fixed Receptor    =  -8.19 kcal/mol
DOCKED: USER        Moving Ligand-Moving Receptor   =  +0.00 kcal/mol
DOCKED: USER    (2) Final Total Internal Energy     =  -0.28 kcal/mol
DOCKED: USER    (3) Torsional Free Energy           =  +2.09 kcal/mol
DOCKED: USER    (4) Unbound System's Energy         =  -0.28 kcal/mol
DOCKED: USER
DOCKED: USER
DOCKED: REMARK SMILES CC(C)C[N-]C(=O)C[N-]C(=O)c1ccc2ccccc2n1
DOCKED: REMARK SMILES IDX 6 1 7 2 5 3 4 4 2 5 1 6 3 7 8 8 9 9 10 10 11 11 12 12 13 13
DOCKED: REMARK SMILES IDX 21 14 14 15 20 16 15 17 19 18 16 19 18 20 17 21
DOCKED: REMARK H PARENT
DOCKED: USER                              x       y       z     vdW  Elec       q    Type
DOCKED: USER                           _______ _______ _______ _____ _____    ______ ____
DOCKED: ROOT
DOCKED: ATOM      1  C   UNL     1     140.261  75.971 221.558 -0.33 -0.01    +0.033 C  
DOCKED: ATOM      2  O   UNL     1     140.833  75.997 220.435 -0.10 +0.11    -0.322 OA 
DOCKED: ENDROOT
DOCKED: BRANCH   1   3
DOCKED: ATOM      3  N   UNL     1     140.345  77.102 222.431 -0.02 +0.18    -0.654 NA 
DOCKED: BRANCH   3   4
DOCKED: ATOM      4  C   UNL     1     141.290  78.191 222.218 -0.36 +0.05    -0.115 C  
DOCKED: BRANCH   4   5
DOCKED: ATOM      5  C   UNL     1     141.438  79.033 223.498 -0.58 +0.01    -0.035 C  
DOCKED: ATOM      6  C   UNL     1     140.117  79.741 223.820 -0.45 -0.00    +0.006 C  
DOCKED: ATOM      7  C   UNL     1     142.570  80.059 223.362 -0.67 -0.00    +0.006 C  
DOCKED: ENDBRANCH   4   5
DOCKED: ENDBRANCH   3   4
DOCKED: ENDBRANCH   1   3
DOCKED: BRANCH   1   8
DOCKED: ATOM      8  C   UNL     1     139.547  74.721 221.984 -0.25 +0.01    -0.061 C  
DOCKED: BRANCH   8   9
DOCKED: ATOM      9  N   UNL     1     140.475  73.636 222.297 -0.53 -0.01    -0.643 NA 
DOCKED: BRANCH   9  10
DOCKED: ATOM     10  C   UNL     1     140.217  72.222 222.323 -0.28 -0.01    +0.101 C  
DOCKED: ATOM     11  O   UNL     1     140.004  71.649 221.222 -0.08 +0.05    -0.313 OA 
DOCKED: BRANCH  10  12
DOCKED: ATOM     12  C   UNL     1     140.172  71.413 223.572 -0.35 -0.01    +0.088 A  
DOCKED: ATOM     13  C   UNL     1     139.524  70.164 223.589 -0.28 -0.01    +0.031 A  
DOCKED: ATOM     14  N   UNL     1     140.701  71.894 224.729 -0.26 +0.03    -0.246 NA 
DOCKED: ATOM     15  C   UNL     1     139.427  69.445 224.783 -0.37 -0.00    +0.012 A  
DOCKED: ATOM     16  C   UNL     1     140.620  71.223 225.907 -0.55 -0.01    +0.071 A  
DOCKED: ATOM     17  C   UNL     1     139.971  69.971 225.959 -0.50 -0.00    +0.000 A  
DOCKED: ATOM     18  C   UNL     1     141.159  71.781 227.072 -0.75 -0.00    +0.029 A  
DOCKED: ATOM     19  C   UNL     1     139.876  69.287 227.179 -0.57 -0.00    +0.010 A  
DOCKED: ATOM     20  C   UNL     1     141.057  71.094 228.287 -0.68 -0.00    +0.002 A  
DOCKED: ATOM     21  C   UNL     1     140.418  69.851 228.340 -0.59 -0.00    +0.001 A  
DOCKED: ENDBRANCH  10  12
DOCKED: ENDBRANCH   9  10
DOCKED: ENDBRANCH   8   9
DOCKED: ENDBRANCH   1   8
DOCKED: TORSDOF 7
DOCKED: TER
DOCKED: ENDMDL
________________________________________________________________________________


    FINAL DOCKED STATE:
    ________________________


Run:   14 / 20
Time taken for this run:   0.040s

DOCKED: MODEL        14
DOCKED: USER    Run = 14
DOCKED: USER
DOCKED: USER    Estimated Free Energy of Binding    =  -6.04 kcal/mol  [=(1)+(2)+(3)-(4)]
DOCKED: USER
DOCKED: USER    (1) Final Intermolecular Energy     =  -8.13 kcal/mol
DOCKED: USER        vdW + Hbond + desolv Energy     =  -8.58 kcal/mol
DOCKED: USER        Electrostatic Energy            =  +0.45 kcal/mol
DOCKED: USER        Moving Ligand-Fixed Receptor    =  -8.13 kcal/mol
DOCKED: USER        Moving Ligand-Moving Receptor   =  +0.00 kcal/mol
DOCKED: USER    (2) Final Total Internal Energy     =  -0.29 kcal/mol
DOCKED: USER    (3) Torsional Free Energy           =  +2.09 kcal/mol
DOCKED: USER    (4) Unbound System's Energy         =  -0.29 kcal/mol
DOCKED: USER
DOCKED: USER
DOCKED: REMARK SMILES CC(C)C[N-]C(=O)C[N-]C(=O)c1ccc2ccccc2n1
DOCKED: REMARK SMILES IDX 6 1 7 2 5 3 4 4 2 5 1 6 3 7 8 8 9 9 10 10 11 11 12 12 13 13
DOCKED: REMARK SMILES IDX 21 14 14 15 20 16 15 17 19 18 16 19 18 20 17 21
DOCKED: REMARK H PARENT
DOCKED: USER                              x       y       z     vdW  Elec       q    Type
DOCKED: USER                           _______ _______ _______ _____ _____    ______ ____
DOCKED: ROOT
DOCKED: ATOM      1  C   UNL     1     139.885  75.924 221.929 -0.34 -0.01    +0.033 C  
DOCKED: ATOM      2  O   UNL     1     138.759  76.412 222.217 -0.20 +0.07    -0.322 OA 
DOCKED: ENDROOT
DOCKED: BRANCH   1   3
DOCKED: ATOM      3  N   UNL     1     141.071  76.706 222.105 -0.02 +0.26    -0.654 NA 
DOCKED: BRANCH   3   4
DOCKED: ATOM      4  C   UNL     1     141.090  78.154 221.936 -0.35 +0.05    -0.115 C  
DOCKED: BRANCH   4   5
DOCKED: ATOM      5  C   UNL     1     141.438  78.846 223.266 -0.56 +0.01    -0.035 C  
DOCKED: ATOM      6  C   UNL     1     140.206  79.567 223.825 -0.45 -0.00    +0.006 C  
DOCKED: ATOM      7  C   UNL     1     142.599  79.835 223.092 -0.65 -0.00    +0.006 C  
DOCKED: ENDBRANCH   4   5
DOCKED: ENDBRANCH   3   4
DOCKED: ENDBRANCH   1   3
DOCKED: BRANCH   1   8
DOCKED: ATOM      8  C   UNL     1     139.955  74.540 221.351 -0.25 +0.01    -0.061 C  
DOCKED: BRANCH   8   9
DOCKED: ATOM      9  N   UNL     1     140.229  73.530 222.371 -0.55 +0.01    -0.643 NA 
DOCKED: BRANCH   9  10
DOCKED: ATOM     10  C   UNL     1     139.581  72.262 222.568 -0.26 -0.02    +0.101 C  
DOCKED: ATOM     11  O   UNL     1     138.754  71.889 221.694 -0.07 +0.07    -0.313 OA 
DOCKED: BRANCH  10  12
DOCKED: ATOM     12  C   UNL     1     139.821  71.387 223.748 -0.35 -0.02    +0.088 A  
DOCKED: ATOM     13  C   UNL     1     139.453  70.028 223.714 -0.28 -0.01    +0.031 A  
DOCKED: ATOM     14  N   UNL     1     140.342  71.897 224.896 -0.24 +0.04    -0.246 NA 
DOCKED: ATOM     15  C   UNL     1     139.620  69.232 224.850 -0.37 -0.00    +0.012 A  
DOCKED: ATOM     16  C   UNL     1     140.512  71.152 226.019 -0.55 -0.01    +0.071 A  
DOCKED: ATOM     17  C   UNL     1     140.147  69.789 226.019 -0.50 -0.00    +0.000 A  
DOCKED: ATOM     18  C   UNL     1     141.028  71.739 227.180 -0.76 -0.01    +0.029 A  
DOCKED: ATOM     19  C   UNL     1     140.310  69.026 227.184 -0.61 -0.00    +0.010 A  
DOCKED: ATOM     20  C   UNL     1     141.184  70.972 228.340 -0.61 -0.00    +0.002 A  
DOCKED: ATOM     21  C   UNL     1     140.827  69.620 228.342 -0.59 -0.00    +0.001 A  
DOCKED: ENDBRANCH  10  12
DOCKED: ENDBRANCH   9  10
DOCKED: ENDBRANCH   8   9
DOCKED: ENDBRANCH   1   8
DOCKED: TORSDOF 7
DOCKED: TER
DOCKED: ENDMDL
________________________________________________________________________________


    FINAL DOCKED STATE:
    ________________________


Run:   15 / 20
Time taken for this run:   0.040s

DOCKED: MODEL        15
DOCKED: USER    Run = 15
DOCKED: USER
DOCKED: USER    Estimated Free Energy of Binding    =  -6.00 kcal/mol  [=(1)+(2)+(3)-(4)]
DOCKED: USER
DOCKED: USER    (1) Final Intermolecular Energy     =  -8.09 kcal/mol
DOCKED: USER        vdW + Hbond + desolv Energy     =  -8.40 kcal/mol
DOCKED: USER        Electrostatic Energy            =  +0.32 kcal/mol
DOCKED: USER        Moving Ligand-Fixed Receptor    =  -8.09 kcal/mol
DOCKED: USER        Moving Ligand-Moving Receptor   =  +0.00 kcal/mol
DOCKED: USER    (2) Final Total Internal Energy     =  -0.30 kcal/mol
DOCKED: USER    (3) Torsional Free Energy           =  +2.09 kcal/mol
DOCKED: USER    (4) Unbound System's Energy         =  -0.30 kcal/mol
DOCKED: USER
DOCKED: USER
DOCKED: REMARK SMILES CC(C)C[N-]C(=O)C[N-]C(=O)c1ccc2ccccc2n1
DOCKED: REMARK SMILES IDX 6 1 7 2 5 3 4 4 2 5 1 6 3 7 8 8 9 9 10 10 11 11 12 12 13 13
DOCKED: REMARK SMILES IDX 21 14 14 15 20 16 15 17 19 18 16 19 18 20 17 21
DOCKED: REMARK H PARENT
DOCKED: USER                              x       y       z     vdW  Elec       q    Type
DOCKED: USER                           _______ _______ _______ _____ _____    ______ ____
DOCKED: ROOT
DOCKED: ATOM      1  C   UNL     1     140.000  71.786 223.193 -0.34 -0.01    +0.033 C  
DOCKED: ATOM      2  O   UNL     1     138.802  71.471 222.959 -0.14 +0.08    -0.322 OA 
DOCKED: ENDROOT
DOCKED: BRANCH   1   3
DOCKED: ATOM      3  N   UNL     1     140.693  71.198 224.298 -0.01 +0.08    -0.654 NA 
DOCKED: BRANCH   3   4
DOCKED: ATOM      4  C   UNL     1     140.028  70.852 225.549 -0.44 +0.02    -0.115 C  
DOCKED: BRANCH   4   5
DOCKED: ATOM      5  C   UNL     1     141.039  70.841 226.709 -0.63 +0.01    -0.035 C  
DOCKED: ATOM      6  C   UNL     1     140.690  69.727 227.703 -0.63 -0.00    +0.006 C  
DOCKED: ATOM      7  C   UNL     1     141.079  72.197 227.426 -0.81 -0.00    +0.006 C  
DOCKED: ENDBRANCH   4   5
DOCKED: ENDBRANCH   3   4
DOCKED: ENDBRANCH   1   3
DOCKED: BRANCH   1   8
DOCKED: ATOM      8  C   UNL     1     140.662  72.823 222.333 -0.24 +0.00    -0.061 C  
DOCKED: BRANCH   8   9
DOCKED: ATOM      9  N   UNL     1     139.938  74.093 222.345 -0.60 +0.03    -0.643 NA 
DOCKED: BRANCH   9  10
DOCKED: ATOM     10  C   UNL     1     140.228  75.293 221.607 -0.29 -0.02    +0.101 C  
DOCKED: ATOM     11  O   UNL     1     140.530  75.169 220.391 -0.08 +0.08    -0.313 OA 
DOCKED: BRANCH  10  12
DOCKED: ATOM     12  C   UNL     1     140.209  76.655 222.207 -0.35 -0.02    +0.088 A  
DOCKED: ATOM     13  C   UNL     1     138.987  77.270 222.540 -0.29 -0.01    +0.031 A  
DOCKED: ATOM     14  N   UNL     1     141.364  77.350 222.386 -0.15 +0.12    -0.246 NA 
DOCKED: ATOM     15  C   UNL     1     138.976  78.574 223.038 -0.32 -0.00    +0.012 A  
DOCKED: ATOM     16  C   UNL     1     141.388  78.622 222.864 -0.48 -0.03    +0.071 A  
DOCKED: ATOM     17  C   UNL     1     140.179  79.268 223.201 -0.44 -0.00    +0.000 A  
DOCKED: ATOM     18  C   UNL     1     142.605  79.298 223.002 -0.55 -0.01    +0.029 A  
DOCKED: ATOM     19  C   UNL     1     140.206  80.586 223.680 -0.42 -0.00    +0.010 A  
DOCKED: ATOM     20  C   UNL     1     142.624  80.614 223.476 -0.67 -0.00    +0.002 A  
DOCKED: ATOM     21  C   UNL     1     141.428  81.255 223.815 -0.52 -0.00    +0.001 A  
DOCKED: ENDBRANCH  10  12
DOCKED: ENDBRANCH   9  10
DOCKED: ENDBRANCH   8   9
DOCKED: ENDBRANCH   1   8
DOCKED: TORSDOF 7
DOCKED: TER
DOCKED: ENDMDL
________________________________________________________________________________


    FINAL DOCKED STATE:
    ________________________


Run:   16 / 20
Time taken for this run:   0.040s

DOCKED: MODEL        16
DOCKED: USER    Run = 16
DOCKED: USER
DOCKED: USER    Estimated Free Energy of Binding    =  -6.05 kcal/mol  [=(1)+(2)+(3)-(4)]
DOCKED: USER
DOCKED: USER    (1) Final Intermolecular Energy     =  -8.14 kcal/mol
DOCKED: USER        vdW + Hbond + desolv Energy     =  -8.45 kcal/mol
DOCKED: USER        Electrostatic Energy            =  +0.32 kcal/mol
DOCKED: USER        Moving Ligand-Fixed Receptor    =  -8.14 kcal/mol
DOCKED: USER        Moving Ligand-Moving Receptor   =  +0.00 kcal/mol
DOCKED: USER    (2) Final Total Internal Energy     =  -0.33 kcal/mol
DOCKED: USER    (3) Torsional Free Energy           =  +2.09 kcal/mol
DOCKED: USER    (4) Unbound System's Energy         =  -0.33 kcal/mol
DOCKED: USER
DOCKED: USER
DOCKED: REMARK SMILES CC(C)C[N-]C(=O)C[N-]C(=O)c1ccc2ccccc2n1
DOCKED: REMARK SMILES IDX 6 1 7 2 5 3 4 4 2 5 1 6 3 7 8 8 9 9 10 10 11 11 12 12 13 13
DOCKED: REMARK SMILES IDX 21 14 14 15 20 16 15 17 19 18 16 19 18 20 17 21
DOCKED: REMARK H PARENT
DOCKED: USER                              x       y       z     vdW  Elec       q    Type
DOCKED: USER                           _______ _______ _______ _____ _____    ______ ____
DOCKED: ROOT
DOCKED: ATOM      1  C   UNL     1     139.995  76.055 221.983 -0.35 -0.01    +0.033 C  
DOCKED: ATOM      2  O   UNL     1     141.190  76.190 221.604 -0.25 +0.13    -0.322 OA 
DOCKED: ENDROOT
DOCKED: BRANCH   1   3
DOCKED: ATOM      3  N   UNL     1     139.265  77.185 222.471 -0.01 +0.13    -0.654 NA 
DOCKED: BRANCH   3   4
DOCKED: ATOM      4  C   UNL     1     139.676  78.558 222.210 -0.26 +0.03    -0.115 C  
DOCKED: BRANCH   4   5
DOCKED: ATOM      5  C   UNL     1     140.364  79.158 223.448 -0.45 +0.01    -0.035 C  
DOCKED: ATOM      6  C   UNL     1     140.369  80.689 223.362 -0.45 -0.00    +0.006 C  
DOCKED: ATOM      7  C   UNL     1     141.798  78.631 223.600 -0.59 -0.00    +0.006 C  
DOCKED: ENDBRANCH   4   5
DOCKED: ENDBRANCH   3   4
DOCKED: ENDBRANCH   1   3
DOCKED: BRANCH   1   8
DOCKED: ATOM      8  C   UNL     1     139.376  74.686 221.967 -0.25 +0.01    -0.061 C  
DOCKED: BRANCH   8   9
DOCKED: ATOM      9  N   UNL     1     140.334  73.645 222.335 -0.57 -0.01    -0.643 NA 
DOCKED: BRANCH   9  10
DOCKED: ATOM     10  C   UNL     1     140.140  72.220 222.349 -0.28 -0.01    +0.101 C  
DOCKED: ATOM     11  O   UNL     1     139.946  71.648 221.244 -0.08 +0.05    -0.313 OA 
DOCKED: BRANCH  10  12
DOCKED: ATOM     12  C   UNL     1     140.139  71.400 223.591 -0.35 -0.01    +0.088 A  
DOCKED: ATOM     13  C   UNL     1     139.548  70.122 223.601 -0.28 -0.01    +0.031 A  
DOCKED: ATOM     14  N   UNL     1     140.654  71.894 224.749 -0.26 +0.03    -0.246 NA 
DOCKED: ATOM     15  C   UNL     1     139.492  69.389 224.788 -0.37 -0.00    +0.012 A  
DOCKED: ATOM     16  C   UNL     1     140.611  71.209 225.922 -0.55 -0.01    +0.071 A  
DOCKED: ATOM     17  C   UNL     1     140.019  69.928 225.966 -0.50 -0.00    +0.000 A  
DOCKED: ATOM     18  C   UNL     1     141.132  71.779 227.088 -0.75 -0.00    +0.029 A  
DOCKED: ATOM     19  C   UNL     1     139.963  69.230 227.180 -0.58 -0.00    +0.010 A  
DOCKED: ATOM     20  C   UNL     1     141.069  71.078 228.297 -0.67 -0.00    +0.002 A  
DOCKED: ATOM     21  C   UNL     1     140.486  69.807 228.343 -0.59 -0.00    +0.001 A  
DOCKED: ENDBRANCH  10  12
DOCKED: ENDBRANCH   9  10
DOCKED: ENDBRANCH   8   9
DOCKED: ENDBRANCH   1   8
DOCKED: TORSDOF 7
DOCKED: TER
DOCKED: ENDMDL
________________________________________________________________________________


    FINAL DOCKED STATE:
    ________________________


Run:   17 / 20
Time taken for this run:   0.040s

DOCKED: MODEL        17
DOCKED: USER    Run = 17
DOCKED: USER
DOCKED: USER    Estimated Free Energy of Binding    =  -5.99 kcal/mol  [=(1)+(2)+(3)-(4)]
DOCKED: USER
DOCKED: USER    (1) Final Intermolecular Energy     =  -8.08 kcal/mol
DOCKED: USER        vdW + Hbond + desolv Energy     =  -8.37 kcal/mol
DOCKED: USER        Electrostatic Energy            =  +0.29 kcal/mol
DOCKED: USER        Moving Ligand-Fixed Receptor    =  -8.08 kcal/mol
DOCKED: USER        Moving Ligand-Moving Receptor   =  +0.00 kcal/mol
DOCKED: USER    (2) Final Total Internal Energy     =  -0.43 kcal/mol
DOCKED: USER    (3) Torsional Free Energy           =  +2.09 kcal/mol
DOCKED: USER    (4) Unbound System's Energy         =  -0.43 kcal/mol
DOCKED: USER
DOCKED: USER
DOCKED: REMARK SMILES CC(C)C[N-]C(=O)C[N-]C(=O)c1ccc2ccccc2n1
DOCKED: REMARK SMILES IDX 6 1 7 2 5 3 4 4 2 5 1 6 3 7 8 8 9 9 10 10 11 11 12 12 13 13
DOCKED: REMARK SMILES IDX 21 14 14 15 20 16 15 17 19 18 16 19 18 20 17 21
DOCKED: REMARK H PARENT
DOCKED: USER                              x       y       z     vdW  Elec       q    Type
DOCKED: USER                           _______ _______ _______ _____ _____    ______ ____
DOCKED: ROOT
DOCKED: ATOM      1  C   UNL     1     142.707  72.207 220.037 -0.20 -0.00    +0.033 C  
DOCKED: ATOM      2  O   UNL     1     143.194  71.177 220.577 -0.13 +0.03    -0.322 OA 
DOCKED: ENDROOT
DOCKED: BRANCH   1   3
DOCKED: ATOM      3  N   UNL     1     143.568  73.270 219.616 +0.06 +0.12    -0.654 NA 
DOCKED: BRANCH   3   4
DOCKED: ATOM      4  C   UNL     1     144.374  74.045 220.550 -0.39 +0.04    -0.115 C  
DOCKED: BRANCH   4   5
DOCKED: ATOM      5  C   UNL     1     145.839  73.574 220.516 -0.62 +0.00    -0.035 C  
DOCKED: ATOM      6  C   UNL     1     145.953  72.261 219.732 -0.37 +0.00    +0.006 C  
DOCKED: ATOM      7  C   UNL     1     146.401  73.396 221.933 -0.69 -0.00    +0.006 C  
DOCKED: ENDBRANCH   4   5
DOCKED: ENDBRANCH   3   4
DOCKED: ENDBRANCH   1   3
DOCKED: BRANCH   1   8
DOCKED: ATOM      8  C   UNL     1     141.217  72.322 219.897 -0.11 +0.01    -0.061 C  
DOCKED: BRANCH   8   9
DOCKED: ATOM      9  N   UNL     1     140.510  71.700 221.015 +0.02 +0.09    -0.643 NA 
DOCKED: BRANCH   9  10
DOCKED: ATOM     10  C   UNL     1     140.243  72.247 222.318 -0.28 -0.01    +0.101 C  
DOCKED: ATOM     11  O   UNL     1     140.059  73.490 222.400 -0.78 +0.02    -0.313 OA 
DOCKED: BRANCH  10  12
DOCKED: ATOM     12  C   UNL     1     140.194  71.431 223.562 -0.35 -0.01    +0.088 A  
DOCKED: ATOM     13  C   UNL     1     139.558  70.175 223.566 -0.28 -0.01    +0.031 A  
DOCKED: ATOM     14  N   UNL     1     140.709  71.909 224.726 -0.24 +0.03    -0.246 NA 
DOCKED: ATOM     15  C   UNL     1     139.458  69.448 224.754 -0.37 -0.00    +0.012 A  
DOCKED: ATOM     16  C   UNL     1     140.624  71.230 225.899 -0.55 -0.01    +0.071 A  
DOCKED: ATOM     17  C   UNL     1     139.987  69.971 225.938 -0.49 -0.00    +0.000 A  
DOCKED: ATOM     18  C   UNL     1     141.149  71.785 227.072 -0.75 -0.00    +0.029 A  
DOCKED: ATOM     19  C   UNL     1     139.887  69.279 227.153 -0.57 -0.00    +0.010 A  
DOCKED: ATOM     20  C   UNL     1     141.043  71.090 228.282 -0.68 -0.00    +0.002 A  
DOCKED: ATOM     21  C   UNL     1     140.415  69.841 228.322 -0.60 -0.00    +0.001 A  
DOCKED: ENDBRANCH  10  12
DOCKED: ENDBRANCH   9  10
DOCKED: ENDBRANCH   8   9
DOCKED: ENDBRANCH   1   8
DOCKED: TORSDOF 7
DOCKED: TER
DOCKED: ENDMDL
________________________________________________________________________________


    FINAL DOCKED STATE:
    ________________________


Run:   18 / 20
Time taken for this run:   0.040s

DOCKED: MODEL        18
DOCKED: USER    Run = 18
DOCKED: USER
DOCKED: USER    Estimated Free Energy of Binding    =  -6.11 kcal/mol  [=(1)+(2)+(3)-(4)]
DOCKED: USER
DOCKED: USER    (1) Final Intermolecular Energy     =  -8.20 kcal/mol
DOCKED: USER        vdW + Hbond + desolv Energy     =  -8.61 kcal/mol
DOCKED: USER        Electrostatic Energy            =  +0.41 kcal/mol
DOCKED: USER        Moving Ligand-Fixed Receptor    =  -8.20 kcal/mol
DOCKED: USER        Moving Ligand-Moving Receptor   =  +0.00 kcal/mol
DOCKED: USER    (2) Final Total Internal Energy     =  -0.27 kcal/mol
DOCKED: USER    (3) Torsional Free Energy           =  +2.09 kcal/mol
DOCKED: USER    (4) Unbound System's Energy         =  -0.27 kcal/mol
DOCKED: USER
DOCKED: USER
DOCKED: REMARK SMILES CC(C)C[N-]C(=O)C[N-]C(=O)c1ccc2ccccc2n1
DOCKED: REMARK SMILES IDX 6 1 7 2 5 3 4 4 2 5 1 6 3 7 8 8 9 9 10 10 11 11 12 12 13 13
DOCKED: REMARK SMILES IDX 21 14 14 15 20 16 15 17 19 18 16 19 18 20 17 21
DOCKED: REMARK H PARENT
DOCKED: USER                              x       y       z     vdW  Elec       q    Type
DOCKED: USER                           _______ _______ _______ _____ _____    ______ ____
DOCKED: ROOT
DOCKED: ATOM      1  C   UNL     1     139.921  76.204 222.044 -0.35 -0.01    +0.033 C  
DOCKED: ATOM      2  O   UNL     1     138.699  76.490 221.927 -0.16 +0.07    -0.322 OA 
DOCKED: ENDROOT
DOCKED: BRANCH   1   3
DOCKED: ATOM      3  N   UNL     1     140.831  77.159 222.598 -0.02 +0.22    -0.654 NA 
DOCKED: BRANCH   3   4
DOCKED: ATOM      4  C   UNL     1     141.294  78.325 221.856 -0.34 +0.05    -0.115 C  
DOCKED: BRANCH   4   5
DOCKED: ATOM      5  C   UNL     1     142.207  79.195 222.737 -0.55 +0.02    -0.035 C  
DOCKED: ATOM      6  C   UNL     1     141.824  79.038 224.213 -0.53 -0.00    +0.006 C  
DOCKED: ATOM      7  C   UNL     1     142.137  80.672 222.326 -0.55 -0.00    +0.006 C  
DOCKED: ENDBRANCH   4   5
DOCKED: ENDBRANCH   3   4
DOCKED: ENDBRANCH   1   3
DOCKED: BRANCH   1   8
DOCKED: ATOM      8  C   UNL     1     140.410  74.875 221.542 -0.30 +0.01    -0.061 C  
DOCKED: BRANCH   8   9
DOCKED: ATOM      9  N   UNL     1     139.944  73.768 222.374 -0.60 +0.04    -0.643 NA 
DOCKED: BRANCH   9  10
DOCKED: ATOM     10  C   UNL     1     140.430  72.415 222.413 -0.27 -0.01    +0.101 C  
DOCKED: ATOM     11  O   UNL     1     140.994  71.970 221.378 -0.14 +0.04    -0.313 OA 
DOCKED: BRANCH  10  12
DOCKED: ATOM     12  C   UNL     1     140.285  71.519 223.593 -0.35 -0.01    +0.088 A  
DOCKED: ATOM     13  C   UNL     1     139.593  70.298 223.479 -0.28 -0.01    +0.031 A  
DOCKED: ATOM     14  N   UNL     1     140.765  71.891 224.809 -0.24 +0.03    -0.246 NA 
DOCKED: ATOM     15  C   UNL     1     139.404  69.497 224.608 -0.35 -0.00    +0.012 A  
DOCKED: ATOM     16  C   UNL     1     140.594  71.138 225.927 -0.55 -0.01    +0.071 A  
DOCKED: ATOM     17  C   UNL     1     139.899  69.912 225.848 -0.48 -0.00    +0.000 A  
DOCKED: ATOM     18  C   UNL     1     141.086  71.585 227.158 -0.75 -0.00    +0.029 A  
DOCKED: ATOM     19  C   UNL     1     139.711  69.144 227.006 -0.56 -0.00    +0.010 A  
DOCKED: ATOM     20  C   UNL     1     140.891  70.816 228.310 -0.62 -0.00    +0.002 A  
DOCKED: ATOM     21  C   UNL     1     140.206  69.598 228.233 -0.62 -0.00    +0.001 A  
DOCKED: ENDBRANCH  10  12
DOCKED: ENDBRANCH   9  10
DOCKED: ENDBRANCH   8   9
DOCKED: ENDBRANCH   1   8
DOCKED: TORSDOF 7
DOCKED: TER
DOCKED: ENDMDL
________________________________________________________________________________


    FINAL DOCKED STATE:
    ________________________


Run:   19 / 20
Time taken for this run:   0.040s

DOCKED: MODEL        19
DOCKED: USER    Run = 19
DOCKED: USER
DOCKED: USER    Estimated Free Energy of Binding    =  -6.03 kcal/mol  [=(1)+(2)+(3)-(4)]
DOCKED: USER
DOCKED: USER    (1) Final Intermolecular Energy     =  -8.12 kcal/mol
DOCKED: USER        vdW + Hbond + desolv Energy     =  -8.52 kcal/mol
DOCKED: USER        Electrostatic Energy            =  +0.40 kcal/mol
DOCKED: USER        Moving Ligand-Fixed Receptor    =  -8.12 kcal/mol
DOCKED: USER        Moving Ligand-Moving Receptor   =  +0.00 kcal/mol
DOCKED: USER    (2) Final Total Internal Energy     =  -0.36 kcal/mol
DOCKED: USER    (3) Torsional Free Energy           =  +2.09 kcal/mol
DOCKED: USER    (4) Unbound System's Energy         =  -0.36 kcal/mol
DOCKED: USER
DOCKED: USER
DOCKED: REMARK SMILES CC(C)C[N-]C(=O)C[N-]C(=O)c1ccc2ccccc2n1
DOCKED: REMARK SMILES IDX 6 1 7 2 5 3 4 4 2 5 1 6 3 7 8 8 9 9 10 10 11 11 12 12 13 13
DOCKED: REMARK SMILES IDX 21 14 14 15 20 16 15 17 19 18 16 19 18 20 17 21
DOCKED: REMARK H PARENT
DOCKED: USER                              x       y       z     vdW  Elec       q    Type
DOCKED: USER                           _______ _______ _______ _____ _____    ______ ____
DOCKED: ROOT
DOCKED: ATOM      1  C   UNL     1     139.502  76.196 222.272 -0.33 -0.01    +0.033 C  
DOCKED: ATOM      2  O   UNL     1     138.461  75.996 222.953 -0.22 +0.08    -0.322 OA 
DOCKED: ENDROOT
DOCKED: BRANCH   1   3
DOCKED: ATOM      3  N   UNL     1     139.792  77.506 221.774 +0.03 +0.17    -0.654 NA 
DOCKED: BRANCH   3   4
DOCKED: ATOM      4  C   UNL     1     141.131  78.082 221.810 -0.33 +0.05    -0.115 C  
DOCKED: BRANCH   4   5
DOCKED: ATOM      5  C   UNL     1     141.406  78.718 223.184 -0.55 +0.01    -0.035 C  
DOCKED: ATOM      6  C   UNL     1     140.143  79.411 223.708 -0.46 -0.00    +0.006 C  
DOCKED: ATOM      7  C   UNL     1     142.569  79.717 223.113 -0.64 -0.00    +0.006 C  
DOCKED: ENDBRANCH   4   5
DOCKED: ENDBRANCH   3   4
DOCKED: ENDBRANCH   1   3
DOCKED: BRANCH   1   8
DOCKED: ATOM      8  C   UNL     1     140.394  75.033 221.946 -0.20 +0.01    -0.061 C  
DOCKED: BRANCH   8   9
DOCKED: ATOM      9  N   UNL     1     139.791  73.755 222.318 -0.60 +0.07    -0.643 NA 
DOCKED: BRANCH   9  10
DOCKED: ATOM     10  C   UNL     1     140.425  72.470 222.437 -0.27 -0.01    +0.101 C  
DOCKED: ATOM     11  O   UNL     1     141.162  72.095 221.487 -0.16 +0.03    -0.313 OA 
DOCKED: BRANCH  10  12
DOCKED: ATOM     12  C   UNL     1     140.241  71.564 223.604 -0.35 -0.01    +0.088 A  
DOCKED: ATOM     13  C   UNL     1     139.503  70.373 223.472 -0.29 -0.01    +0.031 A  
DOCKED: ATOM     14  N   UNL     1     140.731  71.901 224.827 -0.25 +0.03    -0.246 NA 
DOCKED: ATOM     15  C   UNL     1     139.279  69.564 224.588 -0.35 -0.00    +0.012 A  
DOCKED: ATOM     16  C   UNL     1     140.527  71.139 225.933 -0.55 -0.01    +0.071 A  
DOCKED: ATOM     17  C   UNL     1     139.785  69.942 225.835 -0.47 -0.00    +0.000 A  
DOCKED: ATOM     18  C   UNL     1     141.032  71.550 227.172 -0.74 -0.00    +0.029 A  
DOCKED: ATOM     19  C   UNL     1     139.564  69.166 226.982 -0.55 -0.00    +0.010 A  
DOCKED: ATOM     20  C   UNL     1     140.803  70.772 228.312 -0.61 -0.00    +0.002 A  
DOCKED: ATOM     21  C   UNL     1     140.072  69.583 228.217 -0.63 -0.00    +0.001 A  
DOCKED: ENDBRANCH  10  12
DOCKED: ENDBRANCH   9  10
DOCKED: ENDBRANCH   8   9
DOCKED: ENDBRANCH   1   8
DOCKED: TORSDOF 7
DOCKED: TER
DOCKED: ENDMDL
________________________________________________________________________________


    FINAL DOCKED STATE:
    ________________________


Run:   20 / 20
Time taken for this run:   0.040s

DOCKED: MODEL        20
DOCKED: USER    Run = 20
DOCKED: USER
DOCKED: USER    Estimated Free Energy of Binding    =  -5.84 kcal/mol  [=(1)+(2)+(3)-(4)]
DOCKED: USER
DOCKED: USER    (1) Final Intermolecular Energy     =  -7.93 kcal/mol
DOCKED: USER        vdW + Hbond + desolv Energy     =  -8.07 kcal/mol
DOCKED: USER        Electrostatic Energy            =  +0.14 kcal/mol
DOCKED: USER        Moving Ligand-Fixed Receptor    =  -7.93 kcal/mol
DOCKED: USER        Moving Ligand-Moving Receptor   =  +0.00 kcal/mol
DOCKED: USER    (2) Final Total Internal Energy     =  -0.68 kcal/mol
DOCKED: USER    (3) Torsional Free Energy           =  +2.09 kcal/mol
DOCKED: USER    (4) Unbound System's Energy         =  -0.68 kcal/mol
DOCKED: USER
DOCKED: USER
DOCKED: REMARK SMILES CC(C)C[N-]C(=O)C[N-]C(=O)c1ccc2ccccc2n1
DOCKED: REMARK SMILES IDX 6 1 7 2 5 3 4 4 2 5 1 6 3 7 8 8 9 9 10 10 11 11 12 12 13 13
DOCKED: REMARK SMILES IDX 21 14 14 15 20 16 15 17 19 18 16 19 18 20 17 21
DOCKED: REMARK H PARENT
DOCKED: USER                              x       y       z     vdW  Elec       q    Type
DOCKED: USER                           _______ _______ _______ _____ _____    ______ ____
DOCKED: ROOT
DOCKED: ATOM      1  C   UNL     1     135.561  69.321 224.447 -0.21 -0.00    +0.033 C  
DOCKED: ATOM      2  O   UNL     1     135.079  68.193 224.153 -0.61 -0.03    -0.322 OA 
DOCKED: ENDROOT
DOCKED: BRANCH   1   3
DOCKED: ATOM      3  N   UNL     1     135.263  69.920 225.711 +0.06 +0.03    -0.654 NA 
DOCKED: BRANCH   3   4
DOCKED: ATOM      4  C   UNL     1     133.903  70.229 226.135 -0.27 +0.01    -0.115 C  
DOCKED: BRANCH   4   5
DOCKED: ATOM      5  C   UNL     1     133.832  71.649 226.721 -0.40 +0.00    -0.035 C  
DOCKED: ATOM      6  C   UNL     1     132.411  71.947 227.215 -0.40 -0.00    +0.006 C  
DOCKED: ATOM      7  C   UNL     1     134.266  72.700 225.690 -0.28 -0.00    +0.006 C  
DOCKED: ENDBRANCH   4   5
DOCKED: ENDBRANCH   3   4
DOCKED: ENDBRANCH   1   3
DOCKED: BRANCH   1   8
DOCKED: ATOM      8  C   UNL     1     136.398  70.042 223.430 -0.16 +0.01    -0.061 C  
DOCKED: BRANCH   8   9
DOCKED: ATOM      9  N   UNL     1     137.432  69.181 222.858 +0.04 +0.09    -0.643 NA 
DOCKED: BRANCH   9  10
DOCKED: ATOM     10  C   UNL     1     138.411  68.384 223.547 -0.23 -0.01    +0.101 C  
DOCKED: ATOM     11  O   UNL     1     138.671  67.246 223.075 -0.26 +0.04    -0.313 OA 
DOCKED: BRANCH  10  12
DOCKED: ATOM     12  C   UNL     1     139.109  68.823 224.786 -0.34 -0.01    +0.088 A  
DOCKED: ATOM     13  C   UNL     1     139.142  67.989 225.919 -0.51 -0.00    +0.031 A  
DOCKED: ATOM     14  N   UNL     1     139.673  70.059 224.864 -0.21 +0.04    -0.246 NA 
DOCKED: ATOM     15  C   UNL     1     139.741  68.437 227.099 -0.61 -0.00    +0.012 A  
DOCKED: ATOM     16  C   UNL     1     140.258  70.527 225.997 -0.50 -0.01    +0.071 A  
DOCKED: ATOM     17  C   UNL     1     140.302  69.717 227.152 -0.58 -0.00    +0.000 A  
DOCKED: ATOM     18  C   UNL     1     140.797  71.818 226.027 -0.56 -0.00    +0.029 A  
DOCKED: ATOM     19  C   UNL     1     140.893  70.209 228.324 -0.56 -0.00    +0.010 A  
DOCKED: ATOM     20  C   UNL     1     141.382  72.304 227.201 -0.80 -0.00    +0.002 A  
DOCKED: ATOM     21  C   UNL     1     141.431  71.502 228.346 -0.67 -0.00    +0.001 A  
DOCKED: ENDBRANCH  10  12
DOCKED: ENDBRANCH   9  10
DOCKED: ENDBRANCH   8   9
DOCKED: ENDBRANCH   1   8
DOCKED: TORSDOF 7
DOCKED: TER
DOCKED: ENDMDL
________________________________________________________________________________


    CLUSTERING HISTOGRAM
    ____________________


________________________________________________________________________________
     |           |     |           |     |
Clus | Lowest    | Run | Mean      | Num | Histogram
-ter | Binding   |     | Binding   | in  |
Rank | Energy    |     | Energy    | Clus|    5    10   15   20   25   30   35
_____|___________|_____|___________|_____|____:____|____:____|____:____|____:___
   1 |     -6.19 |   9 |     -6.08 |  11 |###########
   2 |     -6.04 |   5 |     -5.92 |   4 |####
   3 |     -6.02 |  10 |     -6.01 |   3 |###
   4 |     -5.84 |  20 |     -5.49 |   2 |##
_____|___________|_____|___________|_____|______________________________________


    RMSD TABLE
    __________


_______________________________________________________________________
     |      |      |           |         |                 |
Rank | Sub- | Run  | Binding   | Cluster | Reference       | Grep
     | Rank |      | Energy    | RMSD    | RMSD            | Pattern
_____|______|______|___________|_________|_________________|___________
   1      1      9       -6.19      0.00    273.89           RANKING
   1      2      3       -6.16      0.75    273.93           RANKING
   1      3      7       -6.12      0.61    273.96           RANKING
   1      4     18       -6.11      0.64    273.99           RANKING
   1      5      4       -6.10      0.76    273.91           RANKING
   1      6     13       -6.10      0.84    273.95           RANKING
   1      7     16       -6.05      0.92    273.90           RANKING
   1      8     14       -6.04      0.63    273.93           RANKING
   1      9     19       -6.03      0.55    273.92           RANKING
   1     10     12       -5.99      0.74    273.76           RANKING
   1     11      8       -5.95      0.47    273.75           RANKING
   2      1      5       -6.04      0.00    273.64           RANKING
   2      2     11       -6.00      0.94    273.48           RANKING
   2      3     17       -5.99      0.95    273.48           RANKING
   2      4      6       -5.65      1.14    273.19           RANKING
   3      1     10       -6.02      0.00    274.15           RANKING
   3      2      1       -6.01      0.31    274.14           RANKING
   3      3     15       -6.00      0.34    274.10           RANKING
   4      1     20       -5.84      0.00    272.96           RANKING
   4      2      2       -5.15      1.54    271.90           RANKING

Run time 0.776 sec
Idle time 0.000 sec
