AutoDock-GPU version: v1.6

**********************************************************
**    AutoDock-GPU AUTODOCKTOOLS-COMPATIBLE DLG FILE    **
**********************************************************


    DOCKING PARAMETERS
    ________________________


Ligand file:                               /home/a/REINVENT4/ReinventStudies/pleaseWork/justmol2mol_4_Compounds_ontop/graph-dock-8u2o5u/graph-DockGPU/node-autodockgpu/inputs/OHIKAIAOMOXJIK-TXAKULMSNA-M.pdbqt
Grid fld file:                             /home/a/REINVENT4/ReinventStudies/mols/Rad51/maps/rad51_receptor.maps.fld

Random seed:                               42
Number of runs:                            20
Number of energy evaluations:              2040163
Number of generations:                     42000
Size of population:                        150
Rate of crossover:                         80.000000%
Tournament selection probability limit:    60.000000%
Rate of mutation:                          2.000000%
Maximal allowed delta movement:            +/- 6.000000A
Maximal allowed delta angle:               +/- 90.000000

Rate of local search:                      100.000000%
Maximal number of local search iterations: 300
Rho lower bound:                           0.010000
Spread of local search delta movement:     2.000000A
Spread of local search delta angle:        74.999999
Limit of consecutive successes/failures:   4

Handle symmetry during clustering:         YES
RMSD tolerance:                            2.000000A

Program call in command line was:          /home/a/REINVENT4/ReinventStudies/adgpu-v1.6_linux_x64_cuda12_128wi --filelist batch.txt --heuristics 1 --nrun 20 --psize 150 --lsit 300 --seed 42 --heurmax 12000000 


    GRID PARAMETERS
    ________________________


Receptor name:                             rad51_receptor
Number of grid points (x, y, z):           53, 53, 53
Grid center (x, y, z):                     139.950000, 75.640000, 221.970000A
Grid size (x, y, z):                       19.500000, 19.500000, 19.500000A
Grid spacing:                              0.375000A


    LIGAND PARAMETERS
    ________________________


Ligand name:                               /home/a/REINVENT4/ReinventStudies/pleaseWork/justmol2mol_4_Compounds_ontop/graph-dock-8u2o5u/graph-DockGPU/node-autodockgpu/inputs/OHIKAIAOMOXJIK-TXAKULMSNA-M
Number of atoms:                           27
Number of rotatable bonds:                 9
Number of atom types:                      5


    DUMMY DATA (only for ADT-compatibility)
    ________________________


DPF> outlev 1
DPF> ga_run 20
DPF> fld /home/a/REINVENT4/ReinventStudies/mols/Rad51/maps/rad51_receptor.maps.fld
DPF> move /home/a/REINVENT4/ReinventStudies/pleaseWork/justmol2mol_4_Compounds_ontop/graph-dock-8u2o5u/graph-DockGPU/node-autodockgpu/inputs/OHIKAIAOMOXJIK-TXAKULMSNA-M.pdbqt


    COUNTER STATES
    ________________________


Number of energy evaluations performed:    1204107
Number of generations used:                60


    INPUT LIGAND PDBQT FILE:
    ________________________


INPUT-LIGAND-PDBQT: REMARK SMILES N#Cc1ccccc1C[N-]C(=O)C/N=C(\O)c1ccc2ccccc2n1
INPUT-LIGAND-PDBQT: REMARK SMILES IDX 11 1 12 2 13 3 14 4 15 5 16 6 17 8 26 9 18 10 25 11 19 12
INPUT-LIGAND-PDBQT: REMARK SMILES IDX 24 13 20 14 23 15 21 16 22 17 10 18 9 19 8 20 7 21 3 22 6 23
INPUT-LIGAND-PDBQT: REMARK SMILES IDX 4 24 5 25 2 26 1 27
INPUT-LIGAND-PDBQT: REMARK H PARENT 16 7
INPUT-LIGAND-PDBQT: ROOT
INPUT-LIGAND-PDBQT: ATOM      1  C   UNL     1       4.071   1.112  -2.132  1.00  0.00     0.073 C 
INPUT-LIGAND-PDBQT: ATOM      2  O   UNL     1       4.778   0.140  -2.506  1.00  0.00    -0.318 OA
INPUT-LIGAND-PDBQT: ENDROOT
INPUT-LIGAND-PDBQT: BRANCH   1   3
INPUT-LIGAND-PDBQT: ATOM      3  C   UNL     1       3.000   1.632  -3.053  1.00  0.00     0.201 C 
INPUT-LIGAND-PDBQT: BRANCH   3   4
INPUT-LIGAND-PDBQT: ATOM      4  N   UNL     1       1.665   1.341  -2.536  1.00  0.00    -0.244 NA
INPUT-LIGAND-PDBQT: BRANCH   4   5
INPUT-LIGAND-PDBQT: ATOM      5  C   UNL     1       1.113   0.164  -2.433  1.00  0.00     0.233 C 
INPUT-LIGAND-PDBQT: BRANCH   5   6
INPUT-LIGAND-PDBQT: ATOM      6  O   UNL     1       1.769  -0.998  -2.846  1.00  0.00    -0.492 OA
INPUT-LIGAND-PDBQT: ATOM      7  H   UNL     1       2.655  -0.995  -3.331  1.00  0.00     0.295 HD
INPUT-LIGAND-PDBQT: ENDBRANCH   5   6
INPUT-LIGAND-PDBQT: BRANCH   5   8
INPUT-LIGAND-PDBQT: ATOM      8  C   UNL     1      -0.239   0.039  -1.860  1.00  0.00     0.125 A 
INPUT-LIGAND-PDBQT: ATOM      9  N   UNL     1      -0.646  -1.168  -1.376  1.00  0.00    -0.243 NA
INPUT-LIGAND-PDBQT: ATOM     10  C   UNL     1      -1.113   1.139  -1.800  1.00  0.00     0.035 A 
INPUT-LIGAND-PDBQT: ATOM     11  C   UNL     1      -1.872  -1.345  -0.814  1.00  0.00     0.071 A 
INPUT-LIGAND-PDBQT: ATOM     12  C   UNL     1      -2.378   0.987  -1.230  1.00  0.00     0.013 A 
INPUT-LIGAND-PDBQT: ATOM     13  C   UNL     1      -2.243  -2.599  -0.317  1.00  0.00     0.029 A 
INPUT-LIGAND-PDBQT: ATOM     14  C   UNL     1      -2.770  -0.258  -0.725  1.00  0.00     0.000 A 
INPUT-LIGAND-PDBQT: ATOM     15  C   UNL     1      -3.500  -2.773   0.273  1.00  0.00     0.002 A 
INPUT-LIGAND-PDBQT: ATOM     16  C   UNL     1      -4.030  -0.442  -0.135  1.00  0.00     0.010 A 
INPUT-LIGAND-PDBQT: ATOM     17  C   UNL     1      -4.390  -1.698   0.364  1.00  0.00     0.001 A 
INPUT-LIGAND-PDBQT: ENDBRANCH   5   8
INPUT-LIGAND-PDBQT: ENDBRANCH   4   5
INPUT-LIGAND-PDBQT: ENDBRANCH   3   4
INPUT-LIGAND-PDBQT: ENDBRANCH   1   3
INPUT-LIGAND-PDBQT: BRANCH   1  18
INPUT-LIGAND-PDBQT: ATOM     18  N   UNL     1       4.334   1.694  -0.848  1.00  0.00    -0.648 NA
INPUT-LIGAND-PDBQT: BRANCH  18  19
INPUT-LIGAND-PDBQT: ATOM     19  C   UNL     1       3.624   2.813  -0.235  1.00  0.00    -0.080 C 
INPUT-LIGAND-PDBQT: BRANCH  19  20
INPUT-LIGAND-PDBQT: ATOM     20  C   UNL     1       2.295   2.385   0.352  1.00  0.00    -0.048 A 
INPUT-LIGAND-PDBQT: ATOM     21  C   UNL     1       1.163   3.185   0.116  1.00  0.00     0.003 A 
INPUT-LIGAND-PDBQT: ATOM     22  C   UNL     1       2.173   1.266   1.217  1.00  0.00     0.054 A 
INPUT-LIGAND-PDBQT: ATOM     23  C   UNL     1      -0.065   2.875   0.706  1.00  0.00     0.000 A 
INPUT-LIGAND-PDBQT: ATOM     24  C   UNL     1       0.925   0.945   1.772  1.00  0.00     0.020 A 
INPUT-LIGAND-PDBQT: ATOM     25  C   UNL     1      -0.186   1.750   1.523  1.00  0.00     0.001 A 
INPUT-LIGAND-PDBQT: BRANCH  22  26
INPUT-LIGAND-PDBQT: ATOM     26  C   UNL     1       3.312   0.454   1.572  1.00  0.00     0.099 C 
INPUT-LIGAND-PDBQT: ATOM     27  N   UNL     1       4.225  -0.198   1.858  1.00  0.00    -0.192 NA
INPUT-LIGAND-PDBQT: ENDBRANCH  22  26
INPUT-LIGAND-PDBQT: ENDBRANCH  19  20
INPUT-LIGAND-PDBQT: ENDBRANCH  18  19
INPUT-LIGAND-PDBQT: ENDBRANCH   1  18
INPUT-LIGAND-PDBQT: TORSDOF 9


    FINAL DOCKED STATE:
    ________________________


Run:   1 / 20
Time taken for this run:   0.047s

DOCKED: MODEL        1
DOCKED: USER    Run = 1
DOCKED: USER
DOCKED: USER    Estimated Free Energy of Binding    =  -8.62 kcal/mol  [=(1)+(2)+(3)-(4)]
DOCKED: USER
DOCKED: USER    (1) Final Intermolecular Energy     = -11.31 kcal/mol
DOCKED: USER        vdW + Hbond + desolv Energy     = -11.33 kcal/mol
DOCKED: USER        Electrostatic Energy            =  +0.02 kcal/mol
DOCKED: USER        Moving Ligand-Fixed Receptor    = -11.31 kcal/mol
DOCKED: USER        Moving Ligand-Moving Receptor   =  +0.00 kcal/mol
DOCKED: USER    (2) Final Total Internal Energy     =  -0.77 kcal/mol
DOCKED: USER    (3) Torsional Free Energy           =  +2.68 kcal/mol
DOCKED: USER    (4) Unbound System's Energy         =  -0.77 kcal/mol
DOCKED: USER
DOCKED: USER
DOCKED: REMARK SMILES N#Cc1ccccc1C[N-]C(=O)C/N=C(\O)c1ccc2ccccc2n1
DOCKED: REMARK SMILES IDX 11 1 12 2 13 3 14 4 15 5 16 6 17 8 26 9 18 10 25 11 19 12
DOCKED: REMARK SMILES IDX 24 13 20 14 23 15 21 16 22 17 10 18 9 19 8 20 7 21 3 22 6 23
DOCKED: REMARK SMILES IDX 4 24 5 25 2 26 1 27
DOCKED: REMARK H PARENT 16 7
DOCKED: USER                              x       y       z     vdW  Elec       q    Type
DOCKED: USER                           _______ _______ _______ _____ _____    ______ ____
DOCKED: ROOT
DOCKED: ATOM      1  C   UNL     1     140.518  72.336 222.134 -0.28 -0.01    +0.073 C  
DOCKED: ATOM      2  O   UNL     1     141.426  72.031 221.318 -0.14 +0.03    -0.318 OA 
DOCKED: ENDROOT
DOCKED: BRANCH   1   3
DOCKED: ATOM      3  C   UNL     1     139.333  73.125 221.645 -0.17 -0.04    +0.201 C  
DOCKED: BRANCH   3   4
DOCKED: ATOM      4  N   UNL     1     139.403  74.518 222.080 -0.57 +0.04    -0.244 NA 
DOCKED: BRANCH   4   5
DOCKED: ATOM      5  C   UNL     1     140.429  75.315 221.968 -0.17 -0.03    +0.233 C  
DOCKED: BRANCH   5   6
DOCKED: ATOM      6  O   UNL     1     141.648  74.879 221.444 -0.19 +0.12    -0.492 OA 
DOCKED: ATOM      7  H   UNL     1     142.516  75.384 221.557 -0.37 -0.18    +0.295 HD 
DOCKED: ENDBRANCH   5   6
DOCKED: BRANCH   5   8
DOCKED: ATOM      8  C   UNL     1     140.313  76.720 222.396 -0.33 -0.03    +0.125 A  
DOCKED: ATOM      9  N   UNL     1     141.445  77.465 222.545 -0.17 +0.12    -0.243 NA 
DOCKED: ATOM     10  C   UNL     1     139.060  77.307 222.649 -0.28 -0.01    +0.035 A  
DOCKED: ATOM     11  C   UNL     1     141.405  78.773 222.914 -0.49 -0.03    +0.071 A  
DOCKED: ATOM     12  C   UNL     1     138.989  78.648 223.031 -0.32 -0.00    +0.013 A  
DOCKED: ATOM     13  C   UNL     1     142.592  79.504 223.041 -0.60 -0.01    +0.029 A  
DOCKED: ATOM     14  C   UNL     1     140.163  79.398 223.163 -0.43 -0.00    +0.000 A  
DOCKED: ATOM     15  C   UNL     1     142.546  80.853 223.408 -0.65 -0.00    +0.002 A  
DOCKED: ATOM     16  C   UNL     1     140.126  80.751 223.534 -0.42 -0.00    +0.010 A  
DOCKED: ATOM     17  C   UNL     1     141.317  81.475 223.653 -0.39 -0.00    +0.001 A  
DOCKED: ENDBRANCH   5   8
DOCKED: ENDBRANCH   4   5
DOCKED: ENDBRANCH   3   4
DOCKED: ENDBRANCH   1   3
DOCKED: BRANCH   1  18
DOCKED: ATOM     18  N   UNL     1     140.665  71.934 223.502 -0.03 +0.05    -0.648 NA 
DOCKED: BRANCH  18  19
DOCKED: ATOM     19  C   UNL     1     139.959  70.845 224.172 -0.38 +0.01    -0.080 C  
DOCKED: BRANCH  19  20
DOCKED: ATOM     20  C   UNL     1     140.291  70.781 225.649 -0.52 +0.01    -0.048 A  
DOCKED: ATOM     21  C   UNL     1     140.861  71.911 226.262 -0.61 -0.00    +0.003 A  
DOCKED: ATOM     22  C   UNL     1     140.146  69.591 226.408 -0.48 -0.01    +0.054 A  
DOCKED: ATOM     23  C   UNL     1     141.260  71.870 227.601 -0.81 -0.00    +0.000 A  
DOCKED: ATOM     24  C   UNL     1     140.516  69.576 227.761 -0.61 -0.00    +0.020 A  
DOCKED: ATOM     25  C   UNL     1     141.077  70.708 228.352 -0.58 -0.00    +0.001 A  
DOCKED: BRANCH  22  26
DOCKED: ATOM     26  C   UNL     1     139.650  68.371 225.818 -0.48 -0.01    +0.099 C  
DOCKED: ATOM     27  N   UNL     1     139.252  67.392 225.343 -0.88 -0.01    -0.192 NA 
DOCKED: ENDBRANCH  22  26
DOCKED: ENDBRANCH  19  20
DOCKED: ENDBRANCH  18  19
DOCKED: ENDBRANCH   1  18
DOCKED: TORSDOF 9
DOCKED: TER
DOCKED: ENDMDL
________________________________________________________________________________


    FINAL DOCKED STATE:
    ________________________


Run:   2 / 20
Time taken for this run:   0.047s

DOCKED: MODEL        2
DOCKED: USER    Run = 2
DOCKED: USER
DOCKED: USER    Estimated Free Energy of Binding    =  -7.62 kcal/mol  [=(1)+(2)+(3)-(4)]
DOCKED: USER
DOCKED: USER    (1) Final Intermolecular Energy     = -10.30 kcal/mol
DOCKED: USER        vdW + Hbond + desolv Energy     = -10.42 kcal/mol
DOCKED: USER        Electrostatic Energy            =  +0.12 kcal/mol
DOCKED: USER        Moving Ligand-Fixed Receptor    = -10.30 kcal/mol
DOCKED: USER        Moving Ligand-Moving Receptor   =  +0.00 kcal/mol
DOCKED: USER    (2) Final Total Internal Energy     =  -1.01 kcal/mol
DOCKED: USER    (3) Torsional Free Energy           =  +2.68 kcal/mol
DOCKED: USER    (4) Unbound System's Energy         =  -1.01 kcal/mol
DOCKED: USER
DOCKED: USER
DOCKED: REMARK SMILES N#Cc1ccccc1C[N-]C(=O)C/N=C(\O)c1ccc2ccccc2n1
DOCKED: REMARK SMILES IDX 11 1 12 2 13 3 14 4 15 5 16 6 17 8 26 9 18 10 25 11 19 12
DOCKED: REMARK SMILES IDX 24 13 20 14 23 15 21 16 22 17 10 18 9 19 8 20 7 21 3 22 6 23
DOCKED: REMARK SMILES IDX 4 24 5 25 2 26 1 27
DOCKED: REMARK H PARENT 16 7
DOCKED: USER                              x       y       z     vdW  Elec       q    Type
DOCKED: USER                           _______ _______ _______ _____ _____    ______ ____
DOCKED: ROOT
DOCKED: ATOM      1  C   UNL     1     139.651  72.263 222.381 -0.27 -0.01    +0.073 C  
DOCKED: ATOM      2  O   UNL     1     138.434  72.450 222.642 -0.11 +0.11    -0.318 OA 
DOCKED: ENDROOT
DOCKED: BRANCH   1   3
DOCKED: ATOM      3  C   UNL     1     140.161  72.597 221.004 -0.14 -0.03    +0.201 C  
DOCKED: BRANCH   3   4
DOCKED: ATOM      4  N   UNL     1     140.087  74.032 220.742 -0.11 +0.05    -0.244 NA 
DOCKED: BRANCH   4   5
DOCKED: ATOM      5  C   UNL     1     140.954  74.934 221.113 -0.22 -0.05    +0.233 C  
DOCKED: BRANCH   5   6
DOCKED: ATOM      6  O   UNL     1     142.324  74.775 220.893 -0.12 +0.17    -0.492 OA 
DOCKED: ATOM      7  H   UNL     1     143.019  75.441 221.201 -0.28 -0.22    +0.295 HD 
DOCKED: ENDBRANCH   5   6
DOCKED: BRANCH   5   8
DOCKED: ATOM      8  C   UNL     1     140.489  76.164 221.777 -0.31 -0.03    +0.125 A  
DOCKED: ATOM      9  N   UNL     1     141.390  77.146 222.062 -0.12 +0.13    -0.243 NA 
DOCKED: ATOM     10  C   UNL     1     139.137  76.346 222.117 -0.30 -0.01    +0.035 A  
DOCKED: ATOM     11  C   UNL     1     141.023  78.315 222.653 -0.44 -0.02    +0.071 A  
DOCKED: ATOM     12  C   UNL     1     138.731  77.535 222.726 -0.30 -0.00    +0.013 A  
DOCKED: ATOM     13  C   UNL     1     141.980  79.301 222.915 -0.56 -0.01    +0.029 A  
DOCKED: ATOM     14  C   UNL     1     139.670  78.536 222.996 -0.35 -0.00    +0.000 A  
DOCKED: ATOM     15  C   UNL     1     141.595  80.507 223.511 -0.58 -0.00    +0.002 A  
DOCKED: ATOM     16  C   UNL     1     139.293  79.748 223.596 -0.41 -0.00    +0.010 A  
DOCKED: ATOM     17  C   UNL     1     140.256  80.730 223.849 -0.38 -0.00    +0.001 A  
DOCKED: ENDBRANCH   5   8
DOCKED: ENDBRANCH   4   5
DOCKED: ENDBRANCH   3   4
DOCKED: ENDBRANCH   1   3
DOCKED: BRANCH   1  18
DOCKED: ATOM     18  N   UNL     1     140.495  71.720 223.405 -0.04 +0.07    -0.648 NA 
DOCKED: BRANCH  18  19
DOCKED: ATOM     19  C   UNL     1     140.260  70.500 224.173 -0.29 +0.01    -0.080 C  
DOCKED: BRANCH  19  20
DOCKED: ATOM     20  C   UNL     1     140.482  70.714 225.656 -0.53 +0.01    -0.048 A  
DOCKED: ATOM     21  C   UNL     1     141.091  71.907 226.082 -0.61 -0.00    +0.003 A  
DOCKED: ATOM     22  C   UNL     1     140.193  69.711 226.618 -0.50 -0.01    +0.054 A  
DOCKED: ATOM     23  C   UNL     1     141.391  72.112 227.432 -0.81 -0.00    +0.000 A  
DOCKED: ATOM     24  C   UNL     1     140.465  69.947 227.975 -0.61 -0.00    +0.020 A  
DOCKED: ATOM     25  C   UNL     1     141.067  71.138 228.377 -0.64 -0.00    +0.001 A  
DOCKED: BRANCH  22  26
DOCKED: ATOM     26  C   UNL     1     139.649  68.430 226.239 -0.51 -0.01    +0.099 C  
DOCKED: ATOM     27  N   UNL     1     139.212  67.402 225.936 -0.89 -0.00    -0.192 NA 
DOCKED: ENDBRANCH  22  26
DOCKED: ENDBRANCH  19  20
DOCKED: ENDBRANCH  18  19
DOCKED: ENDBRANCH   1  18
DOCKED: TORSDOF 9
DOCKED: TER
DOCKED: ENDMDL
________________________________________________________________________________


    FINAL DOCKED STATE:
    ________________________


Run:   3 / 20
Time taken for this run:   0.047s

DOCKED: MODEL        3
DOCKED: USER    Run = 3
DOCKED: USER
DOCKED: USER    Estimated Free Energy of Binding    =  -8.57 kcal/mol  [=(1)+(2)+(3)-(4)]
DOCKED: USER
DOCKED: USER    (1) Final Intermolecular Energy     = -11.25 kcal/mol
DOCKED: USER        vdW + Hbond + desolv Energy     = -11.43 kcal/mol
DOCKED: USER        Electrostatic Energy            =  +0.17 kcal/mol
DOCKED: USER        Moving Ligand-Fixed Receptor    = -11.25 kcal/mol
DOCKED: USER        Moving Ligand-Moving Receptor   =  +0.00 kcal/mol
DOCKED: USER    (2) Final Total Internal Energy     =  -1.39 kcal/mol
DOCKED: USER    (3) Torsional Free Energy           =  +2.68 kcal/mol
DOCKED: USER    (4) Unbound System's Energy         =  -1.39 kcal/mol
DOCKED: USER
DOCKED: USER
DOCKED: REMARK SMILES N#Cc1ccccc1C[N-]C(=O)C/N=C(\O)c1ccc2ccccc2n1
DOCKED: REMARK SMILES IDX 11 1 12 2 13 3 14 4 15 5 16 6 17 8 26 9 18 10 25 11 19 12
DOCKED: REMARK SMILES IDX 24 13 20 14 23 15 21 16 22 17 10 18 9 19 8 20 7 21 3 22 6 23
DOCKED: REMARK SMILES IDX 4 24 5 25 2 26 1 27
DOCKED: REMARK H PARENT 16 7
DOCKED: USER                              x       y       z     vdW  Elec       q    Type
DOCKED: USER                           _______ _______ _______ _____ _____    ______ ____
DOCKED: ROOT
DOCKED: ATOM      1  C   UNL     1     140.041  72.515 222.185 -0.28 -0.01    +0.073 C  
DOCKED: ATOM      2  O   UNL     1     139.130  72.118 221.413 -0.07 +0.06    -0.318 OA 
DOCKED: ENDROOT
DOCKED: BRANCH   1   3
DOCKED: ATOM      3  C   UNL     1     141.139  73.383 221.632 -0.17 -0.02    +0.201 C  
DOCKED: BRANCH   3   4
DOCKED: ATOM      4  N   UNL     1     140.679  74.753 221.417 -0.38 +0.04    -0.244 NA 
DOCKED: BRANCH   4   5
DOCKED: ATOM      5  C   UNL     1     139.696  75.346 222.036 -0.19 -0.04    +0.233 C  
DOCKED: BRANCH   5   6
DOCKED: ATOM      6  O   UNL     1     138.504  74.683 222.335 -0.15 +0.16    -0.492 OA 
DOCKED: ATOM      7  H   UNL     1     138.467  73.761 222.746 -0.50 -0.15    +0.295 HD 
DOCKED: ENDBRANCH   5   6
DOCKED: BRANCH   5   8
DOCKED: ATOM      8  C   UNL     1     139.834  76.756 222.443 -0.28 -0.03    +0.125 A  
DOCKED: ATOM      9  N   UNL     1     141.082  77.283 222.597 -0.28 +0.10    -0.243 NA 
DOCKED: ATOM     10  C   UNL     1     138.708  77.566 222.672 -0.29 -0.01    +0.035 A  
DOCKED: ATOM     11  C   UNL     1     141.279  78.582 222.949 -0.48 -0.02    +0.071 A  
DOCKED: ATOM     12  C   UNL     1     138.879  78.902 223.035 -0.32 -0.00    +0.013 A  
DOCKED: ATOM     13  C   UNL     1     142.577  79.085 223.082 -0.50 -0.01    +0.029 A  
DOCKED: ATOM     14  C   UNL     1     140.169  79.427 223.173 -0.43 -0.00    +0.000 A  
DOCKED: ATOM     15  C   UNL     1     142.775  80.426 223.430 -0.68 -0.00    +0.002 A  
DOCKED: ATOM     16  C   UNL     1     140.376  80.770 223.525 -0.43 -0.00    +0.010 A  
DOCKED: ATOM     17  C   UNL     1     141.678  81.265 223.650 -0.58 -0.00    +0.001 A  
DOCKED: ENDBRANCH   5   8
DOCKED: ENDBRANCH   4   5
DOCKED: ENDBRANCH   3   4
DOCKED: ENDBRANCH   1   3
DOCKED: BRANCH   1  18
DOCKED: ATOM     18  N   UNL     1     140.001  72.102 223.558 -0.07 +0.12    -0.648 NA 
DOCKED: BRANCH  18  19
DOCKED: ATOM     19  C   UNL     1     140.243  70.757 224.072 -0.33 +0.01    -0.080 C  
DOCKED: BRANCH  19  20
DOCKED: ATOM     20  C   UNL     1     140.441  70.753 225.574 -0.52 +0.01    -0.048 A  
DOCKED: ATOM     21  C   UNL     1     141.006  71.888 226.183 -0.64 -0.00    +0.003 A  
DOCKED: ATOM     22  C   UNL     1     140.176  69.609 226.371 -0.48 -0.01    +0.054 A  
DOCKED: ATOM     23  C   UNL     1     141.284  71.897 227.553 -0.80 -0.00    +0.000 A  
DOCKED: ATOM     24  C   UNL     1     140.425  69.647 227.751 -0.60 -0.00    +0.020 A  
DOCKED: ATOM     25  C   UNL     1     140.983  70.783 228.337 -0.61 -0.00    +0.001 A  
DOCKED: BRANCH  22  26
DOCKED: ATOM     26  C   UNL     1     139.679  68.382 225.796 -0.47 -0.01    +0.099 C  
DOCKED: ATOM     27  N   UNL     1     139.279  67.398 225.336 -0.87 -0.01    -0.192 NA 
DOCKED: ENDBRANCH  22  26
DOCKED: ENDBRANCH  19  20
DOCKED: ENDBRANCH  18  19
DOCKED: ENDBRANCH   1  18
DOCKED: TORSDOF 9
DOCKED: TER
DOCKED: ENDMDL
________________________________________________________________________________


    FINAL DOCKED STATE:
    ________________________


Run:   4 / 20
Time taken for this run:   0.047s

DOCKED: MODEL        4
DOCKED: USER    Run = 4
DOCKED: USER
DOCKED: USER    Estimated Free Energy of Binding    =  -6.90 kcal/mol  [=(1)+(2)+(3)-(4)]
DOCKED: USER
DOCKED: USER    (1) Final Intermolecular Energy     =  -9.59 kcal/mol
DOCKED: USER        vdW + Hbond + desolv Energy     =  -9.53 kcal/mol
DOCKED: USER        Electrostatic Energy            =  -0.06 kcal/mol
DOCKED: USER        Moving Ligand-Fixed Receptor    =  -9.59 kcal/mol
DOCKED: USER        Moving Ligand-Moving Receptor   =  +0.00 kcal/mol
DOCKED: USER    (2) Final Total Internal Energy     =  -1.31 kcal/mol
DOCKED: USER    (3) Torsional Free Energy           =  +2.68 kcal/mol
DOCKED: USER    (4) Unbound System's Energy         =  -1.31 kcal/mol
DOCKED: USER
DOCKED: USER
DOCKED: REMARK SMILES N#Cc1ccccc1C[N-]C(=O)C/N=C(\O)c1ccc2ccccc2n1
DOCKED: REMARK SMILES IDX 11 1 12 2 13 3 14 4 15 5 16 6 17 8 26 9 18 10 25 11 19 12
DOCKED: REMARK SMILES IDX 24 13 20 14 23 15 21 16 22 17 10 18 9 19 8 20 7 21 3 22 6 23
DOCKED: REMARK SMILES IDX 4 24 5 25 2 26 1 27
DOCKED: REMARK H PARENT 16 7
DOCKED: USER                              x       y       z     vdW  Elec       q    Type
DOCKED: USER                           _______ _______ _______ _____ _____    ______ ____
DOCKED: ROOT
DOCKED: ATOM      1  C   UNL     1     141.014  70.547 220.024 -0.10 -0.01    +0.073 C  
DOCKED: ATOM      2  O   UNL     1     140.960  69.298 220.167 -0.07 +0.05    -0.318 OA 
DOCKED: ENDROOT
DOCKED: BRANCH   1   3
DOCKED: ATOM      3  C   UNL     1     139.732  71.337 220.019 -0.05 -0.04    +0.201 C  
DOCKED: BRANCH   3   4
DOCKED: ATOM      4  N   UNL     1     139.083  71.307 221.328 -0.06 +0.04    -0.244 NA 
DOCKED: BRANCH   4   5
DOCKED: ATOM      5  C   UNL     1     139.456  71.960 222.394 -0.20 -0.05    +0.233 C  
DOCKED: BRANCH   5   6
DOCKED: ATOM      6  O   UNL     1     139.611  73.348 222.393 -0.60 +0.09    -0.492 OA 
DOCKED: ATOM      7  H   UNL     1     139.575  73.913 223.230 -0.43 -0.05    +0.295 HD 
DOCKED: ENDBRANCH   5   6
DOCKED: BRANCH   5   8
DOCKED: ATOM      8  C   UNL     1     139.720  71.226 223.644 -0.32 -0.02    +0.125 A  
DOCKED: ATOM      9  N   UNL     1     140.284  71.886 224.695 -0.25 +0.04    -0.243 NA 
DOCKED: ATOM     10  C   UNL     1     139.398  69.863 223.775 -0.28 -0.01    +0.035 A  
DOCKED: ATOM     11  C   UNL     1     140.532  71.273 225.883 -0.54 -0.01    +0.071 A  
DOCKED: ATOM     12  C   UNL     1     139.642  69.208 224.983 -0.39 -0.00    +0.013 A  
DOCKED: ATOM     13  C   UNL     1     141.100  71.993 226.940 -0.75 -0.01    +0.029 A  
DOCKED: ATOM     14  C   UNL     1     140.208  69.909 226.054 -0.51 -0.00    +0.000 A  
DOCKED: ATOM     15  C   UNL     1     141.341  71.362 228.166 -0.66 -0.00    +0.002 A  
DOCKED: ATOM     16  C   UNL     1     140.456  69.283 227.286 -0.60 -0.00    +0.010 A  
DOCKED: ATOM     17  C   UNL     1     141.019  70.012 228.338 -0.56 -0.00    +0.001 A  
DOCKED: ENDBRANCH   5   8
DOCKED: ENDBRANCH   4   5
DOCKED: ENDBRANCH   3   4
DOCKED: ENDBRANCH   1   3
DOCKED: BRANCH   1  18
DOCKED: ATOM     18  N   UNL     1     142.298  71.160 219.851 +0.05 +0.08    -0.648 NA 
DOCKED: BRANCH  18  19
DOCKED: ATOM     19  C   UNL     1     143.052  71.906 220.856 -0.23 +0.01    -0.080 C  
DOCKED: BRANCH  19  20
DOCKED: ATOM     20  C   UNL     1     143.025  73.397 220.589 -0.28 +0.01    -0.048 A  
DOCKED: ATOM     21  C   UNL     1     141.832  74.103 220.820 -0.29 -0.00    +0.003 A  
DOCKED: ATOM     22  C   UNL     1     144.127  74.084 220.016 -0.38 -0.02    +0.054 A  
DOCKED: ATOM     23  C   UNL     1     141.736  75.462 220.509 -0.29 -0.00    +0.000 A  
DOCKED: ATOM     24  C   UNL     1     144.029  75.457 219.745 -0.35 -0.01    +0.020 A  
DOCKED: ATOM     25  C   UNL     1     142.837  76.140 219.983 -0.32 -0.00    +0.001 A  
DOCKED: BRANCH  22  26
DOCKED: ATOM     26  C   UNL     1     145.351  73.402 219.672 -0.40 +0.00    +0.099 C  
DOCKED: ATOM     27  N   UNL     1     146.334  72.854 219.398 -0.69 -0.17    -0.192 NA 
DOCKED: ENDBRANCH  22  26
DOCKED: ENDBRANCH  19  20
DOCKED: ENDBRANCH  18  19
DOCKED: ENDBRANCH   1  18
DOCKED: TORSDOF 9
DOCKED: TER
DOCKED: ENDMDL
________________________________________________________________________________


    FINAL DOCKED STATE:
    ________________________


Run:   5 / 20
Time taken for this run:   0.047s

DOCKED: MODEL        5
DOCKED: USER    Run = 5
DOCKED: USER
DOCKED: USER    Estimated Free Energy of Binding    =  -8.69 kcal/mol  [=(1)+(2)+(3)-(4)]
DOCKED: USER
DOCKED: USER    (1) Final Intermolecular Energy     = -11.38 kcal/mol
DOCKED: USER        vdW + Hbond + desolv Energy     = -11.50 kcal/mol
DOCKED: USER        Electrostatic Energy            =  +0.12 kcal/mol
DOCKED: USER        Moving Ligand-Fixed Receptor    = -11.38 kcal/mol
DOCKED: USER        Moving Ligand-Moving Receptor   =  +0.00 kcal/mol
DOCKED: USER    (2) Final Total Internal Energy     =  -1.21 kcal/mol
DOCKED: USER    (3) Torsional Free Energy           =  +2.68 kcal/mol
DOCKED: USER    (4) Unbound System's Energy         =  -1.21 kcal/mol
DOCKED: USER
DOCKED: USER
DOCKED: REMARK SMILES N#Cc1ccccc1C[N-]C(=O)C/N=C(\O)c1ccc2ccccc2n1
DOCKED: REMARK SMILES IDX 11 1 12 2 13 3 14 4 15 5 16 6 17 8 26 9 18 10 25 11 19 12
DOCKED: REMARK SMILES IDX 24 13 20 14 23 15 21 16 22 17 10 18 9 19 8 20 7 21 3 22 6 23
DOCKED: REMARK SMILES IDX 4 24 5 25 2 26 1 27
DOCKED: REMARK H PARENT 16 7
DOCKED: USER                              x       y       z     vdW  Elec       q    Type
DOCKED: USER                           _______ _______ _______ _____ _____    ______ ____
DOCKED: ROOT
DOCKED: ATOM      1  C   UNL     1     139.797  72.495 222.166 -0.26 -0.01    +0.073 C  
DOCKED: ATOM      2  O   UNL     1     138.680  72.113 221.729 -0.08 +0.07    -0.318 OA 
DOCKED: ENDROOT
DOCKED: BRANCH   1   3
DOCKED: ATOM      3  C   UNL     1     140.700  73.291 221.262 -0.20 -0.03    +0.201 C  
DOCKED: BRANCH   3   4
DOCKED: ATOM      4  N   UNL     1     140.661  74.714 221.589 -0.50 +0.04    -0.244 NA 
DOCKED: BRANCH   4   5
DOCKED: ATOM      5  C   UNL     1     139.639  75.375 222.057 -0.20 -0.04    +0.233 C  
DOCKED: BRANCH   5   6
DOCKED: ATOM      6  O   UNL     1     138.383  74.783 222.206 -0.13 +0.15    -0.492 OA 
DOCKED: ATOM      7  H   UNL     1     138.220  73.953 222.758 -0.49 -0.16    +0.295 HD 
DOCKED: ENDBRANCH   5   6
DOCKED: BRANCH   5   8
DOCKED: ATOM      8  C   UNL     1     139.799  76.786 222.450 -0.28 -0.03    +0.125 A  
DOCKED: ATOM      9  N   UNL     1     141.054  77.295 222.600 -0.28 +0.09    -0.243 NA 
DOCKED: ATOM     10  C   UNL     1     138.685  77.616 222.669 -0.29 -0.01    +0.035 A  
DOCKED: ATOM     11  C   UNL     1     141.271  78.595 222.939 -0.48 -0.02    +0.071 A  
DOCKED: ATOM     12  C   UNL     1     138.877  78.953 223.018 -0.32 -0.00    +0.013 A  
DOCKED: ATOM     13  C   UNL     1     142.577  79.079 223.069 -0.50 -0.01    +0.029 A  
DOCKED: ATOM     14  C   UNL     1     140.175  79.460 223.153 -0.43 -0.00    +0.000 A  
DOCKED: ATOM     15  C   UNL     1     142.795  80.420 223.403 -0.68 -0.00    +0.002 A  
DOCKED: ATOM     16  C   UNL     1     140.402  80.802 223.491 -0.44 -0.00    +0.010 A  
DOCKED: ATOM     17  C   UNL     1     141.712  81.278 223.614 -0.58 -0.00    +0.001 A  
DOCKED: ENDBRANCH   5   8
DOCKED: ENDBRANCH   4   5
DOCKED: ENDBRANCH   3   4
DOCKED: ENDBRANCH   1   3
DOCKED: BRANCH   1  18
DOCKED: ATOM     18  N   UNL     1     140.168  72.134 223.503 -0.10 +0.10    -0.648 NA 
DOCKED: BRANCH  18  19
DOCKED: ATOM     19  C   UNL     1     140.347  70.782 224.025 -0.31 +0.01    -0.080 C  
DOCKED: BRANCH  19  20
DOCKED: ATOM     20  C   UNL     1     140.517  70.776 225.530 -0.52 +0.01    -0.048 A  
DOCKED: ATOM     21  C   UNL     1     141.093  71.899 226.150 -0.64 -0.00    +0.003 A  
DOCKED: ATOM     22  C   UNL     1     140.214  69.637 226.322 -0.48 -0.01    +0.054 A  
DOCKED: ATOM     23  C   UNL     1     141.346  71.903 227.524 -0.79 -0.00    +0.000 A  
DOCKED: ATOM     24  C   UNL     1     140.438  69.670 227.707 -0.60 -0.00    +0.020 A  
DOCKED: ATOM     25  C   UNL     1     141.008  70.795 228.303 -0.62 -0.00    +0.001 A  
DOCKED: BRANCH  22  26
DOCKED: ATOM     26  C   UNL     1     139.704  68.420 225.738 -0.47 -0.01    +0.099 C  
DOCKED: ATOM     27  N   UNL     1     139.295  67.445 225.268 -0.86 -0.00    -0.192 NA 
DOCKED: ENDBRANCH  22  26
DOCKED: ENDBRANCH  19  20
DOCKED: ENDBRANCH  18  19
DOCKED: ENDBRANCH   1  18
DOCKED: TORSDOF 9
DOCKED: TER
DOCKED: ENDMDL
________________________________________________________________________________


    FINAL DOCKED STATE:
    ________________________


Run:   6 / 20
Time taken for this run:   0.047s

DOCKED: MODEL        6
DOCKED: USER    Run = 6
DOCKED: USER
DOCKED: USER    Estimated Free Energy of Binding    =  -7.28 kcal/mol  [=(1)+(2)+(3)-(4)]
DOCKED: USER
DOCKED: USER    (1) Final Intermolecular Energy     =  -9.96 kcal/mol
DOCKED: USER        vdW + Hbond + desolv Energy     = -10.15 kcal/mol
DOCKED: USER        Electrostatic Energy            =  +0.18 kcal/mol
DOCKED: USER        Moving Ligand-Fixed Receptor    =  -9.96 kcal/mol
DOCKED: USER        Moving Ligand-Moving Receptor   =  +0.00 kcal/mol
DOCKED: USER    (2) Final Total Internal Energy     =  -1.29 kcal/mol
DOCKED: USER    (3) Torsional Free Energy           =  +2.68 kcal/mol
DOCKED: USER    (4) Unbound System's Energy         =  -1.29 kcal/mol
DOCKED: USER
DOCKED: USER
DOCKED: REMARK SMILES N#Cc1ccccc1C[N-]C(=O)C/N=C(\O)c1ccc2ccccc2n1
DOCKED: REMARK SMILES IDX 11 1 12 2 13 3 14 4 15 5 16 6 17 8 26 9 18 10 25 11 19 12
DOCKED: REMARK SMILES IDX 24 13 20 14 23 15 21 16 22 17 10 18 9 19 8 20 7 21 3 22 6 23
DOCKED: REMARK SMILES IDX 4 24 5 25 2 26 1 27
DOCKED: REMARK H PARENT 16 7
DOCKED: USER                              x       y       z     vdW  Elec       q    Type
DOCKED: USER                           _______ _______ _______ _____ _____    ______ ____
DOCKED: ROOT
DOCKED: ATOM      1  C   UNL     1     139.951  72.756 222.262 -0.27 -0.01    +0.073 C  
DOCKED: ATOM      2  O   UNL     1     140.834  72.365 221.455 -0.16 +0.04    -0.318 OA 
DOCKED: ENDROOT
DOCKED: BRANCH   1   3
DOCKED: ATOM      3  C   UNL     1     139.111  73.953 221.902 -0.16 -0.05    +0.201 C  
DOCKED: BRANCH   3   4
DOCKED: ATOM      4  N   UNL     1     139.730  75.195 222.358 -0.58 +0.03    -0.244 NA 
DOCKED: BRANCH   4   5
DOCKED: ATOM      5  C   UNL     1     140.804  75.751 221.869 -0.23 -0.06    +0.233 C  
DOCKED: BRANCH   5   6
DOCKED: ATOM      6  O   UNL     1     141.710  75.039 221.079 -0.15 +0.16    -0.492 OA 
DOCKED: ATOM      7  H   UNL     1     141.679  74.037 220.962 +0.11 -0.06    +0.295 HD 
DOCKED: ENDBRANCH   5   6
DOCKED: BRANCH   5   8
DOCKED: ATOM      8  C   UNL     1     141.079  77.173 222.142 -0.32 -0.05    +0.125 A  
DOCKED: ATOM      9  N   UNL     1     140.982  78.075 221.125 -0.15 +0.10    -0.243 NA 
DOCKED: ATOM     10  C   UNL     1     141.434  77.616 223.428 -0.20 -0.01    +0.035 A  
DOCKED: ATOM     11  C   UNL     1     141.200  79.404 221.315 -0.30 -0.03    +0.071 A  
DOCKED: ATOM     12  C   UNL     1     141.666  78.974 223.653 -0.60 -0.00    +0.013 A  
DOCKED: ATOM     13  C   UNL     1     141.076  80.297 220.245 -0.25 -0.01    +0.029 A  
DOCKED: ATOM     14  C   UNL     1     141.546  79.885 222.598 -0.51 -0.00    +0.000 A  
DOCKED: ATOM     15  C   UNL     1     141.288  81.665 220.449 -0.31 -0.00    +0.002 A  
DOCKED: ATOM     16  C   UNL     1     141.760  81.258 222.792 -0.53 -0.00    +0.010 A  
DOCKED: ATOM     17  C   UNL     1     141.628  82.144 221.718 -0.35 -0.00    +0.001 A  
DOCKED: ENDBRANCH   5   8
DOCKED: ENDBRANCH   4   5
DOCKED: ENDBRANCH   3   4
DOCKED: ENDBRANCH   1   3
DOCKED: BRANCH   1  18
DOCKED: ATOM     18  N   UNL     1     139.799  72.052 223.502 -0.04 +0.14    -0.648 NA 
DOCKED: BRANCH  18  19
DOCKED: ATOM     19  C   UNL     1     140.696  71.034 224.043 -0.27 +0.01    -0.080 C  
DOCKED: BRANCH  19  20
DOCKED: ATOM     20  C   UNL     1     140.567  70.911 225.547 -0.53 +0.01    -0.048 A  
DOCKED: ATOM     21  C   UNL     1     141.088  71.936 226.357 -0.67 -0.00    +0.003 A  
DOCKED: ATOM     22  C   UNL     1     140.036  69.751 226.170 -0.46 -0.01    +0.054 A  
DOCKED: ATOM     23  C   UNL     1     141.066  71.825 227.749 -0.84 -0.00    +0.000 A  
DOCKED: ATOM     24  C   UNL     1     139.987  69.670 227.570 -0.59 -0.00    +0.020 A  
DOCKED: ATOM     25  C   UNL     1     140.506  70.699 228.355 -0.59 -0.00    +0.001 A  
DOCKED: BRANCH  22  26
DOCKED: ATOM     26  C   UNL     1     139.566  68.624 225.401 -0.41 -0.01    +0.099 C  
DOCKED: ATOM     27  N   UNL     1     139.188  67.722 224.782 -0.77 +0.00    -0.192 NA 
DOCKED: ENDBRANCH  22  26
DOCKED: ENDBRANCH  19  20
DOCKED: ENDBRANCH  18  19
DOCKED: ENDBRANCH   1  18
DOCKED: TORSDOF 9
DOCKED: TER
DOCKED: ENDMDL
________________________________________________________________________________


    FINAL DOCKED STATE:
    ________________________


Run:   7 / 20
Time taken for this run:   0.047s

DOCKED: MODEL        7
DOCKED: USER    Run = 7
DOCKED: USER
DOCKED: USER    Estimated Free Energy of Binding    =  -8.90 kcal/mol  [=(1)+(2)+(3)-(4)]
DOCKED: USER
DOCKED: USER    (1) Final Intermolecular Energy     = -11.59 kcal/mol
DOCKED: USER        vdW + Hbond + desolv Energy     = -11.67 kcal/mol
DOCKED: USER        Electrostatic Energy            =  +0.08 kcal/mol
DOCKED: USER        Moving Ligand-Fixed Receptor    = -11.59 kcal/mol
DOCKED: USER        Moving Ligand-Moving Receptor   =  +0.00 kcal/mol
DOCKED: USER    (2) Final Total Internal Energy     =  -1.28 kcal/mol
DOCKED: USER    (3) Torsional Free Energy           =  +2.68 kcal/mol
DOCKED: USER    (4) Unbound System's Energy         =  -1.28 kcal/mol
DOCKED: USER
DOCKED: USER
DOCKED: REMARK SMILES N#Cc1ccccc1C[N-]C(=O)C/N=C(\O)c1ccc2ccccc2n1
DOCKED: REMARK SMILES IDX 11 1 12 2 13 3 14 4 15 5 16 6 17 8 26 9 18 10 25 11 19 12
DOCKED: REMARK SMILES IDX 24 13 20 14 23 15 21 16 22 17 10 18 9 19 8 20 7 21 3 22 6 23
DOCKED: REMARK SMILES IDX 4 24 5 25 2 26 1 27
DOCKED: REMARK H PARENT 16 7
DOCKED: USER                              x       y       z     vdW  Elec       q    Type
DOCKED: USER                           _______ _______ _______ _____ _____    ______ ____
DOCKED: ROOT
DOCKED: ATOM      1  C   UNL     1     139.878  72.430 222.341 -0.28 -0.01    +0.073 C  
DOCKED: ATOM      2  O   UNL     1     138.663  72.146 222.174 -0.11 +0.08    -0.318 OA 
DOCKED: ENDROOT
DOCKED: BRANCH   1   3
DOCKED: ATOM      3  C   UNL     1     140.530  73.416 221.410 -0.21 -0.03    +0.201 C  
DOCKED: BRANCH   3   4
DOCKED: ATOM      4  N   UNL     1     140.579  74.753 221.999 -0.66 +0.02    -0.244 NA 
DOCKED: BRANCH   4   5
DOCKED: ATOM      5  C   UNL     1     139.558  75.509 222.291 -0.17 -0.04    +0.233 C  
DOCKED: BRANCH   5   6
DOCKED: ATOM      6  O   UNL     1     138.257  75.004 222.346 -0.13 +0.16    -0.492 OA 
DOCKED: ATOM      7  H   UNL     1     138.022  74.115 222.764 -0.48 -0.16    +0.295 HD 
DOCKED: ENDBRANCH   5   6
DOCKED: BRANCH   5   8
DOCKED: ATOM      8  C   UNL     1     139.767  76.939 222.580 -0.24 -0.03    +0.125 A  
DOCKED: ATOM      9  N   UNL     1     141.037  77.403 222.750 -0.28 +0.09    -0.243 NA 
DOCKED: ATOM     10  C   UNL     1     138.685  77.831 222.679 -0.28 -0.01    +0.035 A  
DOCKED: ATOM     11  C   UNL     1     141.300  78.715 222.996 -0.49 -0.02    +0.071 A  
DOCKED: ATOM     12  C   UNL     1     138.924  79.183 222.932 -0.31 -0.00    +0.013 A  
DOCKED: ATOM     13  C   UNL     1     142.620  79.150 223.151 -0.48 -0.01    +0.029 A  
DOCKED: ATOM     14  C   UNL     1     140.237  79.641 223.089 -0.43 -0.00    +0.000 A  
DOCKED: ATOM     15  C   UNL     1     142.887  80.503 223.390 -0.68 -0.00    +0.002 A  
DOCKED: ATOM     16  C   UNL     1     140.513  80.995 223.332 -0.42 -0.00    +0.010 A  
DOCKED: ATOM     17  C   UNL     1     141.836  81.422 223.480 -0.57 -0.00    +0.001 A  
DOCKED: ENDBRANCH   5   8
DOCKED: ENDBRANCH   4   5
DOCKED: ENDBRANCH   3   4
DOCKED: ENDBRANCH   1   3
DOCKED: BRANCH   1  18
DOCKED: ATOM     18  N   UNL     1     140.592  71.782 223.402 -0.04 +0.06    -0.648 NA 
DOCKED: BRANCH  18  19
DOCKED: ATOM     19  C   UNL     1     140.171  70.593 224.138 -0.32 +0.01    -0.080 C  
DOCKED: BRANCH  19  20
DOCKED: ATOM     20  C   UNL     1     140.425  70.730 225.625 -0.52 +0.01    -0.048 A  
DOCKED: ATOM     21  C   UNL     1     141.039  71.903 226.100 -0.62 -0.00    +0.003 A  
DOCKED: ATOM     22  C   UNL     1     140.164  69.676 226.540 -0.49 -0.01    +0.054 A  
DOCKED: ATOM     23  C   UNL     1     141.368  72.038 227.452 -0.80 -0.00    +0.000 A  
DOCKED: ATOM     24  C   UNL     1     140.465  69.841 227.900 -0.61 -0.00    +0.020 A  
DOCKED: ATOM     25  C   UNL     1     141.071  71.013 228.351 -0.64 -0.00    +0.001 A  
DOCKED: BRANCH  22  26
DOCKED: ATOM     26  C   UNL     1     139.617  68.413 226.106 -0.50 -0.01    +0.099 C  
DOCKED: ATOM     27  N   UNL     1     139.178  67.401 225.756 -0.89 -0.01    -0.192 NA 
DOCKED: ENDBRANCH  22  26
DOCKED: ENDBRANCH  19  20
DOCKED: ENDBRANCH  18  19
DOCKED: ENDBRANCH   1  18
DOCKED: TORSDOF 9
DOCKED: TER
DOCKED: ENDMDL
________________________________________________________________________________


    FINAL DOCKED STATE:
    ________________________


Run:   8 / 20
Time taken for this run:   0.047s

DOCKED: MODEL        8
DOCKED: USER    Run = 8
DOCKED: USER
DOCKED: USER    Estimated Free Energy of Binding    =  -8.76 kcal/mol  [=(1)+(2)+(3)-(4)]
DOCKED: USER
DOCKED: USER    (1) Final Intermolecular Energy     = -11.44 kcal/mol
DOCKED: USER        vdW + Hbond + desolv Energy     = -11.51 kcal/mol
DOCKED: USER        Electrostatic Energy            =  +0.07 kcal/mol
DOCKED: USER        Moving Ligand-Fixed Receptor    = -11.44 kcal/mol
DOCKED: USER        Moving Ligand-Moving Receptor   =  +0.00 kcal/mol
DOCKED: USER    (2) Final Total Internal Energy     =  -1.41 kcal/mol
DOCKED: USER    (3) Torsional Free Energy           =  +2.68 kcal/mol
DOCKED: USER    (4) Unbound System's Energy         =  -1.41 kcal/mol
DOCKED: USER
DOCKED: USER
DOCKED: REMARK SMILES N#Cc1ccccc1C[N-]C(=O)C/N=C(\O)c1ccc2ccccc2n1
DOCKED: REMARK SMILES IDX 11 1 12 2 13 3 14 4 15 5 16 6 17 8 26 9 18 10 25 11 19 12
DOCKED: REMARK SMILES IDX 24 13 20 14 23 15 21 16 22 17 10 18 9 19 8 20 7 21 3 22 6 23
DOCKED: REMARK SMILES IDX 4 24 5 25 2 26 1 27
DOCKED: REMARK H PARENT 16 7
DOCKED: USER                              x       y       z     vdW  Elec       q    Type
DOCKED: USER                           _______ _______ _______ _____ _____    ______ ____
DOCKED: ROOT
DOCKED: ATOM      1  C   UNL     1     140.013  72.104 222.023 -0.26 -0.01    +0.073 C  
DOCKED: ATOM      2  O   UNL     1     138.841  71.880 221.623 -0.07 +0.06    -0.318 OA 
DOCKED: ENDROOT
DOCKED: BRANCH   1   3
DOCKED: ATOM      3  C   UNL     1     141.036  72.606 221.040 -0.17 -0.03    +0.201 C  
DOCKED: BRANCH   3   4
DOCKED: ATOM      4  N   UNL     1     141.401  73.994 221.313 -0.25 +0.04    -0.244 NA 
DOCKED: BRANCH   4   5
DOCKED: ATOM      5  C   UNL     1     140.612  74.929 221.763 -0.15 -0.03    +0.233 C  
DOCKED: BRANCH   5   6
DOCKED: ATOM      6  O   UNL     1     139.388  74.635 222.368 -0.59 +0.09    -0.492 OA 
DOCKED: ATOM      7  H   UNL     1     139.179  73.745 222.798 -0.45 -0.10    +0.295 HD 
DOCKED: ENDBRANCH   5   6
DOCKED: BRANCH   5   8
DOCKED: ATOM      8  C   UNL     1     141.012  76.343 221.644 -0.30 -0.05    +0.125 A  
DOCKED: ATOM      9  N   UNL     1     141.028  77.125 222.760 -0.27 +0.09    -0.243 NA 
DOCKED: ATOM     10  C   UNL     1     141.379  76.897 220.405 -0.26 -0.02    +0.035 A  
DOCKED: ATOM     11  C   UNL     1     141.409  78.430 222.722 -0.46 -0.03    +0.071 A  
DOCKED: ATOM     12  C   UNL     1     141.773  78.235 220.335 -0.30 -0.01    +0.013 A  
DOCKED: ATOM     13  C   UNL     1     141.424  79.192 223.895 -0.57 -0.01    +0.029 A  
DOCKED: ATOM     14  C   UNL     1     141.797  79.016 221.497 -0.41 -0.00    +0.000 A  
DOCKED: ATOM     15  C   UNL     1     141.830  80.530 223.854 -0.59 -0.00    +0.002 A  
DOCKED: ATOM     16  C   UNL     1     142.200  80.360 221.464 -0.42 -0.00    +0.010 A  
DOCKED: ATOM     17  C   UNL     1     142.217  81.112 222.642 -0.53 -0.00    +0.001 A  
DOCKED: ENDBRANCH   5   8
DOCKED: ENDBRANCH   4   5
DOCKED: ENDBRANCH   3   4
DOCKED: ENDBRANCH   1   3
DOCKED: BRANCH   1  18
DOCKED: ATOM     18  N   UNL     1     140.325  71.850 223.399 -0.07 +0.09    -0.648 NA 
DOCKED: BRANCH  18  19
DOCKED: ATOM     19  C   UNL     1     140.172  70.583 224.110 -0.31 +0.01    -0.080 C  
DOCKED: BRANCH  19  20
DOCKED: ATOM     20  C   UNL     1     140.437  70.732 225.593 -0.52 +0.01    -0.048 A  
DOCKED: ATOM     21  C   UNL     1     141.053  71.909 226.055 -0.60 -0.00    +0.003 A  
DOCKED: ATOM     22  C   UNL     1     140.183  69.686 226.518 -0.49 -0.01    +0.054 A  
DOCKED: ATOM     23  C   UNL     1     141.393  72.055 227.402 -0.80 -0.00    +0.000 A  
DOCKED: ATOM     24  C   UNL     1     140.495  69.861 227.875 -0.61 -0.00    +0.020 A  
DOCKED: ATOM     25  C   UNL     1     141.103  71.037 228.312 -0.65 -0.00    +0.001 A  
DOCKED: BRANCH  22  26
DOCKED: ATOM     26  C   UNL     1     139.634  68.419 226.098 -0.50 -0.01    +0.099 C  
DOCKED: ATOM     27  N   UNL     1     139.195  67.402 225.761 -0.90 -0.01    -0.192 NA 
DOCKED: ENDBRANCH  22  26
DOCKED: ENDBRANCH  19  20
DOCKED: ENDBRANCH  18  19
DOCKED: ENDBRANCH   1  18
DOCKED: TORSDOF 9
DOCKED: TER
DOCKED: ENDMDL
________________________________________________________________________________


    FINAL DOCKED STATE:
    ________________________


Run:   9 / 20
Time taken for this run:   0.047s

DOCKED: MODEL        9
DOCKED: USER    Run = 9
DOCKED: USER
DOCKED: USER    Estimated Free Energy of Binding    =  -8.09 kcal/mol  [=(1)+(2)+(3)-(4)]
DOCKED: USER
DOCKED: USER    (1) Final Intermolecular Energy     = -10.77 kcal/mol
DOCKED: USER        vdW + Hbond + desolv Energy     = -10.88 kcal/mol
DOCKED: USER        Electrostatic Energy            =  +0.10 kcal/mol
DOCKED: USER        Moving Ligand-Fixed Receptor    = -10.77 kcal/mol
DOCKED: USER        Moving Ligand-Moving Receptor   =  +0.00 kcal/mol
DOCKED: USER    (2) Final Total Internal Energy     =  -1.44 kcal/mol
DOCKED: USER    (3) Torsional Free Energy           =  +2.68 kcal/mol
DOCKED: USER    (4) Unbound System's Energy         =  -1.44 kcal/mol
DOCKED: USER
DOCKED: USER
DOCKED: REMARK SMILES N#Cc1ccccc1C[N-]C(=O)C/N=C(\O)c1ccc2ccccc2n1
DOCKED: REMARK SMILES IDX 11 1 12 2 13 3 14 4 15 5 16 6 17 8 26 9 18 10 25 11 19 12
DOCKED: REMARK SMILES IDX 24 13 20 14 23 15 21 16 22 17 10 18 9 19 8 20 7 21 3 22 6 23
DOCKED: REMARK SMILES IDX 4 24 5 25 2 26 1 27
DOCKED: REMARK H PARENT 16 7
DOCKED: USER                              x       y       z     vdW  Elec       q    Type
DOCKED: USER                           _______ _______ _______ _____ _____    ______ ____
DOCKED: ROOT
DOCKED: ATOM      1  C   UNL     1     139.811  71.902 221.948 -0.23 -0.01    +0.073 C  
DOCKED: ATOM      2  O   UNL     1     138.760  71.451 221.422 -0.05 +0.06    -0.318 OA 
DOCKED: ENDROOT
DOCKED: BRANCH   1   3
DOCKED: ATOM      3  C   UNL     1     140.884  72.472 221.060 -0.16 -0.03    +0.201 C  
DOCKED: BRANCH   3   4
DOCKED: ATOM      4  N   UNL     1     141.277  73.811 221.492 -0.31 +0.03    -0.244 NA 
DOCKED: BRANCH   4   5
DOCKED: ATOM      5  C   UNL     1     140.476  74.784 221.829 -0.11 -0.03    +0.233 C  
DOCKED: BRANCH   5   6
DOCKED: ATOM      6  O   UNL     1     139.198  74.545 222.338 -0.56 +0.11    -0.492 OA 
DOCKED: ATOM      7  H   UNL     1     138.917  73.666 222.748 -0.47 -0.12    +0.295 HD 
DOCKED: ENDBRANCH   5   6
DOCKED: BRANCH   5   8
DOCKED: ATOM      8  C   UNL     1     140.921  76.181 221.679 -0.31 -0.04    +0.125 A  
DOCKED: ATOM      9  N   UNL     1     140.997  76.975 222.784 -0.24 +0.08    -0.243 NA 
DOCKED: ATOM     10  C   UNL     1     141.270  76.708 220.423 -0.25 -0.02    +0.035 A  
DOCKED: ATOM     11  C   UNL     1     141.421  78.266 222.718 -0.45 -0.03    +0.071 A  
DOCKED: ATOM     12  C   UNL     1     141.708  78.029 220.325 -0.30 -0.01    +0.013 A  
DOCKED: ATOM     13  C   UNL     1     141.497  79.041 223.881 -0.59 -0.01    +0.029 A  
DOCKED: ATOM     14  C   UNL     1     141.793  78.823 221.474 -0.40 -0.00    +0.000 A  
DOCKED: ATOM     15  C   UNL     1     141.948  80.364 223.810 -0.62 -0.00    +0.002 A  
DOCKED: ATOM     16  C   UNL     1     142.240  80.152 221.412 -0.39 -0.00    +0.010 A  
DOCKED: ATOM     17  C   UNL     1     142.318  80.917 222.580 -0.55 -0.00    +0.001 A  
DOCKED: ENDBRANCH   5   8
DOCKED: ENDBRANCH   4   5
DOCKED: ENDBRANCH   3   4
DOCKED: ENDBRANCH   1   3
DOCKED: BRANCH   1  18
DOCKED: ATOM     18  N   UNL     1     139.946  71.832 223.374 -0.07 +0.12    -0.648 NA 
DOCKED: BRANCH  18  19
DOCKED: ATOM     19  C   UNL     1     140.969  71.104 224.120 -0.11 +0.01    -0.080 C  
DOCKED: BRANCH  19  20
DOCKED: ATOM     20  C   UNL     1     140.608  70.963 225.584 -0.54 +0.01    -0.048 A  
DOCKED: ATOM     21  C   UNL     1     141.077  71.930 226.491 -0.71 -0.00    +0.003 A  
DOCKED: ATOM     22  C   UNL     1     139.905  69.838 226.087 -0.45 -0.01    +0.054 A  
DOCKED: ATOM     23  C   UNL     1     140.840  71.796 227.861 -0.83 -0.00    +0.000 A  
DOCKED: ATOM     24  C   UNL     1     139.641  69.736 227.462 -0.55 -0.00    +0.020 A  
DOCKED: ATOM     25  C   UNL     1     140.113  70.707 228.344 -0.62 -0.00    +0.001 A  
DOCKED: BRANCH  22  26
DOCKED: ATOM     26  C   UNL     1     139.471  68.766 225.224 -0.38 -0.01    +0.099 C  
DOCKED: ATOM     27  N   UNL     1     139.123  67.905 224.532 -0.62 +0.01    -0.192 NA 
DOCKED: ENDBRANCH  22  26
DOCKED: ENDBRANCH  19  20
DOCKED: ENDBRANCH  18  19
DOCKED: ENDBRANCH   1  18
DOCKED: TORSDOF 9
DOCKED: TER
DOCKED: ENDMDL
________________________________________________________________________________


    FINAL DOCKED STATE:
    ________________________


Run:   10 / 20
Time taken for this run:   0.047s

DOCKED: MODEL        10
DOCKED: USER    Run = 10
DOCKED: USER
DOCKED: USER    Estimated Free Energy of Binding    =  -6.40 kcal/mol  [=(1)+(2)+(3)-(4)]
DOCKED: USER
DOCKED: USER    (1) Final Intermolecular Energy     =  -9.09 kcal/mol
DOCKED: USER        vdW + Hbond + desolv Energy     =  -9.39 kcal/mol
DOCKED: USER        Electrostatic Energy            =  +0.30 kcal/mol
DOCKED: USER        Moving Ligand-Fixed Receptor    =  -9.09 kcal/mol
DOCKED: USER        Moving Ligand-Moving Receptor   =  +0.00 kcal/mol
DOCKED: USER    (2) Final Total Internal Energy     =  -1.56 kcal/mol
DOCKED: USER    (3) Torsional Free Energy           =  +2.68 kcal/mol
DOCKED: USER    (4) Unbound System's Energy         =  -1.56 kcal/mol
DOCKED: USER
DOCKED: USER
DOCKED: REMARK SMILES N#Cc1ccccc1C[N-]C(=O)C/N=C(\O)c1ccc2ccccc2n1
DOCKED: REMARK SMILES IDX 11 1 12 2 13 3 14 4 15 5 16 6 17 8 26 9 18 10 25 11 19 12
DOCKED: REMARK SMILES IDX 24 13 20 14 23 15 21 16 22 17 10 18 9 19 8 20 7 21 3 22 6 23
DOCKED: REMARK SMILES IDX 4 24 5 25 2 26 1 27
DOCKED: REMARK H PARENT 16 7
DOCKED: USER                              x       y       z     vdW  Elec       q    Type
DOCKED: USER                           _______ _______ _______ _____ _____    ______ ____
DOCKED: ROOT
DOCKED: ATOM      1  C   UNL     1     140.555  75.292 221.118 -0.27 -0.02    +0.073 C  
DOCKED: ATOM      2  O   UNL     1     141.488  75.121 221.947 -0.36 +0.07    -0.318 OA 
DOCKED: ENDROOT
DOCKED: BRANCH   1   3
DOCKED: ATOM      3  C   UNL     1     139.327  74.428 221.215 -0.16 -0.04    +0.201 C  
DOCKED: BRANCH   3   4
DOCKED: ATOM      4  N   UNL     1     139.431  73.474 222.317 -0.56 +0.05    -0.244 NA 
DOCKED: BRANCH   4   5
DOCKED: ATOM      5  C   UNL     1     140.306  72.514 222.431 -0.22 -0.02    +0.233 C  
DOCKED: BRANCH   5   6
DOCKED: ATOM      6  O   UNL     1     141.364  72.368 221.532 -0.10 +0.05    -0.492 OA 
DOCKED: ATOM      7  H   UNL     1     141.907  73.144 221.180 +0.12 -0.04    +0.295 HD 
DOCKED: ENDBRANCH   5   6
DOCKED: BRANCH   5   8
DOCKED: ATOM      8  C   UNL     1     140.192  71.550 223.540 -0.33 -0.02    +0.125 A  
DOCKED: ATOM      9  N   UNL     1     140.696  71.881 224.762 -0.27 +0.03    -0.243 NA 
DOCKED: ATOM     10  C   UNL     1     139.571  70.301 223.363 -0.27 -0.01    +0.035 A  
DOCKED: ATOM     11  C   UNL     1     140.603  71.047 225.832 -0.54 -0.01    +0.071 A  
DOCKED: ATOM     12  C   UNL     1     139.462  69.423 224.443 -0.33 -0.00    +0.013 A  
DOCKED: ATOM     13  C   UNL     1     141.123  71.434 227.072 -0.71 -0.00    +0.029 A  
DOCKED: ATOM     14  C   UNL     1     139.974  69.790 225.694 -0.47 -0.00    +0.000 A  
DOCKED: ATOM     15  C   UNL     1     141.013  70.578 228.174 -0.62 -0.00    +0.002 A  
DOCKED: ATOM     16  C   UNL     1     139.871  68.936 226.803 -0.57 -0.00    +0.010 A  
DOCKED: ATOM     17  C   UNL     1     140.389  69.334 228.040 -0.64 -0.00    +0.001 A  
DOCKED: ENDBRANCH   5   8
DOCKED: ENDBRANCH   4   5
DOCKED: ENDBRANCH   3   4
DOCKED: ENDBRANCH   1   3
DOCKED: BRANCH   1  18
DOCKED: ATOM     18  N   UNL     1     140.716  76.293 220.105 +0.05 +0.22    -0.648 NA 
DOCKED: BRANCH  18  19
DOCKED: ATOM     19  C   UNL     1     140.228  77.669 220.151 -0.13 +0.03    -0.080 C  
DOCKED: BRANCH  19  20
DOCKED: ATOM     20  C   UNL     1     140.694  78.392 221.397 -0.27 +0.02    -0.048 A  
DOCKED: ATOM     21  C   UNL     1     141.963  78.996 221.393 -0.35 -0.00    +0.003 A  
DOCKED: ATOM     22  C   UNL     1     139.942  78.390 222.601 -0.34 -0.01    +0.054 A  
DOCKED: ATOM     23  C   UNL     1     142.469  79.602 222.547 -0.58 -0.00    +0.000 A  
DOCKED: ATOM     24  C   UNL     1     140.445  79.034 223.741 -0.42 -0.00    +0.020 A  
DOCKED: ATOM     25  C   UNL     1     141.706  79.631 223.715 -0.61 -0.00    +0.001 A  
DOCKED: BRANCH  22  26
DOCKED: ATOM     26  C   UNL     1     138.671  77.712 222.700 -0.25 -0.02    +0.099 C  
DOCKED: ATOM     27  N   UNL     1     137.653  77.167 222.779 -0.19 +0.03    -0.192 NA 
DOCKED: ENDBRANCH  22  26
DOCKED: ENDBRANCH  19  20
DOCKED: ENDBRANCH  18  19
DOCKED: ENDBRANCH   1  18
DOCKED: TORSDOF 9
DOCKED: TER
DOCKED: ENDMDL
________________________________________________________________________________


    FINAL DOCKED STATE:
    ________________________


Run:   11 / 20
Time taken for this run:   0.047s

DOCKED: MODEL        11
DOCKED: USER    Run = 11
DOCKED: USER
DOCKED: USER    Estimated Free Energy of Binding    =  -7.79 kcal/mol  [=(1)+(2)+(3)-(4)]
DOCKED: USER
DOCKED: USER    (1) Final Intermolecular Energy     = -10.48 kcal/mol
DOCKED: USER        vdW + Hbond + desolv Energy     = -10.79 kcal/mol
DOCKED: USER        Electrostatic Energy            =  +0.32 kcal/mol
DOCKED: USER        Moving Ligand-Fixed Receptor    = -10.48 kcal/mol
DOCKED: USER        Moving Ligand-Moving Receptor   =  +0.00 kcal/mol
DOCKED: USER    (2) Final Total Internal Energy     =  -1.21 kcal/mol
DOCKED: USER    (3) Torsional Free Energy           =  +2.68 kcal/mol
DOCKED: USER    (4) Unbound System's Energy         =  -1.21 kcal/mol
DOCKED: USER
DOCKED: USER
DOCKED: REMARK SMILES N#Cc1ccccc1C[N-]C(=O)C/N=C(\O)c1ccc2ccccc2n1
DOCKED: REMARK SMILES IDX 11 1 12 2 13 3 14 4 15 5 16 6 17 8 26 9 18 10 25 11 19 12
DOCKED: REMARK SMILES IDX 24 13 20 14 23 15 21 16 22 17 10 18 9 19 8 20 7 21 3 22 6 23
DOCKED: REMARK SMILES IDX 4 24 5 25 2 26 1 27
DOCKED: REMARK H PARENT 16 7
DOCKED: USER                              x       y       z     vdW  Elec       q    Type
DOCKED: USER                           _______ _______ _______ _____ _____    ______ ____
DOCKED: ROOT
DOCKED: ATOM      1  C   UNL     1     140.608  74.995 221.590 -0.31 -0.01    +0.073 C  
DOCKED: ATOM      2  O   UNL     1     139.618  75.164 222.349 -0.63 +0.04    -0.318 OA 
DOCKED: ENDROOT
DOCKED: BRANCH   1   3
DOCKED: ATOM      3  C   UNL     1     141.026  73.593 221.238 -0.21 -0.03    +0.201 C  
DOCKED: BRANCH   3   4
DOCKED: ATOM      4  N   UNL     1     140.893  72.694 222.383 -0.39 +0.01    -0.244 NA 
DOCKED: BRANCH   4   5
DOCKED: ATOM      5  C   UNL     1     139.781  72.218 222.869 -0.20 -0.04    +0.233 C  
DOCKED: BRANCH   5   6
DOCKED: ATOM      6  O   UNL     1     138.533  72.694 222.461 -0.06 +0.16    -0.492 OA 
DOCKED: ATOM      7  H   UNL     1     138.166  73.596 222.727 -0.48 -0.15    +0.295 HD 
DOCKED: ENDBRANCH   5   6
DOCKED: BRANCH   5   8
DOCKED: ATOM      8  C   UNL     1     139.825  71.142 223.875 -0.34 -0.02    +0.125 A  
DOCKED: ATOM      9  N   UNL     1     140.383  71.393 225.092 -0.32 +0.04    -0.243 NA 
DOCKED: ATOM     10  C   UNL     1     139.302  69.865 223.604 -0.26 -0.01    +0.035 A  
DOCKED: ATOM     11  C   UNL     1     140.435  70.451 226.072 -0.51 -0.01    +0.071 A  
DOCKED: ATOM     12  C   UNL     1     139.342  68.877 224.590 -0.35 -0.00    +0.013 A  
DOCKED: ATOM     13  C   UNL     1     141.005  70.757 227.313 -0.63 -0.00    +0.029 A  
DOCKED: ATOM     14  C   UNL     1     139.906  69.162 225.839 -0.49 -0.00    +0.000 A  
DOCKED: ATOM     15  C   UNL     1     141.044  69.789 228.322 -0.58 -0.00    +0.002 A  
DOCKED: ATOM     16  C   UNL     1     139.952  68.196 226.855 -0.64 -0.00    +0.010 A  
DOCKED: ATOM     17  C   UNL     1     140.519  68.513 228.094 -0.67 -0.00    +0.001 A  
DOCKED: ENDBRANCH   5   8
DOCKED: ENDBRANCH   4   5
DOCKED: ENDBRANCH   3   4
DOCKED: ENDBRANCH   1   3
DOCKED: BRANCH   1  18
DOCKED: ATOM     18  N   UNL     1     141.306  76.152 221.109 -0.00 +0.27    -0.648 NA 
DOCKED: BRANCH  18  19
DOCKED: ATOM     19  C   UNL     1     140.752  77.489 220.918 -0.24 +0.03    -0.080 C  
DOCKED: BRANCH  19  20
DOCKED: ATOM     20  C   UNL     1     141.380  78.500 221.855 -0.38 +0.02    -0.048 A  
DOCKED: ATOM     21  C   UNL     1     141.376  78.235 223.236 -0.53 -0.00    +0.003 A  
DOCKED: ATOM     22  C   UNL     1     141.877  79.749 221.400 -0.38 -0.02    +0.054 A  
DOCKED: ATOM     23  C   UNL     1     141.868  79.176 224.144 -0.56 -0.00    +0.000 A  
DOCKED: ATOM     24  C   UNL     1     142.404  80.668 222.320 -0.53 -0.01    +0.020 A  
DOCKED: ATOM     25  C   UNL     1     142.393  80.385 223.686 -0.66 -0.00    +0.001 A  
DOCKED: BRANCH  22  26
DOCKED: ATOM     26  C   UNL     1     141.831  80.122 220.007 -0.27 -0.05    +0.099 C  
DOCKED: ATOM     27  N   UNL     1     141.796  80.421 218.889 -0.19 +0.11    -0.192 NA 
DOCKED: ENDBRANCH  22  26
DOCKED: ENDBRANCH  19  20
DOCKED: ENDBRANCH  18  19
DOCKED: ENDBRANCH   1  18
DOCKED: TORSDOF 9
DOCKED: TER
DOCKED: ENDMDL
________________________________________________________________________________


    FINAL DOCKED STATE:
    ________________________


Run:   12 / 20
Time taken for this run:   0.047s

DOCKED: MODEL        12
DOCKED: USER    Run = 12
DOCKED: USER
DOCKED: USER    Estimated Free Energy of Binding    =  -8.73 kcal/mol  [=(1)+(2)+(3)-(4)]
DOCKED: USER
DOCKED: USER    (1) Final Intermolecular Energy     = -11.41 kcal/mol
DOCKED: USER        vdW + Hbond + desolv Energy     = -11.47 kcal/mol
DOCKED: USER        Electrostatic Energy            =  +0.05 kcal/mol
DOCKED: USER        Moving Ligand-Fixed Receptor    = -11.41 kcal/mol
DOCKED: USER        Moving Ligand-Moving Receptor   =  +0.00 kcal/mol
DOCKED: USER    (2) Final Total Internal Energy     =  -1.31 kcal/mol
DOCKED: USER    (3) Torsional Free Energy           =  +2.68 kcal/mol
DOCKED: USER    (4) Unbound System's Energy         =  -1.31 kcal/mol
DOCKED: USER
DOCKED: USER
DOCKED: REMARK SMILES N#Cc1ccccc1C[N-]C(=O)C/N=C(\O)c1ccc2ccccc2n1
DOCKED: REMARK SMILES IDX 11 1 12 2 13 3 14 4 15 5 16 6 17 8 26 9 18 10 25 11 19 12
DOCKED: REMARK SMILES IDX 24 13 20 14 23 15 21 16 22 17 10 18 9 19 8 20 7 21 3 22 6 23
DOCKED: REMARK SMILES IDX 4 24 5 25 2 26 1 27
DOCKED: REMARK H PARENT 16 7
DOCKED: USER                              x       y       z     vdW  Elec       q    Type
DOCKED: USER                           _______ _______ _______ _____ _____    ______ ____
DOCKED: ROOT
DOCKED: ATOM      1  C   UNL     1     140.157  72.036 222.072 -0.26 -0.01    +0.073 C  
DOCKED: ATOM      2  O   UNL     1     138.939  71.920 221.776 -0.09 +0.07    -0.318 OA 
DOCKED: ENDROOT
DOCKED: BRANCH   1   3
DOCKED: ATOM      3  C   UNL     1     141.109  72.587 221.045 -0.17 -0.03    +0.201 C  
DOCKED: BRANCH   3   4
DOCKED: ATOM      4  N   UNL     1     141.464  73.974 221.336 -0.25 +0.03    -0.244 NA 
DOCKED: BRANCH   4   5
DOCKED: ATOM      5  C   UNL     1     140.662  74.902 221.780 -0.13 -0.03    +0.233 C  
DOCKED: BRANCH   5   6
DOCKED: ATOM      6  O   UNL     1     139.439  74.596 222.381 -0.60 +0.08    -0.492 OA 
DOCKED: ATOM      7  H   UNL     1     139.272  73.747 222.902 -0.43 -0.10    +0.295 HD 
DOCKED: ENDBRANCH   5   6
DOCKED: BRANCH   5   8
DOCKED: ATOM      8  C   UNL     1     141.048  76.319 221.657 -0.30 -0.05    +0.125 A  
DOCKED: ATOM      9  N   UNL     1     141.053  77.105 222.770 -0.26 +0.09    -0.243 NA 
DOCKED: ATOM     10  C   UNL     1     141.412  76.873 220.417 -0.27 -0.02    +0.035 A  
DOCKED: ATOM     11  C   UNL     1     141.420  78.414 222.728 -0.46 -0.03    +0.071 A  
DOCKED: ATOM     12  C   UNL     1     141.792  78.214 220.343 -0.31 -0.01    +0.013 A  
DOCKED: ATOM     13  C   UNL     1     141.423  79.180 223.899 -0.57 -0.01    +0.029 A  
DOCKED: ATOM     14  C   UNL     1     141.805  79.000 221.502 -0.41 -0.00    +0.000 A  
DOCKED: ATOM     15  C   UNL     1     141.815  80.523 223.854 -0.59 -0.00    +0.002 A  
DOCKED: ATOM     16  C   UNL     1     142.193  80.348 221.465 -0.42 -0.00    +0.010 A  
DOCKED: ATOM     17  C   UNL     1     142.199  81.104 222.641 -0.54 -0.00    +0.001 A  
DOCKED: ENDBRANCH   5   8
DOCKED: ENDBRANCH   4   5
DOCKED: ENDBRANCH   3   4
DOCKED: ENDBRANCH   1   3
DOCKED: BRANCH   1  18
DOCKED: ATOM     18  N   UNL     1     140.586  71.615 223.374 -0.03 +0.07    -0.648 NA 
DOCKED: BRANCH  18  19
DOCKED: ATOM     19  C   UNL     1     139.960  70.597 224.213 -0.36 +0.01    -0.080 C  
DOCKED: BRANCH  19  20
DOCKED: ATOM     20  C   UNL     1     140.324  70.767 225.674 -0.52 +0.01    -0.048 A  
DOCKED: ATOM     21  C   UNL     1     140.933  71.966 226.083 -0.52 -0.00    +0.003 A  
DOCKED: ATOM     22  C   UNL     1     140.168  69.721 226.620 -0.50 -0.01    +0.054 A  
DOCKED: ATOM     23  C   UNL     1     141.361  72.134 227.403 -0.81 -0.00    +0.000 A  
DOCKED: ATOM     24  C   UNL     1     140.568  69.917 227.951 -0.61 -0.00    +0.020 A  
DOCKED: ATOM     25  C   UNL     1     141.168  71.115 228.337 -0.65 -0.00    +0.001 A  
DOCKED: BRANCH  22  26
DOCKED: ATOM     26  C   UNL     1     139.631  68.434 226.248 -0.51 -0.01    +0.099 C  
DOCKED: ATOM     27  N   UNL     1     139.201  67.401 225.950 -0.89 -0.00    -0.192 NA 
DOCKED: ENDBRANCH  22  26
DOCKED: ENDBRANCH  19  20
DOCKED: ENDBRANCH  18  19
DOCKED: ENDBRANCH   1  18
DOCKED: TORSDOF 9
DOCKED: TER
DOCKED: ENDMDL
________________________________________________________________________________


    FINAL DOCKED STATE:
    ________________________


Run:   13 / 20
Time taken for this run:   0.047s

DOCKED: MODEL        13
DOCKED: USER    Run = 13
DOCKED: USER
DOCKED: USER    Estimated Free Energy of Binding    =  -7.68 kcal/mol  [=(1)+(2)+(3)-(4)]
DOCKED: USER
DOCKED: USER    (1) Final Intermolecular Energy     = -10.36 kcal/mol
DOCKED: USER        vdW + Hbond + desolv Energy     = -10.55 kcal/mol
DOCKED: USER        Electrostatic Energy            =  +0.19 kcal/mol
DOCKED: USER        Moving Ligand-Fixed Receptor    = -10.36 kcal/mol
DOCKED: USER        Moving Ligand-Moving Receptor   =  +0.00 kcal/mol
DOCKED: USER    (2) Final Total Internal Energy     =  -1.30 kcal/mol
DOCKED: USER    (3) Torsional Free Energy           =  +2.68 kcal/mol
DOCKED: USER    (4) Unbound System's Energy         =  -1.30 kcal/mol
DOCKED: USER
DOCKED: USER
DOCKED: REMARK SMILES N#Cc1ccccc1C[N-]C(=O)C/N=C(\O)c1ccc2ccccc2n1
DOCKED: REMARK SMILES IDX 11 1 12 2 13 3 14 4 15 5 16 6 17 8 26 9 18 10 25 11 19 12
DOCKED: REMARK SMILES IDX 24 13 20 14 23 15 21 16 22 17 10 18 9 19 8 20 7 21 3 22 6 23
DOCKED: REMARK SMILES IDX 4 24 5 25 2 26 1 27
DOCKED: REMARK H PARENT 16 7
DOCKED: USER                              x       y       z     vdW  Elec       q    Type
DOCKED: USER                           _______ _______ _______ _____ _____    ______ ____
DOCKED: ROOT
DOCKED: ATOM      1  C   UNL     1     138.805  71.994 222.569 -0.19 -0.02    +0.073 C  
DOCKED: ATOM      2  O   UNL     1     137.619  72.051 222.150 -0.07 +0.08    -0.318 OA 
DOCKED: ENDROOT
DOCKED: BRANCH   1   3
DOCKED: ATOM      3  C   UNL     1     139.924  72.393 221.646 -0.19 -0.03    +0.201 C  
DOCKED: BRANCH   3   4
DOCKED: ATOM      4  N   UNL     1     140.405  73.741 221.942 -0.74 +0.02    -0.244 NA 
DOCKED: BRANCH   4   5
DOCKED: ATOM      5  C   UNL     1     139.688  74.830 221.972 -0.18 -0.04    +0.233 C  
DOCKED: BRANCH   5   6
DOCKED: ATOM      6  O   UNL     1     138.306  74.799 222.169 -0.12 +0.15    -0.492 OA 
DOCKED: ATOM      7  H   UNL     1     137.840  74.113 222.746 -0.47 -0.15    +0.295 HD 
DOCKED: ENDBRANCH   5   6
DOCKED: BRANCH   5   8
DOCKED: ATOM      8  C   UNL     1     140.343  76.139 221.801 -0.31 -0.03    +0.125 A  
DOCKED: ATOM      9  N   UNL     1     140.122  77.117 222.724 -0.21 +0.05    -0.243 NA 
DOCKED: ATOM     10  C   UNL     1     141.190  76.397 220.709 -0.27 -0.01    +0.035 A  
DOCKED: ATOM     11  C   UNL     1     140.713  78.339 222.637 -0.40 -0.02    +0.071 A  
DOCKED: ATOM     12  C   UNL     1     141.810  77.642 220.592 -0.31 -0.01    +0.013 A  
DOCKED: ATOM     13  C   UNL     1     140.470  79.309 223.615 -0.46 -0.01    +0.029 A  
DOCKED: ATOM     14  C   UNL     1     141.581  78.627 221.560 -0.39 -0.00    +0.000 A  
DOCKED: ATOM     15  C   UNL     1     141.091  80.560 223.529 -0.51 -0.00    +0.002 A  
DOCKED: ATOM     16  C   UNL     1     142.197  79.886 221.479 -0.40 -0.00    +0.010 A  
DOCKED: ATOM     17  C   UNL     1     141.952  80.847 222.465 -0.54 -0.00    +0.001 A  
DOCKED: ENDBRANCH   5   8
DOCKED: ENDBRANCH   4   5
DOCKED: ENDBRANCH   3   4
DOCKED: ENDBRANCH   1   3
DOCKED: BRANCH   1  18
DOCKED: ATOM     18  N   UNL     1     139.036  71.529 223.906 +0.02 +0.18    -0.648 NA 
DOCKED: BRANCH  18  19
DOCKED: ATOM     19  C   UNL     1     140.330  71.244 224.520 -0.43 +0.01    -0.080 C  
DOCKED: BRANCH  19  20
DOCKED: ATOM     20  C   UNL     1     140.264  70.047 225.445 -0.44 +0.01    -0.048 A  
DOCKED: ATOM     21  C   UNL     1     139.719  68.846 224.957 -0.36 -0.00    +0.003 A  
DOCKED: ATOM     22  C   UNL     1     140.635  70.124 226.813 -0.53 -0.01    +0.054 A  
DOCKED: ATOM     23  C   UNL     1     139.562  67.741 225.798 -0.58 -0.00    +0.000 A  
DOCKED: ATOM     24  C   UNL     1     140.507  68.994 227.636 -0.62 -0.00    +0.020 A  
DOCKED: ATOM     25  C   UNL     1     139.966  67.812 227.132 -0.64 -0.00    +0.001 A  
DOCKED: BRANCH  22  26
DOCKED: ATOM     26  C   UNL     1     141.119  71.350 227.400 -0.64 -0.02    +0.099 C  
DOCKED: ATOM     27  N   UNL     1     141.509  72.334 227.870 -0.53 +0.04    -0.192 NA 
DOCKED: ENDBRANCH  22  26
DOCKED: ENDBRANCH  19  20
DOCKED: ENDBRANCH  18  19
DOCKED: ENDBRANCH   1  18
DOCKED: TORSDOF 9
DOCKED: TER
DOCKED: ENDMDL
________________________________________________________________________________


    FINAL DOCKED STATE:
    ________________________


Run:   14 / 20
Time taken for this run:   0.047s

DOCKED: MODEL        14
DOCKED: USER    Run = 14
DOCKED: USER
DOCKED: USER    Estimated Free Energy of Binding    =  -8.79 kcal/mol  [=(1)+(2)+(3)-(4)]
DOCKED: USER
DOCKED: USER    (1) Final Intermolecular Energy     = -11.47 kcal/mol
DOCKED: USER        vdW + Hbond + desolv Energy     = -11.52 kcal/mol
DOCKED: USER        Electrostatic Energy            =  +0.05 kcal/mol
DOCKED: USER        Moving Ligand-Fixed Receptor    = -11.47 kcal/mol
DOCKED: USER        Moving Ligand-Moving Receptor   =  +0.00 kcal/mol
DOCKED: USER    (2) Final Total Internal Energy     =  -1.29 kcal/mol
DOCKED: USER    (3) Torsional Free Energy           =  +2.68 kcal/mol
DOCKED: USER    (4) Unbound System's Energy         =  -1.29 kcal/mol
DOCKED: USER
DOCKED: USER
DOCKED: REMARK SMILES N#Cc1ccccc1C[N-]C(=O)C/N=C(\O)c1ccc2ccccc2n1
DOCKED: REMARK SMILES IDX 11 1 12 2 13 3 14 4 15 5 16 6 17 8 26 9 18 10 25 11 19 12
DOCKED: REMARK SMILES IDX 24 13 20 14 23 15 21 16 22 17 10 18 9 19 8 20 7 21 3 22 6 23
DOCKED: REMARK SMILES IDX 4 24 5 25 2 26 1 27
DOCKED: REMARK H PARENT 16 7
DOCKED: USER                              x       y       z     vdW  Elec       q    Type
DOCKED: USER                           _______ _______ _______ _____ _____    ______ ____
DOCKED: ROOT
DOCKED: ATOM      1  C   UNL     1     140.044  72.120 222.110 -0.26 -0.01    +0.073 C  
DOCKED: ATOM      2  O   UNL     1     138.820  71.959 221.865 -0.09 +0.07    -0.318 OA 
DOCKED: ENDROOT
DOCKED: BRANCH   1   3
DOCKED: ATOM      3  C   UNL     1     140.929  72.716 221.048 -0.17 -0.03    +0.201 C  
DOCKED: BRANCH   3   4
DOCKED: ATOM      4  N   UNL     1     141.315  74.084 221.381 -0.29 +0.03    -0.244 NA 
DOCKED: BRANCH   4   5
DOCKED: ATOM      5  C   UNL     1     140.523  75.036 221.789 -0.16 -0.03    +0.233 C  
DOCKED: BRANCH   5   6
DOCKED: ATOM      6  O   UNL     1     139.277  74.766 222.361 -0.54 +0.10    -0.492 OA 
DOCKED: ATOM      7  H   UNL     1     139.051  73.893 222.816 -0.48 -0.12    +0.295 HD 
DOCKED: ENDBRANCH   5   6
DOCKED: BRANCH   5   8
DOCKED: ATOM      8  C   UNL     1     140.942  76.443 221.657 -0.30 -0.05    +0.125 A  
DOCKED: ATOM      9  N   UNL     1     140.990  77.229 222.769 -0.27 +0.09    -0.243 NA 
DOCKED: ATOM     10  C   UNL     1     141.296  76.987 220.409 -0.25 -0.02    +0.035 A  
DOCKED: ATOM     11  C   UNL     1     141.390  78.528 222.719 -0.46 -0.03    +0.071 A  
DOCKED: ATOM     12  C   UNL     1     141.709  78.317 220.327 -0.30 -0.01    +0.013 A  
DOCKED: ATOM     13  C   UNL     1     141.438  79.294 223.888 -0.57 -0.01    +0.029 A  
DOCKED: ATOM     14  C   UNL     1     141.766  79.103 221.484 -0.41 -0.00    +0.000 A  
DOCKED: ATOM     15  C   UNL     1     141.863  80.626 223.834 -0.60 -0.00    +0.002 A  
DOCKED: ATOM     16  C   UNL     1     142.188  80.440 221.438 -0.42 -0.00    +0.010 A  
DOCKED: ATOM     17  C   UNL     1     142.237  81.197 222.613 -0.51 -0.00    +0.001 A  
DOCKED: ENDBRANCH   5   8
DOCKED: ENDBRANCH   4   5
DOCKED: ENDBRANCH   3   4
DOCKED: ENDBRANCH   1   3
DOCKED: BRANCH   1  18
DOCKED: ATOM     18  N   UNL     1     140.545  71.709 223.390 -0.04 +0.07    -0.648 NA 
DOCKED: BRANCH  18  19
DOCKED: ATOM     19  C   UNL     1     140.119  70.544 224.160 -0.32 +0.01    -0.080 C  
DOCKED: BRANCH  19  20
DOCKED: ATOM     20  C   UNL     1     140.406  70.708 225.638 -0.52 +0.01    -0.048 A  
DOCKED: ATOM     21  C   UNL     1     141.021  71.893 226.079 -0.62 -0.00    +0.003 A  
DOCKED: ATOM     22  C   UNL     1     140.172  69.669 226.576 -0.50 -0.01    +0.054 A  
DOCKED: ATOM     23  C   UNL     1     141.379  72.054 227.420 -0.80 -0.00    +0.000 A  
DOCKED: ATOM     24  C   UNL     1     140.503  69.859 227.926 -0.61 -0.00    +0.020 A  
DOCKED: ATOM     25  C   UNL     1     141.110  71.043 228.344 -0.65 -0.00    +0.001 A  
DOCKED: BRANCH  22  26
DOCKED: ATOM     26  C   UNL     1     139.626  68.394 226.176 -0.51 -0.01    +0.099 C  
DOCKED: ATOM     27  N   UNL     1     139.186  67.373 225.854 -0.88 -0.00    -0.192 NA 
DOCKED: ENDBRANCH  22  26
DOCKED: ENDBRANCH  19  20
DOCKED: ENDBRANCH  18  19
DOCKED: ENDBRANCH   1  18
DOCKED: TORSDOF 9
DOCKED: TER
DOCKED: ENDMDL
________________________________________________________________________________


    FINAL DOCKED STATE:
    ________________________


Run:   15 / 20
Time taken for this run:   0.047s

DOCKED: MODEL        15
DOCKED: USER    Run = 15
DOCKED: USER
DOCKED: USER    Estimated Free Energy of Binding    =  -8.35 kcal/mol  [=(1)+(2)+(3)-(4)]
DOCKED: USER
DOCKED: USER    (1) Final Intermolecular Energy     = -11.04 kcal/mol
DOCKED: USER        vdW + Hbond + desolv Energy     = -11.09 kcal/mol
DOCKED: USER        Electrostatic Energy            =  +0.06 kcal/mol
DOCKED: USER        Moving Ligand-Fixed Receptor    = -11.04 kcal/mol
DOCKED: USER        Moving Ligand-Moving Receptor   =  +0.00 kcal/mol
DOCKED: USER    (2) Final Total Internal Energy     =  -1.44 kcal/mol
DOCKED: USER    (3) Torsional Free Energy           =  +2.68 kcal/mol
DOCKED: USER    (4) Unbound System's Energy         =  -1.44 kcal/mol
DOCKED: USER
DOCKED: USER
DOCKED: REMARK SMILES N#Cc1ccccc1C[N-]C(=O)C/N=C(\O)c1ccc2ccccc2n1
DOCKED: REMARK SMILES IDX 11 1 12 2 13 3 14 4 15 5 16 6 17 8 26 9 18 10 25 11 19 12
DOCKED: REMARK SMILES IDX 24 13 20 14 23 15 21 16 22 17 10 18 9 19 8 20 7 21 3 22 6 23
DOCKED: REMARK SMILES IDX 4 24 5 25 2 26 1 27
DOCKED: REMARK H PARENT 16 7
DOCKED: USER                              x       y       z     vdW  Elec       q    Type
DOCKED: USER                           _______ _______ _______ _____ _____    ______ ____
DOCKED: ROOT
DOCKED: ATOM      1  C   UNL     1     140.833  71.766 222.053 -0.23 -0.01    +0.073 C  
DOCKED: ATOM      2  O   UNL     1     140.384  70.791 221.395 -0.09 +0.05    -0.318 OA 
DOCKED: ENDROOT
DOCKED: BRANCH   1   3
DOCKED: ATOM      3  C   UNL     1     141.754  72.743 221.372 -0.11 -0.02    +0.201 C  
DOCKED: BRANCH   3   4
DOCKED: ATOM      4  N   UNL     1     141.021  73.897 220.857 -0.16 +0.04    -0.244 NA 
DOCKED: BRANCH   4   5
DOCKED: ATOM      5  C   UNL     1     140.419  74.811 221.565 -0.23 -0.04    +0.233 C  
DOCKED: BRANCH   5   6
DOCKED: ATOM      6  O   UNL     1     139.349  74.505 222.409 -0.56 +0.09    -0.492 OA 
DOCKED: ATOM      7  H   UNL     1     139.303  73.665 222.968 -0.42 -0.10    +0.295 HD 
DOCKED: ENDBRANCH   5   6
DOCKED: BRANCH   5   8
DOCKED: ATOM      8  C   UNL     1     140.872  76.211 221.487 -0.29 -0.04    +0.125 A  
DOCKED: ATOM      9  N   UNL     1     140.966  76.943 222.633 -0.27 +0.09    -0.243 NA 
DOCKED: ATOM     10  C   UNL     1     141.211  76.804 220.258 -0.23 -0.02    +0.035 A  
DOCKED: ATOM     11  C   UNL     1     141.399  78.233 222.633 -0.44 -0.03    +0.071 A  
DOCKED: ATOM     12  C   UNL     1     141.657  78.126 220.227 -0.29 -0.01    +0.013 A  
DOCKED: ATOM     13  C   UNL     1     141.493  78.942 223.835 -0.59 -0.01    +0.029 A  
DOCKED: ATOM     14  C   UNL     1     141.761  78.854 221.417 -0.40 -0.00    +0.000 A  
DOCKED: ATOM     15  C   UNL     1     141.953  80.264 223.832 -0.62 -0.00    +0.002 A  
DOCKED: ATOM     16  C   UNL     1     142.217  80.182 221.423 -0.40 -0.00    +0.010 A  
DOCKED: ATOM     17  C   UNL     1     142.314  80.881 222.630 -0.57 -0.00    +0.001 A  
DOCKED: ENDBRANCH   5   8
DOCKED: ENDBRANCH   4   5
DOCKED: ENDBRANCH   3   4
DOCKED: ENDBRANCH   1   3
DOCKED: BRANCH   1  18
DOCKED: ATOM     18  N   UNL     1     140.459  71.891 223.432 -0.06 +0.07    -0.648 NA 
DOCKED: BRANCH  18  19
DOCKED: ATOM     19  C   UNL     1     139.598  70.986 224.188 -0.37 +0.02    -0.080 C  
DOCKED: BRANCH  19  20
DOCKED: ATOM     20  C   UNL     1     140.091  70.791 225.606 -0.50 +0.01    -0.048 A  
DOCKED: ATOM     21  C   UNL     1     140.665  71.884 226.279 -0.59 -0.00    +0.003 A  
DOCKED: ATOM     22  C   UNL     1     140.091  69.521 226.242 -0.47 -0.01    +0.054 A  
DOCKED: ATOM     23  C   UNL     1     141.209  71.731 227.556 -0.79 -0.00    +0.000 A  
DOCKED: ATOM     24  C   UNL     1     140.606  69.390 227.540 -0.60 -0.00    +0.020 A  
DOCKED: ATOM     25  C   UNL     1     141.169  70.488 228.190 -0.55 -0.00    +0.001 A  
DOCKED: BRANCH  22  26
DOCKED: ATOM     26  C   UNL     1     139.598  68.340 225.575 -0.45 -0.01    +0.099 C  
DOCKED: ATOM     27  N   UNL     1     139.203  67.391 225.042 -0.83 -0.01    -0.192 NA 
DOCKED: ENDBRANCH  22  26
DOCKED: ENDBRANCH  19  20
DOCKED: ENDBRANCH  18  19
DOCKED: ENDBRANCH   1  18
DOCKED: TORSDOF 9
DOCKED: TER
DOCKED: ENDMDL
________________________________________________________________________________


    FINAL DOCKED STATE:
    ________________________


Run:   16 / 20
Time taken for this run:   0.047s

DOCKED: MODEL        16
DOCKED: USER    Run = 16
DOCKED: USER
DOCKED: USER    Estimated Free Energy of Binding    =  -7.58 kcal/mol  [=(1)+(2)+(3)-(4)]
DOCKED: USER
DOCKED: USER    (1) Final Intermolecular Energy     = -10.26 kcal/mol
DOCKED: USER        vdW + Hbond + desolv Energy     = -10.36 kcal/mol
DOCKED: USER        Electrostatic Energy            =  +0.10 kcal/mol
DOCKED: USER        Moving Ligand-Fixed Receptor    = -10.26 kcal/mol
DOCKED: USER        Moving Ligand-Moving Receptor   =  +0.00 kcal/mol
DOCKED: USER    (2) Final Total Internal Energy     =  -0.78 kcal/mol
DOCKED: USER    (3) Torsional Free Energy           =  +2.68 kcal/mol
DOCKED: USER    (4) Unbound System's Energy         =  -0.78 kcal/mol
DOCKED: USER
DOCKED: USER
DOCKED: REMARK SMILES N#Cc1ccccc1C[N-]C(=O)C/N=C(\O)c1ccc2ccccc2n1
DOCKED: REMARK SMILES IDX 11 1 12 2 13 3 14 4 15 5 16 6 17 8 26 9 18 10 25 11 19 12
DOCKED: REMARK SMILES IDX 24 13 20 14 23 15 21 16 22 17 10 18 9 19 8 20 7 21 3 22 6 23
DOCKED: REMARK SMILES IDX 4 24 5 25 2 26 1 27
DOCKED: REMARK H PARENT 16 7
DOCKED: USER                              x       y       z     vdW  Elec       q    Type
DOCKED: USER                           _______ _______ _______ _____ _____    ______ ____
DOCKED: ROOT
DOCKED: ATOM      1  C   UNL     1     139.905  71.601 222.378 -0.26 -0.01    +0.073 C  
DOCKED: ATOM      2  O   UNL     1     139.360  70.535 221.989 -0.09 +0.06    -0.318 OA 
DOCKED: ENDROOT
DOCKED: BRANCH   1   3
DOCKED: ATOM      3  C   UNL     1     139.883  72.804 221.473 -0.18 -0.03    +0.201 C  
DOCKED: BRANCH   3   4
DOCKED: ATOM      4  N   UNL     1     140.094  74.039 222.224 -0.77 +0.01    -0.244 NA 
DOCKED: BRANCH   4   5
DOCKED: ATOM      5  C   UNL     1     140.836  75.049 221.863 -0.09 -0.03    +0.233 C  
DOCKED: BRANCH   5   6
DOCKED: ATOM      6  O   UNL     1     141.996  74.878 221.103 -0.14 +0.16    -0.492 OA 
DOCKED: ATOM      7  H   UNL     1     142.809  75.472 221.187 -0.30 -0.20    +0.295 HD 
DOCKED: ENDBRANCH   5   6
DOCKED: BRANCH   5   8
DOCKED: ATOM      8  C   UNL     1     140.449  76.416 222.253 -0.34 -0.03    +0.125 A  
DOCKED: ATOM      9  N   UNL     1     141.423  77.329 222.528 -0.13 +0.12    -0.243 NA 
DOCKED: ATOM     10  C   UNL     1     139.099  76.797 222.344 -0.31 -0.01    +0.035 A  
DOCKED: ATOM     11  C   UNL     1     141.134  78.613 222.872 -0.46 -0.02    +0.071 A  
DOCKED: ATOM     12  C   UNL     1     138.772  78.108 222.695 -0.30 -0.00    +0.013 A  
DOCKED: ATOM     13  C   UNL     1     142.167  79.520 223.132 -0.60 -0.01    +0.029 A  
DOCKED: ATOM     14  C   UNL     1     139.788  79.033 222.959 -0.38 -0.00    +0.000 A  
DOCKED: ATOM     15  C   UNL     1     141.865  80.844 223.472 -0.61 -0.00    +0.002 A  
DOCKED: ATOM     16  C   UNL     1     139.494  80.361 223.303 -0.39 -0.00    +0.010 A  
DOCKED: ATOM     17  C   UNL     1     140.533  81.263 223.556 -0.34 -0.00    +0.001 A  
DOCKED: ENDBRANCH   5   8
DOCKED: ENDBRANCH   4   5
DOCKED: ENDBRANCH   3   4
DOCKED: ENDBRANCH   1   3
DOCKED: BRANCH   1  18
DOCKED: ATOM     18  N   UNL     1     140.542  71.613 223.663 -0.02 +0.07    -0.648 NA 
DOCKED: BRANCH  18  19
DOCKED: ATOM     19  C   UNL     1     139.886  71.508 224.963 -0.32 +0.02    -0.080 C  
DOCKED: BRANCH  19  20
DOCKED: ATOM     20  C   UNL     1     140.042  70.127 225.564 -0.45 +0.01    -0.048 A  
DOCKED: ATOM     21  C   UNL     1     139.529  69.022 224.861 -0.38 -0.00    +0.003 A  
DOCKED: ATOM     22  C   UNL     1     140.591  69.920 226.857 -0.53 -0.01    +0.054 A  
DOCKED: ATOM     23  C   UNL     1     139.576  67.740 225.415 -0.51 -0.00    +0.000 A  
DOCKED: ATOM     24  C   UNL     1     140.665  68.622 227.384 -0.64 -0.00    +0.020 A  
DOCKED: ATOM     25  C   UNL     1     140.154  67.539 226.670 -0.66 -0.00    +0.001 A  
DOCKED: BRANCH  22  26
DOCKED: ATOM     26  C   UNL     1     141.055  71.019 227.669 -0.62 -0.02    +0.099 C  
DOCKED: ATOM     27  N   UNL     1     141.425  71.901 228.321 -0.54 +0.04    -0.192 NA 
DOCKED: ENDBRANCH  22  26
DOCKED: ENDBRANCH  19  20
DOCKED: ENDBRANCH  18  19
DOCKED: ENDBRANCH   1  18
DOCKED: TORSDOF 9
DOCKED: TER
DOCKED: ENDMDL
________________________________________________________________________________


    FINAL DOCKED STATE:
    ________________________


Run:   17 / 20
Time taken for this run:   0.047s

DOCKED: MODEL        17
DOCKED: USER    Run = 17
DOCKED: USER
DOCKED: USER    Estimated Free Energy of Binding    =  -8.64 kcal/mol  [=(1)+(2)+(3)-(4)]
DOCKED: USER
DOCKED: USER    (1) Final Intermolecular Energy     = -11.33 kcal/mol
DOCKED: USER        vdW + Hbond + desolv Energy     = -11.39 kcal/mol
DOCKED: USER        Electrostatic Energy            =  +0.07 kcal/mol
DOCKED: USER        Moving Ligand-Fixed Receptor    = -11.33 kcal/mol
DOCKED: USER        Moving Ligand-Moving Receptor   =  +0.00 kcal/mol
DOCKED: USER    (2) Final Total Internal Energy     =  -1.38 kcal/mol
DOCKED: USER    (3) Torsional Free Energy           =  +2.68 kcal/mol
DOCKED: USER    (4) Unbound System's Energy         =  -1.38 kcal/mol
DOCKED: USER
DOCKED: USER
DOCKED: REMARK SMILES N#Cc1ccccc1C[N-]C(=O)C/N=C(\O)c1ccc2ccccc2n1
DOCKED: REMARK SMILES IDX 11 1 12 2 13 3 14 4 15 5 16 6 17 8 26 9 18 10 25 11 19 12
DOCKED: REMARK SMILES IDX 24 13 20 14 23 15 21 16 22 17 10 18 9 19 8 20 7 21 3 22 6 23
DOCKED: REMARK SMILES IDX 4 24 5 25 2 26 1 27
DOCKED: REMARK H PARENT 16 7
DOCKED: USER                              x       y       z     vdW  Elec       q    Type
DOCKED: USER                           _______ _______ _______ _____ _____    ______ ____
DOCKED: ROOT
DOCKED: ATOM      1  C   UNL     1     140.135  72.169 222.076 -0.27 -0.01    +0.073 C  
DOCKED: ATOM      2  O   UNL     1     138.943  71.992 221.713 -0.08 +0.07    -0.318 OA 
DOCKED: ENDROOT
DOCKED: BRANCH   1   3
DOCKED: ATOM      3  C   UNL     1     141.133  72.687 221.076 -0.18 -0.03    +0.201 C  
DOCKED: BRANCH   3   4
DOCKED: ATOM      4  N   UNL     1     140.864  74.080 220.726 -0.14 +0.05    -0.244 NA 
DOCKED: BRANCH   4   5
DOCKED: ATOM      5  C   UNL     1     140.319  74.981 221.495 -0.23 -0.04    +0.233 C  
DOCKED: BRANCH   5   6
DOCKED: ATOM      6  O   UNL     1     139.255  74.677 222.348 -0.56 +0.10    -0.492 OA 
DOCKED: ATOM      7  H   UNL     1     139.193  73.820 222.878 -0.46 -0.11    +0.295 HD 
DOCKED: ENDBRANCH   5   6
DOCKED: BRANCH   5   8
DOCKED: ATOM      8  C   UNL     1     140.832  76.362 221.480 -0.29 -0.04    +0.125 A  
DOCKED: ATOM      9  N   UNL     1     140.984  77.026 222.660 -0.27 +0.09    -0.243 NA 
DOCKED: ATOM     10  C   UNL     1     141.171  77.003 220.276 -0.23 -0.02    +0.035 A  
DOCKED: ATOM     11  C   UNL     1     141.474  78.294 222.717 -0.44 -0.03    +0.071 A  
DOCKED: ATOM     12  C   UNL     1     141.676  78.305 220.303 -0.29 -0.01    +0.013 A  
DOCKED: ATOM     13  C   UNL     1     141.627  78.934 223.952 -0.57 -0.01    +0.029 A  
DOCKED: ATOM     14  C   UNL     1     141.838  78.963 221.527 -0.41 -0.00    +0.000 A  
DOCKED: ATOM     15  C   UNL     1     142.145  80.232 224.007 -0.57 -0.00    +0.002 A  
DOCKED: ATOM     16  C   UNL     1     142.353  80.267 221.591 -0.39 -0.00    +0.010 A  
DOCKED: ATOM     17  C   UNL     1     142.507  80.896 222.831 -0.58 -0.00    +0.001 A  
DOCKED: ENDBRANCH   5   8
DOCKED: ENDBRANCH   4   5
DOCKED: ENDBRANCH   3   4
DOCKED: ENDBRANCH   1   3
DOCKED: BRANCH   1  18
DOCKED: ATOM     18  N   UNL     1     140.492  71.849 223.428 -0.05 +0.07    -0.648 NA 
DOCKED: BRANCH  18  19
DOCKED: ATOM     19  C   UNL     1     140.222  70.596 224.128 -0.31 +0.01    -0.080 C  
DOCKED: BRANCH  19  20
DOCKED: ATOM     20  C   UNL     1     140.438  70.726 225.621 -0.52 +0.01    -0.048 A  
DOCKED: ATOM     21  C   UNL     1     141.033  71.899 226.118 -0.62 -0.00    +0.003 A  
DOCKED: ATOM     22  C   UNL     1     140.160  69.666 226.523 -0.49 -0.01    +0.054 A  
DOCKED: ATOM     23  C   UNL     1     141.329  72.028 227.478 -0.80 -0.00    +0.000 A  
DOCKED: ATOM     24  C   UNL     1     140.427  69.824 227.891 -0.61 -0.00    +0.020 A  
DOCKED: ATOM     25  C   UNL     1     141.015  70.997 228.364 -0.62 -0.00    +0.001 A  
DOCKED: BRANCH  22  26
DOCKED: ATOM     26  C   UNL     1     139.631  68.402 226.068 -0.50 -0.01    +0.099 C  
DOCKED: ATOM     27  N   UNL     1     139.208  67.388 225.704 -0.90 -0.01    -0.192 NA 
DOCKED: ENDBRANCH  22  26
DOCKED: ENDBRANCH  19  20
DOCKED: ENDBRANCH  18  19
DOCKED: ENDBRANCH   1  18
DOCKED: TORSDOF 9
DOCKED: TER
DOCKED: ENDMDL
________________________________________________________________________________


    FINAL DOCKED STATE:
    ________________________


Run:   18 / 20
Time taken for this run:   0.047s

DOCKED: MODEL        18
DOCKED: USER    Run = 18
DOCKED: USER
DOCKED: USER    Estimated Free Energy of Binding    =  -8.71 kcal/mol  [=(1)+(2)+(3)-(4)]
DOCKED: USER
DOCKED: USER    (1) Final Intermolecular Energy     = -11.40 kcal/mol
DOCKED: USER        vdW + Hbond + desolv Energy     = -11.52 kcal/mol
DOCKED: USER        Electrostatic Energy            =  +0.12 kcal/mol
DOCKED: USER        Moving Ligand-Fixed Receptor    = -11.40 kcal/mol
DOCKED: USER        Moving Ligand-Moving Receptor   =  +0.00 kcal/mol
DOCKED: USER    (2) Final Total Internal Energy     =  -1.26 kcal/mol
DOCKED: USER    (3) Torsional Free Energy           =  +2.68 kcal/mol
DOCKED: USER    (4) Unbound System's Energy         =  -1.26 kcal/mol
DOCKED: USER
DOCKED: USER
DOCKED: REMARK SMILES N#Cc1ccccc1C[N-]C(=O)C/N=C(\O)c1ccc2ccccc2n1
DOCKED: REMARK SMILES IDX 11 1 12 2 13 3 14 4 15 5 16 6 17 8 26 9 18 10 25 11 19 12
DOCKED: REMARK SMILES IDX 24 13 20 14 23 15 21 16 22 17 10 18 9 19 8 20 7 21 3 22 6 23
DOCKED: REMARK SMILES IDX 4 24 5 25 2 26 1 27
DOCKED: REMARK H PARENT 16 7
DOCKED: USER                              x       y       z     vdW  Elec       q    Type
DOCKED: USER                           _______ _______ _______ _____ _____    ______ ____
DOCKED: ROOT
DOCKED: ATOM      1  C   UNL     1     139.820  72.405 222.292 -0.27 -0.01    +0.073 C  
DOCKED: ATOM      2  O   UNL     1     138.712  71.998 221.854 -0.09 +0.07    -0.318 OA 
DOCKED: ENDROOT
DOCKED: BRANCH   1   3
DOCKED: ATOM      3  C   UNL     1     140.659  73.308 221.428 -0.21 -0.02    +0.201 C  
DOCKED: BRANCH   3   4
DOCKED: ATOM      4  N   UNL     1     140.668  74.677 221.937 -0.66 +0.02    -0.244 NA 
DOCKED: BRANCH   4   5
DOCKED: ATOM      5  C   UNL     1     139.625  75.391 222.258 -0.13 -0.04    +0.233 C  
DOCKED: BRANCH   5   6
DOCKED: ATOM      6  O   UNL     1     138.342  74.841 222.316 -0.13 +0.16    -0.492 OA 
DOCKED: ATOM      7  H   UNL     1     138.143  73.934 222.712 -0.49 -0.15    +0.295 HD 
DOCKED: ENDBRANCH   5   6
DOCKED: BRANCH   5   8
DOCKED: ATOM      8  C   UNL     1     139.789  76.821 222.578 -0.24 -0.03    +0.125 A  
DOCKED: ATOM      9  N   UNL     1     141.045  77.327 222.727 -0.29 +0.09    -0.243 NA 
DOCKED: ATOM     10  C   UNL     1     138.678  77.669 222.729 -0.28 -0.01    +0.035 A  
DOCKED: ATOM     11  C   UNL     1     141.267  78.641 223.000 -0.49 -0.02    +0.071 A  
DOCKED: ATOM     12  C   UNL     1     138.875  79.022 223.010 -0.32 -0.00    +0.013 A  
DOCKED: ATOM     13  C   UNL     1     142.574  79.122 223.131 -0.51 -0.01    +0.029 A  
DOCKED: ATOM     14  C   UNL     1     140.174  79.525 223.144 -0.43 -0.00    +0.000 A  
DOCKED: ATOM     15  C   UNL     1     142.798  80.477 223.398 -0.68 -0.00    +0.002 A  
DOCKED: ATOM     16  C   UNL     1     140.407  80.882 223.415 -0.44 -0.00    +0.010 A  
DOCKED: ATOM     17  C   UNL     1     141.717  81.354 223.539 -0.56 -0.00    +0.001 A  
DOCKED: ENDBRANCH   5   8
DOCKED: ENDBRANCH   4   5
DOCKED: ENDBRANCH   3   4
DOCKED: ENDBRANCH   1   3
DOCKED: BRANCH   1  18
DOCKED: ATOM     18  N   UNL     1     140.241  71.972 223.592 -0.07 +0.10    -0.648 NA 
DOCKED: BRANCH  18  19
DOCKED: ATOM     19  C   UNL     1     139.739  70.818 224.333 -0.38 +0.01    -0.080 C  
DOCKED: BRANCH  19  20
DOCKED: ATOM     20  C   UNL     1     140.222  70.815 225.768 -0.52 +0.01    -0.048 A  
DOCKED: ATOM     21  C   UNL     1     140.827  71.976 226.281 -0.54 -0.00    +0.003 A  
DOCKED: ATOM     22  C   UNL     1     140.183  69.650 226.579 -0.50 -0.01    +0.054 A  
DOCKED: ATOM     23  C   UNL     1     141.363  71.992 227.571 -0.80 -0.00    +0.000 A  
DOCKED: ATOM     24  C   UNL     1     140.691  69.692 227.886 -0.61 -0.00    +0.020 A  
DOCKED: ATOM     25  C   UNL     1     141.284  70.855 228.376 -0.51 -0.00    +0.001 A  
DOCKED: BRANCH  22  26
DOCKED: ATOM     26  C   UNL     1     139.657  68.400 226.086 -0.51 -0.01    +0.099 C  
DOCKED: ATOM     27  N   UNL     1     139.234  67.397 225.691 -0.89 -0.00    -0.192 NA 
DOCKED: ENDBRANCH  22  26
DOCKED: ENDBRANCH  19  20
DOCKED: ENDBRANCH  18  19
DOCKED: ENDBRANCH   1  18
DOCKED: TORSDOF 9
DOCKED: TER
DOCKED: ENDMDL
________________________________________________________________________________


    FINAL DOCKED STATE:
    ________________________


Run:   19 / 20
Time taken for this run:   0.047s

DOCKED: MODEL        19
DOCKED: USER    Run = 19
DOCKED: USER
DOCKED: USER    Estimated Free Energy of Binding    =  -8.57 kcal/mol  [=(1)+(2)+(3)-(4)]
DOCKED: USER
DOCKED: USER    (1) Final Intermolecular Energy     = -11.25 kcal/mol
DOCKED: USER        vdW + Hbond + desolv Energy     = -11.29 kcal/mol
DOCKED: USER        Electrostatic Energy            =  +0.04 kcal/mol
DOCKED: USER        Moving Ligand-Fixed Receptor    = -11.25 kcal/mol
DOCKED: USER        Moving Ligand-Moving Receptor   =  +0.00 kcal/mol
DOCKED: USER    (2) Final Total Internal Energy     =  -1.48 kcal/mol
DOCKED: USER    (3) Torsional Free Energy           =  +2.68 kcal/mol
DOCKED: USER    (4) Unbound System's Energy         =  -1.48 kcal/mol
DOCKED: USER
DOCKED: USER
DOCKED: REMARK SMILES N#Cc1ccccc1C[N-]C(=O)C/N=C(\O)c1ccc2ccccc2n1
DOCKED: REMARK SMILES IDX 11 1 12 2 13 3 14 4 15 5 16 6 17 8 26 9 18 10 25 11 19 12
DOCKED: REMARK SMILES IDX 24 13 20 14 23 15 21 16 22 17 10 18 9 19 8 20 7 21 3 22 6 23
DOCKED: REMARK SMILES IDX 4 24 5 25 2 26 1 27
DOCKED: REMARK H PARENT 16 7
DOCKED: USER                              x       y       z     vdW  Elec       q    Type
DOCKED: USER                           _______ _______ _______ _____ _____    ______ ____
DOCKED: ROOT
DOCKED: ATOM      1  C   UNL     1     140.264  72.017 221.994 -0.26 -0.01    +0.073 C  
DOCKED: ATOM      2  O   UNL     1     139.099  71.751 221.600 -0.07 +0.06    -0.318 OA 
DOCKED: ENDROOT
DOCKED: BRANCH   1   3
DOCKED: ATOM      3  C   UNL     1     141.246  72.609 221.019 -0.17 -0.03    +0.201 C  
DOCKED: BRANCH   3   4
DOCKED: ATOM      4  N   UNL     1     140.945  74.012 220.744 -0.14 +0.05    -0.244 NA 
DOCKED: BRANCH   4   5
DOCKED: ATOM      5  C   UNL     1     140.470  74.883 221.590 -0.23 -0.04    +0.233 C  
DOCKED: BRANCH   5   6
DOCKED: ATOM      6  O   UNL     1     139.543  74.528 222.574 -0.54 +0.06    -0.492 OA 
DOCKED: ATOM      7  H   UNL     1     139.406  73.580 222.893 -0.36 -0.08    +0.295 HD 
DOCKED: ENDBRANCH   5   6
DOCKED: BRANCH   5   8
DOCKED: ATOM      8  C   UNL     1     140.919  76.285 221.525 -0.30 -0.04    +0.125 A  
DOCKED: ATOM      9  N   UNL     1     140.986  77.015 222.674 -0.27 +0.09    -0.243 NA 
DOCKED: ATOM     10  C   UNL     1     141.283  76.881 220.304 -0.24 -0.02    +0.035 A  
DOCKED: ATOM     11  C   UNL     1     141.414  78.306 222.685 -0.45 -0.03    +0.071 A  
DOCKED: ATOM     12  C   UNL     1     141.724  78.205 220.285 -0.30 -0.01    +0.013 A  
DOCKED: ATOM     13  C   UNL     1     141.480  79.014 223.890 -0.59 -0.01    +0.029 A  
DOCKED: ATOM     14  C   UNL     1     141.800  78.932 221.479 -0.41 -0.00    +0.000 A  
DOCKED: ATOM     15  C   UNL     1     141.934  80.338 223.899 -0.58 -0.00    +0.002 A  
DOCKED: ATOM     16  C   UNL     1     142.251  80.261 221.496 -0.40 -0.00    +0.010 A  
DOCKED: ATOM     17  C   UNL     1     142.319  80.959 222.706 -0.56 -0.00    +0.001 A  
DOCKED: ENDBRANCH   5   8
DOCKED: ENDBRANCH   4   5
DOCKED: ENDBRANCH   3   4
DOCKED: ENDBRANCH   1   3
DOCKED: BRANCH   1  18
DOCKED: ATOM     18  N   UNL     1     140.609  71.724 223.355 -0.03 +0.06    -0.648 NA 
DOCKED: BRANCH  18  19
DOCKED: ATOM     19  C   UNL     1     140.256  70.523 224.105 -0.27 +0.01    -0.080 C  
DOCKED: BRANCH  19  20
DOCKED: ATOM     20  C   UNL     1     140.471  70.703 225.594 -0.52 +0.01    -0.048 A  
DOCKED: ATOM     21  C   UNL     1     141.076  71.887 226.050 -0.62 -0.00    +0.003 A  
DOCKED: ATOM     22  C   UNL     1     140.180  69.678 226.532 -0.49 -0.01    +0.054 A  
DOCKED: ATOM     23  C   UNL     1     141.369  72.062 227.405 -0.80 -0.00    +0.000 A  
DOCKED: ATOM     24  C   UNL     1     140.446  69.882 227.894 -0.61 -0.00    +0.020 A  
DOCKED: ATOM     25  C   UNL     1     141.044  71.065 228.327 -0.67 -0.00    +0.001 A  
DOCKED: BRANCH  22  26
DOCKED: ATOM     26  C   UNL     1     139.640  68.404 226.121 -0.51 -0.01    +0.099 C  
DOCKED: ATOM     27  N   UNL     1     139.209  67.382 225.790 -0.89 -0.00    -0.192 NA 
DOCKED: ENDBRANCH  22  26
DOCKED: ENDBRANCH  19  20
DOCKED: ENDBRANCH  18  19
DOCKED: ENDBRANCH   1  18
DOCKED: TORSDOF 9
DOCKED: TER
DOCKED: ENDMDL
________________________________________________________________________________


    FINAL DOCKED STATE:
    ________________________


Run:   20 / 20
Time taken for this run:   0.047s

DOCKED: MODEL        20
DOCKED: USER    Run = 20
DOCKED: USER
DOCKED: USER    Estimated Free Energy of Binding    =  -8.91 kcal/mol  [=(1)+(2)+(3)-(4)]
DOCKED: USER
DOCKED: USER    (1) Final Intermolecular Energy     = -11.60 kcal/mol
DOCKED: USER        vdW + Hbond + desolv Energy     = -11.69 kcal/mol
DOCKED: USER        Electrostatic Energy            =  +0.10 kcal/mol
DOCKED: USER        Moving Ligand-Fixed Receptor    = -11.60 kcal/mol
DOCKED: USER        Moving Ligand-Moving Receptor   =  +0.00 kcal/mol
DOCKED: USER    (2) Final Total Internal Energy     =  -1.30 kcal/mol
DOCKED: USER    (3) Torsional Free Energy           =  +2.68 kcal/mol
DOCKED: USER    (4) Unbound System's Energy         =  -1.30 kcal/mol
DOCKED: USER
DOCKED: USER
DOCKED: REMARK SMILES N#Cc1ccccc1C[N-]C(=O)C/N=C(\O)c1ccc2ccccc2n1
DOCKED: REMARK SMILES IDX 11 1 12 2 13 3 14 4 15 5 16 6 17 8 26 9 18 10 25 11 19 12
DOCKED: REMARK SMILES IDX 24 13 20 14 23 15 21 16 22 17 10 18 9 19 8 20 7 21 3 22 6 23
DOCKED: REMARK SMILES IDX 4 24 5 25 2 26 1 27
DOCKED: REMARK H PARENT 16 7
DOCKED: USER                              x       y       z     vdW  Elec       q    Type
DOCKED: USER                           _______ _______ _______ _____ _____    ______ ____
DOCKED: ROOT
DOCKED: ATOM      1  C   UNL     1     139.897  72.353 222.415 -0.28 -0.01    +0.073 C  
DOCKED: ATOM      2  O   UNL     1     138.644  72.239 222.388 -0.13 +0.09    -0.318 OA 
DOCKED: ENDROOT
DOCKED: BRANCH   1   3
DOCKED: ATOM      3  C   UNL     1     140.564  73.302 221.457 -0.21 -0.02    +0.201 C  
DOCKED: BRANCH   3   4
DOCKED: ATOM      4  N   UNL     1     140.608  74.660 221.994 -0.67 +0.01    -0.244 NA 
DOCKED: BRANCH   4   5
DOCKED: ATOM      5  C   UNL     1     139.583  75.422 222.258 -0.16 -0.04    +0.233 C  
DOCKED: BRANCH   5   6
DOCKED: ATOM      6  O   UNL     1     138.276  74.929 222.260 -0.12 +0.15    -0.492 OA 
DOCKED: ATOM      7  H   UNL     1     137.998  74.090 222.749 -0.48 -0.16    +0.295 HD 
DOCKED: ENDBRANCH   5   6
DOCKED: BRANCH   5   8
DOCKED: ATOM      8  C   UNL     1     139.794  76.846 222.573 -0.24 -0.03    +0.125 A  
DOCKED: ATOM      9  N   UNL     1     141.067  77.317 222.698 -0.29 +0.09    -0.243 NA 
DOCKED: ATOM     10  C   UNL     1     138.711  77.727 222.741 -0.28 -0.01    +0.035 A  
DOCKED: ATOM     11  C   UNL     1     141.331  78.624 222.965 -0.49 -0.03    +0.071 A  
DOCKED: ATOM     12  C   UNL     1     138.952  79.074 223.017 -0.33 -0.00    +0.013 A  
DOCKED: ATOM     13  C   UNL     1     142.654  79.067 223.071 -0.43 -0.01    +0.029 A  
DOCKED: ATOM     14  C   UNL     1     140.267  79.539 223.127 -0.43 -0.00    +0.000 A  
DOCKED: ATOM     15  C   UNL     1     142.921  80.416 223.332 -0.67 -0.00    +0.002 A  
DOCKED: ATOM     16  C   UNL     1     140.543  80.890 223.391 -0.45 -0.00    +0.010 A  
DOCKED: ATOM     17  C   UNL     1     141.869  81.324 223.490 -0.59 -0.00    +0.001 A  
DOCKED: ENDBRANCH   5   8
DOCKED: ENDBRANCH   4   5
DOCKED: ENDBRANCH   3   4
DOCKED: ENDBRANCH   1   3
DOCKED: BRANCH   1  18
DOCKED: ATOM     18  N   UNL     1     140.636  71.553 223.349 -0.02 +0.07    -0.648 NA 
DOCKED: BRANCH  18  19
DOCKED: ATOM     19  C   UNL     1     140.110  70.477 224.184 -0.31 +0.01    -0.080 C  
DOCKED: BRANCH  19  20
DOCKED: ATOM     20  C   UNL     1     140.408  70.704 225.652 -0.52 +0.01    -0.048 A  
DOCKED: ATOM     21  C   UNL     1     141.033  71.903 226.037 -0.59 -0.00    +0.003 A  
DOCKED: ATOM     22  C   UNL     1     140.176  69.708 226.636 -0.50 -0.01    +0.054 A  
DOCKED: ATOM     23  C   UNL     1     141.403  72.120 227.366 -0.80 -0.00    +0.000 A  
DOCKED: ATOM     24  C   UNL     1     140.518  69.954 227.974 -0.61 -0.00    +0.020 A  
DOCKED: ATOM     25  C   UNL     1     141.135  71.152 228.335 -0.66 -0.00    +0.001 A  
DOCKED: BRANCH  22  26
DOCKED: ATOM     26  C   UNL     1     139.619  68.420 226.295 -0.52 -0.01    +0.099 C  
DOCKED: ATOM     27  N   UNL     1     139.171  67.388 226.023 -0.88 -0.00    -0.192 NA 
DOCKED: ENDBRANCH  22  26
DOCKED: ENDBRANCH  19  20
DOCKED: ENDBRANCH  18  19
DOCKED: ENDBRANCH   1  18
DOCKED: TORSDOF 9
DOCKED: TER
DOCKED: ENDMDL
________________________________________________________________________________


    CLUSTERING HISTOGRAM
    ____________________


________________________________________________________________________________
     |           |     |           |     |
Clus | Lowest    | Run | Mean      | Num | Histogram
-ter | Binding   |     | Binding   | in  |
Rank | Energy    |     | Energy    | Clus|    5    10   15   20   25   30   35
_____|___________|_____|___________|_____|____:____|____:____|____:____|____:___
   1 |     -8.91 |  20 |     -8.43 |  16 |################
   2 |     -7.79 |  11 |     -7.10 |   2 |##
   3 |     -7.58 |  16 |     -7.58 |   1 |#
   4 |     -6.90 |   4 |     -6.90 |   1 |#
_____|___________|_____|___________|_____|______________________________________


    RMSD TABLE
    __________


_______________________________________________________________________
     |      |      |           |         |                 |
Rank | Sub- | Run  | Binding   | Cluster | Reference       | Grep
     | Rank |      | Energy    | RMSD    | RMSD            | Pattern
_____|______|______|___________|_________|_________________|___________
   1      1     20       -8.91      0.00    272.20           RANKING
   1      2      7       -8.90      0.14    272.19           RANKING
   1      3     14       -8.79      1.09    272.02           RANKING
   1      4      8       -8.76      1.13    272.00           RANKING
   1      5     12       -8.73      1.14    272.04           RANKING
   1      6     18       -8.71      0.26    272.17           RANKING
   1      7      5       -8.69      0.35    272.08           RANKING
   1      8     17       -8.64      1.12    271.98           RANKING
   1      9      1       -8.62      1.40    272.24           RANKING
   1     10     19       -8.57      1.18    271.97           RANKING
   1     11      3       -8.57      0.43    272.11           RANKING
   1     12     15       -8.35      1.34    271.89           RANKING
   1     13      9       -8.09      1.27    271.84           RANKING
   1     14     13       -7.68      1.71    271.76           RANKING
   1     15      2       -7.62      1.50    271.98           RANKING
   1     16      6       -7.28      1.75    272.01           RANKING
   2      1     11       -7.79      0.00    271.87           RANKING
   2      2     10       -6.40      1.65    271.67           RANKING
   3      1     16       -7.58      0.00    272.05           RANKING
   4      1      4       -6.90      0.00    270.99           RANKING

Run time 0.897 sec
Idle time 0.000 sec
