AutoDock-GPU version: v1.6

**********************************************************
**    AutoDock-GPU AUTODOCKTOOLS-COMPATIBLE DLG FILE    **
**********************************************************


    DOCKING PARAMETERS
    ________________________


Ligand file:                               /home/a/REINVENT4/ReinventStudies/pleaseWork/justmol2mol_4_Compounds_ontop/graph-dock-8u2o5u/graph-DockGPU/node-autodockgpu/inputs/OHIKAIAOMOXJIK-GQPZJZIFNA-M.pdbqt
Grid fld file:                             /home/a/REINVENT4/ReinventStudies/mols/Rad51/maps/rad51_receptor.maps.fld

Random seed:                               42
Number of runs:                            20
Number of energy evaluations:              2040163
Number of generations:                     42000
Size of population:                        150
Rate of crossover:                         80.000000%
Tournament selection probability limit:    60.000000%
Rate of mutation:                          2.000000%
Maximal allowed delta movement:            +/- 6.000000A
Maximal allowed delta angle:               +/- 90.000000

Rate of local search:                      100.000000%
Maximal number of local search iterations: 300
Rho lower bound:                           0.010000
Spread of local search delta movement:     2.000000A
Spread of local search delta angle:        74.999999
Limit of consecutive successes/failures:   4

Handle symmetry during clustering:         YES
RMSD tolerance:                            2.000000A

Program call in command line was:          /home/a/REINVENT4/ReinventStudies/adgpu-v1.6_linux_x64_cuda12_128wi --filelist batch.txt --heuristics 1 --nrun 20 --psize 150 --lsit 300 --seed 42 --heurmax 12000000 


    GRID PARAMETERS
    ________________________


Receptor name:                             rad51_receptor
Number of grid points (x, y, z):           53, 53, 53
Grid center (x, y, z):                     139.950000, 75.640000, 221.970000A
Grid size (x, y, z):                       19.500000, 19.500000, 19.500000A
Grid spacing:                              0.375000A


    LIGAND PARAMETERS
    ________________________


Ligand name:                               /home/a/REINVENT4/ReinventStudies/pleaseWork/justmol2mol_4_Compounds_ontop/graph-dock-8u2o5u/graph-DockGPU/node-autodockgpu/inputs/OHIKAIAOMOXJIK-GQPZJZIFNA-M
Number of atoms:                           27
Number of rotatable bonds:                 9
Number of atom types:                      5


    DUMMY DATA (only for ADT-compatibility)
    ________________________


DPF> outlev 1
DPF> ga_run 20
DPF> fld /home/a/REINVENT4/ReinventStudies/mols/Rad51/maps/rad51_receptor.maps.fld
DPF> move /home/a/REINVENT4/ReinventStudies/pleaseWork/justmol2mol_4_Compounds_ontop/graph-dock-8u2o5u/graph-DockGPU/node-autodockgpu/inputs/OHIKAIAOMOXJIK-GQPZJZIFNA-M.pdbqt


    COUNTER STATES
    ________________________


Number of energy evaluations performed:    995995
Number of generations used:                50


    INPUT LIGAND PDBQT FILE:
    ________________________


INPUT-LIGAND-PDBQT: REMARK SMILES N#Cc1ccccc1C[N-]C(=O)C/N=C(/O)c1ccc2ccccc2n1
INPUT-LIGAND-PDBQT: REMARK SMILES IDX 11 1 12 2 13 3 14 4 15 5 16 6 17 8 26 9 18 10 25 11 19 12
INPUT-LIGAND-PDBQT: REMARK SMILES IDX 24 13 20 14 23 15 21 16 22 17 10 18 9 19 8 20 7 21 3 22 6 23
INPUT-LIGAND-PDBQT: REMARK SMILES IDX 4 24 5 25 2 26 1 27
INPUT-LIGAND-PDBQT: REMARK H PARENT 16 7
INPUT-LIGAND-PDBQT: ROOT
INPUT-LIGAND-PDBQT: ATOM      1  C   UNL     1       2.168  -1.731  -0.141  1.00  0.00     0.073 C 
INPUT-LIGAND-PDBQT: ATOM      2  O   UNL     1       2.153  -2.720   0.639  1.00  0.00    -0.318 OA
INPUT-LIGAND-PDBQT: ENDROOT
INPUT-LIGAND-PDBQT: BRANCH   1   3
INPUT-LIGAND-PDBQT: ATOM      3  C   UNL     1       2.122  -1.970  -1.628  1.00  0.00     0.201 C 
INPUT-LIGAND-PDBQT: BRANCH   3   4
INPUT-LIGAND-PDBQT: ATOM      4  N   UNL     1       1.183  -3.046  -1.955  1.00  0.00    -0.244 NA
INPUT-LIGAND-PDBQT: BRANCH   4   5
INPUT-LIGAND-PDBQT: ATOM      5  C   UNL     1      -0.118  -2.991  -1.885  1.00  0.00     0.233 C 
INPUT-LIGAND-PDBQT: BRANCH   5   6
INPUT-LIGAND-PDBQT: ATOM      6  O   UNL     1      -0.859  -4.140  -2.149  1.00  0.00    -0.492 OA
INPUT-LIGAND-PDBQT: ATOM      7  H   UNL     1      -0.406  -5.010  -2.401  1.00  0.00     0.295 HD
INPUT-LIGAND-PDBQT: ENDBRANCH   5   6
INPUT-LIGAND-PDBQT: BRANCH   5   8
INPUT-LIGAND-PDBQT: ATOM      8  C   UNL     1      -0.847  -1.767  -1.509  1.00  0.00     0.125 A 
INPUT-LIGAND-PDBQT: ATOM      9  N   UNL     1      -1.670  -1.794  -0.426  1.00  0.00    -0.243 NA
INPUT-LIGAND-PDBQT: ATOM     10  C   UNL     1      -0.778  -0.612  -2.302  1.00  0.00     0.035 A 
INPUT-LIGAND-PDBQT: ATOM     11  C   UNL     1      -2.407  -0.712  -0.056  1.00  0.00     0.071 A 
INPUT-LIGAND-PDBQT: ATOM     12  C   UNL     1      -1.515   0.518  -1.942  1.00  0.00     0.013 A 
INPUT-LIGAND-PDBQT: ATOM     13  C   UNL     1      -3.235  -0.778   1.071  1.00  0.00     0.029 A 
INPUT-LIGAND-PDBQT: ATOM     14  C   UNL     1      -2.339   0.480  -0.811  1.00  0.00     0.000 A 
INPUT-LIGAND-PDBQT: ATOM     15  C   UNL     1      -3.990   0.337   1.449  1.00  0.00     0.002 A 
INPUT-LIGAND-PDBQT: ATOM     16  C   UNL     1      -3.099   1.594  -0.426  1.00  0.00     0.010 A 
INPUT-LIGAND-PDBQT: ATOM     17  C   UNL     1      -3.923   1.519   0.703  1.00  0.00     0.001 A 
INPUT-LIGAND-PDBQT: ENDBRANCH   5   8
INPUT-LIGAND-PDBQT: ENDBRANCH   4   5
INPUT-LIGAND-PDBQT: ENDBRANCH   3   4
INPUT-LIGAND-PDBQT: ENDBRANCH   1   3
INPUT-LIGAND-PDBQT: BRANCH   1  18
INPUT-LIGAND-PDBQT: ATOM     18  N   UNL     1       2.315  -0.420   0.417  1.00  0.00    -0.648 NA
INPUT-LIGAND-PDBQT: BRANCH  18  19
INPUT-LIGAND-PDBQT: ATOM     19  C   UNL     1       2.273   0.821  -0.344  1.00  0.00    -0.080 C 
INPUT-LIGAND-PDBQT: BRANCH  19  20
INPUT-LIGAND-PDBQT: ATOM     20  C   UNL     1       2.624   1.979   0.557  1.00  0.00    -0.048 A 
INPUT-LIGAND-PDBQT: ATOM     21  C   UNL     1       3.879   2.600   0.423  1.00  0.00     0.003 A 
INPUT-LIGAND-PDBQT: ATOM     22  C   UNL     1       1.734   2.439   1.556  1.00  0.00     0.054 A 
INPUT-LIGAND-PDBQT: ATOM     23  C   UNL     1       4.235   3.669   1.249  1.00  0.00     0.000 A 
INPUT-LIGAND-PDBQT: ATOM     24  C   UNL     1       2.102   3.512   2.379  1.00  0.00     0.020 A 
INPUT-LIGAND-PDBQT: ATOM     25  C   UNL     1       3.348   4.125   2.224  1.00  0.00     0.001 A 
INPUT-LIGAND-PDBQT: BRANCH  22  26
INPUT-LIGAND-PDBQT: ATOM     26  C   UNL     1       0.448   1.817   1.765  1.00  0.00     0.099 C 
INPUT-LIGAND-PDBQT: ATOM     27  N   UNL     1      -0.582   1.317   1.940  1.00  0.00    -0.192 NA
INPUT-LIGAND-PDBQT: ENDBRANCH  22  26
INPUT-LIGAND-PDBQT: ENDBRANCH  19  20
INPUT-LIGAND-PDBQT: ENDBRANCH  18  19
INPUT-LIGAND-PDBQT: ENDBRANCH   1  18
INPUT-LIGAND-PDBQT: TORSDOF 9


    FINAL DOCKED STATE:
    ________________________


Run:   1 / 20
Time taken for this run:   0.039s

DOCKED: MODEL        1
DOCKED: USER    Run = 1
DOCKED: USER
DOCKED: USER    Estimated Free Energy of Binding    =  -7.13 kcal/mol  [=(1)+(2)+(3)-(4)]
DOCKED: USER
DOCKED: USER    (1) Final Intermolecular Energy     =  -9.82 kcal/mol
DOCKED: USER        vdW + Hbond + desolv Energy     =  -9.82 kcal/mol
DOCKED: USER        Electrostatic Energy            =  +0.00 kcal/mol
DOCKED: USER        Moving Ligand-Fixed Receptor    =  -9.82 kcal/mol
DOCKED: USER        Moving Ligand-Moving Receptor   =  +0.00 kcal/mol
DOCKED: USER    (2) Final Total Internal Energy     =  -1.95 kcal/mol
DOCKED: USER    (3) Torsional Free Energy           =  +2.68 kcal/mol
DOCKED: USER    (4) Unbound System's Energy         =  -1.95 kcal/mol
DOCKED: USER
DOCKED: USER
DOCKED: REMARK SMILES N#Cc1ccccc1C[N-]C(=O)C/N=C(/O)c1ccc2ccccc2n1
DOCKED: REMARK SMILES IDX 11 1 12 2 13 3 14 4 15 5 16 6 17 8 26 9 18 10 25 11 19 12
DOCKED: REMARK SMILES IDX 24 13 20 14 23 15 21 16 22 17 10 18 9 19 8 20 7 21 3 22 6 23
DOCKED: REMARK SMILES IDX 4 24 5 25 2 26 1 27
DOCKED: REMARK H PARENT 16 7
DOCKED: USER                              x       y       z     vdW  Elec       q    Type
DOCKED: USER                           _______ _______ _______ _____ _____    ______ ____
DOCKED: ROOT
DOCKED: ATOM      1  C   UNL     1     140.009  72.465 222.389 -0.29 -0.01    +0.073 C  
DOCKED: ATOM      2  O   UNL     1     139.969  73.723 222.376 -0.81 +0.02    -0.318 OA 
DOCKED: ENDROOT
DOCKED: BRANCH   1   3
DOCKED: ATOM      3  C   UNL     1     139.240  71.697 221.345 -0.10 -0.04    +0.201 C  
DOCKED: BRANCH   3   4
DOCKED: ATOM      4  N   UNL     1     137.832  71.562 221.729 -0.05 +0.05    -0.244 NA 
DOCKED: BRANCH   4   5
DOCKED: ATOM      5  C   UNL     1     137.164  72.351 222.523 -0.09 -0.07    +0.233 C  
DOCKED: BRANCH   5   6
DOCKED: ATOM      6  O   UNL     1     137.256  73.729 222.344 -0.05 +0.17    -0.492 OA 
DOCKED: ATOM      7  H   UNL     1     137.958  74.275 222.828 -0.47 -0.17    +0.295 HD 
DOCKED: ENDBRANCH   5   6
DOCKED: BRANCH   5   8
DOCKED: ATOM      8  C   UNL     1     136.285  71.849 223.594 -0.16 -0.03    +0.125 A  
DOCKED: ATOM      9  N   UNL     1     135.467  72.722 224.242 -0.14 +0.04    -0.243 NA 
DOCKED: ATOM     10  C   UNL     1     136.350  70.512 224.015 -0.20 -0.00    +0.035 A  
DOCKED: ATOM     11  C   UNL     1     134.668  72.330 225.271 -0.19 -0.00    +0.071 A  
DOCKED: ATOM     12  C   UNL     1     135.534  70.078 225.062 -0.22 -0.00    +0.013 A  
DOCKED: ATOM     13  C   UNL     1     133.833  73.257 225.905 -0.31 +0.00    +0.029 A  
DOCKED: ATOM     14  C   UNL     1     134.681  70.984 225.702 -0.21 -0.00    +0.000 A  
DOCKED: ATOM     15  C   UNL     1     133.012  72.850 226.962 -0.40 -0.00    +0.002 A  
DOCKED: ATOM     16  C   UNL     1     133.856  70.583 226.762 -0.39 -0.00    +0.010 A  
DOCKED: ATOM     17  C   UNL     1     133.024  71.518 227.389 -0.37 -0.00    +0.001 A  
DOCKED: ENDBRANCH   5   8
DOCKED: ENDBRANCH   4   5
DOCKED: ENDBRANCH   3   4
DOCKED: ENDBRANCH   1   3
DOCKED: BRANCH   1  18
DOCKED: ATOM     18  N   UNL     1     140.718  71.812 223.448 -0.01 +0.05    -0.648 NA 
DOCKED: BRANCH  18  19
DOCKED: ATOM     19  C   UNL     1     140.292  70.584 224.105 -0.28 +0.01    -0.080 C  
DOCKED: BRANCH  19  20
DOCKED: ATOM     20  C   UNL     1     140.499  70.709 225.595 -0.52 +0.01    -0.048 A  
DOCKED: ATOM     21  C   UNL     1     141.064  71.887 226.115 -0.64 -0.00    +0.003 A  
DOCKED: ATOM     22  C   UNL     1     140.166  69.658 226.481 -0.49 -0.01    +0.054 A  
DOCKED: ATOM     23  C   UNL     1     141.275  72.028 227.489 -0.81 -0.00    +0.000 A  
DOCKED: ATOM     24  C   UNL     1     140.382  69.811 227.858 -0.61 -0.00    +0.020 A  
DOCKED: ATOM     25  C   UNL     1     140.934  70.993 228.358 -0.63 -0.00    +0.001 A  
DOCKED: BRANCH  22  26
DOCKED: ATOM     26  C   UNL     1     139.618  68.412 226.002 -0.49 -0.01    +0.099 C  
DOCKED: ATOM     27  N   UNL     1     139.180  67.408 225.624 -0.88 -0.01    -0.192 NA 
DOCKED: ENDBRANCH  22  26
DOCKED: ENDBRANCH  19  20
DOCKED: ENDBRANCH  18  19
DOCKED: ENDBRANCH   1  18
DOCKED: TORSDOF 9
DOCKED: TER
DOCKED: ENDMDL
________________________________________________________________________________


    FINAL DOCKED STATE:
    ________________________


Run:   2 / 20
Time taken for this run:   0.039s

DOCKED: MODEL        2
DOCKED: USER    Run = 2
DOCKED: USER
DOCKED: USER    Estimated Free Energy of Binding    =  -8.56 kcal/mol  [=(1)+(2)+(3)-(4)]
DOCKED: USER
DOCKED: USER    (1) Final Intermolecular Energy     = -11.24 kcal/mol
DOCKED: USER        vdW + Hbond + desolv Energy     = -11.32 kcal/mol
DOCKED: USER        Electrostatic Energy            =  +0.07 kcal/mol
DOCKED: USER        Moving Ligand-Fixed Receptor    = -11.24 kcal/mol
DOCKED: USER        Moving Ligand-Moving Receptor   =  +0.00 kcal/mol
DOCKED: USER    (2) Final Total Internal Energy     =  -1.32 kcal/mol
DOCKED: USER    (3) Torsional Free Energy           =  +2.68 kcal/mol
DOCKED: USER    (4) Unbound System's Energy         =  -1.32 kcal/mol
DOCKED: USER
DOCKED: USER
DOCKED: REMARK SMILES N#Cc1ccccc1C[N-]C(=O)C/N=C(/O)c1ccc2ccccc2n1
DOCKED: REMARK SMILES IDX 11 1 12 2 13 3 14 4 15 5 16 6 17 8 26 9 18 10 25 11 19 12
DOCKED: REMARK SMILES IDX 24 13 20 14 23 15 21 16 22 17 10 18 9 19 8 20 7 21 3 22 6 23
DOCKED: REMARK SMILES IDX 4 24 5 25 2 26 1 27
DOCKED: REMARK H PARENT 16 7
DOCKED: USER                              x       y       z     vdW  Elec       q    Type
DOCKED: USER                           _______ _______ _______ _____ _____    ______ ____
DOCKED: ROOT
DOCKED: ATOM      1  C   UNL     1     139.953  71.794 221.943 -0.23 -0.01    +0.073 C  
DOCKED: ATOM      2  O   UNL     1     138.903  71.299 221.454 -0.05 +0.06    -0.318 OA 
DOCKED: ENDROOT
DOCKED: BRANCH   1   3
DOCKED: ATOM      3  C   UNL     1     140.972  72.410 221.020 -0.16 -0.03    +0.201 C  
DOCKED: BRANCH   3   4
DOCKED: ATOM      4  N   UNL     1     141.416  73.711 221.525 -0.27 +0.02    -0.244 NA 
DOCKED: BRANCH   4   5
DOCKED: ATOM      5  C   UNL     1     140.657  74.725 221.835 -0.08 -0.02    +0.233 C  
DOCKED: BRANCH   5   6
DOCKED: ATOM      6  O   UNL     1     139.385  74.486 222.350 -0.62 +0.09    -0.492 OA 
DOCKED: ATOM      7  H   UNL     1     139.166  73.619 222.826 -0.43 -0.11    +0.295 HD 
DOCKED: ENDBRANCH   5   6
DOCKED: BRANCH   5   8
DOCKED: ATOM      8  C   UNL     1     141.095  76.125 221.692 -0.29 -0.04    +0.125 A  
DOCKED: ATOM      9  N   UNL     1     141.095  76.933 222.786 -0.23 +0.09    -0.243 NA 
DOCKED: ATOM     10  C   UNL     1     141.418  76.655 220.434 -0.27 -0.02    +0.035 A  
DOCKED: ATOM     11  C   UNL     1     141.442  78.246 222.709 -0.45 -0.03    +0.071 A  
DOCKED: ATOM     12  C   UNL     1     141.788  77.997 220.325 -0.31 -0.01    +0.013 A  
DOCKED: ATOM     13  C   UNL     1     141.438  79.042 223.861 -0.59 -0.01    +0.029 A  
DOCKED: ATOM     14  C   UNL     1     141.805  78.809 221.466 -0.40 -0.00    +0.000 A  
DOCKED: ATOM     15  C   UNL     1     141.796  80.392 223.778 -0.60 -0.00    +0.002 A  
DOCKED: ATOM     16  C   UNL     1     142.163  80.163 221.391 -0.41 -0.00    +0.010 A  
DOCKED: ATOM     17  C   UNL     1     142.158  80.951 222.548 -0.55 -0.00    +0.001 A  
DOCKED: ENDBRANCH   5   8
DOCKED: ENDBRANCH   4   5
DOCKED: ENDBRANCH   3   4
DOCKED: ENDBRANCH   1   3
DOCKED: BRANCH   1  18
DOCKED: ATOM     18  N   UNL     1     140.175  71.673 223.353 -0.05 +0.10    -0.648 NA 
DOCKED: BRANCH  18  19
DOCKED: ATOM     19  C   UNL     1     139.894  70.483 224.144 -0.34 +0.01    -0.080 C  
DOCKED: BRANCH  19  20
DOCKED: ATOM     20  C   UNL     1     140.321  70.713 225.573 -0.51 +0.01    -0.048 A  
DOCKED: ATOM     21  C   UNL     1     140.896  71.946 225.930 -0.48 -0.00    +0.003 A  
DOCKED: ATOM     22  C   UNL     1     140.186  69.708 226.559 -0.50 -0.01    +0.054 A  
DOCKED: ATOM     23  C   UNL     1     141.309  72.185 227.243 -0.81 -0.00    +0.000 A  
DOCKED: ATOM     24  C   UNL     1     140.604  69.958 227.873 -0.61 -0.00    +0.020 A  
DOCKED: ATOM     25  C   UNL     1     141.162  71.193 228.213 -0.68 -0.00    +0.001 A  
DOCKED: BRANCH  22  26
DOCKED: ATOM     26  C   UNL     1     139.638  68.410 226.243 -0.51 -0.01    +0.099 C  
DOCKED: ATOM     27  N   UNL     1     139.194  67.370 225.995 -0.88 -0.00    -0.192 NA 
DOCKED: ENDBRANCH  22  26
DOCKED: ENDBRANCH  19  20
DOCKED: ENDBRANCH  18  19
DOCKED: ENDBRANCH   1  18
DOCKED: TORSDOF 9
DOCKED: TER
DOCKED: ENDMDL
________________________________________________________________________________


    FINAL DOCKED STATE:
    ________________________


Run:   3 / 20
Time taken for this run:   0.039s

DOCKED: MODEL        3
DOCKED: USER    Run = 3
DOCKED: USER
DOCKED: USER    Estimated Free Energy of Binding    =  -6.25 kcal/mol  [=(1)+(2)+(3)-(4)]
DOCKED: USER
DOCKED: USER    (1) Final Intermolecular Energy     =  -8.94 kcal/mol
DOCKED: USER        vdW + Hbond + desolv Energy     =  -9.16 kcal/mol
DOCKED: USER        Electrostatic Energy            =  +0.22 kcal/mol
DOCKED: USER        Moving Ligand-Fixed Receptor    =  -8.94 kcal/mol
DOCKED: USER        Moving Ligand-Moving Receptor   =  +0.00 kcal/mol
DOCKED: USER    (2) Final Total Internal Energy     =  -2.23 kcal/mol
DOCKED: USER    (3) Torsional Free Energy           =  +2.68 kcal/mol
DOCKED: USER    (4) Unbound System's Energy         =  -2.23 kcal/mol
DOCKED: USER
DOCKED: USER
DOCKED: REMARK SMILES N#Cc1ccccc1C[N-]C(=O)C/N=C(/O)c1ccc2ccccc2n1
DOCKED: REMARK SMILES IDX 11 1 12 2 13 3 14 4 15 5 16 6 17 8 26 9 18 10 25 11 19 12
DOCKED: REMARK SMILES IDX 24 13 20 14 23 15 21 16 22 17 10 18 9 19 8 20 7 21 3 22 6 23
DOCKED: REMARK SMILES IDX 4 24 5 25 2 26 1 27
DOCKED: REMARK H PARENT 16 7
DOCKED: USER                              x       y       z     vdW  Elec       q    Type
DOCKED: USER                           _______ _______ _______ _____ _____    ______ ____
DOCKED: ROOT
DOCKED: ATOM      1  C   UNL     1     137.568  74.116 221.969 -0.14 -0.02    +0.073 C  
DOCKED: ATOM      2  O   UNL     1     136.554  74.042 222.714 -0.11 +0.10    -0.318 OA 
DOCKED: ENDROOT
DOCKED: BRANCH   1   3
DOCKED: ATOM      3  C   UNL     1     137.843  73.002 220.993 -0.07 -0.04    +0.201 C  
DOCKED: BRANCH   3   4
DOCKED: ATOM      4  N   UNL     1     138.807  72.049 221.547 -0.08 +0.05    -0.244 NA 
DOCKED: BRANCH   4   5
DOCKED: ATOM      5  C   UNL     1     139.629  72.261 222.537 -0.21 -0.05    +0.233 C  
DOCKED: BRANCH   5   6
DOCKED: ATOM      6  O   UNL     1     140.488  73.355 222.481 -0.61 -0.02    -0.492 OA 
DOCKED: ATOM      7  H   UNL     1     140.156  74.269 222.196 +0.06 -0.01    +0.295 HD 
DOCKED: ENDBRANCH   5   6
DOCKED: BRANCH   5   8
DOCKED: ATOM      8  C   UNL     1     139.674  71.406 223.736 -0.32 -0.03    +0.125 A  
DOCKED: ATOM      9  N   UNL     1     140.285  71.872 224.859 -0.25 +0.05    -0.243 NA 
DOCKED: ATOM     10  C   UNL     1     139.182  70.092 223.706 -0.28 -0.01    +0.035 A  
DOCKED: ATOM     11  C   UNL     1     140.402  71.113 225.982 -0.54 -0.01    +0.071 A  
DOCKED: ATOM     12  C   UNL     1     139.278  69.293 224.847 -0.38 -0.00    +0.013 A  
DOCKED: ATOM     13  C   UNL     1     141.031  71.633 227.119 -0.75 -0.01    +0.029 A  
DOCKED: ATOM     14  C   UNL     1     139.890  69.797 226.001 -0.49 -0.00    +0.000 A  
DOCKED: ATOM     15  C   UNL     1     141.147  70.851 228.272 -0.60 -0.00    +0.002 A  
DOCKED: ATOM     16  C   UNL     1     140.010  69.018 227.161 -0.60 -0.00    +0.010 A  
DOCKED: ATOM     17  C   UNL     1     140.640  69.547 228.293 -0.61 -0.00    +0.001 A  
DOCKED: ENDBRANCH   5   8
DOCKED: ENDBRANCH   4   5
DOCKED: ENDBRANCH   3   4
DOCKED: ENDBRANCH   1   3
DOCKED: BRANCH   1  18
DOCKED: ATOM     18  N   UNL     1     138.465  75.219 222.141 -0.04 +0.18    -0.648 NA 
DOCKED: BRANCH  18  19
DOCKED: ATOM     19  C   UNL     1     138.208  76.582 221.697 -0.20 +0.02    -0.080 C  
DOCKED: BRANCH  19  20
DOCKED: ATOM     20  C   UNL     1     139.171  77.525 222.376 -0.30 +0.01    -0.048 A  
DOCKED: ATOM     21  C   UNL     1     138.667  78.640 223.071 -0.30 -0.00    +0.003 A  
DOCKED: ATOM     22  C   UNL     1     140.571  77.335 222.306 -0.39 -0.02    +0.054 A  
DOCKED: ATOM     23  C   UNL     1     139.535  79.535 223.702 -0.43 -0.00    +0.000 A  
DOCKED: ATOM     24  C   UNL     1     141.431  78.239 222.943 -0.51 -0.01    +0.020 A  
DOCKED: ATOM     25  C   UNL     1     140.914  79.334 223.640 -0.54 -0.00    +0.001 A  
DOCKED: BRANCH  22  26
DOCKED: ATOM     26  C   UNL     1     141.146  76.230 221.576 -0.26 -0.04    +0.099 C  
DOCKED: ATOM     27  N   UNL     1     141.605  75.347 220.984 -0.22 +0.07    -0.192 NA 
DOCKED: ENDBRANCH  22  26
DOCKED: ENDBRANCH  19  20
DOCKED: ENDBRANCH  18  19
DOCKED: ENDBRANCH   1  18
DOCKED: TORSDOF 9
DOCKED: TER
DOCKED: ENDMDL
________________________________________________________________________________


    FINAL DOCKED STATE:
    ________________________


Run:   4 / 20
Time taken for this run:   0.039s

DOCKED: MODEL        4
DOCKED: USER    Run = 4
DOCKED: USER
DOCKED: USER    Estimated Free Energy of Binding    =  -7.83 kcal/mol  [=(1)+(2)+(3)-(4)]
DOCKED: USER
DOCKED: USER    (1) Final Intermolecular Energy     = -10.52 kcal/mol
DOCKED: USER        vdW + Hbond + desolv Energy     = -10.65 kcal/mol
DOCKED: USER        Electrostatic Energy            =  +0.13 kcal/mol
DOCKED: USER        Moving Ligand-Fixed Receptor    = -10.52 kcal/mol
DOCKED: USER        Moving Ligand-Moving Receptor   =  +0.00 kcal/mol
DOCKED: USER    (2) Final Total Internal Energy     =  -0.99 kcal/mol
DOCKED: USER    (3) Torsional Free Energy           =  +2.68 kcal/mol
DOCKED: USER    (4) Unbound System's Energy         =  -0.99 kcal/mol
DOCKED: USER
DOCKED: USER
DOCKED: REMARK SMILES N#Cc1ccccc1C[N-]C(=O)C/N=C(/O)c1ccc2ccccc2n1
DOCKED: REMARK SMILES IDX 11 1 12 2 13 3 14 4 15 5 16 6 17 8 26 9 18 10 25 11 19 12
DOCKED: REMARK SMILES IDX 24 13 20 14 23 15 21 16 22 17 10 18 9 19 8 20 7 21 3 22 6 23
DOCKED: REMARK SMILES IDX 4 24 5 25 2 26 1 27
DOCKED: REMARK H PARENT 16 7
DOCKED: USER                              x       y       z     vdW  Elec       q    Type
DOCKED: USER                           _______ _______ _______ _____ _____    ______ ____
DOCKED: ROOT
DOCKED: ATOM      1  C   UNL     1     139.277  72.267 222.448 -0.23 -0.02    +0.073 C  
DOCKED: ATOM      2  O   UNL     1     138.026  72.153 222.533 -0.11 +0.09    -0.318 OA 
DOCKED: ENDROOT
DOCKED: BRANCH   1   3
DOCKED: ATOM      3  C   UNL     1     139.886  72.712 221.144 -0.14 -0.03    +0.201 C  
DOCKED: BRANCH   3   4
DOCKED: ATOM      4  N   UNL     1     139.823  74.169 221.009 -0.15 +0.05    -0.244 NA 
DOCKED: BRANCH   4   5
DOCKED: ATOM      5  C   UNL     1     140.737  75.024 221.373 -0.23 -0.05    +0.233 C  
DOCKED: BRANCH   5   6
DOCKED: ATOM      6  O   UNL     1     142.080  74.682 221.229 -0.12 +0.14    -0.492 OA 
DOCKED: ATOM      7  H   UNL     1     142.816  75.319 221.509 -0.33 -0.20    +0.295 HD 
DOCKED: ENDBRANCH   5   6
DOCKED: BRANCH   5   8
DOCKED: ATOM      8  C   UNL     1     140.416  76.358 221.910 -0.32 -0.03    +0.125 A  
DOCKED: ATOM      9  N   UNL     1     141.426  77.242 222.134 -0.11 +0.13    -0.243 NA 
DOCKED: ATOM     10  C   UNL     1     139.104  76.692 222.278 -0.31 -0.01    +0.035 A  
DOCKED: ATOM     11  C   UNL     1     141.199  78.471 222.672 -0.44 -0.03    +0.071 A  
DOCKED: ATOM     12  C   UNL     1     138.839  77.950 222.824 -0.28 -0.00    +0.013 A  
DOCKED: ATOM     13  C   UNL     1     142.265  79.355 222.878 -0.58 -0.01    +0.029 A  
DOCKED: ATOM     14  C   UNL     1     139.887  78.856 223.026 -0.39 -0.00    +0.000 A  
DOCKED: ATOM     15  C   UNL     1     142.029  80.617 223.431 -0.62 -0.00    +0.002 A  
DOCKED: ATOM     16  C   UNL     1     139.657  80.124 223.580 -0.42 -0.00    +0.010 A  
DOCKED: ATOM     17  C   UNL     1     140.729  81.001 223.781 -0.40 -0.00    +0.001 A  
DOCKED: ENDBRANCH   5   8
DOCKED: ENDBRANCH   4   5
DOCKED: ENDBRANCH   3   4
DOCKED: ENDBRANCH   1   3
DOCKED: BRANCH   1  18
DOCKED: ATOM     18  N   UNL     1     140.078  71.885 223.573 -0.07 +0.11    -0.648 NA 
DOCKED: BRANCH  18  19
DOCKED: ATOM     19  C   UNL     1     140.038  70.583 224.223 -0.35 +0.01    -0.080 C  
DOCKED: BRANCH  19  20
DOCKED: ATOM     20  C   UNL     1     140.397  70.734 225.681 -0.53 +0.01    -0.048 A  
DOCKED: ATOM     21  C   UNL     1     140.976  71.936 226.126 -0.58 -0.00    +0.003 A  
DOCKED: ATOM     22  C   UNL     1     140.193  69.685 226.609 -0.50 -0.01    +0.054 A  
DOCKED: ATOM     23  C   UNL     1     141.327  72.101 227.468 -0.81 -0.00    +0.000 A  
DOCKED: ATOM     24  C   UNL     1     140.549  69.863 227.952 -0.61 -0.00    +0.020 A  
DOCKED: ATOM     25  C   UNL     1     141.113  71.068 228.380 -0.61 -0.00    +0.001 A  
DOCKED: BRANCH  22  26
DOCKED: ATOM     26  C   UNL     1     139.637  68.417 226.203 -0.51 -0.01    +0.099 C  
DOCKED: ATOM     27  N   UNL     1     139.194  67.399 225.870 -0.89 -0.00    -0.192 NA 
DOCKED: ENDBRANCH  22  26
DOCKED: ENDBRANCH  19  20
DOCKED: ENDBRANCH  18  19
DOCKED: ENDBRANCH   1  18
DOCKED: TORSDOF 9
DOCKED: TER
DOCKED: ENDMDL
________________________________________________________________________________


    FINAL DOCKED STATE:
    ________________________


Run:   5 / 20
Time taken for this run:   0.039s

DOCKED: MODEL        5
DOCKED: USER    Run = 5
DOCKED: USER
DOCKED: USER    Estimated Free Energy of Binding    =  -7.24 kcal/mol  [=(1)+(2)+(3)-(4)]
DOCKED: USER
DOCKED: USER    (1) Final Intermolecular Energy     =  -9.93 kcal/mol
DOCKED: USER        vdW + Hbond + desolv Energy     = -10.02 kcal/mol
DOCKED: USER        Electrostatic Energy            =  +0.09 kcal/mol
DOCKED: USER        Moving Ligand-Fixed Receptor    =  -9.93 kcal/mol
DOCKED: USER        Moving Ligand-Moving Receptor   =  +0.00 kcal/mol
DOCKED: USER    (2) Final Total Internal Energy     =  -1.56 kcal/mol
DOCKED: USER    (3) Torsional Free Energy           =  +2.68 kcal/mol
DOCKED: USER    (4) Unbound System's Energy         =  -1.56 kcal/mol
DOCKED: USER
DOCKED: USER
DOCKED: REMARK SMILES N#Cc1ccccc1C[N-]C(=O)C/N=C(/O)c1ccc2ccccc2n1
DOCKED: REMARK SMILES IDX 11 1 12 2 13 3 14 4 15 5 16 6 17 8 26 9 18 10 25 11 19 12
DOCKED: REMARK SMILES IDX 24 13 20 14 23 15 21 16 22 17 10 18 9 19 8 20 7 21 3 22 6 23
DOCKED: REMARK SMILES IDX 4 24 5 25 2 26 1 27
DOCKED: REMARK H PARENT 16 7
DOCKED: USER                              x       y       z     vdW  Elec       q    Type
DOCKED: USER                           _______ _______ _______ _____ _____    ______ ____
DOCKED: ROOT
DOCKED: ATOM      1  C   UNL     1     140.332  71.829 222.666 -0.30 -0.01    +0.073 C  
DOCKED: ATOM      2  O   UNL     1     141.071  72.359 223.538 +0.02 -0.01    -0.318 OA 
DOCKED: ENDROOT
DOCKED: BRANCH   1   3
DOCKED: ATOM      3  C   UNL     1     140.632  72.065 221.209 -0.15 -0.03    +0.201 C  
DOCKED: BRANCH   3   4
DOCKED: ATOM      4  N   UNL     1     140.862  73.488 220.948 -0.16 +0.04    -0.244 NA 
DOCKED: BRANCH   4   5
DOCKED: ATOM      5  C   UNL     1     140.324  74.493 221.582 -0.22 -0.03    +0.233 C  
DOCKED: BRANCH   5   6
DOCKED: ATOM      6  O   UNL     1     139.215  74.265 222.392 -0.52 +0.12    -0.492 OA 
DOCKED: ATOM      7  H   UNL     1     139.195  73.495 223.051 -0.44 -0.12    +0.295 HD 
DOCKED: ENDBRANCH   5   6
DOCKED: BRANCH   5   8
DOCKED: ATOM      8  C   UNL     1     140.854  75.865 221.503 -0.30 -0.04    +0.125 A  
DOCKED: ATOM      9  N   UNL     1     140.940  76.607 222.640 -0.25 +0.08    -0.243 NA 
DOCKED: ATOM     10  C   UNL     1     141.180  76.444 220.267 -0.22 -0.01    +0.035 A  
DOCKED: ATOM     11  C   UNL     1     141.376  77.896 222.626 -0.37 -0.03    +0.071 A  
DOCKED: ATOM     12  C   UNL     1     141.640  77.762 220.222 -0.29 -0.01    +0.013 A  
DOCKED: ATOM     13  C   UNL     1     141.458  78.622 223.820 -0.54 -0.01    +0.029 A  
DOCKED: ATOM     14  C   UNL     1     141.744  78.503 221.405 -0.38 -0.00    +0.000 A  
DOCKED: ATOM     15  C   UNL     1     141.908  79.947 223.802 -0.62 -0.00    +0.002 A  
DOCKED: ATOM     16  C   UNL     1     142.194  79.832 221.395 -0.37 -0.01    +0.010 A  
DOCKED: ATOM     17  C   UNL     1     142.274  80.550 222.593 -0.58 -0.00    +0.001 A  
DOCKED: ENDBRANCH   5   8
DOCKED: ENDBRANCH   4   5
DOCKED: ENDBRANCH   3   4
DOCKED: ENDBRANCH   1   3
DOCKED: BRANCH   1  18
DOCKED: ATOM     18  N   UNL     1     139.184  71.090 223.099 +0.00 +0.13    -0.648 NA 
DOCKED: BRANCH  18  19
DOCKED: ATOM     19  C   UNL     1     138.723  70.995 224.477 -0.24 +0.02    -0.080 C  
DOCKED: BRANCH  19  20
DOCKED: ATOM     20  C   UNL     1     139.396  69.828 225.156 -0.38 +0.01    -0.048 A  
DOCKED: ATOM     21  C   UNL     1     139.011  68.518 224.817 -0.40 -0.00    +0.003 A  
DOCKED: ATOM     22  C   UNL     1     140.385  70.017 226.150 -0.49 -0.01    +0.054 A  
DOCKED: ATOM     23  C   UNL     1     139.611  67.418 225.435 -0.45 -0.00    +0.000 A  
DOCKED: ATOM     24  C   UNL     1     140.980  68.906 226.764 -0.57 -0.00    +0.020 A  
DOCKED: ATOM     25  C   UNL     1     140.594  67.612 226.406 -0.67 -0.00    +0.001 A  
DOCKED: BRANCH  22  26
DOCKED: ATOM     26  C   UNL     1     140.794  71.337 226.566 -0.61 -0.02    +0.099 C  
DOCKED: ATOM     27  N   UNL     1     141.123  72.394 226.907 -0.50 +0.04    -0.192 NA 
DOCKED: ENDBRANCH  22  26
DOCKED: ENDBRANCH  19  20
DOCKED: ENDBRANCH  18  19
DOCKED: ENDBRANCH   1  18
DOCKED: TORSDOF 9
DOCKED: TER
DOCKED: ENDMDL
________________________________________________________________________________


    FINAL DOCKED STATE:
    ________________________


Run:   6 / 20
Time taken for this run:   0.039s

DOCKED: MODEL        6
DOCKED: USER    Run = 6
DOCKED: USER
DOCKED: USER    Estimated Free Energy of Binding    =  -8.69 kcal/mol  [=(1)+(2)+(3)-(4)]
DOCKED: USER
DOCKED: USER    (1) Final Intermolecular Energy     = -11.37 kcal/mol
DOCKED: USER        vdW + Hbond + desolv Energy     = -11.37 kcal/mol
DOCKED: USER        Electrostatic Energy            =  -0.00 kcal/mol
DOCKED: USER        Moving Ligand-Fixed Receptor    = -11.37 kcal/mol
DOCKED: USER        Moving Ligand-Moving Receptor   =  +0.00 kcal/mol
DOCKED: USER    (2) Final Total Internal Energy     =  -0.68 kcal/mol
DOCKED: USER    (3) Torsional Free Energy           =  +2.68 kcal/mol
DOCKED: USER    (4) Unbound System's Energy         =  -0.68 kcal/mol
DOCKED: USER
DOCKED: USER
DOCKED: REMARK SMILES N#Cc1ccccc1C[N-]C(=O)C/N=C(/O)c1ccc2ccccc2n1
DOCKED: REMARK SMILES IDX 11 1 12 2 13 3 14 4 15 5 16 6 17 8 26 9 18 10 25 11 19 12
DOCKED: REMARK SMILES IDX 24 13 20 14 23 15 21 16 22 17 10 18 9 19 8 20 7 21 3 22 6 23
DOCKED: REMARK SMILES IDX 4 24 5 25 2 26 1 27
DOCKED: REMARK H PARENT 16 7
DOCKED: USER                              x       y       z     vdW  Elec       q    Type
DOCKED: USER                           _______ _______ _______ _____ _____    ______ ____
DOCKED: ROOT
DOCKED: ATOM      1  C   UNL     1     140.363  71.439 222.011 -0.22 -0.01    +0.073 C  
DOCKED: ATOM      2  O   UNL     1     139.914  70.404 221.450 -0.08 +0.05    -0.318 OA 
DOCKED: ENDROOT
DOCKED: BRANCH   1   3
DOCKED: ATOM      3  C   UNL     1     140.930  72.546 221.160 -0.17 -0.03    +0.201 C  
DOCKED: BRANCH   3   4
DOCKED: ATOM      4  N   UNL     1     141.131  73.762 221.951 -0.53 +0.00    -0.244 NA 
DOCKED: BRANCH   4   5
DOCKED: ATOM      5  C   UNL     1     140.361  74.814 221.969 -0.08 -0.02    +0.233 C  
DOCKED: BRANCH   5   6
DOCKED: ATOM      6  O   UNL     1     138.995  74.650 222.185 -0.34 +0.12    -0.492 OA 
DOCKED: ATOM      7  H   UNL     1     138.649  74.127 222.979 -0.50 -0.18    +0.295 HD 
DOCKED: ENDBRANCH   5   6
DOCKED: BRANCH   5   8
DOCKED: ATOM      8  C   UNL     1     140.876  76.184 221.797 -0.31 -0.04    +0.125 A  
DOCKED: ATOM      9  N   UNL     1     141.031  76.975 222.893 -0.20 +0.08    -0.243 NA 
DOCKED: ATOM     10  C   UNL     1     141.116  76.711 220.519 -0.25 -0.01    +0.035 A  
DOCKED: ATOM     11  C   UNL     1     141.456  78.263 222.796 -0.46 -0.03    +0.071 A  
DOCKED: ATOM     12  C   UNL     1     141.563  78.028 220.388 -0.29 -0.01    +0.013 A  
DOCKED: ATOM     13  C   UNL     1     141.611  79.041 223.950 -0.58 -0.01    +0.029 A  
DOCKED: ATOM     14  C   UNL     1     141.739  78.820 221.529 -0.40 -0.00    +0.000 A  
DOCKED: ATOM     15  C   UNL     1     142.050  80.365 223.846 -0.63 -0.00    +0.002 A  
DOCKED: ATOM     16  C   UNL     1     142.178  80.148 221.432 -0.42 -0.00    +0.010 A  
DOCKED: ATOM     17  C   UNL     1     142.332  80.917 222.592 -0.55 -0.00    +0.001 A  
DOCKED: ENDBRANCH   5   8
DOCKED: ENDBRANCH   4   5
DOCKED: ENDBRANCH   3   4
DOCKED: ENDBRANCH   1   3
DOCKED: BRANCH   1  18
DOCKED: ATOM     18  N   UNL     1     140.393  71.485 223.442 -0.03 +0.08    -0.648 NA 
DOCKED: BRANCH  18  19
DOCKED: ATOM     19  C   UNL     1     139.686  70.565 224.322 -0.36 +0.01    -0.080 C  
DOCKED: BRANCH  19  20
DOCKED: ATOM     20  C   UNL     1     140.200  70.718 225.732 -0.51 +0.01    -0.048 A  
DOCKED: ATOM     21  C   UNL     1     140.759  71.945 226.132 -0.52 -0.00    +0.003 A  
DOCKED: ATOM     22  C   UNL     1     140.162  69.647 226.656 -0.50 -0.01    +0.054 A  
DOCKED: ATOM     23  C   UNL     1     141.251  72.113 227.429 -0.82 -0.00    +0.000 A  
DOCKED: ATOM     24  C   UNL     1     140.659  69.827 227.954 -0.61 -0.00    +0.020 A  
DOCKED: ATOM     25  C   UNL     1     141.200  71.057 228.339 -0.62 -0.00    +0.001 A  
DOCKED: BRANCH  22  26
DOCKED: ATOM     26  C   UNL     1     139.634  68.354 226.292 -0.52 -0.01    +0.099 C  
DOCKED: ATOM     27  N   UNL     1     139.207  67.319 225.993 -0.85 -0.00    -0.192 NA 
DOCKED: ENDBRANCH  22  26
DOCKED: ENDBRANCH  19  20
DOCKED: ENDBRANCH  18  19
DOCKED: ENDBRANCH   1  18
DOCKED: TORSDOF 9
DOCKED: TER
DOCKED: ENDMDL
________________________________________________________________________________


    FINAL DOCKED STATE:
    ________________________


Run:   7 / 20
Time taken for this run:   0.039s

DOCKED: MODEL        7
DOCKED: USER    Run = 7
DOCKED: USER
DOCKED: USER    Estimated Free Energy of Binding    =  -8.50 kcal/mol  [=(1)+(2)+(3)-(4)]
DOCKED: USER
DOCKED: USER    (1) Final Intermolecular Energy     = -11.19 kcal/mol
DOCKED: USER        vdW + Hbond + desolv Energy     = -11.30 kcal/mol
DOCKED: USER        Electrostatic Energy            =  +0.11 kcal/mol
DOCKED: USER        Moving Ligand-Fixed Receptor    = -11.19 kcal/mol
DOCKED: USER        Moving Ligand-Moving Receptor   =  +0.00 kcal/mol
DOCKED: USER    (2) Final Total Internal Energy     =  -1.30 kcal/mol
DOCKED: USER    (3) Torsional Free Energy           =  +2.68 kcal/mol
DOCKED: USER    (4) Unbound System's Energy         =  -1.30 kcal/mol
DOCKED: USER
DOCKED: USER
DOCKED: REMARK SMILES N#Cc1ccccc1C[N-]C(=O)C/N=C(/O)c1ccc2ccccc2n1
DOCKED: REMARK SMILES IDX 11 1 12 2 13 3 14 4 15 5 16 6 17 8 26 9 18 10 25 11 19 12
DOCKED: REMARK SMILES IDX 24 13 20 14 23 15 21 16 22 17 10 18 9 19 8 20 7 21 3 22 6 23
DOCKED: REMARK SMILES IDX 4 24 5 25 2 26 1 27
DOCKED: REMARK H PARENT 16 7
DOCKED: USER                              x       y       z     vdW  Elec       q    Type
DOCKED: USER                           _______ _______ _______ _____ _____    ______ ____
DOCKED: ROOT
DOCKED: ATOM      1  C   UNL     1     139.630  72.223 222.118 -0.25 -0.01    +0.073 C  
DOCKED: ATOM      2  O   UNL     1     138.483  72.072 221.619 -0.07 +0.07    -0.318 OA 
DOCKED: ENDROOT
DOCKED: BRANCH   1   3
DOCKED: ATOM      3  C   UNL     1     140.772  72.621 221.219 -0.18 -0.03    +0.201 C  
DOCKED: BRANCH   3   4
DOCKED: ATOM      4  N   UNL     1     141.252  73.965 221.549 -0.35 +0.03    -0.244 NA 
DOCKED: BRANCH   4   5
DOCKED: ATOM      5  C   UNL     1     140.518  75.004 221.839 -0.14 -0.03    +0.233 C  
DOCKED: BRANCH   5   6
DOCKED: ATOM      6  O   UNL     1     139.234  74.806 222.341 -0.53 +0.10    -0.492 OA 
DOCKED: ATOM      7  H   UNL     1     138.980  73.944 222.806 -0.48 -0.12    +0.295 HD 
DOCKED: ENDBRANCH   5   6
DOCKED: BRANCH   5   8
DOCKED: ATOM      8  C   UNL     1     140.997  76.389 221.684 -0.30 -0.05    +0.125 A  
DOCKED: ATOM      9  N   UNL     1     141.029  77.202 222.774 -0.27 +0.09    -0.243 NA 
DOCKED: ATOM     10  C   UNL     1     141.327  76.903 220.422 -0.26 -0.02    +0.035 A  
DOCKED: ATOM     11  C   UNL     1     141.414  78.504 222.689 -0.46 -0.03    +0.071 A  
DOCKED: ATOM     12  C   UNL     1     141.736  78.233 220.304 -0.30 -0.01    +0.013 A  
DOCKED: ATOM     13  C   UNL     1     141.442  79.306 223.836 -0.58 -0.01    +0.029 A  
DOCKED: ATOM     14  C   UNL     1     141.785  79.050 221.440 -0.40 -0.00    +0.000 A  
DOCKED: ATOM     15  C   UNL     1     141.840  80.643 223.744 -0.60 -0.00    +0.002 A  
DOCKED: ATOM     16  C   UNL     1     142.184  80.392 221.355 -0.41 -0.00    +0.010 A  
DOCKED: ATOM     17  C   UNL     1     142.210  81.185 222.508 -0.51 -0.00    +0.001 A  
DOCKED: ENDBRANCH   5   8
DOCKED: ENDBRANCH   4   5
DOCKED: ENDBRANCH   3   4
DOCKED: ENDBRANCH   1   3
DOCKED: BRANCH   1  18
DOCKED: ATOM     18  N   UNL     1     139.819  71.925 223.506 -0.05 +0.14    -0.648 NA 
DOCKED: BRANCH  18  19
DOCKED: ATOM     19  C   UNL     1     140.611  70.817 224.022 -0.20 +0.01    -0.080 C  
DOCKED: BRANCH  19  20
DOCKED: ATOM     20  C   UNL     1     140.588  70.839 225.530 -0.53 +0.01    -0.048 A  
DOCKED: ATOM     21  C   UNL     1     141.094  71.961 226.211 -0.60 -0.00    +0.003 A  
DOCKED: ATOM     22  C   UNL     1     140.098  69.744 226.282 -0.47 -0.01    +0.054 A  
DOCKED: ATOM     23  C   UNL     1     141.093  72.006 227.607 -0.84 -0.00    +0.000 A  
DOCKED: ATOM     24  C   UNL     1     140.103  69.800 227.682 -0.60 -0.00    +0.020 A  
DOCKED: ATOM     25  C   UNL     1     140.598  70.928 228.341 -0.64 -0.00    +0.001 A  
DOCKED: BRANCH  22  26
DOCKED: ATOM     26  C   UNL     1     139.602  68.550 225.639 -0.44 -0.01    +0.099 C  
DOCKED: ATOM     27  N   UNL     1     139.210  67.590 225.124 -0.84 -0.00    -0.192 NA 
DOCKED: ENDBRANCH  22  26
DOCKED: ENDBRANCH  19  20
DOCKED: ENDBRANCH  18  19
DOCKED: ENDBRANCH   1  18
DOCKED: TORSDOF 9
DOCKED: TER
DOCKED: ENDMDL
________________________________________________________________________________


    FINAL DOCKED STATE:
    ________________________


Run:   8 / 20
Time taken for this run:   0.039s

DOCKED: MODEL        8
DOCKED: USER    Run = 8
DOCKED: USER
DOCKED: USER    Estimated Free Energy of Binding    =  -7.12 kcal/mol  [=(1)+(2)+(3)-(4)]
DOCKED: USER
DOCKED: USER    (1) Final Intermolecular Energy     =  -9.80 kcal/mol
DOCKED: USER        vdW + Hbond + desolv Energy     =  -9.84 kcal/mol
DOCKED: USER        Electrostatic Energy            =  +0.04 kcal/mol
DOCKED: USER        Moving Ligand-Fixed Receptor    =  -9.80 kcal/mol
DOCKED: USER        Moving Ligand-Moving Receptor   =  +0.00 kcal/mol
DOCKED: USER    (2) Final Total Internal Energy     =  -1.75 kcal/mol
DOCKED: USER    (3) Torsional Free Energy           =  +2.68 kcal/mol
DOCKED: USER    (4) Unbound System's Energy         =  -1.75 kcal/mol
DOCKED: USER
DOCKED: USER
DOCKED: REMARK SMILES N#Cc1ccccc1C[N-]C(=O)C/N=C(/O)c1ccc2ccccc2n1
DOCKED: REMARK SMILES IDX 11 1 12 2 13 3 14 4 15 5 16 6 17 8 26 9 18 10 25 11 19 12
DOCKED: REMARK SMILES IDX 24 13 20 14 23 15 21 16 22 17 10 18 9 19 8 20 7 21 3 22 6 23
DOCKED: REMARK SMILES IDX 4 24 5 25 2 26 1 27
DOCKED: REMARK H PARENT 16 7
DOCKED: USER                              x       y       z     vdW  Elec       q    Type
DOCKED: USER                           _______ _______ _______ _____ _____    ______ ____
DOCKED: ROOT
DOCKED: ATOM      1  C   UNL     1     138.182  70.740 222.663 -0.17 -0.01    +0.073 C  
DOCKED: ATOM      2  O   UNL     1     137.922  69.508 222.647 -0.07 +0.05    -0.318 OA 
DOCKED: ENDROOT
DOCKED: BRANCH   1   3
DOCKED: ATOM      3  C   UNL     1     137.660  71.613 221.551 -0.07 -0.04    +0.201 C  
DOCKED: BRANCH   3   4
DOCKED: ATOM      4  N   UNL     1     138.755  72.325 220.888 -0.04 +0.05    -0.244 NA 
DOCKED: BRANCH   4   5
DOCKED: ATOM      5  C   UNL     1     139.827  72.804 221.454 -0.16 -0.04    +0.233 C  
DOCKED: BRANCH   5   6
DOCKED: ATOM      6  O   UNL     1     139.691  73.692 222.519 -0.64 +0.06    -0.492 OA 
DOCKED: ATOM      7  H   UNL     1     139.273  73.401 223.394 -0.39 -0.16    +0.295 HD 
DOCKED: ENDBRANCH   5   6
DOCKED: BRANCH   5   8
DOCKED: ATOM      8  C   UNL     1     141.188  72.427 221.036 -0.19 -0.02    +0.125 A  
DOCKED: ATOM      9  N   UNL     1     142.186  73.349 221.121 -0.14 +0.03    -0.243 NA 
DOCKED: ATOM     10  C   UNL     1     141.448  71.171 220.468 -0.15 -0.00    +0.035 A  
DOCKED: ATOM     11  C   UNL     1     143.452  73.077 220.706 -0.28 -0.01    +0.071 A  
DOCKED: ATOM     12  C   UNL     1     142.741  70.860 220.042 -0.18 -0.00    +0.013 A  
DOCKED: ATOM     13  C   UNL     1     144.452  74.051 220.819 -0.43 -0.01    +0.029 A  
DOCKED: ATOM     14  C   UNL     1     143.760  71.812 220.158 -0.29 -0.00    +0.000 A  
DOCKED: ATOM     15  C   UNL     1     145.754  73.768 220.393 -0.62 -0.00    +0.002 A  
DOCKED: ATOM     16  C   UNL     1     145.067  71.536 219.733 -0.30 +0.00    +0.010 A  
DOCKED: ATOM     17  C   UNL     1     146.061  72.515 219.851 -0.39 +0.00    +0.001 A  
DOCKED: ENDBRANCH   5   8
DOCKED: ENDBRANCH   4   5
DOCKED: ENDBRANCH   3   4
DOCKED: ENDBRANCH   1   3
DOCKED: BRANCH   1  18
DOCKED: ATOM     18  N   UNL     1     139.038  71.247 223.693 -0.00 +0.16    -0.648 NA 
DOCKED: BRANCH  18  19
DOCKED: ATOM     19  C   UNL     1     140.329  70.680 224.060 -0.30 +0.01    -0.080 C  
DOCKED: BRANCH  19  20
DOCKED: ATOM     20  C   UNL     1     140.505  70.752 225.557 -0.52 +0.01    -0.048 A  
DOCKED: ATOM     21  C   UNL     1     141.059  71.911 226.130 -0.62 -0.00    +0.003 A  
DOCKED: ATOM     22  C   UNL     1     140.154  69.671 226.399 -0.48 -0.01    +0.054 A  
DOCKED: ATOM     23  C   UNL     1     141.242  72.003 227.512 -0.82 -0.00    +0.000 A  
DOCKED: ATOM     24  C   UNL     1     140.343  69.774 227.784 -0.61 -0.00    +0.020 A  
DOCKED: ATOM     25  C   UNL     1     140.884  70.937 228.337 -0.64 -0.00    +0.001 A  
DOCKED: BRANCH  22  26
DOCKED: ATOM     26  C   UNL     1     139.616  68.442 225.864 -0.48 -0.01    +0.099 C  
DOCKED: ATOM     27  N   UNL     1     139.187  67.453 225.441 -0.87 -0.01    -0.192 NA 
DOCKED: ENDBRANCH  22  26
DOCKED: ENDBRANCH  19  20
DOCKED: ENDBRANCH  18  19
DOCKED: ENDBRANCH   1  18
DOCKED: TORSDOF 9
DOCKED: TER
DOCKED: ENDMDL
________________________________________________________________________________


    FINAL DOCKED STATE:
    ________________________


Run:   9 / 20
Time taken for this run:   0.039s

DOCKED: MODEL        9
DOCKED: USER    Run = 9
DOCKED: USER
DOCKED: USER    Estimated Free Energy of Binding    =  -8.69 kcal/mol  [=(1)+(2)+(3)-(4)]
DOCKED: USER
DOCKED: USER    (1) Final Intermolecular Energy     = -11.37 kcal/mol
DOCKED: USER        vdW + Hbond + desolv Energy     = -11.48 kcal/mol
DOCKED: USER        Electrostatic Energy            =  +0.10 kcal/mol
DOCKED: USER        Moving Ligand-Fixed Receptor    = -11.37 kcal/mol
DOCKED: USER        Moving Ligand-Moving Receptor   =  +0.00 kcal/mol
DOCKED: USER    (2) Final Total Internal Energy     =  -0.90 kcal/mol
DOCKED: USER    (3) Torsional Free Energy           =  +2.68 kcal/mol
DOCKED: USER    (4) Unbound System's Energy         =  -0.90 kcal/mol
DOCKED: USER
DOCKED: USER
DOCKED: REMARK SMILES N#Cc1ccccc1C[N-]C(=O)C/N=C(/O)c1ccc2ccccc2n1
DOCKED: REMARK SMILES IDX 11 1 12 2 13 3 14 4 15 5 16 6 17 8 26 9 18 10 25 11 19 12
DOCKED: REMARK SMILES IDX 24 13 20 14 23 15 21 16 22 17 10 18 9 19 8 20 7 21 3 22 6 23
DOCKED: REMARK SMILES IDX 4 24 5 25 2 26 1 27
DOCKED: REMARK H PARENT 16 7
DOCKED: USER                              x       y       z     vdW  Elec       q    Type
DOCKED: USER                           _______ _______ _______ _____ _____    ______ ____
DOCKED: ROOT
DOCKED: ATOM      1  C   UNL     1     140.182  72.195 222.364 -0.29 -0.01    +0.073 C  
DOCKED: ATOM      2  O   UNL     1     141.364  71.940 222.011 -0.17 +0.02    -0.318 OA 
DOCKED: ENDROOT
DOCKED: BRANCH   1   3
DOCKED: ATOM      3  C   UNL     1     139.346  73.116 221.513 -0.16 -0.04    +0.201 C  
DOCKED: BRANCH   3   4
DOCKED: ATOM      4  N   UNL     1     139.393  74.487 222.027 -0.54 +0.05    -0.244 NA 
DOCKED: BRANCH   4   5
DOCKED: ATOM      5  C   UNL     1     140.402  75.310 221.956 -0.17 -0.03    +0.233 C  
DOCKED: BRANCH   5   6
DOCKED: ATOM      6  O   UNL     1     141.622  74.845 221.471 -0.19 +0.12    -0.492 OA 
DOCKED: ATOM      7  H   UNL     1     142.473  75.378 221.596 -0.37 -0.18    +0.295 HD 
DOCKED: ENDBRANCH   5   6
DOCKED: BRANCH   5   8
DOCKED: ATOM      8  C   UNL     1     140.305  76.729 222.342 -0.34 -0.03    +0.125 A  
DOCKED: ATOM      9  N   UNL     1     141.447  77.450 222.504 -0.16 +0.12    -0.243 NA 
DOCKED: ATOM     10  C   UNL     1     139.065  77.315 222.636 -0.28 -0.01    +0.035 A  
DOCKED: ATOM     11  C   UNL     1     141.427  78.749 222.906 -0.49 -0.03    +0.071 A  
DOCKED: ATOM     12  C   UNL     1     139.011  78.650 223.041 -0.32 -0.00    +0.013 A  
DOCKED: ATOM     13  C   UNL     1     142.625  79.459 223.051 -0.59 -0.01    +0.029 A  
DOCKED: ATOM     14  C   UNL     1     140.195  79.384 223.180 -0.44 -0.00    +0.000 A  
DOCKED: ATOM     15  C   UNL     1     142.599  80.795 223.464 -0.66 -0.00    +0.002 A  
DOCKED: ATOM     16  C   UNL     1     140.177  80.724 223.592 -0.42 -0.00    +0.010 A  
DOCKED: ATOM     17  C   UNL     1     141.380  81.426 223.734 -0.43 -0.00    +0.001 A  
DOCKED: ENDBRANCH   5   8
DOCKED: ENDBRANCH   4   5
DOCKED: ENDBRANCH   3   4
DOCKED: ENDBRANCH   1   3
DOCKED: BRANCH   1  18
DOCKED: ATOM     18  N   UNL     1     139.709  71.666 223.608 -0.04 +0.14    -0.648 NA 
DOCKED: BRANCH  18  19
DOCKED: ATOM     19  C   UNL     1     140.166  70.424 224.215 -0.30 +0.01    -0.080 C  
DOCKED: BRANCH  19  20
DOCKED: ATOM     20  C   UNL     1     140.477  70.657 225.673 -0.52 +0.01    -0.048 A  
DOCKED: ATOM     21  C   UNL     1     141.062  71.875 226.066 -0.62 -0.00    +0.003 A  
DOCKED: ATOM     22  C   UNL     1     140.224  69.670 226.654 -0.50 -0.01    +0.054 A  
DOCKED: ATOM     23  C   UNL     1     141.369  72.116 227.407 -0.81 -0.00    +0.000 A  
DOCKED: ATOM     24  C   UNL     1     140.536  69.922 227.996 -0.61 -0.00    +0.020 A  
DOCKED: ATOM     25  C   UNL     1     141.105  71.142 228.371 -0.64 -0.00    +0.001 A  
DOCKED: BRANCH  22  26
DOCKED: ATOM     26  C   UNL     1     139.660  68.387 226.305 -0.52 -0.01    +0.099 C  
DOCKED: ATOM     27  N   UNL     1     139.205  67.361 226.018 -0.88 +0.00    -0.192 NA 
DOCKED: ENDBRANCH  22  26
DOCKED: ENDBRANCH  19  20
DOCKED: ENDBRANCH  18  19
DOCKED: ENDBRANCH   1  18
DOCKED: TORSDOF 9
DOCKED: TER
DOCKED: ENDMDL
________________________________________________________________________________


    FINAL DOCKED STATE:
    ________________________


Run:   10 / 20
Time taken for this run:   0.039s

DOCKED: MODEL        10
DOCKED: USER    Run = 10
DOCKED: USER
DOCKED: USER    Estimated Free Energy of Binding    =  -8.57 kcal/mol  [=(1)+(2)+(3)-(4)]
DOCKED: USER
DOCKED: USER    (1) Final Intermolecular Energy     = -11.26 kcal/mol
DOCKED: USER        vdW + Hbond + desolv Energy     = -11.36 kcal/mol
DOCKED: USER        Electrostatic Energy            =  +0.10 kcal/mol
DOCKED: USER        Moving Ligand-Fixed Receptor    = -11.26 kcal/mol
DOCKED: USER        Moving Ligand-Moving Receptor   =  +0.00 kcal/mol
DOCKED: USER    (2) Final Total Internal Energy     =  -1.41 kcal/mol
DOCKED: USER    (3) Torsional Free Energy           =  +2.68 kcal/mol
DOCKED: USER    (4) Unbound System's Energy         =  -1.41 kcal/mol
DOCKED: USER
DOCKED: USER
DOCKED: REMARK SMILES N#Cc1ccccc1C[N-]C(=O)C/N=C(/O)c1ccc2ccccc2n1
DOCKED: REMARK SMILES IDX 11 1 12 2 13 3 14 4 15 5 16 6 17 8 26 9 18 10 25 11 19 12
DOCKED: REMARK SMILES IDX 24 13 20 14 23 15 21 16 22 17 10 18 9 19 8 20 7 21 3 22 6 23
DOCKED: REMARK SMILES IDX 4 24 5 25 2 26 1 27
DOCKED: REMARK H PARENT 16 7
DOCKED: USER                              x       y       z     vdW  Elec       q    Type
DOCKED: USER                           _______ _______ _______ _____ _____    ______ ____
DOCKED: ROOT
DOCKED: ATOM      1  C   UNL     1     140.639  71.655 222.052 -0.24 -0.01    +0.073 C  
DOCKED: ATOM      2  O   UNL     1     140.132  70.820 221.256 -0.08 +0.05    -0.318 OA 
DOCKED: ENDROOT
DOCKED: BRANCH   1   3
DOCKED: ATOM      3  C   UNL     1     141.729  72.571 221.558 -0.06 -0.02    +0.201 C  
DOCKED: BRANCH   3   4
DOCKED: ATOM      4  N   UNL     1     141.163  73.798 220.992 -0.19 +0.04    -0.244 NA 
DOCKED: BRANCH   4   5
DOCKED: ATOM      5  C   UNL     1     140.592  74.767 221.651 -0.20 -0.03    +0.233 C  
DOCKED: BRANCH   5   6
DOCKED: ATOM      6  O   UNL     1     139.510  74.478 222.479 -0.58 +0.07    -0.492 OA 
DOCKED: ATOM      7  H   UNL     1     139.514  73.664 223.081 -0.43 -0.07    +0.295 HD 
DOCKED: ENDBRANCH   5   6
DOCKED: BRANCH   5   8
DOCKED: ATOM      8  C   UNL     1     141.060  76.163 221.583 -0.30 -0.05    +0.125 A  
DOCKED: ATOM      9  N   UNL     1     141.074  76.911 222.719 -0.27 +0.09    -0.243 NA 
DOCKED: ATOM     10  C   UNL     1     141.396  76.754 220.356 -0.26 -0.02    +0.035 A  
DOCKED: ATOM     11  C   UNL     1     141.448  78.219 222.714 -0.44 -0.03    +0.071 A  
DOCKED: ATOM     12  C   UNL     1     141.794  78.092 220.320 -0.31 -0.01    +0.013 A  
DOCKED: ATOM     13  C   UNL     1     141.458  78.952 223.907 -0.57 -0.01    +0.029 A  
DOCKED: ATOM     14  C   UNL     1     141.825  78.841 221.503 -0.41 -0.00    +0.000 A  
DOCKED: ATOM     15  C   UNL     1     141.845  80.296 223.897 -0.57 -0.00    +0.002 A  
DOCKED: ATOM     16  C   UNL     1     142.212  80.189 221.501 -0.42 -0.00    +0.010 A  
DOCKED: ATOM     17  C   UNL     1     142.220  80.913 222.699 -0.57 -0.00    +0.001 A  
DOCKED: ENDBRANCH   5   8
DOCKED: ENDBRANCH   4   5
DOCKED: ENDBRANCH   3   4
DOCKED: ENDBRANCH   1   3
DOCKED: BRANCH   1  18
DOCKED: ATOM     18  N   UNL     1     140.216  71.641 223.421 -0.05 +0.10    -0.648 NA 
DOCKED: BRANCH  18  19
DOCKED: ATOM     19  C   UNL     1     139.968  70.440 224.206 -0.34 +0.01    -0.080 C  
DOCKED: BRANCH  19  20
DOCKED: ATOM     20  C   UNL     1     140.367  70.681 225.641 -0.52 +0.01    -0.048 A  
DOCKED: ATOM     21  C   UNL     1     140.961  71.907 225.993 -0.56 -0.00    +0.003 A  
DOCKED: ATOM     22  C   UNL     1     140.187  69.694 226.638 -0.50 -0.01    +0.054 A  
DOCKED: ATOM     23  C   UNL     1     141.349  72.156 227.312 -0.81 -0.00    +0.000 A  
DOCKED: ATOM     24  C   UNL     1     140.580  69.955 227.958 -0.61 -0.00    +0.020 A  
DOCKED: ATOM     25  C   UNL     1     141.158  71.183 228.292 -0.67 -0.00    +0.001 A  
DOCKED: BRANCH  22  26
DOCKED: ATOM     26  C   UNL     1     139.617  68.405 226.329 -0.52 -0.01    +0.099 C  
DOCKED: ATOM     27  N   UNL     1     139.163  67.367 226.087 -0.87 +0.00    -0.192 NA 
DOCKED: ENDBRANCH  22  26
DOCKED: ENDBRANCH  19  20
DOCKED: ENDBRANCH  18  19
DOCKED: ENDBRANCH   1  18
DOCKED: TORSDOF 9
DOCKED: TER
DOCKED: ENDMDL
________________________________________________________________________________


    FINAL DOCKED STATE:
    ________________________


Run:   11 / 20
Time taken for this run:   0.039s

DOCKED: MODEL        11
DOCKED: USER    Run = 11
DOCKED: USER
DOCKED: USER    Estimated Free Energy of Binding    =  -6.57 kcal/mol  [=(1)+(2)+(3)-(4)]
DOCKED: USER
DOCKED: USER    (1) Final Intermolecular Energy     =  -9.25 kcal/mol
DOCKED: USER        vdW + Hbond + desolv Energy     =  -9.40 kcal/mol
DOCKED: USER        Electrostatic Energy            =  +0.15 kcal/mol
DOCKED: USER        Moving Ligand-Fixed Receptor    =  -9.25 kcal/mol
DOCKED: USER        Moving Ligand-Moving Receptor   =  +0.00 kcal/mol
DOCKED: USER    (2) Final Total Internal Energy     =  -1.47 kcal/mol
DOCKED: USER    (3) Torsional Free Energy           =  +2.68 kcal/mol
DOCKED: USER    (4) Unbound System's Energy         =  -1.47 kcal/mol
DOCKED: USER
DOCKED: USER
DOCKED: REMARK SMILES N#Cc1ccccc1C[N-]C(=O)C/N=C(/O)c1ccc2ccccc2n1
DOCKED: REMARK SMILES IDX 11 1 12 2 13 3 14 4 15 5 16 6 17 8 26 9 18 10 25 11 19 12
DOCKED: REMARK SMILES IDX 24 13 20 14 23 15 21 16 22 17 10 18 9 19 8 20 7 21 3 22 6 23
DOCKED: REMARK SMILES IDX 4 24 5 25 2 26 1 27
DOCKED: REMARK H PARENT 16 7
DOCKED: USER                              x       y       z     vdW  Elec       q    Type
DOCKED: USER                           _______ _______ _______ _____ _____    ______ ____
DOCKED: ROOT
DOCKED: ATOM      1  C   UNL     1     138.298  71.432 222.791 -0.19 -0.02    +0.073 C  
DOCKED: ATOM      2  O   UNL     1     137.865  72.484 222.250 -0.10 +0.09    -0.318 OA 
DOCKED: ENDROOT
DOCKED: BRANCH   1   3
DOCKED: ATOM      3  C   UNL     1     137.467  70.178 222.725 -0.11 -0.03    +0.201 C  
DOCKED: BRANCH   3   4
DOCKED: ATOM      4  N   UNL     1     137.019  69.777 224.061 -0.12 +0.03    -0.244 NA 
DOCKED: BRANCH   4   5
DOCKED: ATOM      5  C   UNL     1     135.794  69.791 224.508 -0.15 -0.02    +0.233 C  
DOCKED: BRANCH   5   6
DOCKED: ATOM      6  O   UNL     1     135.082  68.596 224.568 -0.53 -0.01    -0.492 OA 
DOCKED: ATOM      7  H   UNL     1     134.192  68.540 225.048 +0.10 -0.02    +0.295 HD 
DOCKED: ENDBRANCH   5   6
DOCKED: BRANCH   5   8
DOCKED: ATOM      8  C   UNL     1     135.131  71.019 224.982 -0.13 -0.01    +0.125 A  
DOCKED: ATOM      9  N   UNL     1     134.077  70.913 225.836 -0.16 +0.02    -0.243 NA 
DOCKED: ATOM     10  C   UNL     1     135.509  72.279 224.496 -0.16 -0.01    +0.035 A  
DOCKED: ATOM     11  C   UNL     1     133.393  72.005 226.272 -0.32 -0.00    +0.071 A  
DOCKED: ATOM     12  C   UNL     1     134.832  73.419 224.933 -0.27 -0.00    +0.013 A  
DOCKED: ATOM     13  C   UNL     1     132.319  71.854 227.157 -0.37 -0.00    +0.029 A  
DOCKED: ATOM     14  C   UNL     1     133.764  73.294 225.829 -0.32 -0.00    +0.000 A  
DOCKED: ATOM     15  C   UNL     1     131.619  72.979 227.604 -0.42 -0.00    +0.002 A  
DOCKED: ATOM     16  C   UNL     1     133.058  74.418 226.282 -0.33 -0.00    +0.010 A  
DOCKED: ATOM     17  C   UNL     1     131.986  74.257 227.168 -0.40 -0.00    +0.001 A  
DOCKED: ENDBRANCH   5   8
DOCKED: ENDBRANCH   4   5
DOCKED: ENDBRANCH   3   4
DOCKED: ENDBRANCH   1   3
DOCKED: BRANCH   1  18
DOCKED: ATOM     18  N   UNL     1     139.528  71.495 223.523 -0.03 +0.14    -0.648 NA 
DOCKED: BRANCH  18  19
DOCKED: ATOM     19  C   UNL     1     140.179  70.359 224.162 -0.26 +0.01    -0.080 C  
DOCKED: BRANCH  19  20
DOCKED: ATOM     20  C   UNL     1     140.433  70.673 225.615 -0.52 +0.01    -0.048 A  
DOCKED: ATOM     21  C   UNL     1     141.002  71.912 225.962 -0.55 -0.00    +0.003 A  
DOCKED: ATOM     22  C   UNL     1     140.142  69.741 226.639 -0.50 -0.01    +0.054 A  
DOCKED: ATOM     23  C   UNL     1     141.256  72.228 227.299 -0.82 -0.00    +0.000 A  
DOCKED: ATOM     24  C   UNL     1     140.403  70.068 227.976 -0.62 -0.00    +0.020 A  
DOCKED: ATOM     25  C   UNL     1     140.956  71.308 228.304 -0.72 -0.00    +0.001 A  
DOCKED: BRANCH  22  26
DOCKED: ATOM     26  C   UNL     1     139.593  68.440 226.340 -0.52 -0.01    +0.099 C  
DOCKED: ATOM     27  N   UNL     1     139.156  67.396 226.093 -0.87 +0.00    -0.192 NA 
DOCKED: ENDBRANCH  22  26
DOCKED: ENDBRANCH  19  20
DOCKED: ENDBRANCH  18  19
DOCKED: ENDBRANCH   1  18
DOCKED: TORSDOF 9
DOCKED: TER
DOCKED: ENDMDL
________________________________________________________________________________


    FINAL DOCKED STATE:
    ________________________


Run:   12 / 20
Time taken for this run:   0.039s

DOCKED: MODEL        12
DOCKED: USER    Run = 12
DOCKED: USER
DOCKED: USER    Estimated Free Energy of Binding    =  -7.63 kcal/mol  [=(1)+(2)+(3)-(4)]
DOCKED: USER
DOCKED: USER    (1) Final Intermolecular Energy     = -10.31 kcal/mol
DOCKED: USER        vdW + Hbond + desolv Energy     = -10.49 kcal/mol
DOCKED: USER        Electrostatic Energy            =  +0.18 kcal/mol
DOCKED: USER        Moving Ligand-Fixed Receptor    = -10.31 kcal/mol
DOCKED: USER        Moving Ligand-Moving Receptor   =  +0.00 kcal/mol
DOCKED: USER    (2) Final Total Internal Energy     =  -1.01 kcal/mol
DOCKED: USER    (3) Torsional Free Energy           =  +2.68 kcal/mol
DOCKED: USER    (4) Unbound System's Energy         =  -1.01 kcal/mol
DOCKED: USER
DOCKED: USER
DOCKED: REMARK SMILES N#Cc1ccccc1C[N-]C(=O)C/N=C(/O)c1ccc2ccccc2n1
DOCKED: REMARK SMILES IDX 11 1 12 2 13 3 14 4 15 5 16 6 17 8 26 9 18 10 25 11 19 12
DOCKED: REMARK SMILES IDX 24 13 20 14 23 15 21 16 22 17 10 18 9 19 8 20 7 21 3 22 6 23
DOCKED: REMARK SMILES IDX 4 24 5 25 2 26 1 27
DOCKED: REMARK H PARENT 16 7
DOCKED: USER                              x       y       z     vdW  Elec       q    Type
DOCKED: USER                           _______ _______ _______ _____ _____    ______ ____
DOCKED: ROOT
DOCKED: ATOM      1  C   UNL     1     138.572  71.944 222.775 -0.16 -0.02    +0.073 C  
DOCKED: ATOM      2  O   UNL     1     137.391  72.200 223.132 -0.10 +0.11    -0.318 OA 
DOCKED: ENDROOT
DOCKED: BRANCH   1   3
DOCKED: ATOM      3  C   UNL     1     139.140  72.644 221.568 -0.14 -0.04    +0.201 C  
DOCKED: BRANCH   3   4
DOCKED: ATOM      4  N   UNL     1     139.099  74.098 221.740 -0.26 +0.05    -0.244 NA 
DOCKED: BRANCH   4   5
DOCKED: ATOM      5  C   UNL     1     140.116  74.884 221.959 -0.13 -0.03    +0.233 C  
DOCKED: BRANCH   5   6
DOCKED: ATOM      6  O   UNL     1     141.406  74.373 221.834 -0.31 +0.04    -0.492 OA 
DOCKED: ATOM      7  H   UNL     1     142.218  74.969 221.938 -0.19 -0.09    +0.295 HD 
DOCKED: ENDBRANCH   5   6
DOCKED: BRANCH   5   8
DOCKED: ATOM      8  C   UNL     1     139.965  76.308 222.308 -0.32 -0.03    +0.125 A  
DOCKED: ATOM      9  N   UNL     1     141.079  77.051 222.550 -0.27 +0.09    -0.243 NA 
DOCKED: ATOM     10  C   UNL     1     138.696  76.877 222.487 -0.29 -0.01    +0.035 A  
DOCKED: ATOM     11  C   UNL     1     141.004  78.357 222.923 -0.45 -0.02    +0.071 A  
DOCKED: ATOM     12  C   UNL     1     138.587  78.219 222.860 -0.28 -0.00    +0.013 A  
DOCKED: ATOM     13  C   UNL     1     142.175  79.090 223.153 -0.57 -0.01    +0.029 A  
DOCKED: ATOM     14  C   UNL     1     139.744  78.975 223.082 -0.39 -0.00    +0.000 A  
DOCKED: ATOM     15  C   UNL     1     142.094  80.433 223.536 -0.63 -0.00    +0.002 A  
DOCKED: ATOM     16  C   UNL     1     139.671  80.322 223.466 -0.42 -0.00    +0.010 A  
DOCKED: ATOM     17  C   UNL     1     140.846  81.047 223.692 -0.42 -0.00    +0.001 A  
DOCKED: ENDBRANCH   5   8
DOCKED: ENDBRANCH   4   5
DOCKED: ENDBRANCH   3   4
DOCKED: ENDBRANCH   1   3
DOCKED: BRANCH   1  18
DOCKED: ATOM     18  N   UNL     1     139.297  70.932 223.483 +0.00 +0.13    -0.648 NA 
DOCKED: BRANCH  18  19
DOCKED: ATOM     19  C   UNL     1     140.631  71.099 224.043 -0.31 +0.01    -0.080 C  
DOCKED: BRANCH  19  20
DOCKED: ATOM     20  C   UNL     1     140.575  70.934 225.542 -0.54 +0.01    -0.048 A  
DOCKED: ATOM     21  C   UNL     1     141.066  71.962 226.367 -0.65 -0.00    +0.003 A  
DOCKED: ATOM     22  C   UNL     1     140.067  69.757 226.141 -0.46 -0.01    +0.054 A  
DOCKED: ATOM     23  C   UNL     1     141.035  71.834 227.757 -0.84 -0.00    +0.000 A  
DOCKED: ATOM     24  C   UNL     1     140.041  69.640 227.537 -0.59 -0.00    +0.020 A  
DOCKED: ATOM     25  C   UNL     1     140.522  70.676 228.342 -0.60 -0.00    +0.001 A  
DOCKED: BRANCH  22  26
DOCKED: ATOM     26  C   UNL     1     139.584  68.654 225.345 -0.40 -0.01    +0.099 C  
DOCKED: ATOM     27  N   UNL     1     139.199  67.771 224.701 -0.75 +0.01    -0.192 NA 
DOCKED: ENDBRANCH  22  26
DOCKED: ENDBRANCH  19  20
DOCKED: ENDBRANCH  18  19
DOCKED: ENDBRANCH   1  18
DOCKED: TORSDOF 9
DOCKED: TER
DOCKED: ENDMDL
________________________________________________________________________________


    FINAL DOCKED STATE:
    ________________________


Run:   13 / 20
Time taken for this run:   0.039s

DOCKED: MODEL        13
DOCKED: USER    Run = 13
DOCKED: USER
DOCKED: USER    Estimated Free Energy of Binding    =  -7.51 kcal/mol  [=(1)+(2)+(3)-(4)]
DOCKED: USER
DOCKED: USER    (1) Final Intermolecular Energy     = -10.19 kcal/mol
DOCKED: USER        vdW + Hbond + desolv Energy     = -10.38 kcal/mol
DOCKED: USER        Electrostatic Energy            =  +0.18 kcal/mol
DOCKED: USER        Moving Ligand-Fixed Receptor    = -10.19 kcal/mol
DOCKED: USER        Moving Ligand-Moving Receptor   =  +0.00 kcal/mol
DOCKED: USER    (2) Final Total Internal Energy     =  -1.21 kcal/mol
DOCKED: USER    (3) Torsional Free Energy           =  +2.68 kcal/mol
DOCKED: USER    (4) Unbound System's Energy         =  -1.21 kcal/mol
DOCKED: USER
DOCKED: USER
DOCKED: REMARK SMILES N#Cc1ccccc1C[N-]C(=O)C/N=C(/O)c1ccc2ccccc2n1
DOCKED: REMARK SMILES IDX 11 1 12 2 13 3 14 4 15 5 16 6 17 8 26 9 18 10 25 11 19 12
DOCKED: REMARK SMILES IDX 24 13 20 14 23 15 21 16 22 17 10 18 9 19 8 20 7 21 3 22 6 23
DOCKED: REMARK SMILES IDX 4 24 5 25 2 26 1 27
DOCKED: REMARK H PARENT 16 7
DOCKED: USER                              x       y       z     vdW  Elec       q    Type
DOCKED: USER                           _______ _______ _______ _____ _____    ______ ____
DOCKED: ROOT
DOCKED: ATOM      1  C   UNL     1     139.952  72.395 222.406 -0.29 -0.01    +0.073 C  
DOCKED: ATOM      2  O   UNL     1     138.954  72.043 221.722 -0.09 +0.07    -0.318 OA 
DOCKED: ENDROOT
DOCKED: BRANCH   1   3
DOCKED: ATOM      3  C   UNL     1     141.074  73.144 221.734 -0.18 -0.01    +0.201 C  
DOCKED: BRANCH   3   4
DOCKED: ATOM      4  N   UNL     1     140.682  74.526 221.449 -0.43 +0.04    -0.244 NA 
DOCKED: BRANCH   4   5
DOCKED: ATOM      5  C   UNL     1     139.717  75.194 222.019 -0.18 -0.04    +0.233 C  
DOCKED: BRANCH   5   6
DOCKED: ATOM      6  O   UNL     1     138.530  74.536 222.330 -0.14 +0.16    -0.492 OA 
DOCKED: ATOM      7  H   UNL     1     138.516  73.757 222.977 -0.49 -0.20    +0.295 HD 
DOCKED: ENDBRANCH   5   6
DOCKED: BRANCH   5   8
DOCKED: ATOM      8  C   UNL     1     139.835  76.618 222.378 -0.31 -0.03    +0.125 A  
DOCKED: ATOM      9  N   UNL     1     141.072  77.177 222.468 -0.27 +0.10    -0.243 NA 
DOCKED: ATOM     10  C   UNL     1     138.703  77.374 222.718 -0.29 -0.01    +0.035 A  
DOCKED: ATOM     11  C   UNL     1     141.249  78.473 222.842 -0.47 -0.03    +0.071 A  
DOCKED: ATOM     12  C   UNL     1     138.852  78.710 223.095 -0.32 -0.00    +0.013 A  
DOCKED: ATOM     13  C   UNL     1     142.539  79.013 222.913 -0.47 -0.01    +0.029 A  
DOCKED: ATOM     14  C   UNL     1     140.131  79.275 223.160 -0.43 -0.00    +0.000 A  
DOCKED: ATOM     15  C   UNL     1     142.717  80.346 223.296 -0.67 -0.00    +0.002 A  
DOCKED: ATOM     16  C   UNL     1     140.318  80.612 223.544 -0.44 -0.00    +0.010 A  
DOCKED: ATOM     17  C   UNL     1     141.611  81.143 223.611 -0.57 -0.00    +0.001 A  
DOCKED: ENDBRANCH   5   8
DOCKED: ENDBRANCH   4   5
DOCKED: ENDBRANCH   3   4
DOCKED: ENDBRANCH   1   3
DOCKED: BRANCH   1  18
DOCKED: ATOM     18  N   UNL     1     140.019  71.991 223.778 -0.03 +0.13    -0.648 NA 
DOCKED: BRANCH  18  19
DOCKED: ATOM     19  C   UNL     1     141.074  71.171 224.358 -0.18 +0.01    -0.080 C  
DOCKED: BRANCH  19  20
DOCKED: ATOM     20  C   UNL     1     140.496  70.296 225.443 -0.47 +0.01    -0.048 A  
DOCKED: ATOM     21  C   UNL     1     139.841  69.103 225.089 -0.39 -0.00    +0.003 A  
DOCKED: ATOM     22  C   UNL     1     140.570  70.660 226.808 -0.58 -0.01    +0.054 A  
DOCKED: ATOM     23  C   UNL     1     139.289  68.277 226.071 -0.55 -0.00    +0.000 A  
DOCKED: ATOM     24  C   UNL     1     140.012  69.824 227.785 -0.61 -0.00    +0.020 A  
DOCKED: ATOM     25  C   UNL     1     139.375  68.636 227.416 -0.46 -0.00    +0.001 A  
DOCKED: BRANCH  22  26
DOCKED: ATOM     26  C   UNL     1     141.197  71.890 227.228 -0.69 -0.02    +0.099 C  
DOCKED: ATOM     27  N   UNL     1     141.694  72.882 227.563 -0.41 +0.05    -0.192 NA 
DOCKED: ENDBRANCH  22  26
DOCKED: ENDBRANCH  19  20
DOCKED: ENDBRANCH  18  19
DOCKED: ENDBRANCH   1  18
DOCKED: TORSDOF 9
DOCKED: TER
DOCKED: ENDMDL
________________________________________________________________________________


    FINAL DOCKED STATE:
    ________________________


Run:   14 / 20
Time taken for this run:   0.039s

DOCKED: MODEL        14
DOCKED: USER    Run = 14
DOCKED: USER
DOCKED: USER    Estimated Free Energy of Binding    =  -7.16 kcal/mol  [=(1)+(2)+(3)-(4)]
DOCKED: USER
DOCKED: USER    (1) Final Intermolecular Energy     =  -9.85 kcal/mol
DOCKED: USER        vdW + Hbond + desolv Energy     =  -9.88 kcal/mol
DOCKED: USER        Electrostatic Energy            =  +0.03 kcal/mol
DOCKED: USER        Moving Ligand-Fixed Receptor    =  -9.85 kcal/mol
DOCKED: USER        Moving Ligand-Moving Receptor   =  +0.00 kcal/mol
DOCKED: USER    (2) Final Total Internal Energy     =  -1.92 kcal/mol
DOCKED: USER    (3) Torsional Free Energy           =  +2.68 kcal/mol
DOCKED: USER    (4) Unbound System's Energy         =  -1.92 kcal/mol
DOCKED: USER
DOCKED: USER
DOCKED: REMARK SMILES N#Cc1ccccc1C[N-]C(=O)C/N=C(/O)c1ccc2ccccc2n1
DOCKED: REMARK SMILES IDX 11 1 12 2 13 3 14 4 15 5 16 6 17 8 26 9 18 10 25 11 19 12
DOCKED: REMARK SMILES IDX 24 13 20 14 23 15 21 16 22 17 10 18 9 19 8 20 7 21 3 22 6 23
DOCKED: REMARK SMILES IDX 4 24 5 25 2 26 1 27
DOCKED: REMARK H PARENT 16 7
DOCKED: USER                              x       y       z     vdW  Elec       q    Type
DOCKED: USER                           _______ _______ _______ _____ _____    ______ ____
DOCKED: ROOT
DOCKED: ATOM      1  C   UNL     1     140.080  72.454 222.319 -0.29 -0.01    +0.073 C  
DOCKED: ATOM      2  O   UNL     1     140.232  73.701 222.219 -0.79 +0.01    -0.318 OA 
DOCKED: ENDROOT
DOCKED: BRANCH   1   3
DOCKED: ATOM      3  C   UNL     1     139.272  71.729 221.275 -0.10 -0.04    +0.201 C  
DOCKED: BRANCH   3   4
DOCKED: ATOM      4  N   UNL     1     137.881  71.572 221.708 -0.05 +0.05    -0.244 NA 
DOCKED: BRANCH   4   5
DOCKED: ATOM      5  C   UNL     1     137.219  72.368 222.500 -0.09 -0.07    +0.233 C  
DOCKED: BRANCH   5   6
DOCKED: ATOM      6  O   UNL     1     137.368  73.745 222.356 -0.04 +0.18    -0.492 OA 
DOCKED: ATOM      7  H   UNL     1     138.178  74.226 222.728 -0.49 -0.15    +0.295 HD 
DOCKED: ENDBRANCH   5   6
DOCKED: BRANCH   5   8
DOCKED: ATOM      8  C   UNL     1     136.289  71.876 223.532 -0.16 -0.03    +0.125 A  
DOCKED: ATOM      9  N   UNL     1     135.484  72.765 224.175 -0.14 +0.05    -0.243 NA 
DOCKED: ATOM     10  C   UNL     1     136.291  70.529 223.924 -0.19 -0.00    +0.035 A  
DOCKED: ATOM     11  C   UNL     1     134.640  72.381 225.170 -0.20 -0.00    +0.071 A  
DOCKED: ATOM     12  C   UNL     1     135.428  70.103 224.936 -0.23 -0.00    +0.013 A  
DOCKED: ATOM     13  C   UNL     1     133.821  73.326 225.800 -0.30 -0.00    +0.029 A  
DOCKED: ATOM     14  C   UNL     1     134.590  71.027 225.570 -0.22 -0.00    +0.000 A  
DOCKED: ATOM     15  C   UNL     1     132.953  72.927 226.822 -0.40 -0.00    +0.002 A  
DOCKED: ATOM     16  C   UNL     1     133.717  70.635 226.596 -0.37 -0.00    +0.010 A  
DOCKED: ATOM     17  C   UNL     1     132.901  71.586 227.219 -0.41 -0.00    +0.001 A  
DOCKED: ENDBRANCH   5   8
DOCKED: ENDBRANCH   4   5
DOCKED: ENDBRANCH   3   4
DOCKED: ENDBRANCH   1   3
DOCKED: BRANCH   1  18
DOCKED: ATOM     18  N   UNL     1     140.613  71.789 223.471 -0.03 +0.06    -0.648 NA 
DOCKED: BRANCH  18  19
DOCKED: ATOM     19  C   UNL     1     139.965  70.691 224.174 -0.36 +0.01    -0.080 C  
DOCKED: BRANCH  19  20
DOCKED: ATOM     20  C   UNL     1     140.346  70.730 225.634 -0.52 +0.01    -0.048 A  
DOCKED: ATOM     21  C   UNL     1     140.915  71.901 226.165 -0.61 -0.00    +0.003 A  
DOCKED: ATOM     22  C   UNL     1     140.172  69.607 226.477 -0.49 -0.01    +0.054 A  
DOCKED: ATOM     23  C   UNL     1     141.286  71.964 227.511 -0.81 -0.00    +0.000 A  
DOCKED: ATOM     24  C   UNL     1     140.547  69.682 227.825 -0.61 -0.00    +0.020 A  
DOCKED: ATOM     25  C   UNL     1     141.101  70.857 228.340 -0.61 -0.00    +0.001 A  
DOCKED: BRANCH  22  26
DOCKED: ATOM     26  C   UNL     1     139.627  68.367 225.979 -0.50 -0.01    +0.099 C  
DOCKED: ATOM     27  N   UNL     1     139.185  67.371 225.585 -0.87 -0.01    -0.192 NA 
DOCKED: ENDBRANCH  22  26
DOCKED: ENDBRANCH  19  20
DOCKED: ENDBRANCH  18  19
DOCKED: ENDBRANCH   1  18
DOCKED: TORSDOF 9
DOCKED: TER
DOCKED: ENDMDL
________________________________________________________________________________


    FINAL DOCKED STATE:
    ________________________


Run:   15 / 20
Time taken for this run:   0.039s

DOCKED: MODEL        15
DOCKED: USER    Run = 15
DOCKED: USER
DOCKED: USER    Estimated Free Energy of Binding    =  -7.43 kcal/mol  [=(1)+(2)+(3)-(4)]
DOCKED: USER
DOCKED: USER    (1) Final Intermolecular Energy     = -10.11 kcal/mol
DOCKED: USER        vdW + Hbond + desolv Energy     = -10.20 kcal/mol
DOCKED: USER        Electrostatic Energy            =  +0.08 kcal/mol
DOCKED: USER        Moving Ligand-Fixed Receptor    = -10.11 kcal/mol
DOCKED: USER        Moving Ligand-Moving Receptor   =  +0.00 kcal/mol
DOCKED: USER    (2) Final Total Internal Energy     =  -1.44 kcal/mol
DOCKED: USER    (3) Torsional Free Energy           =  +2.68 kcal/mol
DOCKED: USER    (4) Unbound System's Energy         =  -1.44 kcal/mol
DOCKED: USER
DOCKED: USER
DOCKED: REMARK SMILES N#Cc1ccccc1C[N-]C(=O)C/N=C(/O)c1ccc2ccccc2n1
DOCKED: REMARK SMILES IDX 11 1 12 2 13 3 14 4 15 5 16 6 17 8 26 9 18 10 25 11 19 12
DOCKED: REMARK SMILES IDX 24 13 20 14 23 15 21 16 22 17 10 18 9 19 8 20 7 21 3 22 6 23
DOCKED: REMARK SMILES IDX 4 24 5 25 2 26 1 27
DOCKED: REMARK H PARENT 16 7
DOCKED: USER                              x       y       z     vdW  Elec       q    Type
DOCKED: USER                           _______ _______ _______ _____ _____    ______ ____
DOCKED: ROOT
DOCKED: ATOM      1  C   UNL     1     140.868  71.643 222.082 -0.20 -0.01    +0.073 C  
DOCKED: ATOM      2  O   UNL     1     140.312  70.712 221.442 -0.09 +0.05    -0.318 OA 
DOCKED: ENDROOT
DOCKED: BRANCH   1   3
DOCKED: ATOM      3  C   UNL     1     141.792  72.584 221.353 -0.12 -0.02    +0.201 C  
DOCKED: BRANCH   3   4
DOCKED: ATOM      4  N   UNL     1     141.058  73.745 220.842 -0.15 +0.04    -0.244 NA 
DOCKED: BRANCH   4   5
DOCKED: ATOM      5  C   UNL     1     140.404  74.624 221.549 -0.22 -0.03    +0.233 C  
DOCKED: BRANCH   5   6
DOCKED: ATOM      6  O   UNL     1     139.370  74.192 222.377 -0.60 +0.10    -0.492 OA 
DOCKED: ATOM      7  H   UNL     1     139.525  73.483 223.083 -0.41 -0.07    +0.295 HD 
DOCKED: ENDBRANCH   5   6
DOCKED: BRANCH   5   8
DOCKED: ATOM      8  C   UNL     1     140.727  76.061 221.535 -0.30 -0.04    +0.125 A  
DOCKED: ATOM      9  N   UNL     1     141.107  76.642 220.365 -0.12 +0.10    -0.243 NA 
DOCKED: ATOM     10  C   UNL     1     140.740  76.811 222.721 -0.34 -0.01    +0.035 A  
DOCKED: ATOM     11  C   UNL     1     141.465  77.953 220.296 -0.25 -0.04    +0.071 A  
DOCKED: ATOM     12  C   UNL     1     141.092  78.161 222.680 -0.48 -0.00    +0.013 A  
DOCKED: ATOM     13  C   UNL     1     141.841  78.515 219.070 -0.26 -0.02    +0.029 A  
DOCKED: ATOM     14  C   UNL     1     141.459  78.748 221.463 -0.38 -0.00    +0.000 A  
DOCKED: ATOM     15  C   UNL     1     142.206  79.863 219.003 -0.32 -0.00    +0.002 A  
DOCKED: ATOM     16  C   UNL     1     141.826  80.100 221.388 -0.41 -0.00    +0.010 A  
DOCKED: ATOM     17  C   UNL     1     142.200  80.653 220.158 -0.22 -0.00    +0.001 A  
DOCKED: ENDBRANCH   5   8
DOCKED: ENDBRANCH   4   5
DOCKED: ENDBRANCH   3   4
DOCKED: ENDBRANCH   1   3
DOCKED: BRANCH   1  18
DOCKED: ATOM     18  N   UNL     1     140.666  71.718 223.498 -0.02 +0.06    -0.648 NA 
DOCKED: BRANCH  18  19
DOCKED: ATOM     19  C   UNL     1     139.726  70.900 224.252 -0.38 +0.02    -0.080 C  
DOCKED: BRANCH  19  20
DOCKED: ATOM     20  C   UNL     1     140.198  70.772 225.679 -0.51 +0.01    -0.048 A  
DOCKED: ATOM     21  C   UNL     1     140.744  71.895 226.327 -0.62 -0.00    +0.003 A  
DOCKED: ATOM     22  C   UNL     1     140.132  69.542 226.376 -0.48 -0.01    +0.054 A  
DOCKED: ATOM     23  C   UNL     1     141.197  71.804 227.646 -0.81 -0.00    +0.000 A  
DOCKED: ATOM     24  C   UNL     1     140.590  69.463 227.698 -0.61 -0.00    +0.020 A  
DOCKED: ATOM     25  C   UNL     1     141.118  70.592 228.330 -0.57 -0.00    +0.001 A  
DOCKED: BRANCH  22  26
DOCKED: ATOM     26  C   UNL     1     139.616  68.348 225.751 -0.47 -0.01    +0.099 C  
DOCKED: ATOM     27  N   UNL     1     139.209  67.386 225.249 -0.86 -0.01    -0.192 NA 
DOCKED: ENDBRANCH  22  26
DOCKED: ENDBRANCH  19  20
DOCKED: ENDBRANCH  18  19
DOCKED: ENDBRANCH   1  18
DOCKED: TORSDOF 9
DOCKED: TER
DOCKED: ENDMDL
________________________________________________________________________________


    FINAL DOCKED STATE:
    ________________________


Run:   16 / 20
Time taken for this run:   0.039s

DOCKED: MODEL        16
DOCKED: USER    Run = 16
DOCKED: USER
DOCKED: USER    Estimated Free Energy of Binding    =  -8.64 kcal/mol  [=(1)+(2)+(3)-(4)]
DOCKED: USER
DOCKED: USER    (1) Final Intermolecular Energy     = -11.32 kcal/mol
DOCKED: USER        vdW + Hbond + desolv Energy     = -11.43 kcal/mol
DOCKED: USER        Electrostatic Energy            =  +0.10 kcal/mol
DOCKED: USER        Moving Ligand-Fixed Receptor    = -11.32 kcal/mol
DOCKED: USER        Moving Ligand-Moving Receptor   =  +0.00 kcal/mol
DOCKED: USER    (2) Final Total Internal Energy     =  -1.37 kcal/mol
DOCKED: USER    (3) Torsional Free Energy           =  +2.68 kcal/mol
DOCKED: USER    (4) Unbound System's Energy         =  -1.37 kcal/mol
DOCKED: USER
DOCKED: USER
DOCKED: REMARK SMILES N#Cc1ccccc1C[N-]C(=O)C/N=C(/O)c1ccc2ccccc2n1
DOCKED: REMARK SMILES IDX 11 1 12 2 13 3 14 4 15 5 16 6 17 8 26 9 18 10 25 11 19 12
DOCKED: REMARK SMILES IDX 24 13 20 14 23 15 21 16 22 17 10 18 9 19 8 20 7 21 3 22 6 23
DOCKED: REMARK SMILES IDX 4 24 5 25 2 26 1 27
DOCKED: REMARK H PARENT 16 7
DOCKED: USER                              x       y       z     vdW  Elec       q    Type
DOCKED: USER                           _______ _______ _______ _____ _____    ______ ____
DOCKED: ROOT
DOCKED: ATOM      1  C   UNL     1     140.408  71.779 222.051 -0.25 -0.01    +0.073 C  
DOCKED: ATOM      2  O   UNL     1     139.693  71.095 221.271 -0.07 +0.05    -0.318 OA 
DOCKED: ENDROOT
DOCKED: BRANCH   1   3
DOCKED: ATOM      3  C   UNL     1     141.548  72.583 221.482 -0.14 -0.02    +0.201 C  
DOCKED: BRANCH   3   4
DOCKED: ATOM      4  N   UNL     1     141.069  73.855 220.936 -0.18 +0.04    -0.244 NA 
DOCKED: BRANCH   4   5
DOCKED: ATOM      5  C   UNL     1     140.520  74.831 221.605 -0.23 -0.04    +0.233 C  
DOCKED: BRANCH   5   6
DOCKED: ATOM      6  O   UNL     1     139.444  74.554 222.445 -0.57 +0.08    -0.492 OA 
DOCKED: ATOM      7  H   UNL     1     139.400  73.692 222.974 -0.41 -0.08    +0.295 HD 
DOCKED: ENDBRANCH   5   6
DOCKED: BRANCH   5   8
DOCKED: ATOM      8  C   UNL     1     141.005  76.220 221.535 -0.30 -0.05    +0.125 A  
DOCKED: ATOM      9  N   UNL     1     141.056  76.961 222.675 -0.27 +0.09    -0.243 NA 
DOCKED: ATOM     10  C   UNL     1     141.323  76.814 220.305 -0.25 -0.02    +0.035 A  
DOCKED: ATOM     11  C   UNL     1     141.449  78.263 222.670 -0.45 -0.03    +0.071 A  
DOCKED: ATOM     12  C   UNL     1     141.739  78.147 220.268 -0.30 -0.01    +0.013 A  
DOCKED: ATOM     13  C   UNL     1     141.496  78.988 223.866 -0.59 -0.01    +0.029 A  
DOCKED: ATOM     14  C   UNL     1     141.808  78.887 221.454 -0.40 -0.00    +0.000 A  
DOCKED: ATOM     15  C   UNL     1     141.902  80.327 223.857 -0.61 -0.00    +0.002 A  
DOCKED: ATOM     16  C   UNL     1     142.214  80.230 221.452 -0.41 -0.00    +0.010 A  
DOCKED: ATOM     17  C   UNL     1     142.259  80.946 222.654 -0.56 -0.00    +0.001 A  
DOCKED: ENDBRANCH   5   8
DOCKED: ENDBRANCH   4   5
DOCKED: ENDBRANCH   3   4
DOCKED: ENDBRANCH   1   3
DOCKED: BRANCH   1  18
DOCKED: ATOM     18  N   UNL     1     140.160  71.696 223.459 -0.06 +0.10    -0.648 NA 
DOCKED: BRANCH  18  19
DOCKED: ATOM     19  C   UNL     1     140.039  70.456 224.214 -0.33 +0.01    -0.080 C  
DOCKED: BRANCH  19  20
DOCKED: ATOM     20  C   UNL     1     140.402  70.706 225.657 -0.52 +0.01    -0.048 A  
DOCKED: ATOM     21  C   UNL     1     140.968  71.941 226.021 -0.53 -0.00    +0.003 A  
DOCKED: ATOM     22  C   UNL     1     140.216  69.717 226.651 -0.50 -0.01    +0.054 A  
DOCKED: ATOM     23  C   UNL     1     141.322  72.197 227.348 -0.82 -0.00    +0.000 A  
DOCKED: ATOM     24  C   UNL     1     140.575  69.985 227.979 -0.61 -0.00    +0.020 A  
DOCKED: ATOM     25  C   UNL     1     141.124  71.222 228.325 -0.69 -0.00    +0.001 A  
DOCKED: BRANCH  22  26
DOCKED: ATOM     26  C   UNL     1     139.674  68.417 226.330 -0.52 -0.01    +0.099 C  
DOCKED: ATOM     27  N   UNL     1     139.233  67.377 226.075 -0.87 +0.00    -0.192 NA 
DOCKED: ENDBRANCH  22  26
DOCKED: ENDBRANCH  19  20
DOCKED: ENDBRANCH  18  19
DOCKED: ENDBRANCH   1  18
DOCKED: TORSDOF 9
DOCKED: TER
DOCKED: ENDMDL
________________________________________________________________________________


    FINAL DOCKED STATE:
    ________________________


Run:   17 / 20
Time taken for this run:   0.039s

DOCKED: MODEL        17
DOCKED: USER    Run = 17
DOCKED: USER
DOCKED: USER    Estimated Free Energy of Binding    =  -8.52 kcal/mol  [=(1)+(2)+(3)-(4)]
DOCKED: USER
DOCKED: USER    (1) Final Intermolecular Energy     = -11.20 kcal/mol
DOCKED: USER        vdW + Hbond + desolv Energy     = -11.28 kcal/mol
DOCKED: USER        Electrostatic Energy            =  +0.08 kcal/mol
DOCKED: USER        Moving Ligand-Fixed Receptor    = -11.20 kcal/mol
DOCKED: USER        Moving Ligand-Moving Receptor   =  +0.00 kcal/mol
DOCKED: USER    (2) Final Total Internal Energy     =  -1.42 kcal/mol
DOCKED: USER    (3) Torsional Free Energy           =  +2.68 kcal/mol
DOCKED: USER    (4) Unbound System's Energy         =  -1.42 kcal/mol
DOCKED: USER
DOCKED: USER
DOCKED: REMARK SMILES N#Cc1ccccc1C[N-]C(=O)C/N=C(/O)c1ccc2ccccc2n1
DOCKED: REMARK SMILES IDX 11 1 12 2 13 3 14 4 15 5 16 6 17 8 26 9 18 10 25 11 19 12
DOCKED: REMARK SMILES IDX 24 13 20 14 23 15 21 16 22 17 10 18 9 19 8 20 7 21 3 22 6 23
DOCKED: REMARK SMILES IDX 4 24 5 25 2 26 1 27
DOCKED: REMARK H PARENT 16 7
DOCKED: USER                              x       y       z     vdW  Elec       q    Type
DOCKED: USER                           _______ _______ _______ _____ _____    ______ ____
DOCKED: ROOT
DOCKED: ATOM      1  C   UNL     1     140.640  71.748 222.162 -0.25 -0.01    +0.073 C  
DOCKED: ATOM      2  O   UNL     1     140.043  70.876 221.477 -0.09 +0.05    -0.318 OA 
DOCKED: ENDROOT
DOCKED: BRANCH   1   3
DOCKED: ATOM      3  C   UNL     1     141.691  72.605 221.504 -0.09 -0.02    +0.201 C  
DOCKED: BRANCH   3   4
DOCKED: ATOM      4  N   UNL     1     141.095  73.817 220.936 -0.17 +0.04    -0.244 NA 
DOCKED: BRANCH   4   5
DOCKED: ATOM      5  C   UNL     1     140.527  74.787 221.596 -0.23 -0.04    +0.233 C  
DOCKED: BRANCH   5   6
DOCKED: ATOM      6  O   UNL     1     139.438  74.502 222.416 -0.59 +0.08    -0.492 OA 
DOCKED: ATOM      7  H   UNL     1     139.457  73.721 223.060 -0.43 -0.07    +0.295 HD 
DOCKED: ENDBRANCH   5   6
DOCKED: BRANCH   5   8
DOCKED: ATOM      8  C   UNL     1     141.006  76.180 221.538 -0.30 -0.04    +0.125 A  
DOCKED: ATOM      9  N   UNL     1     141.031  76.918 222.680 -0.27 +0.09    -0.243 NA 
DOCKED: ATOM     10  C   UNL     1     141.342  76.778 220.315 -0.25 -0.02    +0.035 A  
DOCKED: ATOM     11  C   UNL     1     141.416  78.223 222.684 -0.44 -0.03    +0.071 A  
DOCKED: ATOM     12  C   UNL     1     141.750  78.113 220.288 -0.30 -0.01    +0.013 A  
DOCKED: ATOM     13  C   UNL     1     141.437  78.946 223.883 -0.57 -0.01    +0.029 A  
DOCKED: ATOM     14  C   UNL     1     141.793  78.852 221.476 -0.40 -0.00    +0.000 A  
DOCKED: ATOM     15  C   UNL     1     141.835  80.287 223.883 -0.58 -0.00    +0.002 A  
DOCKED: ATOM     16  C   UNL     1     142.190  80.197 221.484 -0.43 -0.00    +0.010 A  
DOCKED: ATOM     17  C   UNL     1     142.210  80.911 222.688 -0.57 -0.00    +0.001 A  
DOCKED: ENDBRANCH   5   8
DOCKED: ENDBRANCH   4   5
DOCKED: ENDBRANCH   3   4
DOCKED: ENDBRANCH   1   3
DOCKED: BRANCH   1  18
DOCKED: ATOM     18  N   UNL     1     140.357  71.831 223.564 -0.06 +0.09    -0.648 NA 
DOCKED: BRANCH  18  19
DOCKED: ATOM     19  C   UNL     1     139.628  70.830 224.329 -0.37 +0.02    -0.080 C  
DOCKED: BRANCH  19  20
DOCKED: ATOM     20  C   UNL     1     140.184  70.759 225.730 -0.51 +0.01    -0.048 A  
DOCKED: ATOM     21  C   UNL     1     140.751  71.911 226.305 -0.60 -0.00    +0.003 A  
DOCKED: ATOM     22  C   UNL     1     140.178  69.554 226.472 -0.49 -0.01    +0.054 A  
DOCKED: ATOM     23  C   UNL     1     141.282  71.873 227.596 -0.80 -0.00    +0.000 A  
DOCKED: ATOM     24  C   UNL     1     140.713  69.528 227.766 -0.60 -0.00    +0.020 A  
DOCKED: ATOM     25  C   UNL     1     141.262  70.685 228.326 -0.52 -0.00    +0.001 A  
DOCKED: BRANCH  22  26
DOCKED: ATOM     26  C   UNL     1     139.643  68.332 225.920 -0.49 -0.01    +0.099 C  
DOCKED: ATOM     27  N   UNL     1     139.213  67.355 225.471 -0.85 -0.01    -0.192 NA 
DOCKED: ENDBRANCH  22  26
DOCKED: ENDBRANCH  19  20
DOCKED: ENDBRANCH  18  19
DOCKED: ENDBRANCH   1  18
DOCKED: TORSDOF 9
DOCKED: TER
DOCKED: ENDMDL
________________________________________________________________________________


    FINAL DOCKED STATE:
    ________________________


Run:   18 / 20
Time taken for this run:   0.039s

DOCKED: MODEL        18
DOCKED: USER    Run = 18
DOCKED: USER
DOCKED: USER    Estimated Free Energy of Binding    =  -8.77 kcal/mol  [=(1)+(2)+(3)-(4)]
DOCKED: USER
DOCKED: USER    (1) Final Intermolecular Energy     = -11.46 kcal/mol
DOCKED: USER        vdW + Hbond + desolv Energy     = -11.60 kcal/mol
DOCKED: USER        Electrostatic Energy            =  +0.14 kcal/mol
DOCKED: USER        Moving Ligand-Fixed Receptor    = -11.46 kcal/mol
DOCKED: USER        Moving Ligand-Moving Receptor   =  +0.00 kcal/mol
DOCKED: USER    (2) Final Total Internal Energy     =  -1.21 kcal/mol
DOCKED: USER    (3) Torsional Free Energy           =  +2.68 kcal/mol
DOCKED: USER    (4) Unbound System's Energy         =  -1.21 kcal/mol
DOCKED: USER
DOCKED: USER
DOCKED: REMARK SMILES N#Cc1ccccc1C[N-]C(=O)C/N=C(/O)c1ccc2ccccc2n1
DOCKED: REMARK SMILES IDX 11 1 12 2 13 3 14 4 15 5 16 6 17 8 26 9 18 10 25 11 19 12
DOCKED: REMARK SMILES IDX 24 13 20 14 23 15 21 16 22 17 10 18 9 19 8 20 7 21 3 22 6 23
DOCKED: REMARK SMILES IDX 4 24 5 25 2 26 1 27
DOCKED: REMARK H PARENT 16 7
DOCKED: USER                              x       y       z     vdW  Elec       q    Type
DOCKED: USER                           _______ _______ _______ _____ _____    ______ ____
DOCKED: ROOT
DOCKED: ATOM      1  C   UNL     1     139.759  72.390 222.264 -0.27 -0.01    +0.073 C  
DOCKED: ATOM      2  O   UNL     1     138.712  71.922 221.742 -0.08 +0.07    -0.318 OA 
DOCKED: ENDROOT
DOCKED: BRANCH   1   3
DOCKED: ATOM      3  C   UNL     1     140.697  73.209 221.416 -0.21 -0.02    +0.201 C  
DOCKED: BRANCH   3   4
DOCKED: ATOM      4  N   UNL     1     140.751  74.595 221.889 -0.63 +0.02    -0.244 NA 
DOCKED: BRANCH   4   5
DOCKED: ATOM      5  C   UNL     1     139.735  75.350 222.203 -0.11 -0.03    +0.233 C  
DOCKED: BRANCH   5   6
DOCKED: ATOM      6  O   UNL     1     138.470  74.777 222.298 -0.14 +0.16    -0.492 OA 
DOCKED: ATOM      7  H   UNL     1     138.336  73.870 222.728 -0.50 -0.15    +0.295 HD 
DOCKED: ENDBRANCH   5   6
DOCKED: BRANCH   5   8
DOCKED: ATOM      8  C   UNL     1     139.868  76.789 222.491 -0.27 -0.03    +0.125 A  
DOCKED: ATOM      9  N   UNL     1     141.111  77.319 222.653 -0.27 +0.10    -0.243 NA 
DOCKED: ATOM     10  C   UNL     1     138.737  77.593 222.694 -0.29 -0.01    +0.035 A  
DOCKED: ATOM     11  C   UNL     1     141.298  78.629 222.969 -0.49 -0.02    +0.071 A  
DOCKED: ATOM     12  C   UNL     1     138.897  78.944 223.009 -0.32 -0.00    +0.013 A  
DOCKED: ATOM     13  C   UNL     1     142.594  79.137 223.117 -0.50 -0.01    +0.029 A  
DOCKED: ATOM     14  C   UNL     1     140.183  79.478 223.149 -0.43 -0.00    +0.000 A  
DOCKED: ATOM     15  C   UNL     1     142.782  80.485 223.440 -0.68 -0.00    +0.002 A  
DOCKED: ATOM     16  C   UNL     1     140.380  80.828 223.472 -0.44 -0.00    +0.010 A  
DOCKED: ATOM     17  C   UNL     1     141.680  81.328 223.617 -0.56 -0.00    +0.001 A  
DOCKED: ENDBRANCH   5   8
DOCKED: ENDBRANCH   4   5
DOCKED: ENDBRANCH   3   4
DOCKED: ENDBRANCH   1   3
DOCKED: BRANCH   1  18
DOCKED: ATOM     18  N   UNL     1     140.057  72.050 223.623 -0.06 +0.12    -0.648 NA 
DOCKED: BRANCH  18  19
DOCKED: ATOM     19  C   UNL     1     139.961  70.712 224.190 -0.37 +0.01    -0.080 C  
DOCKED: BRANCH  19  20
DOCKED: ATOM     20  C   UNL     1     140.349  70.751 225.647 -0.52 +0.01    -0.048 A  
DOCKED: ATOM     21  C   UNL     1     140.919  71.923 226.177 -0.59 -0.00    +0.003 A  
DOCKED: ATOM     22  C   UNL     1     140.182  69.627 226.490 -0.49 -0.01    +0.054 A  
DOCKED: ATOM     23  C   UNL     1     141.296  71.985 227.521 -0.81 -0.00    +0.000 A  
DOCKED: ATOM     24  C   UNL     1     140.564  69.701 227.837 -0.61 -0.00    +0.020 A  
DOCKED: ATOM     25  C   UNL     1     141.118  70.877 228.349 -0.60 -0.00    +0.001 A  
DOCKED: BRANCH  22  26
DOCKED: ATOM     26  C   UNL     1     139.638  68.385 225.994 -0.50 -0.01    +0.099 C  
DOCKED: ATOM     27  N   UNL     1     139.208  67.386 225.596 -0.89 -0.01    -0.192 NA 
DOCKED: ENDBRANCH  22  26
DOCKED: ENDBRANCH  19  20
DOCKED: ENDBRANCH  18  19
DOCKED: ENDBRANCH   1  18
DOCKED: TORSDOF 9
DOCKED: TER
DOCKED: ENDMDL
________________________________________________________________________________


    FINAL DOCKED STATE:
    ________________________


Run:   19 / 20
Time taken for this run:   0.039s

DOCKED: MODEL        19
DOCKED: USER    Run = 19
DOCKED: USER
DOCKED: USER    Estimated Free Energy of Binding    =  -8.59 kcal/mol  [=(1)+(2)+(3)-(4)]
DOCKED: USER
DOCKED: USER    (1) Final Intermolecular Energy     = -11.27 kcal/mol
DOCKED: USER        vdW + Hbond + desolv Energy     = -11.34 kcal/mol
DOCKED: USER        Electrostatic Energy            =  +0.06 kcal/mol
DOCKED: USER        Moving Ligand-Fixed Receptor    = -11.27 kcal/mol
DOCKED: USER        Moving Ligand-Moving Receptor   =  +0.00 kcal/mol
DOCKED: USER    (2) Final Total Internal Energy     =  -1.30 kcal/mol
DOCKED: USER    (3) Torsional Free Energy           =  +2.68 kcal/mol
DOCKED: USER    (4) Unbound System's Energy         =  -1.30 kcal/mol
DOCKED: USER
DOCKED: USER
DOCKED: REMARK SMILES N#Cc1ccccc1C[N-]C(=O)C/N=C(/O)c1ccc2ccccc2n1
DOCKED: REMARK SMILES IDX 11 1 12 2 13 3 14 4 15 5 16 6 17 8 26 9 18 10 25 11 19 12
DOCKED: REMARK SMILES IDX 24 13 20 14 23 15 21 16 22 17 10 18 9 19 8 20 7 21 3 22 6 23
DOCKED: REMARK SMILES IDX 4 24 5 25 2 26 1 27
DOCKED: REMARK H PARENT 16 7
DOCKED: USER                              x       y       z     vdW  Elec       q    Type
DOCKED: USER                           _______ _______ _______ _____ _____    ______ ____
DOCKED: ROOT
DOCKED: ATOM      1  C   UNL     1     140.368  72.144 222.166 -0.28 -0.01    +0.073 C  
DOCKED: ATOM      2  O   UNL     1     139.202  71.973 221.719 -0.09 +0.06    -0.318 OA 
DOCKED: ENDROOT
DOCKED: BRANCH   1   3
DOCKED: ATOM      3  C   UNL     1     141.397  72.811 221.290 -0.19 -0.02    +0.201 C  
DOCKED: BRANCH   3   4
DOCKED: ATOM      4  N   UNL     1     140.901  74.093 220.785 -0.15 +0.05    -0.244 NA 
DOCKED: BRANCH   4   5
DOCKED: ATOM      5  C   UNL     1     140.379  75.058 221.490 -0.23 -0.04    +0.233 C  
DOCKED: BRANCH   5   6
DOCKED: ATOM      6  O   UNL     1     139.310  74.776 222.336 -0.55 +0.09    -0.492 OA 
DOCKED: ATOM      7  H   UNL     1     139.187  73.854 222.737 -0.46 -0.09    +0.295 HD 
DOCKED: ENDBRANCH   5   6
DOCKED: BRANCH   5   8
DOCKED: ATOM      8  C   UNL     1     140.891  76.439 221.457 -0.29 -0.05    +0.125 A  
DOCKED: ATOM      9  N   UNL     1     140.960  77.148 222.616 -0.27 +0.09    -0.243 NA 
DOCKED: ATOM     10  C   UNL     1     141.214  77.061 220.241 -0.23 -0.02    +0.035 A  
DOCKED: ATOM     11  C   UNL     1     141.377  78.442 222.644 -0.45 -0.03    +0.071 A  
DOCKED: ATOM     12  C   UNL     1     141.655  78.386 220.239 -0.29 -0.01    +0.013 A  
DOCKED: ATOM     13  C   UNL     1     141.442  79.133 223.860 -0.59 -0.01    +0.029 A  
DOCKED: ATOM     14  C   UNL     1     141.742  79.092 221.445 -0.40 -0.00    +0.000 A  
DOCKED: ATOM     15  C   UNL     1     141.873  80.463 223.885 -0.58 -0.00    +0.002 A  
DOCKED: ATOM     16  C   UNL     1     142.173  80.426 221.478 -0.43 -0.00    +0.010 A  
DOCKED: ATOM     17  C   UNL     1     142.237  81.108 222.698 -0.53 -0.00    +0.001 A  
DOCKED: ENDBRANCH   5   8
DOCKED: ENDBRANCH   4   5
DOCKED: ENDBRANCH   3   4
DOCKED: ENDBRANCH   1   3
DOCKED: BRANCH   1  18
DOCKED: ATOM     18  N   UNL     1     140.690  71.620 223.459 -0.02 +0.06    -0.648 NA 
DOCKED: BRANCH  18  19
DOCKED: ATOM     19  C   UNL     1     139.836  70.735 224.239 -0.37 +0.01    -0.080 C  
DOCKED: BRANCH  19  20
DOCKED: ATOM     20  C   UNL     1     140.291  70.730 225.677 -0.52 +0.01    -0.048 A  
DOCKED: ATOM     21  C   UNL     1     140.853  71.896 226.226 -0.62 -0.00    +0.003 A  
DOCKED: ATOM     22  C   UNL     1     140.194  69.570 226.482 -0.49 -0.01    +0.054 A  
DOCKED: ATOM     23  C   UNL     1     141.291  71.918 227.552 -0.80 -0.00    +0.000 A  
DOCKED: ATOM     24  C   UNL     1     140.637  69.604 227.811 -0.61 -0.00    +0.020 A  
DOCKED: ATOM     25  C   UNL     1     141.182  70.775 228.344 -0.56 -0.00    +0.001 A  
DOCKED: BRANCH  22  26
DOCKED: ATOM     26  C   UNL     1     139.660  68.333 225.962 -0.50 -0.01    +0.099 C  
DOCKED: ATOM     27  N   UNL     1     139.238  67.341 225.541 -0.84 -0.01    -0.192 NA 
DOCKED: ENDBRANCH  22  26
DOCKED: ENDBRANCH  19  20
DOCKED: ENDBRANCH  18  19
DOCKED: ENDBRANCH   1  18
DOCKED: TORSDOF 9
DOCKED: TER
DOCKED: ENDMDL
________________________________________________________________________________


    FINAL DOCKED STATE:
    ________________________


Run:   20 / 20
Time taken for this run:   0.039s

DOCKED: MODEL        20
DOCKED: USER    Run = 20
DOCKED: USER
DOCKED: USER    Estimated Free Energy of Binding    =  -8.23 kcal/mol  [=(1)+(2)+(3)-(4)]
DOCKED: USER
DOCKED: USER    (1) Final Intermolecular Energy     = -10.91 kcal/mol
DOCKED: USER        vdW + Hbond + desolv Energy     = -11.04 kcal/mol
DOCKED: USER        Electrostatic Energy            =  +0.13 kcal/mol
DOCKED: USER        Moving Ligand-Fixed Receptor    = -10.91 kcal/mol
DOCKED: USER        Moving Ligand-Moving Receptor   =  +0.00 kcal/mol
DOCKED: USER    (2) Final Total Internal Energy     =  -1.32 kcal/mol
DOCKED: USER    (3) Torsional Free Energy           =  +2.68 kcal/mol
DOCKED: USER    (4) Unbound System's Energy         =  -1.32 kcal/mol
DOCKED: USER
DOCKED: USER
DOCKED: REMARK SMILES N#Cc1ccccc1C[N-]C(=O)C/N=C(/O)c1ccc2ccccc2n1
DOCKED: REMARK SMILES IDX 11 1 12 2 13 3 14 4 15 5 16 6 17 8 26 9 18 10 25 11 19 12
DOCKED: REMARK SMILES IDX 24 13 20 14 23 15 21 16 22 17 10 18 9 19 8 20 7 21 3 22 6 23
DOCKED: REMARK SMILES IDX 4 24 5 25 2 26 1 27
DOCKED: REMARK H PARENT 16 7
DOCKED: USER                              x       y       z     vdW  Elec       q    Type
DOCKED: USER                           _______ _______ _______ _____ _____    ______ ____
DOCKED: ROOT
DOCKED: ATOM      1  C   UNL     1     139.346  72.163 222.570 -0.24 -0.02    +0.073 C  
DOCKED: ATOM      2  O   UNL     1     138.312  72.331 221.870 -0.08 +0.08    -0.318 OA 
DOCKED: ENDROOT
DOCKED: BRANCH   1   3
DOCKED: ATOM      3  C   UNL     1     140.646  72.774 222.116 -0.21 -0.01    +0.201 C  
DOCKED: BRANCH   3   4
DOCKED: ATOM      4  N   UNL     1     140.407  73.999 221.349 -0.33 +0.04    -0.244 NA 
DOCKED: BRANCH   4   5
DOCKED: ATOM      5  C   UNL     1     139.877  75.105 221.794 -0.21 -0.04    +0.233 C  
DOCKED: BRANCH   5   6
DOCKED: ATOM      6  O   UNL     1     138.593  75.071 222.332 -0.19 +0.14    -0.492 OA 
DOCKED: ATOM      7  H   UNL     1     138.252  74.255 222.824 -0.49 -0.17    +0.295 HD 
DOCKED: ENDBRANCH   5   6
DOCKED: BRANCH   5   8
DOCKED: ATOM      8  C   UNL     1     140.590  76.394 221.780 -0.32 -0.04    +0.125 A  
DOCKED: ATOM      9  N   UNL     1     140.347  77.294 222.772 -0.20 +0.06    -0.243 NA 
DOCKED: ATOM     10  C   UNL     1     141.436  76.742 220.717 -0.28 -0.02    +0.035 A  
DOCKED: ATOM     11  C   UNL     1     140.936  78.520 222.789 -0.44 -0.02    +0.071 A  
DOCKED: ATOM     12  C   UNL     1     142.063  77.989 220.712 -0.24 -0.01    +0.013 A  
DOCKED: ATOM     13  C   UNL     1     140.667  79.414 223.833 -0.50 -0.01    +0.029 A  
DOCKED: ATOM     14  C   UNL     1     141.820  78.894 221.752 -0.44 -0.00    +0.000 A  
DOCKED: ATOM     15  C   UNL     1     141.275  80.673 223.848 -0.51 -0.00    +0.002 A  
DOCKED: ATOM     16  C   UNL     1     142.426  80.158 221.774 -0.42 -0.00    +0.010 A  
DOCKED: ATOM     17  C   UNL     1     142.152  81.045 222.822 -0.57 -0.00    +0.001 A  
DOCKED: ENDBRANCH   5   8
DOCKED: ENDBRANCH   4   5
DOCKED: ENDBRANCH   3   4
DOCKED: ENDBRANCH   1   3
DOCKED: BRANCH   1  18
DOCKED: ATOM     18  N   UNL     1     139.260  71.323 223.727 -0.01 +0.15    -0.648 NA 
DOCKED: BRANCH  18  19
DOCKED: ATOM     19  C   UNL     1     140.317  70.438 224.196 -0.27 +0.01    -0.080 C  
DOCKED: BRANCH  19  20
DOCKED: ATOM     20  C   UNL     1     140.553  70.667 225.669 -0.53 +0.01    -0.048 A  
DOCKED: ATOM     21  C   UNL     1     141.136  71.874 226.093 -0.63 -0.00    +0.003 A  
DOCKED: ATOM     22  C   UNL     1     140.228  69.685 226.634 -0.50 -0.01    +0.054 A  
DOCKED: ATOM     23  C   UNL     1     141.374  72.111 227.449 -0.81 -0.00    +0.000 A  
DOCKED: ATOM     24  C   UNL     1     140.472  69.933 227.992 -0.61 -0.00    +0.020 A  
DOCKED: ATOM     25  C   UNL     1     141.041  71.143 228.397 -0.61 -0.00    +0.001 A  
DOCKED: BRANCH  22  26
DOCKED: ATOM     26  C   UNL     1     139.662  68.412 226.255 -0.52 -0.01    +0.099 C  
DOCKED: ATOM     27  N   UNL     1     139.207  67.389 225.958 -0.89 -0.00    -0.192 NA 
DOCKED: ENDBRANCH  22  26
DOCKED: ENDBRANCH  19  20
DOCKED: ENDBRANCH  18  19
DOCKED: ENDBRANCH   1  18
DOCKED: TORSDOF 9
DOCKED: TER
DOCKED: ENDMDL
________________________________________________________________________________


    CLUSTERING HISTOGRAM
    ____________________


________________________________________________________________________________
     |           |     |           |     |
Clus | Lowest    | Run | Mean      | Num | Histogram
-ter | Binding   |     | Binding   | in  |
Rank | Energy    |     | Energy    | Clus|    5    10   15   20   25   30   35
_____|___________|_____|___________|_____|____:____|____:____|____:____|____:___
   1 |     -8.77 |  18 |     -8.10 |  16 |################
   2 |     -7.16 |  14 |     -7.15 |   2 |##
   3 |     -7.12 |   8 |     -7.12 |   1 |#
   4 |     -6.57 |  11 |     -6.57 |   1 |#
_____|___________|_____|___________|_____|______________________________________


    RMSD TABLE
    __________


_______________________________________________________________________
     |      |      |           |         |                 |
Rank | Sub- | Run  | Binding   | Cluster | Reference       | Grep
     | Rank |      | Energy    | RMSD    | RMSD            | Pattern
_____|______|______|___________|_________|_________________|___________
   1      1     18       -8.77      0.00    271.43           RANKING
   1      2      9       -8.69      1.28    271.59           RANKING
   1      3      6       -8.69      1.11    271.29           RANKING
   1      4     16       -8.64      1.17    271.29           RANKING
   1      5     19       -8.59      1.11    271.25           RANKING
   1      6     10       -8.57      1.22    271.32           RANKING
   1      7      2       -8.56      1.13    271.23           RANKING
   1      8     17       -8.52      1.20    271.28           RANKING
   1      9      7       -8.50      1.08    271.21           RANKING
   1     10     20       -8.23      0.97    271.28           RANKING
   1     11      4       -7.83      1.34    271.34           RANKING
   1     12     12       -7.63      1.29    271.24           RANKING
   1     13     13       -7.51      1.27    271.42           RANKING
   1     14     15       -7.43      1.75    270.83           RANKING
   1     15      5       -7.24      1.79    270.98           RANKING
   1     16      3       -6.25      1.58    270.73           RANKING
   2      1     14       -7.16      0.00    270.12           RANKING
   2      2      1       -7.13      0.16    270.16           RANKING
   3      1      8       -7.12      0.00    270.29           RANKING
   4      1     11       -6.57      0.00    270.10           RANKING

Run time 0.747 sec
Idle time 0.000 sec
