AutoDock-GPU version: v1.6

**********************************************************
**    AutoDock-GPU AUTODOCKTOOLS-COMPATIBLE DLG FILE    **
**********************************************************


    DOCKING PARAMETERS
    ________________________


Ligand file:                               /home/a/REINVENT4/ReinventStudies/pleaseWork/justmol2mol_4_Compounds_ontop/graph-dock-8u2o5u/graph-DockGPU/node-autodockgpu/inputs/OJWNTZBTJUFYOZ-NJMFXTGONA-M.pdbqt
Grid fld file:                             /home/a/REINVENT4/ReinventStudies/mols/Rad51/maps/rad51_receptor.maps.fld

Random seed:                               42
Number of runs:                            20
Number of energy evaluations:              1613968
Number of generations:                     42000
Size of population:                        150
Rate of crossover:                         80.000000%
Tournament selection probability limit:    60.000000%
Rate of mutation:                          2.000000%
Maximal allowed delta movement:            +/- 6.000000A
Maximal allowed delta angle:               +/- 90.000000

Rate of local search:                      100.000000%
Maximal number of local search iterations: 300
Rho lower bound:                           0.010000
Spread of local search delta movement:     2.000000A
Spread of local search delta angle:        74.999999
Limit of consecutive successes/failures:   4

Handle symmetry during clustering:         YES
RMSD tolerance:                            2.000000A

Program call in command line was:          /home/a/REINVENT4/ReinventStudies/adgpu-v1.6_linux_x64_cuda12_128wi --filelist batch.txt --heuristics 1 --nrun 20 --psize 150 --lsit 300 --seed 42 --heurmax 12000000 


    GRID PARAMETERS
    ________________________


Receptor name:                             rad51_receptor
Number of grid points (x, y, z):           53, 53, 53
Grid center (x, y, z):                     139.950000, 75.640000, 221.970000A
Grid size (x, y, z):                       19.500000, 19.500000, 19.500000A
Grid spacing:                              0.375000A


    LIGAND PARAMETERS
    ________________________


Ligand name:                               /home/a/REINVENT4/ReinventStudies/pleaseWork/justmol2mol_4_Compounds_ontop/graph-dock-8u2o5u/graph-DockGPU/node-autodockgpu/inputs/OJWNTZBTJUFYOZ-NJMFXTGONA-M
Number of atoms:                           30
Number of rotatable bonds:                 8
Number of atom types:                      7


    DUMMY DATA (only for ADT-compatibility)
    ________________________


DPF> outlev 1
DPF> ga_run 20
DPF> fld /home/a/REINVENT4/ReinventStudies/mols/Rad51/maps/rad51_receptor.maps.fld
DPF> move /home/a/REINVENT4/ReinventStudies/pleaseWork/justmol2mol_4_Compounds_ontop/graph-dock-8u2o5u/graph-DockGPU/node-autodockgpu/inputs/OJWNTZBTJUFYOZ-NJMFXTGONA-M.pdbqt


    COUNTER STATES
    ________________________


Number of energy evaluations performed:    1260873
Number of generations used:                70


    INPUT LIGAND PDBQT FILE:
    ________________________


INPUT-LIGAND-PDBQT: REMARK SMILES O=C([N-]CC(=O)N1C[C@H](O)C[C@H]1Cn1cccc1)c1ccc2cc(Cl)ccc2n1
INPUT-LIGAND-PDBQT: REMARK SMILES IDX 4 1 3 2 2 3 1 4 19 5 20 6 29 7 21 8 28 9 22 10 27 11 23 12
INPUT-LIGAND-PDBQT: REMARK SMILES IDX 26 13 24 14 25 15 5 16 6 17 7 18 8 19 12 20 9 21 11 22 13 23
INPUT-LIGAND-PDBQT: REMARK SMILES IDX 14 24 15 25 18 26 16 27 17 28 10 29
INPUT-LIGAND-PDBQT: REMARK H PARENT 10 30
INPUT-LIGAND-PDBQT: ROOT
INPUT-LIGAND-PDBQT: ATOM      1  C   UNL     1      -1.695  -0.363  -0.516  1.00  0.00    -0.015 C 
INPUT-LIGAND-PDBQT: ENDROOT
INPUT-LIGAND-PDBQT: BRANCH   1   2
INPUT-LIGAND-PDBQT: ATOM      2  N   UNL     1      -1.846   0.248   0.799  1.00  0.00    -0.640 NA
INPUT-LIGAND-PDBQT: BRANCH   2   3
INPUT-LIGAND-PDBQT: ATOM      3  C   UNL     1      -1.046   1.337   1.276  1.00  0.00     0.101 C 
INPUT-LIGAND-PDBQT: ATOM      4  O   UNL     1      -1.500   2.072   2.191  1.00  0.00    -0.313 OA
INPUT-LIGAND-PDBQT: BRANCH   3   5
INPUT-LIGAND-PDBQT: ATOM      5  C   UNL     1       0.283   1.633   0.715  1.00  0.00     0.088 A 
INPUT-LIGAND-PDBQT: ATOM      6  C   UNL     1       1.252   0.627   0.587  1.00  0.00     0.031 A 
INPUT-LIGAND-PDBQT: ATOM      7  N   UNL     1       0.590   2.912   0.365  1.00  0.00    -0.246 NA
INPUT-LIGAND-PDBQT: ATOM      8  C   UNL     1       2.505   0.936   0.057  1.00  0.00     0.013 A 
INPUT-LIGAND-PDBQT: ATOM      9  C   UNL     1       1.805   3.246  -0.149  1.00  0.00     0.071 A 
INPUT-LIGAND-PDBQT: ATOM     10  C   UNL     1       2.794   2.252  -0.322  1.00  0.00     0.002 A 
INPUT-LIGAND-PDBQT: ATOM     11  C   UNL     1       2.076   4.570  -0.510  1.00  0.00     0.030 A 
INPUT-LIGAND-PDBQT: ATOM     12  C   UNL     1       4.043   2.599  -0.858  1.00  0.00     0.030 A 
INPUT-LIGAND-PDBQT: ATOM     13  C   UNL     1       3.324   4.908  -1.044  1.00  0.00     0.023 A 
INPUT-LIGAND-PDBQT: ATOM     14  C   UNL     1       4.306   3.926  -1.218  1.00  0.00     0.041 A 
INPUT-LIGAND-PDBQT: ATOM     15  Cl  UNL     1       5.868   4.359  -1.889  1.00  0.00    -0.084 Cl
INPUT-LIGAND-PDBQT: ENDBRANCH   3   5
INPUT-LIGAND-PDBQT: ENDBRANCH   2   3
INPUT-LIGAND-PDBQT: ENDBRANCH   1   2
INPUT-LIGAND-PDBQT: BRANCH   1  16
INPUT-LIGAND-PDBQT: ATOM     16  C   UNL     1      -2.673  -1.489  -0.659  1.00  0.00     0.205 C 
INPUT-LIGAND-PDBQT: ATOM     17  O   UNL     1      -3.707  -1.306  -1.357  1.00  0.00    -0.277 OA
INPUT-LIGAND-PDBQT: BRANCH  16  18
INPUT-LIGAND-PDBQT: ATOM     18  N   UNL     1      -2.503  -2.736   0.042  1.00  0.00    -0.337 N 
INPUT-LIGAND-PDBQT: ATOM     19  C   UNL     1      -3.653  -3.529   0.450  1.00  0.00     0.151 C 
INPUT-LIGAND-PDBQT: ATOM     20  C   UNL     1      -1.262  -3.202   0.659  1.00  0.00     0.107 C 
INPUT-LIGAND-PDBQT: ATOM     21  C   UNL     1      -3.105  -4.607   1.384  1.00  0.00     0.136 C 
INPUT-LIGAND-PDBQT: ATOM     22  C   UNL     1      -1.729  -4.100   1.808  1.00  0.00     0.060 C 
INPUT-LIGAND-PDBQT: BRANCH  20  23
INPUT-LIGAND-PDBQT: ATOM     23  C   UNL     1      -0.420  -4.013  -0.351  1.00  0.00     0.146 C 
INPUT-LIGAND-PDBQT: BRANCH  23  24
INPUT-LIGAND-PDBQT: ATOM     24  N   UNL     1       0.180  -3.154  -1.369  1.00  0.00    -0.352 N 
INPUT-LIGAND-PDBQT: ATOM     25  C   UNL     1       1.349  -2.493  -1.261  1.00  0.00     0.085 A 
INPUT-LIGAND-PDBQT: ATOM     26  C   UNL     1      -0.338  -2.865  -2.578  1.00  0.00     0.085 A 
INPUT-LIGAND-PDBQT: ATOM     27  C   UNL     1       1.579  -1.767  -2.412  1.00  0.00     0.019 A 
INPUT-LIGAND-PDBQT: ATOM     28  C   UNL     1       0.506  -2.004  -3.250  1.00  0.00     0.019 A 
INPUT-LIGAND-PDBQT: ENDBRANCH  23  24
INPUT-LIGAND-PDBQT: ENDBRANCH  20  23
INPUT-LIGAND-PDBQT: BRANCH  21  29
INPUT-LIGAND-PDBQT: ATOM     29  O   UNL     1      -3.931  -4.789   2.503  1.00  0.00    -0.391 OA
INPUT-LIGAND-PDBQT: ATOM     30  H   UNL     1      -4.735  -5.273   2.181  1.00  0.00     0.211 HD
INPUT-LIGAND-PDBQT: ENDBRANCH  21  29
INPUT-LIGAND-PDBQT: ENDBRANCH  16  18
INPUT-LIGAND-PDBQT: ENDBRANCH   1  16
INPUT-LIGAND-PDBQT: TORSDOF 8


    FINAL DOCKED STATE:
    ________________________


Run:   1 / 20
Time taken for this run:   0.052s

DOCKED: MODEL        1
DOCKED: USER    Run = 1
DOCKED: USER
DOCKED: USER    Estimated Free Energy of Binding    =  -7.59 kcal/mol  [=(1)+(2)+(3)-(4)]
DOCKED: USER
DOCKED: USER    (1) Final Intermolecular Energy     =  -9.97 kcal/mol
DOCKED: USER        vdW + Hbond + desolv Energy     = -10.05 kcal/mol
DOCKED: USER        Electrostatic Energy            =  +0.07 kcal/mol
DOCKED: USER        Moving Ligand-Fixed Receptor    =  -9.97 kcal/mol
DOCKED: USER        Moving Ligand-Moving Receptor   =  +0.00 kcal/mol
DOCKED: USER    (2) Final Total Internal Energy     =  -0.94 kcal/mol
DOCKED: USER    (3) Torsional Free Energy           =  +2.39 kcal/mol
DOCKED: USER    (4) Unbound System's Energy         =  -0.94 kcal/mol
DOCKED: USER
DOCKED: USER
DOCKED: REMARK SMILES O=C([N-]CC(=O)N1C[C@H](O)C[C@H]1Cn1cccc1)c1ccc2cc(Cl)ccc2n1
DOCKED: REMARK SMILES IDX 4 1 3 2 2 3 1 4 19 5 20 6 29 7 21 8 28 9 22 10 27 11 23 12
DOCKED: REMARK SMILES IDX 26 13 24 14 25 15 5 16 6 17 7 18 8 19 12 20 9 21 11 22 13 23
DOCKED: REMARK SMILES IDX 14 24 15 25 18 26 16 27 17 28 10 29
DOCKED: REMARK H PARENT 10 30
DOCKED: USER                              x       y       z     vdW  Elec       q    Type
DOCKED: USER                           _______ _______ _______ _____ _____    ______ ____
DOCKED: ROOT
DOCKED: ATOM      1  C   UNL     1     140.163  74.756 220.868 -0.23 +0.00    -0.015 C  
DOCKED: ENDROOT
DOCKED: BRANCH   1   2
DOCKED: ATOM      2  N   UNL     1     140.206  73.797 221.965 -0.61 +0.05    -0.640 NA 
DOCKED: BRANCH   2   3
DOCKED: ATOM      3  C   UNL     1     139.541  72.527 221.949 -0.23 -0.02    +0.101 C  
DOCKED: ATOM      4  O   UNL     1     138.774  72.253 220.991 -0.04 +0.06    -0.313 OA 
DOCKED: BRANCH   3   5
DOCKED: ATOM      5  C   UNL     1     139.715  71.542 223.030 -0.30 -0.02    +0.088 A  
DOCKED: ATOM      6  C   UNL     1     139.324  70.206 222.857 -0.22 -0.01    +0.031 A  
DOCKED: ATOM      7  N   UNL     1     140.213  71.948 224.230 -0.23 +0.04    -0.246 NA 
DOCKED: ATOM      8  C   UNL     1     139.495  69.295 223.900 -0.25 -0.00    +0.013 A  
DOCKED: ATOM      9  C   UNL     1     140.385  71.085 225.268 -0.49 -0.01    +0.071 A  
DOCKED: ATOM     10  C   UNL     1     140.033  69.725 225.118 -0.42 -0.00    +0.002 A  
DOCKED: ATOM     11  C   UNL     1     140.914  71.540 226.480 -0.68 -0.00    +0.030 A  
DOCKED: ATOM     12  C   UNL     1     140.219  68.837 226.188 -0.53 -0.01    +0.030 A  
DOCKED: ATOM     13  C   UNL     1     141.096  70.647 227.542 -0.61 -0.00    +0.023 A  
DOCKED: ATOM     14  C   UNL     1     140.749  69.299 227.398 -0.57 -0.01    +0.041 A  
DOCKED: ATOM     15  Cl  UNL     1     140.982  68.187 228.735 -0.68 +0.02    -0.084 Cl 
DOCKED: ENDBRANCH   3   5
DOCKED: ENDBRANCH   2   3
DOCKED: ENDBRANCH   1   2
DOCKED: BRANCH   1  16
DOCKED: ATOM     16  C   UNL     1     140.756  76.056 221.319 -0.25 -0.06    +0.205 C  
DOCKED: ATOM     17  O   UNL     1     141.037  76.202 222.539 -0.32 +0.08    -0.277 OA 
DOCKED: BRANCH  16  18
DOCKED: ATOM     18  N   UNL     1     140.934  77.163 220.414 -0.08 +0.14    -0.337 N  
DOCKED: ATOM     19  C   UNL     1     140.531  77.063 219.019 -0.07 -0.06    +0.151 C  
DOCKED: ATOM     20  C   UNL     1     141.753  78.347 220.670 -0.27 -0.06    +0.107 C  
DOCKED: ATOM     21  C   UNL     1     141.115  78.295 218.328 -0.12 -0.07    +0.136 C  
DOCKED: ATOM     22  C   UNL     1     142.195  78.806 219.278 -0.20 -0.04    +0.060 C  
DOCKED: BRANCH  20  23
DOCKED: ATOM     23  C   UNL     1     140.919  79.449 221.361 -0.25 -0.05    +0.146 C  
DOCKED: BRANCH  23  24
DOCKED: ATOM     24  N   UNL     1     141.671  80.111 222.424 -0.21 +0.11    -0.352 N  
DOCKED: ATOM     25  C   UNL     1     141.252  81.161 223.158 -0.45 -0.01    +0.085 A  
DOCKED: ATOM     26  C   UNL     1     142.912  79.797 222.841 -0.55 -0.04    +0.085 A  
DOCKED: ATOM     27  C   UNL     1     142.240  81.527 224.050 -0.57 -0.00    +0.019 A  
DOCKED: ATOM     28  C   UNL     1     143.296  80.659 223.848 -0.60 -0.00    +0.019 A  
DOCKED: ENDBRANCH  23  24
DOCKED: ENDBRANCH  20  23
DOCKED: BRANCH  21  29
DOCKED: ATOM     29  O   UNL     1     141.667  77.972 217.079 -0.06 +0.24    -0.391 OA 
DOCKED: ATOM     30  H   UNL     1     142.461  78.556 216.966 +0.00 -0.21    +0.211 HD 
DOCKED: ENDBRANCH  21  29
DOCKED: ENDBRANCH  16  18
DOCKED: ENDBRANCH   1  16
DOCKED: TORSDOF 8
DOCKED: TER
DOCKED: ENDMDL
________________________________________________________________________________


    FINAL DOCKED STATE:
    ________________________


Run:   2 / 20
Time taken for this run:   0.052s

DOCKED: MODEL        2
DOCKED: USER    Run = 2
DOCKED: USER
DOCKED: USER    Estimated Free Energy of Binding    =  -7.63 kcal/mol  [=(1)+(2)+(3)-(4)]
DOCKED: USER
DOCKED: USER    (1) Final Intermolecular Energy     = -10.02 kcal/mol
DOCKED: USER        vdW + Hbond + desolv Energy     = -10.16 kcal/mol
DOCKED: USER        Electrostatic Energy            =  +0.14 kcal/mol
DOCKED: USER        Moving Ligand-Fixed Receptor    = -10.02 kcal/mol
DOCKED: USER        Moving Ligand-Moving Receptor   =  +0.00 kcal/mol
DOCKED: USER    (2) Final Total Internal Energy     =  -1.18 kcal/mol
DOCKED: USER    (3) Torsional Free Energy           =  +2.39 kcal/mol
DOCKED: USER    (4) Unbound System's Energy         =  -1.18 kcal/mol
DOCKED: USER
DOCKED: USER
DOCKED: REMARK SMILES O=C([N-]CC(=O)N1C[C@H](O)C[C@H]1Cn1cccc1)c1ccc2cc(Cl)ccc2n1
DOCKED: REMARK SMILES IDX 4 1 3 2 2 3 1 4 19 5 20 6 29 7 21 8 28 9 22 10 27 11 23 12
DOCKED: REMARK SMILES IDX 26 13 24 14 25 15 5 16 6 17 7 18 8 19 12 20 9 21 11 22 13 23
DOCKED: REMARK SMILES IDX 14 24 15 25 18 26 16 27 17 28 10 29
DOCKED: REMARK H PARENT 10 30
DOCKED: USER                              x       y       z     vdW  Elec       q    Type
DOCKED: USER                           _______ _______ _______ _____ _____    ______ ____
DOCKED: ROOT
DOCKED: ATOM      1  C   UNL     1     140.175  75.248 221.237 -0.29 +0.00    -0.015 C  
DOCKED: ENDROOT
DOCKED: BRANCH   1   2
DOCKED: ATOM      2  N   UNL     1     140.491  74.047 221.999 -0.58 +0.02    -0.640 NA 
DOCKED: BRANCH   2   3
DOCKED: ATOM      3  C   UNL     1     139.709  72.846 221.967 -0.24 -0.02    +0.101 C  
DOCKED: ATOM      4  O   UNL     1     138.927  72.653 221.001 -0.06 +0.06    -0.313 OA 
DOCKED: BRANCH   3   5
DOCKED: ATOM      5  C   UNL     1     139.781  71.840 223.040 -0.30 -0.02    +0.088 A  
DOCKED: ATOM      6  C   UNL     1     139.249  70.555 222.860 -0.23 -0.01    +0.031 A  
DOCKED: ATOM      7  N   UNL     1     140.325  72.181 224.240 -0.14 +0.04    -0.246 NA 
DOCKED: ATOM      8  C   UNL     1     139.325  69.622 223.895 -0.29 -0.00    +0.013 A  
DOCKED: ATOM      9  C   UNL     1     140.408  71.296 225.271 -0.49 -0.01    +0.071 A  
DOCKED: ATOM     10  C   UNL     1     139.912  69.983 225.114 -0.43 -0.00    +0.002 A  
DOCKED: ATOM     11  C   UNL     1     140.988  71.683 226.484 -0.68 -0.00    +0.030 A  
DOCKED: ATOM     12  C   UNL     1     140.005  69.072 226.176 -0.50 -0.00    +0.030 A  
DOCKED: ATOM     13  C   UNL     1     141.078  70.768 227.539 -0.64 -0.00    +0.023 A  
DOCKED: ATOM     14  C   UNL     1     140.588  69.466 227.387 -0.57 -0.01    +0.041 A  
DOCKED: ATOM     15  Cl  UNL     1     140.705  68.326 228.715 -0.67 +0.02    -0.084 Cl 
DOCKED: ENDBRANCH   3   5
DOCKED: ENDBRANCH   2   3
DOCKED: ENDBRANCH   1   2
DOCKED: BRANCH   1  16
DOCKED: ATOM     16  C   UNL     1     140.146  76.430 222.158 -0.28 -0.05    +0.205 C  
DOCKED: ATOM     17  O   UNL     1     141.208  76.761 222.750 -0.28 +0.11    -0.277 OA 
DOCKED: BRANCH  16  18
DOCKED: ATOM     18  N   UNL     1     138.925  77.140 222.443 -0.15 +0.06    -0.337 N  
DOCKED: ATOM     19  C   UNL     1     137.690  76.424 222.725 -0.24 -0.03    +0.151 C  
DOCKED: ATOM     20  C   UNL     1     138.698  78.567 222.216 -0.21 -0.02    +0.107 C  
DOCKED: ATOM     21  C   UNL     1     136.583  77.477 222.703 -0.16 -0.02    +0.136 C  
DOCKED: ATOM     22  C   UNL     1     137.190  78.672 221.972 -0.13 -0.01    +0.060 C  
DOCKED: BRANCH  20  23
DOCKED: ATOM     23  C   UNL     1     139.102  79.389 223.460 -0.31 -0.02    +0.146 C  
DOCKED: BRANCH  23  24
DOCKED: ATOM     24  N   UNL     1     140.453  79.931 223.336 -0.19 +0.07    -0.352 N  
DOCKED: ATOM     25  C   UNL     1     140.800  81.055 222.679 -0.37 -0.02    +0.085 A  
DOCKED: ATOM     26  C   UNL     1     141.579  79.394 223.842 -0.54 -0.02    +0.085 A  
DOCKED: ATOM     27  C   UNL     1     142.166  81.236 222.759 -0.52 -0.00    +0.019 A  
DOCKED: ATOM     28  C   UNL     1     142.662  80.179 223.500 -0.65 -0.01    +0.019 A  
DOCKED: ENDBRANCH  23  24
DOCKED: ENDBRANCH  20  23
DOCKED: BRANCH  21  29
DOCKED: ATOM     29  O   UNL     1     135.443  77.014 222.030 -0.03 +0.06    -0.391 OA 
DOCKED: ATOM     30  H   UNL     1     135.678  76.987 221.067 +0.02 -0.03    +0.211 HD 
DOCKED: ENDBRANCH  21  29
DOCKED: ENDBRANCH  16  18
DOCKED: ENDBRANCH   1  16
DOCKED: TORSDOF 8
DOCKED: TER
DOCKED: ENDMDL
________________________________________________________________________________


    FINAL DOCKED STATE:
    ________________________


Run:   3 / 20
Time taken for this run:   0.052s

DOCKED: MODEL        3
DOCKED: USER    Run = 3
DOCKED: USER
DOCKED: USER    Estimated Free Energy of Binding    =  -7.46 kcal/mol  [=(1)+(2)+(3)-(4)]
DOCKED: USER
DOCKED: USER    (1) Final Intermolecular Energy     =  -9.85 kcal/mol
DOCKED: USER        vdW + Hbond + desolv Energy     =  -9.79 kcal/mol
DOCKED: USER        Electrostatic Energy            =  -0.06 kcal/mol
DOCKED: USER        Moving Ligand-Fixed Receptor    =  -9.85 kcal/mol
DOCKED: USER        Moving Ligand-Moving Receptor   =  +0.00 kcal/mol
DOCKED: USER    (2) Final Total Internal Energy     =  -1.44 kcal/mol
DOCKED: USER    (3) Torsional Free Energy           =  +2.39 kcal/mol
DOCKED: USER    (4) Unbound System's Energy         =  -1.44 kcal/mol
DOCKED: USER
DOCKED: USER
DOCKED: REMARK SMILES O=C([N-]CC(=O)N1C[C@H](O)C[C@H]1Cn1cccc1)c1ccc2cc(Cl)ccc2n1
DOCKED: REMARK SMILES IDX 4 1 3 2 2 3 1 4 19 5 20 6 29 7 21 8 28 9 22 10 27 11 23 12
DOCKED: REMARK SMILES IDX 26 13 24 14 25 15 5 16 6 17 7 18 8 19 12 20 9 21 11 22 13 23
DOCKED: REMARK SMILES IDX 14 24 15 25 18 26 16 27 17 28 10 29
DOCKED: REMARK H PARENT 10 30
DOCKED: USER                              x       y       z     vdW  Elec       q    Type
DOCKED: USER                           _______ _______ _______ _____ _____    ______ ____
DOCKED: ROOT
DOCKED: ATOM      1  C   UNL     1     140.906  71.273 220.156 -0.12 +0.00    -0.015 C  
DOCKED: ENDROOT
DOCKED: BRANCH   1   2
DOCKED: ATOM      2  N   UNL     1     140.029  72.330 220.644 +0.03 +0.11    -0.640 NA 
DOCKED: BRANCH   2   3
DOCKED: ATOM      3  C   UNL     1     139.887  72.683 222.026 -0.25 -0.02    +0.101 C  
DOCKED: ATOM      4  O   UNL     1     139.726  73.892 222.333 -0.80 +0.04    -0.313 OA 
DOCKED: BRANCH   3   5
DOCKED: ATOM      5  C   UNL     1     139.941  71.675 223.098 -0.31 -0.02    +0.088 A  
DOCKED: ATOM      6  C   UNL     1     139.459  70.374 222.890 -0.23 -0.01    +0.031 A  
DOCKED: ATOM      7  N   UNL     1     140.420  72.028 224.322 -0.19 +0.04    -0.246 NA 
DOCKED: ATOM      8  C   UNL     1     139.518  69.440 223.925 -0.26 -0.00    +0.013 A  
DOCKED: ATOM      9  C   UNL     1     140.485  71.142 225.353 -0.51 -0.01    +0.071 A  
DOCKED: ATOM     10  C   UNL     1     140.038  69.814 225.170 -0.43 -0.00    +0.002 A  
DOCKED: ATOM     11  C   UNL     1     140.998  71.540 226.592 -0.69 -0.00    +0.030 A  
DOCKED: ATOM     12  C   UNL     1     140.112  68.902 226.233 -0.52 -0.01    +0.030 A  
DOCKED: ATOM     13  C   UNL     1     141.069  70.625 227.647 -0.63 -0.00    +0.023 A  
DOCKED: ATOM     14  C   UNL     1     140.628  69.308 227.469 -0.58 -0.01    +0.041 A  
DOCKED: ATOM     15  Cl  UNL     1     140.721  68.167 228.798 -0.57 +0.02    -0.084 Cl 
DOCKED: ENDBRANCH   3   5
DOCKED: ENDBRANCH   2   3
DOCKED: ENDBRANCH   1   2
DOCKED: BRANCH   1  16
DOCKED: ATOM     16  C   UNL     1     141.753  71.802 219.040 -0.04 -0.03    +0.205 C  
DOCKED: ATOM     17  O   UNL     1     141.465  71.477 217.856 -0.00 +0.05    -0.277 OA 
DOCKED: BRANCH  16  18
DOCKED: ATOM     18  N   UNL     1     142.927  72.599 219.290 -0.02 +0.05    -0.337 N  
DOCKED: ATOM     19  C   UNL     1     144.250  72.122 218.915 -0.15 +0.01    +0.151 C  
DOCKED: ATOM     20  C   UNL     1     142.987  73.776 220.155 -0.25 -0.03    +0.107 C  
DOCKED: ATOM     21  C   UNL     1     145.240  73.083 219.571 -0.35 +0.01    +0.136 C  
DOCKED: ATOM     22  C   UNL     1     144.436  73.803 220.651 -0.43 -0.02    +0.060 C  
DOCKED: BRANCH  20  23
DOCKED: ATOM     23  C   UNL     1     142.667  75.059 219.357 -0.21 -0.06    +0.146 C  
DOCKED: BRANCH  23  24
DOCKED: ATOM     24  N   UNL     1     142.103  76.101 220.211 -0.12 +0.18    -0.352 N  
DOCKED: ATOM     25  C   UNL     1     141.367  75.905 221.322 -0.26 -0.03    +0.085 A  
DOCKED: ATOM     26  C   UNL     1     142.209  77.431 220.025 -0.28 -0.06    +0.085 A  
DOCKED: ATOM     27  C   UNL     1     140.992  77.123 221.851 -0.37 -0.01    +0.019 A  
DOCKED: ATOM     28  C   UNL     1     141.528  78.094 221.026 -0.33 -0.01    +0.019 A  
DOCKED: ENDBRANCH  23  24
DOCKED: ENDBRANCH  20  23
DOCKED: BRANCH  21  29
DOCKED: ATOM     29  O   UNL     1     146.326  72.399 220.137 -0.46 -0.20    -0.391 OA 
DOCKED: ATOM     30  H   UNL     1     145.956  71.849 220.875 -0.43 -0.05    +0.211 HD 
DOCKED: ENDBRANCH  21  29
DOCKED: ENDBRANCH  16  18
DOCKED: ENDBRANCH   1  16
DOCKED: TORSDOF 8
DOCKED: TER
DOCKED: ENDMDL
________________________________________________________________________________


    FINAL DOCKED STATE:
    ________________________


Run:   4 / 20
Time taken for this run:   0.052s

DOCKED: MODEL        4
DOCKED: USER    Run = 4
DOCKED: USER
DOCKED: USER    Estimated Free Energy of Binding    =  -7.42 kcal/mol  [=(1)+(2)+(3)-(4)]
DOCKED: USER
DOCKED: USER    (1) Final Intermolecular Energy     =  -9.81 kcal/mol
DOCKED: USER        vdW + Hbond + desolv Energy     =  -9.68 kcal/mol
DOCKED: USER        Electrostatic Energy            =  -0.13 kcal/mol
DOCKED: USER        Moving Ligand-Fixed Receptor    =  -9.81 kcal/mol
DOCKED: USER        Moving Ligand-Moving Receptor   =  +0.00 kcal/mol
DOCKED: USER    (2) Final Total Internal Energy     =  -1.51 kcal/mol
DOCKED: USER    (3) Torsional Free Energy           =  +2.39 kcal/mol
DOCKED: USER    (4) Unbound System's Energy         =  -1.51 kcal/mol
DOCKED: USER
DOCKED: USER
DOCKED: REMARK SMILES O=C([N-]CC(=O)N1C[C@H](O)C[C@H]1Cn1cccc1)c1ccc2cc(Cl)ccc2n1
DOCKED: REMARK SMILES IDX 4 1 3 2 2 3 1 4 19 5 20 6 29 7 21 8 28 9 22 10 27 11 23 12
DOCKED: REMARK SMILES IDX 26 13 24 14 25 15 5 16 6 17 7 18 8 19 12 20 9 21 11 22 13 23
DOCKED: REMARK SMILES IDX 14 24 15 25 18 26 16 27 17 28 10 29
DOCKED: REMARK H PARENT 10 30
DOCKED: USER                              x       y       z     vdW  Elec       q    Type
DOCKED: USER                           _______ _______ _______ _____ _____    ______ ____
DOCKED: ROOT
DOCKED: ATOM      1  C   UNL     1     140.713  73.410 219.356 -0.07 +0.00    -0.015 C  
DOCKED: ENDROOT
DOCKED: BRANCH   1   2
DOCKED: ATOM      2  N   UNL     1     140.789  72.538 220.522 +0.03 +0.10    -0.640 NA 
DOCKED: BRANCH   2   3
DOCKED: ATOM      3  C   UNL     1     140.311  72.895 221.825 -0.26 -0.01    +0.101 C  
DOCKED: ATOM      4  O   UNL     1     139.968  74.086 222.043 -0.81 +0.03    -0.313 OA 
DOCKED: BRANCH   3   5
DOCKED: ATOM      5  C   UNL     1     140.227  71.914 222.921 -0.31 -0.01    +0.088 A  
DOCKED: ATOM      6  C   UNL     1     139.624  70.663 222.724 -0.23 -0.01    +0.031 A  
DOCKED: ATOM      7  N   UNL     1     140.695  72.250 224.154 -0.06 +0.02    -0.246 NA 
DOCKED: ATOM      8  C   UNL     1     139.553  69.755 223.781 -0.28 -0.00    +0.013 A  
DOCKED: ATOM      9  C   UNL     1     140.635  71.389 225.206 -0.50 -0.01    +0.071 A  
DOCKED: ATOM     10  C   UNL     1     140.064  70.108 225.036 -0.44 -0.00    +0.002 A  
DOCKED: ATOM     11  C   UNL     1     141.141  71.767 226.454 -0.69 -0.00    +0.030 A  
DOCKED: ATOM     12  C   UNL     1     140.010  69.221 226.121 -0.49 -0.00    +0.030 A  
DOCKED: ATOM     13  C   UNL     1     141.084  70.876 227.531 -0.65 -0.00    +0.023 A  
DOCKED: ATOM     14  C   UNL     1     140.519  69.606 227.366 -0.56 -0.01    +0.041 A  
DOCKED: ATOM     15  Cl  UNL     1     140.452  68.496 228.723 -0.67 +0.02    -0.084 Cl 
DOCKED: ENDBRANCH   3   5
DOCKED: ENDBRANCH   2   3
DOCKED: ENDBRANCH   1   2
DOCKED: BRANCH   1  16
DOCKED: ATOM     16  C   UNL     1     141.942  73.230 218.517 -0.03 -0.04    +0.205 C  
DOCKED: ATOM     17  O   UNL     1     141.821  72.715 217.373 -0.00 +0.05    -0.277 OA 
DOCKED: BRANCH  16  18
DOCKED: ATOM     18  N   UNL     1     143.255  73.551 219.015 -0.04 +0.07    -0.337 N  
DOCKED: ATOM     19  C   UNL     1     144.424  72.800 218.584 -0.15 +0.00    +0.151 C  
DOCKED: ATOM     20  C   UNL     1     143.542  74.415 220.159 -0.33 -0.04    +0.107 C  
DOCKED: ATOM     21  C   UNL     1     145.561  73.233 219.509 -0.34 +0.02    +0.136 C  
DOCKED: ATOM     22  C   UNL     1     144.871  73.885 220.704 -0.49 -0.02    +0.060 C  
DOCKED: BRANCH  20  23
DOCKED: ATOM     23  C   UNL     1     143.692  75.886 219.711 -0.32 -0.09    +0.146 C  
DOCKED: BRANCH  23  24
DOCKED: ATOM     24  N   UNL     1     142.506  76.675 220.037 -0.15 +0.23    -0.352 N  
DOCKED: ATOM     25  C   UNL     1     142.199  77.888 219.539 -0.26 -0.06    +0.085 A  
DOCKED: ATOM     26  C   UNL     1     141.530  76.332 220.899 -0.23 -0.04    +0.085 A  
DOCKED: ATOM     27  C   UNL     1     141.015  78.331 220.094 -0.22 -0.01    +0.019 A  
DOCKED: ATOM     28  C   UNL     1     140.589  77.341 220.959 -0.25 -0.01    +0.019 A  
DOCKED: ENDBRANCH  23  24
DOCKED: ENDBRANCH  20  23
DOCKED: BRANCH  21  29
DOCKED: ATOM     29  O   UNL     1     146.336  72.139 219.921 -0.46 -0.28    -0.391 OA 
DOCKED: ATOM     30  H   UNL     1     146.021  71.901 220.831 -0.42 -0.03    +0.211 HD 
DOCKED: ENDBRANCH  21  29
DOCKED: ENDBRANCH  16  18
DOCKED: ENDBRANCH   1  16
DOCKED: TORSDOF 8
DOCKED: TER
DOCKED: ENDMDL
________________________________________________________________________________


    FINAL DOCKED STATE:
    ________________________


Run:   5 / 20
Time taken for this run:   0.052s

DOCKED: MODEL        5
DOCKED: USER    Run = 5
DOCKED: USER
DOCKED: USER    Estimated Free Energy of Binding    =  -7.42 kcal/mol  [=(1)+(2)+(3)-(4)]
DOCKED: USER
DOCKED: USER    (1) Final Intermolecular Energy     =  -9.81 kcal/mol
DOCKED: USER        vdW + Hbond + desolv Energy     =  -9.93 kcal/mol
DOCKED: USER        Electrostatic Energy            =  +0.12 kcal/mol
DOCKED: USER        Moving Ligand-Fixed Receptor    =  -9.81 kcal/mol
DOCKED: USER        Moving Ligand-Moving Receptor   =  +0.00 kcal/mol
DOCKED: USER    (2) Final Total Internal Energy     =  -1.26 kcal/mol
DOCKED: USER    (3) Torsional Free Energy           =  +2.39 kcal/mol
DOCKED: USER    (4) Unbound System's Energy         =  -1.26 kcal/mol
DOCKED: USER
DOCKED: USER
DOCKED: REMARK SMILES O=C([N-]CC(=O)N1C[C@H](O)C[C@H]1Cn1cccc1)c1ccc2cc(Cl)ccc2n1
DOCKED: REMARK SMILES IDX 4 1 3 2 2 3 1 4 19 5 20 6 29 7 21 8 28 9 22 10 27 11 23 12
DOCKED: REMARK SMILES IDX 26 13 24 14 25 15 5 16 6 17 7 18 8 19 12 20 9 21 11 22 13 23
DOCKED: REMARK SMILES IDX 14 24 15 25 18 26 16 27 17 28 10 29
DOCKED: REMARK H PARENT 10 30
DOCKED: USER                              x       y       z     vdW  Elec       q    Type
DOCKED: USER                           _______ _______ _______ _____ _____    ______ ____
DOCKED: ROOT
DOCKED: ATOM      1  C   UNL     1     141.316  74.359 220.722 -0.26 +0.00    -0.015 C  
DOCKED: ENDROOT
DOCKED: BRANCH   1   2
DOCKED: ATOM      2  N   UNL     1     140.843  73.783 221.975 -0.49 +0.01    -0.640 NA 
DOCKED: BRANCH   2   3
DOCKED: ATOM      3  C   UNL     1     139.884  72.722 222.061 -0.25 -0.02    +0.101 C  
DOCKED: ATOM      4  O   UNL     1     138.959  72.666 221.209 -0.07 +0.06    -0.313 OA 
DOCKED: BRANCH   3   5
DOCKED: ATOM      5  C   UNL     1     139.936  71.707 223.126 -0.32 -0.02    +0.088 A  
DOCKED: ATOM      6  C   UNL     1     139.436  70.413 222.915 -0.23 -0.01    +0.031 A  
DOCKED: ATOM      7  N   UNL     1     140.429  72.047 224.348 -0.17 +0.04    -0.246 NA 
DOCKED: ATOM      8  C   UNL     1     139.494  69.473 223.943 -0.27 -0.00    +0.013 A  
DOCKED: ATOM      9  C   UNL     1     140.492  71.154 225.373 -0.51 -0.01    +0.071 A  
DOCKED: ATOM     10  C   UNL     1     140.028  69.833 225.186 -0.43 -0.00    +0.002 A  
DOCKED: ATOM     11  C   UNL     1     141.020  71.539 226.610 -0.70 -0.00    +0.030 A  
DOCKED: ATOM     12  C   UNL     1     140.101  68.913 226.243 -0.52 -0.01    +0.030 A  
DOCKED: ATOM     13  C   UNL     1     141.089  70.616 227.659 -0.62 -0.00    +0.023 A  
DOCKED: ATOM     14  C   UNL     1     140.632  69.306 227.477 -0.58 -0.01    +0.041 A  
DOCKED: ATOM     15  Cl  UNL     1     140.723  68.155 228.798 -0.57 +0.02    -0.084 Cl 
DOCKED: ENDBRANCH   3   5
DOCKED: ENDBRANCH   2   3
DOCKED: ENDBRANCH   1   2
DOCKED: BRANCH   1  16
DOCKED: ATOM     16  C   UNL     1     140.548  75.612 220.427 -0.14 -0.06    +0.205 C  
DOCKED: ATOM     17  O   UNL     1     140.632  76.114 219.274 -0.04 +0.09    -0.277 OA 
DOCKED: BRANCH  16  18
DOCKED: ATOM     18  N   UNL     1     139.790  76.295 221.444 -0.12 +0.08    -0.337 N  
DOCKED: ATOM     19  C   UNL     1     138.525  75.758 221.923 -0.22 -0.04    +0.151 C  
DOCKED: ATOM     20  C   UNL     1     140.015  77.668 221.894 -0.28 -0.03    +0.107 C  
DOCKED: ATOM     21  C   UNL     1     137.897  76.865 222.768 -0.22 -0.03    +0.136 C  
DOCKED: ATOM     22  C   UNL     1     138.636  78.138 222.365 -0.25 -0.01    +0.060 C  
DOCKED: BRANCH  20  23
DOCKED: ATOM     23  C   UNL     1     141.025  77.703 223.062 -0.25 -0.05    +0.146 C  
DOCKED: BRANCH  23  24
DOCKED: ATOM     24  N   UNL     1     141.585  79.038 223.254 -0.26 +0.11    -0.352 N  
DOCKED: ATOM     25  C   UNL     1     142.822  79.438 222.902 -0.50 -0.04    +0.085 A  
DOCKED: ATOM     26  C   UNL     1     140.968  80.089 223.828 -0.43 -0.01    +0.085 A  
DOCKED: ATOM     27  C   UNL     1     143.002  80.759 223.260 -0.57 -0.00    +0.019 A  
DOCKED: ATOM     28  C   UNL     1     141.823  81.173 223.849 -0.59 -0.00    +0.019 A  
DOCKED: ENDBRANCH  23  24
DOCKED: ENDBRANCH  20  23
DOCKED: BRANCH  21  29
DOCKED: ATOM     29  O   UNL     1     136.523  76.990 222.516 -0.09 +0.07    -0.391 OA 
DOCKED: ATOM     30  H   UNL     1     136.437  77.285 221.573 +0.04 -0.04    +0.211 HD 
DOCKED: ENDBRANCH  21  29
DOCKED: ENDBRANCH  16  18
DOCKED: ENDBRANCH   1  16
DOCKED: TORSDOF 8
DOCKED: TER
DOCKED: ENDMDL
________________________________________________________________________________


    FINAL DOCKED STATE:
    ________________________


Run:   6 / 20
Time taken for this run:   0.052s

DOCKED: MODEL        6
DOCKED: USER    Run = 6
DOCKED: USER
DOCKED: USER    Estimated Free Energy of Binding    =  -6.47 kcal/mol  [=(1)+(2)+(3)-(4)]
DOCKED: USER
DOCKED: USER    (1) Final Intermolecular Energy     =  -8.86 kcal/mol
DOCKED: USER        vdW + Hbond + desolv Energy     =  -9.04 kcal/mol
DOCKED: USER        Electrostatic Energy            =  +0.18 kcal/mol
DOCKED: USER        Moving Ligand-Fixed Receptor    =  -8.86 kcal/mol
DOCKED: USER        Moving Ligand-Moving Receptor   =  +0.00 kcal/mol
DOCKED: USER    (2) Final Total Internal Energy     =  -2.19 kcal/mol
DOCKED: USER    (3) Torsional Free Energy           =  +2.39 kcal/mol
DOCKED: USER    (4) Unbound System's Energy         =  -2.19 kcal/mol
DOCKED: USER
DOCKED: USER
DOCKED: REMARK SMILES O=C([N-]CC(=O)N1C[C@H](O)C[C@H]1Cn1cccc1)c1ccc2cc(Cl)ccc2n1
DOCKED: REMARK SMILES IDX 4 1 3 2 2 3 1 4 19 5 20 6 29 7 21 8 28 9 22 10 27 11 23 12
DOCKED: REMARK SMILES IDX 26 13 24 14 25 15 5 16 6 17 7 18 8 19 12 20 9 21 11 22 13 23
DOCKED: REMARK SMILES IDX 14 24 15 25 18 26 16 27 17 28 10 29
DOCKED: REMARK H PARENT 10 30
DOCKED: USER                              x       y       z     vdW  Elec       q    Type
DOCKED: USER                           _______ _______ _______ _____ _____    ______ ____
DOCKED: ROOT
DOCKED: ATOM      1  C   UNL     1     138.417  74.724 221.968 -0.21 +0.00    -0.015 C  
DOCKED: ENDROOT
DOCKED: BRANCH   1   2
DOCKED: ATOM      2  N   UNL     1     138.989  73.627 221.196 -0.01 +0.14    -0.640 NA 
DOCKED: BRANCH   2   3
DOCKED: ATOM      3  C   UNL     1     140.138  72.873 221.601 -0.23 -0.01    +0.101 C  
DOCKED: ATOM      4  O   UNL     1     141.220  73.029 220.978 -0.15 +0.04    -0.313 OA 
DOCKED: BRANCH   3   5
DOCKED: ATOM      5  C   UNL     1     140.085  71.908 222.713 -0.30 -0.01    +0.088 A  
DOCKED: ATOM      6  C   UNL     1     139.479  70.654 222.550 -0.22 -0.01    +0.031 A  
DOCKED: ATOM      7  N   UNL     1     140.587  72.261 223.928 -0.17 +0.02    -0.246 NA 
DOCKED: ATOM      8  C   UNL     1     139.439  69.760 223.621 -0.26 -0.00    +0.013 A  
DOCKED: ATOM      9  C   UNL     1     140.557  71.415 224.993 -0.47 -0.01    +0.071 A  
DOCKED: ATOM     10  C   UNL     1     139.983  70.131 224.856 -0.42 -0.00    +0.002 A  
DOCKED: ATOM     11  C   UNL     1     141.097  71.811 226.221 -0.64 -0.00    +0.030 A  
DOCKED: ATOM     12  C   UNL     1     139.960  69.259 225.955 -0.47 -0.00    +0.030 A  
DOCKED: ATOM     13  C   UNL     1     141.070  70.935 227.312 -0.66 -0.00    +0.023 A  
DOCKED: ATOM     14  C   UNL     1     140.503  69.662 227.180 -0.55 -0.01    +0.041 A  
DOCKED: ATOM     15  Cl  UNL     1     140.475  68.570 228.553 -0.73 +0.02    -0.084 Cl 
DOCKED: ENDBRANCH   3   5
DOCKED: ENDBRANCH   2   3
DOCKED: ENDBRANCH   1   2
DOCKED: BRANCH   1  16
DOCKED: ATOM     16  C   UNL     1     138.972  76.025 221.474 -0.18 -0.05    +0.205 C  
DOCKED: ATOM     17  O   UNL     1     138.370  77.092 221.775 -0.12 +0.06    -0.277 OA 
DOCKED: BRANCH  16  18
DOCKED: ATOM     18  N   UNL     1     140.119  76.080 220.604 -0.06 +0.10    -0.337 N  
DOCKED: ATOM     19  C   UNL     1     140.117  75.397 219.319 -0.05 -0.04    +0.151 C  
DOCKED: ATOM     20  C   UNL     1     141.453  76.542 220.984 -0.23 -0.05    +0.107 C  
DOCKED: ATOM     21  C   UNL     1     141.561  75.447 218.820 -0.10 -0.05    +0.136 C  
DOCKED: ATOM     22  C   UNL     1     142.395  75.771 220.056 -0.29 -0.03    +0.060 C  
DOCKED: BRANCH  20  23
DOCKED: ATOM     23  C   UNL     1     141.592  78.063 220.750 -0.25 -0.08    +0.146 C  
DOCKED: BRANCH  23  24
DOCKED: ATOM     24  N   UNL     1     141.790  78.788 222.003 -0.19 +0.18    -0.352 N  
DOCKED: ATOM     25  C   UNL     1     142.333  80.014 222.132 -0.46 -0.04    +0.085 A  
DOCKED: ATOM     26  C   UNL     1     141.481  78.350 223.238 -0.49 -0.03    +0.085 A  
DOCKED: ATOM     27  C   UNL     1     142.378  80.363 223.467 -0.65 -0.00    +0.019 A  
DOCKED: ATOM     28  C   UNL     1     141.835  79.304 224.170 -0.54 -0.00    +0.019 A  
DOCKED: ENDBRANCH  23  24
DOCKED: ENDBRANCH  20  23
DOCKED: BRANCH  21  29
DOCKED: ATOM     29  O   UNL     1     141.957  74.221 218.263 +0.00 +0.11    -0.391 OA 
DOCKED: ATOM     30  H   UNL     1     141.717  73.523 218.926 +0.05 -0.05    +0.211 HD 
DOCKED: ENDBRANCH  21  29
DOCKED: ENDBRANCH  16  18
DOCKED: ENDBRANCH   1  16
DOCKED: TORSDOF 8
DOCKED: TER
DOCKED: ENDMDL
________________________________________________________________________________


    FINAL DOCKED STATE:
    ________________________


Run:   7 / 20
Time taken for this run:   0.052s

DOCKED: MODEL        7
DOCKED: USER    Run = 7
DOCKED: USER
DOCKED: USER    Estimated Free Energy of Binding    =  -7.70 kcal/mol  [=(1)+(2)+(3)-(4)]
DOCKED: USER
DOCKED: USER    (1) Final Intermolecular Energy     = -10.09 kcal/mol
DOCKED: USER        vdW + Hbond + desolv Energy     =  -9.96 kcal/mol
DOCKED: USER        Electrostatic Energy            =  -0.13 kcal/mol
DOCKED: USER        Moving Ligand-Fixed Receptor    = -10.09 kcal/mol
DOCKED: USER        Moving Ligand-Moving Receptor   =  +0.00 kcal/mol
DOCKED: USER    (2) Final Total Internal Energy     =  -1.59 kcal/mol
DOCKED: USER    (3) Torsional Free Energy           =  +2.39 kcal/mol
DOCKED: USER    (4) Unbound System's Energy         =  -1.59 kcal/mol
DOCKED: USER
DOCKED: USER
DOCKED: REMARK SMILES O=C([N-]CC(=O)N1C[C@H](O)C[C@H]1Cn1cccc1)c1ccc2cc(Cl)ccc2n1
DOCKED: REMARK SMILES IDX 4 1 3 2 2 3 1 4 19 5 20 6 29 7 21 8 28 9 22 10 27 11 23 12
DOCKED: REMARK SMILES IDX 26 13 24 14 25 15 5 16 6 17 7 18 8 19 12 20 9 21 11 22 13 23
DOCKED: REMARK SMILES IDX 14 24 15 25 18 26 16 27 17 28 10 29
DOCKED: REMARK H PARENT 10 30
DOCKED: USER                              x       y       z     vdW  Elec       q    Type
DOCKED: USER                           _______ _______ _______ _____ _____    ______ ____
DOCKED: ROOT
DOCKED: ATOM      1  C   UNL     1     140.402  72.620 219.600 -0.07 +0.00    -0.015 C  
DOCKED: ENDROOT
DOCKED: BRANCH   1   2
DOCKED: ATOM      2  N   UNL     1     139.431  72.442 220.673 +0.03 +0.12    -0.640 NA 
DOCKED: BRANCH   2   3
DOCKED: ATOM      3  C   UNL     1     139.672  72.793 222.041 -0.24 -0.02    +0.101 C  
DOCKED: ATOM      4  O   UNL     1     139.803  74.008 222.345 -0.81 +0.03    -0.313 OA 
DOCKED: BRANCH   3   5
DOCKED: ATOM      5  C   UNL     1     139.791  71.775 223.099 -0.31 -0.02    +0.088 A  
DOCKED: ATOM      6  C   UNL     1     139.340  70.464 222.891 -0.23 -0.01    +0.031 A  
DOCKED: ATOM      7  N   UNL     1     140.299  72.128 224.311 -0.13 +0.04    -0.246 NA 
DOCKED: ATOM      8  C   UNL     1     139.459  69.520 223.911 -0.27 -0.00    +0.013 A  
DOCKED: ATOM      9  C   UNL     1     140.423  71.233 225.328 -0.50 -0.01    +0.071 A  
DOCKED: ATOM     10  C   UNL     1     140.008  69.895 225.143 -0.43 -0.00    +0.002 A  
DOCKED: ATOM     11  C   UNL     1     140.963  71.632 226.555 -0.69 -0.00    +0.030 A  
DOCKED: ATOM     12  C   UNL     1     140.143  68.973 226.192 -0.51 -0.01    +0.030 A  
DOCKED: ATOM     13  C   UNL     1     141.095  70.707 227.596 -0.62 -0.00    +0.023 A  
DOCKED: ATOM     14  C   UNL     1     140.686  69.380 227.416 -0.58 -0.01    +0.041 A  
DOCKED: ATOM     15  Cl  UNL     1     140.856  68.226 228.727 -0.67 +0.02    -0.084 Cl 
DOCKED: ENDBRANCH   3   5
DOCKED: ENDBRANCH   2   3
DOCKED: ENDBRANCH   1   2
DOCKED: BRANCH   1  16
DOCKED: ATOM     16  C   UNL     1     141.703  71.990 219.994 -0.09 -0.03    +0.205 C  
DOCKED: ATOM     17  O   UNL     1     141.684  70.847 220.526 -0.08 +0.03    -0.277 OA 
DOCKED: BRANCH  16  18
DOCKED: ATOM     18  N   UNL     1     142.956  72.687 219.856 -0.06 +0.05    -0.337 N  
DOCKED: ATOM     19  C   UNL     1     144.132  72.016 219.322 -0.18 -0.00    +0.151 C  
DOCKED: ATOM     20  C   UNL     1     143.282  73.977 220.461 -0.29 -0.03    +0.107 C  
DOCKED: ATOM     21  C   UNL     1     145.304  72.961 219.581 -0.35 +0.02    +0.136 C  
DOCKED: ATOM     22  C   UNL     1     144.801  73.931 220.647 -0.48 -0.02    +0.060 C  
DOCKED: BRANCH  20  23
DOCKED: ATOM     23  C   UNL     1     142.890  75.138 219.519 -0.25 -0.06    +0.146 C  
DOCKED: BRANCH  23  24
DOCKED: ATOM     24  N   UNL     1     142.199  76.207 220.236 -0.13 +0.20    -0.352 N  
DOCKED: ATOM     25  C   UNL     1     142.230  77.518 219.927 -0.27 -0.06    +0.085 A  
DOCKED: ATOM     26  C   UNL     1     141.429  76.068 221.332 -0.24 -0.04    +0.085 A  
DOCKED: ATOM     27  C   UNL     1     141.476  78.227 220.840 -0.32 -0.01    +0.019 A  
DOCKED: ATOM     28  C   UNL     1     140.967  77.304 221.734 -0.37 -0.01    +0.019 A  
DOCKED: ENDBRANCH  23  24
DOCKED: ENDBRANCH  20  23
DOCKED: BRANCH  21  29
DOCKED: ATOM     29  O   UNL     1     146.435  72.267 220.038 -0.39 -0.27    -0.391 OA 
DOCKED: ATOM     30  H   UNL     1     146.189  71.881 220.918 -0.44 -0.04    +0.211 HD 
DOCKED: ENDBRANCH  21  29
DOCKED: ENDBRANCH  16  18
DOCKED: ENDBRANCH   1  16
DOCKED: TORSDOF 8
DOCKED: TER
DOCKED: ENDMDL
________________________________________________________________________________


    FINAL DOCKED STATE:
    ________________________


Run:   8 / 20
Time taken for this run:   0.052s

DOCKED: MODEL        8
DOCKED: USER    Run = 8
DOCKED: USER
DOCKED: USER    Estimated Free Energy of Binding    =  -7.49 kcal/mol  [=(1)+(2)+(3)-(4)]
DOCKED: USER
DOCKED: USER    (1) Final Intermolecular Energy     =  -9.88 kcal/mol
DOCKED: USER        vdW + Hbond + desolv Energy     =  -9.90 kcal/mol
DOCKED: USER        Electrostatic Energy            =  +0.02 kcal/mol
DOCKED: USER        Moving Ligand-Fixed Receptor    =  -9.88 kcal/mol
DOCKED: USER        Moving Ligand-Moving Receptor   =  +0.00 kcal/mol
DOCKED: USER    (2) Final Total Internal Energy     =  -1.03 kcal/mol
DOCKED: USER    (3) Torsional Free Energy           =  +2.39 kcal/mol
DOCKED: USER    (4) Unbound System's Energy         =  -1.03 kcal/mol
DOCKED: USER
DOCKED: USER
DOCKED: REMARK SMILES O=C([N-]CC(=O)N1C[C@H](O)C[C@H]1Cn1cccc1)c1ccc2cc(Cl)ccc2n1
DOCKED: REMARK SMILES IDX 4 1 3 2 2 3 1 4 19 5 20 6 29 7 21 8 28 9 22 10 27 11 23 12
DOCKED: REMARK SMILES IDX 26 13 24 14 25 15 5 16 6 17 7 18 8 19 12 20 9 21 11 22 13 23
DOCKED: REMARK SMILES IDX 14 24 15 25 18 26 16 27 17 28 10 29
DOCKED: REMARK H PARENT 10 30
DOCKED: USER                              x       y       z     vdW  Elec       q    Type
DOCKED: USER                           _______ _______ _______ _____ _____    ______ ____
DOCKED: ROOT
DOCKED: ATOM      1  C   UNL     1     139.623  75.368 221.926 -0.31 +0.00    -0.015 C  
DOCKED: ENDROOT
DOCKED: BRANCH   1   2
DOCKED: ATOM      2  N   UNL     1     140.433  74.164 222.057 -0.57 +0.01    -0.640 NA 
DOCKED: BRANCH   2   3
DOCKED: ATOM      3  C   UNL     1     139.929  72.833 221.886 -0.25 -0.02    +0.101 C  
DOCKED: ATOM      4  O   UNL     1     139.433  72.507 220.777 -0.05 +0.06    -0.313 OA 
DOCKED: BRANCH   3   5
DOCKED: ATOM      5  C   UNL     1     139.957  71.843 222.976 -0.31 -0.01    +0.088 A  
DOCKED: ATOM      6  C   UNL     1     139.441  70.552 222.790 -0.23 -0.01    +0.031 A  
DOCKED: ATOM      7  N   UNL     1     140.445  72.204 224.194 -0.13 +0.03    -0.246 NA 
DOCKED: ATOM      8  C   UNL     1     139.476  69.635 223.841 -0.28 -0.00    +0.013 A  
DOCKED: ATOM      9  C   UNL     1     140.487  71.334 225.240 -0.49 -0.01    +0.071 A  
DOCKED: ATOM     10  C   UNL     1     140.005  70.016 225.079 -0.43 -0.00    +0.002 A  
DOCKED: ATOM     11  C   UNL     1     141.009  71.741 226.472 -0.68 -0.00    +0.030 A  
DOCKED: ATOM     12  C   UNL     1     140.055  69.120 226.157 -0.50 -0.01    +0.030 A  
DOCKED: ATOM     13  C   UNL     1     141.056  70.842 227.543 -0.66 -0.00    +0.023 A  
DOCKED: ATOM     14  C   UNL     1     140.581  69.534 227.387 -0.57 -0.01    +0.041 A  
DOCKED: ATOM     15  Cl  UNL     1     140.644  68.414 228.735 -0.66 +0.02    -0.084 Cl 
DOCKED: ENDBRANCH   3   5
DOCKED: ENDBRANCH   2   3
DOCKED: ENDBRANCH   1   2
DOCKED: BRANCH   1  16
DOCKED: ATOM     16  C   UNL     1     140.393  76.410 221.173 -0.21 -0.06    +0.205 C  
DOCKED: ATOM     17  O   UNL     1     140.916  76.094 220.070 -0.09 +0.10    -0.277 OA 
DOCKED: BRANCH  16  18
DOCKED: ATOM     18  N   UNL     1     140.617  77.727 221.712 -0.13 +0.12    -0.337 N  
DOCKED: ATOM     19  C   UNL     1     141.803  78.491 221.354 -0.28 -0.09    +0.151 C  
DOCKED: ATOM     20  C   UNL     1     139.896  78.318 222.838 -0.29 -0.02    +0.107 C  
DOCKED: ATOM     21  C   UNL     1     141.833  79.683 222.309 -0.44 -0.05    +0.136 C  
DOCKED: ATOM     22  C   UNL     1     140.900  79.297 223.453 -0.50 -0.01    +0.060 C  
DOCKED: BRANCH  20  23
DOCKED: ATOM     23  C   UNL     1     138.640  79.072 222.347 -0.19 -0.03    +0.146 C  
DOCKED: BRANCH  23  24
DOCKED: ATOM     24  N   UNL     1     137.410  78.376 222.719 -0.09 +0.05    -0.352 N  
DOCKED: ATOM     25  C   UNL     1     137.224  77.042 222.721 -0.23 -0.02    +0.085 A  
DOCKED: ATOM     26  C   UNL     1     136.254  78.947 223.106 -0.15 -0.01    +0.085 A  
DOCKED: ATOM     27  C   UNL     1     135.930  76.755 223.108 -0.21 -0.00    +0.019 A  
DOCKED: ATOM     28  C   UNL     1     135.313  77.967 223.353 -0.15 -0.00    +0.019 A  
DOCKED: ENDBRANCH  23  24
DOCKED: ENDBRANCH  20  23
DOCKED: BRANCH  21  29
DOCKED: ATOM     29  O   UNL     1     143.128  79.928 222.789 -0.36 +0.16    -0.391 OA 
DOCKED: ATOM     30  H   UNL     1     143.729  79.309 222.298 -0.46 -0.17    +0.211 HD 
DOCKED: ENDBRANCH  21  29
DOCKED: ENDBRANCH  16  18
DOCKED: ENDBRANCH   1  16
DOCKED: TORSDOF 8
DOCKED: TER
DOCKED: ENDMDL
________________________________________________________________________________


    FINAL DOCKED STATE:
    ________________________


Run:   9 / 20
Time taken for this run:   0.052s

DOCKED: MODEL        9
DOCKED: USER    Run = 9
DOCKED: USER
DOCKED: USER    Estimated Free Energy of Binding    =  -6.87 kcal/mol  [=(1)+(2)+(3)-(4)]
DOCKED: USER
DOCKED: USER    (1) Final Intermolecular Energy     =  -9.26 kcal/mol
DOCKED: USER        vdW + Hbond + desolv Energy     =  -9.11 kcal/mol
DOCKED: USER        Electrostatic Energy            =  -0.15 kcal/mol
DOCKED: USER        Moving Ligand-Fixed Receptor    =  -9.26 kcal/mol
DOCKED: USER        Moving Ligand-Moving Receptor   =  +0.00 kcal/mol
DOCKED: USER    (2) Final Total Internal Energy     =  -1.63 kcal/mol
DOCKED: USER    (3) Torsional Free Energy           =  +2.39 kcal/mol
DOCKED: USER    (4) Unbound System's Energy         =  -1.63 kcal/mol
DOCKED: USER
DOCKED: USER
DOCKED: REMARK SMILES O=C([N-]CC(=O)N1C[C@H](O)C[C@H]1Cn1cccc1)c1ccc2cc(Cl)ccc2n1
DOCKED: REMARK SMILES IDX 4 1 3 2 2 3 1 4 19 5 20 6 29 7 21 8 28 9 22 10 27 11 23 12
DOCKED: REMARK SMILES IDX 26 13 24 14 25 15 5 16 6 17 7 18 8 19 12 20 9 21 11 22 13 23
DOCKED: REMARK SMILES IDX 14 24 15 25 18 26 16 27 17 28 10 29
DOCKED: REMARK H PARENT 10 30
DOCKED: USER                              x       y       z     vdW  Elec       q    Type
DOCKED: USER                           _______ _______ _______ _____ _____    ______ ____
DOCKED: ROOT
DOCKED: ATOM      1  C   UNL     1     140.690  73.103 219.311 -0.07 +0.00    -0.015 C  
DOCKED: ENDROOT
DOCKED: BRANCH   1   2
DOCKED: ATOM      2  N   UNL     1     141.101  72.592 220.613 +0.02 +0.10    -0.640 NA 
DOCKED: BRANCH   2   3
DOCKED: ATOM      3  C   UNL     1     140.447  72.914 221.846 -0.26 -0.01    +0.101 C  
DOCKED: ATOM      4  O   UNL     1     139.987  74.075 222.007 -0.80 +0.03    -0.313 OA 
DOCKED: BRANCH   3   5
DOCKED: ATOM      5  C   UNL     1     140.313  71.935 222.938 -0.32 -0.01    +0.088 A  
DOCKED: ATOM      6  C   UNL     1     139.697  70.693 222.721 -0.23 -0.01    +0.031 A  
DOCKED: ATOM      7  N   UNL     1     140.747  72.262 224.185 +0.03 +0.02    -0.246 NA 
DOCKED: ATOM      8  C   UNL     1     139.578  69.786 223.774 -0.28 -0.00    +0.013 A  
DOCKED: ATOM      9  C   UNL     1     140.640  71.401 225.234 -0.50 -0.01    +0.071 A  
DOCKED: ATOM     10  C   UNL     1     140.054  70.130 225.044 -0.44 -0.00    +0.002 A  
DOCKED: ATOM     11  C   UNL     1     141.111  71.771 226.498 -0.70 -0.00    +0.030 A  
DOCKED: ATOM     12  C   UNL     1     139.951  69.242 226.126 -0.48 -0.00    +0.030 A  
DOCKED: ATOM     13  C   UNL     1     141.005  70.880 227.572 -0.67 -0.00    +0.023 A  
DOCKED: ATOM     14  C   UNL     1     140.427  69.619 227.388 -0.57 -0.01    +0.041 A  
DOCKED: ATOM     15  Cl  UNL     1     140.299  68.509 228.740 -0.62 +0.02    -0.084 Cl 
DOCKED: ENDBRANCH   3   5
DOCKED: ENDBRANCH   2   3
DOCKED: ENDBRANCH   1   2
DOCKED: BRANCH   1  16
DOCKED: ATOM     16  C   UNL     1     141.897  73.286 218.442 -0.02 -0.04    +0.205 C  
DOCKED: ATOM     17  O   UNL     1     141.784  73.088 217.202 -0.00 +0.06    -0.277 OA 
DOCKED: BRANCH  16  18
DOCKED: ATOM     18  N   UNL     1     143.189  73.600 218.995 -0.04 +0.08    -0.337 N  
DOCKED: ATOM     19  C   UNL     1     144.380  72.877 218.574 -0.15 -0.00    +0.151 C  
DOCKED: ATOM     20  C   UNL     1     143.430  74.421 220.181 -0.32 -0.04    +0.107 C  
DOCKED: ATOM     21  C   UNL     1     145.482  73.284 219.551 -0.35 +0.01    +0.136 C  
DOCKED: ATOM     22  C   UNL     1     144.747  73.882 220.748 -0.47 -0.02    +0.060 C  
DOCKED: BRANCH  20  23
DOCKED: ATOM     23  C   UNL     1     143.579  75.909 219.795 -0.27 -0.10    +0.146 C  
DOCKED: BRANCH  23  24
DOCKED: ATOM     24  N   UNL     1     143.006  76.188 218.480 -0.13 +0.19    -0.352 N  
DOCKED: ATOM     25  C   UNL     1     143.650  76.102 217.300 -0.21 -0.05    +0.085 A  
DOCKED: ATOM     26  C   UNL     1     141.747  76.592 218.226 -0.13 -0.04    +0.085 A  
DOCKED: ATOM     27  C   UNL     1     142.794  76.461 216.278 -0.17 -0.01    +0.019 A  
DOCKED: ATOM     28  C   UNL     1     141.583  76.772 216.868 -0.09 -0.01    +0.019 A  
DOCKED: ENDBRANCH  23  24
DOCKED: ENDBRANCH  20  23
DOCKED: BRANCH  21  29
DOCKED: ATOM     29  O   UNL     1     146.254  72.181 219.946 -0.47 -0.25    -0.391 OA 
DOCKED: ATOM     30  H   UNL     1     145.931  71.922 220.848 -0.41 -0.04    +0.211 HD 
DOCKED: ENDBRANCH  21  29
DOCKED: ENDBRANCH  16  18
DOCKED: ENDBRANCH   1  16
DOCKED: TORSDOF 8
DOCKED: TER
DOCKED: ENDMDL
________________________________________________________________________________


    FINAL DOCKED STATE:
    ________________________


Run:   10 / 20
Time taken for this run:   0.052s

DOCKED: MODEL        10
DOCKED: USER    Run = 10
DOCKED: USER
DOCKED: USER    Estimated Free Energy of Binding    =  -6.39 kcal/mol  [=(1)+(2)+(3)-(4)]
DOCKED: USER
DOCKED: USER    (1) Final Intermolecular Energy     =  -8.78 kcal/mol
DOCKED: USER        vdW + Hbond + desolv Energy     =  -8.96 kcal/mol
DOCKED: USER        Electrostatic Energy            =  +0.18 kcal/mol
DOCKED: USER        Moving Ligand-Fixed Receptor    =  -8.78 kcal/mol
DOCKED: USER        Moving Ligand-Moving Receptor   =  +0.00 kcal/mol
DOCKED: USER    (2) Final Total Internal Energy     =  -2.22 kcal/mol
DOCKED: USER    (3) Torsional Free Energy           =  +2.39 kcal/mol
DOCKED: USER    (4) Unbound System's Energy         =  -2.22 kcal/mol
DOCKED: USER
DOCKED: USER
DOCKED: REMARK SMILES O=C([N-]CC(=O)N1C[C@H](O)C[C@H]1Cn1cccc1)c1ccc2cc(Cl)ccc2n1
DOCKED: REMARK SMILES IDX 4 1 3 2 2 3 1 4 19 5 20 6 29 7 21 8 28 9 22 10 27 11 23 12
DOCKED: REMARK SMILES IDX 26 13 24 14 25 15 5 16 6 17 7 18 8 19 12 20 9 21 11 22 13 23
DOCKED: REMARK SMILES IDX 14 24 15 25 18 26 16 27 17 28 10 29
DOCKED: REMARK H PARENT 10 30
DOCKED: USER                              x       y       z     vdW  Elec       q    Type
DOCKED: USER                           _______ _______ _______ _____ _____    ______ ____
DOCKED: ROOT
DOCKED: ATOM      1  C   UNL     1     138.474  74.841 221.981 -0.22 +0.00    -0.015 C  
DOCKED: ENDROOT
DOCKED: BRANCH   1   2
DOCKED: ATOM      2  N   UNL     1     138.906  73.624 221.305 -0.02 +0.14    -0.640 NA 
DOCKED: BRANCH   2   3
DOCKED: ATOM      3  C   UNL     1     140.054  72.857 221.687 -0.24 -0.01    +0.101 C  
DOCKED: ATOM      4  O   UNL     1     141.126  73.002 221.043 -0.15 +0.04    -0.313 OA 
DOCKED: BRANCH   3   5
DOCKED: ATOM      5  C   UNL     1     140.014  71.890 222.797 -0.30 -0.01    +0.088 A  
DOCKED: ATOM      6  C   UNL     1     139.389  70.644 222.645 -0.22 -0.01    +0.031 A  
DOCKED: ATOM      7  N   UNL     1     140.544  72.235 224.002 -0.16 +0.03    -0.246 NA 
DOCKED: ATOM      8  C   UNL     1     139.360  69.749 223.715 -0.27 -0.00    +0.013 A  
DOCKED: ATOM      9  C   UNL     1     140.527  71.387 225.066 -0.48 -0.01    +0.071 A  
DOCKED: ATOM     10  C   UNL     1     139.934  70.111 224.939 -0.42 -0.00    +0.002 A  
DOCKED: ATOM     11  C   UNL     1     141.096  71.774 226.283 -0.66 -0.00    +0.030 A  
DOCKED: ATOM     12  C   UNL     1     139.924  69.237 226.037 -0.47 -0.00    +0.030 A  
DOCKED: ATOM     13  C   UNL     1     141.082  70.897 227.373 -0.66 -0.00    +0.023 A  
DOCKED: ATOM     14  C   UNL     1     140.497  69.631 227.251 -0.56 -0.01    +0.041 A  
DOCKED: ATOM     15  Cl  UNL     1     140.484  68.537 228.623 -0.71 +0.02    -0.084 Cl 
DOCKED: ENDBRANCH   3   5
DOCKED: ENDBRANCH   2   3
DOCKED: ENDBRANCH   1   2
DOCKED: BRANCH   1  16
DOCKED: ATOM     16  C   UNL     1     138.920  76.035 221.193 -0.15 -0.05    +0.205 C  
DOCKED: ATOM     17  O   UNL     1     138.159  77.039 221.134 -0.06 +0.06    -0.277 OA 
DOCKED: BRANCH  16  18
DOCKED: ATOM     18  N   UNL     1     140.148  76.032 220.439 -0.05 +0.10    -0.337 N  
DOCKED: ATOM     19  C   UNL     1     140.255  75.303 219.184 -0.05 -0.04    +0.151 C  
DOCKED: ATOM     20  C   UNL     1     141.450  76.478 220.934 -0.24 -0.05    +0.107 C  
DOCKED: ATOM     21  C   UNL     1     141.742  75.301 218.830 -0.10 -0.05    +0.136 C  
DOCKED: ATOM     22  C   UNL     1     142.458  75.651 220.132 -0.28 -0.03    +0.060 C  
DOCKED: BRANCH  20  23
DOCKED: ATOM     23  C   UNL     1     141.651  77.985 220.664 -0.25 -0.08    +0.146 C  
DOCKED: BRANCH  23  24
DOCKED: ATOM     24  N   UNL     1     141.808  78.742 221.903 -0.19 +0.19    -0.352 N  
DOCKED: ATOM     25  C   UNL     1     141.455  78.328 223.136 -0.49 -0.03    +0.085 A  
DOCKED: ATOM     26  C   UNL     1     142.316  79.983 222.023 -0.44 -0.04    +0.085 A  
DOCKED: ATOM     27  C   UNL     1     141.735  79.318 224.055 -0.56 -0.00    +0.019 A  
DOCKED: ATOM     28  C   UNL     1     142.282  80.371 223.348 -0.63 -0.00    +0.019 A  
DOCKED: ENDBRANCH  23  24
DOCKED: ENDBRANCH  20  23
DOCKED: BRANCH  21  29
DOCKED: ATOM     29  O   UNL     1     142.158  74.048 218.358 -0.00 +0.10    -0.391 OA 
DOCKED: ATOM     30  H   UNL     1     141.882  73.386 219.043 +0.06 -0.05    +0.211 HD 
DOCKED: ENDBRANCH  21  29
DOCKED: ENDBRANCH  16  18
DOCKED: ENDBRANCH   1  16
DOCKED: TORSDOF 8
DOCKED: TER
DOCKED: ENDMDL
________________________________________________________________________________


    FINAL DOCKED STATE:
    ________________________


Run:   11 / 20
Time taken for this run:   0.052s

DOCKED: MODEL        11
DOCKED: USER    Run = 11
DOCKED: USER
DOCKED: USER    Estimated Free Energy of Binding    =  -7.55 kcal/mol  [=(1)+(2)+(3)-(4)]
DOCKED: USER
DOCKED: USER    (1) Final Intermolecular Energy     =  -9.93 kcal/mol
DOCKED: USER        vdW + Hbond + desolv Energy     = -10.06 kcal/mol
DOCKED: USER        Electrostatic Energy            =  +0.12 kcal/mol
DOCKED: USER        Moving Ligand-Fixed Receptor    =  -9.93 kcal/mol
DOCKED: USER        Moving Ligand-Moving Receptor   =  +0.00 kcal/mol
DOCKED: USER    (2) Final Total Internal Energy     =  -1.28 kcal/mol
DOCKED: USER    (3) Torsional Free Energy           =  +2.39 kcal/mol
DOCKED: USER    (4) Unbound System's Energy         =  -1.28 kcal/mol
DOCKED: USER
DOCKED: USER
DOCKED: REMARK SMILES O=C([N-]CC(=O)N1C[C@H](O)C[C@H]1Cn1cccc1)c1ccc2cc(Cl)ccc2n1
DOCKED: REMARK SMILES IDX 4 1 3 2 2 3 1 4 19 5 20 6 29 7 21 8 28 9 22 10 27 11 23 12
DOCKED: REMARK SMILES IDX 26 13 24 14 25 15 5 16 6 17 7 18 8 19 12 20 9 21 11 22 13 23
DOCKED: REMARK SMILES IDX 14 24 15 25 18 26 16 27 17 28 10 29
DOCKED: REMARK H PARENT 10 30
DOCKED: USER                              x       y       z     vdW  Elec       q    Type
DOCKED: USER                           _______ _______ _______ _____ _____    ______ ____
DOCKED: ROOT
DOCKED: ATOM      1  C   UNL     1     140.697  75.039 221.149 -0.30 +0.00    -0.015 C  
DOCKED: ENDROOT
DOCKED: BRANCH   1   2
DOCKED: ATOM      2  N   UNL     1     140.350  74.149 222.250 -0.55 -0.02    -0.640 NA 
DOCKED: BRANCH   2   3
DOCKED: ATOM      3  C   UNL     1     139.763  72.852 222.082 -0.24 -0.02    +0.101 C  
DOCKED: ATOM      4  O   UNL     1     139.148  72.596 221.014 -0.06 +0.06    -0.313 OA 
DOCKED: BRANCH   3   5
DOCKED: ATOM      5  C   UNL     1     139.842  71.818 223.127 -0.31 -0.02    +0.088 A  
DOCKED: ATOM      6  C   UNL     1     139.353  70.523 222.899 -0.24 -0.01    +0.031 A  
DOCKED: ATOM      7  N   UNL     1     140.348  72.141 224.349 -0.12 +0.04    -0.246 NA 
DOCKED: ATOM      8  C   UNL     1     139.436  69.564 223.909 -0.28 -0.00    +0.013 A  
DOCKED: ATOM      9  C   UNL     1     140.436  71.230 225.355 -0.50 -0.01    +0.071 A  
DOCKED: ATOM     10  C   UNL     1     139.984  69.907 225.150 -0.43 -0.00    +0.002 A  
DOCKED: ATOM     11  C   UNL     1     140.977  71.598 226.592 -0.69 -0.00    +0.030 A  
DOCKED: ATOM     12  C   UNL     1     140.082  68.969 226.188 -0.51 -0.01    +0.030 A  
DOCKED: ATOM     13  C   UNL     1     141.072  70.657 227.622 -0.63 -0.00    +0.023 A  
DOCKED: ATOM     14  C   UNL     1     140.626  69.345 227.422 -0.58 -0.01    +0.041 A  
DOCKED: ATOM     15  Cl  UNL     1     140.750  68.171 228.720 -0.64 +0.02    -0.084 Cl 
DOCKED: ENDBRANCH   3   5
DOCKED: ENDBRANCH   2   3
DOCKED: ENDBRANCH   1   2
DOCKED: BRANCH   1  16
DOCKED: ATOM     16  C   UNL     1     140.478  76.461 221.568 -0.26 -0.06    +0.205 C  
DOCKED: ATOM     17  O   UNL     1     141.444  77.268 221.492 -0.23 +0.15    -0.277 OA 
DOCKED: BRANCH  16  18
DOCKED: ATOM     18  N   UNL     1     139.227  76.904 222.127 -0.15 +0.07    -0.337 N  
DOCKED: ATOM     19  C   UNL     1     138.172  75.954 222.449 -0.22 -0.04    +0.151 C  
DOCKED: ATOM     20  C   UNL     1     138.757  78.288 222.170 -0.21 -0.02    +0.107 C  
DOCKED: ATOM     21  C   UNL     1     136.932  76.795 222.748 -0.20 -0.03    +0.136 C  
DOCKED: ATOM     22  C   UNL     1     137.231  78.167 222.150 -0.16 -0.01    +0.060 C  
DOCKED: BRANCH  20  23
DOCKED: ATOM     23  C   UNL     1     139.226  78.984 223.467 -0.26 -0.02    +0.146 C  
DOCKED: BRANCH  23  24
DOCKED: ATOM     24  N   UNL     1     140.557  79.567 223.318 -0.19 +0.07    -0.352 N  
DOCKED: ATOM     25  C   UNL     1     140.870  80.654 222.585 -0.37 -0.02    +0.085 A  
DOCKED: ATOM     26  C   UNL     1     141.697  79.112 223.873 -0.55 -0.02    +0.085 A  
DOCKED: ATOM     27  C   UNL     1     142.227  80.893 222.666 -0.56 -0.00    +0.019 A  
DOCKED: ATOM     28  C   UNL     1     142.752  79.913 223.486 -0.60 -0.01    +0.019 A  
DOCKED: ENDBRANCH  23  24
DOCKED: ENDBRANCH  20  23
DOCKED: BRANCH  21  29
DOCKED: ATOM     29  O   UNL     1     135.781  76.242 222.167 -0.04 +0.07    -0.391 OA 
DOCKED: ATOM     30  H   UNL     1     136.082  75.453 221.647 +0.04 -0.04    +0.211 HD 
DOCKED: ENDBRANCH  21  29
DOCKED: ENDBRANCH  16  18
DOCKED: ENDBRANCH   1  16
DOCKED: TORSDOF 8
DOCKED: TER
DOCKED: ENDMDL
________________________________________________________________________________


    FINAL DOCKED STATE:
    ________________________


Run:   12 / 20
Time taken for this run:   0.052s

DOCKED: MODEL        12
DOCKED: USER    Run = 12
DOCKED: USER
DOCKED: USER    Estimated Free Energy of Binding    =  -7.23 kcal/mol  [=(1)+(2)+(3)-(4)]
DOCKED: USER
DOCKED: USER    (1) Final Intermolecular Energy     =  -9.61 kcal/mol
DOCKED: USER        vdW + Hbond + desolv Energy     =  -9.76 kcal/mol
DOCKED: USER        Electrostatic Energy            =  +0.15 kcal/mol
DOCKED: USER        Moving Ligand-Fixed Receptor    =  -9.61 kcal/mol
DOCKED: USER        Moving Ligand-Moving Receptor   =  +0.00 kcal/mol
DOCKED: USER    (2) Final Total Internal Energy     =  -1.50 kcal/mol
DOCKED: USER    (3) Torsional Free Energy           =  +2.39 kcal/mol
DOCKED: USER    (4) Unbound System's Energy         =  -1.50 kcal/mol
DOCKED: USER
DOCKED: USER
DOCKED: REMARK SMILES O=C([N-]CC(=O)N1C[C@H](O)C[C@H]1Cn1cccc1)c1ccc2cc(Cl)ccc2n1
DOCKED: REMARK SMILES IDX 4 1 3 2 2 3 1 4 19 5 20 6 29 7 21 8 28 9 22 10 27 11 23 12
DOCKED: REMARK SMILES IDX 26 13 24 14 25 15 5 16 6 17 7 18 8 19 12 20 9 21 11 22 13 23
DOCKED: REMARK SMILES IDX 14 24 15 25 18 26 16 27 17 28 10 29
DOCKED: REMARK H PARENT 10 30
DOCKED: USER                              x       y       z     vdW  Elec       q    Type
DOCKED: USER                           _______ _______ _______ _____ _____    ______ ____
DOCKED: ROOT
DOCKED: ATOM      1  C   UNL     1     139.998  75.384 221.455 -0.30 +0.00    -0.015 C  
DOCKED: ENDROOT
DOCKED: BRANCH   1   2
DOCKED: ATOM      2  N   UNL     1     140.654  74.187 221.967 -0.55 +0.02    -0.640 NA 
DOCKED: BRANCH   2   3
DOCKED: ATOM      3  C   UNL     1     140.154  72.856 221.786 -0.25 -0.01    +0.101 C  
DOCKED: ATOM      4  O   UNL     1     139.716  72.518 220.656 -0.05 +0.06    -0.313 OA 
DOCKED: BRANCH   3   5
DOCKED: ATOM      5  C   UNL     1     140.121  71.879 222.888 -0.31 -0.01    +0.088 A  
DOCKED: ATOM      6  C   UNL     1     139.558  70.607 222.706 -0.23 -0.01    +0.031 A  
DOCKED: ATOM      7  N   UNL     1     140.598  72.236 224.112 -0.11 +0.03    -0.246 NA 
DOCKED: ATOM      8  C   UNL     1     139.535  69.702 223.768 -0.27 -0.00    +0.013 A  
DOCKED: ATOM      9  C   UNL     1     140.584  71.378 225.168 -0.49 -0.01    +0.071 A  
DOCKED: ATOM     10  C   UNL     1     140.053  70.078 225.012 -0.43 -0.00    +0.002 A  
DOCKED: ATOM     11  C   UNL     1     141.096  71.779 226.406 -0.68 -0.00    +0.030 A  
DOCKED: ATOM     12  C   UNL     1     140.046  69.195 226.102 -0.49 -0.01    +0.030 A  
DOCKED: ATOM     13  C   UNL     1     141.086  70.892 227.488 -0.65 -0.00    +0.023 A  
DOCKED: ATOM     14  C   UNL     1     140.562  69.603 227.338 -0.56 -0.01    +0.041 A  
DOCKED: ATOM     15  Cl  UNL     1     140.554  68.497 228.700 -0.70 +0.02    -0.084 Cl 
DOCKED: ENDBRANCH   3   5
DOCKED: ENDBRANCH   2   3
DOCKED: ENDBRANCH   1   2
DOCKED: BRANCH   1  16
DOCKED: ATOM     16  C   UNL     1     140.940  76.545 221.539 -0.25 -0.08    +0.205 C  
DOCKED: ATOM     17  O   UNL     1     141.090  77.122 222.650 -0.33 +0.11    -0.277 OA 
DOCKED: BRANCH  16  18
DOCKED: ATOM     18  N   UNL     1     141.610  77.066 220.374 -0.12 +0.18    -0.337 N  
DOCKED: ATOM     19  C   UNL     1     141.438  78.452 219.968 -0.21 -0.08    +0.151 C  
DOCKED: ATOM     20  C   UNL     1     142.269  76.264 219.344 -0.25 -0.05    +0.107 C  
DOCKED: ATOM     21  C   UNL     1     142.058  78.558 218.575 -0.24 -0.09    +0.136 C  
DOCKED: ATOM     22  C   UNL     1     142.160  77.119 218.078 -0.22 -0.03    +0.060 C  
DOCKED: BRANCH  20  23
DOCKED: ATOM     23  C   UNL     1     143.751  76.022 219.704 -0.27 -0.10    +0.146 C  
DOCKED: BRANCH  23  24
DOCKED: ATOM     24  N   UNL     1     143.995  74.635 220.093 -0.21 +0.15    -0.352 N  
DOCKED: ATOM     25  C   UNL     1     143.081  73.645 220.116 -0.25 -0.02    +0.085 A  
DOCKED: ATOM     26  C   UNL     1     145.165  74.115 220.509 -0.51 -0.02    +0.085 A  
DOCKED: ATOM     27  C   UNL     1     143.672  72.479 220.557 -0.32 -0.00    +0.019 A  
DOCKED: ATOM     28  C   UNL     1     144.998  72.778 220.807 -0.49 -0.00    +0.019 A  
DOCKED: ENDBRANCH  23  24
DOCKED: ENDBRANCH  20  23
DOCKED: BRANCH  21  29
DOCKED: ATOM     29  O   UNL     1     141.262  79.325 217.712 -0.06 +0.23    -0.391 OA 
DOCKED: ATOM     30  H   UNL     1     140.321  79.155 217.976 +0.04 -0.09    +0.211 HD 
DOCKED: ENDBRANCH  21  29
DOCKED: ENDBRANCH  16  18
DOCKED: ENDBRANCH   1  16
DOCKED: TORSDOF 8
DOCKED: TER
DOCKED: ENDMDL
________________________________________________________________________________


    FINAL DOCKED STATE:
    ________________________


Run:   13 / 20
Time taken for this run:   0.052s

DOCKED: MODEL        13
DOCKED: USER    Run = 13
DOCKED: USER
DOCKED: USER    Estimated Free Energy of Binding    =  -6.44 kcal/mol  [=(1)+(2)+(3)-(4)]
DOCKED: USER
DOCKED: USER    (1) Final Intermolecular Energy     =  -8.83 kcal/mol
DOCKED: USER        vdW + Hbond + desolv Energy     =  -9.08 kcal/mol
DOCKED: USER        Electrostatic Energy            =  +0.25 kcal/mol
DOCKED: USER        Moving Ligand-Fixed Receptor    =  -8.83 kcal/mol
DOCKED: USER        Moving Ligand-Moving Receptor   =  +0.00 kcal/mol
DOCKED: USER    (2) Final Total Internal Energy     =  -2.44 kcal/mol
DOCKED: USER    (3) Torsional Free Energy           =  +2.39 kcal/mol
DOCKED: USER    (4) Unbound System's Energy         =  -2.44 kcal/mol
DOCKED: USER
DOCKED: USER
DOCKED: REMARK SMILES O=C([N-]CC(=O)N1C[C@H](O)C[C@H]1Cn1cccc1)c1ccc2cc(Cl)ccc2n1
DOCKED: REMARK SMILES IDX 4 1 3 2 2 3 1 4 19 5 20 6 29 7 21 8 28 9 22 10 27 11 23 12
DOCKED: REMARK SMILES IDX 26 13 24 14 25 15 5 16 6 17 7 18 8 19 12 20 9 21 11 22 13 23
DOCKED: REMARK SMILES IDX 14 24 15 25 18 26 16 27 17 28 10 29
DOCKED: REMARK H PARENT 10 30
DOCKED: USER                              x       y       z     vdW  Elec       q    Type
DOCKED: USER                           _______ _______ _______ _____ _____    ______ ____
DOCKED: ROOT
DOCKED: ATOM      1  C   UNL     1     141.734  74.157 221.225 -0.21 +0.00    -0.015 C  
DOCKED: ENDROOT
DOCKED: BRANCH   1   2
DOCKED: ATOM      2  N   UNL     1     140.652  73.273 220.808 +0.00 +0.11    -0.640 NA 
DOCKED: BRANCH   2   3
DOCKED: ATOM      3  C   UNL     1     139.541  72.916 221.639 -0.21 -0.02    +0.101 C  
DOCKED: ATOM      4  O   UNL     1     138.436  73.491 221.460 -0.10 +0.08    -0.313 OA 
DOCKED: BRANCH   3   5
DOCKED: ATOM      5  C   UNL     1     139.658  71.911 222.709 -0.28 -0.02    +0.088 A  
DOCKED: ATOM      6  C   UNL     1     139.133  70.620 222.546 -0.20 -0.01    +0.031 A  
DOCKED: ATOM      7  N   UNL     1     140.237  72.258 223.890 -0.22 +0.04    -0.246 NA 
DOCKED: ATOM      8  C   UNL     1     139.253  69.689 223.578 -0.26 -0.00    +0.013 A  
DOCKED: ATOM      9  C   UNL     1     140.364  71.374 224.917 -0.46 -0.01    +0.071 A  
DOCKED: ATOM     10  C   UNL     1     139.876  70.055 224.776 -0.40 -0.00    +0.002 A  
DOCKED: ATOM     11  C   UNL     1     140.980  71.765 226.111 -0.61 -0.00    +0.030 A  
DOCKED: ATOM     12  C   UNL     1     140.014  69.145 225.835 -0.47 -0.01    +0.030 A  
DOCKED: ATOM     13  C   UNL     1     141.113  70.852 227.162 -0.62 -0.00    +0.023 A  
DOCKED: ATOM     14  C   UNL     1     140.632  69.545 227.025 -0.55 -0.01    +0.041 A  
DOCKED: ATOM     15  Cl  UNL     1     140.805  68.406 228.348 -0.78 +0.02    -0.084 Cl 
DOCKED: ENDBRANCH   3   5
DOCKED: ENDBRANCH   2   3
DOCKED: ENDBRANCH   1   2
DOCKED: BRANCH   1  16
DOCKED: ATOM     16  C   UNL     1     141.398  75.568 220.848 -0.22 -0.07    +0.205 C  
DOCKED: ATOM     17  O   UNL     1     142.234  76.228 220.173 -0.20 +0.15    -0.277 OA 
DOCKED: BRANCH  16  18
DOCKED: ATOM     18  N   UNL     1     140.192  76.210 221.304 -0.13 +0.09    -0.337 N  
DOCKED: ATOM     19  C   UNL     1     139.584  75.846 222.575 -0.06 -0.02    +0.151 C  
DOCKED: ATOM     20  C   UNL     1     139.309  77.040 220.486 -0.10 -0.03    +0.107 C  
DOCKED: ATOM     21  C   UNL     1     138.211  76.516 222.587 -0.24 -0.03    +0.136 C  
DOCKED: ATOM     22  C   UNL     1     137.930  76.867 221.129 -0.12 -0.01    +0.060 C  
DOCKED: BRANCH  20  23
DOCKED: ATOM     23  C   UNL     1     139.746  78.521 220.539 -0.10 -0.04    +0.146 C  
DOCKED: BRANCH  23  24
DOCKED: ATOM     24  N   UNL     1     140.510  78.817 221.748 -0.09 +0.11    -0.352 N  
DOCKED: ATOM     25  C   UNL     1     139.997  79.161 222.946 -0.35 -0.02    +0.085 A  
DOCKED: ATOM     26  C   UNL     1     141.851  78.812 221.869 -0.39 -0.05    +0.085 A  
DOCKED: ATOM     27  C   UNL     1     141.023  79.385 223.842 -0.55 -0.00    +0.019 A  
DOCKED: ATOM     28  C   UNL     1     142.202  79.162 223.157 -0.59 -0.01    +0.019 A  
DOCKED: ENDBRANCH  23  24
DOCKED: ENDBRANCH  20  23
DOCKED: BRANCH  21  29
DOCKED: ATOM     29  O   UNL     1     137.222  75.657 223.088 -0.16 +0.12    -0.391 OA 
DOCKED: ATOM     30  H   UNL     1     137.597  74.740 223.039 -0.41 -0.11    +0.211 HD 
DOCKED: ENDBRANCH  21  29
DOCKED: ENDBRANCH  16  18
DOCKED: ENDBRANCH   1  16
DOCKED: TORSDOF 8
DOCKED: TER
DOCKED: ENDMDL
________________________________________________________________________________


    FINAL DOCKED STATE:
    ________________________


Run:   14 / 20
Time taken for this run:   0.052s

DOCKED: MODEL        14
DOCKED: USER    Run = 14
DOCKED: USER
DOCKED: USER    Estimated Free Energy of Binding    =  -7.76 kcal/mol  [=(1)+(2)+(3)-(4)]
DOCKED: USER
DOCKED: USER    (1) Final Intermolecular Energy     = -10.15 kcal/mol
DOCKED: USER        vdW + Hbond + desolv Energy     = -10.08 kcal/mol
DOCKED: USER        Electrostatic Energy            =  -0.07 kcal/mol
DOCKED: USER        Moving Ligand-Fixed Receptor    = -10.15 kcal/mol
DOCKED: USER        Moving Ligand-Moving Receptor   =  +0.00 kcal/mol
DOCKED: USER    (2) Final Total Internal Energy     =  -1.55 kcal/mol
DOCKED: USER    (3) Torsional Free Energy           =  +2.39 kcal/mol
DOCKED: USER    (4) Unbound System's Energy         =  -1.55 kcal/mol
DOCKED: USER
DOCKED: USER
DOCKED: REMARK SMILES O=C([N-]CC(=O)N1C[C@H](O)C[C@H]1Cn1cccc1)c1ccc2cc(Cl)ccc2n1
DOCKED: REMARK SMILES IDX 4 1 3 2 2 3 1 4 19 5 20 6 29 7 21 8 28 9 22 10 27 11 23 12
DOCKED: REMARK SMILES IDX 26 13 24 14 25 15 5 16 6 17 7 18 8 19 12 20 9 21 11 22 13 23
DOCKED: REMARK SMILES IDX 14 24 15 25 18 26 16 27 17 28 10 29
DOCKED: REMARK H PARENT 10 30
DOCKED: USER                              x       y       z     vdW  Elec       q    Type
DOCKED: USER                           _______ _______ _______ _____ _____    ______ ____
DOCKED: ROOT
DOCKED: ATOM      1  C   UNL     1     140.218  72.203 219.585 -0.06 +0.00    -0.015 C  
DOCKED: ENDROOT
DOCKED: BRANCH   1   2
DOCKED: ATOM      2  N   UNL     1     139.313  72.262 220.726 +0.03 +0.12    -0.640 NA 
DOCKED: BRANCH   2   3
DOCKED: ATOM      3  C   UNL     1     139.716  72.615 222.055 -0.24 -0.02    +0.101 C  
DOCKED: ATOM      4  O   UNL     1     139.998  73.815 222.308 -0.82 +0.02    -0.313 OA 
DOCKED: BRANCH   3   5
DOCKED: ATOM      5  C   UNL     1     139.829  71.614 223.129 -0.31 -0.02    +0.088 A  
DOCKED: ATOM      6  C   UNL     1     139.380  70.299 222.938 -0.23 -0.01    +0.031 A  
DOCKED: ATOM      7  N   UNL     1     140.328  71.986 224.339 -0.22 +0.04    -0.246 NA 
DOCKED: ATOM      8  C   UNL     1     139.493  69.371 223.974 -0.27 -0.00    +0.013 A  
DOCKED: ATOM      9  C   UNL     1     140.446  71.106 225.371 -0.51 -0.01    +0.071 A  
DOCKED: ATOM     10  C   UNL     1     140.033  69.765 225.203 -0.43 -0.00    +0.002 A  
DOCKED: ATOM     11  C   UNL     1     140.977  71.525 226.595 -0.69 -0.00    +0.030 A  
DOCKED: ATOM     12  C   UNL     1     140.162  68.859 226.267 -0.53 -0.01    +0.030 A  
DOCKED: ATOM     13  C   UNL     1     141.103  70.616 227.651 -0.61 -0.00    +0.023 A  
DOCKED: ATOM     14  C   UNL     1     140.697  69.286 227.489 -0.58 -0.01    +0.041 A  
DOCKED: ATOM     15  Cl  UNL     1     140.858  68.153 228.818 -0.59 +0.02    -0.084 Cl 
DOCKED: ENDBRANCH   3   5
DOCKED: ENDBRANCH   2   3
DOCKED: ENDBRANCH   1   2
DOCKED: BRANCH   1  16
DOCKED: ATOM     16  C   UNL     1     141.624  72.023 220.072 -0.10 -0.03    +0.205 C  
DOCKED: ATOM     17  O   UNL     1     141.879  71.053 220.836 -0.08 +0.03    -0.277 OA 
DOCKED: BRANCH  16  18
DOCKED: ATOM     18  N   UNL     1     142.663  72.969 219.757 -0.05 +0.06    -0.337 N  
DOCKED: ATOM     19  C   UNL     1     143.801  72.587 218.934 -0.13 -0.01    +0.151 C  
DOCKED: ATOM     20  C   UNL     1     142.863  74.262 220.411 -0.27 -0.03    +0.107 C  
DOCKED: ATOM     21  C   UNL     1     144.802  73.736 219.047 -0.19 -0.02    +0.136 C  
DOCKED: ATOM     22  C   UNL     1     144.367  74.518 220.284 -0.41 -0.02    +0.060 C  
DOCKED: BRANCH  20  23
DOCKED: ATOM     23  C   UNL     1     142.065  75.370 219.688 -0.20 -0.06    +0.146 C  
DOCKED: BRANCH  23  24
DOCKED: ATOM     24  N   UNL     1     141.762  76.488 220.578 -0.11 +0.19    -0.352 N  
DOCKED: ATOM     25  C   UNL     1     142.148  77.767 220.405 -0.23 -0.06    +0.085 A  
DOCKED: ATOM     26  C   UNL     1     141.061  76.428 221.726 -0.32 -0.03    +0.085 A  
DOCKED: ATOM     27  C   UNL     1     141.695  78.534 221.458 -0.37 -0.01    +0.019 A  
DOCKED: ATOM     28  C   UNL     1     141.003  77.683 222.299 -0.43 -0.01    +0.019 A  
DOCKED: ENDBRANCH  23  24
DOCKED: ENDBRANCH  20  23
DOCKED: BRANCH  21  29
DOCKED: ATOM     29  O   UNL     1     146.115  73.264 219.197 -0.67 -0.21    -0.391 OA 
DOCKED: ATOM     30  H   UNL     1     146.709  74.051 219.084 -0.46 +0.03    +0.211 HD 
DOCKED: ENDBRANCH  21  29
DOCKED: ENDBRANCH  16  18
DOCKED: ENDBRANCH   1  16
DOCKED: TORSDOF 8
DOCKED: TER
DOCKED: ENDMDL
________________________________________________________________________________


    FINAL DOCKED STATE:
    ________________________


Run:   15 / 20
Time taken for this run:   0.052s

DOCKED: MODEL        15
DOCKED: USER    Run = 15
DOCKED: USER
DOCKED: USER    Estimated Free Energy of Binding    =  -7.72 kcal/mol  [=(1)+(2)+(3)-(4)]
DOCKED: USER
DOCKED: USER    (1) Final Intermolecular Energy     = -10.10 kcal/mol
DOCKED: USER        vdW + Hbond + desolv Energy     = -10.08 kcal/mol
DOCKED: USER        Electrostatic Energy            =  -0.02 kcal/mol
DOCKED: USER        Moving Ligand-Fixed Receptor    = -10.10 kcal/mol
DOCKED: USER        Moving Ligand-Moving Receptor   =  +0.00 kcal/mol
DOCKED: USER    (2) Final Total Internal Energy     =  -1.41 kcal/mol
DOCKED: USER    (3) Torsional Free Energy           =  +2.39 kcal/mol
DOCKED: USER    (4) Unbound System's Energy         =  -1.41 kcal/mol
DOCKED: USER
DOCKED: USER
DOCKED: REMARK SMILES O=C([N-]CC(=O)N1C[C@H](O)C[C@H]1Cn1cccc1)c1ccc2cc(Cl)ccc2n1
DOCKED: REMARK SMILES IDX 4 1 3 2 2 3 1 4 19 5 20 6 29 7 21 8 28 9 22 10 27 11 23 12
DOCKED: REMARK SMILES IDX 26 13 24 14 25 15 5 16 6 17 7 18 8 19 12 20 9 21 11 22 13 23
DOCKED: REMARK SMILES IDX 14 24 15 25 18 26 16 27 17 28 10 29
DOCKED: REMARK H PARENT 10 30
DOCKED: USER                              x       y       z     vdW  Elec       q    Type
DOCKED: USER                           _______ _______ _______ _____ _____    ______ ____
DOCKED: ROOT
DOCKED: ATOM      1  C   UNL     1     140.034  75.308 221.032 -0.25 +0.00    -0.015 C  
DOCKED: ENDROOT
DOCKED: BRANCH   1   2
DOCKED: ATOM      2  N   UNL     1     140.359  74.254 221.985 -0.59 +0.03    -0.640 NA 
DOCKED: BRANCH   2   3
DOCKED: ATOM      3  C   UNL     1     140.092  72.863 221.766 -0.25 -0.01    +0.101 C  
DOCKED: ATOM      4  O   UNL     1     139.839  72.467 220.599 -0.05 +0.06    -0.313 OA 
DOCKED: BRANCH   3   5
DOCKED: ATOM      5  C   UNL     1     140.088  71.887 222.868 -0.31 -0.01    +0.088 A  
DOCKED: ATOM      6  C   UNL     1     139.564  70.598 222.688 -0.23 -0.01    +0.031 A  
DOCKED: ATOM      7  N   UNL     1     140.550  72.260 224.093 -0.11 +0.03    -0.246 NA 
DOCKED: ATOM      8  C   UNL     1     139.568  69.694 223.751 -0.27 -0.00    +0.013 A  
DOCKED: ATOM      9  C   UNL     1     140.561  71.404 225.150 -0.49 -0.01    +0.071 A  
DOCKED: ATOM     10  C   UNL     1     140.072  70.088 224.996 -0.43 -0.00    +0.002 A  
DOCKED: ATOM     11  C   UNL     1     141.059  71.823 226.389 -0.68 -0.00    +0.030 A  
DOCKED: ATOM     12  C   UNL     1     140.090  69.206 226.087 -0.49 -0.01    +0.030 A  
DOCKED: ATOM     13  C   UNL     1     141.074  70.937 227.472 -0.67 -0.00    +0.023 A  
DOCKED: ATOM     14  C   UNL     1     140.591  69.632 227.323 -0.56 -0.01    +0.041 A  
DOCKED: ATOM     15  Cl  UNL     1     140.615  68.529 228.686 -0.71 +0.02    -0.084 Cl 
DOCKED: ENDBRANCH   3   5
DOCKED: ENDBRANCH   2   3
DOCKED: ENDBRANCH   1   2
DOCKED: BRANCH   1  16
DOCKED: ATOM     16  C   UNL     1     140.963  76.467 221.233 -0.24 -0.08    +0.205 C  
DOCKED: ATOM     17  O   UNL     1     140.874  77.135 222.298 -0.30 +0.10    -0.277 OA 
DOCKED: BRANCH  16  18
DOCKED: ATOM     18  N   UNL     1     141.890  76.882 220.212 -0.13 +0.19    -0.337 N  
DOCKED: ATOM     19  C   UNL     1     141.885  78.246 219.705 -0.21 -0.09    +0.151 C  
DOCKED: ATOM     20  C   UNL     1     142.706  75.989 219.390 -0.29 -0.06    +0.107 C  
DOCKED: ATOM     21  C   UNL     1     142.790  78.236 218.473 -0.16 -0.11    +0.136 C  
DOCKED: ATOM     22  C   UNL     1     142.913  76.765 218.086 -0.28 -0.04    +0.060 C  
DOCKED: BRANCH  20  23
DOCKED: ATOM     23  C   UNL     1     144.063  75.707 220.071 -0.09 -0.10    +0.146 C  
DOCKED: BRANCH  23  24
DOCKED: ATOM     24  N   UNL     1     144.281  74.277 220.274 -0.22 +0.12    -0.352 N  
DOCKED: ATOM     25  C   UNL     1     145.471  73.645 220.262 -0.51 -0.01    +0.085 A  
DOCKED: ATOM     26  C   UNL     1     143.332  73.346 220.490 -0.29 -0.02    +0.085 A  
DOCKED: ATOM     27  C   UNL     1     145.281  72.294 220.467 -0.38 -0.00    +0.019 A  
DOCKED: ATOM     28  C   UNL     1     143.920  72.104 220.613 -0.33 -0.00    +0.019 A  
DOCKED: ENDBRANCH  23  24
DOCKED: ENDBRANCH  20  23
DOCKED: BRANCH  21  29
DOCKED: ATOM     29  O   UNL     1     142.236  78.980 217.420 -0.15 +0.35    -0.391 OA 
DOCKED: ATOM     30  H   UNL     1     143.001  79.367 216.920 -0.43 -0.34    +0.211 HD 
DOCKED: ENDBRANCH  21  29
DOCKED: ENDBRANCH  16  18
DOCKED: ENDBRANCH   1  16
DOCKED: TORSDOF 8
DOCKED: TER
DOCKED: ENDMDL
________________________________________________________________________________


    FINAL DOCKED STATE:
    ________________________


Run:   16 / 20
Time taken for this run:   0.052s

DOCKED: MODEL        16
DOCKED: USER    Run = 16
DOCKED: USER
DOCKED: USER    Estimated Free Energy of Binding    =  -7.06 kcal/mol  [=(1)+(2)+(3)-(4)]
DOCKED: USER
DOCKED: USER    (1) Final Intermolecular Energy     =  -9.44 kcal/mol
DOCKED: USER        vdW + Hbond + desolv Energy     =  -9.37 kcal/mol
DOCKED: USER        Electrostatic Energy            =  -0.08 kcal/mol
DOCKED: USER        Moving Ligand-Fixed Receptor    =  -9.44 kcal/mol
DOCKED: USER        Moving Ligand-Moving Receptor   =  +0.00 kcal/mol
DOCKED: USER    (2) Final Total Internal Energy     =  -1.60 kcal/mol
DOCKED: USER    (3) Torsional Free Energy           =  +2.39 kcal/mol
DOCKED: USER    (4) Unbound System's Energy         =  -1.60 kcal/mol
DOCKED: USER
DOCKED: USER
DOCKED: REMARK SMILES O=C([N-]CC(=O)N1C[C@H](O)C[C@H]1Cn1cccc1)c1ccc2cc(Cl)ccc2n1
DOCKED: REMARK SMILES IDX 4 1 3 2 2 3 1 4 19 5 20 6 29 7 21 8 28 9 22 10 27 11 23 12
DOCKED: REMARK SMILES IDX 26 13 24 14 25 15 5 16 6 17 7 18 8 19 12 20 9 21 11 22 13 23
DOCKED: REMARK SMILES IDX 14 24 15 25 18 26 16 27 17 28 10 29
DOCKED: REMARK H PARENT 10 30
DOCKED: USER                              x       y       z     vdW  Elec       q    Type
DOCKED: USER                           _______ _______ _______ _____ _____    ______ ____
DOCKED: ROOT
DOCKED: ATOM      1  C   UNL     1     140.545  72.992 219.250 -0.06 +0.00    -0.015 C  
DOCKED: ENDROOT
DOCKED: BRANCH   1   2
DOCKED: ATOM      2  N   UNL     1     141.057  72.569 220.548 +0.02 +0.10    -0.640 NA 
DOCKED: BRANCH   2   3
DOCKED: ATOM      3  C   UNL     1     140.447  72.905 221.801 -0.26 -0.01    +0.101 C  
DOCKED: ATOM      4  O   UNL     1     140.035  74.080 221.982 -0.80 +0.03    -0.313 OA 
DOCKED: BRANCH   3   5
DOCKED: ATOM      5  C   UNL     1     140.306  71.922 222.888 -0.31 -0.01    +0.088 A  
DOCKED: ATOM      6  C   UNL     1     139.705  70.676 222.660 -0.23 -0.01    +0.031 A  
DOCKED: ATOM      7  N   UNL     1     140.720  72.251 224.142 -0.04 +0.02    -0.246 NA 
DOCKED: ATOM      8  C   UNL     1     139.579  69.765 223.709 -0.27 -0.00    +0.013 A  
DOCKED: ATOM      9  C   UNL     1     140.606  71.387 225.188 -0.50 -0.01    +0.071 A  
DOCKED: ATOM     10  C   UNL     1     140.034  70.111 224.987 -0.43 -0.00    +0.002 A  
DOCKED: ATOM     11  C   UNL     1     141.056  71.758 226.459 -0.69 -0.00    +0.030 A  
DOCKED: ATOM     12  C   UNL     1     139.924  69.221 226.066 -0.48 -0.00    +0.030 A  
DOCKED: ATOM     13  C   UNL     1     140.943  70.864 227.529 -0.67 -0.00    +0.023 A  
DOCKED: ATOM     14  C   UNL     1     140.378  69.599 227.335 -0.56 -0.01    +0.041 A  
DOCKED: ATOM     15  Cl  UNL     1     140.241  68.484 228.683 -0.60 +0.02    -0.084 Cl 
DOCKED: ENDBRANCH   3   5
DOCKED: ENDBRANCH   2   3
DOCKED: ENDBRANCH   1   2
DOCKED: BRANCH   1  16
DOCKED: ATOM     16  C   UNL     1     141.682  73.451 218.389 -0.02 -0.05    +0.205 C  
DOCKED: ATOM     17  O   UNL     1     141.479  73.613 217.156 -0.00 +0.06    -0.277 OA 
DOCKED: BRANCH  16  18
DOCKED: ATOM     18  N   UNL     1     143.009  73.632 218.919 -0.03 +0.08    -0.337 N  
DOCKED: ATOM     19  C   UNL     1     144.118  72.811 218.456 -0.12 -0.01    +0.151 C  
DOCKED: ATOM     20  C   UNL     1     143.351  74.401 220.115 -0.31 -0.04    +0.107 C  
DOCKED: ATOM     21  C   UNL     1     145.273  73.092 219.417 -0.32 +0.02    +0.136 C  
DOCKED: ATOM     22  C   UNL     1     144.622  73.730 220.641 -0.47 -0.01    +0.060 C  
DOCKED: BRANCH  20  23
DOCKED: ATOM     23  C   UNL     1     143.629  75.877 219.755 -0.30 -0.09    +0.146 C  
DOCKED: BRANCH  23  24
DOCKED: ATOM     24  N   UNL     1     142.440  76.709 219.921 -0.15 +0.22    -0.352 N  
DOCKED: ATOM     25  C   UNL     1     142.141  77.816 219.214 -0.26 -0.05    +0.085 A  
DOCKED: ATOM     26  C   UNL     1     141.451  76.521 220.816 -0.26 -0.04    +0.085 A  
DOCKED: ATOM     27  C   UNL     1     140.949  78.347 219.665 -0.19 -0.01    +0.019 A  
DOCKED: ATOM     28  C   UNL     1     140.511  77.523 220.684 -0.21 -0.01    +0.019 A  
DOCKED: ENDBRANCH  23  24
DOCKED: ENDBRANCH  20  23
DOCKED: BRANCH  21  29
DOCKED: ATOM     29  O   UNL     1     145.948  71.915 219.772 -0.47 -0.22    -0.391 OA 
DOCKED: ATOM     30  H   UNL     1     145.828  71.809 220.751 -0.38 -0.04    +0.211 HD 
DOCKED: ENDBRANCH  21  29
DOCKED: ENDBRANCH  16  18
DOCKED: ENDBRANCH   1  16
DOCKED: TORSDOF 8
DOCKED: TER
DOCKED: ENDMDL
________________________________________________________________________________


    FINAL DOCKED STATE:
    ________________________


Run:   17 / 20
Time taken for this run:   0.052s

DOCKED: MODEL        17
DOCKED: USER    Run = 17
DOCKED: USER
DOCKED: USER    Estimated Free Energy of Binding    =  -7.30 kcal/mol  [=(1)+(2)+(3)-(4)]
DOCKED: USER
DOCKED: USER    (1) Final Intermolecular Energy     =  -9.69 kcal/mol
DOCKED: USER        vdW + Hbond + desolv Energy     =  -9.56 kcal/mol
DOCKED: USER        Electrostatic Energy            =  -0.13 kcal/mol
DOCKED: USER        Moving Ligand-Fixed Receptor    =  -9.69 kcal/mol
DOCKED: USER        Moving Ligand-Moving Receptor   =  +0.00 kcal/mol
DOCKED: USER    (2) Final Total Internal Energy     =  -1.61 kcal/mol
DOCKED: USER    (3) Torsional Free Energy           =  +2.39 kcal/mol
DOCKED: USER    (4) Unbound System's Energy         =  -1.61 kcal/mol
DOCKED: USER
DOCKED: USER
DOCKED: REMARK SMILES O=C([N-]CC(=O)N1C[C@H](O)C[C@H]1Cn1cccc1)c1ccc2cc(Cl)ccc2n1
DOCKED: REMARK SMILES IDX 4 1 3 2 2 3 1 4 19 5 20 6 29 7 21 8 28 9 22 10 27 11 23 12
DOCKED: REMARK SMILES IDX 26 13 24 14 25 15 5 16 6 17 7 18 8 19 12 20 9 21 11 22 13 23
DOCKED: REMARK SMILES IDX 14 24 15 25 18 26 16 27 17 28 10 29
DOCKED: REMARK H PARENT 10 30
DOCKED: USER                              x       y       z     vdW  Elec       q    Type
DOCKED: USER                           _______ _______ _______ _____ _____    ______ ____
DOCKED: ROOT
DOCKED: ATOM      1  C   UNL     1     140.932  71.046 220.274 -0.13 +0.00    -0.015 C  
DOCKED: ENDROOT
DOCKED: BRANCH   1   2
DOCKED: ATOM      2  N   UNL     1     140.092  72.155 220.710 +0.03 +0.11    -0.640 NA 
DOCKED: BRANCH   2   3
DOCKED: ATOM      3  C   UNL     1     139.906  72.532 222.080 -0.26 -0.02    +0.101 C  
DOCKED: ATOM      4  O   UNL     1     139.713  73.744 222.359 -0.79 +0.04    -0.313 OA 
DOCKED: BRANCH   3   5
DOCKED: ATOM      5  C   UNL     1     139.953  71.546 223.174 -0.32 -0.02    +0.088 A  
DOCKED: ATOM      6  C   UNL     1     139.461  70.246 222.994 -0.23 -0.01    +0.031 A  
DOCKED: ATOM      7  N   UNL     1     140.435  71.922 224.390 -0.25 +0.04    -0.246 NA 
DOCKED: ATOM      8  C   UNL     1     139.513  69.333 224.048 -0.27 -0.00    +0.013 A  
DOCKED: ATOM      9  C   UNL     1     140.493  71.057 225.440 -0.51 -0.01    +0.071 A  
DOCKED: ATOM     10  C   UNL     1     140.035  69.729 225.285 -0.43 -0.00    +0.002 A  
DOCKED: ATOM     11  C   UNL     1     141.008  71.478 226.670 -0.70 -0.00    +0.030 A  
DOCKED: ATOM     12  C   UNL     1     140.102  68.839 226.367 -0.54 -0.01    +0.030 A  
DOCKED: ATOM     13  C   UNL     1     141.072  70.584 227.744 -0.63 -0.00    +0.023 A  
DOCKED: ATOM     14  C   UNL     1     140.621  69.268 227.594 -0.59 -0.01    +0.041 A  
DOCKED: ATOM     15  Cl  UNL     1     140.705  68.154 228.947 -0.45 +0.02    -0.084 Cl 
DOCKED: ENDBRANCH   3   5
DOCKED: ENDBRANCH   2   3
DOCKED: ENDBRANCH   1   2
DOCKED: BRANCH   1  16
DOCKED: ATOM     16  C   UNL     1     141.848  71.512 219.184 -0.05 -0.03    +0.205 C  
DOCKED: ATOM     17  O   UNL     1     141.765  70.966 218.050 -0.01 +0.04    -0.277 OA 
DOCKED: BRANCH  16  18
DOCKED: ATOM     18  N   UNL     1     142.868  72.502 219.420 -0.03 +0.05    -0.337 N  
DOCKED: ATOM     19  C   UNL     1     143.924  72.737 218.447 -0.11 -0.01    +0.151 C  
DOCKED: ATOM     20  C   UNL     1     143.139  73.154 220.700 -0.23 -0.02    +0.107 C  
DOCKED: ATOM     21  C   UNL     1     144.945  73.631 219.149 -0.20 -0.02    +0.136 C  
DOCKED: ATOM     22  C   UNL     1     144.630  73.498 220.637 -0.46 -0.01    +0.060 C  
DOCKED: BRANCH  20  23
DOCKED: ATOM     23  C   UNL     1     142.295  74.439 220.850 -0.20 -0.04    +0.146 C  
DOCKED: BRANCH  23  24
DOCKED: ATOM     24  N   UNL     1     142.476  75.341 219.716 -0.11 +0.15    -0.352 N  
DOCKED: ATOM     25  C   UNL     1     143.314  76.395 219.666 -0.36 -0.06    +0.085 A  
DOCKED: ATOM     26  C   UNL     1     141.827  75.283 218.537 -0.10 -0.03    +0.085 A  
DOCKED: ATOM     27  C   UNL     1     143.195  77.023 218.443 -0.30 -0.01    +0.019 A  
DOCKED: ATOM     28  C   UNL     1     142.250  76.316 217.725 -0.17 -0.01    +0.019 A  
DOCKED: ENDBRANCH  23  24
DOCKED: ENDBRANCH  20  23
DOCKED: BRANCH  21  29
DOCKED: ATOM     29  O   UNL     1     146.260  73.220 218.884 -0.69 -0.32    -0.391 OA 
DOCKED: ATOM     30  H   UNL     1     146.782  74.046 218.715 -0.47 +0.05    +0.211 HD 
DOCKED: ENDBRANCH  21  29
DOCKED: ENDBRANCH  16  18
DOCKED: ENDBRANCH   1  16
DOCKED: TORSDOF 8
DOCKED: TER
DOCKED: ENDMDL
________________________________________________________________________________


    FINAL DOCKED STATE:
    ________________________


Run:   18 / 20
Time taken for this run:   0.052s

DOCKED: MODEL        18
DOCKED: USER    Run = 18
DOCKED: USER
DOCKED: USER    Estimated Free Energy of Binding    =  -7.74 kcal/mol  [=(1)+(2)+(3)-(4)]
DOCKED: USER
DOCKED: USER    (1) Final Intermolecular Energy     = -10.12 kcal/mol
DOCKED: USER        vdW + Hbond + desolv Energy     = -10.11 kcal/mol
DOCKED: USER        Electrostatic Energy            =  -0.02 kcal/mol
DOCKED: USER        Moving Ligand-Fixed Receptor    = -10.12 kcal/mol
DOCKED: USER        Moving Ligand-Moving Receptor   =  +0.00 kcal/mol
DOCKED: USER    (2) Final Total Internal Energy     =  -1.41 kcal/mol
DOCKED: USER    (3) Torsional Free Energy           =  +2.39 kcal/mol
DOCKED: USER    (4) Unbound System's Energy         =  -1.41 kcal/mol
DOCKED: USER
DOCKED: USER
DOCKED: REMARK SMILES O=C([N-]CC(=O)N1C[C@H](O)C[C@H]1Cn1cccc1)c1ccc2cc(Cl)ccc2n1
DOCKED: REMARK SMILES IDX 4 1 3 2 2 3 1 4 19 5 20 6 29 7 21 8 28 9 22 10 27 11 23 12
DOCKED: REMARK SMILES IDX 26 13 24 14 25 15 5 16 6 17 7 18 8 19 12 20 9 21 11 22 13 23
DOCKED: REMARK SMILES IDX 14 24 15 25 18 26 16 27 17 28 10 29
DOCKED: REMARK H PARENT 10 30
DOCKED: USER                              x       y       z     vdW  Elec       q    Type
DOCKED: USER                           _______ _______ _______ _____ _____    ______ ____
DOCKED: ROOT
DOCKED: ATOM      1  C   UNL     1     140.010  75.300 221.022 -0.25 +0.00    -0.015 C  
DOCKED: ENDROOT
DOCKED: BRANCH   1   2
DOCKED: ATOM      2  N   UNL     1     140.338  74.263 221.993 -0.60 +0.03    -0.640 NA 
DOCKED: BRANCH   2   3
DOCKED: ATOM      3  C   UNL     1     140.169  72.860 221.758 -0.25 -0.01    +0.101 C  
DOCKED: ATOM      4  O   UNL     1     140.040  72.450 220.575 -0.05 +0.05    -0.313 OA 
DOCKED: BRANCH   3   5
DOCKED: ATOM      5  C   UNL     1     140.122  71.884 222.861 -0.31 -0.01    +0.088 A  
DOCKED: ATOM      6  C   UNL     1     139.554  70.615 222.677 -0.23 -0.01    +0.031 A  
DOCKED: ATOM      7  N   UNL     1     140.591  72.241 224.088 -0.11 +0.03    -0.246 NA 
DOCKED: ATOM      8  C   UNL     1     139.518  69.712 223.740 -0.27 -0.00    +0.013 A  
DOCKED: ATOM      9  C   UNL     1     140.564  71.386 225.146 -0.49 -0.01    +0.071 A  
DOCKED: ATOM     10  C   UNL     1     140.029  70.088 224.989 -0.43 -0.00    +0.002 A  
DOCKED: ATOM     11  C   UNL     1     141.069  71.786 226.387 -0.68 -0.00    +0.030 A  
DOCKED: ATOM     12  C   UNL     1     140.009  69.206 226.080 -0.48 -0.00    +0.030 A  
DOCKED: ATOM     13  C   UNL     1     141.046  70.901 227.470 -0.66 -0.00    +0.023 A  
DOCKED: ATOM     14  C   UNL     1     140.517  69.614 227.318 -0.56 -0.01    +0.041 A  
DOCKED: ATOM     15  Cl  UNL     1     140.493  68.511 228.682 -0.70 +0.02    -0.084 Cl 
DOCKED: ENDBRANCH   3   5
DOCKED: ENDBRANCH   2   3
DOCKED: ENDBRANCH   1   2
DOCKED: BRANCH   1  16
DOCKED: ATOM     16  C   UNL     1     140.954  76.453 221.184 -0.24 -0.08    +0.205 C  
DOCKED: ATOM     17  O   UNL     1     140.877  77.153 222.230 -0.29 +0.10    -0.277 OA 
DOCKED: BRANCH  16  18
DOCKED: ATOM     18  N   UNL     1     141.881  76.826 220.147 -0.13 +0.19    -0.337 N  
DOCKED: ATOM     19  C   UNL     1     141.874  78.168 219.583 -0.22 -0.09    +0.151 C  
DOCKED: ATOM     20  C   UNL     1     142.699  75.901 219.364 -0.28 -0.05    +0.107 C  
DOCKED: ATOM     21  C   UNL     1     142.780  78.107 218.354 -0.21 -0.11    +0.136 C  
DOCKED: ATOM     22  C   UNL     1     142.907  76.621 218.029 -0.27 -0.04    +0.060 C  
DOCKED: BRANCH  20  23
DOCKED: ATOM     23  C   UNL     1     144.057  75.650 220.058 -0.13 -0.10    +0.146 C  
DOCKED: BRANCH  23  24
DOCKED: ATOM     24  N   UNL     1     144.325  74.223 220.222 -0.22 +0.12    -0.352 N  
DOCKED: ATOM     25  C   UNL     1     143.402  73.255 220.379 -0.29 -0.02    +0.085 A  
DOCKED: ATOM     26  C   UNL     1     145.537  73.637 220.261 -0.52 -0.01    +0.085 A  
DOCKED: ATOM     27  C   UNL     1     144.030  72.035 220.525 -0.33 -0.00    +0.019 A  
DOCKED: ATOM     28  C   UNL     1     145.389  72.278 220.450 -0.37 -0.00    +0.019 A  
DOCKED: ENDBRANCH  23  24
DOCKED: ENDBRANCH  20  23
DOCKED: BRANCH  21  29
DOCKED: ATOM     29  O   UNL     1     142.227  78.805 217.270 -0.14 +0.34    -0.391 OA 
DOCKED: ATOM     30  H   UNL     1     142.978  79.284 216.834 -0.43 -0.34    +0.211 HD 
DOCKED: ENDBRANCH  21  29
DOCKED: ENDBRANCH  16  18
DOCKED: ENDBRANCH   1  16
DOCKED: TORSDOF 8
DOCKED: TER
DOCKED: ENDMDL
________________________________________________________________________________


    FINAL DOCKED STATE:
    ________________________


Run:   19 / 20
Time taken for this run:   0.052s

DOCKED: MODEL        19
DOCKED: USER    Run = 19
DOCKED: USER
DOCKED: USER    Estimated Free Energy of Binding    =  -7.32 kcal/mol  [=(1)+(2)+(3)-(4)]
DOCKED: USER
DOCKED: USER    (1) Final Intermolecular Energy     =  -9.71 kcal/mol
DOCKED: USER        vdW + Hbond + desolv Energy     =  -9.51 kcal/mol
DOCKED: USER        Electrostatic Energy            =  -0.19 kcal/mol
DOCKED: USER        Moving Ligand-Fixed Receptor    =  -9.71 kcal/mol
DOCKED: USER        Moving Ligand-Moving Receptor   =  +0.00 kcal/mol
DOCKED: USER    (2) Final Total Internal Energy     =  -1.65 kcal/mol
DOCKED: USER    (3) Torsional Free Energy           =  +2.39 kcal/mol
DOCKED: USER    (4) Unbound System's Energy         =  -1.65 kcal/mol
DOCKED: USER
DOCKED: USER
DOCKED: REMARK SMILES O=C([N-]CC(=O)N1C[C@H](O)C[C@H]1Cn1cccc1)c1ccc2cc(Cl)ccc2n1
DOCKED: REMARK SMILES IDX 4 1 3 2 2 3 1 4 19 5 20 6 29 7 21 8 28 9 22 10 27 11 23 12
DOCKED: REMARK SMILES IDX 26 13 24 14 25 15 5 16 6 17 7 18 8 19 12 20 9 21 11 22 13 23
DOCKED: REMARK SMILES IDX 14 24 15 25 18 26 16 27 17 28 10 29
DOCKED: REMARK H PARENT 10 30
DOCKED: USER                              x       y       z     vdW  Elec       q    Type
DOCKED: USER                           _______ _______ _______ _____ _____    ______ ____
DOCKED: ROOT
DOCKED: ATOM      1  C   UNL     1     141.465  74.928 221.596 -0.21 +0.00    -0.015 C  
DOCKED: ENDROOT
DOCKED: BRANCH   1   2
DOCKED: ATOM      2  N   UNL     1     140.250  74.199 221.942 -0.60 +0.05    -0.640 NA 
DOCKED: BRANCH   2   3
DOCKED: ATOM      3  C   UNL     1     140.068  72.794 221.729 -0.24 -0.01    +0.101 C  
DOCKED: ATOM      4  O   UNL     1     139.886  72.373 220.557 -0.05 +0.05    -0.313 OA 
DOCKED: BRANCH   3   5
DOCKED: ATOM      5  C   UNL     1     140.068  71.830 222.842 -0.30 -0.01    +0.088 A  
DOCKED: ATOM      6  C   UNL     1     139.545  70.539 222.678 -0.22 -0.01    +0.031 A  
DOCKED: ATOM      7  N   UNL     1     140.535  72.217 224.061 -0.15 +0.03    -0.246 NA 
DOCKED: ATOM      8  C   UNL     1     139.553  69.647 223.751 -0.26 -0.00    +0.013 A  
DOCKED: ATOM      9  C   UNL     1     140.550  71.373 225.127 -0.49 -0.01    +0.071 A  
DOCKED: ATOM     10  C   UNL     1     140.061  70.054 224.989 -0.43 -0.00    +0.002 A  
DOCKED: ATOM     11  C   UNL     1     141.052  71.805 226.359 -0.67 -0.00    +0.030 A  
DOCKED: ATOM     12  C   UNL     1     140.085  69.185 226.090 -0.49 -0.01    +0.030 A  
DOCKED: ATOM     13  C   UNL     1     141.072  70.932 227.452 -0.67 -0.00    +0.023 A  
DOCKED: ATOM     14  C   UNL     1     140.590  69.624 227.319 -0.56 -0.01    +0.041 A  
DOCKED: ATOM     15  Cl  UNL     1     140.619  68.536 228.694 -0.71 +0.02    -0.084 Cl 
DOCKED: ENDBRANCH   3   5
DOCKED: ENDBRANCH   2   3
DOCKED: ENDBRANCH   1   2
DOCKED: BRANCH   1  16
DOCKED: ATOM     16  C   UNL     1     141.975  74.448 220.271 -0.18 -0.06    +0.205 C  
DOCKED: ATOM     17  O   UNL     1     141.355  74.787 219.227 -0.05 +0.08    -0.277 OA 
DOCKED: BRANCH  16  18
DOCKED: ATOM     18  N   UNL     1     143.097  73.550 220.169 -0.11 +0.08    -0.337 N  
DOCKED: ATOM     19  C   UNL     1     144.443  73.992 220.503 -0.39 -0.04    +0.151 C  
DOCKED: ATOM     20  C   UNL     1     143.092  72.258 219.486 -0.15 -0.01    +0.107 C  
DOCKED: ATOM     21  C   UNL     1     145.377  72.884 220.019 -0.41 +0.01    +0.136 C  
DOCKED: ATOM     22  C   UNL     1     144.543  72.066 219.036 -0.23 +0.01    +0.060 C  
DOCKED: BRANCH  20  23
DOCKED: ATOM     23  C   UNL     1     142.675  71.129 220.455 -0.10 -0.02    +0.146 C  
DOCKED: BRANCH  23  24
DOCKED: ATOM     24  N   UNL     1     142.890  69.807 219.871 -0.01 +0.03    -0.352 N  
DOCKED: ATOM     25  C   UNL     1     144.038  69.102 219.904 -0.21 +0.01    +0.085 A  
DOCKED: ATOM     26  C   UNL     1     141.987  69.077 219.189 -0.12 -0.01    +0.085 A  
DOCKED: ATOM     27  C   UNL     1     143.869  67.910 219.230 -0.29 -0.00    +0.019 A  
DOCKED: ATOM     28  C   UNL     1     142.564  67.894 218.776 -0.17 -0.01    +0.019 A  
DOCKED: ENDBRANCH  23  24
DOCKED: ENDBRANCH  20  23
DOCKED: BRANCH  21  29
DOCKED: ATOM     29  O   UNL     1     146.514  73.408 219.387 -0.63 -0.25    -0.391 OA 
DOCKED: ATOM     30  H   UNL     1     146.391  74.392 219.360 -0.45 -0.08    +0.211 HD 
DOCKED: ENDBRANCH  21  29
DOCKED: ENDBRANCH  16  18
DOCKED: ENDBRANCH   1  16
DOCKED: TORSDOF 8
DOCKED: TER
DOCKED: ENDMDL
________________________________________________________________________________


    FINAL DOCKED STATE:
    ________________________


Run:   20 / 20
Time taken for this run:   0.052s

DOCKED: MODEL        20
DOCKED: USER    Run = 20
DOCKED: USER
DOCKED: USER    Estimated Free Energy of Binding    =  -7.70 kcal/mol  [=(1)+(2)+(3)-(4)]
DOCKED: USER
DOCKED: USER    (1) Final Intermolecular Energy     = -10.08 kcal/mol
DOCKED: USER        vdW + Hbond + desolv Energy     =  -9.97 kcal/mol
DOCKED: USER        Electrostatic Energy            =  -0.12 kcal/mol
DOCKED: USER        Moving Ligand-Fixed Receptor    = -10.08 kcal/mol
DOCKED: USER        Moving Ligand-Moving Receptor   =  +0.00 kcal/mol
DOCKED: USER    (2) Final Total Internal Energy     =  -1.59 kcal/mol
DOCKED: USER    (3) Torsional Free Energy           =  +2.39 kcal/mol
DOCKED: USER    (4) Unbound System's Energy         =  -1.59 kcal/mol
DOCKED: USER
DOCKED: USER
DOCKED: REMARK SMILES O=C([N-]CC(=O)N1C[C@H](O)C[C@H]1Cn1cccc1)c1ccc2cc(Cl)ccc2n1
DOCKED: REMARK SMILES IDX 4 1 3 2 2 3 1 4 19 5 20 6 29 7 21 8 28 9 22 10 27 11 23 12
DOCKED: REMARK SMILES IDX 26 13 24 14 25 15 5 16 6 17 7 18 8 19 12 20 9 21 11 22 13 23
DOCKED: REMARK SMILES IDX 14 24 15 25 18 26 16 27 17 28 10 29
DOCKED: REMARK H PARENT 10 30
DOCKED: USER                              x       y       z     vdW  Elec       q    Type
DOCKED: USER                           _______ _______ _______ _____ _____    ______ ____
DOCKED: ROOT
DOCKED: ATOM      1  C   UNL     1     140.302  72.527 219.585 -0.07 +0.00    -0.015 C  
DOCKED: ENDROOT
DOCKED: BRANCH   1   2
DOCKED: ATOM      2  N   UNL     1     139.396  72.327 220.710 +0.03 +0.12    -0.640 NA 
DOCKED: BRANCH   2   3
DOCKED: ATOM      3  C   UNL     1     139.706  72.679 222.064 -0.24 -0.02    +0.101 C  
DOCKED: ATOM      4  O   UNL     1     139.913  73.888 222.347 -0.82 +0.02    -0.313 OA 
DOCKED: BRANCH   3   5
DOCKED: ATOM      5  C   UNL     1     139.808  71.668 223.129 -0.31 -0.02    +0.088 A  
DOCKED: ATOM      6  C   UNL     1     139.340  70.361 222.930 -0.23 -0.01    +0.031 A  
DOCKED: ATOM      7  N   UNL     1     140.318  72.023 224.340 -0.20 +0.04    -0.246 NA 
DOCKED: ATOM      8  C   UNL     1     139.444  69.424 223.959 -0.27 -0.00    +0.013 A  
DOCKED: ATOM      9  C   UNL     1     140.427  71.134 225.365 -0.51 -0.01    +0.071 A  
DOCKED: ATOM     10  C   UNL     1     139.995  69.800 225.189 -0.43 -0.00    +0.002 A  
DOCKED: ATOM     11  C   UNL     1     140.970  71.536 226.590 -0.69 -0.00    +0.030 A  
DOCKED: ATOM     12  C   UNL     1     140.115  68.885 226.245 -0.52 -0.01    +0.030 A  
DOCKED: ATOM     13  C   UNL     1     141.087  70.617 227.638 -0.62 -0.00    +0.023 A  
DOCKED: ATOM     14  C   UNL     1     140.661  69.295 227.468 -0.58 -0.01    +0.041 A  
DOCKED: ATOM     15  Cl  UNL     1     140.812  68.149 228.788 -0.60 +0.02    -0.084 Cl 
DOCKED: ENDBRANCH   3   5
DOCKED: ENDBRANCH   2   3
DOCKED: ENDBRANCH   1   2
DOCKED: BRANCH   1  16
DOCKED: ATOM     16  C   UNL     1     141.622  71.886 219.886 -0.08 -0.03    +0.205 C  
DOCKED: ATOM     17  O   UNL     1     141.634  70.699 220.310 -0.08 +0.03    -0.277 OA 
DOCKED: BRANCH  16  18
DOCKED: ATOM     18  N   UNL     1     142.861  72.614 219.781 -0.05 +0.05    -0.337 N  
DOCKED: ATOM     19  C   UNL     1     144.069  71.969 219.289 -0.17 -0.00    +0.151 C  
DOCKED: ATOM     20  C   UNL     1     143.135  73.916 220.386 -0.28 -0.03    +0.107 C  
DOCKED: ATOM     21  C   UNL     1     145.209  72.946 219.577 -0.34 +0.01    +0.136 C  
DOCKED: ATOM     22  C   UNL     1     144.649  73.910 220.619 -0.46 -0.02    +0.060 C  
DOCKED: BRANCH  20  23
DOCKED: ATOM     23  C   UNL     1     142.743  75.060 219.424 -0.23 -0.06    +0.146 C  
DOCKED: BRANCH  23  24
DOCKED: ATOM     24  N   UNL     1     142.134  76.181 220.136 -0.13 +0.19    -0.352 N  
DOCKED: ATOM     25  C   UNL     1     142.237  77.482 219.803 -0.28 -0.06    +0.085 A  
DOCKED: ATOM     26  C   UNL     1     141.380  76.107 221.250 -0.26 -0.04    +0.085 A  
DOCKED: ATOM     27  C   UNL     1     141.548  78.251 220.719 -0.31 -0.01    +0.019 A  
DOCKED: ATOM     28  C   UNL     1     141.002  77.376 221.639 -0.36 -0.01    +0.019 A  
DOCKED: ENDBRANCH  23  24
DOCKED: ENDBRANCH  20  23
DOCKED: BRANCH  21  29
DOCKED: ATOM     29  O   UNL     1     146.342  72.285 220.073 -0.46 -0.23    -0.391 OA 
DOCKED: ATOM     30  H   UNL     1     146.061  71.843 220.916 -0.43 -0.05    +0.211 HD 
DOCKED: ENDBRANCH  21  29
DOCKED: ENDBRANCH  16  18
DOCKED: ENDBRANCH   1  16
DOCKED: TORSDOF 8
DOCKED: TER
DOCKED: ENDMDL
________________________________________________________________________________


    CLUSTERING HISTOGRAM
    ____________________


________________________________________________________________________________
     |           |     |           |     |
Clus | Lowest    | Run | Mean      | Num | Histogram
-ter | Binding   |     | Binding   | in  |
Rank | Energy    |     | Energy    | Clus|    5    10   15   20   25   30   35
_____|___________|_____|___________|_____|____:____|____:____|____:____|____:___
   1 |     -7.76 |  14 |     -7.41 |   8 |########
   2 |     -7.74 |  18 |     -7.56 |   3 |###
   3 |     -7.63 |   2 |     -7.26 |   4 |####
   4 |     -7.59 |   1 |     -6.82 |   3 |###
   5 |     -7.49 |   8 |     -7.49 |   1 |#
   6 |     -7.32 |  19 |     -7.32 |   1 |#
_____|___________|_____|___________|_____|______________________________________


    RMSD TABLE
    __________


_______________________________________________________________________
     |      |      |           |         |                 |
Rank | Sub- | Run  | Binding   | Cluster | Reference       | Grep
     | Rank |      | Energy    | RMSD    | RMSD            | Pattern
_____|______|______|___________|_________|_________________|___________
   1      1     14       -7.76      0.00    272.20           RANKING
   1      2      7       -7.70      0.74    272.21           RANKING
   1      3     20       -7.70      0.75    272.16           RANKING
   1      4      3       -7.46      0.96    272.08           RANKING
   1      5      4       -7.42      1.27    272.09           RANKING
   1      6     17       -7.30      1.24    271.85           RANKING
   1      7     16       -7.06      1.39    271.97           RANKING
   1      8      9       -6.87      1.88    271.75           RANKING
   2      1     18       -7.74      0.00    272.18           RANKING
   2      2     15       -7.72      0.11    272.22           RANKING
   2      3     12       -7.23      0.72    272.19           RANKING
   3      1      2       -7.63      0.00    272.75           RANKING
   3      2     11       -7.55      0.55    272.73           RANKING
   3      3      5       -7.42      1.07    272.78           RANKING
   3      4     13       -6.44      1.47    272.36           RANKING
   4      1      1       -7.59      0.00    272.67           RANKING
   4      2      6       -6.47      1.81    272.34           RANKING
   4      3     10       -6.39      1.87    272.32           RANKING
   5      1      8       -7.49      0.00    272.75           RANKING
   6      1     19       -7.32      0.00    271.82           RANKING

Run time 1.002 sec
Idle time 0.000 sec
