AutoDock-GPU version: v1.6

**********************************************************
**    AutoDock-GPU AUTODOCKTOOLS-COMPATIBLE DLG FILE    **
**********************************************************


    DOCKING PARAMETERS
    ________________________


Ligand file:                               /home/a/REINVENT4/ReinventStudies/pleaseWork/justmol2mol_4_Compounds_ontop/graph-dock-8u2o5u/graph-DockGPU/node-autodockgpu/inputs/OKDOJAXWZYUUCV-AEBSMEAUNA-M.pdbqt
Grid fld file:                             /home/a/REINVENT4/ReinventStudies/mols/Rad51/maps/rad51_receptor.maps.fld

Random seed:                               42
Number of runs:                            20
Number of energy evaluations:              2040163
Number of generations:                     42000
Size of population:                        150
Rate of crossover:                         80.000000%
Tournament selection probability limit:    60.000000%
Rate of mutation:                          2.000000%
Maximal allowed delta movement:            +/- 6.000000A
Maximal allowed delta angle:               +/- 90.000000

Rate of local search:                      100.000000%
Maximal number of local search iterations: 300
Rho lower bound:                           0.010000
Spread of local search delta movement:     2.000000A
Spread of local search delta angle:        74.999999
Limit of consecutive successes/failures:   4

Handle symmetry during clustering:         YES
RMSD tolerance:                            2.000000A

Program call in command line was:          /home/a/REINVENT4/ReinventStudies/adgpu-v1.6_linux_x64_cuda12_128wi --filelist batch.txt --heuristics 1 --nrun 20 --psize 150 --lsit 300 --seed 42 --heurmax 12000000 


    GRID PARAMETERS
    ________________________


Receptor name:                             rad51_receptor
Number of grid points (x, y, z):           53, 53, 53
Grid center (x, y, z):                     139.950000, 75.640000, 221.970000A
Grid size (x, y, z):                       19.500000, 19.500000, 19.500000A
Grid spacing:                              0.375000A


    LIGAND PARAMETERS
    ________________________


Ligand name:                               /home/a/REINVENT4/ReinventStudies/pleaseWork/justmol2mol_4_Compounds_ontop/graph-dock-8u2o5u/graph-DockGPU/node-autodockgpu/inputs/OKDOJAXWZYUUCV-AEBSMEAUNA-M
Number of atoms:                           31
Number of rotatable bonds:                 9
Number of atom types:                      7


    DUMMY DATA (only for ADT-compatibility)
    ________________________


DPF> outlev 1
DPF> ga_run 20
DPF> fld /home/a/REINVENT4/ReinventStudies/mols/Rad51/maps/rad51_receptor.maps.fld
DPF> move /home/a/REINVENT4/ReinventStudies/pleaseWork/justmol2mol_4_Compounds_ontop/graph-dock-8u2o5u/graph-DockGPU/node-autodockgpu/inputs/OKDOJAXWZYUUCV-AEBSMEAUNA-M.pdbqt


    COUNTER STATES
    ________________________


Number of energy evaluations performed:    1661945
Number of generations used:                85


    INPUT LIGAND PDBQT FILE:
    ________________________


INPUT-LIGAND-PDBQT: REMARK SMILES O=C([N-]/C=C(/O)N1C[C@H](O)C[C@H]1Cn1cccc1)c1ccc2cc(Cl)ccc2n1
INPUT-LIGAND-PDBQT: REMARK SMILES IDX 4 1 5 2 6 3 7 5 8 6 12 7 9 8 11 9 13 10 14 11 15 12 18 13
INPUT-LIGAND-PDBQT: REMARK SMILES IDX 16 14 17 15 10 16 3 18 2 19 1 20 19 21 29 22 20 23 28 24
INPUT-LIGAND-PDBQT: REMARK SMILES IDX 21 25 27 26 22 27 26 28 23 29 24 30 25 31
INPUT-LIGAND-PDBQT: REMARK H PARENT 6 4 10 17
INPUT-LIGAND-PDBQT: ROOT
INPUT-LIGAND-PDBQT: ATOM      1  C   UNL     1       1.907   0.420   2.180  1.00  0.00    -0.069 C 
INPUT-LIGAND-PDBQT: ENDROOT
INPUT-LIGAND-PDBQT: BRANCH   1   2
INPUT-LIGAND-PDBQT: ATOM      2  C   UNL     1       1.583   1.702   1.946  1.00  0.00     0.164 C 
INPUT-LIGAND-PDBQT: BRANCH   2   3
INPUT-LIGAND-PDBQT: ATOM      3  O   UNL     1       2.266   2.703   2.640  1.00  0.00    -0.496 OA
INPUT-LIGAND-PDBQT: ATOM      4  H   UNL     1       3.004   2.496   3.304  1.00  0.00     0.295 HD
INPUT-LIGAND-PDBQT: ENDBRANCH   2   3
INPUT-LIGAND-PDBQT: BRANCH   2   5
INPUT-LIGAND-PDBQT: ATOM      5  N   UNL     1       0.541   2.104   1.027  1.00  0.00    -0.337 N 
INPUT-LIGAND-PDBQT: ATOM      6  C   UNL     1      -0.169   3.356   1.223  1.00  0.00     0.151 C 
INPUT-LIGAND-PDBQT: ATOM      7  C   UNL     1       0.112   1.408  -0.189  1.00  0.00     0.107 C 
INPUT-LIGAND-PDBQT: ATOM      8  C   UNL     1      -1.350   3.325   0.254  1.00  0.00     0.136 C 
INPUT-LIGAND-PDBQT: ATOM      9  C   UNL     1      -0.995   2.278  -0.806  1.00  0.00     0.060 C 
INPUT-LIGAND-PDBQT: BRANCH   7  10
INPUT-LIGAND-PDBQT: ATOM     10  C   UNL     1       1.283   1.148  -1.168  1.00  0.00     0.146 C 
INPUT-LIGAND-PDBQT: BRANCH  10  11
INPUT-LIGAND-PDBQT: ATOM     11  N   UNL     1       2.018   2.371  -1.508  1.00  0.00    -0.352 N 
INPUT-LIGAND-PDBQT: ATOM     12  C   UNL     1       3.044   2.906  -0.816  1.00  0.00     0.085 A 
INPUT-LIGAND-PDBQT: ATOM     13  C   UNL     1       1.832   3.139  -2.600  1.00  0.00     0.085 A 
INPUT-LIGAND-PDBQT: ATOM     14  C   UNL     1       3.503   4.037  -1.460  1.00  0.00     0.019 A 
INPUT-LIGAND-PDBQT: ATOM     15  C   UNL     1       2.731   4.185  -2.596  1.00  0.00     0.019 A 
INPUT-LIGAND-PDBQT: ENDBRANCH  10  11
INPUT-LIGAND-PDBQT: ENDBRANCH   7  10
INPUT-LIGAND-PDBQT: BRANCH   8  16
INPUT-LIGAND-PDBQT: ATOM     16  O   UNL     1      -2.542   2.986   0.920  1.00  0.00    -0.391 OA
INPUT-LIGAND-PDBQT: ATOM     17  H   UNL     1      -2.414   2.094   1.339  1.00  0.00     0.211 HD
INPUT-LIGAND-PDBQT: ENDBRANCH   8  16
INPUT-LIGAND-PDBQT: ENDBRANCH   2   5
INPUT-LIGAND-PDBQT: ENDBRANCH   1   2
INPUT-LIGAND-PDBQT: BRANCH   1  18
INPUT-LIGAND-PDBQT: ATOM     18  N   UNL     1       1.197  -0.666   1.585  1.00  0.00    -0.623 NA
INPUT-LIGAND-PDBQT: BRANCH  18  19
INPUT-LIGAND-PDBQT: ATOM     19  C   UNL     1       1.510  -2.043   1.805  1.00  0.00     0.104 C 
INPUT-LIGAND-PDBQT: ATOM     20  O   UNL     1       2.432  -2.367   2.602  1.00  0.00    -0.313 OA
INPUT-LIGAND-PDBQT: BRANCH  19  21
INPUT-LIGAND-PDBQT: ATOM     21  C   UNL     1       0.748  -3.077   1.083  1.00  0.00     0.089 A 
INPUT-LIGAND-PDBQT: ATOM     22  N   UNL     1      -0.223  -2.694   0.208  1.00  0.00    -0.246 NA
INPUT-LIGAND-PDBQT: ATOM     23  C   UNL     1       1.007  -4.444   1.273  1.00  0.00     0.031 A 
INPUT-LIGAND-PDBQT: ATOM     24  C   UNL     1      -0.960  -3.594  -0.495  1.00  0.00     0.071 A 
INPUT-LIGAND-PDBQT: ATOM     25  C   UNL     1       0.266  -5.393   0.564  1.00  0.00     0.013 A 
INPUT-LIGAND-PDBQT: ATOM     26  C   UNL     1      -1.946  -3.152  -1.384  1.00  0.00     0.030 A 
INPUT-LIGAND-PDBQT: ATOM     27  C   UNL     1      -0.728  -4.976  -0.330  1.00  0.00     0.002 A 
INPUT-LIGAND-PDBQT: ATOM     28  C   UNL     1      -2.702  -4.081  -2.106  1.00  0.00     0.023 A 
INPUT-LIGAND-PDBQT: ATOM     29  C   UNL     1      -1.489  -5.902  -1.058  1.00  0.00     0.030 A 
INPUT-LIGAND-PDBQT: ATOM     30  C   UNL     1      -2.475  -5.453  -1.945  1.00  0.00     0.041 A 
INPUT-LIGAND-PDBQT: ATOM     31  Cl  UNL     1      -3.428  -6.611  -2.855  1.00  0.00    -0.084 Cl
INPUT-LIGAND-PDBQT: ENDBRANCH  19  21
INPUT-LIGAND-PDBQT: ENDBRANCH  18  19
INPUT-LIGAND-PDBQT: ENDBRANCH   1  18
INPUT-LIGAND-PDBQT: TORSDOF 9


    FINAL DOCKED STATE:
    ________________________


Run:   1 / 20
Time taken for this run:   0.071s

DOCKED: MODEL        1
DOCKED: USER    Run = 1
DOCKED: USER
DOCKED: USER    Estimated Free Energy of Binding    =  -7.66 kcal/mol  [=(1)+(2)+(3)-(4)]
DOCKED: USER
DOCKED: USER    (1) Final Intermolecular Energy     = -10.34 kcal/mol
DOCKED: USER        vdW + Hbond + desolv Energy     = -10.15 kcal/mol
DOCKED: USER        Electrostatic Energy            =  -0.20 kcal/mol
DOCKED: USER        Moving Ligand-Fixed Receptor    = -10.34 kcal/mol
DOCKED: USER        Moving Ligand-Moving Receptor   =  +0.00 kcal/mol
DOCKED: USER    (2) Final Total Internal Energy     =  -2.01 kcal/mol
DOCKED: USER    (3) Torsional Free Energy           =  +2.68 kcal/mol
DOCKED: USER    (4) Unbound System's Energy         =  -2.01 kcal/mol
DOCKED: USER
DOCKED: USER
DOCKED: REMARK SMILES O=C([N-]/C=C(/O)N1C[C@H](O)C[C@H]1Cn1cccc1)c1ccc2cc(Cl)ccc2n1
DOCKED: REMARK SMILES IDX 4 1 5 2 6 3 7 5 8 6 12 7 9 8 11 9 13 10 14 11 15 12 18 13
DOCKED: REMARK SMILES IDX 16 14 17 15 10 16 3 18 2 19 1 20 19 21 29 22 20 23 28 24
DOCKED: REMARK SMILES IDX 21 25 27 26 22 27 26 28 23 29 24 30 25 31
DOCKED: REMARK H PARENT 6 4 10 17
DOCKED: USER                              x       y       z     vdW  Elec       q    Type
DOCKED: USER                           _______ _______ _______ _____ _____    ______ ____
DOCKED: ROOT
DOCKED: ATOM      1  C   UNL     1     141.799  73.489 220.858 -0.25 +0.01    -0.069 C  
DOCKED: ENDROOT
DOCKED: BRANCH   1   2
DOCKED: ATOM      2  C   UNL     1     142.200  72.375 220.224 -0.14 -0.02    +0.164 C  
DOCKED: BRANCH   2   3
DOCKED: ATOM      3  O   UNL     1     141.234  71.454 219.812 -0.01 +0.08    -0.496 OA 
DOCKED: ATOM      4  H   UNL     1     140.247  71.580 220.007 +0.05 -0.05    +0.295 HD 
DOCKED: ENDBRANCH   2   3
DOCKED: BRANCH   2   5
DOCKED: ATOM      5  N   UNL     1     143.588  72.062 219.966 -0.09 +0.04    -0.337 N  
DOCKED: ATOM      6  C   UNL     1     144.644  72.873 220.546 -0.37 -0.02    +0.151 C  
DOCKED: ATOM      7  C   UNL     1     144.116  70.930 219.199 -0.17 +0.00    +0.107 C  
DOCKED: ATOM      8  C   UNL     1     145.937  72.433 219.859 -0.33 +0.06    +0.136 C  
DOCKED: ATOM      9  C   UNL     1     145.647  71.050 219.267 -0.25 +0.04    +0.060 C  
DOCKED: BRANCH   7  10
DOCKED: ATOM     10  C   UNL     1     143.600  69.567 219.721 -0.16 -0.00    +0.146 C  
DOCKED: BRANCH  10  11
DOCKED: ATOM     11  N   UNL     1     144.448  68.445 219.306 -0.14 +0.00    -0.352 N  
DOCKED: ATOM     12  C   UNL     1     145.404  67.848 220.046 -0.40 +0.01    +0.085 A  
DOCKED: ATOM     13  C   UNL     1     144.379  67.780 218.135 -0.21 -0.03    +0.085 A  
DOCKED: ATOM     14  C   UNL     1     145.965  66.808 219.334 -0.55 -0.01    +0.019 A  
DOCKED: ATOM     15  C   UNL     1     145.313  66.764 218.118 -0.40 -0.01    +0.019 A  
DOCKED: ENDBRANCH  10  11
DOCKED: ENDBRANCH   7  10
DOCKED: BRANCH   8  16
DOCKED: ATOM     16  O   UNL     1     146.311  73.344 218.855 -0.68 -0.29    -0.391 OA 
DOCKED: ATOM     17  H   UNL     1     145.954  74.238 219.105 -0.43 -0.07    +0.211 HD 
DOCKED: ENDBRANCH   8  16
DOCKED: ENDBRANCH   2   5
DOCKED: ENDBRANCH   1   2
DOCKED: BRANCH   1  18
DOCKED: ATOM     18  N   UNL     1     140.936  73.451 221.993 -0.40 +0.01    -0.623 NA 
DOCKED: BRANCH  18  19
DOCKED: ATOM     19  C   UNL     1     139.856  72.527 222.147 -0.26 -0.02    +0.104 C  
DOCKED: ATOM     20  O   UNL     1     138.866  72.569 221.368 -0.08 +0.07    -0.313 OA 
DOCKED: BRANCH  19  21
DOCKED: ATOM     21  C   UNL     1     139.912  71.531 223.233 -0.32 -0.02    +0.089 A  
DOCKED: ATOM     22  N   UNL     1     140.400  71.904 224.448 -0.26 +0.04    -0.246 NA 
DOCKED: ATOM     23  C   UNL     1     139.468  70.213 223.041 -0.23 -0.01    +0.031 A  
DOCKED: ATOM     24  C   UNL     1     140.475  71.040 225.494 -0.51 -0.01    +0.071 A  
DOCKED: ATOM     25  C   UNL     1     139.532  69.302 224.098 -0.27 -0.00    +0.013 A  
DOCKED: ATOM     26  C   UNL     1     140.982  71.470 226.726 -0.70 -0.00    +0.030 A  
DOCKED: ATOM     27  C   UNL     1     140.038  69.707 225.339 -0.44 -0.00    +0.002 A  
DOCKED: ATOM     28  C   UNL     1     141.057  70.577 227.800 -0.63 -0.00    +0.023 A  
DOCKED: ATOM     29  C   UNL     1     140.115  68.818 226.421 -0.54 -0.01    +0.030 A  
DOCKED: ATOM     30  C   UNL     1     140.625  69.254 227.650 -0.59 -0.01    +0.041 A  
DOCKED: ATOM     31  Cl  UNL     1     140.723  68.142 229.002 -0.42 +0.02    -0.084 Cl 
DOCKED: ENDBRANCH  19  21
DOCKED: ENDBRANCH  18  19
DOCKED: ENDBRANCH   1  18
DOCKED: TORSDOF 9
DOCKED: TER
DOCKED: ENDMDL
________________________________________________________________________________


    FINAL DOCKED STATE:
    ________________________


Run:   2 / 20
Time taken for this run:   0.071s

DOCKED: MODEL        2
DOCKED: USER    Run = 2
DOCKED: USER
DOCKED: USER    Estimated Free Energy of Binding    =  -7.27 kcal/mol  [=(1)+(2)+(3)-(4)]
DOCKED: USER
DOCKED: USER    (1) Final Intermolecular Energy     =  -9.95 kcal/mol
DOCKED: USER        vdW + Hbond + desolv Energy     =  -9.79 kcal/mol
DOCKED: USER        Electrostatic Energy            =  -0.16 kcal/mol
DOCKED: USER        Moving Ligand-Fixed Receptor    =  -9.95 kcal/mol
DOCKED: USER        Moving Ligand-Moving Receptor   =  +0.00 kcal/mol
DOCKED: USER    (2) Final Total Internal Energy     =  -2.33 kcal/mol
DOCKED: USER    (3) Torsional Free Energy           =  +2.68 kcal/mol
DOCKED: USER    (4) Unbound System's Energy         =  -2.33 kcal/mol
DOCKED: USER
DOCKED: USER
DOCKED: REMARK SMILES O=C([N-]/C=C(/O)N1C[C@H](O)C[C@H]1Cn1cccc1)c1ccc2cc(Cl)ccc2n1
DOCKED: REMARK SMILES IDX 4 1 5 2 6 3 7 5 8 6 12 7 9 8 11 9 13 10 14 11 15 12 18 13
DOCKED: REMARK SMILES IDX 16 14 17 15 10 16 3 18 2 19 1 20 19 21 29 22 20 23 28 24
DOCKED: REMARK SMILES IDX 21 25 27 26 22 27 26 28 23 29 24 30 25 31
DOCKED: REMARK H PARENT 6 4 10 17
DOCKED: USER                              x       y       z     vdW  Elec       q    Type
DOCKED: USER                           _______ _______ _______ _____ _____    ______ ____
DOCKED: ROOT
DOCKED: ATOM      1  C   UNL     1     141.823  73.450 221.299 -0.12 +0.01    -0.069 C  
DOCKED: ENDROOT
DOCKED: BRANCH   1   2
DOCKED: ATOM      2  C   UNL     1     142.162  72.679 220.253 -0.15 -0.03    +0.164 C  
DOCKED: BRANCH   2   3
DOCKED: ATOM      3  O   UNL     1     141.153  72.230 219.398 +0.01 +0.09    -0.496 OA 
DOCKED: ATOM      4  H   UNL     1     140.170  72.394 219.585 +0.05 -0.05    +0.295 HD 
DOCKED: ENDBRANCH   2   3
DOCKED: BRANCH   2   5
DOCKED: ATOM      5  N   UNL     1     143.520  72.266 219.975 -0.09 +0.04    -0.337 N  
DOCKED: ATOM      6  C   UNL     1     144.640  72.995 220.545 -0.38 -0.02    +0.151 C  
DOCKED: ATOM      7  C   UNL     1     143.953  71.103 219.197 -0.16 +0.00    +0.107 C  
DOCKED: ATOM      8  C   UNL     1     145.888  72.464 219.839 -0.33 +0.06    +0.136 C  
DOCKED: ATOM      9  C   UNL     1     145.489  71.109 219.246 -0.27 +0.03    +0.060 C  
DOCKED: BRANCH   7  10
DOCKED: ATOM     10  C   UNL     1     143.344  69.779 219.720 -0.13 -0.01    +0.146 C  
DOCKED: BRANCH  10  11
DOCKED: ATOM     11  N   UNL     1     144.120  68.601 219.317 -0.12 +0.01    -0.352 N  
DOCKED: ATOM     12  C   UNL     1     144.111  68.015 218.103 -0.17 -0.02    +0.085 A  
DOCKED: ATOM     13  C   UNL     1     145.018  67.937 220.072 -0.34 +0.01    +0.085 A  
DOCKED: ATOM     14  C   UNL     1     144.994  66.954 218.089 -0.35 -0.01    +0.019 A  
DOCKED: ATOM     15  C   UNL     1     145.571  66.905 219.344 -0.54 -0.00    +0.019 A  
DOCKED: ENDBRANCH  10  11
DOCKED: ENDBRANCH   7  10
DOCKED: BRANCH   8  16
DOCKED: ATOM     16  O   UNL     1     146.316  73.350 218.834 -0.68 -0.29    -0.391 OA 
DOCKED: ATOM     17  H   UNL     1     145.823  74.205 218.951 -0.42 -0.07    +0.211 HD 
DOCKED: ENDBRANCH   8  16
DOCKED: ENDBRANCH   2   5
DOCKED: ENDBRANCH   1   2
DOCKED: BRANCH   1  18
DOCKED: ATOM     18  N   UNL     1     140.477  73.558 221.762 -0.37 +0.06    -0.623 NA 
DOCKED: BRANCH  18  19
DOCKED: ATOM     19  C   UNL     1     139.562  72.462 221.824 -0.21 -0.02    +0.104 C  
DOCKED: ATOM     20  O   UNL     1     138.663  72.332 220.949 -0.04 +0.06    -0.313 OA 
DOCKED: BRANCH  19  21
DOCKED: ATOM     21  C   UNL     1     139.678  71.492 222.928 -0.28 -0.02    +0.089 A  
DOCKED: ATOM     22  N   UNL     1     140.234  71.892 224.105 -0.27 +0.04    -0.246 NA 
DOCKED: ATOM     23  C   UNL     1     139.220  70.172 222.792 -0.21 -0.01    +0.031 A  
DOCKED: ATOM     24  C   UNL     1     140.366  71.052 225.165 -0.48 -0.01    +0.071 A  
DOCKED: ATOM     25  C   UNL     1     139.342  69.285 223.865 -0.27 -0.00    +0.013 A  
DOCKED: ATOM     26  C   UNL     1     140.943  71.509 226.355 -0.67 -0.00    +0.030 A  
DOCKED: ATOM     27  C   UNL     1     139.918  69.717 225.066 -0.41 -0.00    +0.002 A  
DOCKED: ATOM     28  C   UNL     1     141.078  70.641 227.444 -0.62 -0.00    +0.023 A  
DOCKED: ATOM     29  C   UNL     1     140.055  68.853 226.162 -0.52 -0.01    +0.030 A  
DOCKED: ATOM     30  C   UNL     1     140.634  69.317 227.350 -0.57 -0.01    +0.041 A  
DOCKED: ATOM     31  Cl  UNL     1     140.807  68.236 228.721 -0.67 +0.02    -0.084 Cl 
DOCKED: ENDBRANCH  19  21
DOCKED: ENDBRANCH  18  19
DOCKED: ENDBRANCH   1  18
DOCKED: TORSDOF 9
DOCKED: TER
DOCKED: ENDMDL
________________________________________________________________________________


    FINAL DOCKED STATE:
    ________________________


Run:   3 / 20
Time taken for this run:   0.071s

DOCKED: MODEL        3
DOCKED: USER    Run = 3
DOCKED: USER
DOCKED: USER    Estimated Free Energy of Binding    =  -6.94 kcal/mol  [=(1)+(2)+(3)-(4)]
DOCKED: USER
DOCKED: USER    (1) Final Intermolecular Energy     =  -9.62 kcal/mol
DOCKED: USER        vdW + Hbond + desolv Energy     =  -9.66 kcal/mol
DOCKED: USER        Electrostatic Energy            =  +0.04 kcal/mol
DOCKED: USER        Moving Ligand-Fixed Receptor    =  -9.62 kcal/mol
DOCKED: USER        Moving Ligand-Moving Receptor   =  +0.00 kcal/mol
DOCKED: USER    (2) Final Total Internal Energy     =  -2.19 kcal/mol
DOCKED: USER    (3) Torsional Free Energy           =  +2.68 kcal/mol
DOCKED: USER    (4) Unbound System's Energy         =  -2.19 kcal/mol
DOCKED: USER
DOCKED: USER
DOCKED: REMARK SMILES O=C([N-]/C=C(/O)N1C[C@H](O)C[C@H]1Cn1cccc1)c1ccc2cc(Cl)ccc2n1
DOCKED: REMARK SMILES IDX 4 1 5 2 6 3 7 5 8 6 12 7 9 8 11 9 13 10 14 11 15 12 18 13
DOCKED: REMARK SMILES IDX 16 14 17 15 10 16 3 18 2 19 1 20 19 21 29 22 20 23 28 24
DOCKED: REMARK SMILES IDX 21 25 27 26 22 27 26 28 23 29 24 30 25 31
DOCKED: REMARK H PARENT 6 4 10 17
DOCKED: USER                              x       y       z     vdW  Elec       q    Type
DOCKED: USER                           _______ _______ _______ _____ _____    ______ ____
DOCKED: ROOT
DOCKED: ATOM      1  C   UNL     1     138.965  73.930 220.421 -0.09 +0.01    -0.069 C  
DOCKED: ENDROOT
DOCKED: BRANCH   1   2
DOCKED: ATOM      2  C   UNL     1     140.096  74.380 220.990 -0.19 -0.03    +0.164 C  
DOCKED: BRANCH   2   3
DOCKED: ATOM      3  O   UNL     1     140.313  74.121 222.345 -0.72 -0.03    -0.496 OA 
DOCKED: ATOM      4  H   UNL     1     139.597  73.723 222.942 -0.35 -0.05    +0.295 HD 
DOCKED: ENDBRANCH   2   3
DOCKED: BRANCH   2   5
DOCKED: ATOM      5  N   UNL     1     141.096  75.143 220.276 -0.08 +0.10    -0.337 N  
DOCKED: ATOM      6  C   UNL     1     141.471  74.779 218.921 -0.07 -0.04    +0.151 C  
DOCKED: ATOM      7  C   UNL     1     141.788  76.350 220.737 -0.15 -0.06    +0.107 C  
DOCKED: ATOM      8  C   UNL     1     142.711  75.607 218.591 -0.19 -0.06    +0.136 C  
DOCKED: ATOM      9  C   UNL     1     142.712  76.773 219.584 -0.33 -0.04    +0.060 C  
DOCKED: BRANCH   7  10
DOCKED: ATOM     10  C   UNL     1     140.807  77.471 221.159 -0.24 -0.06    +0.146 C  
DOCKED: BRANCH  10  11
DOCKED: ATOM     11  N   UNL     1     141.428  78.460 222.047 -0.18 +0.16    -0.352 N  
DOCKED: ATOM     12  C   UNL     1     141.427  78.437 223.395 -0.50 -0.03    +0.085 A  
DOCKED: ATOM     13  C   UNL     1     142.154  79.531 221.669 -0.37 -0.04    +0.085 A  
DOCKED: ATOM     14  C   UNL     1     142.140  79.514 223.882 -0.58 -0.01    +0.019 A  
DOCKED: ATOM     15  C   UNL     1     142.603  80.210 222.782 -0.61 -0.01    +0.019 A  
DOCKED: ENDBRANCH  10  11
DOCKED: ENDBRANCH   7  10
DOCKED: BRANCH   8  16
DOCKED: ATOM     16  O   UNL     1     143.882  74.837 218.715 -0.11 +0.17    -0.391 OA 
DOCKED: ATOM     17  H   UNL     1     144.605  75.298 218.213 -0.42 -0.16    +0.211 HD 
DOCKED: ENDBRANCH   8  16
DOCKED: ENDBRANCH   2   5
DOCKED: ENDBRANCH   1   2
DOCKED: BRANCH   1  18
DOCKED: ATOM     18  N   UNL     1     137.954  73.254 221.168 +0.02 +0.14    -0.623 NA 
DOCKED: BRANCH  18  19
DOCKED: ATOM     19  C   UNL     1     137.830  71.832 221.243 -0.08 -0.02    +0.104 C  
DOCKED: ATOM     20  O   UNL     1     137.423  71.175 220.247 -0.01 +0.06    -0.313 OA 
DOCKED: BRANCH  19  21
DOCKED: ATOM     21  C   UNL     1     138.176  71.147 222.501 -0.15 -0.02    +0.089 A  
DOCKED: ATOM     22  N   UNL     1     139.221  71.611 223.242 -0.19 +0.06    -0.246 NA 
DOCKED: ATOM     23  C   UNL     1     137.449  70.034 222.953 -0.16 -0.01    +0.031 A  
DOCKED: ATOM     24  C   UNL     1     139.591  71.031 224.414 -0.39 -0.01    +0.071 A  
DOCKED: ATOM     25  C   UNL     1     137.805  69.417 224.154 -0.28 -0.00    +0.013 A  
DOCKED: ATOM     26  C   UNL     1     140.670  71.545 225.142 -0.51 -0.00    +0.030 A  
DOCKED: ATOM     27  C   UNL     1     138.883  69.911 224.900 -0.38 -0.00    +0.002 A  
DOCKED: ATOM     28  C   UNL     1     141.048  70.945 226.347 -0.63 -0.00    +0.023 A  
DOCKED: ATOM     29  C   UNL     1     139.266  69.315 226.110 -0.45 -0.00    +0.030 A  
DOCKED: ATOM     30  C   UNL     1     140.348  69.834 226.832 -0.53 -0.01    +0.041 A  
DOCKED: ATOM     31  Cl  UNL     1     140.829  69.089 228.346 -0.75 +0.02    -0.084 Cl 
DOCKED: ENDBRANCH  19  21
DOCKED: ENDBRANCH  18  19
DOCKED: ENDBRANCH   1  18
DOCKED: TORSDOF 9
DOCKED: TER
DOCKED: ENDMDL
________________________________________________________________________________


    FINAL DOCKED STATE:
    ________________________


Run:   4 / 20
Time taken for this run:   0.071s

DOCKED: MODEL        4
DOCKED: USER    Run = 4
DOCKED: USER
DOCKED: USER    Estimated Free Energy of Binding    =  -7.82 kcal/mol  [=(1)+(2)+(3)-(4)]
DOCKED: USER
DOCKED: USER    (1) Final Intermolecular Energy     = -10.51 kcal/mol
DOCKED: USER        vdW + Hbond + desolv Energy     = -10.55 kcal/mol
DOCKED: USER        Electrostatic Energy            =  +0.05 kcal/mol
DOCKED: USER        Moving Ligand-Fixed Receptor    = -10.51 kcal/mol
DOCKED: USER        Moving Ligand-Moving Receptor   =  +0.00 kcal/mol
DOCKED: USER    (2) Final Total Internal Energy     =  -1.96 kcal/mol
DOCKED: USER    (3) Torsional Free Energy           =  +2.68 kcal/mol
DOCKED: USER    (4) Unbound System's Energy         =  -1.96 kcal/mol
DOCKED: USER
DOCKED: USER
DOCKED: REMARK SMILES O=C([N-]/C=C(/O)N1C[C@H](O)C[C@H]1Cn1cccc1)c1ccc2cc(Cl)ccc2n1
DOCKED: REMARK SMILES IDX 4 1 5 2 6 3 7 5 8 6 12 7 9 8 11 9 13 10 14 11 15 12 18 13
DOCKED: REMARK SMILES IDX 16 14 17 15 10 16 3 18 2 19 1 20 19 21 29 22 20 23 28 24
DOCKED: REMARK SMILES IDX 21 25 27 26 22 27 26 28 23 29 24 30 25 31
DOCKED: REMARK H PARENT 6 4 10 17
DOCKED: USER                              x       y       z     vdW  Elec       q    Type
DOCKED: USER                           _______ _______ _______ _____ _____    ______ ____
DOCKED: ROOT
DOCKED: ATOM      1  C   UNL     1     140.993  73.288 221.255 -0.25 +0.01    -0.069 C  
DOCKED: ENDROOT
DOCKED: BRANCH   1   2
DOCKED: ATOM      2  C   UNL     1     140.588  74.534 221.548 -0.25 -0.02    +0.164 C  
DOCKED: BRANCH   2   3
DOCKED: ATOM      3  O   UNL     1     139.585  74.705 222.505 -0.56 +0.05    -0.496 OA 
DOCKED: ATOM      4  H   UNL     1     138.940  73.963 222.753 -0.49 -0.12    +0.295 HD 
DOCKED: ENDBRANCH   2   3
DOCKED: BRANCH   2   5
DOCKED: ATOM      5  N   UNL     1     141.119  75.715 220.903 -0.13 +0.11    -0.337 N  
DOCKED: ATOM      6  C   UNL     1     141.331  75.736 219.466 -0.13 -0.05    +0.151 C  
DOCKED: ATOM      7  C   UNL     1     141.439  77.000 221.530 -0.09 -0.06    +0.107 C  
DOCKED: ATOM      8  C   UNL     1     142.135  77.003 219.179 -0.24 -0.08    +0.136 C  
DOCKED: ATOM      9  C   UNL     1     141.932  77.913 220.395 -0.26 -0.04    +0.060 C  
DOCKED: BRANCH   7  10
DOCKED: ATOM     10  C   UNL     1     140.238  77.601 222.300 -0.32 -0.04    +0.146 C  
DOCKED: BRANCH  10  11
DOCKED: ATOM     11  N   UNL     1     140.538  78.913 222.882 -0.18 +0.09    -0.352 N  
DOCKED: ATOM     12  C   UNL     1     141.716  79.304 223.410 -0.53 -0.03    +0.085 A  
DOCKED: ATOM     13  C   UNL     1     139.707  79.973 222.938 -0.32 -0.01    +0.085 A  
DOCKED: ATOM     14  C   UNL     1     141.629  80.617 223.826 -0.56 -0.00    +0.019 A  
DOCKED: ATOM     15  C   UNL     1     140.350  81.042 223.525 -0.37 -0.00    +0.019 A  
DOCKED: ENDBRANCH  10  11
DOCKED: ENDBRANCH   7  10
DOCKED: BRANCH   8  16
DOCKED: ATOM     16  O   UNL     1     143.497  76.706 218.991 -0.23 +0.28    -0.391 OA 
DOCKED: ATOM     17  H   UNL     1     144.011  77.164 219.709 -0.48 -0.21    +0.211 HD 
DOCKED: ENDBRANCH   8  16
DOCKED: ENDBRANCH   2   5
DOCKED: ENDBRANCH   1   2
DOCKED: BRANCH   1  18
DOCKED: ATOM     18  N   UNL     1     140.075  72.208 221.086 +0.01 +0.10    -0.623 NA 
DOCKED: BRANCH  18  19
DOCKED: ATOM     19  C   UNL     1     139.019  71.905 222.000 -0.18 -0.02    +0.104 C  
DOCKED: ATOM     20  O   UNL     1     137.874  72.408 221.840 -0.07 +0.08    -0.313 OA 
DOCKED: BRANCH  19  21
DOCKED: ATOM     21  C   UNL     1     139.288  71.005 223.136 -0.26 -0.02    +0.089 A  
DOCKED: ATOM     22  N   UNL     1     139.902  71.504 224.245 -0.27 +0.05    -0.246 NA 
DOCKED: ATOM     23  C   UNL     1     138.920  69.651 223.100 -0.22 -0.01    +0.031 A  
DOCKED: ATOM     24  C   UNL     1     140.176  70.732 225.329 -0.47 -0.01    +0.071 A  
DOCKED: ATOM     25  C   UNL     1     139.187  68.832 224.201 -0.32 -0.00    +0.013 A  
DOCKED: ATOM     26  C   UNL     1     140.807  71.290 226.447 -0.65 -0.00    +0.030 A  
DOCKED: ATOM     27  C   UNL     1     139.820  69.367 225.330 -0.43 -0.00    +0.002 A  
DOCKED: ATOM     28  C   UNL     1     141.087  70.493 227.561 -0.60 -0.00    +0.023 A  
DOCKED: ATOM     29  C   UNL     1     140.103  68.574 226.451 -0.57 -0.01    +0.030 A  
DOCKED: ATOM     30  C   UNL     1     140.736  69.138 227.565 -0.59 -0.01    +0.041 A  
DOCKED: ATOM     31  Cl  UNL     1     141.090  68.146 228.968 -0.54 +0.02    -0.084 Cl 
DOCKED: ENDBRANCH  19  21
DOCKED: ENDBRANCH  18  19
DOCKED: ENDBRANCH   1  18
DOCKED: TORSDOF 9
DOCKED: TER
DOCKED: ENDMDL
________________________________________________________________________________


    FINAL DOCKED STATE:
    ________________________


Run:   5 / 20
Time taken for this run:   0.071s

DOCKED: MODEL        5
DOCKED: USER    Run = 5
DOCKED: USER
DOCKED: USER    Estimated Free Energy of Binding    =  -6.85 kcal/mol  [=(1)+(2)+(3)-(4)]
DOCKED: USER
DOCKED: USER    (1) Final Intermolecular Energy     =  -9.54 kcal/mol
DOCKED: USER        vdW + Hbond + desolv Energy     =  -9.52 kcal/mol
DOCKED: USER        Electrostatic Energy            =  -0.02 kcal/mol
DOCKED: USER        Moving Ligand-Fixed Receptor    =  -9.54 kcal/mol
DOCKED: USER        Moving Ligand-Moving Receptor   =  +0.00 kcal/mol
DOCKED: USER    (2) Final Total Internal Energy     =  -2.82 kcal/mol
DOCKED: USER    (3) Torsional Free Energy           =  +2.68 kcal/mol
DOCKED: USER    (4) Unbound System's Energy         =  -2.82 kcal/mol
DOCKED: USER
DOCKED: USER
DOCKED: REMARK SMILES O=C([N-]/C=C(/O)N1C[C@H](O)C[C@H]1Cn1cccc1)c1ccc2cc(Cl)ccc2n1
DOCKED: REMARK SMILES IDX 4 1 5 2 6 3 7 5 8 6 12 7 9 8 11 9 13 10 14 11 15 12 18 13
DOCKED: REMARK SMILES IDX 16 14 17 15 10 16 3 18 2 19 1 20 19 21 29 22 20 23 28 24
DOCKED: REMARK SMILES IDX 21 25 27 26 22 27 26 28 23 29 24 30 25 31
DOCKED: REMARK H PARENT 6 4 10 17
DOCKED: USER                              x       y       z     vdW  Elec       q    Type
DOCKED: USER                           _______ _______ _______ _____ _____    ______ ____
DOCKED: ROOT
DOCKED: ATOM      1  C   UNL     1     140.202  71.803 220.949 -0.15 +0.01    -0.069 C  
DOCKED: ENDROOT
DOCKED: BRANCH   1   2
DOCKED: ATOM      2  C   UNL     1     140.956  72.752 221.527 -0.22 -0.02    +0.164 C  
DOCKED: BRANCH   2   3
DOCKED: ATOM      3  O   UNL     1     140.500  73.346 222.706 -0.54 -0.04    -0.496 OA 
DOCKED: ATOM      4  H   UNL     1     139.594  73.128 223.107 -0.31 -0.07    +0.295 HD 
DOCKED: ENDBRANCH   2   3
DOCKED: BRANCH   2   5
DOCKED: ATOM      5  N   UNL     1     142.212  73.213 220.978 -0.11 +0.05    -0.337 N  
DOCKED: ATOM      6  C   UNL     1     143.157  72.267 220.409 -0.21 -0.02    +0.151 C  
DOCKED: ATOM      7  C   UNL     1     142.672  74.599 220.853 -0.16 -0.04    +0.107 C  
DOCKED: ATOM      8  C   UNL     1     144.450  73.050 220.183 -0.34 -0.02    +0.136 C  
DOCKED: ATOM      9  C   UNL     1     144.049  74.528 220.173 -0.40 -0.02    +0.060 C  
DOCKED: BRANCH   7  10
DOCKED: ATOM     10  C   UNL     1     141.668  75.489 220.079 -0.20 -0.06    +0.146 C  
DOCKED: BRANCH  10  11
DOCKED: ATOM     11  N   UNL     1     140.463  75.791 220.859 -0.09 +0.10    -0.352 N  
DOCKED: ATOM     12  C   UNL     1     140.409  76.502 222.003 -0.35 -0.02    +0.085 A  
DOCKED: ATOM     13  C   UNL     1     139.197  75.460 220.536 -0.11 -0.02    +0.085 A  
DOCKED: ATOM     14  C   UNL     1     139.099  76.607 222.426 -0.31 -0.00    +0.019 A  
DOCKED: ATOM     15  C   UNL     1     138.328  75.944 221.492 -0.20 -0.00    +0.019 A  
DOCKED: ENDBRANCH  10  11
DOCKED: ENDBRANCH   7  10
DOCKED: BRANCH   8  16
DOCKED: ATOM     16  O   UNL     1     145.385  72.787 221.201 -0.29 +0.08    -0.391 OA 
DOCKED: ATOM     17  H   UNL     1     145.171  71.897 221.589 -0.42 -0.14    +0.211 HD 
DOCKED: ENDBRANCH   8  16
DOCKED: ENDBRANCH   2   5
DOCKED: ENDBRANCH   1   2
DOCKED: BRANCH   1  18
DOCKED: ATOM     18  N   UNL     1     138.796  71.706 221.175 +0.03 +0.12    -0.623 NA 
DOCKED: BRANCH  18  19
DOCKED: ATOM     19  C   UNL     1     138.183  71.801 222.462 -0.16 -0.03    +0.104 C  
DOCKED: ATOM     20  O   UNL     1     137.263  72.639 222.670 -0.10 +0.10    -0.313 OA 
DOCKED: BRANCH  19  21
DOCKED: ATOM     21  C   UNL     1     138.645  70.914 223.545 -0.25 -0.02    +0.089 A  
DOCKED: ATOM     22  N   UNL     1     139.393  71.438 224.555 -0.21 +0.06    -0.246 NA 
DOCKED: ATOM     23  C   UNL     1     138.324  69.548 223.559 -0.25 -0.00    +0.031 A  
DOCKED: ATOM     24  C   UNL     1     139.848  70.679 225.587 -0.44 -0.01    +0.071 A  
DOCKED: ATOM     25  C   UNL     1     138.776  68.742 224.607 -0.37 -0.00    +0.013 A  
DOCKED: ATOM     26  C   UNL     1     140.612  71.262 226.604 -0.64 -0.00    +0.030 A  
DOCKED: ATOM     27  C   UNL     1     139.545  69.302 225.635 -0.45 -0.00    +0.002 A  
DOCKED: ATOM     28  C   UNL     1     141.078  70.479 227.664 -0.61 -0.00    +0.023 A  
DOCKED: ATOM     29  C   UNL     1     140.014  68.522 226.702 -0.59 -0.01    +0.030 A  
DOCKED: ATOM     30  C   UNL     1     140.780  69.112 227.715 -0.59 -0.01    +0.041 A  
DOCKED: ATOM     31  Cl  UNL     1     141.367  68.137 229.050 -0.49 +0.02    -0.084 Cl 
DOCKED: ENDBRANCH  19  21
DOCKED: ENDBRANCH  18  19
DOCKED: ENDBRANCH   1  18
DOCKED: TORSDOF 9
DOCKED: TER
DOCKED: ENDMDL
________________________________________________________________________________


    FINAL DOCKED STATE:
    ________________________


Run:   6 / 20
Time taken for this run:   0.071s

DOCKED: MODEL        6
DOCKED: USER    Run = 6
DOCKED: USER
DOCKED: USER    Estimated Free Energy of Binding    =  -7.00 kcal/mol  [=(1)+(2)+(3)-(4)]
DOCKED: USER
DOCKED: USER    (1) Final Intermolecular Energy     =  -9.69 kcal/mol
DOCKED: USER        vdW + Hbond + desolv Energy     =  -9.67 kcal/mol
DOCKED: USER        Electrostatic Energy            =  -0.02 kcal/mol
DOCKED: USER        Moving Ligand-Fixed Receptor    =  -9.69 kcal/mol
DOCKED: USER        Moving Ligand-Moving Receptor   =  +0.00 kcal/mol
DOCKED: USER    (2) Final Total Internal Energy     =  -2.26 kcal/mol
DOCKED: USER    (3) Torsional Free Energy           =  +2.68 kcal/mol
DOCKED: USER    (4) Unbound System's Energy         =  -2.26 kcal/mol
DOCKED: USER
DOCKED: USER
DOCKED: REMARK SMILES O=C([N-]/C=C(/O)N1C[C@H](O)C[C@H]1Cn1cccc1)c1ccc2cc(Cl)ccc2n1
DOCKED: REMARK SMILES IDX 4 1 5 2 6 3 7 5 8 6 12 7 9 8 11 9 13 10 14 11 15 12 18 13
DOCKED: REMARK SMILES IDX 16 14 17 15 10 16 3 18 2 19 1 20 19 21 29 22 20 23 28 24
DOCKED: REMARK SMILES IDX 21 25 27 26 22 27 26 28 23 29 24 30 25 31
DOCKED: REMARK H PARENT 6 4 10 17
DOCKED: USER                              x       y       z     vdW  Elec       q    Type
DOCKED: USER                           _______ _______ _______ _____ _____    ______ ____
DOCKED: ROOT
DOCKED: ATOM      1  C   UNL     1     140.242  71.816 220.978 -0.15 +0.01    -0.069 C  
DOCKED: ENDROOT
DOCKED: BRANCH   1   2
DOCKED: ATOM      2  C   UNL     1     141.008  72.757 221.554 -0.22 -0.02    +0.164 C  
DOCKED: BRANCH   2   3
DOCKED: ATOM      3  O   UNL     1     140.540  73.388 222.708 -0.52 -0.05    -0.496 OA 
DOCKED: ATOM      4  H   UNL     1     139.619  73.204 223.092 -0.32 -0.07    +0.295 HD 
DOCKED: ENDBRANCH   2   3
DOCKED: BRANCH   2   5
DOCKED: ATOM      5  N   UNL     1     142.288  73.174 221.025 -0.10 +0.05    -0.337 N  
DOCKED: ATOM      6  C   UNL     1     143.335  72.198 220.779 -0.21 -0.02    +0.151 C  
DOCKED: ATOM      7  C   UNL     1     142.684  74.525 220.619 -0.24 -0.04    +0.107 C  
DOCKED: ATOM      8  C   UNL     1     144.601  73.003 220.491 -0.38 -0.02    +0.136 C  
DOCKED: ATOM      9  C   UNL     1     144.126  74.405 220.099 -0.41 -0.02    +0.060 C  
DOCKED: BRANCH   7  10
DOCKED: ATOM     10  C   UNL     1     141.720  75.137 219.573 -0.15 -0.05    +0.146 C  
DOCKED: BRANCH  10  11
DOCKED: ATOM     11  N   UNL     1     141.906  76.583 219.410 -0.09 +0.17    -0.352 N  
DOCKED: ATOM     12  C   UNL     1     141.477  77.544 220.253 -0.24 -0.04    +0.085 A  
DOCKED: ATOM     13  C   UNL     1     142.586  77.196 218.421 -0.28 -0.05    +0.085 A  
DOCKED: ATOM     14  C   UNL     1     141.867  78.783 219.787 -0.27 -0.01    +0.019 A  
DOCKED: ATOM     15  C   UNL     1     142.573  78.561 218.620 -0.30 -0.02    +0.019 A  
DOCKED: ENDBRANCH  10  11
DOCKED: ENDBRANCH   7  10
DOCKED: BRANCH   8  16
DOCKED: ATOM     16  O   UNL     1     145.438  73.051 221.621 -0.32 +0.10    -0.391 OA 
DOCKED: ATOM     17  H   UNL     1     145.554  72.122 221.954 -0.43 -0.15    +0.211 HD 
DOCKED: ENDBRANCH   8  16
DOCKED: ENDBRANCH   2   5
DOCKED: ENDBRANCH   1   2
DOCKED: BRANCH   1  18
DOCKED: ATOM     18  N   UNL     1     138.818  71.836 221.064 +0.03 +0.12    -0.623 NA 
DOCKED: BRANCH  18  19
DOCKED: ATOM     19  C   UNL     1     138.089  71.793 222.293 -0.15 -0.03    +0.104 C  
DOCKED: ATOM     20  O   UNL     1     137.062  72.508 222.449 -0.09 +0.09    -0.313 OA 
DOCKED: BRANCH  19  21
DOCKED: ATOM     21  C   UNL     1     138.558  70.911 223.376 -0.23 -0.02    +0.089 A  
DOCKED: ATOM     22  N   UNL     1     139.339  71.431 224.363 -0.21 +0.06    -0.246 NA 
DOCKED: ATOM     23  C   UNL     1     138.211  69.551 223.414 -0.24 -0.00    +0.031 A  
DOCKED: ATOM     24  C   UNL     1     139.802  70.676 225.394 -0.43 -0.01    +0.071 A  
DOCKED: ATOM     25  C   UNL     1     138.671  68.749 224.462 -0.35 -0.00    +0.013 A  
DOCKED: ATOM     26  C   UNL     1     140.600  71.257 226.386 -0.62 -0.00    +0.030 A  
DOCKED: ATOM     27  C   UNL     1     139.474  69.306 225.465 -0.43 -0.00    +0.002 A  
DOCKED: ATOM     28  C   UNL     1     141.073  70.477 227.446 -0.60 -0.00    +0.023 A  
DOCKED: ATOM     29  C   UNL     1     139.951  68.530 226.531 -0.58 -0.01    +0.030 A  
DOCKED: ATOM     30  C   UNL     1     140.750  69.117 227.520 -0.59 -0.01    +0.041 A  
DOCKED: ATOM     31  Cl  UNL     1     141.349  68.146 228.853 -0.56 +0.02    -0.084 Cl 
DOCKED: ENDBRANCH  19  21
DOCKED: ENDBRANCH  18  19
DOCKED: ENDBRANCH   1  18
DOCKED: TORSDOF 9
DOCKED: TER
DOCKED: ENDMDL
________________________________________________________________________________


    FINAL DOCKED STATE:
    ________________________


Run:   7 / 20
Time taken for this run:   0.071s

DOCKED: MODEL        7
DOCKED: USER    Run = 7
DOCKED: USER
DOCKED: USER    Estimated Free Energy of Binding    =  -8.09 kcal/mol  [=(1)+(2)+(3)-(4)]
DOCKED: USER
DOCKED: USER    (1) Final Intermolecular Energy     = -10.77 kcal/mol
DOCKED: USER        vdW + Hbond + desolv Energy     = -10.73 kcal/mol
DOCKED: USER        Electrostatic Energy            =  -0.05 kcal/mol
DOCKED: USER        Moving Ligand-Fixed Receptor    = -10.77 kcal/mol
DOCKED: USER        Moving Ligand-Moving Receptor   =  +0.00 kcal/mol
DOCKED: USER    (2) Final Total Internal Energy     =  -1.81 kcal/mol
DOCKED: USER    (3) Torsional Free Energy           =  +2.68 kcal/mol
DOCKED: USER    (4) Unbound System's Energy         =  -1.81 kcal/mol
DOCKED: USER
DOCKED: USER
DOCKED: REMARK SMILES O=C([N-]/C=C(/O)N1C[C@H](O)C[C@H]1Cn1cccc1)c1ccc2cc(Cl)ccc2n1
DOCKED: REMARK SMILES IDX 4 1 5 2 6 3 7 5 8 6 12 7 9 8 11 9 13 10 14 11 15 12 18 13
DOCKED: REMARK SMILES IDX 16 14 17 15 10 16 3 18 2 19 1 20 19 21 29 22 20 23 28 24
DOCKED: REMARK SMILES IDX 21 25 27 26 22 27 26 28 23 29 24 30 25 31
DOCKED: REMARK H PARENT 6 4 10 17
DOCKED: USER                              x       y       z     vdW  Elec       q    Type
DOCKED: USER                           _______ _______ _______ _____ _____    ______ ____
DOCKED: ROOT
DOCKED: ATOM      1  C   UNL     1     140.641  75.218 221.479 -0.31 +0.01    -0.069 C  
DOCKED: ENDROOT
DOCKED: BRANCH   1   2
DOCKED: ATOM      2  C   UNL     1     139.952  76.173 222.126 -0.28 -0.03    +0.164 C  
DOCKED: BRANCH   2   3
DOCKED: ATOM      3  O   UNL     1     138.752  75.827 222.749 -0.19 +0.12    -0.496 OA 
DOCKED: ATOM      4  H   UNL     1     138.456  74.863 222.861 -0.44 -0.14    +0.295 HD 
DOCKED: ENDBRANCH   2   3
DOCKED: BRANCH   2   5
DOCKED: ATOM      5  N   UNL     1     140.376  77.554 222.190 -0.18 +0.10    -0.337 N  
DOCKED: ATOM      6  C   UNL     1     141.464  78.029 221.353 -0.27 -0.08    +0.151 C  
DOCKED: ATOM      7  C   UNL     1     139.785  78.628 222.992 -0.31 -0.02    +0.107 C  
DOCKED: ATOM      8  C   UNL     1     141.813  79.424 221.868 -0.39 -0.06    +0.136 C  
DOCKED: ATOM      9  C   UNL     1     140.590  79.895 222.661 -0.38 -0.01    +0.060 C  
DOCKED: BRANCH   7  10
DOCKED: ATOM     10  C   UNL     1     138.269  78.799 222.729 -0.21 -0.02    +0.146 C  
DOCKED: BRANCH  10  11
DOCKED: ATOM     11  N   UNL     1     137.632  79.723 223.673 -0.10 +0.04    -0.352 N  
DOCKED: ATOM     12  C   UNL     1     138.261  80.521 224.559 -0.34 -0.01    +0.085 A  
DOCKED: ATOM     13  C   UNL     1     136.312  79.976 223.778 -0.18 -0.01    +0.085 A  
DOCKED: ATOM     14  C   UNL     1     137.334  81.274 225.251 -0.41 -0.00    +0.019 A  
DOCKED: ATOM     15  C   UNL     1     136.093  80.927 224.753 -0.25 -0.00    +0.019 A  
DOCKED: ENDBRANCH  10  11
DOCKED: ENDBRANCH   7  10
DOCKED: BRANCH   8  16
DOCKED: ATOM     16  O   UNL     1     142.961  79.391 222.681 -0.33 +0.21    -0.391 OA 
DOCKED: ATOM     17  H   UNL     1     143.655  78.862 222.206 -0.45 -0.21    +0.211 HD 
DOCKED: ENDBRANCH   8  16
DOCKED: ENDBRANCH   2   5
DOCKED: ENDBRANCH   1   2
DOCKED: BRANCH   1  18
DOCKED: ATOM     18  N   UNL     1     140.766  73.891 221.989 -0.52 +0.01    -0.623 NA 
DOCKED: BRANCH  18  19
DOCKED: ATOM     19  C   UNL     1     139.663  73.007 222.200 -0.23 -0.02    +0.104 C  
DOCKED: ATOM     20  O   UNL     1     138.599  73.147 221.536 -0.10 +0.07    -0.313 OA 
DOCKED: BRANCH  19  21
DOCKED: ATOM     21  C   UNL     1     139.781  71.937 223.206 -0.29 -0.02    +0.089 A  
DOCKED: ATOM     22  N   UNL     1     140.300  72.234 224.430 -0.01 +0.04    -0.246 NA 
DOCKED: ATOM     23  C   UNL     1     139.364  70.625 222.932 -0.25 -0.01    +0.031 A  
DOCKED: ATOM     24  C   UNL     1     140.433  71.298 225.406 -0.50 -0.01    +0.071 A  
DOCKED: ATOM     25  C   UNL     1     139.487  69.641 223.916 -0.28 -0.00    +0.013 A  
DOCKED: ATOM     26  C   UNL     1     140.971  71.651 226.649 -0.70 -0.00    +0.030 A  
DOCKED: ATOM     27  C   UNL     1     140.025  69.969 225.167 -0.43 -0.00    +0.002 A  
DOCKED: ATOM     28  C   UNL     1     141.105  70.686 227.651 -0.61 -0.00    +0.023 A  
DOCKED: ATOM     29  C   UNL     1     140.161  69.006 226.177 -0.51 -0.01    +0.030 A  
DOCKED: ATOM     30  C   UNL     1     140.702  69.366 227.418 -0.58 -0.01    +0.041 A  
DOCKED: ATOM     31  Cl  UNL     1     140.874  68.161 228.681 -0.67 +0.02    -0.084 Cl 
DOCKED: ENDBRANCH  19  21
DOCKED: ENDBRANCH  18  19
DOCKED: ENDBRANCH   1  18
DOCKED: TORSDOF 9
DOCKED: TER
DOCKED: ENDMDL
________________________________________________________________________________


    FINAL DOCKED STATE:
    ________________________


Run:   8 / 20
Time taken for this run:   0.071s

DOCKED: MODEL        8
DOCKED: USER    Run = 8
DOCKED: USER
DOCKED: USER    Estimated Free Energy of Binding    =  -7.48 kcal/mol  [=(1)+(2)+(3)-(4)]
DOCKED: USER
DOCKED: USER    (1) Final Intermolecular Energy     = -10.17 kcal/mol
DOCKED: USER        vdW + Hbond + desolv Energy     = -10.00 kcal/mol
DOCKED: USER        Electrostatic Energy            =  -0.16 kcal/mol
DOCKED: USER        Moving Ligand-Fixed Receptor    = -10.17 kcal/mol
DOCKED: USER        Moving Ligand-Moving Receptor   =  +0.00 kcal/mol
DOCKED: USER    (2) Final Total Internal Energy     =  -2.22 kcal/mol
DOCKED: USER    (3) Torsional Free Energy           =  +2.68 kcal/mol
DOCKED: USER    (4) Unbound System's Energy         =  -2.22 kcal/mol
DOCKED: USER
DOCKED: USER
DOCKED: REMARK SMILES O=C([N-]/C=C(/O)N1C[C@H](O)C[C@H]1Cn1cccc1)c1ccc2cc(Cl)ccc2n1
DOCKED: REMARK SMILES IDX 4 1 5 2 6 3 7 5 8 6 12 7 9 8 11 9 13 10 14 11 15 12 18 13
DOCKED: REMARK SMILES IDX 16 14 17 15 10 16 3 18 2 19 1 20 19 21 29 22 20 23 28 24
DOCKED: REMARK SMILES IDX 21 25 27 26 22 27 26 28 23 29 24 30 25 31
DOCKED: REMARK H PARENT 6 4 10 17
DOCKED: USER                              x       y       z     vdW  Elec       q    Type
DOCKED: USER                           _______ _______ _______ _____ _____    ______ ____
DOCKED: ROOT
DOCKED: ATOM      1  C   UNL     1     141.817  73.725 221.226 -0.18 +0.01    -0.069 C  
DOCKED: ENDROOT
DOCKED: BRANCH   1   2
DOCKED: ATOM      2  C   UNL     1     142.124  72.810 220.292 -0.16 -0.03    +0.164 C  
DOCKED: BRANCH   2   3
DOCKED: ATOM      3  O   UNL     1     141.089  72.236 219.551 +0.01 +0.09    -0.496 OA 
DOCKED: ATOM      4  H   UNL     1     140.112  72.397 219.769 +0.05 -0.05    +0.295 HD 
DOCKED: ENDBRANCH   2   3
DOCKED: BRANCH   2   5
DOCKED: ATOM      5  N   UNL     1     143.475  72.365 220.029 -0.09 +0.04    -0.337 N  
DOCKED: ATOM      6  C   UNL     1     144.604  73.039 220.646 -0.37 -0.02    +0.151 C  
DOCKED: ATOM      7  C   UNL     1     143.890  71.216 219.220 -0.16 +0.00    +0.107 C  
DOCKED: ATOM      8  C   UNL     1     145.850  72.495 219.948 -0.36 +0.05    +0.136 C  
DOCKED: ATOM      9  C   UNL     1     145.424  71.173 219.301 -0.27 +0.03    +0.060 C  
DOCKED: BRANCH   7  10
DOCKED: ATOM     10  C   UNL     1     143.230  69.894 219.686 -0.13 -0.01    +0.146 C  
DOCKED: BRANCH  10  11
DOCKED: ATOM     11  N   UNL     1     144.023  68.712 219.332 -0.11 +0.01    -0.352 N  
DOCKED: ATOM     12  C   UNL     1     143.980  68.040 218.164 -0.16 -0.02    +0.085 A  
DOCKED: ATOM     13  C   UNL     1     144.971  68.127 220.092 -0.34 +0.02    +0.085 A  
DOCKED: ATOM     14  C   UNL     1     144.892  67.005 218.185 -0.35 -0.01    +0.019 A  
DOCKED: ATOM     15  C   UNL     1     145.523  67.061 219.413 -0.53 -0.00    +0.019 A  
DOCKED: ENDBRANCH  10  11
DOCKED: ENDBRANCH   7  10
DOCKED: BRANCH   8  16
DOCKED: ATOM     16  O   UNL     1     146.325  73.400 218.982 -0.68 -0.26    -0.391 OA 
DOCKED: ATOM     17  H   UNL     1     145.919  74.288 219.170 -0.42 -0.08    +0.211 HD 
DOCKED: ENDBRANCH   8  16
DOCKED: ENDBRANCH   2   5
DOCKED: ENDBRANCH   1   2
DOCKED: BRANCH   1  18
DOCKED: ATOM     18  N   UNL     1     140.560  73.731 221.903 -0.52 +0.03    -0.623 NA 
DOCKED: BRANCH  18  19
DOCKED: ATOM     19  C   UNL     1     139.658  72.622 221.925 -0.23 -0.02    +0.104 C  
DOCKED: ATOM     20  O   UNL     1     138.767  72.509 221.040 -0.05 +0.06    -0.313 OA 
DOCKED: BRANCH  19  21
DOCKED: ATOM     21  C   UNL     1     139.778  71.620 222.999 -0.30 -0.02    +0.089 A  
DOCKED: ATOM     22  N   UNL     1     140.287  71.999 224.204 -0.22 +0.04    -0.246 NA 
DOCKED: ATOM     23  C   UNL     1     139.372  70.290 222.808 -0.22 -0.01    +0.031 A  
DOCKED: ATOM     24  C   UNL     1     140.421  71.129 225.239 -0.50 -0.01    +0.071 A  
DOCKED: ATOM     25  C   UNL     1     139.496  69.372 223.854 -0.25 -0.00    +0.013 A  
DOCKED: ATOM     26  C   UNL     1     140.948  71.565 226.460 -0.68 -0.00    +0.030 A  
DOCKED: ATOM     27  C   UNL     1     140.023  69.784 225.084 -0.42 -0.00    +0.002 A  
DOCKED: ATOM     28  C   UNL     1     141.084  70.667 227.523 -0.62 -0.00    +0.023 A  
DOCKED: ATOM     29  C   UNL     1     140.161  68.888 226.155 -0.52 -0.01    +0.030 A  
DOCKED: ATOM     30  C   UNL     1     140.691  69.331 227.373 -0.58 -0.01    +0.041 A  
DOCKED: ATOM     31  Cl  UNL     1     140.864  68.212 228.712 -0.67 +0.02    -0.084 Cl 
DOCKED: ENDBRANCH  19  21
DOCKED: ENDBRANCH  18  19
DOCKED: ENDBRANCH   1  18
DOCKED: TORSDOF 9
DOCKED: TER
DOCKED: ENDMDL
________________________________________________________________________________


    FINAL DOCKED STATE:
    ________________________


Run:   9 / 20
Time taken for this run:   0.071s

DOCKED: MODEL        9
DOCKED: USER    Run = 9
DOCKED: USER
DOCKED: USER    Estimated Free Energy of Binding    =  -7.17 kcal/mol  [=(1)+(2)+(3)-(4)]
DOCKED: USER
DOCKED: USER    (1) Final Intermolecular Energy     =  -9.85 kcal/mol
DOCKED: USER        vdW + Hbond + desolv Energy     =  -9.92 kcal/mol
DOCKED: USER        Electrostatic Energy            =  +0.07 kcal/mol
DOCKED: USER        Moving Ligand-Fixed Receptor    =  -9.85 kcal/mol
DOCKED: USER        Moving Ligand-Moving Receptor   =  +0.00 kcal/mol
DOCKED: USER    (2) Final Total Internal Energy     =  -2.05 kcal/mol
DOCKED: USER    (3) Torsional Free Energy           =  +2.68 kcal/mol
DOCKED: USER    (4) Unbound System's Energy         =  -2.05 kcal/mol
DOCKED: USER
DOCKED: USER
DOCKED: REMARK SMILES O=C([N-]/C=C(/O)N1C[C@H](O)C[C@H]1Cn1cccc1)c1ccc2cc(Cl)ccc2n1
DOCKED: REMARK SMILES IDX 4 1 5 2 6 3 7 5 8 6 12 7 9 8 11 9 13 10 14 11 15 12 18 13
DOCKED: REMARK SMILES IDX 16 14 17 15 10 16 3 18 2 19 1 20 19 21 29 22 20 23 28 24
DOCKED: REMARK SMILES IDX 21 25 27 26 22 27 26 28 23 29 24 30 25 31
DOCKED: REMARK H PARENT 6 4 10 17
DOCKED: USER                              x       y       z     vdW  Elec       q    Type
DOCKED: USER                           _______ _______ _______ _____ _____    ______ ____
DOCKED: ROOT
DOCKED: ATOM      1  C   UNL     1     141.388  74.869 221.250 -0.28 +0.02    -0.069 C  
DOCKED: ENDROOT
DOCKED: BRANCH   1   2
DOCKED: ATOM      2  C   UNL     1     140.750  75.561 220.293 -0.15 -0.05    +0.164 C  
DOCKED: BRANCH   2   3
DOCKED: ATOM      3  O   UNL     1     139.612  75.001 219.707 +0.01 +0.12    -0.496 OA 
DOCKED: ATOM      4  H   UNL     1     139.227  74.113 220.010 +0.05 -0.06    +0.295 HD 
DOCKED: ENDBRANCH   2   3
DOCKED: BRANCH   2   5
DOCKED: ATOM      5  N   UNL     1     141.193  76.852 219.814 -0.06 +0.14    -0.337 N  
DOCKED: ATOM      6  C   UNL     1     141.008  77.223 218.422 -0.08 -0.06    +0.151 C  
DOCKED: ATOM      7  C   UNL     1     141.789  77.934 220.602 -0.27 -0.07    +0.107 C  
DOCKED: ATOM      8  C   UNL     1     141.818  78.502 218.218 -0.20 -0.09    +0.136 C  
DOCKED: ATOM      9  C   UNL     1     142.038  79.087 219.616 -0.14 -0.04    +0.060 C  
DOCKED: BRANCH   7  10
DOCKED: ATOM     10  C   UNL     1     140.903  78.353 221.800 -0.30 -0.06    +0.146 C  
DOCKED: BRANCH  10  11
DOCKED: ATOM     11  N   UNL     1     141.511  79.415 222.609 -0.21 +0.12    -0.352 N  
DOCKED: ATOM     12  C   UNL     1     140.880  80.490 223.122 -0.42 -0.02    +0.085 A  
DOCKED: ATOM     13  C   UNL     1     142.791  79.468 223.027 -0.51 -0.04    +0.085 A  
DOCKED: ATOM     14  C   UNL     1     141.770  81.249 223.855 -0.57 -0.00    +0.019 A  
DOCKED: ATOM     15  C   UNL     1     142.987  80.597 223.795 -0.66 -0.00    +0.019 A  
DOCKED: ENDBRANCH  10  11
DOCKED: ENDBRANCH   7  10
DOCKED: BRANCH   8  16
DOCKED: ATOM     16  O   UNL     1     143.045  78.229 217.585 -0.19 +0.39    -0.391 OA 
DOCKED: ATOM     17  H   UNL     1     143.331  79.052 217.108 -0.50 -0.36    +0.211 HD 
DOCKED: ENDBRANCH   8  16
DOCKED: ENDBRANCH   2   5
DOCKED: ENDBRANCH   1   2
DOCKED: BRANCH   1  18
DOCKED: ATOM     18  N   UNL     1     141.118  73.490 221.502 -0.14 +0.06    -0.623 NA 
DOCKED: BRANCH  18  19
DOCKED: ATOM     19  C   UNL     1     139.896  73.003 222.062 -0.25 -0.02    +0.104 C  
DOCKED: ATOM     20  O   UNL     1     138.790  73.472 221.680 -0.15 +0.08    -0.313 OA 
DOCKED: BRANCH  19  21
DOCKED: ATOM     21  C   UNL     1     139.948  71.953 223.094 -0.31 -0.02    +0.089 A  
DOCKED: ATOM     22  N   UNL     1     140.434  72.262 224.329 -0.05 +0.04    -0.246 NA 
DOCKED: ATOM     23  C   UNL     1     139.500  70.648 222.834 -0.24 -0.01    +0.031 A  
DOCKED: ATOM     24  C   UNL     1     140.504  71.344 225.329 -0.50 -0.01    +0.071 A  
DOCKED: ATOM     25  C   UNL     1     139.559  69.683 223.843 -0.28 -0.00    +0.013 A  
DOCKED: ATOM     26  C   UNL     1     141.011  71.709 226.581 -0.70 -0.00    +0.030 A  
DOCKED: ATOM     27  C   UNL     1     140.064  70.023 225.104 -0.43 -0.00    +0.002 A  
DOCKED: ATOM     28  C   UNL     1     141.081  70.762 227.608 -0.64 -0.00    +0.023 A  
DOCKED: ATOM     29  C   UNL     1     140.137  69.079 226.139 -0.50 -0.01    +0.030 A  
DOCKED: ATOM     30  C   UNL     1     140.645  69.450 227.390 -0.57 -0.01    +0.041 A  
DOCKED: ATOM     31  Cl  UNL     1     140.738  68.269 228.684 -0.67 +0.02    -0.084 Cl 
DOCKED: ENDBRANCH  19  21
DOCKED: ENDBRANCH  18  19
DOCKED: ENDBRANCH   1  18
DOCKED: TORSDOF 9
DOCKED: TER
DOCKED: ENDMDL
________________________________________________________________________________


    FINAL DOCKED STATE:
    ________________________


Run:   10 / 20
Time taken for this run:   0.071s

DOCKED: MODEL        10
DOCKED: USER    Run = 10
DOCKED: USER
DOCKED: USER    Estimated Free Energy of Binding    =  -7.59 kcal/mol  [=(1)+(2)+(3)-(4)]
DOCKED: USER
DOCKED: USER    (1) Final Intermolecular Energy     = -10.27 kcal/mol
DOCKED: USER        vdW + Hbond + desolv Energy     = -10.31 kcal/mol
DOCKED: USER        Electrostatic Energy            =  +0.04 kcal/mol
DOCKED: USER        Moving Ligand-Fixed Receptor    = -10.27 kcal/mol
DOCKED: USER        Moving Ligand-Moving Receptor   =  +0.00 kcal/mol
DOCKED: USER    (2) Final Total Internal Energy     =  -1.97 kcal/mol
DOCKED: USER    (3) Torsional Free Energy           =  +2.68 kcal/mol
DOCKED: USER    (4) Unbound System's Energy         =  -1.97 kcal/mol
DOCKED: USER
DOCKED: USER
DOCKED: REMARK SMILES O=C([N-]/C=C(/O)N1C[C@H](O)C[C@H]1Cn1cccc1)c1ccc2cc(Cl)ccc2n1
DOCKED: REMARK SMILES IDX 4 1 5 2 6 3 7 5 8 6 12 7 9 8 11 9 13 10 14 11 15 12 18 13
DOCKED: REMARK SMILES IDX 16 14 17 15 10 16 3 18 2 19 1 20 19 21 29 22 20 23 28 24
DOCKED: REMARK SMILES IDX 21 25 27 26 22 27 26 28 23 29 24 30 25 31
DOCKED: REMARK H PARENT 6 4 10 17
DOCKED: USER                              x       y       z     vdW  Elec       q    Type
DOCKED: USER                           _______ _______ _______ _____ _____    ______ ____
DOCKED: ROOT
DOCKED: ATOM      1  C   UNL     1     140.723  74.601 221.226 -0.28 +0.01    -0.069 C  
DOCKED: ENDROOT
DOCKED: BRANCH   1   2
DOCKED: ATOM      2  C   UNL     1     140.001  75.666 221.610 -0.27 -0.04    +0.164 C  
DOCKED: BRANCH   2   3
DOCKED: ATOM      3  O   UNL     1     139.076  75.512 222.645 -0.30 +0.11    -0.496 OA 
DOCKED: ATOM      4  H   UNL     1     138.848  74.605 223.037 -0.48 -0.14    +0.295 HD 
DOCKED: ENDBRANCH   2   3
DOCKED: BRANCH   2   5
DOCKED: ATOM      5  N   UNL     1     140.112  76.967 220.988 -0.07 +0.10    -0.337 N  
DOCKED: ATOM      6  C   UNL     1     139.288  77.307 219.841 -0.05 -0.04    +0.151 C  
DOCKED: ATOM      7  C   UNL     1     140.954  78.088 221.417 -0.29 -0.04    +0.107 C  
DOCKED: ATOM      8  C   UNL     1     139.851  78.618 219.293 -0.06 -0.04    +0.136 C  
DOCKED: ATOM      9  C   UNL     1     140.665  79.234 220.435 -0.20 -0.02    +0.060 C  
DOCKED: BRANCH   7  10
DOCKED: ATOM     10  C   UNL     1     140.703  78.487 222.892 -0.37 -0.04    +0.146 C  
DOCKED: BRANCH  10  11
DOCKED: ATOM     11  N   UNL     1     141.531  79.620 223.320 -0.25 +0.09    -0.352 N  
DOCKED: ATOM     12  C   UNL     1     141.088  80.784 223.836 -0.42 -0.01    +0.085 A  
DOCKED: ATOM     13  C   UNL     1     142.878  79.671 223.323 -0.47 -0.03    +0.085 A  
DOCKED: ATOM     14  C   UNL     1     142.160  81.594 224.152 -0.55 -0.00    +0.019 A  
DOCKED: ATOM     15  C   UNL     1     143.300  80.884 223.825 -0.57 -0.00    +0.019 A  
DOCKED: ENDBRANCH  10  11
DOCKED: ENDBRANCH   7  10
DOCKED: BRANCH   8  16
DOCKED: ATOM     16  O   UNL     1     140.658  78.389 218.164 -0.02 +0.17    -0.391 OA 
DOCKED: ATOM     17  H   UNL     1     141.057  79.257 217.893 +0.05 -0.11    +0.211 HD 
DOCKED: ENDBRANCH   8  16
DOCKED: ENDBRANCH   2   5
DOCKED: ENDBRANCH   1   2
DOCKED: BRANCH   1  18
DOCKED: ATOM     18  N   UNL     1     140.798  73.410 222.010 -0.44 +0.02    -0.623 NA 
DOCKED: BRANCH  18  19
DOCKED: ATOM     19  C   UNL     1     139.662  72.631 222.394 -0.24 -0.02    +0.104 C  
DOCKED: ATOM     20  O   UNL     1     138.545  72.820 221.842 -0.11 +0.08    -0.313 OA 
DOCKED: BRANCH  19  21
DOCKED: ATOM     21  C   UNL     1     139.813  71.613 223.448 -0.33 -0.02    +0.089 A  
DOCKED: ATOM     22  N   UNL     1     140.330  71.980 224.654 -0.18 +0.04    -0.246 NA 
DOCKED: ATOM     23  C   UNL     1     139.429  70.279 223.238 -0.25 -0.01    +0.031 A  
DOCKED: ATOM     24  C   UNL     1     140.491  71.094 225.672 -0.53 -0.01    +0.071 A  
DOCKED: ATOM     25  C   UNL     1     139.582  69.345 224.266 -0.30 -0.00    +0.013 A  
DOCKED: ATOM     26  C   UNL     1     141.026  71.518 226.893 -0.72 -0.00    +0.030 A  
DOCKED: ATOM     27  C   UNL     1     140.117  69.745 225.497 -0.46 -0.00    +0.002 A  
DOCKED: ATOM     28  C   UNL     1     141.190  70.604 227.939 -0.56 -0.00    +0.023 A  
DOCKED: ATOM     29  C   UNL     1     140.283  68.833 226.550 -0.56 -0.01    +0.030 A  
DOCKED: ATOM     30  C   UNL     1     140.820  69.264 227.769 -0.58 -0.01    +0.041 A  
DOCKED: ATOM     31  Cl  UNL     1     141.029  68.125 229.086 -0.44 +0.02    -0.084 Cl 
DOCKED: ENDBRANCH  19  21
DOCKED: ENDBRANCH  18  19
DOCKED: ENDBRANCH   1  18
DOCKED: TORSDOF 9
DOCKED: TER
DOCKED: ENDMDL
________________________________________________________________________________


    FINAL DOCKED STATE:
    ________________________


Run:   11 / 20
Time taken for this run:   0.071s

DOCKED: MODEL        11
DOCKED: USER    Run = 11
DOCKED: USER
DOCKED: USER    Estimated Free Energy of Binding    =  -7.53 kcal/mol  [=(1)+(2)+(3)-(4)]
DOCKED: USER
DOCKED: USER    (1) Final Intermolecular Energy     = -10.22 kcal/mol
DOCKED: USER        vdW + Hbond + desolv Energy     = -10.22 kcal/mol
DOCKED: USER        Electrostatic Energy            =  +0.00 kcal/mol
DOCKED: USER        Moving Ligand-Fixed Receptor    = -10.22 kcal/mol
DOCKED: USER        Moving Ligand-Moving Receptor   =  +0.00 kcal/mol
DOCKED: USER    (2) Final Total Internal Energy     =  -2.21 kcal/mol
DOCKED: USER    (3) Torsional Free Energy           =  +2.68 kcal/mol
DOCKED: USER    (4) Unbound System's Energy         =  -2.21 kcal/mol
DOCKED: USER
DOCKED: USER
DOCKED: REMARK SMILES O=C([N-]/C=C(/O)N1C[C@H](O)C[C@H]1Cn1cccc1)c1ccc2cc(Cl)ccc2n1
DOCKED: REMARK SMILES IDX 4 1 5 2 6 3 7 5 8 6 12 7 9 8 11 9 13 10 14 11 15 12 18 13
DOCKED: REMARK SMILES IDX 16 14 17 15 10 16 3 18 2 19 1 20 19 21 29 22 20 23 28 24
DOCKED: REMARK SMILES IDX 21 25 27 26 22 27 26 28 23 29 24 30 25 31
DOCKED: REMARK H PARENT 6 4 10 17
DOCKED: USER                              x       y       z     vdW  Elec       q    Type
DOCKED: USER                           _______ _______ _______ _____ _____    ______ ____
DOCKED: ROOT
DOCKED: ATOM      1  C   UNL     1     140.323  72.682 220.621 -0.14 +0.01    -0.069 C  
DOCKED: ENDROOT
DOCKED: BRANCH   1   2
DOCKED: ATOM      2  C   UNL     1     140.435  73.789 221.372 -0.22 -0.02    +0.164 C  
DOCKED: BRANCH   2   3
DOCKED: ATOM      3  O   UNL     1     139.949  73.762 222.681 -0.64 -0.01    -0.496 OA 
DOCKED: ATOM      4  H   UNL     1     139.108  73.255 222.937 -0.38 -0.12    +0.295 HD 
DOCKED: ENDBRANCH   2   3
DOCKED: BRANCH   2   5
DOCKED: ATOM      5  N   UNL     1     141.013  75.023 220.889 -0.13 +0.09    -0.337 N  
DOCKED: ATOM      6  C   UNL     1     141.555  75.104 219.544 -0.13 -0.05    +0.151 C  
DOCKED: ATOM      7  C   UNL     1     141.081  76.307 221.592 -0.29 -0.04    +0.107 C  
DOCKED: ATOM      8  C   UNL     1     142.307  76.432 219.473 -0.25 -0.07    +0.136 C  
DOCKED: ATOM      9  C   UNL     1     141.757  77.287 220.619 -0.25 -0.04    +0.060 C  
DOCKED: BRANCH   7  10
DOCKED: ATOM     10  C   UNL     1     139.690  76.799 222.064 -0.29 -0.03    +0.146 C  
DOCKED: BRANCH  10  11
DOCKED: ATOM     11  N   UNL     1     139.755  78.079 222.777 -0.14 +0.07    -0.352 N  
DOCKED: ATOM     12  C   UNL     1     140.868  78.672 223.256 -0.44 -0.02    +0.085 A  
DOCKED: ATOM     13  C   UNL     1     138.723  78.910 223.027 -0.28 -0.01    +0.085 A  
DOCKED: ATOM     14  C   UNL     1     140.540  79.882 223.835 -0.46 -0.00    +0.019 A  
DOCKED: ATOM     15  C   UNL     1     139.175  80.032 223.689 -0.41 -0.00    +0.019 A  
DOCKED: ENDBRANCH  10  11
DOCKED: ENDBRANCH   7  10
DOCKED: BRANCH   8  16
DOCKED: ATOM     16  O   UNL     1     143.693  76.236 219.609 -0.28 +0.28    -0.391 OA 
DOCKED: ATOM     17  H   UNL     1     144.103  77.110 219.847 -0.47 -0.21    +0.211 HD 
DOCKED: ENDBRANCH   8  16
DOCKED: ENDBRANCH   2   5
DOCKED: ENDBRANCH   1   2
DOCKED: BRANCH   1  18
DOCKED: ATOM     18  N   UNL     1     139.221  71.783 220.747 +0.03 +0.11    -0.623 NA 
DOCKED: BRANCH  18  19
DOCKED: ATOM     19  C   UNL     1     138.375  71.711 221.897 -0.13 -0.02    +0.104 C  
DOCKED: ATOM     20  O   UNL     1     137.311  72.386 221.948 -0.07 +0.08    -0.313 OA 
DOCKED: BRANCH  19  21
DOCKED: ATOM     21  C   UNL     1     138.767  70.846 223.024 -0.22 -0.02    +0.089 A  
DOCKED: ATOM     22  N   UNL     1     139.466  71.385 224.061 -0.23 +0.06    -0.246 NA 
DOCKED: ATOM     23  C   UNL     1     138.429  69.483 223.052 -0.21 -0.01    +0.031 A  
DOCKED: ATOM     24  C   UNL     1     139.854  70.647 225.134 -0.43 -0.01    +0.071 A  
DOCKED: ATOM     25  C   UNL     1     138.814  68.699 224.142 -0.33 -0.00    +0.013 A  
DOCKED: ATOM     26  C   UNL     1     140.570  71.246 226.176 -0.60 -0.00    +0.030 A  
DOCKED: ATOM     27  C   UNL     1     139.532  69.275 225.197 -0.41 -0.00    +0.002 A  
DOCKED: ATOM     28  C   UNL     1     140.967  70.483 227.279 -0.60 -0.00    +0.023 A  
DOCKED: ATOM     29  C   UNL     1     139.933  68.516 226.307 -0.56 -0.00    +0.030 A  
DOCKED: ATOM     30  C   UNL     1     140.650  69.121 227.346 -0.59 -0.01    +0.041 A  
DOCKED: ATOM     31  Cl  UNL     1     141.152  68.172 228.733 -0.67 +0.02    -0.084 Cl 
DOCKED: ENDBRANCH  19  21
DOCKED: ENDBRANCH  18  19
DOCKED: ENDBRANCH   1  18
DOCKED: TORSDOF 9
DOCKED: TER
DOCKED: ENDMDL
________________________________________________________________________________


    FINAL DOCKED STATE:
    ________________________


Run:   12 / 20
Time taken for this run:   0.071s

DOCKED: MODEL        12
DOCKED: USER    Run = 12
DOCKED: USER
DOCKED: USER    Estimated Free Energy of Binding    =  -7.78 kcal/mol  [=(1)+(2)+(3)-(4)]
DOCKED: USER
DOCKED: USER    (1) Final Intermolecular Energy     = -10.46 kcal/mol
DOCKED: USER        vdW + Hbond + desolv Energy     = -10.57 kcal/mol
DOCKED: USER        Electrostatic Energy            =  +0.11 kcal/mol
DOCKED: USER        Moving Ligand-Fixed Receptor    = -10.46 kcal/mol
DOCKED: USER        Moving Ligand-Moving Receptor   =  +0.00 kcal/mol
DOCKED: USER    (2) Final Total Internal Energy     =  -1.93 kcal/mol
DOCKED: USER    (3) Torsional Free Energy           =  +2.68 kcal/mol
DOCKED: USER    (4) Unbound System's Energy         =  -1.93 kcal/mol
DOCKED: USER
DOCKED: USER
DOCKED: REMARK SMILES O=C([N-]/C=C(/O)N1C[C@H](O)C[C@H]1Cn1cccc1)c1ccc2cc(Cl)ccc2n1
DOCKED: REMARK SMILES IDX 4 1 5 2 6 3 7 5 8 6 12 7 9 8 11 9 13 10 14 11 15 12 18 13
DOCKED: REMARK SMILES IDX 16 14 17 15 10 16 3 18 2 19 1 20 19 21 29 22 20 23 28 24
DOCKED: REMARK SMILES IDX 21 25 27 26 22 27 26 28 23 29 24 30 25 31
DOCKED: REMARK H PARENT 6 4 10 17
DOCKED: USER                              x       y       z     vdW  Elec       q    Type
DOCKED: USER                           _______ _______ _______ _____ _____    ______ ____
DOCKED: ROOT
DOCKED: ATOM      1  C   UNL     1     141.093  73.936 221.572 -0.25 +0.01    -0.069 C  
DOCKED: ENDROOT
DOCKED: BRANCH   1   2
DOCKED: ATOM      2  C   UNL     1     140.520  75.151 221.597 -0.27 -0.03    +0.164 C  
DOCKED: BRANCH   2   3
DOCKED: ATOM      3  O   UNL     1     139.403  75.347 222.411 -0.43 +0.09    -0.496 OA 
DOCKED: ATOM      4  H   UNL     1     138.840  74.577 222.756 -0.48 -0.11    +0.295 HD 
DOCKED: ENDBRANCH   2   3
DOCKED: BRANCH   2   5
DOCKED: ATOM      5  N   UNL     1     140.986  76.266 220.803 -0.11 +0.13    -0.337 N  
DOCKED: ATOM      6  C   UNL     1     140.885  76.230 219.355 -0.10 -0.05    +0.151 C  
DOCKED: ATOM      7  C   UNL     1     141.527  77.538 221.290 -0.18 -0.06    +0.107 C  
DOCKED: ATOM      8  C   UNL     1     141.700  77.420 218.847 -0.18 -0.07    +0.136 C  
DOCKED: ATOM      9  C   UNL     1     141.830  78.376 220.037 -0.26 -0.04    +0.060 C  
DOCKED: BRANCH   7  10
DOCKED: ATOM     10  C   UNL     1     140.567  78.255 222.270 -0.32 -0.05    +0.146 C  
DOCKED: BRANCH  10  11
DOCKED: ATOM     11  N   UNL     1     141.185  79.416 222.919 -0.20 +0.10    -0.352 N  
DOCKED: ATOM     12  C   UNL     1     140.564  80.561 223.271 -0.40 -0.01    +0.085 A  
DOCKED: ATOM     13  C   UNL     1     142.466  79.518 223.327 -0.54 -0.03    +0.085 A  
DOCKED: ATOM     14  C   UNL     1     141.461  81.408 223.889 -0.42 -0.00    +0.019 A  
DOCKED: ATOM     15  C   UNL     1     142.672  80.744 223.924 -0.65 -0.00    +0.019 A  
DOCKED: ENDBRANCH  10  11
DOCKED: ENDBRANCH   7  10
DOCKED: BRANCH   8  16
DOCKED: ATOM     16  O   UNL     1     142.964  77.008 218.388 -0.19 +0.26    -0.391 OA 
DOCKED: ATOM     17  H   UNL     1     143.653  77.481 218.926 -0.24 -0.18    +0.211 HD 
DOCKED: ENDBRANCH   8  16
DOCKED: ENDBRANCH   2   5
DOCKED: ENDBRANCH   1   2
DOCKED: BRANCH   1  18
DOCKED: ATOM     18  N   UNL     1     140.329  72.735 221.469 -0.06 +0.09    -0.623 NA 
DOCKED: BRANCH  18  19
DOCKED: ATOM     19  C   UNL     1     139.268  72.383 222.360 -0.22 -0.02    +0.104 C  
DOCKED: ATOM     20  O   UNL     1     138.130  72.913 222.237 -0.11 +0.10    -0.313 OA 
DOCKED: BRANCH  19  21
DOCKED: ATOM     21  C   UNL     1     139.524  71.401 223.428 -0.31 -0.02    +0.089 A  
DOCKED: ATOM     22  N   UNL     1     140.043  71.831 224.612 -0.21 +0.05    -0.246 NA 
DOCKED: ATOM     23  C   UNL     1     139.238  70.038 223.253 -0.24 -0.01    +0.031 A  
DOCKED: ATOM     24  C   UNL     1     140.298  70.980 225.642 -0.51 -0.01    +0.071 A  
DOCKED: ATOM     25  C   UNL     1     139.489  69.139 224.294 -0.29 -0.00    +0.013 A  
DOCKED: ATOM     26  C   UNL     1     140.830  71.469 226.840 -0.70 -0.01    +0.030 A  
DOCKED: ATOM     27  C   UNL     1     140.023  69.604 225.502 -0.45 -0.00    +0.002 A  
DOCKED: ATOM     28  C   UNL     1     141.091  70.592 227.897 -0.62 -0.00    +0.023 A  
DOCKED: ATOM     29  C   UNL     1     140.286  68.729 226.567 -0.57 -0.01    +0.030 A  
DOCKED: ATOM     30  C   UNL     1     140.820  69.225 227.763 -0.59 -0.01    +0.041 A  
DOCKED: ATOM     31  Cl  UNL     1     141.150  68.131 229.094 -0.46 +0.02    -0.084 Cl 
DOCKED: ENDBRANCH  19  21
DOCKED: ENDBRANCH  18  19
DOCKED: ENDBRANCH   1  18
DOCKED: TORSDOF 9
DOCKED: TER
DOCKED: ENDMDL
________________________________________________________________________________


    FINAL DOCKED STATE:
    ________________________


Run:   13 / 20
Time taken for this run:   0.071s

DOCKED: MODEL        13
DOCKED: USER    Run = 13
DOCKED: USER
DOCKED: USER    Estimated Free Energy of Binding    =  -7.32 kcal/mol  [=(1)+(2)+(3)-(4)]
DOCKED: USER
DOCKED: USER    (1) Final Intermolecular Energy     = -10.01 kcal/mol
DOCKED: USER        vdW + Hbond + desolv Energy     =  -9.84 kcal/mol
DOCKED: USER        Electrostatic Energy            =  -0.17 kcal/mol
DOCKED: USER        Moving Ligand-Fixed Receptor    = -10.01 kcal/mol
DOCKED: USER        Moving Ligand-Moving Receptor   =  +0.00 kcal/mol
DOCKED: USER    (2) Final Total Internal Energy     =  -2.28 kcal/mol
DOCKED: USER    (3) Torsional Free Energy           =  +2.68 kcal/mol
DOCKED: USER    (4) Unbound System's Energy         =  -2.28 kcal/mol
DOCKED: USER
DOCKED: USER
DOCKED: REMARK SMILES O=C([N-]/C=C(/O)N1C[C@H](O)C[C@H]1Cn1cccc1)c1ccc2cc(Cl)ccc2n1
DOCKED: REMARK SMILES IDX 4 1 5 2 6 3 7 5 8 6 12 7 9 8 11 9 13 10 14 11 15 12 18 13
DOCKED: REMARK SMILES IDX 16 14 17 15 10 16 3 18 2 19 1 20 19 21 29 22 20 23 28 24
DOCKED: REMARK SMILES IDX 21 25 27 26 22 27 26 28 23 29 24 30 25 31
DOCKED: REMARK H PARENT 6 4 10 17
DOCKED: USER                              x       y       z     vdW  Elec       q    Type
DOCKED: USER                           _______ _______ _______ _____ _____    ______ ____
DOCKED: ROOT
DOCKED: ATOM      1  C   UNL     1     141.805  73.670 221.274 -0.13 +0.01    -0.069 C  
DOCKED: ENDROOT
DOCKED: BRANCH   1   2
DOCKED: ATOM      2  C   UNL     1     142.125  72.882 220.234 -0.15 -0.03    +0.164 C  
DOCKED: BRANCH   2   3
DOCKED: ATOM      3  O   UNL     1     141.110  72.471 219.368 +0.01 +0.09    -0.496 OA 
DOCKED: ATOM      4  H   UNL     1     140.128  72.567 219.599 +0.05 -0.05    +0.295 HD 
DOCKED: ENDBRANCH   2   3
DOCKED: BRANCH   2   5
DOCKED: ATOM      5  N   UNL     1     143.469  72.413 219.977 -0.09 +0.04    -0.337 N  
DOCKED: ATOM      6  C   UNL     1     144.609  73.078 220.584 -0.38 -0.02    +0.151 C  
DOCKED: ATOM      7  C   UNL     1     143.865  71.247 219.183 -0.16 -0.00    +0.107 C  
DOCKED: ATOM      8  C   UNL     1     145.846  72.505 219.893 -0.35 +0.05    +0.136 C  
DOCKED: ATOM      9  C   UNL     1     145.399  71.182 219.264 -0.27 +0.03    +0.060 C  
DOCKED: BRANCH   7  10
DOCKED: ATOM     10  C   UNL     1     143.186  69.942 219.666 -0.13 -0.01    +0.146 C  
DOCKED: BRANCH  10  11
DOCKED: ATOM     11  N   UNL     1     143.936  68.740 219.287 -0.10 +0.02    -0.352 N  
DOCKED: ATOM     12  C   UNL     1     143.838  68.070 218.121 -0.15 -0.02    +0.085 A  
DOCKED: ATOM     13  C   UNL     1     144.893  68.131 220.016 -0.35 +0.01    +0.085 A  
DOCKED: ATOM     14  C   UNL     1     144.724  67.012 218.113 -0.32 -0.01    +0.019 A  
DOCKED: ATOM     15  C   UNL     1     145.396  67.051 219.320 -0.52 -0.00    +0.019 A  
DOCKED: ENDBRANCH  10  11
DOCKED: ENDBRANCH   7  10
DOCKED: BRANCH   8  16
DOCKED: ATOM     16  O   UNL     1     146.335  73.390 218.915 -0.68 -0.27    -0.391 OA 
DOCKED: ATOM     17  H   UNL     1     145.875  74.263 219.037 -0.42 -0.08    +0.211 HD 
DOCKED: ENDBRANCH   8  16
DOCKED: ENDBRANCH   2   5
DOCKED: ENDBRANCH   1   2
DOCKED: BRANCH   1  18
DOCKED: ATOM     18  N   UNL     1     140.501  73.671 221.855 -0.48 +0.04    -0.623 NA 
DOCKED: BRANCH  18  19
DOCKED: ATOM     19  C   UNL     1     139.628  72.540 221.865 -0.22 -0.02    +0.104 C  
DOCKED: ATOM     20  O   UNL     1     138.768  72.391 220.955 -0.04 +0.06    -0.313 OA 
DOCKED: BRANCH  19  21
DOCKED: ATOM     21  C   UNL     1     139.741  71.555 222.956 -0.29 -0.02    +0.089 A  
DOCKED: ATOM     22  N   UNL     1     140.265  71.948 224.151 -0.25 +0.04    -0.246 NA 
DOCKED: ATOM     23  C   UNL     1     139.314  70.228 222.791 -0.21 -0.01    +0.031 A  
DOCKED: ATOM     24  C   UNL     1     140.393  71.094 225.200 -0.49 -0.01    +0.071 A  
DOCKED: ATOM     25  C   UNL     1     139.432  69.327 223.853 -0.25 -0.00    +0.013 A  
DOCKED: ATOM     26  C   UNL     1     140.935  71.544 226.409 -0.67 -0.00    +0.030 A  
DOCKED: ATOM     27  C   UNL     1     139.974  69.753 225.072 -0.41 -0.00    +0.002 A  
DOCKED: ATOM     28  C   UNL     1     141.065  70.663 227.487 -0.63 -0.00    +0.023 A  
DOCKED: ATOM     29  C   UNL     1     140.106  68.875 226.158 -0.52 -0.01    +0.030 A  
DOCKED: ATOM     30  C   UNL     1     140.651  69.331 227.364 -0.57 -0.01    +0.041 A  
DOCKED: ATOM     31  Cl  UNL     1     140.817  68.233 228.722 -0.67 +0.02    -0.084 Cl 
DOCKED: ENDBRANCH  19  21
DOCKED: ENDBRANCH  18  19
DOCKED: ENDBRANCH   1  18
DOCKED: TORSDOF 9
DOCKED: TER
DOCKED: ENDMDL
________________________________________________________________________________


    FINAL DOCKED STATE:
    ________________________


Run:   14 / 20
Time taken for this run:   0.071s

DOCKED: MODEL        14
DOCKED: USER    Run = 14
DOCKED: USER
DOCKED: USER    Estimated Free Energy of Binding    =  -7.21 kcal/mol  [=(1)+(2)+(3)-(4)]
DOCKED: USER
DOCKED: USER    (1) Final Intermolecular Energy     =  -9.89 kcal/mol
DOCKED: USER        vdW + Hbond + desolv Energy     =  -9.93 kcal/mol
DOCKED: USER        Electrostatic Energy            =  +0.03 kcal/mol
DOCKED: USER        Moving Ligand-Fixed Receptor    =  -9.89 kcal/mol
DOCKED: USER        Moving Ligand-Moving Receptor   =  +0.00 kcal/mol
DOCKED: USER    (2) Final Total Internal Energy     =  -2.37 kcal/mol
DOCKED: USER    (3) Torsional Free Energy           =  +2.68 kcal/mol
DOCKED: USER    (4) Unbound System's Energy         =  -2.37 kcal/mol
DOCKED: USER
DOCKED: USER
DOCKED: REMARK SMILES O=C([N-]/C=C(/O)N1C[C@H](O)C[C@H]1Cn1cccc1)c1ccc2cc(Cl)ccc2n1
DOCKED: REMARK SMILES IDX 4 1 5 2 6 3 7 5 8 6 12 7 9 8 11 9 13 10 14 11 15 12 18 13
DOCKED: REMARK SMILES IDX 16 14 17 15 10 16 3 18 2 19 1 20 19 21 29 22 20 23 28 24
DOCKED: REMARK SMILES IDX 21 25 27 26 22 27 26 28 23 29 24 30 25 31
DOCKED: REMARK H PARENT 6 4 10 17
DOCKED: USER                              x       y       z     vdW  Elec       q    Type
DOCKED: USER                           _______ _______ _______ _____ _____    ______ ____
DOCKED: ROOT
DOCKED: ATOM      1  C   UNL     1     140.207  71.732 220.879 -0.14 +0.01    -0.069 C  
DOCKED: ENDROOT
DOCKED: BRANCH   1   2
DOCKED: ATOM      2  C   UNL     1     140.907  72.740 221.426 -0.21 -0.02    +0.164 C  
DOCKED: BRANCH   2   3
DOCKED: ATOM      3  O   UNL     1     140.408  73.356 222.575 -0.61 -0.02    -0.496 OA 
DOCKED: ATOM      4  H   UNL     1     139.544  73.061 223.018 -0.26 -0.08    +0.295 HD 
DOCKED: ENDBRANCH   2   3
DOCKED: BRANCH   2   5
DOCKED: ATOM      5  N   UNL     1     142.146  73.240 220.872 -0.11 +0.05    -0.337 N  
DOCKED: ATOM      6  C   UNL     1     143.059  72.343 220.185 -0.19 -0.02    +0.151 C  
DOCKED: ATOM      7  C   UNL     1     142.613  74.628 220.852 -0.17 -0.04    +0.107 C  
DOCKED: ATOM      8  C   UNL     1     144.350  73.134 219.980 -0.32 -0.02    +0.136 C  
DOCKED: ATOM      9  C   UNL     1     143.963  74.610 220.116 -0.40 -0.02    +0.060 C  
DOCKED: BRANCH   7  10
DOCKED: ATOM     10  C   UNL     1     141.590  75.590 220.200 -0.20 -0.06    +0.146 C  
DOCKED: BRANCH  10  11
DOCKED: ATOM     11  N   UNL     1     141.330  76.779 221.019 -0.13 +0.17    -0.352 N  
DOCKED: ATOM     12  C   UNL     1     141.698  78.044 220.732 -0.29 -0.05    +0.085 A  
DOCKED: ATOM     13  C   UNL     1     140.628  76.820 222.169 -0.37 -0.03    +0.085 A  
DOCKED: ATOM     14  C   UNL     1     141.247  78.897 221.719 -0.37 -0.01    +0.019 A  
DOCKED: ATOM     15  C   UNL     1     140.566  78.117 222.634 -0.42 -0.01    +0.019 A  
DOCKED: ENDBRANCH  10  11
DOCKED: ENDBRANCH   7  10
DOCKED: BRANCH   8  16
DOCKED: ATOM     16  O   UNL     1     145.320  72.776 220.933 -0.29 +0.06    -0.391 OA 
DOCKED: ATOM     17  H   UNL     1     145.172  71.823 221.175 -0.39 -0.11    +0.211 HD 
DOCKED: ENDBRANCH   8  16
DOCKED: ENDBRANCH   2   5
DOCKED: ENDBRANCH   1   2
DOCKED: BRANCH   1  18
DOCKED: ATOM     18  N   UNL     1     138.799  71.594 221.066 +0.03 +0.12    -0.623 NA 
DOCKED: BRANCH  18  19
DOCKED: ATOM     19  C   UNL     1     138.149  71.669 222.337 -0.15 -0.02    +0.104 C  
DOCKED: ATOM     20  O   UNL     1     137.192  72.471 222.516 -0.09 +0.09    -0.313 OA 
DOCKED: BRANCH  19  21
DOCKED: ATOM     21  C   UNL     1     138.616  70.805 223.435 -0.24 -0.02    +0.089 A  
DOCKED: ATOM     22  N   UNL     1     139.377  71.346 224.426 -0.22 +0.06    -0.246 NA 
DOCKED: ATOM     23  C   UNL     1     138.288  69.440 223.482 -0.24 -0.00    +0.031 A  
DOCKED: ATOM     24  C   UNL     1     139.836  70.609 225.471 -0.43 -0.01    +0.071 A  
DOCKED: ATOM     25  C   UNL     1     138.745  68.656 224.544 -0.36 -0.00    +0.013 A  
DOCKED: ATOM     26  C   UNL     1     140.613  71.210 226.467 -0.63 -0.00    +0.030 A  
DOCKED: ATOM     27  C   UNL     1     139.527  69.234 225.552 -0.44 -0.00    +0.002 A  
DOCKED: ATOM     28  C   UNL     1     141.084  70.448 227.541 -0.59 -0.00    +0.023 A  
DOCKED: ATOM     29  C   UNL     1     140.001  68.476 226.633 -0.59 -0.01    +0.030 A  
DOCKED: ATOM     30  C   UNL     1     140.779  69.084 227.625 -0.59 -0.01    +0.041 A  
DOCKED: ATOM     31  Cl  UNL     1     141.374  68.136 228.976 -0.51 +0.02    -0.084 Cl 
DOCKED: ENDBRANCH  19  21
DOCKED: ENDBRANCH  18  19
DOCKED: ENDBRANCH   1  18
DOCKED: TORSDOF 9
DOCKED: TER
DOCKED: ENDMDL
________________________________________________________________________________


    FINAL DOCKED STATE:
    ________________________


Run:   15 / 20
Time taken for this run:   0.071s

DOCKED: MODEL        15
DOCKED: USER    Run = 15
DOCKED: USER
DOCKED: USER    Estimated Free Energy of Binding    =  -6.51 kcal/mol  [=(1)+(2)+(3)-(4)]
DOCKED: USER
DOCKED: USER    (1) Final Intermolecular Energy     =  -9.20 kcal/mol
DOCKED: USER        vdW + Hbond + desolv Energy     =  -9.33 kcal/mol
DOCKED: USER        Electrostatic Energy            =  +0.13 kcal/mol
DOCKED: USER        Moving Ligand-Fixed Receptor    =  -9.20 kcal/mol
DOCKED: USER        Moving Ligand-Moving Receptor   =  +0.00 kcal/mol
DOCKED: USER    (2) Final Total Internal Energy     =  -2.39 kcal/mol
DOCKED: USER    (3) Torsional Free Energy           =  +2.68 kcal/mol
DOCKED: USER    (4) Unbound System's Energy         =  -2.39 kcal/mol
DOCKED: USER
DOCKED: USER
DOCKED: REMARK SMILES O=C([N-]/C=C(/O)N1C[C@H](O)C[C@H]1Cn1cccc1)c1ccc2cc(Cl)ccc2n1
DOCKED: REMARK SMILES IDX 4 1 5 2 6 3 7 5 8 6 12 7 9 8 11 9 13 10 14 11 15 12 18 13
DOCKED: REMARK SMILES IDX 16 14 17 15 10 16 3 18 2 19 1 20 19 21 29 22 20 23 28 24
DOCKED: REMARK SMILES IDX 21 25 27 26 22 27 26 28 23 29 24 30 25 31
DOCKED: REMARK H PARENT 6 4 10 17
DOCKED: USER                              x       y       z     vdW  Elec       q    Type
DOCKED: USER                           _______ _______ _______ _____ _____    ______ ____
DOCKED: ROOT
DOCKED: ATOM      1  C   UNL     1     140.453  75.312 221.984 -0.21 +0.01    -0.069 C  
DOCKED: ENDROOT
DOCKED: BRANCH   1   2
DOCKED: ATOM      2  C   UNL     1     139.502  75.945 221.279 -0.20 -0.04    +0.164 C  
DOCKED: BRANCH   2   3
DOCKED: ATOM      3  O   UNL     1     138.919  75.284 220.196 +0.00 +0.11    -0.496 OA 
DOCKED: ATOM      4  H   UNL     1     139.003  74.282 220.063 +0.05 -0.06    +0.295 HD 
DOCKED: ENDBRANCH   2   3
DOCKED: BRANCH   2   5
DOCKED: ATOM      5  N   UNL     1     139.064  77.293 221.566 -0.08 +0.08    -0.337 N  
DOCKED: ATOM      6  C   UNL     1     138.190  77.557 222.696 -0.22 -0.03    +0.151 C  
DOCKED: ATOM      7  C   UNL     1     139.450  78.521 220.866 -0.12 -0.03    +0.107 C  
DOCKED: ATOM      8  C   UNL     1     137.723  79.003 222.537 -0.17 -0.02    +0.136 C  
DOCKED: ATOM      9  C   UNL     1     138.731  79.668 221.595 -0.15 -0.01    +0.060 C  
DOCKED: BRANCH   7  10
DOCKED: ATOM     10  C   UNL     1     140.986  78.716 220.814 -0.22 -0.06    +0.146 C  
DOCKED: BRANCH  10  11
DOCKED: ATOM     11  N   UNL     1     141.529  79.259 222.064 -0.18 +0.14    -0.352 N  
DOCKED: ATOM     12  C   UNL     1     141.500  78.665 223.274 -0.52 -0.03    +0.085 A  
DOCKED: ATOM     13  C   UNL     1     142.201  80.419 222.207 -0.48 -0.03    +0.085 A  
DOCKED: ATOM     14  C   UNL     1     142.139  79.461 224.202 -0.46 -0.00    +0.019 A  
DOCKED: ATOM     15  C   UNL     1     142.586  80.578 223.522 -0.66 -0.00    +0.019 A  
DOCKED: ENDBRANCH  10  11
DOCKED: ENDBRANCH   7  10
DOCKED: BRANCH   8  16
DOCKED: ATOM     16  O   UNL     1     136.422  79.059 222.006 -0.03 +0.06    -0.391 OA 
DOCKED: ATOM     17  H   UNL     1     136.248  78.203 221.533 +0.03 -0.03    +0.211 HD 
DOCKED: ENDBRANCH   8  16
DOCKED: ENDBRANCH   2   5
DOCKED: ENDBRANCH   1   2
DOCKED: BRANCH   1  18
DOCKED: ATOM     18  N   UNL     1     140.686  73.909 221.861 -0.49 +0.03    -0.623 NA 
DOCKED: BRANCH  18  19
DOCKED: ATOM     19  C   UNL     1     139.661  72.917 221.949 -0.24 -0.02    +0.104 C  
DOCKED: ATOM     20  O   UNL     1     138.713  72.905 221.118 -0.06 +0.07    -0.313 OA 
DOCKED: BRANCH  19  21
DOCKED: ATOM     21  C   UNL     1     139.722  71.915 223.028 -0.30 -0.02    +0.089 A  
DOCKED: ATOM     22  N   UNL     1     140.320  72.246 224.206 -0.13 +0.04    -0.246 NA 
DOCKED: ATOM     23  C   UNL     1     139.172  70.633 222.869 -0.23 -0.01    +0.031 A  
DOCKED: ATOM     24  C   UNL     1     140.407  71.373 225.244 -0.49 -0.01    +0.071 A  
DOCKED: ATOM     25  C   UNL     1     139.245  69.714 223.918 -0.30 -0.00    +0.013 A  
DOCKED: ATOM     26  C   UNL     1     141.030  71.760 226.436 -0.68 -0.00    +0.030 A  
DOCKED: ATOM     27  C   UNL     1     139.866  70.076 225.121 -0.43 -0.00    +0.002 A  
DOCKED: ATOM     28  C   UNL     1     141.117  70.859 227.503 -0.63 -0.00    +0.023 A  
DOCKED: ATOM     29  C   UNL     1     139.955  69.178 226.194 -0.49 -0.00    +0.030 A  
DOCKED: ATOM     30  C   UNL     1     140.581  69.572 227.384 -0.57 -0.01    +0.041 A  
DOCKED: ATOM     31  Cl  UNL     1     140.694  68.449 228.727 -0.69 +0.02    -0.084 Cl 
DOCKED: ENDBRANCH  19  21
DOCKED: ENDBRANCH  18  19
DOCKED: ENDBRANCH   1  18
DOCKED: TORSDOF 9
DOCKED: TER
DOCKED: ENDMDL
________________________________________________________________________________


    FINAL DOCKED STATE:
    ________________________


Run:   16 / 20
Time taken for this run:   0.071s

DOCKED: MODEL        16
DOCKED: USER    Run = 16
DOCKED: USER
DOCKED: USER    Estimated Free Energy of Binding    =  -7.52 kcal/mol  [=(1)+(2)+(3)-(4)]
DOCKED: USER
DOCKED: USER    (1) Final Intermolecular Energy     = -10.20 kcal/mol
DOCKED: USER        vdW + Hbond + desolv Energy     = -10.04 kcal/mol
DOCKED: USER        Electrostatic Energy            =  -0.16 kcal/mol
DOCKED: USER        Moving Ligand-Fixed Receptor    = -10.20 kcal/mol
DOCKED: USER        Moving Ligand-Moving Receptor   =  +0.00 kcal/mol
DOCKED: USER    (2) Final Total Internal Energy     =  -1.31 kcal/mol
DOCKED: USER    (3) Torsional Free Energy           =  +2.68 kcal/mol
DOCKED: USER    (4) Unbound System's Energy         =  -1.31 kcal/mol
DOCKED: USER
DOCKED: USER
DOCKED: REMARK SMILES O=C([N-]/C=C(/O)N1C[C@H](O)C[C@H]1Cn1cccc1)c1ccc2cc(Cl)ccc2n1
DOCKED: REMARK SMILES IDX 4 1 5 2 6 3 7 5 8 6 12 7 9 8 11 9 13 10 14 11 15 12 18 13
DOCKED: REMARK SMILES IDX 16 14 17 15 10 16 3 18 2 19 1 20 19 21 29 22 20 23 28 24
DOCKED: REMARK SMILES IDX 21 25 27 26 22 27 26 28 23 29 24 30 25 31
DOCKED: REMARK H PARENT 6 4 10 17
DOCKED: USER                              x       y       z     vdW  Elec       q    Type
DOCKED: USER                           _______ _______ _______ _____ _____    ______ ____
DOCKED: ROOT
DOCKED: ATOM      1  C   UNL     1     141.104  71.530 219.929 -0.10 +0.01    -0.069 C  
DOCKED: ENDROOT
DOCKED: BRANCH   1   2
DOCKED: ATOM      2  C   UNL     1     142.007  71.904 219.008 -0.05 -0.03    +0.164 C  
DOCKED: BRANCH   2   3
DOCKED: ATOM      3  O   UNL     1     141.552  72.359 217.769 +0.02 +0.09    -0.496 OA 
DOCKED: ATOM      4  H   UNL     1     140.617  72.729 217.637 +0.02 -0.06    +0.295 HD 
DOCKED: ENDBRANCH   2   3
DOCKED: BRANCH   2   5
DOCKED: ATOM      5  N   UNL     1     143.436  71.836 219.222 -0.03 +0.02    -0.337 N  
DOCKED: ATOM      6  C   UNL     1     144.147  72.966 219.796 -0.26 -0.02    +0.151 C  
DOCKED: ATOM      7  C   UNL     1     144.317  70.691 218.981 -0.17 +0.01    +0.107 C  
DOCKED: ATOM      8  C   UNL     1     145.634  72.655 219.627 -0.34 +0.05    +0.136 C  
DOCKED: ATOM      9  C   UNL     1     145.723  71.142 219.408 -0.20 +0.04    +0.060 C  
DOCKED: BRANCH   7  10
DOCKED: ATOM     10  C   UNL     1     143.848  69.415 219.723 -0.18 +0.00    +0.146 C  
DOCKED: BRANCH  10  11
DOCKED: ATOM     11  N   UNL     1     144.589  68.218 219.313 -0.15 +0.01    -0.352 N  
DOCKED: ATOM     12  C   UNL     1     145.676  67.703 219.922 -0.46 +0.01    +0.085 A  
DOCKED: ATOM     13  C   UNL     1     144.278  67.395 218.292 -0.24 -0.03    +0.085 A  
DOCKED: ATOM     14  C   UNL     1     146.076  66.553 219.271 -0.47 -0.01    +0.019 A  
DOCKED: ATOM     15  C   UNL     1     145.185  66.357 218.233 -0.37 -0.01    +0.019 A  
DOCKED: ENDBRANCH  10  11
DOCKED: ENDBRANCH   7  10
DOCKED: BRANCH   8  16
DOCKED: ATOM     16  O   UNL     1     146.176  73.357 218.535 -0.67 -0.27    -0.391 OA 
DOCKED: ATOM     17  H   UNL     1     145.653  74.193 218.420 -0.43 -0.07    +0.211 HD 
DOCKED: ENDBRANCH   8  16
DOCKED: ENDBRANCH   2   5
DOCKED: ENDBRANCH   1   2
DOCKED: BRANCH   1  18
DOCKED: ATOM     18  N   UNL     1     140.151  72.442 220.475 +0.03 +0.11    -0.623 NA 
DOCKED: BRANCH  18  19
DOCKED: ATOM     19  C   UNL     1     140.163  72.895 221.830 -0.25 -0.01    +0.104 C  
DOCKED: ATOM     20  O   UNL     1     140.215  74.129 222.089 -0.81 +0.01    -0.313 OA 
DOCKED: BRANCH  19  21
DOCKED: ATOM     21  C   UNL     1     140.123  71.904 222.920 -0.31 -0.01    +0.089 A  
DOCKED: ATOM     22  N   UNL     1     140.615  72.245 224.144 -0.09 +0.02    -0.246 NA 
DOCKED: ATOM     23  C   UNL     1     139.584  70.623 222.724 -0.23 -0.01    +0.031 A  
DOCKED: ATOM     24  C   UNL     1     140.605  71.382 225.194 -0.50 -0.01    +0.071 A  
DOCKED: ATOM     25  C   UNL     1     139.559  69.714 223.785 -0.27 -0.00    +0.013 A  
DOCKED: ATOM     26  C   UNL     1     141.120  71.779 226.433 -0.69 -0.00    +0.030 A  
DOCKED: ATOM     27  C   UNL     1     140.071  70.086 225.035 -0.43 -0.00    +0.002 A  
DOCKED: ATOM     28  C   UNL     1     141.107  70.889 227.511 -0.64 -0.00    +0.023 A  
DOCKED: ATOM     29  C   UNL     1     140.060  69.199 226.121 -0.49 -0.01    +0.030 A  
DOCKED: ATOM     30  C   UNL     1     140.578  69.602 227.358 -0.56 -0.01    +0.041 A  
DOCKED: ATOM     31  Cl  UNL     1     140.566  68.492 228.716 -0.69 +0.02    -0.084 Cl 
DOCKED: ENDBRANCH  19  21
DOCKED: ENDBRANCH  18  19
DOCKED: ENDBRANCH   1  18
DOCKED: TORSDOF 9
DOCKED: TER
DOCKED: ENDMDL
________________________________________________________________________________


    FINAL DOCKED STATE:
    ________________________


Run:   17 / 20
Time taken for this run:   0.071s

DOCKED: MODEL        17
DOCKED: USER    Run = 17
DOCKED: USER
DOCKED: USER    Estimated Free Energy of Binding    =  -7.40 kcal/mol  [=(1)+(2)+(3)-(4)]
DOCKED: USER
DOCKED: USER    (1) Final Intermolecular Energy     = -10.09 kcal/mol
DOCKED: USER        vdW + Hbond + desolv Energy     = -10.09 kcal/mol
DOCKED: USER        Electrostatic Energy            =  +0.01 kcal/mol
DOCKED: USER        Moving Ligand-Fixed Receptor    = -10.09 kcal/mol
DOCKED: USER        Moving Ligand-Moving Receptor   =  +0.00 kcal/mol
DOCKED: USER    (2) Final Total Internal Energy     =  -2.16 kcal/mol
DOCKED: USER    (3) Torsional Free Energy           =  +2.68 kcal/mol
DOCKED: USER    (4) Unbound System's Energy         =  -2.16 kcal/mol
DOCKED: USER
DOCKED: USER
DOCKED: REMARK SMILES O=C([N-]/C=C(/O)N1C[C@H](O)C[C@H]1Cn1cccc1)c1ccc2cc(Cl)ccc2n1
DOCKED: REMARK SMILES IDX 4 1 5 2 6 3 7 5 8 6 12 7 9 8 11 9 13 10 14 11 15 12 18 13
DOCKED: REMARK SMILES IDX 16 14 17 15 10 16 3 18 2 19 1 20 19 21 29 22 20 23 28 24
DOCKED: REMARK SMILES IDX 21 25 27 26 22 27 26 28 23 29 24 30 25 31
DOCKED: REMARK H PARENT 6 4 10 17
DOCKED: USER                              x       y       z     vdW  Elec       q    Type
DOCKED: USER                           _______ _______ _______ _____ _____    ______ ____
DOCKED: ROOT
DOCKED: ATOM      1  C   UNL     1     140.107  72.881 220.421 -0.12 +0.01    -0.069 C  
DOCKED: ENDROOT
DOCKED: BRANCH   1   2
DOCKED: ATOM      2  C   UNL     1     140.325  73.906 221.260 -0.21 -0.03    +0.164 C  
DOCKED: BRANCH   2   3
DOCKED: ATOM      3  O   UNL     1     139.972  73.759 222.603 -0.64 -0.00    -0.496 OA 
DOCKED: ATOM      4  H   UNL     1     139.095  73.340 222.891 -0.39 -0.12    +0.295 HD 
DOCKED: ENDBRANCH   2   3
DOCKED: BRANCH   2   5
DOCKED: ATOM      5  N   UNL     1     140.887  75.171 220.840 -0.12 +0.09    -0.337 N  
DOCKED: ATOM      6  C   UNL     1     141.245  75.391 219.450 -0.11 -0.05    +0.151 C  
DOCKED: ATOM      7  C   UNL     1     141.105  76.363 221.664 -0.27 -0.04    +0.107 C  
DOCKED: ATOM      8  C   UNL     1     142.039  76.697 219.423 -0.23 -0.07    +0.136 C  
DOCKED: ATOM      9  C   UNL     1     141.687  77.428 220.721 -0.26 -0.04    +0.060 C  
DOCKED: BRANCH   7  10
DOCKED: ATOM     10  C   UNL     1     139.814  76.836 222.376 -0.28 -0.03    +0.146 C  
DOCKED: BRANCH  10  11
DOCKED: ATOM     11  N   UNL     1     139.911  78.215 222.867 -0.14 +0.07    -0.352 N  
DOCKED: ATOM     12  C   UNL     1     138.931  79.141 222.851 -0.27 -0.01    +0.085 A  
DOCKED: ATOM     13  C   UNL     1     140.979  78.777 223.469 -0.46 -0.02    +0.085 A  
DOCKED: ATOM     14  C   UNL     1     139.383  80.310 223.428 -0.40 -0.00    +0.019 A  
DOCKED: ATOM     15  C   UNL     1     140.687  80.078 223.821 -0.45 -0.00    +0.019 A  
DOCKED: ENDBRANCH  10  11
DOCKED: ENDBRANCH   7  10
DOCKED: BRANCH   8  16
DOCKED: ATOM     16  O   UNL     1     143.421  76.447 219.342 -0.24 +0.27    -0.391 OA 
DOCKED: ATOM     17  H   UNL     1     143.888  77.144 219.874 -0.48 -0.21    +0.211 HD 
DOCKED: ENDBRANCH   8  16
DOCKED: ENDBRANCH   2   5
DOCKED: ENDBRANCH   1   2
DOCKED: BRANCH   1  18
DOCKED: ATOM     18  N   UNL     1     139.175  71.840 220.715 +0.03 +0.11    -0.623 NA 
DOCKED: BRANCH  18  19
DOCKED: ATOM     19  C   UNL     1     138.336  71.821 221.872 -0.13 -0.02    +0.104 C  
DOCKED: ATOM     20  O   UNL     1     137.302  72.542 221.922 -0.07 +0.08    -0.313 OA 
DOCKED: BRANCH  19  21
DOCKED: ATOM     21  C   UNL     1     138.700  70.957 223.009 -0.21 -0.02    +0.089 A  
DOCKED: ATOM     22  N   UNL     1     139.452  71.473 224.020 -0.23 +0.06    -0.246 NA 
DOCKED: ATOM     23  C   UNL     1     138.281  69.618 223.073 -0.21 -0.01    +0.031 A  
DOCKED: ATOM     24  C   UNL     1     139.818  70.734 225.100 -0.43 -0.01    +0.071 A  
DOCKED: ATOM     25  C   UNL     1     138.642  68.833 224.171 -0.33 -0.00    +0.013 A  
DOCKED: ATOM     26  C   UNL     1     140.591  71.309 226.115 -0.60 -0.00    +0.030 A  
DOCKED: ATOM     27  C   UNL     1     139.417  69.385 225.199 -0.41 -0.00    +0.002 A  
DOCKED: ATOM     28  C   UNL     1     140.965  70.546 227.225 -0.61 -0.00    +0.023 A  
DOCKED: ATOM     29  C   UNL     1     139.795  68.625 226.315 -0.54 -0.00    +0.030 A  
DOCKED: ATOM     30  C   UNL     1     140.569  69.207 227.327 -0.58 -0.01    +0.041 A  
DOCKED: ATOM     31  Cl  UNL     1     141.044  68.257 228.723 -0.70 +0.02    -0.084 Cl 
DOCKED: ENDBRANCH  19  21
DOCKED: ENDBRANCH  18  19
DOCKED: ENDBRANCH   1  18
DOCKED: TORSDOF 9
DOCKED: TER
DOCKED: ENDMDL
________________________________________________________________________________


    FINAL DOCKED STATE:
    ________________________


Run:   18 / 20
Time taken for this run:   0.071s

DOCKED: MODEL        18
DOCKED: USER    Run = 18
DOCKED: USER
DOCKED: USER    Estimated Free Energy of Binding    =  -7.22 kcal/mol  [=(1)+(2)+(3)-(4)]
DOCKED: USER
DOCKED: USER    (1) Final Intermolecular Energy     =  -9.90 kcal/mol
DOCKED: USER        vdW + Hbond + desolv Energy     = -10.04 kcal/mol
DOCKED: USER        Electrostatic Energy            =  +0.14 kcal/mol
DOCKED: USER        Moving Ligand-Fixed Receptor    =  -9.90 kcal/mol
DOCKED: USER        Moving Ligand-Moving Receptor   =  +0.00 kcal/mol
DOCKED: USER    (2) Final Total Internal Energy     =  -1.97 kcal/mol
DOCKED: USER    (3) Torsional Free Energy           =  +2.68 kcal/mol
DOCKED: USER    (4) Unbound System's Energy         =  -1.97 kcal/mol
DOCKED: USER
DOCKED: USER
DOCKED: REMARK SMILES O=C([N-]/C=C(/O)N1C[C@H](O)C[C@H]1Cn1cccc1)c1ccc2cc(Cl)ccc2n1
DOCKED: REMARK SMILES IDX 4 1 5 2 6 3 7 5 8 6 12 7 9 8 11 9 13 10 14 11 15 12 18 13
DOCKED: REMARK SMILES IDX 16 14 17 15 10 16 3 18 2 19 1 20 19 21 29 22 20 23 28 24
DOCKED: REMARK SMILES IDX 21 25 27 26 22 27 26 28 23 29 24 30 25 31
DOCKED: REMARK H PARENT 6 4 10 17
DOCKED: USER                              x       y       z     vdW  Elec       q    Type
DOCKED: USER                           _______ _______ _______ _____ _____    ______ ____
DOCKED: ROOT
DOCKED: ATOM      1  C   UNL     1     138.051  74.511 221.468 -0.16 +0.02    -0.069 C  
DOCKED: ENDROOT
DOCKED: BRANCH   1   2
DOCKED: ATOM      2  C   UNL     1     138.664  75.610 221.937 -0.22 -0.04    +0.164 C  
DOCKED: BRANCH   2   3
DOCKED: ATOM      3  O   UNL     1     138.122  76.255 223.051 -0.15 +0.12    -0.496 OA 
DOCKED: ATOM      4  H   UNL     1     137.803  75.748 223.869 -0.15 -0.12    +0.295 HD 
DOCKED: ENDBRANCH   2   3
DOCKED: BRANCH   2   5
DOCKED: ATOM      5  N   UNL     1     139.848  76.180 221.333 -0.12 +0.08    -0.337 N  
DOCKED: ATOM      6  C   UNL     1     140.221  75.828 219.974 -0.10 -0.04    +0.151 C  
DOCKED: ATOM      7  C   UNL     1     140.752  77.175 221.916 -0.34 -0.04    +0.107 C  
DOCKED: ATOM      8  C   UNL     1     141.629  76.384 219.768 -0.20 -0.06    +0.136 C  
DOCKED: ATOM      9  C   UNL     1     141.818  77.457 220.845 -0.23 -0.04    +0.060 C  
DOCKED: BRANCH   7  10
DOCKED: ATOM     10  C   UNL     1     140.010  78.455 222.373 -0.29 -0.04    +0.146 C  
DOCKED: BRANCH  10  11
DOCKED: ATOM     11  N   UNL     1     140.922  79.489 222.872 -0.18 +0.09    -0.352 N  
DOCKED: ATOM     12  C   UNL     1     142.075  79.284 223.540 -0.54 -0.03    +0.085 A  
DOCKED: ATOM     13  C   UNL     1     140.794  80.820 222.699 -0.37 -0.02    +0.085 A  
DOCKED: ATOM     14  C   UNL     1     142.677  80.495 223.815 -0.67 -0.00    +0.019 A  
DOCKED: ATOM     15  C   UNL     1     141.862  81.473 223.279 -0.54 -0.00    +0.019 A  
DOCKED: ENDBRANCH  10  11
DOCKED: ENDBRANCH   7  10
DOCKED: BRANCH   8  16
DOCKED: ATOM     16  O   UNL     1     142.597  75.370 219.890 -0.14 +0.18    -0.391 OA 
DOCKED: ATOM     17  H   UNL     1     142.276  74.723 220.573 +0.06 -0.07    +0.211 HD 
DOCKED: ENDBRANCH   8  16
DOCKED: ENDBRANCH   2   5
DOCKED: ENDBRANCH   1   2
DOCKED: BRANCH   1  18
DOCKED: ATOM     18  N   UNL     1     138.660  73.221 221.515 -0.01 +0.15    -0.623 NA 
DOCKED: BRANCH  18  19
DOCKED: ATOM     19  C   UNL     1     139.899  72.944 222.171 -0.25 -0.02    +0.104 C  
DOCKED: ATOM     20  O   UNL     1     140.938  73.591 221.869 -0.57 +0.01    -0.313 OA 
DOCKED: BRANCH  19  21
DOCKED: ATOM     21  C   UNL     1     139.947  71.887 223.197 -0.32 -0.02    +0.089 A  
DOCKED: ATOM     22  N   UNL     1     140.420  72.191 224.438 -0.05 +0.04    -0.246 NA 
DOCKED: ATOM     23  C   UNL     1     139.510  70.581 222.925 -0.25 -0.01    +0.031 A  
DOCKED: ATOM     24  C   UNL     1     140.488  71.267 225.433 -0.51 -0.01    +0.071 A  
DOCKED: ATOM     25  C   UNL     1     139.567  69.610 223.928 -0.28 -0.00    +0.013 A  
DOCKED: ATOM     26  C   UNL     1     140.980  71.627 226.692 -0.70 -0.00    +0.030 A  
DOCKED: ATOM     27  C   UNL     1     140.058  69.945 225.196 -0.44 -0.00    +0.002 A  
DOCKED: ATOM     28  C   UNL     1     141.048  70.674 227.714 -0.64 -0.00    +0.023 A  
DOCKED: ATOM     29  C   UNL     1     140.127  68.994 226.225 -0.51 -0.01    +0.030 A  
DOCKED: ATOM     30  C   UNL     1     140.622  69.361 227.482 -0.58 -0.01    +0.041 A  
DOCKED: ATOM     31  Cl  UNL     1     140.711  68.172 228.770 -0.60 +0.02    -0.084 Cl 
DOCKED: ENDBRANCH  19  21
DOCKED: ENDBRANCH  18  19
DOCKED: ENDBRANCH   1  18
DOCKED: TORSDOF 9
DOCKED: TER
DOCKED: ENDMDL
________________________________________________________________________________


    FINAL DOCKED STATE:
    ________________________


Run:   19 / 20
Time taken for this run:   0.071s

DOCKED: MODEL        19
DOCKED: USER    Run = 19
DOCKED: USER
DOCKED: USER    Estimated Free Energy of Binding    =  -7.07 kcal/mol  [=(1)+(2)+(3)-(4)]
DOCKED: USER
DOCKED: USER    (1) Final Intermolecular Energy     =  -9.75 kcal/mol
DOCKED: USER        vdW + Hbond + desolv Energy     =  -9.79 kcal/mol
DOCKED: USER        Electrostatic Energy            =  +0.03 kcal/mol
DOCKED: USER        Moving Ligand-Fixed Receptor    =  -9.75 kcal/mol
DOCKED: USER        Moving Ligand-Moving Receptor   =  +0.00 kcal/mol
DOCKED: USER    (2) Final Total Internal Energy     =  -2.11 kcal/mol
DOCKED: USER    (3) Torsional Free Energy           =  +2.68 kcal/mol
DOCKED: USER    (4) Unbound System's Energy         =  -2.11 kcal/mol
DOCKED: USER
DOCKED: USER
DOCKED: REMARK SMILES O=C([N-]/C=C(/O)N1C[C@H](O)C[C@H]1Cn1cccc1)c1ccc2cc(Cl)ccc2n1
DOCKED: REMARK SMILES IDX 4 1 5 2 6 3 7 5 8 6 12 7 9 8 11 9 13 10 14 11 15 12 18 13
DOCKED: REMARK SMILES IDX 16 14 17 15 10 16 3 18 2 19 1 20 19 21 29 22 20 23 28 24
DOCKED: REMARK SMILES IDX 21 25 27 26 22 27 26 28 23 29 24 30 25 31
DOCKED: REMARK H PARENT 6 4 10 17
DOCKED: USER                              x       y       z     vdW  Elec       q    Type
DOCKED: USER                           _______ _______ _______ _____ _____    ______ ____
DOCKED: ROOT
DOCKED: ATOM      1  C   UNL     1     138.855  74.103 220.461 -0.10 +0.01    -0.069 C  
DOCKED: ENDROOT
DOCKED: BRANCH   1   2
DOCKED: ATOM      2  C   UNL     1     140.008  74.502 221.020 -0.19 -0.03    +0.164 C  
DOCKED: BRANCH   2   3
DOCKED: ATOM      3  O   UNL     1     140.275  74.135 222.341 -0.72 -0.02    -0.496 OA 
DOCKED: ATOM      4  H   UNL     1     139.592  73.659 222.920 -0.33 -0.05    +0.295 HD 
DOCKED: ENDBRANCH   2   3
DOCKED: BRANCH   2   5
DOCKED: ATOM      5  N   UNL     1     140.985  75.318 220.333 -0.08 +0.10    -0.337 N  
DOCKED: ATOM      6  C   UNL     1     141.345  75.029 218.956 -0.07 -0.05    +0.151 C  
DOCKED: ATOM      7  C   UNL     1     141.664  76.511 220.845 -0.16 -0.06    +0.107 C  
DOCKED: ATOM      8  C   UNL     1     142.567  75.894 218.651 -0.20 -0.06    +0.136 C  
DOCKED: ATOM      9  C   UNL     1     142.565  77.008 219.703 -0.32 -0.04    +0.060 C  
DOCKED: BRANCH   7  10
DOCKED: ATOM     10  C   UNL     1     140.672  77.593 221.338 -0.25 -0.05    +0.146 C  
DOCKED: BRANCH  10  11
DOCKED: ATOM     11  N   UNL     1     141.325  78.639 222.133 -0.17 +0.15    -0.352 N  
DOCKED: ATOM     12  C   UNL     1     141.513  78.628 223.468 -0.53 -0.03    +0.085 A  
DOCKED: ATOM     13  C   UNL     1     141.899  79.763 221.659 -0.39 -0.04    +0.085 A  
DOCKED: ATOM     14  C   UNL     1     142.194  79.765 223.853 -0.62 -0.00    +0.019 A  
DOCKED: ATOM     15  C   UNL     1     142.439  80.487 222.701 -0.59 -0.01    +0.019 A  
DOCKED: ENDBRANCH  10  11
DOCKED: ENDBRANCH   7  10
DOCKED: BRANCH   8  16
DOCKED: ATOM     16  O   UNL     1     143.752  75.138 218.719 -0.13 +0.19    -0.391 OA 
DOCKED: ATOM     17  H   UNL     1     144.459  75.635 218.229 -0.40 -0.16    +0.211 HD 
DOCKED: ENDBRANCH   8  16
DOCKED: ENDBRANCH   2   5
DOCKED: ENDBRANCH   1   2
DOCKED: BRANCH   1  18
DOCKED: ATOM     18  N   UNL     1     138.123  72.976 220.945 +0.02 +0.13    -0.623 NA 
DOCKED: BRANCH  18  19
DOCKED: ATOM     19  C   UNL     1     138.613  71.634 220.919 -0.07 -0.02    +0.104 C  
DOCKED: ATOM     20  O   UNL     1     138.840  71.060 219.819 -0.01 +0.06    -0.313 OA 
DOCKED: BRANCH  19  21
DOCKED: ATOM     21  C   UNL     1     138.839  70.927 222.192 -0.16 -0.02    +0.089 A  
DOCKED: ATOM     22  N   UNL     1     139.640  71.500 223.134 -0.21 +0.05    -0.246 NA 
DOCKED: ATOM     23  C   UNL     1     138.242  69.684 222.456 -0.16 -0.01    +0.031 A  
DOCKED: ATOM     24  C   UNL     1     139.887  70.906 224.331 -0.39 -0.01    +0.071 A  
DOCKED: ATOM     25  C   UNL     1     138.477  69.050 223.679 -0.28 -0.00    +0.013 A  
DOCKED: ATOM     26  C   UNL     1     140.716  71.534 225.268 -0.53 -0.00    +0.030 A  
DOCKED: ATOM     27  C   UNL     1     139.304  69.657 224.632 -0.36 -0.00    +0.002 A  
DOCKED: ATOM     28  C   UNL     1     140.968  70.921 226.499 -0.63 -0.00    +0.023 A  
DOCKED: ATOM     29  C   UNL     1     139.560  69.048 225.869 -0.46 -0.00    +0.030 A  
DOCKED: ATOM     30  C   UNL     1     140.392  69.681 226.801 -0.53 -0.01    +0.041 A  
DOCKED: ATOM     31  Cl  UNL     1     140.713  68.920 228.348 -0.78 +0.02    -0.084 Cl 
DOCKED: ENDBRANCH  19  21
DOCKED: ENDBRANCH  18  19
DOCKED: ENDBRANCH   1  18
DOCKED: TORSDOF 9
DOCKED: TER
DOCKED: ENDMDL
________________________________________________________________________________


    FINAL DOCKED STATE:
    ________________________


Run:   20 / 20
Time taken for this run:   0.071s

DOCKED: MODEL        20
DOCKED: USER    Run = 20
DOCKED: USER
DOCKED: USER    Estimated Free Energy of Binding    =  -7.62 kcal/mol  [=(1)+(2)+(3)-(4)]
DOCKED: USER
DOCKED: USER    (1) Final Intermolecular Energy     = -10.30 kcal/mol
DOCKED: USER        vdW + Hbond + desolv Energy     = -10.16 kcal/mol
DOCKED: USER        Electrostatic Energy            =  -0.14 kcal/mol
DOCKED: USER        Moving Ligand-Fixed Receptor    = -10.30 kcal/mol
DOCKED: USER        Moving Ligand-Moving Receptor   =  +0.00 kcal/mol
DOCKED: USER    (2) Final Total Internal Energy     =  -2.07 kcal/mol
DOCKED: USER    (3) Torsional Free Energy           =  +2.68 kcal/mol
DOCKED: USER    (4) Unbound System's Energy         =  -2.07 kcal/mol
DOCKED: USER
DOCKED: USER
DOCKED: REMARK SMILES O=C([N-]/C=C(/O)N1C[C@H](O)C[C@H]1Cn1cccc1)c1ccc2cc(Cl)ccc2n1
DOCKED: REMARK SMILES IDX 4 1 5 2 6 3 7 5 8 6 12 7 9 8 11 9 13 10 14 11 15 12 18 13
DOCKED: REMARK SMILES IDX 16 14 17 15 10 16 3 18 2 19 1 20 19 21 29 22 20 23 28 24
DOCKED: REMARK SMILES IDX 21 25 27 26 22 27 26 28 23 29 24 30 25 31
DOCKED: REMARK H PARENT 6 4 10 17
DOCKED: USER                              x       y       z     vdW  Elec       q    Type
DOCKED: USER                           _______ _______ _______ _____ _____    ______ ____
DOCKED: ROOT
DOCKED: ATOM      1  C   UNL     1     141.833  73.676 221.172 -0.19 +0.01    -0.069 C  
DOCKED: ENDROOT
DOCKED: BRANCH   1   2
DOCKED: ATOM      2  C   UNL     1     142.156  72.601 220.434 -0.16 -0.02    +0.164 C  
DOCKED: BRANCH   2   3
DOCKED: ATOM      3  O   UNL     1     141.128  71.791 219.944 -0.01 +0.08    -0.496 OA 
DOCKED: ATOM      4  H   UNL     1     140.151  72.051 220.018 +0.05 -0.05    +0.295 HD 
DOCKED: ENDBRANCH   2   3
DOCKED: BRANCH   2   5
DOCKED: ATOM      5  N   UNL     1     143.519  72.219 220.140 -0.10 +0.04    -0.337 N  
DOCKED: ATOM      6  C   UNL     1     144.629  72.919 220.762 -0.37 -0.03    +0.151 C  
DOCKED: ATOM      7  C   UNL     1     143.968  71.113 219.290 -0.17 +0.00    +0.107 C  
DOCKED: ATOM      8  C   UNL     1     145.886  72.447 220.032 -0.36 +0.05    +0.136 C  
DOCKED: ATOM      9  C   UNL     1     145.504  71.130 219.350 -0.27 +0.03    +0.060 C  
DOCKED: BRANCH   7  10
DOCKED: ATOM     10  C   UNL     1     143.368  69.752 219.722 -0.13 -0.01    +0.146 C  
DOCKED: BRANCH  10  11
DOCKED: ATOM     11  N   UNL     1     144.206  68.614 219.327 -0.12 +0.01    -0.352 N  
DOCKED: ATOM     12  C   UNL     1     144.216  68.008 218.123 -0.18 -0.02    +0.085 A  
DOCKED: ATOM     13  C   UNL     1     145.149  68.015 220.081 -0.35 +0.02    +0.085 A  
DOCKED: ATOM     14  C   UNL     1     145.158  67.000 218.115 -0.37 -0.01    +0.019 A  
DOCKED: ATOM     15  C   UNL     1     145.752  67.005 219.362 -0.56 -0.00    +0.019 A  
DOCKED: ENDBRANCH  10  11
DOCKED: ENDBRANCH   7  10
DOCKED: BRANCH   8  16
DOCKED: ATOM     16  O   UNL     1     146.311  73.400 219.089 -0.68 -0.24    -0.391 OA 
DOCKED: ATOM     17  H   UNL     1     145.686  74.172 219.133 -0.40 -0.06    +0.211 HD 
DOCKED: ENDBRANCH   8  16
DOCKED: ENDBRANCH   2   5
DOCKED: ENDBRANCH   1   2
DOCKED: BRANCH   1  18
DOCKED: ATOM     18  N   UNL     1     140.649  73.725 221.968 -0.56 +0.02    -0.623 NA 
DOCKED: BRANCH  18  19
DOCKED: ATOM     19  C   UNL     1     139.684  72.673 222.034 -0.24 -0.02    +0.104 C  
DOCKED: ATOM     20  O   UNL     1     138.743  72.619 221.197 -0.06 +0.07    -0.313 OA 
DOCKED: BRANCH  19  21
DOCKED: ATOM     21  C   UNL     1     139.799  71.659 223.097 -0.31 -0.02    +0.089 A  
DOCKED: ATOM     22  N   UNL     1     140.300  72.025 224.310 -0.19 +0.04    -0.246 NA 
DOCKED: ATOM     23  C   UNL     1     139.396  70.331 222.888 -0.23 -0.01    +0.031 A  
DOCKED: ATOM     24  C   UNL     1     140.428  71.143 225.336 -0.50 -0.01    +0.071 A  
DOCKED: ATOM     25  C   UNL     1     139.515  69.401 223.925 -0.26 -0.00    +0.013 A  
DOCKED: ATOM     26  C   UNL     1     140.948  71.566 226.564 -0.69 -0.00    +0.030 A  
DOCKED: ATOM     27  C   UNL     1     140.034  69.799 225.163 -0.43 -0.00    +0.002 A  
DOCKED: ATOM     28  C   UNL     1     141.077  70.656 227.618 -0.63 -0.00    +0.023 A  
DOCKED: ATOM     29  C   UNL     1     140.166  68.892 226.224 -0.52 -0.01    +0.030 A  
DOCKED: ATOM     30  C   UNL     1     140.688  69.322 227.450 -0.58 -0.01    +0.041 A  
DOCKED: ATOM     31  Cl  UNL     1     140.854  68.187 228.778 -0.62 +0.02    -0.084 Cl 
DOCKED: ENDBRANCH  19  21
DOCKED: ENDBRANCH  18  19
DOCKED: ENDBRANCH   1  18
DOCKED: TORSDOF 9
DOCKED: TER
DOCKED: ENDMDL
________________________________________________________________________________


    CLUSTERING HISTOGRAM
    ____________________


________________________________________________________________________________
     |           |     |           |     |
Clus | Lowest    | Run | Mean      | Num | Histogram
-ter | Binding   |     | Binding   | in  |
Rank | Energy    |     | Energy    | Clus|    5    10   15   20   25   30   35
_____|___________|_____|___________|_____|____:____|____:____|____:____|____:___
   1 |     -8.09 |   7 |     -7.71 |   4 |####
   2 |     -7.78 |  12 |     -7.18 |   7 |#######
   3 |     -7.66 |   1 |     -7.48 |   6 |######
   4 |     -7.21 |  14 |     -7.02 |   3 |###
_____|___________|_____|___________|_____|______________________________________


    RMSD TABLE
    __________


_______________________________________________________________________
     |      |      |           |         |                 |
Rank | Sub- | Run  | Binding   | Cluster | Reference       | Grep
     | Rank |      | Energy    | RMSD    | RMSD            | Pattern
_____|______|______|___________|_________|_________________|___________
   1      1      7       -8.09      0.00    272.25           RANKING
   1      2      4       -7.82      1.87    271.74           RANKING
   1      3     11       -7.53      1.89    271.41           RANKING
   1      4     17       -7.40      1.88    271.40           RANKING
   2      1     12       -7.78      0.00    271.99           RANKING
   2      2     10       -7.59      1.09    272.05           RANKING
   2      3     18       -7.22      1.31    271.94           RANKING
   2      4      9       -7.17      1.12    271.69           RANKING
   2      5     19       -7.07      1.48    271.10           RANKING
   2      6      3       -6.94      1.60    271.08           RANKING
   2      7     15       -6.51      1.83    271.70           RANKING
   3      1      1       -7.66      0.00    270.93           RANKING
   3      2     20       -7.62      0.27    270.90           RANKING
   3      3     16       -7.52      1.00    270.60           RANKING
   3      4      8       -7.48      0.40    270.83           RANKING
   3      5     13       -7.32      0.48    270.77           RANKING
   3      6      2       -7.27      0.40    270.75           RANKING
   4      1     14       -7.21      0.00    271.40           RANKING
   4      2      6       -7.00      0.82    271.23           RANKING
   4      3      5       -6.85      0.77    271.27           RANKING

Run time 1.372 sec
Idle time 0.000 sec
