AutoDock-GPU version: v1.6

**********************************************************
**    AutoDock-GPU AUTODOCKTOOLS-COMPATIBLE DLG FILE    **
**********************************************************


    DOCKING PARAMETERS
    ________________________


Ligand file:                               /home/a/REINVENT4/ReinventStudies/pleaseWork/justmol2mol_4_Compounds_ontop/graph-dock-8u2o5u/graph-DockGPU/node-autodockgpu/inputs/PEFSKTUOPDHHKI-VODQWZPQNA-M.pdbqt
Grid fld file:                             /home/a/REINVENT4/ReinventStudies/mols/Rad51/maps/rad51_receptor.maps.fld

Random seed:                               42
Number of runs:                            20
Number of energy evaluations:              1259779
Number of generations:                     42000
Size of population:                        150
Rate of crossover:                         80.000000%
Tournament selection probability limit:    60.000000%
Rate of mutation:                          2.000000%
Maximal allowed delta movement:            +/- 6.000000A
Maximal allowed delta angle:               +/- 90.000000

Rate of local search:                      100.000000%
Maximal number of local search iterations: 300
Rho lower bound:                           0.010000
Spread of local search delta movement:     2.000000A
Spread of local search delta angle:        74.999999
Limit of consecutive successes/failures:   4

Handle symmetry during clustering:         YES
RMSD tolerance:                            2.000000A

Program call in command line was:          /home/a/REINVENT4/ReinventStudies/adgpu-v1.6_linux_x64_cuda12_128wi --filelist batch.txt --heuristics 1 --nrun 20 --psize 150 --lsit 300 --seed 42 --heurmax 12000000 


    GRID PARAMETERS
    ________________________


Receptor name:                             rad51_receptor
Number of grid points (x, y, z):           53, 53, 53
Grid center (x, y, z):                     139.950000, 75.640000, 221.970000A
Grid size (x, y, z):                       19.500000, 19.500000, 19.500000A
Grid spacing:                              0.375000A


    LIGAND PARAMETERS
    ________________________


Ligand name:                               /home/a/REINVENT4/ReinventStudies/pleaseWork/justmol2mol_4_Compounds_ontop/graph-dock-8u2o5u/graph-DockGPU/node-autodockgpu/inputs/PEFSKTUOPDHHKI-VODQWZPQNA-M
Number of atoms:                           29
Number of rotatable bonds:                 7
Number of atom types:                      7


    DUMMY DATA (only for ADT-compatibility)
    ________________________


DPF> outlev 1
DPF> ga_run 20
DPF> fld /home/a/REINVENT4/ReinventStudies/mols/Rad51/maps/rad51_receptor.maps.fld
DPF> move /home/a/REINVENT4/ReinventStudies/pleaseWork/justmol2mol_4_Compounds_ontop/graph-dock-8u2o5u/graph-DockGPU/node-autodockgpu/inputs/PEFSKTUOPDHHKI-VODQWZPQNA-M.pdbqt


    COUNTER STATES
    ________________________


Number of energy evaluations performed:    913438
Number of generations used:                45


    INPUT LIGAND PDBQT FILE:
    ________________________


INPUT-LIGAND-PDBQT: REMARK SMILES O=C([N-]/C=C(\O)N1CCCC[C@@H]1C1CCCC1)c1ccc2cc(F)ccc2n1
INPUT-LIGAND-PDBQT: REMARK SMILES IDX 4 1 5 2 6 3 7 5 8 6 12 7 9 8 11 9 10 10 13 11 14 12 17 13
INPUT-LIGAND-PDBQT: REMARK SMILES IDX 15 14 16 15 3 16 2 17 1 18 18 19 28 20 19 21 27 22 20 23
INPUT-LIGAND-PDBQT: REMARK SMILES IDX 26 24 21 25 25 26 22 27 23 28 24 29
INPUT-LIGAND-PDBQT: REMARK H PARENT 6 4
INPUT-LIGAND-PDBQT: ROOT
INPUT-LIGAND-PDBQT: ATOM      1  C   UNL     1       1.181   0.928   0.612  1.00  0.00    -0.069 C 
INPUT-LIGAND-PDBQT: ENDROOT
INPUT-LIGAND-PDBQT: BRANCH   1   2
INPUT-LIGAND-PDBQT: ATOM      2  C   UNL     1       0.510   0.261  -0.338  1.00  0.00     0.164 C 
INPUT-LIGAND-PDBQT: BRANCH   2   3
INPUT-LIGAND-PDBQT: ATOM      3  O   UNL     1       0.864  -1.048  -0.659  1.00  0.00    -0.496 OA
INPUT-LIGAND-PDBQT: ATOM      4  H   UNL     1       0.368  -1.566  -1.374  1.00  0.00     0.295 HD
INPUT-LIGAND-PDBQT: ENDBRANCH   2   3
INPUT-LIGAND-PDBQT: BRANCH   2   5
INPUT-LIGAND-PDBQT: ATOM      5  N   UNL     1      -0.592   0.878  -1.027  1.00  0.00    -0.342 N 
INPUT-LIGAND-PDBQT: ATOM      6  C   UNL     1      -1.905   0.221  -0.970  1.00  0.00     0.120 C 
INPUT-LIGAND-PDBQT: ATOM      7  C   UNL     1      -0.439   2.161  -1.754  1.00  0.00     0.088 C 
INPUT-LIGAND-PDBQT: ATOM      8  C   UNL     1      -2.974   1.183  -0.426  1.00  0.00     0.022 C 
INPUT-LIGAND-PDBQT: ATOM      9  C   UNL     1      -1.822   2.792  -2.036  1.00  0.00     0.025 C 
INPUT-LIGAND-PDBQT: ATOM     10  C   UNL     1      -2.726   2.657  -0.807  1.00  0.00     0.004 C 
INPUT-LIGAND-PDBQT: BRANCH   7  11
INPUT-LIGAND-PDBQT: ATOM     11  C   UNL     1       0.370   2.019  -3.079  1.00  0.00     0.012 C 
INPUT-LIGAND-PDBQT: ATOM     12  C   UNL     1      -0.002   0.813  -3.941  1.00  0.00     0.006 C 
INPUT-LIGAND-PDBQT: ATOM     13  C   UNL     1       1.890   1.941  -2.891  1.00  0.00     0.006 C 
INPUT-LIGAND-PDBQT: ATOM     14  C   UNL     1       1.216   0.575  -4.812  1.00  0.00     0.000 C 
INPUT-LIGAND-PDBQT: ATOM     15  C   UNL     1       2.414   0.988  -3.967  1.00  0.00     0.000 C 
INPUT-LIGAND-PDBQT: ENDBRANCH   7  11
INPUT-LIGAND-PDBQT: ENDBRANCH   2   5
INPUT-LIGAND-PDBQT: ENDBRANCH   1   2
INPUT-LIGAND-PDBQT: BRANCH   1  16
INPUT-LIGAND-PDBQT: ATOM     16  N   UNL     1       2.263   0.342   1.350  1.00  0.00    -0.623 NA
INPUT-LIGAND-PDBQT: BRANCH  16  17
INPUT-LIGAND-PDBQT: ATOM     17  C   UNL     1       2.309  -1.000   1.857  1.00  0.00     0.104 C 
INPUT-LIGAND-PDBQT: ATOM     18  O   UNL     1       3.433  -1.543   2.028  1.00  0.00    -0.313 OA
INPUT-LIGAND-PDBQT: BRANCH  17  19
INPUT-LIGAND-PDBQT: ATOM     19  C   UNL     1       1.078  -1.732   2.231  1.00  0.00     0.089 A 
INPUT-LIGAND-PDBQT: ATOM     20  N   UNL     1      -0.077  -1.043   2.448  1.00  0.00    -0.246 NA
INPUT-LIGAND-PDBQT: ATOM     21  C   UNL     1       1.083  -3.129   2.372  1.00  0.00     0.031 A 
INPUT-LIGAND-PDBQT: ATOM     22  C   UNL     1      -1.239  -1.662   2.783  1.00  0.00     0.071 A 
INPUT-LIGAND-PDBQT: ATOM     23  C   UNL     1      -0.097  -3.796   2.713  1.00  0.00     0.013 A 
INPUT-LIGAND-PDBQT: ATOM     24  C   UNL     1      -2.401  -0.911   2.991  1.00  0.00     0.032 A 
INPUT-LIGAND-PDBQT: ATOM     25  C   UNL     1      -1.274  -3.067   2.920  1.00  0.00     0.003 A 
INPUT-LIGAND-PDBQT: ATOM     26  C   UNL     1      -3.597  -1.552   3.328  1.00  0.00     0.041 A 
INPUT-LIGAND-PDBQT: ATOM     27  C   UNL     1      -2.478  -3.703   3.262  1.00  0.00     0.049 A 
INPUT-LIGAND-PDBQT: ATOM     28  C   UNL     1      -3.636  -2.944   3.464  1.00  0.00     0.123 A 
INPUT-LIGAND-PDBQT: ATOM     29  F   UNL     1      -4.799  -3.559   3.795  1.00  0.00    -0.207 F 
INPUT-LIGAND-PDBQT: ENDBRANCH  17  19
INPUT-LIGAND-PDBQT: ENDBRANCH  16  17
INPUT-LIGAND-PDBQT: ENDBRANCH   1  16
INPUT-LIGAND-PDBQT: TORSDOF 7


    FINAL DOCKED STATE:
    ________________________


Run:   1 / 20
Time taken for this run:   0.036s

DOCKED: MODEL        1
DOCKED: USER    Run = 1
DOCKED: USER
DOCKED: USER    Estimated Free Energy of Binding    =  -8.09 kcal/mol  [=(1)+(2)+(3)-(4)]
DOCKED: USER
DOCKED: USER    (1) Final Intermolecular Energy     = -10.18 kcal/mol
DOCKED: USER        vdW + Hbond + desolv Energy     = -10.21 kcal/mol
DOCKED: USER        Electrostatic Energy            =  +0.02 kcal/mol
DOCKED: USER        Moving Ligand-Fixed Receptor    = -10.18 kcal/mol
DOCKED: USER        Moving Ligand-Moving Receptor   =  +0.00 kcal/mol
DOCKED: USER    (2) Final Total Internal Energy     =  -2.05 kcal/mol
DOCKED: USER    (3) Torsional Free Energy           =  +2.09 kcal/mol
DOCKED: USER    (4) Unbound System's Energy         =  -2.05 kcal/mol
DOCKED: USER
DOCKED: USER
DOCKED: REMARK SMILES O=C([N-]/C=C(\O)N1CCCC[C@@H]1C1CCCC1)c1ccc2cc(F)ccc2n1
DOCKED: REMARK SMILES IDX 4 1 5 2 6 3 7 5 8 6 12 7 9 8 11 9 10 10 13 11 14 12 17 13
DOCKED: REMARK SMILES IDX 15 14 16 15 3 16 2 17 1 18 18 19 28 20 19 21 27 22 20 23
DOCKED: REMARK SMILES IDX 26 24 21 25 25 26 22 27 23 28 24 29
DOCKED: REMARK H PARENT 6 4
DOCKED: USER                              x       y       z     vdW  Elec       q    Type
DOCKED: USER                           _______ _______ _______ _____ _____    ______ ____
DOCKED: ROOT
DOCKED: ATOM      1  C   UNL     1     140.662  74.809 221.573 -0.30 +0.01    -0.069 C  
DOCKED: ENDROOT
DOCKED: BRANCH   1   2
DOCKED: ATOM      2  C   UNL     1     139.816  75.745 222.026 -0.26 -0.03    +0.164 C  
DOCKED: BRANCH   2   3
DOCKED: ATOM      3  O   UNL     1     138.616  75.374 222.630 -0.16 +0.14    -0.496 OA 
DOCKED: ATOM      4  H   UNL     1     138.372  74.399 222.758 -0.49 -0.15    +0.295 HD 
DOCKED: ENDBRANCH   2   3
DOCKED: BRANCH   2   5
DOCKED: ATOM      5  N   UNL     1     140.139  77.142 221.910 -0.16 +0.10    -0.342 N  
DOCKED: ATOM      6  C   UNL     1     139.159  78.126 222.391 -0.25 -0.02    +0.120 C  
DOCKED: ATOM      7  C   UNL     1     141.434  77.601 221.354 -0.26 -0.05    +0.088 C  
DOCKED: ATOM      8  C   UNL     1     139.794  79.065 223.430 -0.39 -0.00    +0.022 C  
DOCKED: ATOM      9  C   UNL     1     141.687  79.081 221.721 -0.42 -0.01    +0.025 C  
DOCKED: ATOM     10  C   UNL     1     141.290  79.341 223.177 -0.56 -0.00    +0.004 C  
DOCKED: BRANCH   7  11
DOCKED: ATOM     11  C   UNL     1     141.542  77.401 219.812 -0.26 -0.01    +0.012 C  
DOCKED: ATOM     12  C   UNL     1     142.713  76.534 219.349 -0.35 -0.00    +0.006 C  
DOCKED: ATOM     13  C   UNL     1     141.647  78.702 219.007 -0.25 -0.00    +0.006 C  
DOCKED: ATOM     14  C   UNL     1     142.937  76.933 217.904 -0.30 -0.00    +0.000 C  
DOCKED: ATOM     15  C   UNL     1     142.570  78.409 217.823 -0.31 -0.00    +0.000 C  
DOCKED: ENDBRANCH   7  11
DOCKED: ENDBRANCH   2   5
DOCKED: ENDBRANCH   1   2
DOCKED: BRANCH   1  16
DOCKED: ATOM     16  N   UNL     1     140.764  73.507 222.167 -0.45 -0.01    -0.623 NA 
DOCKED: BRANCH  16  17
DOCKED: ATOM     17  C   UNL     1     139.681  72.588 222.377 -0.25 -0.02    +0.104 C  
DOCKED: ATOM     18  O   UNL     1     138.707  72.609 221.578 -0.09 +0.07    -0.313 OA 
DOCKED: BRANCH  17  19
DOCKED: ATOM     19  C   UNL     1     139.711  71.589 223.469 -0.32 -0.02    +0.089 A  
DOCKED: ATOM     20  N   UNL     1     140.329  71.893 224.645 -0.26 +0.04    -0.246 NA 
DOCKED: ATOM     21  C   UNL     1     139.115  70.327 223.310 -0.26 -0.01    +0.031 A  
DOCKED: ATOM     22  C   UNL     1     140.378  71.020 225.685 -0.52 -0.01    +0.071 A  
DOCKED: ATOM     23  C   UNL     1     139.146  69.408 224.363 -0.34 -0.00    +0.013 A  
DOCKED: ATOM     24  C   UNL     1     141.020  71.380 226.875 -0.70 -0.01    +0.032 A  
DOCKED: ATOM     25  C   UNL     1     139.777  69.748 225.565 -0.45 -0.00    +0.003 A  
DOCKED: ATOM     26  C   UNL     1     141.062  70.482 227.946 -0.61 -0.01    +0.041 A  
DOCKED: ATOM     27  C   UNL     1     139.827  68.851 226.644 -0.53 -0.01    +0.049 A  
DOCKED: ATOM     28  C   UNL     1     140.468  69.221 227.831 -0.53 -0.02    +0.123 A  
DOCKED: ATOM     29  F   UNL     1     140.516  68.354 228.874 -0.18 +0.05    -0.207 F  
DOCKED: ENDBRANCH  17  19
DOCKED: ENDBRANCH  16  17
DOCKED: ENDBRANCH   1  16
DOCKED: TORSDOF 7
DOCKED: TER
DOCKED: ENDMDL
________________________________________________________________________________


    FINAL DOCKED STATE:
    ________________________


Run:   2 / 20
Time taken for this run:   0.036s

DOCKED: MODEL        2
DOCKED: USER    Run = 2
DOCKED: USER
DOCKED: USER    Estimated Free Energy of Binding    =  -8.39 kcal/mol  [=(1)+(2)+(3)-(4)]
DOCKED: USER
DOCKED: USER    (1) Final Intermolecular Energy     = -10.48 kcal/mol
DOCKED: USER        vdW + Hbond + desolv Energy     = -10.56 kcal/mol
DOCKED: USER        Electrostatic Energy            =  +0.08 kcal/mol
DOCKED: USER        Moving Ligand-Fixed Receptor    = -10.48 kcal/mol
DOCKED: USER        Moving Ligand-Moving Receptor   =  +0.00 kcal/mol
DOCKED: USER    (2) Final Total Internal Energy     =  -2.06 kcal/mol
DOCKED: USER    (3) Torsional Free Energy           =  +2.09 kcal/mol
DOCKED: USER    (4) Unbound System's Energy         =  -2.06 kcal/mol
DOCKED: USER
DOCKED: USER
DOCKED: REMARK SMILES O=C([N-]/C=C(\O)N1CCCC[C@@H]1C1CCCC1)c1ccc2cc(F)ccc2n1
DOCKED: REMARK SMILES IDX 4 1 5 2 6 3 7 5 8 6 12 7 9 8 11 9 10 10 13 11 14 12 17 13
DOCKED: REMARK SMILES IDX 15 14 16 15 3 16 2 17 1 18 18 19 28 20 19 21 27 22 20 23
DOCKED: REMARK SMILES IDX 26 24 21 25 25 26 22 27 23 28 24 29
DOCKED: REMARK H PARENT 6 4
DOCKED: USER                              x       y       z     vdW  Elec       q    Type
DOCKED: USER                           _______ _______ _______ _____ _____    ______ ____
DOCKED: ROOT
DOCKED: ATOM      1  C   UNL     1     141.142  73.803 221.212 -0.26 +0.01    -0.069 C  
DOCKED: ENDROOT
DOCKED: BRANCH   1   2
DOCKED: ATOM      2  C   UNL     1     140.741  75.056 221.469 -0.26 -0.03    +0.164 C  
DOCKED: BRANCH   2   3
DOCKED: ATOM      3  O   UNL     1     139.697  75.289 222.362 -0.51 +0.06    -0.496 OA 
DOCKED: ATOM      4  H   UNL     1     139.257  74.529 222.866 -0.42 -0.07    +0.295 HD 
DOCKED: ENDBRANCH   2   3
DOCKED: BRANCH   2   5
DOCKED: ATOM      5  N   UNL     1     141.389  76.176 220.840 -0.13 +0.15    -0.342 N  
DOCKED: ATOM      6  C   UNL     1     142.620  75.930 220.077 -0.25 -0.07    +0.120 C  
DOCKED: ATOM      7  C   UNL     1     140.829  77.547 220.917 -0.24 -0.04    +0.088 C  
DOCKED: ATOM      8  C   UNL     1     142.483  76.448 218.636 -0.27 -0.01    +0.022 C  
DOCKED: ATOM      9  C   UNL     1     141.469  78.454 219.841 -0.26 -0.01    +0.025 C  
DOCKED: ATOM     10  C   UNL     1     141.589  77.699 218.514 -0.21 -0.00    +0.004 C  
DOCKED: BRANCH   7  11
DOCKED: ATOM     11  C   UNL     1     140.983  78.191 222.328 -0.45 -0.00    +0.012 C  
DOCKED: ATOM     12  C   UNL     1     139.799  79.041 222.787 -0.37 -0.00    +0.006 C  
DOCKED: ATOM     13  C   UNL     1     142.220  79.082 222.489 -0.51 -0.00    +0.006 C  
DOCKED: ATOM     14  C   UNL     1     140.376  79.963 223.843 -0.44 -0.00    +0.000 C  
DOCKED: ATOM     15  C   UNL     1     141.814  80.229 223.417 -0.63 -0.00    +0.000 C  
DOCKED: ENDBRANCH   7  11
DOCKED: ENDBRANCH   2   5
DOCKED: ENDBRANCH   1   2
DOCKED: BRANCH   1  16
DOCKED: ATOM     16  N   UNL     1     141.045  72.747 222.179 -0.15 +0.02    -0.623 NA 
DOCKED: BRANCH  16  17
DOCKED: ATOM     17  C   UNL     1     139.835  72.263 222.781 -0.27 -0.02    +0.104 C  
DOCKED: ATOM     18  O   UNL     1     138.732  72.683 222.341 -0.16 +0.09    -0.313 OA 
DOCKED: BRANCH  17  19
DOCKED: ATOM     19  C   UNL     1     139.856  71.250 223.860 -0.36 -0.02    +0.089 A  
DOCKED: ATOM     20  N   UNL     1     140.439  71.548 225.055 -0.32 +0.04    -0.246 NA 
DOCKED: ATOM     21  C   UNL     1     139.287  69.980 223.670 -0.27 -0.01    +0.031 A  
DOCKED: ATOM     22  C   UNL     1     140.478  70.662 226.084 -0.53 -0.01    +0.071 A  
DOCKED: ATOM     23  C   UNL     1     139.309  69.047 224.710 -0.37 -0.00    +0.013 A  
DOCKED: ATOM     24  C   UNL     1     141.084  71.017 227.294 -0.66 -0.01    +0.032 A  
DOCKED: ATOM     25  C   UNL     1     139.904  69.381 225.933 -0.48 -0.00    +0.003 A  
DOCKED: ATOM     26  C   UNL     1     141.116  70.106 228.354 -0.50 -0.01    +0.041 A  
DOCKED: ATOM     27  C   UNL     1     139.943  68.471 227.000 -0.59 -0.01    +0.049 A  
DOCKED: ATOM     28  C   UNL     1     140.547  68.836 228.208 -0.54 -0.03    +0.123 A  
DOCKED: ATOM     29  F   UNL     1     140.585  67.955 229.240 -0.13 +0.05    -0.207 F  
DOCKED: ENDBRANCH  17  19
DOCKED: ENDBRANCH  16  17
DOCKED: ENDBRANCH   1  16
DOCKED: TORSDOF 7
DOCKED: TER
DOCKED: ENDMDL
________________________________________________________________________________


    FINAL DOCKED STATE:
    ________________________


Run:   3 / 20
Time taken for this run:   0.036s

DOCKED: MODEL        3
DOCKED: USER    Run = 3
DOCKED: USER
DOCKED: USER    Estimated Free Energy of Binding    =  -7.49 kcal/mol  [=(1)+(2)+(3)-(4)]
DOCKED: USER
DOCKED: USER    (1) Final Intermolecular Energy     =  -9.57 kcal/mol
DOCKED: USER        vdW + Hbond + desolv Energy     =  -9.59 kcal/mol
DOCKED: USER        Electrostatic Energy            =  +0.02 kcal/mol
DOCKED: USER        Moving Ligand-Fixed Receptor    =  -9.57 kcal/mol
DOCKED: USER        Moving Ligand-Moving Receptor   =  +0.00 kcal/mol
DOCKED: USER    (2) Final Total Internal Energy     =  -1.93 kcal/mol
DOCKED: USER    (3) Torsional Free Energy           =  +2.09 kcal/mol
DOCKED: USER    (4) Unbound System's Energy         =  -1.93 kcal/mol
DOCKED: USER
DOCKED: USER
DOCKED: REMARK SMILES O=C([N-]/C=C(\O)N1CCCC[C@@H]1C1CCCC1)c1ccc2cc(F)ccc2n1
DOCKED: REMARK SMILES IDX 4 1 5 2 6 3 7 5 8 6 12 7 9 8 11 9 10 10 13 11 14 12 17 13
DOCKED: REMARK SMILES IDX 15 14 16 15 3 16 2 17 1 18 18 19 28 20 19 21 27 22 20 23
DOCKED: REMARK SMILES IDX 26 24 21 25 25 26 22 27 23 28 24 29
DOCKED: REMARK H PARENT 6 4
DOCKED: USER                              x       y       z     vdW  Elec       q    Type
DOCKED: USER                           _______ _______ _______ _____ _____    ______ ____
DOCKED: ROOT
DOCKED: ATOM      1  C   UNL     1     140.339  75.051 221.970 -0.20 +0.01    -0.069 C  
DOCKED: ENDROOT
DOCKED: BRANCH   1   2
DOCKED: ATOM      2  C   UNL     1     140.425  75.499 220.709 -0.18 -0.04    +0.164 C  
DOCKED: BRANCH   2   3
DOCKED: ATOM      3  O   UNL     1     139.659  74.913 219.703 +0.01 +0.12    -0.496 OA 
DOCKED: ATOM      4  H   UNL     1     139.294  73.973 219.801 +0.05 -0.06    +0.295 HD 
DOCKED: ENDBRANCH   2   3
DOCKED: BRANCH   2   5
DOCKED: ATOM      5  N   UNL     1     141.294  76.597 220.379 -0.10 +0.15    -0.342 N  
DOCKED: ATOM      6  C   UNL     1     142.588  76.297 219.752 -0.29 -0.07    +0.120 C  
DOCKED: ATOM      7  C   UNL     1     140.900  78.005 220.624 -0.22 -0.04    +0.088 C  
DOCKED: ATOM      8  C   UNL     1     142.738  77.050 218.420 -0.31 -0.01    +0.022 C  
DOCKED: ATOM      9  C   UNL     1     141.803  78.968 219.819 -0.27 -0.01    +0.025 C  
DOCKED: ATOM     10  C   UNL     1     142.033  78.422 218.406 -0.28 -0.00    +0.004 C  
DOCKED: BRANCH   7  11
DOCKED: ATOM     11  C   UNL     1     140.913  78.389 222.135 -0.41 -0.00    +0.012 C  
DOCKED: ATOM     12  C   UNL     1     139.798  79.337 222.574 -0.34 -0.00    +0.006 C  
DOCKED: ATOM     13  C   UNL     1     142.219  79.033 222.616 -0.52 -0.00    +0.006 C  
DOCKED: ATOM     14  C   UNL     1     140.320  79.979 223.845 -0.44 -0.00    +0.000 C  
DOCKED: ATOM     15  C   UNL     1     141.830  80.072 223.669 -0.62 -0.00    +0.000 C  
DOCKED: ENDBRANCH   7  11
DOCKED: ENDBRANCH   2   5
DOCKED: ENDBRANCH   1   2
DOCKED: BRANCH   1  16
DOCKED: ATOM     16  N   UNL     1     140.705  73.715 222.343 -0.45 -0.05    -0.623 NA 
DOCKED: BRANCH  16  17
DOCKED: ATOM     17  C   UNL     1     139.849  72.564 222.302 -0.26 -0.02    +0.104 C  
DOCKED: ATOM     18  O   UNL     1     139.163  72.357 221.265 -0.07 +0.06    -0.313 OA 
DOCKED: BRANCH  17  19
DOCKED: ATOM     19  C   UNL     1     139.798  71.593 223.419 -0.32 -0.02    +0.089 A  
DOCKED: ATOM     20  N   UNL     1     140.406  71.892 224.600 -0.26 +0.04    -0.246 NA 
DOCKED: ATOM     21  C   UNL     1     139.135  70.364 223.277 -0.26 -0.01    +0.031 A  
DOCKED: ATOM     22  C   UNL     1     140.383  71.046 225.663 -0.52 -0.01    +0.071 A  
DOCKED: ATOM     23  C   UNL     1     139.091  69.472 224.353 -0.33 -0.00    +0.013 A  
DOCKED: ATOM     24  C   UNL     1     141.018  71.400 226.858 -0.70 -0.01    +0.032 A  
DOCKED: ATOM     25  C   UNL     1     139.714  69.806 225.561 -0.45 -0.00    +0.003 A  
DOCKED: ATOM     26  C   UNL     1     140.986  70.530 227.952 -0.62 -0.01    +0.041 A  
DOCKED: ATOM     27  C   UNL     1     139.689  68.937 226.662 -0.52 -0.01    +0.049 A  
DOCKED: ATOM     28  C   UNL     1     140.324  69.301 227.855 -0.52 -0.02    +0.123 A  
DOCKED: ATOM     29  F   UNL     1     140.299  68.460 228.919 -0.17 +0.04    -0.207 F  
DOCKED: ENDBRANCH  17  19
DOCKED: ENDBRANCH  16  17
DOCKED: ENDBRANCH   1  16
DOCKED: TORSDOF 7
DOCKED: TER
DOCKED: ENDMDL
________________________________________________________________________________


    FINAL DOCKED STATE:
    ________________________


Run:   4 / 20
Time taken for this run:   0.036s

DOCKED: MODEL        4
DOCKED: USER    Run = 4
DOCKED: USER
DOCKED: USER    Estimated Free Energy of Binding    =  -7.73 kcal/mol  [=(1)+(2)+(3)-(4)]
DOCKED: USER
DOCKED: USER    (1) Final Intermolecular Energy     =  -9.82 kcal/mol
DOCKED: USER        vdW + Hbond + desolv Energy     =  -9.82 kcal/mol
DOCKED: USER        Electrostatic Energy            =  +0.00 kcal/mol
DOCKED: USER        Moving Ligand-Fixed Receptor    =  -9.82 kcal/mol
DOCKED: USER        Moving Ligand-Moving Receptor   =  +0.00 kcal/mol
DOCKED: USER    (2) Final Total Internal Energy     =  -2.02 kcal/mol
DOCKED: USER    (3) Torsional Free Energy           =  +2.09 kcal/mol
DOCKED: USER    (4) Unbound System's Energy         =  -2.02 kcal/mol
DOCKED: USER
DOCKED: USER
DOCKED: REMARK SMILES O=C([N-]/C=C(\O)N1CCCC[C@@H]1C1CCCC1)c1ccc2cc(F)ccc2n1
DOCKED: REMARK SMILES IDX 4 1 5 2 6 3 7 5 8 6 12 7 9 8 11 9 10 10 13 11 14 12 17 13
DOCKED: REMARK SMILES IDX 15 14 16 15 3 16 2 17 1 18 18 19 28 20 19 21 27 22 20 23
DOCKED: REMARK SMILES IDX 26 24 21 25 25 26 22 27 23 28 24 29
DOCKED: REMARK H PARENT 6 4
DOCKED: USER                              x       y       z     vdW  Elec       q    Type
DOCKED: USER                           _______ _______ _______ _____ _____    ______ ____
DOCKED: ROOT
DOCKED: ATOM      1  C   UNL     1     140.239  72.059 222.523 -0.30 +0.01    -0.069 C  
DOCKED: ENDROOT
DOCKED: BRANCH   1   2
DOCKED: ATOM      2  C   UNL     1     138.986  71.780 222.908 -0.19 -0.04    +0.164 C  
DOCKED: BRANCH   2   3
DOCKED: ATOM      3  O   UNL     1     137.969  72.714 222.719 +0.01 +0.19    -0.496 OA 
DOCKED: ATOM      4  H   UNL     1     138.156  73.709 222.754 -0.49 -0.16    +0.295 HD 
DOCKED: ENDBRANCH   2   3
DOCKED: BRANCH   2   5
DOCKED: ATOM      5  N   UNL     1     138.669  70.510 223.506 -0.11 +0.07    -0.342 N  
DOCKED: ATOM      6  C   UNL     1     137.391  69.875 223.157 -0.16 -0.02    +0.120 C  
DOCKED: ATOM      7  C   UNL     1     139.607  69.825 224.428 -0.31 -0.02    +0.088 C  
DOCKED: ATOM      8  C   UNL     1     137.619  68.458 222.605 -0.19 -0.00    +0.022 C  
DOCKED: ATOM      9  C   UNL     1     139.219  68.337 224.588 -0.34 -0.00    +0.025 C  
DOCKED: ATOM     10  C   UNL     1     138.833  67.742 223.231 -0.25 -0.00    +0.004 C  
DOCKED: BRANCH   7  11
DOCKED: ATOM     11  C   UNL     1     139.701  70.512 225.825 -0.44 -0.00    +0.012 C  
DOCKED: ATOM     12  C   UNL     1     140.855  71.501 225.986 -0.64 -0.00    +0.006 C  
DOCKED: ATOM     13  C   UNL     1     139.819  69.540 227.005 -0.57 -0.00    +0.006 C  
DOCKED: ATOM     14  C   UNL     1     141.075  71.590 227.484 -0.80 -0.00    +0.000 C  
DOCKED: ATOM     15  C   UNL     1     140.729  70.213 228.034 -0.64 -0.00    +0.000 C  
DOCKED: ENDBRANCH   7  11
DOCKED: ENDBRANCH   2   5
DOCKED: ENDBRANCH   1   2
DOCKED: BRANCH   1  16
DOCKED: ATOM     16  N   UNL     1     140.715  73.403 222.353 -0.45 -0.03    -0.623 NA 
DOCKED: BRANCH  16  17
DOCKED: ATOM     17  C   UNL     1     140.108  74.415 221.537 -0.26 -0.02    +0.104 C  
DOCKED: ATOM     18  O   UNL     1     139.087  74.116 220.862 -0.08 +0.07    -0.313 OA 
DOCKED: BRANCH  17  19
DOCKED: ATOM     19  C   UNL     1     140.620  75.804 221.513 -0.31 -0.02    +0.089 A  
DOCKED: ATOM     20  N   UNL     1     140.213  76.689 222.466 -0.26 +0.06    -0.246 NA 
DOCKED: ATOM     21  C   UNL     1     141.515  76.227 220.518 -0.27 -0.01    +0.031 A  
DOCKED: ATOM     22  C   UNL     1     140.657  77.972 222.500 -0.39 -0.02    +0.071 A  
DOCKED: ATOM     23  C   UNL     1     141.993  77.541 220.528 -0.28 -0.01    +0.013 A  
DOCKED: ATOM     24  C   UNL     1     140.214  78.843 223.502 -0.35 -0.01    +0.032 A  
DOCKED: ATOM     25  C   UNL     1     141.569  78.428 221.524 -0.38 -0.00    +0.003 A  
DOCKED: ATOM     26  C   UNL     1     140.679  80.161 223.540 -0.46 -0.01    +0.041 A  
DOCKED: ATOM     27  C   UNL     1     142.029  79.754 221.566 -0.40 -0.02    +0.049 A  
DOCKED: ATOM     28  C   UNL     1     141.583  80.616 222.574 -0.43 -0.03    +0.123 A  
DOCKED: ATOM     29  F   UNL     1     142.027  81.898 222.614 -0.11 +0.03    -0.207 F  
DOCKED: ENDBRANCH  17  19
DOCKED: ENDBRANCH  16  17
DOCKED: ENDBRANCH   1  16
DOCKED: TORSDOF 7
DOCKED: TER
DOCKED: ENDMDL
________________________________________________________________________________


    FINAL DOCKED STATE:
    ________________________


Run:   5 / 20
Time taken for this run:   0.036s

DOCKED: MODEL        5
DOCKED: USER    Run = 5
DOCKED: USER
DOCKED: USER    Estimated Free Energy of Binding    =  -8.40 kcal/mol  [=(1)+(2)+(3)-(4)]
DOCKED: USER
DOCKED: USER    (1) Final Intermolecular Energy     = -10.49 kcal/mol
DOCKED: USER        vdW + Hbond + desolv Energy     = -10.56 kcal/mol
DOCKED: USER        Electrostatic Energy            =  +0.07 kcal/mol
DOCKED: USER        Moving Ligand-Fixed Receptor    = -10.49 kcal/mol
DOCKED: USER        Moving Ligand-Moving Receptor   =  +0.00 kcal/mol
DOCKED: USER    (2) Final Total Internal Energy     =  -2.04 kcal/mol
DOCKED: USER    (3) Torsional Free Energy           =  +2.09 kcal/mol
DOCKED: USER    (4) Unbound System's Energy         =  -2.04 kcal/mol
DOCKED: USER
DOCKED: USER
DOCKED: REMARK SMILES O=C([N-]/C=C(\O)N1CCCC[C@@H]1C1CCCC1)c1ccc2cc(F)ccc2n1
DOCKED: REMARK SMILES IDX 4 1 5 2 6 3 7 5 8 6 12 7 9 8 11 9 10 10 13 11 14 12 17 13
DOCKED: REMARK SMILES IDX 15 14 16 15 3 16 2 17 1 18 18 19 28 20 19 21 27 22 20 23
DOCKED: REMARK SMILES IDX 26 24 21 25 25 26 22 27 23 28 24 29
DOCKED: REMARK H PARENT 6 4
DOCKED: USER                              x       y       z     vdW  Elec       q    Type
DOCKED: USER                           _______ _______ _______ _____ _____    ______ ____
DOCKED: ROOT
DOCKED: ATOM      1  C   UNL     1     141.145  73.811 221.226 -0.26 +0.01    -0.069 C  
DOCKED: ENDROOT
DOCKED: BRANCH   1   2
DOCKED: ATOM      2  C   UNL     1     140.765  75.072 221.475 -0.26 -0.03    +0.164 C  
DOCKED: BRANCH   2   3
DOCKED: ATOM      3  O   UNL     1     139.723  75.328 222.364 -0.50 +0.06    -0.496 OA 
DOCKED: ATOM      4  H   UNL     1     139.252  74.576 222.852 -0.41 -0.07    +0.295 HD 
DOCKED: ENDBRANCH   2   3
DOCKED: BRANCH   2   5
DOCKED: ATOM      5  N   UNL     1     141.435  76.178 220.844 -0.13 +0.15    -0.342 N  
DOCKED: ATOM      6  C   UNL     1     142.663  75.906 220.084 -0.25 -0.07    +0.120 C  
DOCKED: ATOM      7  C   UNL     1     140.900  77.559 220.915 -0.25 -0.04    +0.088 C  
DOCKED: ATOM      8  C   UNL     1     142.537  76.421 218.641 -0.28 -0.01    +0.022 C  
DOCKED: ATOM      9  C   UNL     1     141.559  78.451 219.837 -0.27 -0.01    +0.025 C  
DOCKED: ATOM     10  C   UNL     1     141.667  77.688 218.513 -0.21 -0.00    +0.004 C  
DOCKED: BRANCH   7  11
DOCKED: ATOM     11  C   UNL     1     141.064  78.205 222.324 -0.45 -0.00    +0.012 C  
DOCKED: ATOM     12  C   UNL     1     139.874  79.037 222.800 -0.38 -0.00    +0.006 C  
DOCKED: ATOM     13  C   UNL     1     142.290  79.115 222.468 -0.49 -0.00    +0.006 C  
DOCKED: ATOM     14  C   UNL     1     140.452  79.967 223.848 -0.44 -0.00    +0.000 C  
DOCKED: ATOM     15  C   UNL     1     141.880  80.255 223.402 -0.63 -0.00    +0.000 C  
DOCKED: ENDBRANCH   7  11
DOCKED: ENDBRANCH   2   5
DOCKED: ENDBRANCH   1   2
DOCKED: BRANCH   1  16
DOCKED: ATOM     16  N   UNL     1     141.040  72.765 222.203 -0.16 +0.02    -0.623 NA 
DOCKED: BRANCH  16  17
DOCKED: ATOM     17  C   UNL     1     139.821  72.243 222.752 -0.27 -0.02    +0.104 C  
DOCKED: ATOM     18  O   UNL     1     138.725  72.614 222.252 -0.15 +0.09    -0.313 OA 
DOCKED: BRANCH  17  19
DOCKED: ATOM     19  C   UNL     1     139.825  71.247 223.847 -0.36 -0.02    +0.089 A  
DOCKED: ATOM     20  N   UNL     1     140.422  71.551 225.033 -0.32 +0.04    -0.246 NA 
DOCKED: ATOM     21  C   UNL     1     139.226  69.988 223.680 -0.28 -0.01    +0.031 A  
DOCKED: ATOM     22  C   UNL     1     140.448  70.681 226.076 -0.53 -0.01    +0.071 A  
DOCKED: ATOM     23  C   UNL     1     139.234  69.072 224.736 -0.37 -0.00    +0.013 A  
DOCKED: ATOM     24  C   UNL     1     141.070  71.041 227.277 -0.67 -0.01    +0.032 A  
DOCKED: ATOM     25  C   UNL     1     139.844  69.411 225.949 -0.48 -0.00    +0.003 A  
DOCKED: ATOM     26  C   UNL     1     141.088  70.146 228.351 -0.51 -0.01    +0.041 A  
DOCKED: ATOM     27  C   UNL     1     139.869  68.517 227.031 -0.58 -0.01    +0.049 A  
DOCKED: ATOM     28  C   UNL     1     140.490  68.887 228.229 -0.54 -0.03    +0.123 A  
DOCKED: ATOM     29  F   UNL     1     140.514  68.023 229.274 -0.13 +0.05    -0.207 F  
DOCKED: ENDBRANCH  17  19
DOCKED: ENDBRANCH  16  17
DOCKED: ENDBRANCH   1  16
DOCKED: TORSDOF 7
DOCKED: TER
DOCKED: ENDMDL
________________________________________________________________________________


    FINAL DOCKED STATE:
    ________________________


Run:   6 / 20
Time taken for this run:   0.036s

DOCKED: MODEL        6
DOCKED: USER    Run = 6
DOCKED: USER
DOCKED: USER    Estimated Free Energy of Binding    =  -7.54 kcal/mol  [=(1)+(2)+(3)-(4)]
DOCKED: USER
DOCKED: USER    (1) Final Intermolecular Energy     =  -9.63 kcal/mol
DOCKED: USER        vdW + Hbond + desolv Energy     =  -9.67 kcal/mol
DOCKED: USER        Electrostatic Energy            =  +0.05 kcal/mol
DOCKED: USER        Moving Ligand-Fixed Receptor    =  -9.63 kcal/mol
DOCKED: USER        Moving Ligand-Moving Receptor   =  +0.00 kcal/mol
DOCKED: USER    (2) Final Total Internal Energy     =  -2.05 kcal/mol
DOCKED: USER    (3) Torsional Free Energy           =  +2.09 kcal/mol
DOCKED: USER    (4) Unbound System's Energy         =  -2.05 kcal/mol
DOCKED: USER
DOCKED: USER
DOCKED: REMARK SMILES O=C([N-]/C=C(\O)N1CCCC[C@@H]1C1CCCC1)c1ccc2cc(F)ccc2n1
DOCKED: REMARK SMILES IDX 4 1 5 2 6 3 7 5 8 6 12 7 9 8 11 9 10 10 13 11 14 12 17 13
DOCKED: REMARK SMILES IDX 15 14 16 15 3 16 2 17 1 18 18 19 28 20 19 21 27 22 20 23
DOCKED: REMARK SMILES IDX 26 24 21 25 25 26 22 27 23 28 24 29
DOCKED: REMARK H PARENT 6 4
DOCKED: USER                              x       y       z     vdW  Elec       q    Type
DOCKED: USER                           _______ _______ _______ _____ _____    ______ ____
DOCKED: ROOT
DOCKED: ATOM      1  C   UNL     1     141.294  74.545 221.534 -0.20 +0.01    -0.069 C  
DOCKED: ENDROOT
DOCKED: BRANCH   1   2
DOCKED: ATOM      2  C   UNL     1     140.956  75.259 220.450 -0.17 -0.05    +0.164 C  
DOCKED: BRANCH   2   3
DOCKED: ATOM      3  O   UNL     1     139.911  74.838 219.631 +0.01 +0.12    -0.496 OA 
DOCKED: ATOM      4  H   UNL     1     139.388  73.995 219.837 +0.05 -0.06    +0.295 HD 
DOCKED: ENDBRANCH   2   3
DOCKED: BRANCH   2   5
DOCKED: ATOM      5  N   UNL     1     141.655  76.474 220.127 -0.10 +0.16    -0.342 N  
DOCKED: ATOM      6  C   UNL     1     142.938  76.372 219.418 -0.32 -0.07    +0.120 C  
DOCKED: ATOM      7  C   UNL     1     141.099  77.807 220.459 -0.23 -0.04    +0.088 C  
DOCKED: ATOM      8  C   UNL     1     142.910  77.191 218.117 -0.31 -0.02    +0.022 C  
DOCKED: ATOM      9  C   UNL     1     141.821  78.912 219.654 -0.28 -0.02    +0.025 C  
DOCKED: ATOM     10  C   UNL     1     142.035  78.458 218.207 -0.27 -0.00    +0.004 C  
DOCKED: BRANCH   7  11
DOCKED: ATOM     11  C   UNL     1     141.153  78.128 221.984 -0.41 -0.01    +0.012 C  
DOCKED: ATOM     12  C   UNL     1     139.846  78.643 222.586 -0.36 -0.00    +0.006 C  
DOCKED: ATOM     13  C   UNL     1     142.224  79.151 222.382 -0.51 -0.00    +0.006 C  
DOCKED: ATOM     14  C   UNL     1     140.268  79.382 223.841 -0.46 -0.00    +0.000 C  
DOCKED: ATOM     15  C   UNL     1     141.637  79.971 223.532 -0.61 -0.00    +0.000 C  
DOCKED: ENDBRANCH   7  11
DOCKED: ENDBRANCH   2   5
DOCKED: ENDBRANCH   1   2
DOCKED: BRANCH   1  16
DOCKED: ATOM     16  N   UNL     1     140.323  73.873 222.350 -0.55 -0.03    -0.623 NA 
DOCKED: BRANCH  16  17
DOCKED: ATOM     17  C   UNL     1     139.860  72.526 222.174 -0.26 -0.02    +0.104 C  
DOCKED: ATOM     18  O   UNL     1     139.504  72.155 221.024 -0.06 +0.06    -0.313 OA 
DOCKED: BRANCH  17  19
DOCKED: ATOM     19  C   UNL     1     139.844  71.558 223.293 -0.32 -0.02    +0.089 A  
DOCKED: ATOM     20  N   UNL     1     140.423  71.890 224.481 -0.27 +0.04    -0.246 NA 
DOCKED: ATOM     21  C   UNL     1     139.247  70.295 223.148 -0.25 -0.01    +0.031 A  
DOCKED: ATOM     22  C   UNL     1     140.429  71.046 225.546 -0.51 -0.01    +0.071 A  
DOCKED: ATOM     23  C   UNL     1     139.235  69.405 224.225 -0.32 -0.00    +0.013 A  
DOCKED: ATOM     24  C   UNL     1     141.032  71.435 226.747 -0.70 -0.00    +0.032 A  
DOCKED: ATOM     25  C   UNL     1     139.825  69.774 225.440 -0.44 -0.00    +0.003 A  
DOCKED: ATOM     26  C   UNL     1     141.030  70.567 227.843 -0.61 -0.01    +0.041 A  
DOCKED: ATOM     27  C   UNL     1     139.831  68.907 226.544 -0.52 -0.01    +0.049 A  
DOCKED: ATOM     28  C   UNL     1     140.432  69.306 227.742 -0.52 -0.02    +0.123 A  
DOCKED: ATOM     29  F   UNL     1     140.438  68.467 228.809 -0.18 +0.05    -0.207 F  
DOCKED: ENDBRANCH  17  19
DOCKED: ENDBRANCH  16  17
DOCKED: ENDBRANCH   1  16
DOCKED: TORSDOF 7
DOCKED: TER
DOCKED: ENDMDL
________________________________________________________________________________


    FINAL DOCKED STATE:
    ________________________


Run:   7 / 20
Time taken for this run:   0.036s

DOCKED: MODEL        7
DOCKED: USER    Run = 7
DOCKED: USER
DOCKED: USER    Estimated Free Energy of Binding    =  -8.18 kcal/mol  [=(1)+(2)+(3)-(4)]
DOCKED: USER
DOCKED: USER    (1) Final Intermolecular Energy     = -10.27 kcal/mol
DOCKED: USER        vdW + Hbond + desolv Energy     = -10.38 kcal/mol
DOCKED: USER        Electrostatic Energy            =  +0.11 kcal/mol
DOCKED: USER        Moving Ligand-Fixed Receptor    = -10.27 kcal/mol
DOCKED: USER        Moving Ligand-Moving Receptor   =  +0.00 kcal/mol
DOCKED: USER    (2) Final Total Internal Energy     =  -1.44 kcal/mol
DOCKED: USER    (3) Torsional Free Energy           =  +2.09 kcal/mol
DOCKED: USER    (4) Unbound System's Energy         =  -1.44 kcal/mol
DOCKED: USER
DOCKED: USER
DOCKED: REMARK SMILES O=C([N-]/C=C(\O)N1CCCC[C@@H]1C1CCCC1)c1ccc2cc(F)ccc2n1
DOCKED: REMARK SMILES IDX 4 1 5 2 6 3 7 5 8 6 12 7 9 8 11 9 10 10 13 11 14 12 17 13
DOCKED: REMARK SMILES IDX 15 14 16 15 3 16 2 17 1 18 18 19 28 20 19 21 27 22 20 23
DOCKED: REMARK SMILES IDX 26 24 21 25 25 26 22 27 23 28 24 29
DOCKED: REMARK H PARENT 6 4
DOCKED: USER                              x       y       z     vdW  Elec       q    Type
DOCKED: USER                           _______ _______ _______ _____ _____    ______ ____
DOCKED: ROOT
DOCKED: ATOM      1  C   UNL     1     139.547  74.934 221.997 -0.25 +0.01    -0.069 C  
DOCKED: ENDROOT
DOCKED: BRANCH   1   2
DOCKED: ATOM      2  C   UNL     1     140.070  76.169 221.987 -0.30 -0.04    +0.164 C  
DOCKED: BRANCH   2   3
DOCKED: ATOM      3  O   UNL     1     141.451  76.346 221.943 -0.09 +0.24    -0.496 OA 
DOCKED: ATOM      4  H   UNL     1     142.085  75.567 222.074 -0.39 -0.15    +0.295 HD 
DOCKED: ENDBRANCH   2   3
DOCKED: BRANCH   2   5
DOCKED: ATOM      5  N   UNL     1     139.216  77.327 222.006 -0.12 +0.08    -0.342 N  
DOCKED: ATOM      6  C   UNL     1     138.116  77.397 221.034 -0.10 -0.03    +0.120 C  
DOCKED: ATOM      7  C   UNL     1     139.399  78.417 222.994 -0.26 -0.02    +0.088 C  
DOCKED: ATOM      8  C   UNL     1     136.769  77.597 221.746 -0.13 -0.00    +0.022 C  
DOCKED: ATOM      9  C   UNL     1     138.134  79.303 223.064 -0.27 -0.00    +0.025 C  
DOCKED: ATOM     10  C   UNL     1     136.875  78.431 223.040 -0.14 -0.00    +0.004 C  
DOCKED: BRANCH   7  11
DOCKED: ATOM     11  C   UNL     1     140.657  79.293 222.710 -0.43 -0.00    +0.012 C  
DOCKED: ATOM     12  C   UNL     1     141.912  78.898 223.487 -0.60 -0.00    +0.006 C  
DOCKED: ATOM     13  C   UNL     1     140.461  80.791 222.972 -0.43 -0.00    +0.006 C  
DOCKED: ATOM     14  C   UNL     1     142.769  80.148 223.490 -0.66 -0.00    +0.000 C  
DOCKED: ATOM     15  C   UNL     1     141.793  81.318 223.509 -0.59 -0.00    +0.000 C  
DOCKED: ENDBRANCH   7  11
DOCKED: ENDBRANCH   2   5
DOCKED: ENDBRANCH   1   2
DOCKED: BRANCH   1  16
DOCKED: ATOM     16  N   UNL     1     140.328  73.767 222.290 -0.59 -0.01    -0.623 NA 
DOCKED: BRANCH  16  17
DOCKED: ATOM     17  C   UNL     1     139.884  72.406 222.184 -0.26 -0.02    +0.104 C  
DOCKED: ATOM     18  O   UNL     1     139.548  71.967 221.052 -0.06 +0.06    -0.313 OA 
DOCKED: BRANCH  17  19
DOCKED: ATOM     19  C   UNL     1     139.865  71.501 223.355 -0.33 -0.02    +0.089 A  
DOCKED: ATOM     20  N   UNL     1     140.442  71.898 224.524 -0.26 +0.04    -0.246 NA 
DOCKED: ATOM     21  C   UNL     1     139.265  70.234 223.279 -0.25 -0.01    +0.031 A  
DOCKED: ATOM     22  C   UNL     1     140.446  71.115 225.634 -0.52 -0.01    +0.071 A  
DOCKED: ATOM     23  C   UNL     1     139.250  69.405 224.404 -0.34 -0.00    +0.013 A  
DOCKED: ATOM     24  C   UNL     1     141.047  71.569 226.813 -0.72 -0.01    +0.032 A  
DOCKED: ATOM     25  C   UNL     1     139.840  69.840 225.597 -0.46 -0.00    +0.003 A  
DOCKED: ATOM     26  C   UNL     1     141.042  70.763 227.955 -0.65 -0.01    +0.041 A  
DOCKED: ATOM     27  C   UNL     1     139.842  69.035 226.748 -0.52 -0.01    +0.049 A  
DOCKED: ATOM     28  C   UNL     1     140.442  69.499 227.924 -0.52 -0.02    +0.123 A  
DOCKED: ATOM     29  F   UNL     1     140.444  68.721 229.035 -0.14 +0.04    -0.207 F  
DOCKED: ENDBRANCH  17  19
DOCKED: ENDBRANCH  16  17
DOCKED: ENDBRANCH   1  16
DOCKED: TORSDOF 7
DOCKED: TER
DOCKED: ENDMDL
________________________________________________________________________________


    FINAL DOCKED STATE:
    ________________________


Run:   8 / 20
Time taken for this run:   0.036s

DOCKED: MODEL        8
DOCKED: USER    Run = 8
DOCKED: USER
DOCKED: USER    Estimated Free Energy of Binding    =  -7.08 kcal/mol  [=(1)+(2)+(3)-(4)]
DOCKED: USER
DOCKED: USER    (1) Final Intermolecular Energy     =  -9.17 kcal/mol
DOCKED: USER        vdW + Hbond + desolv Energy     =  -9.21 kcal/mol
DOCKED: USER        Electrostatic Energy            =  +0.04 kcal/mol
DOCKED: USER        Moving Ligand-Fixed Receptor    =  -9.17 kcal/mol
DOCKED: USER        Moving Ligand-Moving Receptor   =  +0.00 kcal/mol
DOCKED: USER    (2) Final Total Internal Energy     =  -2.60 kcal/mol
DOCKED: USER    (3) Torsional Free Energy           =  +2.09 kcal/mol
DOCKED: USER    (4) Unbound System's Energy         =  -2.60 kcal/mol
DOCKED: USER
DOCKED: USER
DOCKED: REMARK SMILES O=C([N-]/C=C(\O)N1CCCC[C@@H]1C1CCCC1)c1ccc2cc(F)ccc2n1
DOCKED: REMARK SMILES IDX 4 1 5 2 6 3 7 5 8 6 12 7 9 8 11 9 10 10 13 11 14 12 17 13
DOCKED: REMARK SMILES IDX 15 14 16 15 3 16 2 17 1 18 18 19 28 20 19 21 27 22 20 23
DOCKED: REMARK SMILES IDX 26 24 21 25 25 26 22 27 23 28 24 29
DOCKED: REMARK H PARENT 6 4
DOCKED: USER                              x       y       z     vdW  Elec       q    Type
DOCKED: USER                           _______ _______ _______ _____ _____    ______ ____
DOCKED: ROOT
DOCKED: ATOM      1  C   UNL     1     136.483  69.025 224.455 -0.11 +0.00    -0.069 C  
DOCKED: ENDROOT
DOCKED: BRANCH   1   2
DOCKED: ATOM      2  C   UNL     1     137.056  70.061 223.825 -0.18 -0.02    +0.164 C  
DOCKED: BRANCH   2   3
DOCKED: ATOM      3  O   UNL     1     136.269  71.006 223.171 -0.02 +0.09    -0.496 OA 
DOCKED: ATOM      4  H   UNL     1     135.260  70.995 223.250 +0.07 -0.04    +0.295 HD 
DOCKED: ENDBRANCH   2   3
DOCKED: BRANCH   2   5
DOCKED: ATOM      5  N   UNL     1     138.486  70.221 223.830 -0.11 +0.06    -0.342 N  
DOCKED: ATOM      6  C   UNL     1     139.225  69.917 222.596 -0.16 -0.02    +0.120 C  
DOCKED: ATOM      7  C   UNL     1     139.214  70.711 225.025 -0.32 -0.02    +0.088 C  
DOCKED: ATOM      8  C   UNL     1     140.068  71.124 222.153 -0.22 -0.00    +0.022 C  
DOCKED: ATOM      9  C   UNL     1     140.637  71.176 224.639 -0.47 -0.00    +0.025 C  
DOCKED: ATOM     10  C   UNL     1     140.598  71.969 223.330 -0.29 -0.00    +0.004 C  
DOCKED: BRANCH   7  11
DOCKED: ATOM     11  C   UNL     1     139.282  69.657 226.172 -0.45 -0.00    +0.012 C  
DOCKED: ATOM     12  C   UNL     1     140.211  70.018 227.330 -0.61 -0.00    +0.006 C  
DOCKED: ATOM     13  C   UNL     1     139.706  68.253 225.722 -0.54 -0.00    +0.006 C  
DOCKED: ATOM     14  C   UNL     1     140.538  68.690 227.987 -0.67 -0.00    +0.000 C  
DOCKED: ATOM     15  C   UNL     1     140.539  67.664 226.861 -0.66 -0.00    +0.000 C  
DOCKED: ENDBRANCH   7  11
DOCKED: ENDBRANCH   2   5
DOCKED: ENDBRANCH   1   2
DOCKED: BRANCH   1  16
DOCKED: ATOM     16  N   UNL     1     135.060  68.876 224.561 -0.37 +0.01    -0.623 NA 
DOCKED: BRANCH  16  17
DOCKED: ATOM     17  C   UNL     1     134.245  69.320 225.657 -0.25 -0.01    +0.104 C  
DOCKED: ATOM     18  O   UNL     1     133.773  68.458 226.446 -0.79 -0.01    -0.313 OA 
DOCKED: BRANCH  17  19
DOCKED: ATOM     19  C   UNL     1     133.997  70.757 225.908 -0.27 -0.01    +0.089 A  
DOCKED: ATOM     20  N   UNL     1     134.669  71.695 225.185 -0.11 +0.02    -0.246 NA 
DOCKED: ATOM     21  C   UNL     1     133.080  71.171 226.888 -0.37 -0.00    +0.031 A  
DOCKED: ATOM     22  C   UNL     1     134.474  73.027 225.365 -0.24 -0.00    +0.071 A  
DOCKED: ATOM     23  C   UNL     1     132.855  72.534 227.095 -0.42 -0.00    +0.013 A  
DOCKED: ATOM     24  C   UNL     1     135.186  73.952 224.593 -0.28 -0.00    +0.032 A  
DOCKED: ATOM     25  C   UNL     1     133.550  73.479 226.331 -0.34 +0.00    +0.003 A  
DOCKED: ATOM     26  C   UNL     1     134.977  75.323 224.775 -0.33 -0.01    +0.041 A  
DOCKED: ATOM     27  C   UNL     1     133.348  74.857 226.511 -0.33 +0.00    +0.049 A  
DOCKED: ATOM     28  C   UNL     1     134.061  75.775 225.732 -0.30 -0.01    +0.123 A  
DOCKED: ATOM     29  F   UNL     1     133.867  77.106 225.906 -0.06 +0.02    -0.207 F  
DOCKED: ENDBRANCH  17  19
DOCKED: ENDBRANCH  16  17
DOCKED: ENDBRANCH   1  16
DOCKED: TORSDOF 7
DOCKED: TER
DOCKED: ENDMDL
________________________________________________________________________________


    FINAL DOCKED STATE:
    ________________________


Run:   9 / 20
Time taken for this run:   0.036s

DOCKED: MODEL        9
DOCKED: USER    Run = 9
DOCKED: USER
DOCKED: USER    Estimated Free Energy of Binding    =  -7.60 kcal/mol  [=(1)+(2)+(3)-(4)]
DOCKED: USER
DOCKED: USER    (1) Final Intermolecular Energy     =  -9.69 kcal/mol
DOCKED: USER        vdW + Hbond + desolv Energy     =  -9.74 kcal/mol
DOCKED: USER        Electrostatic Energy            =  +0.06 kcal/mol
DOCKED: USER        Moving Ligand-Fixed Receptor    =  -9.69 kcal/mol
DOCKED: USER        Moving Ligand-Moving Receptor   =  +0.00 kcal/mol
DOCKED: USER    (2) Final Total Internal Energy     =  -2.05 kcal/mol
DOCKED: USER    (3) Torsional Free Energy           =  +2.09 kcal/mol
DOCKED: USER    (4) Unbound System's Energy         =  -2.05 kcal/mol
DOCKED: USER
DOCKED: USER
DOCKED: REMARK SMILES O=C([N-]/C=C(\O)N1CCCC[C@@H]1C1CCCC1)c1ccc2cc(F)ccc2n1
DOCKED: REMARK SMILES IDX 4 1 5 2 6 3 7 5 8 6 12 7 9 8 11 9 10 10 13 11 14 12 17 13
DOCKED: REMARK SMILES IDX 15 14 16 15 3 16 2 17 1 18 18 19 28 20 19 21 27 22 20 23
DOCKED: REMARK SMILES IDX 26 24 21 25 25 26 22 27 23 28 24 29
DOCKED: REMARK H PARENT 6 4
DOCKED: USER                              x       y       z     vdW  Elec       q    Type
DOCKED: USER                           _______ _______ _______ _____ _____    ______ ____
DOCKED: ROOT
DOCKED: ATOM      1  C   UNL     1     139.962  72.187 222.531 -0.29 +0.01    -0.069 C  
DOCKED: ENDROOT
DOCKED: BRANCH   1   2
DOCKED: ATOM      2  C   UNL     1     138.735  71.820 222.926 -0.15 -0.05    +0.164 C  
DOCKED: BRANCH   2   3
DOCKED: ATOM      3  O   UNL     1     137.651  72.674 222.731 -0.02 +0.19    -0.496 OA 
DOCKED: ATOM      4  H   UNL     1     137.772  73.679 222.702 -0.44 -0.15    +0.295 HD 
DOCKED: ENDBRANCH   2   3
DOCKED: BRANCH   2   5
DOCKED: ATOM      5  N   UNL     1     138.516  70.539 223.543 -0.11 +0.07    -0.342 N  
DOCKED: ATOM      6  C   UNL     1     137.260  69.833 223.255 -0.16 -0.02    +0.120 C  
DOCKED: ATOM      7  C   UNL     1     139.531  69.911 224.422 -0.32 -0.02    +0.088 C  
DOCKED: ATOM      8  C   UNL     1     137.538  68.427 222.698 -0.19 -0.00    +0.022 C  
DOCKED: ATOM      9  C   UNL     1     139.233  68.405 224.604 -0.34 -0.00    +0.025 C  
DOCKED: ATOM     10  C   UNL     1     138.818  67.782 223.268 -0.26 -0.00    +0.004 C  
DOCKED: BRANCH   7  11
DOCKED: ATOM     11  C   UNL     1     139.652  70.610 225.810 -0.40 -0.00    +0.012 C  
DOCKED: ATOM     12  C   UNL     1     140.832  71.570 225.953 -0.62 -0.00    +0.006 C  
DOCKED: ATOM     13  C   UNL     1     139.754  69.647 227.000 -0.56 -0.00    +0.006 C  
DOCKED: ATOM     14  C   UNL     1     141.065  71.670 227.448 -0.81 -0.00    +0.000 C  
DOCKED: ATOM     15  C   UNL     1     140.688  70.308 228.016 -0.65 -0.00    +0.000 C  
DOCKED: ENDBRANCH   7  11
DOCKED: ENDBRANCH   2   5
DOCKED: ENDBRANCH   1   2
DOCKED: BRANCH   1  16
DOCKED: ATOM     16  N   UNL     1     140.339  73.560 222.352 -0.56 -0.00    -0.623 NA 
DOCKED: BRANCH  16  17
DOCKED: ATOM     17  C   UNL     1     139.551  74.574 221.710 -0.24 -0.02    +0.104 C  
DOCKED: ATOM     18  O   UNL     1     138.727  74.227 220.823 -0.06 +0.07    -0.313 OA 
DOCKED: BRANCH  17  19
DOCKED: ATOM     19  C   UNL     1     139.647  75.997 222.105 -0.31 -0.02    +0.089 A  
DOCKED: ATOM     20  N   UNL     1     140.814  76.674 221.913 -0.24 +0.09    -0.246 NA 
DOCKED: ATOM     21  C   UNL     1     138.553  76.663 222.680 -0.29 -0.01    +0.031 A  
DOCKED: ATOM     22  C   UNL     1     140.957  77.983 222.245 -0.39 -0.03    +0.071 A  
DOCKED: ATOM     23  C   UNL     1     138.667  78.011 223.031 -0.24 -0.00    +0.013 A  
DOCKED: ATOM     24  C   UNL     1     142.175  78.635 222.024 -0.29 -0.02    +0.032 A  
DOCKED: ATOM     25  C   UNL     1     139.873  78.687 222.814 -0.37 -0.00    +0.003 A  
DOCKED: ATOM     26  C   UNL     1     142.316  79.985 222.360 -0.53 -0.02    +0.041 A  
DOCKED: ATOM     27  C   UNL     1     140.024  80.042 223.152 -0.38 -0.01    +0.049 A  
DOCKED: ATOM     28  C   UNL     1     141.244  80.687 222.923 -0.41 -0.03    +0.123 A  
DOCKED: ATOM     29  F   UNL     1     141.389  81.995 223.250 -0.09 +0.02    -0.207 F  
DOCKED: ENDBRANCH  17  19
DOCKED: ENDBRANCH  16  17
DOCKED: ENDBRANCH   1  16
DOCKED: TORSDOF 7
DOCKED: TER
DOCKED: ENDMDL
________________________________________________________________________________


    FINAL DOCKED STATE:
    ________________________


Run:   10 / 20
Time taken for this run:   0.036s

DOCKED: MODEL        10
DOCKED: USER    Run = 10
DOCKED: USER
DOCKED: USER    Estimated Free Energy of Binding    =  -8.04 kcal/mol  [=(1)+(2)+(3)-(4)]
DOCKED: USER
DOCKED: USER    (1) Final Intermolecular Energy     = -10.13 kcal/mol
DOCKED: USER        vdW + Hbond + desolv Energy     = -10.24 kcal/mol
DOCKED: USER        Electrostatic Energy            =  +0.11 kcal/mol
DOCKED: USER        Moving Ligand-Fixed Receptor    = -10.13 kcal/mol
DOCKED: USER        Moving Ligand-Moving Receptor   =  +0.00 kcal/mol
DOCKED: USER    (2) Final Total Internal Energy     =  -2.01 kcal/mol
DOCKED: USER    (3) Torsional Free Energy           =  +2.09 kcal/mol
DOCKED: USER    (4) Unbound System's Energy         =  -2.01 kcal/mol
DOCKED: USER
DOCKED: USER
DOCKED: REMARK SMILES O=C([N-]/C=C(\O)N1CCCC[C@@H]1C1CCCC1)c1ccc2cc(F)ccc2n1
DOCKED: REMARK SMILES IDX 4 1 5 2 6 3 7 5 8 6 12 7 9 8 11 9 10 10 13 11 14 12 17 13
DOCKED: REMARK SMILES IDX 15 14 16 15 3 16 2 17 1 18 18 19 28 20 19 21 27 22 20 23
DOCKED: REMARK SMILES IDX 26 24 21 25 25 26 22 27 23 28 24 29
DOCKED: REMARK H PARENT 6 4
DOCKED: USER                              x       y       z     vdW  Elec       q    Type
DOCKED: USER                           _______ _______ _______ _____ _____    ______ ____
DOCKED: ROOT
DOCKED: ATOM      1  C   UNL     1     141.458  73.590 221.491 -0.16 +0.01    -0.069 C  
DOCKED: ENDROOT
DOCKED: BRANCH   1   2
DOCKED: ATOM      2  C   UNL     1     140.894  74.803 221.593 -0.25 -0.03    +0.164 C  
DOCKED: BRANCH   2   3
DOCKED: ATOM      3  O   UNL     1     139.778  74.991 222.406 -0.54 +0.04    -0.496 OA 
DOCKED: ATOM      4  H   UNL     1     139.242  74.205 222.752 -0.44 -0.08    +0.295 HD 
DOCKED: ENDBRANCH   2   3
DOCKED: BRANCH   2   5
DOCKED: ATOM      5  N   UNL     1     141.440  75.927 220.881 -0.14 +0.14    -0.342 N  
DOCKED: ATOM      6  C   UNL     1     142.617  75.708 220.029 -0.27 -0.06    +0.120 C  
DOCKED: ATOM      7  C   UNL     1     140.828  77.275 220.962 -0.25 -0.04    +0.088 C  
DOCKED: ATOM      8  C   UNL     1     142.343  76.170 218.589 -0.23 -0.01    +0.022 C  
DOCKED: ATOM      9  C   UNL     1     141.340  78.172 219.812 -0.24 -0.01    +0.025 C  
DOCKED: ATOM     10  C   UNL     1     141.388  77.379 218.502 -0.17 -0.00    +0.004 C  
DOCKED: BRANCH   7  11
DOCKED: ATOM     11  C   UNL     1     141.065  77.971 222.336 -0.45 -0.00    +0.012 C  
DOCKED: ATOM     12  C   UNL     1     139.838  78.654 222.939 -0.38 -0.00    +0.006 C  
DOCKED: ATOM     13  C   UNL     1     142.169  79.036 222.328 -0.49 -0.00    +0.006 C  
DOCKED: ATOM     14  C   UNL     1     140.405  79.677 223.904 -0.41 -0.00    +0.000 C  
DOCKED: ATOM     15  C   UNL     1     141.722  80.136 223.292 -0.61 -0.00    +0.000 C  
DOCKED: ENDBRANCH   7  11
DOCKED: ENDBRANCH   2   5
DOCKED: ENDBRANCH   1   2
DOCKED: BRANCH   1  16
DOCKED: ATOM     16  N   UNL     1     140.711  72.375 221.645 -0.05 +0.07    -0.623 NA 
DOCKED: BRANCH  16  17
DOCKED: ATOM     17  C   UNL     1     139.613  72.168 222.545 -0.26 -0.02    +0.104 C  
DOCKED: ATOM     18  O   UNL     1     138.537  72.791 222.339 -0.15 +0.10    -0.313 OA 
DOCKED: BRANCH  17  19
DOCKED: ATOM     19  C   UNL     1     139.698  71.207 223.668 -0.33 -0.02    +0.089 A  
DOCKED: ATOM     20  N   UNL     1     140.285  71.586 224.837 -0.30 +0.04    -0.246 NA 
DOCKED: ATOM     21  C   UNL     1     139.188  69.905 223.544 -0.26 -0.01    +0.031 A  
DOCKED: ATOM     22  C   UNL     1     140.383  70.751 225.904 -0.52 -0.01    +0.071 A  
DOCKED: ATOM     23  C   UNL     1     139.270  69.022 224.625 -0.36 -0.00    +0.013 A  
DOCKED: ATOM     24  C   UNL     1     140.990  71.188 227.086 -0.69 -0.01    +0.032 A  
DOCKED: ATOM     25  C   UNL     1     139.868  69.439 225.820 -0.47 -0.00    +0.003 A  
DOCKED: ATOM     26  C   UNL     1     141.082  70.329 228.185 -0.55 -0.01    +0.041 A  
DOCKED: ATOM     27  C   UNL     1     139.967  68.580 226.927 -0.58 -0.01    +0.049 A  
DOCKED: ATOM     28  C   UNL     1     140.572  69.028 228.106 -0.53 -0.02    +0.123 A  
DOCKED: ATOM     29  F   UNL     1     140.668  68.198 229.175 -0.15 +0.05    -0.207 F  
DOCKED: ENDBRANCH  17  19
DOCKED: ENDBRANCH  16  17
DOCKED: ENDBRANCH   1  16
DOCKED: TORSDOF 7
DOCKED: TER
DOCKED: ENDMDL
________________________________________________________________________________


    FINAL DOCKED STATE:
    ________________________


Run:   11 / 20
Time taken for this run:   0.036s

DOCKED: MODEL        11
DOCKED: USER    Run = 11
DOCKED: USER
DOCKED: USER    Estimated Free Energy of Binding    =  -7.67 kcal/mol  [=(1)+(2)+(3)-(4)]
DOCKED: USER
DOCKED: USER    (1) Final Intermolecular Energy     =  -9.76 kcal/mol
DOCKED: USER        vdW + Hbond + desolv Energy     = -10.02 kcal/mol
DOCKED: USER        Electrostatic Energy            =  +0.26 kcal/mol
DOCKED: USER        Moving Ligand-Fixed Receptor    =  -9.76 kcal/mol
DOCKED: USER        Moving Ligand-Moving Receptor   =  +0.00 kcal/mol
DOCKED: USER    (2) Final Total Internal Energy     =  -1.92 kcal/mol
DOCKED: USER    (3) Torsional Free Energy           =  +2.09 kcal/mol
DOCKED: USER    (4) Unbound System's Energy         =  -1.92 kcal/mol
DOCKED: USER
DOCKED: USER
DOCKED: REMARK SMILES O=C([N-]/C=C(\O)N1CCCC[C@@H]1C1CCCC1)c1ccc2cc(F)ccc2n1
DOCKED: REMARK SMILES IDX 4 1 5 2 6 3 7 5 8 6 12 7 9 8 11 9 10 10 13 11 14 12 17 13
DOCKED: REMARK SMILES IDX 15 14 16 15 3 16 2 17 1 18 18 19 28 20 19 21 27 22 20 23
DOCKED: REMARK SMILES IDX 26 24 21 25 25 26 22 27 23 28 24 29
DOCKED: REMARK H PARENT 6 4
DOCKED: USER                              x       y       z     vdW  Elec       q    Type
DOCKED: USER                           _______ _______ _______ _____ _____    ______ ____
DOCKED: ROOT
DOCKED: ATOM      1  C   UNL     1     139.367  74.680 221.429 -0.23 +0.01    -0.069 C  
DOCKED: ENDROOT
DOCKED: BRANCH   1   2
DOCKED: ATOM      2  C   UNL     1     140.055  75.791 221.727 -0.27 -0.04    +0.164 C  
DOCKED: BRANCH   2   3
DOCKED: ATOM      3  O   UNL     1     141.416  75.718 222.016 -0.21 +0.17    -0.496 OA 
DOCKED: ATOM      4  H   UNL     1     141.916  74.838 221.972 -0.01 -0.06    +0.295 HD 
DOCKED: ENDBRANCH   2   3
DOCKED: BRANCH   2   5
DOCKED: ATOM      5  N   UNL     1     139.404  77.074 221.738 -0.11 +0.08    -0.342 N  
DOCKED: ATOM      6  C   UNL     1     138.380  77.345 220.720 -0.08 -0.03    +0.120 C  
DOCKED: ATOM      7  C   UNL     1     139.718  78.101 222.761 -0.28 -0.02    +0.088 C  
DOCKED: ATOM      8  C   UNL     1     137.052  77.755 221.377 -0.10 -0.00    +0.022 C  
DOCKED: ATOM      9  C   UNL     1     138.616  79.184 222.797 -0.29 -0.00    +0.025 C  
DOCKED: ATOM     10  C   UNL     1     137.232  78.535 222.695 -0.21 -0.00    +0.004 C  
DOCKED: BRANCH   7  11
DOCKED: ATOM     11  C   UNL     1     141.116  78.759 222.556 -0.47 -0.00    +0.012 C  
DOCKED: ATOM     12  C   UNL     1     141.851  79.137 223.842 -0.62 -0.00    +0.006 C  
DOCKED: ATOM     13  C   UNL     1     141.101  80.031 221.699 -0.37 -0.00    +0.006 C  
DOCKED: ATOM     14  C   UNL     1     142.840  80.205 223.418 -0.67 -0.00    +0.000 C  
DOCKED: ATOM     15  C   UNL     1     142.167  80.961 222.280 -0.52 -0.00    +0.000 C  
DOCKED: ENDBRANCH   7  11
DOCKED: ENDBRANCH   2   5
DOCKED: ENDBRANCH   1   2
DOCKED: BRANCH   1  16
DOCKED: ATOM     16  N   UNL     1     139.284  73.559 222.322 -0.33 +0.15    -0.623 NA 
DOCKED: BRANCH  16  17
DOCKED: ATOM     17  C   UNL     1     140.343  72.638 222.620 -0.25 -0.01    +0.104 C  
DOCKED: ATOM     18  O   UNL     1     141.425  72.733 221.980 -0.24 +0.01    -0.313 OA 
DOCKED: BRANCH  17  19
DOCKED: ATOM     19  C   UNL     1     140.213  71.624 223.691 -0.35 -0.01    +0.089 A  
DOCKED: ATOM     20  N   UNL     1     140.681  71.898 224.940 -0.27 +0.03    -0.246 NA 
DOCKED: ATOM     21  C   UNL     1     139.617  70.378 223.436 -0.28 -0.01    +0.031 A  
DOCKED: ATOM     22  C   UNL     1     140.579  71.011 225.964 -0.55 -0.01    +0.071 A  
DOCKED: ATOM     23  C   UNL     1     139.495  69.444 224.469 -0.34 -0.00    +0.013 A  
DOCKED: ATOM     24  C   UNL     1     141.070  71.340 227.232 -0.72 -0.01    +0.032 A  
DOCKED: ATOM     25  C   UNL     1     139.974  69.753 225.748 -0.47 -0.00    +0.003 A  
DOCKED: ATOM     26  C   UNL     1     140.957  70.428 228.285 -0.54 -0.01    +0.041 A  
DOCKED: ATOM     27  C   UNL     1     139.866  68.841 226.810 -0.55 -0.01    +0.049 A  
DOCKED: ATOM     28  C   UNL     1     140.357  69.181 228.075 -0.53 -0.02    +0.123 A  
DOCKED: ATOM     29  F   UNL     1     140.254  68.299 229.100 -0.16 +0.04    -0.207 F  
DOCKED: ENDBRANCH  17  19
DOCKED: ENDBRANCH  16  17
DOCKED: ENDBRANCH   1  16
DOCKED: TORSDOF 7
DOCKED: TER
DOCKED: ENDMDL
________________________________________________________________________________


    FINAL DOCKED STATE:
    ________________________


Run:   12 / 20
Time taken for this run:   0.036s

DOCKED: MODEL        12
DOCKED: USER    Run = 12
DOCKED: USER
DOCKED: USER    Estimated Free Energy of Binding    =  -8.38 kcal/mol  [=(1)+(2)+(3)-(4)]
DOCKED: USER
DOCKED: USER    (1) Final Intermolecular Energy     = -10.47 kcal/mol
DOCKED: USER        vdW + Hbond + desolv Energy     = -10.55 kcal/mol
DOCKED: USER        Electrostatic Energy            =  +0.08 kcal/mol
DOCKED: USER        Moving Ligand-Fixed Receptor    = -10.47 kcal/mol
DOCKED: USER        Moving Ligand-Moving Receptor   =  +0.00 kcal/mol
DOCKED: USER    (2) Final Total Internal Energy     =  -2.06 kcal/mol
DOCKED: USER    (3) Torsional Free Energy           =  +2.09 kcal/mol
DOCKED: USER    (4) Unbound System's Energy         =  -2.06 kcal/mol
DOCKED: USER
DOCKED: USER
DOCKED: REMARK SMILES O=C([N-]/C=C(\O)N1CCCC[C@@H]1C1CCCC1)c1ccc2cc(F)ccc2n1
DOCKED: REMARK SMILES IDX 4 1 5 2 6 3 7 5 8 6 12 7 9 8 11 9 10 10 13 11 14 12 17 13
DOCKED: REMARK SMILES IDX 15 14 16 15 3 16 2 17 1 18 18 19 28 20 19 21 27 22 20 23
DOCKED: REMARK SMILES IDX 26 24 21 25 25 26 22 27 23 28 24 29
DOCKED: REMARK H PARENT 6 4
DOCKED: USER                              x       y       z     vdW  Elec       q    Type
DOCKED: USER                           _______ _______ _______ _____ _____    ______ ____
DOCKED: ROOT
DOCKED: ATOM      1  C   UNL     1     141.098  73.802 221.188 -0.26 +0.01    -0.069 C  
DOCKED: ENDROOT
DOCKED: BRANCH   1   2
DOCKED: ATOM      2  C   UNL     1     140.722  75.058 221.469 -0.26 -0.03    +0.164 C  
DOCKED: BRANCH   2   3
DOCKED: ATOM      3  O   UNL     1     139.696  75.296 222.382 -0.50 +0.06    -0.496 OA 
DOCKED: ATOM      4  H   UNL     1     139.202  74.532 222.827 -0.43 -0.08    +0.295 HD 
DOCKED: ENDBRANCH   2   3
DOCKED: BRANCH   2   5
DOCKED: ATOM      5  N   UNL     1     141.379  76.176 220.847 -0.13 +0.15    -0.342 N  
DOCKED: ATOM      6  C   UNL     1     142.620  75.928 220.100 -0.24 -0.07    +0.120 C  
DOCKED: ATOM      7  C   UNL     1     140.821  77.548 220.916 -0.24 -0.04    +0.088 C  
DOCKED: ATOM      8  C   UNL     1     142.500  76.444 218.656 -0.27 -0.01    +0.022 C  
DOCKED: ATOM      9  C   UNL     1     141.475  78.453 219.847 -0.26 -0.01    +0.025 C  
DOCKED: ATOM     10  C   UNL     1     141.610  77.696 218.523 -0.21 -0.00    +0.004 C  
DOCKED: BRANCH   7  11
DOCKED: ATOM     11  C   UNL     1     140.959  78.193 222.328 -0.45 -0.00    +0.012 C  
DOCKED: ATOM     12  C   UNL     1     139.785  79.072 222.759 -0.37 -0.00    +0.006 C  
DOCKED: ATOM     13  C   UNL     1     142.213  79.057 222.513 -0.51 -0.00    +0.006 C  
DOCKED: ATOM     14  C   UNL     1     140.361  79.984 223.825 -0.44 -0.00    +0.000 C  
DOCKED: ATOM     15  C   UNL     1     141.813  80.216 223.428 -0.63 -0.00    +0.000 C  
DOCKED: ENDBRANCH   7  11
DOCKED: ENDBRANCH   2   5
DOCKED: ENDBRANCH   1   2
DOCKED: BRANCH   1  16
DOCKED: ATOM     16  N   UNL     1     140.995  72.733 222.140 -0.16 +0.03    -0.623 NA 
DOCKED: BRANCH  16  17
DOCKED: ATOM     17  C   UNL     1     139.785  72.264 222.754 -0.27 -0.02    +0.104 C  
DOCKED: ATOM     18  O   UNL     1     138.682  72.690 222.317 -0.16 +0.09    -0.313 OA 
DOCKED: BRANCH  17  19
DOCKED: ATOM     19  C   UNL     1     139.804  71.260 223.841 -0.35 -0.02    +0.089 A  
DOCKED: ATOM     20  N   UNL     1     140.374  71.572 225.037 -0.31 +0.04    -0.246 NA 
DOCKED: ATOM     21  C   UNL     1     139.246  69.985 223.655 -0.27 -0.01    +0.031 A  
DOCKED: ATOM     22  C   UNL     1     140.412  70.694 226.074 -0.52 -0.01    +0.071 A  
DOCKED: ATOM     23  C   UNL     1     139.266  69.060 224.703 -0.37 -0.00    +0.013 A  
DOCKED: ATOM     24  C   UNL     1     141.005  71.063 227.286 -0.68 -0.01    +0.032 A  
DOCKED: ATOM     25  C   UNL     1     139.848  69.408 225.928 -0.48 -0.00    +0.003 A  
DOCKED: ATOM     26  C   UNL     1     141.035  70.160 228.354 -0.51 -0.01    +0.041 A  
DOCKED: ATOM     27  C   UNL     1     139.885  68.506 227.003 -0.58 -0.01    +0.049 A  
DOCKED: ATOM     28  C   UNL     1     140.477  68.885 228.213 -0.54 -0.03    +0.123 A  
DOCKED: ATOM     29  F   UNL     1     140.512  68.013 229.251 -0.13 +0.05    -0.207 F  
DOCKED: ENDBRANCH  17  19
DOCKED: ENDBRANCH  16  17
DOCKED: ENDBRANCH   1  16
DOCKED: TORSDOF 7
DOCKED: TER
DOCKED: ENDMDL
________________________________________________________________________________


    FINAL DOCKED STATE:
    ________________________


Run:   13 / 20
Time taken for this run:   0.036s

DOCKED: MODEL        13
DOCKED: USER    Run = 13
DOCKED: USER
DOCKED: USER    Estimated Free Energy of Binding    =  -7.06 kcal/mol  [=(1)+(2)+(3)-(4)]
DOCKED: USER
DOCKED: USER    (1) Final Intermolecular Energy     =  -9.15 kcal/mol
DOCKED: USER        vdW + Hbond + desolv Energy     =  -9.20 kcal/mol
DOCKED: USER        Electrostatic Energy            =  +0.05 kcal/mol
DOCKED: USER        Moving Ligand-Fixed Receptor    =  -9.15 kcal/mol
DOCKED: USER        Moving Ligand-Moving Receptor   =  +0.00 kcal/mol
DOCKED: USER    (2) Final Total Internal Energy     =  -2.00 kcal/mol
DOCKED: USER    (3) Torsional Free Energy           =  +2.09 kcal/mol
DOCKED: USER    (4) Unbound System's Energy         =  -2.00 kcal/mol
DOCKED: USER
DOCKED: USER
DOCKED: REMARK SMILES O=C([N-]/C=C(\O)N1CCCC[C@@H]1C1CCCC1)c1ccc2cc(F)ccc2n1
DOCKED: REMARK SMILES IDX 4 1 5 2 6 3 7 5 8 6 12 7 9 8 11 9 10 10 13 11 14 12 17 13
DOCKED: REMARK SMILES IDX 15 14 16 15 3 16 2 17 1 18 18 19 28 20 19 21 27 22 20 23
DOCKED: REMARK SMILES IDX 26 24 21 25 25 26 22 27 23 28 24 29
DOCKED: REMARK H PARENT 6 4
DOCKED: USER                              x       y       z     vdW  Elec       q    Type
DOCKED: USER                           _______ _______ _______ _____ _____    ______ ____
DOCKED: ROOT
DOCKED: ATOM      1  C   UNL     1     141.077  75.194 221.954 -0.12 +0.01    -0.069 C  
DOCKED: ENDROOT
DOCKED: BRANCH   1   2
DOCKED: ATOM      2  C   UNL     1     140.080  76.043 222.244 -0.26 -0.03    +0.164 C  
DOCKED: BRANCH   2   3
DOCKED: ATOM      3  O   UNL     1     138.850  75.556 222.681 -0.23 +0.12    -0.496 OA 
DOCKED: ATOM      4  H   UNL     1     138.760  74.623 223.064 -0.48 -0.15    +0.295 HD 
DOCKED: ENDBRANCH   2   3
DOCKED: BRANCH   2   5
DOCKED: ATOM      5  N   UNL     1     140.269  77.464 222.125 -0.17 +0.10    -0.342 N  
DOCKED: ATOM      6  C   UNL     1     139.174  78.350 222.542 -0.26 -0.02    +0.120 C  
DOCKED: ATOM      7  C   UNL     1     141.540  78.044 221.628 -0.26 -0.05    +0.088 C  
DOCKED: ATOM      8  C   UNL     1     139.659  79.357 223.598 -0.41 -0.00    +0.022 C  
DOCKED: ATOM      9  C   UNL     1     141.627  79.545 221.986 -0.45 -0.01    +0.025 C  
DOCKED: ATOM     10  C   UNL     1     141.131  79.778 223.417 -0.56 -0.00    +0.004 C  
DOCKED: BRANCH   7  11
DOCKED: ATOM     11  C   UNL     1     141.746  77.841 220.096 -0.30 -0.01    +0.012 C  
DOCKED: ATOM     12  C   UNL     1     140.491  77.448 219.319 -0.12 -0.00    +0.006 C  
DOCKED: ATOM     13  C   UNL     1     142.806  76.794 219.730 -0.35 -0.00    +0.006 C  
DOCKED: ATOM     14  C   UNL     1     141.013  76.787 218.058 -0.09 -0.00    +0.000 C  
DOCKED: ATOM     15  C   UNL     1     142.311  76.100 218.460 -0.22 -0.00    +0.000 C  
DOCKED: ENDBRANCH   7  11
DOCKED: ENDBRANCH   2   5
DOCKED: ENDBRANCH   1   2
DOCKED: BRANCH   1  16
DOCKED: ATOM     16  N   UNL     1     140.859  73.794 221.731 -0.35 +0.04    -0.623 NA 
DOCKED: BRANCH  16  17
DOCKED: ATOM     17  C   UNL     1     139.661  73.066 222.039 -0.24 -0.02    +0.104 C  
DOCKED: ATOM     18  O   UNL     1     138.626  73.292 221.358 -0.09 +0.07    -0.313 OA 
DOCKED: BRANCH  17  19
DOCKED: ATOM     19  C   UNL     1     139.632  72.029 223.095 -0.27 -0.02    +0.089 A  
DOCKED: ATOM     20  N   UNL     1     140.318  72.227 224.255 -0.11 +0.04    -0.246 NA 
DOCKED: ATOM     21  C   UNL     1     138.910  70.838 222.916 -0.24 -0.01    +0.031 A  
DOCKED: ATOM     22  C   UNL     1     140.319  71.315 225.262 -0.48 -0.01    +0.071 A  
DOCKED: ATOM     23  C   UNL     1     138.889  69.881 223.935 -0.30 -0.00    +0.013 A  
DOCKED: ATOM     24  C   UNL     1     141.036  71.565 226.437 -0.68 -0.00    +0.032 A  
DOCKED: ATOM     25  C   UNL     1     139.593  70.111 225.122 -0.42 -0.00    +0.003 A  
DOCKED: ATOM     26  C   UNL     1     141.028  70.628 227.474 -0.61 -0.01    +0.041 A  
DOCKED: ATOM     27  C   UNL     1     139.593  69.174 226.167 -0.46 -0.01    +0.049 A  
DOCKED: ATOM     28  C   UNL     1     140.310  69.435 227.340 -0.50 -0.02    +0.123 A  
DOCKED: ATOM     29  F   UNL     1     140.310  68.529 228.349 -0.19 +0.04    -0.207 F  
DOCKED: ENDBRANCH  17  19
DOCKED: ENDBRANCH  16  17
DOCKED: ENDBRANCH   1  16
DOCKED: TORSDOF 7
DOCKED: TER
DOCKED: ENDMDL
________________________________________________________________________________


    FINAL DOCKED STATE:
    ________________________


Run:   14 / 20
Time taken for this run:   0.036s

DOCKED: MODEL        14
DOCKED: USER    Run = 14
DOCKED: USER
DOCKED: USER    Estimated Free Energy of Binding    =  -8.10 kcal/mol  [=(1)+(2)+(3)-(4)]
DOCKED: USER
DOCKED: USER    (1) Final Intermolecular Energy     = -10.19 kcal/mol
DOCKED: USER        vdW + Hbond + desolv Energy     = -10.33 kcal/mol
DOCKED: USER        Electrostatic Energy            =  +0.14 kcal/mol
DOCKED: USER        Moving Ligand-Fixed Receptor    = -10.19 kcal/mol
DOCKED: USER        Moving Ligand-Moving Receptor   =  +0.00 kcal/mol
DOCKED: USER    (2) Final Total Internal Energy     =  -2.12 kcal/mol
DOCKED: USER    (3) Torsional Free Energy           =  +2.09 kcal/mol
DOCKED: USER    (4) Unbound System's Energy         =  -2.12 kcal/mol
DOCKED: USER
DOCKED: USER
DOCKED: REMARK SMILES O=C([N-]/C=C(\O)N1CCCC[C@@H]1C1CCCC1)c1ccc2cc(F)ccc2n1
DOCKED: REMARK SMILES IDX 4 1 5 2 6 3 7 5 8 6 12 7 9 8 11 9 10 10 13 11 14 12 17 13
DOCKED: REMARK SMILES IDX 15 14 16 15 3 16 2 17 1 18 18 19 28 20 19 21 27 22 20 23
DOCKED: REMARK SMILES IDX 26 24 21 25 25 26 22 27 23 28 24 29
DOCKED: REMARK H PARENT 6 4
DOCKED: USER                              x       y       z     vdW  Elec       q    Type
DOCKED: USER                           _______ _______ _______ _____ _____    ______ ____
DOCKED: ROOT
DOCKED: ATOM      1  C   UNL     1     141.091  73.333 221.576 -0.26 +0.01    -0.069 C  
DOCKED: ENDROOT
DOCKED: BRANCH   1   2
DOCKED: ATOM      2  C   UNL     1     140.725  74.622 221.647 -0.22 -0.02    +0.164 C  
DOCKED: BRANCH   2   3
DOCKED: ATOM      3  O   UNL     1     139.577  74.988 222.346 -0.59 +0.07    -0.496 OA 
DOCKED: ATOM      4  H   UNL     1     138.962  74.291 222.748 -0.48 -0.11    +0.295 HD 
DOCKED: ENDBRANCH   2   3
DOCKED: BRANCH   2   5
DOCKED: ATOM      5  N   UNL     1     141.520  75.644 221.019 -0.15 +0.13    -0.342 N  
DOCKED: ATOM      6  C   UNL     1     142.807  75.259 220.426 -0.18 -0.06    +0.120 C  
DOCKED: ATOM      7  C   UNL     1     141.056  77.049 220.932 -0.27 -0.04    +0.088 C  
DOCKED: ATOM      8  C   UNL     1     142.870  75.668 218.945 -0.29 -0.01    +0.022 C  
DOCKED: ATOM      9  C   UNL     1     141.877  77.825 219.876 -0.29 -0.02    +0.025 C  
DOCKED: ATOM     10  C   UNL     1     142.089  76.960 218.630 -0.25 -0.00    +0.004 C  
DOCKED: BRANCH   7  11
DOCKED: ATOM     11  C   UNL     1     141.099  77.793 222.301 -0.43 -0.00    +0.012 C  
DOCKED: ATOM     12  C   UNL     1     139.753  78.320 222.796 -0.35 -0.00    +0.006 C  
DOCKED: ATOM     13  C   UNL     1     142.055  78.991 222.346 -0.49 -0.00    +0.006 C  
DOCKED: ATOM     14  C   UNL     1     140.110  79.423 223.773 -0.45 -0.00    +0.000 C  
DOCKED: ATOM     15  C   UNL     1     141.399  80.039 223.246 -0.57 -0.00    +0.000 C  
DOCKED: ENDBRANCH   7  11
DOCKED: ENDBRANCH   2   5
DOCKED: ENDBRANCH   1   2
DOCKED: BRANCH   1  16
DOCKED: ATOM     16  N   UNL     1     140.140  72.258 221.597 -0.03 +0.09    -0.623 NA 
DOCKED: BRANCH  16  17
DOCKED: ATOM     17  C   UNL     1     139.177  72.004 222.630 -0.22 -0.02    +0.104 C  
DOCKED: ATOM     18  O   UNL     1     138.059  72.583 222.569 -0.09 +0.11    -0.313 OA 
DOCKED: BRANCH  17  19
DOCKED: ATOM     19  C   UNL     1     139.445  71.044 223.724 -0.32 -0.02    +0.089 A  
DOCKED: ATOM     20  N   UNL     1     140.017  71.482 224.880 -0.29 +0.05    -0.246 NA 
DOCKED: ATOM     21  C   UNL     1     139.124  69.684 223.587 -0.26 -0.01    +0.031 A  
DOCKED: ATOM     22  C   UNL     1     140.277  70.650 225.922 -0.50 -0.01    +0.071 A  
DOCKED: ATOM     23  C   UNL     1     139.377  68.802 224.642 -0.35 -0.00    +0.013 A  
DOCKED: ATOM     24  C   UNL     1     140.862  71.148 227.091 -0.68 -0.01    +0.032 A  
DOCKED: ATOM     25  C   UNL     1     139.955  69.278 225.824 -0.48 -0.00    +0.003 A  
DOCKED: ATOM     26  C   UNL     1     141.121  70.290 228.164 -0.53 -0.01    +0.041 A  
DOCKED: ATOM     27  C   UNL     1     140.222  68.422 226.904 -0.60 -0.01    +0.049 A  
DOCKED: ATOM     28  C   UNL     1     140.803  68.930 228.071 -0.53 -0.03    +0.123 A  
DOCKED: ATOM     29  F   UNL     1     141.060  68.102 229.115 -0.18 +0.05    -0.207 F  
DOCKED: ENDBRANCH  17  19
DOCKED: ENDBRANCH  16  17
DOCKED: ENDBRANCH   1  16
DOCKED: TORSDOF 7
DOCKED: TER
DOCKED: ENDMDL
________________________________________________________________________________


    FINAL DOCKED STATE:
    ________________________


Run:   15 / 20
Time taken for this run:   0.036s

DOCKED: MODEL        15
DOCKED: USER    Run = 15
DOCKED: USER
DOCKED: USER    Estimated Free Energy of Binding    =  -8.36 kcal/mol  [=(1)+(2)+(3)-(4)]
DOCKED: USER
DOCKED: USER    (1) Final Intermolecular Energy     = -10.44 kcal/mol
DOCKED: USER        vdW + Hbond + desolv Energy     = -10.54 kcal/mol
DOCKED: USER        Electrostatic Energy            =  +0.09 kcal/mol
DOCKED: USER        Moving Ligand-Fixed Receptor    = -10.44 kcal/mol
DOCKED: USER        Moving Ligand-Moving Receptor   =  +0.00 kcal/mol
DOCKED: USER    (2) Final Total Internal Energy     =  -2.06 kcal/mol
DOCKED: USER    (3) Torsional Free Energy           =  +2.09 kcal/mol
DOCKED: USER    (4) Unbound System's Energy         =  -2.06 kcal/mol
DOCKED: USER
DOCKED: USER
DOCKED: REMARK SMILES O=C([N-]/C=C(\O)N1CCCC[C@@H]1C1CCCC1)c1ccc2cc(F)ccc2n1
DOCKED: REMARK SMILES IDX 4 1 5 2 6 3 7 5 8 6 12 7 9 8 11 9 10 10 13 11 14 12 17 13
DOCKED: REMARK SMILES IDX 15 14 16 15 3 16 2 17 1 18 18 19 28 20 19 21 27 22 20 23
DOCKED: REMARK SMILES IDX 26 24 21 25 25 26 22 27 23 28 24 29
DOCKED: REMARK H PARENT 6 4
DOCKED: USER                              x       y       z     vdW  Elec       q    Type
DOCKED: USER                           _______ _______ _______ _____ _____    ______ ____
DOCKED: ROOT
DOCKED: ATOM      1  C   UNL     1     141.105  73.693 221.083 -0.25 +0.01    -0.069 C  
DOCKED: ENDROOT
DOCKED: BRANCH   1   2
DOCKED: ATOM      2  C   UNL     1     140.785  74.950 221.421 -0.26 -0.03    +0.164 C  
DOCKED: BRANCH   2   3
DOCKED: ATOM      3  O   UNL     1     139.800  75.190 222.376 -0.53 +0.05    -0.496 OA 
DOCKED: ATOM      4  H   UNL     1     139.290  74.429 222.808 -0.41 -0.07    +0.295 HD 
DOCKED: ENDBRANCH   2   3
DOCKED: BRANCH   2   5
DOCKED: ATOM      5  N   UNL     1     141.461  76.066 220.815 -0.13 +0.15    -0.342 N  
DOCKED: ATOM      6  C   UNL     1     142.709  75.811 220.082 -0.25 -0.07    +0.120 C  
DOCKED: ATOM      7  C   UNL     1     140.915  77.443 220.887 -0.25 -0.04    +0.088 C  
DOCKED: ATOM      8  C   UNL     1     142.614  76.338 218.641 -0.28 -0.01    +0.022 C  
DOCKED: ATOM      9  C   UNL     1     141.592  78.349 219.833 -0.27 -0.01    +0.025 C  
DOCKED: ATOM     10  C   UNL     1     141.737  77.600 218.505 -0.22 -0.00    +0.004 C  
DOCKED: BRANCH   7  11
DOCKED: ATOM     11  C   UNL     1     141.041  78.076 222.305 -0.45 -0.00    +0.012 C  
DOCKED: ATOM     12  C   UNL     1     139.813  78.851 222.782 -0.37 -0.00    +0.006 C  
DOCKED: ATOM     13  C   UNL     1     142.226  79.036 222.470 -0.50 -0.00    +0.006 C  
DOCKED: ATOM     14  C   UNL     1     140.343  79.791 223.847 -0.46 -0.00    +0.000 C  
DOCKED: ATOM     15  C   UNL     1     141.760  80.145 223.415 -0.62 -0.00    +0.000 C  
DOCKED: ENDBRANCH   7  11
DOCKED: ENDBRANCH   2   5
DOCKED: ENDBRANCH   1   2
DOCKED: BRANCH   1  16
DOCKED: ATOM     16  N   UNL     1     140.978  72.591 221.994 -0.10 +0.04    -0.623 NA 
DOCKED: BRANCH  16  17
DOCKED: ATOM     17  C   UNL     1     139.790  72.222 222.710 -0.28 -0.02    +0.104 C  
DOCKED: ATOM     18  O   UNL     1     138.689  72.718 222.351 -0.16 +0.09    -0.313 OA 
DOCKED: BRANCH  17  19
DOCKED: ATOM     19  C   UNL     1     139.823  71.238 223.816 -0.35 -0.02    +0.089 A  
DOCKED: ATOM     20  N   UNL     1     140.405  71.574 225.001 -0.31 +0.04    -0.246 NA 
DOCKED: ATOM     21  C   UNL     1     139.269  69.958 223.660 -0.27 -0.01    +0.031 A  
DOCKED: ATOM     22  C   UNL     1     140.455  70.717 226.053 -0.53 -0.01    +0.071 A  
DOCKED: ATOM     23  C   UNL     1     139.302  69.053 224.725 -0.37 -0.00    +0.013 A  
DOCKED: ATOM     24  C   UNL     1     141.059  71.110 227.252 -0.68 -0.01    +0.032 A  
DOCKED: ATOM     25  C   UNL     1     139.895  69.426 225.937 -0.48 -0.00    +0.003 A  
DOCKED: ATOM     26  C   UNL     1     141.103  70.228 228.336 -0.51 -0.01    +0.041 A  
DOCKED: ATOM     27  C   UNL     1     139.946  68.544 227.028 -0.59 -0.01    +0.049 A  
DOCKED: ATOM     28  C   UNL     1     140.548  68.948 228.225 -0.54 -0.03    +0.123 A  
DOCKED: ATOM     29  F   UNL     1     140.597  68.095 229.279 -0.13 +0.05    -0.207 F  
DOCKED: ENDBRANCH  17  19
DOCKED: ENDBRANCH  16  17
DOCKED: ENDBRANCH   1  16
DOCKED: TORSDOF 7
DOCKED: TER
DOCKED: ENDMDL
________________________________________________________________________________


    FINAL DOCKED STATE:
    ________________________


Run:   16 / 20
Time taken for this run:   0.036s

DOCKED: MODEL        16
DOCKED: USER    Run = 16
DOCKED: USER
DOCKED: USER    Estimated Free Energy of Binding    =  -7.68 kcal/mol  [=(1)+(2)+(3)-(4)]
DOCKED: USER
DOCKED: USER    (1) Final Intermolecular Energy     =  -9.77 kcal/mol
DOCKED: USER        vdW + Hbond + desolv Energy     =  -9.85 kcal/mol
DOCKED: USER        Electrostatic Energy            =  +0.09 kcal/mol
DOCKED: USER        Moving Ligand-Fixed Receptor    =  -9.77 kcal/mol
DOCKED: USER        Moving Ligand-Moving Receptor   =  +0.00 kcal/mol
DOCKED: USER    (2) Final Total Internal Energy     =  -1.98 kcal/mol
DOCKED: USER    (3) Torsional Free Energy           =  +2.09 kcal/mol
DOCKED: USER    (4) Unbound System's Energy         =  -1.98 kcal/mol
DOCKED: USER
DOCKED: USER
DOCKED: REMARK SMILES O=C([N-]/C=C(\O)N1CCCC[C@@H]1C1CCCC1)c1ccc2cc(F)ccc2n1
DOCKED: REMARK SMILES IDX 4 1 5 2 6 3 7 5 8 6 12 7 9 8 11 9 10 10 13 11 14 12 17 13
DOCKED: REMARK SMILES IDX 15 14 16 15 3 16 2 17 1 18 18 19 28 20 19 21 27 22 20 23
DOCKED: REMARK SMILES IDX 26 24 21 25 25 26 22 27 23 28 24 29
DOCKED: REMARK H PARENT 6 4
DOCKED: USER                              x       y       z     vdW  Elec       q    Type
DOCKED: USER                           _______ _______ _______ _____ _____    ______ ____
DOCKED: ROOT
DOCKED: ATOM      1  C   UNL     1     141.423  74.064 221.365 -0.20 +0.01    -0.069 C  
DOCKED: ENDROOT
DOCKED: BRANCH   1   2
DOCKED: ATOM      2  C   UNL     1     140.729  75.188 221.591 -0.28 -0.03    +0.164 C  
DOCKED: BRANCH   2   3
DOCKED: ATOM      3  O   UNL     1     139.696  75.199 222.527 -0.46 +0.05    -0.496 OA 
DOCKED: ATOM      4  H   UNL     1     139.160  74.363 222.727 -0.45 -0.08    +0.295 HD 
DOCKED: ENDBRANCH   2   3
DOCKED: BRANCH   2   5
DOCKED: ATOM      5  N   UNL     1     141.047  76.401 220.885 -0.12 +0.13    -0.342 N  
DOCKED: ATOM      6  C   UNL     1     142.275  76.435 220.079 -0.25 -0.07    +0.120 C  
DOCKED: ATOM      7  C   UNL     1     140.158  77.586 220.927 -0.19 -0.03    +0.088 C  
DOCKED: ATOM      8  C   UNL     1     141.963  76.822 218.624 -0.22 -0.01    +0.022 C  
DOCKED: ATOM      9  C   UNL     1     140.509  78.567 219.785 -0.15 -0.01    +0.025 C  
DOCKED: ATOM     10  C   UNL     1     140.775  77.797 218.489 -0.11 -0.00    +0.004 C  
DOCKED: BRANCH   7  11
DOCKED: ATOM     11  C   UNL     1     140.188  78.323 222.301 -0.37 -0.00    +0.012 C  
DOCKED: ATOM     12  C   UNL     1     139.824  79.806 222.250 -0.30 -0.00    +0.006 C  
DOCKED: ATOM     13  C   UNL     1     141.535  78.252 223.031 -0.48 -0.00    +0.006 C  
DOCKED: ATOM     14  C   UNL     1     140.442  80.395 223.503 -0.47 -0.00    +0.000 C  
DOCKED: ATOM     15  C   UNL     1     141.708  79.588 223.756 -0.62 -0.00    +0.000 C  
DOCKED: ENDBRANCH   7  11
DOCKED: ENDBRANCH   2   5
DOCKED: ENDBRANCH   1   2
DOCKED: BRANCH   1  16
DOCKED: ATOM     16  N   UNL     1     140.861  72.757 221.554 -0.07 +0.07    -0.623 NA 
DOCKED: BRANCH  16  17
DOCKED: ATOM     17  C   UNL     1     139.684  72.447 222.314 -0.25 -0.02    +0.104 C  
DOCKED: ATOM     18  O   UNL     1     138.586  72.952 221.959 -0.13 +0.08    -0.313 OA 
DOCKED: BRANCH  17  19
DOCKED: ATOM     19  C   UNL     1     139.724  71.512 223.461 -0.33 -0.02    +0.089 A  
DOCKED: ATOM     20  N   UNL     1     140.332  71.891 224.619 -0.27 +0.04    -0.246 NA 
DOCKED: ATOM     21  C   UNL     1     139.147  70.235 223.372 -0.26 -0.01    +0.031 A  
DOCKED: ATOM     22  C   UNL     1     140.390  71.080 225.708 -0.52 -0.01    +0.071 A  
DOCKED: ATOM     23  C   UNL     1     139.187  69.378 224.476 -0.35 -0.00    +0.013 A  
DOCKED: ATOM     24  C   UNL     1     141.023  71.516 226.877 -0.72 -0.01    +0.032 A  
DOCKED: ATOM     25  C   UNL     1     139.809  69.794 225.659 -0.46 -0.00    +0.003 A  
DOCKED: ATOM     26  C   UNL     1     141.073  70.682 227.998 -0.63 -0.01    +0.041 A  
DOCKED: ATOM     27  C   UNL     1     139.867  68.961 226.787 -0.53 -0.01    +0.049 A  
DOCKED: ATOM     28  C   UNL     1     140.498  69.407 227.954 -0.52 -0.02    +0.123 A  
DOCKED: ATOM     29  F   UNL     1     140.554  68.602 229.043 -0.15 +0.04    -0.207 F  
DOCKED: ENDBRANCH  17  19
DOCKED: ENDBRANCH  16  17
DOCKED: ENDBRANCH   1  16
DOCKED: TORSDOF 7
DOCKED: TER
DOCKED: ENDMDL
________________________________________________________________________________


    FINAL DOCKED STATE:
    ________________________


Run:   17 / 20
Time taken for this run:   0.036s

DOCKED: MODEL        17
DOCKED: USER    Run = 17
DOCKED: USER
DOCKED: USER    Estimated Free Energy of Binding    =  -7.65 kcal/mol  [=(1)+(2)+(3)-(4)]
DOCKED: USER
DOCKED: USER    (1) Final Intermolecular Energy     =  -9.74 kcal/mol
DOCKED: USER        vdW + Hbond + desolv Energy     =  -9.84 kcal/mol
DOCKED: USER        Electrostatic Energy            =  +0.10 kcal/mol
DOCKED: USER        Moving Ligand-Fixed Receptor    =  -9.74 kcal/mol
DOCKED: USER        Moving Ligand-Moving Receptor   =  +0.00 kcal/mol
DOCKED: USER    (2) Final Total Internal Energy     =  -2.17 kcal/mol
DOCKED: USER    (3) Torsional Free Energy           =  +2.09 kcal/mol
DOCKED: USER    (4) Unbound System's Energy         =  -2.17 kcal/mol
DOCKED: USER
DOCKED: USER
DOCKED: REMARK SMILES O=C([N-]/C=C(\O)N1CCCC[C@@H]1C1CCCC1)c1ccc2cc(F)ccc2n1
DOCKED: REMARK SMILES IDX 4 1 5 2 6 3 7 5 8 6 12 7 9 8 11 9 10 10 13 11 14 12 17 13
DOCKED: REMARK SMILES IDX 15 14 16 15 3 16 2 17 1 18 18 19 28 20 19 21 27 22 20 23
DOCKED: REMARK SMILES IDX 26 24 21 25 25 26 22 27 23 28 24 29
DOCKED: REMARK H PARENT 6 4
DOCKED: USER                              x       y       z     vdW  Elec       q    Type
DOCKED: USER                           _______ _______ _______ _____ _____    ______ ____
DOCKED: ROOT
DOCKED: ATOM      1  C   UNL     1     140.731  72.187 221.294 -0.21 +0.01    -0.069 C  
DOCKED: ENDROOT
DOCKED: BRANCH   1   2
DOCKED: ATOM      2  C   UNL     1     140.704  73.527 221.345 -0.22 -0.02    +0.164 C  
DOCKED: BRANCH   2   3
DOCKED: ATOM      3  O   UNL     1     139.954  74.177 222.323 -0.74 +0.02    -0.496 OA 
DOCKED: ATOM      4  H   UNL     1     139.175  73.717 222.779 -0.44 -0.10    +0.295 HD 
DOCKED: ENDBRANCH   2   3
DOCKED: BRANCH   2   5
DOCKED: ATOM      5  N   UNL     1     141.459  74.311 220.404 -0.09 +0.08    -0.342 N  
DOCKED: ATOM      6  C   UNL     1     140.781  74.786 219.190 -0.07 -0.03    +0.120 C  
DOCKED: ATOM      7  C   UNL     1     142.876  74.673 220.648 -0.20 -0.03    +0.088 C  
DOCKED: ATOM      8  C   UNL     1     140.889  76.315 219.066 -0.12 -0.01    +0.022 C  
DOCKED: ATOM      9  C   UNL     1     143.307  75.831 219.719 -0.39 -0.01    +0.025 C  
DOCKED: ATOM     10  C   UNL     1     142.201  76.887 219.642 -0.32 -0.00    +0.004 C  
DOCKED: BRANCH   7  11
DOCKED: ATOM     11  C   UNL     1     143.849  73.465 220.493 -0.39 -0.00    +0.012 C  
DOCKED: ATOM     12  C   UNL     1     145.310  73.760 220.831 -0.62 -0.00    +0.006 C  
DOCKED: ATOM     13  C   UNL     1     143.867  72.838 219.094 -0.21 -0.00    +0.006 C  
DOCKED: ATOM     14  C   UNL     1     146.096  72.688 220.102 -0.46 +0.00    +0.000 C  
DOCKED: ATOM     15  C   UNL     1     145.306  72.387 218.836 -0.28 +0.00    +0.000 C  
DOCKED: ENDBRANCH   7  11
DOCKED: ENDBRANCH   2   5
DOCKED: ENDBRANCH   1   2
DOCKED: BRANCH   1  16
DOCKED: ATOM     16  N   UNL     1     139.589  71.379 221.612 +0.01 +0.11    -0.623 NA 
DOCKED: BRANCH  16  17
DOCKED: ATOM     17  C   UNL     1     138.855  71.403 222.845 -0.22 -0.02    +0.104 C  
DOCKED: ATOM     18  O   UNL     1     137.875  72.188 222.950 -0.10 +0.11    -0.313 OA 
DOCKED: BRANCH  17  19
DOCKED: ATOM     19  C   UNL     1     139.189  70.496 223.966 -0.30 -0.02    +0.089 A  
DOCKED: ATOM     20  N   UNL     1     139.820  70.989 225.068 -0.28 +0.05    -0.246 NA 
DOCKED: ATOM     21  C   UNL     1     138.871  69.129 223.909 -0.29 -0.00    +0.031 A  
DOCKED: ATOM     22  C   UNL     1     140.142  70.206 226.131 -0.47 -0.01    +0.071 A  
DOCKED: ATOM     23  C   UNL     1     139.186  68.298 224.987 -0.42 -0.00    +0.013 A  
DOCKED: ATOM     24  C   UNL     1     140.786  70.760 227.243 -0.64 -0.01    +0.032 A  
DOCKED: ATOM     25  C   UNL     1     139.824  68.830 226.114 -0.53 -0.00    +0.003 A  
DOCKED: ATOM     26  C   UNL     1     141.108  69.953 228.338 -0.51 -0.01    +0.041 A  
DOCKED: ATOM     27  C   UNL     1     140.155  68.026 227.216 -0.62 -0.01    +0.049 A  
DOCKED: ATOM     28  C   UNL     1     140.795  68.590 228.325 -0.55 -0.03    +0.123 A  
DOCKED: ATOM     29  F   UNL     1     141.114  67.812 229.390 -0.16 +0.06    -0.207 F  
DOCKED: ENDBRANCH  17  19
DOCKED: ENDBRANCH  16  17
DOCKED: ENDBRANCH   1  16
DOCKED: TORSDOF 7
DOCKED: TER
DOCKED: ENDMDL
________________________________________________________________________________


    FINAL DOCKED STATE:
    ________________________


Run:   18 / 20
Time taken for this run:   0.036s

DOCKED: MODEL        18
DOCKED: USER    Run = 18
DOCKED: USER
DOCKED: USER    Estimated Free Energy of Binding    =  -8.38 kcal/mol  [=(1)+(2)+(3)-(4)]
DOCKED: USER
DOCKED: USER    (1) Final Intermolecular Energy     = -10.47 kcal/mol
DOCKED: USER        vdW + Hbond + desolv Energy     = -10.52 kcal/mol
DOCKED: USER        Electrostatic Energy            =  +0.05 kcal/mol
DOCKED: USER        Moving Ligand-Fixed Receptor    = -10.47 kcal/mol
DOCKED: USER        Moving Ligand-Moving Receptor   =  +0.00 kcal/mol
DOCKED: USER    (2) Final Total Internal Energy     =  -2.06 kcal/mol
DOCKED: USER    (3) Torsional Free Energy           =  +2.09 kcal/mol
DOCKED: USER    (4) Unbound System's Energy         =  -2.06 kcal/mol
DOCKED: USER
DOCKED: USER
DOCKED: REMARK SMILES O=C([N-]/C=C(\O)N1CCCC[C@@H]1C1CCCC1)c1ccc2cc(F)ccc2n1
DOCKED: REMARK SMILES IDX 4 1 5 2 6 3 7 5 8 6 12 7 9 8 11 9 10 10 13 11 14 12 17 13
DOCKED: REMARK SMILES IDX 15 14 16 15 3 16 2 17 1 18 18 19 28 20 19 21 27 22 20 23
DOCKED: REMARK SMILES IDX 26 24 21 25 25 26 22 27 23 28 24 29
DOCKED: REMARK H PARENT 6 4
DOCKED: USER                              x       y       z     vdW  Elec       q    Type
DOCKED: USER                           _______ _______ _______ _____ _____    ______ ____
DOCKED: ROOT
DOCKED: ATOM      1  C   UNL     1     141.142  73.893 221.346 -0.25 +0.01    -0.069 C  
DOCKED: ENDROOT
DOCKED: BRANCH   1   2
DOCKED: ATOM      2  C   UNL     1     140.677  75.137 221.527 -0.27 -0.03    +0.164 C  
DOCKED: BRANCH   2   3
DOCKED: ATOM      3  O   UNL     1     139.578  75.362 222.354 -0.49 +0.08    -0.496 OA 
DOCKED: ATOM      4  H   UNL     1     139.130  74.602 222.851 -0.43 -0.09    +0.295 HD 
DOCKED: ENDBRANCH   2   3
DOCKED: BRANCH   2   5
DOCKED: ATOM      5  N   UNL     1     141.312  76.257 220.886 -0.13 +0.15    -0.342 N  
DOCKED: ATOM      6  C   UNL     1     142.538  76.015 220.113 -0.23 -0.07    +0.120 C  
DOCKED: ATOM      7  C   UNL     1     140.745  77.625 220.961 -0.24 -0.03    +0.088 C  
DOCKED: ATOM      8  C   UNL     1     142.384  76.523 218.670 -0.26 -0.01    +0.022 C  
DOCKED: ATOM      9  C   UNL     1     141.370  78.531 219.875 -0.25 -0.01    +0.025 C  
DOCKED: ATOM     10  C   UNL     1     141.482  77.769 218.551 -0.20 -0.00    +0.004 C  
DOCKED: BRANCH   7  11
DOCKED: ATOM     11  C   UNL     1     140.910  78.278 222.368 -0.44 -0.00    +0.012 C  
DOCKED: ATOM     12  C   UNL     1     139.787  79.231 222.776 -0.37 -0.00    +0.006 C  
DOCKED: ATOM     13  C   UNL     1     142.212  79.066 222.555 -0.52 -0.00    +0.006 C  
DOCKED: ATOM     14  C   UNL     1     140.407  80.119 223.837 -0.43 -0.00    +0.000 C  
DOCKED: ATOM     15  C   UNL     1     141.875  80.258 223.453 -0.63 -0.00    +0.000 C  
DOCKED: ENDBRANCH   7  11
DOCKED: ENDBRANCH   2   5
DOCKED: ENDBRANCH   1   2
DOCKED: BRANCH   1  16
DOCKED: ATOM     16  N   UNL     1     141.018  72.868 222.343 -0.24 -0.00    -0.623 NA 
DOCKED: BRANCH  16  17
DOCKED: ATOM     17  C   UNL     1     139.791  72.273 222.792 -0.26 -0.02    +0.104 C  
DOCKED: ATOM     18  O   UNL     1     138.719  72.583 222.208 -0.14 +0.08    -0.313 OA 
DOCKED: BRANCH  17  19
DOCKED: ATOM     19  C   UNL     1     139.768  71.271 223.882 -0.35 -0.02    +0.089 A  
DOCKED: ATOM     20  N   UNL     1     140.405  71.536 225.056 -0.32 +0.04    -0.246 NA 
DOCKED: ATOM     21  C   UNL     1     139.102  70.045 223.721 -0.28 -0.01    +0.031 A  
DOCKED: ATOM     22  C   UNL     1     140.408  70.659 226.094 -0.52 -0.01    +0.071 A  
DOCKED: ATOM     23  C   UNL     1     139.084  69.122 224.770 -0.37 -0.00    +0.013 A  
DOCKED: ATOM     24  C   UNL     1     141.072  70.978 227.283 -0.66 -0.01    +0.032 A  
DOCKED: ATOM     25  C   UNL     1     139.737  69.422 225.972 -0.48 -0.00    +0.003 A  
DOCKED: ATOM     26  C   UNL     1     141.067  70.077 228.351 -0.51 -0.01    +0.041 A  
DOCKED: ATOM     27  C   UNL     1     139.739  68.521 227.048 -0.57 -0.01    +0.049 A  
DOCKED: ATOM     28  C   UNL     1     140.402  68.851 228.235 -0.54 -0.02    +0.123 A  
DOCKED: ATOM     29  F   UNL     1     140.404  67.979 229.274 -0.12 +0.05    -0.207 F  
DOCKED: ENDBRANCH  17  19
DOCKED: ENDBRANCH  16  17
DOCKED: ENDBRANCH   1  16
DOCKED: TORSDOF 7
DOCKED: TER
DOCKED: ENDMDL
________________________________________________________________________________


    FINAL DOCKED STATE:
    ________________________


Run:   19 / 20
Time taken for this run:   0.036s

DOCKED: MODEL        19
DOCKED: USER    Run = 19
DOCKED: USER
DOCKED: USER    Estimated Free Energy of Binding    =  -7.66 kcal/mol  [=(1)+(2)+(3)-(4)]
DOCKED: USER
DOCKED: USER    (1) Final Intermolecular Energy     =  -9.75 kcal/mol
DOCKED: USER        vdW + Hbond + desolv Energy     =  -9.80 kcal/mol
DOCKED: USER        Electrostatic Energy            =  +0.05 kcal/mol
DOCKED: USER        Moving Ligand-Fixed Receptor    =  -9.75 kcal/mol
DOCKED: USER        Moving Ligand-Moving Receptor   =  +0.00 kcal/mol
DOCKED: USER    (2) Final Total Internal Energy     =  -1.41 kcal/mol
DOCKED: USER    (3) Torsional Free Energy           =  +2.09 kcal/mol
DOCKED: USER    (4) Unbound System's Energy         =  -1.41 kcal/mol
DOCKED: USER
DOCKED: USER
DOCKED: REMARK SMILES O=C([N-]/C=C(\O)N1CCCC[C@@H]1C1CCCC1)c1ccc2cc(F)ccc2n1
DOCKED: REMARK SMILES IDX 4 1 5 2 6 3 7 5 8 6 12 7 9 8 11 9 10 10 13 11 14 12 17 13
DOCKED: REMARK SMILES IDX 15 14 16 15 3 16 2 17 1 18 18 19 28 20 19 21 27 22 20 23
DOCKED: REMARK SMILES IDX 26 24 21 25 25 26 22 27 23 28 24 29
DOCKED: REMARK H PARENT 6 4
DOCKED: USER                              x       y       z     vdW  Elec       q    Type
DOCKED: USER                           _______ _______ _______ _____ _____    ______ ____
DOCKED: ROOT
DOCKED: ATOM      1  C   UNL     1     139.578  72.232 222.434 -0.27 +0.01    -0.069 C  
DOCKED: ENDROOT
DOCKED: BRANCH   1   2
DOCKED: ATOM      2  C   UNL     1     138.428  71.835 222.998 -0.11 -0.05    +0.164 C  
DOCKED: BRANCH   2   3
DOCKED: ATOM      3  O   UNL     1     137.321  72.682 223.004 +0.04 +0.20    -0.496 OA 
DOCKED: ATOM      4  H   UNL     1     137.428  73.687 223.064 -0.44 -0.18    +0.295 HD 
DOCKED: ENDBRANCH   2   3
DOCKED: BRANCH   2   5
DOCKED: ATOM      5  N   UNL     1     138.315  70.529 223.590 -0.10 +0.07    -0.342 N  
DOCKED: ATOM      6  C   UNL     1     137.083  69.763 223.357 -0.16 -0.02    +0.120 C  
DOCKED: ATOM      7  C   UNL     1     139.413  69.936 224.390 -0.32 -0.01    +0.088 C  
DOCKED: ATOM      8  C   UNL     1     137.402  68.389 222.744 -0.18 -0.00    +0.022 C  
DOCKED: ATOM      9  C   UNL     1     139.207  68.412 224.547 -0.34 -0.00    +0.025 C  
DOCKED: ATOM     10  C   UNL     1     138.745  67.800 223.220 -0.25 -0.00    +0.004 C  
DOCKED: BRANCH   7  11
DOCKED: ATOM     11  C   UNL     1     139.580  70.605 225.788 -0.38 -0.00    +0.012 C  
DOCKED: ATOM     12  C   UNL     1     140.752  71.579 225.906 -0.60 -0.00    +0.006 C  
DOCKED: ATOM     13  C   UNL     1     139.743  69.618 226.950 -0.56 -0.00    +0.006 C  
DOCKED: ATOM     14  C   UNL     1     141.044  71.649 227.392 -0.80 -0.00    +0.000 C  
DOCKED: ATOM     15  C   UNL     1     140.708  70.269 227.943 -0.66 -0.00    +0.000 C  
DOCKED: ENDBRANCH   7  11
DOCKED: ENDBRANCH   2   5
DOCKED: ENDBRANCH   1   2
DOCKED: BRANCH   1  16
DOCKED: ATOM     16  N   UNL     1     139.960  73.613 222.347 -0.62 +0.05    -0.623 NA 
DOCKED: BRANCH  16  17
DOCKED: ATOM     17  C   UNL     1     141.032  74.143 221.554 -0.24 -0.01    +0.104 C  
DOCKED: ATOM     18  O   UNL     1     141.782  73.339 220.938 -0.16 +0.05    -0.313 OA 
DOCKED: BRANCH  17  19
DOCKED: ATOM     19  C   UNL     1     141.239  75.601 221.401 -0.29 -0.03    +0.089 A  
DOCKED: ATOM     20  N   UNL     1     140.974  76.432 222.447 -0.26 +0.08    -0.246 NA 
DOCKED: ATOM     21  C   UNL     1     141.699  76.142 220.190 -0.26 -0.01    +0.031 A  
DOCKED: ATOM     22  C   UNL     1     141.155  77.777 222.368 -0.38 -0.03    +0.071 A  
DOCKED: ATOM     23  C   UNL     1     141.898  77.521 220.078 -0.30 -0.01    +0.013 A  
DOCKED: ATOM     24  C   UNL     1     140.873  78.589 223.472 -0.44 -0.01    +0.032 A  
DOCKED: ATOM     25  C   UNL     1     141.629  78.354 221.170 -0.36 -0.00    +0.003 A  
DOCKED: ATOM     26  C   UNL     1     141.068  79.972 223.390 -0.50 -0.01    +0.041 A  
DOCKED: ATOM     27  C   UNL     1     141.819  79.743 221.095 -0.35 -0.02    +0.049 A  
DOCKED: ATOM     28  C   UNL     1     141.539  80.548 222.205 -0.39 -0.03    +0.123 A  
DOCKED: ATOM     29  F   UNL     1     141.722  81.890 222.132 -0.13 +0.04    -0.207 F  
DOCKED: ENDBRANCH  17  19
DOCKED: ENDBRANCH  16  17
DOCKED: ENDBRANCH   1  16
DOCKED: TORSDOF 7
DOCKED: TER
DOCKED: ENDMDL
________________________________________________________________________________


    FINAL DOCKED STATE:
    ________________________


Run:   20 / 20
Time taken for this run:   0.036s

DOCKED: MODEL        20
DOCKED: USER    Run = 20
DOCKED: USER
DOCKED: USER    Estimated Free Energy of Binding    =  -8.41 kcal/mol  [=(1)+(2)+(3)-(4)]
DOCKED: USER
DOCKED: USER    (1) Final Intermolecular Energy     = -10.50 kcal/mol
DOCKED: USER        vdW + Hbond + desolv Energy     = -10.55 kcal/mol
DOCKED: USER        Electrostatic Energy            =  +0.06 kcal/mol
DOCKED: USER        Moving Ligand-Fixed Receptor    = -10.50 kcal/mol
DOCKED: USER        Moving Ligand-Moving Receptor   =  +0.00 kcal/mol
DOCKED: USER    (2) Final Total Internal Energy     =  -2.04 kcal/mol
DOCKED: USER    (3) Torsional Free Energy           =  +2.09 kcal/mol
DOCKED: USER    (4) Unbound System's Energy         =  -2.04 kcal/mol
DOCKED: USER
DOCKED: USER
DOCKED: REMARK SMILES O=C([N-]/C=C(\O)N1CCCC[C@@H]1C1CCCC1)c1ccc2cc(F)ccc2n1
DOCKED: REMARK SMILES IDX 4 1 5 2 6 3 7 5 8 6 12 7 9 8 11 9 10 10 13 11 14 12 17 13
DOCKED: REMARK SMILES IDX 15 14 16 15 3 16 2 17 1 18 18 19 28 20 19 21 27 22 20 23
DOCKED: REMARK SMILES IDX 26 24 21 25 25 26 22 27 23 28 24 29
DOCKED: REMARK H PARENT 6 4
DOCKED: USER                              x       y       z     vdW  Elec       q    Type
DOCKED: USER                           _______ _______ _______ _____ _____    ______ ____
DOCKED: ROOT
DOCKED: ATOM      1  C   UNL     1     141.112  73.867 221.325 -0.26 +0.01    -0.069 C  
DOCKED: ENDROOT
DOCKED: BRANCH   1   2
DOCKED: ATOM      2  C   UNL     1     140.685  75.123 221.520 -0.27 -0.03    +0.164 C  
DOCKED: BRANCH   2   3
DOCKED: ATOM      3  O   UNL     1     139.603  75.373 222.362 -0.48 +0.07    -0.496 OA 
DOCKED: ATOM      4  H   UNL     1     139.175  74.631 222.902 -0.43 -0.08    +0.295 HD 
DOCKED: ENDBRANCH   2   3
DOCKED: BRANCH   2   5
DOCKED: ATOM      5  N   UNL     1     141.345  76.229 220.880 -0.13 +0.15    -0.342 N  
DOCKED: ATOM      6  C   UNL     1     142.570  75.961 220.114 -0.24 -0.07    +0.120 C  
DOCKED: ATOM      7  C   UNL     1     140.803  77.607 220.948 -0.24 -0.04    +0.088 C  
DOCKED: ATOM      8  C   UNL     1     142.433  76.468 218.669 -0.27 -0.01    +0.022 C  
DOCKED: ATOM      9  C   UNL     1     141.450  78.498 219.862 -0.26 -0.01    +0.025 C  
DOCKED: ATOM     10  C   UNL     1     141.555  77.730 218.541 -0.20 -0.00    +0.004 C  
DOCKED: BRANCH   7  11
DOCKED: ATOM     11  C   UNL     1     140.972  78.261 222.353 -0.45 -0.00    +0.012 C  
DOCKED: ATOM     12  C   UNL     1     139.818  79.160 222.794 -0.37 -0.00    +0.006 C  
DOCKED: ATOM     13  C   UNL     1     142.241  79.107 222.512 -0.51 -0.00    +0.006 C  
DOCKED: ATOM     14  C   UNL     1     140.422  80.071 223.844 -0.43 -0.00    +0.000 C  
DOCKED: ATOM     15  C   UNL     1     141.872  80.279 223.424 -0.63 -0.00    +0.000 C  
DOCKED: ENDBRANCH   7  11
DOCKED: ENDBRANCH   2   5
DOCKED: ENDBRANCH   1   2
DOCKED: BRANCH   1  16
DOCKED: ATOM     16  N   UNL     1     141.030  72.856 222.340 -0.22 +0.00    -0.623 NA 
DOCKED: BRANCH  16  17
DOCKED: ATOM     17  C   UNL     1     139.823  72.267 222.848 -0.26 -0.02    +0.104 C  
DOCKED: ATOM     18  O   UNL     1     138.723  72.610 222.339 -0.16 +0.09    -0.313 OA 
DOCKED: BRANCH  17  19
DOCKED: ATOM     19  C   UNL     1     139.849  71.234 223.908 -0.36 -0.02    +0.089 A  
DOCKED: ATOM     20  N   UNL     1     140.423  71.517 225.111 -0.32 +0.04    -0.246 NA 
DOCKED: ATOM     21  C   UNL     1     139.296  69.962 223.692 -0.28 -0.01    +0.031 A  
DOCKED: ATOM     22  C   UNL     1     140.466  70.613 226.125 -0.52 -0.01    +0.071 A  
DOCKED: ATOM     23  C   UNL     1     139.323  69.011 224.715 -0.37 -0.00    +0.013 A  
DOCKED: ATOM     24  C   UNL     1     141.062  70.953 227.344 -0.66 -0.01    +0.032 A  
DOCKED: ATOM     25  C   UNL     1     139.907  69.329 225.947 -0.48 -0.00    +0.003 A  
DOCKED: ATOM     26  C   UNL     1     141.098  70.022 228.388 -0.46 -0.01    +0.041 A  
DOCKED: ATOM     27  C   UNL     1     139.951  68.399 226.998 -0.60 -0.01    +0.049 A  
DOCKED: ATOM     28  C   UNL     1     140.545  68.749 228.215 -0.55 -0.03    +0.123 A  
DOCKED: ATOM     29  F   UNL     1     140.587  67.850 229.231 -0.13 +0.06    -0.207 F  
DOCKED: ENDBRANCH  17  19
DOCKED: ENDBRANCH  16  17
DOCKED: ENDBRANCH   1  16
DOCKED: TORSDOF 7
DOCKED: TER
DOCKED: ENDMDL
________________________________________________________________________________


    CLUSTERING HISTOGRAM
    ____________________


________________________________________________________________________________
     |           |     |           |     |
Clus | Lowest    | Run | Mean      | Num | Histogram
-ter | Binding   |     | Binding   | in  |
Rank | Energy    |     | Energy    | Clus|    5    10   15   20   25   30   35
_____|___________|_____|___________|_____|____:____|____:____|____:____|____:___
   1 |     -8.41 |  20 |     -7.99 |  16 |################
   2 |     -7.73 |   4 |     -7.66 |   3 |###
   3 |     -7.08 |   8 |     -7.08 |   1 |#
_____|___________|_____|___________|_____|______________________________________


    RMSD TABLE
    __________


_______________________________________________________________________
     |      |      |           |         |                 |
Rank | Sub- | Run  | Binding   | Cluster | Reference       | Grep
     | Rank |      | Energy    | RMSD    | RMSD            | Pattern
_____|______|______|___________|_________|_________________|___________
   1      1     20       -8.41      0.00    272.24           RANKING
   1      2      5       -8.40      0.12    272.22           RANKING
   1      3      2       -8.39      0.09    272.21           RANKING
   1      4     18       -8.38      0.12    272.21           RANKING
   1      5     12       -8.38      0.11    272.20           RANKING
   1      6     15       -8.36      0.21    272.19           RANKING
   1      7      7       -8.18      1.58    272.39           RANKING
   1      8     14       -8.10      0.60    272.07           RANKING
   1      9      1       -8.09      0.88    271.89           RANKING
   1     10     10       -8.04      0.37    272.10           RANKING
   1     11     16       -7.68      0.63    272.03           RANKING
   1     12     11       -7.67      1.54    272.41           RANKING
   1     13     17       -7.65      1.96    271.57           RANKING
   1     14      6       -7.54      1.10    271.83           RANKING
   1     15      3       -7.49      0.99    271.91           RANKING
   1     16     13       -7.06      1.04    271.82           RANKING
   2      1      4       -7.73      0.00    271.83           RANKING
   2      2     19       -7.66      0.72    271.78           RANKING
   2      3      9       -7.60      0.76    271.84           RANKING
   3      1      8       -7.08      0.00    270.93           RANKING

Run time 0.689 sec
Idle time 0.000 sec
