AutoDock-GPU version: v1.6

**********************************************************
**    AutoDock-GPU AUTODOCKTOOLS-COMPATIBLE DLG FILE    **
**********************************************************


    DOCKING PARAMETERS
    ________________________


Ligand file:                               /home/a/REINVENT4/ReinventStudies/pleaseWork/justmol2mol_4_Compounds_ontop/graph-dock-8u2o5u/graph-DockGPU/node-autodockgpu/inputs/PEFSKTUOPDHHKI-PFERAENFNA-M.pdbqt
Grid fld file:                             /home/a/REINVENT4/ReinventStudies/mols/Rad51/maps/rad51_receptor.maps.fld

Random seed:                               42
Number of runs:                            20
Number of energy evaluations:              1259779
Number of generations:                     42000
Size of population:                        150
Rate of crossover:                         80.000000%
Tournament selection probability limit:    60.000000%
Rate of mutation:                          2.000000%
Maximal allowed delta movement:            +/- 6.000000A
Maximal allowed delta angle:               +/- 90.000000

Rate of local search:                      100.000000%
Maximal number of local search iterations: 300
Rho lower bound:                           0.010000
Spread of local search delta movement:     2.000000A
Spread of local search delta angle:        74.999999
Limit of consecutive successes/failures:   4

Handle symmetry during clustering:         YES
RMSD tolerance:                            2.000000A

Program call in command line was:          /home/a/REINVENT4/ReinventStudies/adgpu-v1.6_linux_x64_cuda12_128wi --filelist batch.txt --heuristics 1 --nrun 20 --psize 150 --lsit 300 --seed 42 --heurmax 12000000 


    GRID PARAMETERS
    ________________________


Receptor name:                             rad51_receptor
Number of grid points (x, y, z):           53, 53, 53
Grid center (x, y, z):                     139.950000, 75.640000, 221.970000A
Grid size (x, y, z):                       19.500000, 19.500000, 19.500000A
Grid spacing:                              0.375000A


    LIGAND PARAMETERS
    ________________________


Ligand name:                               /home/a/REINVENT4/ReinventStudies/pleaseWork/justmol2mol_4_Compounds_ontop/graph-dock-8u2o5u/graph-DockGPU/node-autodockgpu/inputs/PEFSKTUOPDHHKI-PFERAENFNA-M
Number of atoms:                           29
Number of rotatable bonds:                 7
Number of atom types:                      7


    DUMMY DATA (only for ADT-compatibility)
    ________________________


DPF> outlev 1
DPF> ga_run 20
DPF> fld /home/a/REINVENT4/ReinventStudies/mols/Rad51/maps/rad51_receptor.maps.fld
DPF> move /home/a/REINVENT4/ReinventStudies/pleaseWork/justmol2mol_4_Compounds_ontop/graph-dock-8u2o5u/graph-DockGPU/node-autodockgpu/inputs/PEFSKTUOPDHHKI-PFERAENFNA-M.pdbqt


    COUNTER STATES
    ________________________


Number of energy evaluations performed:    1269973
Number of generations used:                60


    INPUT LIGAND PDBQT FILE:
    ________________________


INPUT-LIGAND-PDBQT: REMARK SMILES O=C([N-]/C=C(/O)N1CCCC[C@@H]1C1CCCC1)c1ccc2cc(F)ccc2n1
INPUT-LIGAND-PDBQT: REMARK SMILES IDX 4 1 5 2 6 3 7 5 8 6 12 7 9 8 11 9 10 10 13 11 14 12 17 13
INPUT-LIGAND-PDBQT: REMARK SMILES IDX 15 14 16 15 3 16 2 17 1 18 18 19 28 20 19 21 27 22 20 23
INPUT-LIGAND-PDBQT: REMARK SMILES IDX 26 24 21 25 25 26 22 27 23 28 24 29
INPUT-LIGAND-PDBQT: REMARK H PARENT 6 4
INPUT-LIGAND-PDBQT: ROOT
INPUT-LIGAND-PDBQT: ATOM      1  C   UNL     1      -1.043  -0.104  -0.149  1.00  0.00    -0.069 C 
INPUT-LIGAND-PDBQT: ENDROOT
INPUT-LIGAND-PDBQT: BRANCH   1   2
INPUT-LIGAND-PDBQT: ATOM      2  C   UNL     1      -0.869   0.907   0.714  1.00  0.00     0.164 C 
INPUT-LIGAND-PDBQT: BRANCH   2   3
INPUT-LIGAND-PDBQT: ATOM      3  O   UNL     1      -1.971   1.426   1.397  1.00  0.00    -0.496 OA
INPUT-LIGAND-PDBQT: ATOM      4  H   UNL     1      -2.910   1.075   1.251  1.00  0.00     0.295 HD
INPUT-LIGAND-PDBQT: ENDBRANCH   2   3
INPUT-LIGAND-PDBQT: BRANCH   2   5
INPUT-LIGAND-PDBQT: ATOM      5  N   UNL     1       0.437   1.462   0.980  1.00  0.00    -0.342 N 
INPUT-LIGAND-PDBQT: ATOM      6  C   UNL     1       1.201   2.017  -0.160  1.00  0.00     0.120 C 
INPUT-LIGAND-PDBQT: ATOM      7  C   UNL     1       0.852   1.564   2.401  1.00  0.00     0.088 C 
INPUT-LIGAND-PDBQT: ATOM      8  C   UNL     1       2.250   3.079   0.219  1.00  0.00     0.022 C 
INPUT-LIGAND-PDBQT: ATOM      9  C   UNL     1       2.060   2.503   2.613  1.00  0.00     0.025 C 
INPUT-LIGAND-PDBQT: ATOM     10  C   UNL     1       2.040   3.646   1.612  1.00  0.00     0.004 C 
INPUT-LIGAND-PDBQT: BRANCH   7  11
INPUT-LIGAND-PDBQT: ATOM     11  C   UNL     1       1.060   0.137   2.992  1.00  0.00     0.012 C 
INPUT-LIGAND-PDBQT: ATOM     12  C   UNL     1       1.462   0.102   4.469  1.00  0.00     0.006 C 
INPUT-LIGAND-PDBQT: ATOM     13  C   UNL     1       2.097  -0.717   2.244  1.00  0.00     0.006 C 
INPUT-LIGAND-PDBQT: ATOM     14  C   UNL     1       2.187  -1.219   4.634  1.00  0.00     0.000 C 
INPUT-LIGAND-PDBQT: ATOM     15  C   UNL     1       2.914  -1.439   3.314  1.00  0.00     0.000 C 
INPUT-LIGAND-PDBQT: ENDBRANCH   7  11
INPUT-LIGAND-PDBQT: ENDBRANCH   2   5
INPUT-LIGAND-PDBQT: ENDBRANCH   1   2
INPUT-LIGAND-PDBQT: BRANCH   1  16
INPUT-LIGAND-PDBQT: ATOM     16  N   UNL     1       0.070  -0.730  -0.794  1.00  0.00    -0.623 NA
INPUT-LIGAND-PDBQT: BRANCH  16  17
INPUT-LIGAND-PDBQT: ATOM     17  C   UNL     1      -0.016  -1.717  -1.830  1.00  0.00     0.104 C 
INPUT-LIGAND-PDBQT: ATOM     18  O   UNL     1       0.978  -2.467  -2.025  1.00  0.00    -0.313 OA
INPUT-LIGAND-PDBQT: BRANCH  17  19
INPUT-LIGAND-PDBQT: ATOM     19  C   UNL     1      -1.207  -1.849  -2.703  1.00  0.00     0.089 A 
INPUT-LIGAND-PDBQT: ATOM     20  N   UNL     1      -2.084  -0.815  -2.821  1.00  0.00    -0.246 NA
INPUT-LIGAND-PDBQT: ATOM     21  C   UNL     1      -1.422  -3.022  -3.450  1.00  0.00     0.031 A 
INPUT-LIGAND-PDBQT: ATOM     22  C   UNL     1      -3.176  -0.876  -3.627  1.00  0.00     0.071 A 
INPUT-LIGAND-PDBQT: ATOM     23  C   UNL     1      -2.532  -3.113  -4.294  1.00  0.00     0.013 A 
INPUT-LIGAND-PDBQT: ATOM     24  C   UNL     1      -4.056   0.210  -3.701  1.00  0.00     0.032 A 
INPUT-LIGAND-PDBQT: ATOM     25  C   UNL     1      -3.423  -2.037  -4.393  1.00  0.00     0.003 A 
INPUT-LIGAND-PDBQT: ATOM     26  C   UNL     1      -5.173   0.149  -4.539  1.00  0.00     0.041 A 
INPUT-LIGAND-PDBQT: ATOM     27  C   UNL     1      -4.539  -2.085  -5.242  1.00  0.00     0.049 A 
INPUT-LIGAND-PDBQT: ATOM     28  C   UNL     1      -5.411  -0.992  -5.313  1.00  0.00     0.123 A 
INPUT-LIGAND-PDBQT: ATOM     29  F   UNL     1      -6.489  -1.035  -6.137  1.00  0.00    -0.207 F 
INPUT-LIGAND-PDBQT: ENDBRANCH  17  19
INPUT-LIGAND-PDBQT: ENDBRANCH  16  17
INPUT-LIGAND-PDBQT: ENDBRANCH   1  16
INPUT-LIGAND-PDBQT: TORSDOF 7


    FINAL DOCKED STATE:
    ________________________


Run:   1 / 20
Time taken for this run:   0.049s

DOCKED: MODEL        1
DOCKED: USER    Run = 1
DOCKED: USER
DOCKED: USER    Estimated Free Energy of Binding    =  -8.22 kcal/mol  [=(1)+(2)+(3)-(4)]
DOCKED: USER
DOCKED: USER    (1) Final Intermolecular Energy     = -10.31 kcal/mol
DOCKED: USER        vdW + Hbond + desolv Energy     = -10.38 kcal/mol
DOCKED: USER        Electrostatic Energy            =  +0.07 kcal/mol
DOCKED: USER        Moving Ligand-Fixed Receptor    = -10.31 kcal/mol
DOCKED: USER        Moving Ligand-Moving Receptor   =  +0.00 kcal/mol
DOCKED: USER    (2) Final Total Internal Energy     =  -1.44 kcal/mol
DOCKED: USER    (3) Torsional Free Energy           =  +2.09 kcal/mol
DOCKED: USER    (4) Unbound System's Energy         =  -1.44 kcal/mol
DOCKED: USER
DOCKED: USER
DOCKED: REMARK SMILES O=C([N-]/C=C(/O)N1CCCC[C@@H]1C1CCCC1)c1ccc2cc(F)ccc2n1
DOCKED: REMARK SMILES IDX 4 1 5 2 6 3 7 5 8 6 12 7 9 8 11 9 10 10 13 11 14 12 17 13
DOCKED: REMARK SMILES IDX 15 14 16 15 3 16 2 17 1 18 18 19 28 20 19 21 27 22 20 23
DOCKED: REMARK SMILES IDX 26 24 21 25 25 26 22 27 23 28 24 29
DOCKED: REMARK H PARENT 6 4
DOCKED: USER                              x       y       z     vdW  Elec       q    Type
DOCKED: USER                           _______ _______ _______ _____ _____    ______ ____
DOCKED: ROOT
DOCKED: ATOM      1  C   UNL     1     139.567  74.923 221.975 -0.27 +0.01    -0.069 C  
DOCKED: ENDROOT
DOCKED: BRANCH   1   2
DOCKED: ATOM      2  C   UNL     1     140.070  76.156 221.815 -0.29 -0.04    +0.164 C  
DOCKED: BRANCH   2   3
DOCKED: ATOM      3  O   UNL     1     141.441  76.318 221.604 -0.12 +0.24    -0.496 OA 
DOCKED: ATOM      4  H   UNL     1     142.120  75.640 221.928 -0.41 -0.17    +0.295 HD 
DOCKED: ENDBRANCH   2   3
DOCKED: BRANCH   2   5
DOCKED: ATOM      5  N   UNL     1     139.226  77.327 221.827 -0.10 +0.08    -0.342 N  
DOCKED: ATOM      6  C   UNL     1     138.088  77.373 220.882 -0.08 -0.03    +0.120 C  
DOCKED: ATOM      7  C   UNL     1     139.479  78.332 222.889 -0.27 -0.02    +0.088 C  
DOCKED: ATOM      8  C   UNL     1     136.928  78.292 221.309 -0.09 -0.00    +0.022 C  
DOCKED: ATOM      9  C   UNL     1     138.315  79.331 223.067 -0.29 -0.00    +0.025 C  
DOCKED: ATOM     10  C   UNL     1     136.980  78.665 222.780 -0.19 -0.00    +0.004 C  
DOCKED: BRANCH   7  11
DOCKED: ATOM     11  C   UNL     1     140.858  79.018 222.646 -0.45 -0.00    +0.012 C  
DOCKED: ATOM     12  C   UNL     1     141.805  79.008 223.848 -0.63 -0.00    +0.006 C  
DOCKED: ATOM     13  C   UNL     1     140.768  80.481 222.181 -0.38 -0.00    +0.006 C  
DOCKED: ATOM     14  C   UNL     1     142.723  80.192 223.618 -0.65 -0.00    +0.000 C  
DOCKED: ATOM     15  C   UNL     1     141.853  81.242 222.940 -0.57 -0.00    +0.000 C  
DOCKED: ENDBRANCH   7  11
DOCKED: ENDBRANCH   2   5
DOCKED: ENDBRANCH   1   2
DOCKED: BRANCH   1  16
DOCKED: ATOM     16  N   UNL     1     140.408  73.818 222.320 -0.55 -0.02    -0.623 NA 
DOCKED: BRANCH  16  17
DOCKED: ATOM     17  C   UNL     1     140.055  72.434 222.195 -0.27 -0.01    +0.104 C  
DOCKED: ATOM     18  O   UNL     1     139.743  71.997 221.054 -0.07 +0.05    -0.313 OA 
DOCKED: BRANCH  17  19
DOCKED: ATOM     19  C   UNL     1     139.999  71.521 223.362 -0.33 -0.02    +0.089 A  
DOCKED: ATOM     20  N   UNL     1     140.552  71.895 224.548 -0.26 +0.03    -0.246 NA 
DOCKED: ATOM     21  C   UNL     1     139.338  70.282 223.271 -0.26 -0.01    +0.031 A  
DOCKED: ATOM     22  C   UNL     1     140.505  71.107 225.653 -0.53 -0.01    +0.071 A  
DOCKED: ATOM     23  C   UNL     1     139.266  69.451 224.393 -0.34 -0.00    +0.013 A  
DOCKED: ATOM     24  C   UNL     1     141.103  71.532 226.845 -0.71 -0.01    +0.032 A  
DOCKED: ATOM     25  C   UNL     1     139.849  69.857 225.600 -0.46 -0.00    +0.003 A  
DOCKED: ATOM     26  C   UNL     1     141.044  70.723 227.984 -0.64 -0.01    +0.041 A  
DOCKED: ATOM     27  C   UNL     1     139.782  69.058 226.751 -0.52 -0.01    +0.049 A  
DOCKED: ATOM     28  C   UNL     1     140.380  69.493 227.940 -0.52 -0.02    +0.123 A  
DOCKED: ATOM     29  F   UNL     1     140.313  68.723 229.056 -0.14 +0.04    -0.207 F  
DOCKED: ENDBRANCH  17  19
DOCKED: ENDBRANCH  16  17
DOCKED: ENDBRANCH   1  16
DOCKED: TORSDOF 7
DOCKED: TER
DOCKED: ENDMDL
________________________________________________________________________________


    FINAL DOCKED STATE:
    ________________________


Run:   2 / 20
Time taken for this run:   0.049s

DOCKED: MODEL        2
DOCKED: USER    Run = 2
DOCKED: USER
DOCKED: USER    Estimated Free Energy of Binding    =  -7.11 kcal/mol  [=(1)+(2)+(3)-(4)]
DOCKED: USER
DOCKED: USER    (1) Final Intermolecular Energy     =  -9.20 kcal/mol
DOCKED: USER        vdW + Hbond + desolv Energy     =  -9.41 kcal/mol
DOCKED: USER        Electrostatic Energy            =  +0.21 kcal/mol
DOCKED: USER        Moving Ligand-Fixed Receptor    =  -9.20 kcal/mol
DOCKED: USER        Moving Ligand-Moving Receptor   =  +0.00 kcal/mol
DOCKED: USER    (2) Final Total Internal Energy     =  -2.25 kcal/mol
DOCKED: USER    (3) Torsional Free Energy           =  +2.09 kcal/mol
DOCKED: USER    (4) Unbound System's Energy         =  -2.25 kcal/mol
DOCKED: USER
DOCKED: USER
DOCKED: REMARK SMILES O=C([N-]/C=C(/O)N1CCCC[C@@H]1C1CCCC1)c1ccc2cc(F)ccc2n1
DOCKED: REMARK SMILES IDX 4 1 5 2 6 3 7 5 8 6 12 7 9 8 11 9 10 10 13 11 14 12 17 13
DOCKED: REMARK SMILES IDX 15 14 16 15 3 16 2 17 1 18 18 19 28 20 19 21 27 22 20 23
DOCKED: REMARK SMILES IDX 26 24 21 25 25 26 22 27 23 28 24 29
DOCKED: REMARK H PARENT 6 4
DOCKED: USER                              x       y       z     vdW  Elec       q    Type
DOCKED: USER                           _______ _______ _______ _____ _____    ______ ____
DOCKED: ROOT
DOCKED: ATOM      1  C   UNL     1     139.342  74.952 222.289 -0.12 +0.01    -0.069 C  
DOCKED: ENDROOT
DOCKED: BRANCH   1   2
DOCKED: ATOM      2  C   UNL     1     140.362  75.715 221.873 -0.28 -0.03    +0.164 C  
DOCKED: BRANCH   2   3
DOCKED: ATOM      3  O   UNL     1     141.481  75.112 221.294 -0.18 +0.14    -0.496 OA 
DOCKED: ATOM      4  H   UNL     1     141.525  74.116 221.116 +0.10 -0.05    +0.295 HD 
DOCKED: ENDBRANCH   2   3
DOCKED: BRANCH   2   5
DOCKED: ATOM      5  N   UNL     1     140.328  77.155 221.982 -0.17 +0.10    -0.342 N  
DOCKED: ATOM      6  C   UNL     1     139.208  77.768 222.731 -0.24 -0.02    +0.120 C  
DOCKED: ATOM      7  C   UNL     1     141.498  77.901 221.457 -0.27 -0.05    +0.088 C  
DOCKED: ATOM      8  C   UNL     1     139.505  79.162 223.314 -0.38 -0.00    +0.022 C  
DOCKED: ATOM      9  C   UNL     1     141.557  79.362 221.955 -0.44 -0.01    +0.025 C  
DOCKED: ATOM     10  C   UNL     1     140.989  79.480 223.359 -0.54 -0.00    +0.004 C  
DOCKED: BRANCH   7  11
DOCKED: ATOM     11  C   UNL     1     141.554  77.768 219.905 -0.27 -0.01    +0.012 C  
DOCKED: ATOM     12  C   UNL     1     142.733  76.951 219.369 -0.34 -0.00    +0.006 C  
DOCKED: ATOM     13  C   UNL     1     141.582  79.108 219.152 -0.26 -0.00    +0.006 C  
DOCKED: ATOM     14  C   UNL     1     142.940  77.464 217.958 -0.30 -0.00    +0.000 C  
DOCKED: ATOM     15  C   UNL     1     142.596  78.946 218.021 -0.32 -0.00    +0.000 C  
DOCKED: ENDBRANCH   7  11
DOCKED: ENDBRANCH   2   5
DOCKED: ENDBRANCH   1   2
DOCKED: BRANCH   1  16
DOCKED: ATOM     16  N   UNL     1     139.323  73.542 222.049 -0.25 +0.13    -0.623 NA 
DOCKED: BRANCH  16  17
DOCKED: ATOM     17  C   UNL     1     140.356  72.620 222.422 -0.27 -0.01    +0.104 C  
DOCKED: ATOM     18  O   UNL     1     141.422  72.613 221.749 -0.21 +0.02    -0.313 OA 
DOCKED: BRANCH  17  19
DOCKED: ATOM     19  C   UNL     1     140.192  71.652 223.532 -0.34 -0.01    +0.089 A  
DOCKED: ATOM     20  N   UNL     1     140.677  71.945 224.770 -0.22 +0.03    -0.246 NA 
DOCKED: ATOM     21  C   UNL     1     139.500  70.443 223.333 -0.28 -0.01    +0.031 A  
DOCKED: ATOM     22  C   UNL     1     140.530  71.103 225.826 -0.54 -0.01    +0.071 A  
DOCKED: ATOM     23  C   UNL     1     139.326  69.559 224.401 -0.34 -0.00    +0.013 A  
DOCKED: ATOM     24  C   UNL     1     141.060  71.445 227.076 -0.72 -0.01    +0.032 A  
DOCKED: ATOM     25  C   UNL     1     139.839  69.881 225.664 -0.46 -0.00    +0.003 A  
DOCKED: ATOM     26  C   UNL     1     140.899  70.582 228.163 -0.59 -0.01    +0.041 A  
DOCKED: ATOM     27  C   UNL     1     139.670  69.027 226.764 -0.52 -0.01    +0.049 A  
DOCKED: ATOM     28  C   UNL     1     140.200  69.380 228.011 -0.53 -0.02    +0.123 A  
DOCKED: ATOM     29  F   UNL     1     140.033  68.557 229.077 -0.15 +0.04    -0.207 F  
DOCKED: ENDBRANCH  17  19
DOCKED: ENDBRANCH  16  17
DOCKED: ENDBRANCH   1  16
DOCKED: TORSDOF 7
DOCKED: TER
DOCKED: ENDMDL
________________________________________________________________________________


    FINAL DOCKED STATE:
    ________________________


Run:   3 / 20
Time taken for this run:   0.049s

DOCKED: MODEL        3
DOCKED: USER    Run = 3
DOCKED: USER
DOCKED: USER    Estimated Free Energy of Binding    =  -7.34 kcal/mol  [=(1)+(2)+(3)-(4)]
DOCKED: USER
DOCKED: USER    (1) Final Intermolecular Energy     =  -9.43 kcal/mol
DOCKED: USER        vdW + Hbond + desolv Energy     =  -9.42 kcal/mol
DOCKED: USER        Electrostatic Energy            =  -0.01 kcal/mol
DOCKED: USER        Moving Ligand-Fixed Receptor    =  -9.43 kcal/mol
DOCKED: USER        Moving Ligand-Moving Receptor   =  +0.00 kcal/mol
DOCKED: USER    (2) Final Total Internal Energy     =  -2.34 kcal/mol
DOCKED: USER    (3) Torsional Free Energy           =  +2.09 kcal/mol
DOCKED: USER    (4) Unbound System's Energy         =  -2.34 kcal/mol
DOCKED: USER
DOCKED: USER
DOCKED: REMARK SMILES O=C([N-]/C=C(/O)N1CCCC[C@@H]1C1CCCC1)c1ccc2cc(F)ccc2n1
DOCKED: REMARK SMILES IDX 4 1 5 2 6 3 7 5 8 6 12 7 9 8 11 9 10 10 13 11 14 12 17 13
DOCKED: REMARK SMILES IDX 15 14 16 15 3 16 2 17 1 18 18 19 28 20 19 21 27 22 20 23
DOCKED: REMARK SMILES IDX 26 24 21 25 25 26 22 27 23 28 24 29
DOCKED: REMARK H PARENT 6 4
DOCKED: USER                              x       y       z     vdW  Elec       q    Type
DOCKED: USER                           _______ _______ _______ _____ _____    ______ ____
DOCKED: ROOT
DOCKED: ATOM      1  C   UNL     1     135.772  71.111 224.299 -0.16 +0.01    -0.069 C  
DOCKED: ENDROOT
DOCKED: BRANCH   1   2
DOCKED: ATOM      2  C   UNL     1     136.594  70.064 224.459 -0.17 -0.02    +0.164 C  
DOCKED: BRANCH   2   3
DOCKED: ATOM      3  O   UNL     1     136.107  68.890 225.037 -0.22 +0.00    -0.496 OA 
DOCKED: ATOM      4  H   UNL     1     135.188  68.838 225.461 +0.12 -0.01    +0.295 HD 
DOCKED: ENDBRANCH   2   3
DOCKED: BRANCH   2   5
DOCKED: ATOM      5  N   UNL     1     137.970  70.106 224.025 -0.11 +0.05    -0.342 N  
DOCKED: ATOM      6  C   UNL     1     138.258  69.818 222.602 -0.15 -0.02    +0.120 C  
DOCKED: ATOM      7  C   UNL     1     138.976  70.577 225.009 -0.25 -0.02    +0.088 C  
DOCKED: ATOM      8  C   UNL     1     139.569  70.427 222.070 -0.18 -0.00    +0.022 C  
DOCKED: ATOM      9  C   UNL     1     140.326  70.956 224.361 -0.44 -0.00    +0.025 C  
DOCKED: ATOM     10  C   UNL     1     140.117  71.523 222.967 -0.34 -0.00    +0.004 C  
DOCKED: BRANCH   7  11
DOCKED: ATOM     11  C   UNL     1     139.108  69.539 226.164 -0.42 -0.00    +0.012 C  
DOCKED: ATOM     12  C   UNL     1     139.976  69.990 227.342 -0.60 -0.00    +0.006 C  
DOCKED: ATOM     13  C   UNL     1     139.651  68.168 225.729 -0.55 -0.00    +0.006 C  
DOCKED: ATOM     14  C   UNL     1     140.459  68.700 227.974 -0.67 -0.00    +0.000 C  
DOCKED: ATOM     15  C   UNL     1     140.637  67.732 226.811 -0.68 -0.00    +0.000 C  
DOCKED: ENDBRANCH   7  11
DOCKED: ENDBRANCH   2   5
DOCKED: ENDBRANCH   1   2
DOCKED: BRANCH   1  16
DOCKED: ATOM     16  N   UNL     1     134.397  71.043 224.688 +0.04 +0.06    -0.623 NA 
DOCKED: BRANCH  16  17
DOCKED: ATOM     17  C   UNL     1     133.908  71.114 226.033 -0.28 -0.01    +0.104 C  
DOCKED: ATOM     18  O   UNL     1     134.015  70.092 226.763 -0.50 +0.00    -0.313 OA 
DOCKED: BRANCH  17  19
DOCKED: ATOM     19  C   UNL     1     133.243  72.324 226.572 -0.34 -0.01    +0.089 A  
DOCKED: ATOM     20  N   UNL     1     133.814  73.548 226.404 -0.72 -0.02    -0.246 NA 
DOCKED: ATOM     21  C   UNL     1     132.000  72.229 227.224 -0.39 -0.01    +0.031 A  
DOCKED: ATOM     22  C   UNL     1     133.233  74.690 226.856 -0.27 +0.01    +0.071 A  
DOCKED: ATOM     23  C   UNL     1     131.373  73.386 227.694 -0.38 -0.00    +0.013 A  
DOCKED: ATOM     24  C   UNL     1     133.869  75.923 226.670 -0.40 -0.00    +0.032 A  
DOCKED: ATOM     25  C   UNL     1     131.984  74.633 227.513 -0.42 -0.00    +0.003 A  
DOCKED: ATOM     26  C   UNL     1     133.264  77.098 227.127 -0.35 -0.00    +0.041 A  
DOCKED: ATOM     27  C   UNL     1     131.377  75.818 227.956 -0.24 +0.00    +0.049 A  
DOCKED: ATOM     28  C   UNL     1     132.018  77.047 227.762 -0.27 +0.00    +0.123 A  
DOCKED: ATOM     29  F   UNL     1     131.431  78.195 228.186 -0.06 -0.03    -0.207 F  
DOCKED: ENDBRANCH  17  19
DOCKED: ENDBRANCH  16  17
DOCKED: ENDBRANCH   1  16
DOCKED: TORSDOF 7
DOCKED: TER
DOCKED: ENDMDL
________________________________________________________________________________


    FINAL DOCKED STATE:
    ________________________


Run:   4 / 20
Time taken for this run:   0.049s

DOCKED: MODEL        4
DOCKED: USER    Run = 4
DOCKED: USER
DOCKED: USER    Estimated Free Energy of Binding    =  -8.44 kcal/mol  [=(1)+(2)+(3)-(4)]
DOCKED: USER
DOCKED: USER    (1) Final Intermolecular Energy     = -10.53 kcal/mol
DOCKED: USER        vdW + Hbond + desolv Energy     = -10.63 kcal/mol
DOCKED: USER        Electrostatic Energy            =  +0.10 kcal/mol
DOCKED: USER        Moving Ligand-Fixed Receptor    = -10.53 kcal/mol
DOCKED: USER        Moving Ligand-Moving Receptor   =  +0.00 kcal/mol
DOCKED: USER    (2) Final Total Internal Energy     =  -1.48 kcal/mol
DOCKED: USER    (3) Torsional Free Energy           =  +2.09 kcal/mol
DOCKED: USER    (4) Unbound System's Energy         =  -1.48 kcal/mol
DOCKED: USER
DOCKED: USER
DOCKED: REMARK SMILES O=C([N-]/C=C(/O)N1CCCC[C@@H]1C1CCCC1)c1ccc2cc(F)ccc2n1
DOCKED: REMARK SMILES IDX 4 1 5 2 6 3 7 5 8 6 12 7 9 8 11 9 10 10 13 11 14 12 17 13
DOCKED: REMARK SMILES IDX 15 14 16 15 3 16 2 17 1 18 18 19 28 20 19 21 27 22 20 23
DOCKED: REMARK SMILES IDX 26 24 21 25 25 26 22 27 23 28 24 29
DOCKED: REMARK H PARENT 6 4
DOCKED: USER                              x       y       z     vdW  Elec       q    Type
DOCKED: USER                           _______ _______ _______ _____ _____    ______ ____
DOCKED: ROOT
DOCKED: ATOM      1  C   UNL     1     140.729  74.329 221.546 -0.28 +0.01    -0.069 C  
DOCKED: ENDROOT
DOCKED: BRANCH   1   2
DOCKED: ATOM      2  C   UNL     1     140.625  75.656 221.707 -0.28 -0.04    +0.164 C  
DOCKED: BRANCH   2   3
DOCKED: ATOM      3  O   UNL     1     139.739  76.166 222.658 -0.25 +0.08    -0.496 OA 
DOCKED: ATOM      4  H   UNL     1     139.199  75.565 223.269 -0.26 -0.06    +0.295 HD 
DOCKED: ENDBRANCH   2   3
DOCKED: BRANCH   2   5
DOCKED: ATOM      5  N   UNL     1     141.427  76.580 220.940 -0.13 +0.16    -0.342 N  
DOCKED: ATOM      6  C   UNL     1     142.507  76.024 220.094 -0.25 -0.07    +0.120 C  
DOCKED: ATOM      7  C   UNL     1     141.012  78.004 220.947 -0.26 -0.04    +0.088 C  
DOCKED: ATOM      8  C   UNL     1     142.917  76.909 218.902 -0.34 -0.01    +0.022 C  
DOCKED: ATOM      9  C   UNL     1     141.668  78.832 219.820 -0.27 -0.01    +0.025 C  
DOCKED: ATOM     10  C   UNL     1     141.889  77.980 218.581 -0.25 -0.00    +0.004 C  
DOCKED: BRANCH   7  11
DOCKED: ATOM     11  C   UNL     1     141.226  78.607 222.369 -0.46 -0.00    +0.012 C  
DOCKED: ATOM     12  C   UNL     1     140.144  79.591 222.822 -0.40 -0.00    +0.006 C  
DOCKED: ATOM     13  C   UNL     1     142.570  79.328 222.559 -0.52 -0.00    +0.006 C  
DOCKED: ATOM     14  C   UNL     1     140.835  80.468 223.847 -0.43 -0.00    +0.000 C  
DOCKED: ATOM     15  C   UNL     1     142.270  80.596 223.356 -0.66 -0.00    +0.000 C  
DOCKED: ENDBRANCH   7  11
DOCKED: ENDBRANCH   2   5
DOCKED: ENDBRANCH   1   2
DOCKED: BRANCH   1  16
DOCKED: ATOM     16  N   UNL     1     139.999  73.421 222.375 -0.59 +0.05    -0.623 NA 
DOCKED: BRANCH  16  17
DOCKED: ATOM     17  C   UNL     1     140.020  71.992 222.264 -0.26 -0.02    +0.104 C  
DOCKED: ATOM     18  O   UNL     1     140.041  71.483 221.111 -0.08 +0.05    -0.313 OA 
DOCKED: BRANCH  17  19
DOCKED: ATOM     19  C   UNL     1     139.970  71.103 223.449 -0.32 -0.01    +0.089 A  
DOCKED: ATOM     20  N   UNL     1     140.487  71.519 224.636 -0.30 +0.04    -0.246 NA 
DOCKED: ATOM     21  C   UNL     1     139.350  69.841 223.373 -0.24 -0.01    +0.031 A  
DOCKED: ATOM     22  C   UNL     1     140.443  70.753 225.758 -0.52 -0.01    +0.071 A  
DOCKED: ATOM     23  C   UNL     1     139.282  69.033 224.510 -0.34 -0.00    +0.013 A  
DOCKED: ATOM     24  C   UNL     1     141.004  71.222 226.951 -0.68 -0.01    +0.032 A  
DOCKED: ATOM     25  C   UNL     1     139.828  69.482 225.719 -0.46 -0.00    +0.003 A  
DOCKED: ATOM     26  C   UNL     1     140.948  70.436 228.106 -0.58 -0.01    +0.041 A  
DOCKED: ATOM     27  C   UNL     1     139.764  68.706 226.886 -0.55 -0.01    +0.049 A  
DOCKED: ATOM     28  C   UNL     1     140.324  69.185 228.077 -0.53 -0.02    +0.123 A  
DOCKED: ATOM     29  F   UNL     1     140.259  68.437 229.208 -0.11 +0.04    -0.207 F  
DOCKED: ENDBRANCH  17  19
DOCKED: ENDBRANCH  16  17
DOCKED: ENDBRANCH   1  16
DOCKED: TORSDOF 7
DOCKED: TER
DOCKED: ENDMDL
________________________________________________________________________________


    FINAL DOCKED STATE:
    ________________________


Run:   5 / 20
Time taken for this run:   0.049s

DOCKED: MODEL        5
DOCKED: USER    Run = 5
DOCKED: USER
DOCKED: USER    Estimated Free Energy of Binding    =  -8.32 kcal/mol  [=(1)+(2)+(3)-(4)]
DOCKED: USER
DOCKED: USER    (1) Final Intermolecular Energy     = -10.41 kcal/mol
DOCKED: USER        vdW + Hbond + desolv Energy     = -10.48 kcal/mol
DOCKED: USER        Electrostatic Energy            =  +0.07 kcal/mol
DOCKED: USER        Moving Ligand-Fixed Receptor    = -10.41 kcal/mol
DOCKED: USER        Moving Ligand-Moving Receptor   =  +0.00 kcal/mol
DOCKED: USER    (2) Final Total Internal Energy     =  -2.05 kcal/mol
DOCKED: USER    (3) Torsional Free Energy           =  +2.09 kcal/mol
DOCKED: USER    (4) Unbound System's Energy         =  -2.05 kcal/mol
DOCKED: USER
DOCKED: USER
DOCKED: REMARK SMILES O=C([N-]/C=C(/O)N1CCCC[C@@H]1C1CCCC1)c1ccc2cc(F)ccc2n1
DOCKED: REMARK SMILES IDX 4 1 5 2 6 3 7 5 8 6 12 7 9 8 11 9 10 10 13 11 14 12 17 13
DOCKED: REMARK SMILES IDX 15 14 16 15 3 16 2 17 1 18 18 19 28 20 19 21 27 22 20 23
DOCKED: REMARK SMILES IDX 26 24 21 25 25 26 22 27 23 28 24 29
DOCKED: REMARK H PARENT 6 4
DOCKED: USER                              x       y       z     vdW  Elec       q    Type
DOCKED: USER                           _______ _______ _______ _____ _____    ______ ____
DOCKED: ROOT
DOCKED: ATOM      1  C   UNL     1     141.096  73.815 221.187 -0.26 +0.01    -0.069 C  
DOCKED: ENDROOT
DOCKED: BRANCH   1   2
DOCKED: ATOM      2  C   UNL     1     140.732  75.078 221.450 -0.26 -0.03    +0.164 C  
DOCKED: BRANCH   2   3
DOCKED: ATOM      3  O   UNL     1     139.708  75.322 222.367 -0.50 +0.06    -0.496 OA 
DOCKED: ATOM      4  H   UNL     1     139.228  74.573 222.852 -0.42 -0.08    +0.295 HD 
DOCKED: ENDBRANCH   2   3
DOCKED: BRANCH   2   5
DOCKED: ATOM      5  N   UNL     1     141.391  76.202 220.829 -0.13 +0.15    -0.342 N  
DOCKED: ATOM      6  C   UNL     1     142.634  75.945 220.067 -0.25 -0.07    +0.120 C  
DOCKED: ATOM      7  C   UNL     1     140.691  77.510 220.881 -0.23 -0.03    +0.088 C  
DOCKED: ATOM      8  C   UNL     1     142.956  76.989 218.981 -0.34 -0.01    +0.022 C  
DOCKED: ATOM      9  C   UNL     1     141.259  78.541 219.882 -0.24 -0.01    +0.025 C  
DOCKED: ATOM     10  C   UNL     1     141.761  77.856 218.622 -0.24 -0.00    +0.004 C  
DOCKED: BRANCH   7  11
DOCKED: ATOM     11  C   UNL     1     140.647  78.025 222.352 -0.43 -0.00    +0.012 C  
DOCKED: ATOM     12  C   UNL     1     139.403  78.841 222.713 -0.34 -0.00    +0.006 C  
DOCKED: ATOM     13  C   UNL     1     141.857  78.880 222.763 -0.53 -0.00    +0.006 C  
DOCKED: ATOM     14  C   UNL     1     139.845  79.713 223.872 -0.42 -0.00    +0.000 C  
DOCKED: ATOM     15  C   UNL     1     141.304  80.042 223.586 -0.56 -0.00    +0.000 C  
DOCKED: ENDBRANCH   7  11
DOCKED: ENDBRANCH   2   5
DOCKED: ENDBRANCH   1   2
DOCKED: BRANCH   1  16
DOCKED: ATOM     16  N   UNL     1     141.038  72.800 222.194 -0.18 +0.02    -0.623 NA 
DOCKED: BRANCH  16  17
DOCKED: ATOM     17  C   UNL     1     139.838  72.270 222.773 -0.27 -0.02    +0.104 C  
DOCKED: ATOM     18  O   UNL     1     138.731  72.712 222.363 -0.16 +0.09    -0.313 OA 
DOCKED: BRANCH  17  19
DOCKED: ATOM     19  C   UNL     1     139.860  71.265 223.863 -0.36 -0.02    +0.089 A  
DOCKED: ATOM     20  N   UNL     1     140.430  71.570 225.060 -0.31 +0.04    -0.246 NA 
DOCKED: ATOM     21  C   UNL     1     139.256  70.006 223.689 -0.28 -0.01    +0.031 A  
DOCKED: ATOM     22  C   UNL     1     140.453  70.694 226.099 -0.53 -0.01    +0.071 A  
DOCKED: ATOM     23  C   UNL     1     139.257  69.086 224.740 -0.37 -0.00    +0.013 A  
DOCKED: ATOM     24  C   UNL     1     141.067  71.051 227.305 -0.67 -0.01    +0.032 A  
DOCKED: ATOM     25  C   UNL     1     139.856  69.421 225.961 -0.48 -0.00    +0.003 A  
DOCKED: ATOM     26  C   UNL     1     141.080  70.152 228.375 -0.48 -0.01    +0.041 A  
DOCKED: ATOM     27  C   UNL     1     139.862  68.530 227.045 -0.58 -0.01    +0.049 A  
DOCKED: ATOM     28  C   UNL     1     140.473  68.898 228.249 -0.54 -0.02    +0.123 A  
DOCKED: ATOM     29  F   UNL     1     140.476  68.039 229.300 -0.12 +0.05    -0.207 F  
DOCKED: ENDBRANCH  17  19
DOCKED: ENDBRANCH  16  17
DOCKED: ENDBRANCH   1  16
DOCKED: TORSDOF 7
DOCKED: TER
DOCKED: ENDMDL
________________________________________________________________________________


    FINAL DOCKED STATE:
    ________________________


Run:   6 / 20
Time taken for this run:   0.049s

DOCKED: MODEL        6
DOCKED: USER    Run = 6
DOCKED: USER
DOCKED: USER    Estimated Free Energy of Binding    =  -8.38 kcal/mol  [=(1)+(2)+(3)-(4)]
DOCKED: USER
DOCKED: USER    (1) Final Intermolecular Energy     = -10.47 kcal/mol
DOCKED: USER        vdW + Hbond + desolv Energy     = -10.60 kcal/mol
DOCKED: USER        Electrostatic Energy            =  +0.13 kcal/mol
DOCKED: USER        Moving Ligand-Fixed Receptor    = -10.47 kcal/mol
DOCKED: USER        Moving Ligand-Moving Receptor   =  +0.00 kcal/mol
DOCKED: USER    (2) Final Total Internal Energy     =  -2.02 kcal/mol
DOCKED: USER    (3) Torsional Free Energy           =  +2.09 kcal/mol
DOCKED: USER    (4) Unbound System's Energy         =  -2.02 kcal/mol
DOCKED: USER
DOCKED: USER
DOCKED: REMARK SMILES O=C([N-]/C=C(/O)N1CCCC[C@@H]1C1CCCC1)c1ccc2cc(F)ccc2n1
DOCKED: REMARK SMILES IDX 4 1 5 2 6 3 7 5 8 6 12 7 9 8 11 9 10 10 13 11 14 12 17 13
DOCKED: REMARK SMILES IDX 15 14 16 15 3 16 2 17 1 18 18 19 28 20 19 21 27 22 20 23
DOCKED: REMARK SMILES IDX 26 24 21 25 25 26 22 27 23 28 24 29
DOCKED: REMARK H PARENT 6 4
DOCKED: USER                              x       y       z     vdW  Elec       q    Type
DOCKED: USER                           _______ _______ _______ _____ _____    ______ ____
DOCKED: ROOT
DOCKED: ATOM      1  C   UNL     1     141.030  73.743 221.057 -0.25 +0.01    -0.069 C  
DOCKED: ENDROOT
DOCKED: BRANCH   1   2
DOCKED: ATOM      2  C   UNL     1     140.865  75.031 221.389 -0.26 -0.03    +0.164 C  
DOCKED: BRANCH   2   3
DOCKED: ATOM      3  O   UNL     1     139.945  75.373 222.383 -0.48 +0.05    -0.496 OA 
DOCKED: ATOM      4  H   UNL     1     139.508  74.677 222.975 -0.37 -0.03    +0.295 HD 
DOCKED: ENDBRANCH   2   3
DOCKED: BRANCH   2   5
DOCKED: ATOM      5  N   UNL     1     141.634  76.081 220.764 -0.12 +0.16    -0.342 N  
DOCKED: ATOM      6  C   UNL     1     142.854  75.699 220.018 -0.26 -0.07    +0.120 C  
DOCKED: ATOM      7  C   UNL     1     141.062  77.450 220.797 -0.25 -0.04    +0.088 C  
DOCKED: ATOM      8  C   UNL     1     143.285  76.696 218.926 -0.34 -0.01    +0.022 C  
DOCKED: ATOM      9  C   UNL     1     141.736  78.412 219.794 -0.28 -0.01    +0.025 C  
DOCKED: ATOM     10  C   UNL     1     142.182  77.669 218.546 -0.28 -0.00    +0.004 C  
DOCKED: BRANCH   7  11
DOCKED: ATOM     11  C   UNL     1     141.054  77.982 222.262 -0.44 -0.00    +0.012 C  
DOCKED: ATOM     12  C   UNL     1     139.734  78.616 222.711 -0.37 -0.00    +0.006 C  
DOCKED: ATOM     13  C   UNL     1     142.153  79.011 222.572 -0.52 -0.00    +0.006 C  
DOCKED: ATOM     14  C   UNL     1     140.129  79.565 223.825 -0.45 -0.00    +0.000 C  
DOCKED: ATOM     15  C   UNL     1     141.499  80.097 223.425 -0.59 -0.00    +0.000 C  
DOCKED: ENDBRANCH   7  11
DOCKED: ENDBRANCH   2   5
DOCKED: ENDBRANCH   1   2
DOCKED: BRANCH   1  16
DOCKED: ATOM     16  N   UNL     1     140.978  72.709 222.044 -0.13 +0.03    -0.623 NA 
DOCKED: BRANCH  16  17
DOCKED: ATOM     17  C   UNL     1     139.795  72.261 222.718 -0.28 -0.02    +0.104 C  
DOCKED: ATOM     18  O   UNL     1     138.689  72.768 222.385 -0.15 +0.10    -0.313 OA 
DOCKED: BRANCH  17  19
DOCKED: ATOM     19  C   UNL     1     139.836  71.266 223.816 -0.35 -0.02    +0.089 A  
DOCKED: ATOM     20  N   UNL     1     140.399  71.593 225.011 -0.31 +0.04    -0.246 NA 
DOCKED: ATOM     21  C   UNL     1     139.258  69.994 223.653 -0.27 -0.01    +0.031 A  
DOCKED: ATOM     22  C   UNL     1     140.439  70.728 226.058 -0.53 -0.01    +0.071 A  
DOCKED: ATOM     23  C   UNL     1     139.277  69.083 224.713 -0.37 -0.00    +0.013 A  
DOCKED: ATOM     24  C   UNL     1     141.043  71.108 227.261 -0.68 -0.01    +0.032 A  
DOCKED: ATOM     25  C   UNL     1     139.867  69.442 225.931 -0.48 -0.00    +0.003 A  
DOCKED: ATOM     26  C   UNL     1     141.074  70.219 228.340 -0.52 -0.01    +0.041 A  
DOCKED: ATOM     27  C   UNL     1     139.890  68.561 227.023 -0.58 -0.01    +0.049 A  
DOCKED: ATOM     28  C   UNL     1     140.493  68.952 228.224 -0.54 -0.02    +0.123 A  
DOCKED: ATOM     29  F   UNL     1     140.512  68.102 229.283 -0.13 +0.05    -0.207 F  
DOCKED: ENDBRANCH  17  19
DOCKED: ENDBRANCH  16  17
DOCKED: ENDBRANCH   1  16
DOCKED: TORSDOF 7
DOCKED: TER
DOCKED: ENDMDL
________________________________________________________________________________


    FINAL DOCKED STATE:
    ________________________


Run:   7 / 20
Time taken for this run:   0.049s

DOCKED: MODEL        7
DOCKED: USER    Run = 7
DOCKED: USER
DOCKED: USER    Estimated Free Energy of Binding    =  -8.20 kcal/mol  [=(1)+(2)+(3)-(4)]
DOCKED: USER
DOCKED: USER    (1) Final Intermolecular Energy     = -10.28 kcal/mol
DOCKED: USER        vdW + Hbond + desolv Energy     = -10.39 kcal/mol
DOCKED: USER        Electrostatic Energy            =  +0.10 kcal/mol
DOCKED: USER        Moving Ligand-Fixed Receptor    = -10.28 kcal/mol
DOCKED: USER        Moving Ligand-Moving Receptor   =  +0.00 kcal/mol
DOCKED: USER    (2) Final Total Internal Energy     =  -1.46 kcal/mol
DOCKED: USER    (3) Torsional Free Energy           =  +2.09 kcal/mol
DOCKED: USER    (4) Unbound System's Energy         =  -1.46 kcal/mol
DOCKED: USER
DOCKED: USER
DOCKED: REMARK SMILES O=C([N-]/C=C(/O)N1CCCC[C@@H]1C1CCCC1)c1ccc2cc(F)ccc2n1
DOCKED: REMARK SMILES IDX 4 1 5 2 6 3 7 5 8 6 12 7 9 8 11 9 10 10 13 11 14 12 17 13
DOCKED: REMARK SMILES IDX 15 14 16 15 3 16 2 17 1 18 18 19 28 20 19 21 27 22 20 23
DOCKED: REMARK SMILES IDX 26 24 21 25 25 26 22 27 23 28 24 29
DOCKED: REMARK H PARENT 6 4
DOCKED: USER                              x       y       z     vdW  Elec       q    Type
DOCKED: USER                           _______ _______ _______ _____ _____    ______ ____
DOCKED: ROOT
DOCKED: ATOM      1  C   UNL     1     139.534  74.920 221.968 -0.27 +0.01    -0.069 C  
DOCKED: ENDROOT
DOCKED: BRANCH   1   2
DOCKED: ATOM      2  C   UNL     1     140.030  76.165 222.012 -0.29 -0.04    +0.164 C  
DOCKED: BRANCH   2   3
DOCKED: ATOM      3  O   UNL     1     141.412  76.353 222.081 -0.09 +0.23    -0.496 OA 
DOCKED: ATOM      4  H   UNL     1     142.054  75.584 222.234 -0.39 -0.15    +0.295 HD 
DOCKED: ENDBRANCH   2   3
DOCKED: BRANCH   2   5
DOCKED: ATOM      5  N   UNL     1     139.173  77.326 221.964 -0.11 +0.08    -0.342 N  
DOCKED: ATOM      6  C   UNL     1     138.027  77.304 221.027 -0.09 -0.02    +0.120 C  
DOCKED: ATOM      7  C   UNL     1     139.423  78.393 222.964 -0.26 -0.02    +0.088 C  
DOCKED: ATOM      8  C   UNL     1     136.859  78.233 221.411 -0.09 -0.00    +0.022 C  
DOCKED: ATOM      9  C   UNL     1     138.249  79.388 223.094 -0.29 -0.00    +0.025 C  
DOCKED: ATOM     10  C   UNL     1     136.920  78.691 222.857 -0.18 -0.00    +0.004 C  
DOCKED: BRANCH   7  11
DOCKED: ATOM     11  C   UNL     1     140.792  79.079 222.669 -0.45 -0.00    +0.012 C  
DOCKED: ATOM     12  C   UNL     1     141.821  78.978 223.799 -0.62 -0.00    +0.006 C  
DOCKED: ATOM     13  C   UNL     1     140.692  80.571 222.310 -0.39 -0.00    +0.006 C  
DOCKED: ATOM     14  C   UNL     1     142.739  80.165 223.583 -0.65 -0.00    +0.000 C  
DOCKED: ATOM     15  C   UNL     1     141.840  81.267 223.040 -0.58 -0.00    +0.000 C  
DOCKED: ENDBRANCH   7  11
DOCKED: ENDBRANCH   2   5
DOCKED: ENDBRANCH   1   2
DOCKED: BRANCH   1  16
DOCKED: ATOM     16  N   UNL     1     140.337  73.788 222.314 -0.58 -0.02    -0.623 NA 
DOCKED: BRANCH  16  17
DOCKED: ATOM     17  C   UNL     1     139.933  72.417 222.205 -0.26 -0.02    +0.104 C  
DOCKED: ATOM     18  O   UNL     1     139.524  72.001 221.087 -0.06 +0.06    -0.313 OA 
DOCKED: BRANCH  17  19
DOCKED: ATOM     19  C   UNL     1     139.935  71.495 223.365 -0.33 -0.02    +0.089 A  
DOCKED: ATOM     20  N   UNL     1     140.480  71.889 224.549 -0.26 +0.04    -0.246 NA 
DOCKED: ATOM     21  C   UNL     1     139.340  70.223 223.272 -0.25 -0.01    +0.031 A  
DOCKED: ATOM     22  C   UNL     1     140.484  71.092 225.649 -0.53 -0.01    +0.071 A  
DOCKED: ATOM     23  C   UNL     1     139.321  69.382 224.388 -0.33 -0.00    +0.013 A  
DOCKED: ATOM     24  C   UNL     1     141.070  71.540 226.839 -0.72 -0.01    +0.032 A  
DOCKED: ATOM     25  C   UNL     1     139.894  69.810 225.593 -0.46 -0.00    +0.003 A  
DOCKED: ATOM     26  C   UNL     1     141.064  70.722 227.972 -0.64 -0.01    +0.041 A  
DOCKED: ATOM     27  C   UNL     1     139.879  69.001 226.739 -0.53 -0.01    +0.049 A  
DOCKED: ATOM     28  C   UNL     1     140.465  69.459 227.926 -0.52 -0.02    +0.123 A  
DOCKED: ATOM     29  F   UNL     1     140.448  68.679 229.037 -0.15 +0.04    -0.207 F  
DOCKED: ENDBRANCH  17  19
DOCKED: ENDBRANCH  16  17
DOCKED: ENDBRANCH   1  16
DOCKED: TORSDOF 7
DOCKED: TER
DOCKED: ENDMDL
________________________________________________________________________________


    FINAL DOCKED STATE:
    ________________________


Run:   8 / 20
Time taken for this run:   0.049s

DOCKED: MODEL        8
DOCKED: USER    Run = 8
DOCKED: USER
DOCKED: USER    Estimated Free Energy of Binding    =  -8.01 kcal/mol  [=(1)+(2)+(3)-(4)]
DOCKED: USER
DOCKED: USER    (1) Final Intermolecular Energy     = -10.09 kcal/mol
DOCKED: USER        vdW + Hbond + desolv Energy     = -10.18 kcal/mol
DOCKED: USER        Electrostatic Energy            =  +0.09 kcal/mol
DOCKED: USER        Moving Ligand-Fixed Receptor    = -10.09 kcal/mol
DOCKED: USER        Moving Ligand-Moving Receptor   =  +0.00 kcal/mol
DOCKED: USER    (2) Final Total Internal Energy     =  -2.07 kcal/mol
DOCKED: USER    (3) Torsional Free Energy           =  +2.09 kcal/mol
DOCKED: USER    (4) Unbound System's Energy         =  -2.07 kcal/mol
DOCKED: USER
DOCKED: USER
DOCKED: REMARK SMILES O=C([N-]/C=C(/O)N1CCCC[C@@H]1C1CCCC1)c1ccc2cc(F)ccc2n1
DOCKED: REMARK SMILES IDX 4 1 5 2 6 3 7 5 8 6 12 7 9 8 11 9 10 10 13 11 14 12 17 13
DOCKED: REMARK SMILES IDX 15 14 16 15 3 16 2 17 1 18 18 19 28 20 19 21 27 22 20 23
DOCKED: REMARK SMILES IDX 26 24 21 25 25 26 22 27 23 28 24 29
DOCKED: REMARK H PARENT 6 4
DOCKED: USER                              x       y       z     vdW  Elec       q    Type
DOCKED: USER                           _______ _______ _______ _____ _____    ______ ____
DOCKED: ROOT
DOCKED: ATOM      1  C   UNL     1     140.501  72.933 220.778 -0.17 +0.01    -0.069 C  
DOCKED: ENDROOT
DOCKED: BRANCH   1   2
DOCKED: ATOM      2  C   UNL     1     140.544  74.152 221.335 -0.23 -0.02    +0.164 C  
DOCKED: BRANCH   2   3
DOCKED: ATOM      3  O   UNL     1     139.641  74.478 222.348 -0.68 +0.06    -0.496 OA 
DOCKED: ATOM      4  H   UNL     1     139.028  73.787 222.767 -0.47 -0.11    +0.295 HD 
DOCKED: ENDBRANCH   2   3
DOCKED: BRANCH   2   5
DOCKED: ATOM      5  N   UNL     1     141.521  75.137 220.933 -0.15 +0.11    -0.342 N  
DOCKED: ATOM      6  C   UNL     1     142.887  74.668 220.609 -0.20 -0.05    +0.120 C  
DOCKED: ATOM      7  C   UNL     1     141.039  76.526 220.735 -0.25 -0.04    +0.088 C  
DOCKED: ATOM      8  C   UNL     1     143.680  75.587 219.662 -0.39 -0.01    +0.022 C  
DOCKED: ATOM      9  C   UNL     1     142.034  77.406 219.947 -0.30 -0.02    +0.025 C  
DOCKED: ATOM     10  C   UNL     1     142.797  76.580 218.926 -0.34 -0.00    +0.004 C  
DOCKED: BRANCH   7  11
DOCKED: ATOM     11  C   UNL     1     140.616  77.136 222.105 -0.41 -0.00    +0.012 C  
DOCKED: ATOM     12  C   UNL     1     139.178  77.661 222.162 -0.30 -0.00    +0.006 C  
DOCKED: ATOM     13  C   UNL     1     141.513  78.285 222.595 -0.44 -0.00    +0.006 C  
DOCKED: ATOM     14  C   UNL     1     139.199  78.706 223.261 -0.29 -0.00    +0.000 C  
DOCKED: ATOM     15  C   UNL     1     140.578  79.347 223.171 -0.49 -0.00    +0.000 C  
DOCKED: ENDBRANCH   7  11
DOCKED: ENDBRANCH   2   5
DOCKED: ENDBRANCH   1   2
DOCKED: BRANCH   1  16
DOCKED: ATOM     16  N   UNL     1     140.317  71.759 221.574 -0.01 +0.09    -0.623 NA 
DOCKED: BRANCH  16  17
DOCKED: ATOM     17  C   UNL     1     139.410  71.636 222.677 -0.25 -0.02    +0.104 C  
DOCKED: ATOM     18  O   UNL     1     138.220  72.019 222.518 -0.11 +0.09    -0.313 OA 
DOCKED: BRANCH  17  19
DOCKED: ATOM     19  C   UNL     1     139.836  71.122 224.001 -0.37 -0.02    +0.089 A  
DOCKED: ATOM     20  N   UNL     1     139.429  69.892 224.418 -0.18 +0.04    -0.246 NA 
DOCKED: ATOM     21  C   UNL     1     140.697  71.877 224.819 -0.36 -0.00    +0.031 A  
DOCKED: ATOM     22  C   UNL     1     139.812  69.366 225.611 -0.41 -0.01    +0.071 A  
DOCKED: ATOM     23  C   UNL     1     141.115  71.359 226.048 -0.65 -0.00    +0.013 A  
DOCKED: ATOM     24  C   UNL     1     139.353  68.102 226.000 -0.54 -0.00    +0.032 A  
DOCKED: ATOM     25  C   UNL     1     140.677  70.094 226.458 -0.56 -0.00    +0.003 A  
DOCKED: ATOM     26  C   UNL     1     139.757  67.558 227.223 -0.40 -0.01    +0.041 A  
DOCKED: ATOM     27  C   UNL     1     141.089  69.534 227.677 -0.54 -0.01    +0.049 A  
DOCKED: ATOM     28  C   UNL     1     140.628  68.268 228.056 -0.55 -0.03    +0.123 A  
DOCKED: ATOM     29  F   UNL     1     141.029  67.723 229.233 -0.16 +0.06    -0.207 F  
DOCKED: ENDBRANCH  17  19
DOCKED: ENDBRANCH  16  17
DOCKED: ENDBRANCH   1  16
DOCKED: TORSDOF 7
DOCKED: TER
DOCKED: ENDMDL
________________________________________________________________________________


    FINAL DOCKED STATE:
    ________________________


Run:   9 / 20
Time taken for this run:   0.049s

DOCKED: MODEL        9
DOCKED: USER    Run = 9
DOCKED: USER
DOCKED: USER    Estimated Free Energy of Binding    =  -8.00 kcal/mol  [=(1)+(2)+(3)-(4)]
DOCKED: USER
DOCKED: USER    (1) Final Intermolecular Energy     = -10.09 kcal/mol
DOCKED: USER        vdW + Hbond + desolv Energy     = -10.21 kcal/mol
DOCKED: USER        Electrostatic Energy            =  +0.12 kcal/mol
DOCKED: USER        Moving Ligand-Fixed Receptor    = -10.09 kcal/mol
DOCKED: USER        Moving Ligand-Moving Receptor   =  +0.00 kcal/mol
DOCKED: USER    (2) Final Total Internal Energy     =  -2.19 kcal/mol
DOCKED: USER    (3) Torsional Free Energy           =  +2.09 kcal/mol
DOCKED: USER    (4) Unbound System's Energy         =  -2.19 kcal/mol
DOCKED: USER
DOCKED: USER
DOCKED: REMARK SMILES O=C([N-]/C=C(/O)N1CCCC[C@@H]1C1CCCC1)c1ccc2cc(F)ccc2n1
DOCKED: REMARK SMILES IDX 4 1 5 2 6 3 7 5 8 6 12 7 9 8 11 9 10 10 13 11 14 12 17 13
DOCKED: REMARK SMILES IDX 15 14 16 15 3 16 2 17 1 18 18 19 28 20 19 21 27 22 20 23
DOCKED: REMARK SMILES IDX 26 24 21 25 25 26 22 27 23 28 24 29
DOCKED: REMARK H PARENT 6 4
DOCKED: USER                              x       y       z     vdW  Elec       q    Type
DOCKED: USER                           _______ _______ _______ _____ _____    ______ ____
DOCKED: ROOT
DOCKED: ATOM      1  C   UNL     1     140.873  72.681 221.525 -0.25 +0.01    -0.069 C  
DOCKED: ENDROOT
DOCKED: BRANCH   1   2
DOCKED: ATOM      2  C   UNL     1     140.653  73.998 221.649 -0.22 -0.02    +0.164 C  
DOCKED: BRANCH   2   3
DOCKED: ATOM      3  O   UNL     1     139.532  74.445 222.353 -0.67 +0.07    -0.496 OA 
DOCKED: ATOM      4  H   UNL     1     138.846  73.806 222.736 -0.49 -0.13    +0.295 HD 
DOCKED: ENDBRANCH   2   3
DOCKED: BRANCH   2   5
DOCKED: ATOM      5  N   UNL     1     141.560  74.975 221.095 -0.16 +0.10    -0.342 N  
DOCKED: ATOM      6  C   UNL     1     142.934  74.535 220.760 -0.17 -0.04    +0.120 C  
DOCKED: ATOM      7  C   UNL     1     141.000  76.310 220.769 -0.25 -0.03    +0.088 C  
DOCKED: ATOM      8  C   UNL     1     143.638  75.378 219.680 -0.40 -0.01    +0.022 C  
DOCKED: ATOM      9  C   UNL     1     141.916  77.140 219.843 -0.29 -0.01    +0.025 C  
DOCKED: ATOM     10  C   UNL     1     142.676  76.240 218.883 -0.30 -0.00    +0.004 C  
DOCKED: BRANCH   7  11
DOCKED: ATOM     11  C   UNL     1     140.606  77.049 222.083 -0.40 -0.00    +0.012 C  
DOCKED: ATOM     12  C   UNL     1     139.150  77.520 222.147 -0.30 -0.00    +0.006 C  
DOCKED: ATOM     13  C   UNL     1     141.470  78.280 222.405 -0.44 -0.00    +0.006 C  
DOCKED: ATOM     14  C   UNL     1     139.169  78.679 223.123 -0.33 -0.00    +0.000 C  
DOCKED: ATOM     15  C   UNL     1     140.513  79.361 222.904 -0.45 -0.00    +0.000 C  
DOCKED: ENDBRANCH   7  11
DOCKED: ENDBRANCH   2   5
DOCKED: ENDBRANCH   1   2
DOCKED: BRANCH   1  16
DOCKED: ATOM     16  N   UNL     1     139.804  71.736 221.634 -0.00 +0.10    -0.623 NA 
DOCKED: BRANCH  16  17
DOCKED: ATOM     17  C   UNL     1     138.949  71.575 222.773 -0.22 -0.02    +0.104 C  
DOCKED: ATOM     18  O   UNL     1     137.903  72.275 222.839 -0.10 +0.11    -0.313 OA 
DOCKED: BRANCH  17  19
DOCKED: ATOM     19  C   UNL     1     139.278  70.655 223.888 -0.30 -0.02    +0.089 A  
DOCKED: ATOM     20  N   UNL     1     139.863  71.135 225.019 -0.29 +0.05    -0.246 NA 
DOCKED: ATOM     21  C   UNL     1     138.951  69.288 223.810 -0.28 -0.00    +0.031 A  
DOCKED: ATOM     22  C   UNL     1     140.161  70.339 226.078 -0.48 -0.01    +0.071 A  
DOCKED: ATOM     23  C   UNL     1     139.238  68.444 224.886 -0.40 -0.00    +0.013 A  
DOCKED: ATOM     24  C   UNL     1     140.778  70.880 227.212 -0.65 -0.01    +0.032 A  
DOCKED: ATOM     25  C   UNL     1     139.847  68.962 226.036 -0.51 -0.00    +0.003 A  
DOCKED: ATOM     26  C   UNL     1     141.074  70.061 228.305 -0.53 -0.01    +0.041 A  
DOCKED: ATOM     27  C   UNL     1     140.134  68.149 227.143 -0.63 -0.01    +0.049 A  
DOCKED: ATOM     28  C   UNL     1     140.747  68.700 228.275 -0.55 -0.03    +0.123 A  
DOCKED: ATOM     29  F   UNL     1     141.023  67.916 229.348 -0.15 +0.06    -0.207 F  
DOCKED: ENDBRANCH  17  19
DOCKED: ENDBRANCH  16  17
DOCKED: ENDBRANCH   1  16
DOCKED: TORSDOF 7
DOCKED: TER
DOCKED: ENDMDL
________________________________________________________________________________


    FINAL DOCKED STATE:
    ________________________


Run:   10 / 20
Time taken for this run:   0.049s

DOCKED: MODEL        10
DOCKED: USER    Run = 10
DOCKED: USER
DOCKED: USER    Estimated Free Energy of Binding    =  -8.31 kcal/mol  [=(1)+(2)+(3)-(4)]
DOCKED: USER
DOCKED: USER    (1) Final Intermolecular Energy     = -10.40 kcal/mol
DOCKED: USER        vdW + Hbond + desolv Energy     = -10.44 kcal/mol
DOCKED: USER        Electrostatic Energy            =  +0.04 kcal/mol
DOCKED: USER        Moving Ligand-Fixed Receptor    = -10.40 kcal/mol
DOCKED: USER        Moving Ligand-Moving Receptor   =  +0.00 kcal/mol
DOCKED: USER    (2) Final Total Internal Energy     =  -1.51 kcal/mol
DOCKED: USER    (3) Torsional Free Energy           =  +2.09 kcal/mol
DOCKED: USER    (4) Unbound System's Energy         =  -1.51 kcal/mol
DOCKED: USER
DOCKED: USER
DOCKED: REMARK SMILES O=C([N-]/C=C(/O)N1CCCC[C@@H]1C1CCCC1)c1ccc2cc(F)ccc2n1
DOCKED: REMARK SMILES IDX 4 1 5 2 6 3 7 5 8 6 12 7 9 8 11 9 10 10 13 11 14 12 17 13
DOCKED: REMARK SMILES IDX 15 14 16 15 3 16 2 17 1 18 18 19 28 20 19 21 27 22 20 23
DOCKED: REMARK SMILES IDX 26 24 21 25 25 26 22 27 23 28 24 29
DOCKED: REMARK H PARENT 6 4
DOCKED: USER                              x       y       z     vdW  Elec       q    Type
DOCKED: USER                           _______ _______ _______ _____ _____    ______ ____
DOCKED: ROOT
DOCKED: ATOM      1  C   UNL     1     140.881  74.748 221.527 -0.29 +0.01    -0.069 C  
DOCKED: ENDROOT
DOCKED: BRANCH   1   2
DOCKED: ATOM      2  C   UNL     1     140.633  76.055 221.696 -0.29 -0.05    +0.164 C  
DOCKED: BRANCH   2   3
DOCKED: ATOM      3  O   UNL     1     139.720  76.462 222.671 -0.19 +0.09    -0.496 OA 
DOCKED: ATOM      4  H   UNL     1     139.242  75.800 223.272 -0.13 -0.05    +0.295 HD 
DOCKED: ENDBRANCH   2   3
DOCKED: BRANCH   2   5
DOCKED: ATOM      5  N   UNL     1     141.306  77.062 220.911 -0.12 +0.17    -0.342 N  
DOCKED: ATOM      6  C   UNL     1     142.346  76.619 219.955 -0.26 -0.07    +0.120 C  
DOCKED: ATOM      7  C   UNL     1     140.800  78.453 221.019 -0.24 -0.03    +0.088 C  
DOCKED: ATOM      8  C   UNL     1     142.595  77.579 218.777 -0.32 -0.02    +0.022 C  
DOCKED: ATOM      9  C   UNL     1     141.303  79.370 219.883 -0.25 -0.01    +0.025 C  
DOCKED: ATOM     10  C   UNL     1     141.476  78.588 218.591 -0.21 -0.00    +0.004 C  
DOCKED: BRANCH   7  11
DOCKED: ATOM     11  C   UNL     1     141.091  79.010 222.445 -0.45 -0.00    +0.012 C  
DOCKED: ATOM     12  C   UNL     1     140.490  80.388 222.735 -0.41 -0.00    +0.006 C  
DOCKED: ATOM     13  C   UNL     1     142.584  79.108 222.797 -0.45 -0.00    +0.006 C  
DOCKED: ATOM     14  C   UNL     1     141.371  80.963 223.827 -0.51 -0.00    +0.000 C  
DOCKED: ATOM     15  C   UNL     1     142.769  80.439 223.526 -0.68 -0.00    +0.000 C  
DOCKED: ENDBRANCH   7  11
DOCKED: ENDBRANCH   2   5
DOCKED: ENDBRANCH   1   2
DOCKED: BRANCH   1  16
DOCKED: ATOM     16  N   UNL     1     140.248  73.760 222.347 -0.59 -0.01    -0.623 NA 
DOCKED: BRANCH  16  17
DOCKED: ATOM     17  C   UNL     1     140.537  72.356 222.330 -0.27 -0.01    +0.104 C  
DOCKED: ATOM     18  O   UNL     1     140.972  71.848 221.262 -0.12 +0.04    -0.313 OA 
DOCKED: BRANCH  17  19
DOCKED: ATOM     19  C   UNL     1     140.296  71.483 223.503 -0.34 -0.01    +0.089 A  
DOCKED: ATOM     20  N   UNL     1     140.732  71.861 224.736 -0.26 +0.03    -0.246 NA 
DOCKED: ATOM     21  C   UNL     1     139.580  70.279 223.366 -0.27 -0.01    +0.031 A  
DOCKED: ATOM     22  C   UNL     1     140.514  71.109 225.846 -0.54 -0.01    +0.071 A  
DOCKED: ATOM     23  C   UNL     1     139.333  69.487 224.490 -0.34 -0.00    +0.013 A  
DOCKED: ATOM     24  C   UNL     1     140.996  71.535 227.089 -0.73 -0.01    +0.032 A  
DOCKED: ATOM     25  C   UNL     1     139.797  69.895 225.747 -0.47 -0.00    +0.003 A  
DOCKED: ATOM     26  C   UNL     1     140.761  70.765 228.232 -0.60 -0.01    +0.041 A  
DOCKED: ATOM     27  C   UNL     1     139.554  69.135 226.901 -0.51 -0.01    +0.049 A  
DOCKED: ATOM     28  C   UNL     1     140.037  69.572 228.140 -0.52 -0.02    +0.123 A  
DOCKED: ATOM     29  F   UNL     1     139.799  68.840 229.259 -0.05 +0.03    -0.207 F  
DOCKED: ENDBRANCH  17  19
DOCKED: ENDBRANCH  16  17
DOCKED: ENDBRANCH   1  16
DOCKED: TORSDOF 7
DOCKED: TER
DOCKED: ENDMDL
________________________________________________________________________________


    FINAL DOCKED STATE:
    ________________________


Run:   11 / 20
Time taken for this run:   0.049s

DOCKED: MODEL        11
DOCKED: USER    Run = 11
DOCKED: USER
DOCKED: USER    Estimated Free Energy of Binding    =  -8.35 kcal/mol  [=(1)+(2)+(3)-(4)]
DOCKED: USER
DOCKED: USER    (1) Final Intermolecular Energy     = -10.44 kcal/mol
DOCKED: USER        vdW + Hbond + desolv Energy     = -10.53 kcal/mol
DOCKED: USER        Electrostatic Energy            =  +0.10 kcal/mol
DOCKED: USER        Moving Ligand-Fixed Receptor    = -10.44 kcal/mol
DOCKED: USER        Moving Ligand-Moving Receptor   =  +0.00 kcal/mol
DOCKED: USER    (2) Final Total Internal Energy     =  -2.07 kcal/mol
DOCKED: USER    (3) Torsional Free Energy           =  +2.09 kcal/mol
DOCKED: USER    (4) Unbound System's Energy         =  -2.07 kcal/mol
DOCKED: USER
DOCKED: USER
DOCKED: REMARK SMILES O=C([N-]/C=C(/O)N1CCCC[C@@H]1C1CCCC1)c1ccc2cc(F)ccc2n1
DOCKED: REMARK SMILES IDX 4 1 5 2 6 3 7 5 8 6 12 7 9 8 11 9 10 10 13 11 14 12 17 13
DOCKED: REMARK SMILES IDX 15 14 16 15 3 16 2 17 1 18 18 19 28 20 19 21 27 22 20 23
DOCKED: REMARK SMILES IDX 26 24 21 25 25 26 22 27 23 28 24 29
DOCKED: REMARK H PARENT 6 4
DOCKED: USER                              x       y       z     vdW  Elec       q    Type
DOCKED: USER                           _______ _______ _______ _____ _____    ______ ____
DOCKED: ROOT
DOCKED: ATOM      1  C   UNL     1     141.155  74.010 221.235 -0.26 +0.01    -0.069 C  
DOCKED: ENDROOT
DOCKED: BRANCH   1   2
DOCKED: ATOM      2  C   UNL     1     140.828  75.286 221.488 -0.27 -0.04    +0.164 C  
DOCKED: BRANCH   2   3
DOCKED: ATOM      3  O   UNL     1     139.862  75.570 222.456 -0.41 +0.06    -0.496 OA 
DOCKED: ATOM      4  H   UNL     1     139.436  74.846 223.021 -0.39 -0.04    +0.295 HD 
DOCKED: ENDBRANCH   2   3
DOCKED: BRANCH   2   5
DOCKED: ATOM      5  N   UNL     1     141.468  76.384 220.803 -0.13 +0.16    -0.342 N  
DOCKED: ATOM      6  C   UNL     1     142.656  76.085 219.971 -0.25 -0.07    +0.120 C  
DOCKED: ATOM      7  C   UNL     1     140.799  77.706 220.870 -0.23 -0.04    +0.088 C  
DOCKED: ATOM      8  C   UNL     1     142.929  77.099 218.845 -0.34 -0.02    +0.022 C  
DOCKED: ATOM      9  C   UNL     1     141.323  78.705 219.815 -0.25 -0.01    +0.025 C  
DOCKED: ATOM     10  C   UNL     1     141.732  77.983 218.542 -0.23 -0.00    +0.004 C  
DOCKED: BRANCH   7  11
DOCKED: ATOM     11  C   UNL     1     140.857  78.251 222.329 -0.44 -0.00    +0.012 C  
DOCKED: ATOM     12  C   UNL     1     139.702  79.178 222.719 -0.36 -0.00    +0.006 C  
DOCKED: ATOM     13  C   UNL     1     142.151  79.008 222.675 -0.53 -0.00    +0.006 C  
DOCKED: ATOM     14  C   UNL     1     140.262  80.031 223.840 -0.43 -0.00    +0.000 C  
DOCKED: ATOM     15  C   UNL     1     141.731  80.229 223.491 -0.62 -0.00    +0.000 C  
DOCKED: ENDBRANCH   7  11
DOCKED: ENDBRANCH   2   5
DOCKED: ENDBRANCH   1   2
DOCKED: BRANCH   1  16
DOCKED: ATOM     16  N   UNL     1     141.073  73.007 222.252 -0.25 -0.00    -0.623 NA 
DOCKED: BRANCH  16  17
DOCKED: ATOM     17  C   UNL     1     139.860  72.459 222.785 -0.22 -0.02    +0.104 C  
DOCKED: ATOM     18  O   UNL     1     138.763  72.906 222.355 -0.18 +0.10    -0.313 OA 
DOCKED: BRANCH  17  19
DOCKED: ATOM     19  C   UNL     1     139.857  71.429 223.851 -0.36 -0.02    +0.089 A  
DOCKED: ATOM     20  N   UNL     1     140.435  71.691 225.055 -0.29 +0.04    -0.246 NA 
DOCKED: ATOM     21  C   UNL     1     139.221  70.190 223.648 -0.28 -0.01    +0.031 A  
DOCKED: ATOM     22  C   UNL     1     140.436  70.791 226.073 -0.53 -0.01    +0.071 A  
DOCKED: ATOM     23  C   UNL     1     139.198  69.246 224.678 -0.36 -0.00    +0.013 A  
DOCKED: ATOM     24  C   UNL     1     141.059  71.104 227.286 -0.68 -0.01    +0.032 A  
DOCKED: ATOM     25  C   UNL     1     139.806  69.538 225.906 -0.47 -0.00    +0.003 A  
DOCKED: ATOM     26  C   UNL     1     141.049  70.181 228.336 -0.52 -0.01    +0.041 A  
DOCKED: ATOM     27  C   UNL     1     139.789  68.622 226.968 -0.56 -0.01    +0.049 A  
DOCKED: ATOM     28  C   UNL     1     140.411  68.945 228.181 -0.54 -0.02    +0.123 A  
DOCKED: ATOM     29  F   UNL     1     140.392  68.062 229.211 -0.14 +0.05    -0.207 F  
DOCKED: ENDBRANCH  17  19
DOCKED: ENDBRANCH  16  17
DOCKED: ENDBRANCH   1  16
DOCKED: TORSDOF 7
DOCKED: TER
DOCKED: ENDMDL
________________________________________________________________________________


    FINAL DOCKED STATE:
    ________________________


Run:   12 / 20
Time taken for this run:   0.049s

DOCKED: MODEL        12
DOCKED: USER    Run = 12
DOCKED: USER
DOCKED: USER    Estimated Free Energy of Binding    =  -8.04 kcal/mol  [=(1)+(2)+(3)-(4)]
DOCKED: USER
DOCKED: USER    (1) Final Intermolecular Energy     = -10.13 kcal/mol
DOCKED: USER        vdW + Hbond + desolv Energy     = -10.26 kcal/mol
DOCKED: USER        Electrostatic Energy            =  +0.14 kcal/mol
DOCKED: USER        Moving Ligand-Fixed Receptor    = -10.13 kcal/mol
DOCKED: USER        Moving Ligand-Moving Receptor   =  +0.00 kcal/mol
DOCKED: USER    (2) Final Total Internal Energy     =  -2.17 kcal/mol
DOCKED: USER    (3) Torsional Free Energy           =  +2.09 kcal/mol
DOCKED: USER    (4) Unbound System's Energy         =  -2.17 kcal/mol
DOCKED: USER
DOCKED: USER
DOCKED: REMARK SMILES O=C([N-]/C=C(/O)N1CCCC[C@@H]1C1CCCC1)c1ccc2cc(F)ccc2n1
DOCKED: REMARK SMILES IDX 4 1 5 2 6 3 7 5 8 6 12 7 9 8 11 9 10 10 13 11 14 12 17 13
DOCKED: REMARK SMILES IDX 15 14 16 15 3 16 2 17 1 18 18 19 28 20 19 21 27 22 20 23
DOCKED: REMARK SMILES IDX 26 24 21 25 25 26 22 27 23 28 24 29
DOCKED: REMARK H PARENT 6 4
DOCKED: USER                              x       y       z     vdW  Elec       q    Type
DOCKED: USER                           _______ _______ _______ _____ _____    ______ ____
DOCKED: ROOT
DOCKED: ATOM      1  C   UNL     1     140.994  73.094 221.440 -0.26 +0.01    -0.069 C  
DOCKED: ENDROOT
DOCKED: BRANCH   1   2
DOCKED: ATOM      2  C   UNL     1     140.733  74.400 221.594 -0.25 -0.02    +0.164 C  
DOCKED: BRANCH   2   3
DOCKED: ATOM      3  O   UNL     1     139.633  74.796 222.358 -0.62 +0.06    -0.496 OA 
DOCKED: ATOM      4  H   UNL     1     138.983  74.128 222.754 -0.49 -0.11    +0.295 HD 
DOCKED: ENDBRANCH   2   3
DOCKED: BRANCH   2   5
DOCKED: ATOM      5  N   UNL     1     141.576  75.417 221.010 -0.15 +0.13    -0.342 N  
DOCKED: ATOM      6  C   UNL     1     142.901  75.007 220.492 -0.19 -0.05    +0.120 C  
DOCKED: ATOM      7  C   UNL     1     140.988  76.769 220.845 -0.26 -0.04    +0.088 C  
DOCKED: ATOM      8  C   UNL     1     143.481  75.926 219.401 -0.37 -0.01    +0.022 C  
DOCKED: ATOM      9  C   UNL     1     141.796  77.666 219.881 -0.29 -0.01    +0.025 C  
DOCKED: ATOM     10  C   UNL     1     142.438  76.839 218.781 -0.30 -0.00    +0.004 C  
DOCKED: BRANCH   7  11
DOCKED: ATOM     11  C   UNL     1     140.748  77.413 222.243 -0.42 -0.00    +0.012 C  
DOCKED: ATOM     12  C   UNL     1     139.341  77.977 222.462 -0.32 -0.00    +0.006 C  
DOCKED: ATOM     13  C   UNL     1     141.725  78.546 222.599 -0.44 -0.00    +0.006 C  
DOCKED: ATOM     14  C   UNL     1     139.520  79.039 223.529 -0.35 -0.00    +0.000 C  
DOCKED: ATOM     15  C   UNL     1     140.892  79.642 223.261 -0.52 -0.00    +0.000 C  
DOCKED: ENDBRANCH   7  11
DOCKED: ENDBRANCH   2   5
DOCKED: ENDBRANCH   1   2
DOCKED: BRANCH   1  16
DOCKED: ATOM     16  N   UNL     1     139.955  72.114 221.519 -0.01 +0.10    -0.623 NA 
DOCKED: BRANCH  16  17
DOCKED: ATOM     17  C   UNL     1     139.071  71.927 222.632 -0.22 -0.03    +0.104 C  
DOCKED: ATOM     18  O   UNL     1     138.024  72.626 222.687 -0.08 +0.12    -0.313 OA 
DOCKED: BRANCH  17  19
DOCKED: ATOM     19  C   UNL     1     139.371  70.981 223.733 -0.31 -0.02    +0.089 A  
DOCKED: ATOM     20  N   UNL     1     139.938  71.433 224.885 -0.28 +0.05    -0.246 NA 
DOCKED: ATOM     21  C   UNL     1     139.037  69.619 223.620 -0.26 -0.01    +0.031 A  
DOCKED: ATOM     22  C   UNL     1     140.209  70.613 225.933 -0.49 -0.01    +0.071 A  
DOCKED: ATOM     23  C   UNL     1     139.296  68.750 224.683 -0.36 -0.00    +0.013 A  
DOCKED: ATOM     24  C   UNL     1     140.808  71.125 227.090 -0.68 -0.01    +0.032 A  
DOCKED: ATOM     25  C   UNL     1     139.886  69.240 225.856 -0.48 -0.00    +0.003 A  
DOCKED: ATOM     26  C   UNL     1     141.076  70.281 228.171 -0.55 -0.01    +0.041 A  
DOCKED: ATOM     27  C   UNL     1     140.146  68.402 226.950 -0.60 -0.01    +0.049 A  
DOCKED: ATOM     28  C   UNL     1     140.740  68.924 228.105 -0.54 -0.03    +0.123 A  
DOCKED: ATOM     29  F   UNL     1     140.989  68.116 229.167 -0.17 +0.05    -0.207 F  
DOCKED: ENDBRANCH  17  19
DOCKED: ENDBRANCH  16  17
DOCKED: ENDBRANCH   1  16
DOCKED: TORSDOF 7
DOCKED: TER
DOCKED: ENDMDL
________________________________________________________________________________


    FINAL DOCKED STATE:
    ________________________


Run:   13 / 20
Time taken for this run:   0.049s

DOCKED: MODEL        13
DOCKED: USER    Run = 13
DOCKED: USER
DOCKED: USER    Estimated Free Energy of Binding    =  -7.43 kcal/mol  [=(1)+(2)+(3)-(4)]
DOCKED: USER
DOCKED: USER    (1) Final Intermolecular Energy     =  -9.52 kcal/mol
DOCKED: USER        vdW + Hbond + desolv Energy     =  -9.62 kcal/mol
DOCKED: USER        Electrostatic Energy            =  +0.10 kcal/mol
DOCKED: USER        Moving Ligand-Fixed Receptor    =  -9.52 kcal/mol
DOCKED: USER        Moving Ligand-Moving Receptor   =  +0.00 kcal/mol
DOCKED: USER    (2) Final Total Internal Energy     =  -2.18 kcal/mol
DOCKED: USER    (3) Torsional Free Energy           =  +2.09 kcal/mol
DOCKED: USER    (4) Unbound System's Energy         =  -2.18 kcal/mol
DOCKED: USER
DOCKED: USER
DOCKED: REMARK SMILES O=C([N-]/C=C(/O)N1CCCC[C@@H]1C1CCCC1)c1ccc2cc(F)ccc2n1
DOCKED: REMARK SMILES IDX 4 1 5 2 6 3 7 5 8 6 12 7 9 8 11 9 10 10 13 11 14 12 17 13
DOCKED: REMARK SMILES IDX 15 14 16 15 3 16 2 17 1 18 18 19 28 20 19 21 27 22 20 23
DOCKED: REMARK SMILES IDX 26 24 21 25 25 26 22 27 23 28 24 29
DOCKED: REMARK H PARENT 6 4
DOCKED: USER                              x       y       z     vdW  Elec       q    Type
DOCKED: USER                           _______ _______ _______ _____ _____    ______ ____
DOCKED: ROOT
DOCKED: ATOM      1  C   UNL     1     140.694  75.010 221.888 -0.17 +0.01    -0.069 C  
DOCKED: ENDROOT
DOCKED: BRANCH   1   2
DOCKED: ATOM      2  C   UNL     1     140.793  75.294 220.581 -0.18 -0.05    +0.164 C  
DOCKED: BRANCH   2   3
DOCKED: ATOM      3  O   UNL     1     140.077  74.533 219.655 +0.01 +0.12    -0.496 OA 
DOCKED: ATOM      4  H   UNL     1     139.659  73.643 219.898 +0.05 -0.06    +0.295 HD 
DOCKED: ENDBRANCH   2   3
DOCKED: BRANCH   2   5
DOCKED: ATOM      5  N   UNL     1     141.604  76.388 220.102 -0.10 +0.16    -0.342 N  
DOCKED: ATOM      6  C   UNL     1     142.790  76.065 219.277 -0.28 -0.06    +0.120 C  
DOCKED: ATOM      7  C   UNL     1     141.102  77.762 220.352 -0.22 -0.04    +0.088 C  
DOCKED: ATOM      8  C   UNL     1     143.252  77.193 218.336 -0.22 -0.02    +0.022 C  
DOCKED: ATOM      9  C   UNL     1     141.807  78.831 219.488 -0.28 -0.02    +0.025 C  
DOCKED: ATOM     10  C   UNL     1     142.194  78.263 218.133 -0.29 -0.00    +0.004 C  
DOCKED: BRANCH   7  11
DOCKED: ATOM     11  C   UNL     1     141.145  78.068 221.880 -0.39 -0.01    +0.012 C  
DOCKED: ATOM     12  C   UNL     1     139.819  78.539 222.482 -0.35 -0.00    +0.006 C  
DOCKED: ATOM     13  C   UNL     1     142.198  79.110 222.291 -0.50 -0.00    +0.006 C  
DOCKED: ATOM     14  C   UNL     1     140.220  79.336 223.708 -0.45 -0.00    +0.000 C  
DOCKED: ATOM     15  C   UNL     1     141.532  80.010 223.329 -0.59 -0.00    +0.000 C  
DOCKED: ENDBRANCH   7  11
DOCKED: ENDBRANCH   2   5
DOCKED: ENDBRANCH   1   2
DOCKED: BRANCH   1  16
DOCKED: ATOM     16  N   UNL     1     139.917  73.901 222.350 -0.61 +0.04    -0.623 NA 
DOCKED: BRANCH  16  17
DOCKED: ATOM     17  C   UNL     1     140.272  72.520 222.209 -0.27 -0.01    +0.104 C  
DOCKED: ATOM     18  O   UNL     1     140.630  72.107 221.073 -0.11 +0.04    -0.313 OA 
DOCKED: BRANCH  17  19
DOCKED: ATOM     19  C   UNL     1     140.186  71.560 223.335 -0.33 -0.01    +0.089 A  
DOCKED: ATOM     20  N   UNL     1     140.669  71.900 224.561 -0.25 +0.03    -0.246 NA 
DOCKED: ATOM     21  C   UNL     1     139.567  70.307 223.164 -0.25 -0.01    +0.031 A  
DOCKED: ATOM     22  C   UNL     1     140.591  71.067 225.631 -0.53 -0.01    +0.071 A  
DOCKED: ATOM     23  C   UNL     1     139.464  69.431 224.248 -0.31 -0.00    +0.013 A  
DOCKED: ATOM     24  C   UNL     1     141.118  71.460 226.867 -0.70 -0.00    +0.032 A  
DOCKED: ATOM     25  C   UNL     1     139.975  69.803 225.497 -0.45 -0.00    +0.003 A  
DOCKED: ATOM     26  C   UNL     1     141.027  70.605 227.969 -0.63 -0.01    +0.041 A  
DOCKED: ATOM     27  C   UNL     1     139.876  68.957 226.612 -0.52 -0.01    +0.049 A  
DOCKED: ATOM     28  C   UNL     1     140.402  69.360 227.845 -0.52 -0.02    +0.123 A  
DOCKED: ATOM     29  F   UNL     1     140.302  68.544 228.926 -0.17 +0.04    -0.207 F  
DOCKED: ENDBRANCH  17  19
DOCKED: ENDBRANCH  16  17
DOCKED: ENDBRANCH   1  16
DOCKED: TORSDOF 7
DOCKED: TER
DOCKED: ENDMDL
________________________________________________________________________________


    FINAL DOCKED STATE:
    ________________________


Run:   14 / 20
Time taken for this run:   0.049s

DOCKED: MODEL        14
DOCKED: USER    Run = 14
DOCKED: USER
DOCKED: USER    Estimated Free Energy of Binding    =  -7.20 kcal/mol  [=(1)+(2)+(3)-(4)]
DOCKED: USER
DOCKED: USER    (1) Final Intermolecular Energy     =  -9.29 kcal/mol
DOCKED: USER        vdW + Hbond + desolv Energy     =  -9.48 kcal/mol
DOCKED: USER        Electrostatic Energy            =  +0.19 kcal/mol
DOCKED: USER        Moving Ligand-Fixed Receptor    =  -9.29 kcal/mol
DOCKED: USER        Moving Ligand-Moving Receptor   =  +0.00 kcal/mol
DOCKED: USER    (2) Final Total Internal Energy     =  -2.27 kcal/mol
DOCKED: USER    (3) Torsional Free Energy           =  +2.09 kcal/mol
DOCKED: USER    (4) Unbound System's Energy         =  -2.27 kcal/mol
DOCKED: USER
DOCKED: USER
DOCKED: REMARK SMILES O=C([N-]/C=C(/O)N1CCCC[C@@H]1C1CCCC1)c1ccc2cc(F)ccc2n1
DOCKED: REMARK SMILES IDX 4 1 5 2 6 3 7 5 8 6 12 7 9 8 11 9 10 10 13 11 14 12 17 13
DOCKED: REMARK SMILES IDX 15 14 16 15 3 16 2 17 1 18 18 19 28 20 19 21 27 22 20 23
DOCKED: REMARK SMILES IDX 26 24 21 25 25 26 22 27 23 28 24 29
DOCKED: REMARK H PARENT 6 4
DOCKED: USER                              x       y       z     vdW  Elec       q    Type
DOCKED: USER                           _______ _______ _______ _____ _____    ______ ____
DOCKED: ROOT
DOCKED: ATOM      1  C   UNL     1     138.659  74.483 221.971 -0.18 +0.02    -0.069 C  
DOCKED: ENDROOT
DOCKED: BRANCH   1   2
DOCKED: ATOM      2  C   UNL     1     139.447  75.567 221.932 -0.26 -0.03    +0.164 C  
DOCKED: BRANCH   2   3
DOCKED: ATOM      3  O   UNL     1     140.834  75.412 221.973 -0.43 +0.09    -0.496 OA 
DOCKED: ATOM      4  H   UNL     1     141.280  74.513 221.833 +0.10 -0.03    +0.295 HD 
DOCKED: ENDBRANCH   2   3
DOCKED: BRANCH   2   5
DOCKED: ATOM      5  N   UNL     1     138.900  76.899 221.821 -0.11 +0.07    -0.342 N  
DOCKED: ATOM      6  C   UNL     1     137.863  77.140 220.793 -0.07 -0.02    +0.120 C  
DOCKED: ATOM      7  C   UNL     1     139.318  77.888 222.844 -0.19 -0.02    +0.088 C  
DOCKED: ATOM      8  C   UNL     1     136.926  78.327 221.084 -0.07 -0.00    +0.022 C  
DOCKED: ATOM      9  C   UNL     1     138.410  79.138 222.884 -0.28 -0.00    +0.025 C  
DOCKED: ATOM     10  C   UNL     1     136.976  78.777 222.534 -0.18 -0.00    +0.004 C  
DOCKED: BRANCH   7  11
DOCKED: ATOM     11  C   UNL     1     140.830  78.222 222.668 -0.47 -0.00    +0.012 C  
DOCKED: ATOM     12  C   UNL     1     141.454  79.019 223.817 -0.61 -0.00    +0.006 C  
DOCKED: ATOM     13  C   UNL     1     141.167  78.989 221.379 -0.35 -0.00    +0.006 C  
DOCKED: ATOM     14  C   UNL     1     142.634  79.732 223.187 -0.63 -0.00    +0.000 C  
DOCKED: ATOM     15  C   UNL     1     142.189  80.057 221.767 -0.48 -0.00    +0.000 C  
DOCKED: ENDBRANCH   7  11
DOCKED: ENDBRANCH   2   5
DOCKED: ENDBRANCH   1   2
DOCKED: BRANCH   1  16
DOCKED: ATOM     16  N   UNL     1     139.181  73.176 221.714 -0.07 +0.13    -0.623 NA 
DOCKED: BRANCH  16  17
DOCKED: ATOM     17  C   UNL     1     140.303  72.582 222.381 -0.28 -0.01    +0.104 C  
DOCKED: ATOM     18  O   UNL     1     141.460  72.863 221.969 -0.24 +0.01    -0.313 OA 
DOCKED: BRANCH  17  19
DOCKED: ATOM     19  C   UNL     1     140.143  71.618 223.496 -0.34 -0.01    +0.089 A  
DOCKED: ATOM     20  N   UNL     1     140.659  71.902 224.722 -0.25 +0.03    -0.246 NA 
DOCKED: ATOM     21  C   UNL     1     139.423  70.423 223.313 -0.27 -0.01    +0.031 A  
DOCKED: ATOM     22  C   UNL     1     140.518  71.065 225.783 -0.54 -0.01    +0.071 A  
DOCKED: ATOM     23  C   UNL     1     139.254  69.544 224.386 -0.34 -0.00    +0.013 A  
DOCKED: ATOM     24  C   UNL     1     141.082  71.397 227.020 -0.71 -0.01    +0.032 A  
DOCKED: ATOM     25  C   UNL     1     139.800  69.857 225.637 -0.46 -0.00    +0.003 A  
DOCKED: ATOM     26  C   UNL     1     140.926  70.539 228.113 -0.59 -0.01    +0.041 A  
DOCKED: ATOM     27  C   UNL     1     139.637  69.008 226.742 -0.51 -0.01    +0.049 A  
DOCKED: ATOM     28  C   UNL     1     140.200  69.351 227.977 -0.53 -0.02    +0.123 A  
DOCKED: ATOM     29  F   UNL     1     140.040  68.533 229.048 -0.15 +0.04    -0.207 F  
DOCKED: ENDBRANCH  17  19
DOCKED: ENDBRANCH  16  17
DOCKED: ENDBRANCH   1  16
DOCKED: TORSDOF 7
DOCKED: TER
DOCKED: ENDMDL
________________________________________________________________________________


    FINAL DOCKED STATE:
    ________________________


Run:   15 / 20
Time taken for this run:   0.049s

DOCKED: MODEL        15
DOCKED: USER    Run = 15
DOCKED: USER
DOCKED: USER    Estimated Free Energy of Binding    =  -6.95 kcal/mol  [=(1)+(2)+(3)-(4)]
DOCKED: USER
DOCKED: USER    (1) Final Intermolecular Energy     =  -9.04 kcal/mol
DOCKED: USER        vdW + Hbond + desolv Energy     =  -9.15 kcal/mol
DOCKED: USER        Electrostatic Energy            =  +0.11 kcal/mol
DOCKED: USER        Moving Ligand-Fixed Receptor    =  -9.04 kcal/mol
DOCKED: USER        Moving Ligand-Moving Receptor   =  +0.00 kcal/mol
DOCKED: USER    (2) Final Total Internal Energy     =  -2.19 kcal/mol
DOCKED: USER    (3) Torsional Free Energy           =  +2.09 kcal/mol
DOCKED: USER    (4) Unbound System's Energy         =  -2.19 kcal/mol
DOCKED: USER
DOCKED: USER
DOCKED: REMARK SMILES O=C([N-]/C=C(/O)N1CCCC[C@@H]1C1CCCC1)c1ccc2cc(F)ccc2n1
DOCKED: REMARK SMILES IDX 4 1 5 2 6 3 7 5 8 6 12 7 9 8 11 9 10 10 13 11 14 12 17 13
DOCKED: REMARK SMILES IDX 15 14 16 15 3 16 2 17 1 18 18 19 28 20 19 21 27 22 20 23
DOCKED: REMARK SMILES IDX 26 24 21 25 25 26 22 27 23 28 24 29
DOCKED: REMARK H PARENT 6 4
DOCKED: USER                              x       y       z     vdW  Elec       q    Type
DOCKED: USER                           _______ _______ _______ _____ _____    ______ ____
DOCKED: ROOT
DOCKED: ATOM      1  C   UNL     1     140.556  75.283 221.959 -0.23 +0.01    -0.069 C  
DOCKED: ENDROOT
DOCKED: BRANCH   1   2
DOCKED: ATOM      2  C   UNL     1     139.631  75.823 221.153 -0.19 -0.04    +0.164 C  
DOCKED: BRANCH   2   3
DOCKED: ATOM      3  O   UNL     1     139.209  75.121 220.022 +0.01 +0.11    -0.496 OA 
DOCKED: ATOM      4  H   UNL     1     139.369  74.126 219.914 +0.05 -0.06    +0.295 HD 
DOCKED: ENDBRANCH   2   3
DOCKED: BRANCH   2   5
DOCKED: ATOM      5  N   UNL     1     139.034  77.107 221.435 -0.07 +0.08    -0.342 N  
DOCKED: ATOM      6  C   UNL     1     137.924  77.562 220.568 -0.06 -0.03    +0.120 C  
DOCKED: ATOM      7  C   UNL     1     139.486  77.808 222.663 -0.27 -0.02    +0.088 C  
DOCKED: ATOM      8  C   UNL     1     136.969  78.580 221.220 -0.08 -0.00    +0.022 C  
DOCKED: ATOM      9  C   UNL     1     138.541  78.954 223.087 -0.29 -0.00    +0.025 C  
DOCKED: ATOM     10  C   UNL     1     137.100  78.629 222.732 -0.20 -0.00    +0.004 C  
DOCKED: BRANCH   7  11
DOCKED: ATOM     11  C   UNL     1     140.971  78.251 222.500 -0.47 -0.00    +0.012 C  
DOCKED: ATOM     12  C   UNL     1     141.569  78.963 223.716 -0.61 -0.00    +0.006 C  
DOCKED: ATOM     13  C   UNL     1     141.233  79.167 221.293 -0.35 -0.00    +0.006 C  
DOCKED: ATOM     14  C   UNL     1     142.691  79.809 223.147 -0.64 -0.00    +0.000 C  
DOCKED: ATOM     15  C   UNL     1     142.197  80.250 221.775 -0.48 -0.00    +0.000 C  
DOCKED: ENDBRANCH   7  11
DOCKED: ENDBRANCH   2   5
DOCKED: ENDBRANCH   1   2
DOCKED: BRANCH   1  16
DOCKED: ATOM     16  N   UNL     1     140.805  73.874 221.965 -0.51 +0.01    -0.623 NA 
DOCKED: BRANCH  16  17
DOCKED: ATOM     17  C   UNL     1     139.813  72.855 222.140 -0.25 -0.02    +0.104 C  
DOCKED: ATOM     18  O   UNL     1     138.836  72.829 221.344 -0.08 +0.07    -0.313 OA 
DOCKED: BRANCH  17  19
DOCKED: ATOM     19  C   UNL     1     139.875  71.870 223.246 -0.31 -0.02    +0.089 A  
DOCKED: ATOM     20  N   UNL     1     140.391  72.230 224.452 -0.02 +0.04    -0.246 NA 
DOCKED: ATOM     21  C   UNL     1     139.363  70.569 223.077 -0.26 -0.01    +0.031 A  
DOCKED: ATOM     22  C   UNL     1     140.447  71.373 225.505 -0.51 -0.01    +0.071 A  
DOCKED: ATOM     23  C   UNL     1     139.399  69.667 224.144 -0.31 -0.00    +0.013 A  
DOCKED: ATOM     24  C   UNL     1     141.002  71.789 226.721 -0.72 -0.01    +0.032 A  
DOCKED: ATOM     25  C   UNL     1     139.941  70.061 225.373 -0.45 -0.00    +0.003 A  
DOCKED: ATOM     26  C   UNL     1     141.048  70.909 227.806 -0.66 -0.01    +0.041 A  
DOCKED: ATOM     27  C   UNL     1     139.979  69.188 226.471 -0.50 -0.01    +0.049 A  
DOCKED: ATOM     28  C   UNL     1     140.532  69.614 227.685 -0.51 -0.02    +0.123 A  
DOCKED: ATOM     29  F   UNL     1     140.566  68.773 228.749 -0.17 +0.04    -0.207 F  
DOCKED: ENDBRANCH  17  19
DOCKED: ENDBRANCH  16  17
DOCKED: ENDBRANCH   1  16
DOCKED: TORSDOF 7
DOCKED: TER
DOCKED: ENDMDL
________________________________________________________________________________


    FINAL DOCKED STATE:
    ________________________


Run:   16 / 20
Time taken for this run:   0.049s

DOCKED: MODEL        16
DOCKED: USER    Run = 16
DOCKED: USER
DOCKED: USER    Estimated Free Energy of Binding    =  -7.44 kcal/mol  [=(1)+(2)+(3)-(4)]
DOCKED: USER
DOCKED: USER    (1) Final Intermolecular Energy     =  -9.53 kcal/mol
DOCKED: USER        vdW + Hbond + desolv Energy     =  -9.55 kcal/mol
DOCKED: USER        Electrostatic Energy            =  +0.02 kcal/mol
DOCKED: USER        Moving Ligand-Fixed Receptor    =  -9.53 kcal/mol
DOCKED: USER        Moving Ligand-Moving Receptor   =  +0.00 kcal/mol
DOCKED: USER    (2) Final Total Internal Energy     =  -2.12 kcal/mol
DOCKED: USER    (3) Torsional Free Energy           =  +2.09 kcal/mol
DOCKED: USER    (4) Unbound System's Energy         =  -2.12 kcal/mol
DOCKED: USER
DOCKED: USER
DOCKED: REMARK SMILES O=C([N-]/C=C(/O)N1CCCC[C@@H]1C1CCCC1)c1ccc2cc(F)ccc2n1
DOCKED: REMARK SMILES IDX 4 1 5 2 6 3 7 5 8 6 12 7 9 8 11 9 10 10 13 11 14 12 17 13
DOCKED: REMARK SMILES IDX 15 14 16 15 3 16 2 17 1 18 18 19 28 20 19 21 27 22 20 23
DOCKED: REMARK SMILES IDX 26 24 21 25 25 26 22 27 23 28 24 29
DOCKED: REMARK H PARENT 6 4
DOCKED: USER                              x       y       z     vdW  Elec       q    Type
DOCKED: USER                           _______ _______ _______ _____ _____    ______ ____
DOCKED: ROOT
DOCKED: ATOM      1  C   UNL     1     140.094  72.172 222.404 -0.29 +0.01    -0.069 C  
DOCKED: ENDROOT
DOCKED: BRANCH   1   2
DOCKED: ATOM      2  C   UNL     1     138.844  71.873 222.786 -0.18 -0.04    +0.164 C  
DOCKED: BRANCH   2   3
DOCKED: ATOM      3  O   UNL     1     137.850  72.851 222.713 +0.05 +0.20    -0.496 OA 
DOCKED: ATOM      4  H   UNL     1     138.067  73.841 222.698 -0.47 -0.15    +0.295 HD 
DOCKED: ENDBRANCH   2   3
DOCKED: BRANCH   2   5
DOCKED: ATOM      5  N   UNL     1     138.486  70.553 223.249 -0.09 +0.07    -0.342 N  
DOCKED: ATOM      6  C   UNL     1     137.247  69.943 222.717 -0.12 -0.02    +0.120 C  
DOCKED: ATOM      7  C   UNL     1     139.466  69.851 224.114 -0.29 -0.02    +0.088 C  
DOCKED: ATOM      8  C   UNL     1     137.216  68.403 222.754 -0.16 -0.00    +0.022 C  
DOCKED: ATOM      9  C   UNL     1     139.189  68.336 224.237 -0.28 -0.00    +0.025 C  
DOCKED: ATOM     10  C   UNL     1     138.590  67.789 222.952 -0.26 -0.00    +0.004 C  
DOCKED: BRANCH   7  11
DOCKED: ATOM     11  C   UNL     1     139.572  70.579 225.488 -0.43 -0.00    +0.012 C  
DOCKED: ATOM     12  C   UNL     1     140.786  71.500 225.639 -0.59 -0.00    +0.006 C  
DOCKED: ATOM     13  C   UNL     1     139.589  69.641 226.706 -0.53 -0.00    +0.006 C  
DOCKED: ATOM     14  C   UNL     1     141.023  71.574 227.135 -0.77 -0.00    +0.000 C  
DOCKED: ATOM     15  C   UNL     1     140.641  70.198 227.664 -0.65 -0.00    +0.000 C  
DOCKED: ENDBRANCH   7  11
DOCKED: ENDBRANCH   2   5
DOCKED: ENDBRANCH   1   2
DOCKED: BRANCH   1  16
DOCKED: ATOM     16  N   UNL     1     140.549  73.527 222.346 -0.51 -0.02    -0.623 NA 
DOCKED: BRANCH  16  17
DOCKED: ATOM     17  C   UNL     1     139.973  74.564 221.540 -0.26 -0.02    +0.104 C  
DOCKED: ATOM     18  O   UNL     1     139.001  74.271 220.794 -0.07 +0.07    -0.313 OA 
DOCKED: BRANCH  17  19
DOCKED: ATOM     19  C   UNL     1     140.513  75.945 221.521 -0.31 -0.02    +0.089 A  
DOCKED: ATOM     20  N   UNL     1     140.153  76.830 222.490 -0.24 +0.06    -0.246 NA 
DOCKED: ATOM     21  C   UNL     1     141.430  76.342 220.532 -0.27 -0.01    +0.031 A  
DOCKED: ATOM     22  C   UNL     1     140.639  78.098 222.533 -0.39 -0.02    +0.071 A  
DOCKED: ATOM     23  C   UNL     1     141.954  77.638 220.552 -0.29 -0.01    +0.013 A  
DOCKED: ATOM     24  C   UNL     1     140.226  78.975 223.542 -0.39 -0.01    +0.032 A  
DOCKED: ATOM     25  C   UNL     1     141.564  78.532 221.557 -0.38 -0.00    +0.003 A  
DOCKED: ATOM     26  C   UNL     1     140.735  80.276 223.590 -0.45 -0.01    +0.041 A  
DOCKED: ATOM     27  C   UNL     1     142.080  79.835 221.619 -0.41 -0.02    +0.049 A  
DOCKED: ATOM     28  C   UNL     1     141.664  80.704 222.636 -0.44 -0.03    +0.123 A  
DOCKED: ATOM     29  F   UNL     1     142.166  81.964 222.700 -0.09 +0.03    -0.207 F  
DOCKED: ENDBRANCH  17  19
DOCKED: ENDBRANCH  16  17
DOCKED: ENDBRANCH   1  16
DOCKED: TORSDOF 7
DOCKED: TER
DOCKED: ENDMDL
________________________________________________________________________________


    FINAL DOCKED STATE:
    ________________________


Run:   17 / 20
Time taken for this run:   0.049s

DOCKED: MODEL        17
DOCKED: USER    Run = 17
DOCKED: USER
DOCKED: USER    Estimated Free Energy of Binding    =  -8.20 kcal/mol  [=(1)+(2)+(3)-(4)]
DOCKED: USER
DOCKED: USER    (1) Final Intermolecular Energy     = -10.29 kcal/mol
DOCKED: USER        vdW + Hbond + desolv Energy     = -10.37 kcal/mol
DOCKED: USER        Electrostatic Energy            =  +0.08 kcal/mol
DOCKED: USER        Moving Ligand-Fixed Receptor    = -10.29 kcal/mol
DOCKED: USER        Moving Ligand-Moving Receptor   =  +0.00 kcal/mol
DOCKED: USER    (2) Final Total Internal Energy     =  -1.47 kcal/mol
DOCKED: USER    (3) Torsional Free Energy           =  +2.09 kcal/mol
DOCKED: USER    (4) Unbound System's Energy         =  -1.47 kcal/mol
DOCKED: USER
DOCKED: USER
DOCKED: REMARK SMILES O=C([N-]/C=C(/O)N1CCCC[C@@H]1C1CCCC1)c1ccc2cc(F)ccc2n1
DOCKED: REMARK SMILES IDX 4 1 5 2 6 3 7 5 8 6 12 7 9 8 11 9 10 10 13 11 14 12 17 13
DOCKED: REMARK SMILES IDX 15 14 16 15 3 16 2 17 1 18 18 19 28 20 19 21 27 22 20 23
DOCKED: REMARK SMILES IDX 26 24 21 25 25 26 22 27 23 28 24 29
DOCKED: REMARK H PARENT 6 4
DOCKED: USER                              x       y       z     vdW  Elec       q    Type
DOCKED: USER                           _______ _______ _______ _____ _____    ______ ____
DOCKED: ROOT
DOCKED: ATOM      1  C   UNL     1     139.564  74.930 221.977 -0.26 +0.01    -0.069 C  
DOCKED: ENDROOT
DOCKED: BRANCH   1   2
DOCKED: ATOM      2  C   UNL     1     140.060  76.171 221.883 -0.29 -0.04    +0.164 C  
DOCKED: BRANCH   2   3
DOCKED: ATOM      3  O   UNL     1     141.439  76.353 221.754 -0.11 +0.24    -0.496 OA 
DOCKED: ATOM      4  H   UNL     1     142.102  75.617 221.965 -0.41 -0.16    +0.295 HD 
DOCKED: ENDBRANCH   2   3
DOCKED: BRANCH   2   5
DOCKED: ATOM      5  N   UNL     1     139.204  77.334 221.885 -0.11 +0.08    -0.342 N  
DOCKED: ATOM      6  C   UNL     1     138.061  77.355 220.945 -0.09 -0.03    +0.120 C  
DOCKED: ATOM      7  C   UNL     1     139.452  78.355 222.932 -0.26 -0.02    +0.088 C  
DOCKED: ATOM      8  C   UNL     1     136.893  78.267 221.366 -0.09 -0.00    +0.022 C  
DOCKED: ATOM      9  C   UNL     1     138.278  79.344 223.103 -0.29 -0.00    +0.025 C  
DOCKED: ATOM     10  C   UNL     1     136.949  78.660 222.831 -0.18 -0.00    +0.004 C  
DOCKED: BRANCH   7  11
DOCKED: ATOM     11  C   UNL     1     140.822  79.052 222.672 -0.45 -0.00    +0.012 C  
DOCKED: ATOM     12  C   UNL     1     141.821  78.963 223.829 -0.62 -0.00    +0.006 C  
DOCKED: ATOM     13  C   UNL     1     140.719  80.542 222.308 -0.39 -0.00    +0.006 C  
DOCKED: ATOM     14  C   UNL     1     142.734  80.157 223.635 -0.64 -0.00    +0.000 C  
DOCKED: ATOM     15  C   UNL     1     141.840  81.251 223.066 -0.58 -0.00    +0.000 C  
DOCKED: ENDBRANCH   7  11
DOCKED: ENDBRANCH   2   5
DOCKED: ENDBRANCH   1   2
DOCKED: BRANCH   1  16
DOCKED: ATOM     16  N   UNL     1     140.400  73.819 222.313 -0.56 -0.02    -0.623 NA 
DOCKED: BRANCH  16  17
DOCKED: ATOM     17  C   UNL     1     140.037  72.437 222.191 -0.27 -0.01    +0.104 C  
DOCKED: ATOM     18  O   UNL     1     139.726  72.000 221.050 -0.07 +0.05    -0.313 OA 
DOCKED: BRANCH  17  19
DOCKED: ATOM     19  C   UNL     1     139.970  71.528 223.360 -0.33 -0.02    +0.089 A  
DOCKED: ATOM     20  N   UNL     1     140.532  71.897 224.543 -0.26 +0.04    -0.246 NA 
DOCKED: ATOM     21  C   UNL     1     139.291  70.298 223.274 -0.26 -0.01    +0.031 A  
DOCKED: ATOM     22  C   UNL     1     140.475  71.111 225.651 -0.53 -0.01    +0.071 A  
DOCKED: ATOM     23  C   UNL     1     139.209  69.472 224.397 -0.34 -0.00    +0.013 A  
DOCKED: ATOM     24  C   UNL     1     141.083  71.530 226.840 -0.72 -0.01    +0.032 A  
DOCKED: ATOM     25  C   UNL     1     139.801  69.871 225.602 -0.46 -0.00    +0.003 A  
DOCKED: ATOM     26  C   UNL     1     141.014  70.725 227.981 -0.64 -0.01    +0.041 A  
DOCKED: ATOM     27  C   UNL     1     139.725  69.076 226.755 -0.52 -0.01    +0.049 A  
DOCKED: ATOM     28  C   UNL     1     140.331  69.505 227.942 -0.52 -0.02    +0.123 A  
DOCKED: ATOM     29  F   UNL     1     140.255  68.739 229.060 -0.14 +0.04    -0.207 F  
DOCKED: ENDBRANCH  17  19
DOCKED: ENDBRANCH  16  17
DOCKED: ENDBRANCH   1  16
DOCKED: TORSDOF 7
DOCKED: TER
DOCKED: ENDMDL
________________________________________________________________________________


    FINAL DOCKED STATE:
    ________________________


Run:   18 / 20
Time taken for this run:   0.049s

DOCKED: MODEL        18
DOCKED: USER    Run = 18
DOCKED: USER
DOCKED: USER    Estimated Free Energy of Binding    =  -8.19 kcal/mol  [=(1)+(2)+(3)-(4)]
DOCKED: USER
DOCKED: USER    (1) Final Intermolecular Energy     = -10.28 kcal/mol
DOCKED: USER        vdW + Hbond + desolv Energy     = -10.29 kcal/mol
DOCKED: USER        Electrostatic Energy            =  +0.01 kcal/mol
DOCKED: USER        Moving Ligand-Fixed Receptor    = -10.28 kcal/mol
DOCKED: USER        Moving Ligand-Moving Receptor   =  +0.00 kcal/mol
DOCKED: USER    (2) Final Total Internal Energy     =  -1.97 kcal/mol
DOCKED: USER    (3) Torsional Free Energy           =  +2.09 kcal/mol
DOCKED: USER    (4) Unbound System's Energy         =  -1.97 kcal/mol
DOCKED: USER
DOCKED: USER
DOCKED: REMARK SMILES O=C([N-]/C=C(/O)N1CCCC[C@@H]1C1CCCC1)c1ccc2cc(F)ccc2n1
DOCKED: REMARK SMILES IDX 4 1 5 2 6 3 7 5 8 6 12 7 9 8 11 9 10 10 13 11 14 12 17 13
DOCKED: REMARK SMILES IDX 15 14 16 15 3 16 2 17 1 18 18 19 28 20 19 21 27 22 20 23
DOCKED: REMARK SMILES IDX 26 24 21 25 25 26 22 27 23 28 24 29
DOCKED: REMARK H PARENT 6 4
DOCKED: USER                              x       y       z     vdW  Elec       q    Type
DOCKED: USER                           _______ _______ _______ _____ _____    ______ ____
DOCKED: ROOT
DOCKED: ATOM      1  C   UNL     1     140.739  74.844 221.559 -0.30 +0.01    -0.069 C  
DOCKED: ENDROOT
DOCKED: BRANCH   1   2
DOCKED: ATOM      2  C   UNL     1     139.820  75.721 221.987 -0.27 -0.03    +0.164 C  
DOCKED: BRANCH   2   3
DOCKED: ATOM      3  O   UNL     1     138.565  75.262 222.390 -0.17 +0.14    -0.496 OA 
DOCKED: ATOM      4  H   UNL     1     138.423  74.324 222.746 -0.50 -0.15    +0.295 HD 
DOCKED: ENDBRANCH   2   3
DOCKED: BRANCH   2   5
DOCKED: ATOM      5  N   UNL     1     140.102  77.135 222.070 -0.17 +0.09    -0.342 N  
DOCKED: ATOM      6  C   UNL     1     139.109  78.002 222.744 -0.25 -0.02    +0.120 C  
DOCKED: ATOM      7  C   UNL     1     141.434  77.588 221.599 -0.23 -0.05    +0.088 C  
DOCKED: ATOM      8  C   UNL     1     139.679  79.313 223.319 -0.40 -0.00    +0.022 C  
DOCKED: ATOM      9  C   UNL     1     141.791  79.014 222.075 -0.47 -0.01    +0.025 C  
DOCKED: ATOM     10  C   UNL     1     141.192  79.295 223.442 -0.57 -0.00    +0.004 C  
DOCKED: BRANCH   7  11
DOCKED: ATOM     11  C   UNL     1     141.538  77.401 220.056 -0.27 -0.01    +0.012 C  
DOCKED: ATOM     12  C   UNL     1     142.770  76.625 219.581 -0.36 -0.00    +0.006 C  
DOCKED: ATOM     13  C   UNL     1     141.520  78.712 219.252 -0.25 -0.00    +0.006 C  
DOCKED: ATOM     14  C   UNL     1     142.990  77.096 218.157 -0.31 -0.00    +0.000 C  
DOCKED: ATOM     15  C   UNL     1     142.572  78.560 218.155 -0.33 -0.00    +0.000 C  
DOCKED: ENDBRANCH   7  11
DOCKED: ENDBRANCH   2   5
DOCKED: ENDBRANCH   1   2
DOCKED: BRANCH   1  16
DOCKED: ATOM     16  N   UNL     1     140.880  73.558 222.170 -0.38 -0.02    -0.623 NA 
DOCKED: BRANCH  16  17
DOCKED: ATOM     17  C   UNL     1     139.827  72.603 222.352 -0.26 -0.02    +0.104 C  
DOCKED: ATOM     18  O   UNL     1     138.839  72.646 221.571 -0.10 +0.07    -0.313 OA 
DOCKED: BRANCH  17  19
DOCKED: ATOM     19  C   UNL     1     139.841  71.607 223.450 -0.33 -0.02    +0.089 A  
DOCKED: ATOM     20  N   UNL     1     140.423  71.913 224.642 -0.24 +0.04    -0.246 NA 
DOCKED: ATOM     21  C   UNL     1     139.217  70.355 223.291 -0.26 -0.01    +0.031 A  
DOCKED: ATOM     22  C   UNL     1     140.440  71.045 225.687 -0.52 -0.01    +0.071 A  
DOCKED: ATOM     23  C   UNL     1     139.211  69.444 224.350 -0.33 -0.00    +0.013 A  
DOCKED: ATOM     24  C   UNL     1     141.066  71.403 226.887 -0.70 -0.01    +0.032 A  
DOCKED: ATOM     25  C   UNL     1     139.822  69.781 225.564 -0.45 -0.00    +0.003 A  
DOCKED: ATOM     26  C   UNL     1     141.072  70.513 227.965 -0.61 -0.01    +0.041 A  
DOCKED: ATOM     27  C   UNL     1     139.821  68.898 226.655 -0.53 -0.01    +0.049 A  
DOCKED: ATOM     28  C   UNL     1     140.446  69.267 227.852 -0.52 -0.02    +0.123 A  
DOCKED: ATOM     29  F   UNL     1     140.443  68.416 228.910 -0.18 +0.05    -0.207 F  
DOCKED: ENDBRANCH  17  19
DOCKED: ENDBRANCH  16  17
DOCKED: ENDBRANCH   1  16
DOCKED: TORSDOF 7
DOCKED: TER
DOCKED: ENDMDL
________________________________________________________________________________


    FINAL DOCKED STATE:
    ________________________


Run:   19 / 20
Time taken for this run:   0.049s

DOCKED: MODEL        19
DOCKED: USER    Run = 19
DOCKED: USER
DOCKED: USER    Estimated Free Energy of Binding    =  -8.08 kcal/mol  [=(1)+(2)+(3)-(4)]
DOCKED: USER
DOCKED: USER    (1) Final Intermolecular Energy     = -10.17 kcal/mol
DOCKED: USER        vdW + Hbond + desolv Energy     = -10.31 kcal/mol
DOCKED: USER        Electrostatic Energy            =  +0.14 kcal/mol
DOCKED: USER        Moving Ligand-Fixed Receptor    = -10.17 kcal/mol
DOCKED: USER        Moving Ligand-Moving Receptor   =  +0.00 kcal/mol
DOCKED: USER    (2) Final Total Internal Energy     =  -2.15 kcal/mol
DOCKED: USER    (3) Torsional Free Energy           =  +2.09 kcal/mol
DOCKED: USER    (4) Unbound System's Energy         =  -2.15 kcal/mol
DOCKED: USER
DOCKED: USER
DOCKED: REMARK SMILES O=C([N-]/C=C(/O)N1CCCC[C@@H]1C1CCCC1)c1ccc2cc(F)ccc2n1
DOCKED: REMARK SMILES IDX 4 1 5 2 6 3 7 5 8 6 12 7 9 8 11 9 10 10 13 11 14 12 17 13
DOCKED: REMARK SMILES IDX 15 14 16 15 3 16 2 17 1 18 18 19 28 20 19 21 27 22 20 23
DOCKED: REMARK SMILES IDX 26 24 21 25 25 26 22 27 23 28 24 29
DOCKED: REMARK H PARENT 6 4
DOCKED: USER                              x       y       z     vdW  Elec       q    Type
DOCKED: USER                           _______ _______ _______ _____ _____    ______ ____
DOCKED: ROOT
DOCKED: ATOM      1  C   UNL     1     141.001  73.274 221.555 -0.26 +0.01    -0.069 C  
DOCKED: ENDROOT
DOCKED: BRANCH   1   2
DOCKED: ATOM      2  C   UNL     1     140.670  74.570 221.634 -0.23 -0.02    +0.164 C  
DOCKED: BRANCH   2   3
DOCKED: ATOM      3  O   UNL     1     139.528  74.947 222.345 -0.58 +0.07    -0.496 OA 
DOCKED: ATOM      4  H   UNL     1     138.904  74.267 222.763 -0.49 -0.12    +0.295 HD 
DOCKED: ENDBRANCH   2   3
DOCKED: BRANCH   2   5
DOCKED: ATOM      5  N   UNL     1     141.479  75.599 221.024 -0.15 +0.13    -0.342 N  
DOCKED: ATOM      6  C   UNL     1     142.773  75.201 220.426 -0.20 -0.06    +0.120 C  
DOCKED: ATOM      7  C   UNL     1     140.882  76.953 220.915 -0.25 -0.04    +0.088 C  
DOCKED: ATOM      8  C   UNL     1     143.293  76.140 219.322 -0.38 -0.01    +0.022 C  
DOCKED: ATOM      9  C   UNL     1     141.635  77.869 219.925 -0.27 -0.01    +0.025 C  
DOCKED: ATOM     10  C   UNL     1     142.217  77.062 218.776 -0.28 -0.00    +0.004 C  
DOCKED: BRANCH   7  11
DOCKED: ATOM     11  C   UNL     1     140.718  77.572 222.336 -0.43 -0.00    +0.012 C  
DOCKED: ATOM     12  C   UNL     1     139.370  78.250 222.593 -0.33 -0.00    +0.006 C  
DOCKED: ATOM     13  C   UNL     1     141.796  78.603 222.709 -0.47 -0.00    +0.006 C  
DOCKED: ATOM     14  C   UNL     1     139.655  79.259 223.688 -0.38 -0.00    +0.000 C  
DOCKED: ATOM     15  C   UNL     1     141.072  79.746 223.417 -0.55 -0.00    +0.000 C  
DOCKED: ENDBRANCH   7  11
DOCKED: ENDBRANCH   2   5
DOCKED: ENDBRANCH   1   2
DOCKED: BRANCH   1  16
DOCKED: ATOM     16  N   UNL     1     140.000  72.252 221.532 -0.02 +0.10    -0.623 NA 
DOCKED: BRANCH  16  17
DOCKED: ATOM     17  C   UNL     1     139.074  71.969 222.589 -0.21 -0.03    +0.104 C  
DOCKED: ATOM     18  O   UNL     1     137.977  72.590 222.605 -0.09 +0.11    -0.313 OA 
DOCKED: BRANCH  17  19
DOCKED: ATOM     19  C   UNL     1     139.384  71.016 223.681 -0.31 -0.02    +0.089 A  
DOCKED: ATOM     20  N   UNL     1     139.918  71.466 224.849 -0.28 +0.05    -0.246 NA 
DOCKED: ATOM     21  C   UNL     1     139.092  69.646 223.542 -0.25 -0.01    +0.031 A  
DOCKED: ATOM     22  C   UNL     1     140.196  70.638 225.889 -0.49 -0.01    +0.071 A  
DOCKED: ATOM     23  C   UNL     1     139.359  68.769 224.596 -0.34 -0.00    +0.013 A  
DOCKED: ATOM     24  C   UNL     1     140.760  71.150 227.064 -0.68 -0.01    +0.032 A  
DOCKED: ATOM     25  C   UNL     1     139.914  69.257 225.786 -0.47 -0.00    +0.003 A  
DOCKED: ATOM     26  C   UNL     1     141.035  70.297 228.137 -0.56 -0.01    +0.041 A  
DOCKED: ATOM     27  C   UNL     1     140.181  68.410 226.872 -0.60 -0.01    +0.049 A  
DOCKED: ATOM     28  C   UNL     1     140.741  68.932 228.045 -0.54 -0.03    +0.123 A  
DOCKED: ATOM     29  F   UNL     1     140.996  68.115 229.098 -0.18 +0.05    -0.207 F  
DOCKED: ENDBRANCH  17  19
DOCKED: ENDBRANCH  16  17
DOCKED: ENDBRANCH   1  16
DOCKED: TORSDOF 7
DOCKED: TER
DOCKED: ENDMDL
________________________________________________________________________________


    FINAL DOCKED STATE:
    ________________________


Run:   20 / 20
Time taken for this run:   0.049s

DOCKED: MODEL        20
DOCKED: USER    Run = 20
DOCKED: USER
DOCKED: USER    Estimated Free Energy of Binding    =  -8.07 kcal/mol  [=(1)+(2)+(3)-(4)]
DOCKED: USER
DOCKED: USER    (1) Final Intermolecular Energy     = -10.16 kcal/mol
DOCKED: USER        vdW + Hbond + desolv Energy     = -10.31 kcal/mol
DOCKED: USER        Electrostatic Energy            =  +0.15 kcal/mol
DOCKED: USER        Moving Ligand-Fixed Receptor    = -10.16 kcal/mol
DOCKED: USER        Moving Ligand-Moving Receptor   =  +0.00 kcal/mol
DOCKED: USER    (2) Final Total Internal Energy     =  -2.17 kcal/mol
DOCKED: USER    (3) Torsional Free Energy           =  +2.09 kcal/mol
DOCKED: USER    (4) Unbound System's Energy         =  -2.17 kcal/mol
DOCKED: USER
DOCKED: USER
DOCKED: REMARK SMILES O=C([N-]/C=C(/O)N1CCCC[C@@H]1C1CCCC1)c1ccc2cc(F)ccc2n1
DOCKED: REMARK SMILES IDX 4 1 5 2 6 3 7 5 8 6 12 7 9 8 11 9 10 10 13 11 14 12 17 13
DOCKED: REMARK SMILES IDX 15 14 16 15 3 16 2 17 1 18 18 19 28 20 19 21 27 22 20 23
DOCKED: REMARK SMILES IDX 26 24 21 25 25 26 22 27 23 28 24 29
DOCKED: REMARK H PARENT 6 4
DOCKED: USER                              x       y       z     vdW  Elec       q    Type
DOCKED: USER                           _______ _______ _______ _____ _____    ______ ____
DOCKED: ROOT
DOCKED: ATOM      1  C   UNL     1     141.042  73.304 221.511 -0.26 +0.01    -0.069 C  
DOCKED: ENDROOT
DOCKED: BRANCH   1   2
DOCKED: ATOM      2  C   UNL     1     140.717  74.600 221.616 -0.24 -0.02    +0.164 C  
DOCKED: BRANCH   2   3
DOCKED: ATOM      3  O   UNL     1     139.587  74.968 222.350 -0.59 +0.07    -0.496 OA 
DOCKED: ATOM      4  H   UNL     1     138.945  74.284 222.732 -0.49 -0.11    +0.295 HD 
DOCKED: ENDBRANCH   2   3
DOCKED: BRANCH   2   5
DOCKED: ATOM      5  N   UNL     1     141.520  75.636 221.011 -0.15 +0.13    -0.342 N  
DOCKED: ATOM      6  C   UNL     1     142.815  75.248 220.409 -0.19 -0.06    +0.120 C  
DOCKED: ATOM      7  C   UNL     1     140.916  76.988 220.912 -0.25 -0.04    +0.088 C  
DOCKED: ATOM      8  C   UNL     1     143.328  76.196 219.309 -0.39 -0.01    +0.022 C  
DOCKED: ATOM      9  C   UNL     1     141.664  77.913 219.926 -0.28 -0.01    +0.025 C  
DOCKED: ATOM     10  C   UNL     1     142.247  77.116 218.771 -0.29 -0.00    +0.004 C  
DOCKED: BRANCH   7  11
DOCKED: ATOM     11  C   UNL     1     140.753  77.597 222.337 -0.43 -0.00    +0.012 C  
DOCKED: ATOM     12  C   UNL     1     139.403  78.271 222.600 -0.33 -0.00    +0.006 C  
DOCKED: ATOM     13  C   UNL     1     141.829  78.627 222.717 -0.48 -0.00    +0.006 C  
DOCKED: ATOM     14  C   UNL     1     139.688  79.273 223.701 -0.38 -0.00    +0.000 C  
DOCKED: ATOM     15  C   UNL     1     141.104  79.765 223.433 -0.56 -0.00    +0.000 C  
DOCKED: ENDBRANCH   7  11
DOCKED: ENDBRANCH   2   5
DOCKED: ENDBRANCH   1   2
DOCKED: BRANCH   1  16
DOCKED: ATOM     16  N   UNL     1     140.042  72.281 221.542 -0.03 +0.10    -0.623 NA 
DOCKED: BRANCH  16  17
DOCKED: ATOM     17  C   UNL     1     139.128  72.044 222.621 -0.21 -0.03    +0.104 C  
DOCKED: ATOM     18  O   UNL     1     138.063  72.715 222.661 -0.05 +0.12    -0.313 OA 
DOCKED: BRANCH  17  19
DOCKED: ATOM     19  C   UNL     1     139.418  71.077 223.708 -0.32 -0.02    +0.089 A  
DOCKED: ATOM     20  N   UNL     1     139.989  71.505 224.867 -0.29 +0.05    -0.246 NA 
DOCKED: ATOM     21  C   UNL     1     139.070  69.721 223.572 -0.26 -0.01    +0.031 A  
DOCKED: ATOM     22  C   UNL     1     140.251  70.665 225.902 -0.50 -0.01    +0.071 A  
DOCKED: ATOM     23  C   UNL     1     139.319  68.833 224.622 -0.35 -0.00    +0.013 A  
DOCKED: ATOM     24  C   UNL     1     140.853  71.153 227.067 -0.68 -0.01    +0.032 A  
DOCKED: ATOM     25  C   UNL     1     139.913  69.297 225.802 -0.47 -0.00    +0.003 A  
DOCKED: ATOM     26  C   UNL     1     141.112  70.289 228.135 -0.54 -0.01    +0.041 A  
DOCKED: ATOM     27  C   UNL     1     140.164  68.439 226.884 -0.60 -0.01    +0.049 A  
DOCKED: ATOM     28  C   UNL     1     140.762  68.937 228.047 -0.53 -0.03    +0.123 A  
DOCKED: ATOM     29  F   UNL     1     141.002  68.109 229.096 -0.18 +0.05    -0.207 F  
DOCKED: ENDBRANCH  17  19
DOCKED: ENDBRANCH  16  17
DOCKED: ENDBRANCH   1  16
DOCKED: TORSDOF 7
DOCKED: TER
DOCKED: ENDMDL
________________________________________________________________________________


    CLUSTERING HISTOGRAM
    ____________________


________________________________________________________________________________
     |           |     |           |     |
Clus | Lowest    | Run | Mean      | Num | Histogram
-ter | Binding   |     | Binding   | in  |
Rank | Energy    |     | Energy    | Clus|    5    10   15   20   25   30   35
_____|___________|_____|___________|_____|____:____|____:____|____:____|____:___
   1 |     -8.44 |   4 |     -7.97 |  18 |##################
   2 |     -7.44 |  16 |     -7.44 |   1 |#
   3 |     -7.34 |   3 |     -7.34 |   1 |#
_____|___________|_____|___________|_____|______________________________________


    RMSD TABLE
    __________


_______________________________________________________________________
     |      |      |           |         |                 |
Rank | Sub- | Run  | Binding   | Cluster | Reference       | Grep
     | Rank |      | Energy    | RMSD    | RMSD            | Pattern
_____|______|______|___________|_________|_________________|___________
   1      1      4       -8.44      0.00    273.52           RANKING
   1      2      6       -8.38      0.75    273.49           RANKING
   1      3     11       -8.35      0.66    273.54           RANKING
   1      4      5       -8.32      0.74    273.48           RANKING
   1      5     10       -8.31      0.55    273.68           RANKING
   1      6      1       -8.22      1.56    273.62           RANKING
   1      7     17       -8.20      1.56    273.63           RANKING
   1      8      7       -8.20      1.56    273.65           RANKING
   1      9     18       -8.19      0.94    273.24           RANKING
   1     10     19       -8.08      1.01    273.28           RANKING
   1     11     20       -8.07      0.99    273.32           RANKING
   1     12     12       -8.04      1.09    273.27           RANKING
   1     13      8       -8.01      1.35    273.22           RANKING
   1     14      9       -8.00      1.28    273.18           RANKING
   1     15     13       -7.43      1.15    273.15           RANKING
   1     16     14       -7.20      1.66    273.44           RANKING
   1     17      2       -7.11      1.21    273.34           RANKING
   1     18     15       -6.95      1.72    273.22           RANKING
   2      1     16       -7.44      0.00    272.95           RANKING
   3      1      3       -7.34      0.00    272.53           RANKING

Run time 0.950 sec
Idle time 0.000 sec
