AutoDock-GPU version: v1.6

**********************************************************
**    AutoDock-GPU AUTODOCKTOOLS-COMPATIBLE DLG FILE    **
**********************************************************


    DOCKING PARAMETERS
    ________________________


Ligand file:                               /home/a/REINVENT4/ReinventStudies/pleaseWork/justmol2mol_4_Compounds_ontop/graph-dock-8u2o5u/graph-DockGPU/node-autodockgpu/inputs/PINCVXRSENSLEC-KLFDUCQCNA-N.pdbqt
Grid fld file:                             /home/a/REINVENT4/ReinventStudies/mols/Rad51/maps/rad51_receptor.maps.fld

Random seed:                               42
Number of runs:                            20
Number of energy evaluations:              1132076
Number of generations:                     42000
Size of population:                        150
Rate of crossover:                         80.000000%
Tournament selection probability limit:    60.000000%
Rate of mutation:                          2.000000%
Maximal allowed delta movement:            +/- 6.000000A
Maximal allowed delta angle:               +/- 90.000000

Rate of local search:                      100.000000%
Maximal number of local search iterations: 300
Rho lower bound:                           0.010000
Spread of local search delta movement:     2.000000A
Spread of local search delta angle:        74.999999
Limit of consecutive successes/failures:   4

Handle symmetry during clustering:         YES
RMSD tolerance:                            2.000000A

Program call in command line was:          /home/a/REINVENT4/ReinventStudies/adgpu-v1.6_linux_x64_cuda12_128wi --filelist batch.txt --heuristics 1 --nrun 20 --psize 150 --lsit 300 --seed 42 --heurmax 12000000 


    GRID PARAMETERS
    ________________________


Receptor name:                             rad51_receptor
Number of grid points (x, y, z):           53, 53, 53
Grid center (x, y, z):                     139.950000, 75.640000, 221.970000A
Grid size (x, y, z):                       19.500000, 19.500000, 19.500000A
Grid spacing:                              0.375000A


    LIGAND PARAMETERS
    ________________________


Ligand name:                               /home/a/REINVENT4/ReinventStudies/pleaseWork/justmol2mol_4_Compounds_ontop/graph-dock-8u2o5u/graph-DockGPU/node-autodockgpu/inputs/PINCVXRSENSLEC-KLFDUCQCNA-N
Number of atoms:                           30
Number of rotatable bonds:                 5
Number of atom types:                      7


    DUMMY DATA (only for ADT-compatibility)
    ________________________


DPF> outlev 1
DPF> ga_run 20
DPF> fld /home/a/REINVENT4/ReinventStudies/mols/Rad51/maps/rad51_receptor.maps.fld
DPF> move /home/a/REINVENT4/ReinventStudies/pleaseWork/justmol2mol_4_Compounds_ontop/graph-dock-8u2o5u/graph-DockGPU/node-autodockgpu/inputs/PINCVXRSENSLEC-KLFDUCQCNA-N.pdbqt


    COUNTER STATES
    ________________________


Number of energy evaluations performed:    1137828
Number of generations used:                60


    INPUT LIGAND PDBQT FILE:
    ________________________


INPUT-LIGAND-PDBQT: REMARK SMILES O=C(NCC(=O)N1CCC[C@@H]1c1ccc(Cl)cc1)c1ccc2cc(Cl)ccc2n1
INPUT-LIGAND-PDBQT: REMARK SMILES IDX 4 1 3 2 2 3 1 4 19 6 20 7 29 8 21 9 28 10 22 11 27 12 23 13
INPUT-LIGAND-PDBQT: REMARK SMILES IDX 26 14 24 15 25 16 5 17 6 18 7 19 8 20 11 21 9 22 10 23 12 24
INPUT-LIGAND-PDBQT: REMARK SMILES IDX 13 25 18 26 14 27 17 28 15 29 16 30
INPUT-LIGAND-PDBQT: REMARK H PARENT 3 5
INPUT-LIGAND-PDBQT: ROOT
INPUT-LIGAND-PDBQT: ATOM      1  C   UNL     1      -1.895  -0.049  -1.043  1.00  0.00     0.216 C 
INPUT-LIGAND-PDBQT: ENDROOT
INPUT-LIGAND-PDBQT: BRANCH   1   2
INPUT-LIGAND-PDBQT: ATOM      2  N   UNL     1      -1.094   1.155  -0.832  1.00  0.00    -0.342 N 
INPUT-LIGAND-PDBQT: ATOM      3  C   UNL     1      -0.049   1.538  -1.736  1.00  0.00     0.270 C 
INPUT-LIGAND-PDBQT: ATOM      4  O   UNL     1      -0.161   1.285  -2.967  1.00  0.00    -0.268 OA
INPUT-LIGAND-PDBQT: ATOM      5  H   UNL     1      -1.219   1.683   0.060  1.00  0.00     0.164 HD
INPUT-LIGAND-PDBQT: BRANCH   3   6
INPUT-LIGAND-PDBQT: ATOM      6  C   UNL     1       1.174   2.182  -1.219  1.00  0.00     0.128 A 
INPUT-LIGAND-PDBQT: ATOM      7  C   UNL     1       2.187   2.625  -2.085  1.00  0.00     0.035 A 
INPUT-LIGAND-PDBQT: ATOM      8  N   UNL     1       1.346   2.300   0.128  1.00  0.00    -0.243 NA
INPUT-LIGAND-PDBQT: ATOM      9  C   UNL     1       3.356   3.177  -1.558  1.00  0.00     0.013 A 
INPUT-LIGAND-PDBQT: ATOM     10  C   UNL     1       2.474   2.829   0.669  1.00  0.00     0.071 A 
INPUT-LIGAND-PDBQT: ATOM     11  C   UNL     1       3.516   3.278  -0.171  1.00  0.00     0.002 A 
INPUT-LIGAND-PDBQT: ATOM     12  C   UNL     1       2.605   2.925   2.060  1.00  0.00     0.030 A 
INPUT-LIGAND-PDBQT: ATOM     13  C   UNL     1       4.682   3.815   0.394  1.00  0.00     0.030 A 
INPUT-LIGAND-PDBQT: ATOM     14  C   UNL     1       3.772   3.458   2.615  1.00  0.00     0.023 A 
INPUT-LIGAND-PDBQT: ATOM     15  C   UNL     1       4.810   3.902   1.785  1.00  0.00     0.041 A 
INPUT-LIGAND-PDBQT: ATOM     16  Cl  UNL     1       6.271   4.565   2.494  1.00  0.00    -0.084 Cl
INPUT-LIGAND-PDBQT: ENDBRANCH   3   6
INPUT-LIGAND-PDBQT: ENDBRANCH   1   2
INPUT-LIGAND-PDBQT: BRANCH   1  17
INPUT-LIGAND-PDBQT: ATOM     17  C   UNL     1      -1.010  -1.260  -1.165  1.00  0.00     0.242 C 
INPUT-LIGAND-PDBQT: ATOM     18  O   UNL     1      -1.043  -1.926  -2.235  1.00  0.00    -0.273 OA
INPUT-LIGAND-PDBQT: BRANCH  17  19
INPUT-LIGAND-PDBQT: ATOM     19  N   UNL     1      -0.111  -1.658  -0.111  1.00  0.00    -0.334 N 
INPUT-LIGAND-PDBQT: ATOM     20  C   UNL     1       0.939  -2.641  -0.323  1.00  0.00     0.120 C 
INPUT-LIGAND-PDBQT: ATOM     21  C   UNL     1      -0.104  -1.109   1.242  1.00  0.00     0.115 C 
INPUT-LIGAND-PDBQT: ATOM     22  C   UNL     1       1.615  -2.835   1.028  1.00  0.00     0.024 C 
INPUT-LIGAND-PDBQT: ATOM     23  C   UNL     1       1.155  -1.672   1.905  1.00  0.00     0.032 C 
INPUT-LIGAND-PDBQT: BRANCH  21  24
INPUT-LIGAND-PDBQT: ATOM     24  C   UNL     1      -1.357  -1.504   1.996  1.00  0.00    -0.025 A 
INPUT-LIGAND-PDBQT: ATOM     25  C   UNL     1      -2.033  -0.551   2.777  1.00  0.00     0.007 A 
INPUT-LIGAND-PDBQT: ATOM     26  C   UNL     1      -1.840  -2.824   1.960  1.00  0.00     0.007 A 
INPUT-LIGAND-PDBQT: ATOM     27  C   UNL     1      -3.185  -0.905   3.487  1.00  0.00     0.021 A 
INPUT-LIGAND-PDBQT: ATOM     28  C   UNL     1      -2.994  -3.173   2.665  1.00  0.00     0.021 A 
INPUT-LIGAND-PDBQT: ATOM     29  C   UNL     1      -3.670  -2.215   3.427  1.00  0.00     0.041 A 
INPUT-LIGAND-PDBQT: ATOM     30  Cl  UNL     1      -5.118  -2.654   4.312  1.00  0.00    -0.084 Cl
INPUT-LIGAND-PDBQT: ENDBRANCH  21  24
INPUT-LIGAND-PDBQT: ENDBRANCH  17  19
INPUT-LIGAND-PDBQT: ENDBRANCH   1  17
INPUT-LIGAND-PDBQT: TORSDOF 5


    FINAL DOCKED STATE:
    ________________________


Run:   1 / 20
Time taken for this run:   0.045s

DOCKED: MODEL        1
DOCKED: USER    Run = 1
DOCKED: USER
DOCKED: USER    Estimated Free Energy of Binding    =  -8.32 kcal/mol  [=(1)+(2)+(3)-(4)]
DOCKED: USER
DOCKED: USER    (1) Final Intermolecular Energy     =  -9.81 kcal/mol
DOCKED: USER        vdW + Hbond + desolv Energy     =  -9.78 kcal/mol
DOCKED: USER        Electrostatic Energy            =  -0.02 kcal/mol
DOCKED: USER        Moving Ligand-Fixed Receptor    =  -9.81 kcal/mol
DOCKED: USER        Moving Ligand-Moving Receptor   =  +0.00 kcal/mol
DOCKED: USER    (2) Final Total Internal Energy     =  -1.94 kcal/mol
DOCKED: USER    (3) Torsional Free Energy           =  +1.49 kcal/mol
DOCKED: USER    (4) Unbound System's Energy         =  -1.94 kcal/mol
DOCKED: USER
DOCKED: USER
DOCKED: REMARK SMILES O=C(NCC(=O)N1CCC[C@@H]1c1ccc(Cl)cc1)c1ccc2cc(Cl)ccc2n1
DOCKED: REMARK SMILES IDX 4 1 3 2 2 3 1 4 19 6 20 7 29 8 21 9 28 10 22 11 27 12 23 13
DOCKED: REMARK SMILES IDX 26 14 24 15 25 16 5 17 6 18 7 19 8 20 11 21 9 22 10 23 12 24
DOCKED: REMARK SMILES IDX 13 25 18 26 14 27 17 28 15 29 16 30
DOCKED: REMARK H PARENT 3 5
DOCKED: USER                              x       y       z     vdW  Elec       q    Type
DOCKED: USER                           _______ _______ _______ _____ _____    ______ ____
DOCKED: ROOT
DOCKED: ATOM      1  C   UNL     1     136.218  72.411 222.692 -0.10 -0.05    +0.216 C  
DOCKED: ENDROOT
DOCKED: BRANCH   1   2
DOCKED: ATOM      2  N   UNL     1     136.687  73.795 222.705 -0.04 +0.12    -0.342 N  
DOCKED: ATOM      3  C   UNL     1     137.417  74.358 221.607 -0.09 -0.07    +0.270 C  
DOCKED: ATOM      4  O   UNL     1     137.166  73.981 220.429 -0.02 +0.05    -0.268 OA 
DOCKED: ATOM      5  H   UNL     1     136.581  74.346 223.585 -0.38 -0.08    +0.164 HD 
DOCKED: BRANCH   3   6
DOCKED: ATOM      6  C   UNL     1     138.490  75.338 221.860 -0.21 -0.03    +0.128 A  
DOCKED: ATOM      7  C   UNL     1     139.841  75.012 221.653 -0.29 -0.01    +0.035 A  
DOCKED: ATOM      8  N   UNL     1     138.167  76.567 222.355 -0.18 +0.05    -0.243 NA 
DOCKED: ATOM      9  C   UNL     1     140.833  75.945 221.958 -0.38 -0.00    +0.013 A  
DOCKED: ATOM     10  C   UNL     1     139.112  77.492 222.664 -0.27 -0.01    +0.071 A  
DOCKED: ATOM     11  C   UNL     1     140.479  77.196 222.476 -0.41 -0.00    +0.002 A  
DOCKED: ATOM     12  C   UNL     1     138.729  78.739 223.175 -0.28 -0.00    +0.030 A  
DOCKED: ATOM     13  C   UNL     1     141.450  78.153 222.806 -0.47 -0.01    +0.030 A  
DOCKED: ATOM     14  C   UNL     1     139.704  79.686 223.505 -0.42 -0.00    +0.023 A  
DOCKED: ATOM     15  C   UNL     1     141.062  79.395 223.322 -0.50 -0.01    +0.041 A  
DOCKED: ATOM     16  Cl  UNL     1     142.275  80.589 223.744 -0.79 +0.02    -0.084 Cl 
DOCKED: ENDBRANCH   3   6
DOCKED: ENDBRANCH   1   2
DOCKED: BRANCH   1  17
DOCKED: ATOM     17  C   UNL     1     137.252  71.495 223.290 -0.13 -0.06    +0.242 C  
DOCKED: ATOM     18  O   UNL     1     136.919  70.764 224.262 -0.15 +0.04    -0.273 OA 
DOCKED: BRANCH  17  19
DOCKED: ATOM     19  N   UNL     1     138.592  71.410 222.766 -0.10 +0.08    -0.334 N  
DOCKED: ATOM     20  C   UNL     1     138.868  70.897 221.434 -0.10 -0.02    +0.120 C  
DOCKED: ATOM     21  C   UNL     1     139.796  71.859 223.458 -0.27 -0.02    +0.115 C  
DOCKED: ATOM     22  C   UNL     1     140.383  70.905 221.284 -0.14 -0.00    +0.024 C  
DOCKED: ATOM     23  C   UNL     1     140.919  71.773 222.421 -0.21 -0.00    +0.032 C  
DOCKED: BRANCH  21  24
DOCKED: ATOM     24  C   UNL     1     140.084  70.994 224.667 -0.46 +0.00    -0.025 A  
DOCKED: ATOM     25  C   UNL     1     140.725  71.549 225.788 -0.60 -0.00    +0.007 A  
DOCKED: ATOM     26  C   UNL     1     139.755  69.627 224.676 -0.36 -0.00    +0.007 A  
DOCKED: ATOM     27  C   UNL     1     141.006  70.758 226.907 -0.62 -0.00    +0.021 A  
DOCKED: ATOM     28  C   UNL     1     140.032  68.841 225.797 -0.49 -0.00    +0.021 A  
DOCKED: ATOM     29  C   UNL     1     140.655  69.405 226.915 -0.55 -0.01    +0.041 A  
DOCKED: ATOM     30  Cl  UNL     1     141.003  68.419 228.322 -0.77 +0.02    -0.084 Cl 
DOCKED: ENDBRANCH  21  24
DOCKED: ENDBRANCH  17  19
DOCKED: ENDBRANCH   1  17
DOCKED: TORSDOF 5
DOCKED: TER
DOCKED: ENDMDL
________________________________________________________________________________


    FINAL DOCKED STATE:
    ________________________


Run:   2 / 20
Time taken for this run:   0.045s

DOCKED: MODEL        2
DOCKED: USER    Run = 2
DOCKED: USER
DOCKED: USER    Estimated Free Energy of Binding    =  -8.27 kcal/mol  [=(1)+(2)+(3)-(4)]
DOCKED: USER
DOCKED: USER    (1) Final Intermolecular Energy     =  -9.76 kcal/mol
DOCKED: USER        vdW + Hbond + desolv Energy     =  -9.77 kcal/mol
DOCKED: USER        Electrostatic Energy            =  +0.01 kcal/mol
DOCKED: USER        Moving Ligand-Fixed Receptor    =  -9.76 kcal/mol
DOCKED: USER        Moving Ligand-Moving Receptor   =  +0.00 kcal/mol
DOCKED: USER    (2) Final Total Internal Energy     =  -1.62 kcal/mol
DOCKED: USER    (3) Torsional Free Energy           =  +1.49 kcal/mol
DOCKED: USER    (4) Unbound System's Energy         =  -1.62 kcal/mol
DOCKED: USER
DOCKED: USER
DOCKED: REMARK SMILES O=C(NCC(=O)N1CCC[C@@H]1c1ccc(Cl)cc1)c1ccc2cc(Cl)ccc2n1
DOCKED: REMARK SMILES IDX 4 1 3 2 2 3 1 4 19 6 20 7 29 8 21 9 28 10 22 11 27 12 23 13
DOCKED: REMARK SMILES IDX 26 14 24 15 25 16 5 17 6 18 7 19 8 20 11 21 9 22 10 23 12 24
DOCKED: REMARK SMILES IDX 13 25 18 26 14 27 17 28 15 29 16 30
DOCKED: REMARK H PARENT 3 5
DOCKED: USER                              x       y       z     vdW  Elec       q    Type
DOCKED: USER                           _______ _______ _______ _____ _____    ______ ____
DOCKED: ROOT
DOCKED: ATOM      1  C   UNL     1     138.583  75.125 221.237 -0.13 -0.05    +0.216 C  
DOCKED: ENDROOT
DOCKED: BRANCH   1   2
DOCKED: ATOM      2  N   UNL     1     139.365  74.302 222.158 -0.12 +0.07    -0.342 N  
DOCKED: ATOM      3  C   UNL     1     139.725  72.950 221.846 -0.18 -0.05    +0.270 C  
DOCKED: ATOM      4  O   UNL     1     139.951  72.621 220.649 -0.07 +0.05    -0.268 OA 
DOCKED: ATOM      5  H   UNL     1     139.568  74.680 223.110 -0.50 -0.01    +0.164 HD 
DOCKED: BRANCH   3   6
DOCKED: ATOM      6  C   UNL     1     139.782  71.936 222.918 -0.28 -0.02    +0.128 A  
DOCKED: ATOM      7  C   UNL     1     139.186  70.674 222.761 -0.23 -0.01    +0.035 A  
DOCKED: ATOM      8  N   UNL     1     140.378  72.252 224.102 -0.16 +0.04    -0.243 NA 
DOCKED: ATOM      9  C   UNL     1     139.209  69.762 223.817 -0.29 -0.00    +0.013 A  
DOCKED: ATOM     10  C   UNL     1     140.412  71.386 225.148 -0.48 -0.01    +0.071 A  
DOCKED: ATOM     11  C   UNL     1     139.817  70.112 225.028 -0.43 -0.00    +0.002 A  
DOCKED: ATOM     12  C   UNL     1     141.034  71.759 226.346 -0.67 -0.00    +0.030 A  
DOCKED: ATOM     13  C   UNL     1     139.848  69.225 226.115 -0.48 -0.00    +0.030 A  
DOCKED: ATOM     14  C   UNL     1     141.057  70.871 227.425 -0.66 -0.00    +0.023 A  
DOCKED: ATOM     15  C   UNL     1     140.464  69.606 227.312 -0.56 -0.01    +0.041 A  
DOCKED: ATOM     16  Cl  UNL     1     140.496  68.503 228.675 -0.70 +0.02    -0.084 Cl 
DOCKED: ENDBRANCH   3   6
DOCKED: ENDBRANCH   1   2
DOCKED: BRANCH   1  17
DOCKED: ATOM     17  C   UNL     1     138.229  76.442 221.873 -0.17 -0.05    +0.242 C  
DOCKED: ATOM     18  O   UNL     1     137.011  76.730 222.026 -0.11 +0.05    -0.273 OA 
DOCKED: BRANCH  17  19
DOCKED: ATOM     19  N   UNL     1     139.237  77.362 222.336 -0.15 +0.07    -0.334 N  
DOCKED: ATOM     20  C   UNL     1     138.909  78.707 222.778 -0.26 -0.02    +0.120 C  
DOCKED: ATOM     21  C   UNL     1     140.659  77.057 222.466 -0.34 -0.04    +0.115 C  
DOCKED: ATOM     22  C   UNL     1     140.235  79.376 223.117 -0.43 -0.00    +0.024 C  
DOCKED: ATOM     23  C   UNL     1     141.268  78.254 223.200 -0.48 -0.01    +0.032 C  
DOCKED: BRANCH  21  24
DOCKED: ATOM     24  C   UNL     1     141.298  76.850 221.108 -0.29 +0.01    -0.025 A  
DOCKED: ATOM     25  C   UNL     1     141.843  75.599 220.774 -0.28 -0.00    +0.007 A  
DOCKED: ATOM     26  C   UNL     1     141.390  77.904 220.181 -0.27 -0.00    +0.007 A  
DOCKED: ATOM     27  C   UNL     1     142.445  75.397 219.528 -0.27 -0.01    +0.021 A  
DOCKED: ATOM     28  C   UNL     1     141.986  77.698 218.935 -0.26 -0.01    +0.021 A  
DOCKED: ATOM     29  C   UNL     1     142.512  76.445 218.605 -0.26 -0.02    +0.041 A  
DOCKED: ATOM     30  Cl  UNL     1     143.261  76.188 217.041 -0.29 +0.05    -0.084 Cl 
DOCKED: ENDBRANCH  21  24
DOCKED: ENDBRANCH  17  19
DOCKED: ENDBRANCH   1  17
DOCKED: TORSDOF 5
DOCKED: TER
DOCKED: ENDMDL
________________________________________________________________________________


    FINAL DOCKED STATE:
    ________________________


Run:   3 / 20
Time taken for this run:   0.045s

DOCKED: MODEL        3
DOCKED: USER    Run = 3
DOCKED: USER
DOCKED: USER    Estimated Free Energy of Binding    =  -8.12 kcal/mol  [=(1)+(2)+(3)-(4)]
DOCKED: USER
DOCKED: USER    (1) Final Intermolecular Energy     =  -9.61 kcal/mol
DOCKED: USER        vdW + Hbond + desolv Energy     =  -9.57 kcal/mol
DOCKED: USER        Electrostatic Energy            =  -0.04 kcal/mol
DOCKED: USER        Moving Ligand-Fixed Receptor    =  -9.61 kcal/mol
DOCKED: USER        Moving Ligand-Moving Receptor   =  +0.00 kcal/mol
DOCKED: USER    (2) Final Total Internal Energy     =  -1.62 kcal/mol
DOCKED: USER    (3) Torsional Free Energy           =  +1.49 kcal/mol
DOCKED: USER    (4) Unbound System's Energy         =  -1.62 kcal/mol
DOCKED: USER
DOCKED: USER
DOCKED: REMARK SMILES O=C(NCC(=O)N1CCC[C@@H]1c1ccc(Cl)cc1)c1ccc2cc(Cl)ccc2n1
DOCKED: REMARK SMILES IDX 4 1 3 2 2 3 1 4 19 6 20 7 29 8 21 9 28 10 22 11 27 12 23 13
DOCKED: REMARK SMILES IDX 26 14 24 15 25 16 5 17 6 18 7 19 8 20 11 21 9 22 10 23 12 24
DOCKED: REMARK SMILES IDX 13 25 18 26 14 27 17 28 15 29 16 30
DOCKED: REMARK H PARENT 3 5
DOCKED: USER                              x       y       z     vdW  Elec       q    Type
DOCKED: USER                           _______ _______ _______ _____ _____    ______ ____
DOCKED: ROOT
DOCKED: ATOM      1  C   UNL     1     140.239  73.130 219.605 -0.04 -0.04    +0.216 C  
DOCKED: ENDROOT
DOCKED: BRANCH   1   2
DOCKED: ATOM      2  N   UNL     1     139.651  72.296 220.651 -0.03 +0.06    -0.342 N  
DOCKED: ATOM      3  C   UNL     1     139.684  72.678 222.032 -0.18 -0.05    +0.270 C  
DOCKED: ATOM      4  O   UNL     1     139.624  73.898 222.347 -0.81 +0.04    -0.268 OA 
DOCKED: ATOM      5  H   UNL     1     139.299  71.348 220.389 +0.03 -0.03    +0.164 HD 
DOCKED: BRANCH   3   6
DOCKED: ATOM      6  C   UNL     1     139.836  71.648 223.079 -0.29 -0.02    +0.128 A  
DOCKED: ATOM      7  C   UNL     1     139.422  70.324 222.864 -0.22 -0.01    +0.035 A  
DOCKED: ATOM      8  N   UNL     1     140.339  72.004 224.294 -0.22 +0.04    -0.243 NA 
DOCKED: ATOM      9  C   UNL     1     139.527  69.390 223.897 -0.25 -0.00    +0.013 A  
DOCKED: ATOM     10  C   UNL     1     140.450  71.118 225.318 -0.50 -0.01    +0.071 A  
DOCKED: ATOM     11  C   UNL     1     140.037  69.780 225.141 -0.42 -0.00    +0.002 A  
DOCKED: ATOM     12  C   UNL     1     140.970  71.533 226.550 -0.69 -0.00    +0.030 A  
DOCKED: ATOM     13  C   UNL     1     140.145  68.872 226.204 -0.52 -0.01    +0.030 A  
DOCKED: ATOM     14  C   UNL     1     141.071  70.623 227.606 -0.63 -0.00    +0.023 A  
DOCKED: ATOM     15  C   UNL     1     140.659  69.294 227.436 -0.58 -0.01    +0.041 A  
DOCKED: ATOM     16  Cl  UNL     1     140.787  68.163 228.770 -0.61 +0.02    -0.084 Cl 
DOCKED: ENDBRANCH   3   6
DOCKED: ENDBRANCH   1   2
DOCKED: BRANCH   1  17
DOCKED: ATOM     17  C   UNL     1     141.571  72.579 219.172 -0.03 -0.04    +0.242 C  
DOCKED: ATOM     18  O   UNL     1     141.601  71.755 218.218 -0.01 +0.05    -0.273 OA 
DOCKED: BRANCH  17  19
DOCKED: ATOM     19  N   UNL     1     142.805  72.987 219.795 -0.06 +0.06    -0.334 N  
DOCKED: ATOM     20  C   UNL     1     143.523  72.127 220.721 -0.24 -0.02    +0.120 C  
DOCKED: ATOM     21  C   UNL     1     143.496  74.249 219.546 -0.27 -0.04    +0.115 C  
DOCKED: ATOM     22  C   UNL     1     144.721  72.934 221.205 -0.33 -0.01    +0.024 C  
DOCKED: ATOM     23  C   UNL     1     144.848  74.120 220.251 -0.48 -0.01    +0.032 C  
DOCKED: BRANCH  21  24
DOCKED: ATOM     24  C   UNL     1     142.698  75.421 220.080 -0.32 +0.01    -0.025 A  
DOCKED: ATOM     25  C   UNL     1     141.854  75.244 221.190 -0.25 -0.00    +0.007 A  
DOCKED: ATOM     26  C   UNL     1     142.756  76.681 219.460 -0.36 -0.00    +0.007 A  
DOCKED: ATOM     27  C   UNL     1     141.103  76.315 221.687 -0.34 -0.01    +0.021 A  
DOCKED: ATOM     28  C   UNL     1     142.010  77.750 219.962 -0.29 -0.01    +0.021 A  
DOCKED: ATOM     29  C   UNL     1     141.185  77.570 221.076 -0.30 -0.02    +0.041 A  
DOCKED: ATOM     30  Cl  UNL     1     140.248  78.912 221.705 -0.34 +0.02    -0.084 Cl 
DOCKED: ENDBRANCH  21  24
DOCKED: ENDBRANCH  17  19
DOCKED: ENDBRANCH   1  17
DOCKED: TORSDOF 5
DOCKED: TER
DOCKED: ENDMDL
________________________________________________________________________________


    FINAL DOCKED STATE:
    ________________________


Run:   4 / 20
Time taken for this run:   0.045s

DOCKED: MODEL        4
DOCKED: USER    Run = 4
DOCKED: USER
DOCKED: USER    Estimated Free Energy of Binding    =  -6.86 kcal/mol  [=(1)+(2)+(3)-(4)]
DOCKED: USER
DOCKED: USER    (1) Final Intermolecular Energy     =  -8.36 kcal/mol
DOCKED: USER        vdW + Hbond + desolv Energy     =  -8.30 kcal/mol
DOCKED: USER        Electrostatic Energy            =  -0.05 kcal/mol
DOCKED: USER        Moving Ligand-Fixed Receptor    =  -8.36 kcal/mol
DOCKED: USER        Moving Ligand-Moving Receptor   =  +0.00 kcal/mol
DOCKED: USER    (2) Final Total Internal Energy     =  -2.42 kcal/mol
DOCKED: USER    (3) Torsional Free Energy           =  +1.49 kcal/mol
DOCKED: USER    (4) Unbound System's Energy         =  -2.42 kcal/mol
DOCKED: USER
DOCKED: USER
DOCKED: REMARK SMILES O=C(NCC(=O)N1CCC[C@@H]1c1ccc(Cl)cc1)c1ccc2cc(Cl)ccc2n1
DOCKED: REMARK SMILES IDX 4 1 3 2 2 3 1 4 19 6 20 7 29 8 21 9 28 10 22 11 27 12 23 13
DOCKED: REMARK SMILES IDX 26 14 24 15 25 16 5 17 6 18 7 19 8 20 11 21 9 22 10 23 12 24
DOCKED: REMARK SMILES IDX 13 25 18 26 14 27 17 28 15 29 16 30
DOCKED: REMARK H PARENT 3 5
DOCKED: USER                              x       y       z     vdW  Elec       q    Type
DOCKED: USER                           _______ _______ _______ _____ _____    ______ ____
DOCKED: ROOT
DOCKED: ATOM      1  C   UNL     1     141.494  75.215 220.736 -0.21 -0.07    +0.216 C  
DOCKED: ENDROOT
DOCKED: BRANCH   1   2
DOCKED: ATOM      2  N   UNL     1     141.374  76.281 219.744 -0.06 +0.14    -0.342 N  
DOCKED: ATOM      3  C   UNL     1     142.479  77.130 219.406 -0.21 -0.17    +0.270 C  
DOCKED: ATOM      4  O   UNL     1     143.653  76.668 219.426 -0.33 +0.20    -0.268 OA 
DOCKED: ATOM      5  H   UNL     1     140.427  76.494 219.358 +0.05 -0.05    +0.164 HD 
DOCKED: BRANCH   3   6
DOCKED: ATOM      6  C   UNL     1     142.245  78.551 219.082 -0.21 -0.09    +0.128 A  
DOCKED: ATOM      7  C   UNL     1     142.776  79.131 217.919 -0.29 -0.04    +0.035 A  
DOCKED: ATOM      8  N   UNL     1     141.545  79.327 219.958 -0.15 +0.13    -0.243 NA 
DOCKED: ATOM      9  C   UNL     1     142.584  80.492 217.675 -0.31 -0.01    +0.013 A  
DOCKED: ATOM     10  C   UNL     1     141.347  80.654 219.748 -0.24 -0.03    +0.071 A  
DOCKED: ATOM     11  C   UNL     1     141.872  81.272 218.593 -0.29 -0.00    +0.002 A  
DOCKED: ATOM     12  C   UNL     1     140.624  81.409 220.680 -0.24 -0.01    +0.030 A  
DOCKED: ATOM     13  C   UNL     1     141.671  82.645 218.387 -0.21 -0.01    +0.030 A  
DOCKED: ATOM     14  C   UNL     1     140.431  82.777 220.469 -0.24 -0.00    +0.023 A  
DOCKED: ATOM     15  C   UNL     1     140.954  83.396 219.325 -0.17 -0.01    +0.041 A  
DOCKED: ATOM     16  Cl  UNL     1     140.709  85.115 219.073 -0.17 +0.02    -0.084 Cl 
DOCKED: ENDBRANCH   3   6
DOCKED: ENDBRANCH   1   2
DOCKED: BRANCH   1  17
DOCKED: ATOM     17  C   UNL     1     140.207  75.052 221.498 -0.22 -0.04    +0.242 C  
DOCKED: ATOM     18  O   UNL     1     140.114  74.108 222.330 -0.84 -0.00    -0.273 OA 
DOCKED: BRANCH  17  19
DOCKED: ATOM     19  N   UNL     1     139.098  75.956 221.327 -0.09 +0.08    -0.334 N  
DOCKED: ATOM     20  C   UNL     1     138.365  76.049 220.074 -0.05 -0.03    +0.120 C  
DOCKED: ATOM     21  C   UNL     1     138.553  76.827 222.364 -0.26 -0.02    +0.115 C  
DOCKED: ATOM     22  C   UNL     1     137.331  77.150 220.271 -0.05 -0.00    +0.024 C  
DOCKED: ATOM     23  C   UNL     1     137.267  77.409 221.775 -0.15 -0.01    +0.032 C  
DOCKED: BRANCH  21  24
DOCKED: ATOM     24  C   UNL     1     139.540  77.914 222.736 -0.31 +0.00    -0.025 A  
DOCKED: ATOM     25  C   UNL     1     140.920  77.647 222.707 -0.45 -0.00    +0.007 A  
DOCKED: ATOM     26  C   UNL     1     139.100  79.184 223.148 -0.35 -0.00    +0.007 A  
DOCKED: ATOM     27  C   UNL     1     141.841  78.638 223.058 -0.53 -0.01    +0.021 A  
DOCKED: ATOM     28  C   UNL     1     140.023  80.175 223.492 -0.43 -0.00    +0.021 A  
DOCKED: ATOM     29  C   UNL     1     141.394  79.905 223.445 -0.53 -0.01    +0.041 A  
DOCKED: ATOM     30  Cl  UNL     1     142.552  81.148 223.878 -0.72 +0.01    -0.084 Cl 
DOCKED: ENDBRANCH  21  24
DOCKED: ENDBRANCH  17  19
DOCKED: ENDBRANCH   1  17
DOCKED: TORSDOF 5
DOCKED: TER
DOCKED: ENDMDL
________________________________________________________________________________


    FINAL DOCKED STATE:
    ________________________


Run:   5 / 20
Time taken for this run:   0.045s

DOCKED: MODEL        5
DOCKED: USER    Run = 5
DOCKED: USER
DOCKED: USER    Estimated Free Energy of Binding    =  -8.34 kcal/mol  [=(1)+(2)+(3)-(4)]
DOCKED: USER
DOCKED: USER    (1) Final Intermolecular Energy     =  -9.83 kcal/mol
DOCKED: USER        vdW + Hbond + desolv Energy     =  -9.80 kcal/mol
DOCKED: USER        Electrostatic Energy            =  -0.03 kcal/mol
DOCKED: USER        Moving Ligand-Fixed Receptor    =  -9.83 kcal/mol
DOCKED: USER        Moving Ligand-Moving Receptor   =  +0.00 kcal/mol
DOCKED: USER    (2) Final Total Internal Energy     =  -1.93 kcal/mol
DOCKED: USER    (3) Torsional Free Energy           =  +1.49 kcal/mol
DOCKED: USER    (4) Unbound System's Energy         =  -1.93 kcal/mol
DOCKED: USER
DOCKED: USER
DOCKED: REMARK SMILES O=C(NCC(=O)N1CCC[C@@H]1c1ccc(Cl)cc1)c1ccc2cc(Cl)ccc2n1
DOCKED: REMARK SMILES IDX 4 1 3 2 2 3 1 4 19 6 20 7 29 8 21 9 28 10 22 11 27 12 23 13
DOCKED: REMARK SMILES IDX 26 14 24 15 25 16 5 17 6 18 7 19 8 20 11 21 9 22 10 23 12 24
DOCKED: REMARK SMILES IDX 13 25 18 26 14 27 17 28 15 29 16 30
DOCKED: REMARK H PARENT 3 5
DOCKED: USER                              x       y       z     vdW  Elec       q    Type
DOCKED: USER                           _______ _______ _______ _____ _____    ______ ____
DOCKED: ROOT
DOCKED: ATOM      1  C   UNL     1     136.163  72.392 222.738 -0.10 -0.05    +0.216 C  
DOCKED: ENDROOT
DOCKED: BRANCH   1   2
DOCKED: ATOM      2  N   UNL     1     136.646  73.771 222.750 -0.03 +0.12    -0.342 N  
DOCKED: ATOM      3  C   UNL     1     137.326  74.346 221.626 -0.09 -0.07    +0.270 C  
DOCKED: ATOM      4  O   UNL     1     137.012  73.992 220.456 -0.02 +0.05    -0.268 OA 
DOCKED: ATOM      5  H   UNL     1     136.589  74.309 223.644 -0.40 -0.08    +0.164 HD 
DOCKED: BRANCH   3   6
DOCKED: ATOM      6  C   UNL     1     138.420  75.312 221.840 -0.21 -0.03    +0.128 A  
DOCKED: ATOM      7  C   UNL     1     139.760  74.960 221.611 -0.29 -0.01    +0.035 A  
DOCKED: ATOM      8  N   UNL     1     138.128  76.554 222.322 -0.18 +0.05    -0.243 NA 
DOCKED: ATOM      9  C   UNL     1     140.774  75.880 221.880 -0.37 -0.00    +0.013 A  
DOCKED: ATOM     10  C   UNL     1     139.094  77.468 222.596 -0.27 -0.01    +0.071 A  
DOCKED: ATOM     11  C   UNL     1     140.452  77.146 222.385 -0.42 -0.00    +0.002 A  
DOCKED: ATOM     12  C   UNL     1     138.743  78.729 223.094 -0.30 -0.00    +0.030 A  
DOCKED: ATOM     13  C   UNL     1     141.445  78.091 222.679 -0.44 -0.01    +0.030 A  
DOCKED: ATOM     14  C   UNL     1     139.739  79.665 223.388 -0.41 -0.00    +0.023 A  
DOCKED: ATOM     15  C   UNL     1     141.089  79.348 223.182 -0.49 -0.01    +0.041 A  
DOCKED: ATOM     16  Cl  UNL     1     142.330  80.528 223.559 -0.81 +0.02    -0.084 Cl 
DOCKED: ENDBRANCH   3   6
DOCKED: ENDBRANCH   1   2
DOCKED: BRANCH   1  17
DOCKED: ATOM     17  C   UNL     1     137.201  71.462 223.305 -0.13 -0.06    +0.242 C  
DOCKED: ATOM     18  O   UNL     1     136.874  70.699 224.254 -0.15 +0.04    -0.273 OA 
DOCKED: BRANCH  17  19
DOCKED: ATOM     19  N   UNL     1     138.541  71.399 222.776 -0.09 +0.08    -0.334 N  
DOCKED: ATOM     20  C   UNL     1     138.822  70.875 221.449 -0.10 -0.02    +0.120 C  
DOCKED: ATOM     21  C   UNL     1     139.738  71.884 223.456 -0.25 -0.03    +0.115 C  
DOCKED: ATOM     22  C   UNL     1     140.337  70.914 221.292 -0.15 -0.00    +0.024 C  
DOCKED: ATOM     23  C   UNL     1     140.858  71.808 222.415 -0.24 -0.00    +0.032 C  
DOCKED: BRANCH  21  24
DOCKED: ATOM     24  C   UNL     1     140.050  71.041 224.675 -0.46 +0.00    -0.025 A  
DOCKED: ATOM     25  C   UNL     1     140.705  71.619 225.776 -0.58 -0.00    +0.007 A  
DOCKED: ATOM     26  C   UNL     1     139.730  69.672 224.712 -0.37 -0.00    +0.007 A  
DOCKED: ATOM     27  C   UNL     1     141.008  70.850 226.904 -0.64 -0.00    +0.021 A  
DOCKED: ATOM     28  C   UNL     1     140.029  68.908 225.842 -0.49 -0.00    +0.021 A  
DOCKED: ATOM     29  C   UNL     1     140.666  69.495 226.941 -0.54 -0.01    +0.041 A  
DOCKED: ATOM     30  Cl  UNL     1     141.041  68.534 228.358 -0.78 +0.02    -0.084 Cl 
DOCKED: ENDBRANCH  21  24
DOCKED: ENDBRANCH  17  19
DOCKED: ENDBRANCH   1  17
DOCKED: TORSDOF 5
DOCKED: TER
DOCKED: ENDMDL
________________________________________________________________________________


    FINAL DOCKED STATE:
    ________________________


Run:   6 / 20
Time taken for this run:   0.045s

DOCKED: MODEL        6
DOCKED: USER    Run = 6
DOCKED: USER
DOCKED: USER    Estimated Free Energy of Binding    =  -8.34 kcal/mol  [=(1)+(2)+(3)-(4)]
DOCKED: USER
DOCKED: USER    (1) Final Intermolecular Energy     =  -9.83 kcal/mol
DOCKED: USER        vdW + Hbond + desolv Energy     =  -9.83 kcal/mol
DOCKED: USER        Electrostatic Energy            =  +0.00 kcal/mol
DOCKED: USER        Moving Ligand-Fixed Receptor    =  -9.83 kcal/mol
DOCKED: USER        Moving Ligand-Moving Receptor   =  +0.00 kcal/mol
DOCKED: USER    (2) Final Total Internal Energy     =  -1.59 kcal/mol
DOCKED: USER    (3) Torsional Free Energy           =  +1.49 kcal/mol
DOCKED: USER    (4) Unbound System's Energy         =  -1.59 kcal/mol
DOCKED: USER
DOCKED: USER
DOCKED: REMARK SMILES O=C(NCC(=O)N1CCC[C@@H]1c1ccc(Cl)cc1)c1ccc2cc(Cl)ccc2n1
DOCKED: REMARK SMILES IDX 4 1 3 2 2 3 1 4 19 6 20 7 29 8 21 9 28 10 22 11 27 12 23 13
DOCKED: REMARK SMILES IDX 26 14 24 15 25 16 5 17 6 18 7 19 8 20 11 21 9 22 10 23 12 24
DOCKED: REMARK SMILES IDX 13 25 18 26 14 27 17 28 15 29 16 30
DOCKED: REMARK H PARENT 3 5
DOCKED: USER                              x       y       z     vdW  Elec       q    Type
DOCKED: USER                           _______ _______ _______ _____ _____    ______ ____
DOCKED: ROOT
DOCKED: ATOM      1  C   UNL     1     138.760  75.043 221.206 -0.14 -0.05    +0.216 C  
DOCKED: ENDROOT
DOCKED: BRANCH   1   2
DOCKED: ATOM      2  N   UNL     1     139.504  74.277 222.204 -0.11 +0.06    -0.342 N  
DOCKED: ATOM      3  C   UNL     1     140.034  72.976 221.919 -0.19 -0.04    +0.270 C  
DOCKED: ATOM      4  O   UNL     1     140.435  72.703 220.755 -0.10 +0.04    -0.268 OA 
DOCKED: ATOM      5  H   UNL     1     139.551  74.648 223.179 -0.50 -0.01    +0.164 HD 
DOCKED: BRANCH   3   6
DOCKED: ATOM      6  C   UNL     1     140.062  71.944 222.974 -0.29 -0.02    +0.128 A  
DOCKED: ATOM      7  C   UNL     1     139.536  70.661 222.755 -0.24 -0.01    +0.035 A  
DOCKED: ATOM      8  N   UNL     1     140.561  72.262 224.203 -0.07 +0.03    -0.243 NA 
DOCKED: ATOM      9  C   UNL     1     139.528  69.729 223.794 -0.28 -0.00    +0.013 A  
DOCKED: ATOM     10  C   UNL     1     140.562  71.377 225.233 -0.50 -0.01    +0.071 A  
DOCKED: ATOM     11  C   UNL     1     140.035  70.080 225.050 -0.43 -0.00    +0.002 A  
DOCKED: ATOM     12  C   UNL     1     141.082  71.752 226.478 -0.70 -0.00    +0.030 A  
DOCKED: ATOM     13  C   UNL     1     140.030  69.174 226.121 -0.49 -0.01    +0.030 A  
DOCKED: ATOM     14  C   UNL     1     141.071  70.844 227.541 -0.66 -0.00    +0.023 A  
DOCKED: ATOM     15  C   UNL     1     140.545  69.557 227.365 -0.57 -0.01    +0.041 A  
DOCKED: ATOM     16  Cl  UNL     1     140.533  68.429 228.707 -0.66 +0.02    -0.084 Cl 
DOCKED: ENDBRANCH   3   6
DOCKED: ENDBRANCH   1   2
DOCKED: BRANCH   1  17
DOCKED: ATOM     17  C   UNL     1     138.363  76.386 221.758 -0.17 -0.05    +0.242 C  
DOCKED: ATOM     18  O   UNL     1     137.137  76.677 221.813 -0.09 +0.05    -0.273 OA 
DOCKED: BRANCH  17  19
DOCKED: ATOM     19  N   UNL     1     139.336  77.329 222.247 -0.15 +0.07    -0.334 N  
DOCKED: ATOM     20  C   UNL     1     138.961  78.655 222.712 -0.26 -0.02    +0.120 C  
DOCKED: ATOM     21  C   UNL     1     140.766  77.068 222.385 -0.35 -0.04    +0.115 C  
DOCKED: ATOM     22  C   UNL     1     140.261  79.359 223.076 -0.43 -0.00    +0.024 C  
DOCKED: ATOM     23  C   UNL     1     141.330  78.270 223.147 -0.50 -0.01    +0.032 C  
DOCKED: BRANCH  21  24
DOCKED: ATOM     24  C   UNL     1     141.423  76.909 221.029 -0.28 +0.01    -0.025 A  
DOCKED: ATOM     25  C   UNL     1     141.914  75.653 220.633 -0.27 -0.00    +0.007 A  
DOCKED: ATOM     26  C   UNL     1     141.586  78.009 220.168 -0.28 -0.00    +0.007 A  
DOCKED: ATOM     27  C   UNL     1     142.532  75.495 219.388 -0.27 -0.01    +0.021 A  
DOCKED: ATOM     28  C   UNL     1     142.199  77.846 218.923 -0.29 -0.01    +0.021 A  
DOCKED: ATOM     29  C   UNL     1     142.670  76.590 218.530 -0.28 -0.02    +0.041 A  
DOCKED: ATOM     30  Cl  UNL     1     143.439  76.387 216.967 -0.29 +0.05    -0.084 Cl 
DOCKED: ENDBRANCH  21  24
DOCKED: ENDBRANCH  17  19
DOCKED: ENDBRANCH   1  17
DOCKED: TORSDOF 5
DOCKED: TER
DOCKED: ENDMDL
________________________________________________________________________________


    FINAL DOCKED STATE:
    ________________________


Run:   7 / 20
Time taken for this run:   0.045s

DOCKED: MODEL        7
DOCKED: USER    Run = 7
DOCKED: USER
DOCKED: USER    Estimated Free Energy of Binding    =  -8.38 kcal/mol  [=(1)+(2)+(3)-(4)]
DOCKED: USER
DOCKED: USER    (1) Final Intermolecular Energy     =  -9.87 kcal/mol
DOCKED: USER        vdW + Hbond + desolv Energy     =  -9.82 kcal/mol
DOCKED: USER        Electrostatic Energy            =  -0.05 kcal/mol
DOCKED: USER        Moving Ligand-Fixed Receptor    =  -9.87 kcal/mol
DOCKED: USER        Moving Ligand-Moving Receptor   =  +0.00 kcal/mol
DOCKED: USER    (2) Final Total Internal Energy     =  -1.84 kcal/mol
DOCKED: USER    (3) Torsional Free Energy           =  +1.49 kcal/mol
DOCKED: USER    (4) Unbound System's Energy         =  -1.84 kcal/mol
DOCKED: USER
DOCKED: USER
DOCKED: REMARK SMILES O=C(NCC(=O)N1CCC[C@@H]1c1ccc(Cl)cc1)c1ccc2cc(Cl)ccc2n1
DOCKED: REMARK SMILES IDX 4 1 3 2 2 3 1 4 19 6 20 7 29 8 21 9 28 10 22 11 27 12 23 13
DOCKED: REMARK SMILES IDX 26 14 24 15 25 16 5 17 6 18 7 19 8 20 11 21 9 22 10 23 12 24
DOCKED: REMARK SMILES IDX 13 25 18 26 14 27 17 28 15 29 16 30
DOCKED: REMARK H PARENT 3 5
DOCKED: USER                              x       y       z     vdW  Elec       q    Type
DOCKED: USER                           _______ _______ _______ _____ _____    ______ ____
DOCKED: ROOT
DOCKED: ATOM      1  C   UNL     1     136.371  72.494 222.540 -0.10 -0.05    +0.216 C  
DOCKED: ENDROOT
DOCKED: BRANCH   1   2
DOCKED: ATOM      2  N   UNL     1     136.839  73.867 222.714 -0.00 +0.13    -0.342 N  
DOCKED: ATOM      3  C   UNL     1     137.423  74.612 221.636 -0.10 -0.07    +0.270 C  
DOCKED: ATOM      4  O   UNL     1     137.023  74.421 220.455 -0.02 +0.05    -0.268 OA 
DOCKED: ATOM      5  H   UNL     1     136.845  74.270 223.677 -0.43 -0.10    +0.164 HD 
DOCKED: BRANCH   3   6
DOCKED: ATOM      6  C   UNL     1     138.520  75.561 221.905 -0.22 -0.03    +0.128 A  
DOCKED: ATOM      7  C   UNL     1     139.863  75.195 221.720 -0.30 -0.01    +0.035 A  
DOCKED: ATOM      8  N   UNL     1     138.225  76.799 222.394 -0.18 +0.05    -0.243 NA 
DOCKED: ATOM      9  C   UNL     1     140.878  76.099 222.039 -0.37 -0.00    +0.013 A  
DOCKED: ATOM     10  C   UNL     1     139.191  77.697 222.717 -0.28 -0.01    +0.071 A  
DOCKED: ATOM     11  C   UNL     1     140.552  77.361 222.550 -0.41 -0.00    +0.002 A  
DOCKED: ATOM     12  C   UNL     1     138.837  78.956 223.220 -0.31 -0.00    +0.030 A  
DOCKED: ATOM     13  C   UNL     1     141.545  78.290 222.895 -0.47 -0.01    +0.030 A  
DOCKED: ATOM     14  C   UNL     1     139.833  79.874 223.564 -0.43 -0.00    +0.023 A  
DOCKED: ATOM     15  C   UNL     1     141.185  79.543 223.403 -0.52 -0.01    +0.041 A  
DOCKED: ATOM     16  Cl  UNL     1     142.425  80.703 223.842 -0.80 +0.02    -0.084 Cl 
DOCKED: ENDBRANCH   3   6
DOCKED: ENDBRANCH   1   2
DOCKED: BRANCH   1  17
DOCKED: ATOM     17  C   UNL     1     137.362  71.519 223.116 -0.13 -0.06    +0.242 C  
DOCKED: ATOM     18  O   UNL     1     136.969  70.712 224.002 -0.14 +0.05    -0.273 OA 
DOCKED: BRANCH  17  19
DOCKED: ATOM     19  N   UNL     1     138.730  71.464 222.665 -0.10 +0.08    -0.334 N  
DOCKED: ATOM     20  C   UNL     1     139.089  70.951 221.352 -0.11 -0.02    +0.120 C  
DOCKED: ATOM     21  C   UNL     1     139.885  71.945 223.417 -0.25 -0.02    +0.115 C  
DOCKED: ATOM     22  C   UNL     1     140.610  70.994 221.283 -0.12 -0.00    +0.024 C  
DOCKED: ATOM     23  C   UNL     1     141.063  71.880 222.442 -0.19 -0.00    +0.032 C  
DOCKED: BRANCH  21  24
DOCKED: ATOM     24  C   UNL     1     140.128  71.092 224.645 -0.47 +0.00    -0.025 A  
DOCKED: ATOM     25  C   UNL     1     140.744  71.655 225.776 -0.57 -0.00    +0.007 A  
DOCKED: ATOM     26  C   UNL     1     139.782  69.730 224.663 -0.36 -0.00    +0.007 A  
DOCKED: ATOM     27  C   UNL     1     140.984  70.876 226.913 -0.64 -0.00    +0.021 A  
DOCKED: ATOM     28  C   UNL     1     140.018  68.956 225.802 -0.48 -0.00    +0.021 A  
DOCKED: ATOM     29  C   UNL     1     140.616  69.528 226.929 -0.54 -0.01    +0.041 A  
DOCKED: ATOM     30  Cl  UNL     1     140.912  68.556 228.358 -0.79 +0.02    -0.084 Cl 
DOCKED: ENDBRANCH  21  24
DOCKED: ENDBRANCH  17  19
DOCKED: ENDBRANCH   1  17
DOCKED: TORSDOF 5
DOCKED: TER
DOCKED: ENDMDL
________________________________________________________________________________


    FINAL DOCKED STATE:
    ________________________


Run:   8 / 20
Time taken for this run:   0.045s

DOCKED: MODEL        8
DOCKED: USER    Run = 8
DOCKED: USER
DOCKED: USER    Estimated Free Energy of Binding    =  -8.93 kcal/mol  [=(1)+(2)+(3)-(4)]
DOCKED: USER
DOCKED: USER    (1) Final Intermolecular Energy     = -10.42 kcal/mol
DOCKED: USER        vdW + Hbond + desolv Energy     = -10.41 kcal/mol
DOCKED: USER        Electrostatic Energy            =  -0.02 kcal/mol
DOCKED: USER        Moving Ligand-Fixed Receptor    = -10.42 kcal/mol
DOCKED: USER        Moving Ligand-Moving Receptor   =  +0.00 kcal/mol
DOCKED: USER    (2) Final Total Internal Energy     =  -1.38 kcal/mol
DOCKED: USER    (3) Torsional Free Energy           =  +1.49 kcal/mol
DOCKED: USER    (4) Unbound System's Energy         =  -1.38 kcal/mol
DOCKED: USER
DOCKED: USER
DOCKED: REMARK SMILES O=C(NCC(=O)N1CCC[C@@H]1c1ccc(Cl)cc1)c1ccc2cc(Cl)ccc2n1
DOCKED: REMARK SMILES IDX 4 1 3 2 2 3 1 4 19 6 20 7 29 8 21 9 28 10 22 11 27 12 23 13
DOCKED: REMARK SMILES IDX 26 14 24 15 25 16 5 17 6 18 7 19 8 20 11 21 9 22 10 23 12 24
DOCKED: REMARK SMILES IDX 13 25 18 26 14 27 17 28 15 29 16 30
DOCKED: REMARK H PARENT 3 5
DOCKED: USER                              x       y       z     vdW  Elec       q    Type
DOCKED: USER                           _______ _______ _______ _____ _____    ______ ____
DOCKED: ROOT
DOCKED: ATOM      1  C   UNL     1     138.575  74.993 221.260 -0.14 -0.05    +0.216 C  
DOCKED: ENDROOT
DOCKED: BRANCH   1   2
DOCKED: ATOM      2  N   UNL     1     139.379  74.186 222.175 -0.11 +0.07    -0.342 N  
DOCKED: ATOM      3  C   UNL     1     139.766  72.842 221.859 -0.18 -0.05    +0.270 C  
DOCKED: ATOM      4  O   UNL     1     139.994  72.521 220.660 -0.07 +0.05    -0.268 OA 
DOCKED: ATOM      5  H   UNL     1     139.578  74.566 223.127 -0.51 -0.00    +0.164 HD 
DOCKED: BRANCH   3   6
DOCKED: ATOM      6  C   UNL     1     139.850  71.828 222.928 -0.28 -0.02    +0.128 A  
DOCKED: ATOM      7  C   UNL     1     139.334  70.534 222.748 -0.22 -0.01    +0.035 A  
DOCKED: ATOM      8  N   UNL     1     140.390  72.172 224.131 -0.17 +0.04    -0.243 NA 
DOCKED: ATOM      9  C   UNL     1     139.379  69.619 223.801 -0.28 -0.00    +0.013 A  
DOCKED: ATOM     10  C   UNL     1     140.443  71.304 225.174 -0.49 -0.01    +0.071 A  
DOCKED: ATOM     11  C   UNL     1     139.928  69.997 225.032 -0.42 -0.00    +0.002 A  
DOCKED: ATOM     12  C   UNL     1     141.005  71.706 226.392 -0.67 -0.00    +0.030 A  
DOCKED: ATOM     13  C   UNL     1     139.978  69.108 226.115 -0.49 -0.00    +0.030 A  
DOCKED: ATOM     14  C   UNL     1     141.047  70.815 227.469 -0.65 -0.00    +0.023 A  
DOCKED: ATOM     15  C   UNL     1     140.534  69.518 227.332 -0.57 -0.01    +0.041 A  
DOCKED: ATOM     16  Cl  UNL     1     140.589  68.411 228.692 -0.67 +0.02    -0.084 Cl 
DOCKED: ENDBRANCH   3   6
DOCKED: ENDBRANCH   1   2
DOCKED: BRANCH   1  17
DOCKED: ATOM     17  C   UNL     1     139.271  76.290 220.945 -0.11 -0.06    +0.242 C  
DOCKED: ATOM     18  O   UNL     1     138.670  77.371 221.187 -0.07 +0.06    -0.273 OA 
DOCKED: BRANCH  17  19
DOCKED: ATOM     19  N   UNL     1     140.607  76.327 220.406 -0.06 +0.11    -0.334 N  
DOCKED: ATOM     20  C   UNL     1     141.438  75.137 220.319 -0.20 -0.04    +0.120 C  
DOCKED: ATOM     21  C   UNL     1     141.259  77.510 219.851 -0.19 -0.05    +0.115 C  
DOCKED: ATOM     22  C   UNL     1     142.780  75.598 219.768 -0.33 -0.01    +0.024 C  
DOCKED: ATOM     23  C   UNL     1     142.553  77.002 219.211 -0.33 -0.02    +0.032 C  
DOCKED: BRANCH  21  24
DOCKED: ATOM     24  C   UNL     1     141.534  78.537 220.930 -0.32 +0.01    -0.025 A  
DOCKED: ATOM     25  C   UNL     1     141.467  78.164 222.283 -0.41 -0.00    +0.007 A  
DOCKED: ATOM     26  C   UNL     1     141.822  79.874 220.603 -0.34 -0.00    +0.007 A  
DOCKED: ATOM     27  C   UNL     1     141.708  79.105 223.290 -0.58 -0.01    +0.021 A  
DOCKED: ATOM     28  C   UNL     1     142.068  80.809 221.610 -0.42 -0.01    +0.021 A  
DOCKED: ATOM     29  C   UNL     1     142.015  80.427 222.954 -0.56 -0.01    +0.041 A  
DOCKED: ATOM     30  Cl  UNL     1     142.325  81.602 224.218 -0.54 +0.01    -0.084 Cl 
DOCKED: ENDBRANCH  21  24
DOCKED: ENDBRANCH  17  19
DOCKED: ENDBRANCH   1  17
DOCKED: TORSDOF 5
DOCKED: TER
DOCKED: ENDMDL
________________________________________________________________________________


    FINAL DOCKED STATE:
    ________________________


Run:   9 / 20
Time taken for this run:   0.045s

DOCKED: MODEL        9
DOCKED: USER    Run = 9
DOCKED: USER
DOCKED: USER    Estimated Free Energy of Binding    =  -7.23 kcal/mol  [=(1)+(2)+(3)-(4)]
DOCKED: USER
DOCKED: USER    (1) Final Intermolecular Energy     =  -8.72 kcal/mol
DOCKED: USER        vdW + Hbond + desolv Energy     =  -8.70 kcal/mol
DOCKED: USER        Electrostatic Energy            =  -0.02 kcal/mol
DOCKED: USER        Moving Ligand-Fixed Receptor    =  -8.72 kcal/mol
DOCKED: USER        Moving Ligand-Moving Receptor   =  +0.00 kcal/mol
DOCKED: USER    (2) Final Total Internal Energy     =  -2.35 kcal/mol
DOCKED: USER    (3) Torsional Free Energy           =  +1.49 kcal/mol
DOCKED: USER    (4) Unbound System's Energy         =  -2.35 kcal/mol
DOCKED: USER
DOCKED: USER
DOCKED: REMARK SMILES O=C(NCC(=O)N1CCC[C@@H]1c1ccc(Cl)cc1)c1ccc2cc(Cl)ccc2n1
DOCKED: REMARK SMILES IDX 4 1 3 2 2 3 1 4 19 6 20 7 29 8 21 9 28 10 22 11 27 12 23 13
DOCKED: REMARK SMILES IDX 26 14 24 15 25 16 5 17 6 18 7 19 8 20 11 21 9 22 10 23 12 24
DOCKED: REMARK SMILES IDX 13 25 18 26 14 27 17 28 15 29 16 30
DOCKED: REMARK H PARENT 3 5
DOCKED: USER                              x       y       z     vdW  Elec       q    Type
DOCKED: USER                           _______ _______ _______ _____ _____    ______ ____
DOCKED: ROOT
DOCKED: ATOM      1  C   UNL     1     137.640  74.377 221.282 -0.09 -0.05    +0.216 C  
DOCKED: ENDROOT
DOCKED: BRANCH   1   2
DOCKED: ATOM      2  N   UNL     1     138.618  73.670 222.106 -0.05 +0.10    -0.342 N  
DOCKED: ATOM      3  C   UNL     1     139.033  72.330 221.807 -0.13 -0.06    +0.270 C  
DOCKED: ATOM      4  O   UNL     1     139.097  71.947 220.607 -0.04 +0.05    -0.268 OA 
DOCKED: ATOM      5  H   UNL     1     138.934  74.118 222.994 -0.56 -0.08    +0.164 HD 
DOCKED: BRANCH   3   6
DOCKED: ATOM      6  C   UNL     1     139.335  71.390 222.904 -0.24 -0.03    +0.128 A  
DOCKED: ATOM      7  C   UNL     1     138.958  70.039 222.831 -0.20 -0.01    +0.035 A  
DOCKED: ATOM      8  N   UNL     1     139.945  71.855 224.030 -0.25 +0.05    -0.243 NA 
DOCKED: ATOM      9  C   UNL     1     139.209  69.192 223.912 -0.29 -0.00    +0.013 A  
DOCKED: ATOM     10  C   UNL     1     140.198  71.055 225.098 -0.47 -0.01    +0.071 A  
DOCKED: ATOM     11  C   UNL     1     139.826  69.694 225.064 -0.41 -0.00    +0.002 A  
DOCKED: ATOM     12  C   UNL     1     140.824  71.582 226.235 -0.64 -0.00    +0.030 A  
DOCKED: ATOM     13  C   UNL     1     140.082  68.875 226.173 -0.52 -0.01    +0.030 A  
DOCKED: ATOM     14  C   UNL     1     141.072  70.759 227.338 -0.64 -0.00    +0.023 A  
DOCKED: ATOM     15  C   UNL     1     140.702  69.408 227.309 -0.57 -0.01    +0.041 A  
DOCKED: ATOM     16  Cl  UNL     1     141.014  68.388 228.701 -0.71 +0.02    -0.084 Cl 
DOCKED: ENDBRANCH   3   6
DOCKED: ENDBRANCH   1   2
DOCKED: BRANCH   1  17
DOCKED: ATOM     17  C   UNL     1     136.239  74.045 221.720 -0.07 -0.05    +0.242 C  
DOCKED: ATOM     18  O   UNL     1     135.312  74.852 221.440 -0.02 +0.05    -0.273 OA 
DOCKED: BRANCH  17  19
DOCKED: ATOM     19  N   UNL     1     135.927  72.825 222.421 -0.04 +0.07    -0.334 N  
DOCKED: ATOM     20  C   UNL     1     135.390  71.659 221.737 -0.03 -0.02    +0.120 C  
DOCKED: ATOM     21  C   UNL     1     136.149  72.591 223.845 -0.11 -0.03    +0.115 C  
DOCKED: ATOM     22  C   UNL     1     135.134  70.617 222.818 -0.07 -0.00    +0.024 C  
DOCKED: ATOM     23  C   UNL     1     135.880  71.100 224.061 -0.18 -0.00    +0.032 C  
DOCKED: BRANCH  21  24
DOCKED: ATOM     24  C   UNL     1     135.231  73.452 224.687 -0.23 +0.00    -0.025 A  
DOCKED: ATOM     25  C   UNL     1     135.459  74.836 224.780 -0.35 -0.00    +0.007 A  
DOCKED: ATOM     26  C   UNL     1     134.169  72.885 225.414 -0.28 -0.00    +0.007 A  
DOCKED: ATOM     27  C   UNL     1     134.626  75.641 225.563 -0.39 -0.00    +0.021 A  
DOCKED: ATOM     28  C   UNL     1     133.334  73.693 226.190 -0.33 +0.00    +0.021 A  
DOCKED: ATOM     29  C   UNL     1     133.559  75.071 226.264 -0.35 +0.00    +0.041 A  
DOCKED: ATOM     30  Cl  UNL     1     132.512  76.084 227.239 -0.45 +0.00    -0.084 Cl 
DOCKED: ENDBRANCH  21  24
DOCKED: ENDBRANCH  17  19
DOCKED: ENDBRANCH   1  17
DOCKED: TORSDOF 5
DOCKED: TER
DOCKED: ENDMDL
________________________________________________________________________________


    FINAL DOCKED STATE:
    ________________________


Run:   10 / 20
Time taken for this run:   0.045s

DOCKED: MODEL        10
DOCKED: USER    Run = 10
DOCKED: USER
DOCKED: USER    Estimated Free Energy of Binding    =  -8.11 kcal/mol  [=(1)+(2)+(3)-(4)]
DOCKED: USER
DOCKED: USER    (1) Final Intermolecular Energy     =  -9.60 kcal/mol
DOCKED: USER        vdW + Hbond + desolv Energy     =  -9.60 kcal/mol
DOCKED: USER        Electrostatic Energy            =  +0.01 kcal/mol
DOCKED: USER        Moving Ligand-Fixed Receptor    =  -9.60 kcal/mol
DOCKED: USER        Moving Ligand-Moving Receptor   =  +0.00 kcal/mol
DOCKED: USER    (2) Final Total Internal Energy     =  -1.86 kcal/mol
DOCKED: USER    (3) Torsional Free Energy           =  +1.49 kcal/mol
DOCKED: USER    (4) Unbound System's Energy         =  -1.86 kcal/mol
DOCKED: USER
DOCKED: USER
DOCKED: REMARK SMILES O=C(NCC(=O)N1CCC[C@@H]1c1ccc(Cl)cc1)c1ccc2cc(Cl)ccc2n1
DOCKED: REMARK SMILES IDX 4 1 3 2 2 3 1 4 19 6 20 7 29 8 21 9 28 10 22 11 27 12 23 13
DOCKED: REMARK SMILES IDX 26 14 24 15 25 16 5 17 6 18 7 19 8 20 11 21 9 22 10 23 12 24
DOCKED: REMARK SMILES IDX 13 25 18 26 14 27 17 28 15 29 16 30
DOCKED: REMARK H PARENT 3 5
DOCKED: USER                              x       y       z     vdW  Elec       q    Type
DOCKED: USER                           _______ _______ _______ _____ _____    ______ ____
DOCKED: ROOT
DOCKED: ATOM      1  C   UNL     1     137.810  74.203 221.867 -0.11 -0.06    +0.216 C  
DOCKED: ENDROOT
DOCKED: BRANCH   1   2
DOCKED: ATOM      2  N   UNL     1     138.683  73.124 222.326 -0.05 +0.11    -0.342 N  
DOCKED: ATOM      3  C   UNL     1     138.245  71.760 222.366 -0.11 -0.07    +0.270 C  
DOCKED: ATOM      4  O   UNL     1     137.429  71.337 221.501 -0.04 +0.05    -0.268 OA 
DOCKED: ATOM      5  H   UNL     1     139.609  73.378 222.737 -0.23 -0.03    +0.164 HD 
DOCKED: BRANCH   3   6
DOCKED: ATOM      6  C   UNL     1     138.710  70.867 223.445 -0.23 -0.03    +0.128 A  
DOCKED: ATOM      7  C   UNL     1     138.340  69.513 223.483 -0.24 -0.01    +0.035 A  
DOCKED: ATOM      8  N   UNL     1     139.470  71.382 224.453 -0.23 +0.06    -0.243 NA 
DOCKED: ATOM      9  C   UNL     1     138.751  68.712 224.550 -0.36 -0.00    +0.013 A  
DOCKED: ATOM     10  C   UNL     1     139.881  70.628 225.506 -0.44 -0.01    +0.071 A  
DOCKED: ATOM     11  C   UNL     1     139.521  69.264 225.580 -0.44 -0.00    +0.002 A  
DOCKED: ATOM     12  C   UNL     1     140.657  71.203 226.519 -0.64 -0.00    +0.030 A  
DOCKED: ATOM     13  C   UNL     1     139.941  68.493 226.674 -0.59 -0.01    +0.030 A  
DOCKED: ATOM     14  C   UNL     1     141.068  70.429 227.608 -0.60 -0.00    +0.023 A  
DOCKED: ATOM     15  C   UNL     1     140.711  69.076 227.687 -0.60 -0.01    +0.041 A  
DOCKED: ATOM     16  Cl  UNL     1     141.230  68.116 229.060 -0.47 +0.02    -0.084 Cl 
DOCKED: ENDBRANCH   3   6
DOCKED: ENDBRANCH   1   2
DOCKED: BRANCH   1  17
DOCKED: ATOM     17  C   UNL     1     138.441  75.544 222.128 -0.18 -0.06    +0.242 C  
DOCKED: ATOM     18  O   UNL     1     139.571  75.580 222.685 -0.49 +0.04    -0.273 OA 
DOCKED: BRANCH  17  19
DOCKED: ATOM     19  N   UNL     1     137.806  76.776 221.734 -0.08 +0.07    -0.334 N  
DOCKED: ATOM     20  C   UNL     1     137.103  76.912 220.468 -0.04 -0.02    +0.120 C  
DOCKED: ATOM     21  C   UNL     1     137.743  77.988 222.546 -0.19 -0.02    +0.115 C  
DOCKED: ATOM     22  C   UNL     1     136.641  78.361 220.395 -0.04 -0.00    +0.024 C  
DOCKED: ATOM     23  C   UNL     1     136.786  78.926 221.807 -0.11 -0.01    +0.032 C  
DOCKED: BRANCH  21  24
DOCKED: ATOM     24  C   UNL     1     139.117  78.606 222.709 -0.31 +0.00    -0.025 A  
DOCKED: ATOM     25  C   UNL     1     139.332  79.581 223.698 -0.42 -0.00    +0.007 A  
DOCKED: ATOM     26  C   UNL     1     140.179  78.249 221.859 -0.30 -0.00    +0.007 A  
DOCKED: ATOM     27  C   UNL     1     140.593  80.167 223.852 -0.43 -0.00    +0.021 A  
DOCKED: ATOM     28  C   UNL     1     141.438  78.831 222.019 -0.42 -0.01    +0.021 A  
DOCKED: ATOM     29  C   UNL     1     141.648  79.789 223.016 -0.53 -0.01    +0.041 A  
DOCKED: ATOM     30  Cl  UNL     1     143.229  80.520 223.216 -0.70 +0.02    -0.084 Cl 
DOCKED: ENDBRANCH  21  24
DOCKED: ENDBRANCH  17  19
DOCKED: ENDBRANCH   1  17
DOCKED: TORSDOF 5
DOCKED: TER
DOCKED: ENDMDL
________________________________________________________________________________


    FINAL DOCKED STATE:
    ________________________


Run:   11 / 20
Time taken for this run:   0.045s

DOCKED: MODEL        11
DOCKED: USER    Run = 11
DOCKED: USER
DOCKED: USER    Estimated Free Energy of Binding    =  -8.76 kcal/mol  [=(1)+(2)+(3)-(4)]
DOCKED: USER
DOCKED: USER    (1) Final Intermolecular Energy     = -10.25 kcal/mol
DOCKED: USER        vdW + Hbond + desolv Energy     = -10.21 kcal/mol
DOCKED: USER        Electrostatic Energy            =  -0.05 kcal/mol
DOCKED: USER        Moving Ligand-Fixed Receptor    = -10.25 kcal/mol
DOCKED: USER        Moving Ligand-Moving Receptor   =  +0.00 kcal/mol
DOCKED: USER    (2) Final Total Internal Energy     =  -1.02 kcal/mol
DOCKED: USER    (3) Torsional Free Energy           =  +1.49 kcal/mol
DOCKED: USER    (4) Unbound System's Energy         =  -1.02 kcal/mol
DOCKED: USER
DOCKED: USER
DOCKED: REMARK SMILES O=C(NCC(=O)N1CCC[C@@H]1c1ccc(Cl)cc1)c1ccc2cc(Cl)ccc2n1
DOCKED: REMARK SMILES IDX 4 1 3 2 2 3 1 4 19 6 20 7 29 8 21 9 28 10 22 11 27 12 23 13
DOCKED: REMARK SMILES IDX 26 14 24 15 25 16 5 17 6 18 7 19 8 20 11 21 9 22 10 23 12 24
DOCKED: REMARK SMILES IDX 13 25 18 26 14 27 17 28 15 29 16 30
DOCKED: REMARK H PARENT 3 5
DOCKED: USER                              x       y       z     vdW  Elec       q    Type
DOCKED: USER                           _______ _______ _______ _____ _____    ______ ____
DOCKED: ROOT
DOCKED: ATOM      1  C   UNL     1     139.378  73.348 220.408 -0.07 -0.04    +0.216 C  
DOCKED: ENDROOT
DOCKED: BRANCH   1   2
DOCKED: ATOM      2  N   UNL     1     139.250  72.068 221.100 -0.04 +0.06    -0.342 N  
DOCKED: ATOM      3  C   UNL     1     138.441  71.919 222.275 -0.12 -0.07    +0.270 C  
DOCKED: ATOM      4  O   UNL     1     137.389  72.604 222.402 -0.11 +0.08    -0.268 OA 
DOCKED: ATOM      5  H   UNL     1     139.853  71.274 220.790 +0.04 -0.03    +0.164 HD 
DOCKED: BRANCH   3   6
DOCKED: ATOM      6  C   UNL     1     138.865  71.004 223.352 -0.24 -0.03    +0.128 A  
DOCKED: ATOM      7  C   UNL     1     138.554  69.635 223.311 -0.23 -0.01    +0.035 A  
DOCKED: ATOM      8  N   UNL     1     139.526  71.507 224.432 -0.24 +0.06    -0.243 NA 
DOCKED: ATOM      9  C   UNL     1     138.921  68.809 224.374 -0.35 -0.00    +0.013 A  
DOCKED: ATOM     10  C   UNL     1     139.892  70.729 225.483 -0.45 -0.01    +0.071 A  
DOCKED: ATOM     11  C   UNL     1     139.589  69.350 225.479 -0.44 -0.00    +0.002 A  
DOCKED: ATOM     12  C   UNL     1     140.566  71.294 226.573 -0.63 -0.01    +0.030 A  
DOCKED: ATOM     13  C   UNL     1     139.961  68.553 226.572 -0.58 -0.01    +0.030 A  
DOCKED: ATOM     14  C   UNL     1     140.930  70.494 227.659 -0.62 -0.00    +0.023 A  
DOCKED: ATOM     15  C   UNL     1     140.628  69.125 227.661 -0.60 -0.01    +0.041 A  
DOCKED: ATOM     16  Cl  UNL     1     141.087  68.132 229.032 -0.50 +0.02    -0.084 Cl 
DOCKED: ENDBRANCH   3   6
DOCKED: ENDBRANCH   1   2
DOCKED: BRANCH   1  17
DOCKED: ATOM     17  C   UNL     1     140.339  74.250 221.133 -0.18 -0.04    +0.242 C  
DOCKED: ATOM     18  O   UNL     1     140.100  74.545 222.335 -0.78 -0.00    -0.273 OA 
DOCKED: BRANCH  17  19
DOCKED: ATOM     19  N   UNL     1     141.533  74.756 220.504 -0.11 +0.10    -0.334 N  
DOCKED: ATOM     20  C   UNL     1     142.781  74.011 220.505 -0.25 -0.03    +0.120 C  
DOCKED: ATOM     21  C   UNL     1     141.628  76.013 219.767 -0.19 -0.05    +0.115 C  
DOCKED: ATOM     22  C   UNL     1     143.805  74.900 219.812 -0.39 -0.01    +0.024 C  
DOCKED: ATOM     23  C   UNL     1     143.009  75.996 219.107 -0.33 -0.02    +0.032 C  
DOCKED: BRANCH  21  24
DOCKED: ATOM     24  C   UNL     1     141.466  77.201 220.692 -0.29 +0.01    -0.025 A  
DOCKED: ATOM     25  C   UNL     1     141.762  78.494 220.229 -0.30 -0.00    +0.007 A  
DOCKED: ATOM     26  C   UNL     1     141.057  77.031 222.027 -0.38 -0.00    +0.007 A  
DOCKED: ATOM     27  C   UNL     1     141.627  79.599 221.077 -0.35 -0.01    +0.021 A  
DOCKED: ATOM     28  C   UNL     1     140.917  78.136 222.869 -0.46 -0.01    +0.021 A  
DOCKED: ATOM     29  C   UNL     1     141.198  79.421 222.396 -0.42 -0.01    +0.041 A  
DOCKED: ATOM     30  Cl  UNL     1     141.023  80.808 223.454 -0.62 +0.01    -0.084 Cl 
DOCKED: ENDBRANCH  21  24
DOCKED: ENDBRANCH  17  19
DOCKED: ENDBRANCH   1  17
DOCKED: TORSDOF 5
DOCKED: TER
DOCKED: ENDMDL
________________________________________________________________________________


    FINAL DOCKED STATE:
    ________________________


Run:   12 / 20
Time taken for this run:   0.045s

DOCKED: MODEL        12
DOCKED: USER    Run = 12
DOCKED: USER
DOCKED: USER    Estimated Free Energy of Binding    =  -8.24 kcal/mol  [=(1)+(2)+(3)-(4)]
DOCKED: USER
DOCKED: USER    (1) Final Intermolecular Energy     =  -9.73 kcal/mol
DOCKED: USER        vdW + Hbond + desolv Energy     =  -9.72 kcal/mol
DOCKED: USER        Electrostatic Energy            =  -0.01 kcal/mol
DOCKED: USER        Moving Ligand-Fixed Receptor    =  -9.73 kcal/mol
DOCKED: USER        Moving Ligand-Moving Receptor   =  +0.00 kcal/mol
DOCKED: USER    (2) Final Total Internal Energy     =  -1.64 kcal/mol
DOCKED: USER    (3) Torsional Free Energy           =  +1.49 kcal/mol
DOCKED: USER    (4) Unbound System's Energy         =  -1.64 kcal/mol
DOCKED: USER
DOCKED: USER
DOCKED: REMARK SMILES O=C(NCC(=O)N1CCC[C@@H]1c1ccc(Cl)cc1)c1ccc2cc(Cl)ccc2n1
DOCKED: REMARK SMILES IDX 4 1 3 2 2 3 1 4 19 6 20 7 29 8 21 9 28 10 22 11 27 12 23 13
DOCKED: REMARK SMILES IDX 26 14 24 15 25 16 5 17 6 18 7 19 8 20 11 21 9 22 10 23 12 24
DOCKED: REMARK SMILES IDX 13 25 18 26 14 27 17 28 15 29 16 30
DOCKED: REMARK H PARENT 3 5
DOCKED: USER                              x       y       z     vdW  Elec       q    Type
DOCKED: USER                           _______ _______ _______ _____ _____    ______ ____
DOCKED: ROOT
DOCKED: ATOM      1  C   UNL     1     138.618  74.938 221.146 -0.13 -0.05    +0.216 C  
DOCKED: ENDROOT
DOCKED: BRANCH   1   2
DOCKED: ATOM      2  N   UNL     1     139.376  74.217 222.166 -0.11 +0.07    -0.342 N  
DOCKED: ATOM      3  C   UNL     1     139.979  72.943 221.903 -0.19 -0.04    +0.270 C  
DOCKED: ATOM      4  O   UNL     1     140.423  72.686 220.750 -0.09 +0.04    -0.268 OA 
DOCKED: ATOM      5  H   UNL     1     139.379  74.594 223.140 -0.53 -0.03    +0.164 HD 
DOCKED: BRANCH   3   6
DOCKED: ATOM      6  C   UNL     1     140.035  71.920 222.965 -0.29 -0.02    +0.128 A  
DOCKED: ATOM      7  C   UNL     1     139.539  70.623 222.756 -0.24 -0.01    +0.035 A  
DOCKED: ATOM      8  N   UNL     1     140.531  72.258 224.189 -0.09 +0.03    -0.243 NA 
DOCKED: ATOM      9  C   UNL     1     139.555  69.698 223.802 -0.27 -0.00    +0.013 A  
DOCKED: ATOM     10  C   UNL     1     140.556  71.380 225.226 -0.50 -0.01    +0.071 A  
DOCKED: ATOM     11  C   UNL     1     140.058  70.070 225.054 -0.43 -0.00    +0.002 A  
DOCKED: ATOM     12  C   UNL     1     141.071  71.776 226.466 -0.69 -0.00    +0.030 A  
DOCKED: ATOM     13  C   UNL     1     140.078  69.172 226.131 -0.49 -0.01    +0.030 A  
DOCKED: ATOM     14  C   UNL     1     141.084  70.876 227.535 -0.65 -0.00    +0.023 A  
DOCKED: ATOM     15  C   UNL     1     140.588  69.576 227.370 -0.57 -0.01    +0.041 A  
DOCKED: ATOM     16  Cl  UNL     1     140.607  68.456 228.720 -0.68 +0.02    -0.084 Cl 
DOCKED: ENDBRANCH   3   6
DOCKED: ENDBRANCH   1   2
DOCKED: BRANCH   1  17
DOCKED: ATOM     17  C   UNL     1     138.337  76.348 221.592 -0.15 -0.05    +0.242 C  
DOCKED: ATOM     18  O   UNL     1     137.159  76.788 221.494 -0.07 +0.05    -0.273 OA 
DOCKED: BRANCH  17  19
DOCKED: ATOM     19  N   UNL     1     139.363  77.190 222.151 -0.15 +0.07    -0.334 N  
DOCKED: ATOM     20  C   UNL     1     139.069  78.505 222.699 -0.26 -0.02    +0.120 C  
DOCKED: ATOM     21  C   UNL     1     140.772  76.828 222.284 -0.35 -0.04    +0.115 C  
DOCKED: ATOM     22  C   UNL     1     140.408  79.096 223.120 -0.45 -0.01    +0.024 C  
DOCKED: ATOM     23  C   UNL     1     141.402  77.937 223.129 -0.40 -0.01    +0.032 C  
DOCKED: BRANCH  21  24
DOCKED: ATOM     24  C   UNL     1     141.434  76.714 220.926 -0.29 +0.01    -0.025 A  
DOCKED: ATOM     25  C   UNL     1     141.976  75.485 220.513 -0.29 -0.00    +0.007 A  
DOCKED: ATOM     26  C   UNL     1     141.552  77.832 220.081 -0.28 -0.00    +0.007 A  
DOCKED: ATOM     27  C   UNL     1     142.600  75.369 219.266 -0.26 -0.01    +0.021 A  
DOCKED: ATOM     28  C   UNL     1     142.171  77.712 218.834 -0.28 -0.01    +0.021 A  
DOCKED: ATOM     29  C   UNL     1     142.693  76.481 218.423 -0.27 -0.02    +0.041 A  
DOCKED: ATOM     30  Cl  UNL     1     143.469  76.331 216.859 -0.28 +0.05    -0.084 Cl 
DOCKED: ENDBRANCH  21  24
DOCKED: ENDBRANCH  17  19
DOCKED: ENDBRANCH   1  17
DOCKED: TORSDOF 5
DOCKED: TER
DOCKED: ENDMDL
________________________________________________________________________________


    FINAL DOCKED STATE:
    ________________________


Run:   13 / 20
Time taken for this run:   0.045s

DOCKED: MODEL        13
DOCKED: USER    Run = 13
DOCKED: USER
DOCKED: USER    Estimated Free Energy of Binding    =  -8.31 kcal/mol  [=(1)+(2)+(3)-(4)]
DOCKED: USER
DOCKED: USER    (1) Final Intermolecular Energy     =  -9.81 kcal/mol
DOCKED: USER        vdW + Hbond + desolv Energy     =  -9.81 kcal/mol
DOCKED: USER        Electrostatic Energy            =  +0.00 kcal/mol
DOCKED: USER        Moving Ligand-Fixed Receptor    =  -9.81 kcal/mol
DOCKED: USER        Moving Ligand-Moving Receptor   =  +0.00 kcal/mol
DOCKED: USER    (2) Final Total Internal Energy     =  -1.62 kcal/mol
DOCKED: USER    (3) Torsional Free Energy           =  +1.49 kcal/mol
DOCKED: USER    (4) Unbound System's Energy         =  -1.62 kcal/mol
DOCKED: USER
DOCKED: USER
DOCKED: REMARK SMILES O=C(NCC(=O)N1CCC[C@@H]1c1ccc(Cl)cc1)c1ccc2cc(Cl)ccc2n1
DOCKED: REMARK SMILES IDX 4 1 3 2 2 3 1 4 19 6 20 7 29 8 21 9 28 10 22 11 27 12 23 13
DOCKED: REMARK SMILES IDX 26 14 24 15 25 16 5 17 6 18 7 19 8 20 11 21 9 22 10 23 12 24
DOCKED: REMARK SMILES IDX 13 25 18 26 14 27 17 28 15 29 16 30
DOCKED: REMARK H PARENT 3 5
DOCKED: USER                              x       y       z     vdW  Elec       q    Type
DOCKED: USER                           _______ _______ _______ _____ _____    ______ ____
DOCKED: ROOT
DOCKED: ATOM      1  C   UNL     1     138.729  75.029 221.211 -0.14 -0.05    +0.216 C  
DOCKED: ENDROOT
DOCKED: BRANCH   1   2
DOCKED: ATOM      2  N   UNL     1     139.492  74.264 222.195 -0.11 +0.06    -0.342 N  
DOCKED: ATOM      3  C   UNL     1     140.007  72.958 221.905 -0.19 -0.04    +0.270 C  
DOCKED: ATOM      4  O   UNL     1     140.379  72.676 220.732 -0.09 +0.04    -0.268 OA 
DOCKED: ATOM      5  H   UNL     1     139.565  74.640 223.166 -0.50 -0.00    +0.164 HD 
DOCKED: BRANCH   3   6
DOCKED: ATOM      6  C   UNL     1     140.055  71.932 222.965 -0.29 -0.02    +0.128 A  
DOCKED: ATOM      7  C   UNL     1     139.553  70.638 222.751 -0.24 -0.01    +0.035 A  
DOCKED: ATOM      8  N   UNL     1     140.548  72.265 224.191 -0.08 +0.03    -0.243 NA 
DOCKED: ATOM      9  C   UNL     1     139.562  69.711 223.795 -0.27 -0.00    +0.013 A  
DOCKED: ATOM     10  C   UNL     1     140.566  71.385 225.226 -0.50 -0.01    +0.071 A  
DOCKED: ATOM     11  C   UNL     1     140.063  70.078 225.049 -0.43 -0.00    +0.002 A  
DOCKED: ATOM     12  C   UNL     1     141.080  71.776 226.469 -0.69 -0.00    +0.030 A  
DOCKED: ATOM     13  C   UNL     1     140.076  69.177 226.124 -0.49 -0.01    +0.030 A  
DOCKED: ATOM     14  C   UNL     1     141.086  70.873 227.536 -0.65 -0.00    +0.023 A  
DOCKED: ATOM     15  C   UNL     1     140.584  69.576 227.366 -0.57 -0.01    +0.041 A  
DOCKED: ATOM     16  Cl  UNL     1     140.593  68.454 228.714 -0.68 +0.02    -0.084 Cl 
DOCKED: ENDBRANCH   3   6
DOCKED: ENDBRANCH   1   2
DOCKED: BRANCH   1  17
DOCKED: ATOM     17  C   UNL     1     138.375  76.388 221.754 -0.17 -0.05    +0.242 C  
DOCKED: ATOM     18  O   UNL     1     137.162  76.729 221.783 -0.09 +0.05    -0.273 OA 
DOCKED: BRANCH  17  19
DOCKED: ATOM     19  N   UNL     1     139.376  77.290 222.266 -0.16 +0.07    -0.334 N  
DOCKED: ATOM     20  C   UNL     1     139.038  78.608 222.776 -0.26 -0.02    +0.120 C  
DOCKED: ATOM     21  C   UNL     1     140.800  76.989 222.382 -0.34 -0.04    +0.115 C  
DOCKED: ATOM     22  C   UNL     1     140.359  79.268 223.151 -0.45 -0.01    +0.024 C  
DOCKED: ATOM     23  C   UNL     1     141.400  78.150 223.178 -0.46 -0.01    +0.032 C  
DOCKED: BRANCH  21  24
DOCKED: ATOM     24  C   UNL     1     141.442  76.857 221.017 -0.28 +0.01    -0.025 A  
DOCKED: ATOM     25  C   UNL     1     141.959  75.617 220.603 -0.27 -0.00    +0.007 A  
DOCKED: ATOM     26  C   UNL     1     141.566  77.967 220.163 -0.28 -0.00    +0.007 A  
DOCKED: ATOM     27  C   UNL     1     142.564  75.484 219.349 -0.27 -0.01    +0.021 A  
DOCKED: ATOM     28  C   UNL     1     142.165  77.830 218.909 -0.29 -0.01    +0.021 A  
DOCKED: ATOM     29  C   UNL     1     142.663  76.590 218.498 -0.28 -0.02    +0.041 A  
DOCKED: ATOM     30  Cl  UNL     1     143.415  76.419 216.924 -0.29 +0.05    -0.084 Cl 
DOCKED: ENDBRANCH  21  24
DOCKED: ENDBRANCH  17  19
DOCKED: ENDBRANCH   1  17
DOCKED: TORSDOF 5
DOCKED: TER
DOCKED: ENDMDL
________________________________________________________________________________


    FINAL DOCKED STATE:
    ________________________


Run:   14 / 20
Time taken for this run:   0.045s

DOCKED: MODEL        14
DOCKED: USER    Run = 14
DOCKED: USER
DOCKED: USER    Estimated Free Energy of Binding    =  -8.91 kcal/mol  [=(1)+(2)+(3)-(4)]
DOCKED: USER
DOCKED: USER    (1) Final Intermolecular Energy     = -10.40 kcal/mol
DOCKED: USER        vdW + Hbond + desolv Energy     = -10.39 kcal/mol
DOCKED: USER        Electrostatic Energy            =  -0.01 kcal/mol
DOCKED: USER        Moving Ligand-Fixed Receptor    = -10.40 kcal/mol
DOCKED: USER        Moving Ligand-Moving Receptor   =  +0.00 kcal/mol
DOCKED: USER    (2) Final Total Internal Energy     =  -1.40 kcal/mol
DOCKED: USER    (3) Torsional Free Energy           =  +1.49 kcal/mol
DOCKED: USER    (4) Unbound System's Energy         =  -1.40 kcal/mol
DOCKED: USER
DOCKED: USER
DOCKED: REMARK SMILES O=C(NCC(=O)N1CCC[C@@H]1c1ccc(Cl)cc1)c1ccc2cc(Cl)ccc2n1
DOCKED: REMARK SMILES IDX 4 1 3 2 2 3 1 4 19 6 20 7 29 8 21 9 28 10 22 11 27 12 23 13
DOCKED: REMARK SMILES IDX 26 14 24 15 25 16 5 17 6 18 7 19 8 20 11 21 9 22 10 23 12 24
DOCKED: REMARK SMILES IDX 13 25 18 26 14 27 17 28 15 29 16 30
DOCKED: REMARK H PARENT 3 5
DOCKED: USER                              x       y       z     vdW  Elec       q    Type
DOCKED: USER                           _______ _______ _______ _____ _____    ______ ____
DOCKED: ROOT
DOCKED: ATOM      1  C   UNL     1     138.563  75.011 221.298 -0.14 -0.05    +0.216 C  
DOCKED: ENDROOT
DOCKED: BRANCH   1   2
DOCKED: ATOM      2  N   UNL     1     139.389  74.219 222.207 -0.10 +0.06    -0.342 N  
DOCKED: ATOM      3  C   UNL     1     139.801  72.884 221.887 -0.18 -0.04    +0.270 C  
DOCKED: ATOM      4  O   UNL     1     140.028  72.568 220.686 -0.07 +0.05    -0.268 OA 
DOCKED: ATOM      5  H   UNL     1     139.586  74.603 223.158 -0.49 -0.00    +0.164 HD 
DOCKED: BRANCH   3   6
DOCKED: ATOM      6  C   UNL     1     139.912  71.871 222.954 -0.29 -0.02    +0.128 A  
DOCKED: ATOM      7  C   UNL     1     139.461  70.555 222.760 -0.23 -0.01    +0.035 A  
DOCKED: ATOM      8  N   UNL     1     140.413  72.235 224.168 -0.13 +0.03    -0.243 NA 
DOCKED: ATOM      9  C   UNL     1     139.529  69.638 223.811 -0.27 -0.00    +0.013 A  
DOCKED: ATOM     10  C   UNL     1     140.487  71.366 225.209 -0.49 -0.01    +0.071 A  
DOCKED: ATOM     11  C   UNL     1     140.037  70.037 225.053 -0.43 -0.00    +0.002 A  
DOCKED: ATOM     12  C   UNL     1     141.006  71.789 226.439 -0.68 -0.00    +0.030 A  
DOCKED: ATOM     13  C   UNL     1     140.107  69.147 226.135 -0.50 -0.01    +0.030 A  
DOCKED: ATOM     14  C   UNL     1     141.070  70.897 227.513 -0.66 -0.00    +0.023 A  
DOCKED: ATOM     15  C   UNL     1     140.621  69.578 227.363 -0.56 -0.01    +0.041 A  
DOCKED: ATOM     16  Cl  UNL     1     140.702  68.469 228.720 -0.71 +0.02    -0.084 Cl 
DOCKED: ENDBRANCH   3   6
DOCKED: ENDBRANCH   1   2
DOCKED: BRANCH   1  17
DOCKED: ATOM     17  C   UNL     1     139.235  76.318 220.973 -0.12 -0.06    +0.242 C  
DOCKED: ATOM     18  O   UNL     1     138.618  77.390 221.217 -0.07 +0.06    -0.273 OA 
DOCKED: BRANCH  17  19
DOCKED: ATOM     19  N   UNL     1     140.566  76.376 220.423 -0.06 +0.11    -0.334 N  
DOCKED: ATOM     20  C   UNL     1     141.401  75.193 220.299 -0.20 -0.04    +0.120 C  
DOCKED: ATOM     21  C   UNL     1     141.205  77.576 219.890 -0.19 -0.05    +0.115 C  
DOCKED: ATOM     22  C   UNL     1     142.736  75.675 219.746 -0.33 -0.01    +0.024 C  
DOCKED: ATOM     23  C   UNL     1     142.495  77.091 219.226 -0.32 -0.02    +0.032 C  
DOCKED: BRANCH  21  24
DOCKED: ATOM     24  C   UNL     1     141.485  78.578 220.991 -0.33 +0.01    -0.025 A  
DOCKED: ATOM     25  C   UNL     1     141.833  79.899 220.663 -0.34 -0.00    +0.007 A  
DOCKED: ATOM     26  C   UNL     1     141.442  78.200 222.345 -0.44 -0.00    +0.007 A  
DOCKED: ATOM     27  C   UNL     1     142.105  80.832 221.669 -0.43 -0.01    +0.021 A  
DOCKED: ATOM     28  C   UNL     1     141.708  79.134 223.348 -0.58 -0.01    +0.021 A  
DOCKED: ATOM     29  C   UNL     1     142.037  80.451 223.013 -0.57 -0.01    +0.041 A  
DOCKED: ATOM     30  Cl  UNL     1     142.371  81.624 224.272 -0.47 +0.01    -0.084 Cl 
DOCKED: ENDBRANCH  21  24
DOCKED: ENDBRANCH  17  19
DOCKED: ENDBRANCH   1  17
DOCKED: TORSDOF 5
DOCKED: TER
DOCKED: ENDMDL
________________________________________________________________________________


    FINAL DOCKED STATE:
    ________________________


Run:   15 / 20
Time taken for this run:   0.045s

DOCKED: MODEL        15
DOCKED: USER    Run = 15
DOCKED: USER
DOCKED: USER    Estimated Free Energy of Binding    =  -8.30 kcal/mol  [=(1)+(2)+(3)-(4)]
DOCKED: USER
DOCKED: USER    (1) Final Intermolecular Energy     =  -9.79 kcal/mol
DOCKED: USER        vdW + Hbond + desolv Energy     =  -9.80 kcal/mol
DOCKED: USER        Electrostatic Energy            =  +0.00 kcal/mol
DOCKED: USER        Moving Ligand-Fixed Receptor    =  -9.79 kcal/mol
DOCKED: USER        Moving Ligand-Moving Receptor   =  +0.00 kcal/mol
DOCKED: USER    (2) Final Total Internal Energy     =  -1.64 kcal/mol
DOCKED: USER    (3) Torsional Free Energy           =  +1.49 kcal/mol
DOCKED: USER    (4) Unbound System's Energy         =  -1.64 kcal/mol
DOCKED: USER
DOCKED: USER
DOCKED: REMARK SMILES O=C(NCC(=O)N1CCC[C@@H]1c1ccc(Cl)cc1)c1ccc2cc(Cl)ccc2n1
DOCKED: REMARK SMILES IDX 4 1 3 2 2 3 1 4 19 6 20 7 29 8 21 9 28 10 22 11 27 12 23 13
DOCKED: REMARK SMILES IDX 26 14 24 15 25 16 5 17 6 18 7 19 8 20 11 21 9 22 10 23 12 24
DOCKED: REMARK SMILES IDX 13 25 18 26 14 27 17 28 15 29 16 30
DOCKED: REMARK H PARENT 3 5
DOCKED: USER                              x       y       z     vdW  Elec       q    Type
DOCKED: USER                           _______ _______ _______ _____ _____    ______ ____
DOCKED: ROOT
DOCKED: ATOM      1  C   UNL     1     138.695  75.029 221.180 -0.13 -0.05    +0.216 C  
DOCKED: ENDROOT
DOCKED: BRANCH   1   2
DOCKED: ATOM      2  N   UNL     1     139.467  74.261 222.155 -0.12 +0.06    -0.342 N  
DOCKED: ATOM      3  C   UNL     1     139.971  72.952 221.860 -0.19 -0.04    +0.270 C  
DOCKED: ATOM      4  O   UNL     1     140.326  72.667 220.683 -0.08 +0.04    -0.268 OA 
DOCKED: ATOM      5  H   UNL     1     139.554  74.638 223.125 -0.51 -0.01    +0.164 HD 
DOCKED: BRANCH   3   6
DOCKED: ATOM      6  C   UNL     1     140.027  71.927 222.921 -0.29 -0.02    +0.128 A  
DOCKED: ATOM      7  C   UNL     1     139.530  70.631 222.710 -0.23 -0.01    +0.035 A  
DOCKED: ATOM      8  N   UNL     1     140.522  72.263 224.145 -0.10 +0.03    -0.243 NA 
DOCKED: ATOM      9  C   UNL     1     139.547  69.705 223.754 -0.27 -0.00    +0.013 A  
DOCKED: ATOM     10  C   UNL     1     140.547  71.385 225.181 -0.49 -0.01    +0.071 A  
DOCKED: ATOM     11  C   UNL     1     140.050  70.075 225.007 -0.43 -0.00    +0.002 A  
DOCKED: ATOM     12  C   UNL     1     141.063  71.779 226.422 -0.68 -0.00    +0.030 A  
DOCKED: ATOM     13  C   UNL     1     140.070  69.175 226.083 -0.49 -0.01    +0.030 A  
DOCKED: ATOM     14  C   UNL     1     141.076  70.877 227.490 -0.66 -0.00    +0.023 A  
DOCKED: ATOM     15  C   UNL     1     140.580  69.577 227.322 -0.56 -0.01    +0.041 A  
DOCKED: ATOM     16  Cl  UNL     1     140.598  68.456 228.671 -0.70 +0.02    -0.084 Cl 
DOCKED: ENDBRANCH   3   6
DOCKED: ENDBRANCH   1   2
DOCKED: BRANCH   1  17
DOCKED: ATOM     17  C   UNL     1     138.364  76.394 221.721 -0.16 -0.05    +0.242 C  
DOCKED: ATOM     18  O   UNL     1     137.158  76.759 221.740 -0.09 +0.05    -0.273 OA 
DOCKED: BRANCH  17  19
DOCKED: ATOM     19  N   UNL     1     139.379  77.275 222.243 -0.15 +0.07    -0.334 N  
DOCKED: ATOM     20  C   UNL     1     139.059  78.589 222.775 -0.27 -0.02    +0.120 C  
DOCKED: ATOM     21  C   UNL     1     140.799  76.953 222.350 -0.35 -0.04    +0.115 C  
DOCKED: ATOM     22  C   UNL     1     140.390  79.226 223.156 -0.45 -0.01    +0.024 C  
DOCKED: ATOM     23  C   UNL     1     141.416  78.094 223.162 -0.45 -0.01    +0.032 C  
DOCKED: BRANCH  21  24
DOCKED: ATOM     24  C   UNL     1     141.435  76.835 220.980 -0.29 +0.01    -0.025 A  
DOCKED: ATOM     25  C   UNL     1     141.952  75.600 220.553 -0.28 -0.00    +0.007 A  
DOCKED: ATOM     26  C   UNL     1     141.552  77.953 220.135 -0.28 -0.00    +0.007 A  
DOCKED: ATOM     27  C   UNL     1     142.551  75.479 219.295 -0.26 -0.01    +0.021 A  
DOCKED: ATOM     28  C   UNL     1     142.145  77.828 218.877 -0.28 -0.01    +0.021 A  
DOCKED: ATOM     29  C   UNL     1     142.643  76.592 218.453 -0.27 -0.02    +0.041 A  
DOCKED: ATOM     30  Cl  UNL     1     143.388  76.436 216.874 -0.29 +0.05    -0.084 Cl 
DOCKED: ENDBRANCH  21  24
DOCKED: ENDBRANCH  17  19
DOCKED: ENDBRANCH   1  17
DOCKED: TORSDOF 5
DOCKED: TER
DOCKED: ENDMDL
________________________________________________________________________________


    FINAL DOCKED STATE:
    ________________________


Run:   16 / 20
Time taken for this run:   0.045s

DOCKED: MODEL        16
DOCKED: USER    Run = 16
DOCKED: USER
DOCKED: USER    Estimated Free Energy of Binding    =  -7.77 kcal/mol  [=(1)+(2)+(3)-(4)]
DOCKED: USER
DOCKED: USER    (1) Final Intermolecular Energy     =  -9.26 kcal/mol
DOCKED: USER        vdW + Hbond + desolv Energy     =  -9.20 kcal/mol
DOCKED: USER        Electrostatic Energy            =  -0.07 kcal/mol
DOCKED: USER        Moving Ligand-Fixed Receptor    =  -9.26 kcal/mol
DOCKED: USER        Moving Ligand-Moving Receptor   =  +0.00 kcal/mol
DOCKED: USER    (2) Final Total Internal Energy     =  -1.84 kcal/mol
DOCKED: USER    (3) Torsional Free Energy           =  +1.49 kcal/mol
DOCKED: USER    (4) Unbound System's Energy         =  -1.84 kcal/mol
DOCKED: USER
DOCKED: USER
DOCKED: REMARK SMILES O=C(NCC(=O)N1CCC[C@@H]1c1ccc(Cl)cc1)c1ccc2cc(Cl)ccc2n1
DOCKED: REMARK SMILES IDX 4 1 3 2 2 3 1 4 19 6 20 7 29 8 21 9 28 10 22 11 27 12 23 13
DOCKED: REMARK SMILES IDX 26 14 24 15 25 16 5 17 6 18 7 19 8 20 11 21 9 22 10 23 12 24
DOCKED: REMARK SMILES IDX 13 25 18 26 14 27 17 28 15 29 16 30
DOCKED: REMARK H PARENT 3 5
DOCKED: USER                              x       y       z     vdW  Elec       q    Type
DOCKED: USER                           _______ _______ _______ _____ _____    ______ ____
DOCKED: ROOT
DOCKED: ATOM      1  C   UNL     1     137.887  74.384 221.047 -0.09 -0.05    +0.216 C  
DOCKED: ENDROOT
DOCKED: BRANCH   1   2
DOCKED: ATOM      2  N   UNL     1     138.795  73.710 221.973 -0.11 +0.09    -0.342 N  
DOCKED: ATOM      3  C   UNL     1     139.303  72.395 221.713 -0.14 -0.05    +0.270 C  
DOCKED: ATOM      4  O   UNL     1     139.524  72.031 220.525 -0.04 +0.05    -0.268 OA 
DOCKED: ATOM      5  H   UNL     1     138.985  74.160 222.895 -0.55 -0.07    +0.164 HD 
DOCKED: BRANCH   3   6
DOCKED: ATOM      6  C   UNL     1     139.519  71.454 222.829 -0.25 -0.03    +0.128 A  
DOCKED: ATOM      7  C   UNL     1     139.073  70.125 222.760 -0.20 -0.01    +0.035 A  
DOCKED: ATOM      8  N   UNL     1     140.117  71.901 223.970 -0.27 +0.04    -0.243 NA 
DOCKED: ATOM      9  C   UNL     1     139.243  69.279 223.857 -0.28 -0.00    +0.013 A  
DOCKED: ATOM     10  C   UNL     1     140.292  71.102 225.054 -0.47 -0.01    +0.071 A  
DOCKED: ATOM     11  C   UNL     1     139.849  69.762 225.023 -0.41 -0.00    +0.002 A  
DOCKED: ATOM     12  C   UNL     1     140.909  71.609 226.205 -0.64 -0.00    +0.030 A  
DOCKED: ATOM     13  C   UNL     1     140.025  68.945 226.149 -0.51 -0.01    +0.030 A  
DOCKED: ATOM     14  C   UNL     1     141.077  70.789 227.325 -0.64 -0.00    +0.023 A  
DOCKED: ATOM     15  C   UNL     1     140.636  69.460 227.299 -0.57 -0.01    +0.041 A  
DOCKED: ATOM     16  Cl  UNL     1     140.848  68.442 228.712 -0.70 +0.02    -0.084 Cl 
DOCKED: ENDBRANCH   3   6
DOCKED: ENDBRANCH   1   2
DOCKED: BRANCH   1  17
DOCKED: ATOM     17  C   UNL     1     138.645  75.331 220.155 -0.04 -0.05    +0.242 C  
DOCKED: ATOM     18  O   UNL     1     138.503  75.228 218.907 -0.01 +0.06    -0.273 OA 
DOCKED: BRANCH  17  19
DOCKED: ATOM     19  N   UNL     1     139.499  76.363 220.688 -0.04 +0.09    -0.334 N  
DOCKED: ATOM     20  C   UNL     1     139.292  77.769 220.383 -0.08 -0.03    +0.120 C  
DOCKED: ATOM     21  C   UNL     1     140.609  76.144 221.610 -0.31 -0.03    +0.115 C  
DOCKED: ATOM     22  C   UNL     1     140.425  78.521 221.068 -0.24 -0.01    +0.024 C  
DOCKED: ATOM     23  C   UNL     1     141.051  77.539 222.057 -0.39 -0.01    +0.032 C  
DOCKED: BRANCH  21  24
DOCKED: ATOM     24  C   UNL     1     141.737  75.390 220.935 -0.28 +0.01    -0.025 A  
DOCKED: ATOM     25  C   UNL     1     141.911  74.019 221.188 -0.22 -0.00    +0.007 A  
DOCKED: ATOM     26  C   UNL     1     142.642  76.048 220.084 -0.32 -0.00    +0.007 A  
DOCKED: ATOM     27  C   UNL     1     142.955  73.313 220.579 -0.29 -0.00    +0.021 A  
DOCKED: ATOM     28  C   UNL     1     143.679  75.340 219.473 -0.38 -0.01    +0.021 A  
DOCKED: ATOM     29  C   UNL     1     143.836  73.972 219.717 -0.33 -0.01    +0.041 A  
DOCKED: ATOM     30  Cl  UNL     1     145.139  73.084 218.951 -0.40 -0.01    -0.084 Cl 
DOCKED: ENDBRANCH  21  24
DOCKED: ENDBRANCH  17  19
DOCKED: ENDBRANCH   1  17
DOCKED: TORSDOF 5
DOCKED: TER
DOCKED: ENDMDL
________________________________________________________________________________


    FINAL DOCKED STATE:
    ________________________


Run:   17 / 20
Time taken for this run:   0.045s

DOCKED: MODEL        17
DOCKED: USER    Run = 17
DOCKED: USER
DOCKED: USER    Estimated Free Energy of Binding    =  -7.97 kcal/mol  [=(1)+(2)+(3)-(4)]
DOCKED: USER
DOCKED: USER    (1) Final Intermolecular Energy     =  -9.46 kcal/mol
DOCKED: USER        vdW + Hbond + desolv Energy     =  -9.40 kcal/mol
DOCKED: USER        Electrostatic Energy            =  -0.06 kcal/mol
DOCKED: USER        Moving Ligand-Fixed Receptor    =  -9.46 kcal/mol
DOCKED: USER        Moving Ligand-Moving Receptor   =  +0.00 kcal/mol
DOCKED: USER    (2) Final Total Internal Energy     =  -1.33 kcal/mol
DOCKED: USER    (3) Torsional Free Energy           =  +1.49 kcal/mol
DOCKED: USER    (4) Unbound System's Energy         =  -1.33 kcal/mol
DOCKED: USER
DOCKED: USER
DOCKED: REMARK SMILES O=C(NCC(=O)N1CCC[C@@H]1c1ccc(Cl)cc1)c1ccc2cc(Cl)ccc2n1
DOCKED: REMARK SMILES IDX 4 1 3 2 2 3 1 4 19 6 20 7 29 8 21 9 28 10 22 11 27 12 23 13
DOCKED: REMARK SMILES IDX 26 14 24 15 25 16 5 17 6 18 7 19 8 20 11 21 9 22 10 23 12 24
DOCKED: REMARK SMILES IDX 13 25 18 26 14 27 17 28 15 29 16 30
DOCKED: REMARK H PARENT 3 5
DOCKED: USER                              x       y       z     vdW  Elec       q    Type
DOCKED: USER                           _______ _______ _______ _____ _____    ______ ____
DOCKED: ROOT
DOCKED: ATOM      1  C   UNL     1     140.359  71.207 221.547 -0.13 -0.03    +0.216 C  
DOCKED: ENDROOT
DOCKED: BRANCH   1   2
DOCKED: ATOM      2  N   UNL     1     140.476  72.477 220.833 -0.06 +0.05    -0.342 N  
DOCKED: ATOM      3  C   UNL     1     141.722  73.179 220.734 -0.15 -0.04    +0.270 C  
DOCKED: ATOM      4  O   UNL     1     142.803  72.531 220.675 -0.17 +0.04    -0.268 OA 
DOCKED: ATOM      5  H   UNL     1     139.603  72.931 220.484 +0.04 -0.03    +0.164 HD 
DOCKED: BRANCH   3   6
DOCKED: ATOM      6  C   UNL     1     141.741  74.654 220.749 -0.24 -0.04    +0.128 A  
DOCKED: ATOM      7  C   UNL     1     142.572  75.383 219.882 -0.30 -0.02    +0.035 A  
DOCKED: ATOM      8  N   UNL     1     140.976  75.320 221.660 -0.37 +0.05    -0.243 NA 
DOCKED: ATOM      9  C   UNL     1     142.606  76.776 219.965 -0.32 -0.01    +0.013 A  
DOCKED: ATOM     10  C   UNL     1     140.992  76.674 221.765 -0.33 -0.03    +0.071 A  
DOCKED: ATOM     11  C   UNL     1     141.821  77.438 220.915 -0.25 -0.00    +0.002 A  
DOCKED: ATOM     12  C   UNL     1     140.190  77.312 222.720 -0.32 -0.01    +0.030 A  
DOCKED: ATOM     13  C   UNL     1     141.840  78.835 221.035 -0.33 -0.02    +0.030 A  
DOCKED: ATOM     14  C   UNL     1     140.219  78.705 222.836 -0.39 -0.01    +0.023 A  
DOCKED: ATOM     15  C   UNL     1     141.042  79.467 221.996 -0.36 -0.01    +0.041 A  
DOCKED: ATOM     16  Cl  UNL     1     141.071  81.213 222.154 -0.51 +0.02    -0.084 Cl 
DOCKED: ENDBRANCH   3   6
DOCKED: ENDBRANCH   1   2
DOCKED: BRANCH   1  17
DOCKED: ATOM     17  C   UNL     1     139.814  71.427 222.933 -0.23 -0.04    +0.242 C  
DOCKED: ATOM     18  O   UNL     1     140.454  72.173 223.722 -0.36 +0.03    -0.273 OA 
DOCKED: BRANCH  17  19
DOCKED: ATOM     19  N   UNL     1     138.574  70.835 223.368 -0.11 +0.07    -0.334 N  
DOCKED: ATOM     20  C   UNL     1     137.337  71.597 223.435 -0.15 -0.03    +0.120 C  
DOCKED: ATOM     21  C   UNL     1     138.392  69.433 223.734 -0.24 -0.02    +0.115 C  
DOCKED: ATOM     22  C   UNL     1     136.287  70.649 223.998 -0.20 -0.00    +0.024 C  
DOCKED: ATOM     23  C   UNL     1     136.882  69.246 223.898 -0.22 -0.00    +0.032 C  
DOCKED: BRANCH  21  24
DOCKED: ATOM     24  C   UNL     1     139.138  69.104 225.011 -0.39 +0.00    -0.025 A  
DOCKED: ATOM     25  C   UNL     1     139.556  70.140 225.864 -0.44 -0.00    +0.007 A  
DOCKED: ATOM     26  C   UNL     1     139.455  67.775 225.344 -0.48 -0.00    +0.007 A  
DOCKED: ATOM     27  C   UNL     1     140.255  69.851 227.040 -0.56 -0.00    +0.021 A  
DOCKED: ATOM     28  C   UNL     1     140.148  67.489 226.523 -0.65 -0.00    +0.021 A  
DOCKED: ATOM     29  C   UNL     1     140.546  68.524 227.374 -0.63 -0.01    +0.041 A  
DOCKED: ATOM     30  Cl  UNL     1     141.416  68.164 228.853 -0.54 +0.02    -0.084 Cl 
DOCKED: ENDBRANCH  21  24
DOCKED: ENDBRANCH  17  19
DOCKED: ENDBRANCH   1  17
DOCKED: TORSDOF 5
DOCKED: TER
DOCKED: ENDMDL
________________________________________________________________________________


    FINAL DOCKED STATE:
    ________________________


Run:   18 / 20
Time taken for this run:   0.045s

DOCKED: MODEL        18
DOCKED: USER    Run = 18
DOCKED: USER
DOCKED: USER    Estimated Free Energy of Binding    =  -6.81 kcal/mol  [=(1)+(2)+(3)-(4)]
DOCKED: USER
DOCKED: USER    (1) Final Intermolecular Energy     =  -8.30 kcal/mol
DOCKED: USER        vdW + Hbond + desolv Energy     =  -8.30 kcal/mol
DOCKED: USER        Electrostatic Energy            =  +0.00 kcal/mol
DOCKED: USER        Moving Ligand-Fixed Receptor    =  -8.30 kcal/mol
DOCKED: USER        Moving Ligand-Moving Receptor   =  +0.00 kcal/mol
DOCKED: USER    (2) Final Total Internal Energy     =  -2.55 kcal/mol
DOCKED: USER    (3) Torsional Free Energy           =  +1.49 kcal/mol
DOCKED: USER    (4) Unbound System's Energy         =  -2.55 kcal/mol
DOCKED: USER
DOCKED: USER
DOCKED: REMARK SMILES O=C(NCC(=O)N1CCC[C@@H]1c1ccc(Cl)cc1)c1ccc2cc(Cl)ccc2n1
DOCKED: REMARK SMILES IDX 4 1 3 2 2 3 1 4 19 6 20 7 29 8 21 9 28 10 22 11 27 12 23 13
DOCKED: REMARK SMILES IDX 26 14 24 15 25 16 5 17 6 18 7 19 8 20 11 21 9 22 10 23 12 24
DOCKED: REMARK SMILES IDX 13 25 18 26 14 27 17 28 15 29 16 30
DOCKED: REMARK H PARENT 3 5
DOCKED: USER                              x       y       z     vdW  Elec       q    Type
DOCKED: USER                           _______ _______ _______ _____ _____    ______ ____
DOCKED: ROOT
DOCKED: ATOM      1  C   UNL     1     136.346  74.102 222.034 -0.09 -0.05    +0.216 C  
DOCKED: ENDROOT
DOCKED: BRANCH   1   2
DOCKED: ATOM      2  N   UNL     1     137.353  73.133 222.464 -0.01 +0.12    -0.342 N  
DOCKED: ATOM      3  C   UNL     1     137.088  71.724 222.484 -0.09 -0.06    +0.270 C  
DOCKED: ATOM      4  O   UNL     1     136.320  71.218 221.621 -0.02 +0.05    -0.268 OA 
DOCKED: ATOM      5  H   UNL     1     138.245  73.493 222.869 -0.52 -0.10    +0.164 HD 
DOCKED: BRANCH   3   6
DOCKED: ATOM      6  C   UNL     1     137.675  70.879 223.542 -0.19 -0.03    +0.128 A  
DOCKED: ATOM      7  C   UNL     1     137.072  69.671 223.929 -0.22 -0.00    +0.035 A  
DOCKED: ATOM      8  N   UNL     1     138.796  71.306 224.190 -0.17 +0.07    -0.243 NA 
DOCKED: ATOM      9  C   UNL     1     137.623  68.926 224.973 -0.29 -0.00    +0.013 A  
DOCKED: ATOM     10  C   UNL     1     139.351  70.604 225.212 -0.35 -0.01    +0.071 A  
DOCKED: ATOM     11  C   UNL     1     138.767  69.390 225.633 -0.41 -0.00    +0.002 A  
DOCKED: ATOM     12  C   UNL     1     140.500  71.087 225.850 -0.57 -0.00    +0.030 A  
DOCKED: ATOM     13  C   UNL     1     139.341  68.674 226.694 -0.50 -0.00    +0.030 A  
DOCKED: ATOM     14  C   UNL     1     141.063  70.370 226.909 -0.58 -0.00    +0.023 A  
DOCKED: ATOM     15  C   UNL     1     140.485  69.165 227.333 -0.58 -0.01    +0.041 A  
DOCKED: ATOM     16  Cl  UNL     1     141.199  68.277 228.666 -0.66 +0.02    -0.084 Cl 
DOCKED: ENDBRANCH   3   6
DOCKED: ENDBRANCH   1   2
DOCKED: BRANCH   1  17
DOCKED: ATOM     17  C   UNL     1     135.007  73.779 222.641 -0.07 -0.04    +0.242 C  
DOCKED: ATOM     18  O   UNL     1     134.181  73.112 221.961 -0.01 +0.04    -0.273 OA 
DOCKED: BRANCH  17  19
DOCKED: ATOM     19  N   UNL     1     134.658  74.185 223.979 -0.09 +0.05    -0.334 N  
DOCKED: ATOM     20  C   UNL     1     135.438  75.166 224.716 -0.31 -0.02    +0.120 C  
DOCKED: ATOM     21  C   UNL     1     133.490  73.720 224.722 -0.15 -0.01    +0.115 C  
DOCKED: ATOM     22  C   UNL     1     134.796  75.268 226.093 -0.36 +0.00    +0.024 C  
DOCKED: ATOM     23  C   UNL     1     133.430  74.594 225.977 -0.32 -0.00    +0.032 C  
DOCKED: BRANCH  21  24
DOCKED: ATOM     24  C   UNL     1     133.616  72.251 225.070 -0.19 +0.00    -0.025 A  
DOCKED: ATOM     25  C   UNL     1     133.344  71.276 224.095 -0.08 -0.00    +0.007 A  
DOCKED: ATOM     26  C   UNL     1     133.965  71.840 226.368 -0.37 -0.00    +0.007 A  
DOCKED: ATOM     27  C   UNL     1     133.446  69.916 224.405 -0.11 -0.00    +0.021 A  
DOCKED: ATOM     28  C   UNL     1     134.072  70.481 226.674 -0.38 -0.00    +0.021 A  
DOCKED: ATOM     29  C   UNL     1     133.815  69.517 225.693 -0.26 -0.00    +0.041 A  
DOCKED: ATOM     30  Cl  UNL     1     133.949  67.812 226.078 -0.35 +0.01    -0.084 Cl 
DOCKED: ENDBRANCH  21  24
DOCKED: ENDBRANCH  17  19
DOCKED: ENDBRANCH   1  17
DOCKED: TORSDOF 5
DOCKED: TER
DOCKED: ENDMDL
________________________________________________________________________________


    FINAL DOCKED STATE:
    ________________________


Run:   19 / 20
Time taken for this run:   0.045s

DOCKED: MODEL        19
DOCKED: USER    Run = 19
DOCKED: USER
DOCKED: USER    Estimated Free Energy of Binding    =  -8.65 kcal/mol  [=(1)+(2)+(3)-(4)]
DOCKED: USER
DOCKED: USER    (1) Final Intermolecular Energy     = -10.14 kcal/mol
DOCKED: USER        vdW + Hbond + desolv Energy     = -10.11 kcal/mol
DOCKED: USER        Electrostatic Energy            =  -0.03 kcal/mol
DOCKED: USER        Moving Ligand-Fixed Receptor    = -10.14 kcal/mol
DOCKED: USER        Moving Ligand-Moving Receptor   =  +0.00 kcal/mol
DOCKED: USER    (2) Final Total Internal Energy     =  -1.07 kcal/mol
DOCKED: USER    (3) Torsional Free Energy           =  +1.49 kcal/mol
DOCKED: USER    (4) Unbound System's Energy         =  -1.07 kcal/mol
DOCKED: USER
DOCKED: USER
DOCKED: REMARK SMILES O=C(NCC(=O)N1CCC[C@@H]1c1ccc(Cl)cc1)c1ccc2cc(Cl)ccc2n1
DOCKED: REMARK SMILES IDX 4 1 3 2 2 3 1 4 19 6 20 7 29 8 21 9 28 10 22 11 27 12 23 13
DOCKED: REMARK SMILES IDX 26 14 24 15 25 16 5 17 6 18 7 19 8 20 11 21 9 22 10 23 12 24
DOCKED: REMARK SMILES IDX 13 25 18 26 14 27 17 28 15 29 16 30
DOCKED: REMARK H PARENT 3 5
DOCKED: USER                              x       y       z     vdW  Elec       q    Type
DOCKED: USER                           _______ _______ _______ _____ _____    ______ ____
DOCKED: ROOT
DOCKED: ATOM      1  C   UNL     1     138.907  74.073 220.891 -0.11 -0.05    +0.216 C  
DOCKED: ENDROOT
DOCKED: BRANCH   1   2
DOCKED: ATOM      2  N   UNL     1     139.119  72.709 221.371 -0.07 +0.07    -0.342 N  
DOCKED: ATOM      3  C   UNL     1     138.144  72.029 222.174 -0.10 -0.07    +0.270 C  
DOCKED: ATOM      4  O   UNL     1     136.916  72.255 221.994 -0.07 +0.06    -0.268 OA 
DOCKED: ATOM      5  H   UNL     1     140.052  72.267 221.214 +0.04 -0.03    +0.164 HD 
DOCKED: BRANCH   3   6
DOCKED: ATOM      6  C   UNL     1     138.581  71.105 223.238 -0.21 -0.03    +0.128 A  
DOCKED: ATOM      7  C   UNL     1     138.097  69.788 223.305 -0.22 -0.01    +0.035 A  
DOCKED: ATOM      8  N   UNL     1     139.429  71.556 224.205 -0.20 +0.06    -0.243 NA 
DOCKED: ATOM      9  C   UNL     1     138.487  68.959 224.359 -0.33 -0.00    +0.013 A  
DOCKED: ATOM     10  C   UNL     1     139.822  70.774 225.244 -0.43 -0.01    +0.071 A  
DOCKED: ATOM     11  C   UNL     1     139.350  69.447 225.347 -0.42 -0.00    +0.002 A  
DOCKED: ATOM     12  C   UNL     1     140.692  71.285 226.215 -0.62 -0.00    +0.030 A  
DOCKED: ATOM     13  C   UNL     1     139.752  68.648 226.427 -0.55 -0.00    +0.030 A  
DOCKED: ATOM     14  C   UNL     1     141.085  70.483 227.290 -0.59 -0.00    +0.023 A  
DOCKED: ATOM     15  C   UNL     1     140.616  69.167 227.398 -0.59 -0.01    +0.041 A  
DOCKED: ATOM     16  Cl  UNL     1     141.114  68.172 228.754 -0.67 +0.02    -0.084 Cl 
DOCKED: ENDBRANCH   3   6
DOCKED: ENDBRANCH   1   2
DOCKED: BRANCH   1  17
DOCKED: ATOM     17  C   UNL     1     139.924  75.009 221.488 -0.21 -0.05    +0.242 C  
DOCKED: ATOM     18  O   UNL     1     139.679  75.530 222.609 -0.49 +0.03    -0.273 OA 
DOCKED: BRANCH  17  19
DOCKED: ATOM     19  N   UNL     1     141.173  75.298 220.830 -0.13 +0.10    -0.334 N  
DOCKED: ATOM     20  C   UNL     1     142.263  74.337 220.787 -0.22 -0.03    +0.120 C  
DOCKED: ATOM     21  C   UNL     1     141.477  76.528 220.104 -0.22 -0.05    +0.115 C  
DOCKED: ATOM     22  C   UNL     1     143.414  75.036 220.075 -0.37 -0.01    +0.024 C  
DOCKED: ATOM     23  C   UNL     1     142.814  76.270 219.404 -0.34 -0.02    +0.032 C  
DOCKED: BRANCH  21  24
DOCKED: ATOM     24  C   UNL     1     141.559  77.711 221.047 -0.30 +0.01    -0.025 A  
DOCKED: ATOM     25  C   UNL     1     141.789  78.999 220.535 -0.31 -0.00    +0.007 A  
DOCKED: ATOM     26  C   UNL     1     141.448  77.539 222.438 -0.21 -0.00    +0.007 A  
DOCKED: ATOM     27  C   UNL     1     141.877  80.098 221.395 -0.41 -0.01    +0.021 A  
DOCKED: ATOM     28  C   UNL     1     141.531  78.639 223.294 -0.57 -0.01    +0.021 A  
DOCKED: ATOM     29  C   UNL     1     141.743  79.920 222.775 -0.52 -0.01    +0.041 A  
DOCKED: ATOM     30  Cl  UNL     1     141.847  81.301 223.850 -0.67 +0.01    -0.084 Cl 
DOCKED: ENDBRANCH  21  24
DOCKED: ENDBRANCH  17  19
DOCKED: ENDBRANCH   1  17
DOCKED: TORSDOF 5
DOCKED: TER
DOCKED: ENDMDL
________________________________________________________________________________


    FINAL DOCKED STATE:
    ________________________


Run:   20 / 20
Time taken for this run:   0.045s

DOCKED: MODEL        20
DOCKED: USER    Run = 20
DOCKED: USER
DOCKED: USER    Estimated Free Energy of Binding    =  -8.34 kcal/mol  [=(1)+(2)+(3)-(4)]
DOCKED: USER
DOCKED: USER    (1) Final Intermolecular Energy     =  -9.83 kcal/mol
DOCKED: USER        vdW + Hbond + desolv Energy     =  -9.83 kcal/mol
DOCKED: USER        Electrostatic Energy            =  +0.00 kcal/mol
DOCKED: USER        Moving Ligand-Fixed Receptor    =  -9.83 kcal/mol
DOCKED: USER        Moving Ligand-Moving Receptor   =  +0.00 kcal/mol
DOCKED: USER    (2) Final Total Internal Energy     =  -1.60 kcal/mol
DOCKED: USER    (3) Torsional Free Energy           =  +1.49 kcal/mol
DOCKED: USER    (4) Unbound System's Energy         =  -1.60 kcal/mol
DOCKED: USER
DOCKED: USER
DOCKED: REMARK SMILES O=C(NCC(=O)N1CCC[C@@H]1c1ccc(Cl)cc1)c1ccc2cc(Cl)ccc2n1
DOCKED: REMARK SMILES IDX 4 1 3 2 2 3 1 4 19 6 20 7 29 8 21 9 28 10 22 11 27 12 23 13
DOCKED: REMARK SMILES IDX 26 14 24 15 25 16 5 17 6 18 7 19 8 20 11 21 9 22 10 23 12 24
DOCKED: REMARK SMILES IDX 13 25 18 26 14 27 17 28 15 29 16 30
DOCKED: REMARK H PARENT 3 5
DOCKED: USER                              x       y       z     vdW  Elec       q    Type
DOCKED: USER                           _______ _______ _______ _____ _____    ______ ____
DOCKED: ROOT
DOCKED: ATOM      1  C   UNL     1     138.734  75.034 221.206 -0.14 -0.05    +0.216 C  
DOCKED: ENDROOT
DOCKED: BRANCH   1   2
DOCKED: ATOM      2  N   UNL     1     139.490  74.263 222.191 -0.11 +0.06    -0.342 N  
DOCKED: ATOM      3  C   UNL     1     139.992  72.951 221.902 -0.19 -0.04    +0.270 C  
DOCKED: ATOM      4  O   UNL     1     140.362  72.665 220.730 -0.09 +0.04    -0.268 OA 
DOCKED: ATOM      5  H   UNL     1     139.566  74.638 223.162 -0.50 -0.00    +0.164 HD 
DOCKED: BRANCH   3   6
DOCKED: ATOM      6  C   UNL     1     140.031  71.926 222.963 -0.29 -0.02    +0.128 A  
DOCKED: ATOM      7  C   UNL     1     139.507  70.640 222.754 -0.23 -0.01    +0.035 A  
DOCKED: ATOM      8  N   UNL     1     140.536  72.252 224.186 -0.09 +0.03    -0.243 NA 
DOCKED: ATOM      9  C   UNL     1     139.507  69.714 223.798 -0.28 -0.00    +0.013 A  
DOCKED: ATOM     10  C   UNL     1     140.546  71.373 225.222 -0.50 -0.01    +0.071 A  
DOCKED: ATOM     11  C   UNL     1     140.021  70.074 225.050 -0.43 -0.00    +0.002 A  
DOCKED: ATOM     12  C   UNL     1     141.074  71.757 226.461 -0.69 -0.00    +0.030 A  
DOCKED: ATOM     13  C   UNL     1     140.026  69.174 226.125 -0.49 -0.01    +0.030 A  
DOCKED: ATOM     14  C   UNL     1     141.071  70.856 227.529 -0.66 -0.00    +0.023 A  
DOCKED: ATOM     15  C   UNL     1     140.548  69.566 227.364 -0.57 -0.01    +0.041 A  
DOCKED: ATOM     16  Cl  UNL     1     140.547  68.445 228.713 -0.67 +0.02    -0.084 Cl 
DOCKED: ENDBRANCH   3   6
DOCKED: ENDBRANCH   1   2
DOCKED: BRANCH   1  17
DOCKED: ATOM     17  C   UNL     1     138.345  76.375 221.769 -0.17 -0.05    +0.242 C  
DOCKED: ATOM     18  O   UNL     1     137.120  76.668 221.836 -0.09 +0.05    -0.273 OA 
DOCKED: BRANCH  17  19
DOCKED: ATOM     19  N   UNL     1     139.325  77.312 222.256 -0.15 +0.07    -0.334 N  
DOCKED: ATOM     20  C   UNL     1     138.957  78.636 222.732 -0.26 -0.02    +0.120 C  
DOCKED: ATOM     21  C   UNL     1     140.756  77.047 222.379 -0.35 -0.04    +0.115 C  
DOCKED: ATOM     22  C   UNL     1     140.262  79.334 223.089 -0.43 -0.00    +0.024 C  
DOCKED: ATOM     23  C   UNL     1     141.328  78.242 223.144 -0.49 -0.01    +0.032 C  
DOCKED: BRANCH  21  24
DOCKED: ATOM     24  C   UNL     1     141.400  76.895 221.016 -0.29 +0.01    -0.025 A  
DOCKED: ATOM     25  C   UNL     1     141.904  75.646 220.616 -0.27 -0.00    +0.007 A  
DOCKED: ATOM     26  C   UNL     1     141.538  77.996 220.152 -0.28 -0.00    +0.007 A  
DOCKED: ATOM     27  C   UNL     1     142.511  75.494 219.365 -0.26 -0.01    +0.021 A  
DOCKED: ATOM     28  C   UNL     1     142.139  77.839 218.901 -0.28 -0.01    +0.021 A  
DOCKED: ATOM     29  C   UNL     1     142.624  76.589 218.504 -0.27 -0.02    +0.041 A  
DOCKED: ATOM     30  Cl  UNL     1     143.379  76.394 216.934 -0.29 +0.05    -0.084 Cl 
DOCKED: ENDBRANCH  21  24
DOCKED: ENDBRANCH  17  19
DOCKED: ENDBRANCH   1  17
DOCKED: TORSDOF 5
DOCKED: TER
DOCKED: ENDMDL
________________________________________________________________________________


    CLUSTERING HISTOGRAM
    ____________________


________________________________________________________________________________
     |           |     |           |     |
Clus | Lowest    | Run | Mean      | Num | Histogram
-ter | Binding   |     | Binding   | in  |
Rank | Energy    |     | Energy    | Clus|    5    10   15   20   25   30   35
_____|___________|_____|___________|_____|____:____|____:____|____:____|____:___
   1 |     -8.93 |   8 |     -8.67 |   5 |#####
   2 |     -8.38 |   7 |     -8.34 |   3 |###
   3 |     -8.34 |   6 |     -8.22 |   7 |#######
   4 |     -8.12 |   3 |     -8.12 |   1 |#
   5 |     -7.97 |  17 |     -7.97 |   1 |#
   6 |     -7.23 |   9 |     -7.23 |   1 |#
   7 |     -6.86 |   4 |     -6.86 |   1 |#
   8 |     -6.81 |  18 |     -6.81 |   1 |#
_____|___________|_____|___________|_____|______________________________________


    RMSD TABLE
    __________


_______________________________________________________________________
     |      |      |           |         |                 |
Rank | Sub- | Run  | Binding   | Cluster | Reference       | Grep
     | Rank |      | Energy    | RMSD    | RMSD            | Pattern
_____|______|______|___________|_________|_________________|___________
   1      1      8       -8.93      0.00    270.77           RANKING
   1      2     14       -8.91      0.09    270.82           RANKING
   1      3     11       -8.76      1.56    270.42           RANKING
   1      4     19       -8.65      1.34    270.56           RANKING
   1      5     10       -8.11      1.84    270.59           RANKING
   2      1      7       -8.38      0.00    270.37           RANKING
   2      2      5       -8.34      0.25    270.26           RANKING
   2      3      1       -8.32      0.21    270.29           RANKING
   3      1      6       -8.34      0.00    270.46           RANKING
   3      2     20       -8.34      0.04    270.45           RANKING
   3      3     13       -8.31      0.06    270.46           RANKING
   3      4     15       -8.30      0.09    270.43           RANKING
   3      5      2       -8.27      0.22    270.39           RANKING
   3      6     12       -8.24      0.17    270.40           RANKING
   3      7     16       -7.77      1.51    269.99           RANKING
   4      1      3       -8.12      0.00    270.14           RANKING
   5      1     17       -7.97      0.00    270.28           RANKING
   6      1      9       -7.23      0.00    269.62           RANKING
   7      1      4       -6.86      0.00    270.20           RANKING
   8      1     18       -6.81      0.00    269.40           RANKING

Run time 0.867 sec
Idle time 0.000 sec
