AutoDock-GPU version: v1.6

**********************************************************
**    AutoDock-GPU AUTODOCKTOOLS-COMPATIBLE DLG FILE    **
**********************************************************


    DOCKING PARAMETERS
    ________________________


Ligand file:                               /home/a/REINVENT4/ReinventStudies/pleaseWork/justmol2mol_4_Compounds_ontop/graph-dock-8u2o5u/graph-DockGPU/node-autodockgpu/inputs/PINCVXRSENSLEC-QXOIAODUNA-O.pdbqt
Grid fld file:                             /home/a/REINVENT4/ReinventStudies/mols/Rad51/maps/rad51_receptor.maps.fld

Random seed:                               42
Number of runs:                            20
Number of energy evaluations:              1132076
Number of generations:                     42000
Size of population:                        150
Rate of crossover:                         80.000000%
Tournament selection probability limit:    60.000000%
Rate of mutation:                          2.000000%
Maximal allowed delta movement:            +/- 6.000000A
Maximal allowed delta angle:               +/- 90.000000

Rate of local search:                      100.000000%
Maximal number of local search iterations: 300
Rho lower bound:                           0.010000
Spread of local search delta movement:     2.000000A
Spread of local search delta angle:        74.999999
Limit of consecutive successes/failures:   4

Handle symmetry during clustering:         YES
RMSD tolerance:                            2.000000A

Program call in command line was:          /home/a/REINVENT4/ReinventStudies/adgpu-v1.6_linux_x64_cuda12_128wi --filelist batch.txt --heuristics 1 --nrun 20 --psize 150 --lsit 300 --seed 42 --heurmax 12000000 


    GRID PARAMETERS
    ________________________


Receptor name:                             rad51_receptor
Number of grid points (x, y, z):           53, 53, 53
Grid center (x, y, z):                     139.950000, 75.640000, 221.970000A
Grid size (x, y, z):                       19.500000, 19.500000, 19.500000A
Grid spacing:                              0.375000A


    LIGAND PARAMETERS
    ________________________


Ligand name:                               /home/a/REINVENT4/ReinventStudies/pleaseWork/justmol2mol_4_Compounds_ontop/graph-dock-8u2o5u/graph-DockGPU/node-autodockgpu/inputs/PINCVXRSENSLEC-QXOIAODUNA-O
Number of atoms:                           31
Number of rotatable bonds:                 6
Number of atom types:                      7


    DUMMY DATA (only for ADT-compatibility)
    ________________________


DPF> outlev 1
DPF> ga_run 20
DPF> fld /home/a/REINVENT4/ReinventStudies/mols/Rad51/maps/rad51_receptor.maps.fld
DPF> move /home/a/REINVENT4/ReinventStudies/pleaseWork/justmol2mol_4_Compounds_ontop/graph-dock-8u2o5u/graph-DockGPU/node-autodockgpu/inputs/PINCVXRSENSLEC-QXOIAODUNA-O.pdbqt


    COUNTER STATES
    ________________________


Number of energy evaluations performed:    391404
Number of generations used:                30


    INPUT LIGAND PDBQT FILE:
    ________________________


INPUT-LIGAND-PDBQT: REMARK SMILES O=C(NC/C(O)=[N+]1/CCC[C@@H]1c1ccc(Cl)cc1)c1ccc2cc(Cl)ccc2n1
INPUT-LIGAND-PDBQT: REMARK SMILES IDX 5 1 6 2 7 4 8 5 11 6 9 7 10 8 12 9 13 10 18 11 14 12 17 13
INPUT-LIGAND-PDBQT: REMARK SMILES IDX 15 14 16 15 4 16 3 17 2 18 1 20 19 21 29 22 20 23 28 24
INPUT-LIGAND-PDBQT: REMARK SMILES IDX 21 25 27 26 22 27 26 28 23 29 24 30 25 31
INPUT-LIGAND-PDBQT: REMARK H PARENT 6 3 3 19
INPUT-LIGAND-PDBQT: ROOT
INPUT-LIGAND-PDBQT: ATOM      1  C   UNL     1       0.134  -2.455  -2.254  1.00  0.00     0.354 C 
INPUT-LIGAND-PDBQT: ENDROOT
INPUT-LIGAND-PDBQT: BRANCH   1   2
INPUT-LIGAND-PDBQT: ATOM      2  O   UNL     1      -0.858  -2.434  -3.241  1.00  0.00    -0.462 OA
INPUT-LIGAND-PDBQT: ATOM      3  H   UNL     1      -1.697  -2.997  -3.206  1.00  0.00     0.299 HD
INPUT-LIGAND-PDBQT: ENDBRANCH   1   2
INPUT-LIGAND-PDBQT: BRANCH   1   4
INPUT-LIGAND-PDBQT: ATOM      4  N   UNL     1       0.064  -3.288  -1.235  1.00  0.00    -0.194 N 
INPUT-LIGAND-PDBQT: ATOM      5  C   UNL     1      -0.941  -4.341  -1.143  1.00  0.00     0.355 C 
INPUT-LIGAND-PDBQT: ATOM      6  C   UNL     1       1.021  -3.358  -0.123  1.00  0.00     0.295 C 
INPUT-LIGAND-PDBQT: ATOM      7  C   UNL     1      -0.472  -5.290  -0.050  1.00  0.00     0.080 C 
INPUT-LIGAND-PDBQT: ATOM      8  C   UNL     1       0.565  -4.526   0.760  1.00  0.00     0.088 C 
INPUT-LIGAND-PDBQT: BRANCH   6   9
INPUT-LIGAND-PDBQT: ATOM      9  C   UNL     1       1.063  -2.070   0.680  1.00  0.00     0.020 A 
INPUT-LIGAND-PDBQT: ATOM     10  C   UNL     1      -0.125  -1.441   1.099  1.00  0.00     0.012 A 
INPUT-LIGAND-PDBQT: ATOM     11  C   UNL     1       2.298  -1.520   1.062  1.00  0.00     0.012 A 
INPUT-LIGAND-PDBQT: ATOM     12  C   UNL     1      -0.073  -0.277   1.872  1.00  0.00     0.021 A 
INPUT-LIGAND-PDBQT: ATOM     13  C   UNL     1       2.346  -0.355   1.834  1.00  0.00     0.021 A 
INPUT-LIGAND-PDBQT: ATOM     14  C   UNL     1       1.161   0.266   2.242  1.00  0.00     0.041 A 
INPUT-LIGAND-PDBQT: ATOM     15  Cl  UNL     1       1.225   1.718   3.223  1.00  0.00    -0.084 Cl
INPUT-LIGAND-PDBQT: ENDBRANCH   6   9
INPUT-LIGAND-PDBQT: ENDBRANCH   1   4
INPUT-LIGAND-PDBQT: BRANCH   1  16
INPUT-LIGAND-PDBQT: ATOM     16  C   UNL     1       1.252  -1.454  -2.412  1.00  0.00     0.269 C 
INPUT-LIGAND-PDBQT: BRANCH  16  17
INPUT-LIGAND-PDBQT: ATOM     17  N   UNL     1       0.889  -0.179  -1.796  1.00  0.00    -0.337 N 
INPUT-LIGAND-PDBQT: ATOM     18  C   UNL     1       1.856   0.863  -1.602  1.00  0.00     0.270 C 
INPUT-LIGAND-PDBQT: ATOM     19  H   UNL     1      -0.093  -0.032  -1.469  1.00  0.00     0.164 HD
INPUT-LIGAND-PDBQT: ATOM     20  O   UNL     1       3.020   0.732  -2.072  1.00  0.00    -0.268 OA
INPUT-LIGAND-PDBQT: BRANCH  18  21
INPUT-LIGAND-PDBQT: ATOM     21  C   UNL     1       1.504   2.077  -0.835  1.00  0.00     0.128 A 
INPUT-LIGAND-PDBQT: ATOM     22  N   UNL     1       0.235   2.230  -0.366  1.00  0.00    -0.243 NA
INPUT-LIGAND-PDBQT: ATOM     23  C   UNL     1       2.464   3.065  -0.558  1.00  0.00     0.035 A 
INPUT-LIGAND-PDBQT: ATOM     24  C   UNL     1      -0.141   3.308   0.371  1.00  0.00     0.071 A 
INPUT-LIGAND-PDBQT: ATOM     25  C   UNL     1       2.107   4.185   0.195  1.00  0.00     0.013 A 
INPUT-LIGAND-PDBQT: ATOM     26  C   UNL     1      -1.453   3.411   0.847  1.00  0.00     0.030 A 
INPUT-LIGAND-PDBQT: ATOM     27  C   UNL     1       0.798   4.317   0.672  1.00  0.00     0.002 A 
INPUT-LIGAND-PDBQT: ATOM     28  C   UNL     1      -1.833   4.514   1.617  1.00  0.00     0.023 A 
INPUT-LIGAND-PDBQT: ATOM     29  C   UNL     1       0.410   5.422   1.444  1.00  0.00     0.030 A 
INPUT-LIGAND-PDBQT: ATOM     30  C   UNL     1      -0.904   5.518   1.916  1.00  0.00     0.041 A 
INPUT-LIGAND-PDBQT: ATOM     31  Cl  UNL     1      -1.388   6.897   2.885  1.00  0.00    -0.084 Cl
INPUT-LIGAND-PDBQT: ENDBRANCH  18  21
INPUT-LIGAND-PDBQT: ENDBRANCH  16  17
INPUT-LIGAND-PDBQT: ENDBRANCH   1  16
INPUT-LIGAND-PDBQT: TORSDOF 6


    FINAL DOCKED STATE:
    ________________________


Run:   1 / 20
Time taken for this run:   0.019s

DOCKED: MODEL        1
DOCKED: USER    Run = 1
DOCKED: USER
DOCKED: USER    Estimated Free Energy of Binding    =  -8.13 kcal/mol  [=(1)+(2)+(3)-(4)]
DOCKED: USER
DOCKED: USER    (1) Final Intermolecular Energy     =  -9.92 kcal/mol
DOCKED: USER        vdW + Hbond + desolv Energy     =  -9.53 kcal/mol
DOCKED: USER        Electrostatic Energy            =  -0.38 kcal/mol
DOCKED: USER        Moving Ligand-Fixed Receptor    =  -9.92 kcal/mol
DOCKED: USER        Moving Ligand-Moving Receptor   =  +0.00 kcal/mol
DOCKED: USER    (2) Final Total Internal Energy     =  -1.79 kcal/mol
DOCKED: USER    (3) Torsional Free Energy           =  +1.79 kcal/mol
DOCKED: USER    (4) Unbound System's Energy         =  -1.79 kcal/mol
DOCKED: USER
DOCKED: USER
DOCKED: REMARK SMILES O=C(NC/C(O)=[N+]1/CCC[C@@H]1c1ccc(Cl)cc1)c1ccc2cc(Cl)ccc2n1
DOCKED: REMARK SMILES IDX 5 1 6 2 7 4 8 5 11 6 9 7 10 8 12 9 13 10 18 11 14 12 17 13
DOCKED: REMARK SMILES IDX 15 14 16 15 4 16 3 17 2 18 1 20 19 21 29 22 20 23 28 24
DOCKED: REMARK SMILES IDX 21 25 27 26 22 27 26 28 23 29 24 30 25 31
DOCKED: REMARK H PARENT 6 3 3 19
DOCKED: USER                              x       y       z     vdW  Elec       q    Type
DOCKED: USER                           _______ _______ _______ _____ _____    ______ ____
DOCKED: ROOT
DOCKED: ATOM      1  C   UNL     1     140.148  74.941 219.891 -0.03 -0.09    +0.354 C  
DOCKED: ENDROOT
DOCKED: BRANCH   1   2
DOCKED: ATOM      2  O   UNL     1     139.551  74.382 218.754 +0.01 +0.10    -0.462 OA 
DOCKED: ATOM      3  H   UNL     1     139.191  73.439 218.716 +0.03 -0.06    +0.299 HD 
DOCKED: ENDBRANCH   1   2
DOCKED: BRANCH   1   4
DOCKED: ATOM      4  N   UNL     1     141.438  75.210 219.920 -0.11 +0.06    -0.194 N  
DOCKED: ATOM      5  C   UNL     1     142.453  74.192 220.166 -0.13 -0.10    +0.355 C  
DOCKED: ATOM      6  C   UNL     1     142.045  76.511 219.610 -0.17 -0.15    +0.295 C  
DOCKED: ATOM      7  C   UNL     1     143.785  74.803 219.759 -0.35 -0.04    +0.080 C  
DOCKED: ATOM      8  C   UNL     1     143.562  76.307 219.701 -0.31 -0.06    +0.088 C  
DOCKED: BRANCH   6   9
DOCKED: ATOM      9  C   UNL     1     141.596  77.597 220.572 -0.30 -0.01    +0.020 A  
DOCKED: ATOM     10  C   UNL     1     141.255  77.288 221.902 -0.28 -0.01    +0.012 A  
DOCKED: ATOM     11  C   UNL     1     141.571  78.939 220.154 -0.28 -0.01    +0.012 A  
DOCKED: ATOM     12  C   UNL     1     140.882  78.302 222.789 -0.46 -0.01    +0.021 A  
DOCKED: ATOM     13  C   UNL     1     141.196  79.950 221.044 -0.31 -0.01    +0.021 A  
DOCKED: ATOM     14  C   UNL     1     140.854  79.634 222.363 -0.37 -0.01    +0.041 A  
DOCKED: ATOM     15  Cl  UNL     1     140.399  80.906 223.480 -0.49 +0.01    -0.084 Cl 
DOCKED: ENDBRANCH   6   9
DOCKED: ENDBRANCH   1   4
DOCKED: BRANCH   1  16
DOCKED: ATOM     16  C   UNL     1     139.240  75.177 221.072 -0.13 -0.06    +0.269 C  
DOCKED: BRANCH  16  17
DOCKED: ATOM     17  N   UNL     1     139.503  74.198 222.125 -0.13 +0.06    -0.337 N  
DOCKED: ATOM     18  C   UNL     1     139.633  72.799 221.834 -0.17 -0.05    +0.270 C  
DOCKED: ATOM     19  H   UNL     1     139.577  74.522 223.116 -0.52 -0.00    +0.164 HD 
DOCKED: ATOM     20  O   UNL     1     139.635  72.407 220.634 -0.06 +0.05    -0.268 OA 
DOCKED: BRANCH  18  21
DOCKED: ATOM     21  C   UNL     1     139.739  71.813 222.930 -0.28 -0.02    +0.128 A  
DOCKED: ATOM     22  N   UNL     1     140.321  72.177 224.106 -0.19 +0.04    -0.243 NA 
DOCKED: ATOM     23  C   UNL     1     139.226  70.513 222.790 -0.22 -0.01    +0.035 A  
DOCKED: ATOM     24  C   UNL     1     140.421  71.326 225.160 -0.48 -0.01    +0.071 A  
DOCKED: ATOM     25  C   UNL     1     139.315  69.615 223.855 -0.28 -0.00    +0.013 A  
DOCKED: ATOM     26  C   UNL     1     141.011  71.753 226.355 -0.66 -0.00    +0.030 A  
DOCKED: ATOM     27  C   UNL     1     139.912  70.014 225.057 -0.42 -0.00    +0.002 A  
DOCKED: ATOM     28  C   UNL     1     141.099  70.880 227.443 -0.64 -0.00    +0.023 A  
DOCKED: ATOM     29  C   UNL     1     140.004  69.142 226.151 -0.49 -0.00    +0.030 A  
DOCKED: ATOM     30  C   UNL     1     140.596  69.577 227.343 -0.56 -0.01    +0.041 A  
DOCKED: ATOM     31  Cl  UNL     1     140.708  68.489 228.713 -0.71 +0.02    -0.084 Cl 
DOCKED: ENDBRANCH  18  21
DOCKED: ENDBRANCH  16  17
DOCKED: ENDBRANCH   1  16
DOCKED: TORSDOF 6
DOCKED: TER
DOCKED: ENDMDL
________________________________________________________________________________


    FINAL DOCKED STATE:
    ________________________


Run:   2 / 20
Time taken for this run:   0.019s

DOCKED: MODEL        2
DOCKED: USER    Run = 2
DOCKED: USER
DOCKED: USER    Estimated Free Energy of Binding    =  -6.31 kcal/mol  [=(1)+(2)+(3)-(4)]
DOCKED: USER
DOCKED: USER    (1) Final Intermolecular Energy     =  -8.10 kcal/mol
DOCKED: USER        vdW + Hbond + desolv Energy     =  -7.69 kcal/mol
DOCKED: USER        Electrostatic Energy            =  -0.41 kcal/mol
DOCKED: USER        Moving Ligand-Fixed Receptor    =  -8.10 kcal/mol
DOCKED: USER        Moving Ligand-Moving Receptor   =  +0.00 kcal/mol
DOCKED: USER    (2) Final Total Internal Energy     =  -2.72 kcal/mol
DOCKED: USER    (3) Torsional Free Energy           =  +1.79 kcal/mol
DOCKED: USER    (4) Unbound System's Energy         =  -2.72 kcal/mol
DOCKED: USER
DOCKED: USER
DOCKED: REMARK SMILES O=C(NC/C(O)=[N+]1/CCC[C@@H]1c1ccc(Cl)cc1)c1ccc2cc(Cl)ccc2n1
DOCKED: REMARK SMILES IDX 5 1 6 2 7 4 8 5 11 6 9 7 10 8 12 9 13 10 18 11 14 12 17 13
DOCKED: REMARK SMILES IDX 15 14 16 15 4 16 3 17 2 18 1 20 19 21 29 22 20 23 28 24
DOCKED: REMARK SMILES IDX 21 25 27 26 22 27 26 28 23 29 24 30 25 31
DOCKED: REMARK H PARENT 6 3 3 19
DOCKED: USER                              x       y       z     vdW  Elec       q    Type
DOCKED: USER                           _______ _______ _______ _____ _____    ______ ____
DOCKED: ROOT
DOCKED: ATOM      1  C   UNL     1     140.950  80.070 220.367 -0.12 -0.13    +0.354 C  
DOCKED: ENDROOT
DOCKED: BRANCH   1   2
DOCKED: ATOM      2  O   UNL     1     139.605  80.158 219.992 +0.00 +0.13    -0.462 OA 
DOCKED: ATOM      3  H   UNL     1     139.145  79.488 219.391 +0.05 -0.08    +0.299 HD 
DOCKED: ENDBRANCH   1   2
DOCKED: BRANCH   1   4
DOCKED: ATOM      4  N   UNL     1     141.296  79.910 221.629 -0.22 +0.07    -0.194 N  
DOCKED: ATOM      5  C   UNL     1     142.551  80.417 222.174 -0.26 -0.13    +0.355 C  
DOCKED: ATOM      6  C   UNL     1     140.455  79.316 222.676 -0.24 -0.07    +0.295 C  
DOCKED: ATOM      7  C   UNL     1     142.414  80.366 223.689 -0.60 -0.02    +0.080 C  
DOCKED: ATOM      8  C   UNL     1     141.255  79.424 223.980 -0.45 -0.02    +0.088 C  
DOCKED: BRANCH   6   9
DOCKED: ATOM      9  C   UNL     1     140.112  77.866 222.382 -0.37 -0.01    +0.020 A  
DOCKED: ATOM     10  C   UNL     1     141.107  76.957 221.973 -0.34 -0.01    +0.012 A  
DOCKED: ATOM     11  C   UNL     1     138.799  77.402 222.571 -0.30 -0.00    +0.012 A  
DOCKED: ATOM     12  C   UNL     1     140.786  75.616 221.744 -0.35 -0.01    +0.021 A  
DOCKED: ATOM     13  C   UNL     1     138.482  76.060 222.339 -0.30 -0.00    +0.021 A  
DOCKED: ATOM     14  C   UNL     1     139.476  75.165 221.929 -0.29 -0.01    +0.041 A  
DOCKED: ATOM     15  Cl  UNL     1     139.078  73.479 221.655 -0.27 +0.02    -0.084 Cl 
DOCKED: ENDBRANCH   6   9
DOCKED: ENDBRANCH   1   4
DOCKED: BRANCH   1  16
DOCKED: ATOM     16  C   UNL     1     141.962  80.203 219.256 -0.19 -0.15    +0.269 C  
DOCKED: BRANCH  16  17
DOCKED: ATOM     17  N   UNL     1     142.563  78.905 218.952 -0.09 +0.27    -0.337 N  
DOCKED: ATOM     18  C   UNL     1     141.765  77.718 218.835 -0.15 -0.15    +0.270 C  
DOCKED: ATOM     19  H   UNL     1     143.600  78.837 218.839 -0.22 -0.19    +0.164 HD 
DOCKED: ATOM     20  O   UNL     1     140.507  77.803 218.881 -0.04 +0.10    -0.268 OA 
DOCKED: BRANCH  18  21
DOCKED: ATOM     21  C   UNL     1     142.409  76.396 218.686 -0.22 -0.07    +0.128 A  
DOCKED: ATOM     22  N   UNL     1     143.351  76.003 219.588 -0.26 +0.15    -0.243 NA 
DOCKED: ATOM     23  C   UNL     1     142.048  75.525 217.645 -0.10 -0.01    +0.035 A  
DOCKED: ATOM     24  C   UNL     1     143.955  74.787 219.522 -0.32 -0.03    +0.071 A  
DOCKED: ATOM     25  C   UNL     1     142.653  74.271 217.550 -0.08 -0.00    +0.013 A  
DOCKED: ATOM     26  C   UNL     1     144.903  74.421 220.484 -0.49 -0.01    +0.030 A  
DOCKED: ATOM     27  C   UNL     1     143.613  73.886 218.492 -0.18 -0.00    +0.002 A  
DOCKED: ATOM     28  C   UNL     1     145.513  73.165 220.422 -0.57 -0.00    +0.023 A  
DOCKED: ATOM     29  C   UNL     1     144.230  72.627 218.435 -0.16 +0.00    +0.030 A  
DOCKED: ATOM     30  C   UNL     1     145.178  72.269 219.400 -0.33 +0.01    +0.041 A  
DOCKED: ATOM     31  Cl  UNL     1     145.945  70.693 219.332 -0.23 -0.06    -0.084 Cl 
DOCKED: ENDBRANCH  18  21
DOCKED: ENDBRANCH  16  17
DOCKED: ENDBRANCH   1  16
DOCKED: TORSDOF 6
DOCKED: TER
DOCKED: ENDMDL
________________________________________________________________________________


    FINAL DOCKED STATE:
    ________________________


Run:   3 / 20
Time taken for this run:   0.019s

DOCKED: MODEL        3
DOCKED: USER    Run = 3
DOCKED: USER
DOCKED: USER    Estimated Free Energy of Binding    =  -8.15 kcal/mol  [=(1)+(2)+(3)-(4)]
DOCKED: USER
DOCKED: USER    (1) Final Intermolecular Energy     =  -9.94 kcal/mol
DOCKED: USER        vdW + Hbond + desolv Energy     =  -9.75 kcal/mol
DOCKED: USER        Electrostatic Energy            =  -0.19 kcal/mol
DOCKED: USER        Moving Ligand-Fixed Receptor    =  -9.94 kcal/mol
DOCKED: USER        Moving Ligand-Moving Receptor   =  +0.00 kcal/mol
DOCKED: USER    (2) Final Total Internal Energy     =  -1.77 kcal/mol
DOCKED: USER    (3) Torsional Free Energy           =  +1.79 kcal/mol
DOCKED: USER    (4) Unbound System's Energy         =  -1.77 kcal/mol
DOCKED: USER
DOCKED: USER
DOCKED: REMARK SMILES O=C(NC/C(O)=[N+]1/CCC[C@@H]1c1ccc(Cl)cc1)c1ccc2cc(Cl)ccc2n1
DOCKED: REMARK SMILES IDX 5 1 6 2 7 4 8 5 11 6 9 7 10 8 12 9 13 10 18 11 14 12 17 13
DOCKED: REMARK SMILES IDX 15 14 16 15 4 16 3 17 2 18 1 20 19 21 29 22 20 23 28 24
DOCKED: REMARK SMILES IDX 21 25 27 26 22 27 26 28 23 29 24 30 25 31
DOCKED: REMARK H PARENT 6 3 3 19
DOCKED: USER                              x       y       z     vdW  Elec       q    Type
DOCKED: USER                           _______ _______ _______ _____ _____    ______ ____
DOCKED: ROOT
DOCKED: ATOM      1  C   UNL     1     138.784  75.377 221.491 -0.13 -0.08    +0.354 C  
DOCKED: ENDROOT
DOCKED: BRANCH   1   2
DOCKED: ATOM      2  O   UNL     1     139.756  75.521 222.487 -0.43 +0.06    -0.462 OA 
DOCKED: ATOM      3  H   UNL     1     139.606  75.280 223.457 -0.33 -0.00    +0.299 HD 
DOCKED: ENDBRANCH   1   2
DOCKED: BRANCH   1   4
DOCKED: ATOM      4  N   UNL     1     138.439  76.391 220.723 -0.05 +0.04    -0.194 N  
DOCKED: ATOM      5  C   UNL     1     138.201  76.253 219.291 -0.00 -0.08    +0.355 C  
DOCKED: ATOM      6  C   UNL     1     138.140  77.751 221.191 -0.06 -0.06    +0.295 C  
DOCKED: ATOM      7  C   UNL     1     137.481  77.519 218.850 -0.01 -0.02    +0.080 C  
DOCKED: ATOM      8  C   UNL     1     137.713  78.545 219.950 -0.03 -0.02    +0.088 C  
DOCKED: BRANCH   6   9
DOCKED: ATOM      9  C   UNL     1     139.339  78.407 221.853 -0.23 -0.00    +0.020 A  
DOCKED: ATOM     10  C   UNL     1     140.613  78.353 221.256 -0.27 -0.00    +0.012 A  
DOCKED: ATOM     11  C   UNL     1     139.175  79.125 223.049 -0.34 -0.00    +0.012 A  
DOCKED: ATOM     12  C   UNL     1     141.701  78.994 221.856 -0.43 -0.01    +0.021 A  
DOCKED: ATOM     13  C   UNL     1     140.266  79.764 223.647 -0.45 -0.00    +0.021 A  
DOCKED: ATOM     14  C   UNL     1     141.530  79.702 223.049 -0.52 -0.01    +0.041 A  
DOCKED: ATOM     15  Cl  UNL     1     142.892  80.517 223.793 -0.80 +0.02    -0.084 Cl 
DOCKED: ENDBRANCH   6   9
DOCKED: ENDBRANCH   1   4
DOCKED: BRANCH   1  16
DOCKED: ATOM     16  C   UNL     1     138.143  74.015 221.378 -0.10 -0.07    +0.269 C  
DOCKED: BRANCH  16  17
DOCKED: ATOM     17  N   UNL     1     138.720  73.095 222.356 -0.05 +0.11    -0.337 N  
DOCKED: ATOM     18  C   UNL     1     138.390  71.698 222.358 -0.12 -0.06    +0.270 C  
DOCKED: ATOM     19  H   UNL     1     139.372  73.467 223.084 -0.49 -0.05    +0.164 HD 
DOCKED: ATOM     20  O   UNL     1     137.676  71.223 221.432 -0.04 +0.05    -0.268 OA 
DOCKED: BRANCH  18  21
DOCKED: ATOM     21  C   UNL     1     138.859  70.820 223.451 -0.24 -0.03    +0.128 A  
DOCKED: ATOM     22  N   UNL     1     139.552  71.358 224.493 -0.25 +0.06    -0.243 NA 
DOCKED: ATOM     23  C   UNL     1     138.581  69.443 223.447 -0.25 -0.01    +0.035 A  
DOCKED: ATOM     24  C   UNL     1     139.982  70.608 225.542 -0.46 -0.01    +0.071 A  
DOCKED: ATOM     25  C   UNL     1     139.012  68.647 224.509 -0.36 -0.00    +0.013 A  
DOCKED: ATOM     26  C   UNL     1     140.674  71.210 226.599 -0.65 -0.00    +0.030 A  
DOCKED: ATOM     27  C   UNL     1     139.716  69.223 225.573 -0.45 -0.00    +0.002 A  
DOCKED: ATOM     28  C   UNL     1     141.103  70.439 227.683 -0.58 -0.00    +0.023 A  
DOCKED: ATOM     29  C   UNL     1     140.150  68.454 226.663 -0.60 -0.01    +0.030 A  
DOCKED: ATOM     30  C   UNL     1     140.842  69.063 227.716 -0.59 -0.01    +0.041 A  
DOCKED: ATOM     31  Cl  UNL     1     141.381  68.103 229.081 -0.46 +0.02    -0.084 Cl 
DOCKED: ENDBRANCH  18  21
DOCKED: ENDBRANCH  16  17
DOCKED: ENDBRANCH   1  16
DOCKED: TORSDOF 6
DOCKED: TER
DOCKED: ENDMDL
________________________________________________________________________________


    FINAL DOCKED STATE:
    ________________________


Run:   4 / 20
Time taken for this run:   0.019s

DOCKED: MODEL        4
DOCKED: USER    Run = 4
DOCKED: USER
DOCKED: USER    Estimated Free Energy of Binding    =  -8.07 kcal/mol  [=(1)+(2)+(3)-(4)]
DOCKED: USER
DOCKED: USER    (1) Final Intermolecular Energy     =  -9.86 kcal/mol
DOCKED: USER        vdW + Hbond + desolv Energy     =  -9.44 kcal/mol
DOCKED: USER        Electrostatic Energy            =  -0.42 kcal/mol
DOCKED: USER        Moving Ligand-Fixed Receptor    =  -9.86 kcal/mol
DOCKED: USER        Moving Ligand-Moving Receptor   =  +0.00 kcal/mol
DOCKED: USER    (2) Final Total Internal Energy     =  -1.61 kcal/mol
DOCKED: USER    (3) Torsional Free Energy           =  +1.79 kcal/mol
DOCKED: USER    (4) Unbound System's Energy         =  -1.61 kcal/mol
DOCKED: USER
DOCKED: USER
DOCKED: REMARK SMILES O=C(NC/C(O)=[N+]1/CCC[C@@H]1c1ccc(Cl)cc1)c1ccc2cc(Cl)ccc2n1
DOCKED: REMARK SMILES IDX 5 1 6 2 7 4 8 5 11 6 9 7 10 8 12 9 13 10 18 11 14 12 17 13
DOCKED: REMARK SMILES IDX 15 14 16 15 4 16 3 17 2 18 1 20 19 21 29 22 20 23 28 24
DOCKED: REMARK SMILES IDX 21 25 27 26 22 27 26 28 23 29 24 30 25 31
DOCKED: REMARK H PARENT 6 3 3 19
DOCKED: USER                              x       y       z     vdW  Elec       q    Type
DOCKED: USER                           _______ _______ _______ _____ _____    ______ ____
DOCKED: ROOT
DOCKED: ATOM      1  C   UNL     1     141.197  75.421 220.357 -0.11 -0.12    +0.354 C  
DOCKED: ENDROOT
DOCKED: BRANCH   1   2
DOCKED: ATOM      2  O   UNL     1     142.179  75.260 221.341 -0.02 +0.21    -0.462 OA 
DOCKED: ATOM      3  H   UNL     1     142.159  75.731 222.236 -0.42 -0.19    +0.299 HD 
DOCKED: ENDBRANCH   1   2
DOCKED: BRANCH   1   4
DOCKED: ATOM      4  N   UNL     1     141.302  76.357 219.435 -0.09 +0.08    -0.194 N  
DOCKED: ATOM      5  C   UNL     1     142.012  76.153 218.178 -0.07 -0.16    +0.355 C  
DOCKED: ATOM      6  C   UNL     1     140.649  77.672 219.477 -0.06 -0.12    +0.295 C  
DOCKED: ATOM      7  C   UNL     1     141.600  77.293 217.260 -0.12 -0.04    +0.080 C  
DOCKED: ATOM      8  C   UNL     1     141.003  78.367 218.157 -0.11 -0.04    +0.088 C  
DOCKED: BRANCH   6   9
DOCKED: ATOM      9  C   UNL     1     141.113  78.506 220.658 -0.27 -0.01    +0.020 A  
DOCKED: ATOM     10  C   UNL     1     140.945  78.047 221.978 -0.39 -0.00    +0.012 A  
DOCKED: ATOM     11  C   UNL     1     141.770  79.729 220.439 -0.32 -0.01    +0.012 A  
DOCKED: ATOM     12  C   UNL     1     141.413  78.806 223.055 -0.54 -0.01    +0.021 A  
DOCKED: ATOM     13  C   UNL     1     142.236  80.486 221.519 -0.41 -0.01    +0.021 A  
DOCKED: ATOM     14  C   UNL     1     142.060  80.024 222.828 -0.56 -0.01    +0.041 A  
DOCKED: ATOM     15  Cl  UNL     1     142.658  80.968 224.178 -0.64 +0.01    -0.084 Cl 
DOCKED: ENDBRANCH   6   9
DOCKED: ENDBRANCH   1   4
DOCKED: BRANCH   1  16
DOCKED: ATOM     16  C   UNL     1     140.013  74.489 220.440 -0.09 -0.06    +0.269 C  
DOCKED: BRANCH  16  17
DOCKED: ATOM     17  N   UNL     1     140.242  73.457 221.450 -0.14 +0.05    -0.337 N  
DOCKED: ATOM     18  C   UNL     1     139.259  72.451 221.731 -0.14 -0.05    +0.270 C  
DOCKED: ATOM     19  H   UNL     1     141.134  73.467 221.995 +0.05 -0.00    +0.164 HD 
DOCKED: ATOM     20  O   UNL     1     138.219  72.375 221.019 -0.05 +0.06    -0.268 OA 
DOCKED: BRANCH  18  21
DOCKED: ATOM     21  C   UNL     1     139.446  71.518 222.863 -0.25 -0.03    +0.128 A  
DOCKED: ATOM     22  N   UNL     1     140.089  71.945 223.984 -0.25 +0.05    -0.243 NA 
DOCKED: ATOM     23  C   UNL     1     138.947  70.206 222.813 -0.20 -0.01    +0.035 A  
DOCKED: ATOM     24  C   UNL     1     140.264  71.145 225.069 -0.47 -0.01    +0.071 A  
DOCKED: ATOM     25  C   UNL     1     139.113  69.360 223.911 -0.30 -0.00    +0.013 A  
DOCKED: ATOM     26  C   UNL     1     140.915  71.636 226.206 -0.64 -0.00    +0.030 A  
DOCKED: ATOM     27  C   UNL     1     139.772  69.823 225.055 -0.41 -0.00    +0.002 A  
DOCKED: ATOM     28  C   UNL     1     141.081  70.815 227.326 -0.64 -0.00    +0.023 A  
DOCKED: ATOM     29  C   UNL     1     139.942  69.004 226.181 -0.50 -0.00    +0.030 A  
DOCKED: ATOM     30  C   UNL     1     140.595  69.502 227.315 -0.56 -0.01    +0.041 A  
DOCKED: ATOM     31  Cl  UNL     1     140.805  68.480 228.724 -0.70 +0.02    -0.084 Cl 
DOCKED: ENDBRANCH  18  21
DOCKED: ENDBRANCH  16  17
DOCKED: ENDBRANCH   1  16
DOCKED: TORSDOF 6
DOCKED: TER
DOCKED: ENDMDL
________________________________________________________________________________


    FINAL DOCKED STATE:
    ________________________


Run:   5 / 20
Time taken for this run:   0.019s

DOCKED: MODEL        5
DOCKED: USER    Run = 5
DOCKED: USER
DOCKED: USER    Estimated Free Energy of Binding    =  -8.43 kcal/mol  [=(1)+(2)+(3)-(4)]
DOCKED: USER
DOCKED: USER    (1) Final Intermolecular Energy     = -10.22 kcal/mol
DOCKED: USER        vdW + Hbond + desolv Energy     =  -9.88 kcal/mol
DOCKED: USER        Electrostatic Energy            =  -0.34 kcal/mol
DOCKED: USER        Moving Ligand-Fixed Receptor    = -10.22 kcal/mol
DOCKED: USER        Moving Ligand-Moving Receptor   =  +0.00 kcal/mol
DOCKED: USER    (2) Final Total Internal Energy     =  -1.65 kcal/mol
DOCKED: USER    (3) Torsional Free Energy           =  +1.79 kcal/mol
DOCKED: USER    (4) Unbound System's Energy         =  -1.65 kcal/mol
DOCKED: USER
DOCKED: USER
DOCKED: REMARK SMILES O=C(NC/C(O)=[N+]1/CCC[C@@H]1c1ccc(Cl)cc1)c1ccc2cc(Cl)ccc2n1
DOCKED: REMARK SMILES IDX 5 1 6 2 7 4 8 5 11 6 9 7 10 8 12 9 13 10 18 11 14 12 17 13
DOCKED: REMARK SMILES IDX 15 14 16 15 4 16 3 17 2 18 1 20 19 21 29 22 20 23 28 24
DOCKED: REMARK SMILES IDX 21 25 27 26 22 27 26 28 23 29 24 30 25 31
DOCKED: REMARK H PARENT 6 3 3 19
DOCKED: USER                              x       y       z     vdW  Elec       q    Type
DOCKED: USER                           _______ _______ _______ _____ _____    ______ ____
DOCKED: ROOT
DOCKED: ATOM      1  C   UNL     1     139.977  75.447 221.077 -0.14 -0.08    +0.354 C  
DOCKED: ENDROOT
DOCKED: BRANCH   1   2
DOCKED: ATOM      2  O   UNL     1     141.094  75.376 221.917 -0.39 +0.10    -0.462 OA 
DOCKED: ATOM      3  H   UNL     1     141.856  76.040 221.895 -0.43 -0.18    +0.299 HD 
DOCKED: ENDBRANCH   1   2
DOCKED: BRANCH   1   4
DOCKED: ATOM      4  N   UNL     1     139.885  76.371 220.142 -0.06 +0.06    -0.194 N  
DOCKED: ATOM      5  C   UNL     1     140.131  76.095 218.731 -0.00 -0.11    +0.355 C  
DOCKED: ATOM      6  C   UNL     1     139.428  77.752 220.349 -0.04 -0.08    +0.295 C  
DOCKED: ATOM      7  C   UNL     1     139.575  77.281 217.956 -0.02 -0.02    +0.080 C  
DOCKED: ATOM      8  C   UNL     1     139.417  78.410 218.964 -0.04 -0.03    +0.088 C  
DOCKED: BRANCH   6   9
DOCKED: ATOM      9  C   UNL     1     140.333  78.520 221.295 -0.24 -0.01    +0.020 A  
DOCKED: ATOM     10  C   UNL     1     141.407  79.287 220.804 -0.32 -0.01    +0.012 A  
DOCKED: ATOM     11  C   UNL     1     140.071  78.517 222.675 -0.38 -0.00    +0.012 A  
DOCKED: ATOM     12  C   UNL     1     142.209  80.023 221.682 -0.44 -0.01    +0.021 A  
DOCKED: ATOM     13  C   UNL     1     140.877  79.253 223.550 -0.52 -0.00    +0.021 A  
DOCKED: ATOM     14  C   UNL     1     141.944  80.008 223.055 -0.57 -0.01    +0.041 A  
DOCKED: ATOM     15  Cl  UNL     1     142.942  80.942 224.153 -0.62 +0.01    -0.084 Cl 
DOCKED: ENDBRANCH   6   9
DOCKED: ENDBRANCH   1   4
DOCKED: BRANCH   1  16
DOCKED: ATOM     16  C   UNL     1     138.887  74.435 221.331 -0.14 -0.06    +0.269 C  
DOCKED: BRANCH  16  17
DOCKED: ATOM     17  N   UNL     1     139.322  73.451 222.321 -0.11 +0.08    -0.337 N  
DOCKED: ATOM     18  C   UNL     1     138.871  72.090 222.276 -0.14 -0.06    +0.270 C  
DOCKED: ATOM     19  H   UNL     1     139.959  73.753 223.094 -0.34 +0.02    +0.164 HD 
DOCKED: ATOM     20  O   UNL     1     138.175  71.694 221.300 -0.05 +0.05    -0.268 OA 
DOCKED: BRANCH  18  21
DOCKED: ATOM     21  C   UNL     1     139.195  71.157 223.375 -0.26 -0.03    +0.128 A  
DOCKED: ATOM     22  N   UNL     1     139.857  71.617 224.473 -0.24 +0.05    -0.243 NA 
DOCKED: ATOM     23  C   UNL     1     138.810  69.807 223.320 -0.24 -0.01    +0.035 A  
DOCKED: ATOM     24  C   UNL     1     140.156  70.815 225.528 -0.48 -0.01    +0.071 A  
DOCKED: ATOM     25  C   UNL     1     139.105  68.958 224.388 -0.34 -0.00    +0.013 A  
DOCKED: ATOM     26  C   UNL     1     140.821  71.340 226.643 -0.67 -0.00    +0.030 A  
DOCKED: ATOM     27  C   UNL     1     139.780  69.456 225.509 -0.44 -0.00    +0.002 A  
DOCKED: ATOM     28  C   UNL     1     141.115  70.516 227.733 -0.59 -0.00    +0.023 A  
DOCKED: ATOM     29  C   UNL     1     140.079  68.634 226.606 -0.58 -0.01    +0.030 A  
DOCKED: ATOM     30  C   UNL     1     140.745  69.166 227.716 -0.59 -0.01    +0.041 A  
DOCKED: ATOM     31  Cl  UNL     1     141.114  68.140 229.090 -0.47 +0.02    -0.084 Cl 
DOCKED: ENDBRANCH  18  21
DOCKED: ENDBRANCH  16  17
DOCKED: ENDBRANCH   1  16
DOCKED: TORSDOF 6
DOCKED: TER
DOCKED: ENDMDL
________________________________________________________________________________


    FINAL DOCKED STATE:
    ________________________


Run:   6 / 20
Time taken for this run:   0.019s

DOCKED: MODEL        6
DOCKED: USER    Run = 6
DOCKED: USER
DOCKED: USER    Estimated Free Energy of Binding    =  -7.73 kcal/mol  [=(1)+(2)+(3)-(4)]
DOCKED: USER
DOCKED: USER    (1) Final Intermolecular Energy     =  -9.52 kcal/mol
DOCKED: USER        vdW + Hbond + desolv Energy     =  -9.19 kcal/mol
DOCKED: USER        Electrostatic Energy            =  -0.33 kcal/mol
DOCKED: USER        Moving Ligand-Fixed Receptor    =  -9.52 kcal/mol
DOCKED: USER        Moving Ligand-Moving Receptor   =  +0.00 kcal/mol
DOCKED: USER    (2) Final Total Internal Energy     =  -1.79 kcal/mol
DOCKED: USER    (3) Torsional Free Energy           =  +1.79 kcal/mol
DOCKED: USER    (4) Unbound System's Energy         =  -1.79 kcal/mol
DOCKED: USER
DOCKED: USER
DOCKED: REMARK SMILES O=C(NC/C(O)=[N+]1/CCC[C@@H]1c1ccc(Cl)cc1)c1ccc2cc(Cl)ccc2n1
DOCKED: REMARK SMILES IDX 5 1 6 2 7 4 8 5 11 6 9 7 10 8 12 9 13 10 18 11 14 12 17 13
DOCKED: REMARK SMILES IDX 15 14 16 15 4 16 3 17 2 18 1 20 19 21 29 22 20 23 28 24
DOCKED: REMARK SMILES IDX 21 25 27 26 22 27 26 28 23 29 24 30 25 31
DOCKED: REMARK H PARENT 6 3 3 19
DOCKED: USER                              x       y       z     vdW  Elec       q    Type
DOCKED: USER                           _______ _______ _______ _____ _____    ______ ____
DOCKED: ROOT
DOCKED: ATOM      1  C   UNL     1     137.784  71.377 222.150 -0.06 -0.08    +0.354 C  
DOCKED: ENDROOT
DOCKED: BRANCH   1   2
DOCKED: ATOM      2  O   UNL     1     137.378  72.273 223.146 -0.05 +0.17    -0.462 OA 
DOCKED: ATOM      3  H   UNL     1     137.943  73.046 223.470 -0.39 -0.25    +0.299 HD 
DOCKED: ENDBRANCH   1   2
DOCKED: BRANCH   1   4
DOCKED: ATOM      4  N   UNL     1     137.915  70.091 222.403 -0.07 +0.03    -0.194 N  
DOCKED: ATOM      5  C   UNL     1     136.865  69.119 222.121 -0.05 -0.05    +0.355 C  
DOCKED: ATOM      6  C   UNL     1     139.138  69.437 222.888 -0.11 -0.05    +0.295 C  
DOCKED: ATOM      7  C   UNL     1     137.516  67.746 222.197 -0.16 -0.01    +0.080 C  
DOCKED: ATOM      8  C   UNL     1     138.824  67.937 222.950 -0.22 -0.01    +0.088 C  
DOCKED: BRANCH   6   9
DOCKED: ATOM      9  C   UNL     1     139.559  69.949 224.254 -0.34 -0.00    +0.020 A  
DOCKED: ATOM     10  C   UNL     1     139.159  69.285 225.429 -0.42 -0.00    +0.012 A  
DOCKED: ATOM     11  C   UNL     1     140.404  71.067 224.356 -0.45 -0.00    +0.012 A  
DOCKED: ATOM     12  C   UNL     1     139.586  69.742 226.679 -0.49 -0.00    +0.021 A  
DOCKED: ATOM     13  C   UNL     1     140.828  71.522 225.608 -0.58 -0.00    +0.021 A  
DOCKED: ATOM     14  C   UNL     1     140.422  70.859 226.771 -0.59 -0.01    +0.041 A  
DOCKED: ATOM     15  Cl  UNL     1     140.968  71.424 228.338 -0.82 +0.02    -0.084 Cl 
DOCKED: ENDBRANCH   6   9
DOCKED: ENDBRANCH   1   4
DOCKED: BRANCH   1  16
DOCKED: ATOM     16  C   UNL     1     138.089  71.977 220.799 -0.03 -0.05    +0.269 C  
DOCKED: BRANCH  16  17
DOCKED: ATOM     17  N   UNL     1     138.315  73.416 220.917 -0.04 +0.07    -0.337 N  
DOCKED: ATOM     18  C   UNL     1     139.227  73.957 221.883 -0.15 -0.06    +0.270 C  
DOCKED: ATOM     19  H   UNL     1     137.781  74.068 220.298 +0.03 -0.03    +0.164 HD 
DOCKED: ATOM     20  O   UNL     1     139.941  73.178 222.574 -0.71 +0.03    -0.268 OA 
DOCKED: BRANCH  18  21
DOCKED: ATOM     21  C   UNL     1     139.318  75.418 222.091 -0.26 -0.03    +0.128 A  
DOCKED: ATOM     22  N   UNL     1     140.473  76.069 221.779 -0.28 +0.06    -0.243 NA 
DOCKED: ATOM     23  C   UNL     1     138.225  76.151 222.581 -0.28 -0.01    +0.035 A  
DOCKED: ATOM     24  C   UNL     1     140.607  77.414 221.919 -0.34 -0.02    +0.071 A  
DOCKED: ATOM     25  C   UNL     1     138.333  77.534 222.737 -0.29 -0.00    +0.013 A  
DOCKED: ATOM     26  C   UNL     1     141.808  78.041 221.566 -0.22 -0.02    +0.030 A  
DOCKED: ATOM     27  C   UNL     1     139.528  78.183 222.403 -0.32 -0.00    +0.002 A  
DOCKED: ATOM     28  C   UNL     1     141.938  79.426 221.698 -0.42 -0.01    +0.023 A  
DOCKED: ATOM     29  C   UNL     1     139.665  79.573 222.534 -0.30 -0.01    +0.030 A  
DOCKED: ATOM     30  C   UNL     1     140.869  80.192 222.180 -0.35 -0.01    +0.041 A  
DOCKED: ATOM     31  Cl  UNL     1     141.040  81.930 222.339 -0.43 +0.01    -0.084 Cl 
DOCKED: ENDBRANCH  18  21
DOCKED: ENDBRANCH  16  17
DOCKED: ENDBRANCH   1  16
DOCKED: TORSDOF 6
DOCKED: TER
DOCKED: ENDMDL
________________________________________________________________________________


    FINAL DOCKED STATE:
    ________________________


Run:   7 / 20
Time taken for this run:   0.019s

DOCKED: MODEL        7
DOCKED: USER    Run = 7
DOCKED: USER
DOCKED: USER    Estimated Free Energy of Binding    =  -8.12 kcal/mol  [=(1)+(2)+(3)-(4)]
DOCKED: USER
DOCKED: USER    (1) Final Intermolecular Energy     =  -9.91 kcal/mol
DOCKED: USER        vdW + Hbond + desolv Energy     =  -9.53 kcal/mol
DOCKED: USER        Electrostatic Energy            =  -0.38 kcal/mol
DOCKED: USER        Moving Ligand-Fixed Receptor    =  -9.91 kcal/mol
DOCKED: USER        Moving Ligand-Moving Receptor   =  +0.00 kcal/mol
DOCKED: USER    (2) Final Total Internal Energy     =  -1.14 kcal/mol
DOCKED: USER    (3) Torsional Free Energy           =  +1.79 kcal/mol
DOCKED: USER    (4) Unbound System's Energy         =  -1.14 kcal/mol
DOCKED: USER
DOCKED: USER
DOCKED: REMARK SMILES O=C(NC/C(O)=[N+]1/CCC[C@@H]1c1ccc(Cl)cc1)c1ccc2cc(Cl)ccc2n1
DOCKED: REMARK SMILES IDX 5 1 6 2 7 4 8 5 11 6 9 7 10 8 12 9 13 10 18 11 14 12 17 13
DOCKED: REMARK SMILES IDX 15 14 16 15 4 16 3 17 2 18 1 20 19 21 29 22 20 23 28 24
DOCKED: REMARK SMILES IDX 21 25 27 26 22 27 26 28 23 29 24 30 25 31
DOCKED: REMARK H PARENT 6 3 3 19
DOCKED: USER                              x       y       z     vdW  Elec       q    Type
DOCKED: USER                           _______ _______ _______ _____ _____    ______ ____
DOCKED: ROOT
DOCKED: ATOM      1  C   UNL     1     140.757  75.367 220.639 -0.12 -0.10    +0.354 C  
DOCKED: ENDROOT
DOCKED: BRANCH   1   2
DOCKED: ATOM      2  O   UNL     1     141.426  75.548 221.855 -0.25 +0.14    -0.462 OA 
DOCKED: ATOM      3  H   UNL     1     142.428  75.656 221.934 -0.41 -0.23    +0.299 HD 
DOCKED: ENDBRANCH   1   2
DOCKED: BRANCH   1   4
DOCKED: ATOM      4  N   UNL     1     139.968  76.303 220.150 -0.06 +0.06    -0.194 N  
DOCKED: ATOM      5  C   UNL     1     139.621  76.383 218.735 +0.00 -0.10    +0.355 C  
DOCKED: ATOM      6  C   UNL     1     139.248  77.311 220.939 -0.08 -0.07    +0.295 C  
DOCKED: ATOM      7  C   UNL     1     138.435  77.331 218.636 -0.01 -0.02    +0.080 C  
DOCKED: ATOM      8  C   UNL     1     138.406  78.114 219.940 -0.04 -0.02    +0.088 C  
DOCKED: BRANCH   6   9
DOCKED: ATOM      9  C   UNL     1     140.192  78.228 221.696 -0.28 -0.01    +0.020 A  
DOCKED: ATOM     10  C   UNL     1     140.120  78.341 223.098 -0.35 -0.00    +0.012 A  
DOCKED: ATOM     11  C   UNL     1     141.190  78.935 221.005 -0.31 -0.01    +0.012 A  
DOCKED: ATOM     12  C   UNL     1     141.021  79.159 223.787 -0.53 -0.00    +0.021 A  
DOCKED: ATOM     13  C   UNL     1     142.088  79.753 221.698 -0.43 -0.01    +0.021 A  
DOCKED: ATOM     14  C   UNL     1     142.006  79.863 223.090 -0.57 -0.01    +0.041 A  
DOCKED: ATOM     15  Cl  UNL     1     143.144  80.877 223.957 -0.59 +0.02    -0.084 Cl 
DOCKED: ENDBRANCH   6   9
DOCKED: ENDBRANCH   1   4
DOCKED: BRANCH   1  16
DOCKED: ATOM     16  C   UNL     1     140.968  74.039 219.954 -0.08 -0.06    +0.269 C  
DOCKED: BRANCH  16  17
DOCKED: ATOM     17  N   UNL     1     140.923  72.949 220.926 -0.09 +0.05    -0.337 N  
DOCKED: ATOM     18  C   UNL     1     139.913  72.891 221.944 -0.19 -0.04    +0.270 C  
DOCKED: ATOM     19  H   UNL     1     141.658  72.206 220.893 +0.05 -0.02    +0.164 HD 
DOCKED: ATOM     20  O   UNL     1     138.971  73.731 221.939 -0.28 +0.07    -0.268 OA 
DOCKED: BRANCH  18  21
DOCKED: ATOM     21  C   UNL     1     139.982  71.869 223.010 -0.29 -0.02    +0.128 A  
DOCKED: ATOM     22  N   UNL     1     140.487  72.205 224.229 -0.11 +0.03    -0.243 NA 
DOCKED: ATOM     23  C   UNL     1     139.512  70.563 222.796 -0.23 -0.01    +0.035 A  
DOCKED: ATOM     24  C   UNL     1     140.548  71.319 225.258 -0.50 -0.01    +0.071 A  
DOCKED: ATOM     25  C   UNL     1     139.563  69.630 223.833 -0.27 -0.00    +0.013 A  
DOCKED: ATOM     26  C   UNL     1     141.058  71.717 226.499 -0.69 -0.00    +0.030 A  
DOCKED: ATOM     27  C   UNL     1     140.080  70.000 225.080 -0.43 -0.00    +0.002 A  
DOCKED: ATOM     28  C   UNL     1     141.106  70.807 227.559 -0.63 -0.00    +0.023 A  
DOCKED: ATOM     29  C   UNL     1     140.133  69.092 226.147 -0.50 -0.01    +0.030 A  
DOCKED: ATOM     30  C   UNL     1     140.645  69.497 227.385 -0.57 -0.01    +0.041 A  
DOCKED: ATOM     31  Cl  UNL     1     140.706  68.363 228.721 -0.68 +0.02    -0.084 Cl 
DOCKED: ENDBRANCH  18  21
DOCKED: ENDBRANCH  16  17
DOCKED: ENDBRANCH   1  16
DOCKED: TORSDOF 6
DOCKED: TER
DOCKED: ENDMDL
________________________________________________________________________________


    FINAL DOCKED STATE:
    ________________________


Run:   8 / 20
Time taken for this run:   0.019s

DOCKED: MODEL        8
DOCKED: USER    Run = 8
DOCKED: USER
DOCKED: USER    Estimated Free Energy of Binding    =  -8.34 kcal/mol  [=(1)+(2)+(3)-(4)]
DOCKED: USER
DOCKED: USER    (1) Final Intermolecular Energy     = -10.13 kcal/mol
DOCKED: USER        vdW + Hbond + desolv Energy     =  -9.74 kcal/mol
DOCKED: USER        Electrostatic Energy            =  -0.39 kcal/mol
DOCKED: USER        Moving Ligand-Fixed Receptor    = -10.13 kcal/mol
DOCKED: USER        Moving Ligand-Moving Receptor   =  +0.00 kcal/mol
DOCKED: USER    (2) Final Total Internal Energy     =  -1.63 kcal/mol
DOCKED: USER    (3) Torsional Free Energy           =  +1.79 kcal/mol
DOCKED: USER    (4) Unbound System's Energy         =  -1.63 kcal/mol
DOCKED: USER
DOCKED: USER
DOCKED: REMARK SMILES O=C(NC/C(O)=[N+]1/CCC[C@@H]1c1ccc(Cl)cc1)c1ccc2cc(Cl)ccc2n1
DOCKED: REMARK SMILES IDX 5 1 6 2 7 4 8 5 11 6 9 7 10 8 12 9 13 10 18 11 14 12 17 13
DOCKED: REMARK SMILES IDX 15 14 16 15 4 16 3 17 2 18 1 20 19 21 29 22 20 23 28 24
DOCKED: REMARK SMILES IDX 21 25 27 26 22 27 26 28 23 29 24 30 25 31
DOCKED: REMARK H PARENT 6 3 3 19
DOCKED: USER                              x       y       z     vdW  Elec       q    Type
DOCKED: USER                           _______ _______ _______ _____ _____    ______ ____
DOCKED: ROOT
DOCKED: ATOM      1  C   UNL     1     141.140  75.588 220.454 -0.12 -0.12    +0.354 C  
DOCKED: ENDROOT
DOCKED: BRANCH   1   2
DOCKED: ATOM      2  O   UNL     1     142.197  74.869 221.025 -0.14 +0.16    -0.462 OA 
DOCKED: ATOM      3  H   UNL     1     142.346  73.879 220.879 +0.12 -0.06    +0.299 HD 
DOCKED: ENDBRANCH   1   2
DOCKED: BRANCH   1   4
DOCKED: ATOM      4  N   UNL     1     141.356  76.477 219.506 -0.10 +0.08    -0.194 N  
DOCKED: ATOM      5  C   UNL     1     142.101  76.171 218.290 -0.08 -0.16    +0.355 C  
DOCKED: ATOM      6  C   UNL     1     140.805  77.839 219.472 -0.08 -0.12    +0.295 C  
DOCKED: ATOM      7  C   UNL     1     141.817  77.303 217.314 -0.14 -0.04    +0.080 C  
DOCKED: ATOM      8  C   UNL     1     141.267  78.453 218.145 -0.15 -0.05    +0.088 C  
DOCKED: BRANCH   6   9
DOCKED: ATOM      9  C   UNL     1     141.282  78.681 220.642 -0.28 -0.01    +0.020 A  
DOCKED: ATOM     10  C   UNL     1     141.809  79.970 220.436 -0.33 -0.01    +0.012 A  
DOCKED: ATOM     11  C   UNL     1     141.151  78.198 221.955 -0.40 -0.01    +0.012 A  
DOCKED: ATOM     12  C   UNL     1     142.209  80.751 221.524 -0.40 -0.01    +0.021 A  
DOCKED: ATOM     13  C   UNL     1     141.552  78.982 223.041 -0.54 -0.01    +0.021 A  
DOCKED: ATOM     14  C   UNL     1     142.079  80.260 222.827 -0.56 -0.01    +0.041 A  
DOCKED: ATOM     15  Cl  UNL     1     142.567  81.247 224.192 -0.65 +0.01    -0.084 Cl 
DOCKED: ENDBRANCH   6   9
DOCKED: ENDBRANCH   1   4
DOCKED: BRANCH   1  16
DOCKED: ATOM     16  C   UNL     1     139.766  75.308 221.011 -0.15 -0.06    +0.269 C  
DOCKED: BRANCH  16  17
DOCKED: ATOM     17  N   UNL     1     139.843  74.335 222.099 -0.10 +0.03    -0.337 N  
DOCKED: ATOM     18  C   UNL     1     140.240  72.976 221.865 -0.20 -0.03    +0.270 C  
DOCKED: ATOM     19  H   UNL     1     139.580  74.631 223.067 -0.49 -0.00    +0.164 HD 
DOCKED: ATOM     20  O   UNL     1     140.644  72.631 220.720 -0.10 +0.04    -0.268 OA 
DOCKED: BRANCH  18  21
DOCKED: ATOM     21  C   UNL     1     140.156  71.975 222.949 -0.29 -0.02    +0.128 A  
DOCKED: ATOM     22  N   UNL     1     140.689  72.259 224.168 -0.06 +0.02    -0.243 NA 
DOCKED: ATOM     23  C   UNL     1     139.510  70.742 222.751 -0.24 -0.01    +0.035 A  
DOCKED: ATOM     24  C   UNL     1     140.616  71.393 225.213 -0.50 -0.01    +0.071 A  
DOCKED: ATOM     25  C   UNL     1     139.421  69.830 223.804 -0.29 -0.00    +0.013 A  
DOCKED: ATOM     26  C   UNL     1     141.164  71.739 226.453 -0.69 -0.00    +0.030 A  
DOCKED: ATOM     27  C   UNL     1     139.972  70.148 225.051 -0.44 -0.00    +0.002 A  
DOCKED: ATOM     28  C   UNL     1     141.075  70.851 227.529 -0.66 -0.00    +0.023 A  
DOCKED: ATOM     29  C   UNL     1     139.887  69.261 226.134 -0.48 -0.00    +0.030 A  
DOCKED: ATOM     30  C   UNL     1     140.437  69.615 227.371 -0.56 -0.01    +0.041 A  
DOCKED: ATOM     31  Cl  UNL     1     140.327  68.508 228.727 -0.65 +0.02    -0.084 Cl 
DOCKED: ENDBRANCH  18  21
DOCKED: ENDBRANCH  16  17
DOCKED: ENDBRANCH   1  16
DOCKED: TORSDOF 6
DOCKED: TER
DOCKED: ENDMDL
________________________________________________________________________________


    FINAL DOCKED STATE:
    ________________________


Run:   9 / 20
Time taken for this run:   0.019s

DOCKED: MODEL        9
DOCKED: USER    Run = 9
DOCKED: USER
DOCKED: USER    Estimated Free Energy of Binding    =  -8.12 kcal/mol  [=(1)+(2)+(3)-(4)]
DOCKED: USER
DOCKED: USER    (1) Final Intermolecular Energy     =  -9.91 kcal/mol
DOCKED: USER        vdW + Hbond + desolv Energy     =  -9.52 kcal/mol
DOCKED: USER        Electrostatic Energy            =  -0.39 kcal/mol
DOCKED: USER        Moving Ligand-Fixed Receptor    =  -9.91 kcal/mol
DOCKED: USER        Moving Ligand-Moving Receptor   =  +0.00 kcal/mol
DOCKED: USER    (2) Final Total Internal Energy     =  -1.79 kcal/mol
DOCKED: USER    (3) Torsional Free Energy           =  +1.79 kcal/mol
DOCKED: USER    (4) Unbound System's Energy         =  -1.79 kcal/mol
DOCKED: USER
DOCKED: USER
DOCKED: REMARK SMILES O=C(NC/C(O)=[N+]1/CCC[C@@H]1c1ccc(Cl)cc1)c1ccc2cc(Cl)ccc2n1
DOCKED: REMARK SMILES IDX 5 1 6 2 7 4 8 5 11 6 9 7 10 8 12 9 13 10 18 11 14 12 17 13
DOCKED: REMARK SMILES IDX 15 14 16 15 4 16 3 17 2 18 1 20 19 21 29 22 20 23 28 24
DOCKED: REMARK SMILES IDX 21 25 27 26 22 27 26 28 23 29 24 30 25 31
DOCKED: REMARK H PARENT 6 3 3 19
DOCKED: USER                              x       y       z     vdW  Elec       q    Type
DOCKED: USER                           _______ _______ _______ _____ _____    ______ ____
DOCKED: ROOT
DOCKED: ATOM      1  C   UNL     1     140.185  74.926 219.862 -0.03 -0.09    +0.354 C  
DOCKED: ENDROOT
DOCKED: BRANCH   1   2
DOCKED: ATOM      2  O   UNL     1     139.597  74.344 218.733 +0.01 +0.10    -0.462 OA 
DOCKED: ATOM      3  H   UNL     1     139.225  73.404 218.716 +0.03 -0.06    +0.299 HD 
DOCKED: ENDBRANCH   1   2
DOCKED: BRANCH   1   4
DOCKED: ATOM      4  N   UNL     1     141.472  75.207 219.892 -0.11 +0.06    -0.194 N  
DOCKED: ATOM      5  C   UNL     1     142.495  74.199 220.145 -0.13 -0.10    +0.355 C  
DOCKED: ATOM      6  C   UNL     1     142.068  76.512 219.575 -0.17 -0.15    +0.295 C  
DOCKED: ATOM      7  C   UNL     1     143.823  74.820 219.736 -0.35 -0.04    +0.080 C  
DOCKED: ATOM      8  C   UNL     1     143.587  76.322 219.670 -0.31 -0.06    +0.088 C  
DOCKED: BRANCH   6   9
DOCKED: ATOM      9  C   UNL     1     141.608  77.599 220.530 -0.30 -0.01    +0.020 A  
DOCKED: ATOM     10  C   UNL     1     141.273  77.295 221.864 -0.27 -0.01    +0.012 A  
DOCKED: ATOM     11  C   UNL     1     141.566  78.937 220.104 -0.28 -0.01    +0.012 A  
DOCKED: ATOM     12  C   UNL     1     140.889  78.311 222.744 -0.46 -0.01    +0.021 A  
DOCKED: ATOM     13  C   UNL     1     141.181  79.950 220.987 -0.30 -0.01    +0.021 A  
DOCKED: ATOM     14  C   UNL     1     140.845  79.639 222.309 -0.36 -0.01    +0.041 A  
DOCKED: ATOM     15  Cl  UNL     1     140.377  80.914 223.418 -0.49 +0.01    -0.084 Cl 
DOCKED: ENDBRANCH   6   9
DOCKED: ENDBRANCH   1   4
DOCKED: BRANCH   1  16
DOCKED: ATOM     16  C   UNL     1     139.270  75.175 221.036 -0.13 -0.06    +0.269 C  
DOCKED: BRANCH  16  17
DOCKED: ATOM     17  N   UNL     1     139.521  74.200 222.096 -0.14 +0.06    -0.337 N  
DOCKED: ATOM     18  C   UNL     1     139.659  72.801 221.812 -0.17 -0.05    +0.270 C  
DOCKED: ATOM     19  H   UNL     1     139.578  74.528 223.087 -0.52 -0.00    +0.164 HD 
DOCKED: ATOM     20  O   UNL     1     139.681  72.405 220.613 -0.06 +0.05    -0.268 OA 
DOCKED: BRANCH  18  21
DOCKED: ATOM     21  C   UNL     1     139.752  71.819 222.913 -0.28 -0.02    +0.128 A  
DOCKED: ATOM     22  N   UNL     1     140.324  72.186 224.093 -0.19 +0.04    -0.243 NA 
DOCKED: ATOM     23  C   UNL     1     139.235  70.520 222.774 -0.22 -0.01    +0.035 A  
DOCKED: ATOM     24  C   UNL     1     140.411  71.339 225.152 -0.48 -0.01    +0.071 A  
DOCKED: ATOM     25  C   UNL     1     139.311  69.626 223.844 -0.28 -0.00    +0.013 A  
DOCKED: ATOM     26  C   UNL     1     140.992  71.769 226.350 -0.66 -0.00    +0.030 A  
DOCKED: ATOM     27  C   UNL     1     139.898  70.028 225.049 -0.42 -0.00    +0.002 A  
DOCKED: ATOM     28  C   UNL     1     141.066  70.900 227.443 -0.66 -0.00    +0.023 A  
DOCKED: ATOM     29  C   UNL     1     139.978  69.161 226.148 -0.49 -0.00    +0.030 A  
DOCKED: ATOM     30  C   UNL     1     140.560  69.598 227.343 -0.56 -0.01    +0.041 A  
DOCKED: ATOM     31  Cl  UNL     1     140.655  68.515 228.719 -0.71 +0.02    -0.084 Cl 
DOCKED: ENDBRANCH  18  21
DOCKED: ENDBRANCH  16  17
DOCKED: ENDBRANCH   1  16
DOCKED: TORSDOF 6
DOCKED: TER
DOCKED: ENDMDL
________________________________________________________________________________


    FINAL DOCKED STATE:
    ________________________


Run:   10 / 20
Time taken for this run:   0.019s

DOCKED: MODEL        10
DOCKED: USER    Run = 10
DOCKED: USER
DOCKED: USER    Estimated Free Energy of Binding    =  -7.56 kcal/mol  [=(1)+(2)+(3)-(4)]
DOCKED: USER
DOCKED: USER    (1) Final Intermolecular Energy     =  -9.35 kcal/mol
DOCKED: USER        vdW + Hbond + desolv Energy     =  -8.96 kcal/mol
DOCKED: USER        Electrostatic Energy            =  -0.39 kcal/mol
DOCKED: USER        Moving Ligand-Fixed Receptor    =  -9.35 kcal/mol
DOCKED: USER        Moving Ligand-Moving Receptor   =  +0.00 kcal/mol
DOCKED: USER    (2) Final Total Internal Energy     =  -2.01 kcal/mol
DOCKED: USER    (3) Torsional Free Energy           =  +1.79 kcal/mol
DOCKED: USER    (4) Unbound System's Energy         =  -2.01 kcal/mol
DOCKED: USER
DOCKED: USER
DOCKED: REMARK SMILES O=C(NC/C(O)=[N+]1/CCC[C@@H]1c1ccc(Cl)cc1)c1ccc2cc(Cl)ccc2n1
DOCKED: REMARK SMILES IDX 5 1 6 2 7 4 8 5 11 6 9 7 10 8 12 9 13 10 18 11 14 12 17 13
DOCKED: REMARK SMILES IDX 15 14 16 15 4 16 3 17 2 18 1 20 19 21 29 22 20 23 28 24
DOCKED: REMARK SMILES IDX 21 25 27 26 22 27 26 28 23 29 24 30 25 31
DOCKED: REMARK H PARENT 6 3 3 19
DOCKED: USER                              x       y       z     vdW  Elec       q    Type
DOCKED: USER                           _______ _______ _______ _____ _____    ______ ____
DOCKED: ROOT
DOCKED: ATOM      1  C   UNL     1     139.848  74.858 219.906 -0.03 -0.08    +0.354 C  
DOCKED: ENDROOT
DOCKED: BRANCH   1   2
DOCKED: ATOM      2  O   UNL     1     139.362  74.198 218.772 +0.01 +0.10    -0.462 OA 
DOCKED: ATOM      3  H   UNL     1     139.068  73.231 218.768 +0.03 -0.06    +0.299 HD 
DOCKED: ENDBRANCH   1   2
DOCKED: BRANCH   1   4
DOCKED: ATOM      4  N   UNL     1     141.083  75.315 219.952 -0.10 +0.06    -0.194 N  
DOCKED: ATOM      5  C   UNL     1     142.239  74.448 220.147 -0.12 -0.11    +0.355 C  
DOCKED: ATOM      6  C   UNL     1     141.488  76.706 219.711 -0.13 -0.13    +0.295 C  
DOCKED: ATOM      7  C   UNL     1     143.463  75.271 219.775 -0.35 -0.04    +0.080 C  
DOCKED: ATOM      8  C   UNL     1     143.019  76.726 219.794 -0.25 -0.06    +0.088 C  
DOCKED: BRANCH   6   9
DOCKED: ATOM      9  C   UNL     1     140.888  77.662 220.726 -0.25 -0.01    +0.020 A  
DOCKED: ATOM     10  C   UNL     1     139.750  78.429 220.412 -0.13 -0.00    +0.012 A  
DOCKED: ATOM     11  C   UNL     1     141.435  77.750 222.017 -0.32 -0.01    +0.012 A  
DOCKED: ATOM     12  C   UNL     1     139.183  79.277 221.369 -0.15 -0.00    +0.021 A  
DOCKED: ATOM     13  C   UNL     1     140.866  78.600 222.971 -0.48 -0.01    +0.021 A  
DOCKED: ATOM     14  C   UNL     1     139.738  79.362 222.649 -0.32 -0.01    +0.041 A  
DOCKED: ATOM     15  Cl  UNL     1     139.018  80.414 223.853 -0.49 +0.01    -0.084 Cl 
DOCKED: ENDBRANCH   6   9
DOCKED: ENDBRANCH   1   4
DOCKED: BRANCH   1  16
DOCKED: ATOM     16  C   UNL     1     138.891  74.979 221.067 -0.12 -0.06    +0.269 C  
DOCKED: BRANCH  16  17
DOCKED: ATOM     17  N   UNL     1     139.238  74.025 222.119 -0.11 +0.07    -0.337 N  
DOCKED: ATOM     18  C   UNL     1     139.437  72.633 221.833 -0.16 -0.05    +0.270 C  
DOCKED: ATOM     19  H   UNL     1     139.321  74.361 223.105 -0.54 -0.04    +0.164 HD 
DOCKED: ATOM     20  O   UNL     1     139.428  72.232 220.636 -0.05 +0.05    -0.268 OA 
DOCKED: BRANCH  18  21
DOCKED: ATOM     21  C   UNL     1     139.628  71.664 222.933 -0.27 -0.03    +0.128 A  
DOCKED: ATOM     22  N   UNL     1     140.179  72.081 224.106 -0.18 +0.04    -0.243 NA 
DOCKED: ATOM     23  C   UNL     1     139.228  70.324 222.798 -0.21 -0.01    +0.035 A  
DOCKED: ATOM     24  C   UNL     1     140.352  71.245 225.164 -0.48 -0.01    +0.071 A  
DOCKED: ATOM     25  C   UNL     1     139.394  69.441 223.866 -0.27 -0.00    +0.013 A  
DOCKED: ATOM     26  C   UNL     1     140.905  71.725 226.356 -0.65 -0.00    +0.030 A  
DOCKED: ATOM     27  C   UNL     1     139.956  69.894 225.065 -0.42 -0.00    +0.002 A  
DOCKED: ATOM     28  C   UNL     1     141.068  70.866 227.447 -0.66 -0.00    +0.023 A  
DOCKED: ATOM     29  C   UNL     1     140.124  69.037 226.163 -0.51 -0.01    +0.030 A  
DOCKED: ATOM     30  C   UNL     1     140.678  69.525 227.352 -0.57 -0.01    +0.041 A  
DOCKED: ATOM     31  Cl  UNL     1     140.884  68.455 228.726 -0.70 +0.02    -0.084 Cl 
DOCKED: ENDBRANCH  18  21
DOCKED: ENDBRANCH  16  17
DOCKED: ENDBRANCH   1  16
DOCKED: TORSDOF 6
DOCKED: TER
DOCKED: ENDMDL
________________________________________________________________________________


    FINAL DOCKED STATE:
    ________________________


Run:   11 / 20
Time taken for this run:   0.019s

DOCKED: MODEL        11
DOCKED: USER    Run = 11
DOCKED: USER
DOCKED: USER    Estimated Free Energy of Binding    =  -7.71 kcal/mol  [=(1)+(2)+(3)-(4)]
DOCKED: USER
DOCKED: USER    (1) Final Intermolecular Energy     =  -9.50 kcal/mol
DOCKED: USER        vdW + Hbond + desolv Energy     =  -9.17 kcal/mol
DOCKED: USER        Electrostatic Energy            =  -0.33 kcal/mol
DOCKED: USER        Moving Ligand-Fixed Receptor    =  -9.50 kcal/mol
DOCKED: USER        Moving Ligand-Moving Receptor   =  +0.00 kcal/mol
DOCKED: USER    (2) Final Total Internal Energy     =  -1.82 kcal/mol
DOCKED: USER    (3) Torsional Free Energy           =  +1.79 kcal/mol
DOCKED: USER    (4) Unbound System's Energy         =  -1.82 kcal/mol
DOCKED: USER
DOCKED: USER
DOCKED: REMARK SMILES O=C(NC/C(O)=[N+]1/CCC[C@@H]1c1ccc(Cl)cc1)c1ccc2cc(Cl)ccc2n1
DOCKED: REMARK SMILES IDX 5 1 6 2 7 4 8 5 11 6 9 7 10 8 12 9 13 10 18 11 14 12 17 13
DOCKED: REMARK SMILES IDX 15 14 16 15 4 16 3 17 2 18 1 20 19 21 29 22 20 23 28 24
DOCKED: REMARK SMILES IDX 21 25 27 26 22 27 26 28 23 29 24 30 25 31
DOCKED: REMARK H PARENT 6 3 3 19
DOCKED: USER                              x       y       z     vdW  Elec       q    Type
DOCKED: USER                           _______ _______ _______ _____ _____    ______ ____
DOCKED: ROOT
DOCKED: ATOM      1  C   UNL     1     137.841  71.402 222.096 -0.06 -0.08    +0.354 C  
DOCKED: ENDROOT
DOCKED: BRANCH   1   2
DOCKED: ATOM      2  O   UNL     1     137.466  72.296 223.106 -0.04 +0.17    -0.462 OA 
DOCKED: ATOM      3  H   UNL     1     138.072  73.019 223.470 -0.39 -0.25    +0.299 HD 
DOCKED: ENDBRANCH   1   2
DOCKED: BRANCH   1   4
DOCKED: ATOM      4  N   UNL     1     137.947  70.110 222.334 -0.07 +0.03    -0.194 N  
DOCKED: ATOM      5  C   UNL     1     136.870  69.166 222.059 -0.05 -0.05    +0.355 C  
DOCKED: ATOM      6  C   UNL     1     139.161  69.424 222.793 -0.10 -0.05    +0.295 C  
DOCKED: ATOM      7  C   UNL     1     137.491  67.777 222.110 -0.16 -0.01    +0.080 C  
DOCKED: ATOM      8  C   UNL     1     138.815  67.931 222.844 -0.22 -0.01    +0.088 C  
DOCKED: BRANCH   6   9
DOCKED: ATOM      9  C   UNL     1     139.615  69.911 224.157 -0.32 -0.00    +0.020 A  
DOCKED: ATOM     10  C   UNL     1     140.396  71.076 224.285 -0.44 -0.00    +0.012 A  
DOCKED: ATOM     11  C   UNL     1     139.210  69.230 225.317 -0.41 -0.00    +0.012 A  
DOCKED: ATOM     12  C   UNL     1     140.775  71.537 225.550 -0.57 -0.00    +0.021 A  
DOCKED: ATOM     13  C   UNL     1     139.592  69.694 226.580 -0.49 -0.00    +0.021 A  
DOCKED: ATOM     14  C   UNL     1     140.372  70.849 226.698 -0.58 -0.01    +0.041 A  
DOCKED: ATOM     15  Cl  UNL     1     140.835  71.436 228.284 -0.85 +0.02    -0.084 Cl 
DOCKED: ENDBRANCH   6   9
DOCKED: ENDBRANCH   1   4
DOCKED: BRANCH   1  16
DOCKED: ATOM     16  C   UNL     1     138.144  72.010 220.749 -0.03 -0.05    +0.269 C  
DOCKED: BRANCH  16  17
DOCKED: ATOM     17  N   UNL     1     138.352  73.452 220.872 -0.04 +0.07    -0.337 N  
DOCKED: ATOM     18  C   UNL     1     139.281  73.998 221.819 -0.16 -0.06    +0.270 C  
DOCKED: ATOM     19  H   UNL     1     137.794  74.100 220.271 +0.03 -0.03    +0.164 HD 
DOCKED: ATOM     20  O   UNL     1     140.022  73.224 222.486 -0.73 +0.02    -0.268 OA 
DOCKED: BRANCH  18  21
DOCKED: ATOM     21  C   UNL     1     139.356  75.458 222.036 -0.26 -0.03    +0.128 A  
DOCKED: ATOM     22  N   UNL     1     140.492  76.129 221.699 -0.26 +0.07    -0.243 NA 
DOCKED: ATOM     23  C   UNL     1     138.265  76.172 222.561 -0.28 -0.01    +0.035 A  
DOCKED: ATOM     24  C   UNL     1     140.610  77.475 221.845 -0.33 -0.02    +0.071 A  
DOCKED: ATOM     25  C   UNL     1     138.358  77.555 222.725 -0.29 -0.00    +0.013 A  
DOCKED: ATOM     26  C   UNL     1     141.792  78.122 221.466 -0.28 -0.02    +0.030 A  
DOCKED: ATOM     27  C   UNL     1     139.533  78.224 222.365 -0.32 -0.00    +0.002 A  
DOCKED: ATOM     28  C   UNL     1     141.905  79.508 221.605 -0.41 -0.01    +0.023 A  
DOCKED: ATOM     29  C   UNL     1     139.654  79.615 222.502 -0.29 -0.01    +0.030 A  
DOCKED: ATOM     30  C   UNL     1     140.839  80.254 222.121 -0.34 -0.01    +0.041 A  
DOCKED: ATOM     31  Cl  UNL     1     140.988  81.993 222.289 -0.41 +0.01    -0.084 Cl 
DOCKED: ENDBRANCH  18  21
DOCKED: ENDBRANCH  16  17
DOCKED: ENDBRANCH   1  16
DOCKED: TORSDOF 6
DOCKED: TER
DOCKED: ENDMDL
________________________________________________________________________________


    FINAL DOCKED STATE:
    ________________________


Run:   12 / 20
Time taken for this run:   0.019s

DOCKED: MODEL        12
DOCKED: USER    Run = 12
DOCKED: USER
DOCKED: USER    Estimated Free Energy of Binding    =  -7.52 kcal/mol  [=(1)+(2)+(3)-(4)]
DOCKED: USER
DOCKED: USER    (1) Final Intermolecular Energy     =  -9.31 kcal/mol
DOCKED: USER        vdW + Hbond + desolv Energy     =  -9.07 kcal/mol
DOCKED: USER        Electrostatic Energy            =  -0.24 kcal/mol
DOCKED: USER        Moving Ligand-Fixed Receptor    =  -9.31 kcal/mol
DOCKED: USER        Moving Ligand-Moving Receptor   =  +0.00 kcal/mol
DOCKED: USER    (2) Final Total Internal Energy     =  -2.03 kcal/mol
DOCKED: USER    (3) Torsional Free Energy           =  +1.79 kcal/mol
DOCKED: USER    (4) Unbound System's Energy         =  -2.03 kcal/mol
DOCKED: USER
DOCKED: USER
DOCKED: REMARK SMILES O=C(NC/C(O)=[N+]1/CCC[C@@H]1c1ccc(Cl)cc1)c1ccc2cc(Cl)ccc2n1
DOCKED: REMARK SMILES IDX 5 1 6 2 7 4 8 5 11 6 9 7 10 8 12 9 13 10 18 11 14 12 17 13
DOCKED: REMARK SMILES IDX 15 14 16 15 4 16 3 17 2 18 1 20 19 21 29 22 20 23 28 24
DOCKED: REMARK SMILES IDX 21 25 27 26 22 27 26 28 23 29 24 30 25 31
DOCKED: REMARK H PARENT 6 3 3 19
DOCKED: USER                              x       y       z     vdW  Elec       q    Type
DOCKED: USER                           _______ _______ _______ _____ _____    ______ ____
DOCKED: ROOT
DOCKED: ATOM      1  C   UNL     1     137.158  71.478 222.722 -0.08 -0.08    +0.354 C  
DOCKED: ENDROOT
DOCKED: BRANCH   1   2
DOCKED: ATOM      2  O   UNL     1     136.560  72.122 223.811 -0.09 +0.13    -0.462 OA 
DOCKED: ATOM      3  H   UNL     1     136.647  73.113 223.995 -0.47 -0.15    +0.299 HD 
DOCKED: ENDBRANCH   1   2
DOCKED: BRANCH   1   4
DOCKED: ATOM      4  N   UNL     1     137.510  70.210 222.790 -0.08 +0.03    -0.194 N  
DOCKED: ATOM      5  C   UNL     1     136.569  69.116 222.572 -0.06 -0.05    +0.355 C  
DOCKED: ATOM      6  C   UNL     1     138.879  69.713 222.977 -0.12 -0.05    +0.295 C  
DOCKED: ATOM      7  C   UNL     1     137.406  67.862 222.368 -0.15 -0.01    +0.080 C  
DOCKED: ATOM      8  C   UNL     1     138.792  68.183 222.907 -0.22 -0.01    +0.088 C  
DOCKED: BRANCH   6   9
DOCKED: ATOM      9  C   UNL     1     139.471  70.151 224.305 -0.35 -0.00    +0.020 A  
DOCKED: ATOM     10  C   UNL     1     140.258  71.316 224.396 -0.46 -0.00    +0.012 A  
DOCKED: ATOM     11  C   UNL     1     139.192  69.423 225.473 -0.42 -0.00    +0.012 A  
DOCKED: ATOM     12  C   UNL     1     140.765  71.731 225.631 -0.52 -0.00    +0.021 A  
DOCKED: ATOM     13  C   UNL     1     139.702  69.840 226.707 -0.49 -0.00    +0.021 A  
DOCKED: ATOM     14  C   UNL     1     140.486  70.996 226.788 -0.61 -0.01    +0.041 A  
DOCKED: ATOM     15  Cl  UNL     1     141.111  71.525 228.338 -0.83 +0.02    -0.084 Cl 
DOCKED: ENDBRANCH   6   9
DOCKED: ENDBRANCH   1   4
DOCKED: BRANCH   1  16
DOCKED: ATOM     16  C   UNL     1     137.401  72.327 221.498 -0.06 -0.06    +0.269 C  
DOCKED: BRANCH  16  17
DOCKED: ATOM     17  N   UNL     1     137.999  73.607 221.873 -0.08 +0.10    -0.337 N  
DOCKED: ATOM     18  C   UNL     1     137.196  74.705 222.328 -0.06 -0.09    +0.270 C  
DOCKED: ATOM     19  H   UNL     1     139.033  73.732 221.786 -0.00 -0.04    +0.164 HD 
DOCKED: ATOM     20  O   UNL     1     135.960  74.539 222.521 -0.10 +0.06    -0.268 OA 
DOCKED: BRANCH  18  21
DOCKED: ATOM     21  C   UNL     1     137.803  76.036 222.547 -0.24 -0.03    +0.128 A  
DOCKED: ATOM     22  N   UNL     1     139.158  76.162 222.552 -0.25 +0.05    -0.243 NA 
DOCKED: ATOM     23  C   UNL     1     137.004  77.178 222.725 -0.23 -0.01    +0.035 A  
DOCKED: ATOM     24  C   UNL     1     139.774  77.362 222.717 -0.27 -0.01    +0.071 A  
DOCKED: ATOM     25  C   UNL     1     137.608  78.424 222.900 -0.20 -0.00    +0.013 A  
DOCKED: ATOM     26  C   UNL     1     141.171  77.444 222.696 -0.36 -0.01    +0.030 A  
DOCKED: ATOM     27  C   UNL     1     139.004  78.530 222.894 -0.32 -0.00    +0.002 A  
DOCKED: ATOM     28  C   UNL     1     141.802  78.681 222.852 -0.51 -0.01    +0.023 A  
DOCKED: ATOM     29  C   UNL     1     139.643  79.769 223.052 -0.36 -0.01    +0.030 A  
DOCKED: ATOM     30  C   UNL     1     141.040  79.843 223.029 -0.46 -0.01    +0.041 A  
DOCKED: ATOM     31  Cl  UNL     1     141.839  81.392 223.221 -0.65 +0.01    -0.084 Cl 
DOCKED: ENDBRANCH  18  21
DOCKED: ENDBRANCH  16  17
DOCKED: ENDBRANCH   1  16
DOCKED: TORSDOF 6
DOCKED: TER
DOCKED: ENDMDL
________________________________________________________________________________


    FINAL DOCKED STATE:
    ________________________


Run:   13 / 20
Time taken for this run:   0.019s

DOCKED: MODEL        13
DOCKED: USER    Run = 13
DOCKED: USER
DOCKED: USER    Estimated Free Energy of Binding    =  -7.38 kcal/mol  [=(1)+(2)+(3)-(4)]
DOCKED: USER
DOCKED: USER    (1) Final Intermolecular Energy     =  -9.17 kcal/mol
DOCKED: USER        vdW + Hbond + desolv Energy     =  -8.82 kcal/mol
DOCKED: USER        Electrostatic Energy            =  -0.35 kcal/mol
DOCKED: USER        Moving Ligand-Fixed Receptor    =  -9.17 kcal/mol
DOCKED: USER        Moving Ligand-Moving Receptor   =  +0.00 kcal/mol
DOCKED: USER    (2) Final Total Internal Energy     =  -2.31 kcal/mol
DOCKED: USER    (3) Torsional Free Energy           =  +1.79 kcal/mol
DOCKED: USER    (4) Unbound System's Energy         =  -2.31 kcal/mol
DOCKED: USER
DOCKED: USER
DOCKED: REMARK SMILES O=C(NC/C(O)=[N+]1/CCC[C@@H]1c1ccc(Cl)cc1)c1ccc2cc(Cl)ccc2n1
DOCKED: REMARK SMILES IDX 5 1 6 2 7 4 8 5 11 6 9 7 10 8 12 9 13 10 18 11 14 12 17 13
DOCKED: REMARK SMILES IDX 15 14 16 15 4 16 3 17 2 18 1 20 19 21 29 22 20 23 28 24
DOCKED: REMARK SMILES IDX 21 25 27 26 22 27 26 28 23 29 24 30 25 31
DOCKED: REMARK H PARENT 6 3 3 19
DOCKED: USER                              x       y       z     vdW  Elec       q    Type
DOCKED: USER                           _______ _______ _______ _____ _____    ______ ____
DOCKED: ROOT
DOCKED: ATOM      1  C   UNL     1     138.853  74.883 220.148 -0.03 -0.08    +0.354 C  
DOCKED: ENDROOT
DOCKED: BRANCH   1   2
DOCKED: ATOM      2  O   UNL     1     139.217  74.266 218.946 +0.01 +0.10    -0.462 OA 
DOCKED: ATOM      3  H   UNL     1     139.329  73.267 218.839 +0.03 -0.06    +0.299 HD 
DOCKED: ENDBRANCH   1   2
DOCKED: BRANCH   1   4
DOCKED: ATOM      4  N   UNL     1     139.533  75.907 220.622 -0.08 +0.05    -0.194 N  
DOCKED: ATOM      5  C   UNL     1     139.156  77.293 220.366 -0.02 -0.09    +0.355 C  
DOCKED: ATOM      6  C   UNL     1     140.674  75.821 221.543 -0.23 -0.08    +0.295 C  
DOCKED: ATOM      7  C   UNL     1     139.935  78.142 221.359 -0.21 -0.02    +0.080 C  
DOCKED: ATOM      8  C   UNL     1     141.071  77.266 221.868 -0.33 -0.04    +0.088 C  
DOCKED: BRANCH   6   9
DOCKED: ATOM      9  C   UNL     1     141.847  75.072 220.936 -0.29 -0.01    +0.020 A  
DOCKED: ATOM     10  C   UNL     1     142.789  75.738 220.129 -0.30 -0.01    +0.012 A  
DOCKED: ATOM     11  C   UNL     1     142.033  73.709 221.220 -0.19 -0.00    +0.012 A  
DOCKED: ATOM     12  C   UNL     1     143.887  75.046 219.608 -0.36 -0.01    +0.021 A  
DOCKED: ATOM     13  C   UNL     1     143.131  73.020 220.696 -0.29 -0.00    +0.021 A  
DOCKED: ATOM     14  C   UNL     1     144.061  73.688 219.892 -0.35 -0.01    +0.041 A  
DOCKED: ATOM     15  Cl  UNL     1     145.445  72.825 219.249 -0.46 -0.03    -0.084 Cl 
DOCKED: ENDBRANCH   6   9
DOCKED: ENDBRANCH   1   4
DOCKED: BRANCH   1  16
DOCKED: ATOM     16  C   UNL     1     137.670  74.286 220.871 -0.06 -0.06    +0.269 C  
DOCKED: BRANCH  16  17
DOCKED: ATOM     17  N   UNL     1     138.118  73.455 221.988 -0.08 +0.10    -0.337 N  
DOCKED: ATOM     18  C   UNL     1     138.960  72.312 221.782 -0.12 -0.06    +0.270 C  
DOCKED: ATOM     19  H   UNL     1     137.800  73.688 222.956 -0.51 -0.10    +0.164 HD 
DOCKED: ATOM     20  O   UNL     1     139.423  72.074 220.632 -0.05 +0.05    -0.268 OA 
DOCKED: BRANCH  18  21
DOCKED: ATOM     21  C   UNL     1     139.268  71.398 222.902 -0.24 -0.03    +0.128 A  
DOCKED: ATOM     22  N   UNL     1     139.886  71.884 224.014 -0.24 +0.05    -0.243 NA 
DOCKED: ATOM     23  C   UNL     1     138.909  70.040 222.852 -0.20 -0.01    +0.035 A  
DOCKED: ATOM     24  C   UNL     1     140.167  71.101 225.088 -0.47 -0.01    +0.071 A  
DOCKED: ATOM     25  C   UNL     1     139.187  69.210 223.940 -0.30 -0.00    +0.013 A  
DOCKED: ATOM     26  C   UNL     1     140.787  71.651 226.216 -0.62 -0.00    +0.030 A  
DOCKED: ATOM     27  C   UNL     1     139.817  69.734 225.074 -0.41 -0.00    +0.002 A  
DOCKED: ATOM     28  C   UNL     1     141.062  70.846 227.325 -0.65 -0.00    +0.023 A  
DOCKED: ATOM     29  C   UNL     1     140.097  68.932 226.190 -0.51 -0.01    +0.030 A  
DOCKED: ATOM     30  C   UNL     1     140.718  69.489 227.314 -0.56 -0.01    +0.041 A  
DOCKED: ATOM     31  Cl  UNL     1     141.063  68.487 228.711 -0.71 +0.02    -0.084 Cl 
DOCKED: ENDBRANCH  18  21
DOCKED: ENDBRANCH  16  17
DOCKED: ENDBRANCH   1  16
DOCKED: TORSDOF 6
DOCKED: TER
DOCKED: ENDMDL
________________________________________________________________________________


    FINAL DOCKED STATE:
    ________________________


Run:   14 / 20
Time taken for this run:   0.019s

DOCKED: MODEL        14
DOCKED: USER    Run = 14
DOCKED: USER
DOCKED: USER    Estimated Free Energy of Binding    =  -8.19 kcal/mol  [=(1)+(2)+(3)-(4)]
DOCKED: USER
DOCKED: USER    (1) Final Intermolecular Energy     =  -9.98 kcal/mol
DOCKED: USER        vdW + Hbond + desolv Energy     =  -9.65 kcal/mol
DOCKED: USER        Electrostatic Energy            =  -0.33 kcal/mol
DOCKED: USER        Moving Ligand-Fixed Receptor    =  -9.98 kcal/mol
DOCKED: USER        Moving Ligand-Moving Receptor   =  +0.00 kcal/mol
DOCKED: USER    (2) Final Total Internal Energy     =  -1.61 kcal/mol
DOCKED: USER    (3) Torsional Free Energy           =  +1.79 kcal/mol
DOCKED: USER    (4) Unbound System's Energy         =  -1.61 kcal/mol
DOCKED: USER
DOCKED: USER
DOCKED: REMARK SMILES O=C(NC/C(O)=[N+]1/CCC[C@@H]1c1ccc(Cl)cc1)c1ccc2cc(Cl)ccc2n1
DOCKED: REMARK SMILES IDX 5 1 6 2 7 4 8 5 11 6 9 7 10 8 12 9 13 10 18 11 14 12 17 13
DOCKED: REMARK SMILES IDX 15 14 16 15 4 16 3 17 2 18 1 20 19 21 29 22 20 23 28 24
DOCKED: REMARK SMILES IDX 21 25 27 26 22 27 26 28 23 29 24 30 25 31
DOCKED: REMARK H PARENT 6 3 3 19
DOCKED: USER                              x       y       z     vdW  Elec       q    Type
DOCKED: USER                           _______ _______ _______ _____ _____    ______ ____
DOCKED: ROOT
DOCKED: ATOM      1  C   UNL     1     138.425  76.076 221.541 -0.12 -0.08    +0.354 C  
DOCKED: ENDROOT
DOCKED: BRANCH   1   2
DOCKED: ATOM      2  O   UNL     1     137.905  75.957 222.834 -0.15 +0.12    -0.462 OA 
DOCKED: ATOM      3  H   UNL     1     137.883  75.089 223.353 -0.34 -0.18    +0.299 HD 
DOCKED: ENDBRANCH   1   2
DOCKED: BRANCH   1   4
DOCKED: ATOM      4  N   UNL     1     138.193  77.148 220.809 -0.05 +0.04    -0.194 N  
DOCKED: ATOM      5  C   UNL     1     137.872  77.079 219.388 +0.00 -0.08    +0.355 C  
DOCKED: ATOM      6  C   UNL     1     138.112  78.524 221.314 -0.06 -0.06    +0.295 C  
DOCKED: ATOM      7  C   UNL     1     137.320  78.444 219.004 -0.01 -0.02    +0.080 C  
DOCKED: ATOM      8  C   UNL     1     137.745  79.400 220.109 -0.03 -0.02    +0.088 C  
DOCKED: BRANCH   6   9
DOCKED: ATOM      9  C   UNL     1     139.421  78.988 221.928 -0.23 -0.00    +0.020 A  
DOCKED: ATOM     10  C   UNL     1     140.616  78.966 221.184 -0.25 -0.00    +0.012 A  
DOCKED: ATOM     11  C   UNL     1     139.440  79.499 223.237 -0.38 -0.00    +0.012 A  
DOCKED: ATOM     12  C   UNL     1     141.807  79.433 221.748 -0.43 -0.01    +0.021 A  
DOCKED: ATOM     13  C   UNL     1     140.634  79.964 223.798 -0.46 -0.00    +0.021 A  
DOCKED: ATOM     14  C   UNL     1     141.818  79.934 223.053 -0.55 -0.01    +0.041 A  
DOCKED: ATOM     15  Cl  UNL     1     143.310  80.532 223.754 -0.63 +0.02    -0.084 Cl 
DOCKED: ENDBRANCH   6   9
DOCKED: ENDBRANCH   1   4
DOCKED: BRANCH   1  16
DOCKED: ATOM     16  C   UNL     1     139.228  74.903 221.035 -0.13 -0.06    +0.269 C  
DOCKED: BRANCH  16  17
DOCKED: ATOM     17  N   UNL     1     139.466  73.943 222.111 -0.13 +0.06    -0.337 N  
DOCKED: ATOM     18  C   UNL     1     139.850  72.588 221.836 -0.18 -0.04    +0.270 C  
DOCKED: ATOM     19  H   UNL     1     139.333  74.245 223.103 -0.54 -0.04    +0.164 HD 
DOCKED: ATOM     20  O   UNL     1     140.100  72.236 220.650 -0.07 +0.05    -0.268 OA 
DOCKED: BRANCH  18  21
DOCKED: ATOM     21  C   UNL     1     139.929  71.597 222.931 -0.28 -0.02    +0.128 A  
DOCKED: ATOM     22  N   UNL     1     140.444  71.967 224.135 -0.24 +0.03    -0.243 NA 
DOCKED: ATOM     23  C   UNL     1     139.458  70.284 222.758 -0.21 -0.01    +0.035 A  
DOCKED: ATOM     24  C   UNL     1     140.515  71.111 225.188 -0.50 -0.01    +0.071 A  
DOCKED: ATOM     25  C   UNL     1     139.519  69.381 223.820 -0.24 -0.00    +0.013 A  
DOCKED: ATOM     26  C   UNL     1     141.035  71.544 226.413 -0.68 -0.00    +0.030 A  
DOCKED: ATOM     27  C   UNL     1     140.047  69.787 225.051 -0.41 -0.00    +0.002 A  
DOCKED: ATOM     28  C   UNL     1     141.094  70.665 227.498 -0.61 -0.00    +0.023 A  
DOCKED: ATOM     29  C   UNL     1     140.109  68.909 226.144 -0.51 -0.01    +0.030 A  
DOCKED: ATOM     30  C   UNL     1     140.632  69.350 227.365 -0.57 -0.01    +0.041 A  
DOCKED: ATOM     31  Cl  UNL     1     140.706  68.255 228.733 -0.64 +0.02    -0.084 Cl 
DOCKED: ENDBRANCH  18  21
DOCKED: ENDBRANCH  16  17
DOCKED: ENDBRANCH   1  16
DOCKED: TORSDOF 6
DOCKED: TER
DOCKED: ENDMDL
________________________________________________________________________________


    FINAL DOCKED STATE:
    ________________________


Run:   15 / 20
Time taken for this run:   0.019s

DOCKED: MODEL        15
DOCKED: USER    Run = 15
DOCKED: USER
DOCKED: USER    Estimated Free Energy of Binding    =  -8.15 kcal/mol  [=(1)+(2)+(3)-(4)]
DOCKED: USER
DOCKED: USER    (1) Final Intermolecular Energy     =  -9.94 kcal/mol
DOCKED: USER        vdW + Hbond + desolv Energy     =  -9.49 kcal/mol
DOCKED: USER        Electrostatic Energy            =  -0.46 kcal/mol
DOCKED: USER        Moving Ligand-Fixed Receptor    =  -9.94 kcal/mol
DOCKED: USER        Moving Ligand-Moving Receptor   =  +0.00 kcal/mol
DOCKED: USER    (2) Final Total Internal Energy     =  -1.64 kcal/mol
DOCKED: USER    (3) Torsional Free Energy           =  +1.79 kcal/mol
DOCKED: USER    (4) Unbound System's Energy         =  -1.64 kcal/mol
DOCKED: USER
DOCKED: USER
DOCKED: REMARK SMILES O=C(NC/C(O)=[N+]1/CCC[C@@H]1c1ccc(Cl)cc1)c1ccc2cc(Cl)ccc2n1
DOCKED: REMARK SMILES IDX 5 1 6 2 7 4 8 5 11 6 9 7 10 8 12 9 13 10 18 11 14 12 17 13
DOCKED: REMARK SMILES IDX 15 14 16 15 4 16 3 17 2 18 1 20 19 21 29 22 20 23 28 24
DOCKED: REMARK SMILES IDX 21 25 27 26 22 27 26 28 23 29 24 30 25 31
DOCKED: REMARK H PARENT 6 3 3 19
DOCKED: USER                              x       y       z     vdW  Elec       q    Type
DOCKED: USER                           _______ _______ _______ _____ _____    ______ ____
DOCKED: ROOT
DOCKED: ATOM      1  C   UNL     1     141.914  74.373 219.706 -0.08 -0.10    +0.354 C  
DOCKED: ENDROOT
DOCKED: BRANCH   1   2
DOCKED: ATOM      2  O   UNL     1     142.569  74.103 220.914 -0.11 +0.12    -0.462 OA 
DOCKED: ATOM      3  H   UNL     1     142.231  74.409 221.816 +0.09 -0.05    +0.299 HD 
DOCKED: ENDBRANCH   1   2
DOCKED: BRANCH   1   4
DOCKED: ATOM      4  N   UNL     1     142.315  75.350 218.918 -0.11 +0.08    -0.194 N  
DOCKED: ATOM      5  C   UNL     1     143.482  75.236 218.049 -0.08 -0.16    +0.355 C  
DOCKED: ATOM      6  C   UNL     1     141.612  76.623 218.711 -0.09 -0.13    +0.295 C  
DOCKED: ATOM      7  C   UNL     1     143.394  76.387 217.058 -0.22 -0.05    +0.080 C  
DOCKED: ATOM      8  C   UNL     1     142.417  77.389 217.654 -0.23 -0.06    +0.088 C  
DOCKED: BRANCH   6   9
DOCKED: ATOM      9  C   UNL     1     141.508  77.435 219.990 -0.25 -0.01    +0.020 A  
DOCKED: ATOM     10  C   UNL     1     141.119  76.829 221.200 -0.32 -0.01    +0.012 A  
DOCKED: ATOM     11  C   UNL     1     141.854  78.796 219.988 -0.27 -0.01    +0.012 A  
DOCKED: ATOM     12  C   UNL     1     141.065  77.578 222.380 -0.43 -0.01    +0.021 A  
DOCKED: ATOM     13  C   UNL     1     141.797  79.543 221.169 -0.37 -0.01    +0.021 A  
DOCKED: ATOM     14  C   UNL     1     141.406  78.934 222.366 -0.44 -0.02    +0.041 A  
DOCKED: ATOM     15  Cl  UNL     1     141.351  79.870 223.848 -0.64 +0.02    -0.084 Cl 
DOCKED: ENDBRANCH   6   9
DOCKED: ENDBRANCH   1   4
DOCKED: BRANCH   1  16
DOCKED: ATOM     16  C   UNL     1     140.719  73.509 219.389 -0.03 -0.06    +0.269 C  
DOCKED: BRANCH  16  17
DOCKED: ATOM     17  N   UNL     1     140.493  72.535 220.456 -0.04 +0.06    -0.337 N  
DOCKED: ATOM     18  C   UNL     1     140.237  72.947 221.806 -0.19 -0.03    +0.270 C  
DOCKED: ATOM     19  H   UNL     1     140.541  71.515 220.233 +0.03 -0.03    +0.164 HD 
DOCKED: ATOM     20  O   UNL     1     140.088  74.172 222.069 -0.83 +0.02    -0.268 OA 
DOCKED: BRANCH  18  21
DOCKED: ATOM     21  C   UNL     1     140.171  71.947 222.894 -0.29 -0.02    +0.128 A  
DOCKED: ATOM     22  N   UNL     1     140.670  72.258 224.122 -0.08 +0.02    -0.243 NA 
DOCKED: ATOM     23  C   UNL     1     139.578  70.690 222.689 -0.24 -0.01    +0.035 A  
DOCKED: ATOM     24  C   UNL     1     140.611  71.393 225.169 -0.49 -0.01    +0.071 A  
DOCKED: ATOM     25  C   UNL     1     139.504  69.780 223.745 -0.28 -0.00    +0.013 A  
DOCKED: ATOM     26  C   UNL     1     141.121  71.766 226.417 -0.68 -0.00    +0.030 A  
DOCKED: ATOM     27  C   UNL     1     140.018  70.124 225.001 -0.43 -0.00    +0.002 A  
DOCKED: ATOM     28  C   UNL     1     141.046  70.880 227.496 -0.66 -0.00    +0.023 A  
DOCKED: ATOM     29  C   UNL     1     139.947  69.239 226.087 -0.48 -0.00    +0.030 A  
DOCKED: ATOM     30  C   UNL     1     140.460  69.619 227.332 -0.56 -0.01    +0.041 A  
DOCKED: ATOM     31  Cl  UNL     1     140.366  68.514 228.691 -0.68 +0.02    -0.084 Cl 
DOCKED: ENDBRANCH  18  21
DOCKED: ENDBRANCH  16  17
DOCKED: ENDBRANCH   1  16
DOCKED: TORSDOF 6
DOCKED: TER
DOCKED: ENDMDL
________________________________________________________________________________


    FINAL DOCKED STATE:
    ________________________


Run:   16 / 20
Time taken for this run:   0.019s

DOCKED: MODEL        16
DOCKED: USER    Run = 16
DOCKED: USER
DOCKED: USER    Estimated Free Energy of Binding    =  -8.12 kcal/mol  [=(1)+(2)+(3)-(4)]
DOCKED: USER
DOCKED: USER    (1) Final Intermolecular Energy     =  -9.91 kcal/mol
DOCKED: USER        vdW + Hbond + desolv Energy     =  -9.74 kcal/mol
DOCKED: USER        Electrostatic Energy            =  -0.17 kcal/mol
DOCKED: USER        Moving Ligand-Fixed Receptor    =  -9.91 kcal/mol
DOCKED: USER        Moving Ligand-Moving Receptor   =  +0.00 kcal/mol
DOCKED: USER    (2) Final Total Internal Energy     =  -1.73 kcal/mol
DOCKED: USER    (3) Torsional Free Energy           =  +1.79 kcal/mol
DOCKED: USER    (4) Unbound System's Energy         =  -1.73 kcal/mol
DOCKED: USER
DOCKED: USER
DOCKED: REMARK SMILES O=C(NC/C(O)=[N+]1/CCC[C@@H]1c1ccc(Cl)cc1)c1ccc2cc(Cl)ccc2n1
DOCKED: REMARK SMILES IDX 5 1 6 2 7 4 8 5 11 6 9 7 10 8 12 9 13 10 18 11 14 12 17 13
DOCKED: REMARK SMILES IDX 15 14 16 15 4 16 3 17 2 18 1 20 19 21 29 22 20 23 28 24
DOCKED: REMARK SMILES IDX 21 25 27 26 22 27 26 28 23 29 24 30 25 31
DOCKED: REMARK H PARENT 6 3 3 19
DOCKED: USER                              x       y       z     vdW  Elec       q    Type
DOCKED: USER                           _______ _______ _______ _____ _____    ______ ____
DOCKED: ROOT
DOCKED: ATOM      1  C   UNL     1     138.603  75.484 221.644 -0.14 -0.08    +0.354 C  
DOCKED: ENDROOT
DOCKED: BRANCH   1   2
DOCKED: ATOM      2  O   UNL     1     139.610  75.647 222.602 -0.39 +0.07    -0.462 OA 
DOCKED: ATOM      3  H   UNL     1     139.557  75.275 223.541 -0.33 -0.01    +0.299 HD 
DOCKED: ENDBRANCH   1   2
DOCKED: BRANCH   1   4
DOCKED: ATOM      4  N   UNL     1     138.004  76.525 221.100 -0.07 +0.04    -0.194 N  
DOCKED: ATOM      5  C   UNL     1     137.418  76.491 219.765 -0.00 -0.07    +0.355 C  
DOCKED: ATOM      6  C   UNL     1     137.742  77.804 221.772 -0.09 -0.05    +0.295 C  
DOCKED: ATOM      7  C   UNL     1     136.524  77.717 219.656 -0.02 -0.01    +0.080 C  
DOCKED: ATOM      8  C   UNL     1     136.958  78.660 220.769 -0.04 -0.02    +0.088 C  
DOCKED: BRANCH   6   9
DOCKED: ATOM      9  C   UNL     1     139.022  78.509 222.184 -0.25 -0.00    +0.020 A  
DOCKED: ATOM     10  C   UNL     1     139.106  79.193 223.412 -0.36 -0.00    +0.012 A  
DOCKED: ATOM     11  C   UNL     1     140.159  78.438 221.363 -0.23 -0.00    +0.012 A  
DOCKED: ATOM     12  C   UNL     1     140.303  79.805 223.799 -0.45 -0.00    +0.021 A  
DOCKED: ATOM     13  C   UNL     1     141.354  79.052 221.753 -0.38 -0.01    +0.021 A  
DOCKED: ATOM     14  C   UNL     1     141.428  79.733 222.972 -0.50 -0.01    +0.041 A  
DOCKED: ATOM     15  Cl  UNL     1     142.931  80.489 223.464 -0.81 +0.02    -0.084 Cl 
DOCKED: ENDBRANCH   6   9
DOCKED: ENDBRANCH   1   4
DOCKED: BRANCH   1  16
DOCKED: ATOM     16  C   UNL     1     138.232  74.062 221.304 -0.10 -0.06    +0.269 C  
DOCKED: BRANCH  16  17
DOCKED: ATOM     17  N   UNL     1     138.765  73.140 222.306 -0.06 +0.10    -0.337 N  
DOCKED: ATOM     18  C   UNL     1     138.444  71.742 222.285 -0.11 -0.06    +0.270 C  
DOCKED: ATOM     19  H   UNL     1     139.376  73.512 223.068 -0.49 -0.05    +0.164 HD 
DOCKED: ATOM     20  O   UNL     1     137.782  71.266 221.321 -0.03 +0.05    -0.268 OA 
DOCKED: BRANCH  18  21
DOCKED: ATOM     21  C   UNL     1     138.863  70.861 223.396 -0.23 -0.03    +0.128 A  
DOCKED: ATOM     22  N   UNL     1     139.574  71.382 224.434 -0.25 +0.06    -0.243 NA 
DOCKED: ATOM     23  C   UNL     1     138.518  69.499 223.413 -0.24 -0.01    +0.035 A  
DOCKED: ATOM     24  C   UNL     1     139.961  70.631 225.498 -0.46 -0.01    +0.071 A  
DOCKED: ATOM     25  C   UNL     1     138.904  68.701 224.492 -0.36 -0.00    +0.013 A  
DOCKED: ATOM     26  C   UNL     1     140.674  71.217 226.550 -0.64 -0.00    +0.030 A  
DOCKED: ATOM     27  C   UNL     1     139.628  69.261 225.551 -0.45 -0.00    +0.002 A  
DOCKED: ATOM     28  C   UNL     1     141.058  70.445 227.650 -0.60 -0.00    +0.023 A  
DOCKED: ATOM     29  C   UNL     1     140.018  68.491 226.657 -0.59 -0.01    +0.030 A  
DOCKED: ATOM     30  C   UNL     1     140.731  69.085 227.705 -0.60 -0.01    +0.041 A  
DOCKED: ATOM     31  Cl  UNL     1     141.214  68.124 229.089 -0.46 +0.02    -0.084 Cl 
DOCKED: ENDBRANCH  18  21
DOCKED: ENDBRANCH  16  17
DOCKED: ENDBRANCH   1  16
DOCKED: TORSDOF 6
DOCKED: TER
DOCKED: ENDMDL
________________________________________________________________________________


    FINAL DOCKED STATE:
    ________________________


Run:   17 / 20
Time taken for this run:   0.019s

DOCKED: MODEL        17
DOCKED: USER    Run = 17
DOCKED: USER
DOCKED: USER    Estimated Free Energy of Binding    =  -8.05 kcal/mol  [=(1)+(2)+(3)-(4)]
DOCKED: USER
DOCKED: USER    (1) Final Intermolecular Energy     =  -9.84 kcal/mol
DOCKED: USER        vdW + Hbond + desolv Energy     =  -9.45 kcal/mol
DOCKED: USER        Electrostatic Energy            =  -0.40 kcal/mol
DOCKED: USER        Moving Ligand-Fixed Receptor    =  -9.84 kcal/mol
DOCKED: USER        Moving Ligand-Moving Receptor   =  +0.00 kcal/mol
DOCKED: USER    (2) Final Total Internal Energy     =  -1.78 kcal/mol
DOCKED: USER    (3) Torsional Free Energy           =  +1.79 kcal/mol
DOCKED: USER    (4) Unbound System's Energy         =  -1.78 kcal/mol
DOCKED: USER
DOCKED: USER
DOCKED: REMARK SMILES O=C(NC/C(O)=[N+]1/CCC[C@@H]1c1ccc(Cl)cc1)c1ccc2cc(Cl)ccc2n1
DOCKED: REMARK SMILES IDX 5 1 6 2 7 4 8 5 11 6 9 7 10 8 12 9 13 10 18 11 14 12 17 13
DOCKED: REMARK SMILES IDX 15 14 16 15 4 16 3 17 2 18 1 20 19 21 29 22 20 23 28 24
DOCKED: REMARK SMILES IDX 21 25 27 26 22 27 26 28 23 29 24 30 25 31
DOCKED: REMARK H PARENT 6 3 3 19
DOCKED: USER                              x       y       z     vdW  Elec       q    Type
DOCKED: USER                           _______ _______ _______ _____ _____    ______ ____
DOCKED: ROOT
DOCKED: ATOM      1  C   UNL     1     140.169  74.984 219.913 -0.04 -0.09    +0.354 C  
DOCKED: ENDROOT
DOCKED: BRANCH   1   2
DOCKED: ATOM      2  O   UNL     1     139.578  74.407 218.783 +0.01 +0.10    -0.462 OA 
DOCKED: ATOM      3  H   UNL     1     139.210  73.466 218.760 +0.03 -0.06    +0.299 HD 
DOCKED: ENDBRANCH   1   2
DOCKED: BRANCH   1   4
DOCKED: ATOM      4  N   UNL     1     141.457  75.263 219.942 -0.12 +0.06    -0.194 N  
DOCKED: ATOM      5  C   UNL     1     142.478  74.250 220.185 -0.13 -0.10    +0.355 C  
DOCKED: ATOM      6  C   UNL     1     142.054  76.569 219.635 -0.17 -0.16    +0.295 C  
DOCKED: ATOM      7  C   UNL     1     143.806  74.872 219.778 -0.36 -0.04    +0.080 C  
DOCKED: ATOM      8  C   UNL     1     143.573  76.375 219.724 -0.30 -0.06    +0.088 C  
DOCKED: BRANCH   6   9
DOCKED: ATOM      9  C   UNL     1     141.599  77.649 220.599 -0.30 -0.01    +0.020 A  
DOCKED: ATOM     10  C   UNL     1     141.434  78.980 220.168 -0.28 -0.01    +0.012 A  
DOCKED: ATOM     11  C   UNL     1     141.283  77.318 221.927 -0.26 -0.01    +0.012 A  
DOCKED: ATOM     12  C   UNL     1     140.976  79.958 221.055 -0.28 -0.01    +0.021 A  
DOCKED: ATOM     13  C   UNL     1     140.827  78.300 222.812 -0.46 -0.01    +0.021 A  
DOCKED: ATOM     14  C   UNL     1     140.670  79.620 222.377 -0.35 -0.01    +0.041 A  
DOCKED: ATOM     15  Cl  UNL     1     140.083  80.845 223.485 -0.47 +0.01    -0.084 Cl 
DOCKED: ENDBRANCH   6   9
DOCKED: ENDBRANCH   1   4
DOCKED: BRANCH   1  16
DOCKED: ATOM     16  C   UNL     1     139.256  75.231 221.089 -0.14 -0.06    +0.269 C  
DOCKED: BRANCH  16  17
DOCKED: ATOM     17  N   UNL     1     139.502  74.249 222.143 -0.13 +0.06    -0.337 N  
DOCKED: ATOM     18  C   UNL     1     139.656  72.853 221.848 -0.18 -0.05    +0.270 C  
DOCKED: ATOM     19  H   UNL     1     139.545  74.568 223.138 -0.51 -0.01    +0.164 HD 
DOCKED: ATOM     20  O   UNL     1     139.696  72.468 220.646 -0.06 +0.05    -0.268 OA 
DOCKED: BRANCH  18  21
DOCKED: ATOM     21  C   UNL     1     139.745  71.862 222.942 -0.28 -0.02    +0.128 A  
DOCKED: ATOM     22  N   UNL     1     140.323  72.216 224.122 -0.17 +0.04    -0.243 NA 
DOCKED: ATOM     23  C   UNL     1     139.217  70.568 222.793 -0.22 -0.01    +0.035 A  
DOCKED: ATOM     24  C   UNL     1     140.406  71.359 225.174 -0.48 -0.01    +0.071 A  
DOCKED: ATOM     25  C   UNL     1     139.290  69.665 223.856 -0.29 -0.00    +0.013 A  
DOCKED: ATOM     26  C   UNL     1     140.993  71.776 226.375 -0.66 -0.00    +0.030 A  
DOCKED: ATOM     27  C   UNL     1     139.883  70.054 225.063 -0.43 -0.00    +0.002 A  
DOCKED: ATOM     28  C   UNL     1     141.064  70.898 227.460 -0.66 -0.00    +0.023 A  
DOCKED: ATOM     29  C   UNL     1     139.959  69.177 226.155 -0.49 -0.00    +0.030 A  
DOCKED: ATOM     30  C   UNL     1     140.548  69.601 227.352 -0.56 -0.01    +0.041 A  
DOCKED: ATOM     31  Cl  UNL     1     140.638  68.506 228.719 -0.71 +0.02    -0.084 Cl 
DOCKED: ENDBRANCH  18  21
DOCKED: ENDBRANCH  16  17
DOCKED: ENDBRANCH   1  16
DOCKED: TORSDOF 6
DOCKED: TER
DOCKED: ENDMDL
________________________________________________________________________________


    FINAL DOCKED STATE:
    ________________________


Run:   18 / 20
Time taken for this run:   0.019s

DOCKED: MODEL        18
DOCKED: USER    Run = 18
DOCKED: USER
DOCKED: USER    Estimated Free Energy of Binding    =  -8.04 kcal/mol  [=(1)+(2)+(3)-(4)]
DOCKED: USER
DOCKED: USER    (1) Final Intermolecular Energy     =  -9.83 kcal/mol
DOCKED: USER        vdW + Hbond + desolv Energy     =  -9.56 kcal/mol
DOCKED: USER        Electrostatic Energy            =  -0.27 kcal/mol
DOCKED: USER        Moving Ligand-Fixed Receptor    =  -9.83 kcal/mol
DOCKED: USER        Moving Ligand-Moving Receptor   =  +0.00 kcal/mol
DOCKED: USER    (2) Final Total Internal Energy     =  -1.70 kcal/mol
DOCKED: USER    (3) Torsional Free Energy           =  +1.79 kcal/mol
DOCKED: USER    (4) Unbound System's Energy         =  -1.70 kcal/mol
DOCKED: USER
DOCKED: USER
DOCKED: REMARK SMILES O=C(NC/C(O)=[N+]1/CCC[C@@H]1c1ccc(Cl)cc1)c1ccc2cc(Cl)ccc2n1
DOCKED: REMARK SMILES IDX 5 1 6 2 7 4 8 5 11 6 9 7 10 8 12 9 13 10 18 11 14 12 17 13
DOCKED: REMARK SMILES IDX 15 14 16 15 4 16 3 17 2 18 1 20 19 21 29 22 20 23 28 24
DOCKED: REMARK SMILES IDX 21 25 27 26 22 27 26 28 23 29 24 30 25 31
DOCKED: REMARK H PARENT 6 3 3 19
DOCKED: USER                              x       y       z     vdW  Elec       q    Type
DOCKED: USER                           _______ _______ _______ _____ _____    ______ ____
DOCKED: ROOT
DOCKED: ATOM      1  C   UNL     1     138.547  75.962 221.519 -0.12 -0.08    +0.354 C  
DOCKED: ENDROOT
DOCKED: BRANCH   1   2
DOCKED: ATOM      2  O   UNL     1     138.802  76.117 222.887 -0.16 +0.10    -0.462 OA 
DOCKED: ATOM      3  H   UNL     1     138.918  75.343 223.527 -0.37 -0.11    +0.299 HD 
DOCKED: ENDBRANCH   1   2
DOCKED: BRANCH   1   4
DOCKED: ATOM      4  N   UNL     1     138.242  76.997 220.762 -0.05 +0.04    -0.194 N  
DOCKED: ATOM      5  C   UNL     1     137.963  76.877 219.335 +0.00 -0.08    +0.355 C  
DOCKED: ATOM      6  C   UNL     1     138.033  78.371 221.238 -0.05 -0.06    +0.295 C  
DOCKED: ATOM      7  C   UNL     1     137.306  78.183 218.913 -0.01 -0.02    +0.080 C  
DOCKED: ATOM      8  C   UNL     1     137.621  79.190 220.009 -0.03 -0.02    +0.088 C  
DOCKED: BRANCH   6   9
DOCKED: ATOM      9  C   UNL     1     139.282  78.955 221.872 -0.21 -0.00    +0.020 A  
DOCKED: ATOM     10  C   UNL     1     139.194  79.809 222.988 -0.34 -0.00    +0.012 A  
DOCKED: ATOM     11  C   UNL     1     140.550  78.601 221.382 -0.27 -0.00    +0.012 A  
DOCKED: ATOM     12  C   UNL     1     140.353  80.309 223.588 -0.44 -0.00    +0.021 A  
DOCKED: ATOM     13  C   UNL     1     141.708  79.105 221.984 -0.45 -0.01    +0.021 A  
DOCKED: ATOM     14  C   UNL     1     141.611  79.957 223.089 -0.53 -0.01    +0.041 A  
DOCKED: ATOM     15  Cl  UNL     1     143.065  80.573 223.851 -0.72 +0.02    -0.084 Cl 
DOCKED: ENDBRANCH   6   9
DOCKED: ENDBRANCH   1   4
DOCKED: BRANCH   1  16
DOCKED: ATOM     16  C   UNL     1     138.610  74.553 220.985 -0.10 -0.06    +0.269 C  
DOCKED: BRANCH  16  17
DOCKED: ATOM     17  N   UNL     1     139.029  73.625 222.035 -0.11 +0.08    -0.337 N  
DOCKED: ATOM     18  C   UNL     1     139.111  72.212 221.799 -0.13 -0.06    +0.270 C  
DOCKED: ATOM     19  H   UNL     1     139.251  73.998 222.986 -0.53 -0.06    +0.164 HD 
DOCKED: ATOM     20  O   UNL     1     138.932  71.761 220.634 -0.03 +0.05    -0.268 OA 
DOCKED: BRANCH  18  21
DOCKED: ATOM     21  C   UNL     1     139.381  71.282 222.916 -0.24 -0.03    +0.128 A  
DOCKED: ATOM     22  N   UNL     1     139.977  71.747 224.048 -0.26 +0.05    -0.243 NA 
DOCKED: ATOM     23  C   UNL     1     139.008  69.929 222.840 -0.20 -0.01    +0.035 A  
DOCKED: ATOM     24  C   UNL     1     140.223  70.948 225.119 -0.47 -0.01    +0.071 A  
DOCKED: ATOM     25  C   UNL     1     139.250  69.083 223.924 -0.28 -0.00    +0.013 A  
DOCKED: ATOM     26  C   UNL     1     140.822  71.478 226.268 -0.64 -0.00    +0.030 A  
DOCKED: ATOM     27  C   UNL     1     139.858  69.586 225.080 -0.41 -0.00    +0.002 A  
DOCKED: ATOM     28  C   UNL     1     141.060  70.657 227.374 -0.62 -0.00    +0.023 A  
DOCKED: ATOM     29  C   UNL     1     140.102  68.767 226.192 -0.53 -0.01    +0.030 A  
DOCKED: ATOM     30  C   UNL     1     140.701  69.304 227.338 -0.57 -0.01    +0.041 A  
DOCKED: ATOM     31  Cl  UNL     1     141.001  68.282 228.730 -0.69 +0.02    -0.084 Cl 
DOCKED: ENDBRANCH  18  21
DOCKED: ENDBRANCH  16  17
DOCKED: ENDBRANCH   1  16
DOCKED: TORSDOF 6
DOCKED: TER
DOCKED: ENDMDL
________________________________________________________________________________


    FINAL DOCKED STATE:
    ________________________


Run:   19 / 20
Time taken for this run:   0.019s

DOCKED: MODEL        19
DOCKED: USER    Run = 19
DOCKED: USER
DOCKED: USER    Estimated Free Energy of Binding    =  -7.98 kcal/mol  [=(1)+(2)+(3)-(4)]
DOCKED: USER
DOCKED: USER    (1) Final Intermolecular Energy     =  -9.77 kcal/mol
DOCKED: USER        vdW + Hbond + desolv Energy     =  -9.32 kcal/mol
DOCKED: USER        Electrostatic Energy            =  -0.45 kcal/mol
DOCKED: USER        Moving Ligand-Fixed Receptor    =  -9.77 kcal/mol
DOCKED: USER        Moving Ligand-Moving Receptor   =  +0.00 kcal/mol
DOCKED: USER    (2) Final Total Internal Energy     =  -1.71 kcal/mol
DOCKED: USER    (3) Torsional Free Energy           =  +1.79 kcal/mol
DOCKED: USER    (4) Unbound System's Energy         =  -1.71 kcal/mol
DOCKED: USER
DOCKED: USER
DOCKED: REMARK SMILES O=C(NC/C(O)=[N+]1/CCC[C@@H]1c1ccc(Cl)cc1)c1ccc2cc(Cl)ccc2n1
DOCKED: REMARK SMILES IDX 5 1 6 2 7 4 8 5 11 6 9 7 10 8 12 9 13 10 18 11 14 12 17 13
DOCKED: REMARK SMILES IDX 15 14 16 15 4 16 3 17 2 18 1 20 19 21 29 22 20 23 28 24
DOCKED: REMARK SMILES IDX 21 25 27 26 22 27 26 28 23 29 24 30 25 31
DOCKED: REMARK H PARENT 6 3 3 19
DOCKED: USER                              x       y       z     vdW  Elec       q    Type
DOCKED: USER                           _______ _______ _______ _____ _____    ______ ____
DOCKED: ROOT
DOCKED: ATOM      1  C   UNL     1     140.483  74.695 221.098 -0.15 -0.07    +0.354 C  
DOCKED: ENDROOT
DOCKED: BRANCH   1   2
DOCKED: ATOM      2  O   UNL     1     139.854  74.995 222.311 -0.60 +0.04    -0.462 OA 
DOCKED: ATOM      3  H   UNL     1     139.172  74.395 222.754 -0.44 -0.08    +0.299 HD 
DOCKED: ENDBRANCH   1   2
DOCKED: BRANCH   1   4
DOCKED: ATOM      4  N   UNL     1     141.302  75.553 220.524 -0.16 +0.07    -0.194 N  
DOCKED: ATOM      5  C   UNL     1     142.700  75.245 220.244 -0.13 -0.17    +0.355 C  
DOCKED: ATOM      6  C   UNL     1     140.923  76.869 219.992 -0.10 -0.12    +0.295 C  
DOCKED: ATOM      7  C   UNL     1     143.189  76.309 219.272 -0.35 -0.05    +0.080 C  
DOCKED: ATOM      8  C   UNL     1     142.190  77.453 219.356 -0.27 -0.05    +0.088 C  
DOCKED: BRANCH   6   9
DOCKED: ATOM      9  C   UNL     1     140.396  77.795 221.073 -0.23 -0.01    +0.020 A  
DOCKED: ATOM     10  C   UNL     1     141.267  78.378 222.013 -0.41 -0.01    +0.012 A  
DOCKED: ATOM     11  C   UNL     1     139.031  78.125 221.112 -0.14 -0.00    +0.012 A  
DOCKED: ATOM     12  C   UNL     1     140.775  79.261 222.980 -0.45 -0.01    +0.021 A  
DOCKED: ATOM     13  C   UNL     1     138.542  79.007 222.081 -0.20 -0.00    +0.021 A  
DOCKED: ATOM     14  C   UNL     1     139.414  79.578 223.014 -0.34 -0.01    +0.041 A  
DOCKED: ATOM     15  Cl  UNL     1     138.801  80.695 224.218 -0.39 +0.01    -0.084 Cl 
DOCKED: ENDBRANCH   6   9
DOCKED: ENDBRANCH   1   4
DOCKED: BRANCH   1  16
DOCKED: ATOM     16  C   UNL     1     140.140  73.360 220.482 -0.08 -0.05    +0.269 C  
DOCKED: BRANCH  16  17
DOCKED: ATOM     17  N   UNL     1     140.313  72.286 221.459 -0.11 +0.05    -0.337 N  
DOCKED: ATOM     18  C   UNL     1     139.329  72.025 222.470 -0.17 -0.06    +0.270 C  
DOCKED: ATOM     19  H   UNL     1     141.185  71.710 221.434 +0.05 -0.02    +0.164 HD 
DOCKED: ATOM     20  O   UNL     1     138.235  72.654 222.455 -0.12 +0.09    -0.268 OA 
DOCKED: BRANCH  18  21
DOCKED: ATOM     21  C   UNL     1     139.599  71.042 223.541 -0.29 -0.02    +0.128 A  
DOCKED: ATOM     22  N   UNL     1     140.189  71.455 224.697 -0.30 +0.04    -0.243 NA 
DOCKED: ATOM     23  C   UNL     1     139.234  69.693 223.397 -0.24 -0.01    +0.035 A  
DOCKED: ATOM     24  C   UNL     1     140.434  70.605 225.729 -0.50 -0.01    +0.071 A  
DOCKED: ATOM     25  C   UNL     1     139.475  68.796 224.440 -0.28 -0.00    +0.013 A  
DOCKED: ATOM     26  C   UNL     1     141.026  71.081 226.905 -0.66 -0.00    +0.030 A  
DOCKED: ATOM     27  C   UNL     1     140.077  69.245 225.621 -0.46 -0.00    +0.002 A  
DOCKED: ATOM     28  C   UNL     1     141.264  70.208 227.970 -0.48 -0.00    +0.023 A  
DOCKED: ATOM     29  C   UNL     1     140.320  68.374 226.693 -0.62 -0.01    +0.030 A  
DOCKED: ATOM     30  C   UNL     1     140.912  68.857 227.866 -0.60 -0.01    +0.041 A  
DOCKED: ATOM     31  Cl  UNL     1     141.211  67.769 229.208 -0.07 +0.02    -0.084 Cl 
DOCKED: ENDBRANCH  18  21
DOCKED: ENDBRANCH  16  17
DOCKED: ENDBRANCH   1  16
DOCKED: TORSDOF 6
DOCKED: TER
DOCKED: ENDMDL
________________________________________________________________________________


    FINAL DOCKED STATE:
    ________________________


Run:   20 / 20
Time taken for this run:   0.019s

DOCKED: MODEL        20
DOCKED: USER    Run = 20
DOCKED: USER
DOCKED: USER    Estimated Free Energy of Binding    =  -7.98 kcal/mol  [=(1)+(2)+(3)-(4)]
DOCKED: USER
DOCKED: USER    (1) Final Intermolecular Energy     =  -9.77 kcal/mol
DOCKED: USER        vdW + Hbond + desolv Energy     =  -9.54 kcal/mol
DOCKED: USER        Electrostatic Energy            =  -0.23 kcal/mol
DOCKED: USER        Moving Ligand-Fixed Receptor    =  -9.77 kcal/mol
DOCKED: USER        Moving Ligand-Moving Receptor   =  +0.00 kcal/mol
DOCKED: USER    (2) Final Total Internal Energy     =  -1.70 kcal/mol
DOCKED: USER    (3) Torsional Free Energy           =  +1.79 kcal/mol
DOCKED: USER    (4) Unbound System's Energy         =  -1.70 kcal/mol
DOCKED: USER
DOCKED: USER
DOCKED: REMARK SMILES O=C(NC/C(O)=[N+]1/CCC[C@@H]1c1ccc(Cl)cc1)c1ccc2cc(Cl)ccc2n1
DOCKED: REMARK SMILES IDX 5 1 6 2 7 4 8 5 11 6 9 7 10 8 12 9 13 10 18 11 14 12 17 13
DOCKED: REMARK SMILES IDX 15 14 16 15 4 16 3 17 2 18 1 20 19 21 29 22 20 23 28 24
DOCKED: REMARK SMILES IDX 21 25 27 26 22 27 26 28 23 29 24 30 25 31
DOCKED: REMARK H PARENT 6 3 3 19
DOCKED: USER                              x       y       z     vdW  Elec       q    Type
DOCKED: USER                           _______ _______ _______ _____ _____    ______ ____
DOCKED: ROOT
DOCKED: ATOM      1  C   UNL     1     136.641  70.379 223.928 -0.10 -0.05    +0.354 C  
DOCKED: ENDROOT
DOCKED: BRANCH   1   2
DOCKED: ATOM      2  O   UNL     1     137.172  71.651 224.169 -0.05 +0.13    -0.462 OA 
DOCKED: ATOM      3  H   UNL     1     138.119  71.917 223.935 -0.21 -0.13    +0.299 HD 
DOCKED: ENDBRANCH   1   2
DOCKED: BRANCH   1   4
DOCKED: ATOM      4  N   UNL     1     137.321  69.471 223.258 -0.11 +0.03    -0.194 N  
DOCKED: ATOM      5  C   UNL     1     136.685  68.491 222.385 -0.07 -0.05    +0.355 C  
DOCKED: ATOM      6  C   UNL     1     138.786  69.376 223.197 -0.14 -0.05    +0.295 C  
DOCKED: ATOM      7  C   UNL     1     137.792  67.890 221.532 -0.14 -0.01    +0.080 C  
DOCKED: ATOM      8  C   UNL     1     139.099  68.222 222.236 -0.13 -0.02    +0.088 C  
DOCKED: BRANCH   6   9
DOCKED: ATOM      9  C   UNL     1     139.401  69.114 224.560 -0.34 -0.00    +0.020 A  
DOCKED: ATOM     10  C   UNL     1     140.032  70.147 225.278 -0.45 -0.00    +0.012 A  
DOCKED: ATOM     11  C   UNL     1     139.296  67.841 225.146 -0.41 -0.00    +0.012 A  
DOCKED: ATOM     12  C   UNL     1     140.560  69.904 226.550 -0.54 -0.00    +0.021 A  
DOCKED: ATOM     13  C   UNL     1     139.826  67.601 226.417 -0.64 -0.00    +0.021 A  
DOCKED: ATOM     14  C   UNL     1     140.456  68.632 227.122 -0.61 -0.01    +0.041 A  
DOCKED: ATOM     15  Cl  UNL     1     141.105  68.331 228.722 -0.69 +0.02    -0.084 Cl 
DOCKED: ENDBRANCH   6   9
DOCKED: ENDBRANCH   1   4
DOCKED: BRANCH   1  16
DOCKED: ATOM     16  C   UNL     1     135.246  70.131 224.448 -0.12 -0.03    +0.269 C  
DOCKED: BRANCH  16  17
DOCKED: ATOM     17  N   UNL     1     134.741  71.313 225.145 -0.07 +0.03    -0.337 N  
DOCKED: ATOM     18  C   UNL     1     133.664  71.225 226.088 -0.21 -0.02    +0.270 C  
DOCKED: ATOM     19  H   UNL     1     135.160  72.247 224.934 +0.04 -0.01    +0.164 HD 
DOCKED: ATOM     20  O   UNL     1     133.210  70.093 226.416 -0.48 +0.00    -0.268 OA 
DOCKED: BRANCH  18  21
DOCKED: ATOM     21  C   UNL     1     133.066  72.451 226.658 -0.33 -0.01    +0.128 A  
DOCKED: ATOM     22  N   UNL     1     133.658  73.655 226.427 -0.76 -0.02    -0.243 NA 
DOCKED: ATOM     23  C   UNL     1     131.882  72.399 227.413 -0.39 -0.01    +0.035 A  
DOCKED: ATOM     24  C   UNL     1     133.140  74.820 226.898 -0.30 +0.00    +0.071 A  
DOCKED: ATOM     25  C   UNL     1     131.327  73.579 227.911 -0.29 -0.00    +0.013 A  
DOCKED: ATOM     26  C   UNL     1     133.774  76.036 226.618 -0.40 -0.00    +0.030 A  
DOCKED: ATOM     27  C   UNL     1     131.949  74.806 227.655 -0.41 -0.00    +0.002 A  
DOCKED: ATOM     28  C   UNL     1     133.231  77.234 227.091 -0.34 -0.00    +0.023 A  
DOCKED: ATOM     29  C   UNL     1     131.410  76.011 228.129 -0.22 +0.00    +0.030 A  
DOCKED: ATOM     30  C   UNL     1     132.051  77.223 227.845 -0.31 +0.00    +0.041 A  
DOCKED: ATOM     31  Cl  UNL     1     131.374  78.730 228.432 -0.32 -0.02    -0.084 Cl 
DOCKED: ENDBRANCH  18  21
DOCKED: ENDBRANCH  16  17
DOCKED: ENDBRANCH   1  16
DOCKED: TORSDOF 6
DOCKED: TER
DOCKED: ENDMDL
________________________________________________________________________________


    CLUSTERING HISTOGRAM
    ____________________


________________________________________________________________________________
     |           |     |           |     |
Clus | Lowest    | Run | Mean      | Num | Histogram
-ter | Binding   |     | Binding   | in  |
Rank | Energy    |     | Energy    | Clus|    5    10   15   20   25   30   35
_____|___________|_____|___________|_____|____:____|____:____|____:____|____:___
   1 |     -8.43 |   5 |     -8.10 |  14 |##############
   2 |     -7.98 |  20 |     -7.98 |   1 |#
   3 |     -7.73 |   6 |     -7.66 |   3 |###
   4 |     -7.38 |  13 |     -7.38 |   1 |#
   5 |     -6.31 |   2 |     -6.31 |   1 |#
_____|___________|_____|___________|_____|______________________________________


    RMSD TABLE
    __________


_______________________________________________________________________
     |      |      |           |         |                 |
Rank | Sub- | Run  | Binding   | Cluster | Reference       | Grep
     | Rank |      | Energy    | RMSD    | RMSD            | Pattern
_____|______|______|___________|_________|_________________|___________
   1      1      5       -8.43      0.00    272.32           RANKING
   1      2      8       -8.34      1.31    272.39           RANKING
   1      3     14       -8.19      1.36    272.24           RANKING
   1      4     15       -8.15      1.93    272.01           RANKING
   1      5      3       -8.15      1.01    272.14           RANKING
   1      6      1       -8.13      1.87    272.05           RANKING
   1      7     16       -8.12      1.23    272.15           RANKING
   1      8      7       -8.12      1.12    272.35           RANKING
   1      9      9       -8.12      1.89    272.03           RANKING
   1     10      4       -8.07      1.05    272.21           RANKING
   1     11     17       -8.05      1.89    272.05           RANKING
   1     12     18       -8.04      1.20    272.12           RANKING
   1     13     19       -7.98      1.60    272.33           RANKING
   1     14     10       -7.56      1.83    271.90           RANKING
   2      1     20       -7.98      0.00    271.62           RANKING
   3      1      6       -7.73      0.00    271.65           RANKING
   3      2     11       -7.71      0.10    271.61           RANKING
   3      3     12       -7.52      1.08    271.81           RANKING
   4      1     13       -7.38      0.00    271.57           RANKING
   5      1      2       -6.31      0.00    271.74           RANKING

Run time 0.335 sec
Idle time 0.000 sec
