AutoDock-GPU version: v1.6

**********************************************************
**    AutoDock-GPU AUTODOCKTOOLS-COMPATIBLE DLG FILE    **
**********************************************************


    DOCKING PARAMETERS
    ________________________


Ligand file:                               /home/a/REINVENT4/ReinventStudies/pleaseWork/justmol2mol_4_Compounds_ontop/graph-dock-8u2o5u/graph-DockGPU/node-autodockgpu/inputs/PINCVXRSENSLEC-PNHJWVHSNA-M.pdbqt
Grid fld file:                             /home/a/REINVENT4/ReinventStudies/mols/Rad51/maps/rad51_receptor.maps.fld

Random seed:                               42
Number of runs:                            20
Number of energy evaluations:              1132076
Number of generations:                     42000
Size of population:                        150
Rate of crossover:                         80.000000%
Tournament selection probability limit:    60.000000%
Rate of mutation:                          2.000000%
Maximal allowed delta movement:            +/- 6.000000A
Maximal allowed delta angle:               +/- 90.000000

Rate of local search:                      100.000000%
Maximal number of local search iterations: 300
Rho lower bound:                           0.010000
Spread of local search delta movement:     2.000000A
Spread of local search delta angle:        74.999999
Limit of consecutive successes/failures:   4

Handle symmetry during clustering:         YES
RMSD tolerance:                            2.000000A

Program call in command line was:          /home/a/REINVENT4/ReinventStudies/adgpu-v1.6_linux_x64_cuda12_128wi --filelist batch.txt --heuristics 1 --nrun 20 --psize 150 --lsit 300 --seed 42 --heurmax 12000000 


    GRID PARAMETERS
    ________________________


Receptor name:                             rad51_receptor
Number of grid points (x, y, z):           53, 53, 53
Grid center (x, y, z):                     139.950000, 75.640000, 221.970000A
Grid size (x, y, z):                       19.500000, 19.500000, 19.500000A
Grid spacing:                              0.375000A


    LIGAND PARAMETERS
    ________________________


Ligand name:                               /home/a/REINVENT4/ReinventStudies/pleaseWork/justmol2mol_4_Compounds_ontop/graph-dock-8u2o5u/graph-DockGPU/node-autodockgpu/inputs/PINCVXRSENSLEC-PNHJWVHSNA-M
Number of atoms:                           29
Number of rotatable bonds:                 6
Number of atom types:                      6


    DUMMY DATA (only for ADT-compatibility)
    ________________________


DPF> outlev 1
DPF> ga_run 20
DPF> fld /home/a/REINVENT4/ReinventStudies/mols/Rad51/maps/rad51_receptor.maps.fld
DPF> move /home/a/REINVENT4/ReinventStudies/pleaseWork/justmol2mol_4_Compounds_ontop/graph-dock-8u2o5u/graph-DockGPU/node-autodockgpu/inputs/PINCVXRSENSLEC-PNHJWVHSNA-M.pdbqt


    COUNTER STATES
    ________________________


Number of energy evaluations performed:    838428
Number of generations used:                55


    INPUT LIGAND PDBQT FILE:
    ________________________


INPUT-LIGAND-PDBQT: REMARK SMILES O=C([N-]CC(=O)N1CCC[C@@H]1c1ccc(Cl)cc1)c1ccc2cc(Cl)ccc2n1
INPUT-LIGAND-PDBQT: REMARK SMILES IDX 4 1 3 2 2 3 1 4 19 5 20 6 29 7 21 8 28 9 22 10 27 11 23 12
INPUT-LIGAND-PDBQT: REMARK SMILES IDX 26 13 24 14 25 15 5 16 6 17 7 18 8 19 11 20 9 21 10 22 12 23
INPUT-LIGAND-PDBQT: REMARK SMILES IDX 13 24 18 25 14 26 17 27 15 28 16 29
INPUT-LIGAND-PDBQT: REMARK H PARENT
INPUT-LIGAND-PDBQT: ROOT
INPUT-LIGAND-PDBQT: ATOM      1  C   UNL     1       0.592  -1.459  -2.092  1.00  0.00    -0.015 C 
INPUT-LIGAND-PDBQT: ENDROOT
INPUT-LIGAND-PDBQT: BRANCH   1   2
INPUT-LIGAND-PDBQT: ATOM      2  N   UNL     1       1.627  -1.690  -3.100  1.00  0.00    -0.640 NA
INPUT-LIGAND-PDBQT: BRANCH   2   3
INPUT-LIGAND-PDBQT: ATOM      3  C   UNL     1       2.856  -0.967  -3.271  1.00  0.00     0.101 C 
INPUT-LIGAND-PDBQT: ATOM      4  O   UNL     1       3.523  -1.171  -4.318  1.00  0.00    -0.313 OA
INPUT-LIGAND-PDBQT: BRANCH   3   5
INPUT-LIGAND-PDBQT: ATOM      5  C   UNL     1       3.353   0.015  -2.282  1.00  0.00     0.088 A 
INPUT-LIGAND-PDBQT: ATOM      6  C   UNL     1       4.162   1.087  -2.689  1.00  0.00     0.031 A 
INPUT-LIGAND-PDBQT: ATOM      7  N   UNL     1       3.048  -0.128  -0.963  1.00  0.00    -0.246 NA
INPUT-LIGAND-PDBQT: ATOM      8  C   UNL     1       4.614   2.013  -1.745  1.00  0.00     0.013 A 
INPUT-LIGAND-PDBQT: ATOM      9  C   UNL     1       3.486   0.748  -0.019  1.00  0.00     0.071 A 
INPUT-LIGAND-PDBQT: ATOM     10  C   UNL     1       4.275   1.855  -0.397  1.00  0.00     0.002 A 
INPUT-LIGAND-PDBQT: ATOM     11  C   UNL     1       3.157   0.552   1.325  1.00  0.00     0.030 A 
INPUT-LIGAND-PDBQT: ATOM     12  C   UNL     1       4.705   2.770   0.578  1.00  0.00     0.030 A 
INPUT-LIGAND-PDBQT: ATOM     13  C   UNL     1       3.587   1.465   2.293  1.00  0.00     0.023 A 
INPUT-LIGAND-PDBQT: ATOM     14  C   UNL     1       4.354   2.576   1.920  1.00  0.00     0.041 A 
INPUT-LIGAND-PDBQT: ATOM     15  Cl  UNL     1       4.884   3.725   3.137  1.00  0.00    -0.084 Cl
INPUT-LIGAND-PDBQT: ENDBRANCH   3   5
INPUT-LIGAND-PDBQT: ENDBRANCH   2   3
INPUT-LIGAND-PDBQT: ENDBRANCH   1   2
INPUT-LIGAND-PDBQT: BRANCH   1  16
INPUT-LIGAND-PDBQT: ATOM     16  C   UNL     1      -0.078  -0.117  -2.264  1.00  0.00     0.205 C 
INPUT-LIGAND-PDBQT: ATOM     17  O   UNL     1       0.389   0.714  -3.091  1.00  0.00    -0.277 OA
INPUT-LIGAND-PDBQT: BRANCH  16  18
INPUT-LIGAND-PDBQT: ATOM     18  N   UNL     1      -1.254   0.232  -1.506  1.00  0.00    -0.337 N 
INPUT-LIGAND-PDBQT: ATOM     19  C   UNL     1      -2.021   1.435  -1.786  1.00  0.00     0.120 C 
INPUT-LIGAND-PDBQT: ATOM     20  C   UNL     1      -1.904  -0.636  -0.530  1.00  0.00     0.115 C 
INPUT-LIGAND-PDBQT: ATOM     21  C   UNL     1      -3.227   1.394  -0.855  1.00  0.00     0.024 C 
INPUT-LIGAND-PDBQT: ATOM     22  C   UNL     1      -3.297  -0.034  -0.318  1.00  0.00     0.032 C 
INPUT-LIGAND-PDBQT: BRANCH  20  23
INPUT-LIGAND-PDBQT: ATOM     23  C   UNL     1      -1.110  -0.688   0.762  1.00  0.00    -0.025 A 
INPUT-LIGAND-PDBQT: ATOM     24  C   UNL     1      -0.785  -1.927   1.340  1.00  0.00     0.007 A 
INPUT-LIGAND-PDBQT: ATOM     25  C   UNL     1      -0.725   0.494   1.424  1.00  0.00     0.007 A 
INPUT-LIGAND-PDBQT: ATOM     26  C   UNL     1      -0.094  -1.983   2.556  1.00  0.00     0.021 A 
INPUT-LIGAND-PDBQT: ATOM     27  C   UNL     1      -0.049   0.435   2.646  1.00  0.00     0.021 A 
INPUT-LIGAND-PDBQT: ATOM     28  C   UNL     1       0.267  -0.803   3.213  1.00  0.00     0.041 A 
INPUT-LIGAND-PDBQT: ATOM     29  Cl  UNL     1       1.133  -0.872   4.738  1.00  0.00    -0.084 Cl
INPUT-LIGAND-PDBQT: ENDBRANCH  20  23
INPUT-LIGAND-PDBQT: ENDBRANCH  16  18
INPUT-LIGAND-PDBQT: ENDBRANCH   1  16
INPUT-LIGAND-PDBQT: TORSDOF 6


    FINAL DOCKED STATE:
    ________________________


Run:   1 / 20
Time taken for this run:   0.034s

DOCKED: MODEL        1
DOCKED: USER    Run = 1
DOCKED: USER
DOCKED: USER    Estimated Free Energy of Binding    =  -8.52 kcal/mol  [=(1)+(2)+(3)-(4)]
DOCKED: USER
DOCKED: USER    (1) Final Intermolecular Energy     = -10.31 kcal/mol
DOCKED: USER        vdW + Hbond + desolv Energy     = -10.44 kcal/mol
DOCKED: USER        Electrostatic Energy            =  +0.13 kcal/mol
DOCKED: USER        Moving Ligand-Fixed Receptor    = -10.31 kcal/mol
DOCKED: USER        Moving Ligand-Moving Receptor   =  +0.00 kcal/mol
DOCKED: USER    (2) Final Total Internal Energy     =  -0.97 kcal/mol
DOCKED: USER    (3) Torsional Free Energy           =  +1.79 kcal/mol
DOCKED: USER    (4) Unbound System's Energy         =  -0.97 kcal/mol
DOCKED: USER
DOCKED: USER
DOCKED: REMARK SMILES O=C([N-]CC(=O)N1CCC[C@@H]1c1ccc(Cl)cc1)c1ccc2cc(Cl)ccc2n1
DOCKED: REMARK SMILES IDX 4 1 3 2 2 3 1 4 19 5 20 6 29 7 21 8 28 9 22 10 27 11 23 12
DOCKED: REMARK SMILES IDX 26 13 24 14 25 15 5 16 6 17 7 18 8 19 11 20 9 21 10 22 12 23
DOCKED: REMARK SMILES IDX 13 24 18 25 14 26 17 27 15 28 16 29
DOCKED: REMARK H PARENT
DOCKED: USER                              x       y       z     vdW  Elec       q    Type
DOCKED: USER                           _______ _______ _______ _____ _____    ______ ____
DOCKED: ROOT
DOCKED: ATOM      1  C   UNL     1     138.909  74.339 221.702 -0.23 +0.00    -0.015 C  
DOCKED: ENDROOT
DOCKED: BRANCH   1   2
DOCKED: ATOM      2  N   UNL     1     139.872  73.247 221.849 -0.25 +0.10    -0.640 NA 
DOCKED: BRANCH   2   3
DOCKED: ATOM      3  C   UNL     1     139.604  71.836 221.821 -0.20 -0.02    +0.101 C  
DOCKED: ATOM      4  O   UNL     1     139.296  71.313 220.719 -0.04 +0.06    -0.313 OA 
DOCKED: BRANCH   3   5
DOCKED: ATOM      5  C   UNL     1     139.694  70.979 223.024 -0.26 -0.02    +0.088 A  
DOCKED: ATOM      6  C   UNL     1     139.157  69.683 223.015 -0.22 -0.01    +0.031 A  
DOCKED: ATOM      7  N   UNL     1     140.280  71.451 224.158 -0.28 +0.04    -0.246 NA 
DOCKED: ATOM      8  C   UNL     1     139.261  68.881 224.155 -0.29 -0.00    +0.013 A  
DOCKED: ATOM      9  C   UNL     1     140.382  70.700 225.288 -0.48 -0.01    +0.071 A  
DOCKED: ATOM     10  C   UNL     1     139.881  69.381 225.304 -0.43 -0.00    +0.002 A  
DOCKED: ATOM     11  C   UNL     1     140.981  71.234 226.432 -0.65 -0.00    +0.030 A  
DOCKED: ATOM     12  C   UNL     1     140.010  68.601 226.465 -0.57 -0.01    +0.030 A  
DOCKED: ATOM     13  C   UNL     1     141.108  70.454 227.586 -0.58 -0.00    +0.023 A  
DOCKED: ATOM     14  C   UNL     1     140.629  69.138 227.601 -0.60 -0.01    +0.041 A  
DOCKED: ATOM     15  Cl  UNL     1     140.798  68.159 229.049 -0.40 +0.02    -0.084 Cl 
DOCKED: ENDBRANCH   3   5
DOCKED: ENDBRANCH   2   3
DOCKED: ENDBRANCH   1   2
DOCKED: BRANCH   1  16
DOCKED: ATOM     16  C   UNL     1     139.568  75.694 221.801 -0.24 -0.04    +0.205 C  
DOCKED: ATOM     17  O   UNL     1     139.052  76.588 222.527 -0.25 +0.05    -0.277 OA 
DOCKED: BRANCH  16  18
DOCKED: ATOM     18  N   UNL     1     140.787  75.984 221.089 -0.14 +0.11    -0.337 N  
DOCKED: ATOM     19  C   UNL     1     141.795  74.966 220.841 -0.26 -0.04    +0.120 C  
DOCKED: ATOM     20  C   UNL     1     141.067  77.235 220.391 -0.21 -0.05    +0.115 C  
DOCKED: ATOM     21  C   UNL     1     142.865  75.630 219.982 -0.32 -0.01    +0.024 C  
DOCKED: ATOM     22  C   UNL     1     142.245  76.925 219.462 -0.30 -0.02    +0.032 C  
DOCKED: BRANCH  20  23
DOCKED: ATOM     23  C   UNL     1     141.401  78.341 221.376 -0.35 +0.01    -0.025 A  
DOCKED: ATOM     24  C   UNL     1     141.724  79.626 220.908 -0.35 -0.00    +0.007 A  
DOCKED: ATOM     25  C   UNL     1     141.436  78.091 222.761 -0.46 -0.00    +0.007 A  
DOCKED: ATOM     26  C   UNL     1     142.079  80.639 221.807 -0.46 -0.01    +0.021 A  
DOCKED: ATOM     27  C   UNL     1     141.807  79.100 223.655 -0.61 -0.01    +0.021 A  
DOCKED: ATOM     28  C   UNL     1     142.129  80.374 223.179 -0.59 -0.01    +0.041 A  
DOCKED: ATOM     29  Cl  UNL     1     142.575  81.643 224.306 -0.44 +0.01    -0.084 Cl 
DOCKED: ENDBRANCH  20  23
DOCKED: ENDBRANCH  16  18
DOCKED: ENDBRANCH   1  16
DOCKED: TORSDOF 6
DOCKED: TER
DOCKED: ENDMDL
________________________________________________________________________________


    FINAL DOCKED STATE:
    ________________________


Run:   2 / 20
Time taken for this run:   0.034s

DOCKED: MODEL        2
DOCKED: USER    Run = 2
DOCKED: USER
DOCKED: USER    Estimated Free Energy of Binding    =  -8.28 kcal/mol  [=(1)+(2)+(3)-(4)]
DOCKED: USER
DOCKED: USER    (1) Final Intermolecular Energy     = -10.07 kcal/mol
DOCKED: USER        vdW + Hbond + desolv Energy     = -10.20 kcal/mol
DOCKED: USER        Electrostatic Energy            =  +0.13 kcal/mol
DOCKED: USER        Moving Ligand-Fixed Receptor    = -10.07 kcal/mol
DOCKED: USER        Moving Ligand-Moving Receptor   =  +0.00 kcal/mol
DOCKED: USER    (2) Final Total Internal Energy     =  -1.42 kcal/mol
DOCKED: USER    (3) Torsional Free Energy           =  +1.79 kcal/mol
DOCKED: USER    (4) Unbound System's Energy         =  -1.42 kcal/mol
DOCKED: USER
DOCKED: USER
DOCKED: REMARK SMILES O=C([N-]CC(=O)N1CCC[C@@H]1c1ccc(Cl)cc1)c1ccc2cc(Cl)ccc2n1
DOCKED: REMARK SMILES IDX 4 1 3 2 2 3 1 4 19 5 20 6 29 7 21 8 28 9 22 10 27 11 23 12
DOCKED: REMARK SMILES IDX 26 13 24 14 25 15 5 16 6 17 7 18 8 19 11 20 9 21 10 22 12 23
DOCKED: REMARK SMILES IDX 13 24 18 25 14 26 17 27 15 28 16 29
DOCKED: REMARK H PARENT
DOCKED: USER                              x       y       z     vdW  Elec       q    Type
DOCKED: USER                           _______ _______ _______ _____ _____    ______ ____
DOCKED: ROOT
DOCKED: ATOM      1  C   UNL     1     138.659  74.800 220.658 -0.12 +0.00    -0.015 C  
DOCKED: ENDROOT
DOCKED: BRANCH   1   2
DOCKED: ATOM      2  N   UNL     1     138.621  73.338 220.724 +0.02 +0.13    -0.640 NA 
DOCKED: BRANCH   2   3
DOCKED: ATOM      3  C   UNL     1     139.701  72.451 221.054 -0.14 -0.02    +0.101 C  
DOCKED: ATOM      4  O   UNL     1     140.686  72.399 220.272 -0.05 +0.05    -0.313 OA 
DOCKED: BRANCH   3   5
DOCKED: ATOM      5  C   UNL     1     139.710  71.619 222.277 -0.23 -0.02    +0.088 A  
DOCKED: ATOM      6  C   UNL     1     139.063  70.374 222.295 -0.17 -0.01    +0.031 A  
DOCKED: ATOM      7  N   UNL     1     140.328  72.067 223.405 -0.32 +0.03    -0.246 NA 
DOCKED: ATOM      8  C   UNL     1     139.090  69.594 223.455 -0.26 -0.00    +0.013 A  
DOCKED: ATOM      9  C   UNL     1     140.358  71.337 224.553 -0.44 -0.01    +0.071 A  
DOCKED: ATOM     10  C   UNL     1     139.744  70.067 224.597 -0.39 -0.00    +0.002 A  
DOCKED: ATOM     11  C   UNL     1     140.994  71.845 225.689 -0.49 -0.00    +0.030 A  
DOCKED: ATOM     12  C   UNL     1     139.798  69.308 225.777 -0.45 -0.00    +0.030 A  
DOCKED: ATOM     13  C   UNL     1     141.045  71.086 226.862 -0.67 -0.00    +0.023 A  
DOCKED: ATOM     14  C   UNL     1     140.454  69.817 226.905 -0.54 -0.01    +0.041 A  
DOCKED: ATOM     15  Cl  UNL     1     140.529  68.863 228.377 -0.77 +0.02    -0.084 Cl 
DOCKED: ENDBRANCH   3   5
DOCKED: ENDBRANCH   2   3
DOCKED: ENDBRANCH   1   2
DOCKED: BRANCH   1  16
DOCKED: ATOM     16  C   UNL     1     139.790  75.375 221.477 -0.22 -0.04    +0.205 C  
DOCKED: ATOM     17  O   UNL     1     139.642  75.541 222.719 -0.48 +0.03    -0.277 OA 
DOCKED: BRANCH  16  18
DOCKED: ATOM     18  N   UNL     1     141.046  75.731 220.866 -0.13 +0.11    -0.337 N  
DOCKED: ATOM     19  C   UNL     1     142.131  74.773 220.722 -0.24 -0.04    +0.120 C  
DOCKED: ATOM     20  C   UNL     1     141.310  76.988 220.174 -0.21 -0.05    +0.115 C  
DOCKED: ATOM     21  C   UNL     1     143.229  75.491 219.947 -0.34 -0.01    +0.024 C  
DOCKED: ATOM     22  C   UNL     1     142.580  76.740 219.353 -0.34 -0.02    +0.032 C  
DOCKED: BRANCH  20  23
DOCKED: ATOM     23  C   UNL     1     141.491  78.124 221.164 -0.33 +0.01    -0.025 A  
DOCKED: ATOM     24  C   UNL     1     141.793  79.417 220.705 -0.33 -0.00    +0.007 A  
DOCKED: ATOM     25  C   UNL     1     141.406  77.896 222.551 -0.40 -0.00    +0.007 A  
DOCKED: ATOM     26  C   UNL     1     142.009  80.460 221.613 -0.43 -0.01    +0.021 A  
DOCKED: ATOM     27  C   UNL     1     141.637  78.936 223.456 -0.59 -0.01    +0.021 A  
DOCKED: ATOM     28  C   UNL     1     141.939  80.218 222.988 -0.56 -0.01    +0.041 A  
DOCKED: ATOM     29  Cl  UNL     1     142.210  81.524 224.129 -0.57 +0.01    -0.084 Cl 
DOCKED: ENDBRANCH  20  23
DOCKED: ENDBRANCH  16  18
DOCKED: ENDBRANCH   1  16
DOCKED: TORSDOF 6
DOCKED: TER
DOCKED: ENDMDL
________________________________________________________________________________


    FINAL DOCKED STATE:
    ________________________


Run:   3 / 20
Time taken for this run:   0.034s

DOCKED: MODEL        3
DOCKED: USER    Run = 3
DOCKED: USER
DOCKED: USER    Estimated Free Energy of Binding    =  -8.38 kcal/mol  [=(1)+(2)+(3)-(4)]
DOCKED: USER
DOCKED: USER    (1) Final Intermolecular Energy     = -10.17 kcal/mol
DOCKED: USER        vdW + Hbond + desolv Energy     = -10.10 kcal/mol
DOCKED: USER        Electrostatic Energy            =  -0.07 kcal/mol
DOCKED: USER        Moving Ligand-Fixed Receptor    = -10.17 kcal/mol
DOCKED: USER        Moving Ligand-Moving Receptor   =  +0.00 kcal/mol
DOCKED: USER    (2) Final Total Internal Energy     =  -1.21 kcal/mol
DOCKED: USER    (3) Torsional Free Energy           =  +1.79 kcal/mol
DOCKED: USER    (4) Unbound System's Energy         =  -1.21 kcal/mol
DOCKED: USER
DOCKED: USER
DOCKED: REMARK SMILES O=C([N-]CC(=O)N1CCC[C@@H]1c1ccc(Cl)cc1)c1ccc2cc(Cl)ccc2n1
DOCKED: REMARK SMILES IDX 4 1 3 2 2 3 1 4 19 5 20 6 29 7 21 8 28 9 22 10 27 11 23 12
DOCKED: REMARK SMILES IDX 26 13 24 14 25 15 5 16 6 17 7 18 8 19 11 20 9 21 10 22 12 23
DOCKED: REMARK SMILES IDX 13 24 18 25 14 26 17 27 15 28 16 29
DOCKED: REMARK H PARENT
DOCKED: USER                              x       y       z     vdW  Elec       q    Type
DOCKED: USER                           _______ _______ _______ _____ _____    ______ ____
DOCKED: ROOT
DOCKED: ATOM      1  C   UNL     1     135.293  70.536 224.073 -0.17 +0.00    -0.015 C  
DOCKED: ENDROOT
DOCKED: BRANCH   1   2
DOCKED: ATOM      2  N   UNL     1     135.154  70.771 225.511 +0.17 +0.04    -0.640 NA 
DOCKED: BRANCH   2   3
DOCKED: ATOM      3  C   UNL     1     133.942  70.777 226.281 -0.31 -0.01    +0.101 C  
DOCKED: ATOM      4  O   UNL     1     133.469  69.671 226.651 -0.57 -0.02    -0.313 OA 
DOCKED: BRANCH   3   5
DOCKED: ATOM      5  C   UNL     1     133.246  72.023 226.671 -0.36 -0.01    +0.088 A  
DOCKED: ATOM      6  C   UNL     1     131.961  71.974 227.232 -0.37 -0.01    +0.031 A  
DOCKED: ATOM      7  N   UNL     1     133.839  73.231 226.466 -0.69 -0.02    -0.246 NA 
DOCKED: ATOM      8  C   UNL     1     131.321  73.159 227.606 -0.41 -0.00    +0.013 A  
DOCKED: ATOM      9  C   UNL     1     133.235  74.402 226.805 -0.24 +0.01    +0.071 A  
DOCKED: ATOM     10  C   UNL     1     131.956  74.388 227.400 -0.41 -0.00    +0.002 A  
DOCKED: ATOM     11  C   UNL     1     133.880  75.618 226.564 -0.39 +0.00    +0.030 A  
DOCKED: ATOM     12  C   UNL     1     131.347  75.598 227.771 -0.25 -0.00    +0.030 A  
DOCKED: ATOM     13  C   UNL     1     133.270  76.821 226.934 -0.36 -0.00    +0.023 A  
DOCKED: ATOM     14  C   UNL     1     132.008  76.811 227.542 -0.31 +0.00    +0.041 A  
DOCKED: ATOM     15  Cl  UNL     1     131.250  78.323 228.014 -0.31 -0.01    -0.084 Cl 
DOCKED: ENDBRANCH   3   5
DOCKED: ENDBRANCH   2   3
DOCKED: ENDBRANCH   1   2
DOCKED: BRANCH   1  16
DOCKED: ATOM     16  C   UNL     1     135.786  69.142 223.771 -0.12 -0.01    +0.205 C  
DOCKED: ATOM     17  O   UNL     1     135.073  68.146 224.075 -0.63 -0.02    -0.277 OA 
DOCKED: BRANCH  16  18
DOCKED: ATOM     18  N   UNL     1     137.058  68.924 223.127 -0.07 +0.04    -0.337 N  
DOCKED: ATOM     19  C   UNL     1     137.223  67.954 222.056 -0.13 -0.02    +0.120 C  
DOCKED: ATOM     20  C   UNL     1     138.246  69.748 223.328 -0.21 -0.02    +0.115 C  
DOCKED: ATOM     21  C   UNL     1     138.662  68.094 221.576 -0.17 -0.00    +0.024 C  
DOCKED: ATOM     22  C   UNL     1     139.175  69.410 222.157 -0.17 -0.01    +0.032 C  
DOCKED: BRANCH  20  23
DOCKED: ATOM     23  C   UNL     1     138.893  69.446 224.666 -0.35 +0.00    -0.025 A  
DOCKED: ATOM     24  C   UNL     1     139.553  70.464 225.375 -0.44 -0.00    +0.007 A  
DOCKED: ATOM     25  C   UNL     1     138.884  68.142 225.198 -0.39 -0.00    +0.007 A  
DOCKED: ATOM     26  C   UNL     1     140.194  70.184 226.588 -0.54 -0.00    +0.021 A  
DOCKED: ATOM     27  C   UNL     1     139.538  67.862 226.401 -0.61 -0.00    +0.021 A  
DOCKED: ATOM     28  C   UNL     1     140.193  68.882 227.097 -0.58 -0.01    +0.041 A  
DOCKED: ATOM     29  Cl  UNL     1     140.997  68.529 228.617 -0.73 +0.02    -0.084 Cl 
DOCKED: ENDBRANCH  20  23
DOCKED: ENDBRANCH  16  18
DOCKED: ENDBRANCH   1  16
DOCKED: TORSDOF 6
DOCKED: TER
DOCKED: ENDMDL
________________________________________________________________________________


    FINAL DOCKED STATE:
    ________________________


Run:   4 / 20
Time taken for this run:   0.034s

DOCKED: MODEL        4
DOCKED: USER    Run = 4
DOCKED: USER
DOCKED: USER    Estimated Free Energy of Binding    =  -7.86 kcal/mol  [=(1)+(2)+(3)-(4)]
DOCKED: USER
DOCKED: USER    (1) Final Intermolecular Energy     =  -9.65 kcal/mol
DOCKED: USER        vdW + Hbond + desolv Energy     =  -9.65 kcal/mol
DOCKED: USER        Electrostatic Energy            =  +0.00 kcal/mol
DOCKED: USER        Moving Ligand-Fixed Receptor    =  -9.65 kcal/mol
DOCKED: USER        Moving Ligand-Moving Receptor   =  +0.00 kcal/mol
DOCKED: USER    (2) Final Total Internal Energy     =  -1.61 kcal/mol
DOCKED: USER    (3) Torsional Free Energy           =  +1.79 kcal/mol
DOCKED: USER    (4) Unbound System's Energy         =  -1.61 kcal/mol
DOCKED: USER
DOCKED: USER
DOCKED: REMARK SMILES O=C([N-]CC(=O)N1CCC[C@@H]1c1ccc(Cl)cc1)c1ccc2cc(Cl)ccc2n1
DOCKED: REMARK SMILES IDX 4 1 3 2 2 3 1 4 19 5 20 6 29 7 21 8 28 9 22 10 27 11 23 12
DOCKED: REMARK SMILES IDX 26 13 24 14 25 15 5 16 6 17 7 18 8 19 11 20 9 21 10 22 12 23
DOCKED: REMARK SMILES IDX 13 24 18 25 14 26 17 27 15 28 16 29
DOCKED: REMARK H PARENT
DOCKED: USER                              x       y       z     vdW  Elec       q    Type
DOCKED: USER                           _______ _______ _______ _____ _____    ______ ____
DOCKED: ROOT
DOCKED: ATOM      1  C   UNL     1     135.739  68.936 223.118 -0.15 +0.00    -0.015 C  
DOCKED: ENDROOT
DOCKED: BRANCH   1   2
DOCKED: ATOM      2  N   UNL     1     135.467  68.604 224.516 -0.31 -0.03    -0.640 NA 
DOCKED: BRANCH   2   3
DOCKED: ATOM      3  C   UNL     1     134.524  69.234 225.396 -0.23 -0.01    +0.101 C  
DOCKED: ATOM      4  O   UNL     1     133.786  68.498 226.101 -0.77 +0.01    -0.313 OA 
DOCKED: BRANCH   3   5
DOCKED: ATOM      5  C   UNL     1     134.402  70.704 225.521 -0.22 -0.01    +0.088 A  
DOCKED: ATOM      6  C   UNL     1     135.211  71.552 224.750 -0.14 -0.00    +0.031 A  
DOCKED: ATOM      7  N   UNL     1     133.518  71.245 226.404 -0.21 +0.02    -0.246 NA 
DOCKED: ATOM      8  C   UNL     1     135.076  72.938 224.870 -0.22 -0.00    +0.013 A  
DOCKED: ATOM      9  C   UNL     1     133.375  72.589 226.555 -0.35 -0.00    +0.071 A  
DOCKED: ATOM     10  C   UNL     1     134.150  73.472 225.773 -0.31 +0.00    +0.002 A  
DOCKED: ATOM     11  C   UNL     1     132.464  73.097 227.484 -0.32 -0.00    +0.030 A  
DOCKED: ATOM     12  C   UNL     1     133.982  74.859 225.914 -0.36 +0.00    +0.030 A  
DOCKED: ATOM     13  C   UNL     1     132.299  74.479 227.622 -0.41 -0.00    +0.023 A  
DOCKED: ATOM     14  C   UNL     1     133.052  75.359 226.834 -0.37 +0.00    +0.041 A  
DOCKED: ATOM     15  Cl  UNL     1     132.835  77.093 227.005 -0.42 +0.01    -0.084 Cl 
DOCKED: ENDBRANCH   3   5
DOCKED: ENDBRANCH   2   3
DOCKED: ENDBRANCH   1   2
DOCKED: BRANCH   1  16
DOCKED: ATOM     16  C   UNL     1     137.154  68.596 222.718 -0.12 -0.03    +0.205 C  
DOCKED: ATOM     17  O   UNL     1     137.444  67.414 222.386 -0.11 +0.04    -0.277 OA 
DOCKED: BRANCH  16  18
DOCKED: ATOM     18  N   UNL     1     138.186  69.603 222.698 -0.06 +0.06    -0.337 N  
DOCKED: ATOM     19  C   UNL     1     139.027  69.820 221.532 -0.11 -0.02    +0.120 C  
DOCKED: ATOM     20  C   UNL     1     138.382  70.616 223.729 -0.24 -0.02    +0.115 C  
DOCKED: ATOM     21  C   UNL     1     139.907  71.020 221.862 -0.20 -0.00    +0.024 C  
DOCKED: ATOM     22  C   UNL     1     139.277  71.680 223.086 -0.28 -0.01    +0.032 C  
DOCKED: BRANCH  20  23
DOCKED: ATOM     23  C   UNL     1     139.022  70.013 224.965 -0.37 +0.00    -0.025 A  
DOCKED: ATOM     24  C   UNL     1     139.936  70.764 225.724 -0.51 -0.00    +0.007 A  
DOCKED: ATOM     25  C   UNL     1     138.750  68.685 225.348 -0.42 -0.00    +0.007 A  
DOCKED: ATOM     26  C   UNL     1     140.567  70.199 226.838 -0.57 -0.00    +0.021 A  
DOCKED: ATOM     27  C   UNL     1     139.393  68.118 226.452 -0.57 -0.00    +0.021 A  
DOCKED: ATOM     28  C   UNL     1     140.302  68.874 227.198 -0.59 -0.01    +0.041 A  
DOCKED: ATOM     29  Cl  UNL     1     141.093  68.164 228.594 -0.71 +0.02    -0.084 Cl 
DOCKED: ENDBRANCH  20  23
DOCKED: ENDBRANCH  16  18
DOCKED: ENDBRANCH   1  16
DOCKED: TORSDOF 6
DOCKED: TER
DOCKED: ENDMDL
________________________________________________________________________________


    FINAL DOCKED STATE:
    ________________________


Run:   5 / 20
Time taken for this run:   0.034s

DOCKED: MODEL        5
DOCKED: USER    Run = 5
DOCKED: USER
DOCKED: USER    Estimated Free Energy of Binding    =  -8.36 kcal/mol  [=(1)+(2)+(3)-(4)]
DOCKED: USER
DOCKED: USER    (1) Final Intermolecular Energy     = -10.15 kcal/mol
DOCKED: USER        vdW + Hbond + desolv Energy     = -10.29 kcal/mol
DOCKED: USER        Electrostatic Energy            =  +0.14 kcal/mol
DOCKED: USER        Moving Ligand-Fixed Receptor    = -10.15 kcal/mol
DOCKED: USER        Moving Ligand-Moving Receptor   =  +0.00 kcal/mol
DOCKED: USER    (2) Final Total Internal Energy     =  -1.26 kcal/mol
DOCKED: USER    (3) Torsional Free Energy           =  +1.79 kcal/mol
DOCKED: USER    (4) Unbound System's Energy         =  -1.26 kcal/mol
DOCKED: USER
DOCKED: USER
DOCKED: REMARK SMILES O=C([N-]CC(=O)N1CCC[C@@H]1c1ccc(Cl)cc1)c1ccc2cc(Cl)ccc2n1
DOCKED: REMARK SMILES IDX 4 1 3 2 2 3 1 4 19 5 20 6 29 7 21 8 28 9 22 10 27 11 23 12
DOCKED: REMARK SMILES IDX 26 13 24 14 25 15 5 16 6 17 7 18 8 19 11 20 9 21 10 22 12 23
DOCKED: REMARK SMILES IDX 13 24 18 25 14 26 17 27 15 28 16 29
DOCKED: REMARK H PARENT
DOCKED: USER                              x       y       z     vdW  Elec       q    Type
DOCKED: USER                           _______ _______ _______ _____ _____    ______ ____
DOCKED: ROOT
DOCKED: ATOM      1  C   UNL     1     139.079  73.631 220.397 -0.10 +0.00    -0.015 C  
DOCKED: ENDROOT
DOCKED: BRANCH   1   2
DOCKED: ATOM      2  N   UNL     1     139.350  72.217 220.657 +0.04 +0.12    -0.640 NA 
DOCKED: BRANCH   2   3
DOCKED: ATOM      3  C   UNL     1     138.681  71.357 221.593 -0.12 -0.02    +0.101 C  
DOCKED: ATOM      4  O   UNL     1     137.563  70.881 221.266 -0.02 +0.06    -0.313 OA 
DOCKED: BRANCH   3   5
DOCKED: ATOM      5  C   UNL     1     139.260  70.996 222.905 -0.24 -0.02    +0.088 A  
DOCKED: ATOM      6  C   UNL     1     140.137  71.875 223.562 -0.37 -0.01    +0.031 A  
DOCKED: ATOM      7  N   UNL     1     138.966  69.797 223.477 -0.13 +0.04    -0.246 NA 
DOCKED: ATOM      8  C   UNL     1     140.666  71.525 224.807 -0.49 -0.00    +0.013 A  
DOCKED: ATOM      9  C   UNL     1     139.478  69.422 224.680 -0.33 -0.01    +0.071 A  
DOCKED: ATOM     10  C   UNL     1     140.337  70.293 225.382 -0.50 -0.00    +0.002 A  
DOCKED: ATOM     11  C   UNL     1     139.156  68.174 225.221 -0.44 -0.00    +0.030 A  
DOCKED: ATOM     12  C   UNL     1     140.845  69.912 226.635 -0.54 -0.01    +0.030 A  
DOCKED: ATOM     13  C   UNL     1     139.663  67.798 226.468 -0.64 -0.00    +0.023 A  
DOCKED: ATOM     14  C   UNL     1     140.501  68.667 227.178 -0.61 -0.01    +0.041 A  
DOCKED: ATOM     15  Cl  UNL     1     141.128  68.195 228.748 -0.67 +0.02    -0.084 Cl 
DOCKED: ENDBRANCH   3   5
DOCKED: ENDBRANCH   2   3
DOCKED: ENDBRANCH   1   2
DOCKED: BRANCH   1  16
DOCKED: ATOM     16  C   UNL     1     139.968  74.538 221.214 -0.20 -0.04    +0.205 C  
DOCKED: ATOM     17  O   UNL     1     139.591  74.921 222.355 -0.70 +0.04    -0.277 OA 
DOCKED: BRANCH  16  18
DOCKED: ATOM     18  N   UNL     1     141.251  74.969 220.717 -0.12 +0.09    -0.337 N  
DOCKED: ATOM     19  C   UNL     1     142.423  74.110 220.766 -0.21 -0.03    +0.120 C  
DOCKED: ATOM     20  C   UNL     1     141.483  76.195 219.961 -0.20 -0.05    +0.115 C  
DOCKED: ATOM     21  C   UNL     1     143.538  74.875 220.061 -0.39 -0.01    +0.024 C  
DOCKED: ATOM     22  C   UNL     1     142.856  76.013 219.305 -0.33 -0.02    +0.032 C  
DOCKED: BRANCH  20  23
DOCKED: ATOM     23  C   UNL     1     141.450  77.408 220.873 -0.30 +0.01    -0.025 A  
DOCKED: ATOM     24  C   UNL     1     141.828  78.669 220.382 -0.30 -0.00    +0.007 A  
DOCKED: ATOM     25  C   UNL     1     141.087  77.285 222.228 -0.40 -0.00    +0.007 A  
DOCKED: ATOM     26  C   UNL     1     141.846  79.783 221.229 -0.38 -0.01    +0.021 A  
DOCKED: ATOM     27  C   UNL     1     141.122  78.397 223.075 -0.51 -0.01    +0.021 A  
DOCKED: ATOM     28  C   UNL     1     141.501  79.646 222.577 -0.47 -0.01    +0.041 A  
DOCKED: ATOM     29  Cl  UNL     1     141.524  81.043 223.640 -0.65 +0.01    -0.084 Cl 
DOCKED: ENDBRANCH  20  23
DOCKED: ENDBRANCH  16  18
DOCKED: ENDBRANCH   1  16
DOCKED: TORSDOF 6
DOCKED: TER
DOCKED: ENDMDL
________________________________________________________________________________


    FINAL DOCKED STATE:
    ________________________


Run:   6 / 20
Time taken for this run:   0.034s

DOCKED: MODEL        6
DOCKED: USER    Run = 6
DOCKED: USER
DOCKED: USER    Estimated Free Energy of Binding    =  -7.92 kcal/mol  [=(1)+(2)+(3)-(4)]
DOCKED: USER
DOCKED: USER    (1) Final Intermolecular Energy     =  -9.71 kcal/mol
DOCKED: USER        vdW + Hbond + desolv Energy     =  -9.71 kcal/mol
DOCKED: USER        Electrostatic Energy            =  +0.00 kcal/mol
DOCKED: USER        Moving Ligand-Fixed Receptor    =  -9.71 kcal/mol
DOCKED: USER        Moving Ligand-Moving Receptor   =  +0.00 kcal/mol
DOCKED: USER    (2) Final Total Internal Energy     =  -1.57 kcal/mol
DOCKED: USER    (3) Torsional Free Energy           =  +1.79 kcal/mol
DOCKED: USER    (4) Unbound System's Energy         =  -1.57 kcal/mol
DOCKED: USER
DOCKED: USER
DOCKED: REMARK SMILES O=C([N-]CC(=O)N1CCC[C@@H]1c1ccc(Cl)cc1)c1ccc2cc(Cl)ccc2n1
DOCKED: REMARK SMILES IDX 4 1 3 2 2 3 1 4 19 5 20 6 29 7 21 8 28 9 22 10 27 11 23 12
DOCKED: REMARK SMILES IDX 26 13 24 14 25 15 5 16 6 17 7 18 8 19 11 20 9 21 10 22 12 23
DOCKED: REMARK SMILES IDX 13 24 18 25 14 26 17 27 15 28 16 29
DOCKED: REMARK H PARENT
DOCKED: USER                              x       y       z     vdW  Elec       q    Type
DOCKED: USER                           _______ _______ _______ _____ _____    ______ ____
DOCKED: ROOT
DOCKED: ATOM      1  C   UNL     1     135.672  68.893 223.218 -0.15 +0.00    -0.015 C  
DOCKED: ENDROOT
DOCKED: BRANCH   1   2
DOCKED: ATOM      2  N   UNL     1     135.394  68.637 224.632 -0.33 -0.03    -0.640 NA 
DOCKED: BRANCH   2   3
DOCKED: ATOM      3  C   UNL     1     134.393  69.263 225.451 -0.24 -0.01    +0.101 C  
DOCKED: ATOM      4  O   UNL     1     133.604  68.522 226.092 -0.79 +0.00    -0.313 OA 
DOCKED: BRANCH   3   5
DOCKED: ATOM      5  C   UNL     1     134.269  70.731 225.585 -0.23 -0.01    +0.088 A  
DOCKED: ATOM      6  C   UNL     1     135.096  71.585 224.839 -0.16 -0.00    +0.031 A  
DOCKED: ATOM      7  N   UNL     1     133.367  71.265 226.453 -0.21 +0.02    -0.246 NA 
DOCKED: ATOM      8  C   UNL     1     134.959  72.970 224.968 -0.23 -0.00    +0.013 A  
DOCKED: ATOM      9  C   UNL     1     133.222  72.608 226.612 -0.35 -0.00    +0.071 A  
DOCKED: ATOM     10  C   UNL     1     134.014  73.497 225.855 -0.32 +0.00    +0.002 A  
DOCKED: ATOM     11  C   UNL     1     132.290  73.109 227.525 -0.34 -0.01    +0.030 A  
DOCKED: ATOM     12  C   UNL     1     133.843  74.883 226.004 -0.36 +0.00    +0.030 A  
DOCKED: ATOM     13  C   UNL     1     132.123  74.490 227.672 -0.41 -0.00    +0.023 A  
DOCKED: ATOM     14  C   UNL     1     132.893  75.376 226.908 -0.36 +0.00    +0.041 A  
DOCKED: ATOM     15  Cl  UNL     1     132.674  77.108 227.088 -0.41 +0.00    -0.084 Cl 
DOCKED: ENDBRANCH   3   5
DOCKED: ENDBRANCH   2   3
DOCKED: ENDBRANCH   1   2
DOCKED: BRANCH   1  16
DOCKED: ATOM     16  C   UNL     1     137.103  68.574 222.856 -0.11 -0.02    +0.205 C  
DOCKED: ATOM     17  O   UNL     1     137.429  67.386 222.582 -0.08 +0.04    -0.277 OA 
DOCKED: BRANCH  16  18
DOCKED: ATOM     18  N   UNL     1     138.108  69.607 222.805 -0.06 +0.05    -0.337 N  
DOCKED: ATOM     19  C   UNL     1     138.876  69.875 221.601 -0.11 -0.02    +0.120 C  
DOCKED: ATOM     20  C   UNL     1     138.338  70.597 223.852 -0.24 -0.02    +0.115 C  
DOCKED: ATOM     21  C   UNL     1     139.744  71.088 221.914 -0.20 -0.00    +0.024 C  
DOCKED: ATOM     22  C   UNL     1     139.170  71.700 223.190 -0.25 -0.01    +0.032 C  
DOCKED: BRANCH  20  23
DOCKED: ATOM     23  C   UNL     1     139.062  69.977 225.033 -0.38 +0.00    -0.025 A  
DOCKED: ATOM     24  C   UNL     1     138.815  68.640 225.389 -0.43 -0.00    +0.007 A  
DOCKED: ATOM     25  C   UNL     1     139.954  70.736 225.816 -0.51 -0.00    +0.007 A  
DOCKED: ATOM     26  C   UNL     1     139.442  68.075 226.505 -0.58 -0.00    +0.021 A  
DOCKED: ATOM     27  C   UNL     1     140.567  70.174 226.939 -0.57 -0.00    +0.021 A  
DOCKED: ATOM     28  C   UNL     1     140.312  68.844 227.285 -0.60 -0.01    +0.041 A  
DOCKED: ATOM     29  Cl  UNL     1     141.099  68.137 228.685 -0.69 +0.02    -0.084 Cl 
DOCKED: ENDBRANCH  20  23
DOCKED: ENDBRANCH  16  18
DOCKED: ENDBRANCH   1  16
DOCKED: TORSDOF 6
DOCKED: TER
DOCKED: ENDMDL
________________________________________________________________________________


    FINAL DOCKED STATE:
    ________________________


Run:   7 / 20
Time taken for this run:   0.034s

DOCKED: MODEL        7
DOCKED: USER    Run = 7
DOCKED: USER
DOCKED: USER    Estimated Free Energy of Binding    =  -7.66 kcal/mol  [=(1)+(2)+(3)-(4)]
DOCKED: USER
DOCKED: USER    (1) Final Intermolecular Energy     =  -9.45 kcal/mol
DOCKED: USER        vdW + Hbond + desolv Energy     =  -9.61 kcal/mol
DOCKED: USER        Electrostatic Energy            =  +0.16 kcal/mol
DOCKED: USER        Moving Ligand-Fixed Receptor    =  -9.45 kcal/mol
DOCKED: USER        Moving Ligand-Moving Receptor   =  +0.00 kcal/mol
DOCKED: USER    (2) Final Total Internal Energy     =  -1.67 kcal/mol
DOCKED: USER    (3) Torsional Free Energy           =  +1.79 kcal/mol
DOCKED: USER    (4) Unbound System's Energy         =  -1.67 kcal/mol
DOCKED: USER
DOCKED: USER
DOCKED: REMARK SMILES O=C([N-]CC(=O)N1CCC[C@@H]1c1ccc(Cl)cc1)c1ccc2cc(Cl)ccc2n1
DOCKED: REMARK SMILES IDX 4 1 3 2 2 3 1 4 19 5 20 6 29 7 21 8 28 9 22 10 27 11 23 12
DOCKED: REMARK SMILES IDX 26 13 24 14 25 15 5 16 6 17 7 18 8 19 11 20 9 21 10 22 12 23
DOCKED: REMARK SMILES IDX 13 24 18 25 14 26 17 27 15 28 16 29
DOCKED: REMARK H PARENT
DOCKED: USER                              x       y       z     vdW  Elec       q    Type
DOCKED: USER                           _______ _______ _______ _____ _____    ______ ____
DOCKED: ROOT
DOCKED: ATOM      1  C   UNL     1     138.799  73.737 219.787 -0.06 +0.00    -0.015 C  
DOCKED: ENDROOT
DOCKED: BRANCH   1   2
DOCKED: ATOM      2  N   UNL     1     138.786  73.053 221.080 +0.01 +0.13    -0.640 NA 
DOCKED: BRANCH   2   3
DOCKED: ATOM      3  C   UNL     1     139.858  72.965 222.033 -0.25 -0.02    +0.101 C  
DOCKED: ATOM      4  O   UNL     1     140.780  73.818 221.967 -0.73 +0.01    -0.313 OA 
DOCKED: BRANCH   3   5
DOCKED: ATOM      5  C   UNL     1     139.907  71.934 223.092 -0.31 -0.02    +0.088 A  
DOCKED: ATOM      6  C   UNL     1     139.423  70.639 222.847 -0.24 -0.01    +0.031 A  
DOCKED: ATOM      7  N   UNL     1     140.401  72.240 224.323 -0.07 +0.04    -0.246 NA 
DOCKED: ATOM      8  C   UNL     1     139.487  69.672 223.854 -0.28 -0.00    +0.013 A  
DOCKED: ATOM      9  C   UNL     1     140.461  71.325 225.328 -0.50 -0.01    +0.071 A  
DOCKED: ATOM     10  C   UNL     1     140.013  70.005 225.107 -0.43 -0.00    +0.002 A  
DOCKED: ATOM     11  C   UNL     1     140.966  71.690 226.579 -0.69 -0.00    +0.030 A  
DOCKED: ATOM     12  C   UNL     1     140.100  69.057 226.140 -0.50 -0.01    +0.030 A  
DOCKED: ATOM     13  C   UNL     1     141.050  70.744 227.605 -0.64 -0.00    +0.023 A  
DOCKED: ATOM     14  C   UNL     1     140.625  69.428 227.384 -0.57 -0.01    +0.041 A  
DOCKED: ATOM     15  Cl  UNL     1     140.741  68.240 228.672 -0.67 +0.02    -0.084 Cl 
DOCKED: ENDBRANCH   3   5
DOCKED: ENDBRANCH   2   3
DOCKED: ENDBRANCH   1   2
DOCKED: BRANCH   1  16
DOCKED: ATOM     16  C   UNL     1     138.611  75.228 219.933 -0.04 -0.05    +0.205 C  
DOCKED: ATOM     17  O   UNL     1     139.192  76.013 219.133 -0.01 +0.07    -0.277 OA 
DOCKED: BRANCH  16  18
DOCKED: ATOM     18  N   UNL     1     137.769  75.776 220.967 -0.03 +0.07    -0.337 N  
DOCKED: ATOM     19  C   UNL     1     136.376  76.116 220.725 -0.04 -0.02    +0.120 C  
DOCKED: ATOM     20  C   UNL     1     138.136  75.878 222.375 -0.23 -0.03    +0.115 C  
DOCKED: ATOM     21  C   UNL     1     135.809  76.559 222.068 -0.12 -0.00    +0.024 C  
DOCKED: ATOM     22  C   UNL     1     136.818  76.108 223.122 -0.25 -0.01    +0.032 C  
DOCKED: BRANCH  20  23
DOCKED: ATOM     23  C   UNL     1     139.116  77.014 222.598 -0.28 +0.00    -0.025 A  
DOCKED: ATOM     24  C   UNL     1     138.654  78.270 223.028 -0.27 -0.00    +0.007 A  
DOCKED: ATOM     25  C   UNL     1     140.491  76.847 222.339 -0.42 -0.00    +0.007 A  
DOCKED: ATOM     26  C   UNL     1     139.545  79.336 223.191 -0.38 -0.00    +0.021 A  
DOCKED: ATOM     27  C   UNL     1     141.376  77.919 222.487 -0.40 -0.01    +0.021 A  
DOCKED: ATOM     28  C   UNL     1     140.904  79.164 222.913 -0.45 -0.01    +0.041 A  
DOCKED: ATOM     29  Cl  UNL     1     142.023  80.501 223.117 -0.76 +0.02    -0.084 Cl 
DOCKED: ENDBRANCH  20  23
DOCKED: ENDBRANCH  16  18
DOCKED: ENDBRANCH   1  16
DOCKED: TORSDOF 6
DOCKED: TER
DOCKED: ENDMDL
________________________________________________________________________________


    FINAL DOCKED STATE:
    ________________________


Run:   8 / 20
Time taken for this run:   0.034s

DOCKED: MODEL        8
DOCKED: USER    Run = 8
DOCKED: USER
DOCKED: USER    Estimated Free Energy of Binding    =  -7.63 kcal/mol  [=(1)+(2)+(3)-(4)]
DOCKED: USER
DOCKED: USER    (1) Final Intermolecular Energy     =  -9.42 kcal/mol
DOCKED: USER        vdW + Hbond + desolv Energy     =  -9.65 kcal/mol
DOCKED: USER        Electrostatic Energy            =  +0.23 kcal/mol
DOCKED: USER        Moving Ligand-Fixed Receptor    =  -9.42 kcal/mol
DOCKED: USER        Moving Ligand-Moving Receptor   =  +0.00 kcal/mol
DOCKED: USER    (2) Final Total Internal Energy     =  -1.64 kcal/mol
DOCKED: USER    (3) Torsional Free Energy           =  +1.79 kcal/mol
DOCKED: USER    (4) Unbound System's Energy         =  -1.64 kcal/mol
DOCKED: USER
DOCKED: USER
DOCKED: REMARK SMILES O=C([N-]CC(=O)N1CCC[C@@H]1c1ccc(Cl)cc1)c1ccc2cc(Cl)ccc2n1
DOCKED: REMARK SMILES IDX 4 1 3 2 2 3 1 4 19 5 20 6 29 7 21 8 28 9 22 10 27 11 23 12
DOCKED: REMARK SMILES IDX 26 13 24 14 25 15 5 16 6 17 7 18 8 19 11 20 9 21 10 22 12 23
DOCKED: REMARK SMILES IDX 13 24 18 25 14 26 17 27 15 28 16 29
DOCKED: REMARK H PARENT
DOCKED: USER                              x       y       z     vdW  Elec       q    Type
DOCKED: USER                           _______ _______ _______ _____ _____    ______ ____
DOCKED: ROOT
DOCKED: ATOM      1  C   UNL     1     136.479  72.779 222.294 -0.13 +0.00    -0.015 C  
DOCKED: ENDROOT
DOCKED: BRANCH   1   2
DOCKED: ATOM      2  N   UNL     1     137.206  73.880 221.662 +0.01 +0.17    -0.640 NA 
DOCKED: BRANCH   2   3
DOCKED: ATOM      3  C   UNL     1     137.140  75.275 221.996 -0.17 -0.03    +0.101 C  
DOCKED: ATOM      4  O   UNL     1     136.005  75.808 222.097 -0.07 +0.06    -0.313 OA 
DOCKED: BRANCH   3   5
DOCKED: ATOM      5  C   UNL     1     138.345  76.099 222.243 -0.26 -0.02    +0.088 A  
DOCKED: ATOM      6  C   UNL     1     139.625  75.572 222.015 -0.32 -0.01    +0.031 A  
DOCKED: ATOM      7  N   UNL     1     138.220  77.368 222.719 -0.18 +0.04    -0.246 NA 
DOCKED: ATOM      8  C   UNL     1     140.753  76.366 222.242 -0.39 -0.00    +0.013 A  
DOCKED: ATOM      9  C   UNL     1     139.299  78.159 222.964 -0.25 -0.01    +0.071 A  
DOCKED: ATOM     10  C   UNL     1     140.600  77.673 222.716 -0.43 -0.00    +0.002 A  
DOCKED: ATOM     11  C   UNL     1     139.121  79.452 223.464 -0.38 -0.00    +0.030 A  
DOCKED: ATOM     12  C   UNL     1     141.710  78.502 222.948 -0.48 -0.01    +0.030 A  
DOCKED: ATOM     13  C   UNL     1     140.228  80.274 223.695 -0.42 -0.00    +0.023 A  
DOCKED: ATOM     14  C   UNL     1     141.520  79.803 223.431 -0.55 -0.01    +0.041 A  
DOCKED: ATOM     15  Cl  UNL     1     142.908  80.841 223.713 -0.74 +0.02    -0.084 Cl 
DOCKED: ENDBRANCH   3   5
DOCKED: ENDBRANCH   2   3
DOCKED: ENDBRANCH   1   2
DOCKED: BRANCH   1  16
DOCKED: ATOM     16  C   UNL     1     137.392  71.883 223.096 -0.10 -0.06    +0.205 C  
DOCKED: ATOM     17  O   UNL     1     136.970  71.353 224.161 -0.15 +0.06    -0.277 OA 
DOCKED: BRANCH  16  18
DOCKED: ATOM     18  N   UNL     1     138.739  71.609 222.661 -0.10 +0.08    -0.337 N  
DOCKED: ATOM     19  C   UNL     1     139.026  71.048 221.351 -0.10 -0.02    +0.120 C  
DOCKED: ATOM     20  C   UNL     1     139.944  72.020 223.374 -0.24 -0.02    +0.115 C  
DOCKED: ATOM     21  C   UNL     1     140.545  71.007 221.232 -0.14 -0.00    +0.024 C  
DOCKED: ATOM     22  C   UNL     1     141.080  71.894 222.354 -0.21 -0.00    +0.032 C  
DOCKED: BRANCH  20  23
DOCKED: ATOM     23  C   UNL     1     140.179  71.143 224.590 -0.47 +0.00    -0.025 A  
DOCKED: ATOM     24  C   UNL     1     139.743  69.807 224.590 -0.36 -0.00    +0.007 A  
DOCKED: ATOM     25  C   UNL     1     140.792  71.660 225.748 -0.57 -0.00    +0.007 A  
DOCKED: ATOM     26  C   UNL     1     139.914  69.006 225.725 -0.47 -0.00    +0.021 A  
DOCKED: ATOM     27  C   UNL     1     140.947  70.862 226.885 -0.64 -0.00    +0.021 A  
DOCKED: ATOM     28  C   UNL     1     140.508  69.535 226.875 -0.54 -0.01    +0.041 A  
DOCKED: ATOM     29  Cl  UNL     1     140.722  68.531 228.299 -0.82 +0.02    -0.084 Cl 
DOCKED: ENDBRANCH  20  23
DOCKED: ENDBRANCH  16  18
DOCKED: ENDBRANCH   1  16
DOCKED: TORSDOF 6
DOCKED: TER
DOCKED: ENDMDL
________________________________________________________________________________


    FINAL DOCKED STATE:
    ________________________


Run:   9 / 20
Time taken for this run:   0.034s

DOCKED: MODEL        9
DOCKED: USER    Run = 9
DOCKED: USER
DOCKED: USER    Estimated Free Energy of Binding    =  -7.38 kcal/mol  [=(1)+(2)+(3)-(4)]
DOCKED: USER
DOCKED: USER    (1) Final Intermolecular Energy     =  -9.17 kcal/mol
DOCKED: USER        vdW + Hbond + desolv Energy     =  -9.34 kcal/mol
DOCKED: USER        Electrostatic Energy            =  +0.17 kcal/mol
DOCKED: USER        Moving Ligand-Fixed Receptor    =  -9.17 kcal/mol
DOCKED: USER        Moving Ligand-Moving Receptor   =  +0.00 kcal/mol
DOCKED: USER    (2) Final Total Internal Energy     =  -1.54 kcal/mol
DOCKED: USER    (3) Torsional Free Energy           =  +1.79 kcal/mol
DOCKED: USER    (4) Unbound System's Energy         =  -1.54 kcal/mol
DOCKED: USER
DOCKED: USER
DOCKED: REMARK SMILES O=C([N-]CC(=O)N1CCC[C@@H]1c1ccc(Cl)cc1)c1ccc2cc(Cl)ccc2n1
DOCKED: REMARK SMILES IDX 4 1 3 2 2 3 1 4 19 5 20 6 29 7 21 8 28 9 22 10 27 11 23 12
DOCKED: REMARK SMILES IDX 26 13 24 14 25 15 5 16 6 17 7 18 8 19 11 20 9 21 10 22 12 23
DOCKED: REMARK SMILES IDX 13 24 18 25 14 26 17 27 15 28 16 29
DOCKED: REMARK H PARENT
DOCKED: USER                              x       y       z     vdW  Elec       q    Type
DOCKED: USER                           _______ _______ _______ _____ _____    ______ ____
DOCKED: ROOT
DOCKED: ATOM      1  C   UNL     1     138.688  75.979 220.966 -0.16 +0.00    -0.015 C  
DOCKED: ENDROOT
DOCKED: BRANCH   1   2
DOCKED: ATOM      2  N   UNL     1     139.004  74.552 221.029 -0.01 +0.14    -0.640 NA 
DOCKED: BRANCH   2   3
DOCKED: ATOM      3  C   UNL     1     139.978  73.909 221.866 -0.22 -0.01    +0.101 C  
DOCKED: ATOM      4  O   UNL     1     141.123  74.424 221.946 -0.59 +0.01    -0.313 OA 
DOCKED: BRANCH   3   5
DOCKED: ATOM      5  C   UNL     1     139.683  72.688 222.648 -0.22 -0.02    +0.088 A  
DOCKED: ATOM      6  C   UNL     1     138.514  71.951 222.401 -0.19 -0.01    +0.031 A  
DOCKED: ATOM      7  N   UNL     1     140.533  72.282 223.630 -0.26 +0.02    -0.246 NA 
DOCKED: ATOM      8  C   UNL     1     138.255  70.793 223.139 -0.23 -0.00    +0.013 A  
DOCKED: ATOM      9  C   UNL     1     140.300  71.168 224.376 -0.42 -0.01    +0.071 A  
DOCKED: ATOM     10  C   UNL     1     139.151  70.386 224.134 -0.35 -0.00    +0.002 A  
DOCKED: ATOM     11  C   UNL     1     141.196  70.799 225.382 -0.53 -0.00    +0.030 A  
DOCKED: ATOM     12  C   UNL     1     138.927  69.224 224.890 -0.36 -0.00    +0.030 A  
DOCKED: ATOM     13  C   UNL     1     140.970  69.641 226.133 -0.51 -0.00    +0.023 A  
DOCKED: ATOM     14  C   UNL     1     139.841  68.851 225.884 -0.48 -0.01    +0.041 A  
DOCKED: ATOM     15  Cl  UNL     1     139.565  67.393 226.822 -0.60 +0.01    -0.084 Cl 
DOCKED: ENDBRANCH   3   5
DOCKED: ENDBRANCH   2   3
DOCKED: ENDBRANCH   1   2
DOCKED: BRANCH   1  16
DOCKED: ATOM     16  C   UNL     1     138.708  76.625 222.330 -0.23 -0.04    +0.205 C  
DOCKED: ATOM     17  O   UNL     1     137.945  76.193 223.238 -0.21 +0.07    -0.277 OA 
DOCKED: BRANCH  16  18
DOCKED: ATOM     18  N   UNL     1     139.594  77.725 222.622 -0.15 +0.07    -0.337 N  
DOCKED: ATOM     19  C   UNL     1     139.119  78.953 223.238 -0.27 -0.02    +0.120 C  
DOCKED: ATOM     20  C   UNL     1     141.048  77.674 222.515 -0.38 -0.04    +0.115 C  
DOCKED: ATOM     21  C   UNL     1     140.354  79.813 223.474 -0.47 -0.00    +0.024 C  
DOCKED: ATOM     22  C   UNL     1     141.554  78.882 223.310 -0.57 -0.01    +0.032 C  
DOCKED: BRANCH  20  23
DOCKED: ATOM     23  C   UNL     1     141.487  77.730 221.064 -0.31 +0.01    -0.025 A  
DOCKED: ATOM     24  C   UNL     1     141.371  78.928 220.338 -0.28 -0.00    +0.007 A  
DOCKED: ATOM     25  C   UNL     1     141.973  76.582 220.409 -0.27 -0.00    +0.007 A  
DOCKED: ATOM     26  C   UNL     1     141.729  78.976 218.986 -0.26 -0.01    +0.021 A  
DOCKED: ATOM     27  C   UNL     1     142.315  76.629 219.054 -0.28 -0.01    +0.021 A  
DOCKED: ATOM     28  C   UNL     1     142.194  77.826 218.342 -0.26 -0.03    +0.041 A  
DOCKED: ATOM     29  Cl  UNL     1     142.643  77.885 216.646 -0.27 +0.08    -0.084 Cl 
DOCKED: ENDBRANCH  20  23
DOCKED: ENDBRANCH  16  18
DOCKED: ENDBRANCH   1  16
DOCKED: TORSDOF 6
DOCKED: TER
DOCKED: ENDMDL
________________________________________________________________________________


    FINAL DOCKED STATE:
    ________________________


Run:   10 / 20
Time taken for this run:   0.034s

DOCKED: MODEL        10
DOCKED: USER    Run = 10
DOCKED: USER
DOCKED: USER    Estimated Free Energy of Binding    =  -8.47 kcal/mol  [=(1)+(2)+(3)-(4)]
DOCKED: USER
DOCKED: USER    (1) Final Intermolecular Energy     = -10.26 kcal/mol
DOCKED: USER        vdW + Hbond + desolv Energy     = -10.38 kcal/mol
DOCKED: USER        Electrostatic Energy            =  +0.12 kcal/mol
DOCKED: USER        Moving Ligand-Fixed Receptor    = -10.26 kcal/mol
DOCKED: USER        Moving Ligand-Moving Receptor   =  +0.00 kcal/mol
DOCKED: USER    (2) Final Total Internal Energy     =  -1.06 kcal/mol
DOCKED: USER    (3) Torsional Free Energy           =  +1.79 kcal/mol
DOCKED: USER    (4) Unbound System's Energy         =  -1.06 kcal/mol
DOCKED: USER
DOCKED: USER
DOCKED: REMARK SMILES O=C([N-]CC(=O)N1CCC[C@@H]1c1ccc(Cl)cc1)c1ccc2cc(Cl)ccc2n1
DOCKED: REMARK SMILES IDX 4 1 3 2 2 3 1 4 19 5 20 6 29 7 21 8 28 9 22 10 27 11 23 12
DOCKED: REMARK SMILES IDX 26 13 24 14 25 15 5 16 6 17 7 18 8 19 11 20 9 21 10 22 12 23
DOCKED: REMARK SMILES IDX 13 24 18 25 14 26 17 27 15 28 16 29
DOCKED: REMARK H PARENT
DOCKED: USER                              x       y       z     vdW  Elec       q    Type
DOCKED: USER                           _______ _______ _______ _____ _____    ______ ____
DOCKED: ROOT
DOCKED: ATOM      1  C   UNL     1     140.553  75.162 221.943 -0.23 +0.00    -0.015 C  
DOCKED: ENDROOT
DOCKED: BRANCH   1   2
DOCKED: ATOM      2  N   UNL     1     139.643  74.030 222.123 -0.53 +0.09    -0.640 NA 
DOCKED: BRANCH   2   3
DOCKED: ATOM      3  C   UNL     1     139.931  72.638 221.918 -0.25 -0.02    +0.101 C  
DOCKED: ATOM      4  O   UNL     1     140.180  72.250 220.748 -0.07 +0.05    -0.313 OA 
DOCKED: BRANCH   3   5
DOCKED: ATOM      5  C   UNL     1     139.966  71.655 223.024 -0.31 -0.01    +0.088 A  
DOCKED: ATOM      6  C   UNL     1     139.476  70.354 222.834 -0.22 -0.01    +0.031 A  
DOCKED: ATOM      7  N   UNL     1     140.453  72.014 224.243 -0.20 +0.03    -0.246 NA 
DOCKED: ATOM      8  C   UNL     1     139.527  69.433 223.885 -0.25 -0.00    +0.013 A  
DOCKED: ATOM      9  C   UNL     1     140.500  71.145 225.289 -0.50 -0.01    +0.071 A  
DOCKED: ATOM     10  C   UNL     1     140.046  69.820 225.125 -0.42 -0.00    +0.002 A  
DOCKED: ATOM     11  C   UNL     1     140.997  71.565 226.526 -0.69 -0.00    +0.030 A  
DOCKED: ATOM     12  C   UNL     1     140.119  68.920 226.201 -0.52 -0.01    +0.030 A  
DOCKED: ATOM     13  C   UNL     1     141.069  70.666 227.595 -0.63 -0.00    +0.023 A  
DOCKED: ATOM     14  C   UNL     1     140.637  69.343 227.431 -0.58 -0.01    +0.041 A  
DOCKED: ATOM     15  Cl  UNL     1     140.737  68.215 228.772 -0.60 +0.02    -0.084 Cl 
DOCKED: ENDBRANCH   3   5
DOCKED: ENDBRANCH   2   3
DOCKED: ENDBRANCH   1   2
DOCKED: BRANCH   1  16
DOCKED: ATOM     16  C   UNL     1     140.288  75.903 220.655 -0.15 -0.06    +0.205 C  
DOCKED: ATOM     17  O   UNL     1     139.113  75.962 220.197 -0.04 +0.07    -0.277 OA 
DOCKED: BRANCH  16  18
DOCKED: ATOM     18  N   UNL     1     141.354  76.560 219.939 -0.08 +0.15    -0.337 N  
DOCKED: ATOM     19  C   UNL     1     142.478  75.821 219.386 -0.25 -0.06    +0.120 C  
DOCKED: ATOM     20  C   UNL     1     141.345  77.961 219.532 -0.19 -0.06    +0.115 C  
DOCKED: ATOM     21  C   UNL     1     143.320  76.840 218.627 -0.30 -0.02    +0.024 C  
DOCKED: ATOM     22  C   UNL     1     142.443  78.080 218.470 -0.30 -0.02    +0.032 C  
DOCKED: BRANCH  20  23
DOCKED: ATOM     23  C   UNL     1     141.607  78.871 220.718 -0.31 +0.01    -0.025 A  
DOCKED: ATOM     24  C   UNL     1     141.827  80.244 220.517 -0.35 -0.00    +0.007 A  
DOCKED: ATOM     25  C   UNL     1     141.677  78.354 222.026 -0.37 -0.00    +0.007 A  
DOCKED: ATOM     26  C   UNL     1     142.116  81.082 221.601 -0.38 -0.01    +0.021 A  
DOCKED: ATOM     27  C   UNL     1     141.982  79.190 223.104 -0.58 -0.01    +0.021 A  
DOCKED: ATOM     28  C   UNL     1     142.201  80.554 222.893 -0.58 -0.01    +0.041 A  
DOCKED: ATOM     29  Cl  UNL     1     142.564  81.604 224.252 -0.51 +0.01    -0.084 Cl 
DOCKED: ENDBRANCH  20  23
DOCKED: ENDBRANCH  16  18
DOCKED: ENDBRANCH   1  16
DOCKED: TORSDOF 6
DOCKED: TER
DOCKED: ENDMDL
________________________________________________________________________________


    FINAL DOCKED STATE:
    ________________________


Run:   11 / 20
Time taken for this run:   0.034s

DOCKED: MODEL        11
DOCKED: USER    Run = 11
DOCKED: USER
DOCKED: USER    Estimated Free Energy of Binding    =  -7.86 kcal/mol  [=(1)+(2)+(3)-(4)]
DOCKED: USER
DOCKED: USER    (1) Final Intermolecular Energy     =  -9.65 kcal/mol
DOCKED: USER        vdW + Hbond + desolv Energy     =  -9.79 kcal/mol
DOCKED: USER        Electrostatic Energy            =  +0.14 kcal/mol
DOCKED: USER        Moving Ligand-Fixed Receptor    =  -9.65 kcal/mol
DOCKED: USER        Moving Ligand-Moving Receptor   =  +0.00 kcal/mol
DOCKED: USER    (2) Final Total Internal Energy     =  -1.53 kcal/mol
DOCKED: USER    (3) Torsional Free Energy           =  +1.79 kcal/mol
DOCKED: USER    (4) Unbound System's Energy         =  -1.53 kcal/mol
DOCKED: USER
DOCKED: USER
DOCKED: REMARK SMILES O=C([N-]CC(=O)N1CCC[C@@H]1c1ccc(Cl)cc1)c1ccc2cc(Cl)ccc2n1
DOCKED: REMARK SMILES IDX 4 1 3 2 2 3 1 4 19 5 20 6 29 7 21 8 28 9 22 10 27 11 23 12
DOCKED: REMARK SMILES IDX 26 13 24 14 25 15 5 16 6 17 7 18 8 19 11 20 9 21 10 22 12 23
DOCKED: REMARK SMILES IDX 13 24 18 25 14 26 17 27 15 28 16 29
DOCKED: REMARK H PARENT
DOCKED: USER                              x       y       z     vdW  Elec       q    Type
DOCKED: USER                           _______ _______ _______ _____ _____    ______ ____
DOCKED: ROOT
DOCKED: ATOM      1  C   UNL     1     140.382  72.859 219.585 -0.07 +0.00    -0.015 C  
DOCKED: ENDROOT
DOCKED: BRANCH   1   2
DOCKED: ATOM      2  N   UNL     1     139.770  72.118 220.688 +0.03 +0.11    -0.640 NA 
DOCKED: BRANCH   2   3
DOCKED: ATOM      3  C   UNL     1     139.709  72.501 222.071 -0.24 -0.02    +0.101 C  
DOCKED: ATOM      4  O   UNL     1     139.546  73.719 222.341 -0.75 +0.05    -0.313 OA 
DOCKED: BRANCH   3   5
DOCKED: ATOM      5  C   UNL     1     139.810  71.526 223.179 -0.31 -0.02    +0.088 A  
DOCKED: ATOM      6  C   UNL     1     139.365  70.206 223.007 -0.23 -0.01    +0.031 A  
DOCKED: ATOM      7  N   UNL     1     140.313  71.909 224.384 -0.26 +0.04    -0.246 NA 
DOCKED: ATOM      8  C   UNL     1     139.478  69.293 224.059 -0.27 -0.00    +0.013 A  
DOCKED: ATOM      9  C   UNL     1     140.420  71.048 225.431 -0.51 -0.01    +0.071 A  
DOCKED: ATOM     10  C   UNL     1     140.013  69.705 225.284 -0.43 -0.00    +0.002 A  
DOCKED: ATOM     11  C   UNL     1     140.932  71.491 226.654 -0.69 -0.00    +0.030 A  
DOCKED: ATOM     12  C   UNL     1     140.148  68.813 226.361 -0.54 -0.01    +0.030 A  
DOCKED: ATOM     13  C   UNL     1     141.065  70.601 227.724 -0.63 -0.00    +0.023 A  
DOCKED: ATOM     14  C   UNL     1     140.680  69.262 227.576 -0.59 -0.01    +0.041 A  
DOCKED: ATOM     15  Cl  UNL     1     140.857  68.145 228.919 -0.52 +0.02    -0.084 Cl 
DOCKED: ENDBRANCH   3   5
DOCKED: ENDBRANCH   2   3
DOCKED: ENDBRANCH   1   2
DOCKED: BRANCH   1  16
DOCKED: ATOM     16  C   UNL     1     141.756  72.335 219.242 -0.05 -0.03    +0.205 C  
DOCKED: ATOM     17  O   UNL     1     141.880  71.428 218.373 -0.01 +0.04    -0.277 OA 
DOCKED: BRANCH  16  18
DOCKED: ATOM     18  N   UNL     1     142.936  72.861 219.883 -0.07 +0.06    -0.337 N  
DOCKED: ATOM     19  C   UNL     1     143.731  72.065 220.803 -0.24 -0.02    +0.120 C  
DOCKED: ATOM     20  C   UNL     1     143.561  74.138 219.557 -0.26 -0.03    +0.115 C  
DOCKED: ATOM     21  C   UNL     1     144.932  72.925 221.178 -0.41 -0.01    +0.024 C  
DOCKED: ATOM     22  C   UNL     1     144.967  74.066 220.163 -0.46 -0.01    +0.032 C  
DOCKED: BRANCH  20  23
DOCKED: ATOM     23  C   UNL     1     142.760  75.294 220.127 -0.32 +0.01    -0.025 A  
DOCKED: ATOM     24  C   UNL     1     141.851  75.073 221.175 -0.26 -0.00    +0.007 A  
DOCKED: ATOM     25  C   UNL     1     142.879  76.592 219.592 -0.37 -0.00    +0.007 A  
DOCKED: ATOM     26  C   UNL     1     141.074  76.124 221.674 -0.35 -0.01    +0.021 A  
DOCKED: ATOM     27  C   UNL     1     142.091  77.636 220.082 -0.30 -0.01    +0.021 A  
DOCKED: ATOM     28  C   UNL     1     141.188  77.404 221.123 -0.30 -0.02    +0.041 A  
DOCKED: ATOM     29  Cl  UNL     1     140.213  78.723 221.748 -0.35 +0.02    -0.084 Cl 
DOCKED: ENDBRANCH  20  23
DOCKED: ENDBRANCH  16  18
DOCKED: ENDBRANCH   1  16
DOCKED: TORSDOF 6
DOCKED: TER
DOCKED: ENDMDL
________________________________________________________________________________


    FINAL DOCKED STATE:
    ________________________


Run:   12 / 20
Time taken for this run:   0.034s

DOCKED: MODEL        12
DOCKED: USER    Run = 12
DOCKED: USER
DOCKED: USER    Estimated Free Energy of Binding    =  -8.65 kcal/mol  [=(1)+(2)+(3)-(4)]
DOCKED: USER
DOCKED: USER    (1) Final Intermolecular Energy     = -10.44 kcal/mol
DOCKED: USER        vdW + Hbond + desolv Energy     = -10.51 kcal/mol
DOCKED: USER        Electrostatic Energy            =  +0.08 kcal/mol
DOCKED: USER        Moving Ligand-Fixed Receptor    = -10.44 kcal/mol
DOCKED: USER        Moving Ligand-Moving Receptor   =  +0.00 kcal/mol
DOCKED: USER    (2) Final Total Internal Energy     =  -1.11 kcal/mol
DOCKED: USER    (3) Torsional Free Energy           =  +1.79 kcal/mol
DOCKED: USER    (4) Unbound System's Energy         =  -1.11 kcal/mol
DOCKED: USER
DOCKED: USER
DOCKED: REMARK SMILES O=C([N-]CC(=O)N1CCC[C@@H]1c1ccc(Cl)cc1)c1ccc2cc(Cl)ccc2n1
DOCKED: REMARK SMILES IDX 4 1 3 2 2 3 1 4 19 5 20 6 29 7 21 8 28 9 22 10 27 11 23 12
DOCKED: REMARK SMILES IDX 26 13 24 14 25 15 5 16 6 17 7 18 8 19 11 20 9 21 10 22 12 23
DOCKED: REMARK SMILES IDX 13 24 18 25 14 26 17 27 15 28 16 29
DOCKED: REMARK H PARENT
DOCKED: USER                              x       y       z     vdW  Elec       q    Type
DOCKED: USER                           _______ _______ _______ _____ _____    ______ ____
DOCKED: ROOT
DOCKED: ATOM      1  C   UNL     1     139.498  75.048 222.216 -0.18 +0.00    -0.015 C  
DOCKED: ENDROOT
DOCKED: BRANCH   1   2
DOCKED: ATOM      2  N   UNL     1     140.312  73.857 221.974 -0.62 +0.04    -0.640 NA 
DOCKED: BRANCH   2   3
DOCKED: ATOM      3  C   UNL     1     139.859  72.498 221.862 -0.24 -0.02    +0.101 C  
DOCKED: ATOM      4  O   UNL     1     139.444  72.103 220.742 -0.04 +0.06    -0.313 OA 
DOCKED: BRANCH   3   5
DOCKED: ATOM      5  C   UNL     1     139.882  71.549 222.996 -0.30 -0.02    +0.088 A  
DOCKED: ATOM      6  C   UNL     1     139.331  70.265 222.860 -0.22 -0.01    +0.031 A  
DOCKED: ATOM      7  N   UNL     1     140.417  71.923 224.191 -0.26 +0.04    -0.246 NA 
DOCKED: ATOM      8  C   UNL     1     139.370  69.375 223.937 -0.28 -0.00    +0.013 A  
DOCKED: ATOM      9  C   UNL     1     140.455  71.084 225.262 -0.50 -0.01    +0.071 A  
DOCKED: ATOM     10  C   UNL     1     139.939  69.776 225.151 -0.42 -0.00    +0.002 A  
DOCKED: ATOM     11  C   UNL     1     141.003  71.518 226.472 -0.68 -0.00    +0.030 A  
DOCKED: ATOM     12  C   UNL     1     140.003  68.906 226.252 -0.52 -0.01    +0.030 A  
DOCKED: ATOM     13  C   UNL     1     141.065  70.650 227.566 -0.63 -0.00    +0.023 A  
DOCKED: ATOM     14  C   UNL     1     140.572  69.343 227.455 -0.58 -0.01    +0.041 A  
DOCKED: ATOM     15  Cl  UNL     1     140.659  68.253 228.828 -0.53 +0.02    -0.084 Cl 
DOCKED: ENDBRANCH   3   5
DOCKED: ENDBRANCH   2   3
DOCKED: ENDBRANCH   1   2
DOCKED: BRANCH   1  16
DOCKED: ATOM     16  C   UNL     1     139.563  76.023 221.066 -0.16 -0.05    +0.205 C  
DOCKED: ATOM     17  O   UNL     1     138.505  76.569 220.646 -0.04 +0.06    -0.277 OA 
DOCKED: BRANCH  16  18
DOCKED: ATOM     18  N   UNL     1     140.820  76.354 220.440 -0.08 +0.12    -0.337 N  
DOCKED: ATOM     19  C   UNL     1     141.817  75.342 220.132 -0.22 -0.05    +0.120 C  
DOCKED: ATOM     20  C   UNL     1     141.156  77.662 219.887 -0.19 -0.05    +0.115 C  
DOCKED: ATOM     21  C   UNL     1     142.938  76.062 219.393 -0.35 -0.01    +0.024 C  
DOCKED: ATOM     22  C   UNL     1     142.368  77.419 218.982 -0.30 -0.02    +0.032 C  
DOCKED: BRANCH  20  23
DOCKED: ATOM     23  C   UNL     1     141.467  78.653 220.992 -0.33 +0.01    -0.025 A  
DOCKED: ATOM     24  C   UNL     1     141.815  79.977 220.674 -0.35 -0.00    +0.007 A  
DOCKED: ATOM     25  C   UNL     1     141.457  78.258 222.344 -0.44 -0.00    +0.007 A  
DOCKED: ATOM     26  C   UNL     1     142.150  80.885 221.685 -0.43 -0.01    +0.021 A  
DOCKED: ATOM     27  C   UNL     1     141.807  79.163 223.350 -0.59 -0.01    +0.021 A  
DOCKED: ATOM     28  C   UNL     1     142.154  80.477 223.022 -0.58 -0.01    +0.041 A  
DOCKED: ATOM     29  Cl  UNL     1     142.574  81.614 224.291 -0.47 +0.01    -0.084 Cl 
DOCKED: ENDBRANCH  20  23
DOCKED: ENDBRANCH  16  18
DOCKED: ENDBRANCH   1  16
DOCKED: TORSDOF 6
DOCKED: TER
DOCKED: ENDMDL
________________________________________________________________________________


    FINAL DOCKED STATE:
    ________________________


Run:   13 / 20
Time taken for this run:   0.034s

DOCKED: MODEL        13
DOCKED: USER    Run = 13
DOCKED: USER
DOCKED: USER    Estimated Free Energy of Binding    =  -8.03 kcal/mol  [=(1)+(2)+(3)-(4)]
DOCKED: USER
DOCKED: USER    (1) Final Intermolecular Energy     =  -9.82 kcal/mol
DOCKED: USER        vdW + Hbond + desolv Energy     =  -9.84 kcal/mol
DOCKED: USER        Electrostatic Energy            =  +0.03 kcal/mol
DOCKED: USER        Moving Ligand-Fixed Receptor    =  -9.82 kcal/mol
DOCKED: USER        Moving Ligand-Moving Receptor   =  +0.00 kcal/mol
DOCKED: USER    (2) Final Total Internal Energy     =  -1.43 kcal/mol
DOCKED: USER    (3) Torsional Free Energy           =  +1.79 kcal/mol
DOCKED: USER    (4) Unbound System's Energy         =  -1.43 kcal/mol
DOCKED: USER
DOCKED: USER
DOCKED: REMARK SMILES O=C([N-]CC(=O)N1CCC[C@@H]1c1ccc(Cl)cc1)c1ccc2cc(Cl)ccc2n1
DOCKED: REMARK SMILES IDX 4 1 3 2 2 3 1 4 19 5 20 6 29 7 21 8 28 9 22 10 27 11 23 12
DOCKED: REMARK SMILES IDX 26 13 24 14 25 15 5 16 6 17 7 18 8 19 11 20 9 21 10 22 12 23
DOCKED: REMARK SMILES IDX 13 24 18 25 14 26 17 27 15 28 16 29
DOCKED: REMARK H PARENT
DOCKED: USER                              x       y       z     vdW  Elec       q    Type
DOCKED: USER                           _______ _______ _______ _____ _____    ______ ____
DOCKED: ROOT
DOCKED: ATOM      1  C   UNL     1     135.728  69.673 223.540 -0.16 +0.00    -0.015 C  
DOCKED: ENDROOT
DOCKED: BRANCH   1   2
DOCKED: ATOM      2  N   UNL     1     135.256  68.805 224.619 -0.36 -0.00    -0.640 NA 
DOCKED: BRANCH   2   3
DOCKED: ATOM      3  C   UNL     1     134.391  69.159 225.709 -0.24 -0.00    +0.101 C  
DOCKED: ATOM      4  O   UNL     1     133.975  68.239 226.459 -0.77 +0.00    -0.313 OA 
DOCKED: BRANCH   3   5
DOCKED: ATOM      5  C   UNL     1     133.989  70.555 225.994 -0.27 -0.01    +0.088 A  
DOCKED: ATOM      6  C   UNL     1     132.901  70.823 226.839 -0.29 -0.00    +0.031 A  
DOCKED: ATOM      7  N   UNL     1     134.659  71.590 225.418 -0.11 +0.01    -0.246 NA 
DOCKED: ATOM      8  C   UNL     1     132.542  72.147 227.107 -0.41 -0.00    +0.013 A  
DOCKED: ATOM      9  C   UNL     1     134.323  72.888 225.648 -0.26 -0.00    +0.071 A  
DOCKED: ATOM     10  C   UNL     1     133.254  73.196 226.517 -0.37 -0.00    +0.002 A  
DOCKED: ATOM     11  C   UNL     1     135.033  73.917 225.024 -0.26 -0.00    +0.030 A  
DOCKED: ATOM     12  C   UNL     1     132.926  74.538 226.770 -0.35 +0.00    +0.030 A  
DOCKED: ATOM     13  C   UNL     1     134.703  75.252 225.278 -0.38 -0.00    +0.023 A  
DOCKED: ATOM     14  C   UNL     1     133.655  75.563 226.155 -0.35 -0.00    +0.041 A  
DOCKED: ATOM     15  Cl  UNL     1     133.250  77.240 226.479 -0.35 +0.01    -0.084 Cl 
DOCKED: ENDBRANCH   3   5
DOCKED: ENDBRANCH   2   3
DOCKED: ENDBRANCH   1   2
DOCKED: BRANCH   1  16
DOCKED: ATOM     16  C   UNL     1     137.005  69.161 222.917 -0.12 -0.03    +0.205 C  
DOCKED: ATOM     17  O   UNL     1     137.044  67.993 222.441 -0.10 +0.04    -0.277 OA 
DOCKED: BRANCH  16  18
DOCKED: ATOM     18  N   UNL     1     138.184  69.988 222.845 -0.06 +0.06    -0.337 N  
DOCKED: ATOM     19  C   UNL     1     139.000  70.062 221.645 -0.12 -0.02    +0.120 C  
DOCKED: ATOM     20  C   UNL     1     138.583  70.960 223.858 -0.26 -0.03    +0.115 C  
DOCKED: ATOM     21  C   UNL     1     140.075  71.105 221.927 -0.20 -0.00    +0.024 C  
DOCKED: ATOM     22  C   UNL     1     139.611  71.863 223.169 -0.30 -0.01    +0.032 C  
DOCKED: BRANCH  20  23
DOCKED: ATOM     23  C   UNL     1     139.167  70.266 225.074 -0.38 +0.00    -0.025 A  
DOCKED: ATOM     24  C   UNL     1     140.074  70.945 225.905 -0.53 -0.00    +0.007 A  
DOCKED: ATOM     25  C   UNL     1     138.849  68.925 225.366 -0.42 -0.00    +0.007 A  
DOCKED: ATOM     26  C   UNL     1     140.654  70.297 227.002 -0.58 -0.00    +0.021 A  
DOCKED: ATOM     27  C   UNL     1     139.442  68.275 226.452 -0.56 -0.00    +0.021 A  
DOCKED: ATOM     28  C   UNL     1     140.345  68.960 227.271 -0.59 -0.01    +0.041 A  
DOCKED: ATOM     29  Cl  UNL     1     141.072  68.146 228.645 -0.71 +0.02    -0.084 Cl 
DOCKED: ENDBRANCH  20  23
DOCKED: ENDBRANCH  16  18
DOCKED: ENDBRANCH   1  16
DOCKED: TORSDOF 6
DOCKED: TER
DOCKED: ENDMDL
________________________________________________________________________________


    FINAL DOCKED STATE:
    ________________________


Run:   14 / 20
Time taken for this run:   0.034s

DOCKED: MODEL        14
DOCKED: USER    Run = 14
DOCKED: USER
DOCKED: USER    Estimated Free Energy of Binding    =  -8.37 kcal/mol  [=(1)+(2)+(3)-(4)]
DOCKED: USER
DOCKED: USER    (1) Final Intermolecular Energy     = -10.16 kcal/mol
DOCKED: USER        vdW + Hbond + desolv Energy     = -10.34 kcal/mol
DOCKED: USER        Electrostatic Energy            =  +0.18 kcal/mol
DOCKED: USER        Moving Ligand-Fixed Receptor    = -10.16 kcal/mol
DOCKED: USER        Moving Ligand-Moving Receptor   =  +0.00 kcal/mol
DOCKED: USER    (2) Final Total Internal Energy     =  -0.92 kcal/mol
DOCKED: USER    (3) Torsional Free Energy           =  +1.79 kcal/mol
DOCKED: USER    (4) Unbound System's Energy         =  -0.92 kcal/mol
DOCKED: USER
DOCKED: USER
DOCKED: REMARK SMILES O=C([N-]CC(=O)N1CCC[C@@H]1c1ccc(Cl)cc1)c1ccc2cc(Cl)ccc2n1
DOCKED: REMARK SMILES IDX 4 1 3 2 2 3 1 4 19 5 20 6 29 7 21 8 28 9 22 10 27 11 23 12
DOCKED: REMARK SMILES IDX 26 13 24 14 25 15 5 16 6 17 7 18 8 19 11 20 9 21 10 22 12 23
DOCKED: REMARK SMILES IDX 13 24 18 25 14 26 17 27 15 28 16 29
DOCKED: REMARK H PARENT
DOCKED: USER                              x       y       z     vdW  Elec       q    Type
DOCKED: USER                           _______ _______ _______ _____ _____    ______ ____
DOCKED: ROOT
DOCKED: ATOM      1  C   UNL     1     139.971  74.462 220.715 -0.19 +0.00    -0.015 C  
DOCKED: ENDROOT
DOCKED: BRANCH   1   2
DOCKED: ATOM      2  N   UNL     1     139.444  73.710 221.854 -0.25 +0.12    -0.640 NA 
DOCKED: BRANCH   2   3
DOCKED: ATOM      3  C   UNL     1     138.986  72.349 221.864 -0.18 -0.02    +0.101 C  
DOCKED: ATOM      4  O   UNL     1     138.352  71.929 220.862 -0.03 +0.06    -0.313 OA 
DOCKED: BRANCH   3   5
DOCKED: ATOM      5  C   UNL     1     139.245  71.424 222.990 -0.26 -0.02    +0.088 A  
DOCKED: ATOM      6  C   UNL     1     138.810  70.092 222.931 -0.21 -0.01    +0.031 A  
DOCKED: ATOM      7  N   UNL     1     139.890  71.867 224.105 -0.23 +0.06    -0.246 NA 
DOCKED: ATOM      8  C   UNL     1     139.073  69.227 223.997 -0.30 -0.00    +0.013 A  
DOCKED: ATOM      9  C   UNL     1     140.146  71.054 225.164 -0.47 -0.01    +0.071 A  
DOCKED: ATOM     10  C   UNL     1     139.751  69.700 225.126 -0.41 -0.00    +0.002 A  
DOCKED: ATOM     11  C   UNL     1     140.800  71.558 226.292 -0.64 -0.00    +0.030 A  
DOCKED: ATOM     12  C   UNL     1     140.039  68.858 226.212 -0.52 -0.01    +0.030 A  
DOCKED: ATOM     13  C   UNL     1     141.085  70.716 227.372 -0.62 -0.00    +0.023 A  
DOCKED: ATOM     14  C   UNL     1     140.712  69.367 227.330 -0.57 -0.01    +0.041 A  
DOCKED: ATOM     15  Cl  UNL     1     141.080  68.312 228.684 -0.71 +0.02    -0.084 Cl 
DOCKED: ENDBRANCH   3   5
DOCKED: ENDBRANCH   2   3
DOCKED: ENDBRANCH   1   2
DOCKED: BRANCH   1  16
DOCKED: ATOM     16  C   UNL     1     141.039  75.445 221.129 -0.24 -0.06    +0.205 C  
DOCKED: ATOM     17  O   UNL     1     141.433  75.472 222.328 -0.22 +0.06    -0.277 OA 
DOCKED: BRANCH  16  18
DOCKED: ATOM     18  N   UNL     1     141.630  76.351 220.176 -0.11 +0.16    -0.337 N  
DOCKED: ATOM     19  C   UNL     1     142.715  75.944 219.297 -0.27 -0.06    +0.120 C  
DOCKED: ATOM     20  C   UNL     1     141.110  77.675 219.852 -0.18 -0.05    +0.115 C  
DOCKED: ATOM     21  C   UNL     1     142.985  77.132 218.381 -0.31 -0.02    +0.024 C  
DOCKED: ATOM     22  C   UNL     1     141.785  78.064 218.533 -0.23 -0.02    +0.032 C  
DOCKED: BRANCH  20  23
DOCKED: ATOM     23  C   UNL     1     141.424  78.665 220.959 -0.32 +0.01    -0.025 A  
DOCKED: ATOM     24  C   UNL     1     141.829  79.973 220.640 -0.35 -0.00    +0.007 A  
DOCKED: ATOM     25  C   UNL     1     141.359  78.284 222.313 -0.45 -0.00    +0.007 A  
DOCKED: ATOM     26  C   UNL     1     142.166  80.878 221.654 -0.42 -0.01    +0.021 A  
DOCKED: ATOM     27  C   UNL     1     141.711  79.184 223.322 -0.58 -0.01    +0.021 A  
DOCKED: ATOM     28  C   UNL     1     142.115  80.482 222.993 -0.58 -0.01    +0.041 A  
DOCKED: ATOM     29  Cl  UNL     1     142.538  81.615 224.265 -0.49 +0.01    -0.084 Cl 
DOCKED: ENDBRANCH  20  23
DOCKED: ENDBRANCH  16  18
DOCKED: ENDBRANCH   1  16
DOCKED: TORSDOF 6
DOCKED: TER
DOCKED: ENDMDL
________________________________________________________________________________


    FINAL DOCKED STATE:
    ________________________


Run:   15 / 20
Time taken for this run:   0.034s

DOCKED: MODEL        15
DOCKED: USER    Run = 15
DOCKED: USER
DOCKED: USER    Estimated Free Energy of Binding    =  -6.97 kcal/mol  [=(1)+(2)+(3)-(4)]
DOCKED: USER
DOCKED: USER    (1) Final Intermolecular Energy     =  -8.76 kcal/mol
DOCKED: USER        vdW + Hbond + desolv Energy     =  -8.74 kcal/mol
DOCKED: USER        Electrostatic Energy            =  -0.02 kcal/mol
DOCKED: USER        Moving Ligand-Fixed Receptor    =  -8.76 kcal/mol
DOCKED: USER        Moving Ligand-Moving Receptor   =  +0.00 kcal/mol
DOCKED: USER    (2) Final Total Internal Energy     =  -1.87 kcal/mol
DOCKED: USER    (3) Torsional Free Energy           =  +1.79 kcal/mol
DOCKED: USER    (4) Unbound System's Energy         =  -1.87 kcal/mol
DOCKED: USER
DOCKED: USER
DOCKED: REMARK SMILES O=C([N-]CC(=O)N1CCC[C@@H]1c1ccc(Cl)cc1)c1ccc2cc(Cl)ccc2n1
DOCKED: REMARK SMILES IDX 4 1 3 2 2 3 1 4 19 5 20 6 29 7 21 8 28 9 22 10 27 11 23 12
DOCKED: REMARK SMILES IDX 26 13 24 14 25 15 5 16 6 17 7 18 8 19 11 20 9 21 10 22 12 23
DOCKED: REMARK SMILES IDX 13 24 18 25 14 26 17 27 15 28 16 29
DOCKED: REMARK H PARENT
DOCKED: USER                              x       y       z     vdW  Elec       q    Type
DOCKED: USER                           _______ _______ _______ _____ _____    ______ ____
DOCKED: ROOT
DOCKED: ATOM      1  C   UNL     1     134.420  68.278 222.905 -0.12 +0.00    -0.015 C  
DOCKED: ENDROOT
DOCKED: BRANCH   1   2
DOCKED: ATOM      2  N   UNL     1     134.652  67.835 224.280 -0.46 -0.05    -0.640 NA 
DOCKED: BRANCH   2   3
DOCKED: ATOM      3  C   UNL     1     134.219  68.478 225.489 -0.24 -0.01    +0.101 C  
DOCKED: ATOM      4  O   UNL     1     133.930  67.752 226.475 -0.75 +0.03    -0.313 OA 
DOCKED: BRANCH   3   5
DOCKED: ATOM      5  C   UNL     1     134.121  69.948 225.625 -0.24 -0.01    +0.088 A  
DOCKED: ATOM      6  C   UNL     1     135.002  70.787 224.927 -0.19 -0.00    +0.031 A  
DOCKED: ATOM      7  N   UNL     1     133.188  70.498 226.450 -0.31 +0.01    -0.246 NA 
DOCKED: ATOM      8  C   UNL     1     134.890  72.174 225.056 -0.16 -0.00    +0.013 A  
DOCKED: ATOM      9  C   UNL     1     133.064  71.843 226.609 -0.35 -0.01    +0.071 A  
DOCKED: ATOM     10  C   UNL     1     133.913  72.717 225.898 -0.32 -0.00    +0.002 A  
DOCKED: ATOM     11  C   UNL     1     132.099  72.360 227.477 -0.38 -0.01    +0.030 A  
DOCKED: ATOM     12  C   UNL     1     133.766  74.106 226.047 -0.33 +0.00    +0.030 A  
DOCKED: ATOM     13  C   UNL     1     131.955  73.743 227.623 -0.40 -0.00    +0.023 A  
DOCKED: ATOM     14  C   UNL     1     132.782  74.616 226.904 -0.37 +0.00    +0.041 A  
DOCKED: ATOM     15  Cl  UNL     1     132.593  76.352 227.083 -0.44 +0.00    -0.084 Cl 
DOCKED: ENDBRANCH   3   5
DOCKED: ENDBRANCH   2   3
DOCKED: ENDBRANCH   1   2
DOCKED: BRANCH   1  16
DOCKED: ATOM     16  C   UNL     1     135.685  68.776 222.248 -0.07 -0.03    +0.205 C  
DOCKED: ATOM     17  O   UNL     1     135.747  69.964 221.828 -0.02 +0.04    -0.277 OA 
DOCKED: BRANCH  16  18
DOCKED: ATOM     18  N   UNL     1     136.835  67.918 222.099 -0.07 +0.05    -0.337 N  
DOCKED: ATOM     19  C   UNL     1     136.706  66.507 221.773 -0.09 -0.02    +0.120 C  
DOCKED: ATOM     20  C   UNL     1     138.219  68.379 222.071 -0.16 -0.02    +0.115 C  
DOCKED: ATOM     21  C   UNL     1     138.126  65.981 221.603 -0.23 -0.00    +0.024 C  
DOCKED: ATOM     22  C   UNL     1     139.021  67.212 221.483 -0.20 -0.01    +0.032 C  
DOCKED: BRANCH  20  23
DOCKED: ATOM     23  C   UNL     1     138.697  68.745 223.463 -0.27 +0.00    -0.025 A  
DOCKED: ATOM     24  C   UNL     1     139.169  67.747 224.332 -0.24 -0.00    +0.007 A  
DOCKED: ATOM     25  C   UNL     1     138.635  70.075 223.924 -0.30 -0.00    +0.007 A  
DOCKED: ATOM     26  C   UNL     1     139.567  68.070 225.634 -0.52 -0.00    +0.021 A  
DOCKED: ATOM     27  C   UNL     1     139.017  70.392 225.230 -0.31 -0.00    +0.021 A  
DOCKED: ATOM     28  C   UNL     1     139.484  69.391 226.086 -0.45 -0.01    +0.041 A  
DOCKED: ATOM     29  Cl  UNL     1     139.982  69.797 227.720 -0.77 +0.01    -0.084 Cl 
DOCKED: ENDBRANCH  20  23
DOCKED: ENDBRANCH  16  18
DOCKED: ENDBRANCH   1  16
DOCKED: TORSDOF 6
DOCKED: TER
DOCKED: ENDMDL
________________________________________________________________________________


    FINAL DOCKED STATE:
    ________________________


Run:   16 / 20
Time taken for this run:   0.034s

DOCKED: MODEL        16
DOCKED: USER    Run = 16
DOCKED: USER
DOCKED: USER    Estimated Free Energy of Binding    =  -8.23 kcal/mol  [=(1)+(2)+(3)-(4)]
DOCKED: USER
DOCKED: USER    (1) Final Intermolecular Energy     = -10.02 kcal/mol
DOCKED: USER        vdW + Hbond + desolv Energy     = -10.19 kcal/mol
DOCKED: USER        Electrostatic Energy            =  +0.17 kcal/mol
DOCKED: USER        Moving Ligand-Fixed Receptor    = -10.02 kcal/mol
DOCKED: USER        Moving Ligand-Moving Receptor   =  +0.00 kcal/mol
DOCKED: USER    (2) Final Total Internal Energy     =  -1.17 kcal/mol
DOCKED: USER    (3) Torsional Free Energy           =  +1.79 kcal/mol
DOCKED: USER    (4) Unbound System's Energy         =  -1.17 kcal/mol
DOCKED: USER
DOCKED: USER
DOCKED: REMARK SMILES O=C([N-]CC(=O)N1CCC[C@@H]1c1ccc(Cl)cc1)c1ccc2cc(Cl)ccc2n1
DOCKED: REMARK SMILES IDX 4 1 3 2 2 3 1 4 19 5 20 6 29 7 21 8 28 9 22 10 27 11 23 12
DOCKED: REMARK SMILES IDX 26 13 24 14 25 15 5 16 6 17 7 18 8 19 11 20 9 21 10 22 12 23
DOCKED: REMARK SMILES IDX 13 24 18 25 14 26 17 27 15 28 16 29
DOCKED: REMARK H PARENT
DOCKED: USER                              x       y       z     vdW  Elec       q    Type
DOCKED: USER                           _______ _______ _______ _____ _____    ______ ____
DOCKED: ROOT
DOCKED: ATOM      1  C   UNL     1     139.104  74.889 221.243 -0.21 +0.00    -0.015 C  
DOCKED: ENDROOT
DOCKED: BRANCH   1   2
DOCKED: ATOM      2  N   UNL     1     138.373  73.821 221.926 -0.02 +0.19    -0.640 NA 
DOCKED: BRANCH   2   3
DOCKED: ATOM      3  C   UNL     1     138.595  72.406 221.821 -0.15 -0.02    +0.101 C  
DOCKED: ATOM      4  O   UNL     1     138.625  71.894 220.672 -0.02 +0.06    -0.313 OA 
DOCKED: BRANCH   3   5
DOCKED: ATOM      5  C   UNL     1     138.807  71.538 223.000 -0.23 -0.02    +0.088 A  
DOCKED: ATOM      6  C   UNL     1     138.066  70.357 223.157 -0.21 -0.01    +0.031 A  
DOCKED: ATOM      7  N   UNL     1     139.709  71.892 223.957 -0.19 +0.06    -0.246 NA 
DOCKED: ATOM      8  C   UNL     1     138.286  69.541 224.270 -0.31 -0.00    +0.013 A  
DOCKED: ATOM      9  C   UNL     1     139.934  71.126 225.059 -0.45 -0.01    +0.071 A  
DOCKED: ATOM     10  C   UNL     1     139.229  69.917 225.233 -0.41 -0.00    +0.002 A  
DOCKED: ATOM     11  C   UNL     1     140.861  71.538 226.020 -0.62 -0.00    +0.030 A  
DOCKED: ATOM     12  C   UNL     1     139.482  69.118 226.360 -0.49 -0.00    +0.030 A  
DOCKED: ATOM     13  C   UNL     1     141.110  70.740 227.141 -0.61 -0.00    +0.023 A  
DOCKED: ATOM     14  C   UNL     1     140.427  69.529 227.308 -0.56 -0.01    +0.041 A  
DOCKED: ATOM     15  Cl  UNL     1     140.750  68.526 228.712 -0.71 +0.02    -0.084 Cl 
DOCKED: ENDBRANCH   3   5
DOCKED: ENDBRANCH   2   3
DOCKED: ENDBRANCH   1   2
DOCKED: BRANCH   1  16
DOCKED: ATOM     16  C   UNL     1     140.599  74.729 221.378 -0.23 -0.04    +0.205 C  
DOCKED: ATOM     17  O   UNL     1     141.070  73.984 222.281 -0.52 -0.03    -0.277 OA 
DOCKED: BRANCH  16  18
DOCKED: ATOM     18  N   UNL     1     141.505  75.406 220.483 -0.11 +0.12    -0.337 N  
DOCKED: ATOM     19  C   UNL     1     142.699  74.760 219.964 -0.26 -0.04    +0.120 C  
DOCKED: ATOM     20  C   UNL     1     141.250  76.702 219.863 -0.18 -0.05    +0.115 C  
DOCKED: ATOM     21  C   UNL     1     143.325  75.750 218.988 -0.33 -0.01    +0.024 C  
DOCKED: ATOM     22  C   UNL     1     142.253  76.802 218.710 -0.26 -0.02    +0.032 C  
DOCKED: BRANCH  20  23
DOCKED: ATOM     23  C   UNL     1     141.429  77.827 220.866 -0.31 +0.01    -0.025 A  
DOCKED: ATOM     24  C   UNL     1     141.158  77.607 222.227 -0.39 -0.00    +0.007 A  
DOCKED: ATOM     25  C   UNL     1     141.824  79.113 220.449 -0.30 -0.00    +0.007 A  
DOCKED: ATOM     26  C   UNL     1     141.276  78.652 223.151 -0.54 -0.01    +0.021 A  
DOCKED: ATOM     27  C   UNL     1     141.926  80.158 221.371 -0.40 -0.01    +0.021 A  
DOCKED: ATOM     28  C   UNL     1     141.651  79.929 222.723 -0.51 -0.01    +0.041 A  
DOCKED: ATOM     29  Cl  UNL     1     141.798  81.240 223.880 -0.64 +0.01    -0.084 Cl 
DOCKED: ENDBRANCH  20  23
DOCKED: ENDBRANCH  16  18
DOCKED: ENDBRANCH   1  16
DOCKED: TORSDOF 6
DOCKED: TER
DOCKED: ENDMDL
________________________________________________________________________________


    FINAL DOCKED STATE:
    ________________________


Run:   17 / 20
Time taken for this run:   0.034s

DOCKED: MODEL        17
DOCKED: USER    Run = 17
DOCKED: USER
DOCKED: USER    Estimated Free Energy of Binding    =  -8.11 kcal/mol  [=(1)+(2)+(3)-(4)]
DOCKED: USER
DOCKED: USER    (1) Final Intermolecular Energy     =  -9.90 kcal/mol
DOCKED: USER        vdW + Hbond + desolv Energy     =  -9.98 kcal/mol
DOCKED: USER        Electrostatic Energy            =  +0.08 kcal/mol
DOCKED: USER        Moving Ligand-Fixed Receptor    =  -9.90 kcal/mol
DOCKED: USER        Moving Ligand-Moving Receptor   =  +0.00 kcal/mol
DOCKED: USER    (2) Final Total Internal Energy     =  -1.30 kcal/mol
DOCKED: USER    (3) Torsional Free Energy           =  +1.79 kcal/mol
DOCKED: USER    (4) Unbound System's Energy         =  -1.30 kcal/mol
DOCKED: USER
DOCKED: USER
DOCKED: REMARK SMILES O=C([N-]CC(=O)N1CCC[C@@H]1c1ccc(Cl)cc1)c1ccc2cc(Cl)ccc2n1
DOCKED: REMARK SMILES IDX 4 1 3 2 2 3 1 4 19 5 20 6 29 7 21 8 28 9 22 10 27 11 23 12
DOCKED: REMARK SMILES IDX 26 13 24 14 25 15 5 16 6 17 7 18 8 19 11 20 9 21 10 22 12 23
DOCKED: REMARK SMILES IDX 13 24 18 25 14 26 17 27 15 28 16 29
DOCKED: REMARK H PARENT
DOCKED: USER                              x       y       z     vdW  Elec       q    Type
DOCKED: USER                           _______ _______ _______ _____ _____    ______ ____
DOCKED: ROOT
DOCKED: ATOM      1  C   UNL     1     135.743  69.603 223.925 -0.19 +0.00    -0.015 C  
DOCKED: ENDROOT
DOCKED: BRANCH   1   2
DOCKED: ATOM      2  N   UNL     1     134.387  69.959 224.343 +0.03 +0.06    -0.640 NA 
DOCKED: BRANCH   2   3
DOCKED: ATOM      3  C   UNL     1     133.903  70.127 225.684 -0.23 -0.01    +0.101 C  
DOCKED: ATOM      4  O   UNL     1     133.929  69.131 226.452 -0.75 -0.01    -0.313 OA 
DOCKED: BRANCH   3   5
DOCKED: ATOM      5  C   UNL     1     133.399  71.419 226.199 -0.29 -0.01    +0.088 A  
DOCKED: ATOM      6  C   UNL     1     132.214  71.472 226.950 -0.30 -0.00    +0.031 A  
DOCKED: ATOM      7  N   UNL     1     134.069  72.573 225.927 -0.24 +0.00    -0.246 NA 
DOCKED: ATOM      8  C   UNL     1     131.757  72.699 227.440 -0.41 -0.00    +0.013 A  
DOCKED: ATOM      9  C   UNL     1     133.640  73.783 226.377 -0.25 +0.01    +0.071 A  
DOCKED: ATOM     10  C   UNL     1     132.471  73.869 227.161 -0.42 -0.00    +0.002 A  
DOCKED: ATOM     11  C   UNL     1     134.356  74.941 226.061 -0.38 +0.00    +0.030 A  
DOCKED: ATOM     12  C   UNL     1     132.045  75.118 227.643 -0.39 -0.00    +0.030 A  
DOCKED: ATOM     13  C   UNL     1     133.929  76.183 226.542 -0.39 -0.00    +0.023 A  
DOCKED: ATOM     14  C   UNL     1     132.780  76.271 227.337 -0.33 -0.00    +0.041 A  
DOCKED: ATOM     15  Cl  UNL     1     132.252  77.831 227.948 -0.41 -0.00    -0.084 Cl 
DOCKED: ENDBRANCH   3   5
DOCKED: ENDBRANCH   2   3
DOCKED: ENDBRANCH   1   2
DOCKED: BRANCH   1  16
DOCKED: ATOM     16  C   UNL     1     136.662  70.801 223.896 -0.15 -0.03    +0.205 C  
DOCKED: ATOM     17  O   UNL     1     136.285  71.890 224.410 -0.09 +0.05    -0.277 OA 
DOCKED: BRANCH  16  18
DOCKED: ATOM     18  N   UNL     1     137.972  70.722 223.299 -0.09 +0.07    -0.337 N  
DOCKED: ATOM     19  C   UNL     1     138.180  70.169 221.970 -0.10 -0.02    +0.120 C  
DOCKED: ATOM     20  C   UNL     1     139.177  71.333 223.850 -0.26 -0.03    +0.115 C  
DOCKED: ATOM     21  C   UNL     1     139.661  70.356 221.662 -0.15 -0.00    +0.024 C  
DOCKED: ATOM     22  C   UNL     1     140.185  71.349 222.696 -0.29 -0.00    +0.032 C  
DOCKED: BRANCH  20  23
DOCKED: ATOM     23  C   UNL     1     139.691  70.541 225.037 -0.43 +0.00    -0.025 A  
DOCKED: ATOM     24  C   UNL     1     139.393  69.173 225.154 -0.41 -0.00    +0.007 A  
DOCKED: ATOM     25  C   UNL     1     140.433  71.166 226.058 -0.60 -0.00    +0.007 A  
DOCKED: ATOM     26  C   UNL     1     139.823  68.446 226.270 -0.57 -0.00    +0.021 A  
DOCKED: ATOM     27  C   UNL     1     140.848  70.441 227.179 -0.60 -0.00    +0.021 A  
DOCKED: ATOM     28  C   UNL     1     140.544  69.081 227.286 -0.59 -0.01    +0.041 A  
DOCKED: ATOM     29  Cl  UNL     1     141.084  68.171 228.686 -0.70 +0.02    -0.084 Cl 
DOCKED: ENDBRANCH  20  23
DOCKED: ENDBRANCH  16  18
DOCKED: ENDBRANCH   1  16
DOCKED: TORSDOF 6
DOCKED: TER
DOCKED: ENDMDL
________________________________________________________________________________


    FINAL DOCKED STATE:
    ________________________


Run:   18 / 20
Time taken for this run:   0.034s

DOCKED: MODEL        18
DOCKED: USER    Run = 18
DOCKED: USER
DOCKED: USER    Estimated Free Energy of Binding    =  -6.44 kcal/mol  [=(1)+(2)+(3)-(4)]
DOCKED: USER
DOCKED: USER    (1) Final Intermolecular Energy     =  -8.23 kcal/mol
DOCKED: USER        vdW + Hbond + desolv Energy     =  -8.36 kcal/mol
DOCKED: USER        Electrostatic Energy            =  +0.13 kcal/mol
DOCKED: USER        Moving Ligand-Fixed Receptor    =  -8.23 kcal/mol
DOCKED: USER        Moving Ligand-Moving Receptor   =  +0.00 kcal/mol
DOCKED: USER    (2) Final Total Internal Energy     =  -2.62 kcal/mol
DOCKED: USER    (3) Torsional Free Energy           =  +1.79 kcal/mol
DOCKED: USER    (4) Unbound System's Energy         =  -2.62 kcal/mol
DOCKED: USER
DOCKED: USER
DOCKED: REMARK SMILES O=C([N-]CC(=O)N1CCC[C@@H]1c1ccc(Cl)cc1)c1ccc2cc(Cl)ccc2n1
DOCKED: REMARK SMILES IDX 4 1 3 2 2 3 1 4 19 5 20 6 29 7 21 8 28 9 22 10 27 11 23 12
DOCKED: REMARK SMILES IDX 26 13 24 14 25 15 5 16 6 17 7 18 8 19 11 20 9 21 10 22 12 23
DOCKED: REMARK SMILES IDX 13 24 18 25 14 26 17 27 15 28 16 29
DOCKED: REMARK H PARENT
DOCKED: USER                              x       y       z     vdW  Elec       q    Type
DOCKED: USER                           _______ _______ _______ _____ _____    ______ ____
DOCKED: ROOT
DOCKED: ATOM      1  C   UNL     1     141.270  72.578 219.528 -0.09 +0.00    -0.015 C  
DOCKED: ENDROOT
DOCKED: BRANCH   1   2
DOCKED: ATOM      2  N   UNL     1     140.110  73.223 220.145 +0.04 +0.12    -0.640 NA 
DOCKED: BRANCH   2   3
DOCKED: ATOM      3  C   UNL     1     140.087  74.017 221.341 -0.23 -0.02    +0.101 C  
DOCKED: ATOM      4  O   UNL     1     139.959  73.424 222.444 -0.77 +0.03    -0.313 OA 
DOCKED: BRANCH   3   5
DOCKED: ATOM      5  C   UNL     1     140.226  75.490 221.329 -0.27 -0.02    +0.088 A  
DOCKED: ATOM      6  C   UNL     1     139.722  76.243 220.257 -0.12 -0.01    +0.031 A  
DOCKED: ATOM      7  N   UNL     1     140.867  76.125 222.348 -0.32 +0.07    -0.246 NA 
DOCKED: ATOM      8  C   UNL     1     139.851  77.635 220.266 -0.13 -0.00    +0.013 A  
DOCKED: ATOM      9  C   UNL     1     141.022  77.476 222.377 -0.39 -0.03    +0.071 A  
DOCKED: ATOM     10  C   UNL     1     140.500  78.267 221.331 -0.27 -0.00    +0.002 A  
DOCKED: ATOM     11  C   UNL     1     141.699  78.082 223.439 -0.39 -0.01    +0.030 A  
DOCKED: ATOM     12  C   UNL     1     140.642  79.664 221.377 -0.26 -0.01    +0.030 A  
DOCKED: ATOM     13  C   UNL     1     141.838  79.472 223.481 -0.59 -0.01    +0.023 A  
DOCKED: ATOM     14  C   UNL     1     141.305  80.263 222.455 -0.43 -0.01    +0.041 A  
DOCKED: ATOM     15  Cl  UNL     1     141.473  82.010 222.516 -0.39 +0.01    -0.084 Cl 
DOCKED: ENDBRANCH   3   5
DOCKED: ENDBRANCH   2   3
DOCKED: ENDBRANCH   1   2
DOCKED: BRANCH   1  16
DOCKED: ATOM     16  C   UNL     1     142.392  72.364 220.516 -0.16 -0.03    +0.205 C  
DOCKED: ATOM     17  O   UNL     1     142.166  71.751 221.595 -0.12 +0.02    -0.277 OA 
DOCKED: BRANCH  16  18
DOCKED: ATOM     18  N   UNL     1     143.726  72.839 220.243 -0.12 +0.05    -0.337 N  
DOCKED: ATOM     19  C   UNL     1     144.821  72.636 221.179 -0.25 -0.03    +0.120 C  
DOCKED: ATOM     20  C   UNL     1     144.170  73.391 218.968 -0.20 -0.02    +0.115 C  
DOCKED: ATOM     21  C   UNL     1     146.069  73.180 220.493 -0.60 +0.00    +0.024 C  
DOCKED: ATOM     22  C   UNL     1     145.700  73.351 219.021 -0.24 +0.01    +0.032 C  
DOCKED: BRANCH  20  23
DOCKED: ATOM     23  C   UNL     1     143.649  74.803 218.779 -0.26 +0.01    -0.025 A  
DOCKED: ATOM     24  C   UNL     1     143.421  75.303 217.485 -0.19 -0.00    +0.007 A  
DOCKED: ATOM     25  C   UNL     1     143.427  75.648 219.884 -0.38 -0.00    +0.007 A  
DOCKED: ATOM     26  C   UNL     1     142.986  76.621 217.300 -0.25 -0.01    +0.021 A  
DOCKED: ATOM     27  C   UNL     1     143.008  76.968 219.695 -0.28 -0.02    +0.021 A  
DOCKED: ATOM     28  C   UNL     1     142.787  77.455 218.404 -0.31 -0.03    +0.041 A  
DOCKED: ATOM     29  Cl  UNL     1     142.241  79.108 218.173 -0.38 +0.07    -0.084 Cl 
DOCKED: ENDBRANCH  20  23
DOCKED: ENDBRANCH  16  18
DOCKED: ENDBRANCH   1  16
DOCKED: TORSDOF 6
DOCKED: TER
DOCKED: ENDMDL
________________________________________________________________________________


    FINAL DOCKED STATE:
    ________________________


Run:   19 / 20
Time taken for this run:   0.034s

DOCKED: MODEL        19
DOCKED: USER    Run = 19
DOCKED: USER
DOCKED: USER    Estimated Free Energy of Binding    =  -8.06 kcal/mol  [=(1)+(2)+(3)-(4)]
DOCKED: USER
DOCKED: USER    (1) Final Intermolecular Energy     =  -9.85 kcal/mol
DOCKED: USER        vdW + Hbond + desolv Energy     = -10.07 kcal/mol
DOCKED: USER        Electrostatic Energy            =  +0.22 kcal/mol
DOCKED: USER        Moving Ligand-Fixed Receptor    =  -9.85 kcal/mol
DOCKED: USER        Moving Ligand-Moving Receptor   =  +0.00 kcal/mol
DOCKED: USER    (2) Final Total Internal Energy     =  -1.56 kcal/mol
DOCKED: USER    (3) Torsional Free Energy           =  +1.79 kcal/mol
DOCKED: USER    (4) Unbound System's Energy         =  -1.56 kcal/mol
DOCKED: USER
DOCKED: USER
DOCKED: REMARK SMILES O=C([N-]CC(=O)N1CCC[C@@H]1c1ccc(Cl)cc1)c1ccc2cc(Cl)ccc2n1
DOCKED: REMARK SMILES IDX 4 1 3 2 2 3 1 4 19 5 20 6 29 7 21 8 28 9 22 10 27 11 23 12
DOCKED: REMARK SMILES IDX 26 13 24 14 25 15 5 16 6 17 7 18 8 19 11 20 9 21 10 22 12 23
DOCKED: REMARK SMILES IDX 13 24 18 25 14 26 17 27 15 28 16 29
DOCKED: REMARK H PARENT
DOCKED: USER                              x       y       z     vdW  Elec       q    Type
DOCKED: USER                           _______ _______ _______ _____ _____    ______ ____
DOCKED: ROOT
DOCKED: ATOM      1  C   UNL     1     142.100  72.936 220.424 -0.22 +0.00    -0.015 C  
DOCKED: ENDROOT
DOCKED: BRANCH   1   2
DOCKED: ATOM      2  N   UNL     1     140.729  72.638 220.839 +0.01 +0.10    -0.640 NA 
DOCKED: BRANCH   2   3
DOCKED: ATOM      3  C   UNL     1     140.134  72.877 222.124 -0.26 -0.01    +0.101 C  
DOCKED: ATOM      4  O   UNL     1     139.606  73.999 222.334 -0.79 +0.04    -0.313 OA 
DOCKED: BRANCH   3   5
DOCKED: ATOM      5  C   UNL     1     140.100  71.856 223.195 -0.32 -0.01    +0.088 A  
DOCKED: ATOM      6  C   UNL     1     139.547  70.589 222.952 -0.25 -0.01    +0.031 A  
DOCKED: ATOM      7  N   UNL     1     140.584  72.146 224.433 -0.07 +0.03    -0.246 NA 
DOCKED: ATOM      8  C   UNL     1     139.533  69.631 223.969 -0.29 -0.00    +0.013 A  
DOCKED: ATOM      9  C   UNL     1     140.569  71.240 225.448 -0.52 -0.01    +0.071 A  
DOCKED: ATOM     10  C   UNL     1     140.050  69.946 225.230 -0.44 -0.00    +0.002 A  
DOCKED: ATOM     11  C   UNL     1     141.066  71.590 226.706 -0.71 -0.00    +0.030 A  
DOCKED: ATOM     12  C   UNL     1     140.059  69.007 226.274 -0.51 -0.01    +0.030 A  
DOCKED: ATOM     13  C   UNL     1     141.073  70.651 227.743 -0.64 -0.00    +0.023 A  
DOCKED: ATOM     14  C   UNL     1     140.577  69.360 227.526 -0.58 -0.01    +0.041 A  
DOCKED: ATOM     15  Cl  UNL     1     140.596  68.182 228.828 -0.49 +0.02    -0.084 Cl 
DOCKED: ENDBRANCH   3   5
DOCKED: ENDBRANCH   2   3
DOCKED: ENDBRANCH   1   2
DOCKED: BRANCH   1  16
DOCKED: ATOM     16  C   UNL     1     142.364  74.422 220.367 -0.20 -0.06    +0.205 C  
DOCKED: ATOM     17  O   UNL     1     143.439  74.885 220.839 -0.20 +0.14    -0.277 OA 
DOCKED: BRANCH  16  18
DOCKED: ATOM     18  N   UNL     1     141.413  75.326 219.769 -0.06 +0.11    -0.337 N  
DOCKED: ATOM     19  C   UNL     1     141.319  75.503 218.329 -0.07 -0.04    +0.120 C  
DOCKED: ATOM     20  C   UNL     1     140.342  76.005 220.491 -0.16 -0.03    +0.115 C  
DOCKED: ATOM     21  C   UNL     1     140.144  76.445 218.094 -0.04 -0.01    +0.024 C  
DOCKED: ATOM     22  C   UNL     1     139.371  76.490 219.410 -0.06 -0.01    +0.032 C  
DOCKED: BRANCH  20  23
DOCKED: ATOM     23  C   UNL     1     140.890  77.156 221.315 -0.31 +0.01    -0.025 A  
DOCKED: ATOM     24  C   UNL     1     141.408  78.295 220.676 -0.30 -0.00    +0.007 A  
DOCKED: ATOM     25  C   UNL     1     140.929  77.086 222.721 -0.40 -0.00    +0.007 A  
DOCKED: ATOM     26  C   UNL     1     141.958  79.341 221.427 -0.36 -0.01    +0.021 A  
DOCKED: ATOM     27  C   UNL     1     141.494  78.124 223.467 -0.47 -0.01    +0.021 A  
DOCKED: ATOM     28  C   UNL     1     142.008  79.252 222.821 -0.54 -0.02    +0.041 A  
DOCKED: ATOM     29  Cl  UNL     1     142.698  80.562 223.764 -0.81 +0.02    -0.084 Cl 
DOCKED: ENDBRANCH  20  23
DOCKED: ENDBRANCH  16  18
DOCKED: ENDBRANCH   1  16
DOCKED: TORSDOF 6
DOCKED: TER
DOCKED: ENDMDL
________________________________________________________________________________


    FINAL DOCKED STATE:
    ________________________


Run:   20 / 20
Time taken for this run:   0.034s

DOCKED: MODEL        20
DOCKED: USER    Run = 20
DOCKED: USER
DOCKED: USER    Estimated Free Energy of Binding    =  -6.18 kcal/mol  [=(1)+(2)+(3)-(4)]
DOCKED: USER
DOCKED: USER    (1) Final Intermolecular Energy     =  -7.97 kcal/mol
DOCKED: USER        vdW + Hbond + desolv Energy     =  -8.07 kcal/mol
DOCKED: USER        Electrostatic Energy            =  +0.10 kcal/mol
DOCKED: USER        Moving Ligand-Fixed Receptor    =  -7.97 kcal/mol
DOCKED: USER        Moving Ligand-Moving Receptor   =  +0.00 kcal/mol
DOCKED: USER    (2) Final Total Internal Energy     =  -3.03 kcal/mol
DOCKED: USER    (3) Torsional Free Energy           =  +1.79 kcal/mol
DOCKED: USER    (4) Unbound System's Energy         =  -3.03 kcal/mol
DOCKED: USER
DOCKED: USER
DOCKED: REMARK SMILES O=C([N-]CC(=O)N1CCC[C@@H]1c1ccc(Cl)cc1)c1ccc2cc(Cl)ccc2n1
DOCKED: REMARK SMILES IDX 4 1 3 2 2 3 1 4 19 5 20 6 29 7 21 8 28 9 22 10 27 11 23 12
DOCKED: REMARK SMILES IDX 26 13 24 14 25 15 5 16 6 17 7 18 8 19 11 20 9 21 10 22 12 23
DOCKED: REMARK SMILES IDX 13 24 18 25 14 26 17 27 15 28 16 29
DOCKED: REMARK H PARENT
DOCKED: USER                              x       y       z     vdW  Elec       q    Type
DOCKED: USER                           _______ _______ _______ _____ _____    ______ ____
DOCKED: ROOT
DOCKED: ATOM      1  C   UNL     1     138.782  75.815 221.360 -0.22 +0.00    -0.015 C  
DOCKED: ENDROOT
DOCKED: BRANCH   1   2
DOCKED: ATOM      2  N   UNL     1     138.269  76.379 222.608 -0.04 +0.14    -0.640 NA 
DOCKED: BRANCH   2   3
DOCKED: ATOM      3  C   UNL     1     137.442  77.543 222.766 -0.18 -0.02    +0.101 C  
DOCKED: ATOM      4  O   UNL     1     136.241  77.376 223.099 -0.13 +0.05    -0.313 OA 
DOCKED: BRANCH   3   5
DOCKED: ATOM      5  C   UNL     1     137.950  78.920 222.572 -0.20 -0.01    +0.088 A  
DOCKED: ATOM      6  C   UNL     1     138.098  79.783 223.668 -0.29 -0.00    +0.031 A  
DOCKED: ATOM      7  N   UNL     1     138.256  79.367 221.324 -0.04 +0.05    -0.246 NA 
DOCKED: ATOM      8  C   UNL     1     138.590  81.077 223.472 -0.32 -0.00    +0.013 A  
DOCKED: ATOM      9  C   UNL     1     138.722  80.625 221.099 -0.10 -0.01    +0.071 A  
DOCKED: ATOM     10  C   UNL     1     138.913  81.510 222.181 -0.22 -0.00    +0.002 A  
DOCKED: ATOM     11  C   UNL     1     139.010  81.043 219.797 -0.07 -0.01    +0.030 A  
DOCKED: ATOM     12  C   UNL     1     139.416  82.800 221.947 -0.14 -0.00    +0.030 A  
DOCKED: ATOM     13  C   UNL     1     139.511  82.328 219.567 -0.10 -0.01    +0.023 A  
DOCKED: ATOM     14  C   UNL     1     139.721  83.203 220.641 -0.18 -0.01    +0.041 A  
DOCKED: ATOM     15  Cl  UNL     1     140.359  84.813 220.349 -0.26 +0.02    -0.084 Cl 
DOCKED: ENDBRANCH   3   5
DOCKED: ENDBRANCH   2   3
DOCKED: ENDBRANCH   1   2
DOCKED: BRANCH   1  16
DOCKED: ATOM     16  C   UNL     1     140.159  75.219 221.530 -0.24 -0.04    +0.205 C  
DOCKED: ATOM     17  O   UNL     1     140.327  74.246 222.316 -0.81 -0.02    -0.277 OA 
DOCKED: BRANCH  16  18
DOCKED: ATOM     18  N   UNL     1     141.290  75.736 220.800 -0.13 +0.12    -0.337 N  
DOCKED: ATOM     19  C   UNL     1     142.447  74.912 220.489 -0.25 -0.05    +0.120 C  
DOCKED: ATOM     20  C   UNL     1     141.334  77.038 220.143 -0.21 -0.05    +0.115 C  
DOCKED: ATOM     21  C   UNL     1     143.364  75.776 219.632 -0.39 -0.01    +0.024 C  
DOCKED: ATOM     22  C   UNL     1     142.519  76.964 219.175 -0.32 -0.02    +0.032 C  
DOCKED: BRANCH  20  23
DOCKED: ATOM     23  C   UNL     1     141.506  78.151 221.160 -0.33 +0.01    -0.025 A  
DOCKED: ATOM     24  C   UNL     1     141.827  79.451 220.734 -0.33 -0.00    +0.007 A  
DOCKED: ATOM     25  C   UNL     1     141.391  77.896 222.540 -0.41 -0.00    +0.007 A  
DOCKED: ATOM     26  C   UNL     1     142.034  80.473 221.668 -0.44 -0.01    +0.021 A  
DOCKED: ATOM     27  C   UNL     1     141.614  78.915 223.471 -0.59 -0.01    +0.021 A  
DOCKED: ATOM     28  C   UNL     1     141.935  80.204 223.036 -0.56 -0.01    +0.041 A  
DOCKED: ATOM     29  Cl  UNL     1     142.195  81.484 224.208 -0.56 +0.01    -0.084 Cl 
DOCKED: ENDBRANCH  20  23
DOCKED: ENDBRANCH  16  18
DOCKED: ENDBRANCH   1  16
DOCKED: TORSDOF 6
DOCKED: TER
DOCKED: ENDMDL
________________________________________________________________________________


    CLUSTERING HISTOGRAM
    ____________________


________________________________________________________________________________
     |           |     |           |     |
Clus | Lowest    | Run | Mean      | Num | Histogram
-ter | Binding   |     | Binding   | in  |
Rank | Energy    |     | Energy    | Clus|    5    10   15   20   25   30   35
_____|___________|_____|___________|_____|____:____|____:____|____:____|____:___
   1 |     -8.65 |  12 |     -8.29 |   9 |#########
   2 |     -8.38 |   3 |     -7.88 |   6 |######
   3 |     -7.86 |  11 |     -7.86 |   1 |#
   4 |     -7.63 |   8 |     -7.63 |   1 |#
   5 |     -7.38 |   9 |     -7.38 |   1 |#
   6 |     -6.44 |  18 |     -6.44 |   1 |#
   7 |     -6.18 |  20 |     -6.18 |   1 |#
_____|___________|_____|___________|_____|______________________________________


    RMSD TABLE
    __________


_______________________________________________________________________
     |      |      |           |         |                 |
Rank | Sub- | Run  | Binding   | Cluster | Reference       | Grep
     | Rank |      | Energy    | RMSD    | RMSD            | Pattern
_____|______|______|___________|_________|_________________|___________
   1      1     12       -8.65      0.00    271.80           RANKING
   1      2      1       -8.52      0.67    271.88           RANKING
   1      3     10       -8.47      0.52    271.79           RANKING
   1      4     14       -8.37      0.91    271.71           RANKING
   1      5      5       -8.36      1.38    271.33           RANKING
   1      6      2       -8.28      0.97    271.56           RANKING
   1      7     16       -8.23      1.07    271.49           RANKING
   1      8     19       -8.06      1.49    271.63           RANKING
   1      9      7       -7.66      1.85    271.31           RANKING
   2      1      3       -8.38      0.00    270.73           RANKING
   2      2     17       -8.11      1.29    271.03           RANKING
   2      3     13       -8.03      1.49    270.68           RANKING
   2      4      6       -7.92      1.49    270.62           RANKING
   2      5      4       -7.86      1.55    270.59           RANKING
   2      6     15       -6.97      1.75    269.68           RANKING
   3      1     11       -7.86      0.00    271.24           RANKING
   4      1      8       -7.63      0.00    271.51           RANKING
   5      1      9       -7.38      0.00    271.20           RANKING
   6      1     18       -6.44      0.00    270.90           RANKING
   7      1     20       -6.18      0.00    271.62           RANKING

Run time 0.648 sec
Idle time 0.000 sec
