AutoDock-GPU version: v1.6

**********************************************************
**    AutoDock-GPU AUTODOCKTOOLS-COMPATIBLE DLG FILE    **
**********************************************************


    DOCKING PARAMETERS
    ________________________


Ligand file:                               /home/a/REINVENT4/ReinventStudies/pleaseWork/justmol2mol_4_Compounds_ontop/graph-dock-8u2o5u/graph-DockGPU/node-autodockgpu/inputs/PINCVXRSENSLEC-NSHDSOQANA-M.pdbqt
Grid fld file:                             /home/a/REINVENT4/ReinventStudies/mols/Rad51/maps/rad51_receptor.maps.fld

Random seed:                               42
Number of runs:                            20
Number of energy evaluations:              1132076
Number of generations:                     42000
Size of population:                        150
Rate of crossover:                         80.000000%
Tournament selection probability limit:    60.000000%
Rate of mutation:                          2.000000%
Maximal allowed delta movement:            +/- 6.000000A
Maximal allowed delta angle:               +/- 90.000000

Rate of local search:                      100.000000%
Maximal number of local search iterations: 300
Rho lower bound:                           0.010000
Spread of local search delta movement:     2.000000A
Spread of local search delta angle:        74.999999
Limit of consecutive successes/failures:   4

Handle symmetry during clustering:         YES
RMSD tolerance:                            2.000000A

Program call in command line was:          /home/a/REINVENT4/ReinventStudies/adgpu-v1.6_linux_x64_cuda12_128wi --filelist batch.txt --heuristics 1 --nrun 20 --psize 150 --lsit 300 --seed 42 --heurmax 12000000 


    GRID PARAMETERS
    ________________________


Receptor name:                             rad51_receptor
Number of grid points (x, y, z):           53, 53, 53
Grid center (x, y, z):                     139.950000, 75.640000, 221.970000A
Grid size (x, y, z):                       19.500000, 19.500000, 19.500000A
Grid spacing:                              0.375000A


    LIGAND PARAMETERS
    ________________________


Ligand name:                               /home/a/REINVENT4/ReinventStudies/pleaseWork/justmol2mol_4_Compounds_ontop/graph-dock-8u2o5u/graph-DockGPU/node-autodockgpu/inputs/PINCVXRSENSLEC-NSHDSOQANA-M
Number of atoms:                           29
Number of rotatable bonds:                 6
Number of atom types:                      6


    DUMMY DATA (only for ADT-compatibility)
    ________________________


DPF> outlev 1
DPF> ga_run 20
DPF> fld /home/a/REINVENT4/ReinventStudies/mols/Rad51/maps/rad51_receptor.maps.fld
DPF> move /home/a/REINVENT4/ReinventStudies/pleaseWork/justmol2mol_4_Compounds_ontop/graph-dock-8u2o5u/graph-DockGPU/node-autodockgpu/inputs/PINCVXRSENSLEC-NSHDSOQANA-M.pdbqt


    COUNTER STATES
    ________________________


Number of energy evaluations performed:    1135121
Number of generations used:                66


    INPUT LIGAND PDBQT FILE:
    ________________________


INPUT-LIGAND-PDBQT: REMARK SMILES O=C([N-]CC(=O)N1CCC[C@H]1c1ccc(Cl)cc1)c1ccc2cc(Cl)ccc2n1
INPUT-LIGAND-PDBQT: REMARK SMILES IDX 4 1 3 2 2 3 1 4 19 5 20 6 29 7 21 8 28 9 22 10 27 11 23 12
INPUT-LIGAND-PDBQT: REMARK SMILES IDX 26 13 24 14 25 15 5 16 6 17 7 18 8 19 11 20 9 21 10 22 12 23
INPUT-LIGAND-PDBQT: REMARK SMILES IDX 13 24 18 25 14 26 17 27 15 28 16 29
INPUT-LIGAND-PDBQT: REMARK H PARENT
INPUT-LIGAND-PDBQT: ROOT
INPUT-LIGAND-PDBQT: ATOM      1  C   UNL     1       0.894  -0.449   2.993  1.00  0.00    -0.015 C 
INPUT-LIGAND-PDBQT: ENDROOT
INPUT-LIGAND-PDBQT: BRANCH   1   2
INPUT-LIGAND-PDBQT: ATOM      2  N   UNL     1       2.303  -0.787   3.188  1.00  0.00    -0.640 NA
INPUT-LIGAND-PDBQT: BRANCH   2   3
INPUT-LIGAND-PDBQT: ATOM      3  C   UNL     1       3.042  -1.705   2.371  1.00  0.00     0.101 C 
INPUT-LIGAND-PDBQT: ATOM      4  O   UNL     1       4.293  -1.766   2.492  1.00  0.00    -0.313 OA
INPUT-LIGAND-PDBQT: BRANCH   3   5
INPUT-LIGAND-PDBQT: ATOM      5  C   UNL     1       2.379  -2.539   1.360  1.00  0.00     0.088 A 
INPUT-LIGAND-PDBQT: ATOM      6  C   UNL     1       1.453  -3.520   1.739  1.00  0.00     0.031 A 
INPUT-LIGAND-PDBQT: ATOM      7  N   UNL     1       2.641  -2.326   0.043  1.00  0.00    -0.246 NA
INPUT-LIGAND-PDBQT: ATOM      8  C   UNL     1       0.793  -4.260   0.756  1.00  0.00     0.013 A 
INPUT-LIGAND-PDBQT: ATOM      9  C   UNL     1       2.007  -3.025  -0.937  1.00  0.00     0.071 A 
INPUT-LIGAND-PDBQT: ATOM     10  C   UNL     1       1.054  -4.010  -0.596  1.00  0.00     0.002 A 
INPUT-LIGAND-PDBQT: ATOM     11  C   UNL     1       2.278  -2.752  -2.282  1.00  0.00     0.030 A 
INPUT-LIGAND-PDBQT: ATOM     12  C   UNL     1       0.382  -4.709  -1.610  1.00  0.00     0.030 A 
INPUT-LIGAND-PDBQT: ATOM     13  C   UNL     1       1.602  -3.450  -3.287  1.00  0.00     0.023 A 
INPUT-LIGAND-PDBQT: ATOM     14  C   UNL     1       0.656  -4.426  -2.953  1.00  0.00     0.041 A 
INPUT-LIGAND-PDBQT: ATOM     15  Cl  UNL     1      -0.192  -5.293  -4.220  1.00  0.00    -0.084 Cl
INPUT-LIGAND-PDBQT: ENDBRANCH   3   5
INPUT-LIGAND-PDBQT: ENDBRANCH   2   3
INPUT-LIGAND-PDBQT: ENDBRANCH   1   2
INPUT-LIGAND-PDBQT: BRANCH   1  16
INPUT-LIGAND-PDBQT: ATOM     16  C   UNL     1       0.683   0.150   1.627  1.00  0.00     0.205 C 
INPUT-LIGAND-PDBQT: ATOM     17  O   UNL     1       1.423   1.107   1.270  1.00  0.00    -0.277 OA
INPUT-LIGAND-PDBQT: BRANCH  16  18
INPUT-LIGAND-PDBQT: ATOM     18  N   UNL     1      -0.322  -0.346   0.721  1.00  0.00    -0.337 N 
INPUT-LIGAND-PDBQT: ATOM     19  C   UNL     1      -1.416  -1.226   1.106  1.00  0.00     0.120 C 
INPUT-LIGAND-PDBQT: ATOM     20  C   UNL     1      -0.311  -0.057  -0.707  1.00  0.00     0.115 C 
INPUT-LIGAND-PDBQT: ATOM     21  C   UNL     1      -2.249  -1.431  -0.153  1.00  0.00     0.024 C 
INPUT-LIGAND-PDBQT: ATOM     22  C   UNL     1      -1.372  -0.975  -1.317  1.00  0.00     0.032 C 
INPUT-LIGAND-PDBQT: BRANCH  20  23
INPUT-LIGAND-PDBQT: ATOM     23  C   UNL     1      -0.619   1.403  -0.976  1.00  0.00    -0.025 A 
INPUT-LIGAND-PDBQT: ATOM     24  C   UNL     1      -1.662   2.065  -0.301  1.00  0.00     0.007 A 
INPUT-LIGAND-PDBQT: ATOM     25  C   UNL     1       0.116   2.103  -1.948  1.00  0.00     0.007 A 
INPUT-LIGAND-PDBQT: ATOM     26  C   UNL     1      -1.946   3.405  -0.579  1.00  0.00     0.021 A 
INPUT-LIGAND-PDBQT: ATOM     27  C   UNL     1      -0.170   3.443  -2.224  1.00  0.00     0.021 A 
INPUT-LIGAND-PDBQT: ATOM     28  C   UNL     1      -1.199   4.096  -1.539  1.00  0.00     0.041 A 
INPUT-LIGAND-PDBQT: ATOM     29  Cl  UNL     1      -1.558   5.777  -1.887  1.00  0.00    -0.084 Cl
INPUT-LIGAND-PDBQT: ENDBRANCH  20  23
INPUT-LIGAND-PDBQT: ENDBRANCH  16  18
INPUT-LIGAND-PDBQT: ENDBRANCH   1  16
INPUT-LIGAND-PDBQT: TORSDOF 6


    FINAL DOCKED STATE:
    ________________________


Run:   1 / 20
Time taken for this run:   0.045s

DOCKED: MODEL        1
DOCKED: USER    Run = 1
DOCKED: USER
DOCKED: USER    Estimated Free Energy of Binding    =  -6.48 kcal/mol  [=(1)+(2)+(3)-(4)]
DOCKED: USER
DOCKED: USER    (1) Final Intermolecular Energy     =  -8.27 kcal/mol
DOCKED: USER        vdW + Hbond + desolv Energy     =  -8.35 kcal/mol
DOCKED: USER        Electrostatic Energy            =  +0.08 kcal/mol
DOCKED: USER        Moving Ligand-Fixed Receptor    =  -8.27 kcal/mol
DOCKED: USER        Moving Ligand-Moving Receptor   =  +0.00 kcal/mol
DOCKED: USER    (2) Final Total Internal Energy     =  -2.68 kcal/mol
DOCKED: USER    (3) Torsional Free Energy           =  +1.79 kcal/mol
DOCKED: USER    (4) Unbound System's Energy         =  -2.68 kcal/mol
DOCKED: USER
DOCKED: USER
DOCKED: REMARK SMILES O=C([N-]CC(=O)N1CCC[C@H]1c1ccc(Cl)cc1)c1ccc2cc(Cl)ccc2n1
DOCKED: REMARK SMILES IDX 4 1 3 2 2 3 1 4 19 5 20 6 29 7 21 8 28 9 22 10 27 11 23 12
DOCKED: REMARK SMILES IDX 26 13 24 14 25 15 5 16 6 17 7 18 8 19 11 20 9 21 10 22 12 23
DOCKED: REMARK SMILES IDX 13 24 18 25 14 26 17 27 15 28 16 29
DOCKED: REMARK H PARENT
DOCKED: USER                              x       y       z     vdW  Elec       q    Type
DOCKED: USER                           _______ _______ _______ _____ _____    ______ ____
DOCKED: ROOT
DOCKED: ATOM      1  C   UNL     1     141.399  72.036 221.660 -0.23 +0.00    -0.015 C  
DOCKED: ENDROOT
DOCKED: BRANCH   1   2
DOCKED: ATOM      2  N   UNL     1     140.700  73.157 222.287 -0.43 +0.00    -0.640 NA 
DOCKED: BRANCH   2   3
DOCKED: ATOM      3  C   UNL     1     139.769  74.016 221.615 -0.24 -0.02    +0.101 C  
DOCKED: ATOM      4  O   UNL     1     138.709  73.527 221.147 -0.08 +0.07    -0.313 OA 
DOCKED: BRANCH   3   5
DOCKED: ATOM      5  C   UNL     1     140.048  75.444 221.415 -0.27 -0.02    +0.088 A  
DOCKED: ATOM      6  C   UNL     1     139.669  76.087 220.229 -0.11 -0.01    +0.031 A  
DOCKED: ATOM      7  N   UNL     1     140.644  76.153 222.410 -0.31 +0.06    -0.246 NA 
DOCKED: ATOM      8  C   UNL     1     139.892  77.458 220.087 -0.12 -0.00    +0.013 A  
DOCKED: ATOM      9  C   UNL     1     140.866  77.491 222.304 -0.39 -0.03    +0.071 A  
DOCKED: ATOM     10  C   UNL     1     140.483  78.178 221.131 -0.25 -0.00    +0.002 A  
DOCKED: ATOM     11  C   UNL     1     141.451  78.193 223.364 -0.50 -0.01    +0.030 A  
DOCKED: ATOM     12  C   UNL     1     140.688  79.563 221.036 -0.24 -0.01    +0.030 A  
DOCKED: ATOM     13  C   UNL     1     141.649  79.573 223.264 -0.56 -0.01    +0.023 A  
DOCKED: ATOM     14  C   UNL     1     141.269  80.257 222.104 -0.40 -0.01    +0.041 A  
DOCKED: ATOM     15  Cl  UNL     1     141.516  81.990 221.989 -0.45 +0.01    -0.084 Cl 
DOCKED: ENDBRANCH   3   5
DOCKED: ENDBRANCH   2   3
DOCKED: ENDBRANCH   1   2
DOCKED: BRANCH   1  16
DOCKED: ATOM     16  C   UNL     1     142.062  72.481 220.382 -0.14 -0.03    +0.205 C  
DOCKED: ATOM     17  O   UNL     1     141.367  72.532 219.331 -0.03 +0.05    -0.277 OA 
DOCKED: BRANCH  16  18
DOCKED: ATOM     18  N   UNL     1     143.452  72.859 220.332 -0.12 +0.05    -0.337 N  
DOCKED: ATOM     19  C   UNL     1     144.549  71.934 220.089 -0.27 -0.00    +0.120 C  
DOCKED: ATOM     20  C   UNL     1     143.910  74.220 220.582 -0.30 -0.04    +0.115 C  
DOCKED: ATOM     21  C   UNL     1     145.813  72.784 220.063 -0.50 +0.01    +0.024 C  
DOCKED: ATOM     22  C   UNL     1     145.433  74.123 220.692 -0.55 -0.01    +0.032 C  
DOCKED: BRANCH  20  23
DOCKED: ATOM     23  C   UNL     1     143.492  75.155 219.464 -0.35 +0.01    -0.025 A  
DOCKED: ATOM     24  C   UNL     1     143.322  74.688 218.147 -0.19 -0.00    +0.007 A  
DOCKED: ATOM     25  C   UNL     1     143.314  76.524 219.730 -0.37 -0.01    +0.007 A  
DOCKED: ATOM     26  C   UNL     1     142.959  75.570 217.125 -0.16 -0.01    +0.021 A  
DOCKED: ATOM     27  C   UNL     1     142.951  77.403 218.706 -0.33 -0.02    +0.021 A  
DOCKED: ATOM     28  C   UNL     1     142.771  76.928 217.404 -0.24 -0.03    +0.041 A  
DOCKED: ATOM     29  Cl  UNL     1     142.317  78.033 216.120 -0.21 +0.07    -0.084 Cl 
DOCKED: ENDBRANCH  20  23
DOCKED: ENDBRANCH  16  18
DOCKED: ENDBRANCH   1  16
DOCKED: TORSDOF 6
DOCKED: TER
DOCKED: ENDMDL
________________________________________________________________________________


    FINAL DOCKED STATE:
    ________________________


Run:   2 / 20
Time taken for this run:   0.045s

DOCKED: MODEL        2
DOCKED: USER    Run = 2
DOCKED: USER
DOCKED: USER    Estimated Free Energy of Binding    =  -7.93 kcal/mol  [=(1)+(2)+(3)-(4)]
DOCKED: USER
DOCKED: USER    (1) Final Intermolecular Energy     =  -9.72 kcal/mol
DOCKED: USER        vdW + Hbond + desolv Energy     =  -9.90 kcal/mol
DOCKED: USER        Electrostatic Energy            =  +0.19 kcal/mol
DOCKED: USER        Moving Ligand-Fixed Receptor    =  -9.72 kcal/mol
DOCKED: USER        Moving Ligand-Moving Receptor   =  +0.00 kcal/mol
DOCKED: USER    (2) Final Total Internal Energy     =  -1.59 kcal/mol
DOCKED: USER    (3) Torsional Free Energy           =  +1.79 kcal/mol
DOCKED: USER    (4) Unbound System's Energy         =  -1.59 kcal/mol
DOCKED: USER
DOCKED: USER
DOCKED: REMARK SMILES O=C([N-]CC(=O)N1CCC[C@H]1c1ccc(Cl)cc1)c1ccc2cc(Cl)ccc2n1
DOCKED: REMARK SMILES IDX 4 1 3 2 2 3 1 4 19 5 20 6 29 7 21 8 28 9 22 10 27 11 23 12
DOCKED: REMARK SMILES IDX 26 13 24 14 25 15 5 16 6 17 7 18 8 19 11 20 9 21 10 22 12 23
DOCKED: REMARK SMILES IDX 13 24 18 25 14 26 17 27 15 28 16 29
DOCKED: REMARK H PARENT
DOCKED: USER                              x       y       z     vdW  Elec       q    Type
DOCKED: USER                           _______ _______ _______ _____ _____    ______ ____
DOCKED: ROOT
DOCKED: ATOM      1  C   UNL     1     141.296  71.278 220.407 -0.15 +0.00    -0.015 C  
DOCKED: ENDROOT
DOCKED: BRANCH   1   2
DOCKED: ATOM      2  N   UNL     1     140.395  72.381 220.737 +0.02 +0.10    -0.640 NA 
DOCKED: BRANCH   2   3
DOCKED: ATOM      3  C   UNL     1     139.986  72.731 222.066 -0.26 -0.01    +0.101 C  
DOCKED: ATOM      4  O   UNL     1     139.685  73.926 222.322 -0.79 +0.04    -0.313 OA 
DOCKED: BRANCH   3   5
DOCKED: ATOM      5  C   UNL     1     139.960  71.739 223.148 -0.32 -0.02    +0.088 A  
DOCKED: ATOM      6  C   UNL     1     139.490  70.440 222.915 -0.24 -0.01    +0.031 A  
DOCKED: ATOM      7  N   UNL     1     140.435  72.078 224.376 -0.15 +0.04    -0.246 NA 
DOCKED: ATOM      8  C   UNL     1     139.530  69.497 223.944 -0.27 -0.00    +0.013 A  
DOCKED: ATOM      9  C   UNL     1     140.495  71.179 225.396 -0.51 -0.01    +0.071 A  
DOCKED: ATOM     10  C   UNL     1     140.047  69.855 225.195 -0.43 -0.00    +0.002 A  
DOCKED: ATOM     11  C   UNL     1     141.023  71.557 226.635 -0.70 -0.00    +0.030 A  
DOCKED: ATOM     12  C   UNL     1     140.136  68.923 226.241 -0.52 -0.01    +0.030 A  
DOCKED: ATOM     13  C   UNL     1     141.112  70.622 227.671 -0.60 -0.00    +0.023 A  
DOCKED: ATOM     14  C   UNL     1     140.670  69.309 227.475 -0.58 -0.01    +0.041 A  
DOCKED: ATOM     15  Cl  UNL     1     140.791  68.141 228.779 -0.60 +0.02    -0.084 Cl 
DOCKED: ENDBRANCH   3   5
DOCKED: ENDBRANCH   2   3
DOCKED: ENDBRANCH   1   2
DOCKED: BRANCH   1  16
DOCKED: ATOM     16  C   UNL     1     142.330  71.727 219.408 -0.07 -0.03    +0.205 C  
DOCKED: ATOM     17  O   UNL     1     142.060  71.628 218.180 -0.01 +0.04    -0.277 OA 
DOCKED: BRANCH  16  18
DOCKED: ATOM     18  N   UNL     1     143.600  72.273 219.814 -0.08 +0.04    -0.337 N  
DOCKED: ATOM     19  C   UNL     1     144.887  71.848 219.283 -0.24 +0.02    +0.120 C  
DOCKED: ATOM     20  C   UNL     1     143.729  73.283 220.856 -0.23 -0.02    +0.115 C  
DOCKED: ATOM     21  C   UNL     1     145.928  72.737 219.952 -0.47 +0.01    +0.024 C  
DOCKED: ATOM     22  C   UNL     1     145.228  73.379 221.148 -0.56 -0.01    +0.032 C  
DOCKED: BRANCH  20  23
DOCKED: ATOM     23  C   UNL     1     143.166  74.616 220.404 -0.35 +0.01    -0.025 A  
DOCKED: ATOM     24  C   UNL     1     143.821  75.392 219.429 -0.32 -0.00    +0.007 A  
DOCKED: ATOM     25  C   UNL     1     141.992  75.114 220.996 -0.25 -0.00    +0.007 A  
DOCKED: ATOM     26  C   UNL     1     143.298  76.630 219.041 -0.37 -0.01    +0.021 A  
DOCKED: ATOM     27  C   UNL     1     141.472  76.352 220.607 -0.28 -0.01    +0.021 A  
DOCKED: ATOM     28  C   UNL     1     142.122  77.109 219.628 -0.29 -0.02    +0.041 A  
DOCKED: ATOM     29  Cl  UNL     1     141.469  78.663 219.141 -0.29 +0.05    -0.084 Cl 
DOCKED: ENDBRANCH  20  23
DOCKED: ENDBRANCH  16  18
DOCKED: ENDBRANCH   1  16
DOCKED: TORSDOF 6
DOCKED: TER
DOCKED: ENDMDL
________________________________________________________________________________


    FINAL DOCKED STATE:
    ________________________


Run:   3 / 20
Time taken for this run:   0.045s

DOCKED: MODEL        3
DOCKED: USER    Run = 3
DOCKED: USER
DOCKED: USER    Estimated Free Energy of Binding    =  -7.97 kcal/mol  [=(1)+(2)+(3)-(4)]
DOCKED: USER
DOCKED: USER    (1) Final Intermolecular Energy     =  -9.76 kcal/mol
DOCKED: USER        vdW + Hbond + desolv Energy     =  -9.91 kcal/mol
DOCKED: USER        Electrostatic Energy            =  +0.14 kcal/mol
DOCKED: USER        Moving Ligand-Fixed Receptor    =  -9.76 kcal/mol
DOCKED: USER        Moving Ligand-Moving Receptor   =  +0.00 kcal/mol
DOCKED: USER    (2) Final Total Internal Energy     =  -1.59 kcal/mol
DOCKED: USER    (3) Torsional Free Energy           =  +1.79 kcal/mol
DOCKED: USER    (4) Unbound System's Energy         =  -1.59 kcal/mol
DOCKED: USER
DOCKED: USER
DOCKED: REMARK SMILES O=C([N-]CC(=O)N1CCC[C@H]1c1ccc(Cl)cc1)c1ccc2cc(Cl)ccc2n1
DOCKED: REMARK SMILES IDX 4 1 3 2 2 3 1 4 19 5 20 6 29 7 21 8 28 9 22 10 27 11 23 12
DOCKED: REMARK SMILES IDX 26 13 24 14 25 15 5 16 6 17 7 18 8 19 11 20 9 21 10 22 12 23
DOCKED: REMARK SMILES IDX 13 24 18 25 14 26 17 27 15 28 16 29
DOCKED: REMARK H PARENT
DOCKED: USER                              x       y       z     vdW  Elec       q    Type
DOCKED: USER                           _______ _______ _______ _____ _____    ______ ____
DOCKED: ROOT
DOCKED: ATOM      1  C   UNL     1     138.113  74.518 221.966 -0.18 +0.00    -0.015 C  
DOCKED: ENDROOT
DOCKED: BRANCH   1   2
DOCKED: ATOM      2  N   UNL     1     138.892  73.459 221.327 -0.01 +0.14    -0.640 NA 
DOCKED: BRANCH   2   3
DOCKED: ATOM      3  C   UNL     1     140.076  72.869 221.882 -0.25 -0.01    +0.101 C  
DOCKED: ATOM      4  O   UNL     1     141.195  73.152 221.382 -0.22 +0.03    -0.313 OA 
DOCKED: BRANCH   3   5
DOCKED: ATOM      5  C   UNL     1     140.007  71.903 222.986 -0.31 -0.01    +0.088 A  
DOCKED: ATOM      6  C   UNL     1     139.485  70.619 222.780 -0.24 -0.01    +0.031 A  
DOCKED: ATOM      7  N   UNL     1     140.494  72.249 224.207 -0.09 +0.03    -0.246 NA 
DOCKED: ATOM      8  C   UNL     1     139.485  69.699 223.830 -0.28 -0.00    +0.013 A  
DOCKED: ATOM      9  C   UNL     1     140.515  71.372 225.247 -0.50 -0.01    +0.071 A  
DOCKED: ATOM     10  C   UNL     1     140.013  70.063 225.074 -0.43 -0.00    +0.002 A  
DOCKED: ATOM     11  C   UNL     1     141.056  71.756 226.478 -0.69 -0.00    +0.030 A  
DOCKED: ATOM     12  C   UNL     1     140.062  69.153 226.140 -0.49 -0.01    +0.030 A  
DOCKED: ATOM     13  C   UNL     1     141.105  70.842 227.535 -0.63 -0.00    +0.023 A  
DOCKED: ATOM     14  C   UNL     1     140.610  69.543 227.368 -0.57 -0.01    +0.041 A  
DOCKED: ATOM     15  Cl  UNL     1     140.680  68.402 228.697 -0.69 +0.02    -0.084 Cl 
DOCKED: ENDBRANCH   3   5
DOCKED: ENDBRANCH   2   3
DOCKED: ENDBRANCH   1   2
DOCKED: BRANCH   1  16
DOCKED: ATOM     16  C   UNL     1     138.838  75.834 221.869 -0.21 -0.05    +0.205 C  
DOCKED: ATOM     17  O   UNL     1     138.644  76.695 222.770 -0.24 +0.05    -0.277 OA 
DOCKED: BRANCH  16  18
DOCKED: ATOM     18  N   UNL     1     139.750  76.127 220.792 -0.06 +0.09    -0.337 N  
DOCKED: ATOM     19  C   UNL     1     139.370  76.201 219.388 -0.04 -0.03    +0.120 C  
DOCKED: ATOM     20  C   UNL     1     141.178  76.327 220.997 -0.25 -0.05    +0.115 C  
DOCKED: ATOM     21  C   UNL     1     140.634  76.595 218.634 -0.08 -0.01    +0.024 C  
DOCKED: ATOM     22  C   UNL     1     141.793  76.344 219.596 -0.24 -0.01    +0.032 C  
DOCKED: BRANCH  20  23
DOCKED: ATOM     23  C   UNL     1     141.452  77.620 221.740 -0.29 +0.01    -0.025 A  
DOCKED: ATOM     24  C   UNL     1     141.437  77.671 223.147 -0.35 -0.00    +0.007 A  
DOCKED: ATOM     25  C   UNL     1     141.682  78.804 221.018 -0.35 -0.00    +0.007 A  
DOCKED: ATOM     26  C   UNL     1     141.669  78.877 223.813 -0.60 -0.01    +0.021 A  
DOCKED: ATOM     27  C   UNL     1     141.915  80.009 221.687 -0.44 -0.01    +0.021 A  
DOCKED: ATOM     28  C   UNL     1     141.910  80.047 223.084 -0.56 -0.01    +0.041 A  
DOCKED: ATOM     29  Cl  UNL     1     142.201  81.559 223.923 -0.61 +0.01    -0.084 Cl 
DOCKED: ENDBRANCH  20  23
DOCKED: ENDBRANCH  16  18
DOCKED: ENDBRANCH   1  16
DOCKED: TORSDOF 6
DOCKED: TER
DOCKED: ENDMDL
________________________________________________________________________________


    FINAL DOCKED STATE:
    ________________________


Run:   4 / 20
Time taken for this run:   0.045s

DOCKED: MODEL        4
DOCKED: USER    Run = 4
DOCKED: USER
DOCKED: USER    Estimated Free Energy of Binding    =  -6.76 kcal/mol  [=(1)+(2)+(3)-(4)]
DOCKED: USER
DOCKED: USER    (1) Final Intermolecular Energy     =  -8.55 kcal/mol
DOCKED: USER        vdW + Hbond + desolv Energy     =  -8.70 kcal/mol
DOCKED: USER        Electrostatic Energy            =  +0.15 kcal/mol
DOCKED: USER        Moving Ligand-Fixed Receptor    =  -8.55 kcal/mol
DOCKED: USER        Moving Ligand-Moving Receptor   =  +0.00 kcal/mol
DOCKED: USER    (2) Final Total Internal Energy     =  -2.09 kcal/mol
DOCKED: USER    (3) Torsional Free Energy           =  +1.79 kcal/mol
DOCKED: USER    (4) Unbound System's Energy         =  -2.09 kcal/mol
DOCKED: USER
DOCKED: USER
DOCKED: REMARK SMILES O=C([N-]CC(=O)N1CCC[C@H]1c1ccc(Cl)cc1)c1ccc2cc(Cl)ccc2n1
DOCKED: REMARK SMILES IDX 4 1 3 2 2 3 1 4 19 5 20 6 29 7 21 8 28 9 22 10 27 11 23 12
DOCKED: REMARK SMILES IDX 26 13 24 14 25 15 5 16 6 17 7 18 8 19 11 20 9 21 10 22 12 23
DOCKED: REMARK SMILES IDX 13 24 18 25 14 26 17 27 15 28 16 29
DOCKED: REMARK H PARENT
DOCKED: USER                              x       y       z     vdW  Elec       q    Type
DOCKED: USER                           _______ _______ _______ _____ _____    ______ ____
DOCKED: ROOT
DOCKED: ATOM      1  C   UNL     1     137.803  79.308 223.048 -0.25 +0.00    -0.015 C  
DOCKED: ENDROOT
DOCKED: BRANCH   1   2
DOCKED: ATOM      2  N   UNL     1     138.002  78.271 222.037 +0.02 +0.12    -0.640 NA 
DOCKED: BRANCH   2   3
DOCKED: ATOM      3  C   UNL     1     138.548  76.971 222.300 -0.26 -0.02    +0.101 C  
DOCKED: ATOM      4  O   UNL     1     137.977  76.221 223.133 -0.22 +0.08    -0.313 OA 
DOCKED: BRANCH   3   5
DOCKED: ATOM      5  C   UNL     1     139.787  76.514 221.656 -0.27 -0.02    +0.088 A  
DOCKED: ATOM      6  C   UNL     1     140.623  77.421 220.993 -0.25 -0.01    +0.031 A  
DOCKED: ATOM      7  N   UNL     1     140.139  75.204 221.743 -0.45 +0.04    -0.246 NA 
DOCKED: ATOM      8  C   UNL     1     141.824  76.972 220.439 -0.29 -0.01    +0.013 A  
DOCKED: ATOM      9  C   UNL     1     141.307  74.739 221.221 -0.29 -0.02    +0.071 A  
DOCKED: ATOM     10  C   UNL     1     142.186  75.625 220.560 -0.26 -0.00    +0.002 A  
DOCKED: ATOM     11  C   UNL     1     141.651  73.390 221.362 -0.20 -0.00    +0.030 A  
DOCKED: ATOM     12  C   UNL     1     143.402  75.148 220.049 -0.37 -0.01    +0.030 A  
DOCKED: ATOM     13  C   UNL     1     142.866  72.922 220.853 -0.27 -0.00    +0.023 A  
DOCKED: ATOM     14  C   UNL     1     143.740  73.798 220.198 -0.35 -0.01    +0.041 A  
DOCKED: ATOM     15  Cl  UNL     1     145.265  73.204 219.568 -0.54 -0.00    -0.084 Cl 
DOCKED: ENDBRANCH   3   5
DOCKED: ENDBRANCH   2   3
DOCKED: ENDBRANCH   1   2
DOCKED: BRANCH   1  16
DOCKED: ATOM     16  C   UNL     1     138.800  80.422 222.859 -0.22 -0.03    +0.205 C  
DOCKED: ATOM     17  O   UNL     1     138.383  81.538 222.446 -0.11 +0.04    -0.277 OA 
DOCKED: BRANCH  16  18
DOCKED: ATOM     18  N   UNL     1     140.202  80.251 223.148 -0.17 +0.06    -0.337 N  
DOCKED: ATOM     19  C   UNL     1     140.768  79.092 223.822 -0.39 -0.02    +0.120 C  
DOCKED: ATOM     20  C   UNL     1     141.201  81.265 222.842 -0.42 -0.02    +0.115 C  
DOCKED: ATOM     21  C   UNL     1     142.274  79.321 223.851 -0.47 -0.01    +0.024 C  
DOCKED: ATOM     22  C   UNL     1     142.481  80.802 223.541 -0.64 -0.01    +0.032 C  
DOCKED: BRANCH  20  23
DOCKED: ATOM     23  C   UNL     1     141.406  81.403 221.345 -0.37 +0.01    -0.025 A  
DOCKED: ATOM     24  C   UNL     1     141.951  80.352 220.584 -0.33 -0.00    +0.007 A  
DOCKED: ATOM     25  C   UNL     1     141.089  82.614 220.707 -0.30 -0.00    +0.007 A  
DOCKED: ATOM     26  C   UNL     1     142.153  80.506 219.209 -0.31 -0.01    +0.021 A  
DOCKED: ATOM     27  C   UNL     1     141.292  82.765 219.332 -0.21 -0.01    +0.021 A  
DOCKED: ATOM     28  C   UNL     1     141.822  81.712 218.582 -0.25 -0.02    +0.041 A  
DOCKED: ATOM     29  Cl  UNL     1     142.077  81.902 216.857 -0.27 +0.06    -0.084 Cl 
DOCKED: ENDBRANCH  20  23
DOCKED: ENDBRANCH  16  18
DOCKED: ENDBRANCH   1  16
DOCKED: TORSDOF 6
DOCKED: TER
DOCKED: ENDMDL
________________________________________________________________________________


    FINAL DOCKED STATE:
    ________________________


Run:   5 / 20
Time taken for this run:   0.045s

DOCKED: MODEL        5
DOCKED: USER    Run = 5
DOCKED: USER
DOCKED: USER    Estimated Free Energy of Binding    =  -8.06 kcal/mol  [=(1)+(2)+(3)-(4)]
DOCKED: USER
DOCKED: USER    (1) Final Intermolecular Energy     =  -9.85 kcal/mol
DOCKED: USER        vdW + Hbond + desolv Energy     = -10.00 kcal/mol
DOCKED: USER        Electrostatic Energy            =  +0.15 kcal/mol
DOCKED: USER        Moving Ligand-Fixed Receptor    =  -9.85 kcal/mol
DOCKED: USER        Moving Ligand-Moving Receptor   =  +0.00 kcal/mol
DOCKED: USER    (2) Final Total Internal Energy     =  -1.54 kcal/mol
DOCKED: USER    (3) Torsional Free Energy           =  +1.79 kcal/mol
DOCKED: USER    (4) Unbound System's Energy         =  -1.54 kcal/mol
DOCKED: USER
DOCKED: USER
DOCKED: REMARK SMILES O=C([N-]CC(=O)N1CCC[C@H]1c1ccc(Cl)cc1)c1ccc2cc(Cl)ccc2n1
DOCKED: REMARK SMILES IDX 4 1 3 2 2 3 1 4 19 5 20 6 29 7 21 8 28 9 22 10 27 11 23 12
DOCKED: REMARK SMILES IDX 26 13 24 14 25 15 5 16 6 17 7 18 8 19 11 20 9 21 10 22 12 23
DOCKED: REMARK SMILES IDX 13 24 18 25 14 26 17 27 15 28 16 29
DOCKED: REMARK H PARENT
DOCKED: USER                              x       y       z     vdW  Elec       q    Type
DOCKED: USER                           _______ _______ _______ _____ _____    ______ ____
DOCKED: ROOT
DOCKED: ATOM      1  C   UNL     1     138.002  74.569 221.930 -0.18 +0.00    -0.015 C  
DOCKED: ENDROOT
DOCKED: BRANCH   1   2
DOCKED: ATOM      2  N   UNL     1     138.772  73.420 221.454 -0.02 +0.15    -0.640 NA 
DOCKED: BRANCH   2   3
DOCKED: ATOM      3  C   UNL     1     139.977  72.938 222.063 -0.26 -0.01    +0.101 C  
DOCKED: ATOM      4  O   UNL     1     141.088  73.352 221.640 -0.34 +0.02    -0.313 OA 
DOCKED: BRANCH   3   5
DOCKED: ATOM      5  C   UNL     1     139.948  71.933 223.134 -0.31 -0.02    +0.088 A  
DOCKED: ATOM      6  C   UNL     1     139.477  70.637 222.884 -0.25 -0.01    +0.031 A  
DOCKED: ATOM      7  N   UNL     1     140.420  72.258 224.367 -0.04 +0.04    -0.246 NA 
DOCKED: ATOM      8  C   UNL     1     139.514  69.683 223.904 -0.29 -0.00    +0.013 A  
DOCKED: ATOM      9  C   UNL     1     140.476  71.348 225.376 -0.50 -0.01    +0.071 A  
DOCKED: ATOM     10  C   UNL     1     140.028  70.026 225.159 -0.44 -0.00    +0.002 A  
DOCKED: ATOM     11  C   UNL     1     141.001  71.711 226.621 -0.70 -0.00    +0.030 A  
DOCKED: ATOM     12  C   UNL     1     140.113  69.083 226.195 -0.51 -0.01    +0.030 A  
DOCKED: ATOM     13  C   UNL     1     141.087  70.765 227.647 -0.64 -0.00    +0.023 A  
DOCKED: ATOM     14  C   UNL     1     140.645  69.454 227.435 -0.57 -0.01    +0.041 A  
DOCKED: ATOM     15  Cl  UNL     1     140.761  68.272 228.726 -0.66 +0.02    -0.084 Cl 
DOCKED: ENDBRANCH   3   5
DOCKED: ENDBRANCH   2   3
DOCKED: ENDBRANCH   1   2
DOCKED: BRANCH   1  16
DOCKED: ATOM     16  C   UNL     1     138.849  75.814 221.906 -0.21 -0.05    +0.205 C  
DOCKED: ATOM     17  O   UNL     1     138.770  76.613 222.879 -0.22 +0.05    -0.277 OA 
DOCKED: BRANCH  16  18
DOCKED: ATOM     18  N   UNL     1     139.749  76.106 220.819 -0.06 +0.09    -0.337 N  
DOCKED: ATOM     19  C   UNL     1     139.356  76.169 219.419 -0.04 -0.03    +0.120 C  
DOCKED: ATOM     20  C   UNL     1     141.178  76.316 221.011 -0.26 -0.05    +0.115 C  
DOCKED: ATOM     21  C   UNL     1     140.611  76.566 218.651 -0.08 -0.01    +0.024 C  
DOCKED: ATOM     22  C   UNL     1     141.780  76.329 219.604 -0.24 -0.01    +0.032 C  
DOCKED: BRANCH  20  23
DOCKED: ATOM     23  C   UNL     1     141.451  77.615 221.743 -0.29 +0.01    -0.025 A  
DOCKED: ATOM     24  C   UNL     1     141.431  77.678 223.149 -0.35 -0.00    +0.007 A  
DOCKED: ATOM     25  C   UNL     1     141.685  78.792 221.012 -0.35 -0.00    +0.007 A  
DOCKED: ATOM     26  C   UNL     1     141.663  78.889 223.807 -0.60 -0.01    +0.021 A  
DOCKED: ATOM     27  C   UNL     1     141.916  80.002 221.671 -0.44 -0.01    +0.021 A  
DOCKED: ATOM     28  C   UNL     1     141.907  80.052 223.068 -0.56 -0.01    +0.041 A  
DOCKED: ATOM     29  Cl  UNL     1     142.196  81.572 223.895 -0.61 +0.01    -0.084 Cl 
DOCKED: ENDBRANCH  20  23
DOCKED: ENDBRANCH  16  18
DOCKED: ENDBRANCH   1  16
DOCKED: TORSDOF 6
DOCKED: TER
DOCKED: ENDMDL
________________________________________________________________________________


    FINAL DOCKED STATE:
    ________________________


Run:   6 / 20
Time taken for this run:   0.045s

DOCKED: MODEL        6
DOCKED: USER    Run = 6
DOCKED: USER
DOCKED: USER    Estimated Free Energy of Binding    =  -7.31 kcal/mol  [=(1)+(2)+(3)-(4)]
DOCKED: USER
DOCKED: USER    (1) Final Intermolecular Energy     =  -9.10 kcal/mol
DOCKED: USER        vdW + Hbond + desolv Energy     =  -9.25 kcal/mol
DOCKED: USER        Electrostatic Energy            =  +0.16 kcal/mol
DOCKED: USER        Moving Ligand-Fixed Receptor    =  -9.10 kcal/mol
DOCKED: USER        Moving Ligand-Moving Receptor   =  +0.00 kcal/mol
DOCKED: USER    (2) Final Total Internal Energy     =  -1.82 kcal/mol
DOCKED: USER    (3) Torsional Free Energy           =  +1.79 kcal/mol
DOCKED: USER    (4) Unbound System's Energy         =  -1.82 kcal/mol
DOCKED: USER
DOCKED: USER
DOCKED: REMARK SMILES O=C([N-]CC(=O)N1CCC[C@H]1c1ccc(Cl)cc1)c1ccc2cc(Cl)ccc2n1
DOCKED: REMARK SMILES IDX 4 1 3 2 2 3 1 4 19 5 20 6 29 7 21 8 28 9 22 10 27 11 23 12
DOCKED: REMARK SMILES IDX 26 13 24 14 25 15 5 16 6 17 7 18 8 19 11 20 9 21 10 22 12 23
DOCKED: REMARK SMILES IDX 13 24 18 25 14 26 17 27 15 28 16 29
DOCKED: REMARK H PARENT
DOCKED: USER                              x       y       z     vdW  Elec       q    Type
DOCKED: USER                           _______ _______ _______ _____ _____    ______ ____
DOCKED: ROOT
DOCKED: ATOM      1  C   UNL     1     137.981  73.765 221.532 -0.16 +0.00    -0.015 C  
DOCKED: ENDROOT
DOCKED: BRANCH   1   2
DOCKED: ATOM      2  N   UNL     1     137.948  72.343 221.872 +0.02 +0.16    -0.640 NA 
DOCKED: BRANCH   2   3
DOCKED: ATOM      3  C   UNL     1     139.102  71.494 221.941 -0.17 -0.02    +0.101 C  
DOCKED: ATOM      4  O   UNL     1     139.612  71.062 220.875 -0.05 +0.05    -0.313 OA 
DOCKED: BRANCH   3   5
DOCKED: ATOM      5  C   UNL     1     139.671  71.076 223.229 -0.29 -0.02    +0.088 A  
DOCKED: ATOM      6  C   UNL     1     140.531  71.924 223.939 -0.31 -0.00    +0.031 A  
DOCKED: ATOM      7  N   UNL     1     139.326  69.868 223.750 -0.15 +0.04    -0.246 NA 
DOCKED: ATOM      8  C   UNL     1     141.013  71.527 225.188 -0.48 -0.00    +0.013 A  
DOCKED: ATOM      9  C   UNL     1     139.772  69.459 224.968 -0.35 -0.01    +0.071 A  
DOCKED: ATOM     10  C   UNL     1     140.626  70.293 225.723 -0.53 -0.00    +0.002 A  
DOCKED: ATOM     11  C   UNL     1     139.366  68.224 225.486 -0.48 -0.00    +0.030 A  
DOCKED: ATOM     12  C   UNL     1     141.062  69.879 226.990 -0.55 -0.01    +0.030 A  
DOCKED: ATOM     13  C   UNL     1     139.801  67.820 226.752 -0.64 -0.00    +0.023 A  
DOCKED: ATOM     14  C   UNL     1     140.647  68.644 227.503 -0.62 -0.01    +0.041 A  
DOCKED: ATOM     15  Cl  UNL     1     141.183  68.132 229.092 -0.46 +0.02    -0.084 Cl 
DOCKED: ENDBRANCH   3   5
DOCKED: ENDBRANCH   2   3
DOCKED: ENDBRANCH   1   2
DOCKED: BRANCH   1  16
DOCKED: ATOM     16  C   UNL     1     139.400  74.215 221.299 -0.17 -0.04    +0.205 C  
DOCKED: ATOM     17  O   UNL     1     140.194  74.229 222.279 -0.82 -0.00    -0.277 OA 
DOCKED: BRANCH  16  18
DOCKED: ATOM     18  N   UNL     1     139.872  74.613 219.997 -0.02 +0.08    -0.337 N  
DOCKED: ATOM     19  C   UNL     1     139.482  75.840 219.319 -0.04 -0.03    +0.120 C  
DOCKED: ATOM     20  C   UNL     1     140.759  73.784 219.191 -0.05 -0.03    +0.115 C  
DOCKED: ATOM     21  C   UNL     1     140.271  75.865 218.015 -0.04 -0.01    +0.024 C  
DOCKED: ATOM     22  C   UNL     1     140.791  74.444 217.811 -0.03 -0.01    +0.032 C  
DOCKED: BRANCH  20  23
DOCKED: ATOM     23  C   UNL     1     142.145  73.705 219.801 -0.18 +0.01    -0.025 A  
DOCKED: ATOM     24  C   UNL     1     142.991  74.829 219.837 -0.33 -0.00    +0.007 A  
DOCKED: ATOM     25  C   UNL     1     142.618  72.479 220.300 -0.23 -0.00    +0.007 A  
DOCKED: ATOM     26  C   UNL     1     144.274  74.731 220.383 -0.41 -0.01    +0.021 A  
DOCKED: ATOM     27  C   UNL     1     143.901  72.384 220.845 -0.34 -0.00    +0.021 A  
DOCKED: ATOM     28  C   UNL     1     144.730  73.509 220.890 -0.48 -0.01    +0.041 A  
DOCKED: ATOM     29  Cl  UNL     1     146.340  73.388 221.573 -0.89 +0.01    -0.084 Cl 
DOCKED: ENDBRANCH  20  23
DOCKED: ENDBRANCH  16  18
DOCKED: ENDBRANCH   1  16
DOCKED: TORSDOF 6
DOCKED: TER
DOCKED: ENDMDL
________________________________________________________________________________


    FINAL DOCKED STATE:
    ________________________


Run:   7 / 20
Time taken for this run:   0.045s

DOCKED: MODEL        7
DOCKED: USER    Run = 7
DOCKED: USER
DOCKED: USER    Estimated Free Energy of Binding    =  -8.25 kcal/mol  [=(1)+(2)+(3)-(4)]
DOCKED: USER
DOCKED: USER    (1) Final Intermolecular Energy     = -10.04 kcal/mol
DOCKED: USER        vdW + Hbond + desolv Energy     = -10.17 kcal/mol
DOCKED: USER        Electrostatic Energy            =  +0.13 kcal/mol
DOCKED: USER        Moving Ligand-Fixed Receptor    = -10.04 kcal/mol
DOCKED: USER        Moving Ligand-Moving Receptor   =  +0.00 kcal/mol
DOCKED: USER    (2) Final Total Internal Energy     =  -1.13 kcal/mol
DOCKED: USER    (3) Torsional Free Energy           =  +1.79 kcal/mol
DOCKED: USER    (4) Unbound System's Energy         =  -1.13 kcal/mol
DOCKED: USER
DOCKED: USER
DOCKED: REMARK SMILES O=C([N-]CC(=O)N1CCC[C@H]1c1ccc(Cl)cc1)c1ccc2cc(Cl)ccc2n1
DOCKED: REMARK SMILES IDX 4 1 3 2 2 3 1 4 19 5 20 6 29 7 21 8 28 9 22 10 27 11 23 12
DOCKED: REMARK SMILES IDX 26 13 24 14 25 15 5 16 6 17 7 18 8 19 11 20 9 21 10 22 12 23
DOCKED: REMARK SMILES IDX 13 24 18 25 14 26 17 27 15 28 16 29
DOCKED: REMARK H PARENT
DOCKED: USER                              x       y       z     vdW  Elec       q    Type
DOCKED: USER                           _______ _______ _______ _____ _____    ______ ____
DOCKED: ROOT
DOCKED: ATOM      1  C   UNL     1     141.590  73.814 220.905 -0.27 +0.00    -0.015 C  
DOCKED: ENDROOT
DOCKED: BRANCH   1   2
DOCKED: ATOM      2  N   UNL     1     140.761  73.537 222.077 -0.46 +0.01    -0.640 NA 
DOCKED: BRANCH   2   3
DOCKED: ATOM      3  C   UNL     1     139.825  72.455 222.176 -0.26 -0.02    +0.101 C  
DOCKED: ATOM      4  O   UNL     1     138.916  72.348 221.313 -0.07 +0.06    -0.313 OA 
DOCKED: BRANCH   3   5
DOCKED: ATOM      5  C   UNL     1     139.870  71.500 223.291 -0.32 -0.02    +0.088 A  
DOCKED: ATOM      6  C   UNL     1     139.459  70.173 223.111 -0.24 -0.01    +0.031 A  
DOCKED: ATOM      7  N   UNL     1     140.352  71.904 224.497 -0.26 +0.04    -0.246 NA 
DOCKED: ATOM      8  C   UNL     1     139.566  69.270 224.171 -0.28 -0.00    +0.013 A  
DOCKED: ATOM      9  C   UNL     1     140.476  71.045 225.544 -0.52 -0.01    +0.071 A  
DOCKED: ATOM     10  C   UNL     1     140.090  69.694 225.397 -0.45 -0.00    +0.002 A  
DOCKED: ATOM     11  C   UNL     1     141.010  71.489 226.758 -0.71 -0.00    +0.030 A  
DOCKED: ATOM     12  C   UNL     1     140.245  68.805 226.471 -0.55 -0.01    +0.030 A  
DOCKED: ATOM     13  C   UNL     1     141.166  70.597 227.823 -0.57 -0.00    +0.023 A  
DOCKED: ATOM     14  C   UNL     1     140.785  69.257 227.680 -0.59 -0.01    +0.041 A  
DOCKED: ATOM     15  Cl  UNL     1     140.989  68.142 229.019 -0.49 +0.02    -0.084 Cl 
DOCKED: ENDBRANCH   3   5
DOCKED: ENDBRANCH   2   3
DOCKED: ENDBRANCH   1   2
DOCKED: BRANCH   1  16
DOCKED: ATOM     16  C   UNL     1     141.353  75.218 220.415 -0.18 -0.07    +0.205 C  
DOCKED: ATOM     17  O   UNL     1     142.281  75.802 219.793 -0.17 +0.13    -0.277 OA 
DOCKED: BRANCH  16  18
DOCKED: ATOM     18  N   UNL     1     140.100  75.899 220.624 -0.06 +0.09    -0.337 N  
DOCKED: ATOM     19  C   UNL     1     138.880  75.256 221.091 -0.16 -0.03    +0.120 C  
DOCKED: ATOM     20  C   UNL     1     139.910  77.314 220.329 -0.11 -0.04    +0.115 C  
DOCKED: ATOM     21  C   UNL     1     137.846  76.368 221.219 -0.14 -0.01    +0.024 C  
DOCKED: ATOM     22  C   UNL     1     138.404  77.554 220.437 -0.07 -0.01    +0.032 C  
DOCKED: BRANCH  20  23
DOCKED: ATOM     23  C   UNL     1     140.683  78.187 221.298 -0.28 +0.01    -0.025 A  
DOCKED: ATOM     24  C   UNL     1     140.833  77.822 222.649 -0.45 -0.00    +0.007 A  
DOCKED: ATOM     25  C   UNL     1     141.224  79.407 220.857 -0.30 -0.00    +0.007 A  
DOCKED: ATOM     26  C   UNL     1     141.529  78.651 223.533 -0.58 -0.01    +0.021 A  
DOCKED: ATOM     27  C   UNL     1     141.920  80.234 221.743 -0.45 -0.01    +0.021 A  
DOCKED: ATOM     28  C   UNL     1     142.076  79.857 223.080 -0.58 -0.01    +0.041 A  
DOCKED: ATOM     29  Cl  UNL     1     142.948  80.896 224.191 -0.63 +0.01    -0.084 Cl 
DOCKED: ENDBRANCH  20  23
DOCKED: ENDBRANCH  16  18
DOCKED: ENDBRANCH   1  16
DOCKED: TORSDOF 6
DOCKED: TER
DOCKED: ENDMDL
________________________________________________________________________________


    FINAL DOCKED STATE:
    ________________________


Run:   8 / 20
Time taken for this run:   0.045s

DOCKED: MODEL        8
DOCKED: USER    Run = 8
DOCKED: USER
DOCKED: USER    Estimated Free Energy of Binding    =  -7.53 kcal/mol  [=(1)+(2)+(3)-(4)]
DOCKED: USER
DOCKED: USER    (1) Final Intermolecular Energy     =  -9.32 kcal/mol
DOCKED: USER        vdW + Hbond + desolv Energy     =  -9.45 kcal/mol
DOCKED: USER        Electrostatic Energy            =  +0.12 kcal/mol
DOCKED: USER        Moving Ligand-Fixed Receptor    =  -9.32 kcal/mol
DOCKED: USER        Moving Ligand-Moving Receptor   =  +0.00 kcal/mol
DOCKED: USER    (2) Final Total Internal Energy     =  -1.43 kcal/mol
DOCKED: USER    (3) Torsional Free Energy           =  +1.79 kcal/mol
DOCKED: USER    (4) Unbound System's Energy         =  -1.43 kcal/mol
DOCKED: USER
DOCKED: USER
DOCKED: REMARK SMILES O=C([N-]CC(=O)N1CCC[C@H]1c1ccc(Cl)cc1)c1ccc2cc(Cl)ccc2n1
DOCKED: REMARK SMILES IDX 4 1 3 2 2 3 1 4 19 5 20 6 29 7 21 8 28 9 22 10 27 11 23 12
DOCKED: REMARK SMILES IDX 26 13 24 14 25 15 5 16 6 17 7 18 8 19 11 20 9 21 10 22 12 23
DOCKED: REMARK SMILES IDX 13 24 18 25 14 26 17 27 15 28 16 29
DOCKED: REMARK H PARENT
DOCKED: USER                              x       y       z     vdW  Elec       q    Type
DOCKED: USER                           _______ _______ _______ _____ _____    ______ ____
DOCKED: ROOT
DOCKED: ATOM      1  C   UNL     1     138.924  74.790 222.249 -0.09 +0.00    -0.015 C  
DOCKED: ENDROOT
DOCKED: BRANCH   1   2
DOCKED: ATOM      2  N   UNL     1     139.543  73.804 221.365 -0.09 +0.12    -0.640 NA 
DOCKED: BRANCH   2   3
DOCKED: ATOM      3  C   UNL     1     140.528  72.846 221.775 -0.26 -0.01    +0.101 C  
DOCKED: ATOM      4  O   UNL     1     141.606  72.758 221.131 -0.16 +0.04    -0.313 OA 
DOCKED: BRANCH   3   5
DOCKED: ATOM      5  C   UNL     1     140.287  71.928 222.896 -0.31 -0.01    +0.088 A  
DOCKED: ATOM      6  C   UNL     1     139.634  70.705 222.690 -0.24 -0.01    +0.031 A  
DOCKED: ATOM      7  N   UNL     1     140.739  72.256 224.135 -0.01 +0.02    -0.246 NA 
DOCKED: ATOM      8  C   UNL     1     139.468  69.825 223.761 -0.28 -0.00    +0.013 A  
DOCKED: ATOM      9  C   UNL     1     140.601  71.414 225.196 -0.50 -0.01    +0.071 A  
DOCKED: ATOM     10  C   UNL     1     139.963  70.165 225.025 -0.43 -0.00    +0.002 A  
DOCKED: ATOM     11  C   UNL     1     141.111  71.772 226.448 -0.69 -0.00    +0.030 A  
DOCKED: ATOM     12  C   UNL     1     139.847  69.289 226.114 -0.47 -0.00    +0.030 A  
DOCKED: ATOM     13  C   UNL     1     140.995  70.892 227.528 -0.67 -0.00    +0.023 A  
DOCKED: ATOM     14  C   UNL     1     140.365  69.653 227.363 -0.56 -0.01    +0.041 A  
DOCKED: ATOM     15  Cl  UNL     1     140.229  68.552 228.721 -0.61 +0.02    -0.084 Cl 
DOCKED: ENDBRANCH   3   5
DOCKED: ENDBRANCH   2   3
DOCKED: ENDBRANCH   1   2
DOCKED: BRANCH   1  16
DOCKED: ATOM     16  C   UNL     1     138.635  76.062 221.495 -0.17 -0.05    +0.205 C  
DOCKED: ATOM     17  O   UNL     1     137.643  76.756 221.847 -0.11 +0.06    -0.277 OA 
DOCKED: BRANCH  16  18
DOCKED: ATOM     18  N   UNL     1     139.463  76.509 220.403 -0.02 +0.09    -0.337 N  
DOCKED: ATOM     19  C   UNL     1     138.968  76.833 219.073 -0.02 -0.03    +0.120 C  
DOCKED: ATOM     20  C   UNL     1     140.911  76.628 220.506 -0.20 -0.04    +0.115 C  
DOCKED: ATOM     21  C   UNL     1     140.178  77.313 218.283 -0.05 -0.01    +0.024 C  
DOCKED: ATOM     22  C   UNL     1     141.404  76.868 219.078 -0.18 -0.01    +0.032 C  
DOCKED: BRANCH  20  23
DOCKED: ATOM     23  C   UNL     1     141.306  77.766 221.428 -0.33 +0.01    -0.025 A  
DOCKED: ATOM     24  C   UNL     1     141.151  77.663 222.823 -0.42 -0.00    +0.007 A  
DOCKED: ATOM     25  C   UNL     1     141.794  78.966 220.884 -0.34 -0.00    +0.007 A  
DOCKED: ATOM     26  C   UNL     1     141.499  78.731 223.655 -0.58 -0.01    +0.021 A  
DOCKED: ATOM     27  C   UNL     1     142.141  80.033 221.717 -0.45 -0.01    +0.021 A  
DOCKED: ATOM     28  C   UNL     1     141.996  79.916 223.103 -0.57 -0.01    +0.041 A  
DOCKED: ATOM     29  Cl  UNL     1     142.431  81.256 224.148 -0.64 +0.01    -0.084 Cl 
DOCKED: ENDBRANCH  20  23
DOCKED: ENDBRANCH  16  18
DOCKED: ENDBRANCH   1  16
DOCKED: TORSDOF 6
DOCKED: TER
DOCKED: ENDMDL
________________________________________________________________________________


    FINAL DOCKED STATE:
    ________________________


Run:   9 / 20
Time taken for this run:   0.045s

DOCKED: MODEL        9
DOCKED: USER    Run = 9
DOCKED: USER
DOCKED: USER    Estimated Free Energy of Binding    =  -8.23 kcal/mol  [=(1)+(2)+(3)-(4)]
DOCKED: USER
DOCKED: USER    (1) Final Intermolecular Energy     = -10.02 kcal/mol
DOCKED: USER        vdW + Hbond + desolv Energy     = -10.16 kcal/mol
DOCKED: USER        Electrostatic Energy            =  +0.14 kcal/mol
DOCKED: USER        Moving Ligand-Fixed Receptor    = -10.02 kcal/mol
DOCKED: USER        Moving Ligand-Moving Receptor   =  +0.00 kcal/mol
DOCKED: USER    (2) Final Total Internal Energy     =  -1.42 kcal/mol
DOCKED: USER    (3) Torsional Free Energy           =  +1.79 kcal/mol
DOCKED: USER    (4) Unbound System's Energy         =  -1.42 kcal/mol
DOCKED: USER
DOCKED: USER
DOCKED: REMARK SMILES O=C([N-]CC(=O)N1CCC[C@H]1c1ccc(Cl)cc1)c1ccc2cc(Cl)ccc2n1
DOCKED: REMARK SMILES IDX 4 1 3 2 2 3 1 4 19 5 20 6 29 7 21 8 28 9 22 10 27 11 23 12
DOCKED: REMARK SMILES IDX 26 13 24 14 25 15 5 16 6 17 7 18 8 19 11 20 9 21 10 22 12 23
DOCKED: REMARK SMILES IDX 13 24 18 25 14 26 17 27 15 28 16 29
DOCKED: REMARK H PARENT
DOCKED: USER                              x       y       z     vdW  Elec       q    Type
DOCKED: USER                           _______ _______ _______ _____ _____    ______ ____
DOCKED: ROOT
DOCKED: ATOM      1  C   UNL     1     137.918  74.509 221.642 -0.18 +0.00    -0.015 C  
DOCKED: ENDROOT
DOCKED: BRANCH   1   2
DOCKED: ATOM      2  N   UNL     1     138.615  73.226 221.564 -0.01 +0.15    -0.640 NA 
DOCKED: BRANCH   2   3
DOCKED: ATOM      3  C   UNL     1     139.826  72.913 222.265 -0.24 -0.02    +0.101 C  
DOCKED: ATOM      4  O   UNL     1     140.892  73.498 221.942 -0.61 +0.01    -0.313 OA 
DOCKED: BRANCH   3   5
DOCKED: ATOM      5  C   UNL     1     139.863  71.888 223.317 -0.31 -0.02    +0.088 A  
DOCKED: ATOM      6  C   UNL     1     139.456  70.574 223.048 -0.26 -0.01    +0.031 A  
DOCKED: ATOM      7  N   UNL     1     140.333  72.214 224.550 +0.00 +0.04    -0.246 NA 
DOCKED: ATOM      8  C   UNL     1     139.555  69.605 224.048 -0.29 -0.00    +0.013 A  
DOCKED: ATOM      9  C   UNL     1     140.449  71.289 225.541 -0.51 -0.01    +0.071 A  
DOCKED: ATOM     10  C   UNL     1     140.067  69.950 225.304 -0.45 -0.00    +0.002 A  
DOCKED: ATOM     11  C   UNL     1     140.971  71.655 226.786 -0.72 -0.00    +0.030 A  
DOCKED: ATOM     12  C   UNL     1     140.214  68.994 226.319 -0.52 -0.01    +0.030 A  
DOCKED: ATOM     13  C   UNL     1     141.119  70.696 227.792 -0.61 -0.00    +0.023 A  
DOCKED: ATOM     14  C   UNL     1     140.742  69.368 227.560 -0.58 -0.01    +0.041 A  
DOCKED: ATOM     15  Cl  UNL     1     140.936  68.170 228.826 -0.60 +0.02    -0.084 Cl 
DOCKED: ENDBRANCH   3   5
DOCKED: ENDBRANCH   2   3
DOCKED: ENDBRANCH   1   2
DOCKED: BRANCH   1  16
DOCKED: ATOM     16  C   UNL     1     138.908  75.637 221.758 -0.21 -0.05    +0.205 C  
DOCKED: ATOM     17  O   UNL     1     138.890  76.347 222.801 -0.25 +0.05    -0.277 OA 
DOCKED: BRANCH  16  18
DOCKED: ATOM     18  N   UNL     1     139.876  75.916 220.728 -0.06 +0.09    -0.337 N  
DOCKED: ATOM     19  C   UNL     1     139.587  75.904 219.301 -0.04 -0.03    +0.120 C  
DOCKED: ATOM     20  C   UNL     1     141.279  76.186 221.013 -0.25 -0.05    +0.115 C  
DOCKED: ATOM     21  C   UNL     1     140.881  76.313 218.609 -0.09 -0.01    +0.024 C  
DOCKED: ATOM     22  C   UNL     1     141.984  76.160 219.655 -0.26 -0.02    +0.032 C  
DOCKED: BRANCH  20  23
DOCKED: ATOM     23  C   UNL     1     141.453  77.524 221.703 -0.27 +0.01    -0.025 A  
DOCKED: ATOM     24  C   UNL     1     141.664  78.704 220.965 -0.34 -0.00    +0.007 A  
DOCKED: ATOM     25  C   UNL     1     141.450  77.590 223.107 -0.32 -0.00    +0.007 A  
DOCKED: ATOM     26  C   UNL     1     141.846  79.926 221.620 -0.43 -0.01    +0.021 A  
DOCKED: ATOM     27  C   UNL     1     141.632  78.813 223.760 -0.59 -0.01    +0.021 A  
DOCKED: ATOM     28  C   UNL     1     141.827  79.982 223.018 -0.55 -0.01    +0.041 A  
DOCKED: ATOM     29  Cl  UNL     1     142.056  81.515 223.837 -0.61 +0.01    -0.084 Cl 
DOCKED: ENDBRANCH  20  23
DOCKED: ENDBRANCH  16  18
DOCKED: ENDBRANCH   1  16
DOCKED: TORSDOF 6
DOCKED: TER
DOCKED: ENDMDL
________________________________________________________________________________


    FINAL DOCKED STATE:
    ________________________


Run:   10 / 20
Time taken for this run:   0.045s

DOCKED: MODEL        10
DOCKED: USER    Run = 10
DOCKED: USER
DOCKED: USER    Estimated Free Energy of Binding    =  -7.89 kcal/mol  [=(1)+(2)+(3)-(4)]
DOCKED: USER
DOCKED: USER    (1) Final Intermolecular Energy     =  -9.68 kcal/mol
DOCKED: USER        vdW + Hbond + desolv Energy     =  -9.69 kcal/mol
DOCKED: USER        Electrostatic Energy            =  +0.02 kcal/mol
DOCKED: USER        Moving Ligand-Fixed Receptor    =  -9.68 kcal/mol
DOCKED: USER        Moving Ligand-Moving Receptor   =  +0.00 kcal/mol
DOCKED: USER    (2) Final Total Internal Energy     =  -1.30 kcal/mol
DOCKED: USER    (3) Torsional Free Energy           =  +1.79 kcal/mol
DOCKED: USER    (4) Unbound System's Energy         =  -1.30 kcal/mol
DOCKED: USER
DOCKED: USER
DOCKED: REMARK SMILES O=C([N-]CC(=O)N1CCC[C@H]1c1ccc(Cl)cc1)c1ccc2cc(Cl)ccc2n1
DOCKED: REMARK SMILES IDX 4 1 3 2 2 3 1 4 19 5 20 6 29 7 21 8 28 9 22 10 27 11 23 12
DOCKED: REMARK SMILES IDX 26 13 24 14 25 15 5 16 6 17 7 18 8 19 11 20 9 21 10 22 12 23
DOCKED: REMARK SMILES IDX 13 24 18 25 14 26 17 27 15 28 16 29
DOCKED: REMARK H PARENT
DOCKED: USER                              x       y       z     vdW  Elec       q    Type
DOCKED: USER                           _______ _______ _______ _____ _____    ______ ____
DOCKED: ROOT
DOCKED: ATOM      1  C   UNL     1     135.825  69.093 224.667 -0.16 +0.00    -0.015 C  
DOCKED: ENDROOT
DOCKED: BRANCH   1   2
DOCKED: ATOM      2  N   UNL     1     134.975  70.248 224.952 +0.03 +0.05    -0.640 NA 
DOCKED: BRANCH   2   3
DOCKED: ATOM      3  C   UNL     1     134.162  70.393 226.124 -0.29 -0.01    +0.101 C  
DOCKED: ATOM      4  O   UNL     1     133.949  69.389 226.852 -0.64 -0.03    -0.313 OA 
DOCKED: BRANCH   3   5
DOCKED: ATOM      5  C   UNL     1     133.530  71.673 226.468 -0.34 -0.01    +0.088 A  
DOCKED: ATOM      6  C   UNL     1     132.325  71.706 227.182 -0.35 -0.00    +0.031 A  
DOCKED: ATOM      7  N   UNL     1     134.145  72.835 226.121 -0.37 -0.01    -0.246 NA 
DOCKED: ATOM      8  C   UNL     1     131.775  72.937 227.547 -0.41 -0.00    +0.013 A  
DOCKED: ATOM      9  C   UNL     1     133.638  74.048 226.470 -0.22 +0.01    +0.071 A  
DOCKED: ATOM     10  C   UNL     1     132.434  74.123 227.205 -0.42 -0.00    +0.002 A  
DOCKED: ATOM     11  C   UNL     1     134.319  75.220 226.125 -0.40 +0.00    +0.030 A  
DOCKED: ATOM     12  C   UNL     1     131.929  75.374 227.588 -0.38 -0.00    +0.030 A  
DOCKED: ATOM     13  C   UNL     1     133.811  76.464 226.513 -0.34 -0.00    +0.023 A  
DOCKED: ATOM     14  C   UNL     1     132.619  76.542 227.242 -0.34 -0.00    +0.041 A  
DOCKED: ATOM     15  Cl  UNL     1     131.992  78.105 227.730 -0.35 -0.00    -0.084 Cl 
DOCKED: ENDBRANCH   3   5
DOCKED: ENDBRANCH   2   3
DOCKED: ENDBRANCH   1   2
DOCKED: BRANCH   1  16
DOCKED: ATOM     16  C   UNL     1     136.493  69.252 223.326 -0.12 -0.02    +0.205 C  
DOCKED: ATOM     17  O   UNL     1     136.110  68.519 222.374 -0.09 +0.03    -0.277 OA 
DOCKED: BRANCH  16  18
DOCKED: ATOM     18  N   UNL     1     137.537  70.220 223.101 -0.06 +0.06    -0.337 N  
DOCKED: ATOM     19  C   UNL     1     137.306  71.625 222.797 -0.14 -0.03    +0.120 C  
DOCKED: ATOM     20  C   UNL     1     138.951  69.871 223.099 -0.20 -0.02    +0.115 C  
DOCKED: ATOM     21  C   UNL     1     138.686  72.264 222.705 -0.13 -0.01    +0.024 C  
DOCKED: ATOM     22  C   UNL     1     139.676  71.110 222.568 -0.26 -0.01    +0.032 C  
DOCKED: BRANCH  20  23
DOCKED: ATOM     23  C   UNL     1     139.430  69.502 224.490 -0.34 +0.00    -0.025 A  
DOCKED: ATOM     24  C   UNL     1     139.234  68.209 225.010 -0.43 -0.00    +0.007 A  
DOCKED: ATOM     25  C   UNL     1     140.040  70.476 225.299 -0.48 -0.00    +0.007 A  
DOCKED: ATOM     26  C   UNL     1     139.661  67.894 226.303 -0.62 -0.00    +0.021 A  
DOCKED: ATOM     27  C   UNL     1     140.466  70.159 226.592 -0.55 -0.00    +0.021 A  
DOCKED: ATOM     28  C   UNL     1     140.279  68.867 227.094 -0.59 -0.01    +0.041 A  
DOCKED: ATOM     29  Cl  UNL     1     140.813  68.470 228.717 -0.71 +0.02    -0.084 Cl 
DOCKED: ENDBRANCH  20  23
DOCKED: ENDBRANCH  16  18
DOCKED: ENDBRANCH   1  16
DOCKED: TORSDOF 6
DOCKED: TER
DOCKED: ENDMDL
________________________________________________________________________________


    FINAL DOCKED STATE:
    ________________________


Run:   11 / 20
Time taken for this run:   0.045s

DOCKED: MODEL        11
DOCKED: USER    Run = 11
DOCKED: USER
DOCKED: USER    Estimated Free Energy of Binding    =  -8.24 kcal/mol  [=(1)+(2)+(3)-(4)]
DOCKED: USER
DOCKED: USER    (1) Final Intermolecular Energy     = -10.03 kcal/mol
DOCKED: USER        vdW + Hbond + desolv Energy     = -10.11 kcal/mol
DOCKED: USER        Electrostatic Energy            =  +0.07 kcal/mol
DOCKED: USER        Moving Ligand-Fixed Receptor    = -10.03 kcal/mol
DOCKED: USER        Moving Ligand-Moving Receptor   =  +0.00 kcal/mol
DOCKED: USER    (2) Final Total Internal Energy     =  -1.39 kcal/mol
DOCKED: USER    (3) Torsional Free Energy           =  +1.79 kcal/mol
DOCKED: USER    (4) Unbound System's Energy         =  -1.39 kcal/mol
DOCKED: USER
DOCKED: USER
DOCKED: REMARK SMILES O=C([N-]CC(=O)N1CCC[C@H]1c1ccc(Cl)cc1)c1ccc2cc(Cl)ccc2n1
DOCKED: REMARK SMILES IDX 4 1 3 2 2 3 1 4 19 5 20 6 29 7 21 8 28 9 22 10 27 11 23 12
DOCKED: REMARK SMILES IDX 26 13 24 14 25 15 5 16 6 17 7 18 8 19 11 20 9 21 10 22 12 23
DOCKED: REMARK SMILES IDX 13 24 18 25 14 26 17 27 15 28 16 29
DOCKED: REMARK H PARENT
DOCKED: USER                              x       y       z     vdW  Elec       q    Type
DOCKED: USER                           _______ _______ _______ _____ _____    ______ ____
DOCKED: ROOT
DOCKED: ATOM      1  C   UNL     1     140.853  75.109 220.904 -0.28 +0.00    -0.015 C  
DOCKED: ENDROOT
DOCKED: BRANCH   1   2
DOCKED: ATOM      2  N   UNL     1     140.702  74.129 221.979 -0.54 +0.01    -0.640 NA 
DOCKED: BRANCH   2   3
DOCKED: ATOM      3  C   UNL     1     140.121  72.828 221.819 -0.25 -0.01    +0.101 C  
DOCKED: ATOM      4  O   UNL     1     139.626  72.507 220.708 -0.05 +0.06    -0.313 OA 
DOCKED: BRANCH   3   5
DOCKED: ATOM      5  C   UNL     1     140.044  71.879 222.938 -0.31 -0.01    +0.088 A  
DOCKED: ATOM      6  C   UNL     1     139.520  70.593 222.748 -0.23 -0.01    +0.031 A  
DOCKED: ATOM      7  N   UNL     1     140.523  72.243 224.157 -0.10 +0.03    -0.246 NA 
DOCKED: ATOM      8  C   UNL     1     139.512  69.689 223.813 -0.28 -0.00    +0.013 A  
DOCKED: ATOM      9  C   UNL     1     140.536  71.382 225.210 -0.49 -0.01    +0.071 A  
DOCKED: ATOM     10  C   UNL     1     140.033  70.072 225.054 -0.43 -0.00    +0.002 A  
DOCKED: ATOM     11  C   UNL     1     141.070  71.784 226.439 -0.69 -0.00    +0.030 A  
DOCKED: ATOM     12  C   UNL     1     140.074  69.177 226.135 -0.49 -0.01    +0.030 A  
DOCKED: ATOM     13  C   UNL     1     141.110  70.886 227.510 -0.64 -0.00    +0.023 A  
DOCKED: ATOM     14  C   UNL     1     140.614  69.586 227.359 -0.56 -0.01    +0.041 A  
DOCKED: ATOM     15  Cl  UNL     1     140.674  68.465 228.706 -0.70 +0.02    -0.084 Cl 
DOCKED: ENDBRANCH   3   5
DOCKED: ENDBRANCH   2   3
DOCKED: ENDBRANCH   1   2
DOCKED: BRANCH   1  16
DOCKED: ATOM     16  C   UNL     1     139.505  75.610 220.457 -0.09 -0.05    +0.205 C  
DOCKED: ATOM     17  O   UNL     1     139.207  75.522 219.235 -0.01 +0.07    -0.277 OA 
DOCKED: BRANCH  16  18
DOCKED: ATOM     18  N   UNL     1     138.550  76.167 221.382 -0.08 +0.07    -0.337 N  
DOCKED: ATOM     19  C   UNL     1     137.702  75.379 222.265 -0.18 -0.03    +0.120 C  
DOCKED: ATOM     20  C   UNL     1     138.293  77.597 221.488 -0.14 -0.02    +0.115 C  
DOCKED: ATOM     21  C   UNL     1     136.914  76.385 223.094 -0.25 -0.01    +0.024 C  
DOCKED: ATOM     22  C   UNL     1     137.052  77.724 222.372 -0.19 -0.01    +0.032 C  
DOCKED: BRANCH  20  23
DOCKED: ATOM     23  C   UNL     1     139.479  78.327 222.087 -0.27 +0.01    -0.025 A  
DOCKED: ATOM     24  C   UNL     1     139.376  78.997 223.320 -0.37 -0.00    +0.007 A  
DOCKED: ATOM     25  C   UNL     1     140.695  78.379 221.383 -0.29 -0.00    +0.007 A  
DOCKED: ATOM     26  C   UNL     1     140.474  79.685 223.846 -0.47 -0.00    +0.021 A  
DOCKED: ATOM     27  C   UNL     1     141.791  79.066 221.911 -0.45 -0.01    +0.021 A  
DOCKED: ATOM     28  C   UNL     1     141.683  79.718 223.143 -0.54 -0.01    +0.041 A  
DOCKED: ATOM     29  Cl  UNL     1     143.058  80.582 223.804 -0.73 +0.02    -0.084 Cl 
DOCKED: ENDBRANCH  20  23
DOCKED: ENDBRANCH  16  18
DOCKED: ENDBRANCH   1  16
DOCKED: TORSDOF 6
DOCKED: TER
DOCKED: ENDMDL
________________________________________________________________________________


    FINAL DOCKED STATE:
    ________________________


Run:   12 / 20
Time taken for this run:   0.045s

DOCKED: MODEL        12
DOCKED: USER    Run = 12
DOCKED: USER
DOCKED: USER    Estimated Free Energy of Binding    =  -7.76 kcal/mol  [=(1)+(2)+(3)-(4)]
DOCKED: USER
DOCKED: USER    (1) Final Intermolecular Energy     =  -9.55 kcal/mol
DOCKED: USER        vdW + Hbond + desolv Energy     =  -9.75 kcal/mol
DOCKED: USER        Electrostatic Energy            =  +0.19 kcal/mol
DOCKED: USER        Moving Ligand-Fixed Receptor    =  -9.55 kcal/mol
DOCKED: USER        Moving Ligand-Moving Receptor   =  +0.00 kcal/mol
DOCKED: USER    (2) Final Total Internal Energy     =  -1.33 kcal/mol
DOCKED: USER    (3) Torsional Free Energy           =  +1.79 kcal/mol
DOCKED: USER    (4) Unbound System's Energy         =  -1.33 kcal/mol
DOCKED: USER
DOCKED: USER
DOCKED: REMARK SMILES O=C([N-]CC(=O)N1CCC[C@H]1c1ccc(Cl)cc1)c1ccc2cc(Cl)ccc2n1
DOCKED: REMARK SMILES IDX 4 1 3 2 2 3 1 4 19 5 20 6 29 7 21 8 28 9 22 10 27 11 23 12
DOCKED: REMARK SMILES IDX 26 13 24 14 25 15 5 16 6 17 7 18 8 19 11 20 9 21 10 22 12 23
DOCKED: REMARK SMILES IDX 13 24 18 25 14 26 17 27 15 28 16 29
DOCKED: REMARK H PARENT
DOCKED: USER                              x       y       z     vdW  Elec       q    Type
DOCKED: USER                           _______ _______ _______ _____ _____    ______ ____
DOCKED: ROOT
DOCKED: ATOM      1  C   UNL     1     141.790  73.180 220.105 -0.18 +0.00    -0.015 C  
DOCKED: ENDROOT
DOCKED: BRANCH   1   2
DOCKED: ATOM      2  N   UNL     1     140.603  72.618 220.748 +0.02 +0.10    -0.640 NA 
DOCKED: BRANCH   2   3
DOCKED: ATOM      3  C   UNL     1     140.155  72.954 222.068 -0.26 -0.01    +0.101 C  
DOCKED: ATOM      4  O   UNL     1     139.864  74.150 222.333 -0.82 +0.02    -0.313 OA 
DOCKED: BRANCH   3   5
DOCKED: ATOM      5  C   UNL     1     140.075  71.945 223.132 -0.32 -0.01    +0.088 A  
DOCKED: ATOM      6  C   UNL     1     139.578  70.663 222.865 -0.25 -0.01    +0.031 A  
DOCKED: ATOM      7  N   UNL     1     140.526  72.252 224.378 -0.02 +0.03    -0.246 NA 
DOCKED: ATOM      8  C   UNL     1     139.567  69.703 223.879 -0.28 -0.00    +0.013 A  
DOCKED: ATOM      9  C   UNL     1     140.536  71.336 225.383 -0.51 -0.01    +0.071 A  
DOCKED: ATOM     10  C   UNL     1     140.060  70.027 225.149 -0.44 -0.00    +0.002 A  
DOCKED: ATOM     11  C   UNL     1     141.040  71.680 226.642 -0.71 -0.00    +0.030 A  
DOCKED: ATOM     12  C   UNL     1     140.097  69.077 226.180 -0.50 -0.01    +0.030 A  
DOCKED: ATOM     13  C   UNL     1     141.078  70.727 227.664 -0.64 -0.00    +0.023 A  
DOCKED: ATOM     14  C   UNL     1     140.608  69.429 227.435 -0.58 -0.01    +0.041 A  
DOCKED: ATOM     15  Cl  UNL     1     140.665  68.237 228.721 -0.63 +0.02    -0.084 Cl 
DOCKED: ENDBRANCH   3   5
DOCKED: ENDBRANCH   2   3
DOCKED: ENDBRANCH   1   2
DOCKED: BRANCH   1  16
DOCKED: ATOM     16  C   UNL     1     141.780  74.683 220.208 -0.17 -0.06    +0.205 C  
DOCKED: ATOM     17  O   UNL     1     142.789  75.259 220.698 -0.17 +0.15    -0.277 OA 
DOCKED: BRANCH  16  18
DOCKED: ATOM     18  N   UNL     1     140.664  75.473 219.751 -0.02 +0.10    -0.337 N  
DOCKED: ATOM     19  C   UNL     1     139.294  74.990 219.663 -0.05 -0.03    +0.120 C  
DOCKED: ATOM     20  C   UNL     1     140.808  76.841 219.270 -0.11 -0.04    +0.115 C  
DOCKED: ATOM     21  C   UNL     1     138.462  76.178 219.196 -0.03 -0.01    +0.024 C  
DOCKED: ATOM     22  C   UNL     1     139.457  77.200 218.649 -0.04 -0.01    +0.032 C  
DOCKED: BRANCH  20  23
DOCKED: ATOM     23  C   UNL     1     141.170  77.787 220.398 -0.25 +0.01    -0.025 A  
DOCKED: ATOM     24  C   UNL     1     141.744  79.046 220.140 -0.29 -0.00    +0.007 A  
DOCKED: ATOM     25  C   UNL     1     140.972  77.389 221.732 -0.37 -0.00    +0.007 A  
DOCKED: ATOM     26  C   UNL     1     142.092  79.895 221.194 -0.34 -0.01    +0.021 A  
DOCKED: ATOM     27  C   UNL     1     141.321  78.240 222.784 -0.49 -0.01    +0.021 A  
DOCKED: ATOM     28  C   UNL     1     141.878  79.494 222.517 -0.51 -0.02    +0.041 A  
DOCKED: ATOM     29  Cl  UNL     1     142.316  80.561 223.839 -0.78 +0.02    -0.084 Cl 
DOCKED: ENDBRANCH  20  23
DOCKED: ENDBRANCH  16  18
DOCKED: ENDBRANCH   1  16
DOCKED: TORSDOF 6
DOCKED: TER
DOCKED: ENDMDL
________________________________________________________________________________


    FINAL DOCKED STATE:
    ________________________


Run:   13 / 20
Time taken for this run:   0.045s

DOCKED: MODEL        13
DOCKED: USER    Run = 13
DOCKED: USER
DOCKED: USER    Estimated Free Energy of Binding    =  -7.82 kcal/mol  [=(1)+(2)+(3)-(4)]
DOCKED: USER
DOCKED: USER    (1) Final Intermolecular Energy     =  -9.61 kcal/mol
DOCKED: USER        vdW + Hbond + desolv Energy     =  -9.65 kcal/mol
DOCKED: USER        Electrostatic Energy            =  +0.04 kcal/mol
DOCKED: USER        Moving Ligand-Fixed Receptor    =  -9.61 kcal/mol
DOCKED: USER        Moving Ligand-Moving Receptor   =  +0.00 kcal/mol
DOCKED: USER    (2) Final Total Internal Energy     =  -1.42 kcal/mol
DOCKED: USER    (3) Torsional Free Energy           =  +1.79 kcal/mol
DOCKED: USER    (4) Unbound System's Energy         =  -1.42 kcal/mol
DOCKED: USER
DOCKED: USER
DOCKED: REMARK SMILES O=C([N-]CC(=O)N1CCC[C@H]1c1ccc(Cl)cc1)c1ccc2cc(Cl)ccc2n1
DOCKED: REMARK SMILES IDX 4 1 3 2 2 3 1 4 19 5 20 6 29 7 21 8 28 9 22 10 27 11 23 12
DOCKED: REMARK SMILES IDX 26 13 24 14 25 15 5 16 6 17 7 18 8 19 11 20 9 21 10 22 12 23
DOCKED: REMARK SMILES IDX 13 24 18 25 14 26 17 27 15 28 16 29
DOCKED: REMARK H PARENT
DOCKED: USER                              x       y       z     vdW  Elec       q    Type
DOCKED: USER                           _______ _______ _______ _____ _____    ______ ____
DOCKED: ROOT
DOCKED: ATOM      1  C   UNL     1     139.244  75.297 221.831 -0.29 +0.00    -0.015 C  
DOCKED: ENDROOT
DOCKED: BRANCH   1   2
DOCKED: ATOM      2  N   UNL     1     140.248  74.275 222.120 -0.58 +0.02    -0.640 NA 
DOCKED: BRANCH   2   3
DOCKED: ATOM      3  C   UNL     1     140.076  72.872 221.877 -0.25 -0.01    +0.101 C  
DOCKED: ATOM      4  O   UNL     1     139.932  72.466 220.695 -0.06 +0.05    -0.313 OA 
DOCKED: BRANCH   3   5
DOCKED: ATOM      5  C   UNL     1     140.013  71.903 222.980 -0.31 -0.01    +0.088 A  
DOCKED: ATOM      6  C   UNL     1     139.520  70.609 222.766 -0.24 -0.01    +0.031 A  
DOCKED: ATOM      7  N   UNL     1     140.475  72.259 224.208 -0.09 +0.03    -0.246 NA 
DOCKED: ATOM      8  C   UNL     1     139.524  69.689 223.815 -0.28 -0.00    +0.013 A  
DOCKED: ATOM      9  C   UNL     1     140.500  71.381 225.247 -0.49 -0.01    +0.071 A  
DOCKED: ATOM     10  C   UNL     1     140.028  70.062 225.066 -0.43 -0.00    +0.002 A  
DOCKED: ATOM     11  C   UNL     1     141.016  71.774 226.486 -0.69 -0.00    +0.030 A  
DOCKED: ATOM     12  C   UNL     1     140.082  69.152 226.133 -0.49 -0.01    +0.030 A  
DOCKED: ATOM     13  C   UNL     1     141.070  70.861 227.543 -0.66 -0.00    +0.023 A  
DOCKED: ATOM     14  C   UNL     1     140.604  69.552 227.368 -0.57 -0.01    +0.041 A  
DOCKED: ATOM     15  Cl  UNL     1     140.680  68.411 228.697 -0.69 +0.02    -0.084 Cl 
DOCKED: ENDBRANCH   3   5
DOCKED: ENDBRANCH   2   3
DOCKED: ENDBRANCH   1   2
DOCKED: BRANCH   1  16
DOCKED: ATOM     16  C   UNL     1     139.386  75.785 220.413 -0.08 -0.05    +0.205 C  
DOCKED: ATOM     17  O   UNL     1     138.340  76.069 219.768 -0.02 +0.06    -0.277 OA 
DOCKED: BRANCH  16  18
DOCKED: ATOM     18  N   UNL     1     140.673  75.948 219.785 -0.03 +0.11    -0.337 N  
DOCKED: ATOM     19  C   UNL     1     140.961  75.613 218.398 -0.05 -0.04    +0.120 C  
DOCKED: ATOM     20  C   UNL     1     141.849  76.420 220.504 -0.21 -0.06    +0.115 C  
DOCKED: ATOM     21  C   UNL     1     142.414  76.008 218.167 -0.20 -0.01    +0.024 C  
DOCKED: ATOM     22  C   UNL     1     143.026  76.192 219.554 -0.36 -0.02    +0.032 C  
DOCKED: BRANCH  20  23
DOCKED: ATOM     23  C   UNL     1     141.715  77.882 220.881 -0.32 +0.02    -0.025 A  
DOCKED: ATOM     24  C   UNL     1     141.454  78.273 222.208 -0.43 -0.00    +0.007 A  
DOCKED: ATOM     25  C   UNL     1     141.806  78.870 219.886 -0.29 -0.00    +0.007 A  
DOCKED: ATOM     26  C   UNL     1     141.311  79.625 222.532 -0.46 -0.01    +0.021 A  
DOCKED: ATOM     27  C   UNL     1     141.662  80.221 220.212 -0.31 -0.01    +0.021 A  
DOCKED: ATOM     28  C   UNL     1     141.417  80.600 221.536 -0.37 -0.01    +0.041 A  
DOCKED: ATOM     29  Cl  UNL     1     141.236  82.296 221.945 -0.40 +0.01    -0.084 Cl 
DOCKED: ENDBRANCH  20  23
DOCKED: ENDBRANCH  16  18
DOCKED: ENDBRANCH   1  16
DOCKED: TORSDOF 6
DOCKED: TER
DOCKED: ENDMDL
________________________________________________________________________________


    FINAL DOCKED STATE:
    ________________________


Run:   14 / 20
Time taken for this run:   0.045s

DOCKED: MODEL        14
DOCKED: USER    Run = 14
DOCKED: USER
DOCKED: USER    Estimated Free Energy of Binding    =  -8.08 kcal/mol  [=(1)+(2)+(3)-(4)]
DOCKED: USER
DOCKED: USER    (1) Final Intermolecular Energy     =  -9.87 kcal/mol
DOCKED: USER        vdW + Hbond + desolv Energy     =  -9.95 kcal/mol
DOCKED: USER        Electrostatic Energy            =  +0.07 kcal/mol
DOCKED: USER        Moving Ligand-Fixed Receptor    =  -9.87 kcal/mol
DOCKED: USER        Moving Ligand-Moving Receptor   =  +0.00 kcal/mol
DOCKED: USER    (2) Final Total Internal Energy     =  -1.38 kcal/mol
DOCKED: USER    (3) Torsional Free Energy           =  +1.79 kcal/mol
DOCKED: USER    (4) Unbound System's Energy         =  -1.38 kcal/mol
DOCKED: USER
DOCKED: USER
DOCKED: REMARK SMILES O=C([N-]CC(=O)N1CCC[C@H]1c1ccc(Cl)cc1)c1ccc2cc(Cl)ccc2n1
DOCKED: REMARK SMILES IDX 4 1 3 2 2 3 1 4 19 5 20 6 29 7 21 8 28 9 22 10 27 11 23 12
DOCKED: REMARK SMILES IDX 26 13 24 14 25 15 5 16 6 17 7 18 8 19 11 20 9 21 10 22 12 23
DOCKED: REMARK SMILES IDX 13 24 18 25 14 26 17 27 15 28 16 29
DOCKED: REMARK H PARENT
DOCKED: USER                              x       y       z     vdW  Elec       q    Type
DOCKED: USER                           _______ _______ _______ _____ _____    ______ ____
DOCKED: ROOT
DOCKED: ATOM      1  C   UNL     1     138.678  74.995 221.921 -0.25 +0.00    -0.015 C  
DOCKED: ENDROOT
DOCKED: BRANCH   1   2
DOCKED: ATOM      2  N   UNL     1     139.846  74.224 222.344 -0.58 +0.04    -0.640 NA 
DOCKED: BRANCH   2   3
DOCKED: ATOM      3  C   UNL     1     140.045  72.830 222.074 -0.26 -0.01    +0.101 C  
DOCKED: ATOM      4  O   UNL     1     140.219  72.453 220.886 -0.08 +0.05    -0.313 OA 
DOCKED: BRANCH   3   5
DOCKED: ATOM      5  C   UNL     1     139.997  71.826 223.144 -0.32 -0.01    +0.088 A  
DOCKED: ATOM      6  C   UNL     1     139.525  70.532 222.889 -0.24 -0.01    +0.031 A  
DOCKED: ATOM      7  N   UNL     1     140.455  72.149 224.383 -0.10 +0.04    -0.246 NA 
DOCKED: ATOM      8  C   UNL     1     139.544  69.578 223.908 -0.27 -0.00    +0.013 A  
DOCKED: ATOM      9  C   UNL     1     140.494  71.238 225.393 -0.51 -0.01    +0.071 A  
DOCKED: ATOM     10  C   UNL     1     140.043  69.919 225.171 -0.43 -0.00    +0.002 A  
DOCKED: ATOM     11  C   UNL     1     141.005  71.600 226.644 -0.70 -0.00    +0.030 A  
DOCKED: ATOM     12  C   UNL     1     140.112  68.975 226.207 -0.51 -0.01    +0.030 A  
DOCKED: ATOM     13  C   UNL     1     141.074  70.653 227.671 -0.63 -0.00    +0.023 A  
DOCKED: ATOM     14  C   UNL     1     140.629  69.344 227.454 -0.58 -0.01    +0.041 A  
DOCKED: ATOM     15  Cl  UNL     1     140.724  68.162 228.746 -0.62 +0.02    -0.084 Cl 
DOCKED: ENDBRANCH   3   5
DOCKED: ENDBRANCH   2   3
DOCKED: ENDBRANCH   1   2
DOCKED: BRANCH   1  16
DOCKED: ATOM     16  C   UNL     1     138.870  75.512 220.519 -0.08 -0.05    +0.205 C  
DOCKED: ATOM     17  O   UNL     1     137.850  75.851 219.859 -0.01 +0.06    -0.277 OA 
DOCKED: BRANCH  16  18
DOCKED: ATOM     18  N   UNL     1     140.176  75.641 219.924 -0.02 +0.09    -0.337 N  
DOCKED: ATOM     19  C   UNL     1     140.438  75.582 218.493 -0.04 -0.04    +0.120 C  
DOCKED: ATOM     20  C   UNL     1     141.393  75.788 220.711 -0.25 -0.04    +0.115 C  
DOCKED: ATOM     21  C   UNL     1     141.933  75.827 218.333 -0.15 -0.01    +0.024 C  
DOCKED: ATOM     22  C   UNL     1     142.544  75.624 219.718 -0.31 -0.02    +0.032 C  
DOCKED: BRANCH  20  23
DOCKED: ATOM     23  C   UNL     1     141.443  77.138 221.400 -0.25 +0.01    -0.025 A  
DOCKED: ATOM     24  C   UNL     1     141.070  77.283 222.750 -0.41 -0.00    +0.007 A  
DOCKED: ATOM     25  C   UNL     1     141.824  78.279 220.672 -0.33 -0.00    +0.007 A  
DOCKED: ATOM     26  C   UNL     1     141.100  78.540 223.361 -0.50 -0.01    +0.021 A  
DOCKED: ATOM     27  C   UNL     1     141.854  79.534 221.286 -0.38 -0.01    +0.021 A  
DOCKED: ATOM     28  C   UNL     1     141.495  79.666 222.631 -0.48 -0.01    +0.041 A  
DOCKED: ATOM     29  Cl  UNL     1     141.531  81.242 223.400 -0.66 +0.01    -0.084 Cl 
DOCKED: ENDBRANCH  20  23
DOCKED: ENDBRANCH  16  18
DOCKED: ENDBRANCH   1  16
DOCKED: TORSDOF 6
DOCKED: TER
DOCKED: ENDMDL
________________________________________________________________________________


    FINAL DOCKED STATE:
    ________________________


Run:   15 / 20
Time taken for this run:   0.045s

DOCKED: MODEL        15
DOCKED: USER    Run = 15
DOCKED: USER
DOCKED: USER    Estimated Free Energy of Binding    =  -8.37 kcal/mol  [=(1)+(2)+(3)-(4)]
DOCKED: USER
DOCKED: USER    (1) Final Intermolecular Energy     = -10.16 kcal/mol
DOCKED: USER        vdW + Hbond + desolv Energy     = -10.23 kcal/mol
DOCKED: USER        Electrostatic Energy            =  +0.07 kcal/mol
DOCKED: USER        Moving Ligand-Fixed Receptor    = -10.16 kcal/mol
DOCKED: USER        Moving Ligand-Moving Receptor   =  +0.00 kcal/mol
DOCKED: USER    (2) Final Total Internal Energy     =  -1.25 kcal/mol
DOCKED: USER    (3) Torsional Free Energy           =  +1.79 kcal/mol
DOCKED: USER    (4) Unbound System's Energy         =  -1.25 kcal/mol
DOCKED: USER
DOCKED: USER
DOCKED: REMARK SMILES O=C([N-]CC(=O)N1CCC[C@H]1c1ccc(Cl)cc1)c1ccc2cc(Cl)ccc2n1
DOCKED: REMARK SMILES IDX 4 1 3 2 2 3 1 4 19 5 20 6 29 7 21 8 28 9 22 10 27 11 23 12
DOCKED: REMARK SMILES IDX 26 13 24 14 25 15 5 16 6 17 7 18 8 19 11 20 9 21 10 22 12 23
DOCKED: REMARK SMILES IDX 13 24 18 25 14 26 17 27 15 28 16 29
DOCKED: REMARK H PARENT
DOCKED: USER                              x       y       z     vdW  Elec       q    Type
DOCKED: USER                           _______ _______ _______ _____ _____    ______ ____
DOCKED: ROOT
DOCKED: ATOM      1  C   UNL     1     140.815  74.889 221.230 -0.31 +0.00    -0.015 C  
DOCKED: ENDROOT
DOCKED: BRANCH   1   2
DOCKED: ATOM      2  N   UNL     1     140.275  73.970 222.232 -0.58 -0.00    -0.640 NA 
DOCKED: BRANCH   2   3
DOCKED: ATOM      3  C   UNL     1     140.016  72.578 222.006 -0.26 -0.01    +0.101 C  
DOCKED: ATOM      4  O   UNL     1     139.784  72.178 220.836 -0.06 +0.05    -0.313 OA 
DOCKED: BRANCH   3   5
DOCKED: ATOM      5  C   UNL     1     139.966  71.616 223.115 -0.31 -0.01    +0.088 A  
DOCKED: ATOM      6  C   UNL     1     139.468  70.321 222.915 -0.23 -0.01    +0.031 A  
DOCKED: ATOM      7  N   UNL     1     140.444  71.978 224.335 -0.21 +0.04    -0.246 NA 
DOCKED: ATOM      8  C   UNL     1     139.484  69.407 223.970 -0.27 -0.00    +0.013 A  
DOCKED: ATOM      9  C   UNL     1     140.481  71.107 225.379 -0.51 -0.01    +0.071 A  
DOCKED: ATOM     10  C   UNL     1     140.005  69.788 225.213 -0.43 -0.00    +0.002 A  
DOCKED: ATOM     11  C   UNL     1     141.013  71.507 226.609 -0.69 -0.00    +0.030 A  
DOCKED: ATOM     12  C   UNL     1     140.070  68.884 226.284 -0.52 -0.01    +0.030 A  
DOCKED: ATOM     13  C   UNL     1     141.078  70.600 227.671 -0.62 -0.00    +0.023 A  
DOCKED: ATOM     14  C   UNL     1     140.609  69.291 227.509 -0.58 -0.01    +0.041 A  
DOCKED: ATOM     15  Cl  UNL     1     140.700  68.158 228.845 -0.53 +0.02    -0.084 Cl 
DOCKED: ENDBRANCH   3   5
DOCKED: ENDBRANCH   2   3
DOCKED: ENDBRANCH   1   2
DOCKED: BRANCH   1  16
DOCKED: ATOM     16  C   UNL     1     139.716  75.749 220.663 -0.12 -0.05    +0.205 C  
DOCKED: ATOM     17  O   UNL     1     139.687  75.941 219.416 -0.02 +0.07    -0.277 OA 
DOCKED: BRANCH  16  18
DOCKED: ATOM     18  N   UNL     1     138.699  76.340 221.496 -0.09 +0.07    -0.337 N  
DOCKED: ATOM     19  C   UNL     1     137.791  75.586 222.347 -0.21 -0.03    +0.120 C  
DOCKED: ATOM     20  C   UNL     1     138.437  77.773 221.527 -0.15 -0.02    +0.115 C  
DOCKED: ATOM     21  C   UNL     1     136.947  76.623 223.078 -0.21 -0.00    +0.024 C  
DOCKED: ATOM     22  C   UNL     1     137.137  77.933 222.316 -0.19 -0.01    +0.032 C  
DOCKED: BRANCH  20  23
DOCKED: ATOM     23  C   UNL     1     139.579  78.528 222.179 -0.28 +0.01    -0.025 A  
DOCKED: ATOM     24  C   UNL     1     140.658  77.847 222.774 -0.42 -0.00    +0.007 A  
DOCKED: ATOM     25  C   UNL     1     139.545  79.932 222.235 -0.26 -0.00    +0.007 A  
DOCKED: ATOM     26  C   UNL     1     141.690  78.559 223.391 -0.57 -0.01    +0.021 A  
DOCKED: ATOM     27  C   UNL     1     140.579  80.642 222.852 -0.40 -0.00    +0.021 A  
DOCKED: ATOM     28  C   UNL     1     141.653  79.957 223.429 -0.56 -0.01    +0.041 A  
DOCKED: ATOM     29  Cl  UNL     1     142.948  80.849 224.205 -0.62 +0.01    -0.084 Cl 
DOCKED: ENDBRANCH  20  23
DOCKED: ENDBRANCH  16  18
DOCKED: ENDBRANCH   1  16
DOCKED: TORSDOF 6
DOCKED: TER
DOCKED: ENDMDL
________________________________________________________________________________


    FINAL DOCKED STATE:
    ________________________


Run:   16 / 20
Time taken for this run:   0.045s

DOCKED: MODEL        16
DOCKED: USER    Run = 16
DOCKED: USER
DOCKED: USER    Estimated Free Energy of Binding    =  -6.38 kcal/mol  [=(1)+(2)+(3)-(4)]
DOCKED: USER
DOCKED: USER    (1) Final Intermolecular Energy     =  -8.17 kcal/mol
DOCKED: USER        vdW + Hbond + desolv Energy     =  -8.32 kcal/mol
DOCKED: USER        Electrostatic Energy            =  +0.15 kcal/mol
DOCKED: USER        Moving Ligand-Fixed Receptor    =  -8.17 kcal/mol
DOCKED: USER        Moving Ligand-Moving Receptor   =  +0.00 kcal/mol
DOCKED: USER    (2) Final Total Internal Energy     =  -2.73 kcal/mol
DOCKED: USER    (3) Torsional Free Energy           =  +1.79 kcal/mol
DOCKED: USER    (4) Unbound System's Energy         =  -2.73 kcal/mol
DOCKED: USER
DOCKED: USER
DOCKED: REMARK SMILES O=C([N-]CC(=O)N1CCC[C@H]1c1ccc(Cl)cc1)c1ccc2cc(Cl)ccc2n1
DOCKED: REMARK SMILES IDX 4 1 3 2 2 3 1 4 19 5 20 6 29 7 21 8 28 9 22 10 27 11 23 12
DOCKED: REMARK SMILES IDX 26 13 24 14 25 15 5 16 6 17 7 18 8 19 11 20 9 21 10 22 12 23
DOCKED: REMARK SMILES IDX 13 24 18 25 14 26 17 27 15 28 16 29
DOCKED: REMARK H PARENT
DOCKED: USER                              x       y       z     vdW  Elec       q    Type
DOCKED: USER                           _______ _______ _______ _____ _____    ______ ____
DOCKED: ROOT
DOCKED: ATOM      1  C   UNL     1     138.260  80.993 221.876 -0.16 +0.00    -0.015 C  
DOCKED: ENDROOT
DOCKED: BRANCH   1   2
DOCKED: ATOM      2  N   UNL     1     138.436  79.791 221.063 +0.05 +0.13    -0.640 NA 
DOCKED: BRANCH   2   3
DOCKED: ATOM      3  C   UNL     1     138.247  78.451 221.536 -0.13 -0.02    +0.101 C  
DOCKED: ATOM      4  O   UNL     1     137.163  78.144 222.096 -0.08 +0.05    -0.313 OA 
DOCKED: BRANCH   3   5
DOCKED: ATOM      5  C   UNL     1     139.308  77.441 221.430 -0.18 -0.02    +0.088 A  
DOCKED: ATOM      6  C   UNL     1     139.149  76.174 222.006 -0.30 -0.01    +0.031 A  
DOCKED: ATOM      7  N   UNL     1     140.437  77.731 220.730 -0.09 +0.09    -0.246 NA 
DOCKED: ATOM      8  C   UNL     1     140.148  75.212 221.841 -0.31 -0.00    +0.013 A  
DOCKED: ATOM      9  C   UNL     1     141.423  76.812 220.544 -0.26 -0.03    +0.071 A  
DOCKED: ATOM     10  C   UNL     1     141.292  75.518 221.095 -0.32 -0.00    +0.002 A  
DOCKED: ATOM     11  C   UNL     1     142.554  77.137 219.788 -0.33 -0.02    +0.030 A  
DOCKED: ATOM     12  C   UNL     1     142.297  74.564 220.878 -0.26 -0.01    +0.030 A  
DOCKED: ATOM     13  C   UNL     1     143.550  76.180 219.573 -0.39 -0.02    +0.023 A  
DOCKED: ATOM     14  C   UNL     1     143.423  74.897 220.116 -0.37 -0.02    +0.041 A  
DOCKED: ATOM     15  Cl  UNL     1     144.675  73.700 219.837 -0.55 +0.02    -0.084 Cl 
DOCKED: ENDBRANCH   3   5
DOCKED: ENDBRANCH   2   3
DOCKED: ENDBRANCH   1   2
DOCKED: BRANCH   1  16
DOCKED: ATOM     16  C   UNL     1     138.954  80.833 223.204 -0.25 -0.03    +0.205 C  
DOCKED: ATOM     17  O   UNL     1     138.314  81.118 224.254 -0.27 +0.02    -0.277 OA 
DOCKED: BRANCH  16  18
DOCKED: ATOM     18  N   UNL     1     140.309  80.354 223.307 -0.18 +0.06    -0.337 N  
DOCKED: ATOM     19  C   UNL     1     140.685  79.057 223.849 -0.35 -0.02    +0.120 C  
DOCKED: ATOM     20  C   UNL     1     141.462  81.158 222.924 -0.45 -0.02    +0.115 C  
DOCKED: ATOM     21  C   UNL     1     142.199  78.965 223.699 -0.50 -0.01    +0.024 C  
DOCKED: ATOM     22  C   UNL     1     142.683  80.389 223.435 -0.66 -0.01    +0.032 C  
DOCKED: BRANCH  20  23
DOCKED: ATOM     23  C   UNL     1     141.521  81.358 221.422 -0.38 +0.01    -0.025 A  
DOCKED: ATOM     24  C   UNL     1     142.045  80.364 220.574 -0.31 -0.00    +0.007 A  
DOCKED: ATOM     25  C   UNL     1     141.087  82.572 220.863 -0.31 -0.00    +0.007 A  
DOCKED: ATOM     26  C   UNL     1     142.111  80.575 219.194 -0.30 -0.01    +0.021 A  
DOCKED: ATOM     27  C   UNL     1     141.155  82.780 219.482 -0.21 -0.01    +0.021 A  
DOCKED: ATOM     28  C   UNL     1     141.664  81.783 218.646 -0.24 -0.02    +0.041 A  
DOCKED: ATOM     29  Cl  UNL     1     141.750  82.046 216.915 -0.22 +0.05    -0.084 Cl 
DOCKED: ENDBRANCH  20  23
DOCKED: ENDBRANCH  16  18
DOCKED: ENDBRANCH   1  16
DOCKED: TORSDOF 6
DOCKED: TER
DOCKED: ENDMDL
________________________________________________________________________________


    FINAL DOCKED STATE:
    ________________________


Run:   17 / 20
Time taken for this run:   0.045s

DOCKED: MODEL        17
DOCKED: USER    Run = 17
DOCKED: USER
DOCKED: USER    Estimated Free Energy of Binding    =  -7.98 kcal/mol  [=(1)+(2)+(3)-(4)]
DOCKED: USER
DOCKED: USER    (1) Final Intermolecular Energy     =  -9.77 kcal/mol
DOCKED: USER        vdW + Hbond + desolv Energy     =  -9.93 kcal/mol
DOCKED: USER        Electrostatic Energy            =  +0.15 kcal/mol
DOCKED: USER        Moving Ligand-Fixed Receptor    =  -9.77 kcal/mol
DOCKED: USER        Moving Ligand-Moving Receptor   =  +0.00 kcal/mol
DOCKED: USER    (2) Final Total Internal Energy     =  -1.39 kcal/mol
DOCKED: USER    (3) Torsional Free Energy           =  +1.79 kcal/mol
DOCKED: USER    (4) Unbound System's Energy         =  -1.39 kcal/mol
DOCKED: USER
DOCKED: USER
DOCKED: REMARK SMILES O=C([N-]CC(=O)N1CCC[C@H]1c1ccc(Cl)cc1)c1ccc2cc(Cl)ccc2n1
DOCKED: REMARK SMILES IDX 4 1 3 2 2 3 1 4 19 5 20 6 29 7 21 8 28 9 22 10 27 11 23 12
DOCKED: REMARK SMILES IDX 26 13 24 14 25 15 5 16 6 17 7 18 8 19 11 20 9 21 10 22 12 23
DOCKED: REMARK SMILES IDX 13 24 18 25 14 26 17 27 15 28 16 29
DOCKED: REMARK H PARENT
DOCKED: USER                              x       y       z     vdW  Elec       q    Type
DOCKED: USER                           _______ _______ _______ _____ _____    ______ ____
DOCKED: ROOT
DOCKED: ATOM      1  C   UNL     1     139.391  73.611 220.874 -0.16 +0.00    -0.015 C  
DOCKED: ENDROOT
DOCKED: BRANCH   1   2
DOCKED: ATOM      2  N   UNL     1     138.298  72.789 221.392 +0.02 +0.15    -0.640 NA 
DOCKED: BRANCH   2   3
DOCKED: ATOM      3  C   UNL     1     138.423  71.413 221.774 -0.12 -0.02    +0.101 C  
DOCKED: ATOM      4  O   UNL     1     137.886  70.526 221.062 -0.02 +0.06    -0.313 OA 
DOCKED: BRANCH   3   5
DOCKED: ATOM      5  C   UNL     1     139.120  71.018 223.006 -0.24 -0.02    +0.088 A  
DOCKED: ATOM      6  C   UNL     1     140.026  71.889 223.624 -0.36 -0.01    +0.031 A  
DOCKED: ATOM      7  N   UNL     1     138.849  69.809 223.567 -0.14 +0.04    -0.246 NA 
DOCKED: ATOM      8  C   UNL     1     140.631  71.514 224.825 -0.50 -0.00    +0.013 A  
DOCKED: ATOM      9  C   UNL     1     139.417  69.420 224.741 -0.33 -0.01    +0.071 A  
DOCKED: ATOM     10  C   UNL     1     140.322  70.278 225.404 -0.49 -0.00    +0.002 A  
DOCKED: ATOM     11  C   UNL     1     139.086  68.184 225.305 -0.43 -0.00    +0.030 A  
DOCKED: ATOM     12  C   UNL     1     140.883  69.885 226.628 -0.54 -0.01    +0.030 A  
DOCKED: ATOM     13  C   UNL     1     139.646  67.800 226.527 -0.63 -0.00    +0.023 A  
DOCKED: ATOM     14  C   UNL     1     140.543  68.648 227.188 -0.61 -0.01    +0.041 A  
DOCKED: ATOM     15  Cl  UNL     1     141.237  68.162 228.723 -0.65 +0.02    -0.084 Cl 
DOCKED: ENDBRANCH   3   5
DOCKED: ENDBRANCH   2   3
DOCKED: ENDBRANCH   1   2
DOCKED: BRANCH   1  16
DOCKED: ATOM     16  C   UNL     1     139.587  74.828 221.740 -0.21 -0.04    +0.205 C  
DOCKED: ATOM     17  O   UNL     1     140.704  74.991 222.302 -0.57 -0.00    -0.277 OA 
DOCKED: BRANCH  16  18
DOCKED: ATOM     18  N   UNL     1     138.548  75.808 221.928 -0.14 +0.08    -0.337 N  
DOCKED: ATOM     19  C   UNL     1     137.332  75.583 222.696 -0.16 -0.04    +0.120 C  
DOCKED: ATOM     20  C   UNL     1     138.585  77.128 221.312 -0.14 -0.03    +0.115 C  
DOCKED: ATOM     21  C   UNL     1     136.572  76.903 222.672 -0.22 -0.00    +0.024 C  
DOCKED: ATOM     22  C   UNL     1     137.197  77.727 221.549 -0.12 -0.01    +0.032 C  
DOCKED: BRANCH  20  23
DOCKED: ATOM     23  C   UNL     1     139.673  77.990 221.920 -0.27 +0.01    -0.025 A  
DOCKED: ATOM     24  C   UNL     1     140.958  78.054 221.348 -0.32 -0.00    +0.007 A  
DOCKED: ATOM     25  C   UNL     1     139.417  78.707 223.101 -0.35 -0.00    +0.007 A  
DOCKED: ATOM     26  C   UNL     1     141.956  78.837 221.936 -0.42 -0.01    +0.021 A  
DOCKED: ATOM     27  C   UNL     1     140.416  79.489 223.687 -0.47 -0.00    +0.021 A  
DOCKED: ATOM     28  C   UNL     1     141.685  79.557 223.105 -0.54 -0.01    +0.041 A  
DOCKED: ATOM     29  Cl  UNL     1     142.939  80.537 223.842 -0.79 +0.02    -0.084 Cl 
DOCKED: ENDBRANCH  20  23
DOCKED: ENDBRANCH  16  18
DOCKED: ENDBRANCH   1  16
DOCKED: TORSDOF 6
DOCKED: TER
DOCKED: ENDMDL
________________________________________________________________________________


    FINAL DOCKED STATE:
    ________________________


Run:   18 / 20
Time taken for this run:   0.045s

DOCKED: MODEL        18
DOCKED: USER    Run = 18
DOCKED: USER
DOCKED: USER    Estimated Free Energy of Binding    =  -7.73 kcal/mol  [=(1)+(2)+(3)-(4)]
DOCKED: USER
DOCKED: USER    (1) Final Intermolecular Energy     =  -9.52 kcal/mol
DOCKED: USER        vdW + Hbond + desolv Energy     =  -9.60 kcal/mol
DOCKED: USER        Electrostatic Energy            =  +0.08 kcal/mol
DOCKED: USER        Moving Ligand-Fixed Receptor    =  -9.52 kcal/mol
DOCKED: USER        Moving Ligand-Moving Receptor   =  +0.00 kcal/mol
DOCKED: USER    (2) Final Total Internal Energy     =  -1.71 kcal/mol
DOCKED: USER    (3) Torsional Free Energy           =  +1.79 kcal/mol
DOCKED: USER    (4) Unbound System's Energy         =  -1.71 kcal/mol
DOCKED: USER
DOCKED: USER
DOCKED: REMARK SMILES O=C([N-]CC(=O)N1CCC[C@H]1c1ccc(Cl)cc1)c1ccc2cc(Cl)ccc2n1
DOCKED: REMARK SMILES IDX 4 1 3 2 2 3 1 4 19 5 20 6 29 7 21 8 28 9 22 10 27 11 23 12
DOCKED: REMARK SMILES IDX 26 13 24 14 25 15 5 16 6 17 7 18 8 19 11 20 9 21 10 22 12 23
DOCKED: REMARK SMILES IDX 13 24 18 25 14 26 17 27 15 28 16 29
DOCKED: REMARK H PARENT
DOCKED: USER                              x       y       z     vdW  Elec       q    Type
DOCKED: USER                           _______ _______ _______ _____ _____    ______ ____
DOCKED: ROOT
DOCKED: ATOM      1  C   UNL     1     139.315  75.229 221.928 -0.30 +0.00    -0.015 C  
DOCKED: ENDROOT
DOCKED: BRANCH   1   2
DOCKED: ATOM      2  N   UNL     1     140.159  74.107 222.336 -0.57 -0.01    -0.640 NA 
DOCKED: BRANCH   2   3
DOCKED: ATOM      3  C   UNL     1     139.857  72.727 222.088 -0.25 -0.02    +0.101 C  
DOCKED: ATOM      4  O   UNL     1     139.540  72.366 220.925 -0.06 +0.06    -0.313 OA 
DOCKED: BRANCH   3   5
DOCKED: ATOM      5  C   UNL     1     139.859  71.734 223.170 -0.31 -0.02    +0.088 A  
DOCKED: ATOM      6  C   UNL     1     139.408  70.427 222.941 -0.24 -0.01    +0.031 A  
DOCKED: ATOM      7  N   UNL     1     140.341  72.081 224.393 -0.15 +0.04    -0.246 NA 
DOCKED: ATOM      8  C   UNL     1     139.474  69.486 223.971 -0.28 -0.00    +0.013 A  
DOCKED: ATOM      9  C   UNL     1     140.427  71.183 225.412 -0.51 -0.01    +0.071 A  
DOCKED: ATOM     10  C   UNL     1     139.998  69.852 225.216 -0.43 -0.00    +0.002 A  
DOCKED: ATOM     11  C   UNL     1     140.962  71.570 226.645 -0.70 -0.00    +0.030 A  
DOCKED: ATOM     12  C   UNL     1     140.114  68.922 226.260 -0.52 -0.01    +0.030 A  
DOCKED: ATOM     13  C   UNL     1     141.077  70.637 227.680 -0.63 -0.00    +0.023 A  
DOCKED: ATOM     14  C   UNL     1     140.655  69.316 227.489 -0.58 -0.01    +0.041 A  
DOCKED: ATOM     15  Cl  UNL     1     140.809  68.151 228.791 -0.60 +0.02    -0.084 Cl 
DOCKED: ENDBRANCH   3   5
DOCKED: ENDBRANCH   2   3
DOCKED: ENDBRANCH   1   2
DOCKED: BRANCH   1  16
DOCKED: ATOM     16  C   UNL     1     140.135  76.267 221.208 -0.20 -0.06    +0.205 C  
DOCKED: ATOM     17  O   UNL     1     140.474  77.306 221.837 -0.21 +0.09    -0.277 OA 
DOCKED: BRANCH  16  18
DOCKED: ATOM     18  N   UNL     1     140.550  76.100 219.838 -0.03 +0.11    -0.337 N  
DOCKED: ATOM     19  C   UNL     1     140.532  77.156 218.837 -0.07 -0.04    +0.120 C  
DOCKED: ATOM     20  C   UNL     1     140.984  74.819 219.295 -0.08 -0.03    +0.115 C  
DOCKED: ATOM     21  C   UNL     1     141.111  76.539 217.569 -0.07 -0.01    +0.024 C  
DOCKED: ATOM     22  C   UNL     1     141.072  75.027 217.781 -0.04 -0.01    +0.032 C  
DOCKED: BRANCH  20  23
DOCKED: ATOM     23  C   UNL     1     142.320  74.398 219.876 -0.23 +0.01    -0.025 A  
DOCKED: ATOM     24  C   UNL     1     143.394  75.304 219.966 -0.39 -0.00    +0.007 A  
DOCKED: ATOM     25  C   UNL     1     142.511  73.070 220.293 -0.24 -0.00    +0.007 A  
DOCKED: ATOM     26  C   UNL     1     144.625  74.891 220.484 -0.35 -0.01    +0.021 A  
DOCKED: ATOM     27  C   UNL     1     143.743  72.660 220.810 -0.32 -0.00    +0.021 A  
DOCKED: ATOM     28  C   UNL     1     144.800  73.570 220.908 -0.49 -0.01    +0.041 A  
DOCKED: ATOM     29  Cl  UNL     1     146.346  73.054 221.556 -0.74 +0.01    -0.084 Cl 
DOCKED: ENDBRANCH  20  23
DOCKED: ENDBRANCH  16  18
DOCKED: ENDBRANCH   1  16
DOCKED: TORSDOF 6
DOCKED: TER
DOCKED: ENDMDL
________________________________________________________________________________


    FINAL DOCKED STATE:
    ________________________


Run:   19 / 20
Time taken for this run:   0.045s

DOCKED: MODEL        19
DOCKED: USER    Run = 19
DOCKED: USER
DOCKED: USER    Estimated Free Energy of Binding    =  -7.55 kcal/mol  [=(1)+(2)+(3)-(4)]
DOCKED: USER
DOCKED: USER    (1) Final Intermolecular Energy     =  -9.34 kcal/mol
DOCKED: USER        vdW + Hbond + desolv Energy     =  -9.32 kcal/mol
DOCKED: USER        Electrostatic Energy            =  -0.02 kcal/mol
DOCKED: USER        Moving Ligand-Fixed Receptor    =  -9.34 kcal/mol
DOCKED: USER        Moving Ligand-Moving Receptor   =  +0.00 kcal/mol
DOCKED: USER    (2) Final Total Internal Energy     =  -1.74 kcal/mol
DOCKED: USER    (3) Torsional Free Energy           =  +1.79 kcal/mol
DOCKED: USER    (4) Unbound System's Energy         =  -1.74 kcal/mol
DOCKED: USER
DOCKED: USER
DOCKED: REMARK SMILES O=C([N-]CC(=O)N1CCC[C@H]1c1ccc(Cl)cc1)c1ccc2cc(Cl)ccc2n1
DOCKED: REMARK SMILES IDX 4 1 3 2 2 3 1 4 19 5 20 6 29 7 21 8 28 9 22 10 27 11 23 12
DOCKED: REMARK SMILES IDX 26 13 24 14 25 15 5 16 6 17 7 18 8 19 11 20 9 21 10 22 12 23
DOCKED: REMARK SMILES IDX 13 24 18 25 14 26 17 27 15 28 16 29
DOCKED: REMARK H PARENT
DOCKED: USER                              x       y       z     vdW  Elec       q    Type
DOCKED: USER                           _______ _______ _______ _____ _____    ______ ____
DOCKED: ROOT
DOCKED: ATOM      1  C   UNL     1     135.249  68.633 223.174 -0.13 +0.00    -0.015 C  
DOCKED: ENDROOT
DOCKED: BRANCH   1   2
DOCKED: ATOM      2  N   UNL     1     135.316  68.522 224.631 -0.35 -0.04    -0.640 NA 
DOCKED: BRANCH   2   3
DOCKED: ATOM      3  C   UNL     1     134.346  69.067 225.536 -0.24 -0.01    +0.101 C  
DOCKED: ATOM      4  O   UNL     1     133.580  68.287 226.158 -0.79 +0.01    -0.313 OA 
DOCKED: BRANCH   3   5
DOCKED: ATOM      5  C   UNL     1     134.191  70.516 225.714 -0.24 -0.01    +0.088 A  
DOCKED: ATOM      6  C   UNL     1     134.977  71.414 224.979 -0.17 -0.00    +0.031 A  
DOCKED: ATOM      7  N   UNL     1     133.248  70.986 226.574 -0.23 +0.02    -0.246 NA 
DOCKED: ATOM      8  C   UNL     1     134.770  72.788 225.124 -0.22 -0.00    +0.013 A  
DOCKED: ATOM      9  C   UNL     1     133.019  72.318 226.729 -0.36 -0.01    +0.071 A  
DOCKED: ATOM     10  C   UNL     1     133.777  73.254 225.993 -0.33 +0.00    +0.002 A  
DOCKED: ATOM     11  C   UNL     1     132.015  72.761 227.598 -0.36 -0.01    +0.030 A  
DOCKED: ATOM     12  C   UNL     1     133.518  74.626 226.135 -0.34 +0.00    +0.030 A  
DOCKED: ATOM     13  C   UNL     1     131.760  74.129 227.732 -0.39 -0.00    +0.023 A  
DOCKED: ATOM     14  C   UNL     1     132.509  75.060 227.003 -0.36 -0.00    +0.041 A  
DOCKED: ATOM     15  Cl  UNL     1     132.179  76.774 227.172 -0.40 +0.00    -0.084 Cl 
DOCKED: ENDBRANCH   3   5
DOCKED: ENDBRANCH   2   3
DOCKED: ENDBRANCH   1   2
DOCKED: BRANCH   1  16
DOCKED: ATOM     16  C   UNL     1     136.636  68.700 222.590 -0.10 -0.03    +0.205 C  
DOCKED: ATOM     17  O   UNL     1     137.131  67.649 222.098 -0.10 +0.04    -0.277 OA 
DOCKED: BRANCH  16  18
DOCKED: ATOM     18  N   UNL     1     137.397  69.923 222.564 -0.04 +0.05    -0.337 N  
DOCKED: ATOM     19  C   UNL     1     136.829  71.243 222.332 -0.09 -0.02    +0.120 C  
DOCKED: ATOM     20  C   UNL     1     138.846  69.955 222.715 -0.17 -0.02    +0.115 C  
DOCKED: ATOM     21  C   UNL     1     137.987  72.224 222.457 -0.15 -0.01    +0.024 C  
DOCKED: ATOM     22  C   UNL     1     139.260  71.386 222.365 -0.23 -0.01    +0.032 C  
DOCKED: BRANCH  20  23
DOCKED: ATOM     23  C   UNL     1     139.261  69.586 224.126 -0.31 +0.00    -0.025 A  
DOCKED: ATOM     24  C   UNL     1     139.172  68.260 224.589 -0.37 -0.00    +0.007 A  
DOCKED: ATOM     25  C   UNL     1     139.702  70.588 225.008 -0.45 -0.00    +0.007 A  
DOCKED: ATOM     26  C   UNL     1     139.538  67.942 225.900 -0.57 -0.00    +0.021 A  
DOCKED: ATOM     27  C   UNL     1     140.067  70.268 226.318 -0.52 -0.00    +0.021 A  
DOCKED: ATOM     28  C   UNL     1     139.988  68.946 226.765 -0.55 -0.01    +0.041 A  
DOCKED: ATOM     29  Cl  UNL     1     140.445  68.545 228.411 -0.77 +0.02    -0.084 Cl 
DOCKED: ENDBRANCH  20  23
DOCKED: ENDBRANCH  16  18
DOCKED: ENDBRANCH   1  16
DOCKED: TORSDOF 6
DOCKED: TER
DOCKED: ENDMDL
________________________________________________________________________________


    FINAL DOCKED STATE:
    ________________________


Run:   20 / 20
Time taken for this run:   0.045s

DOCKED: MODEL        20
DOCKED: USER    Run = 20
DOCKED: USER
DOCKED: USER    Estimated Free Energy of Binding    =  -8.21 kcal/mol  [=(1)+(2)+(3)-(4)]
DOCKED: USER
DOCKED: USER    (1) Final Intermolecular Energy     = -10.00 kcal/mol
DOCKED: USER        vdW + Hbond + desolv Energy     = -10.14 kcal/mol
DOCKED: USER        Electrostatic Energy            =  +0.14 kcal/mol
DOCKED: USER        Moving Ligand-Fixed Receptor    = -10.00 kcal/mol
DOCKED: USER        Moving Ligand-Moving Receptor   =  +0.00 kcal/mol
DOCKED: USER    (2) Final Total Internal Energy     =  -1.52 kcal/mol
DOCKED: USER    (3) Torsional Free Energy           =  +1.79 kcal/mol
DOCKED: USER    (4) Unbound System's Energy         =  -1.52 kcal/mol
DOCKED: USER
DOCKED: USER
DOCKED: REMARK SMILES O=C([N-]CC(=O)N1CCC[C@H]1c1ccc(Cl)cc1)c1ccc2cc(Cl)ccc2n1
DOCKED: REMARK SMILES IDX 4 1 3 2 2 3 1 4 19 5 20 6 29 7 21 8 28 9 22 10 27 11 23 12
DOCKED: REMARK SMILES IDX 26 13 24 14 25 15 5 16 6 17 7 18 8 19 11 20 9 21 10 22 12 23
DOCKED: REMARK SMILES IDX 13 24 18 25 14 26 17 27 15 28 16 29
DOCKED: REMARK H PARENT
DOCKED: USER                              x       y       z     vdW  Elec       q    Type
DOCKED: USER                           _______ _______ _______ _____ _____    ______ ____
DOCKED: ROOT
DOCKED: ATOM      1  C   UNL     1     137.969  74.487 221.802 -0.18 +0.00    -0.015 C  
DOCKED: ENDROOT
DOCKED: BRANCH   1   2
DOCKED: ATOM      2  N   UNL     1     138.774  73.311 221.475 -0.01 +0.15    -0.640 NA 
DOCKED: BRANCH   2   3
DOCKED: ATOM      3  C   UNL     1     139.964  72.918 222.172 -0.25 -0.01    +0.101 C  
DOCKED: ATOM      4  O   UNL     1     141.066  73.429 221.844 -0.49 +0.01    -0.313 OA 
DOCKED: BRANCH   3   5
DOCKED: ATOM      5  C   UNL     1     139.935  71.895 223.226 -0.32 -0.02    +0.088 A  
DOCKED: ATOM      6  C   UNL     1     139.464  70.604 222.955 -0.25 -0.01    +0.031 A  
DOCKED: ATOM      7  N   UNL     1     140.407  72.199 224.464 -0.04 +0.04    -0.246 NA 
DOCKED: ATOM      8  C   UNL     1     139.500  69.633 223.957 -0.29 -0.00    +0.013 A  
DOCKED: ATOM      9  C   UNL     1     140.464  71.272 225.458 -0.51 -0.01    +0.071 A  
DOCKED: ATOM     10  C   UNL     1     140.015  69.954 225.219 -0.44 -0.00    +0.002 A  
DOCKED: ATOM     11  C   UNL     1     140.990  71.613 226.708 -0.71 -0.00    +0.030 A  
DOCKED: ATOM     12  C   UNL     1     140.101  68.994 226.238 -0.51 -0.01    +0.030 A  
DOCKED: ATOM     13  C   UNL     1     141.076  70.650 227.718 -0.63 -0.00    +0.023 A  
DOCKED: ATOM     14  C   UNL     1     140.633  69.343 227.484 -0.58 -0.01    +0.041 A  
DOCKED: ATOM     15  Cl  UNL     1     140.749  68.139 228.754 -0.61 +0.02    -0.084 Cl 
DOCKED: ENDBRANCH   3   5
DOCKED: ENDBRANCH   2   3
DOCKED: ENDBRANCH   1   2
DOCKED: BRANCH   1  16
DOCKED: ATOM     16  C   UNL     1     138.825  75.726 221.797 -0.20 -0.05    +0.205 C  
DOCKED: ATOM     17  O   UNL     1     138.713  76.537 222.756 -0.25 +0.05    -0.277 OA 
DOCKED: BRANCH  16  18
DOCKED: ATOM     18  N   UNL     1     139.770  75.999 220.744 -0.06 +0.09    -0.337 N  
DOCKED: ATOM     19  C   UNL     1     139.440  76.021 219.326 -0.04 -0.03    +0.120 C  
DOCKED: ATOM     20  C   UNL     1     141.187  76.229 220.993 -0.26 -0.05    +0.115 C  
DOCKED: ATOM     21  C   UNL     1     140.724  76.411 218.605 -0.08 -0.01    +0.024 C  
DOCKED: ATOM     22  C   UNL     1     141.852  76.211 219.615 -0.24 -0.01    +0.032 C  
DOCKED: BRANCH  20  23
DOCKED: ATOM     23  C   UNL     1     141.415  77.550 221.702 -0.29 +0.01    -0.025 A  
DOCKED: ATOM     24  C   UNL     1     141.693  78.726 220.981 -0.34 -0.00    +0.007 A  
DOCKED: ATOM     25  C   UNL     1     141.395  77.600 223.106 -0.33 -0.00    +0.007 A  
DOCKED: ATOM     26  C   UNL     1     141.922  79.930 221.653 -0.43 -0.01    +0.021 A  
DOCKED: ATOM     27  C   UNL     1     141.625  78.805 223.776 -0.59 -0.01    +0.021 A  
DOCKED: ATOM     28  C   UNL     1     141.886  79.971 223.051 -0.56 -0.01    +0.041 A  
DOCKED: ATOM     29  Cl  UNL     1     142.176  81.482 223.892 -0.64 +0.01    -0.084 Cl 
DOCKED: ENDBRANCH  20  23
DOCKED: ENDBRANCH  16  18
DOCKED: ENDBRANCH   1  16
DOCKED: TORSDOF 6
DOCKED: TER
DOCKED: ENDMDL
________________________________________________________________________________


    CLUSTERING HISTOGRAM
    ____________________


________________________________________________________________________________
     |           |     |           |     |
Clus | Lowest    | Run | Mean      | Num | Histogram
-ter | Binding   |     | Binding   | in  |
Rank | Energy    |     | Energy    | Clus|    5    10   15   20   25   30   35
_____|___________|_____|___________|_____|____:____|____:____|____:____|____:___
   1 |     -8.37 |  15 |     -8.04 |  12 |############
   2 |     -7.93 |   2 |     -7.93 |   1 |#
   3 |     -7.89 |  10 |     -7.72 |   2 |##
   4 |     -7.73 |  18 |     -7.52 |   2 |##
   5 |     -6.76 |   4 |     -6.57 |   2 |##
   6 |     -6.48 |   1 |     -6.48 |   1 |#
_____|___________|_____|___________|_____|______________________________________


    RMSD TABLE
    __________


_______________________________________________________________________
     |      |      |           |         |                 |
Rank | Sub- | Run  | Binding   | Cluster | Reference       | Grep
     | Rank |      | Energy    | RMSD    | RMSD            | Pattern
_____|______|______|___________|_________|_________________|___________
   1      1     15       -8.37      0.00    272.01           RANKING
   1      2      7       -8.25      1.05    271.99           RANKING
   1      3     11       -8.24      0.61    271.87           RANKING
   1      4      9       -8.23      1.37    272.02           RANKING
   1      5     20       -8.21      1.35    271.99           RANKING
   1      6     14       -8.08      1.35    271.70           RANKING
   1      7      5       -8.06      1.35    272.00           RANKING
   1      8     17       -7.98      1.41    271.60           RANKING
   1      9      3       -7.97      1.35    271.96           RANKING
   1     10     13       -7.82      1.70    271.62           RANKING
   1     11     12       -7.76      1.64    271.66           RANKING
   1     12      8       -7.53      1.41    271.86           RANKING
   2      1      2       -7.93      0.00    271.40           RANKING
   3      1     10       -7.89      0.00    271.02           RANKING
   3      2     19       -7.55      1.13    270.44           RANKING
   4      1     18       -7.73      0.00    271.38           RANKING
   4      2      6       -7.31      1.28    271.01           RANKING
   5      1      4       -6.76      0.00    271.91           RANKING
   5      2     16       -6.38      1.08    271.94           RANKING
   6      1      1       -6.48      0.00    270.97           RANKING

Run time 0.868 sec
Idle time 0.000 sec
