AutoDock-GPU version: v1.6

**********************************************************
**    AutoDock-GPU AUTODOCKTOOLS-COMPATIBLE DLG FILE    **
**********************************************************


    DOCKING PARAMETERS
    ________________________


Ligand file:                               /home/a/REINVENT4/ReinventStudies/pleaseWork/justmol2mol_4_Compounds_ontop/graph-dock-8u2o5u/graph-DockGPU/node-autodockgpu/inputs/PQIQPWWGKIHSIY-MYIVHCKPNA-N.pdbqt
Grid fld file:                             /home/a/REINVENT4/ReinventStudies/mols/Rad51/maps/rad51_receptor.maps.fld

Random seed:                               42
Number of runs:                            20
Number of energy evaluations:              1613968
Number of generations:                     42000
Size of population:                        150
Rate of crossover:                         80.000000%
Tournament selection probability limit:    60.000000%
Rate of mutation:                          2.000000%
Maximal allowed delta movement:            +/- 6.000000A
Maximal allowed delta angle:               +/- 90.000000

Rate of local search:                      100.000000%
Maximal number of local search iterations: 300
Rho lower bound:                           0.010000
Spread of local search delta movement:     2.000000A
Spread of local search delta angle:        74.999999
Limit of consecutive successes/failures:   4

Handle symmetry during clustering:         YES
RMSD tolerance:                            2.000000A

Program call in command line was:          /home/a/REINVENT4/ReinventStudies/adgpu-v1.6_linux_x64_cuda12_128wi --filelist batch.txt --heuristics 1 --nrun 20 --psize 150 --lsit 300 --seed 42 --heurmax 12000000 


    GRID PARAMETERS
    ________________________


Receptor name:                             rad51_receptor
Number of grid points (x, y, z):           53, 53, 53
Grid center (x, y, z):                     139.950000, 75.640000, 221.970000A
Grid size (x, y, z):                       19.500000, 19.500000, 19.500000A
Grid spacing:                              0.375000A


    LIGAND PARAMETERS
    ________________________


Ligand name:                               /home/a/REINVENT4/ReinventStudies/pleaseWork/justmol2mol_4_Compounds_ontop/graph-dock-8u2o5u/graph-DockGPU/node-autodockgpu/inputs/PQIQPWWGKIHSIY-MYIVHCKPNA-N
Number of atoms:                           33
Number of rotatable bonds:                 8
Number of atom types:                      7


    DUMMY DATA (only for ADT-compatibility)
    ________________________


DPF> outlev 1
DPF> ga_run 20
DPF> fld /home/a/REINVENT4/ReinventStudies/mols/Rad51/maps/rad51_receptor.maps.fld
DPF> move /home/a/REINVENT4/ReinventStudies/pleaseWork/justmol2mol_4_Compounds_ontop/graph-dock-8u2o5u/graph-DockGPU/node-autodockgpu/inputs/PQIQPWWGKIHSIY-MYIVHCKPNA-N.pdbqt


    COUNTER STATES
    ________________________


Number of energy evaluations performed:    1286950
Number of generations used:                85


    INPUT LIGAND PDBQT FILE:
    ________________________


INPUT-LIGAND-PDBQT: REMARK SMILES O=C([N-]CC(=O)N1CCC[C@H]1C[NH2+]c1ccc(Cl)cc1)c1ccc2cc(Cl)ccc2n1
INPUT-LIGAND-PDBQT: REMARK SMILES IDX 5 1 6 2 4 3 3 4 2 5 1 6 21 7 22 8 31 9 23 10 30 11 24 12
INPUT-LIGAND-PDBQT: REMARK SMILES IDX 29 13 25 14 28 15 26 16 27 17 7 18 8 19 11 20 9 21 10 22
INPUT-LIGAND-PDBQT: REMARK SMILES IDX 12 23 13 24 14 27 15 28 20 29 16 30 19 31 17 32 18 33
INPUT-LIGAND-PDBQT: REMARK H PARENT 13 25 13 26
INPUT-LIGAND-PDBQT: ROOT
INPUT-LIGAND-PDBQT: ATOM      1  C   UNL     1       0.116   0.280  -4.159  1.00  0.00     0.205 C 
INPUT-LIGAND-PDBQT: ATOM      2  O   UNL     1       1.205   0.904  -4.276  1.00  0.00    -0.277 OA
INPUT-LIGAND-PDBQT: ENDROOT
INPUT-LIGAND-PDBQT: BRANCH   1   3
INPUT-LIGAND-PDBQT: ATOM      3  C   UNL     1      -1.178   1.014  -4.346  1.00  0.00    -0.015 C 
INPUT-LIGAND-PDBQT: BRANCH   3   4
INPUT-LIGAND-PDBQT: ATOM      4  N   UNL     1      -2.025   0.787  -3.183  1.00  0.00    -0.640 NA
INPUT-LIGAND-PDBQT: BRANCH   4   5
INPUT-LIGAND-PDBQT: ATOM      5  C   UNL     1      -1.859   1.493  -1.951  1.00  0.00     0.101 C 
INPUT-LIGAND-PDBQT: ATOM      6  O   UNL     1      -1.375   2.657  -1.950  1.00  0.00    -0.313 OA
INPUT-LIGAND-PDBQT: BRANCH   5   7
INPUT-LIGAND-PDBQT: ATOM      7  C   UNL     1      -2.212   0.833  -0.684  1.00  0.00     0.088 A 
INPUT-LIGAND-PDBQT: ATOM      8  C   UNL     1      -2.347   1.566   0.506  1.00  0.00     0.031 A 
INPUT-LIGAND-PDBQT: ATOM      9  N   UNL     1      -2.333  -0.522  -0.656  1.00  0.00    -0.246 NA
INPUT-LIGAND-PDBQT: ATOM     10  C   UNL     1      -2.605   0.897   1.703  1.00  0.00     0.013 A 
INPUT-LIGAND-PDBQT: ATOM     11  C   UNL     1      -2.564  -1.203   0.498  1.00  0.00     0.071 A 
INPUT-LIGAND-PDBQT: ATOM     12  C   UNL     1      -2.701  -0.500   1.714  1.00  0.00     0.002 A 
INPUT-LIGAND-PDBQT: ATOM     13  C   UNL     1      -2.639  -2.600   0.486  1.00  0.00     0.030 A 
INPUT-LIGAND-PDBQT: ATOM     14  C   UNL     1      -2.909  -1.207   2.908  1.00  0.00     0.030 A 
INPUT-LIGAND-PDBQT: ATOM     15  C   UNL     1      -2.842  -3.299   1.680  1.00  0.00     0.023 A 
INPUT-LIGAND-PDBQT: ATOM     16  C   UNL     1      -2.976  -2.605   2.889  1.00  0.00     0.041 A 
INPUT-LIGAND-PDBQT: ATOM     17  Cl  UNL     1      -3.221  -3.490   4.383  1.00  0.00    -0.084 Cl
INPUT-LIGAND-PDBQT: ENDBRANCH   5   7
INPUT-LIGAND-PDBQT: ENDBRANCH   4   5
INPUT-LIGAND-PDBQT: ENDBRANCH   3   4
INPUT-LIGAND-PDBQT: ENDBRANCH   1   3
INPUT-LIGAND-PDBQT: BRANCH   1  18
INPUT-LIGAND-PDBQT: ATOM     18  N   UNL     1       0.123  -1.120  -3.830  1.00  0.00    -0.335 N 
INPUT-LIGAND-PDBQT: ATOM     19  C   UNL     1      -0.749  -2.080  -4.493  1.00  0.00     0.120 C 
INPUT-LIGAND-PDBQT: ATOM     20  C   UNL     1       0.669  -1.640  -2.580  1.00  0.00     0.140 C 
INPUT-LIGAND-PDBQT: ATOM     21  C   UNL     1      -0.887  -3.249  -3.529  1.00  0.00     0.024 C 
INPUT-LIGAND-PDBQT: ATOM     22  C   UNL     1       0.287  -3.125  -2.569  1.00  0.00     0.033 C 
INPUT-LIGAND-PDBQT: BRANCH  20  23
INPUT-LIGAND-PDBQT: ATOM     23  C   UNL     1       2.206  -1.436  -2.470  1.00  0.00     0.291 C 
INPUT-LIGAND-PDBQT: BRANCH  23  24
INPUT-LIGAND-PDBQT: ATOM     24  N   UNL     1       2.568  -0.319  -1.576  1.00  0.00    -0.312 N 
INPUT-LIGAND-PDBQT: ATOM     25  H   UNL     1       3.599  -0.153  -1.650  1.00  0.00     0.352 HD
INPUT-LIGAND-PDBQT: ATOM     26  H   UNL     1       2.090   0.556  -1.891  1.00  0.00     0.352 HD
INPUT-LIGAND-PDBQT: BRANCH  24  27
INPUT-LIGAND-PDBQT: ATOM     27  C   UNL     1       2.250  -0.609  -0.195  1.00  0.00     0.129 A 
INPUT-LIGAND-PDBQT: ATOM     28  C   UNL     1       1.225   0.095   0.465  1.00  0.00     0.069 A 
INPUT-LIGAND-PDBQT: ATOM     29  C   UNL     1       2.961  -1.597   0.512  1.00  0.00     0.069 A 
INPUT-LIGAND-PDBQT: ATOM     30  C   UNL     1       0.901  -0.204   1.791  1.00  0.00     0.026 A 
INPUT-LIGAND-PDBQT: ATOM     31  C   UNL     1       2.625  -1.901   1.835  1.00  0.00     0.026 A 
INPUT-LIGAND-PDBQT: ATOM     32  C   UNL     1       1.591  -1.209   2.473  1.00  0.00     0.041 A 
INPUT-LIGAND-PDBQT: ATOM     33  Cl  UNL     1       1.157  -1.601   4.126  1.00  0.00    -0.084 Cl
INPUT-LIGAND-PDBQT: ENDBRANCH  24  27
INPUT-LIGAND-PDBQT: ENDBRANCH  23  24
INPUT-LIGAND-PDBQT: ENDBRANCH  20  23
INPUT-LIGAND-PDBQT: ENDBRANCH   1  18
INPUT-LIGAND-PDBQT: TORSDOF 8


    FINAL DOCKED STATE:
    ________________________


Run:   1 / 20
Time taken for this run:   0.061s

DOCKED: MODEL        1
DOCKED: USER    Run = 1
DOCKED: USER
DOCKED: USER    Estimated Free Energy of Binding    =  -8.06 kcal/mol  [=(1)+(2)+(3)-(4)]
DOCKED: USER
DOCKED: USER    (1) Final Intermolecular Energy     = -10.44 kcal/mol
DOCKED: USER        vdW + Hbond + desolv Energy     =  -9.98 kcal/mol
DOCKED: USER        Electrostatic Energy            =  -0.47 kcal/mol
DOCKED: USER        Moving Ligand-Fixed Receptor    = -10.44 kcal/mol
DOCKED: USER        Moving Ligand-Moving Receptor   =  +0.00 kcal/mol
DOCKED: USER    (2) Final Total Internal Energy     =  -4.64 kcal/mol
DOCKED: USER    (3) Torsional Free Energy           =  +2.39 kcal/mol
DOCKED: USER    (4) Unbound System's Energy         =  -4.64 kcal/mol
DOCKED: USER
DOCKED: USER
DOCKED: REMARK SMILES O=C([N-]CC(=O)N1CCC[C@H]1C[NH2+]c1ccc(Cl)cc1)c1ccc2cc(Cl)ccc2n1
DOCKED: REMARK SMILES IDX 5 1 6 2 4 3 3 4 2 5 1 6 21 7 22 8 31 9 23 10 30 11 24 12
DOCKED: REMARK SMILES IDX 29 13 25 14 28 15 26 16 27 17 7 18 8 19 11 20 9 21 10 22
DOCKED: REMARK SMILES IDX 12 23 13 24 14 27 15 28 20 29 16 30 19 31 17 32 18 33
DOCKED: REMARK H PARENT 13 25 13 26
DOCKED: USER                              x       y       z     vdW  Elec       q    Type
DOCKED: USER                           _______ _______ _______ _____ _____    ______ ____
DOCKED: ROOT
DOCKED: ATOM      1  C   UNL     1     141.034  77.535 222.287 -0.30 -0.08    +0.205 C  
DOCKED: ATOM      2  O   UNL     1     141.465  77.643 223.467 -0.35 +0.10    -0.277 OA 
DOCKED: ENDROOT
DOCKED: BRANCH   1   3
DOCKED: ATOM      3  C   UNL     1     139.947  76.547 221.987 -0.36 +0.00    -0.015 C  
DOCKED: BRANCH   3   4
DOCKED: ATOM      4  N   UNL     1     140.449  75.201 222.229 -0.31 +0.04    -0.640 NA 
DOCKED: BRANCH   4   5
DOCKED: ATOM      5  C   UNL     1     139.937  74.048 221.556 -0.25 -0.02    +0.101 C  
DOCKED: ATOM      6  O   UNL     1     139.537  74.138 220.364 -0.05 +0.07    -0.313 OA 
DOCKED: BRANCH   5   7
DOCKED: ATOM      7  C   UNL     1     139.838  72.771 222.280 -0.27 -0.01    +0.088 A  
DOCKED: ATOM      8  C   UNL     1     139.003  71.738 221.823 -0.17 -0.01    +0.031 A  
DOCKED: ATOM      9  N   UNL     1     140.509  72.622 223.454 -0.19 +0.01    -0.246 NA 
DOCKED: ATOM     10  C   UNL     1     138.873  70.571 222.577 -0.20 -0.00    +0.013 A  
DOCKED: ATOM     11  C   UNL     1     140.387  71.506 224.220 -0.41 -0.01    +0.071 A  
DOCKED: ATOM     12  C   UNL     1     139.554  70.449 223.795 -0.34 -0.00    +0.002 A  
DOCKED: ATOM     13  C   UNL     1     141.064  71.414 225.441 -0.54 -0.00    +0.030 A  
DOCKED: ATOM     14  C   UNL     1     139.405  69.311 224.602 -0.34 -0.00    +0.030 A  
DOCKED: ATOM     15  C   UNL     1     140.909  70.279 226.242 -0.55 -0.00    +0.023 A  
DOCKED: ATOM     16  C   UNL     1     140.081  69.229 225.825 -0.46 -0.01    +0.041 A  
DOCKED: ATOM     17  Cl  UNL     1     139.884  67.813 226.841 -0.80 +0.02    -0.084 Cl 
DOCKED: ENDBRANCH   5   7
DOCKED: ENDBRANCH   4   5
DOCKED: ENDBRANCH   3   4
DOCKED: ENDBRANCH   1   3
DOCKED: BRANCH   1  18
DOCKED: ATOM     18  N   UNL     1     141.599  78.343 221.240 -0.15 +0.18    -0.335 N  
DOCKED: ATOM     19  C   UNL     1     141.701  79.792 221.344 -0.34 -0.05    +0.120 C  
DOCKED: ATOM     20  C   UNL     1     141.741  77.876 219.864 -0.23 -0.08    +0.140 C  
DOCKED: ATOM     21  C   UNL     1     141.771  80.306 219.914 -0.31 -0.01    +0.024 C  
DOCKED: ATOM     22  C   UNL     1     142.189  79.110 219.072 -0.25 -0.02    +0.033 C  
DOCKED: BRANCH  20  23
DOCKED: ATOM     23  C   UNL     1     142.753  76.704 219.734 -0.21 -0.19    +0.291 C  
DOCKED: BRANCH  23  24
DOCKED: ATOM     24  N   UNL     1     142.364  75.526 220.533 -0.12 +0.16    -0.312 N  
DOCKED: ATOM     25  H   UNL     1     142.440  75.771 221.548 -0.37 -0.27    +0.352 HD 
DOCKED: ATOM     26  H   UNL     1     141.364  75.286 220.346 +0.12 -0.12    +0.352 HD 
DOCKED: BRANCH  24  27
DOCKED: ATOM     27  C   UNL     1     143.222  74.390 220.272 -0.29 -0.04    +0.129 A  
DOCKED: ATOM     28  C   UNL     1     142.678  73.173 219.821 -0.18 -0.01    +0.069 A  
DOCKED: ATOM     29  C   UNL     1     144.613  74.483 220.467 -0.45 -0.03    +0.069 A  
DOCKED: ATOM     30  C   UNL     1     143.510  72.085 219.544 -0.20 -0.00    +0.026 A  
DOCKED: ATOM     31  C   UNL     1     145.443  73.395 220.177 -0.55 -0.00    +0.026 A  
DOCKED: ATOM     32  C   UNL     1     144.892  72.198 219.710 -0.33 +0.00    +0.041 A  
DOCKED: ATOM     33  Cl  UNL     1     145.933  70.839 219.329 -0.23 -0.06    -0.084 Cl 
DOCKED: ENDBRANCH  24  27
DOCKED: ENDBRANCH  23  24
DOCKED: ENDBRANCH  20  23
DOCKED: ENDBRANCH   1  18
DOCKED: TORSDOF 8
DOCKED: TER
DOCKED: ENDMDL
________________________________________________________________________________


    FINAL DOCKED STATE:
    ________________________


Run:   2 / 20
Time taken for this run:   0.061s

DOCKED: MODEL        2
DOCKED: USER    Run = 2
DOCKED: USER
DOCKED: USER    Estimated Free Energy of Binding    =  -6.73 kcal/mol  [=(1)+(2)+(3)-(4)]
DOCKED: USER
DOCKED: USER    (1) Final Intermolecular Energy     =  -9.11 kcal/mol
DOCKED: USER        vdW + Hbond + desolv Energy     =  -8.92 kcal/mol
DOCKED: USER        Electrostatic Energy            =  -0.19 kcal/mol
DOCKED: USER        Moving Ligand-Fixed Receptor    =  -9.11 kcal/mol
DOCKED: USER        Moving Ligand-Moving Receptor   =  +0.00 kcal/mol
DOCKED: USER    (2) Final Total Internal Energy     =  -4.87 kcal/mol
DOCKED: USER    (3) Torsional Free Energy           =  +2.39 kcal/mol
DOCKED: USER    (4) Unbound System's Energy         =  -4.87 kcal/mol
DOCKED: USER
DOCKED: USER
DOCKED: REMARK SMILES O=C([N-]CC(=O)N1CCC[C@H]1C[NH2+]c1ccc(Cl)cc1)c1ccc2cc(Cl)ccc2n1
DOCKED: REMARK SMILES IDX 5 1 6 2 4 3 3 4 2 5 1 6 21 7 22 8 31 9 23 10 30 11 24 12
DOCKED: REMARK SMILES IDX 29 13 25 14 28 15 26 16 27 17 7 18 8 19 11 20 9 21 10 22
DOCKED: REMARK SMILES IDX 12 23 13 24 14 27 15 28 20 29 16 30 19 31 17 32 18 33
DOCKED: REMARK H PARENT 13 25 13 26
DOCKED: USER                              x       y       z     vdW  Elec       q    Type
DOCKED: USER                           _______ _______ _______ _____ _____    ______ ____
DOCKED: ROOT
DOCKED: ATOM      1  C   UNL     1     141.306  72.310 220.965 -0.15 -0.03    +0.205 C  
DOCKED: ATOM      2  O   UNL     1     142.372  71.775 221.373 -0.13 +0.02    -0.277 OA 
DOCKED: ENDROOT
DOCKED: BRANCH   1   3
DOCKED: ATOM      3  C   UNL     1     141.144  73.797 221.059 -0.27 +0.00    -0.015 C  
DOCKED: BRANCH   3   4
DOCKED: ATOM      4  N   UNL     1     140.435  74.121 222.290 -0.51 -0.04    -0.640 NA 
DOCKED: BRANCH   4   5
DOCKED: ATOM      5  C   UNL     1     139.225  74.882 222.313 -0.10 -0.02    +0.101 C  
DOCKED: ATOM      6  O   UNL     1     138.110  74.296 222.333 -0.11 +0.12    -0.313 OA 
DOCKED: BRANCH   5   7
DOCKED: ATOM      7  C   UNL     1     139.293  76.352 222.265 -0.30 -0.02    +0.088 A  
DOCKED: ATOM      8  C   UNL     1     138.134  77.129 222.105 -0.24 -0.01    +0.031 A  
DOCKED: ATOM      9  N   UNL     1     140.510  76.959 222.298 -0.26 +0.07    -0.246 NA 
DOCKED: ATOM     10  C   UNL     1     138.244  78.514 221.985 -0.19 -0.00    +0.013 A  
DOCKED: ATOM     11  C   UNL     1     140.650  78.305 222.163 -0.34 -0.02    +0.071 A  
DOCKED: ATOM     12  C   UNL     1     139.508  79.117 221.997 -0.24 -0.00    +0.002 A  
DOCKED: ATOM     13  C   UNL     1     141.924  78.882 222.161 -0.44 -0.02    +0.030 A  
DOCKED: ATOM     14  C   UNL     1     139.657  80.502 221.827 -0.22 -0.01    +0.030 A  
DOCKED: ATOM     15  C   UNL     1     142.066  80.262 221.987 -0.48 -0.01    +0.023 A  
DOCKED: ATOM     16  C   UNL     1     140.935  81.071 221.819 -0.35 -0.01    +0.041 A  
DOCKED: ATOM     17  Cl  UNL     1     141.123  82.800 221.592 -0.34 +0.01    -0.084 Cl 
DOCKED: ENDBRANCH   5   7
DOCKED: ENDBRANCH   4   5
DOCKED: ENDBRANCH   3   4
DOCKED: ENDBRANCH   1   3
DOCKED: BRANCH   1  18
DOCKED: ATOM     18  N   UNL     1     140.251  71.490 220.432 -0.03 +0.05    -0.335 N  
DOCKED: ATOM     19  C   UNL     1     140.367  70.807 219.151 -0.04 -0.02    +0.120 C  
DOCKED: ATOM     20  C   UNL     1     138.866  71.582 220.886 -0.07 -0.03    +0.140 C  
DOCKED: ATOM     21  C   UNL     1     138.941  70.568 218.678 -0.02 -0.00    +0.024 C  
DOCKED: ATOM     22  C   UNL     1     138.074  70.691 219.922 -0.03 -0.01    +0.033 C  
DOCKED: BRANCH  20  23
DOCKED: ATOM     23  C   UNL     1     138.693  71.135 222.365 -0.11 -0.06    +0.291 C  
DOCKED: BRANCH  23  24
DOCKED: ATOM     24  N   UNL     1     139.575  71.874 223.288 -0.19 +0.07    -0.312 N  
DOCKED: ATOM     25  H   UNL     1     140.500  72.021 222.820 +0.14 -0.03    +0.352 HD 
DOCKED: ATOM     26  H   UNL     1     139.173  72.819 223.483 -0.27 -0.18    +0.352 HD 
DOCKED: BRANCH  24  27
DOCKED: ATOM     27  C   UNL     1     139.797  71.146 224.519 -0.37 -0.03    +0.129 A  
DOCKED: ATOM     28  C   UNL     1     139.079  69.966 224.791 -0.34 -0.01    +0.069 A  
DOCKED: ATOM     29  C   UNL     1     140.731  71.607 225.466 -0.50 -0.01    +0.069 A  
DOCKED: ATOM     30  C   UNL     1     139.313  69.250 225.968 -0.45 -0.00    +0.026 A  
DOCKED: ATOM     31  C   UNL     1     140.971  70.881 226.636 -0.63 -0.00    +0.026 A  
DOCKED: ATOM     32  C   UNL     1     140.266  69.699 226.885 -0.53 -0.01    +0.041 A  
DOCKED: ATOM     33  Cl  UNL     1     140.577  68.778 228.344 -0.79 +0.02    -0.084 Cl 
DOCKED: ENDBRANCH  24  27
DOCKED: ENDBRANCH  23  24
DOCKED: ENDBRANCH  20  23
DOCKED: ENDBRANCH   1  18
DOCKED: TORSDOF 8
DOCKED: TER
DOCKED: ENDMDL
________________________________________________________________________________


    FINAL DOCKED STATE:
    ________________________


Run:   3 / 20
Time taken for this run:   0.061s

DOCKED: MODEL        3
DOCKED: USER    Run = 3
DOCKED: USER
DOCKED: USER    Estimated Free Energy of Binding    =  -6.80 kcal/mol  [=(1)+(2)+(3)-(4)]
DOCKED: USER
DOCKED: USER    (1) Final Intermolecular Energy     =  -9.18 kcal/mol
DOCKED: USER        vdW + Hbond + desolv Energy     =  -9.05 kcal/mol
DOCKED: USER        Electrostatic Energy            =  -0.13 kcal/mol
DOCKED: USER        Moving Ligand-Fixed Receptor    =  -9.18 kcal/mol
DOCKED: USER        Moving Ligand-Moving Receptor   =  +0.00 kcal/mol
DOCKED: USER    (2) Final Total Internal Energy     =  -5.34 kcal/mol
DOCKED: USER    (3) Torsional Free Energy           =  +2.39 kcal/mol
DOCKED: USER    (4) Unbound System's Energy         =  -5.34 kcal/mol
DOCKED: USER
DOCKED: USER
DOCKED: REMARK SMILES O=C([N-]CC(=O)N1CCC[C@H]1C[NH2+]c1ccc(Cl)cc1)c1ccc2cc(Cl)ccc2n1
DOCKED: REMARK SMILES IDX 5 1 6 2 4 3 3 4 2 5 1 6 21 7 22 8 31 9 23 10 30 11 24 12
DOCKED: REMARK SMILES IDX 29 13 25 14 28 15 26 16 27 17 7 18 8 19 11 20 9 21 10 22
DOCKED: REMARK SMILES IDX 12 23 13 24 14 27 15 28 20 29 16 30 19 31 17 32 18 33
DOCKED: REMARK H PARENT 13 25 13 26
DOCKED: USER                              x       y       z     vdW  Elec       q    Type
DOCKED: USER                           _______ _______ _______ _____ _____    ______ ____
DOCKED: ROOT
DOCKED: ATOM      1  C   UNL     1     139.768  74.787 221.831 -0.20 -0.03    +0.205 C  
DOCKED: ATOM      2  O   UNL     1     140.731  74.153 222.342 -0.70 -0.03    -0.277 OA 
DOCKED: ENDROOT
DOCKED: BRANCH   1   3
DOCKED: ATOM      3  C   UNL     1     138.377  74.241 221.954 -0.17 +0.00    -0.015 C  
DOCKED: BRANCH   3   4
DOCKED: ATOM      4  N   UNL     1     138.213  73.145 221.009 +0.02 +0.14    -0.640 NA 
DOCKED: BRANCH   4   5
DOCKED: ATOM      5  C   UNL     1     139.085  72.013 220.972 -0.10 -0.02    +0.101 C  
DOCKED: ATOM      6  O   UNL     1     139.662  71.694 219.897 -0.02 +0.06    -0.313 OA 
DOCKED: BRANCH   5   7
DOCKED: ATOM      7  C   UNL     1     139.265  71.197 222.183 -0.18 -0.02    +0.088 A  
DOCKED: ATOM      8  C   UNL     1     138.655  69.938 222.311 -0.16 -0.01    +0.031 A  
DOCKED: ATOM      9  N   UNL     1     139.974  71.709 223.226 -0.25 +0.04    -0.246 NA 
DOCKED: ATOM     10  C   UNL     1     138.784  69.227 223.504 -0.26 -0.00    +0.013 A  
DOCKED: ATOM     11  C   UNL     1     140.099  71.048 224.408 -0.41 -0.01    +0.071 A  
DOCKED: ATOM     12  C   UNL     1     139.496  69.783 224.574 -0.37 -0.00    +0.002 A  
DOCKED: ATOM     13  C   UNL     1     140.802  71.632 225.467 -0.51 -0.00    +0.030 A  
DOCKED: ATOM     14  C   UNL     1     139.602  69.117 225.805 -0.45 -0.00    +0.030 A  
DOCKED: ATOM     15  C   UNL     1     140.899  70.966 226.693 -0.64 -0.00    +0.023 A  
DOCKED: ATOM     16  C   UNL     1     140.300  69.711 226.862 -0.53 -0.01    +0.041 A  
DOCKED: ATOM     17  Cl  UNL     1     140.420  68.886 228.405 -0.76 +0.02    -0.084 Cl 
DOCKED: ENDBRANCH   5   7
DOCKED: ENDBRANCH   4   5
DOCKED: ENDBRANCH   3   4
DOCKED: ENDBRANCH   1   3
DOCKED: BRANCH   1  18
DOCKED: ATOM     18  N   UNL     1     140.013  76.014 221.122 -0.11 +0.09    -0.335 N  
DOCKED: ATOM     19  C   UNL     1     140.214  77.283 221.808 -0.29 -0.04    +0.120 C  
DOCKED: ATOM     20  C   UNL     1     139.692  76.193 219.709 -0.06 -0.04    +0.140 C  
DOCKED: ATOM     21  C   UNL     1     139.855  78.362 220.796 -0.16 -0.01    +0.024 C  
DOCKED: ATOM     22  C   UNL     1     139.927  77.683 219.436 -0.08 -0.01    +0.033 C  
DOCKED: BRANCH  20  23
DOCKED: ATOM     23  C   UNL     1     140.553  75.290 218.782 -0.02 -0.08    +0.291 C  
DOCKED: BRANCH  23  24
DOCKED: ATOM     24  N   UNL     1     140.784  73.949 219.352 -0.01 +0.07    -0.312 N  
DOCKED: ATOM     25  H   UNL     1     140.117  73.803 220.145 +0.08 -0.07    +0.352 HD 
DOCKED: ATOM     26  H   UNL     1     140.575  73.218 218.633 +0.05 -0.07    +0.352 HD 
DOCKED: BRANCH  24  27
DOCKED: ATOM     27  C   UNL     1     142.132  73.802 219.856 -0.15 -0.03    +0.129 A  
DOCKED: ATOM     28  C   UNL     1     143.012  74.900 219.871 -0.31 -0.03    +0.069 A  
DOCKED: ATOM     29  C   UNL     1     142.586  72.559 220.337 -0.21 -0.01    +0.069 A  
DOCKED: ATOM     30  C   UNL     1     144.306  74.764 220.383 -0.40 -0.01    +0.026 A  
DOCKED: ATOM     31  C   UNL     1     143.877  72.431 220.859 -0.32 -0.00    +0.026 A  
DOCKED: ATOM     32  C   UNL     1     144.735  73.534 220.888 -0.49 -0.01    +0.041 A  
DOCKED: ATOM     33  Cl  UNL     1     146.348  73.379 221.558 -0.88 +0.01    -0.084 Cl 
DOCKED: ENDBRANCH  24  27
DOCKED: ENDBRANCH  23  24
DOCKED: ENDBRANCH  20  23
DOCKED: ENDBRANCH   1  18
DOCKED: TORSDOF 8
DOCKED: TER
DOCKED: ENDMDL
________________________________________________________________________________


    FINAL DOCKED STATE:
    ________________________


Run:   4 / 20
Time taken for this run:   0.061s

DOCKED: MODEL        4
DOCKED: USER    Run = 4
DOCKED: USER
DOCKED: USER    Estimated Free Energy of Binding    =  -7.20 kcal/mol  [=(1)+(2)+(3)-(4)]
DOCKED: USER
DOCKED: USER    (1) Final Intermolecular Energy     =  -9.59 kcal/mol
DOCKED: USER        vdW + Hbond + desolv Energy     =  -9.41 kcal/mol
DOCKED: USER        Electrostatic Energy            =  -0.18 kcal/mol
DOCKED: USER        Moving Ligand-Fixed Receptor    =  -9.59 kcal/mol
DOCKED: USER        Moving Ligand-Moving Receptor   =  +0.00 kcal/mol
DOCKED: USER    (2) Final Total Internal Energy     =  -4.52 kcal/mol
DOCKED: USER    (3) Torsional Free Energy           =  +2.39 kcal/mol
DOCKED: USER    (4) Unbound System's Energy         =  -4.52 kcal/mol
DOCKED: USER
DOCKED: USER
DOCKED: REMARK SMILES O=C([N-]CC(=O)N1CCC[C@H]1C[NH2+]c1ccc(Cl)cc1)c1ccc2cc(Cl)ccc2n1
DOCKED: REMARK SMILES IDX 5 1 6 2 4 3 3 4 2 5 1 6 21 7 22 8 31 9 23 10 30 11 24 12
DOCKED: REMARK SMILES IDX 29 13 25 14 28 15 26 16 27 17 7 18 8 19 11 20 9 21 10 22
DOCKED: REMARK SMILES IDX 12 23 13 24 14 27 15 28 20 29 16 30 19 31 17 32 18 33
DOCKED: REMARK H PARENT 13 25 13 26
DOCKED: USER                              x       y       z     vdW  Elec       q    Type
DOCKED: USER                           _______ _______ _______ _____ _____    ______ ____
DOCKED: ROOT
DOCKED: ATOM      1  C   UNL     1     137.988  75.570 221.506 -0.14 -0.05    +0.205 C  
DOCKED: ATOM      2  O   UNL     1     138.313  76.424 222.374 -0.21 +0.06    -0.277 OA 
DOCKED: ENDROOT
DOCKED: BRANCH   1   3
DOCKED: ATOM      3  C   UNL     1     137.619  74.183 221.938 -0.16 +0.00    -0.015 C  
DOCKED: BRANCH   3   4
DOCKED: ATOM      4  N   UNL     1     138.649  73.256 221.488 -0.01 +0.15    -0.640 NA 
DOCKED: BRANCH   4   5
DOCKED: ATOM      5  C   UNL     1     139.878  73.059 222.191 -0.24 -0.01    +0.101 C  
DOCKED: ATOM      6  O   UNL     1     140.873  73.791 221.941 -0.68 +0.01    -0.313 OA 
DOCKED: BRANCH   5   7
DOCKED: ATOM      7  C   UNL     1     139.986  71.966 223.170 -0.31 -0.01    +0.088 A  
DOCKED: ATOM      8  C   UNL     1     139.482  70.685 222.890 -0.25 -0.01    +0.031 A  
DOCKED: ATOM      9  N   UNL     1     140.515  72.227 224.396 -0.03 +0.03    -0.246 NA 
DOCKED: ATOM     10  C   UNL     1     139.531  69.695 223.872 -0.28 -0.00    +0.013 A  
DOCKED: ATOM     11  C   UNL     1     140.558  71.288 225.379 -0.51 -0.01    +0.071 A  
DOCKED: ATOM     12  C   UNL     1     140.057  69.991 225.136 -0.43 -0.00    +0.002 A  
DOCKED: ATOM     13  C   UNL     1     141.073  71.613 226.639 -0.71 -0.00    +0.030 A  
DOCKED: ATOM     14  C   UNL     1     140.075  69.034 226.161 -0.50 -0.01    +0.030 A  
DOCKED: ATOM     15  C   UNL     1     141.084  70.656 227.658 -0.63 -0.00    +0.023 A  
DOCKED: ATOM     16  C   UNL     1     140.585  69.369 227.421 -0.58 -0.01    +0.041 A  
DOCKED: ATOM     17  Cl  UNL     1     140.594  68.177 228.707 -0.58 +0.02    -0.084 Cl 
DOCKED: ENDBRANCH   5   7
DOCKED: ENDBRANCH   4   5
DOCKED: ENDBRANCH   3   4
DOCKED: ENDBRANCH   1   3
DOCKED: BRANCH   1  18
DOCKED: ATOM     18  N   UNL     1     137.990  75.927 220.113 -0.01 +0.07    -0.335 N  
DOCKED: ATOM     19  C   UNL     1     136.766  76.234 219.385 -0.01 -0.02    +0.120 C  
DOCKED: ATOM     20  C   UNL     1     139.106  75.631 219.219 -0.03 -0.03    +0.140 C  
DOCKED: ATOM     21  C   UNL     1     137.081  75.978 217.918 -0.00 -0.00    +0.024 C  
DOCKED: ATOM     22  C   UNL     1     138.599  75.999 217.819 -0.01 -0.01    +0.033 C  
DOCKED: BRANCH  20  23
DOCKED: ATOM     23  C   UNL     1     140.394  76.415 219.593 -0.05 -0.09    +0.291 C  
DOCKED: BRANCH  23  24
DOCKED: ATOM     24  N   UNL     1     140.837  76.154 220.977 -0.14 +0.11    -0.312 N  
DOCKED: ATOM     25  H   UNL     1     140.050  75.701 221.498 +0.13 -0.08    +0.352 HD 
DOCKED: ATOM     26  H   UNL     1     141.635  75.478 220.972 +0.08 -0.14    +0.352 HD 
DOCKED: BRANCH  24  27
DOCKED: ATOM     27  C   UNL     1     141.200  77.373 221.666 -0.27 -0.06    +0.129 A  
DOCKED: ATOM     28  C   UNL     1     141.628  78.502 220.943 -0.30 -0.04    +0.069 A  
DOCKED: ATOM     29  C   UNL     1     141.134  77.449 223.070 -0.28 -0.02    +0.069 A  
DOCKED: ATOM     30  C   UNL     1     141.953  79.687 221.608 -0.42 -0.01    +0.026 A  
DOCKED: ATOM     31  C   UNL     1     141.450  78.641 223.730 -0.56 -0.01    +0.026 A  
DOCKED: ATOM     32  C   UNL     1     141.853  79.762 222.999 -0.55 -0.01    +0.041 A  
DOCKED: ATOM     33  Cl  UNL     1     142.232  81.262 223.824 -0.75 +0.01    -0.084 Cl 
DOCKED: ENDBRANCH  24  27
DOCKED: ENDBRANCH  23  24
DOCKED: ENDBRANCH  20  23
DOCKED: ENDBRANCH   1  18
DOCKED: TORSDOF 8
DOCKED: TER
DOCKED: ENDMDL
________________________________________________________________________________


    FINAL DOCKED STATE:
    ________________________


Run:   5 / 20
Time taken for this run:   0.061s

DOCKED: MODEL        5
DOCKED: USER    Run = 5
DOCKED: USER
DOCKED: USER    Estimated Free Energy of Binding    =  -5.70 kcal/mol  [=(1)+(2)+(3)-(4)]
DOCKED: USER
DOCKED: USER    (1) Final Intermolecular Energy     =  -8.09 kcal/mol
DOCKED: USER        vdW + Hbond + desolv Energy     =  -7.73 kcal/mol
DOCKED: USER        Electrostatic Energy            =  -0.36 kcal/mol
DOCKED: USER        Moving Ligand-Fixed Receptor    =  -8.09 kcal/mol
DOCKED: USER        Moving Ligand-Moving Receptor   =  +0.00 kcal/mol
DOCKED: USER    (2) Final Total Internal Energy     =  -6.06 kcal/mol
DOCKED: USER    (3) Torsional Free Energy           =  +2.39 kcal/mol
DOCKED: USER    (4) Unbound System's Energy         =  -6.06 kcal/mol
DOCKED: USER
DOCKED: USER
DOCKED: REMARK SMILES O=C([N-]CC(=O)N1CCC[C@H]1C[NH2+]c1ccc(Cl)cc1)c1ccc2cc(Cl)ccc2n1
DOCKED: REMARK SMILES IDX 5 1 6 2 4 3 3 4 2 5 1 6 21 7 22 8 31 9 23 10 30 11 24 12
DOCKED: REMARK SMILES IDX 29 13 25 14 28 15 26 16 27 17 7 18 8 19 11 20 9 21 10 22
DOCKED: REMARK SMILES IDX 12 23 13 24 14 27 15 28 20 29 16 30 19 31 17 32 18 33
DOCKED: REMARK H PARENT 13 25 13 26
DOCKED: USER                              x       y       z     vdW  Elec       q    Type
DOCKED: USER                           _______ _______ _______ _____ _____    ______ ____
DOCKED: ROOT
DOCKED: ATOM      1  C   UNL     1     141.833  72.745 220.111 -0.12 -0.03    +0.205 C  
DOCKED: ATOM      2  O   UNL     1     141.041  72.701 219.131 -0.02 +0.05    -0.277 OA 
DOCKED: ENDROOT
DOCKED: BRANCH   1   3
DOCKED: ATOM      3  C   UNL     1     141.282  72.750 221.505 -0.26 +0.00    -0.015 C  
DOCKED: BRANCH   3   4
DOCKED: ATOM      4  N   UNL     1     141.106  74.128 221.943 -0.35 +0.01    -0.640 NA 
DOCKED: BRANCH   4   5
DOCKED: ATOM      5  C   UNL     1     139.834  74.778 221.971 -0.22 -0.01    +0.101 C  
DOCKED: ATOM      6  O   UNL     1     138.775  74.094 221.988 -0.24 +0.08    -0.313 OA 
DOCKED: BRANCH   5   7
DOCKED: ATOM      7  C   UNL     1     139.770  76.248 221.933 -0.31 -0.02    +0.088 A  
DOCKED: ATOM      8  C   UNL     1     138.594  76.916 221.555 -0.20 -0.01    +0.031 A  
DOCKED: ATOM      9  N   UNL     1     140.895  76.966 222.194 -0.26 +0.09    -0.246 NA 
DOCKED: ATOM     10  C   UNL     1     138.593  78.307 221.453 -0.15 -0.00    +0.013 A  
DOCKED: ATOM     11  C   UNL     1     140.930  78.320 222.085 -0.36 -0.03    +0.071 A  
DOCKED: ATOM     12  C   UNL     1     139.769  79.025 221.703 -0.23 -0.00    +0.002 A  
DOCKED: ATOM     13  C   UNL     1     142.122  79.014 222.323 -0.48 -0.02    +0.030 A  
DOCKED: ATOM     14  C   UNL     1     139.815  80.420 221.561 -0.20 -0.01    +0.030 A  
DOCKED: ATOM     15  C   UNL     1     142.163  80.404 222.175 -0.51 -0.01    +0.023 A  
DOCKED: ATOM     16  C   UNL     1     141.013  81.106 221.794 -0.36 -0.01    +0.041 A  
DOCKED: ATOM     17  Cl  UNL     1     141.076  82.848 221.602 -0.33 +0.01    -0.084 Cl 
DOCKED: ENDBRANCH   5   7
DOCKED: ENDBRANCH   4   5
DOCKED: ENDBRANCH   3   4
DOCKED: ENDBRANCH   1   3
DOCKED: BRANCH   1  18
DOCKED: ATOM     18  N   UNL     1     143.252  72.810 219.885 -0.08 +0.05    -0.335 N  
DOCKED: ATOM     19  C   UNL     1     144.010  71.680 219.364 -0.18 -0.00    +0.120 C  
DOCKED: ATOM     20  C   UNL     1     144.111  73.813 220.507 -0.35 -0.04    +0.140 C  
DOCKED: ATOM     21  C   UNL     1     145.447  71.905 219.810 -0.32 +0.01    +0.024 C  
DOCKED: ATOM     22  C   UNL     1     145.540  73.385 220.151 -0.55 -0.00    +0.033 C  
DOCKED: BRANCH  20  23
DOCKED: ATOM     23  C   UNL     1     143.799  75.254 220.015 -0.21 -0.16    +0.291 C  
DOCKED: BRANCH  23  24
DOCKED: ATOM     24  N   UNL     1     142.382  75.624 220.204 -0.15 +0.15    -0.312 N  
DOCKED: ATOM     25  H   UNL     1     141.787  74.794 219.975 +0.13 -0.11    +0.352 HD 
DOCKED: ATOM     26  H   UNL     1     142.209  75.862 221.207 -0.32 -0.22    +0.352 HD 
DOCKED: BRANCH  24  27
DOCKED: ATOM     27  C   UNL     1     141.991  76.718 219.342 -0.21 -0.07    +0.129 A  
DOCKED: ATOM     28  C   UNL     1     140.663  76.830 218.888 -0.08 -0.03    +0.069 A  
DOCKED: ATOM     29  C   UNL     1     142.931  77.685 218.940 -0.19 -0.05    +0.069 A  
DOCKED: ATOM     30  C   UNL     1     140.280  77.901 218.077 -0.06 -0.01    +0.026 A  
DOCKED: ATOM     31  C   UNL     1     142.540  78.762 218.138 -0.32 -0.02    +0.026 A  
DOCKED: ATOM     32  C   UNL     1     141.213  78.874 217.711 -0.14 -0.02    +0.041 A  
DOCKED: ATOM     33  Cl  UNL     1     140.718  80.233 216.720 -0.11 +0.04    -0.084 Cl 
DOCKED: ENDBRANCH  24  27
DOCKED: ENDBRANCH  23  24
DOCKED: ENDBRANCH  20  23
DOCKED: ENDBRANCH   1  18
DOCKED: TORSDOF 8
DOCKED: TER
DOCKED: ENDMDL
________________________________________________________________________________


    FINAL DOCKED STATE:
    ________________________


Run:   6 / 20
Time taken for this run:   0.061s

DOCKED: MODEL        6
DOCKED: USER    Run = 6
DOCKED: USER
DOCKED: USER    Estimated Free Energy of Binding    =  -8.12 kcal/mol  [=(1)+(2)+(3)-(4)]
DOCKED: USER
DOCKED: USER    (1) Final Intermolecular Energy     = -10.50 kcal/mol
DOCKED: USER        vdW + Hbond + desolv Energy     = -10.34 kcal/mol
DOCKED: USER        Electrostatic Energy            =  -0.16 kcal/mol
DOCKED: USER        Moving Ligand-Fixed Receptor    = -10.50 kcal/mol
DOCKED: USER        Moving Ligand-Moving Receptor   =  +0.00 kcal/mol
DOCKED: USER    (2) Final Total Internal Energy     =  -4.56 kcal/mol
DOCKED: USER    (3) Torsional Free Energy           =  +2.39 kcal/mol
DOCKED: USER    (4) Unbound System's Energy         =  -4.56 kcal/mol
DOCKED: USER
DOCKED: USER
DOCKED: REMARK SMILES O=C([N-]CC(=O)N1CCC[C@H]1C[NH2+]c1ccc(Cl)cc1)c1ccc2cc(Cl)ccc2n1
DOCKED: REMARK SMILES IDX 5 1 6 2 4 3 3 4 2 5 1 6 21 7 22 8 31 9 23 10 30 11 24 12
DOCKED: REMARK SMILES IDX 29 13 25 14 28 15 26 16 27 17 7 18 8 19 11 20 9 21 10 22
DOCKED: REMARK SMILES IDX 12 23 13 24 14 27 15 28 20 29 16 30 19 31 17 32 18 33
DOCKED: REMARK H PARENT 13 25 13 26
DOCKED: USER                              x       y       z     vdW  Elec       q    Type
DOCKED: USER                           _______ _______ _______ _____ _____    ______ ____
DOCKED: ROOT
DOCKED: ATOM      1  C   UNL     1     142.496  71.977 219.263 -0.07 -0.03    +0.205 C  
DOCKED: ATOM      2  O   UNL     1     142.204  71.611 218.092 -0.01 +0.04    -0.277 OA 
DOCKED: ENDROOT
DOCKED: BRANCH   1   3
DOCKED: ATOM      3  C   UNL     1     141.589  71.609 220.398 -0.17 +0.00    -0.015 C  
DOCKED: BRANCH   3   4
DOCKED: ATOM      4  N   UNL     1     140.671  72.712 220.649 +0.02 +0.10    -0.640 NA 
DOCKED: BRANCH   4   5
DOCKED: ATOM      5  C   UNL     1     140.147  73.007 221.946 -0.26 -0.01    +0.101 C  
DOCKED: ATOM      6  O   UNL     1     139.720  74.164 222.207 -0.77 +0.04    -0.313 OA 
DOCKED: BRANCH   5   7
DOCKED: ATOM      7  C   UNL     1     140.155  71.966 222.986 -0.31 -0.01    +0.088 A  
DOCKED: ATOM      8  C   UNL     1     139.558  70.714 222.767 -0.24 -0.01    +0.031 A  
DOCKED: ATOM      9  N   UNL     1     140.685  72.254 224.206 -0.04 +0.02    -0.246 NA 
DOCKED: ATOM     10  C   UNL     1     139.516  69.779 223.803 -0.28 -0.00    +0.013 A  
DOCKED: ATOM     11  C   UNL     1     140.641  71.371 225.239 -0.50 -0.01    +0.071 A  
DOCKED: ATOM     12  C   UNL     1     140.045  70.105 225.058 -0.44 -0.00    +0.002 A  
DOCKED: ATOM     13  C   UNL     1     141.161  71.727 226.488 -0.69 -0.00    +0.030 A  
DOCKED: ATOM     14  C   UNL     1     139.973  69.208 226.134 -0.49 -0.00    +0.030 A  
DOCKED: ATOM     15  C   UNL     1     141.083  70.830 227.558 -0.65 -0.00    +0.023 A  
DOCKED: ATOM     16  C   UNL     1     140.489  69.573 227.383 -0.57 -0.01    +0.041 A  
DOCKED: ATOM     17  Cl  UNL     1     140.387  68.458 228.732 -0.62 +0.02    -0.084 Cl 
DOCKED: ENDBRANCH   5   7
DOCKED: ENDBRANCH   4   5
DOCKED: ENDBRANCH   3   4
DOCKED: ENDBRANCH   1   3
DOCKED: BRANCH   1  18
DOCKED: ATOM     18  N   UNL     1     143.681  72.758 219.495 -0.06 +0.04    -0.335 N  
DOCKED: ATOM     19  C   UNL     1     145.009  72.286 219.128 -0.25 +0.03    +0.120 C  
DOCKED: ATOM     20  C   UNL     1     143.731  73.863 220.448 -0.31 -0.04    +0.140 C  
DOCKED: ATOM     21  C   UNL     1     145.980  73.048 220.017 -0.52 +0.01    +0.024 C  
DOCKED: ATOM     22  C   UNL     1     145.210  74.263 220.514 -0.48 -0.01    +0.033 C  
DOCKED: BRANCH  20  23
DOCKED: ATOM     23  C   UNL     1     142.827  75.055 220.026 -0.20 -0.13    +0.291 C  
DOCKED: BRANCH  23  24
DOCKED: ATOM     24  N   UNL     1     141.656  75.220 220.910 -0.16 +0.11    -0.312 N  
DOCKED: ATOM     25  H   UNL     1     140.805  74.885 220.403 +0.11 -0.09    +0.352 HD 
DOCKED: ATOM     26  H   UNL     1     141.767  74.621 221.760 +0.10 -0.06    +0.352 HD 
DOCKED: BRANCH  24  27
DOCKED: ATOM     27  C   UNL     1     141.452  76.604 221.281 -0.19 -0.06    +0.129 A  
DOCKED: ATOM     28  C   UNL     1     140.759  76.932 222.462 -0.37 -0.02    +0.069 A  
DOCKED: ATOM     29  C   UNL     1     141.939  77.643 220.466 -0.27 -0.04    +0.069 A  
DOCKED: ATOM     30  C   UNL     1     140.585  78.268 222.832 -0.42 -0.01    +0.026 A  
DOCKED: ATOM     31  C   UNL     1     141.773  78.979 220.848 -0.32 -0.01    +0.026 A  
DOCKED: ATOM     32  C   UNL     1     141.101  79.291 222.033 -0.37 -0.01    +0.041 A  
DOCKED: ATOM     33  Cl  UNL     1     140.907  80.964 222.521 -0.52 +0.02    -0.084 Cl 
DOCKED: ENDBRANCH  24  27
DOCKED: ENDBRANCH  23  24
DOCKED: ENDBRANCH  20  23
DOCKED: ENDBRANCH   1  18
DOCKED: TORSDOF 8
DOCKED: TER
DOCKED: ENDMDL
________________________________________________________________________________


    FINAL DOCKED STATE:
    ________________________


Run:   7 / 20
Time taken for this run:   0.061s

DOCKED: MODEL        7
DOCKED: USER    Run = 7
DOCKED: USER
DOCKED: USER    Estimated Free Energy of Binding    =  -7.38 kcal/mol  [=(1)+(2)+(3)-(4)]
DOCKED: USER
DOCKED: USER    (1) Final Intermolecular Energy     =  -9.77 kcal/mol
DOCKED: USER        vdW + Hbond + desolv Energy     =  -9.46 kcal/mol
DOCKED: USER        Electrostatic Energy            =  -0.31 kcal/mol
DOCKED: USER        Moving Ligand-Fixed Receptor    =  -9.77 kcal/mol
DOCKED: USER        Moving Ligand-Moving Receptor   =  +0.00 kcal/mol
DOCKED: USER    (2) Final Total Internal Energy     =  -4.35 kcal/mol
DOCKED: USER    (3) Torsional Free Energy           =  +2.39 kcal/mol
DOCKED: USER    (4) Unbound System's Energy         =  -4.35 kcal/mol
DOCKED: USER
DOCKED: USER
DOCKED: REMARK SMILES O=C([N-]CC(=O)N1CCC[C@H]1C[NH2+]c1ccc(Cl)cc1)c1ccc2cc(Cl)ccc2n1
DOCKED: REMARK SMILES IDX 5 1 6 2 4 3 3 4 2 5 1 6 21 7 22 8 31 9 23 10 30 11 24 12
DOCKED: REMARK SMILES IDX 29 13 25 14 28 15 26 16 27 17 7 18 8 19 11 20 9 21 10 22
DOCKED: REMARK SMILES IDX 12 23 13 24 14 27 15 28 20 29 16 30 19 31 17 32 18 33
DOCKED: REMARK H PARENT 13 25 13 26
DOCKED: USER                              x       y       z     vdW  Elec       q    Type
DOCKED: USER                           _______ _______ _______ _____ _____    ______ ____
DOCKED: ROOT
DOCKED: ATOM      1  C   UNL     1     140.731  76.459 221.506 -0.26 -0.07    +0.205 C  
DOCKED: ATOM      2  O   UNL     1     141.403  75.824 222.363 -0.25 +0.09    -0.277 OA 
DOCKED: ENDROOT
DOCKED: BRANCH   1   3
DOCKED: ATOM      3  C   UNL     1     139.250  76.243 221.423 -0.25 +0.00    -0.015 C  
DOCKED: BRANCH   3   4
DOCKED: ATOM      4  N   UNL     1     138.944  74.885 221.851 -0.12 +0.15    -0.640 NA 
DOCKED: BRANCH   4   5
DOCKED: ATOM      5  C   UNL     1     139.702  73.748 221.432 -0.22 -0.02    +0.101 C  
DOCKED: ATOM      6  O   UNL     1     140.310  73.766 220.328 -0.06 +0.06    -0.313 OA 
DOCKED: BRANCH   5   7
DOCKED: ATOM      7  C   UNL     1     139.728  72.543 222.276 -0.26 -0.02    +0.088 A  
DOCKED: ATOM      8  C   UNL     1     139.013  71.388 221.920 -0.17 -0.01    +0.031 A  
DOCKED: ATOM      9  N   UNL     1     140.397  72.579 223.461 -0.25 +0.02    -0.246 NA 
DOCKED: ATOM     10  C   UNL     1     138.997  70.292 222.783 -0.21 -0.00    +0.013 A  
DOCKED: ATOM     11  C   UNL     1     140.383  71.535 224.331 -0.42 -0.01    +0.071 A  
DOCKED: ATOM     12  C   UNL     1     139.671  70.360 224.008 -0.35 -0.00    +0.002 A  
DOCKED: ATOM     13  C   UNL     1     141.050  71.633 225.557 -0.52 -0.00    +0.030 A  
DOCKED: ATOM     14  C   UNL     1     139.633  69.295 224.921 -0.37 -0.00    +0.030 A  
DOCKED: ATOM     15  C   UNL     1     141.005  70.570 226.464 -0.59 -0.00    +0.023 A  
DOCKED: ATOM     16  C   UNL     1     140.297  69.404 226.149 -0.48 -0.01    +0.041 A  
DOCKED: ATOM     17  Cl  UNL     1     140.237  68.079 227.296 -0.79 +0.02    -0.084 Cl 
DOCKED: ENDBRANCH   5   7
DOCKED: ENDBRANCH   4   5
DOCKED: ENDBRANCH   3   4
DOCKED: ENDBRANCH   1   3
DOCKED: BRANCH   1  18
DOCKED: ATOM     18  N   UNL     1     141.390  77.367 220.606 -0.12 +0.17    -0.335 N  
DOCKED: ATOM     19  C   UNL     1     141.127  78.800 220.615 -0.23 -0.05    +0.120 C  
DOCKED: ATOM     20  C   UNL     1     142.045  76.932 219.376 -0.23 -0.08    +0.140 C  
DOCKED: ATOM     21  C   UNL     1     141.511  79.300 219.230 -0.25 -0.01    +0.024 C  
DOCKED: ATOM     22  C   UNL     1     142.423  78.229 218.650 -0.28 -0.02    +0.033 C  
DOCKED: BRANCH  20  23
DOCKED: ATOM     23  C   UNL     1     143.285  76.036 219.645 -0.24 -0.18    +0.291 C  
DOCKED: BRANCH  23  24
DOCKED: ATOM     24  N   UNL     1     142.989  74.915 220.558 -0.15 +0.14    -0.312 N  
DOCKED: ATOM     25  H   UNL     1     143.259  75.195 221.530 -0.19 -0.26    +0.352 HD 
DOCKED: ATOM     26  H   UNL     1     141.960  74.727 220.565 +0.13 -0.11    +0.352 HD 
DOCKED: BRANCH  24  27
DOCKED: ATOM     27  C   UNL     1     143.726  73.722 220.205 -0.30 -0.03    +0.129 A  
DOCKED: ATOM     28  C   UNL     1     143.051  72.571 219.756 -0.18 -0.01    +0.069 A  
DOCKED: ATOM     29  C   UNL     1     145.130  73.690 220.305 -0.51 -0.01    +0.069 A  
DOCKED: ATOM     30  C   UNL     1     143.766  71.428 219.390 -0.19 -0.00    +0.026 A  
DOCKED: ATOM     31  C   UNL     1     145.842  72.548 219.926 -0.45 +0.01    +0.026 A  
DOCKED: ATOM     32  C   UNL     1     145.161  71.419 219.463 -0.28 +0.01    +0.041 A  
DOCKED: ATOM     33  Cl  UNL     1     146.053  69.992 218.970 -0.40 -0.06    -0.084 Cl 
DOCKED: ENDBRANCH  24  27
DOCKED: ENDBRANCH  23  24
DOCKED: ENDBRANCH  20  23
DOCKED: ENDBRANCH   1  18
DOCKED: TORSDOF 8
DOCKED: TER
DOCKED: ENDMDL
________________________________________________________________________________


    FINAL DOCKED STATE:
    ________________________


Run:   8 / 20
Time taken for this run:   0.061s

DOCKED: MODEL        8
DOCKED: USER    Run = 8
DOCKED: USER
DOCKED: USER    Estimated Free Energy of Binding    =  -7.93 kcal/mol  [=(1)+(2)+(3)-(4)]
DOCKED: USER
DOCKED: USER    (1) Final Intermolecular Energy     = -10.32 kcal/mol
DOCKED: USER        vdW + Hbond + desolv Energy     = -10.04 kcal/mol
DOCKED: USER        Electrostatic Energy            =  -0.27 kcal/mol
DOCKED: USER        Moving Ligand-Fixed Receptor    = -10.32 kcal/mol
DOCKED: USER        Moving Ligand-Moving Receptor   =  +0.00 kcal/mol
DOCKED: USER    (2) Final Total Internal Energy     =  -4.70 kcal/mol
DOCKED: USER    (3) Torsional Free Energy           =  +2.39 kcal/mol
DOCKED: USER    (4) Unbound System's Energy         =  -4.70 kcal/mol
DOCKED: USER
DOCKED: USER
DOCKED: REMARK SMILES O=C([N-]CC(=O)N1CCC[C@H]1C[NH2+]c1ccc(Cl)cc1)c1ccc2cc(Cl)ccc2n1
DOCKED: REMARK SMILES IDX 5 1 6 2 4 3 3 4 2 5 1 6 21 7 22 8 31 9 23 10 30 11 24 12
DOCKED: REMARK SMILES IDX 29 13 25 14 28 15 26 16 27 17 7 18 8 19 11 20 9 21 10 22
DOCKED: REMARK SMILES IDX 12 23 13 24 14 27 15 28 20 29 16 30 19 31 17 32 18 33
DOCKED: REMARK H PARENT 13 25 13 26
DOCKED: USER                              x       y       z     vdW  Elec       q    Type
DOCKED: USER                           _______ _______ _______ _____ _____    ______ ____
DOCKED: ROOT
DOCKED: ATOM      1  C   UNL     1     143.166  74.392 219.909 -0.23 -0.07    +0.205 C  
DOCKED: ATOM      2  O   UNL     1     144.130  74.505 220.713 -0.32 +0.11    -0.277 OA 
DOCKED: ENDROOT
DOCKED: BRANCH   1   3
DOCKED: ATOM      3  C   UNL     1     142.150  73.309 220.123 -0.21 +0.00    -0.015 C  
DOCKED: BRANCH   3   4
DOCKED: ATOM      4  N   UNL     1     140.865  73.919 220.436 +0.02 +0.13    -0.640 NA 
DOCKED: BRANCH   4   5
DOCKED: ATOM      5  C   UNL     1     140.282  73.879 221.741 -0.23 -0.01    +0.101 C  
DOCKED: ATOM      6  O   UNL     1     139.998  74.952 222.339 -0.68 +0.02    -0.313 OA 
DOCKED: BRANCH   5   7
DOCKED: ATOM      7  C   UNL     1     140.063  72.581 222.397 -0.29 -0.01    +0.088 A  
DOCKED: ATOM      8  C   UNL     1     139.161  71.642 221.871 -0.18 -0.01    +0.031 A  
DOCKED: ATOM      9  N   UNL     1     140.691  72.322 223.576 -0.20 +0.01    -0.246 NA 
DOCKED: ATOM     10  C   UNL     1     138.920  70.454 222.562 -0.20 -0.00    +0.013 A  
DOCKED: ATOM     11  C   UNL     1     140.461  71.183 224.283 -0.41 -0.01    +0.071 A  
DOCKED: ATOM     12  C   UNL     1     139.558  70.219 223.787 -0.32 -0.00    +0.002 A  
DOCKED: ATOM     13  C   UNL     1     141.097  70.978 225.512 -0.56 -0.00    +0.030 A  
DOCKED: ATOM     14  C   UNL     1     139.299  69.058 224.532 -0.34 -0.00    +0.030 A  
DOCKED: ATOM     15  C   UNL     1     140.832  69.822 226.252 -0.52 -0.00    +0.023 A  
DOCKED: ATOM     16  C   UNL     1     139.934  68.864 225.764 -0.47 -0.01    +0.041 A  
DOCKED: ATOM     17  Cl  UNL     1     139.600  67.421 226.703 -0.66 +0.01    -0.084 Cl 
DOCKED: ENDBRANCH   5   7
DOCKED: ENDBRANCH   4   5
DOCKED: ENDBRANCH   3   4
DOCKED: ENDBRANCH   1   3
DOCKED: BRANCH   1  18
DOCKED: ATOM     18  N   UNL     1     143.058  75.285 218.787 -0.11 +0.15    -0.335 N  
DOCKED: ATOM     19  C   UNL     1     143.682  75.001 217.502 -0.15 -0.05    +0.120 C  
DOCKED: ATOM     20  C   UNL     1     142.688  76.691 218.923 -0.27 -0.08    +0.140 C  
DOCKED: ATOM     21  C   UNL     1     143.856  76.349 216.819 -0.17 -0.02    +0.024 C  
DOCKED: ATOM     22  C   UNL     1     142.894  77.291 217.527 -0.27 -0.02    +0.033 C  
DOCKED: BRANCH  20  23
DOCKED: ATOM     23  C   UNL     1     141.229  76.878 219.425 -0.10 -0.12    +0.291 C  
DOCKED: BRANCH  23  24
DOCKED: ATOM     24  N   UNL     1     141.086  76.611 220.869 -0.13 +0.13    -0.312 N  
DOCKED: ATOM     25  H   UNL     1     140.093  76.342 221.063 +0.12 -0.10    +0.352 HD 
DOCKED: ATOM     26  H   UNL     1     141.686  75.798 221.140 +0.00 -0.16    +0.352 HD 
DOCKED: BRANCH  24  27
DOCKED: ATOM     27  C   UNL     1     141.408  77.774 221.667 -0.27 -0.07    +0.129 A  
DOCKED: ATOM     28  C   UNL     1     141.310  77.727 223.071 -0.35 -0.03    +0.069 A  
DOCKED: ATOM     29  C   UNL     1     141.820  78.972 221.053 -0.32 -0.04    +0.069 A  
DOCKED: ATOM     30  C   UNL     1     141.646  78.843 223.841 -0.59 -0.01    +0.026 A  
DOCKED: ATOM     31  C   UNL     1     142.167  80.082 221.830 -0.47 -0.01    +0.026 A  
DOCKED: ATOM     32  C   UNL     1     142.086  80.016 223.224 -0.59 -0.01    +0.041 A  
DOCKED: ATOM     33  Cl  UNL     1     142.537  81.402 224.200 -0.60 +0.01    -0.084 Cl 
DOCKED: ENDBRANCH  24  27
DOCKED: ENDBRANCH  23  24
DOCKED: ENDBRANCH  20  23
DOCKED: ENDBRANCH   1  18
DOCKED: TORSDOF 8
DOCKED: TER
DOCKED: ENDMDL
________________________________________________________________________________


    FINAL DOCKED STATE:
    ________________________


Run:   9 / 20
Time taken for this run:   0.061s

DOCKED: MODEL        9
DOCKED: USER    Run = 9
DOCKED: USER
DOCKED: USER    Estimated Free Energy of Binding    =  -7.03 kcal/mol  [=(1)+(2)+(3)-(4)]
DOCKED: USER
DOCKED: USER    (1) Final Intermolecular Energy     =  -9.42 kcal/mol
DOCKED: USER        vdW + Hbond + desolv Energy     =  -9.23 kcal/mol
DOCKED: USER        Electrostatic Energy            =  -0.19 kcal/mol
DOCKED: USER        Moving Ligand-Fixed Receptor    =  -9.42 kcal/mol
DOCKED: USER        Moving Ligand-Moving Receptor   =  +0.00 kcal/mol
DOCKED: USER    (2) Final Total Internal Energy     =  -4.86 kcal/mol
DOCKED: USER    (3) Torsional Free Energy           =  +2.39 kcal/mol
DOCKED: USER    (4) Unbound System's Energy         =  -4.86 kcal/mol
DOCKED: USER
DOCKED: USER
DOCKED: REMARK SMILES O=C([N-]CC(=O)N1CCC[C@H]1C[NH2+]c1ccc(Cl)cc1)c1ccc2cc(Cl)ccc2n1
DOCKED: REMARK SMILES IDX 5 1 6 2 4 3 3 4 2 5 1 6 21 7 22 8 31 9 23 10 30 11 24 12
DOCKED: REMARK SMILES IDX 29 13 25 14 28 15 26 16 27 17 7 18 8 19 11 20 9 21 10 22
DOCKED: REMARK SMILES IDX 12 23 13 24 14 27 15 28 20 29 16 30 19 31 17 32 18 33
DOCKED: REMARK H PARENT 13 25 13 26
DOCKED: USER                              x       y       z     vdW  Elec       q    Type
DOCKED: USER                           _______ _______ _______ _____ _____    ______ ____
DOCKED: ROOT
DOCKED: ATOM      1  C   UNL     1     140.230  75.365 220.207 -0.10 -0.05    +0.205 C  
DOCKED: ATOM      2  O   UNL     1     139.376  75.084 219.324 -0.02 +0.07    -0.277 OA 
DOCKED: ENDROOT
DOCKED: BRANCH   1   3
DOCKED: ATOM      3  C   UNL     1     141.127  74.285 220.734 -0.26 +0.00    -0.015 C  
DOCKED: BRANCH   3   4
DOCKED: ATOM      4  N   UNL     1     140.653  73.874 222.049 -0.53 +0.00    -0.640 NA 
DOCKED: BRANCH   4   5
DOCKED: ATOM      5  C   UNL     1     139.610  72.914 222.233 -0.23 -0.02    +0.101 C  
DOCKED: ATOM      6  O   UNL     1     138.536  73.014 221.580 -0.10 +0.07    -0.313 OA 
DOCKED: BRANCH   5   7
DOCKED: ATOM      7  C   UNL     1     139.781  71.839 223.223 -0.31 -0.02    +0.088 A  
DOCKED: ATOM      8  C   UNL     1     139.301  70.542 222.981 -0.24 -0.01    +0.031 A  
DOCKED: ATOM      9  N   UNL     1     140.347  72.132 224.426 -0.11 +0.04    -0.246 NA 
DOCKED: ATOM     10  C   UNL     1     139.411  69.568 223.974 -0.29 -0.00    +0.013 A  
DOCKED: ATOM     11  C   UNL     1     140.449  71.210 225.420 -0.51 -0.01    +0.071 A  
DOCKED: ATOM     12  C   UNL     1     139.974  69.897 225.213 -0.43 -0.00    +0.002 A  
DOCKED: ATOM     13  C   UNL     1     141.000  71.567 226.655 -0.70 -0.00    +0.030 A  
DOCKED: ATOM     14  C   UNL     1     140.053  68.956 226.251 -0.52 -0.01    +0.030 A  
DOCKED: ATOM     15  C   UNL     1     141.072  70.626 227.687 -0.63 -0.00    +0.023 A  
DOCKED: ATOM     16  C   UNL     1     140.599  69.323 227.486 -0.58 -0.01    +0.041 A  
DOCKED: ATOM     17  Cl  UNL     1     140.685  68.152 228.788 -0.57 +0.02    -0.084 Cl 
DOCKED: ENDBRANCH   5   7
DOCKED: ENDBRANCH   4   5
DOCKED: ENDBRANCH   3   4
DOCKED: ENDBRANCH   1   3
DOCKED: BRANCH   1  18
DOCKED: ATOM     18  N   UNL     1     140.325  76.708 220.712 -0.07 +0.11    -0.335 N  
DOCKED: ATOM     19  C   UNL     1     141.089  77.744 220.031 -0.19 -0.05    +0.120 C  
DOCKED: ATOM     20  C   UNL     1     140.033  77.058 222.099 -0.31 -0.04    +0.140 C  
DOCKED: ATOM     21  C   UNL     1     141.436  78.772 221.097 -0.34 -0.01    +0.024 C  
DOCKED: ATOM     22  C   UNL     1     140.454  78.526 222.234 -0.36 -0.01    +0.033 C  
DOCKED: BRANCH  20  23
DOCKED: ATOM     23  C   UNL     1     138.537  76.848 222.464 -0.18 -0.06    +0.291 C  
DOCKED: BRANCH  23  24
DOCKED: ATOM     24  N   UNL     1     138.117  75.438 222.352 -0.14 +0.09    -0.312 N  
DOCKED: ATOM     25  H   UNL     1     138.076  75.182 221.338 +0.08 -0.08    +0.352 HD 
DOCKED: ATOM     26  H   UNL     1     138.831  74.819 222.799 -0.40 -0.13    +0.352 HD 
DOCKED: BRANCH  24  27
DOCKED: ATOM     27  C   UNL     1     136.811  75.217 222.933 -0.09 -0.04    +0.129 A  
DOCKED: ATOM     28  C   UNL     1     136.224  73.937 222.905 -0.14 -0.02    +0.069 A  
DOCKED: ATOM     29  C   UNL     1     136.104  76.276 223.532 -0.21 -0.01    +0.069 A  
DOCKED: ATOM     30  C   UNL     1     134.974  73.719 223.489 -0.17 -0.00    +0.026 A  
DOCKED: ATOM     31  C   UNL     1     134.858  76.050 224.126 -0.24 -0.00    +0.026 A  
DOCKED: ATOM     32  C   UNL     1     134.295  74.770 224.110 -0.19 -0.01    +0.041 A  
DOCKED: ATOM     33  Cl  UNL     1     132.742  74.481 224.869 -0.18 +0.01    -0.084 Cl 
DOCKED: ENDBRANCH  24  27
DOCKED: ENDBRANCH  23  24
DOCKED: ENDBRANCH  20  23
DOCKED: ENDBRANCH   1  18
DOCKED: TORSDOF 8
DOCKED: TER
DOCKED: ENDMDL
________________________________________________________________________________


    FINAL DOCKED STATE:
    ________________________


Run:   10 / 20
Time taken for this run:   0.061s

DOCKED: MODEL        10
DOCKED: USER    Run = 10
DOCKED: USER
DOCKED: USER    Estimated Free Energy of Binding    =  -6.65 kcal/mol  [=(1)+(2)+(3)-(4)]
DOCKED: USER
DOCKED: USER    (1) Final Intermolecular Energy     =  -9.04 kcal/mol
DOCKED: USER        vdW + Hbond + desolv Energy     =  -8.64 kcal/mol
DOCKED: USER        Electrostatic Energy            =  -0.39 kcal/mol
DOCKED: USER        Moving Ligand-Fixed Receptor    =  -9.04 kcal/mol
DOCKED: USER        Moving Ligand-Moving Receptor   =  +0.00 kcal/mol
DOCKED: USER    (2) Final Total Internal Energy     =  -4.93 kcal/mol
DOCKED: USER    (3) Torsional Free Energy           =  +2.39 kcal/mol
DOCKED: USER    (4) Unbound System's Energy         =  -4.93 kcal/mol
DOCKED: USER
DOCKED: USER
DOCKED: REMARK SMILES O=C([N-]CC(=O)N1CCC[C@H]1C[NH2+]c1ccc(Cl)cc1)c1ccc2cc(Cl)ccc2n1
DOCKED: REMARK SMILES IDX 5 1 6 2 4 3 3 4 2 5 1 6 21 7 22 8 31 9 23 10 30 11 24 12
DOCKED: REMARK SMILES IDX 29 13 25 14 28 15 26 16 27 17 7 18 8 19 11 20 9 21 10 22
DOCKED: REMARK SMILES IDX 12 23 13 24 14 27 15 28 20 29 16 30 19 31 17 32 18 33
DOCKED: REMARK H PARENT 13 25 13 26
DOCKED: USER                              x       y       z     vdW  Elec       q    Type
DOCKED: USER                           _______ _______ _______ _____ _____    ______ ____
DOCKED: ROOT
DOCKED: ATOM      1  C   UNL     1     140.127  75.689 218.621 -0.02 -0.06    +0.205 C  
DOCKED: ATOM      2  O   UNL     1     139.450  76.720 218.882 -0.01 +0.08    -0.277 OA 
DOCKED: ENDROOT
DOCKED: BRANCH   1   3
DOCKED: ATOM      3  C   UNL     1     139.623  74.347 219.058 -0.04 +0.00    -0.015 C  
DOCKED: BRANCH   3   4
DOCKED: ATOM      4  N   UNL     1     140.530  73.802 220.059 +0.04 +0.13    -0.640 NA 
DOCKED: BRANCH   4   5
DOCKED: ATOM      5  C   UNL     1     140.260  73.851 221.462 -0.25 -0.01    +0.101 C  
DOCKED: ATOM      6  O   UNL     1     140.224  74.960 222.059 -0.68 +0.03    -0.313 OA 
DOCKED: BRANCH   5   7
DOCKED: ATOM      7  C   UNL     1     140.072  72.597 222.208 -0.28 -0.01    +0.088 A  
DOCKED: ATOM      8  C   UNL     1     139.219  71.588 221.734 -0.17 -0.01    +0.031 A  
DOCKED: ATOM      9  N   UNL     1     140.679  72.451 223.417 -0.21 +0.00    -0.246 NA 
DOCKED: ATOM     10  C   UNL     1     139.005  70.446 222.507 -0.20 -0.00    +0.013 A  
DOCKED: ATOM     11  C   UNL     1     140.474  71.359 224.202 -0.40 -0.01    +0.071 A  
DOCKED: ATOM     12  C   UNL     1     139.620  70.327 223.760 -0.32 -0.00    +0.002 A  
DOCKED: ATOM     13  C   UNL     1     141.086  71.271 225.456 -0.55 -0.00    +0.030 A  
DOCKED: ATOM     14  C   UNL     1     139.385  69.215 224.584 -0.34 -0.00    +0.030 A  
DOCKED: ATOM     15  C   UNL     1     140.845  70.163 226.275 -0.54 -0.00    +0.023 A  
DOCKED: ATOM     16  C   UNL     1     139.996  69.137 225.841 -0.46 -0.01    +0.041 A  
DOCKED: ATOM     17  Cl  UNL     1     139.692  67.756 226.877 -0.76 +0.01    -0.084 Cl 
DOCKED: ENDBRANCH   5   7
DOCKED: ENDBRANCH   4   5
DOCKED: ENDBRANCH   3   4
DOCKED: ENDBRANCH   1   3
DOCKED: BRANCH   1  18
DOCKED: ATOM     18  N   UNL     1     141.380  75.811 217.926 -0.01 +0.12    -0.335 N  
DOCKED: ATOM     19  C   UNL     1     141.455  76.026 216.487 -0.04 -0.05    +0.120 C  
DOCKED: ATOM     20  C   UNL     1     142.646  75.342 218.482 -0.16 -0.06    +0.140 C  
DOCKED: ATOM     21  C   UNL     1     142.828  75.523 216.064 -0.10 -0.01    +0.024 C  
DOCKED: ATOM     22  C   UNL     1     143.658  75.487 217.339 -0.19 -0.02    +0.033 C  
DOCKED: BRANCH  20  23
DOCKED: ATOM     23  C   UNL     1     143.077  76.143 219.742 -0.22 -0.18    +0.291 C  
DOCKED: BRANCH  23  24
DOCKED: ATOM     24  N   UNL     1     141.991  76.268 220.734 -0.05 +0.18    -0.312 N  
DOCKED: ATOM     25  H   UNL     1     141.112  75.883 220.317 +0.12 -0.13    +0.352 HD 
DOCKED: ATOM     26  H   UNL     1     142.213  75.690 221.577 -0.39 -0.22    +0.352 HD 
DOCKED: BRANCH  24  27
DOCKED: ATOM     27  C   UNL     1     141.756  77.646 221.105 -0.18 -0.08    +0.129 A  
DOCKED: ATOM     28  C   UNL     1     141.446  77.985 222.435 -0.36 -0.03    +0.069 A  
DOCKED: ATOM     29  C   UNL     1     141.829  78.670 220.141 -0.26 -0.04    +0.069 A  
DOCKED: ATOM     30  C   UNL     1     141.244  79.320 222.797 -0.48 -0.01    +0.026 A  
DOCKED: ATOM     31  C   UNL     1     141.638  80.005 220.510 -0.31 -0.01    +0.026 A  
DOCKED: ATOM     32  C   UNL     1     141.352  80.331 221.840 -0.39 -0.01    +0.041 A  
DOCKED: ATOM     33  Cl  UNL     1     141.129  82.006 222.308 -0.43 +0.01    -0.084 Cl 
DOCKED: ENDBRANCH  24  27
DOCKED: ENDBRANCH  23  24
DOCKED: ENDBRANCH  20  23
DOCKED: ENDBRANCH   1  18
DOCKED: TORSDOF 8
DOCKED: TER
DOCKED: ENDMDL
________________________________________________________________________________


    FINAL DOCKED STATE:
    ________________________


Run:   11 / 20
Time taken for this run:   0.061s

DOCKED: MODEL        11
DOCKED: USER    Run = 11
DOCKED: USER
DOCKED: USER    Estimated Free Energy of Binding    =  -6.73 kcal/mol  [=(1)+(2)+(3)-(4)]
DOCKED: USER
DOCKED: USER    (1) Final Intermolecular Energy     =  -9.12 kcal/mol
DOCKED: USER        vdW + Hbond + desolv Energy     =  -8.92 kcal/mol
DOCKED: USER        Electrostatic Energy            =  -0.20 kcal/mol
DOCKED: USER        Moving Ligand-Fixed Receptor    =  -9.12 kcal/mol
DOCKED: USER        Moving Ligand-Moving Receptor   =  +0.00 kcal/mol
DOCKED: USER    (2) Final Total Internal Energy     =  -4.87 kcal/mol
DOCKED: USER    (3) Torsional Free Energy           =  +2.39 kcal/mol
DOCKED: USER    (4) Unbound System's Energy         =  -4.87 kcal/mol
DOCKED: USER
DOCKED: USER
DOCKED: REMARK SMILES O=C([N-]CC(=O)N1CCC[C@H]1C[NH2+]c1ccc(Cl)cc1)c1ccc2cc(Cl)ccc2n1
DOCKED: REMARK SMILES IDX 5 1 6 2 4 3 3 4 2 5 1 6 21 7 22 8 31 9 23 10 30 11 24 12
DOCKED: REMARK SMILES IDX 29 13 25 14 28 15 26 16 27 17 7 18 8 19 11 20 9 21 10 22
DOCKED: REMARK SMILES IDX 12 23 13 24 14 27 15 28 20 29 16 30 19 31 17 32 18 33
DOCKED: REMARK H PARENT 13 25 13 26
DOCKED: USER                              x       y       z     vdW  Elec       q    Type
DOCKED: USER                           _______ _______ _______ _____ _____    ______ ____
DOCKED: ROOT
DOCKED: ATOM      1  C   UNL     1     141.264  72.239 220.986 -0.15 -0.03    +0.205 C  
DOCKED: ATOM      2  O   UNL     1     142.325  71.705 221.408 -0.12 +0.02    -0.277 OA 
DOCKED: ENDROOT
DOCKED: BRANCH   1   3
DOCKED: ATOM      3  C   UNL     1     141.108  73.728 221.058 -0.27 +0.00    -0.015 C  
DOCKED: BRANCH   3   4
DOCKED: ATOM      4  N   UNL     1     140.419  74.074 222.294 -0.52 -0.04    -0.640 NA 
DOCKED: BRANCH   4   5
DOCKED: ATOM      5  C   UNL     1     139.213  74.841 222.324 -0.08 -0.02    +0.101 C  
DOCKED: ATOM      6  O   UNL     1     138.095  74.260 222.321 -0.10 +0.12    -0.313 OA 
DOCKED: BRANCH   5   7
DOCKED: ATOM      7  C   UNL     1     139.288  76.311 222.307 -0.30 -0.02    +0.088 A  
DOCKED: ATOM      8  C   UNL     1     138.126  77.099 222.311 -0.26 -0.01    +0.031 A  
DOCKED: ATOM      9  N   UNL     1     140.506  76.909 222.210 -0.25 +0.07    -0.246 NA 
DOCKED: ATOM     10  C   UNL     1     138.234  78.487 222.216 -0.21 -0.00    +0.013 A  
DOCKED: ATOM     11  C   UNL     1     140.642  78.257 222.095 -0.33 -0.02    +0.071 A  
DOCKED: ATOM     12  C   UNL     1     139.496  79.081 222.091 -0.26 -0.00    +0.002 A  
DOCKED: ATOM     13  C   UNL     1     141.912  78.826 221.954 -0.42 -0.02    +0.030 A  
DOCKED: ATOM     14  C   UNL     1     139.636  80.469 221.942 -0.23 -0.01    +0.030 A  
DOCKED: ATOM     15  C   UNL     1     142.045  80.210 221.802 -0.46 -0.01    +0.023 A  
DOCKED: ATOM     16  C   UNL     1     140.910  81.030 221.795 -0.34 -0.01    +0.041 A  
DOCKED: ATOM     17  Cl  UNL     1     141.086  82.764 221.594 -0.36 +0.01    -0.084 Cl 
DOCKED: ENDBRANCH   5   7
DOCKED: ENDBRANCH   4   5
DOCKED: ENDBRANCH   3   4
DOCKED: ENDBRANCH   1   3
DOCKED: BRANCH   1  18
DOCKED: ATOM     18  N   UNL     1     140.208  71.417 220.458 -0.03 +0.05    -0.335 N  
DOCKED: ATOM     19  C   UNL     1     140.332  70.710 219.191 -0.05 -0.02    +0.120 C  
DOCKED: ATOM     20  C   UNL     1     138.820  71.526 220.897 -0.07 -0.03    +0.140 C  
DOCKED: ATOM     21  C   UNL     1     138.908  70.471 218.709 -0.02 -0.00    +0.024 C  
DOCKED: ATOM     22  C   UNL     1     138.031  70.623 219.943 -0.03 -0.01    +0.033 C  
DOCKED: BRANCH  20  23
DOCKED: ATOM     23  C   UNL     1     138.630  71.108 222.382 -0.11 -0.06    +0.291 C  
DOCKED: BRANCH  23  24
DOCKED: ATOM     24  N   UNL     1     139.538  71.828 223.296 -0.18 +0.07    -0.312 N  
DOCKED: ATOM     25  H   UNL     1     140.458  71.961 222.815 +0.14 -0.04    +0.352 HD 
DOCKED: ATOM     26  H   UNL     1     139.154  72.779 223.500 -0.26 -0.18    +0.352 HD 
DOCKED: BRANCH  24  27
DOCKED: ATOM     27  C   UNL     1     139.764  71.092 224.521 -0.37 -0.03    +0.129 A  
DOCKED: ATOM     28  C   UNL     1     139.033  69.921 224.796 -0.34 -0.01    +0.069 A  
DOCKED: ATOM     29  C   UNL     1     140.716  71.536 225.458 -0.52 -0.01    +0.069 A  
DOCKED: ATOM     30  C   UNL     1     139.271  69.197 225.967 -0.45 -0.00    +0.026 A  
DOCKED: ATOM     31  C   UNL     1     140.959  70.802 226.623 -0.62 -0.00    +0.026 A  
DOCKED: ATOM     32  C   UNL     1     140.241  69.629 226.875 -0.53 -0.01    +0.041 A  
DOCKED: ATOM     33  Cl  UNL     1     140.557  68.697 228.327 -0.80 +0.02    -0.084 Cl 
DOCKED: ENDBRANCH  24  27
DOCKED: ENDBRANCH  23  24
DOCKED: ENDBRANCH  20  23
DOCKED: ENDBRANCH   1  18
DOCKED: TORSDOF 8
DOCKED: TER
DOCKED: ENDMDL
________________________________________________________________________________


    FINAL DOCKED STATE:
    ________________________


Run:   12 / 20
Time taken for this run:   0.061s

DOCKED: MODEL        12
DOCKED: USER    Run = 12
DOCKED: USER
DOCKED: USER    Estimated Free Energy of Binding    =  -7.46 kcal/mol  [=(1)+(2)+(3)-(4)]
DOCKED: USER
DOCKED: USER    (1) Final Intermolecular Energy     =  -9.84 kcal/mol
DOCKED: USER        vdW + Hbond + desolv Energy     =  -9.60 kcal/mol
DOCKED: USER        Electrostatic Energy            =  -0.24 kcal/mol
DOCKED: USER        Moving Ligand-Fixed Receptor    =  -9.84 kcal/mol
DOCKED: USER        Moving Ligand-Moving Receptor   =  +0.00 kcal/mol
DOCKED: USER    (2) Final Total Internal Energy     =  -4.28 kcal/mol
DOCKED: USER    (3) Torsional Free Energy           =  +2.39 kcal/mol
DOCKED: USER    (4) Unbound System's Energy         =  -4.28 kcal/mol
DOCKED: USER
DOCKED: USER
DOCKED: REMARK SMILES O=C([N-]CC(=O)N1CCC[C@H]1C[NH2+]c1ccc(Cl)cc1)c1ccc2cc(Cl)ccc2n1
DOCKED: REMARK SMILES IDX 5 1 6 2 4 3 3 4 2 5 1 6 21 7 22 8 31 9 23 10 30 11 24 12
DOCKED: REMARK SMILES IDX 29 13 25 14 28 15 26 16 27 17 7 18 8 19 11 20 9 21 10 22
DOCKED: REMARK SMILES IDX 12 23 13 24 14 27 15 28 20 29 16 30 19 31 17 32 18 33
DOCKED: REMARK H PARENT 13 25 13 26
DOCKED: USER                              x       y       z     vdW  Elec       q    Type
DOCKED: USER                           _______ _______ _______ _____ _____    ______ ____
DOCKED: ROOT
DOCKED: ATOM      1  C   UNL     1     139.539  74.507 219.175 -0.02 -0.05    +0.205 C  
DOCKED: ATOM      2  O   UNL     1     139.019  75.655 219.144 -0.01 +0.07    -0.277 OA 
DOCKED: ENDROOT
DOCKED: BRANCH   1   3
DOCKED: ATOM      3  C   UNL     1     138.713  73.335 219.613 -0.05 +0.00    -0.015 C  
DOCKED: BRANCH   3   4
DOCKED: ATOM      4  N   UNL     1     139.494  72.522 220.536 +0.03 +0.12    -0.640 NA 
DOCKED: BRANCH   4   5
DOCKED: ATOM      5  C   UNL     1     139.777  72.925 221.878 -0.24 -0.02    +0.101 C  
DOCKED: ATOM      6  O   UNL     1     139.940  74.145 222.150 -0.82 +0.02    -0.313 OA 
DOCKED: BRANCH   5   7
DOCKED: ATOM      7  C   UNL     1     139.923  71.902 222.926 -0.31 -0.02    +0.088 A  
DOCKED: ATOM      8  C   UNL     1     139.456  70.592 222.735 -0.23 -0.01    +0.031 A  
DOCKED: ATOM      9  N   UNL     1     140.452  72.259 224.128 -0.12 +0.03    -0.246 NA 
DOCKED: ATOM     10  C   UNL     1     139.541  69.670 223.779 -0.27 -0.00    +0.013 A  
DOCKED: ATOM     11  C   UNL     1     140.530  71.389 225.170 -0.49 -0.01    +0.071 A  
DOCKED: ATOM     12  C   UNL     1     140.066  70.065 225.016 -0.43 -0.00    +0.002 A  
DOCKED: ATOM     13  C   UNL     1     141.042  71.812 226.401 -0.68 -0.00    +0.030 A  
DOCKED: ATOM     14  C   UNL     1     140.119  69.178 226.102 -0.49 -0.01    +0.030 A  
DOCKED: ATOM     15  C   UNL     1     141.088  70.924 227.480 -0.66 -0.00    +0.023 A  
DOCKED: ATOM     16  C   UNL     1     140.627  69.610 227.332 -0.56 -0.01    +0.041 A  
DOCKED: ATOM     17  Cl  UNL     1     140.679  68.506 228.694 -0.72 +0.02    -0.084 Cl 
DOCKED: ENDBRANCH   5   7
DOCKED: ENDBRANCH   4   5
DOCKED: ENDBRANCH   3   4
DOCKED: ENDBRANCH   1   3
DOCKED: BRANCH   1  18
DOCKED: ATOM     18  N   UNL     1     140.919  74.335 218.810 +0.00 +0.08    -0.335 N  
DOCKED: ATOM     19  C   UNL     1     141.326  73.930 217.471 -0.02 -0.03    +0.120 C  
DOCKED: ATOM     20  C   UNL     1     141.984  74.147 219.792 -0.15 -0.04    +0.140 C  
DOCKED: ATOM     21  C   UNL     1     142.704  73.304 217.628 -0.05 -0.00    +0.024 C  
DOCKED: ATOM     22  C   UNL     1     143.229  73.808 218.965 -0.19 -0.01    +0.033 C  
DOCKED: BRANCH  20  23
DOCKED: ATOM     23  C   UNL     1     142.203  75.404 220.680 -0.07 -0.13    +0.291 C  
DOCKED: BRANCH  23  24
DOCKED: ATOM     24  N   UNL     1     141.062  76.339 220.633 -0.11 +0.12    -0.312 N  
DOCKED: ATOM     25  H   UNL     1     140.897  76.613 219.636 +0.11 -0.13    +0.352 HD 
DOCKED: ATOM     26  H   UNL     1     140.196  75.859 220.969 +0.12 -0.09    +0.352 HD 
DOCKED: BRANCH  24  27
DOCKED: ATOM     27  C   UNL     1     141.316  77.538 221.401 -0.26 -0.07    +0.129 A  
DOCKED: ATOM     28  C   UNL     1     141.115  77.549 222.795 -0.38 -0.03    +0.069 A  
DOCKED: ATOM     29  C   UNL     1     141.764  78.713 220.769 -0.29 -0.04    +0.069 A  
DOCKED: ATOM     30  C   UNL     1     141.385  78.700 223.539 -0.56 -0.01    +0.026 A  
DOCKED: ATOM     31  C   UNL     1     142.045  79.858 221.520 -0.41 -0.01    +0.026 A  
DOCKED: ATOM     32  C   UNL     1     141.861  79.851 222.906 -0.55 -0.01    +0.041 A  
DOCKED: ATOM     33  Cl  UNL     1     142.229  81.281 223.852 -0.74 +0.01    -0.084 Cl 
DOCKED: ENDBRANCH  24  27
DOCKED: ENDBRANCH  23  24
DOCKED: ENDBRANCH  20  23
DOCKED: ENDBRANCH   1  18
DOCKED: TORSDOF 8
DOCKED: TER
DOCKED: ENDMDL
________________________________________________________________________________


    FINAL DOCKED STATE:
    ________________________


Run:   13 / 20
Time taken for this run:   0.061s

DOCKED: MODEL        13
DOCKED: USER    Run = 13
DOCKED: USER
DOCKED: USER    Estimated Free Energy of Binding    =  -7.97 kcal/mol  [=(1)+(2)+(3)-(4)]
DOCKED: USER
DOCKED: USER    (1) Final Intermolecular Energy     = -10.36 kcal/mol
DOCKED: USER        vdW + Hbond + desolv Energy     = -10.28 kcal/mol
DOCKED: USER        Electrostatic Energy            =  -0.07 kcal/mol
DOCKED: USER        Moving Ligand-Fixed Receptor    = -10.36 kcal/mol
DOCKED: USER        Moving Ligand-Moving Receptor   =  +0.00 kcal/mol
DOCKED: USER    (2) Final Total Internal Energy     =  -4.20 kcal/mol
DOCKED: USER    (3) Torsional Free Energy           =  +2.39 kcal/mol
DOCKED: USER    (4) Unbound System's Energy         =  -4.20 kcal/mol
DOCKED: USER
DOCKED: USER
DOCKED: REMARK SMILES O=C([N-]CC(=O)N1CCC[C@H]1C[NH2+]c1ccc(Cl)cc1)c1ccc2cc(Cl)ccc2n1
DOCKED: REMARK SMILES IDX 5 1 6 2 4 3 3 4 2 5 1 6 21 7 22 8 31 9 23 10 30 11 24 12
DOCKED: REMARK SMILES IDX 29 13 25 14 28 15 26 16 27 17 7 18 8 19 11 20 9 21 10 22
DOCKED: REMARK SMILES IDX 12 23 13 24 14 27 15 28 20 29 16 30 19 31 17 32 18 33
DOCKED: REMARK H PARENT 13 25 13 26
DOCKED: USER                              x       y       z     vdW  Elec       q    Type
DOCKED: USER                           _______ _______ _______ _____ _____    ______ ____
DOCKED: ROOT
DOCKED: ATOM      1  C   UNL     1     136.518  72.956 222.796 -0.08 -0.06    +0.205 C  
DOCKED: ATOM      2  O   UNL     1     136.593  72.028 223.646 -0.15 +0.07    -0.277 OA 
DOCKED: ENDROOT
DOCKED: BRANCH   1   3
DOCKED: ATOM      3  C   UNL     1     136.883  72.678 221.368 -0.09 +0.00    -0.015 C  
DOCKED: BRANCH   3   4
DOCKED: ATOM      4  N   UNL     1     138.265  72.221 221.311 +0.03 +0.14    -0.640 NA 
DOCKED: BRANCH   4   5
DOCKED: ATOM      5  C   UNL     1     139.224  72.517 222.329 -0.21 -0.02    +0.101 C  
DOCKED: ATOM      6  O   UNL     1     139.822  73.626 222.330 -0.78 +0.03    -0.313 OA 
DOCKED: BRANCH   5   7
DOCKED: ATOM      7  C   UNL     1     139.540  71.500 223.344 -0.31 -0.02    +0.088 A  
DOCKED: ATOM      8  C   UNL     1     139.196  70.151 223.156 -0.24 -0.01    +0.031 A  
DOCKED: ATOM      9  N   UNL     1     140.106  71.891 224.518 -0.22 +0.05    -0.246 NA 
DOCKED: ATOM     10  C   UNL     1     139.441  69.228 224.174 -0.29 -0.00    +0.013 A  
DOCKED: ATOM     11  C   UNL     1     140.338  71.019 225.535 -0.51 -0.01    +0.071 A  
DOCKED: ATOM     12  C   UNL     1     140.002  69.657 225.383 -0.44 -0.00    +0.002 A  
DOCKED: ATOM     13  C   UNL     1     140.884  71.474 226.740 -0.69 -0.00    +0.030 A  
DOCKED: ATOM     14  C   UNL     1     140.214  68.764 226.445 -0.55 -0.01    +0.030 A  
DOCKED: ATOM     15  C   UNL     1     141.089  70.581 227.796 -0.62 -0.00    +0.023 A  
DOCKED: ATOM     16  C   UNL     1     140.754  69.229 227.650 -0.59 -0.01    +0.041 A  
DOCKED: ATOM     17  Cl  UNL     1     141.005  68.117 228.982 -0.48 +0.02    -0.084 Cl 
DOCKED: ENDBRANCH   5   7
DOCKED: ENDBRANCH   4   5
DOCKED: ENDBRANCH   3   4
DOCKED: ENDBRANCH   1   3
DOCKED: BRANCH   1  18
DOCKED: ATOM     18  N   UNL     1     136.105  74.272 223.203 -0.08 +0.10    -0.335 N  
DOCKED: ATOM     19  C   UNL     1     135.639  74.558 224.553 -0.15 -0.03    +0.120 C  
DOCKED: ATOM     20  C   UNL     1     135.729  75.316 222.255 -0.11 -0.03    +0.140 C  
DOCKED: ATOM     21  C   UNL     1     134.778  75.807 224.437 -0.28 -0.00    +0.024 C  
DOCKED: ATOM     22  C   UNL     1     135.176  76.455 223.119 -0.17 -0.01    +0.033 C  
DOCKED: BRANCH  20  23
DOCKED: ATOM     23  C   UNL     1     136.923  75.782 221.376 -0.07 -0.06    +0.291 C  
DOCKED: BRANCH  23  24
DOCKED: ATOM     24  N   UNL     1     138.230  75.404 221.948 -0.13 +0.08    -0.312 N  
DOCKED: ATOM     25  H   UNL     1     138.065  74.833 222.810 -0.38 -0.17    +0.352 HD 
DOCKED: ATOM     26  H   UNL     1     138.752  74.801 221.272 +0.08 -0.08    +0.352 HD 
DOCKED: BRANCH  24  27
DOCKED: ATOM     27  C   UNL     1     139.014  76.564 222.313 -0.27 -0.03    +0.129 A  
DOCKED: ATOM     28  C   UNL     1     138.382  77.762 222.695 -0.26 -0.01    +0.069 A  
DOCKED: ATOM     29  C   UNL     1     140.421  76.514 222.288 -0.37 -0.02    +0.069 A  
DOCKED: ATOM     30  C   UNL     1     139.141  78.873 223.073 -0.33 -0.00    +0.026 A  
DOCKED: ATOM     31  C   UNL     1     141.176  77.625 222.678 -0.40 -0.01    +0.026 A  
DOCKED: ATOM     32  C   UNL     1     140.536  78.803 223.076 -0.44 -0.01    +0.041 A  
DOCKED: ATOM     33  Cl  UNL     1     141.480  80.191 223.582 -0.69 +0.02    -0.084 Cl 
DOCKED: ENDBRANCH  24  27
DOCKED: ENDBRANCH  23  24
DOCKED: ENDBRANCH  20  23
DOCKED: ENDBRANCH   1  18
DOCKED: TORSDOF 8
DOCKED: TER
DOCKED: ENDMDL
________________________________________________________________________________


    FINAL DOCKED STATE:
    ________________________


Run:   14 / 20
Time taken for this run:   0.061s

DOCKED: MODEL        14
DOCKED: USER    Run = 14
DOCKED: USER
DOCKED: USER    Estimated Free Energy of Binding    =  -7.47 kcal/mol  [=(1)+(2)+(3)-(4)]
DOCKED: USER
DOCKED: USER    (1) Final Intermolecular Energy     =  -9.86 kcal/mol
DOCKED: USER        vdW + Hbond + desolv Energy     =  -9.54 kcal/mol
DOCKED: USER        Electrostatic Energy            =  -0.32 kcal/mol
DOCKED: USER        Moving Ligand-Fixed Receptor    =  -9.86 kcal/mol
DOCKED: USER        Moving Ligand-Moving Receptor   =  +0.00 kcal/mol
DOCKED: USER    (2) Final Total Internal Energy     =  -4.25 kcal/mol
DOCKED: USER    (3) Torsional Free Energy           =  +2.39 kcal/mol
DOCKED: USER    (4) Unbound System's Energy         =  -4.25 kcal/mol
DOCKED: USER
DOCKED: USER
DOCKED: REMARK SMILES O=C([N-]CC(=O)N1CCC[C@H]1C[NH2+]c1ccc(Cl)cc1)c1ccc2cc(Cl)ccc2n1
DOCKED: REMARK SMILES IDX 5 1 6 2 4 3 3 4 2 5 1 6 21 7 22 8 31 9 23 10 30 11 24 12
DOCKED: REMARK SMILES IDX 29 13 25 14 28 15 26 16 27 17 7 18 8 19 11 20 9 21 10 22
DOCKED: REMARK SMILES IDX 12 23 13 24 14 27 15 28 20 29 16 30 19 31 17 32 18 33
DOCKED: REMARK H PARENT 13 25 13 26
DOCKED: USER                              x       y       z     vdW  Elec       q    Type
DOCKED: USER                           _______ _______ _______ _____ _____    ______ ____
DOCKED: ROOT
DOCKED: ATOM      1  C   UNL     1     143.362  73.911 220.120 -0.24 -0.06    +0.205 C  
DOCKED: ATOM      2  O   UNL     1     144.482  74.045 220.683 -0.35 +0.09    -0.277 OA 
DOCKED: ENDROOT
DOCKED: BRANCH   1   3
DOCKED: ATOM      3  C   UNL     1     142.307  73.066 220.769 -0.26 +0.00    -0.015 C  
DOCKED: BRANCH   3   4
DOCKED: ATOM      4  N   UNL     1     141.345  73.936 221.433 -0.11 +0.08    -0.640 NA 
DOCKED: BRANCH   4   5
DOCKED: ATOM      5  C   UNL     1     140.012  73.525 221.746 -0.24 -0.01    +0.101 C  
DOCKED: ATOM      6  O   UNL     1     139.029  74.127 221.236 -0.13 +0.07    -0.313 OA 
DOCKED: BRANCH   5   7
DOCKED: ATOM      7  C   UNL     1     139.797  72.426 222.701 -0.27 -0.02    +0.088 A  
DOCKED: ATOM      8  C   UNL     1     138.650  71.618 222.637 -0.21 -0.01    +0.031 A  
DOCKED: ATOM      9  N   UNL     1     140.692  72.244 223.711 -0.21 +0.01    -0.246 NA 
DOCKED: ATOM     10  C   UNL     1     138.442  70.637 223.607 -0.27 -0.00    +0.013 A  
DOCKED: ATOM     11  C   UNL     1     140.505  71.310 224.681 -0.45 -0.01    +0.071 A  
DOCKED: ATOM     12  C   UNL     1     139.362  70.483 224.651 -0.40 -0.00    +0.002 A  
DOCKED: ATOM     13  C   UNL     1     141.430  71.186 225.724 -0.56 -0.00    +0.030 A  
DOCKED: ATOM     14  C   UNL     1     139.156  69.541 225.670 -0.41 -0.00    +0.030 A  
DOCKED: ATOM     15  C   UNL     1     141.217  70.249 226.739 -0.52 -0.00    +0.023 A  
DOCKED: ATOM     16  C   UNL     1     140.083  69.428 226.714 -0.52 -0.01    +0.041 A  
DOCKED: ATOM     17  Cl  UNL     1     139.819  68.261 227.996 -0.52 +0.02    -0.084 Cl 
DOCKED: ENDBRANCH   5   7
DOCKED: ENDBRANCH   4   5
DOCKED: ENDBRANCH   3   4
DOCKED: ENDBRANCH   1   3
DOCKED: BRANCH   1  18
DOCKED: ATOM     18  N   UNL     1     143.113  74.550 218.856 -0.07 +0.12    -0.335 N  
DOCKED: ATOM     19  C   UNL     1     143.529  73.961 217.590 -0.09 -0.03    +0.120 C  
DOCKED: ATOM     20  C   UNL     1     142.809  75.972 218.730 -0.23 -0.07    +0.140 C  
DOCKED: ATOM     21  C   UNL     1     143.638  75.119 216.610 -0.16 -0.01    +0.024 C  
DOCKED: ATOM     22  C   UNL     1     142.821  76.247 217.222 -0.20 -0.02    +0.033 C  
DOCKED: BRANCH  20  23
DOCKED: ATOM     23  C   UNL     1     141.447  76.350 219.378 -0.10 -0.12    +0.291 C  
DOCKED: BRANCH  23  24
DOCKED: ATOM     24  N   UNL     1     141.468  76.239 220.849 -0.15 +0.14    -0.312 N  
DOCKED: ATOM     25  H   UNL     1     140.615  75.716 221.157 +0.13 -0.10    +0.352 HD 
DOCKED: ATOM     26  H   UNL     1     142.299  75.681 221.151 -0.25 -0.21    +0.352 HD 
DOCKED: BRANCH  24  27
DOCKED: ATOM     27  C   UNL     1     141.464  77.537 221.488 -0.22 -0.07    +0.129 A  
DOCKED: ATOM     28  C   UNL     1     141.116  77.664 222.846 -0.39 -0.03    +0.069 A  
DOCKED: ATOM     29  C   UNL     1     141.804  78.694 220.762 -0.29 -0.04    +0.069 A  
DOCKED: ATOM     30  C   UNL     1     141.137  78.915 223.469 -0.54 -0.01    +0.026 A  
DOCKED: ATOM     31  C   UNL     1     141.835  79.942 221.392 -0.40 -0.01    +0.026 A  
DOCKED: ATOM     32  C   UNL     1     141.508  80.052 222.747 -0.49 -0.01    +0.041 A  
DOCKED: ATOM     33  Cl  UNL     1     141.563  81.613 223.543 -0.41 +0.01    -0.084 Cl 
DOCKED: ENDBRANCH  24  27
DOCKED: ENDBRANCH  23  24
DOCKED: ENDBRANCH  20  23
DOCKED: ENDBRANCH   1  18
DOCKED: TORSDOF 8
DOCKED: TER
DOCKED: ENDMDL
________________________________________________________________________________


    FINAL DOCKED STATE:
    ________________________


Run:   15 / 20
Time taken for this run:   0.061s

DOCKED: MODEL        15
DOCKED: USER    Run = 15
DOCKED: USER
DOCKED: USER    Estimated Free Energy of Binding    =  -6.51 kcal/mol  [=(1)+(2)+(3)-(4)]
DOCKED: USER
DOCKED: USER    (1) Final Intermolecular Energy     =  -8.90 kcal/mol
DOCKED: USER        vdW + Hbond + desolv Energy     =  -8.76 kcal/mol
DOCKED: USER        Electrostatic Energy            =  -0.14 kcal/mol
DOCKED: USER        Moving Ligand-Fixed Receptor    =  -8.90 kcal/mol
DOCKED: USER        Moving Ligand-Moving Receptor   =  +0.00 kcal/mol
DOCKED: USER    (2) Final Total Internal Energy     =  -4.80 kcal/mol
DOCKED: USER    (3) Torsional Free Energy           =  +2.39 kcal/mol
DOCKED: USER    (4) Unbound System's Energy         =  -4.80 kcal/mol
DOCKED: USER
DOCKED: USER
DOCKED: REMARK SMILES O=C([N-]CC(=O)N1CCC[C@H]1C[NH2+]c1ccc(Cl)cc1)c1ccc2cc(Cl)ccc2n1
DOCKED: REMARK SMILES IDX 5 1 6 2 4 3 3 4 2 5 1 6 21 7 22 8 31 9 23 10 30 11 24 12
DOCKED: REMARK SMILES IDX 29 13 25 14 28 15 26 16 27 17 7 18 8 19 11 20 9 21 10 22
DOCKED: REMARK SMILES IDX 12 23 13 24 14 27 15 28 20 29 16 30 19 31 17 32 18 33
DOCKED: REMARK H PARENT 13 25 13 26
DOCKED: USER                              x       y       z     vdW  Elec       q    Type
DOCKED: USER                           _______ _______ _______ _____ _____    ______ ____
DOCKED: ROOT
DOCKED: ATOM      1  C   UNL     1     137.886  72.224 219.723 -0.01 -0.04    +0.205 C  
DOCKED: ATOM      2  O   UNL     1     137.356  71.937 218.616 -0.00 +0.05    -0.277 OA 
DOCKED: ENDROOT
DOCKED: BRANCH   1   3
DOCKED: ATOM      3  C   UNL     1     137.571  73.539 220.372 -0.06 +0.00    -0.015 C  
DOCKED: BRANCH   3   4
DOCKED: ATOM      4  N   UNL     1     138.174  73.571 221.697 -0.00 +0.17    -0.640 NA 
DOCKED: BRANCH   4   5
DOCKED: ATOM      5  C   UNL     1     139.428  74.204 221.965 -0.22 -0.02    +0.101 C  
DOCKED: ATOM      6  O   UNL     1     140.425  73.512 222.307 -0.76 -0.00    -0.313 OA 
DOCKED: BRANCH   5   7
DOCKED: ATOM      7  C   UNL     1     139.532  75.670 221.884 -0.29 -0.02    +0.088 A  
DOCKED: ATOM      8  C   UNL     1     138.766  76.404 220.964 -0.14 -0.01    +0.031 A  
DOCKED: ATOM      9  N   UNL     1     140.443  76.312 222.664 -0.24 +0.05    -0.246 NA 
DOCKED: ATOM     10  C   UNL     1     138.948  77.784 220.861 -0.12 -0.00    +0.013 A  
DOCKED: ATOM     11  C   UNL     1     140.657  77.651 222.572 -0.39 -0.02    +0.071 A  
DOCKED: ATOM     12  C   UNL     1     139.910  78.421 221.656 -0.25 -0.00    +0.002 A  
DOCKED: ATOM     13  C   UNL     1     141.635  78.262 223.364 -0.50 -0.01    +0.030 A  
DOCKED: ATOM     14  C   UNL     1     140.153  79.798 221.541 -0.22 -0.01    +0.030 A  
DOCKED: ATOM     15  C   UNL     1     141.876  79.634 223.242 -0.58 -0.01    +0.023 A  
DOCKED: ATOM     16  C   UNL     1     141.138  80.401 222.332 -0.40 -0.01    +0.041 A  
DOCKED: ATOM     17  Cl  UNL     1     141.453  82.120 222.179 -0.41 +0.01    -0.084 Cl 
DOCKED: ENDBRANCH   5   7
DOCKED: ENDBRANCH   4   5
DOCKED: ENDBRANCH   3   4
DOCKED: ENDBRANCH   1   3
DOCKED: BRANCH   1  18
DOCKED: ATOM     18  N   UNL     1     138.798  71.301 220.343 -0.01 +0.06    -0.335 N  
DOCKED: ATOM     19  C   UNL     1     140.168  71.131 219.879 -0.06 -0.02    +0.120 C  
DOCKED: ATOM     20  C   UNL     1     138.358  70.194 221.187 -0.07 -0.03    +0.140 C  
DOCKED: ATOM     21  C   UNL     1     140.592  69.745 220.341 -0.09 -0.00    +0.024 C  
DOCKED: ATOM     22  C   UNL     1     139.625  69.374 221.455 -0.12 -0.01    +0.033 C  
DOCKED: BRANCH  20  23
DOCKED: ATOM     23  C   UNL     1     137.690  70.678 222.504 -0.08 -0.06    +0.291 C  
DOCKED: BRANCH  23  24
DOCKED: ATOM     24  N   UNL     1     138.542  71.614 223.263 -0.11 +0.09    -0.312 N  
DOCKED: ATOM     25  H   UNL     1     139.312  71.947 222.636 +0.10 -0.08    +0.352 HD 
DOCKED: ATOM     26  H   UNL     1     137.985  72.453 223.542 -0.34 -0.20    +0.352 HD 
DOCKED: BRANCH  24  27
DOCKED: ATOM     27  C   UNL     1     139.136  70.983 224.421 -0.31 -0.03    +0.129 A  
DOCKED: ATOM     28  C   UNL     1     138.559  69.828 224.981 -0.32 -0.01    +0.069 A  
DOCKED: ATOM     29  C   UNL     1     140.300  71.515 225.009 -0.46 -0.01    +0.069 A  
DOCKED: ATOM     30  C   UNL     1     139.148  69.205 226.084 -0.45 -0.00    +0.026 A  
DOCKED: ATOM     31  C   UNL     1     140.893  70.881 226.105 -0.60 -0.00    +0.026 A  
DOCKED: ATOM     32  C   UNL     1     140.321  69.722 226.639 -0.52 -0.01    +0.041 A  
DOCKED: ATOM     33  Cl  UNL     1     141.073  68.916 228.003 -0.73 +0.02    -0.084 Cl 
DOCKED: ENDBRANCH  24  27
DOCKED: ENDBRANCH  23  24
DOCKED: ENDBRANCH  20  23
DOCKED: ENDBRANCH   1  18
DOCKED: TORSDOF 8
DOCKED: TER
DOCKED: ENDMDL
________________________________________________________________________________


    FINAL DOCKED STATE:
    ________________________


Run:   16 / 20
Time taken for this run:   0.061s

DOCKED: MODEL        16
DOCKED: USER    Run = 16
DOCKED: USER
DOCKED: USER    Estimated Free Energy of Binding    =  -6.42 kcal/mol  [=(1)+(2)+(3)-(4)]
DOCKED: USER
DOCKED: USER    (1) Final Intermolecular Energy     =  -8.81 kcal/mol
DOCKED: USER        vdW + Hbond + desolv Energy     =  -8.78 kcal/mol
DOCKED: USER        Electrostatic Energy            =  -0.03 kcal/mol
DOCKED: USER        Moving Ligand-Fixed Receptor    =  -8.81 kcal/mol
DOCKED: USER        Moving Ligand-Moving Receptor   =  +0.00 kcal/mol
DOCKED: USER    (2) Final Total Internal Energy     =  -4.94 kcal/mol
DOCKED: USER    (3) Torsional Free Energy           =  +2.39 kcal/mol
DOCKED: USER    (4) Unbound System's Energy         =  -4.94 kcal/mol
DOCKED: USER
DOCKED: USER
DOCKED: REMARK SMILES O=C([N-]CC(=O)N1CCC[C@H]1C[NH2+]c1ccc(Cl)cc1)c1ccc2cc(Cl)ccc2n1
DOCKED: REMARK SMILES IDX 5 1 6 2 4 3 3 4 2 5 1 6 21 7 22 8 31 9 23 10 30 11 24 12
DOCKED: REMARK SMILES IDX 29 13 25 14 28 15 26 16 27 17 7 18 8 19 11 20 9 21 10 22
DOCKED: REMARK SMILES IDX 12 23 13 24 14 27 15 28 20 29 16 30 19 31 17 32 18 33
DOCKED: REMARK H PARENT 13 25 13 26
DOCKED: USER                              x       y       z     vdW  Elec       q    Type
DOCKED: USER                           _______ _______ _______ _____ _____    ______ ____
DOCKED: ROOT
DOCKED: ATOM      1  C   UNL     1     137.558  74.442 221.545 -0.11 -0.05    +0.205 C  
DOCKED: ATOM      2  O   UNL     1     136.441  74.836 221.113 -0.04 +0.06    -0.277 OA 
DOCKED: ENDROOT
DOCKED: BRANCH   1   3
DOCKED: ATOM      3  C   UNL     1     137.688  73.050 222.089 -0.12 +0.00    -0.015 C  
DOCKED: BRANCH   3   4
DOCKED: ATOM      4  N   UNL     1     138.312  72.203 221.082 +0.03 +0.13    -0.640 NA 
DOCKED: BRANCH   4   5
DOCKED: ATOM      5  C   UNL     1     139.325  71.243 221.392 -0.13 -0.02    +0.101 C  
DOCKED: ATOM      6  O   UNL     1     139.900  70.609 220.467 -0.05 +0.05    -0.313 OA 
DOCKED: BRANCH   5   7
DOCKED: ATOM      7  C   UNL     1     139.656  70.968 222.800 -0.24 -0.02    +0.088 A  
DOCKED: ATOM      8  C   UNL     1     140.366  71.898 223.576 -0.37 -0.00    +0.031 A  
DOCKED: ATOM      9  N   UNL     1     139.333  69.758 223.330 -0.12 +0.04    -0.246 NA 
DOCKED: ATOM     10  C   UNL     1     140.730  71.571 224.883 -0.47 -0.00    +0.013 A  
DOCKED: ATOM     11  C   UNL     1     139.692  69.403 224.593 -0.30 -0.01    +0.071 A  
DOCKED: ATOM     12  C   UNL     1     140.410  70.310 225.401 -0.50 -0.00    +0.002 A  
DOCKED: ATOM     13  C   UNL     1     139.375  68.131 225.082 -0.41 -0.00    +0.030 A  
DOCKED: ATOM     14  C   UNL     1     140.805  69.931 226.692 -0.54 -0.01    +0.030 A  
DOCKED: ATOM     15  C   UNL     1     139.776  67.757 226.368 -0.64 -0.00    +0.023 A  
DOCKED: ATOM     16  C   UNL     1     140.491  68.654 227.172 -0.61 -0.01    +0.041 A  
DOCKED: ATOM     17  Cl  UNL     1     140.998  68.173 228.780 -0.65 +0.02    -0.084 Cl 
DOCKED: ENDBRANCH   5   7
DOCKED: ENDBRANCH   4   5
DOCKED: ENDBRANCH   3   4
DOCKED: ENDBRANCH   1   3
DOCKED: BRANCH   1  18
DOCKED: ATOM     18  N   UNL     1     138.688  75.331 221.531 -0.11 +0.08    -0.335 N  
DOCKED: ATOM     19  C   UNL     1     139.088  76.101 222.701 -0.17 -0.02    +0.120 C  
DOCKED: ATOM     20  C   UNL     1     139.273  75.852 220.299 -0.08 -0.03    +0.140 C  
DOCKED: ATOM     21  C   UNL     1     139.874  77.289 222.166 -0.35 -0.01    +0.024 C  
DOCKED: ATOM     22  C   UNL     1     140.299  76.896 220.759 -0.21 -0.01    +0.033 C  
DOCKED: BRANCH  20  23
DOCKED: ATOM     23  C   UNL     1     139.927  74.740 219.432 -0.02 -0.07    +0.291 C  
DOCKED: BRANCH  23  24
DOCKED: ATOM     24  N   UNL     1     140.359  73.578 220.232 -0.04 +0.06    -0.312 N  
DOCKED: ATOM     25  H   UNL     1     139.926  73.647 221.182 +0.10 -0.06    +0.352 HD 
DOCKED: ATOM     26  H   UNL     1     140.007  72.696 219.794 +0.06 -0.07    +0.352 HD 
DOCKED: BRANCH  24  27
DOCKED: ATOM     27  C   UNL     1     141.797  73.535 220.387 -0.18 -0.03    +0.129 A  
DOCKED: ATOM     28  C   UNL     1     142.564  74.709 220.263 -0.28 -0.02    +0.069 A  
DOCKED: ATOM     29  C   UNL     1     142.452  72.320 220.661 -0.22 -0.01    +0.069 A  
DOCKED: ATOM     30  C   UNL     1     143.950  74.671 220.439 -0.39 -0.01    +0.026 A  
DOCKED: ATOM     31  C   UNL     1     143.838  72.289 220.848 -0.32 -0.00    +0.026 A  
DOCKED: ATOM     32  C   UNL     1     144.586  73.466 220.743 -0.47 -0.01    +0.041 A  
DOCKED: ATOM     33  Cl  UNL     1     146.321  73.432 220.995 -0.83 +0.00    -0.084 Cl 
DOCKED: ENDBRANCH  24  27
DOCKED: ENDBRANCH  23  24
DOCKED: ENDBRANCH  20  23
DOCKED: ENDBRANCH   1  18
DOCKED: TORSDOF 8
DOCKED: TER
DOCKED: ENDMDL
________________________________________________________________________________


    FINAL DOCKED STATE:
    ________________________


Run:   17 / 20
Time taken for this run:   0.061s

DOCKED: MODEL        17
DOCKED: USER    Run = 17
DOCKED: USER
DOCKED: USER    Estimated Free Energy of Binding    =  -5.88 kcal/mol  [=(1)+(2)+(3)-(4)]
DOCKED: USER
DOCKED: USER    (1) Final Intermolecular Energy     =  -8.26 kcal/mol
DOCKED: USER        vdW + Hbond + desolv Energy     =  -8.29 kcal/mol
DOCKED: USER        Electrostatic Energy            =  +0.02 kcal/mol
DOCKED: USER        Moving Ligand-Fixed Receptor    =  -8.26 kcal/mol
DOCKED: USER        Moving Ligand-Moving Receptor   =  +0.00 kcal/mol
DOCKED: USER    (2) Final Total Internal Energy     =  -5.69 kcal/mol
DOCKED: USER    (3) Torsional Free Energy           =  +2.39 kcal/mol
DOCKED: USER    (4) Unbound System's Energy         =  -5.69 kcal/mol
DOCKED: USER
DOCKED: USER
DOCKED: REMARK SMILES O=C([N-]CC(=O)N1CCC[C@H]1C[NH2+]c1ccc(Cl)cc1)c1ccc2cc(Cl)ccc2n1
DOCKED: REMARK SMILES IDX 5 1 6 2 4 3 3 4 2 5 1 6 21 7 22 8 31 9 23 10 30 11 24 12
DOCKED: REMARK SMILES IDX 29 13 25 14 28 15 26 16 27 17 7 18 8 19 11 20 9 21 10 22
DOCKED: REMARK SMILES IDX 12 23 13 24 14 27 15 28 20 29 16 30 19 31 17 32 18 33
DOCKED: REMARK H PARENT 13 25 13 26
DOCKED: USER                              x       y       z     vdW  Elec       q    Type
DOCKED: USER                           _______ _______ _______ _____ _____    ______ ____
DOCKED: ROOT
DOCKED: ATOM      1  C   UNL     1     138.982  72.553 219.444 -0.02 -0.04    +0.205 C  
DOCKED: ATOM      2  O   UNL     1     138.642  73.715 219.094 -0.01 +0.06    -0.277 OA 
DOCKED: ENDROOT
DOCKED: BRANCH   1   3
DOCKED: ATOM      3  C   UNL     1     137.943  71.474 219.523 -0.02 +0.00    -0.015 C  
DOCKED: BRANCH   3   4
DOCKED: ATOM      4  N   UNL     1     136.949  71.844 220.521 +0.03 +0.12    -0.640 NA 
DOCKED: BRANCH   4   5
DOCKED: ATOM      5  C   UNL     1     137.294  72.396 221.794 -0.10 -0.02    +0.101 C  
DOCKED: ATOM      6  O   UNL     1     137.185  73.635 221.995 -0.09 +0.09    -0.313 OA 
DOCKED: BRANCH   5   7
DOCKED: ATOM      7  C   UNL     1     137.822  71.514 222.847 -0.17 -0.02    +0.088 A  
DOCKED: ATOM      8  C   UNL     1     137.111  70.379 223.270 -0.17 -0.01    +0.031 A  
DOCKED: ATOM      9  N   UNL     1     138.982  71.853 223.473 -0.12 +0.08    -0.246 NA 
DOCKED: ATOM     10  C   UNL     1     137.604  69.611 224.325 -0.28 -0.00    +0.013 A  
DOCKED: ATOM     11  C   UNL     1     139.475  71.135 224.517 -0.39 -0.02    +0.071 A  
DOCKED: ATOM     12  C   UNL     1     138.786  69.990 224.972 -0.37 -0.00    +0.002 A  
DOCKED: ATOM     13  C   UNL     1     140.650  71.544 225.157 -0.51 -0.00    +0.030 A  
DOCKED: ATOM     14  C   UNL     1     139.282  69.269 226.069 -0.45 -0.00    +0.030 A  
DOCKED: ATOM     15  C   UNL     1     141.136  70.823 226.252 -0.60 -0.00    +0.023 A  
DOCKED: ATOM     16  C   UNL     1     140.454  69.689 226.709 -0.52 -0.01    +0.041 A  
DOCKED: ATOM     17  Cl  UNL     1     141.065  68.796 228.089 -0.74 +0.02    -0.084 Cl 
DOCKED: ENDBRANCH   5   7
DOCKED: ENDBRANCH   4   5
DOCKED: ENDBRANCH   3   4
DOCKED: ENDBRANCH   1   3
DOCKED: BRANCH   1  18
DOCKED: ATOM     18  N   UNL     1     140.352  72.276 219.780 -0.01 +0.06    -0.335 N  
DOCKED: ATOM     19  C   UNL     1     141.201  71.428 218.954 -0.04 -0.02    +0.120 C  
DOCKED: ATOM     20  C   UNL     1     140.894  72.459 221.124 -0.19 -0.02    +0.140 C  
DOCKED: ATOM     21  C   UNL     1     142.295  70.912 219.877 -0.14 -0.00    +0.024 C  
DOCKED: ATOM     22  C   UNL     1     142.304  71.861 221.067 -0.19 -0.00    +0.033 C  
DOCKED: BRANCH  20  23
DOCKED: ATOM     23  C   UNL     1     140.913  73.951 221.560 -0.17 -0.03    +0.291 C  
DOCKED: BRANCH  23  24
DOCKED: ATOM     24  N   UNL     1     139.576  74.452 221.931 -0.17 +0.05    -0.312 N  
DOCKED: ATOM     25  H   UNL     1     138.928  74.305 221.121 +0.08 -0.08    +0.352 HD 
DOCKED: ATOM     26  H   UNL     1     139.199  73.897 222.733 -0.43 -0.11    +0.352 HD 
DOCKED: BRANCH  24  27
DOCKED: ATOM     27  C   UNL     1     139.597  75.863 222.248 -0.29 -0.02    +0.129 A  
DOCKED: ATOM     28  C   UNL     1     138.399  76.556 222.505 -0.28 -0.01    +0.069 A  
DOCKED: ATOM     29  C   UNL     1     140.816  76.566 222.304 -0.36 -0.02    +0.069 A  
DOCKED: ATOM     30  C   UNL     1     138.423  77.913 222.837 -0.25 -0.00    +0.026 A  
DOCKED: ATOM     31  C   UNL     1     140.836  77.921 222.649 -0.45 -0.01    +0.026 A  
DOCKED: ATOM     32  C   UNL     1     139.640  78.594 222.922 -0.33 -0.01    +0.041 A  
DOCKED: ATOM     33  Cl  UNL     1     139.665  80.288 223.372 -0.50 +0.01    -0.084 Cl 
DOCKED: ENDBRANCH  24  27
DOCKED: ENDBRANCH  23  24
DOCKED: ENDBRANCH  20  23
DOCKED: ENDBRANCH   1  18
DOCKED: TORSDOF 8
DOCKED: TER
DOCKED: ENDMDL
________________________________________________________________________________


    FINAL DOCKED STATE:
    ________________________


Run:   18 / 20
Time taken for this run:   0.061s

DOCKED: MODEL        18
DOCKED: USER    Run = 18
DOCKED: USER
DOCKED: USER    Estimated Free Energy of Binding    =  -8.06 kcal/mol  [=(1)+(2)+(3)-(4)]
DOCKED: USER
DOCKED: USER    (1) Final Intermolecular Energy     = -10.45 kcal/mol
DOCKED: USER        vdW + Hbond + desolv Energy     = -10.30 kcal/mol
DOCKED: USER        Electrostatic Energy            =  -0.15 kcal/mol
DOCKED: USER        Moving Ligand-Fixed Receptor    = -10.45 kcal/mol
DOCKED: USER        Moving Ligand-Moving Receptor   =  +0.00 kcal/mol
DOCKED: USER    (2) Final Total Internal Energy     =  -4.64 kcal/mol
DOCKED: USER    (3) Torsional Free Energy           =  +2.39 kcal/mol
DOCKED: USER    (4) Unbound System's Energy         =  -4.64 kcal/mol
DOCKED: USER
DOCKED: USER
DOCKED: REMARK SMILES O=C([N-]CC(=O)N1CCC[C@H]1C[NH2+]c1ccc(Cl)cc1)c1ccc2cc(Cl)ccc2n1
DOCKED: REMARK SMILES IDX 5 1 6 2 4 3 3 4 2 5 1 6 21 7 22 8 31 9 23 10 30 11 24 12
DOCKED: REMARK SMILES IDX 29 13 25 14 28 15 26 16 27 17 7 18 8 19 11 20 9 21 10 22
DOCKED: REMARK SMILES IDX 12 23 13 24 14 27 15 28 20 29 16 30 19 31 17 32 18 33
DOCKED: REMARK H PARENT 13 25 13 26
DOCKED: USER                              x       y       z     vdW  Elec       q    Type
DOCKED: USER                           _______ _______ _______ _____ _____    ______ ____
DOCKED: ROOT
DOCKED: ATOM      1  C   UNL     1     142.486  71.954 219.294 -0.07 -0.03    +0.205 C  
DOCKED: ATOM      2  O   UNL     1     142.199  71.549 218.136 -0.01 +0.04    -0.277 OA 
DOCKED: ENDROOT
DOCKED: BRANCH   1   3
DOCKED: ATOM      3  C   UNL     1     141.579  71.614 220.439 -0.17 +0.00    -0.015 C  
DOCKED: BRANCH   3   4
DOCKED: ATOM      4  N   UNL     1     140.684  72.737 220.685 +0.02 +0.10    -0.640 NA 
DOCKED: BRANCH   4   5
DOCKED: ATOM      5  C   UNL     1     140.109  73.007 221.966 -0.26 -0.01    +0.101 C  
DOCKED: ATOM      6  O   UNL     1     139.643  74.150 222.221 -0.75 +0.04    -0.313 OA 
DOCKED: BRANCH   5   7
DOCKED: ATOM      7  C   UNL     1     140.110  71.956 222.996 -0.31 -0.01    +0.088 A  
DOCKED: ATOM      8  C   UNL     1     139.466  70.727 222.783 -0.24 -0.01    +0.031 A  
DOCKED: ATOM      9  N   UNL     1     140.680  72.215 224.204 -0.07 +0.02    -0.246 NA 
DOCKED: ATOM     10  C   UNL     1     139.419  69.785 223.811 -0.28 -0.00    +0.013 A  
DOCKED: ATOM     11  C   UNL     1     140.633  71.325 225.231 -0.50 -0.01    +0.071 A  
DOCKED: ATOM     12  C   UNL     1     139.990  70.081 225.055 -0.43 -0.00    +0.002 A  
DOCKED: ATOM     13  C   UNL     1     141.196  71.652 226.469 -0.68 -0.00    +0.030 A  
DOCKED: ATOM     14  C   UNL     1     139.917  69.177 226.125 -0.49 -0.00    +0.030 A  
DOCKED: ATOM     15  C   UNL     1     141.115  70.748 227.534 -0.61 -0.00    +0.023 A  
DOCKED: ATOM     16  C   UNL     1     140.476  69.514 227.363 -0.57 -0.01    +0.041 A  
DOCKED: ATOM     17  Cl  UNL     1     140.372  68.390 228.705 -0.60 +0.02    -0.084 Cl 
DOCKED: ENDBRANCH   5   7
DOCKED: ENDBRANCH   4   5
DOCKED: ENDBRANCH   3   4
DOCKED: ENDBRANCH   1   3
DOCKED: BRANCH   1  18
DOCKED: ATOM     18  N   UNL     1     143.665  72.750 219.505 -0.06 +0.04    -0.335 N  
DOCKED: ATOM     19  C   UNL     1     144.995  72.286 219.134 -0.25 +0.03    +0.120 C  
DOCKED: ATOM     20  C   UNL     1     143.711  73.869 220.442 -0.31 -0.04    +0.140 C  
DOCKED: ATOM     21  C   UNL     1     145.965  73.070 220.003 -0.52 +0.01    +0.024 C  
DOCKED: ATOM     22  C   UNL     1     145.187  74.284 220.489 -0.48 -0.01    +0.033 C  
DOCKED: BRANCH  20  23
DOCKED: ATOM     23  C   UNL     1     142.791  75.045 220.011 -0.20 -0.12    +0.291 C  
DOCKED: BRANCH  23  24
DOCKED: ATOM     24  N   UNL     1     141.612  75.193 220.886 -0.16 +0.11    -0.312 N  
DOCKED: ATOM     25  H   UNL     1     140.760  74.905 220.349 +0.11 -0.09    +0.352 HD 
DOCKED: ATOM     26  H   UNL     1     141.695  74.549 221.705 +0.12 -0.05    +0.352 HD 
DOCKED: BRANCH  24  27
DOCKED: ATOM     27  C   UNL     1     141.434  76.560 221.324 -0.19 -0.06    +0.129 A  
DOCKED: ATOM     28  C   UNL     1     140.900  76.838 222.597 -0.33 -0.02    +0.069 A  
DOCKED: ATOM     29  C   UNL     1     141.788  77.634 220.485 -0.29 -0.04    +0.069 A  
DOCKED: ATOM     30  C   UNL     1     140.753  78.159 223.030 -0.42 -0.01    +0.026 A  
DOCKED: ATOM     31  C   UNL     1     141.650  78.953 220.928 -0.33 -0.01    +0.026 A  
DOCKED: ATOM     32  C   UNL     1     141.139  79.216 222.202 -0.39 -0.01    +0.041 A  
DOCKED: ATOM     33  Cl  UNL     1     140.982  80.869 222.765 -0.56 +0.02    -0.084 Cl 
DOCKED: ENDBRANCH  24  27
DOCKED: ENDBRANCH  23  24
DOCKED: ENDBRANCH  20  23
DOCKED: ENDBRANCH   1  18
DOCKED: TORSDOF 8
DOCKED: TER
DOCKED: ENDMDL
________________________________________________________________________________


    FINAL DOCKED STATE:
    ________________________


Run:   19 / 20
Time taken for this run:   0.061s

DOCKED: MODEL        19
DOCKED: USER    Run = 19
DOCKED: USER
DOCKED: USER    Estimated Free Energy of Binding    =  -7.61 kcal/mol  [=(1)+(2)+(3)-(4)]
DOCKED: USER
DOCKED: USER    (1) Final Intermolecular Energy     =  -9.99 kcal/mol
DOCKED: USER        vdW + Hbond + desolv Energy     =  -9.81 kcal/mol
DOCKED: USER        Electrostatic Energy            =  -0.19 kcal/mol
DOCKED: USER        Moving Ligand-Fixed Receptor    =  -9.99 kcal/mol
DOCKED: USER        Moving Ligand-Moving Receptor   =  +0.00 kcal/mol
DOCKED: USER    (2) Final Total Internal Energy     =  -4.79 kcal/mol
DOCKED: USER    (3) Torsional Free Energy           =  +2.39 kcal/mol
DOCKED: USER    (4) Unbound System's Energy         =  -4.79 kcal/mol
DOCKED: USER
DOCKED: USER
DOCKED: REMARK SMILES O=C([N-]CC(=O)N1CCC[C@H]1C[NH2+]c1ccc(Cl)cc1)c1ccc2cc(Cl)ccc2n1
DOCKED: REMARK SMILES IDX 5 1 6 2 4 3 3 4 2 5 1 6 21 7 22 8 31 9 23 10 30 11 24 12
DOCKED: REMARK SMILES IDX 29 13 25 14 28 15 26 16 27 17 7 18 8 19 11 20 9 21 10 22
DOCKED: REMARK SMILES IDX 12 23 13 24 14 27 15 28 20 29 16 30 19 31 17 32 18 33
DOCKED: REMARK H PARENT 13 25 13 26
DOCKED: USER                              x       y       z     vdW  Elec       q    Type
DOCKED: USER                           _______ _______ _______ _____ _____    ______ ____
DOCKED: ROOT
DOCKED: ATOM      1  C   UNL     1     142.045  72.142 220.850 -0.16 -0.03    +0.205 C  
DOCKED: ATOM      2  O   UNL     1     142.085  71.515 221.942 +0.06 +0.01    -0.277 OA 
DOCKED: ENDROOT
DOCKED: BRANCH   1   3
DOCKED: ATOM      3  C   UNL     1     140.783  72.133 220.040 -0.11 +0.00    -0.015 C  
DOCKED: BRANCH   3   4
DOCKED: ATOM      4  N   UNL     1     139.955  73.262 220.440 +0.03 +0.12    -0.640 NA 
DOCKED: BRANCH   4   5
DOCKED: ATOM      5  C   UNL     1     139.512  73.464 221.784 -0.22 -0.02    +0.101 C  
DOCKED: ATOM      6  O   UNL     1     139.178  74.616 222.173 -0.51 +0.07    -0.313 OA 
DOCKED: BRANCH   5   7
DOCKED: ATOM      7  C   UNL     1     139.494  72.329 222.720 -0.25 -0.02    +0.088 A  
DOCKED: ATOM      8  C   UNL     1     138.550  71.296 222.594 -0.20 -0.01    +0.031 A  
DOCKED: ATOM      9  N   UNL     1     140.360  72.323 223.769 -0.22 +0.03    -0.246 NA 
DOCKED: ATOM     10  C   UNL     1     138.512  70.276 223.546 -0.26 -0.00    +0.013 A  
DOCKED: ATOM     11  C   UNL     1     140.334  71.354 224.722 -0.45 -0.01    +0.071 A  
DOCKED: ATOM     12  C   UNL     1     139.396  70.303 224.631 -0.39 -0.00    +0.002 A  
DOCKED: ATOM     13  C   UNL     1     141.216  71.411 225.807 -0.59 -0.00    +0.030 A  
DOCKED: ATOM     14  C   UNL     1     139.351  69.321 225.632 -0.42 -0.00    +0.030 A  
DOCKED: ATOM     15  C   UNL     1     141.163  70.432 226.803 -0.55 -0.00    +0.023 A  
DOCKED: ATOM     16  C   UNL     1     140.232  69.389 226.718 -0.52 -0.01    +0.041 A  
DOCKED: ATOM     17  Cl  UNL     1     140.167  68.170 227.977 -0.67 +0.02    -0.084 Cl 
DOCKED: ENDBRANCH   5   7
DOCKED: ENDBRANCH   4   5
DOCKED: ENDBRANCH   3   4
DOCKED: ENDBRANCH   1   3
DOCKED: BRANCH   1  18
DOCKED: ATOM     18  N   UNL     1     143.210  72.842 220.381 -0.11 +0.05    -0.335 N  
DOCKED: ATOM     19  C   UNL     1     144.427  72.149 219.982 -0.28 -0.01    +0.120 C  
DOCKED: ATOM     20  C   UNL     1     143.440  74.261 220.634 -0.22 -0.05    +0.140 C  
DOCKED: ATOM     21  C   UNL     1     145.550  73.165 220.126 -0.54 +0.00    +0.024 C  
DOCKED: ATOM     22  C   UNL     1     144.868  74.525 220.139 -0.29 -0.01    +0.033 C  
DOCKED: BRANCH  20  23
DOCKED: ATOM     23  C   UNL     1     142.402  75.170 219.919 -0.17 -0.12    +0.291 C  
DOCKED: BRANCH  23  24
DOCKED: ATOM     24  N   UNL     1     141.243  75.491 220.775 -0.14 +0.10    -0.312 N  
DOCKED: ATOM     25  H   UNL     1     140.374  75.434 220.195 +0.10 -0.10    +0.352 HD 
DOCKED: ATOM     26  H   UNL     1     141.156  74.778 221.535 +0.13 -0.06    +0.352 HD 
DOCKED: BRANCH  24  27
DOCKED: ATOM     27  C   UNL     1     141.336  76.824 221.330 -0.21 -0.06    +0.129 A  
DOCKED: ATOM     28  C   UNL     1     141.051  77.053 222.690 -0.35 -0.03    +0.069 A  
DOCKED: ATOM     29  C   UNL     1     141.709  77.913 220.521 -0.29 -0.04    +0.069 A  
DOCKED: ATOM     30  C   UNL     1     141.166  78.336 223.231 -0.49 -0.01    +0.026 A  
DOCKED: ATOM     31  C   UNL     1     141.834  79.193 221.070 -0.34 -0.01    +0.026 A  
DOCKED: ATOM     32  C   UNL     1     141.569  79.404 222.426 -0.46 -0.02    +0.041 A  
DOCKED: ATOM     33  Cl  UNL     1     141.742  81.005 223.120 -0.70 +0.02    -0.084 Cl 
DOCKED: ENDBRANCH  24  27
DOCKED: ENDBRANCH  23  24
DOCKED: ENDBRANCH  20  23
DOCKED: ENDBRANCH   1  18
DOCKED: TORSDOF 8
DOCKED: TER
DOCKED: ENDMDL
________________________________________________________________________________


    FINAL DOCKED STATE:
    ________________________


Run:   20 / 20
Time taken for this run:   0.061s

DOCKED: MODEL        20
DOCKED: USER    Run = 20
DOCKED: USER
DOCKED: USER    Estimated Free Energy of Binding    =  -7.14 kcal/mol  [=(1)+(2)+(3)-(4)]
DOCKED: USER
DOCKED: USER    (1) Final Intermolecular Energy     =  -9.53 kcal/mol
DOCKED: USER        vdW + Hbond + desolv Energy     =  -9.25 kcal/mol
DOCKED: USER        Electrostatic Energy            =  -0.28 kcal/mol
DOCKED: USER        Moving Ligand-Fixed Receptor    =  -9.53 kcal/mol
DOCKED: USER        Moving Ligand-Moving Receptor   =  +0.00 kcal/mol
DOCKED: USER    (2) Final Total Internal Energy     =  -4.49 kcal/mol
DOCKED: USER    (3) Torsional Free Energy           =  +2.39 kcal/mol
DOCKED: USER    (4) Unbound System's Energy         =  -4.49 kcal/mol
DOCKED: USER
DOCKED: USER
DOCKED: REMARK SMILES O=C([N-]CC(=O)N1CCC[C@H]1C[NH2+]c1ccc(Cl)cc1)c1ccc2cc(Cl)ccc2n1
DOCKED: REMARK SMILES IDX 5 1 6 2 4 3 3 4 2 5 1 6 21 7 22 8 31 9 23 10 30 11 24 12
DOCKED: REMARK SMILES IDX 29 13 25 14 28 15 26 16 27 17 7 18 8 19 11 20 9 21 10 22
DOCKED: REMARK SMILES IDX 12 23 13 24 14 27 15 28 20 29 16 30 19 31 17 32 18 33
DOCKED: REMARK H PARENT 13 25 13 26
DOCKED: USER                              x       y       z     vdW  Elec       q    Type
DOCKED: USER                           _______ _______ _______ _____ _____    ______ ____
DOCKED: ROOT
DOCKED: ATOM      1  C   UNL     1     140.549  76.247 221.587 -0.27 -0.06    +0.205 C  
DOCKED: ATOM      2  O   UNL     1     141.241  75.512 222.343 -0.32 +0.05    -0.277 OA 
DOCKED: ENDROOT
DOCKED: BRANCH   1   3
DOCKED: ATOM      3  C   UNL     1     139.055  76.126 221.608 -0.26 +0.00    -0.015 C  
DOCKED: BRANCH   3   4
DOCKED: ATOM      4  N   UNL     1     138.681  74.779 221.200 -0.01 +0.14    -0.640 NA 
DOCKED: BRANCH   4   5
DOCKED: ATOM      5  C   UNL     1     139.627  73.714 221.076 -0.18 -0.02    +0.101 C  
DOCKED: ATOM      6  O   UNL     1     140.467  73.722 220.137 -0.05 +0.06    -0.313 OA 
DOCKED: BRANCH   5   7
DOCKED: ATOM      7  C   UNL     1     139.580  72.589 222.023 -0.24 -0.02    +0.088 A  
DOCKED: ATOM      8  C   UNL     1     138.709  71.505 221.824 -0.15 -0.01    +0.031 A  
DOCKED: ATOM      9  N   UNL     1     140.340  72.642 223.151 -0.44 +0.02    -0.246 NA 
DOCKED: ATOM     10  C   UNL     1     138.635  70.495 222.783 -0.21 -0.00    +0.013 A  
DOCKED: ATOM     11  C   UNL     1     140.274  71.683 224.112 -0.38 -0.01    +0.071 A  
DOCKED: ATOM     12  C   UNL     1     139.407  70.581 223.948 -0.35 -0.00    +0.002 A  
DOCKED: ATOM     13  C   UNL     1     141.043  71.800 225.275 -0.35 -0.00    +0.030 A  
DOCKED: ATOM     14  C   UNL     1     139.319  69.608 224.955 -0.37 -0.00    +0.030 A  
DOCKED: ATOM     15  C   UNL     1     140.947  70.829 226.277 -0.61 -0.00    +0.023 A  
DOCKED: ATOM     16  C   UNL     1     140.086  69.736 226.119 -0.47 -0.01    +0.041 A  
DOCKED: ATOM     17  Cl  UNL     1     139.965  68.528 227.385 -0.80 +0.02    -0.084 Cl 
DOCKED: ENDBRANCH   5   7
DOCKED: ENDBRANCH   4   5
DOCKED: ENDBRANCH   3   4
DOCKED: ENDBRANCH   1   3
DOCKED: BRANCH   1  18
DOCKED: ATOM     18  N   UNL     1     141.196  77.177 220.702 -0.11 +0.16    -0.335 N  
DOCKED: ATOM     19  C   UNL     1     140.895  78.602 220.714 -0.22 -0.05    +0.120 C  
DOCKED: ATOM     20  C   UNL     1     141.879  76.766 219.479 -0.21 -0.07    +0.140 C  
DOCKED: ATOM     21  C   UNL     1     141.286  79.120 219.338 -0.22 -0.01    +0.024 C  
DOCKED: ATOM     22  C   UNL     1     142.233  78.076 218.765 -0.29 -0.02    +0.033 C  
DOCKED: BRANCH  20  23
DOCKED: ATOM     23  C   UNL     1     143.139  75.901 219.761 -0.22 -0.17    +0.291 C  
DOCKED: BRANCH  23  24
DOCKED: ATOM     24  N   UNL     1     142.846  74.730 220.609 -0.15 +0.12    -0.312 N  
DOCKED: ATOM     25  H   UNL     1     143.058  74.976 221.604 -0.24 -0.20    +0.352 HD 
DOCKED: ATOM     26  H   UNL     1     141.826  74.502 220.557 +0.13 -0.10    +0.352 HD 
DOCKED: BRANCH  24  27
DOCKED: ATOM     27  C   UNL     1     143.647  73.583 220.241 -0.29 -0.03    +0.129 A  
DOCKED: ATOM     28  C   UNL     1     143.034  72.373 219.868 -0.19 -0.01    +0.069 A  
DOCKED: ATOM     29  C   UNL     1     145.053  73.658 220.253 -0.49 -0.01    +0.069 A  
DOCKED: ATOM     30  C   UNL     1     143.809  71.274 219.487 -0.21 -0.00    +0.026 A  
DOCKED: ATOM     31  C   UNL     1     145.824  72.560 219.860 -0.44 +0.01    +0.026 A  
DOCKED: ATOM     32  C   UNL     1     145.202  71.369 219.471 -0.28 +0.01    +0.041 A  
DOCKED: ATOM     33  Cl  UNL     1     146.167  69.997 218.962 -0.38 -0.06    -0.084 Cl 
DOCKED: ENDBRANCH  24  27
DOCKED: ENDBRANCH  23  24
DOCKED: ENDBRANCH  20  23
DOCKED: ENDBRANCH   1  18
DOCKED: TORSDOF 8
DOCKED: TER
DOCKED: ENDMDL
________________________________________________________________________________


    CLUSTERING HISTOGRAM
    ____________________


________________________________________________________________________________
     |           |     |           |     |
Clus | Lowest    | Run | Mean      | Num | Histogram
-ter | Binding   |     | Binding   | in  |
Rank | Energy    |     | Energy    | Clus|    5    10   15   20   25   30   35
_____|___________|_____|___________|_____|____:____|____:____|____:____|____:___
   1 |     -8.12 |   6 |     -7.61 |   7 |#######
   2 |     -8.06 |   1 |     -7.35 |   4 |####
   3 |     -7.97 |  13 |     -7.59 |   2 |##
   4 |     -7.03 |   9 |     -7.03 |   1 |#
   5 |     -6.73 |  11 |     -6.46 |   4 |####
   6 |     -6.42 |  16 |     -6.42 |   1 |#
   7 |     -5.70 |   5 |     -5.70 |   1 |#
_____|___________|_____|___________|_____|______________________________________


    RMSD TABLE
    __________


_______________________________________________________________________
     |      |      |           |         |                 |
Rank | Sub- | Run  | Binding   | Cluster | Reference       | Grep
     | Rank |      | Energy    | RMSD    | RMSD            | Pattern
_____|______|______|___________|_________|_________________|___________
   1      1      6       -8.12      0.00    272.80           RANKING
   1      2     18       -8.06      0.11    272.80           RANKING
   1      3      8       -7.93      1.82    272.64           RANKING
   1      4     19       -7.61      0.97    272.74           RANKING
   1      5     14       -7.47      1.61    272.68           RANKING
   1      6     12       -7.46      1.48    272.50           RANKING
   1      7     10       -6.65      1.88    272.06           RANKING
   2      1      1       -8.06      0.00    272.55           RANKING
   2      2      7       -7.38      0.86    272.34           RANKING
   2      3     20       -7.14      0.97    272.23           RANKING
   2      4      3       -6.80      1.77    271.93           RANKING
   3      1     13       -7.97      0.00    272.56           RANKING
   3      2      4       -7.20      1.88    272.56           RANKING
   4      1      9       -7.03      0.00    272.34           RANKING
   5      1     11       -6.73      0.00    272.38           RANKING
   5      2      2       -6.73      0.10    272.41           RANKING
   5      3     15       -6.51      1.49    272.02           RANKING
   5      4     17       -5.88      1.81    271.79           RANKING
   6      1     16       -6.42      0.00    272.00           RANKING
   7      1      5       -5.70      0.00    272.13           RANKING

Run time 1.163 sec
Idle time 0.000 sec
