AutoDock-GPU version: v1.6

**********************************************************
**    AutoDock-GPU AUTODOCKTOOLS-COMPATIBLE DLG FILE    **
**********************************************************


    DOCKING PARAMETERS
    ________________________


Ligand file:                               /home/a/REINVENT4/ReinventStudies/pleaseWork/justmol2mol_4_Compounds_ontop/graph-dock-8u2o5u/graph-DockGPU/node-autodockgpu/inputs/PQQHAZKJVZVKLX-PLADKKFPNA-M.pdbqt
Grid fld file:                             /home/a/REINVENT4/ReinventStudies/mols/Rad51/maps/rad51_receptor.maps.fld

Random seed:                               42
Number of runs:                            20
Number of energy evaluations:              1132076
Number of generations:                     42000
Size of population:                        150
Rate of crossover:                         80.000000%
Tournament selection probability limit:    60.000000%
Rate of mutation:                          2.000000%
Maximal allowed delta movement:            +/- 6.000000A
Maximal allowed delta angle:               +/- 90.000000

Rate of local search:                      100.000000%
Maximal number of local search iterations: 300
Rho lower bound:                           0.010000
Spread of local search delta movement:     2.000000A
Spread of local search delta angle:        74.999999
Limit of consecutive successes/failures:   4

Handle symmetry during clustering:         YES
RMSD tolerance:                            2.000000A

Program call in command line was:          /home/a/REINVENT4/ReinventStudies/adgpu-v1.6_linux_x64_cuda12_128wi --filelist batch.txt --heuristics 1 --nrun 20 --psize 150 --lsit 300 --seed 42 --heurmax 12000000 


    GRID PARAMETERS
    ________________________


Receptor name:                             rad51_receptor
Number of grid points (x, y, z):           53, 53, 53
Grid center (x, y, z):                     139.950000, 75.640000, 221.970000A
Grid size (x, y, z):                       19.500000, 19.500000, 19.500000A
Grid spacing:                              0.375000A


    LIGAND PARAMETERS
    ________________________


Ligand name:                               /home/a/REINVENT4/ReinventStudies/pleaseWork/justmol2mol_4_Compounds_ontop/graph-dock-8u2o5u/graph-DockGPU/node-autodockgpu/inputs/PQQHAZKJVZVKLX-PLADKKFPNA-M
Number of atoms:                           29
Number of rotatable bonds:                 5
Number of atom types:                      7


    DUMMY DATA (only for ADT-compatibility)
    ________________________


DPF> outlev 1
DPF> ga_run 20
DPF> fld /home/a/REINVENT4/ReinventStudies/mols/Rad51/maps/rad51_receptor.maps.fld
DPF> move /home/a/REINVENT4/ReinventStudies/pleaseWork/justmol2mol_4_Compounds_ontop/graph-dock-8u2o5u/graph-DockGPU/node-autodockgpu/inputs/PQQHAZKJVZVKLX-PLADKKFPNA-M.pdbqt


    COUNTER STATES
    ________________________


Number of energy evaluations performed:    1057359
Number of generations used:                50


    INPUT LIGAND PDBQT FILE:
    ________________________


INPUT-LIGAND-PDBQT: REMARK SMILES O=C(NCC(=O)N1CCCC[C@H]1c1nnc[n-]1)c1ccc2cc(F)ccc2n1
INPUT-LIGAND-PDBQT: REMARK SMILES IDX 4 1 3 2 2 3 1 4 18 6 19 7 28 8 20 9 27 10 21 11 26 12 22 13
INPUT-LIGAND-PDBQT: REMARK SMILES IDX 25 14 23 15 24 16 5 17 6 18 7 19 8 20 12 21 9 22 11 23 10 24
INPUT-LIGAND-PDBQT: REMARK SMILES IDX 13 25 14 26 17 27 15 28 16 29
INPUT-LIGAND-PDBQT: REMARK H PARENT 3 5
INPUT-LIGAND-PDBQT: ROOT
INPUT-LIGAND-PDBQT: ATOM      1  C   UNL     1       0.500  -1.071  -0.803  1.00  0.00     0.216 C 
INPUT-LIGAND-PDBQT: ENDROOT
INPUT-LIGAND-PDBQT: BRANCH   1   2
INPUT-LIGAND-PDBQT: ATOM      2  N   UNL     1      -0.344   0.087  -1.101  1.00  0.00    -0.342 N 
INPUT-LIGAND-PDBQT: ATOM      3  C   UNL     1      -1.654  -0.074  -1.666  1.00  0.00     0.270 C 
INPUT-LIGAND-PDBQT: ATOM      4  O   UNL     1      -2.095  -1.233  -1.899  1.00  0.00    -0.268 OA
INPUT-LIGAND-PDBQT: ATOM      5  H   UNL     1       0.028   1.052  -0.950  1.00  0.00     0.164 HD
INPUT-LIGAND-PDBQT: BRANCH   3   6
INPUT-LIGAND-PDBQT: ATOM      6  C   UNL     1      -2.491   1.107  -1.978  1.00  0.00     0.128 A 
INPUT-LIGAND-PDBQT: ATOM      7  C   UNL     1      -3.771   0.959  -2.540  1.00  0.00     0.035 A 
INPUT-LIGAND-PDBQT: ATOM      8  N   UNL     1      -2.017   2.357  -1.717  1.00  0.00    -0.243 NA
INPUT-LIGAND-PDBQT: ATOM      9  C   UNL     1      -4.538   2.091  -2.823  1.00  0.00     0.013 A 
INPUT-LIGAND-PDBQT: ATOM     10  C   UNL     1      -2.742   3.477  -1.981  1.00  0.00     0.071 A 
INPUT-LIGAND-PDBQT: ATOM     11  C   UNL     1      -4.031   3.365  -2.546  1.00  0.00     0.003 A 
INPUT-LIGAND-PDBQT: ATOM     12  C   UNL     1      -2.213   4.741  -1.695  1.00  0.00     0.032 A 
INPUT-LIGAND-PDBQT: ATOM     13  C   UNL     1      -4.775   4.522  -2.818  1.00  0.00     0.049 A 
INPUT-LIGAND-PDBQT: ATOM     14  C   UNL     1      -2.961   5.890  -1.969  1.00  0.00     0.041 A 
INPUT-LIGAND-PDBQT: ATOM     15  C   UNL     1      -4.239   5.782  -2.529  1.00  0.00     0.123 A 
INPUT-LIGAND-PDBQT: ATOM     16  F   UNL     1      -4.958   6.900  -2.792  1.00  0.00    -0.207 F 
INPUT-LIGAND-PDBQT: ENDBRANCH   3   6
INPUT-LIGAND-PDBQT: ENDBRANCH   1   2
INPUT-LIGAND-PDBQT: BRANCH   1  17
INPUT-LIGAND-PDBQT: ATOM     17  C   UNL     1       1.756  -0.670  -0.068  1.00  0.00     0.242 C 
INPUT-LIGAND-PDBQT: ATOM     18  O   UNL     1       1.685   0.248   0.795  1.00  0.00    -0.273 OA
INPUT-LIGAND-PDBQT: BRANCH  17  19
INPUT-LIGAND-PDBQT: ATOM     19  N   UNL     1       3.009  -1.364  -0.269  1.00  0.00    -0.334 N 
INPUT-LIGAND-PDBQT: ATOM     20  C   UNL     1       4.266  -0.711   0.131  1.00  0.00     0.120 C 
INPUT-LIGAND-PDBQT: ATOM     21  C   UNL     1       3.040  -2.771  -0.725  1.00  0.00     0.121 C 
INPUT-LIGAND-PDBQT: ATOM     22  C   UNL     1       5.346  -0.891  -0.948  1.00  0.00     0.022 C 
INPUT-LIGAND-PDBQT: ATOM     23  C   UNL     1       4.483  -3.299  -0.839  1.00  0.00     0.030 C 
INPUT-LIGAND-PDBQT: ATOM     24  C   UNL     1       5.354  -2.293  -1.594  1.00  0.00     0.004 C 
INPUT-LIGAND-PDBQT: BRANCH  21  25
INPUT-LIGAND-PDBQT: ATOM     25  C   UNL     1       2.258  -3.649   0.211  1.00  0.00     0.012 A 
INPUT-LIGAND-PDBQT: ATOM     26  N   UNL     1       1.390  -4.589  -0.202  1.00  0.00    -0.351 NA
INPUT-LIGAND-PDBQT: ATOM     27  N   UNL     1       2.376  -3.608   1.553  1.00  0.00    -0.368 NA
INPUT-LIGAND-PDBQT: ATOM     28  N   UNL     1       0.920  -5.170   0.888  1.00  0.00    -0.357 NA
INPUT-LIGAND-PDBQT: ATOM     29  C   UNL     1       1.518  -4.573   1.935  1.00  0.00     0.044 A 
INPUT-LIGAND-PDBQT: ENDBRANCH  21  25
INPUT-LIGAND-PDBQT: ENDBRANCH  17  19
INPUT-LIGAND-PDBQT: ENDBRANCH   1  17
INPUT-LIGAND-PDBQT: TORSDOF 5


    FINAL DOCKED STATE:
    ________________________


Run:   1 / 20
Time taken for this run:   0.041s

DOCKED: MODEL        1
DOCKED: USER    Run = 1
DOCKED: USER
DOCKED: USER    Estimated Free Energy of Binding    =  -5.85 kcal/mol  [=(1)+(2)+(3)-(4)]
DOCKED: USER
DOCKED: USER    (1) Final Intermolecular Energy     =  -7.34 kcal/mol
DOCKED: USER        vdW + Hbond + desolv Energy     =  -7.40 kcal/mol
DOCKED: USER        Electrostatic Energy            =  +0.06 kcal/mol
DOCKED: USER        Moving Ligand-Fixed Receptor    =  -7.34 kcal/mol
DOCKED: USER        Moving Ligand-Moving Receptor   =  +0.00 kcal/mol
DOCKED: USER    (2) Final Total Internal Energy     =  -3.21 kcal/mol
DOCKED: USER    (3) Torsional Free Energy           =  +1.49 kcal/mol
DOCKED: USER    (4) Unbound System's Energy         =  -3.21 kcal/mol
DOCKED: USER
DOCKED: USER
DOCKED: REMARK SMILES O=C(NCC(=O)N1CCCC[C@H]1c1nnc[n-]1)c1ccc2cc(F)ccc2n1
DOCKED: REMARK SMILES IDX 4 1 3 2 2 3 1 4 18 6 19 7 28 8 20 9 27 10 21 11 26 12 22 13
DOCKED: REMARK SMILES IDX 25 14 23 15 24 16 5 17 6 18 7 19 8 20 12 21 9 22 11 23 10 24
DOCKED: REMARK SMILES IDX 13 25 14 26 17 27 15 28 16 29
DOCKED: REMARK H PARENT 3 5
DOCKED: USER                              x       y       z     vdW  Elec       q    Type
DOCKED: USER                           _______ _______ _______ _____ _____    ______ ____
DOCKED: ROOT
DOCKED: ATOM      1  C   UNL     1     136.298  73.751 222.215 -0.10 -0.06    +0.216 C  
DOCKED: ENDROOT
DOCKED: BRANCH   1   2
DOCKED: ATOM      2  N   UNL     1     137.510  74.561 222.341 -0.05 +0.12    -0.342 N  
DOCKED: ATOM      3  C   UNL     1     137.448  75.996 222.343 -0.17 -0.06    +0.270 C  
DOCKED: ATOM      4  O   UNL     1     136.329  76.572 222.248 -0.10 +0.05    -0.268 OA 
DOCKED: ATOM      5  H   UNL     1     138.444  74.094 222.380 -0.30 -0.06    +0.164 HD 
DOCKED: BRANCH   3   6
DOCKED: ATOM      6  C   UNL     1     138.683  76.804 222.456 -0.26 -0.03    +0.128 A  
DOCKED: ATOM      7  C   UNL     1     139.919  76.304 222.007 -0.35 -0.01    +0.035 A  
DOCKED: ATOM      8  N   UNL     1     138.626  78.051 223.000 -0.16 +0.04    -0.243 NA 
DOCKED: ATOM      9  C   UNL     1     141.067  77.090 222.126 -0.39 -0.01    +0.013 A  
DOCKED: ATOM     10  C   UNL     1     139.728  78.839 223.127 -0.34 -0.01    +0.071 A  
DOCKED: ATOM     11  C   UNL     1     140.984  78.368 222.688 -0.48 -0.00    +0.003 A  
DOCKED: ATOM     12  C   UNL     1     139.619  80.114 223.693 -0.41 -0.00    +0.032 A  
DOCKED: ATOM     13  C   UNL     1     142.118  79.182 222.821 -0.54 -0.02    +0.049 A  
DOCKED: ATOM     14  C   UNL     1     140.754  80.920 223.823 -0.39 -0.01    +0.041 A  
DOCKED: ATOM     15  C   UNL     1     142.001  80.456 223.388 -0.52 -0.03    +0.123 A  
DOCKED: ATOM     16  F   UNL     1     143.097  81.243 223.517 -0.12 +0.04    -0.207 F  
DOCKED: ENDBRANCH   3   6
DOCKED: ENDBRANCH   1   2
DOCKED: BRANCH   1  17
DOCKED: ATOM     17  C   UNL     1     136.172  72.757 223.344 -0.09 -0.07    +0.242 C  
DOCKED: ATOM     18  O   UNL     1     135.447  73.054 224.333 -0.18 +0.05    -0.273 OA 
DOCKED: BRANCH  17  19
DOCKED: ATOM     19  N   UNL     1     136.791  71.451 223.280 -0.08 +0.07    -0.334 N  
DOCKED: ATOM     20  C   UNL     1     136.008  70.307 222.786 -0.08 -0.02    +0.120 C  
DOCKED: ATOM     21  C   UNL     1     138.234  71.273 223.556 -0.19 -0.03    +0.121 C  
DOCKED: ATOM     22  C   UNL     1     136.226  69.069 223.671 -0.17 -0.00    +0.022 C  
DOCKED: ATOM     23  C   UNL     1     138.664  69.802 223.399 -0.25 -0.01    +0.030 C  
DOCKED: ATOM     24  C   UNL     1     137.686  68.886 224.137 -0.27 -0.00    +0.004 C  
DOCKED: BRANCH  21  25
DOCKED: ATOM     25  C   UNL     1     139.058  72.136 222.643 -0.23 -0.00    +0.012 A  
DOCKED: ATOM     26  N   UNL     1     140.086  72.895 223.063 -0.37 +0.03    -0.351 NA 
DOCKED: ATOM     27  N   UNL     1     138.875  72.208 221.309 -0.04 +0.07    -0.368 NA 
DOCKED: ATOM     28  N   UNL     1     140.581  73.484 221.989 -0.62 +0.02    -0.357 NA 
DOCKED: ATOM     29  C   UNL     1     139.846  73.065 220.943 -0.16 -0.01    +0.044 A  
DOCKED: ENDBRANCH  21  25
DOCKED: ENDBRANCH  17  19
DOCKED: ENDBRANCH   1  17
DOCKED: TORSDOF 5
DOCKED: TER
DOCKED: ENDMDL
________________________________________________________________________________


    FINAL DOCKED STATE:
    ________________________


Run:   2 / 20
Time taken for this run:   0.041s

DOCKED: MODEL        2
DOCKED: USER    Run = 2
DOCKED: USER
DOCKED: USER    Estimated Free Energy of Binding    =  -7.33 kcal/mol  [=(1)+(2)+(3)-(4)]
DOCKED: USER
DOCKED: USER    (1) Final Intermolecular Energy     =  -8.82 kcal/mol
DOCKED: USER        vdW + Hbond + desolv Energy     =  -8.21 kcal/mol
DOCKED: USER        Electrostatic Energy            =  -0.61 kcal/mol
DOCKED: USER        Moving Ligand-Fixed Receptor    =  -8.82 kcal/mol
DOCKED: USER        Moving Ligand-Moving Receptor   =  +0.00 kcal/mol
DOCKED: USER    (2) Final Total Internal Energy     =  -1.95 kcal/mol
DOCKED: USER    (3) Torsional Free Energy           =  +1.49 kcal/mol
DOCKED: USER    (4) Unbound System's Energy         =  -1.95 kcal/mol
DOCKED: USER
DOCKED: USER
DOCKED: REMARK SMILES O=C(NCC(=O)N1CCCC[C@H]1c1nnc[n-]1)c1ccc2cc(F)ccc2n1
DOCKED: REMARK SMILES IDX 4 1 3 2 2 3 1 4 18 6 19 7 28 8 20 9 27 10 21 11 26 12 22 13
DOCKED: REMARK SMILES IDX 25 14 23 15 24 16 5 17 6 18 7 19 8 20 12 21 9 22 11 23 10 24
DOCKED: REMARK SMILES IDX 13 25 14 26 17 27 15 28 16 29
DOCKED: REMARK H PARENT 3 5
DOCKED: USER                              x       y       z     vdW  Elec       q    Type
DOCKED: USER                           _______ _______ _______ _____ _____    ______ ____
DOCKED: ROOT
DOCKED: ATOM      1  C   UNL     1     141.813  72.340 221.129 -0.16 -0.02    +0.216 C  
DOCKED: ENDROOT
DOCKED: BRANCH   1   2
DOCKED: ATOM      2  N   UNL     1     142.024  73.787 221.083 -0.11 +0.06    -0.342 N  
DOCKED: ATOM      3  C   UNL     1     141.032  74.699 221.579 -0.19 -0.04    +0.270 C  
DOCKED: ATOM      4  O   UNL     1     139.963  74.249 222.075 -0.82 +0.02    -0.268 OA 
DOCKED: ATOM      5  H   UNL     1     142.888  74.171 220.637 +0.05 -0.05    +0.164 HD 
DOCKED: BRANCH   3   6
DOCKED: ATOM      6  C   UNL     1     141.252  76.162 221.512 -0.23 -0.05    +0.128 A  
DOCKED: ATOM      7  C   UNL     1     141.645  76.781 220.313 -0.27 -0.02    +0.035 A  
DOCKED: ATOM      8  N   UNL     1     141.071  76.922 222.628 -0.27 +0.09    -0.243 NA 
DOCKED: ATOM      9  C   UNL     1     141.844  78.162 220.280 -0.30 -0.01    +0.013 A  
DOCKED: ATOM     10  C   UNL     1     141.257  78.270 222.625 -0.44 -0.03    +0.071 A  
DOCKED: ATOM     11  C   UNL     1     141.652  78.924 221.437 -0.39 -0.00    +0.003 A  
DOCKED: ATOM     12  C   UNL     1     141.058  79.010 223.796 -0.53 -0.01    +0.032 A  
DOCKED: ATOM     13  C   UNL     1     141.843  80.313 221.438 -0.39 -0.02    +0.049 A  
DOCKED: ATOM     14  C   UNL     1     141.251  80.394 223.789 -0.49 -0.01    +0.041 A  
DOCKED: ATOM     15  C   UNL     1     141.643  81.045 222.614 -0.43 -0.03    +0.123 A  
DOCKED: ATOM     16  F   UNL     1     141.828  82.388 222.614 -0.10 +0.02    -0.207 F  
DOCKED: ENDBRANCH   3   6
DOCKED: ENDBRANCH   1   2
DOCKED: BRANCH   1  17
DOCKED: ATOM     17  C   UNL     1     141.780  71.739 219.744 -0.07 -0.04    +0.242 C  
DOCKED: ATOM     18  O   UNL     1     141.003  72.239 218.886 -0.02 +0.05    -0.273 OA 
DOCKED: BRANCH  17  19
DOCKED: ATOM     19  N   UNL     1     142.671  70.666 219.360 -0.04 +0.04    -0.334 N  
DOCKED: ATOM     20  C   UNL     1     142.306  69.797 218.230 -0.05 -0.02    +0.120 C  
DOCKED: ATOM     21  C   UNL     1     144.007  70.522 219.979 -0.15 -0.00    +0.121 C  
DOCKED: ATOM     22  C   UNL     1     142.575  68.320 218.563 -0.14 -0.01    +0.022 C  
DOCKED: ATOM     23  C   UNL     1     144.780  69.326 219.389 -0.27 +0.01    +0.030 C  
DOCKED: ATOM     24  C   UNL     1     143.883  68.087 219.349 -0.30 -0.00    +0.004 C  
DOCKED: BRANCH  21  25
DOCKED: ATOM     25  C   UNL     1     144.813  71.777 219.798 -0.32 +0.00    +0.012 A  
DOCKED: ATOM     26  N   UNL     1     145.756  71.926 218.852 -0.51 -0.31    -0.351 NA 
DOCKED: ATOM     27  N   UNL     1     144.646  72.890 220.541 -0.18 +0.05    -0.368 NA 
DOCKED: ATOM     28  N   UNL     1     146.226  73.154 218.980 -0.63 -0.29    -0.357 NA 
DOCKED: ATOM     29  C   UNL     1     145.553  73.723 219.997 -0.47 -0.00    +0.044 A  
DOCKED: ENDBRANCH  21  25
DOCKED: ENDBRANCH  17  19
DOCKED: ENDBRANCH   1  17
DOCKED: TORSDOF 5
DOCKED: TER
DOCKED: ENDMDL
________________________________________________________________________________


    FINAL DOCKED STATE:
    ________________________


Run:   3 / 20
Time taken for this run:   0.041s

DOCKED: MODEL        3
DOCKED: USER    Run = 3
DOCKED: USER
DOCKED: USER    Estimated Free Energy of Binding    =  -7.33 kcal/mol  [=(1)+(2)+(3)-(4)]
DOCKED: USER
DOCKED: USER    (1) Final Intermolecular Energy     =  -8.82 kcal/mol
DOCKED: USER        vdW + Hbond + desolv Energy     =  -8.18 kcal/mol
DOCKED: USER        Electrostatic Energy            =  -0.64 kcal/mol
DOCKED: USER        Moving Ligand-Fixed Receptor    =  -8.82 kcal/mol
DOCKED: USER        Moving Ligand-Moving Receptor   =  +0.00 kcal/mol
DOCKED: USER    (2) Final Total Internal Energy     =  -1.96 kcal/mol
DOCKED: USER    (3) Torsional Free Energy           =  +1.49 kcal/mol
DOCKED: USER    (4) Unbound System's Energy         =  -1.96 kcal/mol
DOCKED: USER
DOCKED: USER
DOCKED: REMARK SMILES O=C(NCC(=O)N1CCCC[C@H]1c1nnc[n-]1)c1ccc2cc(F)ccc2n1
DOCKED: REMARK SMILES IDX 4 1 3 2 2 3 1 4 18 6 19 7 28 8 20 9 27 10 21 11 26 12 22 13
DOCKED: REMARK SMILES IDX 25 14 23 15 24 16 5 17 6 18 7 19 8 20 12 21 9 22 11 23 10 24
DOCKED: REMARK SMILES IDX 13 25 14 26 17 27 15 28 16 29
DOCKED: REMARK H PARENT 3 5
DOCKED: USER                              x       y       z     vdW  Elec       q    Type
DOCKED: USER                           _______ _______ _______ _____ _____    ______ ____
DOCKED: ROOT
DOCKED: ATOM      1  C   UNL     1     141.745  72.263 220.945 -0.15 -0.03    +0.216 C  
DOCKED: ENDROOT
DOCKED: BRANCH   1   2
DOCKED: ATOM      2  N   UNL     1     141.961  73.710 220.926 -0.12 +0.06    -0.342 N  
DOCKED: ATOM      3  C   UNL     1     141.014  74.611 221.520 -0.19 -0.04    +0.270 C  
DOCKED: ATOM      4  O   UNL     1     139.981  74.151 222.080 -0.83 +0.02    -0.268 OA 
DOCKED: ATOM      5  H   UNL     1     142.792  74.104 220.429 +0.06 -0.05    +0.164 HD 
DOCKED: BRANCH   3   6
DOCKED: ATOM      6  C   UNL     1     141.237  76.075 221.479 -0.25 -0.05    +0.128 A  
DOCKED: ATOM      7  C   UNL     1     141.626  76.715 220.290 -0.27 -0.02    +0.035 A  
DOCKED: ATOM      8  N   UNL     1     141.063  76.815 222.609 -0.26 +0.09    -0.243 NA 
DOCKED: ATOM      9  C   UNL     1     141.828  78.096 220.281 -0.31 -0.01    +0.013 A  
DOCKED: ATOM     10  C   UNL     1     141.252  78.161 222.630 -0.43 -0.03    +0.071 A  
DOCKED: ATOM     11  C   UNL     1     141.643  78.836 221.454 -0.39 -0.00    +0.003 A  
DOCKED: ATOM     12  C   UNL     1     141.060  78.880 223.816 -0.48 -0.01    +0.032 A  
DOCKED: ATOM     13  C   UNL     1     141.838  80.225 221.480 -0.40 -0.02    +0.049 A  
DOCKED: ATOM     14  C   UNL     1     141.257  80.264 223.834 -0.49 -0.01    +0.041 A  
DOCKED: ATOM     15  C   UNL     1     141.644  80.936 222.669 -0.44 -0.03    +0.123 A  
DOCKED: ATOM     16  F   UNL     1     141.833  82.277 222.694 -0.11 +0.02    -0.207 F  
DOCKED: ENDBRANCH   3   6
DOCKED: ENDBRANCH   1   2
DOCKED: BRANCH   1  17
DOCKED: ATOM     17  C   UNL     1     141.805  71.673 219.557 -0.06 -0.04    +0.242 C  
DOCKED: ATOM     18  O   UNL     1     141.074  72.171 218.656 -0.01 +0.05    -0.273 OA 
DOCKED: BRANCH  17  19
DOCKED: ATOM     19  N   UNL     1     142.732  70.615 219.220 -0.03 +0.03    -0.334 N  
DOCKED: ATOM     20  C   UNL     1     142.433  69.732 218.081 -0.05 -0.02    +0.120 C  
DOCKED: ATOM     21  C   UNL     1     144.042  70.501 219.897 -0.16 +0.00    +0.121 C  
DOCKED: ATOM     22  C   UNL     1     142.715  68.263 218.437 -0.14 -0.01    +0.022 C  
DOCKED: ATOM     23  C   UNL     1     144.862  69.317 219.351 -0.29 +0.01    +0.030 C  
DOCKED: ATOM     24  C   UNL     1     143.992  68.061 219.281 -0.31 -0.00    +0.004 C  
DOCKED: BRANCH  21  25
DOCKED: ATOM     25  C   UNL     1     144.831  71.771 219.742 -0.32 +0.00    +0.012 A  
DOCKED: ATOM     26  N   UNL     1     145.817  71.928 218.842 -0.50 -0.33    -0.351 NA 
DOCKED: ATOM     27  N   UNL     1     144.605  72.888 220.462 -0.17 +0.05    -0.368 NA 
DOCKED: ATOM     28  N   UNL     1     146.256  73.167 218.979 -0.62 -0.30    -0.357 NA 
DOCKED: ATOM     29  C   UNL     1     145.522  73.733 219.954 -0.46 -0.00    +0.044 A  
DOCKED: ENDBRANCH  21  25
DOCKED: ENDBRANCH  17  19
DOCKED: ENDBRANCH   1  17
DOCKED: TORSDOF 5
DOCKED: TER
DOCKED: ENDMDL
________________________________________________________________________________


    FINAL DOCKED STATE:
    ________________________


Run:   4 / 20
Time taken for this run:   0.041s

DOCKED: MODEL        4
DOCKED: USER    Run = 4
DOCKED: USER
DOCKED: USER    Estimated Free Energy of Binding    =  -6.31 kcal/mol  [=(1)+(2)+(3)-(4)]
DOCKED: USER
DOCKED: USER    (1) Final Intermolecular Energy     =  -7.80 kcal/mol
DOCKED: USER        vdW + Hbond + desolv Energy     =  -7.89 kcal/mol
DOCKED: USER        Electrostatic Energy            =  +0.09 kcal/mol
DOCKED: USER        Moving Ligand-Fixed Receptor    =  -7.80 kcal/mol
DOCKED: USER        Moving Ligand-Moving Receptor   =  +0.00 kcal/mol
DOCKED: USER    (2) Final Total Internal Energy     =  -3.00 kcal/mol
DOCKED: USER    (3) Torsional Free Energy           =  +1.49 kcal/mol
DOCKED: USER    (4) Unbound System's Energy         =  -3.00 kcal/mol
DOCKED: USER
DOCKED: USER
DOCKED: REMARK SMILES O=C(NCC(=O)N1CCCC[C@H]1c1nnc[n-]1)c1ccc2cc(F)ccc2n1
DOCKED: REMARK SMILES IDX 4 1 3 2 2 3 1 4 18 6 19 7 28 8 20 9 27 10 21 11 26 12 22 13
DOCKED: REMARK SMILES IDX 25 14 23 15 24 16 5 17 6 18 7 19 8 20 12 21 9 22 11 23 10 24
DOCKED: REMARK SMILES IDX 13 25 14 26 17 27 15 28 16 29
DOCKED: REMARK H PARENT 3 5
DOCKED: USER                              x       y       z     vdW  Elec       q    Type
DOCKED: USER                           _______ _______ _______ _____ _____    ______ ____
DOCKED: ROOT
DOCKED: ATOM      1  C   UNL     1     136.625  74.265 221.718 -0.09 -0.05    +0.216 C  
DOCKED: ENDROOT
DOCKED: BRANCH   1   2
DOCKED: ATOM      2  N   UNL     1     137.341  73.259 222.503 +0.02 +0.13    -0.342 N  
DOCKED: ATOM      3  C   UNL     1     136.662  72.111 223.036 -0.10 -0.07    +0.270 C  
DOCKED: ATOM      4  O   UNL     1     135.430  71.957 222.815 -0.05 +0.05    -0.268 OA 
DOCKED: ATOM      5  H   UNL     1     138.353  73.398 222.726 -0.52 -0.08    +0.164 HD 
DOCKED: BRANCH   3   6
DOCKED: ATOM      6  C   UNL     1     137.395  71.109 223.842 -0.19 -0.03    +0.128 A  
DOCKED: ATOM      7  C   UNL     1     136.790  69.896 224.214 -0.23 -0.00    +0.035 A  
DOCKED: ATOM      8  N   UNL     1     138.676  71.363 224.231 -0.14 +0.07    -0.243 NA 
DOCKED: ATOM      9  C   UNL     1     137.506  68.969 224.974 -0.27 -0.00    +0.013 A  
DOCKED: ATOM     10  C   UNL     1     139.398  70.478 224.971 -0.37 -0.01    +0.071 A  
DOCKED: ATOM     11  C   UNL     1     138.820  69.251 225.362 -0.41 -0.00    +0.003 A  
DOCKED: ATOM     12  C   UNL     1     140.711  70.783 225.347 -0.53 -0.00    +0.032 A  
DOCKED: ATOM     13  C   UNL     1     139.567  68.342 226.125 -0.53 -0.01    +0.049 A  
DOCKED: ATOM     14  C   UNL     1     141.449  69.872 226.108 -0.49 -0.01    +0.041 A  
DOCKED: ATOM     15  C   UNL     1     140.880  68.654 226.497 -0.50 -0.03    +0.123 A  
DOCKED: ATOM     16  F   UNL     1     141.601  67.776 227.235 -0.14 +0.06    -0.207 F  
DOCKED: ENDBRANCH   3   6
DOCKED: ENDBRANCH   1   2
DOCKED: BRANCH   1  17
DOCKED: ATOM     17  C   UNL     1     137.577  75.178 220.982 -0.07 -0.05    +0.242 C  
DOCKED: ATOM     18  O   UNL     1     137.506  75.237 219.723 -0.01 +0.05    -0.273 OA 
DOCKED: BRANCH  17  19
DOCKED: ATOM     19  N   UNL     1     138.502  76.039 221.686 -0.11 +0.07    -0.334 N  
DOCKED: ATOM     20  C   UNL     1     137.998  76.915 222.755 -0.23 -0.02    +0.120 C  
DOCKED: ATOM     21  C   UNL     1     139.960  75.944 221.457 -0.26 -0.03    +0.121 C  
DOCKED: ATOM     22  C   UNL     1     138.605  78.323 222.643 -0.28 -0.00    +0.022 C  
DOCKED: ATOM     23  C   UNL     1     140.739  76.940 222.338 -0.41 -0.01    +0.030 C  
DOCKED: ATOM     24  C   UNL     1     140.099  78.328 222.255 -0.36 -0.00    +0.004 C  
DOCKED: BRANCH  21  25
DOCKED: ATOM     25  C   UNL     1     140.450  74.549 221.726 -0.28 -0.00    +0.012 A  
DOCKED: ATOM     26  N   UNL     1     139.953  73.761 222.695 -0.53 -0.01    -0.351 NA 
DOCKED: ATOM     27  N   UNL     1     141.407  73.937 221.001 -0.14 +0.06    -0.368 NA 
DOCKED: ATOM     28  N   UNL     1     140.603  72.612 222.614 -0.42 +0.02    -0.357 NA 
DOCKED: ATOM     29  C   UNL     1     141.473  72.730 221.594 -0.24 -0.00    +0.044 A  
DOCKED: ENDBRANCH  21  25
DOCKED: ENDBRANCH  17  19
DOCKED: ENDBRANCH   1  17
DOCKED: TORSDOF 5
DOCKED: TER
DOCKED: ENDMDL
________________________________________________________________________________


    FINAL DOCKED STATE:
    ________________________


Run:   5 / 20
Time taken for this run:   0.041s

DOCKED: MODEL        5
DOCKED: USER    Run = 5
DOCKED: USER
DOCKED: USER    Estimated Free Energy of Binding    =  -6.31 kcal/mol  [=(1)+(2)+(3)-(4)]
DOCKED: USER
DOCKED: USER    (1) Final Intermolecular Energy     =  -7.80 kcal/mol
DOCKED: USER        vdW + Hbond + desolv Energy     =  -7.89 kcal/mol
DOCKED: USER        Electrostatic Energy            =  +0.09 kcal/mol
DOCKED: USER        Moving Ligand-Fixed Receptor    =  -7.80 kcal/mol
DOCKED: USER        Moving Ligand-Moving Receptor   =  +0.00 kcal/mol
DOCKED: USER    (2) Final Total Internal Energy     =  -3.00 kcal/mol
DOCKED: USER    (3) Torsional Free Energy           =  +1.49 kcal/mol
DOCKED: USER    (4) Unbound System's Energy         =  -3.00 kcal/mol
DOCKED: USER
DOCKED: USER
DOCKED: REMARK SMILES O=C(NCC(=O)N1CCCC[C@H]1c1nnc[n-]1)c1ccc2cc(F)ccc2n1
DOCKED: REMARK SMILES IDX 4 1 3 2 2 3 1 4 18 6 19 7 28 8 20 9 27 10 21 11 26 12 22 13
DOCKED: REMARK SMILES IDX 25 14 23 15 24 16 5 17 6 18 7 19 8 20 12 21 9 22 11 23 10 24
DOCKED: REMARK SMILES IDX 13 25 14 26 17 27 15 28 16 29
DOCKED: REMARK H PARENT 3 5
DOCKED: USER                              x       y       z     vdW  Elec       q    Type
DOCKED: USER                           _______ _______ _______ _____ _____    ______ ____
DOCKED: ROOT
DOCKED: ATOM      1  C   UNL     1     136.630  74.266 221.667 -0.08 -0.05    +0.216 C  
DOCKED: ENDROOT
DOCKED: BRANCH   1   2
DOCKED: ATOM      2  N   UNL     1     137.342  73.269 222.467 +0.01 +0.12    -0.342 N  
DOCKED: ATOM      3  C   UNL     1     136.669  72.109 222.980 -0.10 -0.07    +0.270 C  
DOCKED: ATOM      4  O   UNL     1     135.445  71.936 222.729 -0.05 +0.05    -0.268 OA 
DOCKED: ATOM      5  H   UNL     1     138.346  73.425 222.716 -0.52 -0.08    +0.164 HD 
DOCKED: BRANCH   3   6
DOCKED: ATOM      6  C   UNL     1     137.399  71.117 223.802 -0.19 -0.03    +0.128 A  
DOCKED: ATOM      7  C   UNL     1     136.803  69.894 224.158 -0.23 -0.00    +0.035 A  
DOCKED: ATOM      8  N   UNL     1     138.666  71.389 224.221 -0.14 +0.07    -0.243 NA 
DOCKED: ATOM      9  C   UNL     1     137.515  68.977 224.933 -0.28 -0.00    +0.013 A  
DOCKED: ATOM     10  C   UNL     1     139.383  70.514 224.976 -0.37 -0.01    +0.071 A  
DOCKED: ATOM     11  C   UNL     1     138.816  69.277 225.352 -0.41 -0.00    +0.003 A  
DOCKED: ATOM     12  C   UNL     1     140.683  70.838 225.383 -0.54 -0.00    +0.032 A  
DOCKED: ATOM     13  C   UNL     1     139.558  68.379 226.131 -0.53 -0.01    +0.049 A  
DOCKED: ATOM     14  C   UNL     1     141.417  69.937 226.160 -0.49 -0.01    +0.041 A  
DOCKED: ATOM     15  C   UNL     1     140.857  68.710 226.534 -0.49 -0.03    +0.123 A  
DOCKED: ATOM     16  F   UNL     1     141.574  67.841 227.287 -0.14 +0.06    -0.207 F  
DOCKED: ENDBRANCH   3   6
DOCKED: ENDBRANCH   1   2
DOCKED: BRANCH   1  17
DOCKED: ATOM     17  C   UNL     1     137.584  75.185 220.944 -0.07 -0.05    +0.242 C  
DOCKED: ATOM     18  O   UNL     1     137.519  75.256 219.686 -0.01 +0.05    -0.273 OA 
DOCKED: BRANCH  17  19
DOCKED: ATOM     19  N   UNL     1     138.506  76.040 221.659 -0.11 +0.07    -0.334 N  
DOCKED: ATOM     20  C   UNL     1     137.996  76.914 222.728 -0.24 -0.02    +0.120 C  
DOCKED: ATOM     21  C   UNL     1     139.966  75.941 221.443 -0.26 -0.03    +0.121 C  
DOCKED: ATOM     22  C   UNL     1     138.609  78.320 222.627 -0.28 -0.00    +0.022 C  
DOCKED: ATOM     23  C   UNL     1     140.740  76.931 222.335 -0.41 -0.01    +0.030 C  
DOCKED: ATOM     24  C   UNL     1     140.107  78.321 222.252 -0.36 -0.00    +0.004 C  
DOCKED: BRANCH  21  25
DOCKED: ATOM     25  C   UNL     1     140.448  74.543 221.711 -0.28 -0.00    +0.012 A  
DOCKED: ATOM     26  N   UNL     1     139.953  73.759 222.685 -0.54 -0.00    -0.351 NA 
DOCKED: ATOM     27  N   UNL     1     141.396  73.923 220.981 -0.14 +0.06    -0.368 NA 
DOCKED: ATOM     28  N   UNL     1     140.593  72.607 222.601 -0.41 +0.02    -0.357 NA 
DOCKED: ATOM     29  C   UNL     1     141.458  72.716 221.575 -0.25 -0.00    +0.044 A  
DOCKED: ENDBRANCH  21  25
DOCKED: ENDBRANCH  17  19
DOCKED: ENDBRANCH   1  17
DOCKED: TORSDOF 5
DOCKED: TER
DOCKED: ENDMDL
________________________________________________________________________________


    FINAL DOCKED STATE:
    ________________________


Run:   6 / 20
Time taken for this run:   0.041s

DOCKED: MODEL        6
DOCKED: USER    Run = 6
DOCKED: USER
DOCKED: USER    Estimated Free Energy of Binding    =  -6.22 kcal/mol  [=(1)+(2)+(3)-(4)]
DOCKED: USER
DOCKED: USER    (1) Final Intermolecular Energy     =  -7.71 kcal/mol
DOCKED: USER        vdW + Hbond + desolv Energy     =  -7.79 kcal/mol
DOCKED: USER        Electrostatic Energy            =  +0.08 kcal/mol
DOCKED: USER        Moving Ligand-Fixed Receptor    =  -7.71 kcal/mol
DOCKED: USER        Moving Ligand-Moving Receptor   =  +0.00 kcal/mol
DOCKED: USER    (2) Final Total Internal Energy     =  -2.96 kcal/mol
DOCKED: USER    (3) Torsional Free Energy           =  +1.49 kcal/mol
DOCKED: USER    (4) Unbound System's Energy         =  -2.96 kcal/mol
DOCKED: USER
DOCKED: USER
DOCKED: REMARK SMILES O=C(NCC(=O)N1CCCC[C@H]1c1nnc[n-]1)c1ccc2cc(F)ccc2n1
DOCKED: REMARK SMILES IDX 4 1 3 2 2 3 1 4 18 6 19 7 28 8 20 9 27 10 21 11 26 12 22 13
DOCKED: REMARK SMILES IDX 25 14 23 15 24 16 5 17 6 18 7 19 8 20 12 21 9 22 11 23 10 24
DOCKED: REMARK SMILES IDX 13 25 14 26 17 27 15 28 16 29
DOCKED: REMARK H PARENT 3 5
DOCKED: USER                              x       y       z     vdW  Elec       q    Type
DOCKED: USER                           _______ _______ _______ _____ _____    ______ ____
DOCKED: ROOT
DOCKED: ATOM      1  C   UNL     1     136.909  73.914 221.428 -0.07 -0.05    +0.216 C  
DOCKED: ENDROOT
DOCKED: BRANCH   1   2
DOCKED: ATOM      2  N   UNL     1     137.649  73.015 222.315 -0.05 +0.11    -0.342 N  
DOCKED: ATOM      3  C   UNL     1     137.150  71.707 222.633 -0.09 -0.06    +0.270 C  
DOCKED: ATOM      4  O   UNL     1     136.060  71.316 222.131 -0.03 +0.05    -0.268 OA 
DOCKED: ATOM      5  H   UNL     1     138.531  73.345 222.768 -0.50 -0.08    +0.164 HD 
DOCKED: BRANCH   3   6
DOCKED: ATOM      6  C   UNL     1     137.901  70.814 223.544 -0.20 -0.03    +0.128 A  
DOCKED: ATOM      7  C   UNL     1     137.749  69.418 223.478 -0.22 -0.00    +0.035 A  
DOCKED: ATOM      8  N   UNL     1     138.754  71.350 224.461 -0.12 +0.07    -0.243 NA 
DOCKED: ATOM      9  C   UNL     1     138.472  68.601 224.350 -0.33 -0.00    +0.013 A  
DOCKED: ATOM     10  C   UNL     1     139.471  70.579 225.322 -0.37 -0.01    +0.071 A  
DOCKED: ATOM     11  C   UNL     1     139.342  69.174 225.284 -0.42 -0.00    +0.003 A  
DOCKED: ATOM     12  C   UNL     1     140.335  71.175 226.248 -0.58 -0.01    +0.032 A  
DOCKED: ATOM     13  C   UNL     1     140.082  68.382 226.174 -0.55 -0.01    +0.049 A  
DOCKED: ATOM     14  C   UNL     1     141.069  70.379 227.132 -0.56 -0.01    +0.041 A  
DOCKED: ATOM     15  C   UNL     1     140.944  68.986 227.096 -0.49 -0.03    +0.123 A  
DOCKED: ATOM     16  F   UNL     1     141.659  68.221 227.956 -0.08 +0.06    -0.207 F  
DOCKED: ENDBRANCH   3   6
DOCKED: ENDBRANCH   1   2
DOCKED: BRANCH   1  17
DOCKED: ATOM     17  C   UNL     1     137.815  74.940 220.792 -0.07 -0.05    +0.242 C  
DOCKED: ATOM     18  O   UNL     1     137.686  75.180 219.560 -0.01 +0.06    -0.273 OA 
DOCKED: BRANCH  17  19
DOCKED: ATOM     19  N   UNL     1     138.762  75.706 221.573 -0.11 +0.08    -0.334 N  
DOCKED: ATOM     20  C   UNL     1     138.269  76.567 222.660 -0.25 -0.02    +0.120 C  
DOCKED: ATOM     21  C   UNL     1     140.220  75.525 221.400 -0.27 -0.03    +0.121 C  
DOCKED: ATOM     22  C   UNL     1     138.970  77.935 222.638 -0.30 -0.00    +0.022 C  
DOCKED: ATOM     23  C   UNL     1     141.021  76.428 222.357 -0.28 -0.01    +0.030 C  
DOCKED: ATOM     24  C   UNL     1     140.477  77.857 222.312 -0.42 -0.00    +0.004 C  
DOCKED: BRANCH  21  25
DOCKED: ATOM     25  C   UNL     1     140.606  74.090 221.625 -0.30 -0.00    +0.012 A  
DOCKED: ATOM     26  N   UNL     1     140.250  73.386 222.713 -0.55 -0.01    -0.351 NA 
DOCKED: ATOM     27  N   UNL     1     141.313  73.356 220.743 -0.09 +0.06    -0.368 NA 
DOCKED: ATOM     28  N   UNL     1     140.741  72.170 222.550 -0.22 +0.03    -0.357 NA 
DOCKED: ATOM     29  C   UNL     1     141.378  72.164 221.365 -0.23 -0.00    +0.044 A  
DOCKED: ENDBRANCH  21  25
DOCKED: ENDBRANCH  17  19
DOCKED: ENDBRANCH   1  17
DOCKED: TORSDOF 5
DOCKED: TER
DOCKED: ENDMDL
________________________________________________________________________________


    FINAL DOCKED STATE:
    ________________________


Run:   7 / 20
Time taken for this run:   0.041s

DOCKED: MODEL        7
DOCKED: USER    Run = 7
DOCKED: USER
DOCKED: USER    Estimated Free Energy of Binding    =  -8.05 kcal/mol  [=(1)+(2)+(3)-(4)]
DOCKED: USER
DOCKED: USER    (1) Final Intermolecular Energy     =  -9.55 kcal/mol
DOCKED: USER        vdW + Hbond + desolv Energy     =  -9.01 kcal/mol
DOCKED: USER        Electrostatic Energy            =  -0.53 kcal/mol
DOCKED: USER        Moving Ligand-Fixed Receptor    =  -9.55 kcal/mol
DOCKED: USER        Moving Ligand-Moving Receptor   =  +0.00 kcal/mol
DOCKED: USER    (2) Final Total Internal Energy     =  -1.33 kcal/mol
DOCKED: USER    (3) Torsional Free Energy           =  +1.49 kcal/mol
DOCKED: USER    (4) Unbound System's Energy         =  -1.33 kcal/mol
DOCKED: USER
DOCKED: USER
DOCKED: REMARK SMILES O=C(NCC(=O)N1CCCC[C@H]1c1nnc[n-]1)c1ccc2cc(F)ccc2n1
DOCKED: REMARK SMILES IDX 4 1 3 2 2 3 1 4 18 6 19 7 28 8 20 9 27 10 21 11 26 12 22 13
DOCKED: REMARK SMILES IDX 25 14 23 15 24 16 5 17 6 18 7 19 8 20 12 21 9 22 11 23 10 24
DOCKED: REMARK SMILES IDX 13 25 14 26 17 27 15 28 16 29
DOCKED: REMARK H PARENT 3 5
DOCKED: USER                              x       y       z     vdW  Elec       q    Type
DOCKED: USER                           _______ _______ _______ _____ _____    ______ ____
DOCKED: ROOT
DOCKED: ATOM      1  C   UNL     1     140.872  73.043 219.955 -0.07 -0.04    +0.216 C  
DOCKED: ENDROOT
DOCKED: BRANCH   1   2
DOCKED: ATOM      2  N   UNL     1     140.761  72.098 221.068 -0.08 +0.05    -0.342 N  
DOCKED: ATOM      3  C   UNL     1     140.280  72.518 222.354 -0.21 -0.03    +0.270 C  
DOCKED: ATOM      4  O   UNL     1     139.933  73.719 222.529 -0.79 +0.01    -0.268 OA 
DOCKED: ATOM      5  H   UNL     1     141.084  71.112 220.945 +0.04 -0.02    +0.164 HD 
DOCKED: BRANCH   3   6
DOCKED: ATOM      6  C   UNL     1     140.188  71.556 223.476 -0.32 -0.02    +0.128 A  
DOCKED: ATOM      7  C   UNL     1     139.614  70.285 223.294 -0.25 -0.01    +0.035 A  
DOCKED: ATOM      8  N   UNL     1     140.667  71.903 224.703 -0.25 +0.03    -0.243 NA 
DOCKED: ATOM      9  C   UNL     1     139.542  69.398 224.371 -0.32 -0.00    +0.013 A  
DOCKED: ATOM     10  C   UNL     1     140.611  71.060 225.768 -0.54 -0.01    +0.071 A  
DOCKED: ATOM     11  C   UNL     1     140.041  69.777 225.622 -0.46 -0.00    +0.003 A  
DOCKED: ATOM     12  C   UNL     1     141.117  71.461 227.010 -0.71 -0.01    +0.032 A  
DOCKED: ATOM     13  C   UNL     1     139.984  68.910 226.723 -0.54 -0.01    +0.049 A  
DOCKED: ATOM     14  C   UNL     1     141.057  70.591 228.103 -0.59 -0.01    +0.041 A  
DOCKED: ATOM     15  C   UNL     1     140.492  69.319 227.961 -0.53 -0.02    +0.123 A  
DOCKED: ATOM     16  F   UNL     1     140.436  68.481 229.025 -0.17 +0.04    -0.207 F  
DOCKED: ENDBRANCH   3   6
DOCKED: ENDBRANCH   1   2
DOCKED: BRANCH   1  17
DOCKED: ATOM     17  C   UNL     1     142.195  72.909 219.242 -0.05 -0.04    +0.242 C  
DOCKED: ATOM     18  O   UNL     1     142.768  73.955 218.828 -0.07 +0.07    -0.273 OA 
DOCKED: BRANCH  17  19
DOCKED: ATOM     19  N   UNL     1     142.854  71.630 219.096 -0.02 +0.04    -0.334 N  
DOCKED: ATOM     20  C   UNL     1     142.553  70.794 217.922 -0.03 -0.02    +0.120 C  
DOCKED: ATOM     21  C   UNL     1     143.934  71.216 220.019 -0.21 -0.01    +0.121 C  
DOCKED: ATOM     22  C   UNL     1     142.362  69.324 218.329 -0.09 -0.00    +0.022 C  
DOCKED: ATOM     23  C   UNL     1     144.498  69.831 219.647 -0.20 +0.00    +0.030 C  
DOCKED: ATOM     24  C   UNL     1     143.355  68.843 219.409 -0.22 -0.00    +0.004 C  
DOCKED: BRANCH  21  25
DOCKED: ATOM     25  C   UNL     1     145.046  72.226 220.021 -0.39 +0.00    +0.012 A  
DOCKED: ATOM     26  N   UNL     1     145.881  72.415 218.983 -0.63 -0.31    -0.351 NA 
DOCKED: ATOM     27  N   UNL     1     145.295  73.066 221.045 -0.26 +0.06    -0.368 NA 
DOCKED: ATOM     28  N   UNL     1     146.700  73.391 219.335 -0.44 -0.29    -0.357 NA 
DOCKED: ATOM     29  C   UNL     1     146.340  73.773 220.574 -0.62 +0.00    +0.044 A  
DOCKED: ENDBRANCH  21  25
DOCKED: ENDBRANCH  17  19
DOCKED: ENDBRANCH   1  17
DOCKED: TORSDOF 5
DOCKED: TER
DOCKED: ENDMDL
________________________________________________________________________________


    FINAL DOCKED STATE:
    ________________________


Run:   8 / 20
Time taken for this run:   0.041s

DOCKED: MODEL        8
DOCKED: USER    Run = 8
DOCKED: USER
DOCKED: USER    Estimated Free Energy of Binding    =  -6.31 kcal/mol  [=(1)+(2)+(3)-(4)]
DOCKED: USER
DOCKED: USER    (1) Final Intermolecular Energy     =  -7.80 kcal/mol
DOCKED: USER        vdW + Hbond + desolv Energy     =  -7.90 kcal/mol
DOCKED: USER        Electrostatic Energy            =  +0.09 kcal/mol
DOCKED: USER        Moving Ligand-Fixed Receptor    =  -7.80 kcal/mol
DOCKED: USER        Moving Ligand-Moving Receptor   =  +0.00 kcal/mol
DOCKED: USER    (2) Final Total Internal Energy     =  -2.98 kcal/mol
DOCKED: USER    (3) Torsional Free Energy           =  +1.49 kcal/mol
DOCKED: USER    (4) Unbound System's Energy         =  -2.98 kcal/mol
DOCKED: USER
DOCKED: USER
DOCKED: REMARK SMILES O=C(NCC(=O)N1CCCC[C@H]1c1nnc[n-]1)c1ccc2cc(F)ccc2n1
DOCKED: REMARK SMILES IDX 4 1 3 2 2 3 1 4 18 6 19 7 28 8 20 9 27 10 21 11 26 12 22 13
DOCKED: REMARK SMILES IDX 25 14 23 15 24 16 5 17 6 18 7 19 8 20 12 21 9 22 11 23 10 24
DOCKED: REMARK SMILES IDX 13 25 14 26 17 27 15 28 16 29
DOCKED: REMARK H PARENT 3 5
DOCKED: USER                              x       y       z     vdW  Elec       q    Type
DOCKED: USER                           _______ _______ _______ _____ _____    ______ ____
DOCKED: ROOT
DOCKED: ATOM      1  C   UNL     1     136.632  74.263 221.660 -0.08 -0.05    +0.216 C  
DOCKED: ENDROOT
DOCKED: BRANCH   1   2
DOCKED: ATOM      2  N   UNL     1     137.344  73.273 222.469 +0.01 +0.12    -0.342 N  
DOCKED: ATOM      3  C   UNL     1     136.672  72.114 222.985 -0.10 -0.07    +0.270 C  
DOCKED: ATOM      4  O   UNL     1     135.450  71.934 222.727 -0.05 +0.05    -0.268 OA 
DOCKED: ATOM      5  H   UNL     1     138.345  73.434 222.722 -0.53 -0.08    +0.164 HD 
DOCKED: BRANCH   3   6
DOCKED: ATOM      6  C   UNL     1     137.400  71.128 223.816 -0.19 -0.03    +0.128 A  
DOCKED: ATOM      7  C   UNL     1     136.803  69.910 224.185 -0.23 -0.00    +0.035 A  
DOCKED: ATOM      8  N   UNL     1     138.668  71.402 224.231 -0.13 +0.07    -0.243 NA 
DOCKED: ATOM      9  C   UNL     1     137.514  68.999 224.969 -0.28 -0.00    +0.013 A  
DOCKED: ATOM     10  C   UNL     1     139.385  70.534 224.994 -0.37 -0.01    +0.071 A  
DOCKED: ATOM     11  C   UNL     1     138.816  69.302 225.383 -0.41 -0.00    +0.003 A  
DOCKED: ATOM     12  C   UNL     1     140.686  70.859 225.396 -0.54 -0.00    +0.032 A  
DOCKED: ATOM     13  C   UNL     1     139.557  68.410 226.171 -0.53 -0.01    +0.049 A  
DOCKED: ATOM     14  C   UNL     1     141.419  69.965 226.182 -0.49 -0.01    +0.041 A  
DOCKED: ATOM     15  C   UNL     1     140.857  68.743 226.569 -0.49 -0.03    +0.123 A  
DOCKED: ATOM     16  F   UNL     1     141.573  67.881 227.330 -0.14 +0.06    -0.207 F  
DOCKED: ENDBRANCH   3   6
DOCKED: ENDBRANCH   1   2
DOCKED: BRANCH   1  17
DOCKED: ATOM     17  C   UNL     1     137.587  75.189 220.945 -0.07 -0.05    +0.242 C  
DOCKED: ATOM     18  O   UNL     1     137.529  75.264 219.687 -0.01 +0.05    -0.273 OA 
DOCKED: BRANCH  17  19
DOCKED: ATOM     19  N   UNL     1     138.500  76.045 221.669 -0.11 +0.07    -0.334 N  
DOCKED: ATOM     20  C   UNL     1     137.981  76.911 222.740 -0.24 -0.02    +0.120 C  
DOCKED: ATOM     21  C   UNL     1     139.962  75.955 221.460 -0.26 -0.03    +0.121 C  
DOCKED: ATOM     22  C   UNL     1     138.587  78.321 222.649 -0.28 -0.00    +0.022 C  
DOCKED: ATOM     23  C   UNL     1     140.727  76.945 222.360 -0.41 -0.01    +0.030 C  
DOCKED: ATOM     24  C   UNL     1     140.086  78.332 222.281 -0.36 -0.00    +0.004 C  
DOCKED: BRANCH  21  25
DOCKED: ATOM     25  C   UNL     1     140.451  74.558 221.723 -0.28 -0.00    +0.012 A  
DOCKED: ATOM     26  N   UNL     1     139.949  73.764 222.685 -0.54 -0.00    -0.351 NA 
DOCKED: ATOM     27  N   UNL     1     141.412  73.951 220.999 -0.14 +0.06    -0.368 NA 
DOCKED: ATOM     28  N   UNL     1     140.599  72.617 222.600 -0.42 +0.02    -0.357 NA 
DOCKED: ATOM     29  C   UNL     1     141.474  72.740 221.585 -0.24 -0.00    +0.044 A  
DOCKED: ENDBRANCH  21  25
DOCKED: ENDBRANCH  17  19
DOCKED: ENDBRANCH   1  17
DOCKED: TORSDOF 5
DOCKED: TER
DOCKED: ENDMDL
________________________________________________________________________________


    FINAL DOCKED STATE:
    ________________________


Run:   9 / 20
Time taken for this run:   0.041s

DOCKED: MODEL        9
DOCKED: USER    Run = 9
DOCKED: USER
DOCKED: USER    Estimated Free Energy of Binding    =  -8.08 kcal/mol  [=(1)+(2)+(3)-(4)]
DOCKED: USER
DOCKED: USER    (1) Final Intermolecular Energy     =  -9.57 kcal/mol
DOCKED: USER        vdW + Hbond + desolv Energy     =  -9.03 kcal/mol
DOCKED: USER        Electrostatic Energy            =  -0.54 kcal/mol
DOCKED: USER        Moving Ligand-Fixed Receptor    =  -9.57 kcal/mol
DOCKED: USER        Moving Ligand-Moving Receptor   =  +0.00 kcal/mol
DOCKED: USER    (2) Final Total Internal Energy     =  -1.31 kcal/mol
DOCKED: USER    (3) Torsional Free Energy           =  +1.49 kcal/mol
DOCKED: USER    (4) Unbound System's Energy         =  -1.31 kcal/mol
DOCKED: USER
DOCKED: USER
DOCKED: REMARK SMILES O=C(NCC(=O)N1CCCC[C@H]1c1nnc[n-]1)c1ccc2cc(F)ccc2n1
DOCKED: REMARK SMILES IDX 4 1 3 2 2 3 1 4 18 6 19 7 28 8 20 9 27 10 21 11 26 12 22 13
DOCKED: REMARK SMILES IDX 25 14 23 15 24 16 5 17 6 18 7 19 8 20 12 21 9 22 11 23 10 24
DOCKED: REMARK SMILES IDX 13 25 14 26 17 27 15 28 16 29
DOCKED: REMARK H PARENT 3 5
DOCKED: USER                              x       y       z     vdW  Elec       q    Type
DOCKED: USER                           _______ _______ _______ _____ _____    ______ ____
DOCKED: ROOT
DOCKED: ATOM      1  C   UNL     1     140.788  72.927 219.917 -0.07 -0.04    +0.216 C  
DOCKED: ENDROOT
DOCKED: BRANCH   1   2
DOCKED: ATOM      2  N   UNL     1     140.668  72.005 221.047 -0.08 +0.05    -0.342 N  
DOCKED: ATOM      3  C   UNL     1     140.244  72.464 222.340 -0.21 -0.03    +0.270 C  
DOCKED: ATOM      4  O   UNL     1     139.956  73.681 222.506 -0.79 +0.01    -0.268 OA 
DOCKED: ATOM      5  H   UNL     1     140.943  71.003 220.930 +0.04 -0.02    +0.164 HD 
DOCKED: BRANCH   3   6
DOCKED: ATOM      6  C   UNL     1     140.143  71.523 223.479 -0.32 -0.02    +0.128 A  
DOCKED: ATOM      7  C   UNL     1     139.561  70.253 223.319 -0.26 -0.01    +0.035 A  
DOCKED: ATOM      8  N   UNL     1     140.621  71.890 224.700 -0.27 +0.03    -0.243 NA 
DOCKED: ATOM      9  C   UNL     1     139.480  69.386 224.411 -0.33 -0.00    +0.013 A  
DOCKED: ATOM     10  C   UNL     1     140.556  71.066 225.781 -0.54 -0.01    +0.071 A  
DOCKED: ATOM     11  C   UNL     1     139.978  69.784 225.656 -0.46 -0.00    +0.003 A  
DOCKED: ATOM     12  C   UNL     1     141.061  71.487 227.017 -0.72 -0.01    +0.032 A  
DOCKED: ATOM     13  C   UNL     1     139.912  68.938 226.773 -0.54 -0.01    +0.049 A  
DOCKED: ATOM     14  C   UNL     1     140.992  70.638 228.126 -0.60 -0.01    +0.041 A  
DOCKED: ATOM     15  C   UNL     1     140.419  69.366 228.005 -0.53 -0.02    +0.123 A  
DOCKED: ATOM     16  F   UNL     1     140.355  68.549 229.084 -0.16 +0.04    -0.207 F  
DOCKED: ENDBRANCH   3   6
DOCKED: ENDBRANCH   1   2
DOCKED: BRANCH   1  17
DOCKED: ATOM     17  C   UNL     1     142.147  72.836 219.266 -0.05 -0.04    +0.242 C  
DOCKED: ATOM     18  O   UNL     1     142.733  73.904 218.938 -0.07 +0.07    -0.273 OA 
DOCKED: BRANCH  17  19
DOCKED: ATOM     19  N   UNL     1     142.821  71.569 219.087 -0.02 +0.04    -0.334 N  
DOCKED: ATOM     20  C   UNL     1     142.523  70.756 217.897 -0.03 -0.02    +0.120 C  
DOCKED: ATOM     21  C   UNL     1     143.910  71.147 219.995 -0.20 -0.01    +0.121 C  
DOCKED: ATOM     22  C   UNL     1     142.352  69.275 218.271 -0.08 -0.00    +0.022 C  
DOCKED: ATOM     23  C   UNL     1     144.489  69.778 219.588 -0.22 +0.00    +0.030 C  
DOCKED: ATOM     24  C   UNL     1     143.357  68.781 219.334 -0.23 -0.00    +0.004 C  
DOCKED: BRANCH  21  25
DOCKED: ATOM     25  C   UNL     1     145.011  72.171 220.014 -0.38 +0.00    +0.012 A  
DOCKED: ATOM     26  N   UNL     1     145.876  72.351 219.000 -0.61 -0.31    -0.351 NA 
DOCKED: ATOM     27  N   UNL     1     145.216  73.033 221.029 -0.25 +0.07    -0.368 NA 
DOCKED: ATOM     28  N   UNL     1     146.672  73.343 219.360 -0.44 -0.30    -0.357 NA 
DOCKED: ATOM     29  C   UNL     1     146.268  73.743 220.579 -0.63 +0.00    +0.044 A  
DOCKED: ENDBRANCH  21  25
DOCKED: ENDBRANCH  17  19
DOCKED: ENDBRANCH   1  17
DOCKED: TORSDOF 5
DOCKED: TER
DOCKED: ENDMDL
________________________________________________________________________________


    FINAL DOCKED STATE:
    ________________________


Run:   10 / 20
Time taken for this run:   0.041s

DOCKED: MODEL        10
DOCKED: USER    Run = 10
DOCKED: USER
DOCKED: USER    Estimated Free Energy of Binding    =  -6.51 kcal/mol  [=(1)+(2)+(3)-(4)]
DOCKED: USER
DOCKED: USER    (1) Final Intermolecular Energy     =  -8.01 kcal/mol
DOCKED: USER        vdW + Hbond + desolv Energy     =  -8.06 kcal/mol
DOCKED: USER        Electrostatic Energy            =  +0.05 kcal/mol
DOCKED: USER        Moving Ligand-Fixed Receptor    =  -8.01 kcal/mol
DOCKED: USER        Moving Ligand-Moving Receptor   =  +0.00 kcal/mol
DOCKED: USER    (2) Final Total Internal Energy     =  -2.74 kcal/mol
DOCKED: USER    (3) Torsional Free Energy           =  +1.49 kcal/mol
DOCKED: USER    (4) Unbound System's Energy         =  -2.74 kcal/mol
DOCKED: USER
DOCKED: USER
DOCKED: REMARK SMILES O=C(NCC(=O)N1CCCC[C@H]1c1nnc[n-]1)c1ccc2cc(F)ccc2n1
DOCKED: REMARK SMILES IDX 4 1 3 2 2 3 1 4 18 6 19 7 28 8 20 9 27 10 21 11 26 12 22 13
DOCKED: REMARK SMILES IDX 25 14 23 15 24 16 5 17 6 18 7 19 8 20 12 21 9 22 11 23 10 24
DOCKED: REMARK SMILES IDX 13 25 14 26 17 27 15 28 16 29
DOCKED: REMARK H PARENT 3 5
DOCKED: USER                              x       y       z     vdW  Elec       q    Type
DOCKED: USER                           _______ _______ _______ _____ _____    ______ ____
DOCKED: ROOT
DOCKED: ATOM      1  C   UNL     1     136.954  73.328 221.289 -0.06 -0.05    +0.216 C  
DOCKED: ENDROOT
DOCKED: BRANCH   1   2
DOCKED: ATOM      2  N   UNL     1     137.656  72.644 222.376 -0.06 +0.11    -0.342 N  
DOCKED: ATOM      3  C   UNL     1     137.542  71.225 222.556 -0.09 -0.06    +0.270 C  
DOCKED: ATOM      4  O   UNL     1     136.836  70.549 221.759 -0.03 +0.05    -0.268 OA 
DOCKED: ATOM      5  H   UNL     1     138.211  73.201 223.065 -0.49 -0.10    +0.164 HD 
DOCKED: BRANCH   3   6
DOCKED: ATOM      6  C   UNL     1     138.246  70.547 223.670 -0.22 -0.02    +0.128 A  
DOCKED: ATOM      7  C   UNL     1     138.181  69.152 223.824 -0.27 -0.00    +0.035 A  
DOCKED: ATOM      8  N   UNL     1     138.967  71.285 224.559 -0.17 +0.06    -0.243 NA 
DOCKED: ATOM      9  C   UNL     1     138.855  68.541 224.884 -0.40 -0.00    +0.013 A  
DOCKED: ATOM     10  C   UNL     1     139.635  70.717 225.599 -0.39 -0.01    +0.071 A  
DOCKED: ATOM     11  C   UNL     1     139.591  69.318 225.784 -0.46 -0.00    +0.003 A  
DOCKED: ATOM     12  C   UNL     1     140.364  71.516 226.487 -0.59 -0.01    +0.032 A  
DOCKED: ATOM     13  C   UNL     1     140.279  68.736 226.859 -0.58 -0.01    +0.049 A  
DOCKED: ATOM     14  C   UNL     1     141.047  70.928 227.556 -0.65 -0.01    +0.041 A  
DOCKED: ATOM     15  C   UNL     1     141.006  69.542 227.742 -0.49 -0.02    +0.123 A  
DOCKED: ATOM     16  F   UNL     1     141.671  68.979 228.780 -0.11 +0.05    -0.207 F  
DOCKED: ENDBRANCH   3   6
DOCKED: ENDBRANCH   1   2
DOCKED: BRANCH   1  17
DOCKED: ATOM     17  C   UNL     1     137.806  74.408 220.667 -0.06 -0.05    +0.242 C  
DOCKED: ATOM     18  O   UNL     1     137.765  74.566 219.416 -0.01 +0.05    -0.273 OA 
DOCKED: BRANCH  17  19
DOCKED: ATOM     19  N   UNL     1     138.598  75.311 221.474 -0.10 +0.08    -0.334 N  
DOCKED: ATOM     20  C   UNL     1     137.943  76.085 222.541 -0.23 -0.03    +0.120 C  
DOCKED: ATOM     21  C   UNL     1     140.071  75.356 221.349 -0.25 -0.03    +0.121 C  
DOCKED: ATOM     22  C   UNL     1     138.426  77.544 222.536 -0.28 -0.00    +0.022 C  
DOCKED: ATOM     23  C   UNL     1     140.692  76.372 222.327 -0.37 -0.01    +0.030 C  
DOCKED: ATOM     24  C   UNL     1     139.936  77.700 222.259 -0.37 -0.00    +0.004 C  
DOCKED: BRANCH  21  25
DOCKED: ATOM     25  C   UNL     1     140.667  73.998 221.592 -0.31 -0.00    +0.012 A  
DOCKED: ATOM     26  N   UNL     1     140.321  73.209 222.624 -0.58 -0.00    -0.351 NA 
DOCKED: ATOM     27  N   UNL     1     141.576  73.422 220.782 -0.09 +0.06    -0.368 NA 
DOCKED: ATOM     28  N   UNL     1     141.023  72.097 222.497 -0.15 +0.02    -0.357 NA 
DOCKED: ATOM     29  C   UNL     1     141.774  72.236 221.389 -0.22 -0.00    +0.044 A  
DOCKED: ENDBRANCH  21  25
DOCKED: ENDBRANCH  17  19
DOCKED: ENDBRANCH   1  17
DOCKED: TORSDOF 5
DOCKED: TER
DOCKED: ENDMDL
________________________________________________________________________________


    FINAL DOCKED STATE:
    ________________________


Run:   11 / 20
Time taken for this run:   0.041s

DOCKED: MODEL        11
DOCKED: USER    Run = 11
DOCKED: USER
DOCKED: USER    Estimated Free Energy of Binding    =  -7.99 kcal/mol  [=(1)+(2)+(3)-(4)]
DOCKED: USER
DOCKED: USER    (1) Final Intermolecular Energy     =  -9.48 kcal/mol
DOCKED: USER        vdW + Hbond + desolv Energy     =  -8.93 kcal/mol
DOCKED: USER        Electrostatic Energy            =  -0.55 kcal/mol
DOCKED: USER        Moving Ligand-Fixed Receptor    =  -9.48 kcal/mol
DOCKED: USER        Moving Ligand-Moving Receptor   =  +0.00 kcal/mol
DOCKED: USER    (2) Final Total Internal Energy     =  -1.34 kcal/mol
DOCKED: USER    (3) Torsional Free Energy           =  +1.49 kcal/mol
DOCKED: USER    (4) Unbound System's Energy         =  -1.34 kcal/mol
DOCKED: USER
DOCKED: USER
DOCKED: REMARK SMILES O=C(NCC(=O)N1CCCC[C@H]1c1nnc[n-]1)c1ccc2cc(F)ccc2n1
DOCKED: REMARK SMILES IDX 4 1 3 2 2 3 1 4 18 6 19 7 28 8 20 9 27 10 21 11 26 12 22 13
DOCKED: REMARK SMILES IDX 25 14 23 15 24 16 5 17 6 18 7 19 8 20 12 21 9 22 11 23 10 24
DOCKED: REMARK SMILES IDX 13 25 14 26 17 27 15 28 16 29
DOCKED: REMARK H PARENT 3 5
DOCKED: USER                              x       y       z     vdW  Elec       q    Type
DOCKED: USER                           _______ _______ _______ _____ _____    ______ ____
DOCKED: ROOT
DOCKED: ATOM      1  C   UNL     1     140.722  72.817 219.691 -0.05 -0.04    +0.216 C  
DOCKED: ENDROOT
DOCKED: BRANCH   1   2
DOCKED: ATOM      2  N   UNL     1     140.548  71.925 220.838 -0.06 +0.05    -0.342 N  
DOCKED: ATOM      3  C   UNL     1     140.360  72.445 222.163 -0.20 -0.03    +0.270 C  
DOCKED: ATOM      4  O   UNL     1     140.331  73.693 222.345 -0.82 -0.01    -0.268 OA 
DOCKED: ATOM      5  H   UNL     1     140.611  70.890 220.704 +0.04 -0.02    +0.164 HD 
DOCKED: BRANCH   3   6
DOCKED: ATOM      6  C   UNL     1     140.201  71.530 223.317 -0.31 -0.02    +0.128 A  
DOCKED: ATOM      7  C   UNL     1     139.541  70.297 223.177 -0.25 -0.01    +0.035 A  
DOCKED: ATOM      8  N   UNL     1     140.702  71.886 224.532 -0.26 +0.03    -0.243 NA 
DOCKED: ATOM      9  C   UNL     1     139.406  69.455 224.283 -0.32 -0.00    +0.013 A  
DOCKED: ATOM     10  C   UNL     1     140.587  71.086 225.626 -0.53 -0.01    +0.071 A  
DOCKED: ATOM     11  C   UNL     1     139.929  69.841 225.522 -0.45 -0.00    +0.003 A  
DOCKED: ATOM     12  C   UNL     1     141.118  71.493 226.855 -0.71 -0.00    +0.032 A  
DOCKED: ATOM     13  C   UNL     1     139.811  69.019 226.652 -0.52 -0.01    +0.049 A  
DOCKED: ATOM     14  C   UNL     1     140.997  70.668 227.977 -0.63 -0.01    +0.041 A  
DOCKED: ATOM     15  C   UNL     1     140.345  69.434 227.877 -0.52 -0.02    +0.123 A  
DOCKED: ATOM     16  F   UNL     1     140.231  68.639 228.969 -0.16 +0.04    -0.207 F  
DOCKED: ENDBRANCH   3   6
DOCKED: ENDBRANCH   1   2
DOCKED: BRANCH   1  17
DOCKED: ATOM     17  C   UNL     1     142.119  72.730 219.125 -0.04 -0.04    +0.242 C  
DOCKED: ATOM     18  O   UNL     1     142.712  73.798 218.811 -0.06 +0.07    -0.273 OA 
DOCKED: BRANCH  17  19
DOCKED: ATOM     19  N   UNL     1     142.816  71.467 219.014 -0.01 +0.04    -0.334 N  
DOCKED: ATOM     20  C   UNL     1     142.571  70.609 217.844 -0.03 -0.02    +0.120 C  
DOCKED: ATOM     21  C   UNL     1     143.880  71.094 219.972 -0.20 -0.01    +0.121 C  
DOCKED: ATOM     22  C   UNL     1     142.409  69.140 218.264 -0.09 -0.00    +0.022 C  
DOCKED: ATOM     23  C   UNL     1     144.492  69.721 219.634 -0.21 +0.00    +0.030 C  
DOCKED: ATOM     24  C   UNL     1     143.383  68.699 219.378 -0.23 -0.00    +0.004 C  
DOCKED: BRANCH  21  25
DOCKED: ATOM     25  C   UNL     1     144.965  72.134 219.993 -0.37 +0.00    +0.012 A  
DOCKED: ATOM     26  N   UNL     1     145.840  72.315 218.989 -0.61 -0.30    -0.351 NA 
DOCKED: ATOM     27  N   UNL     1     145.144  73.012 220.999 -0.24 +0.07    -0.368 NA 
DOCKED: ATOM     28  N   UNL     1     146.617  73.323 219.345 -0.46 -0.29    -0.357 NA 
DOCKED: ATOM     29  C   UNL     1     146.190  73.733 220.554 -0.63 -0.00    +0.044 A  
DOCKED: ENDBRANCH  21  25
DOCKED: ENDBRANCH  17  19
DOCKED: ENDBRANCH   1  17
DOCKED: TORSDOF 5
DOCKED: TER
DOCKED: ENDMDL
________________________________________________________________________________


    FINAL DOCKED STATE:
    ________________________


Run:   12 / 20
Time taken for this run:   0.041s

DOCKED: MODEL        12
DOCKED: USER    Run = 12
DOCKED: USER
DOCKED: USER    Estimated Free Energy of Binding    =  -7.76 kcal/mol  [=(1)+(2)+(3)-(4)]
DOCKED: USER
DOCKED: USER    (1) Final Intermolecular Energy     =  -9.25 kcal/mol
DOCKED: USER        vdW + Hbond + desolv Energy     =  -8.81 kcal/mol
DOCKED: USER        Electrostatic Energy            =  -0.44 kcal/mol
DOCKED: USER        Moving Ligand-Fixed Receptor    =  -9.25 kcal/mol
DOCKED: USER        Moving Ligand-Moving Receptor   =  +0.00 kcal/mol
DOCKED: USER    (2) Final Total Internal Energy     =  -1.47 kcal/mol
DOCKED: USER    (3) Torsional Free Energy           =  +1.49 kcal/mol
DOCKED: USER    (4) Unbound System's Energy         =  -1.47 kcal/mol
DOCKED: USER
DOCKED: USER
DOCKED: REMARK SMILES O=C(NCC(=O)N1CCCC[C@H]1c1nnc[n-]1)c1ccc2cc(F)ccc2n1
DOCKED: REMARK SMILES IDX 4 1 3 2 2 3 1 4 18 6 19 7 28 8 20 9 27 10 21 11 26 12 22 13
DOCKED: REMARK SMILES IDX 25 14 23 15 24 16 5 17 6 18 7 19 8 20 12 21 9 22 11 23 10 24
DOCKED: REMARK SMILES IDX 13 25 14 26 17 27 15 28 16 29
DOCKED: REMARK H PARENT 3 5
DOCKED: USER                              x       y       z     vdW  Elec       q    Type
DOCKED: USER                           _______ _______ _______ _____ _____    ______ ____
DOCKED: ROOT
DOCKED: ATOM      1  C   UNL     1     140.920  73.235 219.950 -0.08 -0.04    +0.216 C  
DOCKED: ENDROOT
DOCKED: BRANCH   1   2
DOCKED: ATOM      2  N   UNL     1     140.800  72.240 221.016 -0.08 +0.05    -0.342 N  
DOCKED: ATOM      3  C   UNL     1     140.282  72.593 222.308 -0.21 -0.03    +0.270 C  
DOCKED: ATOM      4  O   UNL     1     139.910  73.778 222.528 -0.78 +0.01    -0.268 OA 
DOCKED: ATOM      5  H   UNL     1     141.144  71.266 220.857 +0.04 -0.02    +0.164 HD 
DOCKED: BRANCH   3   6
DOCKED: ATOM      6  C   UNL     1     140.182  71.580 223.383 -0.32 -0.02    +0.128 A  
DOCKED: ATOM      7  C   UNL     1     139.616  70.317 223.137 -0.24 -0.01    +0.035 A  
DOCKED: ATOM      8  N   UNL     1     140.646  71.872 224.630 -0.26 +0.03    -0.243 NA 
DOCKED: ATOM      9  C   UNL     1     139.536  69.381 224.170 -0.29 -0.00    +0.013 A  
DOCKED: ATOM     10  C   UNL     1     140.582  70.981 225.655 -0.53 -0.01    +0.071 A  
DOCKED: ATOM     11  C   UNL     1     140.019  69.703 225.443 -0.45 -0.00    +0.003 A  
DOCKED: ATOM     12  C   UNL     1     141.072  71.326 226.920 -0.70 -0.01    +0.032 A  
DOCKED: ATOM     13  C   UNL     1     139.953  68.787 226.503 -0.53 -0.01    +0.049 A  
DOCKED: ATOM     14  C   UNL     1     141.003  70.407 227.971 -0.60 -0.01    +0.041 A  
DOCKED: ATOM     15  C   UNL     1     140.445  69.140 227.764 -0.53 -0.02    +0.123 A  
DOCKED: ATOM     16  F   UNL     1     140.382  68.255 228.788 -0.19 +0.05    -0.207 F  
DOCKED: ENDBRANCH   3   6
DOCKED: ENDBRANCH   1   2
DOCKED: BRANCH   1  17
DOCKED: ATOM     17  C   UNL     1     141.950  72.831 218.924 -0.03 -0.05    +0.242 C  
DOCKED: ATOM     18  O   UNL     1     142.317  73.682 218.067 -0.02 +0.06    -0.273 OA 
DOCKED: BRANCH  17  19
DOCKED: ATOM     19  N   UNL     1     142.581  71.530 218.952 -0.01 +0.04    -0.334 N  
DOCKED: ATOM     20  C   UNL     1     142.338  70.588 217.846 -0.02 -0.02    +0.120 C  
DOCKED: ATOM     21  C   UNL     1     143.580  71.185 219.986 -0.20 -0.01    +0.121 C  
DOCKED: ATOM     22  C   UNL     1     142.077  69.170 218.380 -0.09 -0.00    +0.022 C  
DOCKED: ATOM     23  C   UNL     1     144.129  69.759 219.793 -0.21 +0.00    +0.030 C  
DOCKED: ATOM     24  C   UNL     1     142.977  68.777 219.571 -0.16 -0.00    +0.004 C  
DOCKED: BRANCH  21  25
DOCKED: ATOM     25  C   UNL     1     144.719  72.166 219.970 -0.36 +0.00    +0.012 A  
DOCKED: ATOM     26  N   UNL     1     145.602  72.264 218.961 -0.61 -0.23    -0.351 NA 
DOCKED: ATOM     27  N   UNL     1     144.946  73.069 220.946 -0.22 +0.07    -0.368 NA 
DOCKED: ATOM     28  N   UNL     1     146.432  73.241 219.283 -0.54 -0.28    -0.357 NA 
DOCKED: ATOM     29  C   UNL     1     146.029  73.716 220.476 -0.62 -0.00    +0.044 A  
DOCKED: ENDBRANCH  21  25
DOCKED: ENDBRANCH  17  19
DOCKED: ENDBRANCH   1  17
DOCKED: TORSDOF 5
DOCKED: TER
DOCKED: ENDMDL
________________________________________________________________________________


    FINAL DOCKED STATE:
    ________________________


Run:   13 / 20
Time taken for this run:   0.041s

DOCKED: MODEL        13
DOCKED: USER    Run = 13
DOCKED: USER
DOCKED: USER    Estimated Free Energy of Binding    =  -7.32 kcal/mol  [=(1)+(2)+(3)-(4)]
DOCKED: USER
DOCKED: USER    (1) Final Intermolecular Energy     =  -8.81 kcal/mol
DOCKED: USER        vdW + Hbond + desolv Energy     =  -8.18 kcal/mol
DOCKED: USER        Electrostatic Energy            =  -0.63 kcal/mol
DOCKED: USER        Moving Ligand-Fixed Receptor    =  -8.81 kcal/mol
DOCKED: USER        Moving Ligand-Moving Receptor   =  +0.00 kcal/mol
DOCKED: USER    (2) Final Total Internal Energy     =  -1.97 kcal/mol
DOCKED: USER    (3) Torsional Free Energy           =  +1.49 kcal/mol
DOCKED: USER    (4) Unbound System's Energy         =  -1.97 kcal/mol
DOCKED: USER
DOCKED: USER
DOCKED: REMARK SMILES O=C(NCC(=O)N1CCCC[C@H]1c1nnc[n-]1)c1ccc2cc(F)ccc2n1
DOCKED: REMARK SMILES IDX 4 1 3 2 2 3 1 4 18 6 19 7 28 8 20 9 27 10 21 11 26 12 22 13
DOCKED: REMARK SMILES IDX 25 14 23 15 24 16 5 17 6 18 7 19 8 20 12 21 9 22 11 23 10 24
DOCKED: REMARK SMILES IDX 13 25 14 26 17 27 15 28 16 29
DOCKED: REMARK H PARENT 3 5
DOCKED: USER                              x       y       z     vdW  Elec       q    Type
DOCKED: USER                           _______ _______ _______ _____ _____    ______ ____
DOCKED: ROOT
DOCKED: ATOM      1  C   UNL     1     141.789  72.270 221.080 -0.16 -0.02    +0.216 C  
DOCKED: ENDROOT
DOCKED: BRANCH   1   2
DOCKED: ATOM      2  N   UNL     1     142.007  73.717 221.057 -0.11 +0.06    -0.342 N  
DOCKED: ATOM      3  C   UNL     1     141.009  74.626 221.545 -0.19 -0.04    +0.270 C  
DOCKED: ATOM      4  O   UNL     1     139.929  74.174 222.015 -0.82 +0.03    -0.268 OA 
DOCKED: ATOM      5  H   UNL     1     142.881  74.102 220.633 +0.06 -0.05    +0.164 HD 
DOCKED: BRANCH   3   6
DOCKED: ATOM      6  C   UNL     1     141.236  76.089 221.502 -0.24 -0.05    +0.128 A  
DOCKED: ATOM      7  C   UNL     1     141.625  76.726 220.310 -0.27 -0.02    +0.035 A  
DOCKED: ATOM      8  N   UNL     1     141.067  76.831 222.631 -0.26 +0.09    -0.243 NA 
DOCKED: ATOM      9  C   UNL     1     141.831  78.107 220.299 -0.31 -0.01    +0.013 A  
DOCKED: ATOM     10  C   UNL     1     141.259  78.178 222.649 -0.43 -0.03    +0.071 A  
DOCKED: ATOM     11  C   UNL     1     141.650  78.850 221.470 -0.39 -0.00    +0.003 A  
DOCKED: ATOM     12  C   UNL     1     141.072  78.899 223.834 -0.49 -0.01    +0.032 A  
DOCKED: ATOM     13  C   UNL     1     141.849  80.237 221.493 -0.40 -0.02    +0.049 A  
DOCKED: ATOM     14  C   UNL     1     141.272  80.283 223.849 -0.49 -0.01    +0.041 A  
DOCKED: ATOM     15  C   UNL     1     141.660  80.951 222.682 -0.44 -0.03    +0.123 A  
DOCKED: ATOM     16  F   UNL     1     141.852  82.292 222.704 -0.10 +0.02    -0.207 F  
DOCKED: ENDBRANCH   3   6
DOCKED: ENDBRANCH   1   2
DOCKED: BRANCH   1  17
DOCKED: ATOM     17  C   UNL     1     141.800  71.684 219.689 -0.07 -0.04    +0.242 C  
DOCKED: ATOM     18  O   UNL     1     141.049  72.193 218.812 -0.01 +0.05    -0.273 OA 
DOCKED: BRANCH  17  19
DOCKED: ATOM     19  N   UNL     1     142.702  70.615 219.321 -0.04 +0.03    -0.334 N  
DOCKED: ATOM     20  C   UNL     1     142.358  69.739 218.189 -0.05 -0.02    +0.120 C  
DOCKED: ATOM     21  C   UNL     1     144.031  70.482 219.959 -0.15 +0.00    +0.121 C  
DOCKED: ATOM     22  C   UNL     1     142.632  68.266 218.532 -0.14 -0.01    +0.022 C  
DOCKED: ATOM     23  C   UNL     1     144.819  69.289 219.384 -0.28 +0.01    +0.030 C  
DOCKED: ATOM     24  C   UNL     1     143.930  68.044 219.337 -0.31 -0.00    +0.004 C  
DOCKED: BRANCH  21  25
DOCKED: ATOM     25  C   UNL     1     144.831  71.741 219.784 -0.32 +0.00    +0.012 A  
DOCKED: ATOM     26  N   UNL     1     145.778  71.896 218.842 -0.50 -0.32    -0.351 NA 
DOCKED: ATOM     27  N   UNL     1     144.656  72.851 220.529 -0.18 +0.05    -0.368 NA 
DOCKED: ATOM     28  N   UNL     1     146.241  73.127 218.975 -0.63 -0.30    -0.357 NA 
DOCKED: ATOM     29  C   UNL     1     145.561  73.690 219.991 -0.48 -0.00    +0.044 A  
DOCKED: ENDBRANCH  21  25
DOCKED: ENDBRANCH  17  19
DOCKED: ENDBRANCH   1  17
DOCKED: TORSDOF 5
DOCKED: TER
DOCKED: ENDMDL
________________________________________________________________________________


    FINAL DOCKED STATE:
    ________________________


Run:   14 / 20
Time taken for this run:   0.041s

DOCKED: MODEL        14
DOCKED: USER    Run = 14
DOCKED: USER
DOCKED: USER    Estimated Free Energy of Binding    =  -7.83 kcal/mol  [=(1)+(2)+(3)-(4)]
DOCKED: USER
DOCKED: USER    (1) Final Intermolecular Energy     =  -9.32 kcal/mol
DOCKED: USER        vdW + Hbond + desolv Energy     =  -8.74 kcal/mol
DOCKED: USER        Electrostatic Energy            =  -0.58 kcal/mol
DOCKED: USER        Moving Ligand-Fixed Receptor    =  -9.32 kcal/mol
DOCKED: USER        Moving Ligand-Moving Receptor   =  +0.00 kcal/mol
DOCKED: USER    (2) Final Total Internal Energy     =  -1.44 kcal/mol
DOCKED: USER    (3) Torsional Free Energy           =  +1.49 kcal/mol
DOCKED: USER    (4) Unbound System's Energy         =  -1.44 kcal/mol
DOCKED: USER
DOCKED: USER
DOCKED: REMARK SMILES O=C(NCC(=O)N1CCCC[C@H]1c1nnc[n-]1)c1ccc2cc(F)ccc2n1
DOCKED: REMARK SMILES IDX 4 1 3 2 2 3 1 4 18 6 19 7 28 8 20 9 27 10 21 11 26 12 22 13
DOCKED: REMARK SMILES IDX 25 14 23 15 24 16 5 17 6 18 7 19 8 20 12 21 9 22 11 23 10 24
DOCKED: REMARK SMILES IDX 13 25 14 26 17 27 15 28 16 29
DOCKED: REMARK H PARENT 3 5
DOCKED: USER                              x       y       z     vdW  Elec       q    Type
DOCKED: USER                           _______ _______ _______ _____ _____    ______ ____
DOCKED: ROOT
DOCKED: ATOM      1  C   UNL     1     141.387  72.922 219.866 -0.08 -0.04    +0.216 C  
DOCKED: ENDROOT
DOCKED: BRANCH   1   2
DOCKED: ATOM      2  N   UNL     1     141.143  72.010 220.984 -0.08 +0.04    -0.342 N  
DOCKED: ATOM      3  C   UNL     1     140.579  72.481 222.218 -0.20 -0.02    +0.270 C  
DOCKED: ATOM      4  O   UNL     1     140.274  73.700 222.339 -0.83 -0.00    -0.268 OA 
DOCKED: ATOM      5  H   UNL     1     141.429  71.008 220.908 +0.05 -0.02    +0.164 HD 
DOCKED: BRANCH   3   6
DOCKED: ATOM      6  C   UNL     1     140.352  71.551 223.347 -0.31 -0.02    +0.128 A  
DOCKED: ATOM      7  C   UNL     1     139.725  70.309 223.148 -0.22 -0.01    +0.035 A  
DOCKED: ATOM      8  N   UNL     1     140.757  71.901 224.600 -0.22 +0.03    -0.243 NA 
DOCKED: ATOM      9  C   UNL     1     139.525  69.452 224.232 -0.31 -0.00    +0.013 A  
DOCKED: ATOM     10  C   UNL     1     140.577  71.087 225.674 -0.53 -0.01    +0.071 A  
DOCKED: ATOM     11  C   UNL     1     139.950  69.832 225.510 -0.45 -0.00    +0.003 A  
DOCKED: ATOM     12  C   UNL     1     141.010  71.489 226.943 -0.72 -0.01    +0.032 A  
DOCKED: ATOM     13  C   UNL     1     139.765  68.996 226.620 -0.51 -0.01    +0.049 A  
DOCKED: ATOM     14  C   UNL     1     140.822  70.649 228.045 -0.63 -0.01    +0.041 A  
DOCKED: ATOM     15  C   UNL     1     140.201  69.405 227.885 -0.52 -0.02    +0.123 A  
DOCKED: ATOM     16  F   UNL     1     140.022  68.597 228.957 -0.15 +0.04    -0.207 F  
DOCKED: ENDBRANCH   3   6
DOCKED: ENDBRANCH   1   2
DOCKED: BRANCH   1  17
DOCKED: ATOM     17  C   UNL     1     141.897  72.187 218.650 -0.02 -0.04    +0.242 C  
DOCKED: ATOM     18  O   UNL     1     141.711  72.699 217.511 -0.00 +0.05    -0.273 OA 
DOCKED: BRANCH  17  19
DOCKED: ATOM     19  N   UNL     1     142.658  70.962 218.765 -0.01 +0.04    -0.334 N  
DOCKED: ATOM     20  C   UNL     1     142.516  69.926 217.729 -0.03 -0.02    +0.120 C  
DOCKED: ATOM     21  C   UNL     1     143.685  70.796 219.817 -0.18 -0.00    +0.121 C  
DOCKED: ATOM     22  C   UNL     1     142.401  68.530 218.361 -0.11 -0.01    +0.022 C  
DOCKED: ATOM     23  C   UNL     1     144.378  69.423 219.721 -0.25 +0.00    +0.030 C  
DOCKED: ATOM     24  C   UNL     1     143.333  68.315 219.572 -0.21 -0.00    +0.004 C  
DOCKED: BRANCH  21  25
DOCKED: ATOM     25  C   UNL     1     144.716  71.885 219.728 -0.32 +0.00    +0.012 A  
DOCKED: ATOM     26  N   UNL     1     145.590  72.000 218.712 -0.55 -0.25    -0.351 NA 
DOCKED: ATOM     27  N   UNL     1     144.844  72.874 220.634 -0.20 +0.05    -0.368 NA 
DOCKED: ATOM     28  N   UNL     1     146.313  73.078 218.961 -0.61 -0.35    -0.357 NA 
DOCKED: ATOM     29  C   UNL     1     145.857  73.594 220.116 -0.53 +0.00    +0.044 A  
DOCKED: ENDBRANCH  21  25
DOCKED: ENDBRANCH  17  19
DOCKED: ENDBRANCH   1  17
DOCKED: TORSDOF 5
DOCKED: TER
DOCKED: ENDMDL
________________________________________________________________________________


    FINAL DOCKED STATE:
    ________________________


Run:   15 / 20
Time taken for this run:   0.041s

DOCKED: MODEL        15
DOCKED: USER    Run = 15
DOCKED: USER
DOCKED: USER    Estimated Free Energy of Binding    =  -7.32 kcal/mol  [=(1)+(2)+(3)-(4)]
DOCKED: USER
DOCKED: USER    (1) Final Intermolecular Energy     =  -8.81 kcal/mol
DOCKED: USER        vdW + Hbond + desolv Energy     =  -8.21 kcal/mol
DOCKED: USER        Electrostatic Energy            =  -0.60 kcal/mol
DOCKED: USER        Moving Ligand-Fixed Receptor    =  -8.81 kcal/mol
DOCKED: USER        Moving Ligand-Moving Receptor   =  +0.00 kcal/mol
DOCKED: USER    (2) Final Total Internal Energy     =  -1.94 kcal/mol
DOCKED: USER    (3) Torsional Free Energy           =  +1.49 kcal/mol
DOCKED: USER    (4) Unbound System's Energy         =  -1.94 kcal/mol
DOCKED: USER
DOCKED: USER
DOCKED: REMARK SMILES O=C(NCC(=O)N1CCCC[C@H]1c1nnc[n-]1)c1ccc2cc(F)ccc2n1
DOCKED: REMARK SMILES IDX 4 1 3 2 2 3 1 4 18 6 19 7 28 8 20 9 27 10 21 11 26 12 22 13
DOCKED: REMARK SMILES IDX 25 14 23 15 24 16 5 17 6 18 7 19 8 20 12 21 9 22 11 23 10 24
DOCKED: REMARK SMILES IDX 13 25 14 26 17 27 15 28 16 29
DOCKED: REMARK H PARENT 3 5
DOCKED: USER                              x       y       z     vdW  Elec       q    Type
DOCKED: USER                           _______ _______ _______ _____ _____    ______ ____
DOCKED: ROOT
DOCKED: ATOM      1  C   UNL     1     141.884  72.336 221.190 -0.16 -0.02    +0.216 C  
DOCKED: ENDROOT
DOCKED: BRANCH   1   2
DOCKED: ATOM      2  N   UNL     1     142.072  73.787 221.148 -0.09 +0.06    -0.342 N  
DOCKED: ATOM      3  C   UNL     1     141.035  74.684 221.575 -0.19 -0.04    +0.270 C  
DOCKED: ATOM      4  O   UNL     1     139.945  74.217 222.008 -0.82 +0.03    -0.268 OA 
DOCKED: ATOM      5  H   UNL     1     142.954  74.184 220.752 +0.05 -0.05    +0.164 HD 
DOCKED: BRANCH   3   6
DOCKED: ATOM      6  C   UNL     1     141.232  76.150 221.511 -0.24 -0.05    +0.128 A  
DOCKED: ATOM      7  C   UNL     1     141.549  76.786 220.299 -0.26 -0.02    +0.035 A  
DOCKED: ATOM      8  N   UNL     1     141.103  76.897 222.643 -0.25 +0.09    -0.243 NA 
DOCKED: ATOM      9  C   UNL     1     141.728  78.170 220.269 -0.30 -0.01    +0.013 A  
DOCKED: ATOM     10  C   UNL     1     141.271  78.246 222.644 -0.44 -0.03    +0.071 A  
DOCKED: ATOM     11  C   UNL     1     141.591  78.917 221.443 -0.38 -0.00    +0.003 A  
DOCKED: ATOM     12  C   UNL     1     141.129  78.972 223.832 -0.53 -0.01    +0.032 A  
DOCKED: ATOM     13  C   UNL     1     141.765  80.309 221.448 -0.39 -0.02    +0.049 A  
DOCKED: ATOM     14  C   UNL     1     141.303  80.360 223.829 -0.50 -0.01    +0.041 A  
DOCKED: ATOM     15  C   UNL     1     141.620  81.027 222.640 -0.43 -0.03    +0.123 A  
DOCKED: ATOM     16  F   UNL     1     141.788  82.372 222.645 -0.10 +0.02    -0.207 F  
DOCKED: ENDBRANCH   3   6
DOCKED: ENDBRANCH   1   2
DOCKED: BRANCH   1  17
DOCKED: ATOM     17  C   UNL     1     141.828  71.742 219.804 -0.07 -0.04    +0.242 C  
DOCKED: ATOM     18  O   UNL     1     141.029  72.240 218.963 -0.02 +0.05    -0.273 OA 
DOCKED: BRANCH  17  19
DOCKED: ATOM     19  N   UNL     1     142.720  70.679 219.396 -0.04 +0.03    -0.334 N  
DOCKED: ATOM     20  C   UNL     1     142.347  69.821 218.260 -0.05 -0.02    +0.120 C  
DOCKED: ATOM     21  C   UNL     1     144.064  70.535 219.997 -0.15 +0.00    +0.121 C  
DOCKED: ATOM     22  C   UNL     1     142.628  68.342 218.573 -0.14 -0.01    +0.022 C  
DOCKED: ATOM     23  C   UNL     1     144.837  69.351 219.385 -0.27 +0.01    +0.030 C  
DOCKED: ATOM     24  C   UNL     1     143.946  68.107 219.341 -0.31 -0.00    +0.004 C  
DOCKED: BRANCH  21  25
DOCKED: ATOM     25  C   UNL     1     144.862  71.797 219.822 -0.32 +0.00    +0.012 A  
DOCKED: ATOM     26  N   UNL     1     145.792  71.962 218.866 -0.52 -0.32    -0.351 NA 
DOCKED: ATOM     27  N   UNL     1     144.698  72.899 220.581 -0.18 +0.05    -0.368 NA 
DOCKED: ATOM     28  N   UNL     1     146.256  73.192 219.003 -0.62 -0.28    -0.357 NA 
DOCKED: ATOM     29  C   UNL     1     145.594  73.744 220.036 -0.49 -0.00    +0.044 A  
DOCKED: ENDBRANCH  21  25
DOCKED: ENDBRANCH  17  19
DOCKED: ENDBRANCH   1  17
DOCKED: TORSDOF 5
DOCKED: TER
DOCKED: ENDMDL
________________________________________________________________________________


    FINAL DOCKED STATE:
    ________________________


Run:   16 / 20
Time taken for this run:   0.041s

DOCKED: MODEL        16
DOCKED: USER    Run = 16
DOCKED: USER
DOCKED: USER    Estimated Free Energy of Binding    =  -5.51 kcal/mol  [=(1)+(2)+(3)-(4)]
DOCKED: USER
DOCKED: USER    (1) Final Intermolecular Energy     =  -7.00 kcal/mol
DOCKED: USER        vdW + Hbond + desolv Energy     =  -7.16 kcal/mol
DOCKED: USER        Electrostatic Energy            =  +0.16 kcal/mol
DOCKED: USER        Moving Ligand-Fixed Receptor    =  -7.00 kcal/mol
DOCKED: USER        Moving Ligand-Moving Receptor   =  +0.00 kcal/mol
DOCKED: USER    (2) Final Total Internal Energy     =  -3.64 kcal/mol
DOCKED: USER    (3) Torsional Free Energy           =  +1.49 kcal/mol
DOCKED: USER    (4) Unbound System's Energy         =  -3.64 kcal/mol
DOCKED: USER
DOCKED: USER
DOCKED: REMARK SMILES O=C(NCC(=O)N1CCCC[C@H]1c1nnc[n-]1)c1ccc2cc(F)ccc2n1
DOCKED: REMARK SMILES IDX 4 1 3 2 2 3 1 4 18 6 19 7 28 8 20 9 27 10 21 11 26 12 22 13
DOCKED: REMARK SMILES IDX 25 14 23 15 24 16 5 17 6 18 7 19 8 20 12 21 9 22 11 23 10 24
DOCKED: REMARK SMILES IDX 13 25 14 26 17 27 15 28 16 29
DOCKED: REMARK H PARENT 3 5
DOCKED: USER                              x       y       z     vdW  Elec       q    Type
DOCKED: USER                           _______ _______ _______ _____ _____    ______ ____
DOCKED: ROOT
DOCKED: ATOM      1  C   UNL     1     140.762  74.171 219.445 -0.05 -0.05    +0.216 C  
DOCKED: ENDROOT
DOCKED: BRANCH   1   2
DOCKED: ATOM      2  N   UNL     1     140.607  73.056 220.381 -0.04 +0.06    -0.342 N  
DOCKED: ATOM      3  C   UNL     1     140.324  73.286 221.770 -0.19 -0.03    +0.270 C  
DOCKED: ATOM      4  O   UNL     1     140.193  74.467 222.193 -0.79 +0.00    -0.268 OA 
DOCKED: ATOM      5  H   UNL     1     140.754  72.076 220.049 +0.04 -0.03    +0.164 HD 
DOCKED: BRANCH   3   6
DOCKED: ATOM      6  C   UNL     1     140.186  72.149 222.709 -0.29 -0.02    +0.128 A  
DOCKED: ATOM      7  C   UNL     1     139.567  70.952 222.310 -0.21 -0.01    +0.035 A  
DOCKED: ATOM      8  N   UNL     1     140.665  72.262 223.979 -0.13 +0.02    -0.243 NA 
DOCKED: ATOM      9  C   UNL     1     139.451  69.897 223.218 -0.23 -0.00    +0.013 A  
DOCKED: ATOM     10  C   UNL     1     140.568  71.251 224.883 -0.47 -0.01    +0.071 A  
DOCKED: ATOM     11  C   UNL     1     139.952  70.035 224.517 -0.38 -0.00    +0.003 A  
DOCKED: ATOM     12  C   UNL     1     141.076  71.413 226.178 -0.65 -0.00    +0.032 A  
DOCKED: ATOM     13  C   UNL     1     139.852  68.995 225.452 -0.42 -0.01    +0.049 A  
DOCKED: ATOM     14  C   UNL     1     140.973  70.372 227.105 -0.57 -0.01    +0.041 A  
DOCKED: ATOM     15  C   UNL     1     140.362  69.165 226.744 -0.47 -0.02    +0.123 A  
DOCKED: ATOM     16  F   UNL     1     140.266  68.160 227.648 -0.19 +0.05    -0.207 F  
DOCKED: ENDBRANCH   3   6
DOCKED: ENDBRANCH   1   2
DOCKED: BRANCH   1  17
DOCKED: ATOM     17  C   UNL     1     142.197  74.334 219.007 -0.08 -0.07    +0.242 C  
DOCKED: ATOM     18  O   UNL     1     142.469  75.211 218.142 -0.07 +0.10    -0.273 OA 
DOCKED: BRANCH  17  19
DOCKED: ATOM     19  N   UNL     1     143.268  73.571 219.610 -0.08 +0.08    -0.334 N  
DOCKED: ATOM     20  C   UNL     1     143.898  74.067 220.844 -0.22 -0.04    +0.120 C  
DOCKED: ATOM     21  C   UNL     1     143.636  72.232 219.099 -0.14 -0.01    +0.121 C  
DOCKED: ATOM     22  C   UNL     1     145.428  73.934 220.771 -0.59 -0.00    +0.022 C  
DOCKED: ATOM     23  C   UNL     1     144.782  71.608 219.918 -0.25 +0.00    +0.030 C  
DOCKED: ATOM     24  C   UNL     1     145.909  72.625 220.108 -0.51 +0.00    +0.004 C  
DOCKED: BRANCH  21  25
DOCKED: ATOM     25  C   UNL     1     142.448  71.312 219.118 -0.10 -0.00    +0.012 A  
DOCKED: ATOM     26  N   UNL     1     142.169  70.479 220.136 -0.01 +0.04    -0.351 NA 
DOCKED: ATOM     27  N   UNL     1     141.525  71.257 218.137 +0.01 +0.06    -0.368 NA 
DOCKED: ATOM     28  N   UNL     1     141.048  69.857 219.815 -0.04 +0.06    -0.357 NA 
DOCKED: ATOM     29  C   UNL     1     140.672  70.331 218.613 -0.04 -0.01    +0.044 A  
DOCKED: ENDBRANCH  21  25
DOCKED: ENDBRANCH  17  19
DOCKED: ENDBRANCH   1  17
DOCKED: TORSDOF 5
DOCKED: TER
DOCKED: ENDMDL
________________________________________________________________________________


    FINAL DOCKED STATE:
    ________________________


Run:   17 / 20
Time taken for this run:   0.041s

DOCKED: MODEL        17
DOCKED: USER    Run = 17
DOCKED: USER
DOCKED: USER    Estimated Free Energy of Binding    =  -5.49 kcal/mol  [=(1)+(2)+(3)-(4)]
DOCKED: USER
DOCKED: USER    (1) Final Intermolecular Energy     =  -6.98 kcal/mol
DOCKED: USER        vdW + Hbond + desolv Energy     =  -7.14 kcal/mol
DOCKED: USER        Electrostatic Energy            =  +0.16 kcal/mol
DOCKED: USER        Moving Ligand-Fixed Receptor    =  -6.98 kcal/mol
DOCKED: USER        Moving Ligand-Moving Receptor   =  +0.00 kcal/mol
DOCKED: USER    (2) Final Total Internal Energy     =  -3.67 kcal/mol
DOCKED: USER    (3) Torsional Free Energy           =  +1.49 kcal/mol
DOCKED: USER    (4) Unbound System's Energy         =  -3.67 kcal/mol
DOCKED: USER
DOCKED: USER
DOCKED: REMARK SMILES O=C(NCC(=O)N1CCCC[C@H]1c1nnc[n-]1)c1ccc2cc(F)ccc2n1
DOCKED: REMARK SMILES IDX 4 1 3 2 2 3 1 4 18 6 19 7 28 8 20 9 27 10 21 11 26 12 22 13
DOCKED: REMARK SMILES IDX 25 14 23 15 24 16 5 17 6 18 7 19 8 20 12 21 9 22 11 23 10 24
DOCKED: REMARK SMILES IDX 13 25 14 26 17 27 15 28 16 29
DOCKED: REMARK H PARENT 3 5
DOCKED: USER                              x       y       z     vdW  Elec       q    Type
DOCKED: USER                           _______ _______ _______ _____ _____    ______ ____
DOCKED: ROOT
DOCKED: ATOM      1  C   UNL     1     140.638  74.076 219.448 -0.04 -0.05    +0.216 C  
DOCKED: ENDROOT
DOCKED: BRANCH   1   2
DOCKED: ATOM      2  N   UNL     1     140.501  72.978 220.406 -0.04 +0.06    -0.342 N  
DOCKED: ATOM      3  C   UNL     1     140.308  73.233 221.806 -0.19 -0.03    +0.270 C  
DOCKED: ATOM      4  O   UNL     1     140.242  74.423 222.220 -0.80 -0.00    -0.268 OA 
DOCKED: ATOM      5  H   UNL     1     140.596  71.990 220.079 +0.03 -0.03    +0.164 HD 
DOCKED: BRANCH   3   6
DOCKED: ATOM      6  C   UNL     1     140.188  72.113 222.767 -0.29 -0.02    +0.128 A  
DOCKED: ATOM      7  C   UNL     1     139.595  70.896 222.389 -0.22 -0.01    +0.035 A  
DOCKED: ATOM      8  N   UNL     1     140.659  72.260 224.036 -0.11 +0.02    -0.243 NA 
DOCKED: ATOM      9  C   UNL     1     139.496  69.857 223.316 -0.24 -0.00    +0.013 A  
DOCKED: ATOM     10  C   UNL     1     140.577  71.265 224.960 -0.48 -0.01    +0.071 A  
DOCKED: ATOM     11  C   UNL     1     139.987  70.030 224.615 -0.39 -0.00    +0.003 A  
DOCKED: ATOM     12  C   UNL     1     141.076  71.463 226.253 -0.66 -0.00    +0.032 A  
DOCKED: ATOM     13  C   UNL     1     139.903  69.007 225.570 -0.43 -0.01    +0.049 A  
DOCKED: ATOM     14  C   UNL     1     140.989  70.439 227.200 -0.58 -0.01    +0.041 A  
DOCKED: ATOM     15  C   UNL     1     140.404  69.213 226.860 -0.48 -0.02    +0.123 A  
DOCKED: ATOM     16  F   UNL     1     140.323  68.225 227.784 -0.19 +0.05    -0.207 F  
DOCKED: ENDBRANCH   3   6
DOCKED: ENDBRANCH   1   2
DOCKED: BRANCH   1  17
DOCKED: ATOM     17  C   UNL     1     142.074  74.272 219.027 -0.07 -0.07    +0.242 C  
DOCKED: ATOM     18  O   UNL     1     142.342  75.183 218.196 -0.06 +0.10    -0.273 OA 
DOCKED: BRANCH  17  19
DOCKED: ATOM     19  N   UNL     1     143.149  73.502 219.612 -0.07 +0.07    -0.334 N  
DOCKED: ATOM     20  C   UNL     1     143.797  73.987 220.841 -0.22 -0.04    +0.120 C  
DOCKED: ATOM     21  C   UNL     1     143.507  72.166 219.086 -0.13 -0.01    +0.121 C  
DOCKED: ATOM     22  C   UNL     1     145.325  73.849 220.748 -0.59 -0.00    +0.022 C  
DOCKED: ATOM     23  C   UNL     1     144.661  71.532 219.886 -0.25 +0.00    +0.030 C  
DOCKED: ATOM     24  C   UNL     1     145.793  72.544 220.070 -0.48 +0.00    +0.004 C  
DOCKED: BRANCH  21  25
DOCKED: ATOM     25  C   UNL     1     142.316  71.249 219.113 -0.10 -0.00    +0.012 A  
DOCKED: ATOM     26  N   UNL     1     142.052  70.403 220.124 -0.01 +0.04    -0.351 NA 
DOCKED: ATOM     27  N   UNL     1     141.377  71.211 218.148 +0.01 +0.06    -0.368 NA 
DOCKED: ATOM     28  N   UNL     1     140.924  69.788 219.813 -0.04 +0.06    -0.357 NA 
DOCKED: ATOM     29  C   UNL     1     140.528  70.280 218.625 -0.04 -0.01    +0.044 A  
DOCKED: ENDBRANCH  21  25
DOCKED: ENDBRANCH  17  19
DOCKED: ENDBRANCH   1  17
DOCKED: TORSDOF 5
DOCKED: TER
DOCKED: ENDMDL
________________________________________________________________________________


    FINAL DOCKED STATE:
    ________________________


Run:   18 / 20
Time taken for this run:   0.041s

DOCKED: MODEL        18
DOCKED: USER    Run = 18
DOCKED: USER
DOCKED: USER    Estimated Free Energy of Binding    =  -6.31 kcal/mol  [=(1)+(2)+(3)-(4)]
DOCKED: USER
DOCKED: USER    (1) Final Intermolecular Energy     =  -7.80 kcal/mol
DOCKED: USER        vdW + Hbond + desolv Energy     =  -7.89 kcal/mol
DOCKED: USER        Electrostatic Energy            =  +0.09 kcal/mol
DOCKED: USER        Moving Ligand-Fixed Receptor    =  -7.80 kcal/mol
DOCKED: USER        Moving Ligand-Moving Receptor   =  +0.00 kcal/mol
DOCKED: USER    (2) Final Total Internal Energy     =  -2.96 kcal/mol
DOCKED: USER    (3) Torsional Free Energy           =  +1.49 kcal/mol
DOCKED: USER    (4) Unbound System's Energy         =  -2.96 kcal/mol
DOCKED: USER
DOCKED: USER
DOCKED: REMARK SMILES O=C(NCC(=O)N1CCCC[C@H]1c1nnc[n-]1)c1ccc2cc(F)ccc2n1
DOCKED: REMARK SMILES IDX 4 1 3 2 2 3 1 4 18 6 19 7 28 8 20 9 27 10 21 11 26 12 22 13
DOCKED: REMARK SMILES IDX 25 14 23 15 24 16 5 17 6 18 7 19 8 20 12 21 9 22 11 23 10 24
DOCKED: REMARK SMILES IDX 13 25 14 26 17 27 15 28 16 29
DOCKED: REMARK H PARENT 3 5
DOCKED: USER                              x       y       z     vdW  Elec       q    Type
DOCKED: USER                           _______ _______ _______ _____ _____    ______ ____
DOCKED: ROOT
DOCKED: ATOM      1  C   UNL     1     136.656  74.258 221.559 -0.08 -0.05    +0.216 C  
DOCKED: ENDROOT
DOCKED: BRANCH   1   2
DOCKED: ATOM      2  N   UNL     1     137.363  73.286 222.394 -0.02 +0.12    -0.342 N  
DOCKED: ATOM      3  C   UNL     1     136.722  72.079 222.835 -0.09 -0.07    +0.270 C  
DOCKED: ATOM      4  O   UNL     1     135.533  71.842 222.488 -0.04 +0.05    -0.268 OA 
DOCKED: ATOM      5  H   UNL     1     138.335  73.493 222.721 -0.53 -0.08    +0.164 HD 
DOCKED: BRANCH   3   6
DOCKED: ATOM      6  C   UNL     1     137.444  71.112 223.694 -0.19 -0.03    +0.128 A  
DOCKED: ATOM      7  C   UNL     1     136.909  69.840 223.959 -0.22 -0.00    +0.035 A  
DOCKED: ATOM      8  N   UNL     1     138.645  71.458 224.236 -0.12 +0.07    -0.243 NA 
DOCKED: ATOM      9  C   UNL     1     137.612  68.948 224.771 -0.28 -0.00    +0.013 A  
DOCKED: ATOM     10  C   UNL     1     139.353  70.610 225.029 -0.36 -0.01    +0.071 A  
DOCKED: ATOM     11  C   UNL     1     138.844  69.324 225.317 -0.40 -0.00    +0.003 A  
DOCKED: ATOM     12  C   UNL     1     140.583  71.009 225.564 -0.55 -0.00    +0.032 A  
DOCKED: ATOM     13  C   UNL     1     139.576  68.453 226.137 -0.52 -0.01    +0.049 A  
DOCKED: ATOM     14  C   UNL     1     141.307  70.135 226.380 -0.50 -0.01    +0.041 A  
DOCKED: ATOM     15  C   UNL     1     140.806  68.860 226.667 -0.49 -0.03    +0.123 A  
DOCKED: ATOM     16  F   UNL     1     141.513  68.018 227.459 -0.15 +0.06    -0.207 F  
DOCKED: ENDBRANCH   3   6
DOCKED: ENDBRANCH   1   2
DOCKED: BRANCH   1  17
DOCKED: ATOM     17  C   UNL     1     137.612  75.214 220.887 -0.07 -0.05    +0.242 C  
DOCKED: ATOM     18  O   UNL     1     137.567  75.330 219.631 -0.01 +0.05    -0.273 OA 
DOCKED: BRANCH  17  19
DOCKED: ATOM     19  N   UNL     1     138.511  76.051 221.649 -0.11 +0.07    -0.334 N  
DOCKED: ATOM     20  C   UNL     1     137.968  76.904 222.718 -0.24 -0.02    +0.120 C  
DOCKED: ATOM     21  C   UNL     1     139.978  75.954 221.478 -0.27 -0.03    +0.121 C  
DOCKED: ATOM     22  C   UNL     1     138.587  78.311 222.667 -0.28 -0.00    +0.022 C  
DOCKED: ATOM     23  C   UNL     1     140.724  76.924 222.414 -0.39 -0.01    +0.030 C  
DOCKED: ATOM     24  C   UNL     1     140.096  78.317 222.340 -0.37 -0.00    +0.004 C  
DOCKED: BRANCH  21  25
DOCKED: ATOM     25  C   UNL     1     140.449  74.550 221.732 -0.28 -0.00    +0.012 A  
DOCKED: ATOM     26  N   UNL     1     139.952  73.763 222.702 -0.53 -0.01    -0.351 NA 
DOCKED: ATOM     27  N   UNL     1     141.388  73.928 220.992 -0.14 +0.06    -0.368 NA 
DOCKED: ATOM     28  N   UNL     1     140.582  72.605 222.606 -0.41 +0.02    -0.357 NA 
DOCKED: ATOM     29  C   UNL     1     141.442  72.716 221.577 -0.25 -0.00    +0.044 A  
DOCKED: ENDBRANCH  21  25
DOCKED: ENDBRANCH  17  19
DOCKED: ENDBRANCH   1  17
DOCKED: TORSDOF 5
DOCKED: TER
DOCKED: ENDMDL
________________________________________________________________________________


    FINAL DOCKED STATE:
    ________________________


Run:   19 / 20
Time taken for this run:   0.041s

DOCKED: MODEL        19
DOCKED: USER    Run = 19
DOCKED: USER
DOCKED: USER    Estimated Free Energy of Binding    =  -6.49 kcal/mol  [=(1)+(2)+(3)-(4)]
DOCKED: USER
DOCKED: USER    (1) Final Intermolecular Energy     =  -7.98 kcal/mol
DOCKED: USER        vdW + Hbond + desolv Energy     =  -8.02 kcal/mol
DOCKED: USER        Electrostatic Energy            =  +0.04 kcal/mol
DOCKED: USER        Moving Ligand-Fixed Receptor    =  -7.98 kcal/mol
DOCKED: USER        Moving Ligand-Moving Receptor   =  +0.00 kcal/mol
DOCKED: USER    (2) Final Total Internal Energy     =  -2.77 kcal/mol
DOCKED: USER    (3) Torsional Free Energy           =  +1.49 kcal/mol
DOCKED: USER    (4) Unbound System's Energy         =  -2.77 kcal/mol
DOCKED: USER
DOCKED: USER
DOCKED: REMARK SMILES O=C(NCC(=O)N1CCCC[C@H]1c1nnc[n-]1)c1ccc2cc(F)ccc2n1
DOCKED: REMARK SMILES IDX 4 1 3 2 2 3 1 4 18 6 19 7 28 8 20 9 27 10 21 11 26 12 22 13
DOCKED: REMARK SMILES IDX 25 14 23 15 24 16 5 17 6 18 7 19 8 20 12 21 9 22 11 23 10 24
DOCKED: REMARK SMILES IDX 13 25 14 26 17 27 15 28 16 29
DOCKED: REMARK H PARENT 3 5
DOCKED: USER                              x       y       z     vdW  Elec       q    Type
DOCKED: USER                           _______ _______ _______ _____ _____    ______ ____
DOCKED: ROOT
DOCKED: ATOM      1  C   UNL     1     136.953  73.371 221.307 -0.06 -0.05    +0.216 C  
DOCKED: ENDROOT
DOCKED: BRANCH   1   2
DOCKED: ATOM      2  N   UNL     1     137.661  72.678 222.384 -0.06 +0.11    -0.342 N  
DOCKED: ATOM      3  C   UNL     1     137.548  71.257 222.554 -0.09 -0.06    +0.270 C  
DOCKED: ATOM      4  O   UNL     1     136.837  70.588 221.754 -0.03 +0.05    -0.268 OA 
DOCKED: ATOM      5  H   UNL     1     138.218  73.228 223.076 -0.49 -0.11    +0.164 HD 
DOCKED: BRANCH   3   6
DOCKED: ATOM      6  C   UNL     1     138.256  70.570 223.658 -0.22 -0.02    +0.128 A  
DOCKED: ATOM      7  C   UNL     1     138.196  69.173 223.798 -0.27 -0.00    +0.035 A  
DOCKED: ATOM      8  N   UNL     1     138.979  71.300 224.552 -0.17 +0.06    -0.243 NA 
DOCKED: ATOM      9  C   UNL     1     138.874  68.552 224.849 -0.39 -0.00    +0.013 A  
DOCKED: ATOM     10  C   UNL     1     139.651  70.723 225.584 -0.39 -0.01    +0.071 A  
DOCKED: ATOM     11  C   UNL     1     139.611  69.322 225.755 -0.46 -0.00    +0.003 A  
DOCKED: ATOM     12  C   UNL     1     140.381  71.515 226.478 -0.59 -0.01    +0.032 A  
DOCKED: ATOM     13  C   UNL     1     140.304  68.731 226.822 -0.58 -0.01    +0.049 A  
DOCKED: ATOM     14  C   UNL     1     141.069  70.918 227.539 -0.65 -0.01    +0.041 A  
DOCKED: ATOM     15  C   UNL     1     141.032  69.530 227.711 -0.48 -0.03    +0.123 A  
DOCKED: ATOM     16  F   UNL     1     141.701  68.958 228.741 -0.11 +0.05    -0.207 F  
DOCKED: ENDBRANCH   3   6
DOCKED: ENDBRANCH   1   2
DOCKED: BRANCH   1  17
DOCKED: ATOM     17  C   UNL     1     137.805  74.451 220.686 -0.06 -0.05    +0.242 C  
DOCKED: ATOM     18  O   UNL     1     137.756  74.616 219.436 -0.01 +0.05    -0.273 OA 
DOCKED: BRANCH  17  19
DOCKED: ATOM     19  N   UNL     1     138.606  75.346 221.492 -0.10 +0.08    -0.334 N  
DOCKED: ATOM     20  C   UNL     1     137.957  76.136 222.551 -0.24 -0.03    +0.120 C  
DOCKED: ATOM     21  C   UNL     1     140.081  75.369 221.375 -0.26 -0.03    +0.121 C  
DOCKED: ATOM     22  C   UNL     1     138.462  77.588 222.540 -0.28 -0.00    +0.022 C  
DOCKED: ATOM     23  C   UNL     1     140.712  76.380 222.351 -0.36 -0.01    +0.030 C  
DOCKED: ATOM     24  C   UNL     1     139.976  77.719 222.271 -0.37 -0.00    +0.004 C  
DOCKED: BRANCH  21  25
DOCKED: ATOM     25  C   UNL     1     140.654  74.003 221.629 -0.30 -0.00    +0.012 A  
DOCKED: ATOM     26  N   UNL     1     140.339  73.252 222.699 -0.55 -0.01    -0.351 NA 
DOCKED: ATOM     27  N   UNL     1     141.509  73.381 220.793 -0.09 +0.06    -0.368 NA 
DOCKED: ATOM     28  N   UNL     1     141.008  72.119 222.571 -0.15 +0.02    -0.357 NA 
DOCKED: ATOM     29  C   UNL     1     141.707  72.208 221.424 -0.22 -0.00    +0.044 A  
DOCKED: ENDBRANCH  21  25
DOCKED: ENDBRANCH  17  19
DOCKED: ENDBRANCH   1  17
DOCKED: TORSDOF 5
DOCKED: TER
DOCKED: ENDMDL
________________________________________________________________________________


    FINAL DOCKED STATE:
    ________________________


Run:   20 / 20
Time taken for this run:   0.041s

DOCKED: MODEL        20
DOCKED: USER    Run = 20
DOCKED: USER
DOCKED: USER    Estimated Free Energy of Binding    =  -6.45 kcal/mol  [=(1)+(2)+(3)-(4)]
DOCKED: USER
DOCKED: USER    (1) Final Intermolecular Energy     =  -7.94 kcal/mol
DOCKED: USER        vdW + Hbond + desolv Energy     =  -7.99 kcal/mol
DOCKED: USER        Electrostatic Energy            =  +0.04 kcal/mol
DOCKED: USER        Moving Ligand-Fixed Receptor    =  -7.94 kcal/mol
DOCKED: USER        Moving Ligand-Moving Receptor   =  +0.00 kcal/mol
DOCKED: USER    (2) Final Total Internal Energy     =  -2.72 kcal/mol
DOCKED: USER    (3) Torsional Free Energy           =  +1.49 kcal/mol
DOCKED: USER    (4) Unbound System's Energy         =  -2.72 kcal/mol
DOCKED: USER
DOCKED: USER
DOCKED: REMARK SMILES O=C(NCC(=O)N1CCCC[C@H]1c1nnc[n-]1)c1ccc2cc(F)ccc2n1
DOCKED: REMARK SMILES IDX 4 1 3 2 2 3 1 4 18 6 19 7 28 8 20 9 27 10 21 11 26 12 22 13
DOCKED: REMARK SMILES IDX 25 14 23 15 24 16 5 17 6 18 7 19 8 20 12 21 9 22 11 23 10 24
DOCKED: REMARK SMILES IDX 13 25 14 26 17 27 15 28 16 29
DOCKED: REMARK H PARENT 3 5
DOCKED: USER                              x       y       z     vdW  Elec       q    Type
DOCKED: USER                           _______ _______ _______ _____ _____    ______ ____
DOCKED: ROOT
DOCKED: ATOM      1  C   UNL     1     136.956  73.223 221.356 -0.06 -0.05    +0.216 C  
DOCKED: ENDROOT
DOCKED: BRANCH   1   2
DOCKED: ATOM      2  N   UNL     1     137.669  72.534 222.433 -0.06 +0.11    -0.342 N  
DOCKED: ATOM      3  C   UNL     1     137.609  71.106 222.570 -0.09 -0.06    +0.270 C  
DOCKED: ATOM      4  O   UNL     1     136.942  70.427 221.741 -0.03 +0.05    -0.268 OA 
DOCKED: ATOM      5  H   UNL     1     138.189  73.091 223.148 -0.46 -0.11    +0.164 HD 
DOCKED: BRANCH   3   6
DOCKED: ATOM      6  C   UNL     1     138.321  70.424 223.675 -0.22 -0.02    +0.128 A  
DOCKED: ATOM      7  C   UNL     1     138.298  69.024 223.795 -0.27 -0.00    +0.035 A  
DOCKED: ATOM      8  N   UNL     1     139.011  71.162 224.589 -0.21 +0.06    -0.243 NA 
DOCKED: ATOM      9  C   UNL     1     138.980  68.408 224.847 -0.39 -0.00    +0.013 A  
DOCKED: ATOM     10  C   UNL     1     139.684  70.590 225.622 -0.40 -0.01    +0.071 A  
DOCKED: ATOM     11  C   UNL     1     139.682  69.186 225.774 -0.47 -0.00    +0.003 A  
DOCKED: ATOM     12  C   UNL     1     140.380  71.389 226.537 -0.60 -0.01    +0.032 A  
DOCKED: ATOM     13  C   UNL     1     140.377  68.599 226.841 -0.59 -0.01    +0.049 A  
DOCKED: ATOM     14  C   UNL     1     141.070  70.797 227.599 -0.63 -0.01    +0.041 A  
DOCKED: ATOM     15  C   UNL     1     141.069  69.405 227.752 -0.49 -0.03    +0.123 A  
DOCKED: ATOM     16  F   UNL     1     141.741  68.839 228.783 -0.11 +0.05    -0.207 F  
DOCKED: ENDBRANCH   3   6
DOCKED: ENDBRANCH   1   2
DOCKED: BRANCH   1  17
DOCKED: ATOM     17  C   UNL     1     137.831  74.246 220.674 -0.06 -0.05    +0.242 C  
DOCKED: ATOM     18  O   UNL     1     137.815  74.314 219.414 -0.01 +0.05    -0.273 OA 
DOCKED: BRANCH  17  19
DOCKED: ATOM     19  N   UNL     1     138.618  75.197 221.429 -0.10 +0.08    -0.334 N  
DOCKED: ATOM     20  C   UNL     1     137.957  76.034 222.444 -0.24 -0.03    +0.120 C  
DOCKED: ATOM     21  C   UNL     1     140.092  75.237 221.309 -0.25 -0.03    +0.121 C  
DOCKED: ATOM     22  C   UNL     1     138.439  77.491 222.353 -0.28 -0.00    +0.022 C  
DOCKED: ATOM     23  C   UNL     1     140.707  76.310 222.228 -0.35 -0.01    +0.030 C  
DOCKED: ATOM     24  C   UNL     1     139.951  77.631 222.074 -0.35 -0.00    +0.004 C  
DOCKED: BRANCH  21  25
DOCKED: ATOM     25  C   UNL     1     140.687  73.896 221.638 -0.30 -0.00    +0.012 A  
DOCKED: ATOM     26  N   UNL     1     140.308  73.153 222.692 -0.57 +0.00    -0.351 NA 
DOCKED: ATOM     27  N   UNL     1     141.630  73.291 220.889 -0.10 +0.06    -0.368 NA 
DOCKED: ATOM     28  N   UNL     1     141.023  72.042 222.643 -0.14 +0.02    -0.357 NA 
DOCKED: ATOM     29  C   UNL     1     141.813  72.136 221.558 -0.19 -0.00    +0.044 A  
DOCKED: ENDBRANCH  21  25
DOCKED: ENDBRANCH  17  19
DOCKED: ENDBRANCH   1  17
DOCKED: TORSDOF 5
DOCKED: TER
DOCKED: ENDMDL
________________________________________________________________________________


    CLUSTERING HISTOGRAM
    ____________________


________________________________________________________________________________
     |           |     |           |     |
Clus | Lowest    | Run | Mean      | Num | Histogram
-ter | Binding   |     | Binding   | in  |
Rank | Energy    |     | Energy    | Clus|    5    10   15   20   25   30   35
_____|___________|_____|___________|_____|____:____|____:____|____:____|____:___
   1 |     -8.08 |   9 |     -7.94 |   5 |#####
   2 |     -7.33 |   2 |     -7.33 |   4 |####
   3 |     -6.51 |  10 |     -6.36 |   8 |########
   4 |     -5.85 |   1 |     -5.85 |   1 |#
   5 |     -5.51 |  16 |     -5.50 |   2 |##
_____|___________|_____|___________|_____|______________________________________


    RMSD TABLE
    __________


_______________________________________________________________________
     |      |      |           |         |                 |
Rank | Sub- | Run  | Binding   | Cluster | Reference       | Grep
     | Rank |      | Energy    | RMSD    | RMSD            | Pattern
_____|______|______|___________|_________|_________________|___________
   1      1      9       -8.08      0.00    271.99           RANKING
   1      2      7       -8.05      0.09    272.02           RANKING
   1      3     11       -7.99      0.19    271.89           RANKING
   1      4     14       -7.83      0.62    271.74           RANKING
   1      5     12       -7.76      0.34    271.84           RANKING
   2      1      2       -7.33      0.00    271.93           RANKING
   2      2      3       -7.33      0.14    271.88           RANKING
   2      3     13       -7.32      0.08    271.92           RANKING
   2      4     15       -7.32      0.07    271.96           RANKING
   3      1     10       -6.51      0.00    271.88           RANKING
   3      2     19       -6.49      0.05    271.89           RANKING
   3      3     20       -6.45      0.16    271.87           RANKING
   3      4      8       -6.31      1.02    271.72           RANKING
   3      5      5       -6.31      1.02    271.71           RANKING
   3      6     18       -6.31      0.95    271.71           RANKING
   3      7      4       -6.31      1.04    271.72           RANKING
   3      8      6       -6.22      0.58    271.77           RANKING
   4      1      1       -5.85      0.00    271.88           RANKING
   5      1     16       -5.51      0.00    271.49           RANKING
   5      2     17       -5.49      0.13    271.48           RANKING

Run time 0.782 sec
Idle time 0.000 sec
