AutoDock-GPU version: v1.6

**********************************************************
**    AutoDock-GPU AUTODOCKTOOLS-COMPATIBLE DLG FILE    **
**********************************************************


    DOCKING PARAMETERS
    ________________________


Ligand file:                               /home/a/REINVENT4/ReinventStudies/pleaseWork/justmol2mol_4_Compounds_ontop/graph-dock-8u2o5u/graph-DockGPU/node-autodockgpu/inputs/QOGCSCJFXGDBSP-RWEXAPSKNA-N.pdbqt
Grid fld file:                             /home/a/REINVENT4/ReinventStudies/mols/Rad51/maps/rad51_receptor.maps.fld

Random seed:                               42
Number of runs:                            20
Number of energy evaluations:              1259779
Number of generations:                     42000
Size of population:                        150
Rate of crossover:                         80.000000%
Tournament selection probability limit:    60.000000%
Rate of mutation:                          2.000000%
Maximal allowed delta movement:            +/- 6.000000A
Maximal allowed delta angle:               +/- 90.000000

Rate of local search:                      100.000000%
Maximal number of local search iterations: 300
Rho lower bound:                           0.010000
Spread of local search delta movement:     2.000000A
Spread of local search delta angle:        74.999999
Limit of consecutive successes/failures:   4

Handle symmetry during clustering:         YES
RMSD tolerance:                            2.000000A

Program call in command line was:          /home/a/REINVENT4/ReinventStudies/adgpu-v1.6_linux_x64_cuda12_128wi --filelist batch.txt --heuristics 1 --nrun 20 --psize 150 --lsit 300 --seed 42 --heurmax 12000000 


    GRID PARAMETERS
    ________________________


Receptor name:                             rad51_receptor
Number of grid points (x, y, z):           53, 53, 53
Grid center (x, y, z):                     139.950000, 75.640000, 221.970000A
Grid size (x, y, z):                       19.500000, 19.500000, 19.500000A
Grid spacing:                              0.375000A


    LIGAND PARAMETERS
    ________________________


Ligand name:                               /home/a/REINVENT4/ReinventStudies/pleaseWork/justmol2mol_4_Compounds_ontop/graph-dock-8u2o5u/graph-DockGPU/node-autodockgpu/inputs/QOGCSCJFXGDBSP-RWEXAPSKNA-N
Number of atoms:                           29
Number of rotatable bonds:                 7
Number of atom types:                      7


    DUMMY DATA (only for ADT-compatibility)
    ________________________


DPF> outlev 1
DPF> ga_run 20
DPF> fld /home/a/REINVENT4/ReinventStudies/mols/Rad51/maps/rad51_receptor.maps.fld
DPF> move /home/a/REINVENT4/ReinventStudies/pleaseWork/justmol2mol_4_Compounds_ontop/graph-dock-8u2o5u/graph-DockGPU/node-autodockgpu/inputs/QOGCSCJFXGDBSP-RWEXAPSKNA-N.pdbqt


    COUNTER STATES
    ________________________


Number of energy evaluations performed:    881461
Number of generations used:                45


    INPUT LIGAND PDBQT FILE:
    ________________________


INPUT-LIGAND-PDBQT: REMARK SMILES O=C(C/N=C(\O)c1ccc2cc(F)ccc2n1)N1CCC[C@H]1C1CCCCC1
INPUT-LIGAND-PDBQT: REMARK SMILES IDX 4 1 5 2 6 3 7 5 17 6 8 7 16 8 9 9 15 10 10 11 14 12 11 13
INPUT-LIGAND-PDBQT: REMARK SMILES IDX 12 14 13 15 3 16 2 17 1 18 18 19 19 20 22 21 20 22 21 23
INPUT-LIGAND-PDBQT: REMARK SMILES IDX 23 24 24 25 28 26 25 27 27 28 26 29
INPUT-LIGAND-PDBQT: REMARK H PARENT 6 4
INPUT-LIGAND-PDBQT: ROOT
INPUT-LIGAND-PDBQT: ATOM      1  N   UNL     1      -2.579   1.278   0.709  1.00  0.00    -0.240 NA
INPUT-LIGAND-PDBQT: ENDROOT
INPUT-LIGAND-PDBQT: BRANCH   1   2
INPUT-LIGAND-PDBQT: ATOM      2  C   UNL     1      -2.428   1.207   2.001  1.00  0.00     0.233 C 
INPUT-LIGAND-PDBQT: BRANCH   2   3
INPUT-LIGAND-PDBQT: ATOM      3  O   UNL     1      -3.215   0.360   2.788  1.00  0.00    -0.492 OA
INPUT-LIGAND-PDBQT: ATOM      4  H   UNL     1      -3.961  -0.212   2.414  1.00  0.00     0.295 HD
INPUT-LIGAND-PDBQT: ENDBRANCH   2   3
INPUT-LIGAND-PDBQT: BRANCH   2   5
INPUT-LIGAND-PDBQT: ATOM      5  C   UNL     1      -1.391   2.035   2.644  1.00  0.00     0.125 A 
INPUT-LIGAND-PDBQT: ATOM      6  N   UNL     1      -0.604   2.841   1.876  1.00  0.00    -0.243 NA
INPUT-LIGAND-PDBQT: ATOM      7  C   UNL     1      -1.189   1.993   4.032  1.00  0.00     0.035 A 
INPUT-LIGAND-PDBQT: ATOM      8  C   UNL     1       0.377   3.615   2.410  1.00  0.00     0.071 A 
INPUT-LIGAND-PDBQT: ATOM      9  C   UNL     1      -0.188   2.777   4.610  1.00  0.00     0.013 A 
INPUT-LIGAND-PDBQT: ATOM     10  C   UNL     1       1.161   4.427   1.582  1.00  0.00     0.032 A 
INPUT-LIGAND-PDBQT: ATOM     11  C   UNL     1       0.608   3.598   3.803  1.00  0.00     0.003 A 
INPUT-LIGAND-PDBQT: ATOM     12  C   UNL     1       2.171   5.221   2.135  1.00  0.00     0.041 A 
INPUT-LIGAND-PDBQT: ATOM     13  C   UNL     1       1.624   4.397   4.350  1.00  0.00     0.049 A 
INPUT-LIGAND-PDBQT: ATOM     14  C   UNL     1       2.402   5.206   3.515  1.00  0.00     0.123 A 
INPUT-LIGAND-PDBQT: ATOM     15  F   UNL     1       3.383   5.978   4.044  1.00  0.00    -0.207 F 
INPUT-LIGAND-PDBQT: ENDBRANCH   2   5
INPUT-LIGAND-PDBQT: ENDBRANCH   1   2
INPUT-LIGAND-PDBQT: BRANCH   1  16
INPUT-LIGAND-PDBQT: ATOM     16  C   UNL     1      -3.510   0.494  -0.100  1.00  0.00     0.246 C 
INPUT-LIGAND-PDBQT: BRANCH  16  17
INPUT-LIGAND-PDBQT: ATOM     17  C   UNL     1      -3.093  -0.951  -0.133  1.00  0.00     0.244 C 
INPUT-LIGAND-PDBQT: ATOM     18  O   UNL     1      -3.934  -1.833   0.187  1.00  0.00    -0.273 OA
INPUT-LIGAND-PDBQT: BRANCH  17  19
INPUT-LIGAND-PDBQT: ATOM     19  N   UNL     1      -1.755  -1.349  -0.488  1.00  0.00    -0.338 N 
INPUT-LIGAND-PDBQT: ATOM     20  C   UNL     1      -1.089  -2.405   0.260  1.00  0.00     0.120 C 
INPUT-LIGAND-PDBQT: ATOM     21  C   UNL     1      -0.813  -0.548  -1.274  1.00  0.00     0.088 C 
INPUT-LIGAND-PDBQT: ATOM     22  C   UNL     1       0.398  -2.242  -0.022  1.00  0.00     0.024 C 
INPUT-LIGAND-PDBQT: ATOM     23  C   UNL     1       0.540  -0.845  -0.613  1.00  0.00     0.027 C 
INPUT-LIGAND-PDBQT: BRANCH  21  24
INPUT-LIGAND-PDBQT: ATOM     24  C   UNL     1      -0.836  -0.965  -2.782  1.00  0.00     0.012 C 
INPUT-LIGAND-PDBQT: ATOM     25  C   UNL     1      -2.244  -0.813  -3.426  1.00  0.00     0.006 C 
INPUT-LIGAND-PDBQT: ATOM     26  C   UNL     1       0.247  -0.191  -3.596  1.00  0.00     0.006 C 
INPUT-LIGAND-PDBQT: ATOM     27  C   UNL     1      -2.441   0.577  -4.042  1.00  0.00     0.000 C 
INPUT-LIGAND-PDBQT: ATOM     28  C   UNL     1      -0.148   0.014  -5.063  1.00  0.00     0.000 C 
INPUT-LIGAND-PDBQT: ATOM     29  C   UNL     1      -1.444   0.836  -5.188  1.00  0.00     0.000 C 
INPUT-LIGAND-PDBQT: ENDBRANCH  21  24
INPUT-LIGAND-PDBQT: ENDBRANCH  17  19
INPUT-LIGAND-PDBQT: ENDBRANCH  16  17
INPUT-LIGAND-PDBQT: ENDBRANCH   1  16
INPUT-LIGAND-PDBQT: TORSDOF 7


    FINAL DOCKED STATE:
    ________________________


Run:   1 / 20
Time taken for this run:   0.036s

DOCKED: MODEL        1
DOCKED: USER    Run = 1
DOCKED: USER
DOCKED: USER    Estimated Free Energy of Binding    =  -8.24 kcal/mol  [=(1)+(2)+(3)-(4)]
DOCKED: USER
DOCKED: USER    (1) Final Intermolecular Energy     = -10.33 kcal/mol
DOCKED: USER        vdW + Hbond + desolv Energy     = -10.20 kcal/mol
DOCKED: USER        Electrostatic Energy            =  -0.12 kcal/mol
DOCKED: USER        Moving Ligand-Fixed Receptor    = -10.33 kcal/mol
DOCKED: USER        Moving Ligand-Moving Receptor   =  +0.00 kcal/mol
DOCKED: USER    (2) Final Total Internal Energy     =  -1.46 kcal/mol
DOCKED: USER    (3) Torsional Free Energy           =  +2.09 kcal/mol
DOCKED: USER    (4) Unbound System's Energy         =  -1.46 kcal/mol
DOCKED: USER
DOCKED: USER
DOCKED: REMARK SMILES O=C(C/N=C(\O)c1ccc2cc(F)ccc2n1)N1CCC[C@H]1C1CCCCC1
DOCKED: REMARK SMILES IDX 4 1 5 2 6 3 7 5 17 6 8 7 16 8 9 9 15 10 10 11 14 12 11 13
DOCKED: REMARK SMILES IDX 12 14 13 15 3 16 2 17 1 18 18 19 19 20 22 21 20 22 21 23
DOCKED: REMARK SMILES IDX 23 24 24 25 28 26 25 27 27 28 26 29
DOCKED: REMARK H PARENT 6 4
DOCKED: USER                              x       y       z     vdW  Elec       q    Type
DOCKED: USER                           _______ _______ _______ _____ _____    ______ ____
DOCKED: ROOT
DOCKED: ATOM      1  N   UNL     1     140.641  72.267 221.313 -0.14 +0.03    -0.240 NA 
DOCKED: ENDROOT
DOCKED: BRANCH   1   2
DOCKED: ATOM      2  C   UNL     1     139.721  72.332 222.234 -0.21 -0.04    +0.233 C  
DOCKED: BRANCH   2   3
DOCKED: ATOM      3  O   UNL     1     138.647  73.222 222.138 -0.11 +0.15    -0.492 OA 
DOCKED: ATOM      4  H   UNL     1     138.498  73.985 222.785 -0.50 -0.16    +0.295 HD 
DOCKED: ENDBRANCH   2   3
DOCKED: BRANCH   2   5
DOCKED: ATOM      5  C   UNL     1     139.814  71.433 223.399 -0.31 -0.02    +0.125 A  
DOCKED: ATOM      6  N   UNL     1     140.305  71.911 224.578 -0.25 +0.04    -0.243 NA 
DOCKED: ATOM      7  C   UNL     1     139.423  70.089 223.309 -0.25 -0.01    +0.035 A  
DOCKED: ATOM      8  C   UNL     1     140.428  71.127 225.681 -0.53 -0.01    +0.071 A  
DOCKED: ATOM      9  C   UNL     1     139.538  69.258 224.426 -0.32 -0.00    +0.013 A  
DOCKED: ATOM     10  C   UNL     1     140.938  71.662 226.870 -0.72 -0.01    +0.032 A  
DOCKED: ATOM     11  C   UNL     1     140.044  69.770 225.627 -0.46 -0.00    +0.003 A  
DOCKED: ATOM     12  C   UNL     1     141.065  70.851 228.003 -0.65 -0.01    +0.041 A  
DOCKED: ATOM     13  C   UNL     1     140.175  68.963 226.767 -0.55 -0.01    +0.049 A  
DOCKED: ATOM     14  C   UNL     1     140.685  69.506 227.952 -0.52 -0.02    +0.123 A  
DOCKED: ATOM     15  F   UNL     1     140.811  68.726 229.054 -0.13 +0.04    -0.207 F  
DOCKED: ENDBRANCH   2   5
DOCKED: ENDBRANCH   1   2
DOCKED: BRANCH   1  16
DOCKED: ATOM     16  C   UNL     1     141.614  73.307 220.985 -0.16 -0.04    +0.246 C  
DOCKED: BRANCH  16  17
DOCKED: ATOM     17  C   UNL     1     141.040  74.671 221.254 -0.21 -0.05    +0.244 C  
DOCKED: ATOM     18  O   UNL     1     140.421  74.867 222.334 -0.66 -0.01    -0.273 OA 
DOCKED: BRANCH  17  19
DOCKED: ATOM     19  N   UNL     1     141.152  75.745 220.301 -0.08 +0.12    -0.338 N  
DOCKED: ATOM     20  C   UNL     1     140.788  75.522 218.909 -0.07 -0.04    +0.120 C  
DOCKED: ATOM     21  C   UNL     1     141.966  76.951 220.474 -0.20 -0.05    +0.088 C  
DOCKED: ATOM     22  C   UNL     1     141.461  76.636 218.119 -0.12 -0.01    +0.024 C  
DOCKED: ATOM     23  C   UNL     1     142.505  77.219 219.062 -0.32 -0.02    +0.027 C  
DOCKED: BRANCH  21  24
DOCKED: ATOM     24  C   UNL     1     141.106  78.142 221.013 -0.31 -0.01    +0.012 C  
DOCKED: ATOM     25  C   UNL     1     140.751  77.994 222.520 -0.45 -0.00    +0.006 C  
DOCKED: ATOM     26  C   UNL     1     141.798  79.511 220.725 -0.33 -0.00    +0.006 C  
DOCKED: ATOM     27  C   UNL     1     141.807  78.646 223.420 -0.60 -0.00    +0.000 C  
DOCKED: ATOM     28  C   UNL     1     141.450  80.582 221.764 -0.43 -0.00    +0.000 C  
DOCKED: ATOM     29  C   UNL     1     141.901  80.165 223.176 -0.62 -0.00    +0.000 C  
DOCKED: ENDBRANCH  21  24
DOCKED: ENDBRANCH  17  19
DOCKED: ENDBRANCH  16  17
DOCKED: ENDBRANCH   1  16
DOCKED: TORSDOF 7
DOCKED: TER
DOCKED: ENDMDL
________________________________________________________________________________


    FINAL DOCKED STATE:
    ________________________


Run:   2 / 20
Time taken for this run:   0.036s

DOCKED: MODEL        2
DOCKED: USER    Run = 2
DOCKED: USER
DOCKED: USER    Estimated Free Energy of Binding    =  -7.67 kcal/mol  [=(1)+(2)+(3)-(4)]
DOCKED: USER
DOCKED: USER    (1) Final Intermolecular Energy     =  -9.76 kcal/mol
DOCKED: USER        vdW + Hbond + desolv Energy     =  -9.71 kcal/mol
DOCKED: USER        Electrostatic Energy            =  -0.05 kcal/mol
DOCKED: USER        Moving Ligand-Fixed Receptor    =  -9.76 kcal/mol
DOCKED: USER        Moving Ligand-Moving Receptor   =  +0.00 kcal/mol
DOCKED: USER    (2) Final Total Internal Energy     =  -1.45 kcal/mol
DOCKED: USER    (3) Torsional Free Energy           =  +2.09 kcal/mol
DOCKED: USER    (4) Unbound System's Energy         =  -1.45 kcal/mol
DOCKED: USER
DOCKED: USER
DOCKED: REMARK SMILES O=C(C/N=C(\O)c1ccc2cc(F)ccc2n1)N1CCC[C@H]1C1CCCCC1
DOCKED: REMARK SMILES IDX 4 1 5 2 6 3 7 5 17 6 8 7 16 8 9 9 15 10 10 11 14 12 11 13
DOCKED: REMARK SMILES IDX 12 14 13 15 3 16 2 17 1 18 18 19 19 20 22 21 20 22 21 23
DOCKED: REMARK SMILES IDX 23 24 24 25 28 26 25 27 27 28 26 29
DOCKED: REMARK H PARENT 6 4
DOCKED: USER                              x       y       z     vdW  Elec       q    Type
DOCKED: USER                           _______ _______ _______ _____ _____    ______ ____
DOCKED: ROOT
DOCKED: ATOM      1  N   UNL     1     140.784  73.344 220.535 -0.09 +0.04    -0.240 NA 
DOCKED: ENDROOT
DOCKED: BRANCH   1   2
DOCKED: ATOM      2  C   UNL     1     141.433  74.417 220.888 -0.20 -0.05    +0.233 C  
DOCKED: BRANCH   2   3
DOCKED: ATOM      3  O   UNL     1     142.820  74.519 220.744 -0.12 +0.17    -0.492 OA 
DOCKED: ATOM      4  H   UNL     1     143.357  75.308 221.079 -0.19 -0.21    +0.295 HD 
DOCKED: ENDBRANCH   2   3
DOCKED: BRANCH   2   5
DOCKED: ATOM      5  C   UNL     1     140.678  75.556 221.443 -0.29 -0.03    +0.125 A  
DOCKED: ATOM      6  N   UNL     1     141.354  76.620 221.964 -0.11 +0.12    -0.243 NA 
DOCKED: ATOM      7  C   UNL     1     139.275  75.555 221.461 -0.25 -0.01    +0.035 A  
DOCKED: ATOM      8  C   UNL     1     140.713  77.690 222.502 -0.40 -0.02    +0.071 A  
DOCKED: ATOM      9  C   UNL     1     138.588  76.641 222.008 -0.27 -0.00    +0.013 A  
DOCKED: ATOM     10  C   UNL     1     141.450  78.760 223.026 -0.53 -0.01    +0.032 A  
DOCKED: ATOM     11  C   UNL     1     139.302  77.723 222.536 -0.32 -0.00    +0.003 A  
DOCKED: ATOM     12  C   UNL     1     140.787  79.860 223.580 -0.48 -0.01    +0.041 A  
DOCKED: ATOM     13  C   UNL     1     138.645  78.830 223.095 -0.29 -0.01    +0.049 A  
DOCKED: ATOM     14  C   UNL     1     139.388  79.894 223.615 -0.35 -0.02    +0.123 A  
DOCKED: ATOM     15  F   UNL     1     138.753  80.963 224.155 -0.12 +0.02    -0.207 F  
DOCKED: ENDBRANCH   2   5
DOCKED: ENDBRANCH   1   2
DOCKED: BRANCH   1  16
DOCKED: ATOM     16  C   UNL     1     140.891  72.024 221.152 -0.14 -0.03    +0.246 C  
DOCKED: BRANCH  16  17
DOCKED: ATOM     17  C   UNL     1     140.159  71.993 222.466 -0.22 -0.03    +0.244 C  
DOCKED: ATOM     18  O   UNL     1     139.956  73.079 223.073 -0.52 +0.03    -0.273 OA 
DOCKED: BRANCH  17  19
DOCKED: ATOM     19  N   UNL     1     139.714  70.759 223.060 -0.12 +0.06    -0.338 N  
DOCKED: ATOM     20  C   UNL     1     139.213  69.685 222.216 -0.14 -0.02    +0.120 C  
DOCKED: ATOM     21  C   UNL     1     139.332  70.585 224.464 -0.35 -0.02    +0.088 C  
DOCKED: ATOM     22  C   UNL     1     138.403  68.778 223.131 -0.25 -0.00    +0.024 C  
DOCKED: ATOM     23  C   UNL     1     138.157  69.600 224.390 -0.31 -0.00    +0.027 C  
DOCKED: BRANCH  21  24
DOCKED: ATOM     24  C   UNL     1     140.522  70.019 225.309 -0.47 -0.00    +0.012 C  
DOCKED: ATOM     25  C   UNL     1     141.074  71.051 226.335 -0.66 -0.00    +0.006 C  
DOCKED: ATOM     26  C   UNL     1     140.130  68.680 226.006 -0.55 -0.00    +0.006 C  
DOCKED: ATOM     27  C   UNL     1     140.360  70.945 227.688 -0.71 -0.00    +0.000 C  
DOCKED: ATOM     28  C   UNL     1     140.883  68.453 227.321 -0.66 -0.00    +0.000 C  
DOCKED: ATOM     29  C   UNL     1     140.584  69.568 228.341 -0.61 -0.00    +0.000 C  
DOCKED: ENDBRANCH  21  24
DOCKED: ENDBRANCH  17  19
DOCKED: ENDBRANCH  16  17
DOCKED: ENDBRANCH   1  16
DOCKED: TORSDOF 7
DOCKED: TER
DOCKED: ENDMDL
________________________________________________________________________________


    FINAL DOCKED STATE:
    ________________________


Run:   3 / 20
Time taken for this run:   0.036s

DOCKED: MODEL        3
DOCKED: USER    Run = 3
DOCKED: USER
DOCKED: USER    Estimated Free Energy of Binding    =  -6.25 kcal/mol  [=(1)+(2)+(3)-(4)]
DOCKED: USER
DOCKED: USER    (1) Final Intermolecular Energy     =  -8.34 kcal/mol
DOCKED: USER        vdW + Hbond + desolv Energy     =  -8.14 kcal/mol
DOCKED: USER        Electrostatic Energy            =  -0.20 kcal/mol
DOCKED: USER        Moving Ligand-Fixed Receptor    =  -8.34 kcal/mol
DOCKED: USER        Moving Ligand-Moving Receptor   =  +0.00 kcal/mol
DOCKED: USER    (2) Final Total Internal Energy     =  -2.58 kcal/mol
DOCKED: USER    (3) Torsional Free Energy           =  +2.09 kcal/mol
DOCKED: USER    (4) Unbound System's Energy         =  -2.58 kcal/mol
DOCKED: USER
DOCKED: USER
DOCKED: REMARK SMILES O=C(C/N=C(\O)c1ccc2cc(F)ccc2n1)N1CCC[C@H]1C1CCCCC1
DOCKED: REMARK SMILES IDX 4 1 5 2 6 3 7 5 17 6 8 7 16 8 9 9 15 10 10 11 14 12 11 13
DOCKED: REMARK SMILES IDX 12 14 13 15 3 16 2 17 1 18 18 19 19 20 22 21 20 22 21 23
DOCKED: REMARK SMILES IDX 23 24 24 25 28 26 25 27 27 28 26 29
DOCKED: REMARK H PARENT 6 4
DOCKED: USER                              x       y       z     vdW  Elec       q    Type
DOCKED: USER                           _______ _______ _______ _____ _____    ______ ____
DOCKED: ROOT
DOCKED: ATOM      1  N   UNL     1     138.048  75.684 220.806 -0.05 +0.05    -0.240 NA 
DOCKED: ENDROOT
DOCKED: BRANCH   1   2
DOCKED: ATOM      2  C   UNL     1     137.894  76.131 222.019 -0.18 -0.05    +0.233 C  
DOCKED: BRANCH   2   3
DOCKED: ATOM      3  O   UNL     1     137.136  75.438 222.968 -0.08 +0.16    -0.492 OA 
DOCKED: ATOM      4  H   UNL     1     137.422  74.556 223.372 -0.35 -0.21    +0.295 HD 
DOCKED: ENDBRANCH   2   3
DOCKED: BRANCH   2   5
DOCKED: ATOM      5  C   UNL     1     138.548  77.397 222.401 -0.24 -0.02    +0.125 A  
DOCKED: ATOM      6  N   UNL     1     139.884  77.406 222.673 -0.21 +0.05    -0.243 NA 
DOCKED: ATOM      7  C   UNL     1     137.814  78.588 222.505 -0.21 -0.01    +0.035 A  
DOCKED: ATOM      8  C   UNL     1     140.538  78.538 223.044 -0.40 -0.02    +0.071 A  
DOCKED: ATOM      9  C   UNL     1     138.458  79.768 222.884 -0.28 -0.00    +0.013 A  
DOCKED: ATOM     10  C   UNL     1     141.911  78.500 223.314 -0.47 -0.01    +0.032 A  
DOCKED: ATOM     11  C   UNL     1     139.831  79.755 223.159 -0.40 -0.00    +0.003 A  
DOCKED: ATOM     12  C   UNL     1     142.581  79.667 223.697 -0.52 -0.01    +0.041 A  
DOCKED: ATOM     13  C   UNL     1     140.510  80.921 223.545 -0.40 -0.01    +0.049 A  
DOCKED: ATOM     14  C   UNL     1     141.882  80.874 223.812 -0.51 -0.02    +0.123 A  
DOCKED: ATOM     15  F   UNL     1     142.538  82.001 224.184 -0.18 +0.01    -0.207 F  
DOCKED: ENDBRANCH   2   5
DOCKED: ENDBRANCH   1   2
DOCKED: BRANCH   1  16
DOCKED: ATOM     16  C   UNL     1     138.903  74.572 220.393 -0.06 -0.05    +0.246 C  
DOCKED: BRANCH  16  17
DOCKED: ATOM     17  C   UNL     1     140.310  74.777 220.885 -0.17 -0.05    +0.244 C  
DOCKED: ATOM     18  O   UNL     1     140.556  74.603 222.108 -0.72 +0.00    -0.273 OA 
DOCKED: BRANCH  17  19
DOCKED: ATOM     19  N   UNL     1     141.370  75.195 220.005 -0.07 +0.11    -0.338 N  
DOCKED: ATOM     20  C   UNL     1     142.110  74.205 219.237 -0.12 -0.03    +0.120 C  
DOCKED: ATOM     21  C   UNL     1     142.072  76.480 220.075 -0.27 -0.05    +0.088 C  
DOCKED: ATOM     22  C   UNL     1     143.409  74.882 218.824 -0.26 -0.01    +0.024 C  
DOCKED: ATOM     23  C   UNL     1     143.519  76.111 219.718 -0.38 -0.02    +0.027 C  
DOCKED: BRANCH  21  24
DOCKED: ATOM     24  C   UNL     1     141.463  77.513 219.070 -0.21 -0.01    +0.012 C  
DOCKED: ATOM     25  C   UNL     1     140.692  78.661 219.783 -0.18 -0.00    +0.006 C  
DOCKED: ATOM     26  C   UNL     1     142.556  78.075 218.109 -0.32 -0.00    +0.006 C  
DOCKED: ATOM     27  C   UNL     1     141.606  79.850 220.099 -0.30 -0.00    +0.000 C  
DOCKED: ATOM     28  C   UNL     1     142.252  79.500 217.634 -0.29 -0.00    +0.000 C  
DOCKED: ATOM     29  C   UNL     1     142.177  80.484 218.816 -0.33 -0.00    +0.000 C  
DOCKED: ENDBRANCH  21  24
DOCKED: ENDBRANCH  17  19
DOCKED: ENDBRANCH  16  17
DOCKED: ENDBRANCH   1  16
DOCKED: TORSDOF 7
DOCKED: TER
DOCKED: ENDMDL
________________________________________________________________________________


    FINAL DOCKED STATE:
    ________________________


Run:   4 / 20
Time taken for this run:   0.036s

DOCKED: MODEL        4
DOCKED: USER    Run = 4
DOCKED: USER
DOCKED: USER    Estimated Free Energy of Binding    =  -5.57 kcal/mol  [=(1)+(2)+(3)-(4)]
DOCKED: USER
DOCKED: USER    (1) Final Intermolecular Energy     =  -7.66 kcal/mol
DOCKED: USER        vdW + Hbond + desolv Energy     =  -7.62 kcal/mol
DOCKED: USER        Electrostatic Energy            =  -0.03 kcal/mol
DOCKED: USER        Moving Ligand-Fixed Receptor    =  -7.66 kcal/mol
DOCKED: USER        Moving Ligand-Moving Receptor   =  +0.00 kcal/mol
DOCKED: USER    (2) Final Total Internal Energy     =  -2.90 kcal/mol
DOCKED: USER    (3) Torsional Free Energy           =  +2.09 kcal/mol
DOCKED: USER    (4) Unbound System's Energy         =  -2.90 kcal/mol
DOCKED: USER
DOCKED: USER
DOCKED: REMARK SMILES O=C(C/N=C(\O)c1ccc2cc(F)ccc2n1)N1CCC[C@H]1C1CCCCC1
DOCKED: REMARK SMILES IDX 4 1 5 2 6 3 7 5 17 6 8 7 16 8 9 9 15 10 10 11 14 12 11 13
DOCKED: REMARK SMILES IDX 12 14 13 15 3 16 2 17 1 18 18 19 19 20 22 21 20 22 21 23
DOCKED: REMARK SMILES IDX 23 24 24 25 28 26 25 27 27 28 26 29
DOCKED: REMARK H PARENT 6 4
DOCKED: USER                              x       y       z     vdW  Elec       q    Type
DOCKED: USER                           _______ _______ _______ _____ _____    ______ ____
DOCKED: ROOT
DOCKED: ATOM      1  N   UNL     1     140.457  78.955 218.505 -0.03 +0.10    -0.240 NA 
DOCKED: ENDROOT
DOCKED: BRANCH   1   2
DOCKED: ATOM      2  C   UNL     1     141.594  78.411 218.178 -0.14 -0.14    +0.233 C  
DOCKED: BRANCH   2   3
DOCKED: ATOM      3  O   UNL     1     142.457  79.009 217.254 -0.12 +0.50    -0.492 OA 
DOCKED: ATOM      4  H   UNL     1     143.198  79.646 217.516 -0.33 -0.45    +0.295 HD 
DOCKED: ENDBRANCH   2   3
DOCKED: BRANCH   2   5
DOCKED: ATOM      5  C   UNL     1     141.984  77.137 218.812 -0.20 -0.07    +0.125 A  
DOCKED: ATOM      6  N   UNL     1     141.018  76.244 219.170 -0.05 +0.09    -0.243 NA 
DOCKED: ATOM      7  C   UNL     1     143.330  76.838 219.068 -0.33 -0.03    +0.035 A  
DOCKED: ATOM      8  C   UNL     1     141.315  75.061 219.770 -0.15 -0.02    +0.071 A  
DOCKED: ATOM      9  C   UNL     1     143.667  75.631 219.684 -0.42 -0.01    +0.013 A  
DOCKED: ATOM     10  C   UNL     1     140.290  74.174 220.121 -0.12 -0.01    +0.032 A  
DOCKED: ATOM     11  C   UNL     1     142.660  74.727 220.043 -0.30 -0.00    +0.003 A  
DOCKED: ATOM     12  C   UNL     1     140.599  72.958 220.740 -0.17 -0.01    +0.041 A  
DOCKED: ATOM     13  C   UNL     1     142.961  73.506 220.665 -0.27 -0.01    +0.049 A  
DOCKED: ATOM     14  C   UNL     1     141.931  72.625 221.011 -0.20 -0.01    +0.123 A  
DOCKED: ATOM     15  F   UNL     1     142.223  71.445 221.612 +0.04 +0.01    -0.207 F  
DOCKED: ENDBRANCH   2   5
DOCKED: ENDBRANCH   1   2
DOCKED: BRANCH   1  16
DOCKED: ATOM     16  C   UNL     1     140.260  80.058 219.443 -0.07 -0.09    +0.246 C  
DOCKED: BRANCH  16  17
DOCKED: ATOM     17  C   UNL     1     141.550  80.396 220.138 -0.20 -0.10    +0.244 C  
DOCKED: ATOM     18  O   UNL     1     142.584  80.583 219.442 -0.17 +0.16    -0.273 OA 
DOCKED: BRANCH  17  19
DOCKED: ATOM     19  N   UNL     1     141.642  80.480 221.573 -0.18 +0.11    -0.338 N  
DOCKED: ATOM     20  C   UNL     1     141.427  81.756 222.241 -0.37 -0.02    +0.120 C  
DOCKED: ATOM     21  C   UNL     1     142.318  79.509 222.437 -0.50 -0.04    +0.088 C  
DOCKED: ATOM     22  C   UNL     1     142.057  81.616 223.620 -0.49 -0.00    +0.024 C  
DOCKED: ATOM     23  C   UNL     1     142.952  80.387 223.525 -0.65 -0.01    +0.027 C  
DOCKED: BRANCH  21  24
DOCKED: ATOM     24  C   UNL     1     141.303  78.476 223.030 -0.54 -0.00    +0.012 C  
DOCKED: ATOM     25  C   UNL     1     140.000  79.147 223.552 -0.40 -0.00    +0.006 C  
DOCKED: ATOM     26  C   UNL     1     140.988  77.345 222.003 -0.39 -0.00    +0.006 C  
DOCKED: ATOM     27  C   UNL     1     138.927  79.231 222.460 -0.28 -0.00    +0.000 C  
DOCKED: ATOM     28  C   UNL     1     139.582  76.759 222.179 -0.35 -0.00    +0.000 C  
DOCKED: ATOM     29  C   UNL     1     138.496  77.832 221.979 -0.23 -0.00    +0.000 C  
DOCKED: ENDBRANCH  21  24
DOCKED: ENDBRANCH  17  19
DOCKED: ENDBRANCH  16  17
DOCKED: ENDBRANCH   1  16
DOCKED: TORSDOF 7
DOCKED: TER
DOCKED: ENDMDL
________________________________________________________________________________


    FINAL DOCKED STATE:
    ________________________


Run:   5 / 20
Time taken for this run:   0.036s

DOCKED: MODEL        5
DOCKED: USER    Run = 5
DOCKED: USER
DOCKED: USER    Estimated Free Energy of Binding    =  -6.77 kcal/mol  [=(1)+(2)+(3)-(4)]
DOCKED: USER
DOCKED: USER    (1) Final Intermolecular Energy     =  -8.86 kcal/mol
DOCKED: USER        vdW + Hbond + desolv Energy     =  -8.56 kcal/mol
DOCKED: USER        Electrostatic Energy            =  -0.30 kcal/mol
DOCKED: USER        Moving Ligand-Fixed Receptor    =  -8.86 kcal/mol
DOCKED: USER        Moving Ligand-Moving Receptor   =  +0.00 kcal/mol
DOCKED: USER    (2) Final Total Internal Energy     =  -2.18 kcal/mol
DOCKED: USER    (3) Torsional Free Energy           =  +2.09 kcal/mol
DOCKED: USER    (4) Unbound System's Energy         =  -2.18 kcal/mol
DOCKED: USER
DOCKED: USER
DOCKED: REMARK SMILES O=C(C/N=C(\O)c1ccc2cc(F)ccc2n1)N1CCC[C@H]1C1CCCCC1
DOCKED: REMARK SMILES IDX 4 1 5 2 6 3 7 5 17 6 8 7 16 8 9 9 15 10 10 11 14 12 11 13
DOCKED: REMARK SMILES IDX 12 14 13 15 3 16 2 17 1 18 18 19 19 20 22 21 20 22 21 23
DOCKED: REMARK SMILES IDX 23 24 24 25 28 26 25 27 27 28 26 29
DOCKED: REMARK H PARENT 6 4
DOCKED: USER                              x       y       z     vdW  Elec       q    Type
DOCKED: USER                           _______ _______ _______ _____ _____    ______ ____
DOCKED: ROOT
DOCKED: ATOM      1  N   UNL     1     139.481  76.815 220.999 -0.08 +0.06    -0.240 NA 
DOCKED: ENDROOT
DOCKED: BRANCH   1   2
DOCKED: ATOM      2  C   UNL     1     139.912  75.671 221.450 -0.22 -0.05    +0.233 C  
DOCKED: BRANCH   2   3
DOCKED: ATOM      3  O   UNL     1     139.166  74.908 222.354 -0.47 +0.11    -0.492 OA 
DOCKED: ATOM      4  H   UNL     1     138.796  75.278 223.220 -0.41 -0.11    +0.295 HD 
DOCKED: ENDBRANCH   2   3
DOCKED: BRANCH   2   5
DOCKED: ATOM      5  C   UNL     1     141.216  75.166 220.981 -0.25 -0.04    +0.125 A  
DOCKED: ATOM      6  N   UNL     1     141.502  73.838 221.096 -0.20 +0.04    -0.243 NA 
DOCKED: ATOM      7  C   UNL     1     142.174  76.034 220.436 -0.25 -0.02    +0.035 A  
DOCKED: ATOM      8  C   UNL     1     142.692  73.318 220.696 -0.25 -0.01    +0.071 A  
DOCKED: ATOM      9  C   UNL     1     143.407  75.529 220.016 -0.36 -0.01    +0.013 A  
DOCKED: ATOM     10  C   UNL     1     142.942  71.948 220.834 -0.26 -0.00    +0.032 A  
DOCKED: ATOM     11  C   UNL     1     143.680  74.162 220.142 -0.38 -0.00    +0.003 A  
DOCKED: ATOM     12  C   UNL     1     144.169  71.416 220.423 -0.20 -0.00    +0.041 A  
DOCKED: ATOM     13  C   UNL     1     144.908  73.621 219.733 -0.40 -0.01    +0.049 A  
DOCKED: ATOM     14  C   UNL     1     145.149  72.250 219.874 -0.32 +0.01    +0.123 A  
DOCKED: ATOM     15  F   UNL     1     146.335  71.728 219.477 -0.01 -0.23    -0.207 F  
DOCKED: ENDBRANCH   2   5
DOCKED: ENDBRANCH   1   2
DOCKED: BRANCH   1  16
DOCKED: ATOM     16  C   UNL     1     138.118  77.332 221.109 -0.07 -0.05    +0.246 C  
DOCKED: BRANCH  16  17
DOCKED: ATOM     17  C   UNL     1     137.803  77.691 222.535 -0.16 -0.04    +0.244 C  
DOCKED: ATOM     18  O   UNL     1     137.288  76.816 223.282 -0.15 +0.05    -0.273 OA 
DOCKED: BRANCH  17  19
DOCKED: ATOM     19  N   UNL     1     138.043  79.011 223.059 -0.12 +0.05    -0.338 N  
DOCKED: ATOM     20  C   UNL     1     136.972  79.730 223.733 -0.12 -0.01    +0.120 C  
DOCKED: ATOM     21  C   UNL     1     139.136  79.898 222.653 -0.27 -0.02    +0.088 C  
DOCKED: ATOM     22  C   UNL     1     137.379  81.197 223.716 -0.28 -0.00    +0.024 C  
DOCKED: ATOM     23  C   UNL     1     138.489  81.290 222.676 -0.24 -0.00    +0.027 C  
DOCKED: BRANCH  21  24
DOCKED: ATOM     24  C   UNL     1     140.345  79.794 223.641 -0.47 -0.00    +0.012 C  
DOCKED: ATOM     25  C   UNL     1     141.305  78.620 223.295 -0.56 -0.00    +0.006 C  
DOCKED: ATOM     26  C   UNL     1     141.115  81.149 223.732 -0.43 -0.00    +0.006 C  
DOCKED: ATOM     27  C   UNL     1     142.419  79.059 222.336 -0.41 -0.00    +0.000 C  
DOCKED: ATOM     28  C   UNL     1     142.602  80.965 224.054 -0.62 -0.00    +0.000 C  
DOCKED: ATOM     29  C   UNL     1     143.317  80.141 222.967 -0.59 -0.00    +0.000 C  
DOCKED: ENDBRANCH  21  24
DOCKED: ENDBRANCH  17  19
DOCKED: ENDBRANCH  16  17
DOCKED: ENDBRANCH   1  16
DOCKED: TORSDOF 7
DOCKED: TER
DOCKED: ENDMDL
________________________________________________________________________________


    FINAL DOCKED STATE:
    ________________________


Run:   6 / 20
Time taken for this run:   0.036s

DOCKED: MODEL        6
DOCKED: USER    Run = 6
DOCKED: USER
DOCKED: USER    Estimated Free Energy of Binding    =  -7.94 kcal/mol  [=(1)+(2)+(3)-(4)]
DOCKED: USER
DOCKED: USER    (1) Final Intermolecular Energy     = -10.03 kcal/mol
DOCKED: USER        vdW + Hbond + desolv Energy     =  -9.94 kcal/mol
DOCKED: USER        Electrostatic Energy            =  -0.08 kcal/mol
DOCKED: USER        Moving Ligand-Fixed Receptor    = -10.03 kcal/mol
DOCKED: USER        Moving Ligand-Moving Receptor   =  +0.00 kcal/mol
DOCKED: USER    (2) Final Total Internal Energy     =  -1.11 kcal/mol
DOCKED: USER    (3) Torsional Free Energy           =  +2.09 kcal/mol
DOCKED: USER    (4) Unbound System's Energy         =  -1.11 kcal/mol
DOCKED: USER
DOCKED: USER
DOCKED: REMARK SMILES O=C(C/N=C(\O)c1ccc2cc(F)ccc2n1)N1CCC[C@H]1C1CCCCC1
DOCKED: REMARK SMILES IDX 4 1 5 2 6 3 7 5 17 6 8 7 16 8 9 9 15 10 10 11 14 12 11 13
DOCKED: REMARK SMILES IDX 12 14 13 15 3 16 2 17 1 18 18 19 19 20 22 21 20 22 21 23
DOCKED: REMARK SMILES IDX 23 24 24 25 28 26 25 27 27 28 26 29
DOCKED: REMARK H PARENT 6 4
DOCKED: USER                              x       y       z     vdW  Elec       q    Type
DOCKED: USER                           _______ _______ _______ _____ _____    ______ ____
DOCKED: ROOT
DOCKED: ATOM      1  N   UNL     1     140.217  73.631 222.105 -0.73 +0.01    -0.240 NA 
DOCKED: ENDROOT
DOCKED: BRANCH   1   2
DOCKED: ATOM      2  C   UNL     1     140.534  72.368 222.079 -0.21 -0.02    +0.233 C  
DOCKED: BRANCH   2   3
DOCKED: ATOM      3  O   UNL     1     141.157  71.789 220.968 -0.05 +0.06    -0.492 OA 
DOCKED: ATOM      4  H   UNL     1     140.739  71.763 220.047 +0.06 -0.05    +0.295 HD 
DOCKED: ENDBRANCH   2   3
DOCKED: BRANCH   2   5
DOCKED: ATOM      5  C   UNL     1     140.236  71.533 223.257 -0.31 -0.02    +0.125 A  
DOCKED: ATOM      6  N   UNL     1     140.717  71.900 224.479 -0.23 +0.03    -0.243 NA 
DOCKED: ATOM      7  C   UNL     1     139.480  70.357 223.138 -0.25 -0.01    +0.035 A  
DOCKED: ATOM      8  C   UNL     1     140.488  71.164 225.597 -0.52 -0.01    +0.071 A  
DOCKED: ATOM      9  C   UNL     1     139.228  69.579 224.270 -0.33 -0.00    +0.013 A  
DOCKED: ATOM     10  C   UNL     1     141.003  71.580 226.831 -0.72 -0.01    +0.032 A  
DOCKED: ATOM     11  C   UNL     1     139.731  69.975 225.515 -0.45 -0.00    +0.003 A  
DOCKED: ATOM     12  C   UNL     1     140.767  70.818 227.980 -0.67 -0.01    +0.041 A  
DOCKED: ATOM     13  C   UNL     1     139.499  69.215 226.672 -0.49 -0.01    +0.049 A  
DOCKED: ATOM     14  C   UNL     1     140.017  69.639 227.901 -0.52 -0.02    +0.123 A  
DOCKED: ATOM     15  F   UNL     1     139.792  68.906 229.019 -0.14 +0.03    -0.207 F  
DOCKED: ENDBRANCH   2   5
DOCKED: ENDBRANCH   1   2
DOCKED: BRANCH   1  16
DOCKED: ATOM     16  C   UNL     1     138.875  74.192 221.965 -0.13 -0.06    +0.246 C  
DOCKED: BRANCH  16  17
DOCKED: ATOM     17  C   UNL     1     138.920  75.694 222.033 -0.21 -0.05    +0.244 C  
DOCKED: ATOM     18  O   UNL     1     138.162  76.288 222.845 -0.25 +0.06    -0.273 OA 
DOCKED: BRANCH  17  19
DOCKED: ATOM     19  N   UNL     1     139.780  76.469 221.176 -0.09 +0.09    -0.338 N  
DOCKED: ATOM     20  C   UNL     1     139.725  76.283 219.733 -0.07 -0.03    +0.120 C  
DOCKED: ATOM     21  C   UNL     1     141.002  77.157 221.600 -0.32 -0.04    +0.088 C  
DOCKED: ATOM     22  C   UNL     1     141.031  76.847 219.190 -0.15 -0.01    +0.024 C  
DOCKED: ATOM     23  C   UNL     1     141.945  76.973 220.403 -0.25 -0.02    +0.027 C  
DOCKED: BRANCH  21  24
DOCKED: ATOM     24  C   UNL     1     140.725  78.667 221.904 -0.35 -0.00    +0.012 C  
DOCKED: ATOM     25  C   UNL     1     140.534  78.949 223.422 -0.46 -0.00    +0.006 C  
DOCKED: ATOM     26  C   UNL     1     141.835  79.577 221.292 -0.39 -0.00    +0.006 C  
DOCKED: ATOM     27  C   UNL     1     141.862  79.289 224.108 -0.53 -0.00    +0.000 C  
DOCKED: ATOM     28  C   UNL     1     142.047  80.870 222.088 -0.51 -0.00    +0.000 C  
DOCKED: ATOM     29  C   UNL     1     142.484  80.577 223.534 -0.68 -0.00    +0.000 C  
DOCKED: ENDBRANCH  21  24
DOCKED: ENDBRANCH  17  19
DOCKED: ENDBRANCH  16  17
DOCKED: ENDBRANCH   1  16
DOCKED: TORSDOF 7
DOCKED: TER
DOCKED: ENDMDL
________________________________________________________________________________


    FINAL DOCKED STATE:
    ________________________


Run:   7 / 20
Time taken for this run:   0.036s

DOCKED: MODEL        7
DOCKED: USER    Run = 7
DOCKED: USER
DOCKED: USER    Estimated Free Energy of Binding    =  -8.09 kcal/mol  [=(1)+(2)+(3)-(4)]
DOCKED: USER
DOCKED: USER    (1) Final Intermolecular Energy     = -10.18 kcal/mol
DOCKED: USER        vdW + Hbond + desolv Energy     = -10.12 kcal/mol
DOCKED: USER        Electrostatic Energy            =  -0.06 kcal/mol
DOCKED: USER        Moving Ligand-Fixed Receptor    = -10.18 kcal/mol
DOCKED: USER        Moving Ligand-Moving Receptor   =  +0.00 kcal/mol
DOCKED: USER    (2) Final Total Internal Energy     =  -1.68 kcal/mol
DOCKED: USER    (3) Torsional Free Energy           =  +2.09 kcal/mol
DOCKED: USER    (4) Unbound System's Energy         =  -1.68 kcal/mol
DOCKED: USER
DOCKED: USER
DOCKED: REMARK SMILES O=C(C/N=C(\O)c1ccc2cc(F)ccc2n1)N1CCC[C@H]1C1CCCCC1
DOCKED: REMARK SMILES IDX 4 1 5 2 6 3 7 5 17 6 8 7 16 8 9 9 15 10 10 11 14 12 11 13
DOCKED: REMARK SMILES IDX 12 14 13 15 3 16 2 17 1 18 18 19 19 20 22 21 20 22 21 23
DOCKED: REMARK SMILES IDX 23 24 24 25 28 26 25 27 27 28 26 29
DOCKED: REMARK H PARENT 6 4
DOCKED: USER                              x       y       z     vdW  Elec       q    Type
DOCKED: USER                           _______ _______ _______ _____ _____    ______ ____
DOCKED: ROOT
DOCKED: ATOM      1  N   UNL     1     140.413  72.663 221.549 -0.19 +0.03    -0.240 NA 
DOCKED: ENDROOT
DOCKED: BRANCH   1   2
DOCKED: ATOM      2  C   UNL     1     139.436  72.435 222.380 -0.18 -0.05    +0.233 C  
DOCKED: BRANCH   2   3
DOCKED: ATOM      3  O   UNL     1     138.198  73.074 222.254 -0.06 +0.16    -0.492 OA 
DOCKED: ATOM      4  H   UNL     1     137.944  73.901 222.778 -0.48 -0.16    +0.295 HD 
DOCKED: ENDBRANCH   2   3
DOCKED: BRANCH   2   5
DOCKED: ATOM      5  C   UNL     1     139.642  71.468 223.474 -0.31 -0.03    +0.125 A  
DOCKED: ATOM      6  N   UNL     1     140.148  71.899 224.665 -0.20 +0.05    -0.243 NA 
DOCKED: ATOM      7  C   UNL     1     139.344  70.107 223.303 -0.25 -0.01    +0.035 A  
DOCKED: ATOM      8  C   UNL     1     140.374  71.053 225.704 -0.52 -0.01    +0.071 A  
DOCKED: ATOM      9  C   UNL     1     139.565  69.213 224.353 -0.30 -0.00    +0.013 A  
DOCKED: ATOM     10  C   UNL     1     140.895  71.541 226.908 -0.71 -0.01    +0.032 A  
DOCKED: ATOM     11  C   UNL     1     140.084  69.677 225.567 -0.46 -0.00    +0.003 A  
DOCKED: ATOM     12  C   UNL     1     141.127  70.666 227.974 -0.60 -0.01    +0.041 A  
DOCKED: ATOM     13  C   UNL     1     140.321  68.806 226.642 -0.55 -0.01    +0.049 A  
DOCKED: ATOM     14  C   UNL     1     140.842  69.303 227.842 -0.51 -0.03    +0.123 A  
DOCKED: ATOM     15  F   UNL     1     141.070  68.461 228.880 -0.17 +0.05    -0.207 F  
DOCKED: ENDBRANCH   2   5
DOCKED: ENDBRANCH   1   2
DOCKED: BRANCH   1  16
DOCKED: ATOM     16  C   UNL     1     141.303  73.822 221.554 -0.10 -0.02    +0.246 C  
DOCKED: BRANCH  16  17
DOCKED: ATOM     17  C   UNL     1     140.508  75.098 221.601 -0.24 -0.04    +0.244 C  
DOCKED: ATOM     18  O   UNL     1     139.616  75.226 222.481 -0.59 +0.03    -0.273 OA 
DOCKED: BRANCH  17  19
DOCKED: ATOM     19  N   UNL     1     140.716  76.160 220.650 -0.09 +0.11    -0.338 N  
DOCKED: ATOM     20  C   UNL     1     140.250  76.009 219.279 -0.07 -0.04    +0.120 C  
DOCKED: ATOM     21  C   UNL     1     141.699  77.238 220.785 -0.21 -0.05    +0.088 C  
DOCKED: ATOM     22  C   UNL     1     141.027  77.029 218.459 -0.11 -0.01    +0.024 C  
DOCKED: ATOM     23  C   UNL     1     142.193  77.448 219.347 -0.30 -0.02    +0.027 C  
DOCKED: BRANCH  21  24
DOCKED: ATOM     24  C   UNL     1     141.045  78.530 221.378 -0.33 -0.01    +0.012 C  
DOCKED: ATOM     25  C   UNL     1     140.681  78.382 222.884 -0.45 -0.00    +0.006 C  
DOCKED: ATOM     26  C   UNL     1     141.945  79.780 221.132 -0.34 -0.00    +0.006 C  
DOCKED: ATOM     27  C   UNL     1     141.834  78.822 223.793 -0.61 -0.00    +0.000 C  
DOCKED: ATOM     28  C   UNL     1     141.780  80.852 222.215 -0.51 -0.00    +0.000 C  
DOCKED: ATOM     29  C   UNL     1     142.168  80.314 223.605 -0.66 -0.00    +0.000 C  
DOCKED: ENDBRANCH  21  24
DOCKED: ENDBRANCH  17  19
DOCKED: ENDBRANCH  16  17
DOCKED: ENDBRANCH   1  16
DOCKED: TORSDOF 7
DOCKED: TER
DOCKED: ENDMDL
________________________________________________________________________________


    FINAL DOCKED STATE:
    ________________________


Run:   8 / 20
Time taken for this run:   0.036s

DOCKED: MODEL        8
DOCKED: USER    Run = 8
DOCKED: USER
DOCKED: USER    Estimated Free Energy of Binding    =  -8.20 kcal/mol  [=(1)+(2)+(3)-(4)]
DOCKED: USER
DOCKED: USER    (1) Final Intermolecular Energy     = -10.29 kcal/mol
DOCKED: USER        vdW + Hbond + desolv Energy     = -10.20 kcal/mol
DOCKED: USER        Electrostatic Energy            =  -0.09 kcal/mol
DOCKED: USER        Moving Ligand-Fixed Receptor    = -10.29 kcal/mol
DOCKED: USER        Moving Ligand-Moving Receptor   =  +0.00 kcal/mol
DOCKED: USER    (2) Final Total Internal Energy     =  -1.59 kcal/mol
DOCKED: USER    (3) Torsional Free Energy           =  +2.09 kcal/mol
DOCKED: USER    (4) Unbound System's Energy         =  -1.59 kcal/mol
DOCKED: USER
DOCKED: USER
DOCKED: REMARK SMILES O=C(C/N=C(\O)c1ccc2cc(F)ccc2n1)N1CCC[C@H]1C1CCCCC1
DOCKED: REMARK SMILES IDX 4 1 5 2 6 3 7 5 17 6 8 7 16 8 9 9 15 10 10 11 14 12 11 13
DOCKED: REMARK SMILES IDX 12 14 13 15 3 16 2 17 1 18 18 19 19 20 22 21 20 22 21 23
DOCKED: REMARK SMILES IDX 23 24 24 25 28 26 25 27 27 28 26 29
DOCKED: REMARK H PARENT 6 4
DOCKED: USER                              x       y       z     vdW  Elec       q    Type
DOCKED: USER                           _______ _______ _______ _____ _____    ______ ____
DOCKED: ROOT
DOCKED: ATOM      1  N   UNL     1     140.365  72.312 221.406 -0.14 +0.03    -0.240 NA 
DOCKED: ENDROOT
DOCKED: BRANCH   1   2
DOCKED: ATOM      2  C   UNL     1     139.430  72.255 222.311 -0.19 -0.05    +0.233 C  
DOCKED: BRANCH   2   3
DOCKED: ATOM      3  O   UNL     1     138.270  73.031 222.219 -0.07 +0.16    -0.492 OA 
DOCKED: ATOM      4  H   UNL     1     138.103  73.850 222.790 -0.49 -0.17    +0.295 HD 
DOCKED: ENDBRANCH   2   3
DOCKED: BRANCH   2   5
DOCKED: ATOM      5  C   UNL     1     139.597  71.337 223.453 -0.30 -0.03    +0.125 A  
DOCKED: ATOM      6  N   UNL     1     140.134  71.804 224.616 -0.24 +0.05    -0.243 NA 
DOCKED: ATOM      7  C   UNL     1     139.230  69.986 223.355 -0.25 -0.01    +0.035 A  
DOCKED: ATOM      8  C   UNL     1     140.326  71.003 225.696 -0.52 -0.01    +0.071 A  
DOCKED: ATOM      9  C   UNL     1     139.416  69.138 224.449 -0.32 -0.00    +0.013 A  
DOCKED: ATOM     10  C   UNL     1     140.881  71.526 226.870 -0.71 -0.01    +0.032 A  
DOCKED: ATOM     11  C   UNL     1     139.968  69.638 225.634 -0.46 -0.00    +0.003 A  
DOCKED: ATOM     12  C   UNL     1     141.079  70.698 227.980 -0.63 -0.01    +0.041 A  
DOCKED: ATOM     13  C   UNL     1     140.171  68.813 226.751 -0.56 -0.01    +0.049 A  
DOCKED: ATOM     14  C   UNL     1     140.725  69.345 227.920 -0.52 -0.02    +0.123 A  
DOCKED: ATOM     15  F   UNL     1     140.920  68.548 229.000 -0.16 +0.05    -0.207 F  
DOCKED: ENDBRANCH   2   5
DOCKED: ENDBRANCH   1   2
DOCKED: BRANCH   1  16
DOCKED: ATOM     16  C   UNL     1     141.356  73.376 221.249 -0.17 -0.03    +0.246 C  
DOCKED: BRANCH  16  17
DOCKED: ATOM     17  C   UNL     1     140.708  74.726 221.394 -0.22 -0.04    +0.244 C  
DOCKED: ATOM     18  O   UNL     1     139.921  74.921 222.358 -0.70 +0.02    -0.273 OA 
DOCKED: BRANCH  17  19
DOCKED: ATOM     19  N   UNL     1     140.937  75.786 220.447 -0.08 +0.11    -0.338 N  
DOCKED: ATOM     20  C   UNL     1     140.615  75.587 219.042 -0.07 -0.04    +0.120 C  
DOCKED: ATOM     21  C   UNL     1     141.832  76.928 220.653 -0.17 -0.05    +0.088 C  
DOCKED: ATOM     22  C   UNL     1     141.399  76.645 218.279 -0.12 -0.01    +0.024 C  
DOCKED: ATOM     23  C   UNL     1     142.445  77.151 219.264 -0.32 -0.02    +0.027 C  
DOCKED: BRANCH  21  24
DOCKED: ATOM     24  C   UNL     1     141.042  78.182 221.157 -0.32 -0.01    +0.012 C  
DOCKED: ATOM     25  C   UNL     1     140.694  78.104 222.671 -0.45 -0.00    +0.006 C  
DOCKED: ATOM     26  C   UNL     1     141.804  79.500 220.817 -0.33 -0.00    +0.006 C  
DOCKED: ATOM     27  C   UNL     1     141.792  78.728 223.540 -0.61 -0.00    +0.000 C  
DOCKED: ATOM     28  C   UNL     1     141.524  80.623 221.822 -0.45 -0.00    +0.000 C  
DOCKED: ATOM     29  C   UNL     1     141.965  80.230 223.244 -0.63 -0.00    +0.000 C  
DOCKED: ENDBRANCH  21  24
DOCKED: ENDBRANCH  17  19
DOCKED: ENDBRANCH  16  17
DOCKED: ENDBRANCH   1  16
DOCKED: TORSDOF 7
DOCKED: TER
DOCKED: ENDMDL
________________________________________________________________________________


    FINAL DOCKED STATE:
    ________________________


Run:   9 / 20
Time taken for this run:   0.036s

DOCKED: MODEL        9
DOCKED: USER    Run = 9
DOCKED: USER
DOCKED: USER    Estimated Free Energy of Binding    =  -8.13 kcal/mol  [=(1)+(2)+(3)-(4)]
DOCKED: USER
DOCKED: USER    (1) Final Intermolecular Energy     = -10.22 kcal/mol
DOCKED: USER        vdW + Hbond + desolv Energy     = -10.17 kcal/mol
DOCKED: USER        Electrostatic Energy            =  -0.06 kcal/mol
DOCKED: USER        Moving Ligand-Fixed Receptor    = -10.22 kcal/mol
DOCKED: USER        Moving Ligand-Moving Receptor   =  +0.00 kcal/mol
DOCKED: USER    (2) Final Total Internal Energy     =  -1.66 kcal/mol
DOCKED: USER    (3) Torsional Free Energy           =  +2.09 kcal/mol
DOCKED: USER    (4) Unbound System's Energy         =  -1.66 kcal/mol
DOCKED: USER
DOCKED: USER
DOCKED: REMARK SMILES O=C(C/N=C(\O)c1ccc2cc(F)ccc2n1)N1CCC[C@H]1C1CCCCC1
DOCKED: REMARK SMILES IDX 4 1 5 2 6 3 7 5 17 6 8 7 16 8 9 9 15 10 10 11 14 12 11 13
DOCKED: REMARK SMILES IDX 12 14 13 15 3 16 2 17 1 18 18 19 19 20 22 21 20 22 21 23
DOCKED: REMARK SMILES IDX 23 24 24 25 28 26 25 27 27 28 26 29
DOCKED: REMARK H PARENT 6 4
DOCKED: USER                              x       y       z     vdW  Elec       q    Type
DOCKED: USER                           _______ _______ _______ _____ _____    ______ ____
DOCKED: ROOT
DOCKED: ATOM      1  N   UNL     1     140.375  72.590 221.603 -0.19 +0.03    -0.240 NA 
DOCKED: ENDROOT
DOCKED: BRANCH   1   2
DOCKED: ATOM      2  C   UNL     1     139.394  72.385 222.436 -0.17 -0.05    +0.233 C  
DOCKED: BRANCH   2   3
DOCKED: ATOM      3  O   UNL     1     138.164  73.036 222.298 -0.06 +0.17    -0.492 OA 
DOCKED: ATOM      4  H   UNL     1     137.918  73.873 222.810 -0.47 -0.17    +0.295 HD 
DOCKED: ENDBRANCH   2   3
DOCKED: BRANCH   2   5
DOCKED: ATOM      5  C   UNL     1     139.588  71.433 223.545 -0.31 -0.03    +0.125 A  
DOCKED: ATOM      6  N   UNL     1     140.100  71.876 224.729 -0.20 +0.05    -0.243 NA 
DOCKED: ATOM      7  C   UNL     1     139.271  70.074 223.396 -0.25 -0.01    +0.035 A  
DOCKED: ATOM      8  C   UNL     1     140.315  71.043 225.781 -0.52 -0.01    +0.071 A  
DOCKED: ATOM      9  C   UNL     1     139.481  69.194 224.460 -0.32 -0.00    +0.013 A  
DOCKED: ATOM     10  C   UNL     1     140.843  71.543 226.977 -0.72 -0.01    +0.032 A  
DOCKED: ATOM     11  C   UNL     1     140.007  69.670 225.666 -0.46 -0.00    +0.003 A  
DOCKED: ATOM     12  C   UNL     1     141.065  70.683 228.057 -0.62 -0.01    +0.041 A  
DOCKED: ATOM     13  C   UNL     1     140.233  68.813 226.755 -0.56 -0.01    +0.049 A  
DOCKED: ATOM     14  C   UNL     1     140.761  69.322 227.946 -0.52 -0.02    +0.123 A  
DOCKED: ATOM     15  F   UNL     1     140.978  68.493 228.997 -0.16 +0.05    -0.207 F  
DOCKED: ENDBRANCH   2   5
DOCKED: ENDBRANCH   1   2
DOCKED: BRANCH   1  16
DOCKED: ATOM     16  C   UNL     1     141.275  73.740 221.589 -0.11 -0.02    +0.246 C  
DOCKED: BRANCH  16  17
DOCKED: ATOM     17  C   UNL     1     140.492  75.024 221.616 -0.23 -0.04    +0.244 C  
DOCKED: ATOM     18  O   UNL     1     139.591  75.167 222.485 -0.60 +0.03    -0.273 OA 
DOCKED: BRANCH  17  19
DOCKED: ATOM     19  N   UNL     1     140.721  76.076 220.659 -0.09 +0.11    -0.338 N  
DOCKED: ATOM     20  C   UNL     1     140.305  75.902 219.275 -0.07 -0.04    +0.120 C  
DOCKED: ATOM     21  C   UNL     1     141.686  77.168 220.814 -0.20 -0.05    +0.088 C  
DOCKED: ATOM     22  C   UNL     1     141.098  76.921 218.470 -0.12 -0.01    +0.024 C  
DOCKED: ATOM     23  C   UNL     1     142.227  77.366 219.392 -0.30 -0.02    +0.027 C  
DOCKED: BRANCH  21  24
DOCKED: ATOM     24  C   UNL     1     140.996  78.459 221.368 -0.33 -0.00    +0.012 C  
DOCKED: ATOM     25  C   UNL     1     140.682  78.367 222.888 -0.45 -0.00    +0.006 C  
DOCKED: ATOM     26  C   UNL     1     141.837  79.731 221.037 -0.37 -0.00    +0.006 C  
DOCKED: ATOM     27  C   UNL     1     141.841  78.895 223.742 -0.62 -0.00    +0.000 C  
DOCKED: ATOM     28  C   UNL     1     141.659  80.845 222.075 -0.48 -0.00    +0.000 C  
DOCKED: ATOM     29  C   UNL     1     142.108  80.389 223.475 -0.66 -0.00    +0.000 C  
DOCKED: ENDBRANCH  21  24
DOCKED: ENDBRANCH  17  19
DOCKED: ENDBRANCH  16  17
DOCKED: ENDBRANCH   1  16
DOCKED: TORSDOF 7
DOCKED: TER
DOCKED: ENDMDL
________________________________________________________________________________


    FINAL DOCKED STATE:
    ________________________


Run:   10 / 20
Time taken for this run:   0.036s

DOCKED: MODEL        10
DOCKED: USER    Run = 10
DOCKED: USER
DOCKED: USER    Estimated Free Energy of Binding    =  -7.77 kcal/mol  [=(1)+(2)+(3)-(4)]
DOCKED: USER
DOCKED: USER    (1) Final Intermolecular Energy     =  -9.86 kcal/mol
DOCKED: USER        vdW + Hbond + desolv Energy     =  -9.73 kcal/mol
DOCKED: USER        Electrostatic Energy            =  -0.13 kcal/mol
DOCKED: USER        Moving Ligand-Fixed Receptor    =  -9.86 kcal/mol
DOCKED: USER        Moving Ligand-Moving Receptor   =  +0.00 kcal/mol
DOCKED: USER    (2) Final Total Internal Energy     =  -1.53 kcal/mol
DOCKED: USER    (3) Torsional Free Energy           =  +2.09 kcal/mol
DOCKED: USER    (4) Unbound System's Energy         =  -1.53 kcal/mol
DOCKED: USER
DOCKED: USER
DOCKED: REMARK SMILES O=C(C/N=C(\O)c1ccc2cc(F)ccc2n1)N1CCC[C@H]1C1CCCCC1
DOCKED: REMARK SMILES IDX 4 1 5 2 6 3 7 5 17 6 8 7 16 8 9 9 15 10 10 11 14 12 11 13
DOCKED: REMARK SMILES IDX 12 14 13 15 3 16 2 17 1 18 18 19 19 20 22 21 20 22 21 23
DOCKED: REMARK SMILES IDX 23 24 24 25 28 26 25 27 27 28 26 29
DOCKED: REMARK H PARENT 6 4
DOCKED: USER                              x       y       z     vdW  Elec       q    Type
DOCKED: USER                           _______ _______ _______ _____ _____    ______ ____
DOCKED: ROOT
DOCKED: ATOM      1  N   UNL     1     138.740  73.592 220.568 -0.05 +0.05    -0.240 NA 
DOCKED: ENDROOT
DOCKED: BRANCH   1   2
DOCKED: ATOM      2  C   UNL     1     138.509  74.502 221.472 -0.14 -0.06    +0.233 C  
DOCKED: BRANCH   2   3
DOCKED: ATOM      3  O   UNL     1     137.416  74.416 222.339 -0.06 +0.17    -0.492 OA 
DOCKED: ATOM      4  H   UNL     1     137.393  74.857 223.250 -0.34 -0.17    +0.295 HD 
DOCKED: ENDBRANCH   2   3
DOCKED: BRANCH   2   5
DOCKED: ATOM      5  C   UNL     1     139.435  75.644 221.585 -0.24 -0.03    +0.125 A  
DOCKED: ATOM      6  N   UNL     1     139.134  76.671 222.430 -0.21 +0.05    -0.243 NA 
DOCKED: ATOM      7  C   UNL     1     140.613  75.700 220.824 -0.25 -0.01    +0.035 A  
DOCKED: ATOM      8  C   UNL     1     139.940  77.756 222.566 -0.32 -0.02    +0.071 A  
DOCKED: ATOM      9  C   UNL     1     141.462  76.803 220.942 -0.29 -0.01    +0.013 A  
DOCKED: ATOM     10  C   UNL     1     139.590  78.787 223.445 -0.29 -0.00    +0.032 A  
DOCKED: ATOM     11  C   UNL     1     141.133  77.845 221.816 -0.38 -0.00    +0.003 A  
DOCKED: ATOM     12  C   UNL     1     140.421  79.903 223.581 -0.45 -0.01    +0.041 A  
DOCKED: ATOM     13  C   UNL     1     141.962  78.969 221.957 -0.42 -0.03    +0.049 A  
DOCKED: ATOM     14  C   UNL     1     141.604  79.994 222.839 -0.45 -0.03    +0.123 A  
DOCKED: ATOM     15  F   UNL     1     142.405  81.079 222.975 -0.17 +0.04    -0.207 F  
DOCKED: ENDBRANCH   2   5
DOCKED: ENDBRANCH   1   2
DOCKED: BRANCH   1  16
DOCKED: ATOM     16  C   UNL     1     139.569  72.399 220.730 -0.07 -0.04    +0.246 C  
DOCKED: BRANCH  16  17
DOCKED: ATOM     17  C   UNL     1     139.949  72.213 222.174 -0.21 -0.04    +0.244 C  
DOCKED: ATOM     18  O   UNL     1     140.709  73.059 222.716 -0.61 -0.02    -0.273 OA 
DOCKED: BRANCH  17  19
DOCKED: ATOM     19  N   UNL     1     139.495  71.080 222.940 -0.13 +0.06    -0.338 N  
DOCKED: ATOM     20  C   UNL     1     138.814  69.980 222.275 -0.14 -0.02    +0.120 C  
DOCKED: ATOM     21  C   UNL     1     139.282  71.068 224.390 -0.34 -0.02    +0.088 C  
DOCKED: ATOM     22  C   UNL     1     138.064  69.231 223.368 -0.25 -0.00    +0.024 C  
DOCKED: ATOM     23  C   UNL     1     138.039  70.184 224.557 -0.28 -0.00    +0.027 C  
DOCKED: BRANCH  21  24
DOCKED: ATOM     24  C   UNL     1     140.526  70.485 225.139 -0.50 -0.00    +0.012 C  
DOCKED: ATOM     25  C   UNL     1     141.199  71.522 226.084 -0.66 -0.00    +0.006 C  
DOCKED: ATOM     26  C   UNL     1     140.158  69.175 225.904 -0.51 -0.00    +0.006 C  
DOCKED: ATOM     27  C   UNL     1     140.607  71.471 227.498 -0.77 -0.00    +0.000 C  
DOCKED: ATOM     28  C   UNL     1     141.020  68.956 227.152 -0.61 -0.00    +0.000 C  
DOCKED: ATOM     29  C   UNL     1     140.848  70.103 228.165 -0.59 -0.00    +0.000 C  
DOCKED: ENDBRANCH  21  24
DOCKED: ENDBRANCH  17  19
DOCKED: ENDBRANCH  16  17
DOCKED: ENDBRANCH   1  16
DOCKED: TORSDOF 7
DOCKED: TER
DOCKED: ENDMDL
________________________________________________________________________________


    FINAL DOCKED STATE:
    ________________________


Run:   11 / 20
Time taken for this run:   0.036s

DOCKED: MODEL        11
DOCKED: USER    Run = 11
DOCKED: USER
DOCKED: USER    Estimated Free Energy of Binding    =  -7.79 kcal/mol  [=(1)+(2)+(3)-(4)]
DOCKED: USER
DOCKED: USER    (1) Final Intermolecular Energy     =  -9.88 kcal/mol
DOCKED: USER        vdW + Hbond + desolv Energy     =  -9.76 kcal/mol
DOCKED: USER        Electrostatic Energy            =  -0.12 kcal/mol
DOCKED: USER        Moving Ligand-Fixed Receptor    =  -9.88 kcal/mol
DOCKED: USER        Moving Ligand-Moving Receptor   =  +0.00 kcal/mol
DOCKED: USER    (2) Final Total Internal Energy     =  -1.52 kcal/mol
DOCKED: USER    (3) Torsional Free Energy           =  +2.09 kcal/mol
DOCKED: USER    (4) Unbound System's Energy         =  -1.52 kcal/mol
DOCKED: USER
DOCKED: USER
DOCKED: REMARK SMILES O=C(C/N=C(\O)c1ccc2cc(F)ccc2n1)N1CCC[C@H]1C1CCCCC1
DOCKED: REMARK SMILES IDX 4 1 5 2 6 3 7 5 17 6 8 7 16 8 9 9 15 10 10 11 14 12 11 13
DOCKED: REMARK SMILES IDX 12 14 13 15 3 16 2 17 1 18 18 19 19 20 22 21 20 22 21 23
DOCKED: REMARK SMILES IDX 23 24 24 25 28 26 25 27 27 28 26 29
DOCKED: REMARK H PARENT 6 4
DOCKED: USER                              x       y       z     vdW  Elec       q    Type
DOCKED: USER                           _______ _______ _______ _____ _____    ______ ____
DOCKED: ROOT
DOCKED: ATOM      1  N   UNL     1     138.825  73.686 220.563 -0.05 +0.05    -0.240 NA 
DOCKED: ENDROOT
DOCKED: BRANCH   1   2
DOCKED: ATOM      2  C   UNL     1     138.553  74.553 221.497 -0.15 -0.06    +0.233 C  
DOCKED: BRANCH   2   3
DOCKED: ATOM      3  O   UNL     1     137.457  74.394 222.352 -0.06 +0.17    -0.492 OA 
DOCKED: ATOM      4  H   UNL     1     137.371  74.871 223.239 -0.33 -0.16    +0.295 HD 
DOCKED: ENDBRANCH   2   3
DOCKED: BRANCH   2   5
DOCKED: ATOM      5  C   UNL     1     139.432  75.726 221.659 -0.25 -0.03    +0.125 A  
DOCKED: ATOM      6  N   UNL     1     139.037  76.755 222.461 -0.21 +0.05    -0.243 NA 
DOCKED: ATOM      7  C   UNL     1     140.660  75.808 220.985 -0.27 -0.01    +0.035 A  
DOCKED: ATOM      8  C   UNL     1     139.798  77.867 222.638 -0.31 -0.02    +0.071 A  
DOCKED: ATOM      9  C   UNL     1     141.464  76.939 221.146 -0.27 -0.01    +0.013 A  
DOCKED: ATOM     10  C   UNL     1     139.352  78.899 223.472 -0.32 -0.00    +0.032 A  
DOCKED: ATOM     11  C   UNL     1     141.040  77.983 221.976 -0.40 -0.00    +0.003 A  
DOCKED: ATOM     12  C   UNL     1     140.137  80.043 223.650 -0.42 -0.01    +0.041 A  
DOCKED: ATOM     13  C   UNL     1     141.821  79.135 222.159 -0.46 -0.02    +0.049 A  
DOCKED: ATOM     14  C   UNL     1     141.368  80.161 222.995 -0.43 -0.03    +0.123 A  
DOCKED: ATOM     15  F   UNL     1     142.123  81.273 223.172 -0.17 +0.04    -0.207 F  
DOCKED: ENDBRANCH   2   5
DOCKED: ENDBRANCH   1   2
DOCKED: BRANCH   1  16
DOCKED: ATOM     16  C   UNL     1     139.519  72.412 220.739 -0.07 -0.04    +0.246 C  
DOCKED: BRANCH  16  17
DOCKED: ATOM     17  C   UNL     1     139.918  72.222 222.177 -0.21 -0.04    +0.244 C  
DOCKED: ATOM     18  O   UNL     1     140.693  73.062 222.708 -0.61 -0.02    -0.273 OA 
DOCKED: BRANCH  17  19
DOCKED: ATOM     19  N   UNL     1     139.466  71.094 222.950 -0.13 +0.06    -0.338 N  
DOCKED: ATOM     20  C   UNL     1     138.787  69.988 222.291 -0.14 -0.02    +0.120 C  
DOCKED: ATOM     21  C   UNL     1     139.253  71.090 224.400 -0.34 -0.02    +0.088 C  
DOCKED: ATOM     22  C   UNL     1     138.038  69.245 223.389 -0.25 -0.00    +0.024 C  
DOCKED: ATOM     23  C   UNL     1     138.012  70.204 224.572 -0.27 -0.00    +0.027 C  
DOCKED: BRANCH  21  24
DOCKED: ATOM     24  C   UNL     1     140.497  70.513 225.153 -0.50 -0.00    +0.012 C  
DOCKED: ATOM     25  C   UNL     1     141.162  71.553 226.100 -0.66 -0.00    +0.006 C  
DOCKED: ATOM     26  C   UNL     1     140.134  69.201 225.916 -0.51 -0.00    +0.006 C  
DOCKED: ATOM     27  C   UNL     1     140.566  71.499 227.512 -0.77 -0.00    +0.000 C  
DOCKED: ATOM     28  C   UNL     1     140.994  68.986 227.167 -0.61 -0.00    +0.000 C  
DOCKED: ATOM     29  C   UNL     1     140.812  70.132 228.179 -0.59 -0.00    +0.000 C  
DOCKED: ENDBRANCH  21  24
DOCKED: ENDBRANCH  17  19
DOCKED: ENDBRANCH  16  17
DOCKED: ENDBRANCH   1  16
DOCKED: TORSDOF 7
DOCKED: TER
DOCKED: ENDMDL
________________________________________________________________________________


    FINAL DOCKED STATE:
    ________________________


Run:   12 / 20
Time taken for this run:   0.036s

DOCKED: MODEL        12
DOCKED: USER    Run = 12
DOCKED: USER
DOCKED: USER    Estimated Free Energy of Binding    =  -7.65 kcal/mol  [=(1)+(2)+(3)-(4)]
DOCKED: USER
DOCKED: USER    (1) Final Intermolecular Energy     =  -9.74 kcal/mol
DOCKED: USER        vdW + Hbond + desolv Energy     =  -9.69 kcal/mol
DOCKED: USER        Electrostatic Energy            =  -0.05 kcal/mol
DOCKED: USER        Moving Ligand-Fixed Receptor    =  -9.74 kcal/mol
DOCKED: USER        Moving Ligand-Moving Receptor   =  +0.00 kcal/mol
DOCKED: USER    (2) Final Total Internal Energy     =  -1.58 kcal/mol
DOCKED: USER    (3) Torsional Free Energy           =  +2.09 kcal/mol
DOCKED: USER    (4) Unbound System's Energy         =  -1.58 kcal/mol
DOCKED: USER
DOCKED: USER
DOCKED: REMARK SMILES O=C(C/N=C(\O)c1ccc2cc(F)ccc2n1)N1CCC[C@H]1C1CCCCC1
DOCKED: REMARK SMILES IDX 4 1 5 2 6 3 7 5 17 6 8 7 16 8 9 9 15 10 10 11 14 12 11 13
DOCKED: REMARK SMILES IDX 12 14 13 15 3 16 2 17 1 18 18 19 19 20 22 21 20 22 21 23
DOCKED: REMARK SMILES IDX 23 24 24 25 28 26 25 27 27 28 26 29
DOCKED: REMARK H PARENT 6 4
DOCKED: USER                              x       y       z     vdW  Elec       q    Type
DOCKED: USER                           _______ _______ _______ _____ _____    ______ ____
DOCKED: ROOT
DOCKED: ATOM      1  N   UNL     1     138.926  72.904 221.640 -0.12 +0.05    -0.240 NA 
DOCKED: ENDROOT
DOCKED: BRANCH   1   2
DOCKED: ATOM      2  C   UNL     1     139.968  72.634 222.374 -0.22 -0.03    +0.233 C  
DOCKED: BRANCH   2   3
DOCKED: ATOM      3  O   UNL     1     141.199  73.262 222.163 -0.32 -0.01    -0.492 OA 
DOCKED: ATOM      4  H   UNL     1     141.352  74.250 222.314 +0.13 +0.03    +0.295 HD 
DOCKED: ENDBRANCH   2   3
DOCKED: BRANCH   2   5
DOCKED: ATOM      5  C   UNL     1     139.836  71.647 223.462 -0.31 -0.02    +0.125 A  
DOCKED: ATOM      6  N   UNL     1     140.474  71.865 224.646 -0.27 +0.04    -0.243 NA 
DOCKED: ATOM      7  C   UNL     1     139.080  70.478 223.290 -0.26 -0.01    +0.035 A  
DOCKED: ATOM      8  C   UNL     1     140.402  70.985 225.679 -0.52 -0.01    +0.071 A  
DOCKED: ATOM      9  C   UNL     1     138.987  69.554 224.334 -0.33 -0.00    +0.013 A  
DOCKED: ATOM     10  C   UNL     1     141.075  71.251 226.878 -0.68 -0.00    +0.032 A  
DOCKED: ATOM     11  C   UNL     1     139.650  69.798 225.542 -0.44 -0.00    +0.003 A  
DOCKED: ATOM     12  C   UNL     1     141.000  70.342 227.938 -0.59 -0.01    +0.041 A  
DOCKED: ATOM     13  C   UNL     1     139.580  68.891 226.611 -0.51 -0.01    +0.049 A  
DOCKED: ATOM     14  C   UNL     1     140.255  69.165 227.805 -0.53 -0.02    +0.123 A  
DOCKED: ATOM     15  F   UNL     1     140.187  68.288 228.837 -0.17 +0.05    -0.207 F  
DOCKED: ENDBRANCH   2   5
DOCKED: ENDBRANCH   1   2
DOCKED: BRANCH   1  16
DOCKED: ATOM     16  C   UNL     1     138.693  74.133 220.883 -0.09 -0.05    +0.246 C  
DOCKED: BRANCH  16  17
DOCKED: ATOM     17  C   UNL     1     139.482  75.272 221.470 -0.19 -0.05    +0.244 C  
DOCKED: ATOM     18  O   UNL     1     139.539  75.388 222.724 -0.51 +0.03    -0.273 OA 
DOCKED: BRANCH  17  19
DOCKED: ATOM     19  N   UNL     1     140.143  76.246 220.642 -0.06 +0.10    -0.338 N  
DOCKED: ATOM     20  C   UNL     1     139.999  76.187 219.195 -0.05 -0.04    +0.120 C  
DOCKED: ATOM     21  C   UNL     1     141.279  77.077 221.051 -0.26 -0.04    +0.088 C  
DOCKED: ATOM     22  C   UNL     1     141.157  76.995 218.626 -0.13 -0.01    +0.024 C  
DOCKED: ATOM     23  C   UNL     1     142.138  77.152 219.782 -0.31 -0.02    +0.027 C  
DOCKED: BRANCH  21  24
DOCKED: ATOM     24  C   UNL     1     140.805  78.490 221.526 -0.33 -0.00    +0.012 C  
DOCKED: ATOM     25  C   UNL     1     140.525  78.547 223.056 -0.44 -0.00    +0.006 C  
DOCKED: ATOM     26  C   UNL     1     141.815  79.597 221.092 -0.37 -0.00    +0.006 C  
DOCKED: ATOM     27  C   UNL     1     141.774  78.950 223.848 -0.62 -0.00    +0.000 C  
DOCKED: ATOM     28  C   UNL     1     141.834  80.792 222.053 -0.50 -0.00    +0.000 C  
DOCKED: ATOM     29  C   UNL     1     142.252  80.367 223.473 -0.67 -0.00    +0.000 C  
DOCKED: ENDBRANCH  21  24
DOCKED: ENDBRANCH  17  19
DOCKED: ENDBRANCH  16  17
DOCKED: ENDBRANCH   1  16
DOCKED: TORSDOF 7
DOCKED: TER
DOCKED: ENDMDL
________________________________________________________________________________


    FINAL DOCKED STATE:
    ________________________


Run:   13 / 20
Time taken for this run:   0.036s

DOCKED: MODEL        13
DOCKED: USER    Run = 13
DOCKED: USER
DOCKED: USER    Estimated Free Energy of Binding    =  -7.87 kcal/mol  [=(1)+(2)+(3)-(4)]
DOCKED: USER
DOCKED: USER    (1) Final Intermolecular Energy     =  -9.96 kcal/mol
DOCKED: USER        vdW + Hbond + desolv Energy     =  -9.89 kcal/mol
DOCKED: USER        Electrostatic Energy            =  -0.07 kcal/mol
DOCKED: USER        Moving Ligand-Fixed Receptor    =  -9.96 kcal/mol
DOCKED: USER        Moving Ligand-Moving Receptor   =  +0.00 kcal/mol
DOCKED: USER    (2) Final Total Internal Energy     =  -1.09 kcal/mol
DOCKED: USER    (3) Torsional Free Energy           =  +2.09 kcal/mol
DOCKED: USER    (4) Unbound System's Energy         =  -1.09 kcal/mol
DOCKED: USER
DOCKED: USER
DOCKED: REMARK SMILES O=C(C/N=C(\O)c1ccc2cc(F)ccc2n1)N1CCC[C@H]1C1CCCCC1
DOCKED: REMARK SMILES IDX 4 1 5 2 6 3 7 5 17 6 8 7 16 8 9 9 15 10 10 11 14 12 11 13
DOCKED: REMARK SMILES IDX 12 14 13 15 3 16 2 17 1 18 18 19 19 20 22 21 20 22 21 23
DOCKED: REMARK SMILES IDX 23 24 24 25 28 26 25 27 27 28 26 29
DOCKED: REMARK H PARENT 6 4
DOCKED: USER                              x       y       z     vdW  Elec       q    Type
DOCKED: USER                           _______ _______ _______ _____ _____    ______ ____
DOCKED: ROOT
DOCKED: ATOM      1  N   UNL     1     140.280  73.724 221.842 -0.65 +0.02    -0.240 NA 
DOCKED: ENDROOT
DOCKED: BRANCH   1   2
DOCKED: ATOM      2  C   UNL     1     139.239  74.488 222.015 -0.15 -0.05    +0.233 C  
DOCKED: BRANCH   2   3
DOCKED: ATOM      3  O   UNL     1     137.954  73.957 222.168 -0.05 +0.17    -0.492 OA 
DOCKED: ATOM      4  H   UNL     1     137.566  73.690 223.063 -0.45 -0.19    +0.295 HD 
DOCKED: ENDBRANCH   2   3
DOCKED: BRANCH   2   5
DOCKED: ATOM      5  C   UNL     1     139.428  75.949 222.063 -0.28 -0.03    +0.125 A  
DOCKED: ATOM      6  N   UNL     1     140.506  76.466 222.719 -0.24 +0.05    -0.243 NA 
DOCKED: ATOM      7  C   UNL     1     138.506  76.818 221.459 -0.18 -0.01    +0.035 A  
DOCKED: ATOM      8  C   UNL     1     140.725  77.804 222.809 -0.38 -0.02    +0.071 A  
DOCKED: ATOM      9  C   UNL     1     138.704  78.199 221.535 -0.17 -0.00    +0.013 A  
DOCKED: ATOM     10  C   UNL     1     141.846  78.289 223.493 -0.49 -0.01    +0.032 A  
DOCKED: ATOM     11  C   UNL     1     139.818  78.708 222.213 -0.30 -0.00    +0.003 A  
DOCKED: ATOM     12  C   UNL     1     142.067  79.667 223.585 -0.59 -0.01    +0.041 A  
DOCKED: ATOM     13  C   UNL     1     140.046  80.089 222.311 -0.28 -0.01    +0.049 A  
DOCKED: ATOM     14  C   UNL     1     141.170  80.564 222.996 -0.41 -0.03    +0.123 A  
DOCKED: ATOM     15  F   UNL     1     141.390  81.899 223.089 -0.12 +0.02    -0.207 F  
DOCKED: ENDBRANCH   2   5
DOCKED: ENDBRANCH   1   2
DOCKED: BRANCH   1  16
DOCKED: ATOM     16  C   UNL     1     140.701  72.622 222.705 -0.07 -0.01    +0.246 C  
DOCKED: BRANCH  16  17
DOCKED: ATOM     17  C   UNL     1     140.154  71.316 222.199 -0.16 -0.04    +0.244 C  
DOCKED: ATOM     18  O   UNL     1     140.198  71.077 220.962 -0.08 +0.04    -0.273 OA 
DOCKED: BRANCH  17  19
DOCKED: ATOM     19  N   UNL     1     139.555  70.348 223.082 -0.10 +0.06    -0.338 N  
DOCKED: ATOM     20  C   UNL     1     138.845  69.204 222.531 -0.16 -0.02    +0.120 C  
DOCKED: ATOM     21  C   UNL     1     139.229  70.576 224.493 -0.34 -0.02    +0.088 C  
DOCKED: ATOM     22  C   UNL     1     137.955  68.685 223.652 -0.24 -0.00    +0.024 C  
DOCKED: ATOM     23  C   UNL     1     137.912  69.811 224.679 -0.29 -0.00    +0.027 C  
DOCKED: BRANCH  21  24
DOCKED: ATOM     24  C   UNL     1     140.361  70.037 225.429 -0.49 -0.00    +0.012 C  
DOCKED: ATOM     25  C   UNL     1     141.430  71.117 225.762 -0.58 -0.00    +0.006 C  
DOCKED: ATOM     26  C   UNL     1     139.765  69.409 226.727 -0.55 -0.00    +0.006 C  
DOCKED: ATOM     27  C   UNL     1     141.070  71.903 227.028 -0.80 -0.00    +0.000 C  
DOCKED: ATOM     28  C   UNL     1     140.712  69.520 227.928 -0.65 -0.00    +0.000 C  
DOCKED: ATOM     29  C   UNL     1     141.020  70.990 228.268 -0.64 -0.00    +0.000 C  
DOCKED: ENDBRANCH  21  24
DOCKED: ENDBRANCH  17  19
DOCKED: ENDBRANCH  16  17
DOCKED: ENDBRANCH   1  16
DOCKED: TORSDOF 7
DOCKED: TER
DOCKED: ENDMDL
________________________________________________________________________________


    FINAL DOCKED STATE:
    ________________________


Run:   14 / 20
Time taken for this run:   0.036s

DOCKED: MODEL        14
DOCKED: USER    Run = 14
DOCKED: USER
DOCKED: USER    Estimated Free Energy of Binding    =  -8.16 kcal/mol  [=(1)+(2)+(3)-(4)]
DOCKED: USER
DOCKED: USER    (1) Final Intermolecular Energy     = -10.25 kcal/mol
DOCKED: USER        vdW + Hbond + desolv Energy     = -10.19 kcal/mol
DOCKED: USER        Electrostatic Energy            =  -0.06 kcal/mol
DOCKED: USER        Moving Ligand-Fixed Receptor    = -10.25 kcal/mol
DOCKED: USER        Moving Ligand-Moving Receptor   =  +0.00 kcal/mol
DOCKED: USER    (2) Final Total Internal Energy     =  -1.56 kcal/mol
DOCKED: USER    (3) Torsional Free Energy           =  +2.09 kcal/mol
DOCKED: USER    (4) Unbound System's Energy         =  -1.56 kcal/mol
DOCKED: USER
DOCKED: USER
DOCKED: REMARK SMILES O=C(C/N=C(\O)c1ccc2cc(F)ccc2n1)N1CCC[C@H]1C1CCCCC1
DOCKED: REMARK SMILES IDX 4 1 5 2 6 3 7 5 17 6 8 7 16 8 9 9 15 10 10 11 14 12 11 13
DOCKED: REMARK SMILES IDX 12 14 13 15 3 16 2 17 1 18 18 19 19 20 22 21 20 22 21 23
DOCKED: REMARK SMILES IDX 23 24 24 25 28 26 25 27 27 28 26 29
DOCKED: REMARK H PARENT 6 4
DOCKED: USER                              x       y       z     vdW  Elec       q    Type
DOCKED: USER                           _______ _______ _______ _____ _____    ______ ____
DOCKED: ROOT
DOCKED: ATOM      1  N   UNL     1     140.635  73.865 221.769 -0.59 +0.02    -0.240 NA 
DOCKED: ENDROOT
DOCKED: BRANCH   1   2
DOCKED: ATOM      2  C   UNL     1     139.846  74.882 221.966 -0.17 -0.03    +0.233 C  
DOCKED: BRANCH   2   3
DOCKED: ATOM      3  O   UNL     1     138.495  74.714 222.289 -0.14 +0.16    -0.492 OA 
DOCKED: ATOM      4  H   UNL     1     138.134  73.894 222.759 -0.49 -0.16    +0.295 HD 
DOCKED: ENDBRANCH   2   3
DOCKED: BRANCH   2   5
DOCKED: ATOM      5  C   UNL     1     140.398  76.245 221.855 -0.32 -0.03    +0.125 A  
DOCKED: ATOM      6  N   UNL     1     139.995  77.206 222.733 -0.19 +0.05    -0.243 NA 
DOCKED: ATOM      7  C   UNL     1     141.320  76.572 220.848 -0.28 -0.02    +0.035 A  
DOCKED: ATOM      8  C   UNL     1     140.458  78.483 222.671 -0.38 -0.02    +0.071 A  
DOCKED: ATOM      9  C   UNL     1     141.814  77.876 220.759 -0.33 -0.01    +0.013 A  
DOCKED: ATOM     10  C   UNL     1     140.015  79.437 223.594 -0.43 -0.01    +0.032 A  
DOCKED: ATOM     11  C   UNL     1     141.386  78.847 221.671 -0.39 -0.00    +0.003 A  
DOCKED: ATOM     12  C   UNL     1     140.492  80.750 223.526 -0.42 -0.01    +0.041 A  
DOCKED: ATOM     13  C   UNL     1     141.860  80.167 221.609 -0.41 -0.02    +0.049 A  
DOCKED: ATOM     14  C   UNL     1     141.412  81.114 222.536 -0.40 -0.03    +0.123 A  
DOCKED: ATOM     15  F   UNL     1     141.870  82.389 222.476 -0.09 +0.02    -0.207 F  
DOCKED: ENDBRANCH   2   5
DOCKED: ENDBRANCH   1   2
DOCKED: BRANCH   1  16
DOCKED: ATOM     16  C   UNL     1     140.679  72.636 222.558 -0.12 -0.01    +0.246 C  
DOCKED: BRANCH  16  17
DOCKED: ATOM     17  C   UNL     1     139.426  71.829 222.350 -0.19 -0.05    +0.244 C  
DOCKED: ATOM     18  O   UNL     1     138.599  72.206 221.478 -0.08 +0.06    -0.273 OA 
DOCKED: BRANCH  17  19
DOCKED: ATOM     19  N   UNL     1     139.133  70.661 223.140 -0.11 +0.06    -0.338 N  
DOCKED: ATOM     20  C   UNL     1     138.570  69.478 222.506 -0.16 -0.02    +0.120 C  
DOCKED: ATOM     21  C   UNL     1     138.966  70.642 224.595 -0.32 -0.02    +0.088 C  
DOCKED: ATOM     22  C   UNL     1     137.946  68.660 223.628 -0.24 -0.00    +0.024 C  
DOCKED: ATOM     23  C   UNL     1     137.843  69.617 224.808 -0.31 -0.00    +0.027 C  
DOCKED: BRANCH  21  24
DOCKED: ATOM     24  C   UNL     1     140.291  70.220 225.312 -0.49 -0.00    +0.012 C  
DOCKED: ATOM     25  C   UNL     1     141.100  71.438 225.844 -0.63 -0.00    +0.006 C  
DOCKED: ATOM     26  C   UNL     1     140.013  69.185 226.446 -0.55 -0.00    +0.006 C  
DOCKED: ATOM     27  C   UNL     1     140.705  71.800 227.281 -0.78 -0.00    +0.000 C  
DOCKED: ATOM     28  C   UNL     1     141.033  69.267 227.588 -0.60 -0.00    +0.000 C  
DOCKED: ATOM     29  C   UNL     1     141.015  70.652 228.261 -0.58 -0.00    +0.000 C  
DOCKED: ENDBRANCH  21  24
DOCKED: ENDBRANCH  17  19
DOCKED: ENDBRANCH  16  17
DOCKED: ENDBRANCH   1  16
DOCKED: TORSDOF 7
DOCKED: TER
DOCKED: ENDMDL
________________________________________________________________________________


    FINAL DOCKED STATE:
    ________________________


Run:   15 / 20
Time taken for this run:   0.036s

DOCKED: MODEL        15
DOCKED: USER    Run = 15
DOCKED: USER
DOCKED: USER    Estimated Free Energy of Binding    =  -7.77 kcal/mol  [=(1)+(2)+(3)-(4)]
DOCKED: USER
DOCKED: USER    (1) Final Intermolecular Energy     =  -9.86 kcal/mol
DOCKED: USER        vdW + Hbond + desolv Energy     =  -9.68 kcal/mol
DOCKED: USER        Electrostatic Energy            =  -0.18 kcal/mol
DOCKED: USER        Moving Ligand-Fixed Receptor    =  -9.86 kcal/mol
DOCKED: USER        Moving Ligand-Moving Receptor   =  +0.00 kcal/mol
DOCKED: USER    (2) Final Total Internal Energy     =  -1.37 kcal/mol
DOCKED: USER    (3) Torsional Free Energy           =  +2.09 kcal/mol
DOCKED: USER    (4) Unbound System's Energy         =  -1.37 kcal/mol
DOCKED: USER
DOCKED: USER
DOCKED: REMARK SMILES O=C(C/N=C(\O)c1ccc2cc(F)ccc2n1)N1CCC[C@H]1C1CCCCC1
DOCKED: REMARK SMILES IDX 4 1 5 2 6 3 7 5 17 6 8 7 16 8 9 9 15 10 10 11 14 12 11 13
DOCKED: REMARK SMILES IDX 12 14 13 15 3 16 2 17 1 18 18 19 19 20 22 21 20 22 21 23
DOCKED: REMARK SMILES IDX 23 24 24 25 28 26 25 27 27 28 26 29
DOCKED: REMARK H PARENT 6 4
DOCKED: USER                              x       y       z     vdW  Elec       q    Type
DOCKED: USER                           _______ _______ _______ _____ _____    ______ ____
DOCKED: ROOT
DOCKED: ATOM      1  N   UNL     1     138.681  73.385 220.769 -0.05 +0.05    -0.240 NA 
DOCKED: ENDROOT
DOCKED: BRANCH   1   2
DOCKED: ATOM      2  C   UNL     1     138.400  74.366 221.578 -0.14 -0.06    +0.233 C  
DOCKED: BRANCH   2   3
DOCKED: ATOM      3  O   UNL     1     137.238  74.367 222.357 -0.06 +0.17    -0.492 OA 
DOCKED: ATOM      4  H   UNL     1     137.241  74.233 223.360 -0.39 -0.21    +0.295 HD 
DOCKED: ENDBRANCH   2   3
DOCKED: BRANCH   2   5
DOCKED: ATOM      5  C   UNL     1     139.341  75.497 221.681 -0.24 -0.03    +0.125 A  
DOCKED: ATOM      6  N   UNL     1     139.004  76.583 222.433 -0.21 +0.05    -0.243 NA 
DOCKED: ATOM      7  C   UNL     1     140.569  75.481 221.003 -0.26 -0.01    +0.035 A  
DOCKED: ATOM      8  C   UNL     1     139.823  77.661 222.553 -0.31 -0.02    +0.071 A  
DOCKED: ATOM      9  C   UNL     1     141.432  76.574 221.107 -0.28 -0.01    +0.013 A  
DOCKED: ATOM     10  C   UNL     1     139.435  78.755 223.336 -0.30 -0.01    +0.032 A  
DOCKED: ATOM     11  C   UNL     1     141.067  77.679 221.885 -0.40 -0.00    +0.003 A  
DOCKED: ATOM     12  C   UNL     1     140.280  79.863 223.456 -0.44 -0.01    +0.041 A  
DOCKED: ATOM     13  C   UNL     1     141.908  78.795 222.010 -0.41 -0.03    +0.049 A  
DOCKED: ATOM     14  C   UNL     1     141.513  79.884 222.795 -0.44 -0.04    +0.123 A  
DOCKED: ATOM     15  F   UNL     1     142.327  80.961 222.915 -0.17 +0.05    -0.207 F  
DOCKED: ENDBRANCH   2   5
DOCKED: ENDBRANCH   1   2
DOCKED: BRANCH   1  16
DOCKED: ATOM     16  C   UNL     1     139.740  72.393 220.943 -0.10 -0.04    +0.246 C  
DOCKED: BRANCH  16  17
DOCKED: ATOM     17  C   UNL     1     140.003  72.152 222.404 -0.22 -0.04    +0.244 C  
DOCKED: ATOM     18  O   UNL     1     140.686  72.994 223.045 -0.42 -0.03    -0.273 OA 
DOCKED: BRANCH  17  19
DOCKED: ATOM     19  N   UNL     1     139.523  70.973 223.080 -0.13 +0.06    -0.338 N  
DOCKED: ATOM     20  C   UNL     1     138.870  69.917 222.321 -0.15 -0.02    +0.120 C  
DOCKED: ATOM     21  C   UNL     1     139.255  70.870 224.516 -0.35 -0.02    +0.088 C  
DOCKED: ATOM     22  C   UNL     1     138.080  69.101 223.335 -0.25 -0.00    +0.024 C  
DOCKED: ATOM     23  C   UNL     1     138.009  69.977 224.580 -0.30 -0.00    +0.027 C  
DOCKED: BRANCH  21  24
DOCKED: ATOM     24  C   UNL     1     140.470  70.240 225.275 -0.49 -0.00    +0.012 C  
DOCKED: ATOM     25  C   UNL     1     141.210  71.266 226.180 -0.65 -0.00    +0.006 C  
DOCKED: ATOM     26  C   UNL     1     140.036  68.979 226.084 -0.54 -0.00    +0.006 C  
DOCKED: ATOM     27  C   UNL     1     140.631  71.294 227.599 -0.77 -0.00    +0.000 C  
DOCKED: ATOM     28  C   UNL     1     140.896  68.749 227.332 -0.64 -0.00    +0.000 C  
DOCKED: ATOM     29  C   UNL     1     140.799  69.936 228.308 -0.57 -0.00    +0.000 C  
DOCKED: ENDBRANCH  21  24
DOCKED: ENDBRANCH  17  19
DOCKED: ENDBRANCH  16  17
DOCKED: ENDBRANCH   1  16
DOCKED: TORSDOF 7
DOCKED: TER
DOCKED: ENDMDL
________________________________________________________________________________


    FINAL DOCKED STATE:
    ________________________


Run:   16 / 20
Time taken for this run:   0.036s

DOCKED: MODEL        16
DOCKED: USER    Run = 16
DOCKED: USER
DOCKED: USER    Estimated Free Energy of Binding    =  -7.79 kcal/mol  [=(1)+(2)+(3)-(4)]
DOCKED: USER
DOCKED: USER    (1) Final Intermolecular Energy     =  -9.88 kcal/mol
DOCKED: USER        vdW + Hbond + desolv Energy     =  -9.89 kcal/mol
DOCKED: USER        Electrostatic Energy            =  +0.00 kcal/mol
DOCKED: USER        Moving Ligand-Fixed Receptor    =  -9.88 kcal/mol
DOCKED: USER        Moving Ligand-Moving Receptor   =  +0.00 kcal/mol
DOCKED: USER    (2) Final Total Internal Energy     =  -1.25 kcal/mol
DOCKED: USER    (3) Torsional Free Energy           =  +2.09 kcal/mol
DOCKED: USER    (4) Unbound System's Energy         =  -1.25 kcal/mol
DOCKED: USER
DOCKED: USER
DOCKED: REMARK SMILES O=C(C/N=C(\O)c1ccc2cc(F)ccc2n1)N1CCC[C@H]1C1CCCCC1
DOCKED: REMARK SMILES IDX 4 1 5 2 6 3 7 5 17 6 8 7 16 8 9 9 15 10 10 11 14 12 11 13
DOCKED: REMARK SMILES IDX 12 14 13 15 3 16 2 17 1 18 18 19 19 20 22 21 20 22 21 23
DOCKED: REMARK SMILES IDX 23 24 24 25 28 26 25 27 27 28 26 29
DOCKED: REMARK H PARENT 6 4
DOCKED: USER                              x       y       z     vdW  Elec       q    Type
DOCKED: USER                           _______ _______ _______ _____ _____    ______ ____
DOCKED: ROOT
DOCKED: ATOM      1  N   UNL     1     139.560  73.627 222.360 -0.69 +0.04    -0.240 NA 
DOCKED: ENDROOT
DOCKED: BRANCH   1   2
DOCKED: ATOM      2  C   UNL     1     140.109  72.448 222.282 -0.22 -0.03    +0.233 C  
DOCKED: BRANCH   2   3
DOCKED: ATOM      3  O   UNL     1     140.806  72.035 221.141 -0.06 +0.07    -0.492 OA 
DOCKED: ATOM      4  H   UNL     1     140.944  71.063 220.896 +0.08 -0.04    +0.295 HD 
DOCKED: ENDBRANCH   2   3
DOCKED: BRANCH   2   5
DOCKED: ATOM      5  C   UNL     1     140.000  71.533 223.433 -0.32 -0.02    +0.125 A  
DOCKED: ATOM      6  N   UNL     1     140.556  71.887 224.627 -0.26 +0.03    -0.243 NA 
DOCKED: ATOM      7  C   UNL     1     139.349  70.296 223.315 -0.26 -0.01    +0.035 A  
DOCKED: ATOM      8  C   UNL     1     140.500  71.080 225.718 -0.53 -0.01    +0.071 A  
DOCKED: ATOM      9  C   UNL     1     139.276  69.444 224.419 -0.34 -0.00    +0.013 A  
DOCKED: ATOM     10  C   UNL     1     141.086  71.485 226.923 -0.72 -0.01    +0.032 A  
DOCKED: ATOM     11  C   UNL     1     139.852  69.827 225.636 -0.46 -0.00    +0.003 A  
DOCKED: ATOM     12  C   UNL     1     141.028  70.650 228.044 -0.62 -0.01    +0.041 A  
DOCKED: ATOM     13  C   UNL     1     139.800  68.995 226.765 -0.53 -0.01    +0.049 A  
DOCKED: ATOM     14  C   UNL     1     140.387  69.409 227.965 -0.53 -0.02    +0.123 A  
DOCKED: ATOM     15  F   UNL     1     140.335  68.605 229.055 -0.15 +0.04    -0.207 F  
DOCKED: ENDBRANCH   2   5
DOCKED: ENDBRANCH   1   2
DOCKED: BRANCH   1  16
DOCKED: ATOM     16  C   UNL     1     139.582  74.664 221.330 -0.18 -0.05    +0.246 C  
DOCKED: BRANCH  16  17
DOCKED: ATOM     17  C   UNL     1     140.752  75.587 221.535 -0.25 -0.06    +0.244 C  
DOCKED: ATOM     18  O   UNL     1     140.697  76.439 222.461 -0.34 +0.07    -0.273 OA 
DOCKED: BRANCH  17  19
DOCKED: ATOM     19  N   UNL     1     141.914  75.543 220.685 -0.13 +0.15    -0.338 N  
DOCKED: ATOM     20  C   UNL     1     142.424  76.769 220.090 -0.24 -0.08    +0.120 C  
DOCKED: ATOM     21  C   UNL     1     142.430  74.346 220.017 -0.23 -0.03    +0.088 C  
DOCKED: ATOM     22  C   UNL     1     143.293  76.334 218.918 -0.35 -0.01    +0.024 C  
DOCKED: ATOM     23  C   UNL     1     142.917  74.880 218.663 -0.21 -0.01    +0.027 C  
DOCKED: BRANCH  21  24
DOCKED: ATOM     24  C   UNL     1     143.587  73.692 220.842 -0.28 -0.00    +0.012 C  
DOCKED: ATOM     25  C   UNL     1     143.614  72.142 220.716 -0.30 -0.00    +0.006 C  
DOCKED: ATOM     26  C   UNL     1     144.968  74.315 220.468 -0.50 -0.00    +0.006 C  
DOCKED: ATOM     27  C   UNL     1     144.493  71.681 219.547 -0.29 +0.00    +0.000 C  
DOCKED: ATOM     28  C   UNL     1     146.130  73.332 220.646 -0.65 +0.00    +0.000 C  
DOCKED: ATOM     29  C   UNL     1     145.964  72.094 219.747 -0.33 +0.00    +0.000 C  
DOCKED: ENDBRANCH  21  24
DOCKED: ENDBRANCH  17  19
DOCKED: ENDBRANCH  16  17
DOCKED: ENDBRANCH   1  16
DOCKED: TORSDOF 7
DOCKED: TER
DOCKED: ENDMDL
________________________________________________________________________________


    FINAL DOCKED STATE:
    ________________________


Run:   17 / 20
Time taken for this run:   0.036s

DOCKED: MODEL        17
DOCKED: USER    Run = 17
DOCKED: USER
DOCKED: USER    Estimated Free Energy of Binding    =  -7.59 kcal/mol  [=(1)+(2)+(3)-(4)]
DOCKED: USER
DOCKED: USER    (1) Final Intermolecular Energy     =  -9.68 kcal/mol
DOCKED: USER        vdW + Hbond + desolv Energy     =  -9.63 kcal/mol
DOCKED: USER        Electrostatic Energy            =  -0.05 kcal/mol
DOCKED: USER        Moving Ligand-Fixed Receptor    =  -9.68 kcal/mol
DOCKED: USER        Moving Ligand-Moving Receptor   =  +0.00 kcal/mol
DOCKED: USER    (2) Final Total Internal Energy     =  -1.69 kcal/mol
DOCKED: USER    (3) Torsional Free Energy           =  +2.09 kcal/mol
DOCKED: USER    (4) Unbound System's Energy         =  -1.69 kcal/mol
DOCKED: USER
DOCKED: USER
DOCKED: REMARK SMILES O=C(C/N=C(\O)c1ccc2cc(F)ccc2n1)N1CCC[C@H]1C1CCCCC1
DOCKED: REMARK SMILES IDX 4 1 5 2 6 3 7 5 17 6 8 7 16 8 9 9 15 10 10 11 14 12 11 13
DOCKED: REMARK SMILES IDX 12 14 13 15 3 16 2 17 1 18 18 19 19 20 22 21 20 22 21 23
DOCKED: REMARK SMILES IDX 23 24 24 25 28 26 25 27 27 28 26 29
DOCKED: REMARK H PARENT 6 4
DOCKED: USER                              x       y       z     vdW  Elec       q    Type
DOCKED: USER                           _______ _______ _______ _____ _____    ______ ____
DOCKED: ROOT
DOCKED: ATOM      1  N   UNL     1     140.300  73.762 222.318 -0.77 -0.00    -0.240 NA 
DOCKED: ENDROOT
DOCKED: BRANCH   1   2
DOCKED: ATOM      2  C   UNL     1     140.126  74.556 221.301 -0.20 -0.04    +0.233 C  
DOCKED: BRANCH   2   3
DOCKED: ATOM      3  O   UNL     1     139.413  74.153 220.167 -0.00 +0.10    -0.492 OA 
DOCKED: ATOM      4  H   UNL     1     139.287  73.184 219.905 +0.05 -0.06    +0.295 HD 
DOCKED: ENDBRANCH   2   3
DOCKED: BRANCH   2   5
DOCKED: ATOM      5  C   UNL     1     140.687  75.919 221.355 -0.28 -0.04    +0.125 A  
DOCKED: ATOM      6  N   UNL     1     140.292  76.768 222.346 -0.27 +0.06    -0.243 NA 
DOCKED: ATOM      7  C   UNL     1     141.608  76.361 220.393 -0.27 -0.02    +0.035 A  
DOCKED: ATOM      8  C   UNL     1     140.764  78.039 222.439 -0.39 -0.02    +0.071 A  
DOCKED: ATOM      9  C   UNL     1     142.110  77.662 220.463 -0.28 -0.01    +0.013 A  
DOCKED: ATOM     10  C   UNL     1     140.330  78.876 223.474 -0.39 -0.01    +0.032 A  
DOCKED: ATOM     11  C   UNL     1     141.692  78.518 221.489 -0.38 -0.00    +0.003 A  
DOCKED: ATOM     12  C   UNL     1     140.816  80.184 223.565 -0.47 -0.01    +0.041 A  
DOCKED: ATOM     13  C   UNL     1     142.175  79.832 221.587 -0.40 -0.02    +0.049 A  
DOCKED: ATOM     14  C   UNL     1     141.735  80.661 222.625 -0.45 -0.03    +0.123 A  
DOCKED: ATOM     15  F   UNL     1     142.202  81.930 222.720 -0.09 +0.03    -0.207 F  
DOCKED: ENDBRANCH   2   5
DOCKED: ENDBRANCH   1   2
DOCKED: BRANCH   1  16
DOCKED: ATOM     16  C   UNL     1     140.877  72.420 222.283 -0.15 -0.01    +0.246 C  
DOCKED: BRANCH  16  17
DOCKED: ATOM     17  C   UNL     1     139.836  71.407 221.890 -0.15 -0.04    +0.244 C  
DOCKED: ATOM     18  O   UNL     1     139.411  71.403 220.704 -0.05 +0.05    -0.273 OA 
DOCKED: BRANCH  17  19
DOCKED: ATOM     19  N   UNL     1     139.292  70.469 222.837 -0.09 +0.06    -0.338 N  
DOCKED: ATOM     20  C   UNL     1     138.474  69.359 222.372 -0.15 -0.02    +0.120 C  
DOCKED: ATOM     21  C   UNL     1     139.132  70.711 224.274 -0.33 -0.02    +0.088 C  
DOCKED: ATOM     22  C   UNL     1     137.688  68.883 223.585 -0.24 -0.00    +0.024 C  
DOCKED: ATOM     23  C   UNL     1     137.809  70.008 224.605 -0.28 -0.00    +0.027 C  
DOCKED: BRANCH  21  24
DOCKED: ATOM     24  C   UNL     1     140.333  70.119 225.084 -0.45 -0.00    +0.012 C  
DOCKED: ATOM     25  C   UNL     1     141.191  71.217 225.775 -0.61 -0.00    +0.006 C  
DOCKED: ATOM     26  C   UNL     1     139.845  69.050 226.111 -0.53 -0.00    +0.006 C  
DOCKED: ATOM     27  C   UNL     1     140.685  71.529 227.188 -0.77 -0.00    +0.000 C  
DOCKED: ATOM     28  C   UNL     1     140.745  68.963 227.349 -0.65 -0.00    +0.000 C  
DOCKED: ATOM     29  C   UNL     1     140.786  70.300 228.112 -0.61 -0.00    +0.000 C  
DOCKED: ENDBRANCH  21  24
DOCKED: ENDBRANCH  17  19
DOCKED: ENDBRANCH  16  17
DOCKED: ENDBRANCH   1  16
DOCKED: TORSDOF 7
DOCKED: TER
DOCKED: ENDMDL
________________________________________________________________________________


    FINAL DOCKED STATE:
    ________________________


Run:   18 / 20
Time taken for this run:   0.036s

DOCKED: MODEL        18
DOCKED: USER    Run = 18
DOCKED: USER
DOCKED: USER    Estimated Free Energy of Binding    =  -8.02 kcal/mol  [=(1)+(2)+(3)-(4)]
DOCKED: USER
DOCKED: USER    (1) Final Intermolecular Energy     = -10.11 kcal/mol
DOCKED: USER        vdW + Hbond + desolv Energy     = -10.03 kcal/mol
DOCKED: USER        Electrostatic Energy            =  -0.08 kcal/mol
DOCKED: USER        Moving Ligand-Fixed Receptor    = -10.11 kcal/mol
DOCKED: USER        Moving Ligand-Moving Receptor   =  +0.00 kcal/mol
DOCKED: USER    (2) Final Total Internal Energy     =  -1.60 kcal/mol
DOCKED: USER    (3) Torsional Free Energy           =  +2.09 kcal/mol
DOCKED: USER    (4) Unbound System's Energy         =  -1.60 kcal/mol
DOCKED: USER
DOCKED: USER
DOCKED: REMARK SMILES O=C(C/N=C(\O)c1ccc2cc(F)ccc2n1)N1CCC[C@H]1C1CCCCC1
DOCKED: REMARK SMILES IDX 4 1 5 2 6 3 7 5 17 6 8 7 16 8 9 9 15 10 10 11 14 12 11 13
DOCKED: REMARK SMILES IDX 12 14 13 15 3 16 2 17 1 18 18 19 19 20 22 21 20 22 21 23
DOCKED: REMARK SMILES IDX 23 24 24 25 28 26 25 27 27 28 26 29
DOCKED: REMARK H PARENT 6 4
DOCKED: USER                              x       y       z     vdW  Elec       q    Type
DOCKED: USER                           _______ _______ _______ _____ _____    ______ ____
DOCKED: ROOT
DOCKED: ATOM      1  N   UNL     1     139.632  74.348 222.057 -0.67 +0.04    -0.240 NA 
DOCKED: ENDROOT
DOCKED: BRANCH   1   2
DOCKED: ATOM      2  C   UNL     1     140.760  74.745 221.540 -0.23 -0.04    +0.233 C  
DOCKED: BRANCH   2   3
DOCKED: ATOM      3  O   UNL     1     141.691  73.838 221.022 -0.12 +0.08    -0.492 OA 
DOCKED: ATOM      4  H   UNL     1     142.023  73.031 221.533 +0.13 -0.02    +0.295 HD 
DOCKED: ENDBRANCH   2   3
DOCKED: BRANCH   2   5
DOCKED: ATOM      5  C   UNL     1     141.052  76.189 221.490 -0.29 -0.05    +0.125 A  
DOCKED: ATOM      6  N   UNL     1     140.910  76.942 222.618 -0.27 +0.08    -0.243 NA 
DOCKED: ATOM      7  C   UNL     1     141.457  76.805 220.296 -0.26 -0.02    +0.035 A  
DOCKED: ATOM      8  C   UNL     1     141.151  78.279 222.630 -0.44 -0.03    +0.071 A  
DOCKED: ATOM      9  C   UNL     1     141.712  78.178 220.277 -0.30 -0.01    +0.013 A  
DOCKED: ATOM     10  C   UNL     1     140.991  79.011 223.812 -0.51 -0.01    +0.032 A  
DOCKED: ATOM     11  C   UNL     1     141.560  78.932 221.447 -0.38 -0.00    +0.003 A  
DOCKED: ATOM     12  C   UNL     1     141.238  80.388 223.820 -0.49 -0.01    +0.041 A  
DOCKED: ATOM     13  C   UNL     1     141.805  80.314 221.463 -0.39 -0.02    +0.049 A  
DOCKED: ATOM     14  C   UNL     1     141.644  81.037 222.649 -0.43 -0.03    +0.123 A  
DOCKED: ATOM     15  F   UNL     1     141.881  82.372 222.665 -0.08 +0.02    -0.207 F  
DOCKED: ENDBRANCH   2   5
DOCKED: ENDBRANCH   1   2
DOCKED: BRANCH   1  16
DOCKED: ATOM     16  C   UNL     1     139.067  73.002 221.978 -0.15 -0.06    +0.246 C  
DOCKED: BRANCH  16  17
DOCKED: ATOM     17  C   UNL     1     139.878  72.040 222.803 -0.22 -0.04    +0.244 C  
DOCKED: ATOM     18  O   UNL     1     141.074  72.330 223.071 -0.25 -0.00    -0.273 OA 
DOCKED: BRANCH  17  19
DOCKED: ATOM     19  N   UNL     1     139.335  70.789 223.265 -0.13 +0.06    -0.338 N  
DOCKED: ATOM     20  C   UNL     1     138.825  69.820 222.305 -0.14 -0.02    +0.120 C  
DOCKED: ATOM     21  C   UNL     1     138.865  70.520 224.626 -0.31 -0.02    +0.088 C  
DOCKED: ATOM     22  C   UNL     1     137.918  68.887 223.096 -0.23 -0.00    +0.024 C  
DOCKED: ATOM     23  C   UNL     1     137.646  69.614 224.407 -0.29 -0.00    +0.027 C  
DOCKED: BRANCH  21  24
DOCKED: ATOM     24  C   UNL     1     139.974  69.818 225.479 -0.46 -0.00    +0.012 C  
DOCKED: ATOM     25  C   UNL     1     141.208  70.732 225.730 -0.59 -0.00    +0.006 C  
DOCKED: ATOM     26  C   UNL     1     139.391  69.271 226.819 -0.52 -0.00    +0.006 C  
DOCKED: ATOM     27  C   UNL     1     141.057  71.552 227.016 -0.77 -0.00    +0.000 C  
DOCKED: ATOM     28  C   UNL     1     140.428  69.237 227.947 -0.66 -0.00    +0.000 C  
DOCKED: ATOM     29  C   UNL     1     140.967  70.645 228.259 -0.58 -0.00    +0.000 C  
DOCKED: ENDBRANCH  21  24
DOCKED: ENDBRANCH  17  19
DOCKED: ENDBRANCH  16  17
DOCKED: ENDBRANCH   1  16
DOCKED: TORSDOF 7
DOCKED: TER
DOCKED: ENDMDL
________________________________________________________________________________


    FINAL DOCKED STATE:
    ________________________


Run:   19 / 20
Time taken for this run:   0.036s

DOCKED: MODEL        19
DOCKED: USER    Run = 19
DOCKED: USER
DOCKED: USER    Estimated Free Energy of Binding    =  -7.90 kcal/mol  [=(1)+(2)+(3)-(4)]
DOCKED: USER
DOCKED: USER    (1) Final Intermolecular Energy     =  -9.99 kcal/mol
DOCKED: USER        vdW + Hbond + desolv Energy     =  -9.97 kcal/mol
DOCKED: USER        Electrostatic Energy            =  -0.02 kcal/mol
DOCKED: USER        Moving Ligand-Fixed Receptor    =  -9.99 kcal/mol
DOCKED: USER        Moving Ligand-Moving Receptor   =  +0.00 kcal/mol
DOCKED: USER    (2) Final Total Internal Energy     =  -1.66 kcal/mol
DOCKED: USER    (3) Torsional Free Energy           =  +2.09 kcal/mol
DOCKED: USER    (4) Unbound System's Energy         =  -1.66 kcal/mol
DOCKED: USER
DOCKED: USER
DOCKED: REMARK SMILES O=C(C/N=C(\O)c1ccc2cc(F)ccc2n1)N1CCC[C@H]1C1CCCCC1
DOCKED: REMARK SMILES IDX 4 1 5 2 6 3 7 5 17 6 8 7 16 8 9 9 15 10 10 11 14 12 11 13
DOCKED: REMARK SMILES IDX 12 14 13 15 3 16 2 17 1 18 18 19 19 20 22 21 20 22 21 23
DOCKED: REMARK SMILES IDX 23 24 24 25 28 26 25 27 27 28 26 29
DOCKED: REMARK H PARENT 6 4
DOCKED: USER                              x       y       z     vdW  Elec       q    Type
DOCKED: USER                           _______ _______ _______ _____ _____    ______ ____
DOCKED: ROOT
DOCKED: ATOM      1  N   UNL     1     138.852  73.128 222.312 -0.17 +0.07    -0.240 NA 
DOCKED: ENDROOT
DOCKED: BRANCH   1   2
DOCKED: ATOM      2  C   UNL     1     139.961  72.587 222.730 -0.18 -0.03    +0.233 C  
DOCKED: BRANCH   2   3
DOCKED: ATOM      3  O   UNL     1     141.203  72.953 222.201 -0.28 -0.00    -0.492 OA 
DOCKED: ATOM      4  H   UNL     1     141.425  73.894 221.903 +0.11 -0.01    +0.295 HD 
DOCKED: ENDBRANCH   2   3
DOCKED: BRANCH   2   5
DOCKED: ATOM      5  C   UNL     1     139.901  71.572 223.797 -0.33 -0.02    +0.125 A  
DOCKED: ATOM      6  N   UNL     1     140.470  71.836 225.008 -0.27 +0.04    -0.243 NA 
DOCKED: ATOM      7  C   UNL     1     139.284  70.330 223.581 -0.29 -0.01    +0.035 A  
DOCKED: ATOM      8  C   UNL     1     140.458  70.934 226.024 -0.54 -0.01    +0.071 A  
DOCKED: ATOM      9  C   UNL     1     139.256  69.382 224.606 -0.36 -0.00    +0.013 A  
DOCKED: ATOM     10  C   UNL     1     141.056  71.249 227.251 -0.70 -0.01    +0.032 A  
DOCKED: ATOM     11  C   UNL     1     139.846  69.674 225.842 -0.47 -0.00    +0.003 A  
DOCKED: ATOM     12  C   UNL     1     141.044  70.317 228.294 -0.53 -0.01    +0.041 A  
DOCKED: ATOM     13  C   UNL     1     139.839  68.745 226.893 -0.56 -0.01    +0.049 A  
DOCKED: ATOM     14  C   UNL     1     140.437  69.068 228.116 -0.53 -0.02    +0.123 A  
DOCKED: ATOM     15  F   UNL     1     140.430  68.170 229.131 -0.17 +0.05    -0.207 F  
DOCKED: ENDBRANCH   2   5
DOCKED: ENDBRANCH   1   2
DOCKED: BRANCH   1  16
DOCKED: ATOM     16  C   UNL     1     138.730  74.237 221.368 -0.13 -0.06    +0.246 C  
DOCKED: BRANCH  16  17
DOCKED: ATOM     17  C   UNL     1     139.437  75.457 221.893 -0.22 -0.05    +0.244 C  
DOCKED: ATOM     18  O   UNL     1     140.694  75.438 221.983 -0.55 +0.05    -0.273 OA 
DOCKED: BRANCH  17  19
DOCKED: ATOM     19  N   UNL     1     138.717  76.628 222.323 -0.16 +0.07    -0.338 N  
DOCKED: ATOM     20  C   UNL     1     137.341  76.507 222.781 -0.23 -0.03    +0.120 C  
DOCKED: ATOM     21  C   UNL     1     139.070  78.010 221.988 -0.22 -0.02    +0.088 C  
DOCKED: ATOM     22  C   UNL     1     136.745  77.904 222.686 -0.19 -0.00    +0.024 C  
DOCKED: ATOM     23  C   UNL     1     137.706  78.687 221.799 -0.15 -0.00    +0.027 C  
DOCKED: BRANCH  21  24
DOCKED: ATOM     24  C   UNL     1     139.904  78.675 223.133 -0.36 -0.00    +0.012 C  
DOCKED: ATOM     25  C   UNL     1     141.407  78.275 223.092 -0.53 -0.00    +0.006 C  
DOCKED: ATOM     26  C   UNL     1     139.728  80.225 223.130 -0.40 -0.00    +0.006 C  
DOCKED: ATOM     27  C   UNL     1     142.231  79.247 222.238 -0.50 -0.00    +0.000 C  
DOCKED: ATOM     28  C   UNL     1     140.959  80.962 223.671 -0.45 -0.00    +0.000 C  
DOCKED: ATOM     29  C   UNL     1     142.209  80.673 222.820 -0.61 -0.00    +0.000 C  
DOCKED: ENDBRANCH  21  24
DOCKED: ENDBRANCH  17  19
DOCKED: ENDBRANCH  16  17
DOCKED: ENDBRANCH   1  16
DOCKED: TORSDOF 7
DOCKED: TER
DOCKED: ENDMDL
________________________________________________________________________________


    FINAL DOCKED STATE:
    ________________________


Run:   20 / 20
Time taken for this run:   0.036s

DOCKED: MODEL        20
DOCKED: USER    Run = 20
DOCKED: USER
DOCKED: USER    Estimated Free Energy of Binding    =  -8.25 kcal/mol  [=(1)+(2)+(3)-(4)]
DOCKED: USER
DOCKED: USER    (1) Final Intermolecular Energy     = -10.33 kcal/mol
DOCKED: USER        vdW + Hbond + desolv Energy     = -10.25 kcal/mol
DOCKED: USER        Electrostatic Energy            =  -0.09 kcal/mol
DOCKED: USER        Moving Ligand-Fixed Receptor    = -10.33 kcal/mol
DOCKED: USER        Moving Ligand-Moving Receptor   =  +0.00 kcal/mol
DOCKED: USER    (2) Final Total Internal Energy     =  -1.59 kcal/mol
DOCKED: USER    (3) Torsional Free Energy           =  +2.09 kcal/mol
DOCKED: USER    (4) Unbound System's Energy         =  -1.59 kcal/mol
DOCKED: USER
DOCKED: USER
DOCKED: REMARK SMILES O=C(C/N=C(\O)c1ccc2cc(F)ccc2n1)N1CCC[C@H]1C1CCCCC1
DOCKED: REMARK SMILES IDX 4 1 5 2 6 3 7 5 17 6 8 7 16 8 9 9 15 10 10 11 14 12 11 13
DOCKED: REMARK SMILES IDX 12 14 13 15 3 16 2 17 1 18 18 19 19 20 22 21 20 22 21 23
DOCKED: REMARK SMILES IDX 23 24 24 25 28 26 25 27 27 28 26 29
DOCKED: REMARK H PARENT 6 4
DOCKED: USER                              x       y       z     vdW  Elec       q    Type
DOCKED: USER                           _______ _______ _______ _____ _____    ______ ____
DOCKED: ROOT
DOCKED: ATOM      1  N   UNL     1     140.440  72.133 221.991 -0.20 +0.03    -0.240 NA 
DOCKED: ENDROOT
DOCKED: BRANCH   1   2
DOCKED: ATOM      2  C   UNL     1     139.435  71.909 222.789 -0.21 -0.05    +0.233 C  
DOCKED: BRANCH   2   3
DOCKED: ATOM      3  O   UNL     1     138.212  72.569 222.636 -0.04 +0.18    -0.492 OA 
DOCKED: ATOM      4  H   UNL     1     138.090  73.559 222.803 -0.48 -0.16    +0.295 HD 
DOCKED: ENDBRANCH   2   3
DOCKED: BRANCH   2   5
DOCKED: ATOM      5  C   UNL     1     139.594  70.923 223.875 -0.31 -0.02    +0.125 A  
DOCKED: ATOM      6  N   UNL     1     140.155  71.311 225.056 -0.31 +0.04    -0.243 NA 
DOCKED: ATOM      7  C   UNL     1     139.194  69.589 223.706 -0.27 -0.01    +0.035 A  
DOCKED: ATOM      8  C   UNL     1     140.340  70.445 226.087 -0.50 -0.01    +0.071 A  
DOCKED: ATOM      9  C   UNL     1     139.372  68.676 224.747 -0.36 -0.00    +0.013 A  
DOCKED: ATOM     10  C   UNL     1     140.920  70.887 227.281 -0.65 -0.01    +0.032 A  
DOCKED: ATOM     11  C   UNL     1     139.949  69.095 225.952 -0.50 -0.00    +0.003 A  
DOCKED: ATOM     12  C   UNL     1     141.111  69.993 228.339 -0.51 -0.01    +0.041 A  
DOCKED: ATOM     13  C   UNL     1     140.144  68.203 227.018 -0.62 -0.01    +0.049 A  
DOCKED: ATOM     14  C   UNL     1     140.725  68.654 228.208 -0.55 -0.03    +0.123 A  
DOCKED: ATOM     15  F   UNL     1     140.913  67.793 229.238 -0.16 +0.06    -0.207 F  
DOCKED: ENDBRANCH   2   5
DOCKED: ENDBRANCH   1   2
DOCKED: BRANCH   1  16
DOCKED: ATOM     16  C   UNL     1     140.437  73.003 220.817 -0.13 -0.04    +0.246 C  
DOCKED: BRANCH  16  17
DOCKED: ATOM     17  C   UNL     1     140.373  74.448 221.232 -0.20 -0.04    +0.244 C  
DOCKED: ATOM     18  O   UNL     1     139.837  74.740 222.333 -0.75 +0.02    -0.273 OA 
DOCKED: BRANCH  17  19
DOCKED: ATOM     19  N   UNL     1     140.878  75.504 220.392 -0.08 +0.10    -0.338 N  
DOCKED: ATOM     20  C   UNL     1     140.844  75.359 218.944 -0.06 -0.04    +0.120 C  
DOCKED: ATOM     21  C   UNL     1     141.795  76.563 220.821 -0.12 -0.05    +0.088 C  
DOCKED: ATOM     22  C   UNL     1     141.851  76.363 218.401 -0.17 -0.01    +0.024 C  
DOCKED: ATOM     23  C   UNL     1     142.702  76.762 219.600 -0.35 -0.02    +0.027 C  
DOCKED: BRANCH  21  24
DOCKED: ATOM     24  C   UNL     1     141.016  77.868 221.195 -0.32 -0.01    +0.012 C  
DOCKED: ATOM     25  C   UNL     1     140.662  77.944 222.708 -0.45 -0.00    +0.006 C  
DOCKED: ATOM     26  C   UNL     1     141.792  79.139 220.729 -0.31 -0.00    +0.006 C  
DOCKED: ATOM     27  C   UNL     1     141.763  78.641 223.516 -0.60 -0.00    +0.000 C  
DOCKED: ATOM     28  C   UNL     1     141.519  80.359 221.616 -0.42 -0.00    +0.000 C  
DOCKED: ATOM     29  C   UNL     1     141.951  80.105 223.072 -0.62 -0.00    +0.000 C  
DOCKED: ENDBRANCH  21  24
DOCKED: ENDBRANCH  17  19
DOCKED: ENDBRANCH  16  17
DOCKED: ENDBRANCH   1  16
DOCKED: TORSDOF 7
DOCKED: TER
DOCKED: ENDMDL
________________________________________________________________________________


    CLUSTERING HISTOGRAM
    ____________________


________________________________________________________________________________
     |           |     |           |     |
Clus | Lowest    | Run | Mean      | Num | Histogram
-ter | Binding   |     | Binding   | in  |
Rank | Energy    |     | Energy    | Clus|    5    10   15   20   25   30   35
_____|___________|_____|___________|_____|____:____|____:____|____:____|____:___
   1 |     -8.25 |  20 |     -8.05 |   8 |########
   2 |     -8.16 |  14 |     -7.83 |   8 |########
   3 |     -7.79 |  16 |     -7.79 |   1 |#
   4 |     -6.77 |   5 |     -6.77 |   1 |#
   5 |     -6.25 |   3 |     -6.25 |   1 |#
   6 |     -5.57 |   4 |     -5.57 |   1 |#
_____|___________|_____|___________|_____|______________________________________


    RMSD TABLE
    __________


_______________________________________________________________________
     |      |      |           |         |                 |
Rank | Sub- | Run  | Binding   | Cluster | Reference       | Grep
     | Rank |      | Energy    | RMSD    | RMSD            | Pattern
_____|______|______|___________|_________|_________________|___________
   1      1     20       -8.25      0.00    271.58           RANKING
   1      2      1       -8.24      0.67    271.58           RANKING
   1      3      8       -8.20      0.56    271.56           RANKING
   1      4      9       -8.13      0.68    271.68           RANKING
   1      5      7       -8.09      0.74    271.68           RANKING
   1      6      6       -7.94      1.57    271.69           RANKING
   1      7     19       -7.90      1.80    271.95           RANKING
   1      8     12       -7.65      1.15    271.63           RANKING
   2      1     14       -8.16      0.00    271.62           RANKING
   2      2     18       -8.02      1.32    271.74           RANKING
   2      3     13       -7.87      1.02    271.57           RANKING
   2      4     11       -7.79      1.06    271.40           RANKING
   2      5     10       -7.77      1.09    271.37           RANKING
   2      6     15       -7.77      1.12    271.37           RANKING
   2      7      2       -7.67      1.89    271.53           RANKING
   2      8     17       -7.59      0.92    271.36           RANKING
   3      1     16       -7.79      0.00    271.39           RANKING
   4      1      5       -6.77      0.00    271.53           RANKING
   5      1      3       -6.25      0.00    271.10           RANKING
   6      1      4       -5.57      0.00    271.06           RANKING

Run time 0.677 sec
Idle time 0.000 sec
