AutoDock-GPU version: v1.6

**********************************************************
**    AutoDock-GPU AUTODOCKTOOLS-COMPATIBLE DLG FILE    **
**********************************************************


    DOCKING PARAMETERS
    ________________________


Ligand file:                               /home/a/REINVENT4/ReinventStudies/pleaseWork/justmol2mol_4_Compounds_ontop/graph-dock-8u2o5u/graph-DockGPU/node-autodockgpu/inputs/QOGCSCJFXGDBSP-DTOMGZTRNA-N.pdbqt
Grid fld file:                             /home/a/REINVENT4/ReinventStudies/mols/Rad51/maps/rad51_receptor.maps.fld

Random seed:                               42
Number of runs:                            20
Number of energy evaluations:              1259779
Number of generations:                     42000
Size of population:                        150
Rate of crossover:                         80.000000%
Tournament selection probability limit:    60.000000%
Rate of mutation:                          2.000000%
Maximal allowed delta movement:            +/- 6.000000A
Maximal allowed delta angle:               +/- 90.000000

Rate of local search:                      100.000000%
Maximal number of local search iterations: 300
Rho lower bound:                           0.010000
Spread of local search delta movement:     2.000000A
Spread of local search delta angle:        74.999999
Limit of consecutive successes/failures:   4

Handle symmetry during clustering:         YES
RMSD tolerance:                            2.000000A

Program call in command line was:          /home/a/REINVENT4/ReinventStudies/adgpu-v1.6_linux_x64_cuda12_128wi --filelist batch.txt --heuristics 1 --nrun 20 --psize 150 --lsit 300 --seed 42 --heurmax 12000000 


    GRID PARAMETERS
    ________________________


Receptor name:                             rad51_receptor
Number of grid points (x, y, z):           53, 53, 53
Grid center (x, y, z):                     139.950000, 75.640000, 221.970000A
Grid size (x, y, z):                       19.500000, 19.500000, 19.500000A
Grid spacing:                              0.375000A


    LIGAND PARAMETERS
    ________________________


Ligand name:                               /home/a/REINVENT4/ReinventStudies/pleaseWork/justmol2mol_4_Compounds_ontop/graph-dock-8u2o5u/graph-DockGPU/node-autodockgpu/inputs/QOGCSCJFXGDBSP-DTOMGZTRNA-N
Number of atoms:                           29
Number of rotatable bonds:                 7
Number of atom types:                      7


    DUMMY DATA (only for ADT-compatibility)
    ________________________


DPF> outlev 1
DPF> ga_run 20
DPF> fld /home/a/REINVENT4/ReinventStudies/mols/Rad51/maps/rad51_receptor.maps.fld
DPF> move /home/a/REINVENT4/ReinventStudies/pleaseWork/justmol2mol_4_Compounds_ontop/graph-dock-8u2o5u/graph-DockGPU/node-autodockgpu/inputs/QOGCSCJFXGDBSP-DTOMGZTRNA-N.pdbqt


    COUNTER STATES
    ________________________


Number of energy evaluations performed:    1143651
Number of generations used:                55


    INPUT LIGAND PDBQT FILE:
    ________________________


INPUT-LIGAND-PDBQT: REMARK SMILES O=C(C/N=C(/O)c1ccc2cc(F)ccc2n1)N1CCC[C@H]1C1CCCCC1
INPUT-LIGAND-PDBQT: REMARK SMILES IDX 4 1 5 2 6 3 7 5 17 6 8 7 16 8 9 9 15 10 10 11 14 12 11 13
INPUT-LIGAND-PDBQT: REMARK SMILES IDX 12 14 13 15 3 16 2 17 1 18 18 19 19 20 22 21 20 22 21 23
INPUT-LIGAND-PDBQT: REMARK SMILES IDX 23 24 24 25 28 26 25 27 27 28 26 29
INPUT-LIGAND-PDBQT: REMARK H PARENT 6 4
INPUT-LIGAND-PDBQT: ROOT
INPUT-LIGAND-PDBQT: ATOM      1  N   UNL     1      -0.356  -2.162   0.565  1.00  0.00    -0.240 NA
INPUT-LIGAND-PDBQT: ENDROOT
INPUT-LIGAND-PDBQT: BRANCH   1   2
INPUT-LIGAND-PDBQT: ATOM      2  C   UNL     1      -1.462  -2.847   0.681  1.00  0.00     0.233 C 
INPUT-LIGAND-PDBQT: BRANCH   2   3
INPUT-LIGAND-PDBQT: ATOM      3  O   UNL     1      -1.569  -3.742   1.745  1.00  0.00    -0.492 OA
INPUT-LIGAND-PDBQT: ATOM      4  H   UNL     1      -0.817  -3.854   2.417  1.00  0.00     0.295 HD
INPUT-LIGAND-PDBQT: ENDBRANCH   2   3
INPUT-LIGAND-PDBQT: BRANCH   2   5
INPUT-LIGAND-PDBQT: ATOM      5  C   UNL     1      -2.617  -2.727  -0.258  1.00  0.00     0.125 A 
INPUT-LIGAND-PDBQT: ATOM      6  N   UNL     1      -2.698  -1.693  -1.140  1.00  0.00    -0.243 NA
INPUT-LIGAND-PDBQT: ATOM      7  C   UNL     1      -3.663  -3.669  -0.217  1.00  0.00     0.035 A 
INPUT-LIGAND-PDBQT: ATOM      8  C   UNL     1      -3.740  -1.540  -1.994  1.00  0.00     0.071 A 
INPUT-LIGAND-PDBQT: ATOM      9  C   UNL     1      -4.750  -3.544  -1.082  1.00  0.00     0.013 A 
INPUT-LIGAND-PDBQT: ATOM     10  C   UNL     1      -3.763  -0.458  -2.885  1.00  0.00     0.032 A 
INPUT-LIGAND-PDBQT: ATOM     11  C   UNL     1      -4.800  -2.475  -1.983  1.00  0.00     0.003 A 
INPUT-LIGAND-PDBQT: ATOM     12  C   UNL     1      -4.842  -0.300  -3.757  1.00  0.00     0.041 A 
INPUT-LIGAND-PDBQT: ATOM     13  C   UNL     1      -5.877  -2.312  -2.863  1.00  0.00     0.049 A 
INPUT-LIGAND-PDBQT: ATOM     14  C   UNL     1      -5.898  -1.221  -3.746  1.00  0.00     0.123 A 
INPUT-LIGAND-PDBQT: ATOM     15  F   UNL     1      -6.952  -1.048  -4.578  1.00  0.00    -0.207 F 
INPUT-LIGAND-PDBQT: ENDBRANCH   2   5
INPUT-LIGAND-PDBQT: ENDBRANCH   1   2
INPUT-LIGAND-PDBQT: BRANCH   1  16
INPUT-LIGAND-PDBQT: ATOM     16  C   UNL     1      -0.021  -1.193  -0.477  1.00  0.00     0.246 C 
INPUT-LIGAND-PDBQT: BRANCH  16  17
INPUT-LIGAND-PDBQT: ATOM     17  C   UNL     1       1.410  -0.730  -0.353  1.00  0.00     0.244 C 
INPUT-LIGAND-PDBQT: ATOM     18  O   UNL     1       2.214  -1.395   0.335  1.00  0.00    -0.273 OA
INPUT-LIGAND-PDBQT: BRANCH  17  19
INPUT-LIGAND-PDBQT: ATOM     19  N   UNL     1       1.872   0.429  -1.079  1.00  0.00    -0.338 N 
INPUT-LIGAND-PDBQT: ATOM     20  C   UNL     1       1.084   1.037  -2.140  1.00  0.00     0.120 C 
INPUT-LIGAND-PDBQT: ATOM     21  C   UNL     1       3.256   0.914  -1.058  1.00  0.00     0.088 C 
INPUT-LIGAND-PDBQT: ATOM     22  C   UNL     1       2.064   1.778  -3.033  1.00  0.00     0.024 C 
INPUT-LIGAND-PDBQT: ATOM     23  C   UNL     1       3.377   1.868  -2.260  1.00  0.00     0.027 C 
INPUT-LIGAND-PDBQT: BRANCH  21  24
INPUT-LIGAND-PDBQT: ATOM     24  C   UNL     1       3.652   1.625   0.282  1.00  0.00     0.012 C 
INPUT-LIGAND-PDBQT: ATOM     25  C   UNL     1       4.482   0.716   1.212  1.00  0.00     0.006 C 
INPUT-LIGAND-PDBQT: ATOM     26  C   UNL     1       2.451   2.234   1.043  1.00  0.00     0.006 C 
INPUT-LIGAND-PDBQT: ATOM     27  C   UNL     1       4.941   1.493   2.451  1.00  0.00     0.000 C 
INPUT-LIGAND-PDBQT: ATOM     28  C   UNL     1       2.912   2.979   2.302  1.00  0.00     0.000 C 
INPUT-LIGAND-PDBQT: ATOM     29  C   UNL     1       3.746   2.072   3.209  1.00  0.00     0.000 C 
INPUT-LIGAND-PDBQT: ENDBRANCH  21  24
INPUT-LIGAND-PDBQT: ENDBRANCH  17  19
INPUT-LIGAND-PDBQT: ENDBRANCH  16  17
INPUT-LIGAND-PDBQT: ENDBRANCH   1  16
INPUT-LIGAND-PDBQT: TORSDOF 7


    FINAL DOCKED STATE:
    ________________________


Run:   1 / 20
Time taken for this run:   0.045s

DOCKED: MODEL        1
DOCKED: USER    Run = 1
DOCKED: USER
DOCKED: USER    Estimated Free Energy of Binding    =  -8.17 kcal/mol  [=(1)+(2)+(3)-(4)]
DOCKED: USER
DOCKED: USER    (1) Final Intermolecular Energy     = -10.26 kcal/mol
DOCKED: USER        vdW + Hbond + desolv Energy     = -10.20 kcal/mol
DOCKED: USER        Electrostatic Energy            =  -0.06 kcal/mol
DOCKED: USER        Moving Ligand-Fixed Receptor    = -10.26 kcal/mol
DOCKED: USER        Moving Ligand-Moving Receptor   =  +0.00 kcal/mol
DOCKED: USER    (2) Final Total Internal Energy     =  -1.69 kcal/mol
DOCKED: USER    (3) Torsional Free Energy           =  +2.09 kcal/mol
DOCKED: USER    (4) Unbound System's Energy         =  -1.69 kcal/mol
DOCKED: USER
DOCKED: USER
DOCKED: REMARK SMILES O=C(C/N=C(/O)c1ccc2cc(F)ccc2n1)N1CCC[C@H]1C1CCCCC1
DOCKED: REMARK SMILES IDX 4 1 5 2 6 3 7 5 17 6 8 7 16 8 9 9 15 10 10 11 14 12 11 13
DOCKED: REMARK SMILES IDX 12 14 13 15 3 16 2 17 1 18 18 19 19 20 22 21 20 22 21 23
DOCKED: REMARK SMILES IDX 23 24 24 25 28 26 25 27 27 28 26 29
DOCKED: REMARK H PARENT 6 4
DOCKED: USER                              x       y       z     vdW  Elec       q    Type
DOCKED: USER                           _______ _______ _______ _____ _____    ______ ____
DOCKED: ROOT
DOCKED: ATOM      1  N   UNL     1     141.154  72.461 221.768 -0.20 +0.02    -0.240 NA 
DOCKED: ENDROOT
DOCKED: BRANCH   1   2
DOCKED: ATOM      2  C   UNL     1     140.134  72.343 222.576 -0.22 -0.03    +0.233 C  
DOCKED: BRANCH   2   3
DOCKED: ATOM      3  O   UNL     1     139.034  73.173 222.366 -0.22 +0.14    -0.492 OA 
DOCKED: ATOM      4  H   UNL     1     138.980  74.095 222.788 -0.49 -0.12    +0.295 HD 
DOCKED: ENDBRANCH   2   3
DOCKED: BRANCH   2   5
DOCKED: ATOM      5  C   UNL     1     140.078  71.372 223.709 -0.34 -0.02    +0.125 A  
DOCKED: ATOM      6  N   UNL     1     140.574  71.696 224.935 -0.30 +0.04    -0.243 NA 
DOCKED: ATOM      7  C   UNL     1     139.542  70.085 223.512 -0.27 -0.01    +0.035 A  
DOCKED: ATOM      8  C   UNL     1     140.558  70.835 225.981 -0.54 -0.01    +0.071 A  
DOCKED: ATOM      9  C   UNL     1     139.508  69.173 224.566 -0.34 -0.00    +0.013 A  
DOCKED: ATOM     10  C   UNL     1     141.077  71.230 227.222 -0.70 -0.01    +0.032 A  
DOCKED: ATOM     11  C   UNL     1     140.017  69.539 225.817 -0.47 -0.00    +0.003 A  
DOCKED: ATOM     12  C   UNL     1     141.066  70.337 228.295 -0.53 -0.01    +0.041 A  
DOCKED: ATOM     13  C   UNL     1     140.007  68.650 226.898 -0.58 -0.01    +0.049 A  
DOCKED: ATOM     14  C   UNL     1     140.536  69.049 228.136 -0.53 -0.02    +0.123 A  
DOCKED: ATOM     15  F   UNL     1     140.551  68.181 229.174 -0.16 +0.05    -0.207 F  
DOCKED: ENDBRANCH   2   5
DOCKED: ENDBRANCH   1   2
DOCKED: BRANCH   1  16
DOCKED: ATOM     16  C   UNL     1     141.247  73.304 220.578 -0.13 -0.04    +0.246 C  
DOCKED: BRANCH  16  17
DOCKED: ATOM     17  C   UNL     1     141.262  74.768 220.945 -0.20 -0.06    +0.244 C  
DOCKED: ATOM     18  O   UNL     1     140.690  75.146 221.990 -0.63 +0.03    -0.273 OA 
DOCKED: BRANCH  17  19
DOCKED: ATOM     19  N   UNL     1     141.991  75.719 220.140 -0.12 +0.15    -0.338 N  
DOCKED: ATOM     20  C   UNL     1     141.875  77.154 220.350 -0.24 -0.07    +0.120 C  
DOCKED: ATOM     21  C   UNL     1     142.652  75.388 218.873 -0.21 -0.04    +0.088 C  
DOCKED: ATOM     22  C   UNL     1     142.252  77.813 219.035 -0.29 -0.02    +0.024 C  
DOCKED: ATOM     23  C   UNL     1     142.919  76.737 218.183 -0.30 -0.02    +0.027 C  
DOCKED: BRANCH  21  24
DOCKED: ATOM     24  C   UNL     1     143.972  74.561 219.051 -0.26 -0.00    +0.012 C  
DOCKED: ATOM     25  C   UNL     1     143.856  73.130 218.485 -0.17 -0.00    +0.006 C  
DOCKED: ATOM     26  C   UNL     1     144.499  74.533 220.505 -0.42 -0.00    +0.006 C  
DOCKED: ATOM     27  C   UNL     1     145.204  72.406 218.578 -0.26 +0.00    +0.000 C  
DOCKED: ATOM     28  C   UNL     1     145.829  73.775 220.598 -0.65 -0.00    +0.000 C  
DOCKED: ATOM     29  C   UNL     1     145.705  72.363 220.021 -0.44 +0.00    +0.000 C  
DOCKED: ENDBRANCH  21  24
DOCKED: ENDBRANCH  17  19
DOCKED: ENDBRANCH  16  17
DOCKED: ENDBRANCH   1  16
DOCKED: TORSDOF 7
DOCKED: TER
DOCKED: ENDMDL
________________________________________________________________________________


    FINAL DOCKED STATE:
    ________________________


Run:   2 / 20
Time taken for this run:   0.045s

DOCKED: MODEL        2
DOCKED: USER    Run = 2
DOCKED: USER
DOCKED: USER    Estimated Free Energy of Binding    =  -7.21 kcal/mol  [=(1)+(2)+(3)-(4)]
DOCKED: USER
DOCKED: USER    (1) Final Intermolecular Energy     =  -9.29 kcal/mol
DOCKED: USER        vdW + Hbond + desolv Energy     =  -9.22 kcal/mol
DOCKED: USER        Electrostatic Energy            =  -0.07 kcal/mol
DOCKED: USER        Moving Ligand-Fixed Receptor    =  -9.29 kcal/mol
DOCKED: USER        Moving Ligand-Moving Receptor   =  +0.00 kcal/mol
DOCKED: USER    (2) Final Total Internal Energy     =  -1.91 kcal/mol
DOCKED: USER    (3) Torsional Free Energy           =  +2.09 kcal/mol
DOCKED: USER    (4) Unbound System's Energy         =  -1.91 kcal/mol
DOCKED: USER
DOCKED: USER
DOCKED: REMARK SMILES O=C(C/N=C(/O)c1ccc2cc(F)ccc2n1)N1CCC[C@H]1C1CCCCC1
DOCKED: REMARK SMILES IDX 4 1 5 2 6 3 7 5 17 6 8 7 16 8 9 9 15 10 10 11 14 12 11 13
DOCKED: REMARK SMILES IDX 12 14 13 15 3 16 2 17 1 18 18 19 19 20 22 21 20 22 21 23
DOCKED: REMARK SMILES IDX 23 24 24 25 28 26 25 27 27 28 26 29
DOCKED: REMARK H PARENT 6 4
DOCKED: USER                              x       y       z     vdW  Elec       q    Type
DOCKED: USER                           _______ _______ _______ _____ _____    ______ ____
DOCKED: ROOT
DOCKED: ATOM      1  N   UNL     1     134.007  69.681 224.221 -0.06 +0.02    -0.240 NA 
DOCKED: ENDROOT
DOCKED: BRANCH   1   2
DOCKED: ATOM      2  C   UNL     1     133.792  69.946 225.481 -0.16 -0.02    +0.233 C  
DOCKED: BRANCH   2   3
DOCKED: ATOM      3  O   UNL     1     133.918  68.904 226.400 -0.68 -0.02    -0.492 OA 
DOCKED: ATOM      4  H   UNL     1     134.687  68.245 226.346 +0.15 -0.02    +0.295 HD 
DOCKED: ENDBRANCH   2   3
DOCKED: BRANCH   2   5
DOCKED: ATOM      5  C   UNL     1     133.419  71.298 225.995 -0.24 -0.01    +0.125 A  
DOCKED: ATOM      6  N   UNL     1     134.140  72.400 225.652 -0.18 +0.01    -0.243 NA 
DOCKED: ATOM      7  C   UNL     1     132.331  71.444 226.877 -0.31 -0.00    +0.035 A  
DOCKED: ATOM      8  C   UNL     1     133.844  73.641 226.113 -0.30 +0.00    +0.071 A  
DOCKED: ATOM      9  C   UNL     1     131.997  72.705 227.370 -0.40 -0.00    +0.013 A  
DOCKED: ATOM     10  C   UNL     1     134.620  74.739 225.717 -0.37 -0.00    +0.032 A  
DOCKED: ATOM     11  C   UNL     1     132.752  73.821 226.992 -0.39 -0.00    +0.003 A  
DOCKED: ATOM     12  C   UNL     1     134.317  76.013 226.202 -0.36 -0.00    +0.041 A  
DOCKED: ATOM     13  C   UNL     1     132.452  75.102 227.471 -0.37 +0.00    +0.049 A  
DOCKED: ATOM     14  C   UNL     1     133.238  76.196 227.078 -0.32 -0.00    +0.123 A  
DOCKED: ATOM     15  F   UNL     1     132.965  77.431 227.562 -0.10 +0.02    -0.207 F  
DOCKED: ENDBRANCH   2   5
DOCKED: ENDBRANCH   1   2
DOCKED: BRANCH   1  16
DOCKED: ATOM     16  C   UNL     1     135.237  69.913 223.466 -0.08 -0.03    +0.246 C  
DOCKED: BRANCH  16  17
DOCKED: ATOM     17  C   UNL     1     136.456  69.729 224.337 -0.15 -0.02    +0.244 C  
DOCKED: ATOM     18  O   UNL     1     136.439  68.870 225.245 -0.17 +0.00    -0.273 OA 
DOCKED: BRANCH  17  19
DOCKED: ATOM     19  N   UNL     1     137.661  70.482 224.082 -0.11 +0.06    -0.338 N  
DOCKED: ATOM     20  C   UNL     1     137.661  71.672 223.246 -0.12 -0.04    +0.120 C  
DOCKED: ATOM     21  C   UNL     1     139.013  69.986 224.355 -0.31 -0.01    +0.088 C  
DOCKED: ATOM     22  C   UNL     1     139.079  71.831 222.724 -0.26 -0.01    +0.024 C  
DOCKED: ATOM     23  C   UNL     1     139.958  70.907 223.563 -0.34 -0.00    +0.027 C  
DOCKED: BRANCH  21  24
DOCKED: ATOM     24  C   UNL     1     139.378  69.964 225.880 -0.41 -0.00    +0.012 C  
DOCKED: ATOM     25  C   UNL     1     140.450  71.010 226.248 -0.62 -0.00    +0.006 C  
DOCKED: ATOM     26  C   UNL     1     139.777  68.564 226.405 -0.59 -0.00    +0.006 C  
DOCKED: ATOM     27  C   UNL     1     140.685  71.027 227.762 -0.75 -0.00    +0.000 C  
DOCKED: ATOM     28  C   UNL     1     140.047  68.594 227.914 -0.66 -0.00    +0.000 C  
DOCKED: ATOM     29  C   UNL     1     141.101  69.645 228.269 -0.56 -0.00    +0.000 C  
DOCKED: ENDBRANCH  21  24
DOCKED: ENDBRANCH  17  19
DOCKED: ENDBRANCH  16  17
DOCKED: ENDBRANCH   1  16
DOCKED: TORSDOF 7
DOCKED: TER
DOCKED: ENDMDL
________________________________________________________________________________


    FINAL DOCKED STATE:
    ________________________


Run:   3 / 20
Time taken for this run:   0.045s

DOCKED: MODEL        3
DOCKED: USER    Run = 3
DOCKED: USER
DOCKED: USER    Estimated Free Energy of Binding    =  -7.44 kcal/mol  [=(1)+(2)+(3)-(4)]
DOCKED: USER
DOCKED: USER    (1) Final Intermolecular Energy     =  -9.52 kcal/mol
DOCKED: USER        vdW + Hbond + desolv Energy     =  -9.46 kcal/mol
DOCKED: USER        Electrostatic Energy            =  -0.07 kcal/mol
DOCKED: USER        Moving Ligand-Fixed Receptor    =  -9.52 kcal/mol
DOCKED: USER        Moving Ligand-Moving Receptor   =  +0.00 kcal/mol
DOCKED: USER    (2) Final Total Internal Energy     =  -1.86 kcal/mol
DOCKED: USER    (3) Torsional Free Energy           =  +2.09 kcal/mol
DOCKED: USER    (4) Unbound System's Energy         =  -1.86 kcal/mol
DOCKED: USER
DOCKED: USER
DOCKED: REMARK SMILES O=C(C/N=C(/O)c1ccc2cc(F)ccc2n1)N1CCC[C@H]1C1CCCCC1
DOCKED: REMARK SMILES IDX 4 1 5 2 6 3 7 5 17 6 8 7 16 8 9 9 15 10 10 11 14 12 11 13
DOCKED: REMARK SMILES IDX 12 14 13 15 3 16 2 17 1 18 18 19 19 20 22 21 20 22 21 23
DOCKED: REMARK SMILES IDX 23 24 24 25 28 26 25 27 27 28 26 29
DOCKED: REMARK H PARENT 6 4
DOCKED: USER                              x       y       z     vdW  Elec       q    Type
DOCKED: USER                           _______ _______ _______ _____ _____    ______ ____
DOCKED: ROOT
DOCKED: ATOM      1  N   UNL     1     140.037  73.395 222.612 -0.67 +0.01    -0.240 NA 
DOCKED: ENDROOT
DOCKED: BRANCH   1   2
DOCKED: ATOM      2  C   UNL     1     140.276  72.113 222.546 -0.23 -0.03    +0.233 C  
DOCKED: BRANCH   2   3
DOCKED: ATOM      3  O   UNL     1     140.674  71.584 221.319 -0.06 +0.07    -0.492 OA 
DOCKED: ATOM      4  H   UNL     1     140.356  71.985 220.444 +0.07 -0.05    +0.295 HD 
DOCKED: ENDBRANCH   2   3
DOCKED: BRANCH   2   5
DOCKED: ATOM      5  C   UNL     1     140.149  71.183 223.707 -0.33 -0.02    +0.125 A  
DOCKED: ATOM      6  N   UNL     1     140.636  71.521 224.933 -0.32 +0.03    -0.243 NA 
DOCKED: ATOM      7  C   UNL     1     139.551  69.919 223.539 -0.25 -0.01    +0.035 A  
DOCKED: ATOM      8  C   UNL     1     140.557  70.695 226.005 -0.53 -0.01    +0.071 A  
DOCKED: ATOM      9  C   UNL     1     139.451  69.044 224.621 -0.34 -0.00    +0.013 A  
DOCKED: ATOM     10  C   UNL     1     141.070  71.104 227.244 -0.68 -0.01    +0.032 A  
DOCKED: ATOM     11  C   UNL     1     139.953  69.424 225.870 -0.48 -0.00    +0.003 A  
DOCKED: ATOM     12  C   UNL     1     140.994  70.247 228.344 -0.52 -0.01    +0.041 A  
DOCKED: ATOM     13  C   UNL     1     139.877  68.572 226.978 -0.58 -0.01    +0.049 A  
DOCKED: ATOM     14  C   UNL     1     140.402  68.983 228.213 -0.54 -0.02    +0.123 A  
DOCKED: ATOM     15  F   UNL     1     140.352  68.149 229.278 -0.13 +0.05    -0.207 F  
DOCKED: ENDBRANCH   2   5
DOCKED: ENDBRANCH   1   2
DOCKED: BRANCH   1  16
DOCKED: ATOM     16  C   UNL     1     139.327  74.214 221.630 -0.18 -0.05    +0.246 C  
DOCKED: BRANCH  16  17
DOCKED: ATOM     17  C   UNL     1     140.137  74.377 220.367 -0.10 -0.05    +0.244 C  
DOCKED: ATOM     18  O   UNL     1     139.799  73.757 219.336 -0.02 +0.06    -0.273 OA 
DOCKED: BRANCH  17  19
DOCKED: ATOM     19  N   UNL     1     141.249  75.296 220.322 -0.09 +0.11    -0.338 N  
DOCKED: ATOM     20  C   UNL     1     141.149  76.652 220.841 -0.25 -0.05    +0.120 C  
DOCKED: ATOM     21  C   UNL     1     142.448  75.095 219.502 -0.23 -0.03    +0.088 C  
DOCKED: ATOM     22  C   UNL     1     142.207  77.468 220.119 -0.29 -0.02    +0.024 C  
DOCKED: ATOM     23  C   UNL     1     143.139  76.469 219.438 -0.37 -0.02    +0.027 C  
DOCKED: BRANCH  21  24
DOCKED: ATOM     24  C   UNL     1     143.413  73.992 220.061 -0.34 -0.00    +0.012 C  
DOCKED: ATOM     25  C   UNL     1     144.791  74.558 220.460 -0.44 -0.00    +0.006 C  
DOCKED: ATOM     26  C   UNL     1     143.574  72.773 219.123 -0.19 -0.00    +0.006 C  
DOCKED: ATOM     27  C   UNL     1     145.652  73.467 221.106 -0.67 -0.00    +0.000 C  
DOCKED: ATOM     28  C   UNL     1     144.467  71.699 219.759 -0.30 +0.00    +0.000 C  
DOCKED: ATOM     29  C   UNL     1     145.825  72.275 220.164 -0.39 +0.00    +0.000 C  
DOCKED: ENDBRANCH  21  24
DOCKED: ENDBRANCH  17  19
DOCKED: ENDBRANCH  16  17
DOCKED: ENDBRANCH   1  16
DOCKED: TORSDOF 7
DOCKED: TER
DOCKED: ENDMDL
________________________________________________________________________________


    FINAL DOCKED STATE:
    ________________________


Run:   4 / 20
Time taken for this run:   0.045s

DOCKED: MODEL        4
DOCKED: USER    Run = 4
DOCKED: USER
DOCKED: USER    Estimated Free Energy of Binding    =  -7.85 kcal/mol  [=(1)+(2)+(3)-(4)]
DOCKED: USER
DOCKED: USER    (1) Final Intermolecular Energy     =  -9.94 kcal/mol
DOCKED: USER        vdW + Hbond + desolv Energy     =  -9.85 kcal/mol
DOCKED: USER        Electrostatic Energy            =  -0.09 kcal/mol
DOCKED: USER        Moving Ligand-Fixed Receptor    =  -9.94 kcal/mol
DOCKED: USER        Moving Ligand-Moving Receptor   =  +0.00 kcal/mol
DOCKED: USER    (2) Final Total Internal Energy     =  -1.42 kcal/mol
DOCKED: USER    (3) Torsional Free Energy           =  +2.09 kcal/mol
DOCKED: USER    (4) Unbound System's Energy         =  -1.42 kcal/mol
DOCKED: USER
DOCKED: USER
DOCKED: REMARK SMILES O=C(C/N=C(/O)c1ccc2cc(F)ccc2n1)N1CCC[C@H]1C1CCCCC1
DOCKED: REMARK SMILES IDX 4 1 5 2 6 3 7 5 17 6 8 7 16 8 9 9 15 10 10 11 14 12 11 13
DOCKED: REMARK SMILES IDX 12 14 13 15 3 16 2 17 1 18 18 19 19 20 22 21 20 22 21 23
DOCKED: REMARK SMILES IDX 23 24 24 25 28 26 25 27 27 28 26 29
DOCKED: REMARK H PARENT 6 4
DOCKED: USER                              x       y       z     vdW  Elec       q    Type
DOCKED: USER                           _______ _______ _______ _____ _____    ______ ____
DOCKED: ROOT
DOCKED: ATOM      1  N   UNL     1     140.659  72.203 221.051 -0.11 +0.03    -0.240 NA 
DOCKED: ENDROOT
DOCKED: BRANCH   1   2
DOCKED: ATOM      2  C   UNL     1     140.141  72.505 222.212 -0.22 -0.03    +0.233 C  
DOCKED: BRANCH   2   3
DOCKED: ATOM      3  O   UNL     1     139.616  73.786 222.380 -0.70 +0.07    -0.492 OA 
DOCKED: ATOM      4  H   UNL     1     138.868  73.966 223.043 -0.49 -0.17    +0.295 HD 
DOCKED: ENDBRANCH   2   3
DOCKED: BRANCH   2   5
DOCKED: ATOM      5  C   UNL     1     140.078  71.560 223.366 -0.32 -0.02    +0.125 A  
DOCKED: ATOM      6  N   UNL     1     140.573  71.910 224.585 -0.25 +0.03    -0.243 NA 
DOCKED: ATOM      7  C   UNL     1     139.535  70.271 223.197 -0.25 -0.01    +0.035 A  
DOCKED: ATOM      8  C   UNL     1     140.551  71.072 225.651 -0.53 -0.01    +0.071 A  
DOCKED: ATOM      9  C   UNL     1     139.495  69.384 224.272 -0.31 -0.00    +0.013 A  
DOCKED: ATOM     10  C   UNL     1     141.070  71.493 226.884 -0.72 -0.01    +0.032 A  
DOCKED: ATOM     11  C   UNL     1     140.004  69.776 225.515 -0.45 -0.00    +0.003 A  
DOCKED: ATOM     12  C   UNL     1     141.053  70.624 227.977 -0.63 -0.01    +0.041 A  
DOCKED: ATOM     13  C   UNL     1     139.987  68.911 226.616 -0.53 -0.01    +0.049 A  
DOCKED: ATOM     14  C   UNL     1     140.516  69.336 227.845 -0.52 -0.02    +0.123 A  
DOCKED: ATOM     15  F   UNL     1     140.525  68.491 228.903 -0.17 +0.05    -0.207 F  
DOCKED: ENDBRANCH   2   5
DOCKED: ENDBRANCH   1   2
DOCKED: BRANCH   1  16
DOCKED: ATOM     16  C   UNL     1     141.581  71.108 220.753 -0.01 -0.03    +0.246 C  
DOCKED: BRANCH  16  17
DOCKED: ATOM     17  C   UNL     1     142.476  71.451 219.587 -0.08 -0.03    +0.244 C  
DOCKED: ATOM     18  O   UNL     1     142.192  71.026 218.447 -0.02 +0.04    -0.273 OA 
DOCKED: BRANCH  17  19
DOCKED: ATOM     19  N   UNL     1     143.613  72.322 219.767 -0.08 +0.04    -0.338 N  
DOCKED: ATOM     20  C   UNL     1     144.943  71.957 219.306 -0.25 +0.03    +0.120 C  
DOCKED: ATOM     21  C   UNL     1     143.629  73.477 220.672 -0.28 -0.02    +0.088 C  
DOCKED: ATOM     22  C   UNL     1     145.925  72.752 220.149 -0.51 +0.01    +0.024 C  
DOCKED: ATOM     23  C   UNL     1     145.115  73.835 220.857 -0.55 -0.01    +0.027 C  
DOCKED: BRANCH  21  24
DOCKED: ATOM     24  C   UNL     1     142.804  74.700 220.143 -0.32 -0.00    +0.012 C  
DOCKED: ATOM     25  C   UNL     1     143.703  75.827 219.592 -0.38 -0.00    +0.006 C  
DOCKED: ATOM     26  C   UNL     1     141.793  75.261 221.171 -0.24 -0.00    +0.006 C  
DOCKED: ATOM     27  C   UNL     1     142.848  76.945 218.984 -0.35 -0.00    +0.000 C  
DOCKED: ATOM     28  C   UNL     1     140.966  76.404 220.569 -0.26 -0.00    +0.000 C  
DOCKED: ATOM     29  C   UNL     1     141.868  77.508 220.013 -0.31 -0.00    +0.000 C  
DOCKED: ENDBRANCH  21  24
DOCKED: ENDBRANCH  17  19
DOCKED: ENDBRANCH  16  17
DOCKED: ENDBRANCH   1  16
DOCKED: TORSDOF 7
DOCKED: TER
DOCKED: ENDMDL
________________________________________________________________________________


    FINAL DOCKED STATE:
    ________________________


Run:   5 / 20
Time taken for this run:   0.045s

DOCKED: MODEL        5
DOCKED: USER    Run = 5
DOCKED: USER
DOCKED: USER    Estimated Free Energy of Binding    =  -8.59 kcal/mol  [=(1)+(2)+(3)-(4)]
DOCKED: USER
DOCKED: USER    (1) Final Intermolecular Energy     = -10.68 kcal/mol
DOCKED: USER        vdW + Hbond + desolv Energy     = -10.58 kcal/mol
DOCKED: USER        Electrostatic Energy            =  -0.10 kcal/mol
DOCKED: USER        Moving Ligand-Fixed Receptor    = -10.68 kcal/mol
DOCKED: USER        Moving Ligand-Moving Receptor   =  +0.00 kcal/mol
DOCKED: USER    (2) Final Total Internal Energy     =  -1.55 kcal/mol
DOCKED: USER    (3) Torsional Free Energy           =  +2.09 kcal/mol
DOCKED: USER    (4) Unbound System's Energy         =  -1.55 kcal/mol
DOCKED: USER
DOCKED: USER
DOCKED: REMARK SMILES O=C(C/N=C(/O)c1ccc2cc(F)ccc2n1)N1CCC[C@H]1C1CCCCC1
DOCKED: REMARK SMILES IDX 4 1 5 2 6 3 7 5 17 6 8 7 16 8 9 9 15 10 10 11 14 12 11 13
DOCKED: REMARK SMILES IDX 12 14 13 15 3 16 2 17 1 18 18 19 19 20 22 21 20 22 21 23
DOCKED: REMARK SMILES IDX 23 24 24 25 28 26 25 27 27 28 26 29
DOCKED: REMARK H PARENT 6 4
DOCKED: USER                              x       y       z     vdW  Elec       q    Type
DOCKED: USER                           _______ _______ _______ _____ _____    ______ ____
DOCKED: ROOT
DOCKED: ATOM      1  N   UNL     1     140.975  73.085 222.316 -0.50 -0.00    -0.240 NA 
DOCKED: ENDROOT
DOCKED: BRANCH   1   2
DOCKED: ATOM      2  C   UNL     1     139.912  72.514 222.817 -0.14 -0.04    +0.233 C  
DOCKED: BRANCH   2   3
DOCKED: ATOM      3  O   UNL     1     138.666  72.916 222.336 -0.11 +0.15    -0.492 OA 
DOCKED: ATOM      4  H   UNL     1     138.177  73.709 222.737 -0.49 -0.16    +0.295 HD 
DOCKED: ENDBRANCH   2   3
DOCKED: BRANCH   2   5
DOCKED: ATOM      5  C   UNL     1     139.953  71.458 223.871 -0.35 -0.02    +0.125 A  
DOCKED: ATOM      6  N   UNL     1     140.452  71.724 225.110 -0.29 +0.04    -0.243 NA 
DOCKED: ATOM      7  C   UNL     1     139.508  70.153 223.584 -0.28 -0.01    +0.035 A  
DOCKED: ATOM      8  C   UNL     1     140.524  70.786 226.086 -0.54 -0.01    +0.071 A  
DOCKED: ATOM      9  C   UNL     1     139.566  69.163 224.565 -0.33 -0.00    +0.013 A  
DOCKED: ATOM     10  C   UNL     1     141.041  71.123 227.345 -0.69 -0.01    +0.032 A  
DOCKED: ATOM     11  C   UNL     1     140.075  69.470 225.831 -0.48 -0.00    +0.003 A  
DOCKED: ATOM     12  C   UNL     1     141.120  70.152 228.345 -0.51 -0.01    +0.041 A  
DOCKED: ATOM     13  C   UNL     1     140.155  68.503 226.840 -0.59 -0.01    +0.049 A  
DOCKED: ATOM     14  C   UNL     1     140.682  68.845 228.095 -0.54 -0.03    +0.123 A  
DOCKED: ATOM     15  F   UNL     1     140.785  67.903 229.062 -0.17 +0.06    -0.207 F  
DOCKED: ENDBRANCH   2   5
DOCKED: ENDBRANCH   1   2
DOCKED: BRANCH   1  16
DOCKED: ATOM     16  C   UNL     1     141.027  74.054 221.223 -0.20 -0.04    +0.246 C  
DOCKED: BRANCH  16  17
DOCKED: ATOM     17  C   UNL     1     140.298  75.325 221.585 -0.24 -0.05    +0.244 C  
DOCKED: ATOM     18  O   UNL     1     139.584  75.354 222.609 -0.54 +0.03    -0.273 OA 
DOCKED: BRANCH  17  19
DOCKED: ATOM     19  N   UNL     1     140.479  76.523 220.799 -0.08 +0.11    -0.338 N  
DOCKED: ATOM     20  C   UNL     1     139.763  76.741 219.552 -0.06 -0.04    +0.120 C  
DOCKED: ATOM     21  C   UNL     1     141.584  77.469 220.986 -0.22 -0.05    +0.088 C  
DOCKED: ATOM     22  C   UNL     1     140.594  77.722 218.744 -0.10 -0.01    +0.024 C  
DOCKED: ATOM     23  C   UNL     1     141.615  78.324 219.706 -0.26 -0.02    +0.027 C  
DOCKED: BRANCH  21  24
DOCKED: ATOM     24  C   UNL     1     141.438  78.360 222.268 -0.44 -0.01    +0.012 C  
DOCKED: ATOM     25  C   UNL     1     140.043  79.010 222.383 -0.34 -0.00    +0.006 C  
DOCKED: ATOM     26  C   UNL     1     142.550  79.425 222.417 -0.52 -0.00    +0.006 C  
DOCKED: ATOM     27  C   UNL     1     139.914  79.772 223.706 -0.45 -0.00    +0.000 C  
DOCKED: ATOM     28  C   UNL     1     142.395  80.210 223.725 -0.66 -0.00    +0.000 C  
DOCKED: ATOM     29  C   UNL     1     141.004  80.837 223.834 -0.45 -0.00    +0.000 C  
DOCKED: ENDBRANCH  21  24
DOCKED: ENDBRANCH  17  19
DOCKED: ENDBRANCH  16  17
DOCKED: ENDBRANCH   1  16
DOCKED: TORSDOF 7
DOCKED: TER
DOCKED: ENDMDL
________________________________________________________________________________


    FINAL DOCKED STATE:
    ________________________


Run:   6 / 20
Time taken for this run:   0.045s

DOCKED: MODEL        6
DOCKED: USER    Run = 6
DOCKED: USER
DOCKED: USER    Estimated Free Energy of Binding    =  -8.02 kcal/mol  [=(1)+(2)+(3)-(4)]
DOCKED: USER
DOCKED: USER    (1) Final Intermolecular Energy     = -10.11 kcal/mol
DOCKED: USER        vdW + Hbond + desolv Energy     = -10.06 kcal/mol
DOCKED: USER        Electrostatic Energy            =  -0.05 kcal/mol
DOCKED: USER        Moving Ligand-Fixed Receptor    = -10.11 kcal/mol
DOCKED: USER        Moving Ligand-Moving Receptor   =  +0.00 kcal/mol
DOCKED: USER    (2) Final Total Internal Energy     =  -1.68 kcal/mol
DOCKED: USER    (3) Torsional Free Energy           =  +2.09 kcal/mol
DOCKED: USER    (4) Unbound System's Energy         =  -1.68 kcal/mol
DOCKED: USER
DOCKED: USER
DOCKED: REMARK SMILES O=C(C/N=C(/O)c1ccc2cc(F)ccc2n1)N1CCC[C@H]1C1CCCCC1
DOCKED: REMARK SMILES IDX 4 1 5 2 6 3 7 5 17 6 8 7 16 8 9 9 15 10 10 11 14 12 11 13
DOCKED: REMARK SMILES IDX 12 14 13 15 3 16 2 17 1 18 18 19 19 20 22 21 20 22 21 23
DOCKED: REMARK SMILES IDX 23 24 24 25 28 26 25 27 27 28 26 29
DOCKED: REMARK H PARENT 6 4
DOCKED: USER                              x       y       z     vdW  Elec       q    Type
DOCKED: USER                           _______ _______ _______ _____ _____    ______ ____
DOCKED: ROOT
DOCKED: ATOM      1  N   UNL     1     140.593  72.289 221.336 -0.14 +0.03    -0.240 NA 
DOCKED: ENDROOT
DOCKED: BRANCH   1   2
DOCKED: ATOM      2  C   UNL     1     139.737  72.320 222.322 -0.21 -0.04    +0.233 C  
DOCKED: BRANCH   2   3
DOCKED: ATOM      3  O   UNL     1     138.712  73.264 222.270 -0.13 +0.15    -0.492 OA 
DOCKED: ATOM      4  H   UNL     1     138.770  74.133 222.791 -0.51 -0.14    +0.295 HD 
DOCKED: ENDBRANCH   2   3
DOCKED: BRANCH   2   5
DOCKED: ATOM      5  C   UNL     1     139.791  71.403 223.500 -0.31 -0.02    +0.125 A  
DOCKED: ATOM      6  N   UNL     1     140.344  71.807 224.676 -0.28 +0.04    -0.243 NA 
DOCKED: ATOM      7  C   UNL     1     139.300  70.088 223.396 -0.25 -0.01    +0.035 A  
DOCKED: ATOM      8  C   UNL     1     140.429  70.997 225.761 -0.53 -0.01    +0.071 A  
DOCKED: ATOM      9  C   UNL     1     139.369  69.227 224.491 -0.34 -0.00    +0.013 A  
DOCKED: ATOM     10  C   UNL     1     141.003  71.473 226.948 -0.72 -0.01    +0.032 A  
DOCKED: ATOM     11  C   UNL     1     139.936  69.675 225.690 -0.46 -0.00    +0.003 A  
DOCKED: ATOM     12  C   UNL     1     141.096  70.633 228.059 -0.60 -0.01    +0.041 A  
DOCKED: ATOM     13  C   UNL     1     140.029  68.839 226.810 -0.55 -0.01    +0.049 A  
DOCKED: ATOM     14  C   UNL     1     140.614  69.320 227.992 -0.52 -0.02    +0.123 A  
DOCKED: ATOM     15  F   UNL     1     140.728  68.504 229.066 -0.16 +0.05    -0.207 F  
DOCKED: ENDBRANCH   2   5
DOCKED: ENDBRANCH   1   2
DOCKED: BRANCH   1  16
DOCKED: ATOM     16  C   UNL     1     141.774  73.133 221.163 -0.15 -0.03    +0.246 C  
DOCKED: BRANCH  16  17
DOCKED: ATOM     17  C   UNL     1     141.407  74.597 221.182 -0.19 -0.05    +0.244 C  
DOCKED: ATOM     18  O   UNL     1     140.589  75.015 222.029 -0.66 +0.02    -0.273 OA 
DOCKED: BRANCH  17  19
DOCKED: ATOM     19  N   UNL     1     142.046  75.525 220.280 -0.12 +0.15    -0.338 N  
DOCKED: ATOM     20  C   UNL     1     141.902  76.965 220.428 -0.22 -0.07    +0.120 C  
DOCKED: ATOM     21  C   UNL     1     142.621  75.148 218.984 -0.20 -0.03    +0.088 C  
DOCKED: ATOM     22  C   UNL     1     142.160  77.567 219.058 -0.29 -0.01    +0.024 C  
DOCKED: ATOM     23  C   UNL     1     142.796  76.468 218.211 -0.27 -0.02    +0.027 C  
DOCKED: BRANCH  21  24
DOCKED: ATOM     24  C   UNL     1     143.975  74.367 219.102 -0.28 -0.00    +0.012 C  
DOCKED: ATOM     25  C   UNL     1     143.842  72.886 218.692 -0.17 -0.00    +0.006 C  
DOCKED: ATOM     26  C   UNL     1     144.648  74.492 220.489 -0.45 -0.00    +0.006 C  
DOCKED: ATOM     27  C   UNL     1     145.212  72.199 218.712 -0.27 +0.00    +0.000 C  
DOCKED: ATOM     28  C   UNL     1     146.002  73.771 220.515 -0.65 -0.00    +0.000 C  
DOCKED: ATOM     29  C   UNL     1     145.860  72.308 220.093 -0.43 +0.00    +0.000 C  
DOCKED: ENDBRANCH  21  24
DOCKED: ENDBRANCH  17  19
DOCKED: ENDBRANCH  16  17
DOCKED: ENDBRANCH   1  16
DOCKED: TORSDOF 7
DOCKED: TER
DOCKED: ENDMDL
________________________________________________________________________________


    FINAL DOCKED STATE:
    ________________________


Run:   7 / 20
Time taken for this run:   0.045s

DOCKED: MODEL        7
DOCKED: USER    Run = 7
DOCKED: USER
DOCKED: USER    Estimated Free Energy of Binding    =  -7.87 kcal/mol  [=(1)+(2)+(3)-(4)]
DOCKED: USER
DOCKED: USER    (1) Final Intermolecular Energy     =  -9.96 kcal/mol
DOCKED: USER        vdW + Hbond + desolv Energy     =  -9.87 kcal/mol
DOCKED: USER        Electrostatic Energy            =  -0.09 kcal/mol
DOCKED: USER        Moving Ligand-Fixed Receptor    =  -9.96 kcal/mol
DOCKED: USER        Moving Ligand-Moving Receptor   =  +0.00 kcal/mol
DOCKED: USER    (2) Final Total Internal Energy     =  -1.43 kcal/mol
DOCKED: USER    (3) Torsional Free Energy           =  +2.09 kcal/mol
DOCKED: USER    (4) Unbound System's Energy         =  -1.43 kcal/mol
DOCKED: USER
DOCKED: USER
DOCKED: REMARK SMILES O=C(C/N=C(/O)c1ccc2cc(F)ccc2n1)N1CCC[C@H]1C1CCCCC1
DOCKED: REMARK SMILES IDX 4 1 5 2 6 3 7 5 17 6 8 7 16 8 9 9 15 10 10 11 14 12 11 13
DOCKED: REMARK SMILES IDX 12 14 13 15 3 16 2 17 1 18 18 19 19 20 22 21 20 22 21 23
DOCKED: REMARK SMILES IDX 23 24 24 25 28 26 25 27 27 28 26 29
DOCKED: REMARK H PARENT 6 4
DOCKED: USER                              x       y       z     vdW  Elec       q    Type
DOCKED: USER                           _______ _______ _______ _____ _____    ______ ____
DOCKED: ROOT
DOCKED: ATOM      1  N   UNL     1     140.060  71.768 220.948 -0.07 +0.04    -0.240 NA 
DOCKED: ENDROOT
DOCKED: BRANCH   1   2
DOCKED: ATOM      2  C   UNL     1     139.914  72.220 222.165 -0.21 -0.04    +0.233 C  
DOCKED: BRANCH   2   3
DOCKED: ATOM      3  O   UNL     1     139.761  73.596 222.338 -0.70 +0.06    -0.492 OA 
DOCKED: ATOM      4  H   UNL     1     139.189  73.972 223.086 -0.48 -0.12    +0.295 HD 
DOCKED: ENDBRANCH   2   3
DOCKED: BRANCH   2   5
DOCKED: ATOM      5  C   UNL     1     139.901  71.351 223.379 -0.31 -0.02    +0.125 A  
DOCKED: ATOM      6  N   UNL     1     140.436  71.782 224.555 -0.28 +0.04    -0.243 NA 
DOCKED: ATOM      7  C   UNL     1     139.365  70.051 223.312 -0.24 -0.01    +0.035 A  
DOCKED: ATOM      8  C   UNL     1     140.459  71.015 225.672 -0.52 -0.01    +0.071 A  
DOCKED: ATOM      9  C   UNL     1     139.371  69.234 224.443 -0.33 -0.00    +0.013 A  
DOCKED: ATOM     10  C   UNL     1     141.017  71.517 226.856 -0.71 -0.01    +0.032 A  
DOCKED: ATOM     11  C   UNL     1     139.920  69.709 225.639 -0.46 -0.00    +0.003 A  
DOCKED: ATOM     12  C   UNL     1     141.047  70.721 228.002 -0.63 -0.01    +0.041 A  
DOCKED: ATOM     13  C   UNL     1     139.950  68.917 226.793 -0.54 -0.01    +0.049 A  
DOCKED: ATOM     14  C   UNL     1     140.518  69.423 227.973 -0.52 -0.02    +0.123 A  
DOCKED: ATOM     15  F   UNL     1     140.572  68.648 229.081 -0.14 +0.04    -0.207 F  
DOCKED: ENDBRANCH   2   5
DOCKED: ENDBRANCH   1   2
DOCKED: BRANCH   1  16
DOCKED: ATOM     16  C   UNL     1     140.990  72.254 219.930 -0.06 -0.04    +0.246 C  
DOCKED: BRANCH  16  17
DOCKED: ATOM     17  C   UNL     1     142.367  71.666 220.123 -0.11 -0.03    +0.244 C  
DOCKED: ATOM     18  O   UNL     1     142.494  70.431 220.265 -0.05 +0.03    -0.273 OA 
DOCKED: BRANCH  17  19
DOCKED: ATOM     19  N   UNL     1     143.538  72.508 220.071 -0.10 +0.04    -0.338 N  
DOCKED: ATOM     20  C   UNL     1     144.815  72.021 219.571 -0.27 +0.01    +0.120 C  
DOCKED: ATOM     21  C   UNL     1     143.662  73.788 220.777 -0.26 -0.02    +0.088 C  
DOCKED: ATOM     22  C   UNL     1     145.885  72.898 220.197 -0.54 +0.00    +0.024 C  
DOCKED: ATOM     23  C   UNL     1     145.167  74.110 220.785 -0.52 -0.01    +0.027 C  
DOCKED: BRANCH  21  24
DOCKED: ATOM     24  C   UNL     1     142.830  74.946 220.127 -0.33 -0.01    +0.012 C  
DOCKED: ATOM     25  C   UNL     1     143.713  76.124 219.666 -0.36 -0.00    +0.006 C  
DOCKED: ATOM     26  C   UNL     1     141.666  75.450 221.013 -0.26 -0.00    +0.006 C  
DOCKED: ATOM     27  C   UNL     1     142.869  77.174 218.935 -0.34 -0.00    +0.000 C  
DOCKED: ATOM     28  C   UNL     1     140.846  76.528 220.291 -0.22 -0.00    +0.000 C  
DOCKED: ATOM     29  C   UNL     1     141.735  77.683 219.826 -0.29 -0.00    +0.000 C  
DOCKED: ENDBRANCH  21  24
DOCKED: ENDBRANCH  17  19
DOCKED: ENDBRANCH  16  17
DOCKED: ENDBRANCH   1  16
DOCKED: TORSDOF 7
DOCKED: TER
DOCKED: ENDMDL
________________________________________________________________________________


    FINAL DOCKED STATE:
    ________________________


Run:   8 / 20
Time taken for this run:   0.045s

DOCKED: MODEL        8
DOCKED: USER    Run = 8
DOCKED: USER
DOCKED: USER    Estimated Free Energy of Binding    =  -7.27 kcal/mol  [=(1)+(2)+(3)-(4)]
DOCKED: USER
DOCKED: USER    (1) Final Intermolecular Energy     =  -9.35 kcal/mol
DOCKED: USER        vdW + Hbond + desolv Energy     =  -9.28 kcal/mol
DOCKED: USER        Electrostatic Energy            =  -0.07 kcal/mol
DOCKED: USER        Moving Ligand-Fixed Receptor    =  -9.35 kcal/mol
DOCKED: USER        Moving Ligand-Moving Receptor   =  +0.00 kcal/mol
DOCKED: USER    (2) Final Total Internal Energy     =  -1.90 kcal/mol
DOCKED: USER    (3) Torsional Free Energy           =  +2.09 kcal/mol
DOCKED: USER    (4) Unbound System's Energy         =  -1.90 kcal/mol
DOCKED: USER
DOCKED: USER
DOCKED: REMARK SMILES O=C(C/N=C(/O)c1ccc2cc(F)ccc2n1)N1CCC[C@H]1C1CCCCC1
DOCKED: REMARK SMILES IDX 4 1 5 2 6 3 7 5 17 6 8 7 16 8 9 9 15 10 10 11 14 12 11 13
DOCKED: REMARK SMILES IDX 12 14 13 15 3 16 2 17 1 18 18 19 19 20 22 21 20 22 21 23
DOCKED: REMARK SMILES IDX 23 24 24 25 28 26 25 27 27 28 26 29
DOCKED: REMARK H PARENT 6 4
DOCKED: USER                              x       y       z     vdW  Elec       q    Type
DOCKED: USER                           _______ _______ _______ _____ _____    ______ ____
DOCKED: ROOT
DOCKED: ATOM      1  N   UNL     1     139.978  73.528 222.668 -0.62 +0.01    -0.240 NA 
DOCKED: ENDROOT
DOCKED: BRANCH   1   2
DOCKED: ATOM      2  C   UNL     1     140.307  72.267 222.579 -0.23 -0.03    +0.233 C  
DOCKED: BRANCH   2   3
DOCKED: ATOM      3  O   UNL     1     140.791  71.801 221.357 -0.07 +0.06    -0.492 OA 
DOCKED: ATOM      4  H   UNL     1     140.493  72.216 220.480 +0.07 -0.05    +0.295 HD 
DOCKED: ENDBRANCH   2   3
DOCKED: BRANCH   2   5
DOCKED: ATOM      5  C   UNL     1     140.196  71.297 223.709 -0.33 -0.02    +0.125 A  
DOCKED: ATOM      6  N   UNL     1     140.684  71.600 224.943 -0.32 +0.03    -0.243 NA 
DOCKED: ATOM      7  C   UNL     1     139.613  70.031 223.500 -0.25 -0.01    +0.035 A  
DOCKED: ATOM      8  C   UNL     1     140.619  70.738 225.988 -0.54 -0.01    +0.071 A  
DOCKED: ATOM      9  C   UNL     1     139.528  69.120 224.552 -0.33 -0.00    +0.013 A  
DOCKED: ATOM     10  C   UNL     1     141.132  71.111 227.238 -0.65 -0.01    +0.032 A  
DOCKED: ATOM     11  C   UNL     1     140.031  69.464 225.811 -0.48 -0.00    +0.003 A  
DOCKED: ATOM     12  C   UNL     1     141.070  70.217 228.308 -0.53 -0.01    +0.041 A  
DOCKED: ATOM     13  C   UNL     1     139.969  68.574 226.891 -0.58 -0.01    +0.049 A  
DOCKED: ATOM     14  C   UNL     1     140.494  68.951 228.137 -0.54 -0.02    +0.123 A  
DOCKED: ATOM     15  F   UNL     1     140.458  68.080 229.174 -0.15 +0.05    -0.207 F  
DOCKED: ENDBRANCH   2   5
DOCKED: ENDBRANCH   1   2
DOCKED: BRANCH   1  16
DOCKED: ATOM     16  C   UNL     1     139.224  74.316 221.695 -0.17 -0.05    +0.246 C  
DOCKED: BRANCH  16  17
DOCKED: ATOM     17  C   UNL     1     140.018  74.525 220.429 -0.10 -0.05    +0.244 C  
DOCKED: ATOM     18  O   UNL     1     139.681  73.925 219.385 -0.02 +0.06    -0.273 OA 
DOCKED: BRANCH  17  19
DOCKED: ATOM     19  N   UNL     1     141.115  75.463 220.396 -0.09 +0.11    -0.338 N  
DOCKED: ATOM     20  C   UNL     1     140.975  76.827 220.883 -0.24 -0.05    +0.120 C  
DOCKED: ATOM     21  C   UNL     1     142.340  75.268 219.615 -0.23 -0.04    +0.088 C  
DOCKED: ATOM     22  C   UNL     1     142.039  77.648 220.175 -0.28 -0.02    +0.024 C  
DOCKED: ATOM     23  C   UNL     1     143.008  76.654 219.542 -0.35 -0.02    +0.027 C  
DOCKED: BRANCH  21  24
DOCKED: ATOM     24  C   UNL     1     143.309  74.195 220.223 -0.35 -0.00    +0.012 C  
DOCKED: ATOM     25  C   UNL     1     144.737  74.739 220.435 -0.34 -0.00    +0.006 C  
DOCKED: ATOM     26  C   UNL     1     143.342  72.867 219.432 -0.21 -0.00    +0.006 C  
DOCKED: ATOM     27  C   UNL     1     145.610  73.692 221.136 -0.64 -0.00    +0.000 C  
DOCKED: ATOM     28  C   UNL     1     144.246  71.835 220.118 -0.31 -0.00    +0.000 C  
DOCKED: ATOM     29  C   UNL     1     145.655  72.390 220.336 -0.40 +0.00    +0.000 C  
DOCKED: ENDBRANCH  21  24
DOCKED: ENDBRANCH  17  19
DOCKED: ENDBRANCH  16  17
DOCKED: ENDBRANCH   1  16
DOCKED: TORSDOF 7
DOCKED: TER
DOCKED: ENDMDL
________________________________________________________________________________


    FINAL DOCKED STATE:
    ________________________


Run:   9 / 20
Time taken for this run:   0.045s

DOCKED: MODEL        9
DOCKED: USER    Run = 9
DOCKED: USER
DOCKED: USER    Estimated Free Energy of Binding    =  -6.95 kcal/mol  [=(1)+(2)+(3)-(4)]
DOCKED: USER
DOCKED: USER    (1) Final Intermolecular Energy     =  -9.04 kcal/mol
DOCKED: USER        vdW + Hbond + desolv Energy     =  -8.92 kcal/mol
DOCKED: USER        Electrostatic Energy            =  -0.12 kcal/mol
DOCKED: USER        Moving Ligand-Fixed Receptor    =  -9.04 kcal/mol
DOCKED: USER        Moving Ligand-Moving Receptor   =  +0.00 kcal/mol
DOCKED: USER    (2) Final Total Internal Energy     =  -2.29 kcal/mol
DOCKED: USER    (3) Torsional Free Energy           =  +2.09 kcal/mol
DOCKED: USER    (4) Unbound System's Energy         =  -2.29 kcal/mol
DOCKED: USER
DOCKED: USER
DOCKED: REMARK SMILES O=C(C/N=C(/O)c1ccc2cc(F)ccc2n1)N1CCC[C@H]1C1CCCCC1
DOCKED: REMARK SMILES IDX 4 1 5 2 6 3 7 5 17 6 8 7 16 8 9 9 15 10 10 11 14 12 11 13
DOCKED: REMARK SMILES IDX 12 14 13 15 3 16 2 17 1 18 18 19 19 20 22 21 20 22 21 23
DOCKED: REMARK SMILES IDX 23 24 24 25 28 26 25 27 27 28 26 29
DOCKED: REMARK H PARENT 6 4
DOCKED: USER                              x       y       z     vdW  Elec       q    Type
DOCKED: USER                           _______ _______ _______ _____ _____    ______ ____
DOCKED: ROOT
DOCKED: ATOM      1  N   UNL     1     139.012  75.614 220.479 -0.05 +0.06    -0.240 NA 
DOCKED: ENDROOT
DOCKED: BRANCH   1   2
DOCKED: ATOM      2  C   UNL     1     138.889  75.978 221.727 -0.19 -0.05    +0.233 C  
DOCKED: BRANCH   2   3
DOCKED: ATOM      3  O   UNL     1     138.259  75.098 222.607 -0.00 +0.18    -0.492 OA 
DOCKED: ATOM      4  H   UNL     1     138.755  74.308 223.006 -0.50 -0.17    +0.295 HD 
DOCKED: ENDBRANCH   2   3
DOCKED: BRANCH   2   5
DOCKED: ATOM      5  C   UNL     1     139.383  77.280 222.266 -0.27 -0.03    +0.125 A  
DOCKED: ATOM      6  N   UNL     1     140.703  77.607 222.206 -0.24 +0.08    -0.243 NA 
DOCKED: ATOM      7  C   UNL     1     138.488  78.177 222.881 -0.26 -0.01    +0.035 A  
DOCKED: ATOM      8  C   UNL     1     141.192  78.770 222.702 -0.44 -0.02    +0.071 A  
DOCKED: ATOM      9  C   UNL     1     138.955  79.384 223.400 -0.36 -0.00    +0.013 A  
DOCKED: ATOM     10  C   UNL     1     142.562  79.054 222.604 -0.44 -0.02    +0.032 A  
DOCKED: ATOM     11  C   UNL     1     140.317  79.695 223.316 -0.45 -0.00    +0.003 A  
DOCKED: ATOM     12  C   UNL     1     143.062  80.250 223.123 -0.62 -0.01    +0.041 A  
DOCKED: ATOM     13  C   UNL     1     140.825  80.894 223.831 -0.40 -0.01    +0.049 A  
DOCKED: ATOM     14  C   UNL     1     142.199  81.167 223.737 -0.53 -0.02    +0.123 A  
DOCKED: ATOM     15  F   UNL     1     142.695  82.313 224.259 -0.06 +0.01    -0.207 F  
DOCKED: ENDBRANCH   2   5
DOCKED: ENDBRANCH   1   2
DOCKED: BRANCH   1  16
DOCKED: ATOM     16  C   UNL     1     140.203  75.068 219.830 -0.06 -0.06    +0.246 C  
DOCKED: BRANCH  16  17
DOCKED: ATOM     17  C   UNL     1     141.077  74.337 220.819 -0.18 -0.05    +0.244 C  
DOCKED: ATOM     18  O   UNL     1     140.606  74.006 221.929 -0.76 +0.01    -0.273 OA 
DOCKED: BRANCH  17  19
DOCKED: ATOM     19  N   UNL     1     142.424  73.955 220.467 -0.12 +0.08    -0.338 N  
DOCKED: ATOM     20  C   UNL     1     142.832  72.561 220.384 -0.21 -0.02    +0.120 C  
DOCKED: ATOM     21  C   UNL     1     143.565  74.876 220.464 -0.24 -0.04    +0.088 C  
DOCKED: ATOM     22  C   UNL     1     144.336  72.540 220.593 -0.39 -0.00    +0.024 C  
DOCKED: ATOM     23  C   UNL     1     144.817  73.982 220.447 -0.52 -0.01    +0.027 C  
DOCKED: BRANCH  21  24
DOCKED: ATOM     24  C   UNL     1     143.559  75.880 219.260 -0.35 -0.01    +0.012 C  
DOCKED: ATOM     25  C   UNL     1     142.620  77.081 219.495 -0.33 -0.00    +0.006 C  
DOCKED: ATOM     26  C   UNL     1     143.265  75.215 217.895 -0.20 -0.00    +0.006 C  
DOCKED: ATOM     27  C   UNL     1     142.739  78.088 218.344 -0.29 -0.00    +0.000 C  
DOCKED: ATOM     28  C   UNL     1     143.349  76.233 216.752 -0.22 -0.00    +0.000 C  
DOCKED: ATOM     29  C   UNL     1     142.425  77.426 217.002 -0.22 -0.00    +0.000 C  
DOCKED: ENDBRANCH  21  24
DOCKED: ENDBRANCH  17  19
DOCKED: ENDBRANCH  16  17
DOCKED: ENDBRANCH   1  16
DOCKED: TORSDOF 7
DOCKED: TER
DOCKED: ENDMDL
________________________________________________________________________________


    FINAL DOCKED STATE:
    ________________________


Run:   10 / 20
Time taken for this run:   0.045s

DOCKED: MODEL        10
DOCKED: USER    Run = 10
DOCKED: USER
DOCKED: USER    Estimated Free Energy of Binding    =  -7.30 kcal/mol  [=(1)+(2)+(3)-(4)]
DOCKED: USER
DOCKED: USER    (1) Final Intermolecular Energy     =  -9.39 kcal/mol
DOCKED: USER        vdW + Hbond + desolv Energy     =  -9.31 kcal/mol
DOCKED: USER        Electrostatic Energy            =  -0.08 kcal/mol
DOCKED: USER        Moving Ligand-Fixed Receptor    =  -9.39 kcal/mol
DOCKED: USER        Moving Ligand-Moving Receptor   =  +0.00 kcal/mol
DOCKED: USER    (2) Final Total Internal Energy     =  -1.86 kcal/mol
DOCKED: USER    (3) Torsional Free Energy           =  +2.09 kcal/mol
DOCKED: USER    (4) Unbound System's Energy         =  -1.86 kcal/mol
DOCKED: USER
DOCKED: USER
DOCKED: REMARK SMILES O=C(C/N=C(/O)c1ccc2cc(F)ccc2n1)N1CCC[C@H]1C1CCCCC1
DOCKED: REMARK SMILES IDX 4 1 5 2 6 3 7 5 17 6 8 7 16 8 9 9 15 10 10 11 14 12 11 13
DOCKED: REMARK SMILES IDX 12 14 13 15 3 16 2 17 1 18 18 19 19 20 22 21 20 22 21 23
DOCKED: REMARK SMILES IDX 23 24 24 25 28 26 25 27 27 28 26 29
DOCKED: REMARK H PARENT 6 4
DOCKED: USER                              x       y       z     vdW  Elec       q    Type
DOCKED: USER                           _______ _______ _______ _____ _____    ______ ____
DOCKED: ROOT
DOCKED: ATOM      1  N   UNL     1     140.333  73.678 222.340 -0.76 -0.00    -0.240 NA 
DOCKED: ENDROOT
DOCKED: BRANCH   1   2
DOCKED: ATOM      2  C   UNL     1     140.338  72.374 222.277 -0.22 -0.03    +0.233 C  
DOCKED: BRANCH   2   3
DOCKED: ATOM      3  O   UNL     1     140.494  71.779 221.025 -0.04 +0.07    -0.492 OA 
DOCKED: ATOM      4  H   UNL     1     140.275  72.283 220.172 +0.06 -0.05    +0.295 HD 
DOCKED: ENDBRANCH   2   3
DOCKED: BRANCH   2   5
DOCKED: ATOM      5  C   UNL     1     140.186  71.483 223.466 -0.32 -0.02    +0.125 A  
DOCKED: ATOM      6  N   UNL     1     140.672  71.851 224.684 -0.27 +0.03    -0.243 NA 
DOCKED: ATOM      7  C   UNL     1     139.566  70.226 223.334 -0.26 -0.01    +0.035 A  
DOCKED: ATOM      8  C   UNL     1     140.571  71.062 225.781 -0.54 -0.01    +0.071 A  
DOCKED: ATOM      9  C   UNL     1     139.443  69.388 224.442 -0.33 -0.00    +0.013 A  
DOCKED: ATOM     10  C   UNL     1     141.084  71.500 227.010 -0.72 -0.01    +0.032 A  
DOCKED: ATOM     11  C   UNL     1     139.945  69.798 225.682 -0.47 -0.00    +0.003 A  
DOCKED: ATOM     12  C   UNL     1     140.985  70.680 228.135 -0.60 -0.01    +0.041 A  
DOCKED: ATOM     13  C   UNL     1     139.845  68.983 226.816 -0.53 -0.01    +0.049 A  
DOCKED: ATOM     14  C   UNL     1     140.370  69.424 228.041 -0.52 -0.02    +0.123 A  
DOCKED: ATOM     15  F   UNL     1     140.298  68.625 229.131 -0.13 +0.04    -0.207 F  
DOCKED: ENDBRANCH   2   5
DOCKED: ENDBRANCH   1   2
DOCKED: BRANCH   1  16
DOCKED: ATOM     16  C   UNL     1     139.609  74.603 221.470 -0.19 -0.05    +0.246 C  
DOCKED: BRANCH  16  17
DOCKED: ATOM     17  C   UNL     1     140.253  74.688 220.107 -0.08 -0.06    +0.244 C  
DOCKED: ATOM     18  O   UNL     1     139.722  74.103 219.139 -0.01 +0.06    -0.273 OA 
DOCKED: BRANCH  17  19
DOCKED: ATOM     19  N   UNL     1     141.431  75.497 219.901 -0.07 +0.12    -0.338 N  
DOCKED: ATOM     20  C   UNL     1     141.465  76.910 220.245 -0.23 -0.06    +0.120 C  
DOCKED: ATOM     21  C   UNL     1     142.569  75.094 219.068 -0.20 -0.03    +0.088 C  
DOCKED: ATOM     22  C   UNL     1     142.548  77.537 219.384 -0.27 -0.02    +0.024 C  
DOCKED: ATOM     23  C   UNL     1     143.363  76.385 218.801 -0.33 -0.02    +0.027 C  
DOCKED: BRANCH  21  24
DOCKED: ATOM     24  C   UNL     1     143.469  73.991 219.725 -0.32 -0.00    +0.012 C  
DOCKED: ATOM     25  C   UNL     1     144.702  74.582 220.441 -0.43 -0.00    +0.006 C  
DOCKED: ATOM     26  C   UNL     1     143.891  72.868 218.749 -0.18 -0.00    +0.006 C  
DOCKED: ATOM     27  C   UNL     1     145.482  73.479 221.163 -0.63 -0.00    +0.000 C  
DOCKED: ATOM     28  C   UNL     1     144.704  71.784 219.469 -0.30 +0.00    +0.000 C  
DOCKED: ATOM     29  C   UNL     1     145.915  72.384 220.187 -0.42 +0.00    +0.000 C  
DOCKED: ENDBRANCH  21  24
DOCKED: ENDBRANCH  17  19
DOCKED: ENDBRANCH  16  17
DOCKED: ENDBRANCH   1  16
DOCKED: TORSDOF 7
DOCKED: TER
DOCKED: ENDMDL
________________________________________________________________________________


    FINAL DOCKED STATE:
    ________________________


Run:   11 / 20
Time taken for this run:   0.045s

DOCKED: MODEL        11
DOCKED: USER    Run = 11
DOCKED: USER
DOCKED: USER    Estimated Free Energy of Binding    =  -7.63 kcal/mol  [=(1)+(2)+(3)-(4)]
DOCKED: USER
DOCKED: USER    (1) Final Intermolecular Energy     =  -9.72 kcal/mol
DOCKED: USER        vdW + Hbond + desolv Energy     =  -9.57 kcal/mol
DOCKED: USER        Electrostatic Energy            =  -0.14 kcal/mol
DOCKED: USER        Moving Ligand-Fixed Receptor    =  -9.72 kcal/mol
DOCKED: USER        Moving Ligand-Moving Receptor   =  +0.00 kcal/mol
DOCKED: USER    (2) Final Total Internal Energy     =  -1.37 kcal/mol
DOCKED: USER    (3) Torsional Free Energy           =  +2.09 kcal/mol
DOCKED: USER    (4) Unbound System's Energy         =  -1.37 kcal/mol
DOCKED: USER
DOCKED: USER
DOCKED: REMARK SMILES O=C(C/N=C(/O)c1ccc2cc(F)ccc2n1)N1CCC[C@H]1C1CCCCC1
DOCKED: REMARK SMILES IDX 4 1 5 2 6 3 7 5 17 6 8 7 16 8 9 9 15 10 10 11 14 12 11 13
DOCKED: REMARK SMILES IDX 12 14 13 15 3 16 2 17 1 18 18 19 19 20 22 21 20 22 21 23
DOCKED: REMARK SMILES IDX 23 24 24 25 28 26 25 27 27 28 26 29
DOCKED: REMARK H PARENT 6 4
DOCKED: USER                              x       y       z     vdW  Elec       q    Type
DOCKED: USER                           _______ _______ _______ _____ _____    ______ ____
DOCKED: ROOT
DOCKED: ATOM      1  N   UNL     1     141.155  72.450 221.305 -0.15 +0.03    -0.240 NA 
DOCKED: ENDROOT
DOCKED: BRANCH   1   2
DOCKED: ATOM      2  C   UNL     1     140.342  72.607 222.316 -0.22 -0.02    +0.233 C  
DOCKED: BRANCH   2   3
DOCKED: ATOM      3  O   UNL     1     139.553  73.756 222.348 -0.69 +0.08    -0.492 OA 
DOCKED: ATOM      4  H   UNL     1     138.867  73.904 223.081 -0.49 -0.18    +0.295 HD 
DOCKED: ENDBRANCH   2   3
DOCKED: BRANCH   2   5
DOCKED: ATOM      5  C   UNL     1     140.210  71.630 223.437 -0.32 -0.02    +0.125 A  
DOCKED: ATOM      6  N   UNL     1     140.669  71.927 224.684 -0.23 +0.03    -0.243 NA 
DOCKED: ATOM      7  C   UNL     1     139.637  70.364 223.208 -0.25 -0.01    +0.035 A  
DOCKED: ATOM      8  C   UNL     1     140.584  71.058 225.721 -0.54 -0.01    +0.071 A  
DOCKED: ATOM      9  C   UNL     1     139.532  69.445 224.252 -0.31 -0.00    +0.013 A  
DOCKED: ATOM     10  C   UNL     1     141.068  71.426 226.984 -0.71 -0.01    +0.032 A  
DOCKED: ATOM     11  C   UNL     1     140.005  69.784 225.524 -0.46 -0.00    +0.003 A  
DOCKED: ATOM     12  C   UNL     1     140.986  70.525 228.048 -0.60 -0.01    +0.041 A  
DOCKED: ATOM     13  C   UNL     1     139.923  68.887 226.596 -0.53 -0.01    +0.049 A  
DOCKED: ATOM     14  C   UNL     1     140.418  69.258 227.856 -0.53 -0.02    +0.123 A  
DOCKED: ATOM     15  F   UNL     1     140.364  68.381 228.887 -0.18 +0.05    -0.207 F  
DOCKED: ENDBRANCH   2   5
DOCKED: ENDBRANCH   1   2
DOCKED: BRANCH   1  16
DOCKED: ATOM     16  C   UNL     1     140.794  72.208 219.910 -0.06 -0.04    +0.246 C  
DOCKED: BRANCH  16  17
DOCKED: ATOM     17  C   UNL     1     140.921  73.466 219.086 -0.02 -0.05    +0.244 C  
DOCKED: ATOM     18  O   UNL     1     140.427  73.502 217.939 -0.00 +0.06    -0.273 OA 
DOCKED: BRANCH  17  19
DOCKED: ATOM     19  N   UNL     1     141.541  74.646 219.640 -0.04 +0.10    -0.338 N  
DOCKED: ATOM     20  C   UNL     1     140.871  75.474 220.631 -0.21 -0.04    +0.120 C  
DOCKED: ATOM     21  C   UNL     1     142.723  75.299 219.068 -0.23 -0.04    +0.088 C  
DOCKED: ATOM     22  C   UNL     1     141.494  76.856 220.529 -0.28 -0.01    +0.024 C  
DOCKED: ATOM     23  C   UNL     1     142.769  76.700 219.704 -0.35 -0.02    +0.027 C  
DOCKED: BRANCH  21  24
DOCKED: ATOM     24  C   UNL     1     144.056  74.512 219.314 -0.32 -0.00    +0.012 C  
DOCKED: ATOM     25  C   UNL     1     144.186  73.270 218.408 -0.19 -0.00    +0.006 C  
DOCKED: ATOM     26  C   UNL     1     144.293  74.135 220.795 -0.37 -0.00    +0.006 C  
DOCKED: ATOM     27  C   UNL     1     145.553  72.604 218.604 -0.22 +0.00    +0.000 C  
DOCKED: ATOM     28  C   UNL     1     145.646  73.436 220.980 -0.67 -0.00    +0.000 C  
DOCKED: ATOM     29  C   UNL     1     145.769  72.215 220.067 -0.39 +0.00    +0.000 C  
DOCKED: ENDBRANCH  21  24
DOCKED: ENDBRANCH  17  19
DOCKED: ENDBRANCH  16  17
DOCKED: ENDBRANCH   1  16
DOCKED: TORSDOF 7
DOCKED: TER
DOCKED: ENDMDL
________________________________________________________________________________


    FINAL DOCKED STATE:
    ________________________


Run:   12 / 20
Time taken for this run:   0.045s

DOCKED: MODEL        12
DOCKED: USER    Run = 12
DOCKED: USER
DOCKED: USER    Estimated Free Energy of Binding    =  -7.92 kcal/mol  [=(1)+(2)+(3)-(4)]
DOCKED: USER
DOCKED: USER    (1) Final Intermolecular Energy     = -10.00 kcal/mol
DOCKED: USER        vdW + Hbond + desolv Energy     =  -9.93 kcal/mol
DOCKED: USER        Electrostatic Energy            =  -0.07 kcal/mol
DOCKED: USER        Moving Ligand-Fixed Receptor    = -10.00 kcal/mol
DOCKED: USER        Moving Ligand-Moving Receptor   =  +0.00 kcal/mol
DOCKED: USER    (2) Final Total Internal Energy     =  -1.60 kcal/mol
DOCKED: USER    (3) Torsional Free Energy           =  +2.09 kcal/mol
DOCKED: USER    (4) Unbound System's Energy         =  -1.60 kcal/mol
DOCKED: USER
DOCKED: USER
DOCKED: REMARK SMILES O=C(C/N=C(/O)c1ccc2cc(F)ccc2n1)N1CCC[C@H]1C1CCCCC1
DOCKED: REMARK SMILES IDX 4 1 5 2 6 3 7 5 17 6 8 7 16 8 9 9 15 10 10 11 14 12 11 13
DOCKED: REMARK SMILES IDX 12 14 13 15 3 16 2 17 1 18 18 19 19 20 22 21 20 22 21 23
DOCKED: REMARK SMILES IDX 23 24 24 25 28 26 25 27 27 28 26 29
DOCKED: REMARK H PARENT 6 4
DOCKED: USER                              x       y       z     vdW  Elec       q    Type
DOCKED: USER                           _______ _______ _______ _____ _____    ______ ____
DOCKED: ROOT
DOCKED: ATOM      1  N   UNL     1     140.369  73.640 222.112 -0.74 +0.01    -0.240 NA 
DOCKED: ENDROOT
DOCKED: BRANCH   1   2
DOCKED: ATOM      2  C   UNL     1     139.688  74.750 222.002 -0.15 -0.03    +0.233 C  
DOCKED: BRANCH   2   3
DOCKED: ATOM      3  O   UNL     1     138.296  74.667 222.011 -0.11 +0.14    -0.492 OA 
DOCKED: ATOM      4  H   UNL     1     137.803  74.158 222.737 -0.47 -0.15    +0.295 HD 
DOCKED: ENDBRANCH   2   3
DOCKED: BRANCH   2   5
DOCKED: ATOM      5  C   UNL     1     140.313  76.099 221.866 -0.31 -0.03    +0.125 A  
DOCKED: ATOM      6  N   UNL     1     139.994  77.108 222.724 -0.20 +0.05    -0.243 NA 
DOCKED: ATOM      7  C   UNL     1     141.219  76.358 220.820 -0.28 -0.01    +0.035 A  
DOCKED: ATOM      8  C   UNL     1     140.526  78.351 222.621 -0.38 -0.02    +0.071 A  
DOCKED: ATOM      9  C   UNL     1     141.787  77.624 220.685 -0.31 -0.01    +0.013 A  
DOCKED: ATOM     10  C   UNL     1     140.164  79.346 223.539 -0.44 -0.01    +0.032 A  
DOCKED: ATOM     11  C   UNL     1     141.446  78.637 221.587 -0.39 -0.00    +0.003 A  
DOCKED: ATOM     12  C   UNL     1     140.708  80.627 223.425 -0.45 -0.01    +0.041 A  
DOCKED: ATOM     13  C   UNL     1     141.990  79.923 221.480 -0.39 -0.02    +0.049 A  
DOCKED: ATOM     14  C   UNL     1     141.617  80.918 222.398 -0.41 -0.03    +0.123 A  
DOCKED: ATOM     15  F   UNL     1     142.122  82.168 222.279 -0.03 +0.03    -0.207 F  
DOCKED: ENDBRANCH   2   5
DOCKED: ENDBRANCH   1   2
DOCKED: BRANCH   1  16
DOCKED: ATOM     16  C   UNL     1     140.016  72.329 221.571 -0.17 -0.04    +0.246 C  
DOCKED: BRANCH  16  17
DOCKED: ATOM     17  C   UNL     1     139.022  71.621 222.459 -0.16 -0.05    +0.244 C  
DOCKED: ATOM     18  O   UNL     1     138.024  72.243 222.882 -0.11 +0.10    -0.273 OA 
DOCKED: BRANCH  17  19
DOCKED: ATOM     19  N   UNL     1     139.175  70.218 222.760 -0.08 +0.06    -0.338 N  
DOCKED: ATOM     20  C   UNL     1     139.351  69.221 221.714 -0.11 -0.02    +0.120 C  
DOCKED: ATOM     21  C   UNL     1     138.867  69.618 224.062 -0.28 -0.01    +0.088 C  
DOCKED: ATOM     22  C   UNL     1     138.884  67.899 222.298 -0.21 -0.00    +0.024 C  
DOCKED: ATOM     23  C   UNL     1     138.770  68.103 223.806 -0.26 -0.00    +0.027 C  
DOCKED: BRANCH  21  24
DOCKED: ATOM     24  C   UNL     1     139.925  69.947 225.171 -0.44 -0.00    +0.012 C  
DOCKED: ATOM     25  C   UNL     1     139.593  69.281 226.522 -0.53 -0.00    +0.006 C  
DOCKED: ATOM     26  C   UNL     1     140.182  71.461 225.358 -0.47 -0.00    +0.006 C  
DOCKED: ATOM     27  C   UNL     1     140.715  69.537 227.536 -0.63 -0.00    +0.000 C  
DOCKED: ATOM     28  C   UNL     1     141.279  71.714 226.400 -0.68 -0.00    +0.000 C  
DOCKED: ATOM     29  C   UNL     1     140.946  71.036 227.730 -0.73 -0.00    +0.000 C  
DOCKED: ENDBRANCH  21  24
DOCKED: ENDBRANCH  17  19
DOCKED: ENDBRANCH  16  17
DOCKED: ENDBRANCH   1  16
DOCKED: TORSDOF 7
DOCKED: TER
DOCKED: ENDMDL
________________________________________________________________________________


    FINAL DOCKED STATE:
    ________________________


Run:   13 / 20
Time taken for this run:   0.045s

DOCKED: MODEL        13
DOCKED: USER    Run = 13
DOCKED: USER
DOCKED: USER    Estimated Free Energy of Binding    =  -8.56 kcal/mol  [=(1)+(2)+(3)-(4)]
DOCKED: USER
DOCKED: USER    (1) Final Intermolecular Energy     = -10.64 kcal/mol
DOCKED: USER        vdW + Hbond + desolv Energy     = -10.55 kcal/mol
DOCKED: USER        Electrostatic Energy            =  -0.09 kcal/mol
DOCKED: USER        Moving Ligand-Fixed Receptor    = -10.64 kcal/mol
DOCKED: USER        Moving Ligand-Moving Receptor   =  +0.00 kcal/mol
DOCKED: USER    (2) Final Total Internal Energy     =  -1.56 kcal/mol
DOCKED: USER    (3) Torsional Free Energy           =  +2.09 kcal/mol
DOCKED: USER    (4) Unbound System's Energy         =  -1.56 kcal/mol
DOCKED: USER
DOCKED: USER
DOCKED: REMARK SMILES O=C(C/N=C(/O)c1ccc2cc(F)ccc2n1)N1CCC[C@H]1C1CCCCC1
DOCKED: REMARK SMILES IDX 4 1 5 2 6 3 7 5 17 6 8 7 16 8 9 9 15 10 10 11 14 12 11 13
DOCKED: REMARK SMILES IDX 12 14 13 15 3 16 2 17 1 18 18 19 19 20 22 21 20 22 21 23
DOCKED: REMARK SMILES IDX 23 24 24 25 28 26 25 27 27 28 26 29
DOCKED: REMARK H PARENT 6 4
DOCKED: USER                              x       y       z     vdW  Elec       q    Type
DOCKED: USER                           _______ _______ _______ _____ _____    ______ ____
DOCKED: ROOT
DOCKED: ATOM      1  N   UNL     1     140.929  73.066 222.292 -0.51 -0.00    -0.240 NA 
DOCKED: ENDROOT
DOCKED: BRANCH   1   2
DOCKED: ATOM      2  C   UNL     1     139.869  72.507 222.810 -0.14 -0.04    +0.233 C  
DOCKED: BRANCH   2   3
DOCKED: ATOM      3  O   UNL     1     138.619  72.918 222.347 -0.10 +0.15    -0.492 OA 
DOCKED: ATOM      4  H   UNL     1     138.171  73.752 222.712 -0.48 -0.15    +0.295 HD 
DOCKED: ENDBRANCH   2   3
DOCKED: BRANCH   2   5
DOCKED: ATOM      5  C   UNL     1     139.917  71.453 223.867 -0.35 -0.02    +0.125 A  
DOCKED: ATOM      6  N   UNL     1     140.423  71.722 225.102 -0.29 +0.04    -0.243 NA 
DOCKED: ATOM      7  C   UNL     1     139.470  70.147 223.585 -0.28 -0.01    +0.035 A  
DOCKED: ATOM      8  C   UNL     1     140.501  70.787 226.080 -0.54 -0.01    +0.071 A  
DOCKED: ATOM      9  C   UNL     1     139.534  69.160 224.568 -0.34 -0.00    +0.013 A  
DOCKED: ATOM     10  C   UNL     1     141.024  71.127 227.335 -0.69 -0.01    +0.032 A  
DOCKED: ATOM     11  C   UNL     1     140.051  69.470 225.831 -0.48 -0.00    +0.003 A  
DOCKED: ATOM     12  C   UNL     1     141.110  70.158 228.337 -0.51 -0.01    +0.041 A  
DOCKED: ATOM     13  C   UNL     1     140.137  68.505 226.842 -0.59 -0.01    +0.049 A  
DOCKED: ATOM     14  C   UNL     1     140.671  68.850 228.093 -0.54 -0.03    +0.123 A  
DOCKED: ATOM     15  F   UNL     1     140.780  67.911 229.062 -0.17 +0.06    -0.207 F  
DOCKED: ENDBRANCH   2   5
DOCKED: ENDBRANCH   1   2
DOCKED: BRANCH   1  16
DOCKED: ATOM     16  C   UNL     1     140.978  73.987 221.157 -0.19 -0.04    +0.246 C  
DOCKED: BRANCH  16  17
DOCKED: ATOM     17  C   UNL     1     140.318  75.302 221.492 -0.23 -0.05    +0.244 C  
DOCKED: ATOM     18  O   UNL     1     139.588  75.384 222.503 -0.55 +0.04    -0.273 OA 
DOCKED: BRANCH  17  19
DOCKED: ATOM     19  N   UNL     1     140.581  76.478 220.698 -0.08 +0.11    -0.338 N  
DOCKED: ATOM     20  C   UNL     1     139.974  76.676 219.391 -0.06 -0.04    +0.120 C  
DOCKED: ATOM     21  C   UNL     1     141.682  77.413 220.953 -0.18 -0.05    +0.088 C  
DOCKED: ATOM     22  C   UNL     1     140.884  77.627 218.633 -0.12 -0.01    +0.024 C  
DOCKED: ATOM     23  C   UNL     1     141.833  78.237 219.662 -0.28 -0.02    +0.027 C  
DOCKED: BRANCH  21  24
DOCKED: ATOM     24  C   UNL     1     141.447  78.336 222.199 -0.44 -0.01    +0.012 C  
DOCKED: ATOM     25  C   UNL     1     140.043  78.976 222.204 -0.32 -0.00    +0.006 C  
DOCKED: ATOM     26  C   UNL     1     142.539  79.413 222.392 -0.52 -0.00    +0.006 C  
DOCKED: ATOM     27  C   UNL     1     139.822  79.771 223.496 -0.45 -0.00    +0.000 C  
DOCKED: ATOM     28  C   UNL     1     142.293  80.231 223.666 -0.66 -0.00    +0.000 C  
DOCKED: ATOM     29  C   UNL     1     140.893  80.849 223.667 -0.46 -0.00    +0.000 C  
DOCKED: ENDBRANCH  21  24
DOCKED: ENDBRANCH  17  19
DOCKED: ENDBRANCH  16  17
DOCKED: ENDBRANCH   1  16
DOCKED: TORSDOF 7
DOCKED: TER
DOCKED: ENDMDL
________________________________________________________________________________


    FINAL DOCKED STATE:
    ________________________


Run:   14 / 20
Time taken for this run:   0.045s

DOCKED: MODEL        14
DOCKED: USER    Run = 14
DOCKED: USER
DOCKED: USER    Estimated Free Energy of Binding    =  -7.88 kcal/mol  [=(1)+(2)+(3)-(4)]
DOCKED: USER
DOCKED: USER    (1) Final Intermolecular Energy     =  -9.97 kcal/mol
DOCKED: USER        vdW + Hbond + desolv Energy     =  -9.91 kcal/mol
DOCKED: USER        Electrostatic Energy            =  -0.06 kcal/mol
DOCKED: USER        Moving Ligand-Fixed Receptor    =  -9.97 kcal/mol
DOCKED: USER        Moving Ligand-Moving Receptor   =  +0.00 kcal/mol
DOCKED: USER    (2) Final Total Internal Energy     =  -1.60 kcal/mol
DOCKED: USER    (3) Torsional Free Energy           =  +2.09 kcal/mol
DOCKED: USER    (4) Unbound System's Energy         =  -1.60 kcal/mol
DOCKED: USER
DOCKED: USER
DOCKED: REMARK SMILES O=C(C/N=C(/O)c1ccc2cc(F)ccc2n1)N1CCC[C@H]1C1CCCCC1
DOCKED: REMARK SMILES IDX 4 1 5 2 6 3 7 5 17 6 8 7 16 8 9 9 15 10 10 11 14 12 11 13
DOCKED: REMARK SMILES IDX 12 14 13 15 3 16 2 17 1 18 18 19 19 20 22 21 20 22 21 23
DOCKED: REMARK SMILES IDX 23 24 24 25 28 26 25 27 27 28 26 29
DOCKED: REMARK H PARENT 6 4
DOCKED: USER                              x       y       z     vdW  Elec       q    Type
DOCKED: USER                           _______ _______ _______ _____ _____    ______ ____
DOCKED: ROOT
DOCKED: ATOM      1  N   UNL     1     140.790  73.319 222.408 -0.55 -0.01    -0.240 NA 
DOCKED: ENDROOT
DOCKED: BRANCH   1   2
DOCKED: ATOM      2  C   UNL     1     139.797  72.527 222.712 -0.17 -0.04    +0.233 C  
DOCKED: BRANCH   2   3
DOCKED: ATOM      3  O   UNL     1     138.617  72.644 221.977 -0.07 +0.13    -0.492 OA 
DOCKED: ATOM      4  H   UNL     1     138.130  73.530 221.900 +0.01 -0.09    +0.295 HD 
DOCKED: ENDBRANCH   2   3
DOCKED: BRANCH   2   5
DOCKED: ATOM      5  C   UNL     1     139.851  71.505 223.799 -0.34 -0.02    +0.125 A  
DOCKED: ATOM      6  N   UNL     1     140.365  71.810 225.023 -0.27 +0.04    -0.243 NA 
DOCKED: ATOM      7  C   UNL     1     139.402  70.192 223.559 -0.28 -0.01    +0.035 A  
DOCKED: ATOM      8  C   UNL     1     140.449  70.904 226.028 -0.54 -0.01    +0.071 A  
DOCKED: ATOM      9  C   UNL     1     139.471  69.234 224.571 -0.34 -0.00    +0.013 A  
DOCKED: ATOM     10  C   UNL     1     140.981  71.281 227.269 -0.71 -0.01    +0.032 A  
DOCKED: ATOM     11  C   UNL     1     139.997  69.581 225.820 -0.47 -0.00    +0.003 A  
DOCKED: ATOM     12  C   UNL     1     141.073  70.342 228.298 -0.53 -0.01    +0.041 A  
DOCKED: ATOM     13  C   UNL     1     140.089  68.646 226.859 -0.58 -0.01    +0.049 A  
DOCKED: ATOM     14  C   UNL     1     140.632  69.028 228.095 -0.53 -0.03    +0.123 A  
DOCKED: ATOM     15  F   UNL     1     140.746  68.118 229.091 -0.18 +0.05    -0.207 F  
DOCKED: ENDBRANCH   2   5
DOCKED: ENDBRANCH   1   2
DOCKED: BRANCH   1  16
DOCKED: ATOM     16  C   UNL     1     140.913  74.167 221.224 -0.20 -0.04    +0.246 C  
DOCKED: BRANCH  16  17
DOCKED: ATOM     17  C   UNL     1     140.087  75.422 221.362 -0.21 -0.05    +0.244 C  
DOCKED: ATOM     18  O   UNL     1     139.136  75.446 222.173 -0.35 +0.06    -0.273 OA 
DOCKED: BRANCH  17  19
DOCKED: ATOM     19  N   UNL     1     140.431  76.613 220.622 -0.07 +0.11    -0.338 N  
DOCKED: ATOM     20  C   UNL     1     139.831  76.918 219.333 -0.05 -0.04    +0.120 C  
DOCKED: ATOM     21  C   UNL     1     141.600  77.451 220.911 -0.23 -0.05    +0.088 C  
DOCKED: ATOM     22  C   UNL     1     140.804  77.835 218.611 -0.12 -0.01    +0.024 C  
DOCKED: ATOM     23  C   UNL     1     141.802  78.323 219.658 -0.28 -0.02    +0.027 C  
DOCKED: BRANCH  21  24
DOCKED: ATOM     24  C   UNL     1     141.441  78.327 222.201 -0.43 -0.01    +0.012 C  
DOCKED: ATOM     25  C   UNL     1     140.035  78.949 222.325 -0.34 -0.00    +0.006 C  
DOCKED: ATOM     26  C   UNL     1     142.534  79.411 222.356 -0.51 -0.00    +0.006 C  
DOCKED: ATOM     27  C   UNL     1     139.895  79.697 223.656 -0.45 -0.00    +0.000 C  
DOCKED: ATOM     28  C   UNL     1     142.367  80.182 223.672 -0.66 -0.00    +0.000 C  
DOCKED: ATOM     29  C   UNL     1     140.965  80.781 223.791 -0.45 -0.00    +0.000 C  
DOCKED: ENDBRANCH  21  24
DOCKED: ENDBRANCH  17  19
DOCKED: ENDBRANCH  16  17
DOCKED: ENDBRANCH   1  16
DOCKED: TORSDOF 7
DOCKED: TER
DOCKED: ENDMDL
________________________________________________________________________________


    FINAL DOCKED STATE:
    ________________________


Run:   15 / 20
Time taken for this run:   0.045s

DOCKED: MODEL        15
DOCKED: USER    Run = 15
DOCKED: USER
DOCKED: USER    Estimated Free Energy of Binding    =  -7.66 kcal/mol  [=(1)+(2)+(3)-(4)]
DOCKED: USER
DOCKED: USER    (1) Final Intermolecular Energy     =  -9.75 kcal/mol
DOCKED: USER        vdW + Hbond + desolv Energy     =  -9.75 kcal/mol
DOCKED: USER        Electrostatic Energy            =  -0.01 kcal/mol
DOCKED: USER        Moving Ligand-Fixed Receptor    =  -9.75 kcal/mol
DOCKED: USER        Moving Ligand-Moving Receptor   =  +0.00 kcal/mol
DOCKED: USER    (2) Final Total Internal Energy     =  -1.44 kcal/mol
DOCKED: USER    (3) Torsional Free Energy           =  +2.09 kcal/mol
DOCKED: USER    (4) Unbound System's Energy         =  -1.44 kcal/mol
DOCKED: USER
DOCKED: USER
DOCKED: REMARK SMILES O=C(C/N=C(/O)c1ccc2cc(F)ccc2n1)N1CCC[C@H]1C1CCCCC1
DOCKED: REMARK SMILES IDX 4 1 5 2 6 3 7 5 17 6 8 7 16 8 9 9 15 10 10 11 14 12 11 13
DOCKED: REMARK SMILES IDX 12 14 13 15 3 16 2 17 1 18 18 19 19 20 22 21 20 22 21 23
DOCKED: REMARK SMILES IDX 23 24 24 25 28 26 25 27 27 28 26 29
DOCKED: REMARK H PARENT 6 4
DOCKED: USER                              x       y       z     vdW  Elec       q    Type
DOCKED: USER                           _______ _______ _______ _____ _____    ______ ____
DOCKED: ROOT
DOCKED: ATOM      1  N   UNL     1     139.555  71.943 220.942 -0.06 +0.04    -0.240 NA 
DOCKED: ENDROOT
DOCKED: BRANCH   1   2
DOCKED: ATOM      2  C   UNL     1     139.810  72.354 222.156 -0.21 -0.04    +0.233 C  
DOCKED: BRANCH   2   3
DOCKED: ATOM      3  O   UNL     1     140.034  73.716 222.352 -0.74 +0.02    -0.492 OA 
DOCKED: ATOM      4  H   UNL     1     139.561  74.227 223.089 -0.46 -0.03    +0.295 HD 
DOCKED: ENDBRANCH   2   3
DOCKED: BRANCH   2   5
DOCKED: ATOM      5  C   UNL     1     139.874  71.451 223.343 -0.31 -0.02    +0.125 A  
DOCKED: ATOM      6  N   UNL     1     140.356  71.896 224.536 -0.27 +0.04    -0.243 NA 
DOCKED: ATOM      7  C   UNL     1     139.468  70.107 223.233 -0.24 -0.01    +0.035 A  
DOCKED: ATOM      8  C   UNL     1     140.448  71.101 225.631 -0.52 -0.01    +0.071 A  
DOCKED: ATOM      9  C   UNL     1     139.546  69.261 224.339 -0.31 -0.00    +0.013 A  
DOCKED: ATOM     10  C   UNL     1     140.946  71.620 226.834 -0.71 -0.01    +0.032 A  
DOCKED: ATOM     11  C   UNL     1     140.039  69.750 225.554 -0.46 -0.00    +0.003 A  
DOCKED: ATOM     12  C   UNL     1     141.047  70.795 227.956 -0.65 -0.01    +0.041 A  
DOCKED: ATOM     13  C   UNL     1     140.139  68.930 226.684 -0.54 -0.01    +0.049 A  
DOCKED: ATOM     14  C   UNL     1     140.647  69.454 227.883 -0.52 -0.02    +0.123 A  
DOCKED: ATOM     15  F   UNL     1     140.770  68.654 228.969 -0.15 +0.05    -0.207 F  
DOCKED: ENDBRANCH   2   5
DOCKED: ENDBRANCH   1   2
DOCKED: BRANCH   1  16
DOCKED: ATOM     16  C   UNL     1     140.486  71.877 219.817 -0.05 -0.04    +0.246 C  
DOCKED: BRANCH  16  17
DOCKED: ATOM     17  C   UNL     1     141.531  70.810 220.035 -0.07 -0.03    +0.244 C  
DOCKED: ATOM     18  O   UNL     1     141.181  69.613 220.119 -0.08 +0.04    -0.273 OA 
DOCKED: BRANCH  17  19
DOCKED: ATOM     19  N   UNL     1     142.933  71.153 220.074 -0.07 +0.03    -0.338 N  
DOCKED: ATOM     20  C   UNL     1     143.426  72.292 220.834 -0.23 -0.02    +0.120 C  
DOCKED: ATOM     21  C   UNL     1     143.936  70.620 219.146 -0.17 +0.00    +0.088 C  
DOCKED: ATOM     22  C   UNL     1     144.742  72.698 220.195 -0.43 -0.00    +0.024 C  
DOCKED: ATOM     23  C   UNL     1     145.156  71.549 219.279 -0.30 +0.01    +0.027 C  
DOCKED: BRANCH  21  24
DOCKED: ATOM     24  C   UNL     1     144.318  69.126 219.425 -0.29 +0.00    +0.012 C  
DOCKED: ATOM     25  C   UNL     1     145.825  68.854 219.231 -0.39 +0.00    +0.006 C  
DOCKED: ATOM     26  C   UNL     1     143.472  68.106 218.626 -0.21 -0.00    +0.006 C  
DOCKED: ATOM     27  C   UNL     1     146.164  67.413 219.628 -0.49 -0.00    +0.000 C  
DOCKED: ATOM     28  C   UNL     1     143.842  66.665 218.999 -0.34 -0.00    +0.000 C  
DOCKED: ATOM     29  C   UNL     1     145.340  66.412 218.818 -0.50 -0.00    +0.000 C  
DOCKED: ENDBRANCH  21  24
DOCKED: ENDBRANCH  17  19
DOCKED: ENDBRANCH  16  17
DOCKED: ENDBRANCH   1  16
DOCKED: TORSDOF 7
DOCKED: TER
DOCKED: ENDMDL
________________________________________________________________________________


    FINAL DOCKED STATE:
    ________________________


Run:   16 / 20
Time taken for this run:   0.045s

DOCKED: MODEL        16
DOCKED: USER    Run = 16
DOCKED: USER
DOCKED: USER    Estimated Free Energy of Binding    =  -8.39 kcal/mol  [=(1)+(2)+(3)-(4)]
DOCKED: USER
DOCKED: USER    (1) Final Intermolecular Energy     = -10.48 kcal/mol
DOCKED: USER        vdW + Hbond + desolv Energy     = -10.40 kcal/mol
DOCKED: USER        Electrostatic Energy            =  -0.08 kcal/mol
DOCKED: USER        Moving Ligand-Fixed Receptor    = -10.48 kcal/mol
DOCKED: USER        Moving Ligand-Moving Receptor   =  +0.00 kcal/mol
DOCKED: USER    (2) Final Total Internal Energy     =  -1.54 kcal/mol
DOCKED: USER    (3) Torsional Free Energy           =  +2.09 kcal/mol
DOCKED: USER    (4) Unbound System's Energy         =  -1.54 kcal/mol
DOCKED: USER
DOCKED: USER
DOCKED: REMARK SMILES O=C(C/N=C(/O)c1ccc2cc(F)ccc2n1)N1CCC[C@H]1C1CCCCC1
DOCKED: REMARK SMILES IDX 4 1 5 2 6 3 7 5 17 6 8 7 16 8 9 9 15 10 10 11 14 12 11 13
DOCKED: REMARK SMILES IDX 12 14 13 15 3 16 2 17 1 18 18 19 19 20 22 21 20 22 21 23
DOCKED: REMARK SMILES IDX 23 24 24 25 28 26 25 27 27 28 26 29
DOCKED: REMARK H PARENT 6 4
DOCKED: USER                              x       y       z     vdW  Elec       q    Type
DOCKED: USER                           _______ _______ _______ _____ _____    ______ ____
DOCKED: ROOT
DOCKED: ATOM      1  N   UNL     1     141.060  73.122 222.309 -0.46 -0.01    -0.240 NA 
DOCKED: ENDROOT
DOCKED: BRANCH   1   2
DOCKED: ATOM      2  C   UNL     1     139.975  72.613 222.828 -0.12 -0.03    +0.233 C  
DOCKED: BRANCH   2   3
DOCKED: ATOM      3  O   UNL     1     138.746  73.104 222.388 -0.10 +0.16    -0.492 OA 
DOCKED: ATOM      4  H   UNL     1     138.404  74.012 222.685 -0.48 -0.15    +0.295 HD 
DOCKED: ENDBRANCH   2   3
DOCKED: BRANCH   2   5
DOCKED: ATOM      5  C   UNL     1     139.974  71.538 223.864 -0.35 -0.02    +0.125 A  
DOCKED: ATOM      6  N   UNL     1     140.477  71.765 225.109 -0.29 +0.04    -0.243 NA 
DOCKED: ATOM      7  C   UNL     1     139.484  70.255 223.552 -0.28 -0.01    +0.035 A  
DOCKED: ATOM      8  C   UNL     1     140.511  70.808 226.069 -0.54 -0.01    +0.071 A  
DOCKED: ATOM      9  C   UNL     1     139.503  69.247 224.515 -0.34 -0.00    +0.013 A  
DOCKED: ATOM     10  C   UNL     1     141.034  71.104 227.336 -0.68 -0.01    +0.032 A  
DOCKED: ATOM     11  C   UNL     1     140.017  69.513 225.789 -0.47 -0.00    +0.003 A  
DOCKED: ATOM     12  C   UNL     1     141.074  70.113 228.319 -0.53 -0.01    +0.041 A  
DOCKED: ATOM     13  C   UNL     1     140.058  68.526 226.781 -0.58 -0.01    +0.049 A  
DOCKED: ATOM     14  C   UNL     1     140.591  68.827 228.044 -0.54 -0.03    +0.123 A  
DOCKED: ATOM     15  F   UNL     1     140.656  67.865 228.994 -0.16 +0.06    -0.207 F  
DOCKED: ENDBRANCH   2   5
DOCKED: ENDBRANCH   1   2
DOCKED: BRANCH   1  16
DOCKED: ATOM     16  C   UNL     1     141.173  73.882 221.064 -0.18 -0.04    +0.246 C  
DOCKED: BRANCH  16  17
DOCKED: ATOM     17  C   UNL     1     140.601  75.270 221.218 -0.22 -0.06    +0.244 C  
DOCKED: ATOM     18  O   UNL     1     139.915  75.545 222.226 -0.53 +0.04    -0.273 OA 
DOCKED: BRANCH  17  19
DOCKED: ATOM     19  N   UNL     1     140.901  76.299 220.250 -0.07 +0.12    -0.338 N  
DOCKED: ATOM     20  C   UNL     1     140.551  76.159 218.845 -0.06 -0.04    +0.120 C  
DOCKED: ATOM     21  C   UNL     1     141.832  77.407 220.491 -0.27 -0.05    +0.088 C  
DOCKED: ATOM     22  C   UNL     1     141.497  77.063 218.074 -0.14 -0.01    +0.024 C  
DOCKED: ATOM     23  C   UNL     1     142.156  77.982 219.100 -0.28 -0.02    +0.027 C  
DOCKED: BRANCH  21  24
DOCKED: ATOM     24  C   UNL     1     141.262  78.508 221.450 -0.36 -0.01    +0.012 C  
DOCKED: ATOM     25  C   UNL     1     141.809  79.914 221.127 -0.39 -0.00    +0.006 C  
DOCKED: ATOM     26  C   UNL     1     141.444  78.183 222.951 -0.49 -0.00    +0.006 C  
DOCKED: ATOM     27  C   UNL     1     141.135  80.968 222.014 -0.42 -0.00    +0.000 C  
DOCKED: ATOM     28  C   UNL     1     140.800  79.259 223.834 -0.51 -0.00    +0.000 C  
DOCKED: ATOM     29  C   UNL     1     141.339  80.650 223.495 -0.56 -0.00    +0.000 C  
DOCKED: ENDBRANCH  21  24
DOCKED: ENDBRANCH  17  19
DOCKED: ENDBRANCH  16  17
DOCKED: ENDBRANCH   1  16
DOCKED: TORSDOF 7
DOCKED: TER
DOCKED: ENDMDL
________________________________________________________________________________


    FINAL DOCKED STATE:
    ________________________


Run:   17 / 20
Time taken for this run:   0.045s

DOCKED: MODEL        17
DOCKED: USER    Run = 17
DOCKED: USER
DOCKED: USER    Estimated Free Energy of Binding    =  -7.73 kcal/mol  [=(1)+(2)+(3)-(4)]
DOCKED: USER
DOCKED: USER    (1) Final Intermolecular Energy     =  -9.81 kcal/mol
DOCKED: USER        vdW + Hbond + desolv Energy     =  -9.74 kcal/mol
DOCKED: USER        Electrostatic Energy            =  -0.08 kcal/mol
DOCKED: USER        Moving Ligand-Fixed Receptor    =  -9.81 kcal/mol
DOCKED: USER        Moving Ligand-Moving Receptor   =  +0.00 kcal/mol
DOCKED: USER    (2) Final Total Internal Energy     =  -1.50 kcal/mol
DOCKED: USER    (3) Torsional Free Energy           =  +2.09 kcal/mol
DOCKED: USER    (4) Unbound System's Energy         =  -1.50 kcal/mol
DOCKED: USER
DOCKED: USER
DOCKED: REMARK SMILES O=C(C/N=C(/O)c1ccc2cc(F)ccc2n1)N1CCC[C@H]1C1CCCCC1
DOCKED: REMARK SMILES IDX 4 1 5 2 6 3 7 5 17 6 8 7 16 8 9 9 15 10 10 11 14 12 11 13
DOCKED: REMARK SMILES IDX 12 14 13 15 3 16 2 17 1 18 18 19 19 20 22 21 20 22 21 23
DOCKED: REMARK SMILES IDX 23 24 24 25 28 26 25 27 27 28 26 29
DOCKED: REMARK H PARENT 6 4
DOCKED: USER                              x       y       z     vdW  Elec       q    Type
DOCKED: USER                           _______ _______ _______ _____ _____    ______ ____
DOCKED: ROOT
DOCKED: ATOM      1  N   UNL     1     140.380  71.981 221.033 -0.09 +0.04    -0.240 NA 
DOCKED: ENDROOT
DOCKED: BRANCH   1   2
DOCKED: ATOM      2  C   UNL     1     140.128  72.397 222.245 -0.22 -0.03    +0.233 C  
DOCKED: BRANCH   2   3
DOCKED: ATOM      3  O   UNL     1     139.905  73.760 222.437 -0.71 +0.03    -0.492 OA 
DOCKED: ATOM      4  H   UNL     1     139.195  74.092 223.080 -0.48 -0.12    +0.295 HD 
DOCKED: ENDBRANCH   2   3
DOCKED: BRANCH   2   5
DOCKED: ATOM      5  C   UNL     1     140.065  71.498 223.436 -0.32 -0.02    +0.125 A  
DOCKED: ATOM      6  N   UNL     1     140.554  71.898 224.642 -0.26 +0.04    -0.243 NA 
DOCKED: ATOM      7  C   UNL     1     139.528  70.202 223.316 -0.26 -0.01    +0.035 A  
DOCKED: ATOM      8  C   UNL     1     140.531  71.103 225.740 -0.54 -0.01    +0.071 A  
DOCKED: ATOM      9  C   UNL     1     139.487  69.357 224.426 -0.33 -0.00    +0.013 A  
DOCKED: ATOM     10  C   UNL     1     141.043  71.575 226.957 -0.73 -0.01    +0.032 A  
DOCKED: ATOM     11  C   UNL     1     139.989  69.800 225.654 -0.47 -0.00    +0.003 A  
DOCKED: ATOM     12  C   UNL     1     141.025  70.750 228.084 -0.62 -0.01    +0.041 A  
DOCKED: ATOM     13  C   UNL     1     139.972  68.980 226.788 -0.54 -0.01    +0.049 A  
DOCKED: ATOM     14  C   UNL     1     140.494  69.455 228.001 -0.52 -0.02    +0.123 A  
DOCKED: ATOM     15  F   UNL     1     140.502  68.653 229.092 -0.14 +0.04    -0.207 F  
DOCKED: ENDBRANCH   2   5
DOCKED: ENDBRANCH   1   2
DOCKED: BRANCH   1  16
DOCKED: ATOM     16  C   UNL     1     141.537  71.207 220.586 -0.07 -0.03    +0.246 C  
DOCKED: BRANCH  16  17
DOCKED: ATOM     17  C   UNL     1     142.283  71.924 219.487 -0.07 -0.03    +0.244 C  
DOCKED: ATOM     18  O   UNL     1     141.731  72.094 218.378 -0.01 +0.05    -0.273 OA 
DOCKED: BRANCH  17  19
DOCKED: ATOM     19  N   UNL     1     143.594  72.477 219.729 -0.07 +0.04    -0.338 N  
DOCKED: ATOM     20  C   UNL     1     144.797  71.874 219.177 -0.23 +0.02    +0.120 C  
DOCKED: ATOM     21  C   UNL     1     143.888  73.469 220.769 -0.30 -0.02    +0.088 C  
DOCKED: ATOM     22  C   UNL     1     145.945  72.304 220.074 -0.40 +0.01    +0.024 C  
DOCKED: ATOM     23  C   UNL     1     145.418  73.445 220.940 -0.61 -0.00    +0.027 C  
DOCKED: BRANCH  21  24
DOCKED: ATOM     24  C   UNL     1     143.371  74.909 220.427 -0.29 -0.01    +0.012 C  
DOCKED: ATOM     25  C   UNL     1     141.897  75.119 220.831 -0.29 -0.00    +0.006 C  
DOCKED: ATOM     26  C   UNL     1     143.598  75.319 218.953 -0.29 -0.00    +0.006 C  
DOCKED: ATOM     27  C   UNL     1     141.476  76.573 220.584 -0.29 -0.00    +0.000 C  
DOCKED: ATOM     28  C   UNL     1     143.141  76.762 218.702 -0.34 -0.00    +0.000 C  
DOCKED: ATOM     29  C   UNL     1     141.683  76.962 219.120 -0.23 -0.00    +0.000 C  
DOCKED: ENDBRANCH  21  24
DOCKED: ENDBRANCH  17  19
DOCKED: ENDBRANCH  16  17
DOCKED: ENDBRANCH   1  16
DOCKED: TORSDOF 7
DOCKED: TER
DOCKED: ENDMDL
________________________________________________________________________________


    FINAL DOCKED STATE:
    ________________________


Run:   18 / 20
Time taken for this run:   0.045s

DOCKED: MODEL        18
DOCKED: USER    Run = 18
DOCKED: USER
DOCKED: USER    Estimated Free Energy of Binding    =  -7.43 kcal/mol  [=(1)+(2)+(3)-(4)]
DOCKED: USER
DOCKED: USER    (1) Final Intermolecular Energy     =  -9.52 kcal/mol
DOCKED: USER        vdW + Hbond + desolv Energy     =  -9.44 kcal/mol
DOCKED: USER        Electrostatic Energy            =  -0.08 kcal/mol
DOCKED: USER        Moving Ligand-Fixed Receptor    =  -9.52 kcal/mol
DOCKED: USER        Moving Ligand-Moving Receptor   =  +0.00 kcal/mol
DOCKED: USER    (2) Final Total Internal Energy     =  -1.63 kcal/mol
DOCKED: USER    (3) Torsional Free Energy           =  +2.09 kcal/mol
DOCKED: USER    (4) Unbound System's Energy         =  -1.63 kcal/mol
DOCKED: USER
DOCKED: USER
DOCKED: REMARK SMILES O=C(C/N=C(/O)c1ccc2cc(F)ccc2n1)N1CCC[C@H]1C1CCCCC1
DOCKED: REMARK SMILES IDX 4 1 5 2 6 3 7 5 17 6 8 7 16 8 9 9 15 10 10 11 14 12 11 13
DOCKED: REMARK SMILES IDX 12 14 13 15 3 16 2 17 1 18 18 19 19 20 22 21 20 22 21 23
DOCKED: REMARK SMILES IDX 23 24 24 25 28 26 25 27 27 28 26 29
DOCKED: REMARK H PARENT 6 4
DOCKED: USER                              x       y       z     vdW  Elec       q    Type
DOCKED: USER                           _______ _______ _______ _____ _____    ______ ____
DOCKED: ROOT
DOCKED: ATOM      1  N   UNL     1     139.169  72.945 221.600 -0.14 +0.05    -0.240 NA 
DOCKED: ENDROOT
DOCKED: BRANCH   1   2
DOCKED: ATOM      2  C   UNL     1     140.183  72.544 222.318 -0.22 -0.03    +0.233 C  
DOCKED: BRANCH   2   3
DOCKED: ATOM      3  O   UNL     1     141.452  73.017 221.983 -0.17 +0.01    -0.492 OA 
DOCKED: ATOM      4  H   UNL     1     141.617  74.003 221.808 +0.11 -0.02    +0.295 HD 
DOCKED: ENDBRANCH   2   3
DOCKED: BRANCH   2   5
DOCKED: ATOM      5  C   UNL     1     140.064  71.610 223.477 -0.32 -0.02    +0.125 A  
DOCKED: ATOM      6  N   UNL     1     140.606  71.921 224.687 -0.24 +0.03    -0.243 NA 
DOCKED: ATOM      7  C   UNL     1     139.415  70.369 223.322 -0.27 -0.01    +0.035 A  
DOCKED: ATOM      8  C   UNL     1     140.534  71.090 225.756 -0.54 -0.01    +0.071 A  
DOCKED: ATOM      9  C   UNL     1     139.321  69.490 224.401 -0.34 -0.00    +0.013 A  
DOCKED: ATOM     10  C   UNL     1     141.106  71.470 226.978 -0.71 -0.01    +0.032 A  
DOCKED: ATOM     11  C   UNL     1     139.881  69.843 225.633 -0.46 -0.00    +0.003 A  
DOCKED: ATOM     12  C   UNL     1     141.036  70.608 228.074 -0.60 -0.01    +0.041 A  
DOCKED: ATOM     13  C   UNL     1     139.812  68.985 226.738 -0.53 -0.01    +0.049 A  
DOCKED: ATOM     14  C   UNL     1     140.395  69.367 227.956 -0.53 -0.02    +0.123 A  
DOCKED: ATOM     15  F   UNL     1     140.353  68.527 229.017 -0.17 +0.04    -0.207 F  
DOCKED: ENDBRANCH   2   5
DOCKED: ENDBRANCH   1   2
DOCKED: BRANCH   1  16
DOCKED: ATOM     16  C   UNL     1     138.161  73.936 221.969 -0.08 -0.08    +0.246 C  
DOCKED: BRANCH  16  17
DOCKED: ATOM     17  C   UNL     1     138.794  75.268 222.288 -0.13 -0.06    +0.244 C  
DOCKED: ATOM     18  O   UNL     1     140.038  75.384 222.244 -0.58 +0.03    -0.273 OA 
DOCKED: BRANCH  17  19
DOCKED: ATOM     19  N   UNL     1     137.974  76.423 222.569 -0.16 +0.07    -0.338 N  
DOCKED: ATOM     20  C   UNL     1     136.617  76.297 223.078 -0.22 -0.03    +0.120 C  
DOCKED: ATOM     21  C   UNL     1     138.275  77.779 222.098 -0.21 -0.02    +0.088 C  
DOCKED: ATOM     22  C   UNL     1     135.893  77.575 222.691 -0.16 -0.00    +0.024 C  
DOCKED: ATOM     23  C   UNL     1     136.966  78.571 222.260 -0.16 -0.00    +0.027 C  
DOCKED: BRANCH  21  24
DOCKED: ATOM     24  C   UNL     1     139.459  78.462 222.866 -0.33 -0.00    +0.012 C  
DOCKED: ATOM     25  C   UNL     1     139.286  79.991 222.982 -0.36 -0.00    +0.006 C  
DOCKED: ATOM     26  C   UNL     1     140.855  78.112 222.298 -0.44 -0.00    +0.006 C  
DOCKED: ATOM     27  C   UNL     1     140.405  80.593 223.838 -0.38 -0.00    +0.000 C  
DOCKED: ATOM     28  C   UNL     1     141.970  78.748 223.137 -0.52 -0.00    +0.000 C  
DOCKED: ATOM     29  C   UNL     1     141.780  80.261 223.257 -0.61 -0.00    +0.000 C  
DOCKED: ENDBRANCH  21  24
DOCKED: ENDBRANCH  17  19
DOCKED: ENDBRANCH  16  17
DOCKED: ENDBRANCH   1  16
DOCKED: TORSDOF 7
DOCKED: TER
DOCKED: ENDMDL
________________________________________________________________________________


    FINAL DOCKED STATE:
    ________________________


Run:   19 / 20
Time taken for this run:   0.045s

DOCKED: MODEL        19
DOCKED: USER    Run = 19
DOCKED: USER
DOCKED: USER    Estimated Free Energy of Binding    =  -7.93 kcal/mol  [=(1)+(2)+(3)-(4)]
DOCKED: USER
DOCKED: USER    (1) Final Intermolecular Energy     = -10.01 kcal/mol
DOCKED: USER        vdW + Hbond + desolv Energy     =  -9.92 kcal/mol
DOCKED: USER        Electrostatic Energy            =  -0.09 kcal/mol
DOCKED: USER        Moving Ligand-Fixed Receptor    = -10.01 kcal/mol
DOCKED: USER        Moving Ligand-Moving Receptor   =  +0.00 kcal/mol
DOCKED: USER    (2) Final Total Internal Energy     =  -1.36 kcal/mol
DOCKED: USER    (3) Torsional Free Energy           =  +2.09 kcal/mol
DOCKED: USER    (4) Unbound System's Energy         =  -1.36 kcal/mol
DOCKED: USER
DOCKED: USER
DOCKED: REMARK SMILES O=C(C/N=C(/O)c1ccc2cc(F)ccc2n1)N1CCC[C@H]1C1CCCCC1
DOCKED: REMARK SMILES IDX 4 1 5 2 6 3 7 5 17 6 8 7 16 8 9 9 15 10 10 11 14 12 11 13
DOCKED: REMARK SMILES IDX 12 14 13 15 3 16 2 17 1 18 18 19 19 20 22 21 20 22 21 23
DOCKED: REMARK SMILES IDX 23 24 24 25 28 26 25 27 27 28 26 29
DOCKED: REMARK H PARENT 6 4
DOCKED: USER                              x       y       z     vdW  Elec       q    Type
DOCKED: USER                           _______ _______ _______ _____ _____    ______ ____
DOCKED: ROOT
DOCKED: ATOM      1  N   UNL     1     140.200  71.608 221.023 -0.08 +0.04    -0.240 NA 
DOCKED: ENDROOT
DOCKED: BRANCH   1   2
DOCKED: ATOM      2  C   UNL     1     140.030  72.060 222.236 -0.21 -0.04    +0.233 C  
DOCKED: BRANCH   2   3
DOCKED: ATOM      3  O   UNL     1     139.898  73.438 222.408 -0.69 +0.05    -0.492 OA 
DOCKED: ATOM      4  H   UNL     1     139.248  73.824 223.085 -0.47 -0.12    +0.295 HD 
DOCKED: ENDBRANCH   2   3
DOCKED: BRANCH   2   5
DOCKED: ATOM      5  C   UNL     1     139.968  71.189 223.447 -0.31 -0.02    +0.125 A  
DOCKED: ATOM      6  N   UNL     1     140.496  71.600 224.633 -0.30 +0.04    -0.243 NA 
DOCKED: ATOM      7  C   UNL     1     139.391  69.907 223.368 -0.24 -0.01    +0.035 A  
DOCKED: ATOM      8  C   UNL     1     140.477  70.830 225.749 -0.52 -0.01    +0.071 A  
DOCKED: ATOM      9  C   UNL     1     139.351  69.088 224.496 -0.34 -0.00    +0.013 A  
DOCKED: ATOM     10  C   UNL     1     141.030  71.311 226.943 -0.69 -0.01    +0.032 A  
DOCKED: ATOM     11  C   UNL     1     139.895  69.542 225.702 -0.46 -0.00    +0.003 A  
DOCKED: ATOM     12  C   UNL     1     141.015  70.511 228.087 -0.59 -0.01    +0.041 A  
DOCKED: ATOM     13  C   UNL     1     139.880  68.747 226.855 -0.56 -0.01    +0.049 A  
DOCKED: ATOM     14  C   UNL     1     140.445  69.232 228.045 -0.53 -0.02    +0.123 A  
DOCKED: ATOM     15  F   UNL     1     140.454  68.453 229.152 -0.14 +0.04    -0.207 F  
DOCKED: ENDBRANCH   2   5
DOCKED: ENDBRANCH   1   2
DOCKED: BRANCH   1  16
DOCKED: ATOM     16  C   UNL     1     141.046  72.179 219.976 -0.07 -0.04    +0.246 C  
DOCKED: BRANCH  16  17
DOCKED: ATOM     17  C   UNL     1     142.441  71.607 220.027 -0.11 -0.03    +0.244 C  
DOCKED: ATOM     18  O   UNL     1     142.598  70.367 220.000 -0.10 +0.03    -0.273 OA 
DOCKED: BRANCH  17  19
DOCKED: ATOM     19  N   UNL     1     143.592  72.477 220.035 -0.10 +0.04    -0.338 N  
DOCKED: ATOM     20  C   UNL     1     144.893  72.037 219.555 -0.27 +0.02    +0.120 C  
DOCKED: ATOM     21  C   UNL     1     143.665  73.737 220.783 -0.26 -0.02    +0.088 C  
DOCKED: ATOM     22  C   UNL     1     145.924  72.919 220.238 -0.55 +0.00    +0.024 C  
DOCKED: ATOM     23  C   UNL     1     145.161  74.094 220.843 -0.52 -0.01    +0.027 C  
DOCKED: BRANCH  21  24
DOCKED: ATOM     24  C   UNL     1     142.823  74.895 220.147 -0.33 -0.00    +0.012 C  
DOCKED: ATOM     25  C   UNL     1     143.696  76.084 219.695 -0.38 -0.00    +0.006 C  
DOCKED: ATOM     26  C   UNL     1     141.658  75.382 221.041 -0.27 -0.00    +0.006 C  
DOCKED: ATOM     27  C   UNL     1     142.842  77.134 218.976 -0.35 -0.00    +0.000 C  
DOCKED: ATOM     28  C   UNL     1     140.828  76.460 220.332 -0.22 -0.00    +0.000 C  
DOCKED: ATOM     29  C   UNL     1     141.707  77.626 219.875 -0.29 -0.00    +0.000 C  
DOCKED: ENDBRANCH  21  24
DOCKED: ENDBRANCH  17  19
DOCKED: ENDBRANCH  16  17
DOCKED: ENDBRANCH   1  16
DOCKED: TORSDOF 7
DOCKED: TER
DOCKED: ENDMDL
________________________________________________________________________________


    FINAL DOCKED STATE:
    ________________________


Run:   20 / 20
Time taken for this run:   0.045s

DOCKED: MODEL        20
DOCKED: USER    Run = 20
DOCKED: USER
DOCKED: USER    Estimated Free Energy of Binding    =  -7.00 kcal/mol  [=(1)+(2)+(3)-(4)]
DOCKED: USER
DOCKED: USER    (1) Final Intermolecular Energy     =  -9.09 kcal/mol
DOCKED: USER        vdW + Hbond + desolv Energy     =  -9.01 kcal/mol
DOCKED: USER        Electrostatic Energy            =  -0.08 kcal/mol
DOCKED: USER        Moving Ligand-Fixed Receptor    =  -9.09 kcal/mol
DOCKED: USER        Moving Ligand-Moving Receptor   =  +0.00 kcal/mol
DOCKED: USER    (2) Final Total Internal Energy     =  -2.05 kcal/mol
DOCKED: USER    (3) Torsional Free Energy           =  +2.09 kcal/mol
DOCKED: USER    (4) Unbound System's Energy         =  -2.05 kcal/mol
DOCKED: USER
DOCKED: USER
DOCKED: REMARK SMILES O=C(C/N=C(/O)c1ccc2cc(F)ccc2n1)N1CCC[C@H]1C1CCCCC1
DOCKED: REMARK SMILES IDX 4 1 5 2 6 3 7 5 17 6 8 7 16 8 9 9 15 10 10 11 14 12 11 13
DOCKED: REMARK SMILES IDX 12 14 13 15 3 16 2 17 1 18 18 19 19 20 22 21 20 22 21 23
DOCKED: REMARK SMILES IDX 23 24 24 25 28 26 25 27 27 28 26 29
DOCKED: REMARK H PARENT 6 4
DOCKED: USER                              x       y       z     vdW  Elec       q    Type
DOCKED: USER                           _______ _______ _______ _____ _____    ______ ____
DOCKED: ROOT
DOCKED: ATOM      1  N   UNL     1     140.488  73.750 222.343 -0.71 -0.01    -0.240 NA 
DOCKED: ENDROOT
DOCKED: BRANCH   1   2
DOCKED: ATOM      2  C   UNL     1     140.427  72.447 222.267 -0.22 -0.02    +0.233 C  
DOCKED: BRANCH   2   3
DOCKED: ATOM      3  O   UNL     1     140.561  71.858 221.011 -0.04 +0.07    -0.492 OA 
DOCKED: ATOM      4  H   UNL     1     140.043  72.202 220.209 +0.06 -0.05    +0.295 HD 
DOCKED: ENDBRANCH   2   3
DOCKED: BRANCH   2   5
DOCKED: ATOM      5  C   UNL     1     140.222  71.554 223.446 -0.32 -0.02    +0.125 A  
DOCKED: ATOM      6  N   UNL     1     140.705  71.893 224.673 -0.26 +0.03    -0.243 NA 
DOCKED: ATOM      7  C   UNL     1     139.554  70.324 223.294 -0.26 -0.01    +0.035 A  
DOCKED: ATOM      8  C   UNL     1     140.556  71.099 225.763 -0.54 -0.01    +0.071 A  
DOCKED: ATOM      9  C   UNL     1     139.381  69.483 224.393 -0.33 -0.00    +0.013 A  
DOCKED: ATOM     10  C   UNL     1     141.069  71.506 227.002 -0.73 -0.01    +0.032 A  
DOCKED: ATOM     11  C   UNL     1     139.881  69.863 225.643 -0.46 -0.00    +0.003 A  
DOCKED: ATOM     12  C   UNL     1     140.920  70.681 228.119 -0.61 -0.01    +0.041 A  
DOCKED: ATOM     13  C   UNL     1     139.732  69.043 226.769 -0.52 -0.01    +0.049 A  
DOCKED: ATOM     14  C   UNL     1     140.256  69.452 228.005 -0.52 -0.02    +0.123 A  
DOCKED: ATOM     15  F   UNL     1     140.137  68.648 229.087 -0.14 +0.04    -0.207 F  
DOCKED: ENDBRANCH   2   5
DOCKED: ENDBRANCH   1   2
DOCKED: BRANCH   1  16
DOCKED: ATOM     16  C   UNL     1     139.755  74.719 221.530 -0.20 -0.04    +0.246 C  
DOCKED: BRANCH  16  17
DOCKED: ATOM     17  C   UNL     1     140.329  74.809 220.138 -0.08 -0.06    +0.244 C  
DOCKED: ATOM     18  O   UNL     1     139.845  74.105 219.226 -0.02 +0.06    -0.273 OA 
DOCKED: BRANCH  17  19
DOCKED: ATOM     19  N   UNL     1     141.380  75.753 219.837 -0.06 +0.13    -0.338 N  
DOCKED: ATOM     20  C   UNL     1     141.344  77.125 220.320 -0.23 -0.06    +0.120 C  
DOCKED: ATOM     21  C   UNL     1     142.395  75.549 218.798 -0.19 -0.04    +0.088 C  
DOCKED: ATOM     22  C   UNL     1     142.208  77.937 219.372 -0.27 -0.02    +0.024 C  
DOCKED: ATOM     23  C   UNL     1     143.014  76.936 218.549 -0.32 -0.02    +0.027 C  
DOCKED: BRANCH  21  24
DOCKED: ATOM     24  C   UNL     1     143.487  74.493 219.185 -0.29 -0.00    +0.012 C  
DOCKED: ATOM     25  C   UNL     1     142.914  73.065 219.304 -0.17 -0.00    +0.006 C  
DOCKED: ATOM     26  C   UNL     1     144.293  74.865 220.451 -0.32 -0.00    +0.006 C  
DOCKED: ATOM     27  C   UNL     1     144.038  72.057 219.568 -0.26 -0.00    +0.000 C  
DOCKED: ATOM     28  C   UNL     1     145.393  73.834 220.732 -0.62 -0.00    +0.000 C  
DOCKED: ATOM     29  C   UNL     1     144.815  72.421 220.833 -0.36 -0.00    +0.000 C  
DOCKED: ENDBRANCH  21  24
DOCKED: ENDBRANCH  17  19
DOCKED: ENDBRANCH  16  17
DOCKED: ENDBRANCH   1  16
DOCKED: TORSDOF 7
DOCKED: TER
DOCKED: ENDMDL
________________________________________________________________________________


    CLUSTERING HISTOGRAM
    ____________________


________________________________________________________________________________
     |           |     |           |     |
Clus | Lowest    | Run | Mean      | Num | Histogram
-ter | Binding   |     | Binding   | in  |
Rank | Energy    |     | Energy    | Clus|    5    10   15   20   25   30   35
_____|___________|_____|___________|_____|____:____|____:____|____:____|____:___
   1 |     -8.59 |   5 |     -8.17 |   5 |#####
   2 |     -8.17 |   1 |     -7.65 |  11 |###########
   3 |     -7.92 |  12 |     -7.92 |   1 |#
   4 |     -7.66 |  15 |     -7.66 |   1 |#
   5 |     -7.21 |   2 |     -7.21 |   1 |#
   6 |     -6.95 |   9 |     -6.95 |   1 |#
_____|___________|_____|___________|_____|______________________________________


    RMSD TABLE
    __________


_______________________________________________________________________
     |      |      |           |         |                 |
Rank | Sub- | Run  | Binding   | Cluster | Reference       | Grep
     | Rank |      | Energy    | RMSD    | RMSD            | Pattern
_____|______|______|___________|_________|_________________|___________
   1      1      5       -8.59      0.00    272.90           RANKING
   1      2     13       -8.56      0.13    272.86           RANKING
   1      3     16       -8.39      0.70    272.75           RANKING
   1      4     14       -7.88      0.27    272.80           RANKING
   1      5     18       -7.43      1.87    272.78           RANKING
   2      1      1       -8.17      0.00    272.33           RANKING
   2      2      6       -8.02      0.34    272.27           RANKING
   2      3     19       -7.93      1.45    272.24           RANKING
   2      4      7       -7.87      1.42    272.23           RANKING
   2      5      4       -7.85      1.54    272.19           RANKING
   2      6     17       -7.73      1.40    272.18           RANKING
   2      7     11       -7.63      1.04    272.07           RANKING
   2      8      3       -7.44      1.27    272.23           RANKING
   2      9     10       -7.30      1.20    272.12           RANKING
   2     10      8       -7.27      1.28    272.28           RANKING
   2     11     20       -7.00      1.21    272.07           RANKING
   3      1     12       -7.92      0.00    272.45           RANKING
   4      1     15       -7.66      0.00    271.67           RANKING
   5      1      2       -7.21      0.00    271.83           RANKING
   6      1      9       -6.95      0.00    272.30           RANKING

Run time 0.870 sec
Idle time 0.000 sec
