AutoDock-GPU version: v1.6

**********************************************************
**    AutoDock-GPU AUTODOCKTOOLS-COMPATIBLE DLG FILE    **
**********************************************************


    DOCKING PARAMETERS
    ________________________


Ligand file:                               /home/a/REINVENT4/ReinventStudies/pleaseWork/justmol2mol_4_Compounds_ontop/graph-dock-8u2o5u/graph-DockGPU/node-autodockgpu/inputs/RBUQBSMVVRDJJL-JRCNZNPUNA-M.pdbqt
Grid fld file:                             /home/a/REINVENT4/ReinventStudies/mols/Rad51/maps/rad51_receptor.maps.fld

Random seed:                               42
Number of runs:                            20
Number of energy evaluations:              1132076
Number of generations:                     42000
Size of population:                        150
Rate of crossover:                         80.000000%
Tournament selection probability limit:    60.000000%
Rate of mutation:                          2.000000%
Maximal allowed delta movement:            +/- 6.000000A
Maximal allowed delta angle:               +/- 90.000000

Rate of local search:                      100.000000%
Maximal number of local search iterations: 300
Rho lower bound:                           0.010000
Spread of local search delta movement:     2.000000A
Spread of local search delta angle:        74.999999
Limit of consecutive successes/failures:   4

Handle symmetry during clustering:         YES
RMSD tolerance:                            2.000000A

Program call in command line was:          /home/a/REINVENT4/ReinventStudies/adgpu-v1.6_linux_x64_cuda12_128wi --filelist batch.txt --heuristics 1 --nrun 20 --psize 150 --lsit 300 --seed 42 --heurmax 12000000 


    GRID PARAMETERS
    ________________________


Receptor name:                             rad51_receptor
Number of grid points (x, y, z):           53, 53, 53
Grid center (x, y, z):                     139.950000, 75.640000, 221.970000A
Grid size (x, y, z):                       19.500000, 19.500000, 19.500000A
Grid spacing:                              0.375000A


    LIGAND PARAMETERS
    ________________________


Ligand name:                               /home/a/REINVENT4/ReinventStudies/pleaseWork/justmol2mol_4_Compounds_ontop/graph-dock-8u2o5u/graph-DockGPU/node-autodockgpu/inputs/RBUQBSMVVRDJJL-JRCNZNPUNA-M
Number of atoms:                           31
Number of rotatable bonds:                 5
Number of atom types:                      7


    DUMMY DATA (only for ADT-compatibility)
    ________________________


DPF> outlev 1
DPF> ga_run 20
DPF> fld /home/a/REINVENT4/ReinventStudies/mols/Rad51/maps/rad51_receptor.maps.fld
DPF> move /home/a/REINVENT4/ReinventStudies/pleaseWork/justmol2mol_4_Compounds_ontop/graph-dock-8u2o5u/graph-DockGPU/node-autodockgpu/inputs/RBUQBSMVVRDJJL-JRCNZNPUNA-M.pdbqt


    COUNTER STATES
    ________________________


Number of energy evaluations performed:    811593
Number of generations used:                45


    INPUT LIGAND PDBQT FILE:
    ________________________


INPUT-LIGAND-PDBQT: REMARK SMILES O=C(NCC(=O)N1CCCC[C@H]1c1ncc([O-])cn1)c1ccc2cc(Cl)ccc2n1
INPUT-LIGAND-PDBQT: REMARK SMILES IDX 4 1 3 2 2 3 1 4 20 6 21 7 30 8 22 9 29 10 23 11 28 12 24 13
INPUT-LIGAND-PDBQT: REMARK SMILES IDX 27 14 25 15 26 16 5 17 6 18 7 19 8 20 12 21 9 22 11 23 10 24
INPUT-LIGAND-PDBQT: REMARK SMILES IDX 13 25 14 26 19 27 15 28 18 29 16 30 17 31
INPUT-LIGAND-PDBQT: REMARK H PARENT 3 5
INPUT-LIGAND-PDBQT: ROOT
INPUT-LIGAND-PDBQT: ATOM      1  C   UNL     1       1.441  -0.632  -1.283  1.00  0.00     0.216 C 
INPUT-LIGAND-PDBQT: ENDROOT
INPUT-LIGAND-PDBQT: BRANCH   1   2
INPUT-LIGAND-PDBQT: ATOM      2  N   UNL     1       0.172  -1.291  -1.591  1.00  0.00    -0.342 N 
INPUT-LIGAND-PDBQT: ATOM      3  C   UNL     1      -0.277  -2.460  -0.889  1.00  0.00     0.270 C 
INPUT-LIGAND-PDBQT: ATOM      4  O   UNL     1       0.459  -2.980  -0.006  1.00  0.00    -0.268 OA
INPUT-LIGAND-PDBQT: ATOM      5  H   UNL     1      -0.414  -0.883  -2.351  1.00  0.00     0.164 HD
INPUT-LIGAND-PDBQT: BRANCH   3   6
INPUT-LIGAND-PDBQT: ATOM      6  C   UNL     1      -1.594  -3.058  -1.196  1.00  0.00     0.128 A 
INPUT-LIGAND-PDBQT: ATOM      7  C   UNL     1      -2.042  -4.213  -0.529  1.00  0.00     0.035 A 
INPUT-LIGAND-PDBQT: ATOM      8  N   UNL     1      -2.392  -2.477  -2.137  1.00  0.00    -0.243 NA
INPUT-LIGAND-PDBQT: ATOM      9  C   UNL     1      -3.291  -4.752  -0.843  1.00  0.00     0.013 A 
INPUT-LIGAND-PDBQT: ATOM     10  C   UNL     1      -3.615  -2.977  -2.458  1.00  0.00     0.071 A 
INPUT-LIGAND-PDBQT: ATOM     11  C   UNL     1      -4.094  -4.137  -1.810  1.00  0.00     0.002 A 
INPUT-LIGAND-PDBQT: ATOM     12  C   UNL     1      -4.400  -2.342  -3.427  1.00  0.00     0.030 A 
INPUT-LIGAND-PDBQT: ATOM     13  C   UNL     1      -5.357  -4.649  -2.142  1.00  0.00     0.030 A 
INPUT-LIGAND-PDBQT: ATOM     14  C   UNL     1      -5.660  -2.855  -3.750  1.00  0.00     0.023 A 
INPUT-LIGAND-PDBQT: ATOM     15  C   UNL     1      -6.137  -4.007  -3.112  1.00  0.00     0.041 A 
INPUT-LIGAND-PDBQT: ATOM     16  Cl  UNL     1      -7.719  -4.642  -3.524  1.00  0.00    -0.084 Cl
INPUT-LIGAND-PDBQT: ENDBRANCH   3   6
INPUT-LIGAND-PDBQT: ENDBRANCH   1   2
INPUT-LIGAND-PDBQT: BRANCH   1  17
INPUT-LIGAND-PDBQT: ATOM     17  C   UNL     1       1.344   0.193  -0.022  1.00  0.00     0.242 C 
INPUT-LIGAND-PDBQT: ATOM     18  O   UNL     1       0.205   0.400   0.488  1.00  0.00    -0.273 OA
INPUT-LIGAND-PDBQT: BRANCH  17  19
INPUT-LIGAND-PDBQT: ATOM     19  N   UNL     1       2.515   0.785   0.591  1.00  0.00    -0.331 N 
INPUT-LIGAND-PDBQT: ATOM     20  C   UNL     1       3.856   0.624  -0.006  1.00  0.00     0.120 C 
INPUT-LIGAND-PDBQT: ATOM     21  C   UNL     1       2.376   1.453   1.903  1.00  0.00     0.153 C 
INPUT-LIGAND-PDBQT: ATOM     22  C   UNL     1       4.709   1.873   0.238  1.00  0.00     0.022 C 
INPUT-LIGAND-PDBQT: ATOM     23  C   UNL     1       3.738   1.589   2.608  1.00  0.00     0.033 C 
INPUT-LIGAND-PDBQT: ATOM     24  C   UNL     1       4.793   2.274   1.726  1.00  0.00     0.004 C 
INPUT-LIGAND-PDBQT: BRANCH  21  25
INPUT-LIGAND-PDBQT: ATOM     25  C   UNL     1       1.712   2.800   1.758  1.00  0.00     0.150 A 
INPUT-LIGAND-PDBQT: ATOM     26  N   UNL     1       1.084   3.359   2.829  1.00  0.00    -0.240 NA
INPUT-LIGAND-PDBQT: ATOM     27  N   UNL     1       1.776   3.482   0.581  1.00  0.00    -0.240 NA
INPUT-LIGAND-PDBQT: ATOM     28  C   UNL     1       0.504   4.584   2.740  1.00  0.00     0.106 A 
INPUT-LIGAND-PDBQT: ATOM     29  C   UNL     1       1.209   4.711   0.451  1.00  0.00     0.106 A 
INPUT-LIGAND-PDBQT: ATOM     30  C   UNL     1       0.555   5.292   1.538  1.00  0.00    -0.071 A 
INPUT-LIGAND-PDBQT: ATOM     31  O   UNL     1      -0.028   6.553   1.428  1.00  0.00    -0.870 OA
INPUT-LIGAND-PDBQT: ENDBRANCH  21  25
INPUT-LIGAND-PDBQT: ENDBRANCH  17  19
INPUT-LIGAND-PDBQT: ENDBRANCH   1  17
INPUT-LIGAND-PDBQT: TORSDOF 5


    FINAL DOCKED STATE:
    ________________________


Run:   1 / 20
Time taken for this run:   0.034s

DOCKED: MODEL        1
DOCKED: USER    Run = 1
DOCKED: USER
DOCKED: USER    Estimated Free Energy of Binding    =  -6.45 kcal/mol  [=(1)+(2)+(3)-(4)]
DOCKED: USER
DOCKED: USER    (1) Final Intermolecular Energy     =  -7.94 kcal/mol
DOCKED: USER        vdW + Hbond + desolv Energy     =  -8.05 kcal/mol
DOCKED: USER        Electrostatic Energy            =  +0.11 kcal/mol
DOCKED: USER        Moving Ligand-Fixed Receptor    =  -7.94 kcal/mol
DOCKED: USER        Moving Ligand-Moving Receptor   =  +0.00 kcal/mol
DOCKED: USER    (2) Final Total Internal Energy     =  -2.63 kcal/mol
DOCKED: USER    (3) Torsional Free Energy           =  +1.49 kcal/mol
DOCKED: USER    (4) Unbound System's Energy         =  -2.63 kcal/mol
DOCKED: USER
DOCKED: USER
DOCKED: REMARK SMILES O=C(NCC(=O)N1CCCC[C@H]1c1ncc([O-])cn1)c1ccc2cc(Cl)ccc2n1
DOCKED: REMARK SMILES IDX 4 1 3 2 2 3 1 4 20 6 21 7 30 8 22 9 29 10 23 11 28 12 24 13
DOCKED: REMARK SMILES IDX 27 14 25 15 26 16 5 17 6 18 7 19 8 20 12 21 9 22 11 23 10 24
DOCKED: REMARK SMILES IDX 13 25 14 26 19 27 15 28 18 29 16 30 17 31
DOCKED: REMARK H PARENT 3 5
DOCKED: USER                              x       y       z     vdW  Elec       q    Type
DOCKED: USER                           _______ _______ _______ _____ _____    ______ ____
DOCKED: ROOT
DOCKED: ATOM      1  C   UNL     1     142.151  80.348 218.508 -0.24 -0.15    +0.216 C  
DOCKED: ENDROOT
DOCKED: BRANCH   1   2
DOCKED: ATOM      2  N   UNL     1     142.619  78.964 218.563 -0.15 +0.29    -0.342 N  
DOCKED: ATOM      3  C   UNL     1     142.573  78.092 217.423 -0.19 -0.23    +0.270 C  
DOCKED: ATOM      4  O   UNL     1     142.070  78.502 216.342 -0.12 +0.23    -0.268 OA 
DOCKED: ATOM      5  H   UNL     1     142.995  78.615 219.470 -0.27 -0.17    +0.164 HD 
DOCKED: BRANCH   3   6
DOCKED: ATOM      6  C   UNL     1     143.111  76.717 217.510 -0.23 -0.08    +0.128 A  
DOCKED: ATOM      7  C   UNL     1     143.248  75.915 216.362 -0.17 -0.02    +0.035 A  
DOCKED: ATOM      8  N   UNL     1     143.487  76.219 218.723 -0.21 +0.15    -0.243 NA 
DOCKED: ATOM      9  C   UNL     1     143.760  74.622 216.480 -0.13 -0.00    +0.013 A  
DOCKED: ATOM     10  C   UNL     1     143.994  74.966 218.865 -0.13 -0.03    +0.071 A  
DOCKED: ATOM     11  C   UNL     1     144.142  74.133 217.734 -0.17 -0.00    +0.002 A  
DOCKED: ATOM     12  C   UNL     1     144.371  74.501 220.130 -0.45 -0.01    +0.030 A  
DOCKED: ATOM     13  C   UNL     1     144.667  72.841 217.884 -0.16 +0.00    +0.030 A  
DOCKED: ATOM     14  C   UNL     1     144.897  73.214 220.273 -0.48 -0.00    +0.023 A  
DOCKED: ATOM     15  C   UNL     1     145.043  72.384 219.154 -0.29 +0.01    +0.041 A  
DOCKED: ATOM     16  Cl  UNL     1     145.705  70.771 219.343 -0.28 -0.05    -0.084 Cl 
DOCKED: ENDBRANCH   3   6
DOCKED: ENDBRANCH   1   2
DOCKED: BRANCH   1  17
DOCKED: ATOM     17  C   UNL     1     141.018  80.588 219.477 -0.15 -0.10    +0.242 C  
DOCKED: ATOM     18  O   UNL     1     139.851  80.768 219.022 -0.03 +0.09    -0.273 OA 
DOCKED: BRANCH  17  19
DOCKED: ATOM     19  N   UNL     1     141.242  80.658 220.906 -0.14 +0.11    -0.331 N  
DOCKED: ATOM     20  C   UNL     1     140.660  81.744 221.720 -0.29 -0.02    +0.120 C  
DOCKED: ATOM     21  C   UNL     1     142.172  79.695 221.533 -0.28 -0.08    +0.153 C  
DOCKED: ATOM     22  C   UNL     1     140.305  81.238 223.122 -0.35 -0.00    +0.022 C  
DOCKED: ATOM     23  C   UNL     1     142.652  80.195 222.908 -0.63 -0.01    +0.033 C  
DOCKED: ATOM     24  C   UNL     1     141.487  80.557 223.843 -0.54 -0.00    +0.004 C  
DOCKED: BRANCH  21  25
DOCKED: ATOM     25  C   UNL     1     141.542  78.330 221.651 -0.29 -0.08    +0.150 A  
DOCKED: ATOM     26  N   UNL     1     141.974  77.318 220.849 -0.10 +0.16    -0.240 NA 
DOCKED: ATOM     27  N   UNL     1     140.578  78.088 222.583 -0.25 +0.07    -0.240 NA 
DOCKED: ATOM     28  C   UNL     1     141.449  76.069 220.952 -0.25 -0.05    +0.106 A  
DOCKED: ATOM     29  C   UNL     1     140.028  76.852 222.718 -0.22 -0.02    +0.106 A  
DOCKED: ATOM     30  C   UNL     1     140.456  75.808 221.897 -0.34 +0.02    -0.071 A  
DOCKED: ATOM     31  O   UNL     1     139.909  74.533 222.024 -0.53 +0.09    -0.870 OA 
DOCKED: ENDBRANCH  21  25
DOCKED: ENDBRANCH  17  19
DOCKED: ENDBRANCH   1  17
DOCKED: TORSDOF 5
DOCKED: TER
DOCKED: ENDMDL
________________________________________________________________________________


    FINAL DOCKED STATE:
    ________________________


Run:   2 / 20
Time taken for this run:   0.034s

DOCKED: MODEL        2
DOCKED: USER    Run = 2
DOCKED: USER
DOCKED: USER    Estimated Free Energy of Binding    =  -7.59 kcal/mol  [=(1)+(2)+(3)-(4)]
DOCKED: USER
DOCKED: USER    (1) Final Intermolecular Energy     =  -9.08 kcal/mol
DOCKED: USER        vdW + Hbond + desolv Energy     =  -9.24 kcal/mol
DOCKED: USER        Electrostatic Energy            =  +0.16 kcal/mol
DOCKED: USER        Moving Ligand-Fixed Receptor    =  -9.08 kcal/mol
DOCKED: USER        Moving Ligand-Moving Receptor   =  +0.00 kcal/mol
DOCKED: USER    (2) Final Total Internal Energy     =  -1.98 kcal/mol
DOCKED: USER    (3) Torsional Free Energy           =  +1.49 kcal/mol
DOCKED: USER    (4) Unbound System's Energy         =  -1.98 kcal/mol
DOCKED: USER
DOCKED: USER
DOCKED: REMARK SMILES O=C(NCC(=O)N1CCCC[C@H]1c1ncc([O-])cn1)c1ccc2cc(Cl)ccc2n1
DOCKED: REMARK SMILES IDX 4 1 3 2 2 3 1 4 20 6 21 7 30 8 22 9 29 10 23 11 28 12 24 13
DOCKED: REMARK SMILES IDX 27 14 25 15 26 16 5 17 6 18 7 19 8 20 12 21 9 22 11 23 10 24
DOCKED: REMARK SMILES IDX 13 25 14 26 19 27 15 28 18 29 16 30 17 31
DOCKED: REMARK H PARENT 3 5
DOCKED: USER                              x       y       z     vdW  Elec       q    Type
DOCKED: USER                           _______ _______ _______ _____ _____    ______ ____
DOCKED: ROOT
DOCKED: ATOM      1  C   UNL     1     139.651  74.997 220.781 -0.13 -0.05    +0.216 C  
DOCKED: ENDROOT
DOCKED: BRANCH   1   2
DOCKED: ATOM      2  N   UNL     1     139.600  74.030 221.878 -0.15 +0.06    -0.342 N  
DOCKED: ATOM      3  C   UNL     1     139.827  72.627 221.676 -0.17 -0.04    +0.270 C  
DOCKED: ATOM      4  O   UNL     1     140.030  72.188 220.511 -0.06 +0.05    -0.268 OA 
DOCKED: ATOM      5  H   UNL     1     139.390  74.392 222.833 -0.44 -0.03    +0.164 HD 
DOCKED: BRANCH   3   6
DOCKED: ATOM      6  C   UNL     1     139.822  71.695 222.824 -0.27 -0.02    +0.128 A  
DOCKED: ATOM      7  C   UNL     1     139.245  70.416 222.721 -0.21 -0.01    +0.035 A  
DOCKED: ATOM      8  N   UNL     1     140.392  72.078 224.002 -0.23 +0.03    -0.243 NA 
DOCKED: ATOM      9  C   UNL     1     139.257  69.561 223.824 -0.28 -0.00    +0.013 A  
DOCKED: ATOM     10  C   UNL     1     140.424  71.264 225.090 -0.48 -0.01    +0.071 A  
DOCKED: ATOM     11  C   UNL     1     139.851  69.975 225.022 -0.42 -0.00    +0.002 A  
DOCKED: ATOM     12  C   UNL     1     141.026  71.700 226.276 -0.65 -0.00    +0.030 A  
DOCKED: ATOM     13  C   UNL     1     139.887  69.136 226.145 -0.49 -0.00    +0.030 A  
DOCKED: ATOM     14  C   UNL     1     141.063  70.857 227.391 -0.65 -0.00    +0.023 A  
DOCKED: ATOM     15  C   UNL     1     140.492  69.579 227.328 -0.56 -0.01    +0.041 A  
DOCKED: ATOM     16  Cl  UNL     1     140.544  68.530 228.732 -0.67 +0.02    -0.084 Cl 
DOCKED: ENDBRANCH   3   6
DOCKED: ENDBRANCH   1   2
DOCKED: BRANCH   1  17
DOCKED: ATOM     17  C   UNL     1     140.971  75.730 220.751 -0.19 -0.08    +0.242 C  
DOCKED: ATOM     18  O   UNL     1     141.989  75.139 220.288 -0.17 +0.10    -0.273 OA 
DOCKED: BRANCH  17  19
DOCKED: ATOM     19  N   UNL     1     141.107  77.073 221.277 -0.15 +0.15    -0.331 N  
DOCKED: ATOM     20  C   UNL     1     141.805  78.127 220.513 -0.26 -0.07    +0.120 C  
DOCKED: ATOM     21  C   UNL     1     140.649  77.352 222.654 -0.31 -0.05    +0.153 C  
DOCKED: ATOM     22  C   UNL     1     141.167  79.495 220.775 -0.29 -0.01    +0.022 C  
DOCKED: ATOM     23  C   UNL     1     141.285  78.643 223.204 -0.54 -0.01    +0.033 C  
DOCKED: ATOM     24  C   UNL     1     141.072  79.847 222.274 -0.43 -0.00    +0.004 C  
DOCKED: BRANCH  21  25
DOCKED: ATOM     25  C   UNL     1     139.144  77.428 222.720 -0.23 -0.03    +0.150 A  
DOCKED: ATOM     26  N   UNL     1     138.514  78.591 222.396 -0.13 +0.04    -0.240 NA 
DOCKED: ATOM     27  N   UNL     1     138.408  76.332 223.054 -0.16 +0.05    -0.240 NA 
DOCKED: ATOM     28  C   UNL     1     137.159  78.682 222.414 -0.15 -0.02    +0.106 A  
DOCKED: ATOM     29  C   UNL     1     137.049  76.382 223.084 -0.23 -0.02    +0.106 A  
DOCKED: ATOM     30  C   UNL     1     136.391  77.569 222.762 -0.17 +0.01    -0.071 A  
DOCKED: ATOM     31  O   UNL     1     135.000  77.641 222.781 +0.05 +0.12    -0.870 OA 
DOCKED: ENDBRANCH  21  25
DOCKED: ENDBRANCH  17  19
DOCKED: ENDBRANCH   1  17
DOCKED: TORSDOF 5
DOCKED: TER
DOCKED: ENDMDL
________________________________________________________________________________


    FINAL DOCKED STATE:
    ________________________


Run:   3 / 20
Time taken for this run:   0.034s

DOCKED: MODEL        3
DOCKED: USER    Run = 3
DOCKED: USER
DOCKED: USER    Estimated Free Energy of Binding    =  -5.95 kcal/mol  [=(1)+(2)+(3)-(4)]
DOCKED: USER
DOCKED: USER    (1) Final Intermolecular Energy     =  -7.44 kcal/mol
DOCKED: USER        vdW + Hbond + desolv Energy     =  -7.58 kcal/mol
DOCKED: USER        Electrostatic Energy            =  +0.13 kcal/mol
DOCKED: USER        Moving Ligand-Fixed Receptor    =  -7.44 kcal/mol
DOCKED: USER        Moving Ligand-Moving Receptor   =  +0.00 kcal/mol
DOCKED: USER    (2) Final Total Internal Energy     =  -2.83 kcal/mol
DOCKED: USER    (3) Torsional Free Energy           =  +1.49 kcal/mol
DOCKED: USER    (4) Unbound System's Energy         =  -2.83 kcal/mol
DOCKED: USER
DOCKED: USER
DOCKED: REMARK SMILES O=C(NCC(=O)N1CCCC[C@H]1c1ncc([O-])cn1)c1ccc2cc(Cl)ccc2n1
DOCKED: REMARK SMILES IDX 4 1 3 2 2 3 1 4 20 6 21 7 30 8 22 9 29 10 23 11 28 12 24 13
DOCKED: REMARK SMILES IDX 27 14 25 15 26 16 5 17 6 18 7 19 8 20 12 21 9 22 11 23 10 24
DOCKED: REMARK SMILES IDX 13 25 14 26 19 27 15 28 18 29 16 30 17 31
DOCKED: REMARK H PARENT 3 5
DOCKED: USER                              x       y       z     vdW  Elec       q    Type
DOCKED: USER                           _______ _______ _______ _____ _____    ______ ____
DOCKED: ROOT
DOCKED: ATOM      1  C   UNL     1     141.916  80.822 220.767 -0.18 -0.08    +0.216 C  
DOCKED: ENDROOT
DOCKED: BRANCH   1   2
DOCKED: ATOM      2  N   UNL     1     142.112  79.377 220.654 -0.05 +0.21    -0.342 N  
DOCKED: ATOM      3  C   UNL     1     141.650  78.624 219.523 -0.16 -0.15    +0.270 C  
DOCKED: ATOM      4  O   UNL     1     141.005  79.205 218.607 -0.08 +0.13    -0.268 OA 
DOCKED: ATOM      5  H   UNL     1     142.608  78.894 221.434 -0.33 -0.13    +0.164 HD 
DOCKED: BRANCH   3   6
DOCKED: ATOM      6  C   UNL     1     141.922  77.174 219.426 -0.22 -0.07    +0.128 A  
DOCKED: ATOM      7  C   UNL     1     141.016  76.305 218.791 -0.10 -0.01    +0.035 A  
DOCKED: ATOM      8  N   UNL     1     143.073  76.671 219.956 -0.20 +0.18    -0.243 NA 
DOCKED: ATOM      9  C   UNL     1     141.304  74.940 218.718 -0.09 -0.00    +0.013 A  
DOCKED: ATOM     10  C   UNL     1     143.382  75.348 219.893 -0.35 -0.04    +0.071 A  
DOCKED: ATOM     11  C   UNL     1     142.493  74.447 219.266 -0.20 -0.00    +0.002 A  
DOCKED: ATOM     12  C   UNL     1     144.579  74.880 220.447 -0.37 -0.01    +0.030 A  
DOCKED: ATOM     13  C   UNL     1     142.815  73.083 219.201 -0.14 -0.01    +0.030 A  
DOCKED: ATOM     14  C   UNL     1     144.896  73.520 220.374 -0.51 -0.00    +0.023 A  
DOCKED: ATOM     15  C   UNL     1     144.016  72.623 219.756 -0.27 -0.00    +0.041 A  
DOCKED: ATOM     16  Cl  UNL     1     144.423  70.919 219.670 -0.29 -0.01    -0.084 Cl 
DOCKED: ENDBRANCH   3   6
DOCKED: ENDBRANCH   1   2
DOCKED: BRANCH   1  17
DOCKED: ATOM     17  C   UNL     1     141.368  81.203 222.121 -0.31 -0.05    +0.242 C  
DOCKED: ATOM     18  O   UNL     1     142.161  81.651 222.999 -0.35 +0.04    -0.273 OA 
DOCKED: BRANCH  17  19
DOCKED: ATOM     19  N   UNL     1     139.969  81.028 222.452 -0.12 +0.06    -0.331 N  
DOCKED: ATOM     20  C   UNL     1     138.919  81.823 221.783 -0.16 -0.02    +0.120 C  
DOCKED: ATOM     21  C   UNL     1     139.603  80.127 223.566 -0.34 -0.02    +0.153 C  
DOCKED: ATOM     22  C   UNL     1     137.636  81.000 221.628 -0.11 -0.00    +0.022 C  
DOCKED: ATOM     23  C   UNL     1     138.181  80.421 224.079 -0.37 -0.00    +0.033 C  
DOCKED: ATOM     24  C   UNL     1     137.133  80.396 222.956 -0.20 -0.00    +0.004 C  
DOCKED: BRANCH  21  25
DOCKED: ATOM     25  C   UNL     1     139.738  78.680 223.161 -0.27 -0.03    +0.150 A  
DOCKED: ATOM     26  N   UNL     1     138.621  77.912 223.030 -0.16 +0.04    -0.240 NA 
DOCKED: ATOM     27  N   UNL     1     140.960  78.149 222.879 -0.29 +0.08    -0.240 NA 
DOCKED: ATOM     28  C   UNL     1     138.706  76.615 222.636 -0.26 -0.02    +0.106 A  
DOCKED: ATOM     29  C   UNL     1     141.087  76.855 222.481 -0.29 -0.04    +0.106 A  
DOCKED: ATOM     30  C   UNL     1     139.952  76.054 222.350 -0.33 +0.01    -0.071 A  
DOCKED: ATOM     31  O   UNL     1     140.060  74.728 221.938 -0.48 +0.10    -0.870 OA 
DOCKED: ENDBRANCH  21  25
DOCKED: ENDBRANCH  17  19
DOCKED: ENDBRANCH   1  17
DOCKED: TORSDOF 5
DOCKED: TER
DOCKED: ENDMDL
________________________________________________________________________________


    FINAL DOCKED STATE:
    ________________________


Run:   4 / 20
Time taken for this run:   0.034s

DOCKED: MODEL        4
DOCKED: USER    Run = 4
DOCKED: USER
DOCKED: USER    Estimated Free Energy of Binding    =  -8.45 kcal/mol  [=(1)+(2)+(3)-(4)]
DOCKED: USER
DOCKED: USER    (1) Final Intermolecular Energy     =  -9.94 kcal/mol
DOCKED: USER        vdW + Hbond + desolv Energy     =  -8.98 kcal/mol
DOCKED: USER        Electrostatic Energy            =  -0.96 kcal/mol
DOCKED: USER        Moving Ligand-Fixed Receptor    =  -9.94 kcal/mol
DOCKED: USER        Moving Ligand-Moving Receptor   =  +0.00 kcal/mol
DOCKED: USER    (2) Final Total Internal Energy     =  -1.71 kcal/mol
DOCKED: USER    (3) Torsional Free Energy           =  +1.49 kcal/mol
DOCKED: USER    (4) Unbound System's Energy         =  -1.71 kcal/mol
DOCKED: USER
DOCKED: USER
DOCKED: REMARK SMILES O=C(NCC(=O)N1CCCC[C@H]1c1ncc([O-])cn1)c1ccc2cc(Cl)ccc2n1
DOCKED: REMARK SMILES IDX 4 1 3 2 2 3 1 4 20 6 21 7 30 8 22 9 29 10 23 11 28 12 24 13
DOCKED: REMARK SMILES IDX 27 14 25 15 26 16 5 17 6 18 7 19 8 20 12 21 9 22 11 23 10 24
DOCKED: REMARK SMILES IDX 13 25 14 26 19 27 15 28 18 29 16 30 17 31
DOCKED: REMARK H PARENT 3 5
DOCKED: USER                              x       y       z     vdW  Elec       q    Type
DOCKED: USER                           _______ _______ _______ _____ _____    ______ ____
DOCKED: ROOT
DOCKED: ATOM      1  C   UNL     1     139.501  74.886 221.064 -0.16 -0.05    +0.216 C  
DOCKED: ENDROOT
DOCKED: BRANCH   1   2
DOCKED: ATOM      2  N   UNL     1     139.555  73.888 222.132 -0.13 +0.06    -0.342 N  
DOCKED: ATOM      3  C   UNL     1     139.569  72.478 221.866 -0.17 -0.05    +0.270 C  
DOCKED: ATOM      4  O   UNL     1     139.481  72.065 220.677 -0.05 +0.05    -0.268 OA 
DOCKED: ATOM      5  H   UNL     1     139.584  74.233 223.116 -0.51 -0.01    +0.164 HD 
DOCKED: BRANCH   3   6
DOCKED: ATOM      6  C   UNL     1     139.682  71.507 222.976 -0.27 -0.02    +0.128 A  
DOCKED: ATOM      7  C   UNL     1     139.236  70.181 222.831 -0.21 -0.01    +0.035 A  
DOCKED: ATOM      8  N   UNL     1     140.234  71.902 224.159 -0.27 +0.04    -0.243 NA 
DOCKED: ATOM      9  C   UNL     1     139.358  69.290 223.899 -0.27 -0.00    +0.013 A  
DOCKED: ATOM     10  C   UNL     1     140.370  71.054 225.213 -0.49 -0.01    +0.071 A  
DOCKED: ATOM     11  C   UNL     1     139.930  69.717 225.103 -0.42 -0.00    +0.002 A  
DOCKED: ATOM     12  C   UNL     1     140.949  71.505 226.405 -0.67 -0.00    +0.030 A  
DOCKED: ATOM     13  C   UNL     1     140.075  68.844 226.191 -0.52 -0.01    +0.030 A  
DOCKED: ATOM     14  C   UNL     1     141.093  70.628 227.485 -0.61 -0.00    +0.023 A  
DOCKED: ATOM     15  C   UNL     1     140.655  69.302 227.381 -0.58 -0.01    +0.041 A  
DOCKED: ATOM     16  Cl  UNL     1     140.842  68.211 228.741 -0.65 +0.02    -0.084 Cl 
DOCKED: ENDBRANCH   3   6
DOCKED: ENDBRANCH   1   2
DOCKED: BRANCH   1  17
DOCKED: ATOM     17  C   UNL     1     140.735  75.757 221.058 -0.21 -0.07    +0.242 C  
DOCKED: ATOM     18  O   UNL     1     141.342  75.967 222.148 -0.30 +0.10    -0.273 OA 
DOCKED: BRANCH  17  19
DOCKED: ATOM     19  N   UNL     1     141.215  76.387 219.845 -0.06 +0.13    -0.331 N  
DOCKED: ATOM     20  C   UNL     1     141.334  77.855 219.741 -0.20 -0.06    +0.120 C  
DOCKED: ATOM     21  C   UNL     1     141.466  75.548 218.653 -0.08 -0.05    +0.153 C  
DOCKED: ATOM     22  C   UNL     1     142.522  78.238 218.853 -0.23 -0.02    +0.022 C  
DOCKED: ATOM     23  C   UNL     1     141.498  76.397 217.369 -0.09 -0.01    +0.033 C  
DOCKED: ATOM     24  C   UNL     1     142.485  77.570 217.462 -0.27 -0.00    +0.004 C  
DOCKED: BRANCH  21  25
DOCKED: ATOM     25  C   UNL     1     142.744  74.760 218.805 -0.15 -0.05    +0.150 A  
DOCKED: ATOM     26  N   UNL     1     143.202  74.015 217.762 -0.04 +0.06    -0.240 NA 
DOCKED: ATOM     27  N   UNL     1     143.466  74.824 219.958 -0.23 +0.10    -0.240 NA 
DOCKED: ATOM     28  C   UNL     1     144.365  73.319 217.856 -0.13 -0.01    +0.106 A  
DOCKED: ATOM     29  C   UNL     1     144.635  74.143 220.092 -0.41 -0.03    +0.106 A  
DOCKED: ATOM     30  C   UNL     1     145.112  73.369 219.034 -0.29 -0.00    -0.071 A  
DOCKED: ATOM     31  O   UNL     1     146.311  72.668 219.148 -0.32 -1.04    -0.870 OA 
DOCKED: ENDBRANCH  21  25
DOCKED: ENDBRANCH  17  19
DOCKED: ENDBRANCH   1  17
DOCKED: TORSDOF 5
DOCKED: TER
DOCKED: ENDMDL
________________________________________________________________________________


    FINAL DOCKED STATE:
    ________________________


Run:   5 / 20
Time taken for this run:   0.034s

DOCKED: MODEL        5
DOCKED: USER    Run = 5
DOCKED: USER
DOCKED: USER    Estimated Free Energy of Binding    =  -7.72 kcal/mol  [=(1)+(2)+(3)-(4)]
DOCKED: USER
DOCKED: USER    (1) Final Intermolecular Energy     =  -9.21 kcal/mol
DOCKED: USER        vdW + Hbond + desolv Energy     =  -9.35 kcal/mol
DOCKED: USER        Electrostatic Energy            =  +0.14 kcal/mol
DOCKED: USER        Moving Ligand-Fixed Receptor    =  -9.21 kcal/mol
DOCKED: USER        Moving Ligand-Moving Receptor   =  +0.00 kcal/mol
DOCKED: USER    (2) Final Total Internal Energy     =  -1.95 kcal/mol
DOCKED: USER    (3) Torsional Free Energy           =  +1.49 kcal/mol
DOCKED: USER    (4) Unbound System's Energy         =  -1.95 kcal/mol
DOCKED: USER
DOCKED: USER
DOCKED: REMARK SMILES O=C(NCC(=O)N1CCCC[C@H]1c1ncc([O-])cn1)c1ccc2cc(Cl)ccc2n1
DOCKED: REMARK SMILES IDX 4 1 3 2 2 3 1 4 20 6 21 7 30 8 22 9 29 10 23 11 28 12 24 13
DOCKED: REMARK SMILES IDX 27 14 25 15 26 16 5 17 6 18 7 19 8 20 12 21 9 22 11 23 10 24
DOCKED: REMARK SMILES IDX 13 25 14 26 19 27 15 28 18 29 16 30 17 31
DOCKED: REMARK H PARENT 3 5
DOCKED: USER                              x       y       z     vdW  Elec       q    Type
DOCKED: USER                           _______ _______ _______ _____ _____    ______ ____
DOCKED: ROOT
DOCKED: ATOM      1  C   UNL     1     139.723  75.057 220.779 -0.14 -0.05    +0.216 C  
DOCKED: ENDROOT
DOCKED: BRANCH   1   2
DOCKED: ATOM      2  N   UNL     1     139.623  74.067 221.851 -0.15 +0.06    -0.342 N  
DOCKED: ATOM      3  C   UNL     1     140.115  72.726 221.706 -0.18 -0.04    +0.270 C  
DOCKED: ATOM      4  O   UNL     1     140.608  72.357 220.605 -0.08 +0.04    -0.268 OA 
DOCKED: ATOM      5  H   UNL     1     139.176  74.364 222.745 -0.50 -0.05    +0.164 HD 
DOCKED: BRANCH   3   6
DOCKED: ATOM      6  C   UNL     1     140.045  71.777 222.838 -0.28 -0.02    +0.128 A  
DOCKED: ATOM      7  C   UNL     1     139.457  70.508 222.687 -0.22 -0.01    +0.035 A  
DOCKED: ATOM      8  N   UNL     1     140.564  72.134 224.047 -0.17 +0.03    -0.243 NA 
DOCKED: ATOM      9  C   UNL     1     139.407  69.635 223.776 -0.27 -0.00    +0.013 A  
DOCKED: ATOM     10  C   UNL     1     140.535  71.302 225.122 -0.49 -0.01    +0.071 A  
DOCKED: ATOM     11  C   UNL     1     139.949  70.022 225.006 -0.42 -0.00    +0.002 A  
DOCKED: ATOM     12  C   UNL     1     141.086  71.712 226.341 -0.67 -0.00    +0.030 A  
DOCKED: ATOM     13  C   UNL     1     139.922  69.166 226.117 -0.49 -0.00    +0.030 A  
DOCKED: ATOM     14  C   UNL     1     141.060  70.852 227.443 -0.65 -0.00    +0.023 A  
DOCKED: ATOM     15  C   UNL     1     140.477  69.583 227.333 -0.56 -0.01    +0.041 A  
DOCKED: ATOM     16  Cl  UNL     1     140.450  68.511 228.721 -0.68 +0.02    -0.084 Cl 
DOCKED: ENDBRANCH   3   6
DOCKED: ENDBRANCH   1   2
DOCKED: BRANCH   1  17
DOCKED: ATOM     17  C   UNL     1     141.036  75.800 220.832 -0.20 -0.08    +0.242 C  
DOCKED: ATOM     18  O   UNL     1     142.090  75.208 220.457 -0.20 +0.11    -0.273 OA 
DOCKED: BRANCH  17  19
DOCKED: ATOM     19  N   UNL     1     141.124  77.154 221.338 -0.15 +0.15    -0.331 N  
DOCKED: ATOM     20  C   UNL     1     141.822  78.212 220.580 -0.26 -0.07    +0.120 C  
DOCKED: ATOM     21  C   UNL     1     140.615  77.445 222.696 -0.31 -0.05    +0.153 C  
DOCKED: ATOM     22  C   UNL     1     141.145  79.568 220.798 -0.29 -0.01    +0.022 C  
DOCKED: ATOM     23  C   UNL     1     141.202  78.759 223.243 -0.53 -0.01    +0.033 C  
DOCKED: ATOM     24  C   UNL     1     140.992  79.943 222.287 -0.42 -0.00    +0.004 C  
DOCKED: BRANCH  21  25
DOCKED: ATOM     25  C   UNL     1     139.106  77.486 222.711 -0.23 -0.03    +0.150 A  
DOCKED: ATOM     26  N   UNL     1     138.406  76.363 223.031 -0.17 +0.05    -0.240 NA 
DOCKED: ATOM     27  N   UNL     1     138.441  78.647 222.456 -0.13 +0.04    -0.240 NA 
DOCKED: ATOM     28  C   UNL     1     137.049  76.375 223.084 -0.23 -0.02    +0.106 A  
DOCKED: ATOM     29  C   UNL     1     137.083  78.701 222.500 -0.15 -0.02    +0.106 A  
DOCKED: ATOM     30  C   UNL     1     136.353  77.556 222.818 -0.17 +0.01    -0.071 A  
DOCKED: ATOM     31  O   UNL     1     134.961  77.591 222.874 +0.05 +0.12    -0.870 OA 
DOCKED: ENDBRANCH  21  25
DOCKED: ENDBRANCH  17  19
DOCKED: ENDBRANCH   1  17
DOCKED: TORSDOF 5
DOCKED: TER
DOCKED: ENDMDL
________________________________________________________________________________


    FINAL DOCKED STATE:
    ________________________


Run:   6 / 20
Time taken for this run:   0.034s

DOCKED: MODEL        6
DOCKED: USER    Run = 6
DOCKED: USER
DOCKED: USER    Estimated Free Energy of Binding    =  -7.71 kcal/mol  [=(1)+(2)+(3)-(4)]
DOCKED: USER
DOCKED: USER    (1) Final Intermolecular Energy     =  -9.21 kcal/mol
DOCKED: USER        vdW + Hbond + desolv Energy     =  -9.36 kcal/mol
DOCKED: USER        Electrostatic Energy            =  +0.16 kcal/mol
DOCKED: USER        Moving Ligand-Fixed Receptor    =  -9.21 kcal/mol
DOCKED: USER        Moving Ligand-Moving Receptor   =  +0.00 kcal/mol
DOCKED: USER    (2) Final Total Internal Energy     =  -1.53 kcal/mol
DOCKED: USER    (3) Torsional Free Energy           =  +1.49 kcal/mol
DOCKED: USER    (4) Unbound System's Energy         =  -1.53 kcal/mol
DOCKED: USER
DOCKED: USER
DOCKED: REMARK SMILES O=C(NCC(=O)N1CCCC[C@H]1c1ncc([O-])cn1)c1ccc2cc(Cl)ccc2n1
DOCKED: REMARK SMILES IDX 4 1 3 2 2 3 1 4 20 6 21 7 30 8 22 9 29 10 23 11 28 12 24 13
DOCKED: REMARK SMILES IDX 27 14 25 15 26 16 5 17 6 18 7 19 8 20 12 21 9 22 11 23 10 24
DOCKED: REMARK SMILES IDX 13 25 14 26 19 27 15 28 18 29 16 30 17 31
DOCKED: REMARK H PARENT 3 5
DOCKED: USER                              x       y       z     vdW  Elec       q    Type
DOCKED: USER                           _______ _______ _______ _____ _____    ______ ____
DOCKED: ROOT
DOCKED: ATOM      1  C   UNL     1     139.283  74.856 221.195 -0.16 -0.05    +0.216 C  
DOCKED: ENDROOT
DOCKED: BRANCH   1   2
DOCKED: ATOM      2  N   UNL     1     139.403  73.858 222.257 -0.10 +0.07    -0.342 N  
DOCKED: ATOM      3  C   UNL     1     139.259  72.451 222.008 -0.16 -0.06    +0.270 C  
DOCKED: ATOM      4  O   UNL     1     138.969  72.048 220.849 -0.05 +0.05    -0.268 OA 
DOCKED: ATOM      5  H   UNL     1     139.601  74.198 223.222 -0.46 -0.01    +0.164 HD 
DOCKED: BRANCH   3   6
DOCKED: ATOM      6  C   UNL     1     139.446  71.474 223.103 -0.27 -0.03    +0.128 A  
DOCKED: ATOM      7  C   UNL     1     139.037  70.136 222.961 -0.22 -0.01    +0.035 A  
DOCKED: ATOM      8  N   UNL     1     140.032  71.875 224.267 -0.24 +0.05    -0.243 NA 
DOCKED: ATOM      9  C   UNL     1     139.228  69.239 224.014 -0.30 -0.00    +0.013 A  
DOCKED: ATOM     10  C   UNL     1     140.236  71.022 225.306 -0.48 -0.01    +0.071 A  
DOCKED: ATOM     11  C   UNL     1     139.834  69.673 225.199 -0.42 -0.00    +0.002 A  
DOCKED: ATOM     12  C   UNL     1     140.846  71.480 226.480 -0.67 -0.00    +0.030 A  
DOCKED: ATOM     13  C   UNL     1     140.048  68.795 226.272 -0.53 -0.01    +0.030 A  
DOCKED: ATOM     14  C   UNL     1     141.060  70.599 227.544 -0.62 -0.00    +0.023 A  
DOCKED: ATOM     15  C   UNL     1     140.660  69.260 227.442 -0.58 -0.01    +0.041 A  
DOCKED: ATOM     16  Cl  UNL     1     140.935  68.163 228.783 -0.63 +0.02    -0.084 Cl 
DOCKED: ENDBRANCH   3   6
DOCKED: ENDBRANCH   1   2
DOCKED: BRANCH   1  17
DOCKED: ATOM     17  C   UNL     1     140.404  75.866 221.256 -0.21 -0.07    +0.242 C  
DOCKED: ATOM     18  O   UNL     1     141.180  75.859 222.255 -0.36 +0.08    -0.273 OA 
DOCKED: BRANCH  17  19
DOCKED: ATOM     19  N   UNL     1     140.584  76.865 220.223 -0.05 +0.12    -0.331 N  
DOCKED: ATOM     20  C   UNL     1     139.608  77.016 219.125 -0.04 -0.04    +0.120 C  
DOCKED: ATOM     21  C   UNL     1     141.833  77.657 220.203 -0.24 -0.09    +0.153 C  
DOCKED: ATOM     22  C   UNL     1     139.501  78.483 218.697 -0.05 -0.01    +0.022 C  
DOCKED: ATOM     23  C   UNL     1     142.068  78.296 218.822 -0.28 -0.02    +0.033 C  
DOCKED: ATOM     24  C   UNL     1     140.862  79.116 218.339 -0.14 -0.00    +0.004 C  
DOCKED: BRANCH  21  25
DOCKED: ATOM     25  C   UNL     1     141.825  78.709 221.284 -0.30 -0.09    +0.150 A  
DOCKED: ATOM     26  N   UNL     1     141.535  78.353 222.566 -0.28 +0.11    -0.240 NA 
DOCKED: ATOM     27  N   UNL     1     142.152  79.999 220.999 -0.21 +0.12    -0.240 NA 
DOCKED: ATOM     28  C   UNL     1     141.550  79.270 223.568 -0.51 -0.03    +0.106 A  
DOCKED: ATOM     29  C   UNL     1     142.180  80.947 221.974 -0.41 -0.03    +0.106 A  
DOCKED: ATOM     30  C   UNL     1     141.876  80.598 223.290 -0.54 +0.02    -0.071 A  
DOCKED: ATOM     31  O   UNL     1     141.904  81.553 224.305 +0.15 +0.07    -0.870 OA 
DOCKED: ENDBRANCH  21  25
DOCKED: ENDBRANCH  17  19
DOCKED: ENDBRANCH   1  17
DOCKED: TORSDOF 5
DOCKED: TER
DOCKED: ENDMDL
________________________________________________________________________________


    FINAL DOCKED STATE:
    ________________________


Run:   7 / 20
Time taken for this run:   0.034s

DOCKED: MODEL        7
DOCKED: USER    Run = 7
DOCKED: USER
DOCKED: USER    Estimated Free Energy of Binding    =  -8.06 kcal/mol  [=(1)+(2)+(3)-(4)]
DOCKED: USER
DOCKED: USER    (1) Final Intermolecular Energy     =  -9.55 kcal/mol
DOCKED: USER        vdW + Hbond + desolv Energy     =  -8.70 kcal/mol
DOCKED: USER        Electrostatic Energy            =  -0.85 kcal/mol
DOCKED: USER        Moving Ligand-Fixed Receptor    =  -9.55 kcal/mol
DOCKED: USER        Moving Ligand-Moving Receptor   =  +0.00 kcal/mol
DOCKED: USER    (2) Final Total Internal Energy     =  -1.93 kcal/mol
DOCKED: USER    (3) Torsional Free Energy           =  +1.49 kcal/mol
DOCKED: USER    (4) Unbound System's Energy         =  -1.93 kcal/mol
DOCKED: USER
DOCKED: USER
DOCKED: REMARK SMILES O=C(NCC(=O)N1CCCC[C@H]1c1ncc([O-])cn1)c1ccc2cc(Cl)ccc2n1
DOCKED: REMARK SMILES IDX 4 1 3 2 2 3 1 4 20 6 21 7 30 8 22 9 29 10 23 11 28 12 24 13
DOCKED: REMARK SMILES IDX 27 14 25 15 26 16 5 17 6 18 7 19 8 20 12 21 9 22 11 23 10 24
DOCKED: REMARK SMILES IDX 13 25 14 26 19 27 15 28 18 29 16 30 17 31
DOCKED: REMARK H PARENT 3 5
DOCKED: USER                              x       y       z     vdW  Elec       q    Type
DOCKED: USER                           _______ _______ _______ _____ _____    ______ ____
DOCKED: ROOT
DOCKED: ATOM      1  C   UNL     1     139.631  74.262 220.987 -0.15 -0.04    +0.216 C  
DOCKED: ENDROOT
DOCKED: BRANCH   1   2
DOCKED: ATOM      2  N   UNL     1     139.687  73.346 222.126 -0.15 +0.06    -0.342 N  
DOCKED: ATOM      3  C   UNL     1     139.433  71.939 221.994 -0.15 -0.05    +0.270 C  
DOCKED: ATOM      4  O   UNL     1     139.098  71.467 220.873 -0.04 +0.05    -0.268 OA 
DOCKED: ATOM      5  H   UNL     1     139.922  73.747 223.060 -0.34 +0.02    +0.164 HD 
DOCKED: BRANCH   3   6
DOCKED: ATOM      6  C   UNL     1     139.558  71.043 223.163 -0.26 -0.02    +0.128 A  
DOCKED: ATOM      7  C   UNL     1     139.073  69.723 223.123 -0.22 -0.01    +0.035 A  
DOCKED: ATOM      8  N   UNL     1     140.161  71.500 224.298 -0.29 +0.04    -0.243 NA 
DOCKED: ATOM      9  C   UNL     1     139.207  68.902 224.244 -0.32 -0.00    +0.013 A  
DOCKED: ATOM     10  C   UNL     1     140.310  70.721 225.402 -0.48 -0.01    +0.071 A  
DOCKED: ATOM     11  C   UNL     1     139.832  69.392 225.397 -0.44 -0.00    +0.002 A  
DOCKED: ATOM     12  C   UNL     1     140.941  71.233 226.542 -0.66 -0.00    +0.030 A  
DOCKED: ATOM     13  C   UNL     1     139.990  68.590 226.537 -0.57 -0.01    +0.030 A  
DOCKED: ATOM     14  C   UNL     1     141.099  70.427 227.673 -0.58 -0.00    +0.023 A  
DOCKED: ATOM     15  C   UNL     1     140.623  69.110 227.673 -0.60 -0.01    +0.041 A  
DOCKED: ATOM     16  Cl  UNL     1     140.827  68.108 229.098 -0.31 +0.02    -0.084 Cl 
DOCKED: ENDBRANCH   3   6
DOCKED: ENDBRANCH   1   2
DOCKED: BRANCH   1  17
DOCKED: ATOM     17  C   UNL     1     140.559  75.438 221.177 -0.21 -0.06    +0.242 C  
DOCKED: ATOM     18  O   UNL     1     140.924  75.748 222.348 -0.43 +0.05    -0.273 OA 
DOCKED: BRANCH  17  19
DOCKED: ATOM     19  N   UNL     1     141.008  76.240 220.058 -0.06 +0.12    -0.331 N  
DOCKED: ATOM     20  C   UNL     1     141.042  77.715 220.138 -0.19 -0.05    +0.120 C  
DOCKED: ATOM     21  C   UNL     1     141.314  75.572 218.775 -0.08 -0.05    +0.153 C  
DOCKED: ATOM     22  C   UNL     1     142.211  78.273 219.319 -0.24 -0.02    +0.022 C  
DOCKED: ATOM     23  C   UNL     1     141.304  76.574 217.606 -0.09 -0.01    +0.033 C  
DOCKED: ATOM     24  C   UNL     1     142.220  77.782 217.856 -0.26 -0.00    +0.004 C  
DOCKED: BRANCH  21  25
DOCKED: ATOM     25  C   UNL     1     142.634  74.845 218.844 -0.14 -0.05    +0.150 A  
DOCKED: ATOM     26  N   UNL     1     143.250  74.682 220.047 -0.21 +0.10    -0.240 NA 
DOCKED: ATOM     27  N   UNL     1     143.192  74.310 217.722 -0.05 +0.07    -0.240 NA 
DOCKED: ATOM     28  C   UNL     1     144.423  74.005 220.147 -0.39 -0.03    +0.106 A  
DOCKED: ATOM     29  C   UNL     1     144.365  73.625 217.780 -0.14 -0.02    +0.106 A  
DOCKED: ATOM     30  C   UNL     1     145.010  73.457 219.005 -0.26 +0.00    -0.071 A  
DOCKED: ATOM     31  O   UNL     1     146.210  72.754 219.088 -0.37 -0.92    -0.870 OA 
DOCKED: ENDBRANCH  21  25
DOCKED: ENDBRANCH  17  19
DOCKED: ENDBRANCH   1  17
DOCKED: TORSDOF 5
DOCKED: TER
DOCKED: ENDMDL
________________________________________________________________________________


    FINAL DOCKED STATE:
    ________________________


Run:   8 / 20
Time taken for this run:   0.034s

DOCKED: MODEL        8
DOCKED: USER    Run = 8
DOCKED: USER
DOCKED: USER    Estimated Free Energy of Binding    =  -6.22 kcal/mol  [=(1)+(2)+(3)-(4)]
DOCKED: USER
DOCKED: USER    (1) Final Intermolecular Energy     =  -7.71 kcal/mol
DOCKED: USER        vdW + Hbond + desolv Energy     =  -7.83 kcal/mol
DOCKED: USER        Electrostatic Energy            =  +0.12 kcal/mol
DOCKED: USER        Moving Ligand-Fixed Receptor    =  -7.71 kcal/mol
DOCKED: USER        Moving Ligand-Moving Receptor   =  +0.00 kcal/mol
DOCKED: USER    (2) Final Total Internal Energy     =  -2.50 kcal/mol
DOCKED: USER    (3) Torsional Free Energy           =  +1.49 kcal/mol
DOCKED: USER    (4) Unbound System's Energy         =  -2.50 kcal/mol
DOCKED: USER
DOCKED: USER
DOCKED: REMARK SMILES O=C(NCC(=O)N1CCCC[C@H]1c1ncc([O-])cn1)c1ccc2cc(Cl)ccc2n1
DOCKED: REMARK SMILES IDX 4 1 3 2 2 3 1 4 20 6 21 7 30 8 22 9 29 10 23 11 28 12 24 13
DOCKED: REMARK SMILES IDX 27 14 25 15 26 16 5 17 6 18 7 19 8 20 12 21 9 22 11 23 10 24
DOCKED: REMARK SMILES IDX 13 25 14 26 19 27 15 28 18 29 16 30 17 31
DOCKED: REMARK H PARENT 3 5
DOCKED: USER                              x       y       z     vdW  Elec       q    Type
DOCKED: USER                           _______ _______ _______ _____ _____    ______ ____
DOCKED: ROOT
DOCKED: ATOM      1  C   UNL     1     136.424  72.890 222.160 -0.08 -0.05    +0.216 C  
DOCKED: ENDROOT
DOCKED: BRANCH   1   2
DOCKED: ATOM      2  N   UNL     1     137.526  73.834 222.343 -0.01 +0.13    -0.342 N  
DOCKED: ATOM      3  C   UNL     1     137.422  75.217 221.974 -0.13 -0.07    +0.270 C  
DOCKED: ATOM      4  O   UNL     1     136.368  75.640 221.424 -0.05 +0.05    -0.268 OA 
DOCKED: ATOM      5  H   UNL     1     138.411  73.471 222.759 -0.53 -0.08    +0.164 HD 
DOCKED: BRANCH   3   6
DOCKED: ATOM      6  C   UNL     1     138.542  76.147 222.232 -0.25 -0.03    +0.128 A  
DOCKED: ATOM      7  C   UNL     1     139.868  75.791 221.926 -0.33 -0.01    +0.035 A  
DOCKED: ATOM      8  N   UNL     1     138.286  77.374 222.769 -0.18 +0.04    -0.243 NA 
DOCKED: ATOM      9  C   UNL     1     140.903  76.693 222.182 -0.39 -0.00    +0.013 A  
DOCKED: ATOM     10  C   UNL     1     139.273  78.274 223.023 -0.27 -0.01    +0.071 A  
DOCKED: ATOM     11  C   UNL     1     140.616  77.948 222.731 -0.44 -0.00    +0.002 A  
DOCKED: ATOM     12  C   UNL     1     138.960  79.523 223.570 -0.36 -0.00    +0.030 A  
DOCKED: ATOM     13  C   UNL     1     141.632  78.879 222.992 -0.53 -0.01    +0.030 A  
DOCKED: ATOM     14  C   UNL     1     139.977  80.449 223.824 -0.40 -0.00    +0.023 A  
DOCKED: ATOM     15  C   UNL     1     141.310  80.127 223.539 -0.52 -0.01    +0.041 A  
DOCKED: ATOM     16  Cl  UNL     1     142.578  81.296 223.860 -0.66 +0.01    -0.084 Cl 
DOCKED: ENDBRANCH   3   6
DOCKED: ENDBRANCH   1   2
DOCKED: BRANCH   1  17
DOCKED: ATOM     17  C   UNL     1     136.211  72.041 223.391 -0.12 -0.06    +0.242 C  
DOCKED: ATOM     18  O   UNL     1     135.295  72.360 224.203 -0.14 +0.04    -0.273 OA 
DOCKED: BRANCH  17  19
DOCKED: ATOM     19  N   UNL     1     137.055  70.901 223.683 -0.09 +0.06    -0.331 N  
DOCKED: ATOM     20  C   UNL     1     136.518  69.526 223.661 -0.16 -0.01    +0.120 C  
DOCKED: ATOM     21  C   UNL     1     138.444  71.135 224.133 -0.20 -0.04    +0.153 C  
DOCKED: ATOM     22  C   UNL     1     137.586  68.537 223.181 -0.20 -0.00    +0.022 C  
DOCKED: ATOM     23  C   UNL     1     139.019  69.893 224.838 -0.37 -0.01    +0.033 C  
DOCKED: ATOM     24  C   UNL     1     138.901  68.622 223.984 -0.32 -0.00    +0.004 C  
DOCKED: BRANCH  21  25
DOCKED: ATOM     25  C   UNL     1     139.324  71.552 222.981 -0.24 -0.03    +0.150 A  
DOCKED: ATOM     26  N   UNL     1     139.113  71.019 221.746 -0.08 +0.04    -0.240 NA 
DOCKED: ATOM     27  N   UNL     1     140.296  72.490 223.154 -0.42 +0.02    -0.240 NA 
DOCKED: ATOM     28  C   UNL     1     139.868  71.397 220.681 -0.09 -0.02    +0.106 A  
DOCKED: ATOM     29  C   UNL     1     141.072  72.896 222.114 -0.17 -0.00    +0.106 A  
DOCKED: ATOM     30  C   UNL     1     140.872  72.352 220.845 -0.17 +0.01    -0.071 A  
DOCKED: ATOM     31  O   UNL     1     141.653  72.758 219.764 +0.10 +0.15    -0.870 OA 
DOCKED: ENDBRANCH  21  25
DOCKED: ENDBRANCH  17  19
DOCKED: ENDBRANCH   1  17
DOCKED: TORSDOF 5
DOCKED: TER
DOCKED: ENDMDL
________________________________________________________________________________


    FINAL DOCKED STATE:
    ________________________


Run:   9 / 20
Time taken for this run:   0.034s

DOCKED: MODEL        9
DOCKED: USER    Run = 9
DOCKED: USER
DOCKED: USER    Estimated Free Energy of Binding    =  -8.50 kcal/mol  [=(1)+(2)+(3)-(4)]
DOCKED: USER
DOCKED: USER    (1) Final Intermolecular Energy     =  -9.99 kcal/mol
DOCKED: USER        vdW + Hbond + desolv Energy     =  -9.04 kcal/mol
DOCKED: USER        Electrostatic Energy            =  -0.95 kcal/mol
DOCKED: USER        Moving Ligand-Fixed Receptor    =  -9.99 kcal/mol
DOCKED: USER        Moving Ligand-Moving Receptor   =  +0.00 kcal/mol
DOCKED: USER    (2) Final Total Internal Energy     =  -1.59 kcal/mol
DOCKED: USER    (3) Torsional Free Energy           =  +1.49 kcal/mol
DOCKED: USER    (4) Unbound System's Energy         =  -1.59 kcal/mol
DOCKED: USER
DOCKED: USER
DOCKED: REMARK SMILES O=C(NCC(=O)N1CCCC[C@H]1c1ncc([O-])cn1)c1ccc2cc(Cl)ccc2n1
DOCKED: REMARK SMILES IDX 4 1 3 2 2 3 1 4 20 6 21 7 30 8 22 9 29 10 23 11 28 12 24 13
DOCKED: REMARK SMILES IDX 27 14 25 15 26 16 5 17 6 18 7 19 8 20 12 21 9 22 11 23 10 24
DOCKED: REMARK SMILES IDX 13 25 14 26 19 27 15 28 18 29 16 30 17 31
DOCKED: REMARK H PARENT 3 5
DOCKED: USER                              x       y       z     vdW  Elec       q    Type
DOCKED: USER                           _______ _______ _______ _____ _____    ______ ____
DOCKED: ROOT
DOCKED: ATOM      1  C   UNL     1     139.474  74.961 221.039 -0.15 -0.05    +0.216 C  
DOCKED: ENDROOT
DOCKED: BRANCH   1   2
DOCKED: ATOM      2  N   UNL     1     139.480  73.941 222.088 -0.13 +0.06    -0.342 N  
DOCKED: ATOM      3  C   UNL     1     139.869  72.582 221.836 -0.18 -0.04    +0.270 C  
DOCKED: ATOM      4  O   UNL     1     140.173  72.226 220.664 -0.07 +0.04    -0.268 OA 
DOCKED: ATOM      5  H   UNL     1     139.187  74.229 223.046 -0.55 -0.06    +0.164 HD 
DOCKED: BRANCH   3   6
DOCKED: ATOM      6  C   UNL     1     139.914  71.599 222.939 -0.28 -0.02    +0.128 A  
DOCKED: ATOM      7  C   UNL     1     139.465  70.278 222.756 -0.21 -0.01    +0.035 A  
DOCKED: ATOM      8  N   UNL     1     140.405  71.976 224.155 -0.24 +0.04    -0.243 NA 
DOCKED: ATOM      9  C   UNL     1     139.522  69.375 223.819 -0.24 -0.00    +0.013 A  
DOCKED: ATOM     10  C   UNL     1     140.477  71.116 225.205 -0.50 -0.01    +0.071 A  
DOCKED: ATOM     11  C   UNL     1     140.032  69.784 225.057 -0.41 -0.00    +0.002 A  
DOCKED: ATOM     12  C   UNL     1     140.994  71.549 226.432 -0.68 -0.00    +0.030 A  
DOCKED: ATOM     13  C   UNL     1     140.110  68.899 226.142 -0.51 -0.01    +0.030 A  
DOCKED: ATOM     14  C   UNL     1     141.073  70.660 227.508 -0.63 -0.00    +0.023 A  
DOCKED: ATOM     15  C   UNL     1     140.629  69.339 227.366 -0.57 -0.01    +0.041 A  
DOCKED: ATOM     16  Cl  UNL     1     140.733  68.232 228.722 -0.65 +0.02    -0.084 Cl 
DOCKED: ENDBRANCH   3   6
DOCKED: ENDBRANCH   1   2
DOCKED: BRANCH   1  17
DOCKED: ATOM     17  C   UNL     1     140.779  75.719 220.999 -0.20 -0.07    +0.242 C  
DOCKED: ATOM     18  O   UNL     1     141.449  75.843 222.066 -0.30 +0.10    -0.273 OA 
DOCKED: BRANCH  17  19
DOCKED: ATOM     19  N   UNL     1     141.260  76.342 219.783 -0.06 +0.13    -0.331 N  
DOCKED: ATOM     20  C   UNL     1     141.355  77.810 219.660 -0.19 -0.06    +0.120 C  
DOCKED: ATOM     21  C   UNL     1     141.538  75.491 218.606 -0.08 -0.05    +0.153 C  
DOCKED: ATOM     22  C   UNL     1     142.545  78.202 218.778 -0.25 -0.02    +0.022 C  
DOCKED: ATOM     23  C   UNL     1     141.569  76.323 217.310 -0.09 -0.01    +0.033 C  
DOCKED: ATOM     24  C   UNL     1     142.534  77.515 217.397 -0.27 -0.00    +0.004 C  
DOCKED: BRANCH  21  25
DOCKED: ATOM     25  C   UNL     1     142.828  74.728 218.781 -0.15 -0.05    +0.150 A  
DOCKED: ATOM     26  N   UNL     1     143.330  74.535 220.032 -0.21 +0.09    -0.240 NA 
DOCKED: ATOM     27  N   UNL     1     143.468  74.190 217.706 -0.06 +0.07    -0.240 NA 
DOCKED: ATOM     28  C   UNL     1     144.472  73.825 220.226 -0.40 -0.03    +0.106 A  
DOCKED: ATOM     29  C   UNL     1     144.612  73.472 217.858 -0.15 -0.01    +0.106 A  
DOCKED: ATOM     30  C   UNL     1     145.143  73.274 219.133 -0.31 -0.00    -0.071 A  
DOCKED: ATOM     31  O   UNL     1     146.312  72.537 219.312 -0.30 -0.98    -0.870 OA 
DOCKED: ENDBRANCH  21  25
DOCKED: ENDBRANCH  17  19
DOCKED: ENDBRANCH   1  17
DOCKED: TORSDOF 5
DOCKED: TER
DOCKED: ENDMDL
________________________________________________________________________________


    FINAL DOCKED STATE:
    ________________________


Run:   10 / 20
Time taken for this run:   0.034s

DOCKED: MODEL        10
DOCKED: USER    Run = 10
DOCKED: USER
DOCKED: USER    Estimated Free Energy of Binding    =  -8.46 kcal/mol  [=(1)+(2)+(3)-(4)]
DOCKED: USER
DOCKED: USER    (1) Final Intermolecular Energy     =  -9.95 kcal/mol
DOCKED: USER        vdW + Hbond + desolv Energy     =  -8.93 kcal/mol
DOCKED: USER        Electrostatic Energy            =  -1.02 kcal/mol
DOCKED: USER        Moving Ligand-Fixed Receptor    =  -9.95 kcal/mol
DOCKED: USER        Moving Ligand-Moving Receptor   =  +0.00 kcal/mol
DOCKED: USER    (2) Final Total Internal Energy     =  -1.67 kcal/mol
DOCKED: USER    (3) Torsional Free Energy           =  +1.49 kcal/mol
DOCKED: USER    (4) Unbound System's Energy         =  -1.67 kcal/mol
DOCKED: USER
DOCKED: USER
DOCKED: REMARK SMILES O=C(NCC(=O)N1CCCC[C@H]1c1ncc([O-])cn1)c1ccc2cc(Cl)ccc2n1
DOCKED: REMARK SMILES IDX 4 1 3 2 2 3 1 4 20 6 21 7 30 8 22 9 29 10 23 11 28 12 24 13
DOCKED: REMARK SMILES IDX 27 14 25 15 26 16 5 17 6 18 7 19 8 20 12 21 9 22 11 23 10 24
DOCKED: REMARK SMILES IDX 13 25 14 26 19 27 15 28 18 29 16 30 17 31
DOCKED: REMARK H PARENT 3 5
DOCKED: USER                              x       y       z     vdW  Elec       q    Type
DOCKED: USER                           _______ _______ _______ _____ _____    ______ ____
DOCKED: ROOT
DOCKED: ATOM      1  C   UNL     1     139.548  74.853 221.048 -0.16 -0.05    +0.216 C  
DOCKED: ENDROOT
DOCKED: BRANCH   1   2
DOCKED: ATOM      2  N   UNL     1     139.588  73.857 222.118 -0.14 +0.06    -0.342 N  
DOCKED: ATOM      3  C   UNL     1     139.643  72.447 221.854 -0.17 -0.05    +0.270 C  
DOCKED: ATOM      4  O   UNL     1     139.606  72.032 220.663 -0.05 +0.05    -0.268 OA 
DOCKED: ATOM      5  H   UNL     1     139.575  74.202 223.102 -0.53 -0.01    +0.164 HD 
DOCKED: BRANCH   3   6
DOCKED: ATOM      6  C   UNL     1     139.740  71.480 222.969 -0.27 -0.02    +0.128 A  
DOCKED: ATOM      7  C   UNL     1     139.310  70.149 222.817 -0.21 -0.01    +0.035 A  
DOCKED: ATOM      8  N   UNL     1     140.263  71.882 224.162 -0.28 +0.04    -0.243 NA 
DOCKED: ATOM      9  C   UNL     1     139.416  69.261 223.889 -0.25 -0.00    +0.013 A  
DOCKED: ATOM     10  C   UNL     1     140.383  71.037 225.221 -0.49 -0.01    +0.071 A  
DOCKED: ATOM     11  C   UNL     1     139.958  69.695 225.104 -0.42 -0.00    +0.002 A  
DOCKED: ATOM     12  C   UNL     1     140.931  71.495 226.425 -0.67 -0.00    +0.030 A  
DOCKED: ATOM     13  C   UNL     1     140.086  68.826 226.197 -0.52 -0.01    +0.030 A  
DOCKED: ATOM     14  C   UNL     1     141.060  70.622 227.509 -0.62 -0.00    +0.023 A  
DOCKED: ATOM     15  C   UNL     1     140.636  69.292 227.398 -0.58 -0.01    +0.041 A  
DOCKED: ATOM     16  Cl  UNL     1     140.803  68.205 228.764 -0.62 +0.02    -0.084 Cl 
DOCKED: ENDBRANCH   3   6
DOCKED: ENDBRANCH   1   2
DOCKED: BRANCH   1  17
DOCKED: ATOM     17  C   UNL     1     140.791  75.710 221.043 -0.21 -0.07    +0.242 C  
DOCKED: ATOM     18  O   UNL     1     141.431  75.866 222.123 -0.29 +0.10    -0.273 OA 
DOCKED: BRANCH  17  19
DOCKED: ATOM     19  N   UNL     1     141.241  76.389 219.846 -0.07 +0.13    -0.331 N  
DOCKED: ATOM     20  C   UNL     1     141.326  77.862 219.787 -0.20 -0.06    +0.120 C  
DOCKED: ATOM     21  C   UNL     1     141.498  75.594 218.625 -0.08 -0.05    +0.153 C  
DOCKED: ATOM     22  C   UNL     1     142.495  78.300 218.898 -0.22 -0.02    +0.022 C  
DOCKED: ATOM     23  C   UNL     1     141.495  76.483 217.368 -0.09 -0.01    +0.033 C  
DOCKED: ATOM     24  C   UNL     1     142.457  77.676 217.487 -0.27 -0.00    +0.004 C  
DOCKED: BRANCH  21  25
DOCKED: ATOM     25  C   UNL     1     142.794  74.831 218.738 -0.15 -0.05    +0.150 A  
DOCKED: ATOM     26  N   UNL     1     143.316  74.570 219.968 -0.21 +0.09    -0.240 NA 
DOCKED: ATOM     27  N   UNL     1     143.421  74.360 217.624 -0.06 +0.07    -0.240 NA 
DOCKED: ATOM     28  C   UNL     1     144.465  73.858 220.104 -0.39 -0.03    +0.106 A  
DOCKED: ATOM     29  C   UNL     1     144.573  73.643 217.718 -0.14 -0.01    +0.106 A  
DOCKED: ATOM     30  C   UNL     1     145.123  73.376 218.972 -0.28 -0.00    -0.071 A  
DOCKED: ATOM     31  O   UNL     1     146.299  72.638 219.091 -0.31 -1.09    -0.870 OA 
DOCKED: ENDBRANCH  21  25
DOCKED: ENDBRANCH  17  19
DOCKED: ENDBRANCH   1  17
DOCKED: TORSDOF 5
DOCKED: TER
DOCKED: ENDMDL
________________________________________________________________________________


    FINAL DOCKED STATE:
    ________________________


Run:   11 / 20
Time taken for this run:   0.034s

DOCKED: MODEL        11
DOCKED: USER    Run = 11
DOCKED: USER
DOCKED: USER    Estimated Free Energy of Binding    =  -8.09 kcal/mol  [=(1)+(2)+(3)-(4)]
DOCKED: USER
DOCKED: USER    (1) Final Intermolecular Energy     =  -9.58 kcal/mol
DOCKED: USER        vdW + Hbond + desolv Energy     =  -8.40 kcal/mol
DOCKED: USER        Electrostatic Energy            =  -1.18 kcal/mol
DOCKED: USER        Moving Ligand-Fixed Receptor    =  -9.58 kcal/mol
DOCKED: USER        Moving Ligand-Moving Receptor   =  +0.00 kcal/mol
DOCKED: USER    (2) Final Total Internal Energy     =  -1.50 kcal/mol
DOCKED: USER    (3) Torsional Free Energy           =  +1.49 kcal/mol
DOCKED: USER    (4) Unbound System's Energy         =  -1.50 kcal/mol
DOCKED: USER
DOCKED: USER
DOCKED: REMARK SMILES O=C(NCC(=O)N1CCCC[C@H]1c1ncc([O-])cn1)c1ccc2cc(Cl)ccc2n1
DOCKED: REMARK SMILES IDX 4 1 3 2 2 3 1 4 20 6 21 7 30 8 22 9 29 10 23 11 28 12 24 13
DOCKED: REMARK SMILES IDX 27 14 25 15 26 16 5 17 6 18 7 19 8 20 12 21 9 22 11 23 10 24
DOCKED: REMARK SMILES IDX 13 25 14 26 19 27 15 28 18 29 16 30 17 31
DOCKED: REMARK H PARENT 3 5
DOCKED: USER                              x       y       z     vdW  Elec       q    Type
DOCKED: USER                           _______ _______ _______ _____ _____    ______ ____
DOCKED: ROOT
DOCKED: ATOM      1  C   UNL     1     138.521  73.760 220.058 -0.04 -0.04    +0.216 C  
DOCKED: ENDROOT
DOCKED: BRANCH   1   2
DOCKED: ATOM      2  N   UNL     1     138.695  72.731 221.083 -0.04 +0.07    -0.342 N  
DOCKED: ATOM      3  C   UNL     1     139.735  72.798 222.070 -0.18 -0.05    +0.270 C  
DOCKED: ATOM      4  O   UNL     1     140.567  73.745 222.038 -0.78 +0.01    -0.268 OA 
DOCKED: ATOM      5  H   UNL     1     138.031  71.926 221.080 +0.03 -0.03    +0.164 HD 
DOCKED: BRANCH   3   6
DOCKED: ATOM      6  C   UNL     1     139.837  71.763 223.122 -0.29 -0.02    +0.128 A  
DOCKED: ATOM      7  C   UNL     1     139.454  70.433 222.873 -0.23 -0.01    +0.035 A  
DOCKED: ATOM      8  N   UNL     1     140.317  72.102 224.353 -0.15 +0.04    -0.243 NA 
DOCKED: ATOM      9  C   UNL     1     139.563  69.480 223.888 -0.26 -0.00    +0.013 A  
DOCKED: ATOM     10  C   UNL     1     140.439  71.195 225.357 -0.50 -0.01    +0.071 A  
DOCKED: ATOM     11  C   UNL     1     140.061  69.851 225.143 -0.43 -0.00    +0.002 A  
DOCKED: ATOM     12  C   UNL     1     140.942  71.590 226.602 -0.69 -0.00    +0.030 A  
DOCKED: ATOM     13  C   UNL     1     140.190  68.916 226.181 -0.52 -0.01    +0.030 A  
DOCKED: ATOM     14  C   UNL     1     141.073  70.652 227.631 -0.63 -0.00    +0.023 A  
DOCKED: ATOM     15  C   UNL     1     140.695  69.320 227.423 -0.58 -0.01    +0.041 A  
DOCKED: ATOM     16  Cl  UNL     1     140.864  68.151 228.720 -0.66 +0.02    -0.084 Cl 
DOCKED: ENDBRANCH   3   6
DOCKED: ENDBRANCH   1   2
DOCKED: BRANCH   1  17
DOCKED: ATOM     17  C   UNL     1     139.797  73.993 219.286 -0.02 -0.05    +0.242 C  
DOCKED: ATOM     18  O   UNL     1     140.258  73.059 218.568 -0.01 +0.06    -0.273 OA 
DOCKED: BRANCH  17  19
DOCKED: ATOM     19  N   UNL     1     140.525  75.242 219.380 -0.01 +0.09    -0.331 N  
DOCKED: ATOM     20  C   UNL     1     140.199  76.242 220.416 -0.14 -0.04    +0.120 C  
DOCKED: ATOM     21  C   UNL     1     141.525  75.567 218.341 -0.07 -0.05    +0.153 C  
DOCKED: ATOM     22  C   UNL     1     141.461  76.984 220.867 -0.29 -0.01    +0.022 C  
DOCKED: ATOM     23  C   UNL     1     141.838  77.075 218.320 -0.19 -0.02    +0.033 C  
DOCKED: ATOM     24  C   UNL     1     142.250  77.611 219.699 -0.28 -0.00    +0.004 C  
DOCKED: BRANCH  21  25
DOCKED: ATOM     25  C   UNL     1     142.787  74.762 218.531 -0.13 -0.05    +0.150 A  
DOCKED: ATOM     26  N   UNL     1     143.494  74.352 217.442 -0.06 +0.07    -0.240 NA 
DOCKED: ATOM     27  N   UNL     1     143.250  74.482 219.781 -0.19 +0.09    -0.240 NA 
DOCKED: ATOM     28  C   UNL     1     144.650  73.653 217.580 -0.14 -0.01    +0.106 A  
DOCKED: ATOM     29  C   UNL     1     144.403  73.786 219.962 -0.36 -0.03    +0.106 A  
DOCKED: ATOM     30  C   UNL     1     145.133  73.352 218.855 -0.26 -0.00    -0.071 A  
DOCKED: ATOM     31  O   UNL     1     146.321  72.642 219.018 -0.30 -1.17    -0.870 OA 
DOCKED: ENDBRANCH  21  25
DOCKED: ENDBRANCH  17  19
DOCKED: ENDBRANCH   1  17
DOCKED: TORSDOF 5
DOCKED: TER
DOCKED: ENDMDL
________________________________________________________________________________


    FINAL DOCKED STATE:
    ________________________


Run:   12 / 20
Time taken for this run:   0.034s

DOCKED: MODEL        12
DOCKED: USER    Run = 12
DOCKED: USER
DOCKED: USER    Estimated Free Energy of Binding    =  -7.32 kcal/mol  [=(1)+(2)+(3)-(4)]
DOCKED: USER
DOCKED: USER    (1) Final Intermolecular Energy     =  -8.81 kcal/mol
DOCKED: USER        vdW + Hbond + desolv Energy     =  -8.90 kcal/mol
DOCKED: USER        Electrostatic Energy            =  +0.08 kcal/mol
DOCKED: USER        Moving Ligand-Fixed Receptor    =  -8.81 kcal/mol
DOCKED: USER        Moving Ligand-Moving Receptor   =  +0.00 kcal/mol
DOCKED: USER    (2) Final Total Internal Energy     =  -1.66 kcal/mol
DOCKED: USER    (3) Torsional Free Energy           =  +1.49 kcal/mol
DOCKED: USER    (4) Unbound System's Energy         =  -1.66 kcal/mol
DOCKED: USER
DOCKED: USER
DOCKED: REMARK SMILES O=C(NCC(=O)N1CCCC[C@H]1c1ncc([O-])cn1)c1ccc2cc(Cl)ccc2n1
DOCKED: REMARK SMILES IDX 4 1 3 2 2 3 1 4 20 6 21 7 30 8 22 9 29 10 23 11 28 12 24 13
DOCKED: REMARK SMILES IDX 27 14 25 15 26 16 5 17 6 18 7 19 8 20 12 21 9 22 11 23 10 24
DOCKED: REMARK SMILES IDX 13 25 14 26 19 27 15 28 18 29 16 30 17 31
DOCKED: REMARK H PARENT 3 5
DOCKED: USER                              x       y       z     vdW  Elec       q    Type
DOCKED: USER                           _______ _______ _______ _____ _____    ______ ____
DOCKED: ROOT
DOCKED: ATOM      1  C   UNL     1     140.460  73.431 219.351 -0.03 -0.04    +0.216 C  
DOCKED: ENDROOT
DOCKED: BRANCH   1   2
DOCKED: ATOM      2  N   UNL     1     140.439  72.495 220.475 -0.04 +0.06    -0.342 N  
DOCKED: ATOM      3  C   UNL     1     140.214  72.922 221.827 -0.19 -0.03    +0.270 C  
DOCKED: ATOM      4  O   UNL     1     140.078  74.150 222.079 -0.83 +0.02    -0.268 OA 
DOCKED: ATOM      5  H   UNL     1     140.595  71.485 220.267 +0.04 -0.03    +0.164 HD 
DOCKED: BRANCH   3   6
DOCKED: ATOM      6  C   UNL     1     140.144  71.932 222.923 -0.29 -0.02    +0.128 A  
DOCKED: ATOM      7  C   UNL     1     139.610  70.648 222.711 -0.23 -0.01    +0.035 A  
DOCKED: ATOM      8  N   UNL     1     140.612  72.266 224.160 -0.07 +0.02    -0.243 NA 
DOCKED: ATOM      9  C   UNL     1     139.559  69.737 223.768 -0.27 -0.00    +0.013 A  
DOCKED: ATOM     10  C   UNL     1     140.580  71.397 225.205 -0.50 -0.01    +0.071 A  
DOCKED: ATOM     11  C   UNL     1     140.047  70.101 225.028 -0.43 -0.00    +0.002 A  
DOCKED: ATOM     12  C   UNL     1     141.077  71.785 226.455 -0.69 -0.00    +0.030 A  
DOCKED: ATOM     13  C   UNL     1     140.017  69.206 226.107 -0.49 -0.00    +0.030 A  
DOCKED: ATOM     14  C   UNL     1     141.048  70.886 227.526 -0.66 -0.00    +0.023 A  
DOCKED: ATOM     15  C   UNL     1     140.518  69.601 227.355 -0.56 -0.01    +0.041 A  
DOCKED: ATOM     16  Cl  UNL     1     140.487  68.482 228.704 -0.68 +0.02    -0.084 Cl 
DOCKED: ENDBRANCH   3   6
DOCKED: ENDBRANCH   1   2
DOCKED: BRANCH   1  17
DOCKED: ATOM     17  C   UNL     1     141.343  72.932 218.232 -0.00 -0.05    +0.242 C  
DOCKED: ATOM     18  O   UNL     1     141.283  71.712 217.903 -0.00 +0.05    -0.273 OA 
DOCKED: BRANCH  17  19
DOCKED: ATOM     19  N   UNL     1     142.282  73.805 217.558 +0.01 +0.08    -0.331 N  
DOCKED: ATOM     20  C   UNL     1     141.852  75.096 216.986 -0.04 -0.04    +0.120 C  
DOCKED: ATOM     21  C   UNL     1     143.665  73.331 217.333 -0.06 -0.02    +0.153 C  
DOCKED: ATOM     22  C   UNL     1     142.974  76.134 217.092 -0.20 -0.01    +0.022 C  
DOCKED: ATOM     23  C   UNL     1     144.360  74.142 216.224 -0.11 -0.01    +0.033 C  
DOCKED: ATOM     24  C   UNL     1     144.308  75.656 216.480 -0.17 -0.00    +0.004 C  
DOCKED: BRANCH  21  25
DOCKED: ATOM     25  C   UNL     1     144.467  73.374 218.610 -0.17 -0.01    +0.150 A  
DOCKED: ATOM     26  N   UNL     1     144.016  74.109 219.664 -0.21 +0.07    -0.240 NA 
DOCKED: ATOM     27  N   UNL     1     145.613  72.648 218.734 -0.71 -0.14    -0.240 NA 
DOCKED: ATOM     28  C   UNL     1     144.698  74.143 220.838 -0.40 -0.03    +0.106 A  
DOCKED: ATOM     29  C   UNL     1     146.325  72.655 219.893 -0.25 +0.07    +0.106 A  
DOCKED: ATOM     30  C   UNL     1     145.878  73.410 220.978 -0.64 +0.01    -0.071 A  
DOCKED: ATOM     31  O   UNL     1     146.590  73.426 222.176 +0.01 +0.18    -0.870 OA 
DOCKED: ENDBRANCH  21  25
DOCKED: ENDBRANCH  17  19
DOCKED: ENDBRANCH   1  17
DOCKED: TORSDOF 5
DOCKED: TER
DOCKED: ENDMDL
________________________________________________________________________________


    FINAL DOCKED STATE:
    ________________________


Run:   13 / 20
Time taken for this run:   0.034s

DOCKED: MODEL        13
DOCKED: USER    Run = 13
DOCKED: USER
DOCKED: USER    Estimated Free Energy of Binding    =  -8.50 kcal/mol  [=(1)+(2)+(3)-(4)]
DOCKED: USER
DOCKED: USER    (1) Final Intermolecular Energy     =  -9.99 kcal/mol
DOCKED: USER        vdW + Hbond + desolv Energy     =  -8.91 kcal/mol
DOCKED: USER        Electrostatic Energy            =  -1.07 kcal/mol
DOCKED: USER        Moving Ligand-Fixed Receptor    =  -9.99 kcal/mol
DOCKED: USER        Moving Ligand-Moving Receptor   =  +0.00 kcal/mol
DOCKED: USER    (2) Final Total Internal Energy     =  -1.70 kcal/mol
DOCKED: USER    (3) Torsional Free Energy           =  +1.49 kcal/mol
DOCKED: USER    (4) Unbound System's Energy         =  -1.70 kcal/mol
DOCKED: USER
DOCKED: USER
DOCKED: REMARK SMILES O=C(NCC(=O)N1CCCC[C@H]1c1ncc([O-])cn1)c1ccc2cc(Cl)ccc2n1
DOCKED: REMARK SMILES IDX 4 1 3 2 2 3 1 4 20 6 21 7 30 8 22 9 29 10 23 11 28 12 24 13
DOCKED: REMARK SMILES IDX 27 14 25 15 26 16 5 17 6 18 7 19 8 20 12 21 9 22 11 23 10 24
DOCKED: REMARK SMILES IDX 13 25 14 26 19 27 15 28 18 29 16 30 17 31
DOCKED: REMARK H PARENT 3 5
DOCKED: USER                              x       y       z     vdW  Elec       q    Type
DOCKED: USER                           _______ _______ _______ _____ _____    ______ ____
DOCKED: ROOT
DOCKED: ATOM      1  C   UNL     1     139.546  74.873 221.022 -0.16 -0.05    +0.216 C  
DOCKED: ENDROOT
DOCKED: BRANCH   1   2
DOCKED: ATOM      2  N   UNL     1     139.587  73.880 222.095 -0.14 +0.06    -0.342 N  
DOCKED: ATOM      3  C   UNL     1     139.626  72.469 221.835 -0.17 -0.05    +0.270 C  
DOCKED: ATOM      4  O   UNL     1     139.574  72.051 220.645 -0.05 +0.05    -0.268 OA 
DOCKED: ATOM      5  H   UNL     1     139.588  74.228 223.078 -0.51 -0.01    +0.164 HD 
DOCKED: BRANCH   3   6
DOCKED: ATOM      6  C   UNL     1     139.726  71.504 222.951 -0.27 -0.02    +0.128 A  
DOCKED: ATOM      7  C   UNL     1     139.283  70.176 222.807 -0.21 -0.01    +0.035 A  
DOCKED: ATOM      8  N   UNL     1     140.262  71.905 224.139 -0.27 +0.04    -0.243 NA 
DOCKED: ATOM      9  C   UNL     1     139.392  69.291 223.881 -0.26 -0.00    +0.013 A  
DOCKED: ATOM     10  C   UNL     1     140.386  71.063 225.199 -0.49 -0.01    +0.071 A  
DOCKED: ATOM     11  C   UNL     1     139.948  69.724 225.089 -0.42 -0.00    +0.002 A  
DOCKED: ATOM     12  C   UNL     1     140.948  71.520 226.396 -0.67 -0.00    +0.030 A  
DOCKED: ATOM     13  C   UNL     1     140.079  68.857 226.184 -0.52 -0.01    +0.030 A  
DOCKED: ATOM     14  C   UNL     1     141.079  70.649 227.482 -0.62 -0.00    +0.023 A  
DOCKED: ATOM     15  C   UNL     1     140.644  69.322 227.379 -0.58 -0.01    +0.041 A  
DOCKED: ATOM     16  Cl  UNL     1     140.814  68.237 228.747 -0.64 +0.02    -0.084 Cl 
DOCKED: ENDBRANCH   3   6
DOCKED: ENDBRANCH   1   2
DOCKED: BRANCH   1  17
DOCKED: ATOM     17  C   UNL     1     140.779  75.744 221.026 -0.20 -0.07    +0.242 C  
DOCKED: ATOM     18  O   UNL     1     141.388  75.937 222.118 -0.30 +0.10    -0.273 OA 
DOCKED: BRANCH  17  19
DOCKED: ATOM     19  N   UNL     1     141.255  76.395 219.823 -0.07 +0.14    -0.331 N  
DOCKED: ATOM     20  C   UNL     1     141.385  77.864 219.747 -0.20 -0.06    +0.120 C  
DOCKED: ATOM     21  C   UNL     1     141.491  75.578 218.613 -0.08 -0.05    +0.153 C  
DOCKED: ATOM     22  C   UNL     1     142.570  78.256 218.858 -0.22 -0.02    +0.022 C  
DOCKED: ATOM     23  C   UNL     1     141.520  76.452 217.346 -0.09 -0.01    +0.033 C  
DOCKED: ATOM     24  C   UNL     1     142.517  77.616 217.455 -0.27 -0.00    +0.004 C  
DOCKED: BRANCH  21  25
DOCKED: ATOM     25  C   UNL     1     142.763  74.777 218.739 -0.14 -0.05    +0.150 A  
DOCKED: ATOM     26  N   UNL     1     143.278  74.155 217.643 -0.05 +0.07    -0.240 NA 
DOCKED: ATOM     27  N   UNL     1     143.425  74.709 219.927 -0.22 +0.10    -0.240 NA 
DOCKED: ATOM     28  C   UNL     1     144.438  73.452 217.717 -0.13 -0.01    +0.106 A  
DOCKED: ATOM     29  C   UNL     1     144.590  74.017 220.043 -0.39 -0.03    +0.106 A  
DOCKED: ATOM     30  C   UNL     1     145.124  73.368 218.929 -0.27 -0.00    -0.071 A  
DOCKED: ATOM     31  O   UNL     1     146.319  72.658 219.024 -0.31 -1.15    -0.870 OA 
DOCKED: ENDBRANCH  21  25
DOCKED: ENDBRANCH  17  19
DOCKED: ENDBRANCH   1  17
DOCKED: TORSDOF 5
DOCKED: TER
DOCKED: ENDMDL
________________________________________________________________________________


    FINAL DOCKED STATE:
    ________________________


Run:   14 / 20
Time taken for this run:   0.034s

DOCKED: MODEL        14
DOCKED: USER    Run = 14
DOCKED: USER
DOCKED: USER    Estimated Free Energy of Binding    =  -8.46 kcal/mol  [=(1)+(2)+(3)-(4)]
DOCKED: USER
DOCKED: USER    (1) Final Intermolecular Energy     =  -9.95 kcal/mol
DOCKED: USER        vdW + Hbond + desolv Energy     =  -9.06 kcal/mol
DOCKED: USER        Electrostatic Energy            =  -0.89 kcal/mol
DOCKED: USER        Moving Ligand-Fixed Receptor    =  -9.95 kcal/mol
DOCKED: USER        Moving Ligand-Moving Receptor   =  +0.00 kcal/mol
DOCKED: USER    (2) Final Total Internal Energy     =  -1.71 kcal/mol
DOCKED: USER    (3) Torsional Free Energy           =  +1.49 kcal/mol
DOCKED: USER    (4) Unbound System's Energy         =  -1.71 kcal/mol
DOCKED: USER
DOCKED: USER
DOCKED: REMARK SMILES O=C(NCC(=O)N1CCCC[C@H]1c1ncc([O-])cn1)c1ccc2cc(Cl)ccc2n1
DOCKED: REMARK SMILES IDX 4 1 3 2 2 3 1 4 20 6 21 7 30 8 22 9 29 10 23 11 28 12 24 13
DOCKED: REMARK SMILES IDX 27 14 25 15 26 16 5 17 6 18 7 19 8 20 12 21 9 22 11 23 10 24
DOCKED: REMARK SMILES IDX 13 25 14 26 19 27 15 28 18 29 16 30 17 31
DOCKED: REMARK H PARENT 3 5
DOCKED: USER                              x       y       z     vdW  Elec       q    Type
DOCKED: USER                           _______ _______ _______ _____ _____    ______ ____
DOCKED: ROOT
DOCKED: ATOM      1  C   UNL     1     139.507  74.844 221.055 -0.16 -0.05    +0.216 C  
DOCKED: ENDROOT
DOCKED: BRANCH   1   2
DOCKED: ATOM      2  N   UNL     1     139.557  73.847 222.124 -0.14 +0.06    -0.342 N  
DOCKED: ATOM      3  C   UNL     1     139.604  72.437 221.857 -0.17 -0.05    +0.270 C  
DOCKED: ATOM      4  O   UNL     1     139.550  72.024 220.666 -0.05 +0.05    -0.268 OA 
DOCKED: ATOM      5  H   UNL     1     139.558  74.191 223.108 -0.53 -0.02    +0.164 HD 
DOCKED: BRANCH   3   6
DOCKED: ATOM      6  C   UNL     1     139.712  71.468 222.969 -0.27 -0.02    +0.128 A  
DOCKED: ATOM      7  C   UNL     1     139.284  70.136 222.817 -0.21 -0.01    +0.035 A  
DOCKED: ATOM      8  N   UNL     1     140.241  71.869 224.160 -0.27 +0.04    -0.243 NA 
DOCKED: ATOM      9  C   UNL     1     139.401  69.247 223.887 -0.25 -0.00    +0.013 A  
DOCKED: ATOM     10  C   UNL     1     140.372  71.023 225.216 -0.49 -0.01    +0.071 A  
DOCKED: ATOM     11  C   UNL     1     139.950  69.680 225.099 -0.41 -0.00    +0.002 A  
DOCKED: ATOM     12  C   UNL     1     140.927  71.480 226.417 -0.67 -0.00    +0.030 A  
DOCKED: ATOM     13  C   UNL     1     140.088  68.809 226.190 -0.52 -0.01    +0.030 A  
DOCKED: ATOM     14  C   UNL     1     141.066  70.606 227.499 -0.62 -0.00    +0.023 A  
DOCKED: ATOM     15  C   UNL     1     140.646  69.274 227.388 -0.58 -0.01    +0.041 A  
DOCKED: ATOM     16  Cl  UNL     1     140.825  68.185 228.751 -0.64 +0.02    -0.084 Cl 
DOCKED: ENDBRANCH   3   6
DOCKED: ENDBRANCH   1   2
DOCKED: BRANCH   1  17
DOCKED: ATOM     17  C   UNL     1     140.721  75.742 221.079 -0.21 -0.07    +0.242 C  
DOCKED: ATOM     18  O   UNL     1     141.284  75.980 222.186 -0.32 +0.10    -0.273 OA 
DOCKED: BRANCH  17  19
DOCKED: ATOM     19  N   UNL     1     141.228  76.367 219.875 -0.07 +0.13    -0.331 N  
DOCKED: ATOM     20  C   UNL     1     141.356  77.834 219.769 -0.20 -0.06    +0.120 C  
DOCKED: ATOM     21  C   UNL     1     141.500  75.523 218.690 -0.08 -0.05    +0.153 C  
DOCKED: ATOM     22  C   UNL     1     142.564  78.209 218.904 -0.22 -0.02    +0.022 C  
DOCKED: ATOM     23  C   UNL     1     141.562  76.369 217.405 -0.09 -0.01    +0.033 C  
DOCKED: ATOM     24  C   UNL     1     142.553  77.538 217.515 -0.28 -0.00    +0.004 C  
DOCKED: BRANCH  21  25
DOCKED: ATOM     25  C   UNL     1     142.770  74.730 218.871 -0.15 -0.05    +0.150 A  
DOCKED: ATOM     26  N   UNL     1     143.311  74.075 217.806 -0.05 +0.07    -0.240 NA 
DOCKED: ATOM     27  N   UNL     1     143.406  74.701 220.075 -0.23 +0.10    -0.240 NA 
DOCKED: ATOM     28  C   UNL     1     144.470  73.378 217.928 -0.14 -0.01    +0.106 A  
DOCKED: ATOM     29  C   UNL     1     144.568  74.015 220.238 -0.42 -0.03    +0.106 A  
DOCKED: ATOM     30  C   UNL     1     145.129  73.333 219.157 -0.31 -0.00    -0.071 A  
DOCKED: ATOM     31  O   UNL     1     146.323  72.629 219.301 -0.33 -0.96    -0.870 OA 
DOCKED: ENDBRANCH  21  25
DOCKED: ENDBRANCH  17  19
DOCKED: ENDBRANCH   1  17
DOCKED: TORSDOF 5
DOCKED: TER
DOCKED: ENDMDL
________________________________________________________________________________


    FINAL DOCKED STATE:
    ________________________


Run:   15 / 20
Time taken for this run:   0.034s

DOCKED: MODEL        15
DOCKED: USER    Run = 15
DOCKED: USER
DOCKED: USER    Estimated Free Energy of Binding    =  -8.12 kcal/mol  [=(1)+(2)+(3)-(4)]
DOCKED: USER
DOCKED: USER    (1) Final Intermolecular Energy     =  -9.61 kcal/mol
DOCKED: USER        vdW + Hbond + desolv Energy     =  -8.78 kcal/mol
DOCKED: USER        Electrostatic Energy            =  -0.83 kcal/mol
DOCKED: USER        Moving Ligand-Fixed Receptor    =  -9.61 kcal/mol
DOCKED: USER        Moving Ligand-Moving Receptor   =  +0.00 kcal/mol
DOCKED: USER    (2) Final Total Internal Energy     =  -1.92 kcal/mol
DOCKED: USER    (3) Torsional Free Energy           =  +1.49 kcal/mol
DOCKED: USER    (4) Unbound System's Energy         =  -1.92 kcal/mol
DOCKED: USER
DOCKED: USER
DOCKED: REMARK SMILES O=C(NCC(=O)N1CCCC[C@H]1c1ncc([O-])cn1)c1ccc2cc(Cl)ccc2n1
DOCKED: REMARK SMILES IDX 4 1 3 2 2 3 1 4 20 6 21 7 30 8 22 9 29 10 23 11 28 12 24 13
DOCKED: REMARK SMILES IDX 27 14 25 15 26 16 5 17 6 18 7 19 8 20 12 21 9 22 11 23 10 24
DOCKED: REMARK SMILES IDX 13 25 14 26 19 27 15 28 18 29 16 30 17 31
DOCKED: REMARK H PARENT 3 5
DOCKED: USER                              x       y       z     vdW  Elec       q    Type
DOCKED: USER                           _______ _______ _______ _____ _____    ______ ____
DOCKED: ROOT
DOCKED: ATOM      1  C   UNL     1     139.551  74.322 221.006 -0.15 -0.04    +0.216 C  
DOCKED: ENDROOT
DOCKED: BRANCH   1   2
DOCKED: ATOM      2  N   UNL     1     139.631  73.398 222.138 -0.15 +0.06    -0.342 N  
DOCKED: ATOM      3  C   UNL     1     139.350  71.997 222.007 -0.15 -0.05    +0.270 C  
DOCKED: ATOM      4  O   UNL     1     138.971  71.536 220.895 -0.04 +0.05    -0.268 OA 
DOCKED: ATOM      5  H   UNL     1     139.903  73.791 223.065 -0.35 +0.02    +0.164 HD 
DOCKED: BRANCH   3   6
DOCKED: ATOM      6  C   UNL     1     139.500  71.092 223.167 -0.26 -0.02    +0.128 A  
DOCKED: ATOM      7  C   UNL     1     139.070  69.753 223.106 -0.22 -0.01    +0.035 A  
DOCKED: ATOM      8  N   UNL     1     140.070  71.560 224.314 -0.28 +0.05    -0.243 NA 
DOCKED: ATOM      9  C   UNL     1     139.227  68.926 224.220 -0.32 -0.00    +0.013 A  
DOCKED: ATOM     10  C   UNL     1     140.240  70.774 225.411 -0.48 -0.01    +0.071 A  
DOCKED: ATOM     11  C   UNL     1     139.817  69.427 225.385 -0.43 -0.00    +0.002 A  
DOCKED: ATOM     12  C   UNL     1     140.836  71.299 226.564 -0.66 -0.00    +0.030 A  
DOCKED: ATOM     13  C   UNL     1     139.996  68.619 226.517 -0.57 -0.01    +0.030 A  
DOCKED: ATOM     14  C   UNL     1     141.015  70.486 227.688 -0.61 -0.00    +0.023 A  
DOCKED: ATOM     15  C   UNL     1     140.594  69.151 227.667 -0.60 -0.01    +0.041 A  
DOCKED: ATOM     16  Cl  UNL     1     140.824  68.140 229.081 -0.39 +0.02    -0.084 Cl 
DOCKED: ENDBRANCH   3   6
DOCKED: ENDBRANCH   1   2
DOCKED: BRANCH   1  17
DOCKED: ATOM     17  C   UNL     1     140.545  75.450 221.142 -0.21 -0.06    +0.242 C  
DOCKED: ATOM     18  O   UNL     1     140.965  75.761 222.294 -0.42 +0.06    -0.273 OA 
DOCKED: BRANCH  17  19
DOCKED: ATOM     19  N   UNL     1     140.995  76.210 219.994 -0.06 +0.12    -0.331 N  
DOCKED: ATOM     20  C   UNL     1     141.028  77.686 220.017 -0.18 -0.05    +0.120 C  
DOCKED: ATOM     21  C   UNL     1     141.304  75.493 218.738 -0.07 -0.05    +0.153 C  
DOCKED: ATOM     22  C   UNL     1     142.197  78.213 219.179 -0.27 -0.02    +0.022 C  
DOCKED: ATOM     23  C   UNL     1     141.294  76.450 217.531 -0.08 -0.01    +0.033 C  
DOCKED: ATOM     24  C   UNL     1     142.210  77.666 217.736 -0.25 -0.00    +0.004 C  
DOCKED: BRANCH  21  25
DOCKED: ATOM     25  C   UNL     1     142.625  74.770 218.837 -0.14 -0.05    +0.150 A  
DOCKED: ATOM     26  N   UNL     1     143.167  74.525 220.061 -0.20 +0.09    -0.240 NA 
DOCKED: ATOM     27  N   UNL     1     143.255  74.320 217.717 -0.06 +0.07    -0.240 NA 
DOCKED: ATOM     28  C   UNL     1     144.339  73.850 220.186 -0.38 -0.03    +0.106 A  
DOCKED: ATOM     29  C   UNL     1     144.429  73.639 217.799 -0.14 -0.02    +0.106 A  
DOCKED: ATOM     30  C   UNL     1     145.000  73.388 219.047 -0.29 +0.00    -0.071 A  
DOCKED: ATOM     31  O   UNL     1     146.200  72.687 219.154 -0.36 -0.91    -0.870 OA 
DOCKED: ENDBRANCH  21  25
DOCKED: ENDBRANCH  17  19
DOCKED: ENDBRANCH   1  17
DOCKED: TORSDOF 5
DOCKED: TER
DOCKED: ENDMDL
________________________________________________________________________________


    FINAL DOCKED STATE:
    ________________________


Run:   16 / 20
Time taken for this run:   0.034s

DOCKED: MODEL        16
DOCKED: USER    Run = 16
DOCKED: USER
DOCKED: USER    Estimated Free Energy of Binding    =  -7.64 kcal/mol  [=(1)+(2)+(3)-(4)]
DOCKED: USER
DOCKED: USER    (1) Final Intermolecular Energy     =  -9.13 kcal/mol
DOCKED: USER        vdW + Hbond + desolv Energy     =  -9.34 kcal/mol
DOCKED: USER        Electrostatic Energy            =  +0.21 kcal/mol
DOCKED: USER        Moving Ligand-Fixed Receptor    =  -9.13 kcal/mol
DOCKED: USER        Moving Ligand-Moving Receptor   =  +0.00 kcal/mol
DOCKED: USER    (2) Final Total Internal Energy     =  -1.46 kcal/mol
DOCKED: USER    (3) Torsional Free Energy           =  +1.49 kcal/mol
DOCKED: USER    (4) Unbound System's Energy         =  -1.46 kcal/mol
DOCKED: USER
DOCKED: USER
DOCKED: REMARK SMILES O=C(NCC(=O)N1CCCC[C@H]1c1ncc([O-])cn1)c1ccc2cc(Cl)ccc2n1
DOCKED: REMARK SMILES IDX 4 1 3 2 2 3 1 4 20 6 21 7 30 8 22 9 29 10 23 11 28 12 24 13
DOCKED: REMARK SMILES IDX 27 14 25 15 26 16 5 17 6 18 7 19 8 20 12 21 9 22 11 23 10 24
DOCKED: REMARK SMILES IDX 13 25 14 26 19 27 15 28 18 29 16 30 17 31
DOCKED: REMARK H PARENT 3 5
DOCKED: USER                              x       y       z     vdW  Elec       q    Type
DOCKED: USER                           _______ _______ _______ _____ _____    ______ ____
DOCKED: ROOT
DOCKED: ATOM      1  C   UNL     1     139.418  74.607 221.264 -0.17 -0.04    +0.216 C  
DOCKED: ENDROOT
DOCKED: BRANCH   1   2
DOCKED: ATOM      2  N   UNL     1     139.505  73.633 222.352 -0.11 +0.06    -0.342 N  
DOCKED: ATOM      3  C   UNL     1     139.552  72.218 222.114 -0.18 -0.05    +0.270 C  
DOCKED: ATOM      4  O   UNL     1     139.466  71.779 220.935 -0.06 +0.05    -0.268 OA 
DOCKED: ATOM      5  H   UNL     1     139.533  73.998 223.328 -0.47 -0.03    +0.164 HD 
DOCKED: BRANCH   3   6
DOCKED: ATOM      6  C   UNL     1     139.697  71.274 223.243 -0.28 -0.02    +0.128 A  
DOCKED: ATOM      7  C   UNL     1     139.322  69.924 223.116 -0.22 -0.01    +0.035 A  
DOCKED: ATOM      8  N   UNL     1     140.211  71.717 224.426 -0.27 +0.04    -0.243 NA 
DOCKED: ATOM      9  C   UNL     1     139.473  69.059 224.201 -0.26 -0.00    +0.013 A  
DOCKED: ATOM     10  C   UNL     1     140.374  70.895 225.497 -0.50 -0.01    +0.071 A  
DOCKED: ATOM     11  C   UNL     1     140.004  69.535 225.405 -0.44 -0.00    +0.002 A  
DOCKED: ATOM     12  C   UNL     1     140.910  71.395 226.689 -0.68 -0.00    +0.030 A  
DOCKED: ATOM     13  C   UNL     1     140.176  68.690 226.511 -0.57 -0.01    +0.030 A  
DOCKED: ATOM     14  C   UNL     1     141.083  70.546 227.787 -0.62 -0.00    +0.023 A  
DOCKED: ATOM     15  C   UNL     1     140.715  69.198 227.700 -0.59 -0.01    +0.041 A  
DOCKED: ATOM     16  Cl  UNL     1     140.936  68.141 229.082 -0.43 +0.02    -0.084 Cl 
DOCKED: ENDBRANCH   3   6
DOCKED: ENDBRANCH   1   2
DOCKED: BRANCH   1  17
DOCKED: ATOM     17  C   UNL     1     139.920  75.964 221.695 -0.24 -0.05    +0.242 C  
DOCKED: ATOM     18  O   UNL     1     141.098  76.067 222.144 -0.36 +0.09    -0.273 OA 
DOCKED: BRANCH  17  19
DOCKED: ATOM     19  N   UNL     1     139.074  77.138 221.646 -0.09 +0.07    -0.331 N  
DOCKED: ATOM     20  C   UNL     1     137.680  77.098 222.131 -0.19 -0.02    +0.120 C  
DOCKED: ATOM     21  C   UNL     1     139.581  78.359 220.982 -0.12 -0.04    +0.153 C  
DOCKED: ATOM     22  C   UNL     1     137.282  78.445 222.743 -0.20 -0.00    +0.022 C  
DOCKED: ATOM     23  C   UNL     1     138.429  79.308 220.603 -0.08 -0.01    +0.033 C  
DOCKED: ATOM     24  C   UNL     1     137.522  79.641 221.797 -0.13 -0.00    +0.004 C  
DOCKED: BRANCH  21  25
DOCKED: ATOM     25  C   UNL     1     140.594  79.066 221.848 -0.24 -0.05    +0.150 A  
DOCKED: ATOM     26  N   UNL     1     141.287  80.125 221.345 -0.19 +0.08    -0.240 NA 
DOCKED: ATOM     27  N   UNL     1     140.786  78.687 223.142 -0.29 +0.06    -0.240 NA 
DOCKED: ATOM     28  C   UNL     1     142.182  80.803 222.109 -0.44 -0.03    +0.106 A  
DOCKED: ATOM     29  C   UNL     1     141.673  79.340 223.940 -0.51 -0.03    +0.106 A  
DOCKED: ATOM     30  C   UNL     1     142.396  80.421 223.434 -0.60 +0.02    -0.071 A  
DOCKED: ATOM     31  O   UNL     1     143.305  81.107 224.236 +0.19 +0.13    -0.870 OA 
DOCKED: ENDBRANCH  21  25
DOCKED: ENDBRANCH  17  19
DOCKED: ENDBRANCH   1  17
DOCKED: TORSDOF 5
DOCKED: TER
DOCKED: ENDMDL
________________________________________________________________________________


    FINAL DOCKED STATE:
    ________________________


Run:   17 / 20
Time taken for this run:   0.034s

DOCKED: MODEL        17
DOCKED: USER    Run = 17
DOCKED: USER
DOCKED: USER    Estimated Free Energy of Binding    =  -7.39 kcal/mol  [=(1)+(2)+(3)-(4)]
DOCKED: USER
DOCKED: USER    (1) Final Intermolecular Energy     =  -8.89 kcal/mol
DOCKED: USER        vdW + Hbond + desolv Energy     =  -9.34 kcal/mol
DOCKED: USER        Electrostatic Energy            =  +0.46 kcal/mol
DOCKED: USER        Moving Ligand-Fixed Receptor    =  -8.89 kcal/mol
DOCKED: USER        Moving Ligand-Moving Receptor   =  +0.00 kcal/mol
DOCKED: USER    (2) Final Total Internal Energy     =  -1.58 kcal/mol
DOCKED: USER    (3) Torsional Free Energy           =  +1.49 kcal/mol
DOCKED: USER    (4) Unbound System's Energy         =  -1.58 kcal/mol
DOCKED: USER
DOCKED: USER
DOCKED: REMARK SMILES O=C(NCC(=O)N1CCCC[C@H]1c1ncc([O-])cn1)c1ccc2cc(Cl)ccc2n1
DOCKED: REMARK SMILES IDX 4 1 3 2 2 3 1 4 20 6 21 7 30 8 22 9 29 10 23 11 28 12 24 13
DOCKED: REMARK SMILES IDX 27 14 25 15 26 16 5 17 6 18 7 19 8 20 12 21 9 22 11 23 10 24
DOCKED: REMARK SMILES IDX 13 25 14 26 19 27 15 28 18 29 16 30 17 31
DOCKED: REMARK H PARENT 3 5
DOCKED: USER                              x       y       z     vdW  Elec       q    Type
DOCKED: USER                           _______ _______ _______ _____ _____    ______ ____
DOCKED: ROOT
DOCKED: ATOM      1  C   UNL     1     139.578  75.482 221.352 -0.20 -0.05    +0.216 C  
DOCKED: ENDROOT
DOCKED: BRANCH   1   2
DOCKED: ATOM      2  N   UNL     1     139.572  74.382 222.316 -0.09 +0.05    -0.342 N  
DOCKED: ATOM      3  C   UNL     1     139.968  73.048 221.962 -0.19 -0.04    +0.270 C  
DOCKED: ATOM      4  O   UNL     1     140.289  72.787 220.770 -0.09 +0.04    -0.268 OA 
DOCKED: ATOM      5  H   UNL     1     139.265  74.593 223.290 -0.52 -0.05    +0.164 HD 
DOCKED: BRANCH   3   6
DOCKED: ATOM      6  C   UNL     1     140.001  71.981 222.984 -0.29 -0.02    +0.128 A  
DOCKED: ATOM      7  C   UNL     1     139.564  70.676 222.689 -0.23 -0.01    +0.035 A  
DOCKED: ATOM      8  N   UNL     1     140.469  72.262 224.234 -0.08 +0.03    -0.243 NA 
DOCKED: ATOM      9  C   UNL     1     139.609  69.692 223.678 -0.24 -0.00    +0.013 A  
DOCKED: ATOM     10  C   UNL     1     140.529  71.322 225.214 -0.50 -0.01    +0.071 A  
DOCKED: ATOM     11  C   UNL     1     140.096  70.003 224.952 -0.42 -0.00    +0.002 A  
DOCKED: ATOM     12  C   UNL     1     141.023  71.658 226.480 -0.69 -0.00    +0.030 A  
DOCKED: ATOM     13  C   UNL     1     140.161  69.035 225.965 -0.49 -0.01    +0.030 A  
DOCKED: ATOM     14  C   UNL     1     141.089  70.687 227.483 -0.62 -0.00    +0.023 A  
DOCKED: ATOM     15  C   UNL     1     140.657  69.379 227.228 -0.57 -0.01    +0.041 A  
DOCKED: ATOM     16  Cl  UNL     1     140.746  68.168 228.494 -0.69 +0.02    -0.084 Cl 
DOCKED: ENDBRANCH   3   6
DOCKED: ENDBRANCH   1   2
DOCKED: BRANCH   1  17
DOCKED: ATOM     17  C   UNL     1     139.274  76.803 222.018 -0.22 -0.05    +0.242 C  
DOCKED: ATOM     18  O   UNL     1     138.203  76.922 222.680 -0.22 +0.05    -0.273 OA 
DOCKED: BRANCH  17  19
DOCKED: ATOM     19  N   UNL     1     140.156  77.943 221.882 -0.12 +0.10    -0.331 N  
DOCKED: ATOM     20  C   UNL     1     140.669  78.660 223.067 -0.41 -0.03    +0.120 C  
DOCKED: ATOM     21  C   UNL     1     140.442  78.470 220.531 -0.15 -0.06    +0.153 C  
DOCKED: ATOM     22  C   UNL     1     142.082  79.191 222.807 -0.56 -0.01    +0.022 C  
DOCKED: ATOM     23  C   UNL     1     140.976  79.913 220.595 -0.26 -0.01    +0.033 C  
DOCKED: ATOM     24  C   UNL     1     142.185  80.053 221.531 -0.42 -0.00    +0.004 C  
DOCKED: BRANCH  21  25
DOCKED: ATOM     25  C   UNL     1     141.407  77.575 219.793 -0.18 -0.07    +0.150 A  
DOCKED: ATOM     26  N   UNL     1     142.116  76.638 220.481 -0.15 +0.15    -0.240 NA 
DOCKED: ATOM     27  N   UNL     1     141.540  77.664 218.440 -0.09 +0.12    -0.240 NA 
DOCKED: ATOM     28  C   UNL     1     142.969  75.796 219.842 -0.30 -0.06    +0.106 A  
DOCKED: ATOM     29  C   UNL     1     142.383  76.839 217.763 -0.19 -0.06    +0.106 A  
DOCKED: ATOM     30  C   UNL     1     143.122  75.880 218.457 -0.25 +0.04    -0.071 A  
DOCKED: ATOM     31  O   UNL     1     143.987  75.021 217.781 +0.10 +0.41    -0.870 OA 
DOCKED: ENDBRANCH  21  25
DOCKED: ENDBRANCH  17  19
DOCKED: ENDBRANCH   1  17
DOCKED: TORSDOF 5
DOCKED: TER
DOCKED: ENDMDL
________________________________________________________________________________


    FINAL DOCKED STATE:
    ________________________


Run:   18 / 20
Time taken for this run:   0.034s

DOCKED: MODEL        18
DOCKED: USER    Run = 18
DOCKED: USER
DOCKED: USER    Estimated Free Energy of Binding    =  -7.87 kcal/mol  [=(1)+(2)+(3)-(4)]
DOCKED: USER
DOCKED: USER    (1) Final Intermolecular Energy     =  -9.36 kcal/mol
DOCKED: USER        vdW + Hbond + desolv Energy     =  -8.62 kcal/mol
DOCKED: USER        Electrostatic Energy            =  -0.75 kcal/mol
DOCKED: USER        Moving Ligand-Fixed Receptor    =  -9.36 kcal/mol
DOCKED: USER        Moving Ligand-Moving Receptor   =  +0.00 kcal/mol
DOCKED: USER    (2) Final Total Internal Energy     =  -2.00 kcal/mol
DOCKED: USER    (3) Torsional Free Energy           =  +1.49 kcal/mol
DOCKED: USER    (4) Unbound System's Energy         =  -2.00 kcal/mol
DOCKED: USER
DOCKED: USER
DOCKED: REMARK SMILES O=C(NCC(=O)N1CCCC[C@H]1c1ncc([O-])cn1)c1ccc2cc(Cl)ccc2n1
DOCKED: REMARK SMILES IDX 4 1 3 2 2 3 1 4 20 6 21 7 30 8 22 9 29 10 23 11 28 12 24 13
DOCKED: REMARK SMILES IDX 27 14 25 15 26 16 5 17 6 18 7 19 8 20 12 21 9 22 11 23 10 24
DOCKED: REMARK SMILES IDX 13 25 14 26 19 27 15 28 18 29 16 30 17 31
DOCKED: REMARK H PARENT 3 5
DOCKED: USER                              x       y       z     vdW  Elec       q    Type
DOCKED: USER                           _______ _______ _______ _____ _____    ______ ____
DOCKED: ROOT
DOCKED: ATOM      1  C   UNL     1     139.749  74.170 220.851 -0.14 -0.04    +0.216 C  
DOCKED: ENDROOT
DOCKED: BRANCH   1   2
DOCKED: ATOM      2  N   UNL     1     139.786  73.273 222.006 -0.15 +0.05    -0.342 N  
DOCKED: ATOM      3  C   UNL     1     139.543  71.863 221.893 -0.15 -0.05    +0.270 C  
DOCKED: ATOM      4  O   UNL     1     139.235  71.370 220.773 -0.04 +0.05    -0.268 OA 
DOCKED: ATOM      5  H   UNL     1     139.999  73.692 222.937 -0.22 +0.02    +0.164 HD 
DOCKED: BRANCH   3   6
DOCKED: ATOM      6  C   UNL     1     139.649  70.987 223.079 -0.25 -0.02    +0.128 A  
DOCKED: ATOM      7  C   UNL     1     139.166  69.666 223.053 -0.22 -0.01    +0.035 A  
DOCKED: ATOM      8  N   UNL     1     140.229  71.465 224.217 -0.28 +0.04    -0.243 NA 
DOCKED: ATOM      9  C   UNL     1     139.282  68.865 224.191 -0.29 -0.00    +0.013 A  
DOCKED: ATOM     10  C   UNL     1     140.360  70.706 225.337 -0.48 -0.01    +0.071 A  
DOCKED: ATOM     11  C   UNL     1     139.884  69.376 225.346 -0.43 -0.00    +0.002 A  
DOCKED: ATOM     12  C   UNL     1     140.969  71.239 226.479 -0.66 -0.00    +0.030 A  
DOCKED: ATOM     13  C   UNL     1     140.023  68.595 226.503 -0.57 -0.01    +0.030 A  
DOCKED: ATOM     14  C   UNL     1     141.108  70.454 227.627 -0.58 -0.00    +0.023 A  
DOCKED: ATOM     15  C   UNL     1     140.634  69.136 227.641 -0.60 -0.01    +0.041 A  
DOCKED: ATOM     16  Cl  UNL     1     140.814  68.158 229.086 -0.38 +0.02    -0.084 Cl 
DOCKED: ENDBRANCH   3   6
DOCKED: ENDBRANCH   1   2
DOCKED: BRANCH   1  17
DOCKED: ATOM     17  C   UNL     1     140.478  75.462 221.130 -0.20 -0.06    +0.242 C  
DOCKED: ATOM     18  O   UNL     1     140.631  75.832 222.330 -0.46 +0.05    -0.273 OA 
DOCKED: BRANCH  17  19
DOCKED: ATOM     19  N   UNL     1     140.968  76.305 220.059 -0.06 +0.12    -0.331 N  
DOCKED: ATOM     20  C   UNL     1     141.006  77.775 220.197 -0.19 -0.05    +0.120 C  
DOCKED: ATOM     21  C   UNL     1     141.316  75.685 218.762 -0.08 -0.05    +0.153 C  
DOCKED: ATOM     22  C   UNL     1     142.205  78.357 219.441 -0.21 -0.02    +0.022 C  
DOCKED: ATOM     23  C   UNL     1     141.350  76.732 217.633 -0.10 -0.01    +0.033 C  
DOCKED: ATOM     24  C   UNL     1     142.263  77.923 217.961 -0.28 -0.00    +0.004 C  
DOCKED: BRANCH  21  25
DOCKED: ATOM     25  C   UNL     1     142.630  74.948 218.848 -0.15 -0.06    +0.150 A  
DOCKED: ATOM     26  N   UNL     1     143.273  74.858 220.045 -0.22 +0.10    -0.240 NA 
DOCKED: ATOM     27  N   UNL     1     143.155  74.334 217.752 -0.05 +0.07    -0.240 NA 
DOCKED: ATOM     28  C   UNL     1     144.441  74.175 220.163 -0.40 -0.03    +0.106 A  
DOCKED: ATOM     29  C   UNL     1     144.322  73.640 217.828 -0.14 -0.02    +0.106 A  
DOCKED: ATOM     30  C   UNL     1     144.995  73.546 219.046 -0.25 +0.00    -0.071 A  
DOCKED: ATOM     31  O   UNL     1     146.189  72.835 219.147 -0.39 -0.81    -0.870 OA 
DOCKED: ENDBRANCH  21  25
DOCKED: ENDBRANCH  17  19
DOCKED: ENDBRANCH   1  17
DOCKED: TORSDOF 5
DOCKED: TER
DOCKED: ENDMDL
________________________________________________________________________________


    FINAL DOCKED STATE:
    ________________________


Run:   19 / 20
Time taken for this run:   0.034s

DOCKED: MODEL        19
DOCKED: USER    Run = 19
DOCKED: USER
DOCKED: USER    Estimated Free Energy of Binding    =  -6.91 kcal/mol  [=(1)+(2)+(3)-(4)]
DOCKED: USER
DOCKED: USER    (1) Final Intermolecular Energy     =  -8.40 kcal/mol
DOCKED: USER        vdW + Hbond + desolv Energy     =  -7.52 kcal/mol
DOCKED: USER        Electrostatic Energy            =  -0.88 kcal/mol
DOCKED: USER        Moving Ligand-Fixed Receptor    =  -8.40 kcal/mol
DOCKED: USER        Moving Ligand-Moving Receptor   =  +0.00 kcal/mol
DOCKED: USER    (2) Final Total Internal Energy     =  -2.02 kcal/mol
DOCKED: USER    (3) Torsional Free Energy           =  +1.49 kcal/mol
DOCKED: USER    (4) Unbound System's Energy         =  -2.02 kcal/mol
DOCKED: USER
DOCKED: USER
DOCKED: REMARK SMILES O=C(NCC(=O)N1CCCC[C@H]1c1ncc([O-])cn1)c1ccc2cc(Cl)ccc2n1
DOCKED: REMARK SMILES IDX 4 1 3 2 2 3 1 4 20 6 21 7 30 8 22 9 29 10 23 11 28 12 24 13
DOCKED: REMARK SMILES IDX 27 14 25 15 26 16 5 17 6 18 7 19 8 20 12 21 9 22 11 23 10 24
DOCKED: REMARK SMILES IDX 13 25 14 26 19 27 15 28 18 29 16 30 17 31
DOCKED: REMARK H PARENT 3 5
DOCKED: USER                              x       y       z     vdW  Elec       q    Type
DOCKED: USER                           _______ _______ _______ _____ _____    ______ ____
DOCKED: ROOT
DOCKED: ATOM      1  C   UNL     1     139.038  74.297 221.158 -0.14 -0.05    +0.216 C  
DOCKED: ENDROOT
DOCKED: BRANCH   1   2
DOCKED: ATOM      2  N   UNL     1     139.252  73.377 222.275 -0.11 +0.08    -0.342 N  
DOCKED: ATOM      3  C   UNL     1     138.758  72.029 222.266 -0.13 -0.07    +0.270 C  
DOCKED: ATOM      4  O   UNL     1     138.072  71.622 221.289 -0.04 +0.05    -0.268 OA 
DOCKED: ATOM      5  H   UNL     1     139.783  73.732 223.100 -0.42 -0.00    +0.164 HD 
DOCKED: BRANCH   3   6
DOCKED: ATOM      6  C   UNL     1     139.048  71.118 223.395 -0.25 -0.03    +0.128 A  
DOCKED: ATOM      7  C   UNL     1     138.610  69.781 223.381 -0.24 -0.01    +0.035 A  
DOCKED: ATOM      8  N   UNL     1     139.757  71.579 224.464 -0.23 +0.06    -0.243 NA 
DOCKED: ATOM      9  C   UNL     1     138.901  68.948 224.463 -0.35 -0.00    +0.013 A  
DOCKED: ATOM     10  C   UNL     1     140.059  70.788 225.528 -0.47 -0.01    +0.071 A  
DOCKED: ATOM     11  C   UNL     1     139.632  69.442 225.548 -0.44 -0.00    +0.002 A  
DOCKED: ATOM     12  C   UNL     1     140.794  71.306 226.601 -0.66 -0.00    +0.030 A  
DOCKED: ATOM     13  C   UNL     1     139.947  68.628 226.646 -0.57 -0.01    +0.030 A  
DOCKED: ATOM     14  C   UNL     1     141.108  70.487 227.690 -0.59 -0.00    +0.023 A  
DOCKED: ATOM     15  C   UNL     1     140.684  69.153 227.715 -0.60 -0.01    +0.041 A  
DOCKED: ATOM     16  Cl  UNL     1     141.085  68.135 229.086 -0.47 +0.02    -0.084 Cl 
DOCKED: ENDBRANCH   3   6
DOCKED: ENDBRANCH   1   2
DOCKED: BRANCH   1  17
DOCKED: ATOM     17  C   UNL     1     139.912  73.944 219.978 -0.05 -0.05    +0.242 C  
DOCKED: ATOM     18  O   UNL     1     140.499  74.874 219.351 -0.03 +0.07    -0.273 OA 
DOCKED: BRANCH  17  19
DOCKED: ATOM     19  N   UNL     1     140.061  72.577 219.523 -0.00 +0.06    -0.331 N  
DOCKED: ATOM     20  C   UNL     1     139.194  72.025 218.463 -0.01 -0.02    +0.120 C  
DOCKED: ATOM     21  C   UNL     1     141.013  71.689 220.224 -0.10 -0.02    +0.153 C  
DOCKED: ATOM     22  C   UNL     1     139.963  71.011 217.610 -0.01 -0.00    +0.022 C  
DOCKED: ATOM     23  C   UNL     1     140.704  70.207 219.944 -0.10 -0.01    +0.033 C  
DOCKED: ATOM     24  C   UNL     1     140.628  69.894 218.442 -0.04 -0.00    +0.004 C  
DOCKED: BRANCH  21  25
DOCKED: ATOM     25  C   UNL     1     142.437  72.018 219.850 -0.12 -0.02    +0.150 A  
DOCKED: ATOM     26  N   UNL     1     142.735  72.350 218.564 -0.01 +0.03    -0.240 NA 
DOCKED: ATOM     27  N   UNL     1     143.416  72.033 220.796 -0.16 +0.03    -0.240 NA 
DOCKED: ATOM     28  C   UNL     1     144.002  72.682 218.202 -0.11 -0.00    +0.106 A  
DOCKED: ATOM     29  C   UNL     1     144.696  72.361 220.475 -0.34 -0.01    +0.106 A  
DOCKED: ATOM     30  C   UNL     1     145.018  72.695 219.159 -0.29 -0.01    -0.071 A  
DOCKED: ATOM     31  O   UNL     1     146.322  73.039 218.810 -0.41 -0.96    -0.870 OA 
DOCKED: ENDBRANCH  21  25
DOCKED: ENDBRANCH  17  19
DOCKED: ENDBRANCH   1  17
DOCKED: TORSDOF 5
DOCKED: TER
DOCKED: ENDMDL
________________________________________________________________________________


    FINAL DOCKED STATE:
    ________________________


Run:   20 / 20
Time taken for this run:   0.034s

DOCKED: MODEL        20
DOCKED: USER    Run = 20
DOCKED: USER
DOCKED: USER    Estimated Free Energy of Binding    =  -7.27 kcal/mol  [=(1)+(2)+(3)-(4)]
DOCKED: USER
DOCKED: USER    (1) Final Intermolecular Energy     =  -8.76 kcal/mol
DOCKED: USER        vdW + Hbond + desolv Energy     =  -8.61 kcal/mol
DOCKED: USER        Electrostatic Energy            =  -0.14 kcal/mol
DOCKED: USER        Moving Ligand-Fixed Receptor    =  -8.76 kcal/mol
DOCKED: USER        Moving Ligand-Moving Receptor   =  +0.00 kcal/mol
DOCKED: USER    (2) Final Total Internal Energy     =  -2.28 kcal/mol
DOCKED: USER    (3) Torsional Free Energy           =  +1.49 kcal/mol
DOCKED: USER    (4) Unbound System's Energy         =  -2.28 kcal/mol
DOCKED: USER
DOCKED: USER
DOCKED: REMARK SMILES O=C(NCC(=O)N1CCCC[C@H]1c1ncc([O-])cn1)c1ccc2cc(Cl)ccc2n1
DOCKED: REMARK SMILES IDX 4 1 3 2 2 3 1 4 20 6 21 7 30 8 22 9 29 10 23 11 28 12 24 13
DOCKED: REMARK SMILES IDX 27 14 25 15 26 16 5 17 6 18 7 19 8 20 12 21 9 22 11 23 10 24
DOCKED: REMARK SMILES IDX 13 25 14 26 19 27 15 28 18 29 16 30 17 31
DOCKED: REMARK H PARENT 3 5
DOCKED: USER                              x       y       z     vdW  Elec       q    Type
DOCKED: USER                           _______ _______ _______ _____ _____    ______ ____
DOCKED: ROOT
DOCKED: ATOM      1  C   UNL     1     136.386  73.780 222.069 -0.09 -0.05    +0.216 C  
DOCKED: ENDROOT
DOCKED: BRANCH   1   2
DOCKED: ATOM      2  N   UNL     1     136.909  72.863 223.082 +0.04 +0.13    -0.342 N  
DOCKED: ATOM      3  C   UNL     1     137.645  71.680 222.739 -0.11 -0.07    +0.270 C  
DOCKED: ATOM      4  O   UNL     1     137.814  71.378 221.526 -0.04 +0.05    -0.268 OA 
DOCKED: ATOM      5  H   UNL     1     136.730  73.094 224.083 -0.54 -0.09    +0.164 HD 
DOCKED: BRANCH   3   6
DOCKED: ATOM      6  C   UNL     1     138.204  70.813 223.799 -0.22 -0.03    +0.128 A  
DOCKED: ATOM      7  C   UNL     1     137.930  69.433 223.830 -0.26 -0.00    +0.035 A  
DOCKED: ATOM      8  N   UNL     1     139.004  71.357 224.759 -0.11 +0.06    -0.243 NA 
DOCKED: ATOM      9  C   UNL     1     138.473  68.643 224.844 -0.35 -0.00    +0.013 A  
DOCKED: ATOM     10  C   UNL     1     139.552  70.611 225.754 -0.35 -0.01    +0.071 A  
DOCKED: ATOM     11  C   UNL     1     139.295  69.223 225.817 -0.46 -0.00    +0.002 A  
DOCKED: ATOM     12  C   UNL     1     140.372  71.215 226.714 -0.61 -0.01    +0.030 A  
DOCKED: ATOM     13  C   UNL     1     139.863  68.455 226.845 -0.60 -0.01    +0.030 A  
DOCKED: ATOM     14  C   UNL     1     140.939  70.443 227.733 -0.62 -0.00    +0.023 A  
DOCKED: ATOM     15  C   UNL     1     140.683  69.067 227.801 -0.60 -0.01    +0.041 A  
DOCKED: ATOM     16  Cl  UNL     1     141.399  68.108 229.082 -0.46 +0.02    -0.084 Cl 
DOCKED: ENDBRANCH   3   6
DOCKED: ENDBRANCH   1   2
DOCKED: BRANCH   1  17
DOCKED: ATOM     17  C   UNL     1     134.911  74.038 222.265 -0.05 -0.04    +0.242 C  
DOCKED: ATOM     18  O   UNL     1     134.102  73.683 221.360 -0.01 +0.04    -0.273 OA 
DOCKED: BRANCH  17  19
DOCKED: ATOM     19  N   UNL     1     134.408  74.718 223.441 -0.05 +0.05    -0.331 N  
DOCKED: ATOM     20  C   UNL     1     133.364  75.757 223.337 -0.06 -0.01    +0.120 C  
DOCKED: ATOM     21  C   UNL     1     135.044  74.451 224.749 -0.27 -0.02    +0.153 C  
DOCKED: ATOM     22  C   UNL     1     132.452  75.730 224.568 -0.10 -0.00    +0.022 C  
DOCKED: ATOM     23  C   UNL     1     134.729  75.567 225.762 -0.39 -0.00    +0.033 C  
DOCKED: ATOM     24  C   UNL     1     133.222  75.829 225.902 -0.29 -0.00    +0.004 C  
DOCKED: BRANCH  21  25
DOCKED: ATOM     25  C   UNL     1     134.629  73.105 225.290 -0.20 -0.01    +0.150 A  
DOCKED: ATOM     26  N   UNL     1     134.982  71.973 224.622 -0.11 +0.03    -0.240 NA 
DOCKED: ATOM     27  N   UNL     1     133.945  73.011 226.464 -0.66 -0.02    -0.240 NA 
DOCKED: ATOM     28  C   UNL     1     134.651  70.746 225.099 -0.18 -0.01    +0.106 A  
DOCKED: ATOM     29  C   UNL     1     133.595  71.801 226.976 -0.39 -0.01    +0.106 A  
DOCKED: ATOM     30  C   UNL     1     133.944  70.633 226.297 -0.32 +0.00    -0.071 A  
DOCKED: ATOM     31  O   UNL     1     133.600  69.382 226.807 -0.17 -0.13    -0.870 OA 
DOCKED: ENDBRANCH  21  25
DOCKED: ENDBRANCH  17  19
DOCKED: ENDBRANCH   1  17
DOCKED: TORSDOF 5
DOCKED: TER
DOCKED: ENDMDL
________________________________________________________________________________


    CLUSTERING HISTOGRAM
    ____________________


________________________________________________________________________________
     |           |     |           |     |
Clus | Lowest    | Run | Mean      | Num | Histogram
-ter | Binding   |     | Binding   | in  |
Rank | Energy    |     | Energy    | Clus|    5    10   15   20   25   30   35
_____|___________|_____|___________|_____|____:____|____:____|____:____|____:___
   1 |     -8.50 |   9 |     -8.18 |  10 |##########
   2 |     -7.72 |   5 |     -7.65 |   2 |##
   3 |     -7.71 |   6 |     -7.68 |   2 |##
   4 |     -7.39 |  17 |     -7.39 |   1 |#
   5 |     -7.27 |  20 |     -7.27 |   1 |#
   6 |     -6.91 |  19 |     -6.91 |   1 |#
   7 |     -6.45 |   1 |     -6.20 |   2 |##
   8 |     -6.22 |   8 |     -6.22 |   1 |#
_____|___________|_____|___________|_____|______________________________________


    RMSD TABLE
    __________


_______________________________________________________________________
     |      |      |           |         |                 |
Rank | Sub- | Run  | Binding   | Cluster | Reference       | Grep
     | Rank |      | Energy    | RMSD    | RMSD            | Pattern
_____|______|______|___________|_________|_________________|___________
   1      1      9       -8.50      0.00    270.01           RANKING
   1      2     13       -8.50      0.21    269.98           RANKING
   1      3     10       -8.46      0.20    269.99           RANKING
   1      4     14       -8.46      0.20    270.02           RANKING
   1      5      4       -8.45      0.23    269.99           RANKING
   1      6     15       -8.12      0.54    269.99           RANKING
   1      7     11       -8.09      1.12    269.73           RANKING
   1      8      7       -8.06      0.56    270.02           RANKING
   1      9     18       -7.87      0.60    270.02           RANKING
   1     10     12       -7.32      1.99    269.79           RANKING
   2      1      5       -7.72      0.00    270.59           RANKING
   2      2      2       -7.59      0.17    270.53           RANKING
   3      1      6       -7.71      0.00    270.77           RANKING
   3      2     16       -7.64      1.46    271.07           RANKING
   4      1     17       -7.39      0.00    270.52           RANKING
   5      1     20       -7.27      0.00    269.75           RANKING
   6      1     19       -6.91      0.00    269.44           RANKING
   7      1      1       -6.45      0.00    270.02           RANKING
   7      2      3       -5.95      1.94    270.51           RANKING
   8      1      8       -6.22      0.00    269.78           RANKING

Run time 0.642 sec
Idle time 0.000 sec
