AutoDock-GPU version: v1.6

**********************************************************
**    AutoDock-GPU AUTODOCKTOOLS-COMPATIBLE DLG FILE    **
**********************************************************


    DOCKING PARAMETERS
    ________________________


Ligand file:                               /home/a/REINVENT4/ReinventStudies/pleaseWork/justmol2mol_4_Compounds_ontop/graph-dock-8u2o5u/graph-DockGPU/node-autodockgpu/inputs/RBUQBSMVVRDJJL-KTOMNCRJNA-M.pdbqt
Grid fld file:                             /home/a/REINVENT4/ReinventStudies/mols/Rad51/maps/rad51_receptor.maps.fld

Random seed:                               42
Number of runs:                            20
Number of energy evaluations:              1259779
Number of generations:                     42000
Size of population:                        150
Rate of crossover:                         80.000000%
Tournament selection probability limit:    60.000000%
Rate of mutation:                          2.000000%
Maximal allowed delta movement:            +/- 6.000000A
Maximal allowed delta angle:               +/- 90.000000

Rate of local search:                      100.000000%
Maximal number of local search iterations: 300
Rho lower bound:                           0.010000
Spread of local search delta movement:     2.000000A
Spread of local search delta angle:        74.999999
Limit of consecutive successes/failures:   4

Handle symmetry during clustering:         YES
RMSD tolerance:                            2.000000A

Program call in command line was:          /home/a/REINVENT4/ReinventStudies/adgpu-v1.6_linux_x64_cuda12_128wi --filelist batch.txt --heuristics 1 --nrun 20 --psize 150 --lsit 300 --seed 42 --heurmax 12000000 


    GRID PARAMETERS
    ________________________


Receptor name:                             rad51_receptor
Number of grid points (x, y, z):           53, 53, 53
Grid center (x, y, z):                     139.950000, 75.640000, 221.970000A
Grid size (x, y, z):                       19.500000, 19.500000, 19.500000A
Grid spacing:                              0.375000A


    LIGAND PARAMETERS
    ________________________


Ligand name:                               /home/a/REINVENT4/ReinventStudies/pleaseWork/justmol2mol_4_Compounds_ontop/graph-dock-8u2o5u/graph-DockGPU/node-autodockgpu/inputs/RBUQBSMVVRDJJL-KTOMNCRJNA-M
Number of atoms:                           31
Number of rotatable bonds:                 7
Number of atom types:                      7


    DUMMY DATA (only for ADT-compatibility)
    ________________________


DPF> outlev 1
DPF> ga_run 20
DPF> fld /home/a/REINVENT4/ReinventStudies/mols/Rad51/maps/rad51_receptor.maps.fld
DPF> move /home/a/REINVENT4/ReinventStudies/pleaseWork/justmol2mol_4_Compounds_ontop/graph-dock-8u2o5u/graph-DockGPU/node-autodockgpu/inputs/RBUQBSMVVRDJJL-KTOMNCRJNA-M.pdbqt


    COUNTER STATES
    ________________________


Number of energy evaluations performed:    995565
Number of generations used:                55


    INPUT LIGAND PDBQT FILE:
    ________________________


INPUT-LIGAND-PDBQT: REMARK SMILES O=C(C/N=C(\O)c1ccc2cc(Cl)ccc2n1)N1CCCC[C@H]1c1ncc([O-])cn1
INPUT-LIGAND-PDBQT: REMARK SMILES IDX 3 1 4 2 5 3 6 4 7 6 17 7 8 8 16 9 9 10 15 11 10 12 14 13
INPUT-LIGAND-PDBQT: REMARK SMILES IDX 11 14 12 15 13 16 2 17 1 18 18 19 19 20 23 21 20 22 22 23
INPUT-LIGAND-PDBQT: REMARK SMILES IDX 21 24 24 25 25 26 30 27 26 28 29 29 27 30 28 31
INPUT-LIGAND-PDBQT: REMARK H PARENT 6 5
INPUT-LIGAND-PDBQT: ROOT
INPUT-LIGAND-PDBQT: ATOM      1  C   UNL     1      -0.982   0.119   0.080  1.00  0.00     0.246 C 
INPUT-LIGAND-PDBQT: ENDROOT
INPUT-LIGAND-PDBQT: BRANCH   1   2
INPUT-LIGAND-PDBQT: ATOM      2  N   UNL     1      -0.683   1.151   1.072  1.00  0.00    -0.240 NA
INPUT-LIGAND-PDBQT: BRANCH   2   3
INPUT-LIGAND-PDBQT: ATOM      3  C   UNL     1       0.502   1.613   1.358  1.00  0.00     0.233 C 
INPUT-LIGAND-PDBQT: BRANCH   3   4
INPUT-LIGAND-PDBQT: ATOM      4  O   UNL     1       1.650   1.138   0.715  1.00  0.00    -0.492 OA
INPUT-LIGAND-PDBQT: ATOM      5  H   UNL     1       1.634   0.419   0.004  1.00  0.00     0.295 HD
INPUT-LIGAND-PDBQT: ENDBRANCH   3   4
INPUT-LIGAND-PDBQT: BRANCH   3   6
INPUT-LIGAND-PDBQT: ATOM      6  C   UNL     1       0.633   2.664   2.385  1.00  0.00     0.125 A 
INPUT-LIGAND-PDBQT: ATOM      7  N   UNL     1      -0.481   3.131   3.016  1.00  0.00    -0.243 NA
INPUT-LIGAND-PDBQT: ATOM      8  C   UNL     1       1.890   3.191   2.723  1.00  0.00     0.035 A 
INPUT-LIGAND-PDBQT: ATOM      9  C   UNL     1      -0.420   4.098   3.970  1.00  0.00     0.071 A 
INPUT-LIGAND-PDBQT: ATOM     10  C   UNL     1       1.984   4.185   3.699  1.00  0.00     0.013 A 
INPUT-LIGAND-PDBQT: ATOM     11  C   UNL     1      -1.590   4.548   4.592  1.00  0.00     0.030 A 
INPUT-LIGAND-PDBQT: ATOM     12  C   UNL     1       0.827   4.651   4.334  1.00  0.00     0.002 A 
INPUT-LIGAND-PDBQT: ATOM     13  C   UNL     1      -1.524   5.543   5.572  1.00  0.00     0.023 A 
INPUT-LIGAND-PDBQT: ATOM     14  C   UNL     1       0.887   5.649   5.319  1.00  0.00     0.030 A 
INPUT-LIGAND-PDBQT: ATOM     15  C   UNL     1      -0.289   6.093   5.936  1.00  0.00     0.041 A 
INPUT-LIGAND-PDBQT: ATOM     16  Cl  UNL     1      -0.214   7.340   7.167  1.00  0.00    -0.084 Cl
INPUT-LIGAND-PDBQT: ENDBRANCH   3   6
INPUT-LIGAND-PDBQT: ENDBRANCH   2   3
INPUT-LIGAND-PDBQT: ENDBRANCH   1   2
INPUT-LIGAND-PDBQT: BRANCH   1  17
INPUT-LIGAND-PDBQT: ATOM     17  C   UNL     1      -0.800   0.649  -1.322  1.00  0.00     0.245 C 
INPUT-LIGAND-PDBQT: ATOM     18  O   UNL     1      -1.093   1.855  -1.547  1.00  0.00    -0.273 OA
INPUT-LIGAND-PDBQT: BRANCH  17  19
INPUT-LIGAND-PDBQT: ATOM     19  N   UNL     1      -0.357  -0.196  -2.412  1.00  0.00    -0.331 N 
INPUT-LIGAND-PDBQT: ATOM     20  C   UNL     1       0.307   0.430  -3.572  1.00  0.00     0.120 C 
INPUT-LIGAND-PDBQT: ATOM     21  C   UNL     1      -0.371  -1.670  -2.280  1.00  0.00     0.153 C 
INPUT-LIGAND-PDBQT: ATOM     22  C   UNL     1      -0.071  -0.272  -4.877  1.00  0.00     0.022 C 
INPUT-LIGAND-PDBQT: ATOM     23  C   UNL     1      -0.666  -2.359  -3.626  1.00  0.00     0.033 C 
INPUT-LIGAND-PDBQT: ATOM     24  C   UNL     1       0.164  -1.777  -4.771  1.00  0.00     0.004 C 
INPUT-LIGAND-PDBQT: BRANCH  21  25
INPUT-LIGAND-PDBQT: ATOM     25  C   UNL     1       0.911  -2.182  -1.670  1.00  0.00     0.150 A 
INPUT-LIGAND-PDBQT: ATOM     26  N   UNL     1       2.114  -1.652  -2.025  1.00  0.00    -0.240 NA
INPUT-LIGAND-PDBQT: ATOM     27  N   UNL     1       0.867  -3.212  -0.781  1.00  0.00    -0.240 NA
INPUT-LIGAND-PDBQT: ATOM     28  C   UNL     1       3.272  -2.119  -1.491  1.00  0.00     0.106 A 
INPUT-LIGAND-PDBQT: ATOM     29  C   UNL     1       2.003  -3.707  -0.224  1.00  0.00     0.106 A 
INPUT-LIGAND-PDBQT: ATOM     30  C   UNL     1       3.239  -3.164  -0.570  1.00  0.00    -0.071 A 
INPUT-LIGAND-PDBQT: ATOM     31  O   UNL     1       4.412  -3.655  -0.010  1.00  0.00    -0.870 OA
INPUT-LIGAND-PDBQT: ENDBRANCH  21  25
INPUT-LIGAND-PDBQT: ENDBRANCH  17  19
INPUT-LIGAND-PDBQT: ENDBRANCH   1  17
INPUT-LIGAND-PDBQT: TORSDOF 7


    FINAL DOCKED STATE:
    ________________________


Run:   1 / 20
Time taken for this run:   0.042s

DOCKED: MODEL        1
DOCKED: USER    Run = 1
DOCKED: USER
DOCKED: USER    Estimated Free Energy of Binding    =  -7.85 kcal/mol  [=(1)+(2)+(3)-(4)]
DOCKED: USER
DOCKED: USER    (1) Final Intermolecular Energy     =  -9.94 kcal/mol
DOCKED: USER        vdW + Hbond + desolv Energy     =  -8.74 kcal/mol
DOCKED: USER        Electrostatic Energy            =  -1.19 kcal/mol
DOCKED: USER        Moving Ligand-Fixed Receptor    =  -9.94 kcal/mol
DOCKED: USER        Moving Ligand-Moving Receptor   =  +0.00 kcal/mol
DOCKED: USER    (2) Final Total Internal Energy     =  -1.81 kcal/mol
DOCKED: USER    (3) Torsional Free Energy           =  +2.09 kcal/mol
DOCKED: USER    (4) Unbound System's Energy         =  -1.81 kcal/mol
DOCKED: USER
DOCKED: USER
DOCKED: REMARK SMILES O=C(C/N=C(\O)c1ccc2cc(Cl)ccc2n1)N1CCCC[C@H]1c1ncc([O-])cn1
DOCKED: REMARK SMILES IDX 3 1 4 2 5 3 6 4 7 6 17 7 8 8 16 9 9 10 15 11 10 12 14 13
DOCKED: REMARK SMILES IDX 11 14 12 15 13 16 2 17 1 18 18 19 19 20 23 21 20 22 22 23
DOCKED: REMARK SMILES IDX 21 24 24 25 25 26 30 27 26 28 29 29 27 30 28 31
DOCKED: REMARK H PARENT 6 5
DOCKED: USER                              x       y       z     vdW  Elec       q    Type
DOCKED: USER                           _______ _______ _______ _____ _____    ______ ____
DOCKED: ROOT
DOCKED: ATOM      1  C   UNL     1     139.909  75.062 221.619 -0.22 -0.04    +0.246 C  
DOCKED: ENDROOT
DOCKED: BRANCH   1   2
DOCKED: ATOM      2  N   UNL     1     140.407  73.741 222.000 -0.76 +0.01    -0.240 NA 
DOCKED: BRANCH   2   3
DOCKED: ATOM      3  C   UNL     1     139.751  72.619 221.894 -0.19 -0.04    +0.233 C  
DOCKED: BRANCH   3   4
DOCKED: ATOM      4  O   UNL     1     138.963  72.332 220.775 -0.00 +0.09    -0.492 OA 
DOCKED: ATOM      5  H   UNL     1     138.879  72.949 219.978 +0.05 -0.06    +0.295 HD 
DOCKED: ENDBRANCH   3   4
DOCKED: BRANCH   3   6
DOCKED: ATOM      6  C   UNL     1     139.846  71.629 222.984 -0.28 -0.02    +0.125 A  
DOCKED: ATOM      7  N   UNL     1     140.343  72.006 224.195 -0.23 +0.04    -0.243 NA 
DOCKED: ATOM      8  C   UNL     1     139.430  70.302 222.791 -0.21 -0.01    +0.035 A  
DOCKED: ATOM      9  C   UNL     1     140.452  71.137 225.235 -0.50 -0.01    +0.071 A  
DOCKED: ATOM     10  C   UNL     1     139.530  69.386 223.841 -0.24 -0.00    +0.013 A  
DOCKED: ATOM     11  C   UNL     1     140.969  71.568 226.462 -0.68 -0.00    +0.030 A  
DOCKED: ATOM     12  C   UNL     1     140.045  69.794 225.076 -0.42 -0.00    +0.002 A  
DOCKED: ATOM     13  C   UNL     1     141.082  70.671 227.528 -0.62 -0.00    +0.023 A  
DOCKED: ATOM     14  C   UNL     1     140.159  68.899 226.151 -0.52 -0.01    +0.030 A  
DOCKED: ATOM     15  C   UNL     1     140.678  69.339 227.375 -0.58 -0.01    +0.041 A  
DOCKED: ATOM     16  Cl  UNL     1     140.820  68.220 228.718 -0.67 +0.02    -0.084 Cl 
DOCKED: ENDBRANCH   3   6
DOCKED: ENDBRANCH   2   3
DOCKED: ENDBRANCH   1   2
DOCKED: BRANCH   1  17
DOCKED: ATOM     17  C   UNL     1     140.061  75.289 220.134 -0.08 -0.06    +0.245 C  
DOCKED: ATOM     18  O   UNL     1     139.320  74.635 219.351 -0.02 +0.06    -0.273 OA 
DOCKED: BRANCH  17  19
DOCKED: ATOM     19  N   UNL     1     141.062  76.185 219.592 -0.04 +0.12    -0.331 N  
DOCKED: ATOM     20  C   UNL     1     141.567  77.283 220.440 -0.25 -0.06    +0.120 C  
DOCKED: ATOM     21  C   UNL     1     141.724  75.889 218.302 -0.09 -0.06    +0.153 C  
DOCKED: ATOM     22  C   UNL     1     141.840  78.543 219.617 -0.27 -0.01    +0.022 C  
DOCKED: ATOM     23  C   UNL     1     142.070  77.176 217.530 -0.19 -0.02    +0.033 C  
DOCKED: ATOM     24  C   UNL     1     142.735  78.226 218.421 -0.26 -0.00    +0.004 C  
DOCKED: BRANCH  21  25
DOCKED: ATOM     25  C   UNL     1     142.942  75.019 218.493 -0.15 -0.06    +0.150 A  
DOCKED: ATOM     26  N   UNL     1     143.441  74.780 219.738 -0.21 +0.10    -0.240 NA 
DOCKED: ATOM     27  N   UNL     1     143.572  74.496 217.406 -0.07 +0.08    -0.240 NA 
DOCKED: ATOM     28  C   UNL     1     144.546  74.011 219.915 -0.37 -0.03    +0.106 A  
DOCKED: ATOM     29  C   UNL     1     144.679  73.721 217.541 -0.14 -0.01    +0.106 A  
DOCKED: ATOM     30  C   UNL     1     145.192  73.459 218.810 -0.22 -0.00    -0.071 A  
DOCKED: ATOM     31  O   UNL     1     146.322  72.667 218.970 -0.30 -1.19    -0.870 OA 
DOCKED: ENDBRANCH  21  25
DOCKED: ENDBRANCH  17  19
DOCKED: ENDBRANCH   1  17
DOCKED: TORSDOF 7
DOCKED: TER
DOCKED: ENDMDL
________________________________________________________________________________


    FINAL DOCKED STATE:
    ________________________


Run:   2 / 20
Time taken for this run:   0.042s

DOCKED: MODEL        2
DOCKED: USER    Run = 2
DOCKED: USER
DOCKED: USER    Estimated Free Energy of Binding    =  -7.41 kcal/mol  [=(1)+(2)+(3)-(4)]
DOCKED: USER
DOCKED: USER    (1) Final Intermolecular Energy     =  -9.50 kcal/mol
DOCKED: USER        vdW + Hbond + desolv Energy     =  -8.39 kcal/mol
DOCKED: USER        Electrostatic Energy            =  -1.11 kcal/mol
DOCKED: USER        Moving Ligand-Fixed Receptor    =  -9.50 kcal/mol
DOCKED: USER        Moving Ligand-Moving Receptor   =  +0.00 kcal/mol
DOCKED: USER    (2) Final Total Internal Energy     =  -2.39 kcal/mol
DOCKED: USER    (3) Torsional Free Energy           =  +2.09 kcal/mol
DOCKED: USER    (4) Unbound System's Energy         =  -2.39 kcal/mol
DOCKED: USER
DOCKED: USER
DOCKED: REMARK SMILES O=C(C/N=C(\O)c1ccc2cc(Cl)ccc2n1)N1CCCC[C@H]1c1ncc([O-])cn1
DOCKED: REMARK SMILES IDX 3 1 4 2 5 3 6 4 7 6 17 7 8 8 16 9 9 10 15 11 10 12 14 13
DOCKED: REMARK SMILES IDX 11 14 12 15 13 16 2 17 1 18 18 19 19 20 23 21 20 22 22 23
DOCKED: REMARK SMILES IDX 21 24 24 25 25 26 30 27 26 28 29 29 27 30 28 31
DOCKED: REMARK H PARENT 6 5
DOCKED: USER                              x       y       z     vdW  Elec       q    Type
DOCKED: USER                           _______ _______ _______ _____ _____    ______ ____
DOCKED: ROOT
DOCKED: ATOM      1  C   UNL     1     139.425  75.074 221.197 -0.16 -0.05    +0.246 C  
DOCKED: ENDROOT
DOCKED: BRANCH   1   2
DOCKED: ATOM      2  N   UNL     1     140.082  74.137 222.108 -0.78 +0.01    -0.240 NA 
DOCKED: BRANCH   2   3
DOCKED: ATOM      3  C   UNL     1     140.348  72.887 221.854 -0.21 -0.03    +0.233 C  
DOCKED: BRANCH   3   4
DOCKED: ATOM      4  O   UNL     1     140.728  72.462 220.577 -0.03 +0.08    -0.492 OA 
DOCKED: ATOM      5  H   UNL     1     141.265  73.031 219.937 +0.08 -0.05    +0.295 HD 
DOCKED: ENDBRANCH   3   4
DOCKED: BRANCH   3   6
DOCKED: ATOM      6  C   UNL     1     140.246  71.897 222.943 -0.30 -0.02    +0.125 A  
DOCKED: ATOM      7  N   UNL     1     140.712  72.211 224.185 -0.06 +0.02    -0.243 NA 
DOCKED: ATOM      8  C   UNL     1     139.674  70.633 222.720 -0.23 -0.01    +0.035 A  
DOCKED: ATOM      9  C   UNL     1     140.644  71.338 225.225 -0.50 -0.01    +0.071 A  
DOCKED: ATOM     10  C   UNL     1     139.591  69.716 223.770 -0.26 -0.00    +0.013 A  
DOCKED: ATOM     11  C   UNL     1     141.136  71.704 226.484 -0.69 -0.00    +0.030 A  
DOCKED: ATOM     12  C   UNL     1     140.077  70.059 225.036 -0.43 -0.00    +0.002 A  
DOCKED: ATOM     13  C   UNL     1     141.065  70.804 227.551 -0.65 -0.00    +0.023 A  
DOCKED: ATOM     14  C   UNL     1     140.008  69.161 226.112 -0.49 -0.00    +0.030 A  
DOCKED: ATOM     15  C   UNL     1     140.503  69.535 227.368 -0.57 -0.01    +0.041 A  
DOCKED: ATOM     16  Cl  UNL     1     140.417  68.412 228.712 -0.62 +0.02    -0.084 Cl 
DOCKED: ENDBRANCH   3   6
DOCKED: ENDBRANCH   2   3
DOCKED: ENDBRANCH   1   2
DOCKED: BRANCH   1  17
DOCKED: ATOM     17  C   UNL     1     140.024  74.990 219.813 -0.05 -0.06    +0.245 C  
DOCKED: ATOM     18  O   UNL     1     139.603  74.092 219.034 -0.01 +0.06    -0.273 OA 
DOCKED: BRANCH  17  19
DOCKED: ATOM     19  N   UNL     1     141.094  75.867 219.384 -0.03 +0.12    -0.331 N  
DOCKED: ATOM     20  C   UNL     1     141.527  76.954 220.284 -0.23 -0.06    +0.120 C  
DOCKED: ATOM     21  C   UNL     1     141.884  75.559 218.171 -0.08 -0.06    +0.153 C  
DOCKED: ATOM     22  C   UNL     1     141.910  78.209 219.500 -0.27 -0.01    +0.022 C  
DOCKED: ATOM     23  C   UNL     1     142.335  76.840 217.445 -0.20 -0.02    +0.033 C  
DOCKED: ATOM     24  C   UNL     1     142.922  77.876 218.405 -0.27 -0.00    +0.004 C  
DOCKED: BRANCH  21  25
DOCKED: ATOM     25  C   UNL     1     143.058  74.665 218.489 -0.14 -0.05    +0.150 A  
DOCKED: ATOM     26  N   UNL     1     143.182  74.084 219.714 -0.15 +0.07    -0.240 NA 
DOCKED: ATOM     27  N   UNL     1     144.024  74.467 217.551 -0.09 +0.08    -0.240 NA 
DOCKED: ATOM     28  C   UNL     1     144.244  73.291 220.011 -0.33 -0.02    +0.106 A  
DOCKED: ATOM     29  C   UNL     1     145.101  73.680 217.809 -0.10 -0.01    +0.106 A  
DOCKED: ATOM     30  C   UNL     1     145.233  73.070 219.055 -0.30 -0.01    -0.071 A  
DOCKED: ATOM     31  O   UNL     1     146.326  72.261 219.338 -0.23 -1.08    -0.870 OA 
DOCKED: ENDBRANCH  21  25
DOCKED: ENDBRANCH  17  19
DOCKED: ENDBRANCH   1  17
DOCKED: TORSDOF 7
DOCKED: TER
DOCKED: ENDMDL
________________________________________________________________________________


    FINAL DOCKED STATE:
    ________________________


Run:   3 / 20
Time taken for this run:   0.042s

DOCKED: MODEL        3
DOCKED: USER    Run = 3
DOCKED: USER
DOCKED: USER    Estimated Free Energy of Binding    =  -7.44 kcal/mol  [=(1)+(2)+(3)-(4)]
DOCKED: USER
DOCKED: USER    (1) Final Intermolecular Energy     =  -9.53 kcal/mol
DOCKED: USER        vdW + Hbond + desolv Energy     =  -8.48 kcal/mol
DOCKED: USER        Electrostatic Energy            =  -1.04 kcal/mol
DOCKED: USER        Moving Ligand-Fixed Receptor    =  -9.53 kcal/mol
DOCKED: USER        Moving Ligand-Moving Receptor   =  +0.00 kcal/mol
DOCKED: USER    (2) Final Total Internal Energy     =  -2.43 kcal/mol
DOCKED: USER    (3) Torsional Free Energy           =  +2.09 kcal/mol
DOCKED: USER    (4) Unbound System's Energy         =  -2.43 kcal/mol
DOCKED: USER
DOCKED: USER
DOCKED: REMARK SMILES O=C(C/N=C(\O)c1ccc2cc(Cl)ccc2n1)N1CCCC[C@H]1c1ncc([O-])cn1
DOCKED: REMARK SMILES IDX 3 1 4 2 5 3 6 4 7 6 17 7 8 8 16 9 9 10 15 11 10 12 14 13
DOCKED: REMARK SMILES IDX 11 14 12 15 13 16 2 17 1 18 18 19 19 20 23 21 20 22 22 23
DOCKED: REMARK SMILES IDX 21 24 24 25 25 26 30 27 26 28 29 29 27 30 28 31
DOCKED: REMARK H PARENT 6 5
DOCKED: USER                              x       y       z     vdW  Elec       q    Type
DOCKED: USER                           _______ _______ _______ _____ _____    ______ ____
DOCKED: ROOT
DOCKED: ATOM      1  C   UNL     1     139.296  75.030 221.112 -0.15 -0.05    +0.246 C  
DOCKED: ENDROOT
DOCKED: BRANCH   1   2
DOCKED: ATOM      2  N   UNL     1     139.973  74.148 222.062 -0.79 +0.02    -0.240 NA 
DOCKED: BRANCH   2   3
DOCKED: ATOM      3  C   UNL     1     140.325  72.913 221.838 -0.21 -0.03    +0.233 C  
DOCKED: BRANCH   3   4
DOCKED: ATOM      4  O   UNL     1     140.798  72.500 220.588 -0.03 +0.08    -0.492 OA 
DOCKED: ATOM      5  H   UNL     1     141.266  73.116 219.937 +0.08 -0.06    +0.295 HD 
DOCKED: ENDBRANCH   3   4
DOCKED: BRANCH   3   6
DOCKED: ATOM      6  C   UNL     1     140.223  71.929 222.932 -0.30 -0.02    +0.125 A  
DOCKED: ATOM      7  N   UNL     1     140.696  72.247 224.170 -0.06 +0.02    -0.243 NA 
DOCKED: ATOM      8  C   UNL     1     139.645  70.667 222.717 -0.23 -0.01    +0.035 A  
DOCKED: ATOM      9  C   UNL     1     140.628  71.380 225.215 -0.50 -0.01    +0.071 A  
DOCKED: ATOM     10  C   UNL     1     139.562  69.755 223.772 -0.27 -0.00    +0.013 A  
DOCKED: ATOM     11  C   UNL     1     141.127  71.749 226.470 -0.69 -0.00    +0.030 A  
DOCKED: ATOM     12  C   UNL     1     140.054  70.103 225.035 -0.43 -0.00    +0.002 A  
DOCKED: ATOM     13  C   UNL     1     141.056  70.855 227.542 -0.66 -0.00    +0.023 A  
DOCKED: ATOM     14  C   UNL     1     139.986  69.210 226.115 -0.49 -0.00    +0.030 A  
DOCKED: ATOM     15  C   UNL     1     140.487  69.588 227.367 -0.56 -0.01    +0.041 A  
DOCKED: ATOM     16  Cl  UNL     1     140.401  68.472 228.717 -0.65 +0.02    -0.084 Cl 
DOCKED: ENDBRANCH   3   6
DOCKED: ENDBRANCH   2   3
DOCKED: ENDBRANCH   1   2
DOCKED: BRANCH   1  17
DOCKED: ATOM     17  C   UNL     1     139.956  74.970 219.755 -0.04 -0.06    +0.245 C  
DOCKED: ATOM     18  O   UNL     1     139.582  74.076 218.948 -0.01 +0.06    -0.273 OA 
DOCKED: BRANCH  17  19
DOCKED: ATOM     19  N   UNL     1     141.033  75.865 219.383 -0.03 +0.11    -0.331 N  
DOCKED: ATOM     20  C   UNL     1     141.437  76.922 220.331 -0.23 -0.06    +0.120 C  
DOCKED: ATOM     21  C   UNL     1     141.855  75.601 218.181 -0.08 -0.06    +0.153 C  
DOCKED: ATOM     22  C   UNL     1     141.835  78.205 219.599 -0.28 -0.01    +0.022 C  
DOCKED: ATOM     23  C   UNL     1     142.318  76.908 217.511 -0.20 -0.02    +0.033 C  
DOCKED: ATOM     24  C   UNL     1     142.875  77.913 218.520 -0.26 -0.00    +0.004 C  
DOCKED: BRANCH  21  25
DOCKED: ATOM     25  C   UNL     1     143.024  74.701 218.499 -0.14 -0.05    +0.150 A  
DOCKED: ATOM     26  N   UNL     1     143.177  74.167 219.742 -0.16 +0.07    -0.240 NA 
DOCKED: ATOM     27  N   UNL     1     143.958  74.451 217.541 -0.08 +0.08    -0.240 NA 
DOCKED: ATOM     28  C   UNL     1     144.236  73.370 220.038 -0.33 -0.02    +0.106 A  
DOCKED: ATOM     29  C   UNL     1     145.031  73.657 217.797 -0.11 -0.01    +0.106 A  
DOCKED: ATOM     30  C   UNL     1     145.191  73.095 219.062 -0.30 -0.01    -0.071 A  
DOCKED: ATOM     31  O   UNL     1     146.281  72.280 219.344 -0.26 -1.02    -0.870 OA 
DOCKED: ENDBRANCH  21  25
DOCKED: ENDBRANCH  17  19
DOCKED: ENDBRANCH   1  17
DOCKED: TORSDOF 7
DOCKED: TER
DOCKED: ENDMDL
________________________________________________________________________________


    FINAL DOCKED STATE:
    ________________________


Run:   4 / 20
Time taken for this run:   0.042s

DOCKED: MODEL        4
DOCKED: USER    Run = 4
DOCKED: USER
DOCKED: USER    Estimated Free Energy of Binding    =  -7.82 kcal/mol  [=(1)+(2)+(3)-(4)]
DOCKED: USER
DOCKED: USER    (1) Final Intermolecular Energy     =  -9.90 kcal/mol
DOCKED: USER        vdW + Hbond + desolv Energy     =  -8.69 kcal/mol
DOCKED: USER        Electrostatic Energy            =  -1.22 kcal/mol
DOCKED: USER        Moving Ligand-Fixed Receptor    =  -9.90 kcal/mol
DOCKED: USER        Moving Ligand-Moving Receptor   =  +0.00 kcal/mol
DOCKED: USER    (2) Final Total Internal Energy     =  -1.87 kcal/mol
DOCKED: USER    (3) Torsional Free Energy           =  +2.09 kcal/mol
DOCKED: USER    (4) Unbound System's Energy         =  -1.87 kcal/mol
DOCKED: USER
DOCKED: USER
DOCKED: REMARK SMILES O=C(C/N=C(\O)c1ccc2cc(Cl)ccc2n1)N1CCCC[C@H]1c1ncc([O-])cn1
DOCKED: REMARK SMILES IDX 3 1 4 2 5 3 6 4 7 6 17 7 8 8 16 9 9 10 15 11 10 12 14 13
DOCKED: REMARK SMILES IDX 11 14 12 15 13 16 2 17 1 18 18 19 19 20 23 21 20 22 22 23
DOCKED: REMARK SMILES IDX 21 24 24 25 25 26 30 27 26 28 29 29 27 30 28 31
DOCKED: REMARK H PARENT 6 5
DOCKED: USER                              x       y       z     vdW  Elec       q    Type
DOCKED: USER                           _______ _______ _______ _____ _____    ______ ____
DOCKED: ROOT
DOCKED: ATOM      1  C   UNL     1     140.263  75.309 221.667 -0.23 -0.05    +0.246 C  
DOCKED: ENDROOT
DOCKED: BRANCH   1   2
DOCKED: ATOM      2  N   UNL     1     140.722  73.953 221.966 -0.72 +0.01    -0.240 NA 
DOCKED: BRANCH   2   3
DOCKED: ATOM      3  C   UNL     1     140.014  72.865 221.849 -0.20 -0.03    +0.233 C  
DOCKED: BRANCH   3   4
DOCKED: ATOM      4  O   UNL     1     139.244  72.610 220.710 -0.01 +0.09    -0.492 OA 
DOCKED: ATOM      5  H   UNL     1     139.133  73.270 219.952 +0.05 -0.06    +0.295 HD 
DOCKED: ENDBRANCH   3   4
DOCKED: BRANCH   3   6
DOCKED: ATOM      6  C   UNL     1     140.027  71.880 222.947 -0.29 -0.02    +0.125 A  
DOCKED: ATOM      7  N   UNL     1     140.510  72.241 224.169 -0.11 +0.03    -0.243 NA 
DOCKED: ATOM      8  C   UNL     1     139.547  70.575 222.752 -0.23 -0.01    +0.035 A  
DOCKED: ATOM      9  C   UNL     1     140.546  71.375 225.217 -0.49 -0.01    +0.071 A  
DOCKED: ATOM     10  C   UNL     1     139.572  69.663 223.809 -0.27 -0.00    +0.013 A  
DOCKED: ATOM     11  C   UNL     1     141.051  71.788 226.455 -0.69 -0.00    +0.030 A  
DOCKED: ATOM     12  C   UNL     1     140.073  70.054 225.056 -0.43 -0.00    +0.002 A  
DOCKED: ATOM     13  C   UNL     1     141.087  70.895 227.530 -0.66 -0.00    +0.023 A  
DOCKED: ATOM     14  C   UNL     1     140.111  69.162 226.139 -0.50 -0.01    +0.030 A  
DOCKED: ATOM     15  C   UNL     1     140.619  69.585 227.374 -0.57 -0.01    +0.041 A  
DOCKED: ATOM     16  Cl  UNL     1     140.666  68.471 228.728 -0.69 +0.02    -0.084 Cl 
DOCKED: ENDBRANCH   3   6
DOCKED: ENDBRANCH   2   3
DOCKED: ENDBRANCH   1   2
DOCKED: BRANCH   1  17
DOCKED: ATOM     17  C   UNL     1     140.218  75.548 220.177 -0.09 -0.07    +0.245 C  
DOCKED: ATOM     18  O   UNL     1     139.302  74.994 219.511 -0.02 +0.06    -0.273 OA 
DOCKED: BRANCH  17  19
DOCKED: ATOM     19  N   UNL     1     141.220  76.342 219.495 -0.05 +0.13    -0.331 N  
DOCKED: ATOM     20  C   UNL     1     141.805  77.503 220.195 -0.26 -0.07    +0.120 C  
DOCKED: ATOM     21  C   UNL     1     141.806  75.883 218.216 -0.10 -0.06    +0.153 C  
DOCKED: ATOM     22  C   UNL     1     142.078  78.656 219.229 -0.25 -0.01    +0.022 C  
DOCKED: ATOM     23  C   UNL     1     142.156  77.067 217.294 -0.18 -0.02    +0.033 C  
DOCKED: ATOM     24  C   UNL     1     142.901  78.179 218.034 -0.27 -0.00    +0.004 C  
DOCKED: BRANCH  21  25
DOCKED: ATOM     25  C   UNL     1     143.002  74.992 218.444 -0.15 -0.06    +0.150 A  
DOCKED: ATOM     26  N   UNL     1     143.435  74.713 219.705 -0.21 +0.10    -0.240 NA 
DOCKED: ATOM     27  N   UNL     1     143.679  74.490 217.375 -0.07 +0.08    -0.240 NA 
DOCKED: ATOM     28  C   UNL     1     144.520  73.924 219.916 -0.37 -0.03    +0.106 A  
DOCKED: ATOM     29  C   UNL     1     144.769  73.696 217.544 -0.14 -0.01    +0.106 A  
DOCKED: ATOM     30  C   UNL     1     145.214  73.393 218.830 -0.26 -0.00    -0.071 A  
DOCKED: ATOM     31  O   UNL     1     146.325  72.582 219.024 -0.25 -1.20    -0.870 OA 
DOCKED: ENDBRANCH  21  25
DOCKED: ENDBRANCH  17  19
DOCKED: ENDBRANCH   1  17
DOCKED: TORSDOF 7
DOCKED: TER
DOCKED: ENDMDL
________________________________________________________________________________


    FINAL DOCKED STATE:
    ________________________


Run:   5 / 20
Time taken for this run:   0.042s

DOCKED: MODEL        5
DOCKED: USER    Run = 5
DOCKED: USER
DOCKED: USER    Estimated Free Energy of Binding    =  -7.82 kcal/mol  [=(1)+(2)+(3)-(4)]
DOCKED: USER
DOCKED: USER    (1) Final Intermolecular Energy     =  -9.90 kcal/mol
DOCKED: USER        vdW + Hbond + desolv Energy     =  -8.69 kcal/mol
DOCKED: USER        Electrostatic Energy            =  -1.22 kcal/mol
DOCKED: USER        Moving Ligand-Fixed Receptor    =  -9.90 kcal/mol
DOCKED: USER        Moving Ligand-Moving Receptor   =  +0.00 kcal/mol
DOCKED: USER    (2) Final Total Internal Energy     =  -1.82 kcal/mol
DOCKED: USER    (3) Torsional Free Energy           =  +2.09 kcal/mol
DOCKED: USER    (4) Unbound System's Energy         =  -1.82 kcal/mol
DOCKED: USER
DOCKED: USER
DOCKED: REMARK SMILES O=C(C/N=C(\O)c1ccc2cc(Cl)ccc2n1)N1CCCC[C@H]1c1ncc([O-])cn1
DOCKED: REMARK SMILES IDX 3 1 4 2 5 3 6 4 7 6 17 7 8 8 16 9 9 10 15 11 10 12 14 13
DOCKED: REMARK SMILES IDX 11 14 12 15 13 16 2 17 1 18 18 19 19 20 23 21 20 22 22 23
DOCKED: REMARK SMILES IDX 21 24 24 25 25 26 30 27 26 28 29 29 27 30 28 31
DOCKED: REMARK H PARENT 6 5
DOCKED: USER                              x       y       z     vdW  Elec       q    Type
DOCKED: USER                           _______ _______ _______ _____ _____    ______ ____
DOCKED: ROOT
DOCKED: ATOM      1  C   UNL     1     139.742  74.987 221.625 -0.21 -0.05    +0.246 C  
DOCKED: ENDROOT
DOCKED: BRANCH   1   2
DOCKED: ATOM      2  N   UNL     1     140.356  73.764 222.141 -0.77 +0.00    -0.240 NA 
DOCKED: BRANCH   2   3
DOCKED: ATOM      3  C   UNL     1     139.929  72.550 221.934 -0.20 -0.04    +0.233 C  
DOCKED: BRANCH   3   4
DOCKED: ATOM      4  O   UNL     1     139.436  72.148 220.687 -0.01 +0.09    -0.492 OA 
DOCKED: ATOM      5  H   UNL     1     139.406  72.754 219.878 +0.05 -0.06    +0.295 HD 
DOCKED: ENDBRANCH   3   4
DOCKED: BRANCH   3   6
DOCKED: ATOM      6  C   UNL     1     139.968  71.577 223.042 -0.29 -0.02    +0.125 A  
DOCKED: ATOM      7  N   UNL     1     140.448  71.962 224.258 -0.23 +0.03    -0.243 NA 
DOCKED: ATOM      8  C   UNL     1     139.517  70.260 222.862 -0.22 -0.01    +0.035 A  
DOCKED: ATOM      9  C   UNL     1     140.507  71.108 225.315 -0.51 -0.01    +0.071 A  
DOCKED: ATOM     10  C   UNL     1     139.566  69.360 223.929 -0.25 -0.00    +0.013 A  
DOCKED: ATOM     11  C   UNL     1     141.008  71.545 226.546 -0.69 -0.00    +0.030 A  
DOCKED: ATOM     12  C   UNL     1     140.063  69.775 225.170 -0.43 -0.00    +0.002 A  
DOCKED: ATOM     13  C   UNL     1     141.068  70.665 227.630 -0.63 -0.00    +0.023 A  
DOCKED: ATOM     14  C   UNL     1     140.125  68.896 226.262 -0.52 -0.01    +0.030 A  
DOCKED: ATOM     15  C   UNL     1     140.628  69.343 227.490 -0.58 -0.01    +0.041 A  
DOCKED: ATOM     16  Cl  UNL     1     140.706  68.245 228.855 -0.52 +0.02    -0.084 Cl 
DOCKED: ENDBRANCH   3   6
DOCKED: ENDBRANCH   2   3
DOCKED: ENDBRANCH   1   2
DOCKED: BRANCH   1  17
DOCKED: ATOM     17  C   UNL     1     140.010  75.143 220.147 -0.08 -0.06    +0.245 C  
DOCKED: ATOM     18  O   UNL     1     139.376  74.406 219.344 -0.02 +0.06    -0.273 OA 
DOCKED: BRANCH  17  19
DOCKED: ATOM     19  N   UNL     1     141.004  76.066 219.640 -0.04 +0.12    -0.331 N  
DOCKED: ATOM     20  C   UNL     1     141.487  77.147 220.522 -0.24 -0.06    +0.120 C  
DOCKED: ATOM     21  C   UNL     1     141.683  75.813 218.349 -0.09 -0.06    +0.153 C  
DOCKED: ATOM     22  C   UNL     1     141.752  78.432 219.736 -0.28 -0.01    +0.022 C  
DOCKED: ATOM     23  C   UNL     1     142.020  77.126 217.616 -0.18 -0.02    +0.033 C  
DOCKED: ATOM     24  C   UNL     1     142.662  78.159 218.541 -0.28 -0.00    +0.004 C  
DOCKED: BRANCH  21  25
DOCKED: ATOM     25  C   UNL     1     142.910  74.954 218.529 -0.15 -0.06    +0.150 A  
DOCKED: ATOM     26  N   UNL     1     143.400  74.687 219.771 -0.21 +0.10    -0.240 NA 
DOCKED: ATOM     27  N   UNL     1     143.557  74.469 217.434 -0.07 +0.08    -0.240 NA 
DOCKED: ATOM     28  C   UNL     1     144.513  73.928 219.939 -0.37 -0.03    +0.106 A  
DOCKED: ATOM     29  C   UNL     1     144.673  73.705 217.559 -0.14 -0.01    +0.106 A  
DOCKED: ATOM     30  C   UNL     1     145.177  73.415 218.826 -0.25 -0.00    -0.071 A  
DOCKED: ATOM     31  O   UNL     1     146.316  72.633 218.976 -0.29 -1.20    -0.870 OA 
DOCKED: ENDBRANCH  21  25
DOCKED: ENDBRANCH  17  19
DOCKED: ENDBRANCH   1  17
DOCKED: TORSDOF 7
DOCKED: TER
DOCKED: ENDMDL
________________________________________________________________________________


    FINAL DOCKED STATE:
    ________________________


Run:   6 / 20
Time taken for this run:   0.042s

DOCKED: MODEL        6
DOCKED: USER    Run = 6
DOCKED: USER
DOCKED: USER    Estimated Free Energy of Binding    =  -7.48 kcal/mol  [=(1)+(2)+(3)-(4)]
DOCKED: USER
DOCKED: USER    (1) Final Intermolecular Energy     =  -9.56 kcal/mol
DOCKED: USER        vdW + Hbond + desolv Energy     =  -8.60 kcal/mol
DOCKED: USER        Electrostatic Energy            =  -0.97 kcal/mol
DOCKED: USER        Moving Ligand-Fixed Receptor    =  -9.56 kcal/mol
DOCKED: USER        Moving Ligand-Moving Receptor   =  +0.00 kcal/mol
DOCKED: USER    (2) Final Total Internal Energy     =  -1.96 kcal/mol
DOCKED: USER    (3) Torsional Free Energy           =  +2.09 kcal/mol
DOCKED: USER    (4) Unbound System's Energy         =  -1.96 kcal/mol
DOCKED: USER
DOCKED: USER
DOCKED: REMARK SMILES O=C(C/N=C(\O)c1ccc2cc(Cl)ccc2n1)N1CCCC[C@H]1c1ncc([O-])cn1
DOCKED: REMARK SMILES IDX 3 1 4 2 5 3 6 4 7 6 17 7 8 8 16 9 9 10 15 11 10 12 14 13
DOCKED: REMARK SMILES IDX 11 14 12 15 13 16 2 17 1 18 18 19 19 20 23 21 20 22 22 23
DOCKED: REMARK SMILES IDX 21 24 24 25 25 26 30 27 26 28 29 29 27 30 28 31
DOCKED: REMARK H PARENT 6 5
DOCKED: USER                              x       y       z     vdW  Elec       q    Type
DOCKED: USER                           _______ _______ _______ _____ _____    ______ ____
DOCKED: ROOT
DOCKED: ATOM      1  C   UNL     1     139.910  75.278 221.344 -0.20 -0.05    +0.246 C  
DOCKED: ENDROOT
DOCKED: BRANCH   1   2
DOCKED: ATOM      2  N   UNL     1     140.519  74.183 222.097 -0.72 -0.00    -0.240 NA 
DOCKED: BRANCH   2   3
DOCKED: ATOM      3  C   UNL     1     140.427  72.915 221.808 -0.21 -0.03    +0.233 C  
DOCKED: BRANCH   3   4
DOCKED: ATOM      4  O   UNL     1     140.459  72.459 220.486 -0.02 +0.08    -0.492 OA 
DOCKED: ATOM      5  H   UNL     1     141.218  72.654 219.847 +0.07 -0.05    +0.295 HD 
DOCKED: ENDBRANCH   3   4
DOCKED: BRANCH   3   6
DOCKED: ATOM      6  C   UNL     1     140.286  71.938 222.905 -0.30 -0.02    +0.125 A  
DOCKED: ATOM      7  N   UNL     1     140.728  72.259 224.153 -0.02 +0.02    -0.243 NA 
DOCKED: ATOM      8  C   UNL     1     139.703  70.680 222.681 -0.23 -0.01    +0.035 A  
DOCKED: ATOM      9  C   UNL     1     140.624  71.398 225.201 -0.50 -0.01    +0.071 A  
DOCKED: ATOM     10  C   UNL     1     139.582  69.775 223.737 -0.27 -0.00    +0.013 A  
DOCKED: ATOM     11  C   UNL     1     141.091  71.770 226.466 -0.69 -0.00    +0.030 A  
DOCKED: ATOM     12  C   UNL     1     140.044  70.125 225.012 -0.43 -0.00    +0.002 A  
DOCKED: ATOM     13  C   UNL     1     140.984  70.883 227.541 -0.67 -0.00    +0.023 A  
DOCKED: ATOM     14  C   UNL     1     139.938  69.239 226.095 -0.48 -0.00    +0.030 A  
DOCKED: ATOM     15  C   UNL     1     140.408  69.620 227.358 -0.56 -0.01    +0.041 A  
DOCKED: ATOM     16  Cl  UNL     1     140.275  68.512 228.711 -0.64 +0.02    -0.084 Cl 
DOCKED: ENDBRANCH   3   6
DOCKED: ENDBRANCH   2   3
DOCKED: ENDBRANCH   1   2
DOCKED: BRANCH   1  17
DOCKED: ATOM     17  C   UNL     1     140.935  76.334 221.004 -0.20 -0.09    +0.245 C  
DOCKED: ATOM     18  O   UNL     1     141.287  77.137 221.911 -0.24 +0.14    -0.273 OA 
DOCKED: BRANCH  17  19
DOCKED: ATOM     19  N   UNL     1     141.473  76.481 219.668 -0.07 +0.14    -0.331 N  
DOCKED: ATOM     20  C   UNL     1     142.182  77.728 219.320 -0.25 -0.08    +0.120 C  
DOCKED: ATOM     21  C   UNL     1     141.505  75.333 218.735 -0.08 -0.05    +0.153 C  
DOCKED: ATOM     22  C   UNL     1     141.909  78.141 217.873 -0.23 -0.01    +0.022 C  
DOCKED: ATOM     23  C   UNL     1     141.317  75.782 217.273 -0.06 -0.01    +0.033 C  
DOCKED: ATOM     24  C   UNL     1     142.193  76.984 216.917 -0.17 -0.00    +0.004 C  
DOCKED: BRANCH  21  25
DOCKED: ATOM     25  C   UNL     1     142.766  74.521 218.902 -0.14 -0.05    +0.150 A  
DOCKED: ATOM     26  N   UNL     1     143.029  73.871 220.069 -0.16 +0.06    -0.240 NA 
DOCKED: ATOM     27  N   UNL     1     143.670  74.468 217.886 -0.08 +0.08    -0.240 NA 
DOCKED: ATOM     28  C   UNL     1     144.169  73.151 220.231 -0.33 -0.02    +0.106 A  
DOCKED: ATOM     29  C   UNL     1     144.822  73.758 218.008 -0.13 -0.01    +0.106 A  
DOCKED: ATOM     30  C   UNL     1     145.096  73.078 219.193 -0.31 -0.01    -0.071 A  
DOCKED: ATOM     31  O   UNL     1     146.268  72.345 219.338 -0.27 -0.99    -0.870 OA 
DOCKED: ENDBRANCH  21  25
DOCKED: ENDBRANCH  17  19
DOCKED: ENDBRANCH   1  17
DOCKED: TORSDOF 7
DOCKED: TER
DOCKED: ENDMDL
________________________________________________________________________________


    FINAL DOCKED STATE:
    ________________________


Run:   7 / 20
Time taken for this run:   0.042s

DOCKED: MODEL        7
DOCKED: USER    Run = 7
DOCKED: USER
DOCKED: USER    Estimated Free Energy of Binding    =  -6.96 kcal/mol  [=(1)+(2)+(3)-(4)]
DOCKED: USER
DOCKED: USER    (1) Final Intermolecular Energy     =  -9.05 kcal/mol
DOCKED: USER        vdW + Hbond + desolv Energy     =  -7.86 kcal/mol
DOCKED: USER        Electrostatic Energy            =  -1.19 kcal/mol
DOCKED: USER        Moving Ligand-Fixed Receptor    =  -9.05 kcal/mol
DOCKED: USER        Moving Ligand-Moving Receptor   =  +0.00 kcal/mol
DOCKED: USER    (2) Final Total Internal Energy     =  -1.70 kcal/mol
DOCKED: USER    (3) Torsional Free Energy           =  +2.09 kcal/mol
DOCKED: USER    (4) Unbound System's Energy         =  -1.70 kcal/mol
DOCKED: USER
DOCKED: USER
DOCKED: REMARK SMILES O=C(C/N=C(\O)c1ccc2cc(Cl)ccc2n1)N1CCCC[C@H]1c1ncc([O-])cn1
DOCKED: REMARK SMILES IDX 3 1 4 2 5 3 6 4 7 6 17 7 8 8 16 9 9 10 15 11 10 12 14 13
DOCKED: REMARK SMILES IDX 11 14 12 15 13 16 2 17 1 18 18 19 19 20 23 21 20 22 22 23
DOCKED: REMARK SMILES IDX 21 24 24 25 25 26 30 27 26 28 29 29 27 30 28 31
DOCKED: REMARK H PARENT 6 5
DOCKED: USER                              x       y       z     vdW  Elec       q    Type
DOCKED: USER                           _______ _______ _______ _____ _____    ______ ____
DOCKED: ROOT
DOCKED: ATOM      1  C   UNL     1     138.776  74.318 220.812 -0.09 -0.05    +0.246 C  
DOCKED: ENDROOT
DOCKED: BRANCH   1   2
DOCKED: ATOM      2  N   UNL     1     138.849  72.976 220.237 -0.03 +0.05    -0.240 NA 
DOCKED: BRANCH   2   3
DOCKED: ATOM      3  C   UNL     1     139.752  72.076 220.511 -0.06 -0.04    +0.233 C  
DOCKED: BRANCH   3   4
DOCKED: ATOM      4  O   UNL     1     140.809  71.806 219.636 +0.00 +0.08    -0.492 OA 
DOCKED: ATOM      5  H   UNL     1     141.699  71.431 219.935 +0.07 -0.04    +0.295 HD 
DOCKED: ENDBRANCH   3   4
DOCKED: BRANCH   3   6
DOCKED: ATOM      6  C   UNL     1     139.655  71.327 221.778 -0.16 -0.02    +0.125 A  
DOCKED: ATOM      7  N   UNL     1     140.230  71.834 222.906 -0.25 +0.03    -0.243 NA 
DOCKED: ATOM      8  C   UNL     1     138.980  70.097 221.841 -0.14 -0.01    +0.035 A  
DOCKED: ATOM      9  C   UNL     1     140.172  71.187 224.100 -0.40 -0.01    +0.071 A  
DOCKED: ATOM     10  C   UNL     1     138.904  69.410 223.054 -0.23 -0.00    +0.013 A  
DOCKED: ATOM     11  C   UNL     1     140.776  71.744 225.233 -0.43 -0.00    +0.030 A  
DOCKED: ATOM     12  C   UNL     1     139.501  69.948 224.199 -0.34 -0.00    +0.002 A  
DOCKED: ATOM     13  C   UNL     1     140.716  71.076 226.459 -0.64 -0.00    +0.023 A  
DOCKED: ATOM     14  C   UNL     1     139.443  69.283 225.434 -0.41 -0.00    +0.030 A  
DOCKED: ATOM     15  C   UNL     1     140.051  69.848 226.561 -0.50 -0.01    +0.041 A  
DOCKED: ATOM     16  Cl  UNL     1     139.978  69.017 228.104 -0.77 +0.01    -0.084 Cl 
DOCKED: ENDBRANCH   3   6
DOCKED: ENDBRANCH   2   3
DOCKED: ENDBRANCH   1   2
DOCKED: BRANCH   1  17
DOCKED: ATOM     17  C   UNL     1     140.147  74.808 221.215 -0.19 -0.05    +0.245 C  
DOCKED: ATOM     18  O   UNL     1     140.604  74.449 222.334 -0.69 -0.03    -0.273 OA 
DOCKED: BRANCH  17  19
DOCKED: ATOM     19  N   UNL     1     140.915  75.712 220.384 -0.08 +0.11    -0.331 N  
DOCKED: ATOM     20  C   UNL     1     141.446  76.951 220.984 -0.23 -0.06    +0.120 C  
DOCKED: ATOM     21  C   UNL     1     141.344  75.310 219.025 -0.09 -0.05    +0.153 C  
DOCKED: ATOM     22  C   UNL     1     141.409  78.113 219.990 -0.26 -0.01    +0.022 C  
DOCKED: ATOM     23  C   UNL     1     141.385  76.513 218.063 -0.11 -0.01    +0.033 C  
DOCKED: ATOM     24  C   UNL     1     142.086  77.725 218.678 -0.28 -0.00    +0.004 C  
DOCKED: BRANCH  21  25
DOCKED: ATOM     25  C   UNL     1     142.668  74.586 219.056 -0.15 -0.05    +0.150 A  
DOCKED: ATOM     26  N   UNL     1     143.362  74.449 220.219 -0.22 +0.09    -0.240 NA 
DOCKED: ATOM     27  N   UNL     1     143.191  74.095 217.900 -0.05 +0.07    -0.240 NA 
DOCKED: ATOM     28  C   UNL     1     144.561  73.812 220.250 -0.41 -0.03    +0.106 A  
DOCKED: ATOM     29  C   UNL     1     144.387  73.450 217.889 -0.14 -0.01    +0.106 A  
DOCKED: ATOM     30  C   UNL     1     145.101  73.293 219.075 -0.30 -0.00    -0.071 A  
DOCKED: ATOM     31  O   UNL     1     146.325  72.635 219.086 -0.30 -1.13    -0.870 OA 
DOCKED: ENDBRANCH  21  25
DOCKED: ENDBRANCH  17  19
DOCKED: ENDBRANCH   1  17
DOCKED: TORSDOF 7
DOCKED: TER
DOCKED: ENDMDL
________________________________________________________________________________


    FINAL DOCKED STATE:
    ________________________


Run:   8 / 20
Time taken for this run:   0.042s

DOCKED: MODEL        8
DOCKED: USER    Run = 8
DOCKED: USER
DOCKED: USER    Estimated Free Energy of Binding    =  -6.03 kcal/mol  [=(1)+(2)+(3)-(4)]
DOCKED: USER
DOCKED: USER    (1) Final Intermolecular Energy     =  -8.12 kcal/mol
DOCKED: USER        vdW + Hbond + desolv Energy     =  -8.27 kcal/mol
DOCKED: USER        Electrostatic Energy            =  +0.15 kcal/mol
DOCKED: USER        Moving Ligand-Fixed Receptor    =  -8.12 kcal/mol
DOCKED: USER        Moving Ligand-Moving Receptor   =  +0.00 kcal/mol
DOCKED: USER    (2) Final Total Internal Energy     =  -2.78 kcal/mol
DOCKED: USER    (3) Torsional Free Energy           =  +2.09 kcal/mol
DOCKED: USER    (4) Unbound System's Energy         =  -2.78 kcal/mol
DOCKED: USER
DOCKED: USER
DOCKED: REMARK SMILES O=C(C/N=C(\O)c1ccc2cc(Cl)ccc2n1)N1CCCC[C@H]1c1ncc([O-])cn1
DOCKED: REMARK SMILES IDX 3 1 4 2 5 3 6 4 7 6 17 7 8 8 16 9 9 10 15 11 10 12 14 13
DOCKED: REMARK SMILES IDX 11 14 12 15 13 16 2 17 1 18 18 19 19 20 23 21 20 22 22 23
DOCKED: REMARK SMILES IDX 21 24 24 25 25 26 30 27 26 28 29 29 27 30 28 31
DOCKED: REMARK H PARENT 6 5
DOCKED: USER                              x       y       z     vdW  Elec       q    Type
DOCKED: USER                           _______ _______ _______ _____ _____    ______ ____
DOCKED: ROOT
DOCKED: ATOM      1  C   UNL     1     141.201  71.952 220.112 -0.08 -0.04    +0.246 C  
DOCKED: ENDROOT
DOCKED: BRANCH   1   2
DOCKED: ATOM      2  N   UNL     1     139.956  72.370 220.756 -0.07 +0.04    -0.240 NA 
DOCKED: BRANCH   2   3
DOCKED: ATOM      3  C   UNL     1     139.830  72.752 221.996 -0.20 -0.04    +0.233 C  
DOCKED: BRANCH   3   4
DOCKED: ATOM      4  O   UNL     1     139.641  74.096 222.334 -0.72 +0.06    -0.492 OA 
DOCKED: ATOM      5  H   UNL     1     139.821  74.862 221.698 +0.09 -0.05    +0.295 HD 
DOCKED: ENDBRANCH   3   4
DOCKED: BRANCH   3   6
DOCKED: ATOM      6  C   UNL     1     139.887  71.740 223.067 -0.29 -0.02    +0.125 A  
DOCKED: ATOM      7  N   UNL     1     140.381  72.082 224.291 -0.17 +0.04    -0.243 NA 
DOCKED: ATOM      8  C   UNL     1     139.440  70.427 222.845 -0.23 -0.01    +0.035 A  
DOCKED: ATOM      9  C   UNL     1     140.457  71.190 225.315 -0.50 -0.01    +0.071 A  
DOCKED: ATOM     10  C   UNL     1     139.506  69.490 223.878 -0.26 -0.00    +0.013 A  
DOCKED: ATOM     11  C   UNL     1     140.971  71.585 226.555 -0.69 -0.00    +0.030 A  
DOCKED: ATOM     12  C   UNL     1     140.017  69.862 225.127 -0.43 -0.00    +0.002 A  
DOCKED: ATOM     13  C   UNL     1     141.049  70.666 227.606 -0.63 -0.00    +0.023 A  
DOCKED: ATOM     14  C   UNL     1     140.097  68.944 226.185 -0.51 -0.01    +0.030 A  
DOCKED: ATOM     15  C   UNL     1     140.613  69.348 227.423 -0.58 -0.01    +0.041 A  
DOCKED: ATOM     16  Cl  UNL     1     140.713  68.201 228.746 -0.62 +0.02    -0.084 Cl 
DOCKED: ENDBRANCH   3   6
DOCKED: ENDBRANCH   2   3
DOCKED: ENDBRANCH   1   2
DOCKED: BRANCH   1  17
DOCKED: ATOM     17  C   UNL     1     142.285  72.984 220.312 -0.14 -0.04    +0.245 C  
DOCKED: ATOM     18  O   UNL     1     143.159  72.769 221.195 -0.15 +0.04    -0.273 OA 
DOCKED: BRANCH  17  19
DOCKED: ATOM     19  N   UNL     1     142.313  74.224 219.563 -0.06 +0.09    -0.331 N  
DOCKED: ATOM     20  C   UNL     1     141.937  74.202 218.136 -0.05 -0.03    +0.120 C  
DOCKED: ATOM     21  C   UNL     1     142.504  75.520 220.253 -0.20 -0.08    +0.153 C  
DOCKED: ATOM     22  C   UNL     1     142.783  75.181 217.321 -0.13 -0.01    +0.022 C  
DOCKED: ATOM     23  C   UNL     1     143.282  76.521 219.377 -0.37 -0.02    +0.033 C  
DOCKED: ATOM     24  C   UNL     1     142.751  76.574 217.944 -0.27 -0.00    +0.004 C  
DOCKED: BRANCH  21  25
DOCKED: ATOM     25  C   UNL     1     141.189  76.099 220.714 -0.22 -0.06    +0.150 A  
DOCKED: ATOM     26  N   UNL     1     141.057  76.627 221.962 -0.25 +0.10    -0.240 NA 
DOCKED: ATOM     27  N   UNL     1     140.110  76.060 219.884 -0.04 +0.07    -0.240 NA 
DOCKED: ATOM     28  C   UNL     1     139.872  77.135 222.388 -0.32 -0.02    +0.106 A  
DOCKED: ATOM     29  C   UNL     1     138.908  76.559 220.273 -0.07 -0.03    +0.106 A  
DOCKED: ATOM     30  C   UNL     1     138.765  77.113 221.543 -0.18 +0.02    -0.071 A  
DOCKED: ATOM     31  O   UNL     1     137.544  77.630 221.959 +0.06 +0.16    -0.870 OA 
DOCKED: ENDBRANCH  21  25
DOCKED: ENDBRANCH  17  19
DOCKED: ENDBRANCH   1  17
DOCKED: TORSDOF 7
DOCKED: TER
DOCKED: ENDMDL
________________________________________________________________________________


    FINAL DOCKED STATE:
    ________________________


Run:   9 / 20
Time taken for this run:   0.042s

DOCKED: MODEL        9
DOCKED: USER    Run = 9
DOCKED: USER
DOCKED: USER    Estimated Free Energy of Binding    =  -7.95 kcal/mol  [=(1)+(2)+(3)-(4)]
DOCKED: USER
DOCKED: USER    (1) Final Intermolecular Energy     = -10.04 kcal/mol
DOCKED: USER        vdW + Hbond + desolv Energy     =  -8.89 kcal/mol
DOCKED: USER        Electrostatic Energy            =  -1.15 kcal/mol
DOCKED: USER        Moving Ligand-Fixed Receptor    = -10.04 kcal/mol
DOCKED: USER        Moving Ligand-Moving Receptor   =  +0.00 kcal/mol
DOCKED: USER    (2) Final Total Internal Energy     =  -1.26 kcal/mol
DOCKED: USER    (3) Torsional Free Energy           =  +2.09 kcal/mol
DOCKED: USER    (4) Unbound System's Energy         =  -1.26 kcal/mol
DOCKED: USER
DOCKED: USER
DOCKED: REMARK SMILES O=C(C/N=C(\O)c1ccc2cc(Cl)ccc2n1)N1CCCC[C@H]1c1ncc([O-])cn1
DOCKED: REMARK SMILES IDX 3 1 4 2 5 3 6 4 7 6 17 7 8 8 16 9 9 10 15 11 10 12 14 13
DOCKED: REMARK SMILES IDX 11 14 12 15 13 16 2 17 1 18 18 19 19 20 23 21 20 22 22 23
DOCKED: REMARK SMILES IDX 21 24 24 25 25 26 30 27 26 28 29 29 27 30 28 31
DOCKED: REMARK H PARENT 6 5
DOCKED: USER                              x       y       z     vdW  Elec       q    Type
DOCKED: USER                           _______ _______ _______ _____ _____    ______ ____
DOCKED: ROOT
DOCKED: ATOM      1  C   UNL     1     139.846  72.737 219.636 -0.03 -0.05    +0.246 C  
DOCKED: ENDROOT
DOCKED: BRANCH   1   2
DOCKED: ATOM      2  N   UNL     1     140.491  72.772 220.947 -0.11 +0.04    -0.240 NA 
DOCKED: BRANCH   2   3
DOCKED: ATOM      3  C   UNL     1     139.892  72.979 222.086 -0.20 -0.03    +0.233 C  
DOCKED: BRANCH   3   4
DOCKED: ATOM      4  O   UNL     1     139.201  74.168 222.347 -0.56 +0.12    -0.492 OA 
DOCKED: ATOM      5  H   UNL     1     138.498  74.258 223.069 -0.50 -0.20    +0.295 HD 
DOCKED: ENDBRANCH   3   4
DOCKED: BRANCH   3   6
DOCKED: ATOM      6  C   UNL     1     139.944  71.933 223.125 -0.30 -0.02    +0.125 A  
DOCKED: ATOM      7  N   UNL     1     140.418  72.238 224.365 -0.05 +0.04    -0.243 NA 
DOCKED: ATOM      8  C   UNL     1     139.511  70.624 222.854 -0.24 -0.01    +0.035 A  
DOCKED: ATOM      9  C   UNL     1     140.488  71.314 225.360 -0.50 -0.01    +0.071 A  
DOCKED: ATOM     10  C   UNL     1     139.571  69.654 223.855 -0.28 -0.00    +0.013 A  
DOCKED: ATOM     11  C   UNL     1     140.982  71.672 226.620 -0.70 -0.00    +0.030 A  
DOCKED: ATOM     12  C   UNL     1     140.063  69.989 225.123 -0.43 -0.00    +0.002 A  
DOCKED: ATOM     13  C   UNL     1     141.054  70.719 227.640 -0.64 -0.00    +0.023 A  
DOCKED: ATOM     14  C   UNL     1     140.137  69.037 226.151 -0.51 -0.01    +0.030 A  
DOCKED: ATOM     15  C   UNL     1     140.633  69.404 227.408 -0.57 -0.01    +0.041 A  
DOCKED: ATOM     16  Cl  UNL     1     140.725  68.215 228.694 -0.66 +0.02    -0.084 Cl 
DOCKED: ENDBRANCH   3   6
DOCKED: ENDBRANCH   2   3
DOCKED: ENDBRANCH   1   2
DOCKED: BRANCH   1  17
DOCKED: ATOM     17  C   UNL     1     139.747  74.123 219.045 -0.01 -0.05    +0.245 C  
DOCKED: ATOM     18  O   UNL     1     138.826  74.354 218.215 -0.00 +0.06    -0.273 OA 
DOCKED: BRANCH  17  19
DOCKED: ATOM     19  N   UNL     1     140.705  75.163 219.360 -0.01 +0.09    -0.331 N  
DOCKED: ATOM     20  C   UNL     1     140.708  75.738 220.720 -0.21 -0.04    +0.120 C  
DOCKED: ATOM     21  C   UNL     1     141.797  75.496 218.419 -0.09 -0.06    +0.153 C  
DOCKED: ATOM     22  C   UNL     1     141.022  77.235 220.692 -0.27 -0.01    +0.022 C  
DOCKED: ATOM     23  C   UNL     1     142.158  76.993 218.472 -0.24 -0.02    +0.033 C  
DOCKED: ATOM     24  C   UNL     1     142.303  77.505 219.906 -0.27 -0.00    +0.004 C  
DOCKED: BRANCH  21  25
DOCKED: ATOM     25  C   UNL     1     143.011  74.630 218.653 -0.15 -0.05    +0.150 A  
DOCKED: ATOM     26  N   UNL     1     143.615  73.980 217.620 -0.05 +0.06    -0.240 NA 
DOCKED: ATOM     27  N   UNL     1     143.486  74.467 219.918 -0.21 +0.09    -0.240 NA 
DOCKED: ATOM     28  C   UNL     1     144.698  73.187 217.827 -0.14 +0.00    +0.106 A  
DOCKED: ATOM     29  C   UNL     1     144.567  73.683 220.166 -0.40 -0.02    +0.106 A  
DOCKED: ATOM     30  C   UNL     1     145.201  73.023 219.115 -0.31 -0.01    -0.071 A  
DOCKED: ATOM     31  O   UNL     1     146.310  72.219 219.348 -0.23 -1.05    -0.870 OA 
DOCKED: ENDBRANCH  21  25
DOCKED: ENDBRANCH  17  19
DOCKED: ENDBRANCH   1  17
DOCKED: TORSDOF 7
DOCKED: TER
DOCKED: ENDMDL
________________________________________________________________________________


    FINAL DOCKED STATE:
    ________________________


Run:   10 / 20
Time taken for this run:   0.042s

DOCKED: MODEL        10
DOCKED: USER    Run = 10
DOCKED: USER
DOCKED: USER    Estimated Free Energy of Binding    =  -7.08 kcal/mol  [=(1)+(2)+(3)-(4)]
DOCKED: USER
DOCKED: USER    (1) Final Intermolecular Energy     =  -9.16 kcal/mol
DOCKED: USER        vdW + Hbond + desolv Energy     =  -8.35 kcal/mol
DOCKED: USER        Electrostatic Energy            =  -0.81 kcal/mol
DOCKED: USER        Moving Ligand-Fixed Receptor    =  -9.16 kcal/mol
DOCKED: USER        Moving Ligand-Moving Receptor   =  +0.00 kcal/mol
DOCKED: USER    (2) Final Total Internal Energy     =  -2.78 kcal/mol
DOCKED: USER    (3) Torsional Free Energy           =  +2.09 kcal/mol
DOCKED: USER    (4) Unbound System's Energy         =  -2.78 kcal/mol
DOCKED: USER
DOCKED: USER
DOCKED: REMARK SMILES O=C(C/N=C(\O)c1ccc2cc(Cl)ccc2n1)N1CCCC[C@H]1c1ncc([O-])cn1
DOCKED: REMARK SMILES IDX 3 1 4 2 5 3 6 4 7 6 17 7 8 8 16 9 9 10 15 11 10 12 14 13
DOCKED: REMARK SMILES IDX 11 14 12 15 13 16 2 17 1 18 18 19 19 20 23 21 20 22 22 23
DOCKED: REMARK SMILES IDX 21 24 24 25 25 26 30 27 26 28 29 29 27 30 28 31
DOCKED: REMARK H PARENT 6 5
DOCKED: USER                              x       y       z     vdW  Elec       q    Type
DOCKED: USER                           _______ _______ _______ _____ _____    ______ ____
DOCKED: ROOT
DOCKED: ATOM      1  C   UNL     1     139.133  73.547 220.142 -0.04 -0.05    +0.246 C  
DOCKED: ENDROOT
DOCKED: BRANCH   1   2
DOCKED: ATOM      2  N   UNL     1     139.749  72.221 220.159 -0.03 +0.04    -0.240 NA 
DOCKED: BRANCH   2   3
DOCKED: ATOM      3  C   UNL     1     140.711  71.838 220.951 -0.12 -0.03    +0.233 C  
DOCKED: BRANCH   3   4
DOCKED: ATOM      4  O   UNL     1     142.056  72.030 220.619 -0.05 +0.06    -0.492 OA 
DOCKED: ATOM      5  H   UNL     1     142.404  72.861 220.159 +0.11 -0.05    +0.295 HD 
DOCKED: ENDBRANCH   3   4
DOCKED: BRANCH   3   6
DOCKED: ATOM      6  C   UNL     1     140.369  71.186 222.230 -0.18 -0.02    +0.125 A  
DOCKED: ATOM      7  N   UNL     1     140.841  71.707 223.398 -0.18 +0.02    -0.243 NA 
DOCKED: ATOM      8  C   UNL     1     139.564  70.036 222.262 -0.16 -0.01    +0.035 A  
DOCKED: ATOM      9  C   UNL     1     140.558  71.149 224.605 -0.44 -0.01    +0.071 A  
DOCKED: ATOM     10  C   UNL     1     139.257  69.440 223.487 -0.25 -0.00    +0.013 A  
DOCKED: ATOM     11  C   UNL     1     141.064  71.717 225.779 -0.55 -0.00    +0.030 A  
DOCKED: ATOM     12  C   UNL     1     139.753  69.991 224.675 -0.39 -0.00    +0.002 A  
DOCKED: ATOM     13  C   UNL     1     140.772  71.140 227.019 -0.68 -0.00    +0.023 A  
DOCKED: ATOM     14  C   UNL     1     139.462  69.417 225.922 -0.44 -0.00    +0.030 A  
DOCKED: ATOM     15  C   UNL     1     139.973  69.993 227.092 -0.53 -0.01    +0.041 A  
DOCKED: ATOM     16  Cl  UNL     1     139.610  69.275 228.650 -0.53 +0.01    -0.084 Cl 
DOCKED: ENDBRANCH   3   6
DOCKED: ENDBRANCH   2   3
DOCKED: ENDBRANCH   1   2
DOCKED: BRANCH   1  17
DOCKED: ATOM     17  C   UNL     1     139.780  74.457 221.159 -0.17 -0.05    +0.245 C  
DOCKED: ATOM     18  O   UNL     1     139.480  74.301 222.374 -0.74 +0.04    -0.273 OA 
DOCKED: BRANCH  17  19
DOCKED: ATOM     19  N   UNL     1     140.679  75.524 220.773 -0.11 +0.09    -0.331 N  
DOCKED: ATOM     20  C   UNL     1     141.132  76.479 221.804 -0.22 -0.05    +0.120 C  
DOCKED: ATOM     21  C   UNL     1     141.305  75.539 219.432 -0.12 -0.05    +0.153 C  
DOCKED: ATOM     22  C   UNL     1     141.265  77.892 221.235 -0.33 -0.01    +0.022 C  
DOCKED: ATOM     23  C   UNL     1     141.511  76.976 218.916 -0.18 -0.02    +0.033 C  
DOCKED: ATOM     24  C   UNL     1     142.128  77.891 219.975 -0.26 -0.00    +0.004 C  
DOCKED: BRANCH  21  25
DOCKED: ATOM     25  C   UNL     1     142.596  74.759 219.416 -0.18 -0.05    +0.150 A  
DOCKED: ATOM     26  N   UNL     1     143.454  74.807 220.472 -0.23 +0.11    -0.240 NA 
DOCKED: ATOM     27  N   UNL     1     142.925  74.027 218.316 -0.05 +0.06    -0.240 NA 
DOCKED: ATOM     28  C   UNL     1     144.625  74.119 220.457 -0.45 -0.03    +0.106 A  
DOCKED: ATOM     29  C   UNL     1     144.087  73.325 218.263 -0.13 -0.01    +0.106 A  
DOCKED: ATOM     30  C   UNL     1     144.967  73.356 219.343 -0.33 +0.00    -0.071 A  
DOCKED: ATOM     31  O   UNL     1     146.159  72.643 219.308 -0.37 -0.80    -0.870 OA 
DOCKED: ENDBRANCH  21  25
DOCKED: ENDBRANCH  17  19
DOCKED: ENDBRANCH   1  17
DOCKED: TORSDOF 7
DOCKED: TER
DOCKED: ENDMDL
________________________________________________________________________________


    FINAL DOCKED STATE:
    ________________________


Run:   11 / 20
Time taken for this run:   0.042s

DOCKED: MODEL        11
DOCKED: USER    Run = 11
DOCKED: USER
DOCKED: USER    Estimated Free Energy of Binding    =  -7.77 kcal/mol  [=(1)+(2)+(3)-(4)]
DOCKED: USER
DOCKED: USER    (1) Final Intermolecular Energy     =  -9.85 kcal/mol
DOCKED: USER        vdW + Hbond + desolv Energy     =  -8.92 kcal/mol
DOCKED: USER        Electrostatic Energy            =  -0.93 kcal/mol
DOCKED: USER        Moving Ligand-Fixed Receptor    =  -9.85 kcal/mol
DOCKED: USER        Moving Ligand-Moving Receptor   =  +0.00 kcal/mol
DOCKED: USER    (2) Final Total Internal Energy     =  -1.83 kcal/mol
DOCKED: USER    (3) Torsional Free Energy           =  +2.09 kcal/mol
DOCKED: USER    (4) Unbound System's Energy         =  -1.83 kcal/mol
DOCKED: USER
DOCKED: USER
DOCKED: REMARK SMILES O=C(C/N=C(\O)c1ccc2cc(Cl)ccc2n1)N1CCCC[C@H]1c1ncc([O-])cn1
DOCKED: REMARK SMILES IDX 3 1 4 2 5 3 6 4 7 6 17 7 8 8 16 9 9 10 15 11 10 12 14 13
DOCKED: REMARK SMILES IDX 11 14 12 15 13 16 2 17 1 18 18 19 19 20 23 21 20 22 22 23
DOCKED: REMARK SMILES IDX 21 24 24 25 25 26 30 27 26 28 29 29 27 30 28 31
DOCKED: REMARK H PARENT 6 5
DOCKED: USER                              x       y       z     vdW  Elec       q    Type
DOCKED: USER                           _______ _______ _______ _____ _____    ______ ____
DOCKED: ROOT
DOCKED: ATOM      1  C   UNL     1     140.096  75.146 221.721 -0.21 -0.04    +0.246 C  
DOCKED: ENDROOT
DOCKED: BRANCH   1   2
DOCKED: ATOM      2  N   UNL     1     140.514  73.772 221.997 -0.75 +0.01    -0.240 NA 
DOCKED: BRANCH   2   3
DOCKED: ATOM      3  C   UNL     1     139.749  72.718 221.947 -0.20 -0.04    +0.233 C  
DOCKED: BRANCH   3   4
DOCKED: ATOM      4  O   UNL     1     138.849  72.513 220.895 -0.01 +0.10    -0.492 OA 
DOCKED: ATOM      5  H   UNL     1     138.710  73.175 220.143 +0.05 -0.06    +0.295 HD 
DOCKED: ENDBRANCH   3   4
DOCKED: BRANCH   3   6
DOCKED: ATOM      6  C   UNL     1     139.837  71.716 223.026 -0.29 -0.02    +0.125 A  
DOCKED: ATOM      7  N   UNL     1     140.341  72.077 224.240 -0.19 +0.04    -0.243 NA 
DOCKED: ATOM      8  C   UNL     1     139.409  70.394 222.822 -0.22 -0.01    +0.035 A  
DOCKED: ATOM      9  C   UNL     1     140.445  71.196 225.271 -0.50 -0.01    +0.071 A  
DOCKED: ATOM     10  C   UNL     1     139.504  69.467 223.862 -0.26 -0.00    +0.013 A  
DOCKED: ATOM     11  C   UNL     1     140.969  71.611 226.500 -0.68 -0.00    +0.030 A  
DOCKED: ATOM     12  C   UNL     1     140.025  69.859 225.100 -0.42 -0.00    +0.002 A  
DOCKED: ATOM     13  C   UNL     1     141.076  70.702 227.558 -0.63 -0.00    +0.023 A  
DOCKED: ATOM     14  C   UNL     1     140.134  68.952 226.166 -0.51 -0.01    +0.030 A  
DOCKED: ATOM     15  C   UNL     1     140.660  69.376 227.393 -0.57 -0.01    +0.041 A  
DOCKED: ATOM     16  Cl  UNL     1     140.796  68.242 228.724 -0.66 +0.02    -0.084 Cl 
DOCKED: ENDBRANCH   3   6
DOCKED: ENDBRANCH   2   3
DOCKED: ENDBRANCH   1   2
DOCKED: BRANCH   1  17
DOCKED: ATOM     17  C   UNL     1     140.102  75.424 220.237 -0.09 -0.06    +0.245 C  
DOCKED: ATOM     18  O   UNL     1     139.214  74.880 219.524 -0.02 +0.06    -0.273 OA 
DOCKED: BRANCH  17  19
DOCKED: ATOM     19  N   UNL     1     141.121  76.242 219.612 -0.05 +0.13    -0.331 N  
DOCKED: ATOM     20  C   UNL     1     141.649  77.406 220.349 -0.25 -0.07    +0.120 C  
DOCKED: ATOM     21  C   UNL     1     141.777  75.807 218.359 -0.10 -0.06    +0.153 C  
DOCKED: ATOM     22  C   UNL     1     141.948  78.574 219.408 -0.25 -0.01    +0.022 C  
DOCKED: ATOM     23  C   UNL     1     142.150  77.005 217.466 -0.19 -0.02    +0.033 C  
DOCKED: ATOM     24  C   UNL     1     142.836  78.124 218.251 -0.28 -0.00    +0.004 C  
DOCKED: BRANCH  21  25
DOCKED: ATOM     25  C   UNL     1     142.977  74.935 218.637 -0.16 -0.06    +0.150 A  
DOCKED: ATOM     26  N   UNL     1     143.495  74.840 219.893 -0.23 +0.10    -0.240 NA 
DOCKED: ATOM     27  N   UNL     1     143.572  74.264 217.613 -0.06 +0.07    -0.240 NA 
DOCKED: ATOM     28  C   UNL     1     144.584  74.069 220.147 -0.41 -0.03    +0.106 A  
DOCKED: ATOM     29  C   UNL     1     144.663  73.482 217.826 -0.15 -0.01    +0.106 A  
DOCKED: ATOM     30  C   UNL     1     145.194  73.367 219.109 -0.31 -0.00    -0.071 A  
DOCKED: ATOM     31  O   UNL     1     146.307  72.571 219.348 -0.32 -0.93    -0.870 OA 
DOCKED: ENDBRANCH  21  25
DOCKED: ENDBRANCH  17  19
DOCKED: ENDBRANCH   1  17
DOCKED: TORSDOF 7
DOCKED: TER
DOCKED: ENDMDL
________________________________________________________________________________


    FINAL DOCKED STATE:
    ________________________


Run:   12 / 20
Time taken for this run:   0.042s

DOCKED: MODEL        12
DOCKED: USER    Run = 12
DOCKED: USER
DOCKED: USER    Estimated Free Energy of Binding    =  -7.26 kcal/mol  [=(1)+(2)+(3)-(4)]
DOCKED: USER
DOCKED: USER    (1) Final Intermolecular Energy     =  -9.34 kcal/mol
DOCKED: USER        vdW + Hbond + desolv Energy     =  -8.84 kcal/mol
DOCKED: USER        Electrostatic Energy            =  -0.50 kcal/mol
DOCKED: USER        Moving Ligand-Fixed Receptor    =  -9.34 kcal/mol
DOCKED: USER        Moving Ligand-Moving Receptor   =  +0.00 kcal/mol
DOCKED: USER    (2) Final Total Internal Energy     =  -1.99 kcal/mol
DOCKED: USER    (3) Torsional Free Energy           =  +2.09 kcal/mol
DOCKED: USER    (4) Unbound System's Energy         =  -1.99 kcal/mol
DOCKED: USER
DOCKED: USER
DOCKED: REMARK SMILES O=C(C/N=C(\O)c1ccc2cc(Cl)ccc2n1)N1CCCC[C@H]1c1ncc([O-])cn1
DOCKED: REMARK SMILES IDX 3 1 4 2 5 3 6 4 7 6 17 7 8 8 16 9 9 10 15 11 10 12 14 13
DOCKED: REMARK SMILES IDX 11 14 12 15 13 16 2 17 1 18 18 19 19 20 23 21 20 22 22 23
DOCKED: REMARK SMILES IDX 21 24 24 25 25 26 30 27 26 28 29 29 27 30 28 31
DOCKED: REMARK H PARENT 6 5
DOCKED: USER                              x       y       z     vdW  Elec       q    Type
DOCKED: USER                           _______ _______ _______ _____ _____    ______ ____
DOCKED: ROOT
DOCKED: ATOM      1  C   UNL     1     139.753  75.002 221.163 -0.17 -0.05    +0.246 C  
DOCKED: ENDROOT
DOCKED: BRANCH   1   2
DOCKED: ATOM      2  N   UNL     1     140.444  74.002 221.976 -0.77 +0.01    -0.240 NA 
DOCKED: BRANCH   2   3
DOCKED: ATOM      3  C   UNL     1     140.497  72.723 221.730 -0.20 -0.03    +0.233 C  
DOCKED: BRANCH   3   4
DOCKED: ATOM      4  O   UNL     1     140.695  72.232 220.435 -0.02 +0.08    -0.492 OA 
DOCKED: ATOM      5  H   UNL     1     141.359  72.630 219.783 +0.07 -0.05    +0.295 HD 
DOCKED: ENDBRANCH   3   4
DOCKED: BRANCH   3   6
DOCKED: ATOM      6  C   UNL     1     140.345  71.771 222.847 -0.29 -0.02    +0.125 A  
DOCKED: ATOM      7  N   UNL     1     140.814  72.103 224.082 -0.01 +0.02    -0.243 NA 
DOCKED: ATOM      8  C   UNL     1     139.722  70.527 222.655 -0.21 -0.01    +0.035 A  
DOCKED: ATOM      9  C   UNL     1     140.701  71.265 225.148 -0.50 -0.01    +0.071 A  
DOCKED: ATOM     10  C   UNL     1     139.592  69.646 223.731 -0.25 -0.00    +0.013 A  
DOCKED: ATOM     11  C   UNL     1     141.198  71.647 226.399 -0.67 -0.00    +0.030 A  
DOCKED: ATOM     12  C   UNL     1     140.082  70.006 224.991 -0.42 -0.00    +0.002 A  
DOCKED: ATOM     13  C   UNL     1     141.081  70.783 227.492 -0.64 -0.00    +0.023 A  
DOCKED: ATOM     14  C   UNL     1     139.967  69.143 226.093 -0.49 -0.00    +0.030 A  
DOCKED: ATOM     15  C   UNL     1     140.467  69.534 227.341 -0.57 -0.01    +0.041 A  
DOCKED: ATOM     16  Cl  UNL     1     140.323  68.456 228.717 -0.62 +0.02    -0.084 Cl 
DOCKED: ENDBRANCH   3   6
DOCKED: ENDBRANCH   2   3
DOCKED: ENDBRANCH   1   2
DOCKED: BRANCH   1  17
DOCKED: ATOM     17  C   UNL     1     140.508  76.309 221.158 -0.20 -0.08    +0.245 C  
DOCKED: ATOM     18  O   UNL     1     140.370  77.082 222.145 -0.26 +0.08    -0.273 OA 
DOCKED: BRANCH  17  19
DOCKED: ATOM     19  N   UNL     1     141.330  76.718 220.037 -0.08 +0.15    -0.331 N  
DOCKED: ATOM     20  C   UNL     1     142.123  77.957 220.152 -0.17 -0.08    +0.120 C  
DOCKED: ATOM     21  C   UNL     1     141.544  75.812 218.887 -0.11 -0.06    +0.153 C  
DOCKED: ATOM     22  C   UNL     1     142.184  78.706 218.820 -0.28 -0.02    +0.022 C  
DOCKED: ATOM     23  C   UNL     1     141.692  76.594 217.567 -0.12 -0.02    +0.033 C  
DOCKED: ATOM     24  C   UNL     1     142.648  77.780 217.698 -0.29 -0.00    +0.004 C  
DOCKED: BRANCH  21  25
DOCKED: ATOM     25  C   UNL     1     142.721  74.896 219.117 -0.18 -0.06    +0.150 A  
DOCKED: ATOM     26  N   UNL     1     143.759  75.277 219.912 -0.27 +0.13    -0.240 NA 
DOCKED: ATOM     27  N   UNL     1     142.763  73.687 218.492 -0.03 +0.06    -0.240 NA 
DOCKED: ATOM     28  C   UNL     1     144.828  74.463 220.110 -0.35 -0.04    +0.106 A  
DOCKED: ATOM     29  C   UNL     1     143.814  72.844 218.665 -0.13 -0.01    +0.106 A  
DOCKED: ATOM     30  C   UNL     1     144.876  73.218 219.487 -0.34 +0.00    -0.071 A  
DOCKED: ATOM     31  O   UNL     1     145.959  72.369 219.678 -0.27 -0.50    -0.870 OA 
DOCKED: ENDBRANCH  21  25
DOCKED: ENDBRANCH  17  19
DOCKED: ENDBRANCH   1  17
DOCKED: TORSDOF 7
DOCKED: TER
DOCKED: ENDMDL
________________________________________________________________________________


    FINAL DOCKED STATE:
    ________________________


Run:   13 / 20
Time taken for this run:   0.042s

DOCKED: MODEL        13
DOCKED: USER    Run = 13
DOCKED: USER
DOCKED: USER    Estimated Free Energy of Binding    =  -6.88 kcal/mol  [=(1)+(2)+(3)-(4)]
DOCKED: USER
DOCKED: USER    (1) Final Intermolecular Energy     =  -8.97 kcal/mol
DOCKED: USER        vdW + Hbond + desolv Energy     =  -7.91 kcal/mol
DOCKED: USER        Electrostatic Energy            =  -1.06 kcal/mol
DOCKED: USER        Moving Ligand-Fixed Receptor    =  -8.97 kcal/mol
DOCKED: USER        Moving Ligand-Moving Receptor   =  +0.00 kcal/mol
DOCKED: USER    (2) Final Total Internal Energy     =  -2.81 kcal/mol
DOCKED: USER    (3) Torsional Free Energy           =  +2.09 kcal/mol
DOCKED: USER    (4) Unbound System's Energy         =  -2.81 kcal/mol
DOCKED: USER
DOCKED: USER
DOCKED: REMARK SMILES O=C(C/N=C(\O)c1ccc2cc(Cl)ccc2n1)N1CCCC[C@H]1c1ncc([O-])cn1
DOCKED: REMARK SMILES IDX 3 1 4 2 5 3 6 4 7 6 17 7 8 8 16 9 9 10 15 11 10 12 14 13
DOCKED: REMARK SMILES IDX 11 14 12 15 13 16 2 17 1 18 18 19 19 20 23 21 20 22 22 23
DOCKED: REMARK SMILES IDX 21 24 24 25 25 26 30 27 26 28 29 29 27 30 28 31
DOCKED: REMARK H PARENT 6 5
DOCKED: USER                              x       y       z     vdW  Elec       q    Type
DOCKED: USER                           _______ _______ _______ _____ _____    ______ ____
DOCKED: ROOT
DOCKED: ATOM      1  C   UNL     1     139.047  73.820 220.409 -0.06 -0.05    +0.246 C  
DOCKED: ENDROOT
DOCKED: BRANCH   1   2
DOCKED: ATOM      2  N   UNL     1     139.656  72.569 219.958 -0.02 +0.04    -0.240 NA 
DOCKED: BRANCH   2   3
DOCKED: ATOM      3  C   UNL     1     140.583  71.902 220.588 -0.09 -0.04    +0.233 C  
DOCKED: BRANCH   3   4
DOCKED: ATOM      4  O   UNL     1     141.876  71.776 220.070 -0.02 +0.07    -0.492 OA 
DOCKED: ATOM      5  H   UNL     1     142.467  72.565 219.847 +0.10 -0.05    +0.295 HD 
DOCKED: ENDBRANCH   3   4
DOCKED: BRANCH   3   6
DOCKED: ATOM      6  C   UNL     1     140.257  71.267 221.879 -0.18 -0.02    +0.125 A  
DOCKED: ATOM      7  N   UNL     1     140.767  71.786 223.032 -0.22 +0.02    -0.243 NA 
DOCKED: ATOM      8  C   UNL     1     139.428  70.136 221.939 -0.16 -0.01    +0.035 A  
DOCKED: ATOM      9  C   UNL     1     140.501  71.242 224.249 -0.40 -0.01    +0.071 A  
DOCKED: ATOM     10  C   UNL     1     139.137  69.555 223.175 -0.23 -0.00    +0.013 A  
DOCKED: ATOM     11  C   UNL     1     141.047  71.807 225.407 -0.40 -0.00    +0.030 A  
DOCKED: ATOM     12  C   UNL     1     139.672  70.103 224.346 -0.36 -0.00    +0.002 A  
DOCKED: ATOM     13  C   UNL     1     140.771  71.246 226.658 -0.67 -0.00    +0.023 A  
DOCKED: ATOM     14  C   UNL     1     139.398  69.544 225.604 -0.42 -0.00    +0.030 A  
DOCKED: ATOM     15  C   UNL     1     139.949  70.117 226.758 -0.51 -0.01    +0.041 A  
DOCKED: ATOM     16  Cl  UNL     1     139.607  69.418 228.330 -0.70 +0.01    -0.084 Cl 
DOCKED: ENDBRANCH   3   6
DOCKED: ENDBRANCH   2   3
DOCKED: ENDBRANCH   1   2
DOCKED: BRANCH   1  17
DOCKED: ATOM     17  C   UNL     1     140.070  74.711 221.072 -0.17 -0.05    +0.245 C  
DOCKED: ATOM     18  O   UNL     1     140.135  74.710 222.332 -0.74 +0.00    -0.273 OA 
DOCKED: BRANCH  17  19
DOCKED: ATOM     19  N   UNL     1     140.928  75.595 220.310 -0.08 +0.11    -0.331 N  
DOCKED: ATOM     20  C   UNL     1     141.455  76.810 220.963 -0.22 -0.06    +0.120 C  
DOCKED: ATOM     21  C   UNL     1     141.443  75.191 218.983 -0.08 -0.05    +0.153 C  
DOCKED: ATOM     22  C   UNL     1     141.531  77.981 219.982 -0.27 -0.01    +0.022 C  
DOCKED: ATOM     23  C   UNL     1     141.596  76.400 218.040 -0.12 -0.01    +0.033 C  
DOCKED: ATOM     24  C   UNL     1     142.290  77.581 218.719 -0.30 -0.00    +0.004 C  
DOCKED: BRANCH  21  25
DOCKED: ATOM     25  C   UNL     1     142.735  74.420 219.103 -0.15 -0.05    +0.150 A  
DOCKED: ATOM     26  N   UNL     1     143.483  74.483 220.240 -0.23 +0.09    -0.240 NA 
DOCKED: ATOM     27  N   UNL     1     143.177  73.682 218.048 -0.04 +0.05    -0.240 NA 
DOCKED: ATOM     28  C   UNL     1     144.654  73.804 220.348 -0.43 -0.03    +0.106 A  
DOCKED: ATOM     29  C   UNL     1     144.343  72.988 218.117 -0.13 -0.00    +0.106 A  
DOCKED: ATOM     30  C   UNL     1     145.110  73.035 219.280 -0.32 -0.01    -0.071 A  
DOCKED: ATOM     31  O   UNL     1     146.305  72.330 219.371 -0.26 -1.00    -0.870 OA 
DOCKED: ENDBRANCH  21  25
DOCKED: ENDBRANCH  17  19
DOCKED: ENDBRANCH   1  17
DOCKED: TORSDOF 7
DOCKED: TER
DOCKED: ENDMDL
________________________________________________________________________________


    FINAL DOCKED STATE:
    ________________________


Run:   14 / 20
Time taken for this run:   0.042s

DOCKED: MODEL        14
DOCKED: USER    Run = 14
DOCKED: USER
DOCKED: USER    Estimated Free Energy of Binding    =  -8.25 kcal/mol  [=(1)+(2)+(3)-(4)]
DOCKED: USER
DOCKED: USER    (1) Final Intermolecular Energy     = -10.33 kcal/mol
DOCKED: USER        vdW + Hbond + desolv Energy     =  -9.41 kcal/mol
DOCKED: USER        Electrostatic Energy            =  -0.92 kcal/mol
DOCKED: USER        Moving Ligand-Fixed Receptor    = -10.33 kcal/mol
DOCKED: USER        Moving Ligand-Moving Receptor   =  +0.00 kcal/mol
DOCKED: USER    (2) Final Total Internal Energy     =  -1.14 kcal/mol
DOCKED: USER    (3) Torsional Free Energy           =  +2.09 kcal/mol
DOCKED: USER    (4) Unbound System's Energy         =  -1.14 kcal/mol
DOCKED: USER
DOCKED: USER
DOCKED: REMARK SMILES O=C(C/N=C(\O)c1ccc2cc(Cl)ccc2n1)N1CCCC[C@H]1c1ncc([O-])cn1
DOCKED: REMARK SMILES IDX 3 1 4 2 5 3 6 4 7 6 17 7 8 8 16 9 9 10 15 11 10 12 14 13
DOCKED: REMARK SMILES IDX 11 14 12 15 13 16 2 17 1 18 18 19 19 20 23 21 20 22 22 23
DOCKED: REMARK SMILES IDX 21 24 24 25 25 26 30 27 26 28 29 29 27 30 28 31
DOCKED: REMARK H PARENT 6 5
DOCKED: USER                              x       y       z     vdW  Elec       q    Type
DOCKED: USER                           _______ _______ _______ _____ _____    ______ ____
DOCKED: ROOT
DOCKED: ATOM      1  C   UNL     1     139.756  74.971 221.398 -0.20 -0.05    +0.246 C  
DOCKED: ENDROOT
DOCKED: BRANCH   1   2
DOCKED: ATOM      2  N   UNL     1     140.158  73.785 222.153 -0.77 +0.01    -0.240 NA 
DOCKED: BRANCH   2   3
DOCKED: ATOM      3  C   UNL     1     139.748  72.567 221.935 -0.19 -0.04    +0.233 C  
DOCKED: BRANCH   3   4
DOCKED: ATOM      4  O   UNL     1     139.223  72.180 220.697 -0.00 +0.09    -0.492 OA 
DOCKED: ATOM      5  H   UNL     1     139.688  71.537 220.070 +0.05 -0.05    +0.295 HD 
DOCKED: ENDBRANCH   3   4
DOCKED: BRANCH   3   6
DOCKED: ATOM      6  C   UNL     1     139.841  71.573 223.021 -0.29 -0.02    +0.125 A  
DOCKED: ATOM      7  N   UNL     1     140.340  71.945 224.233 -0.25 +0.04    -0.243 NA 
DOCKED: ATOM      8  C   UNL     1     139.422  70.247 222.824 -0.21 -0.01    +0.035 A  
DOCKED: ATOM      9  C   UNL     1     140.449  71.072 225.270 -0.50 -0.01    +0.071 A  
DOCKED: ATOM     10  C   UNL     1     139.522  69.327 223.871 -0.24 -0.00    +0.013 A  
DOCKED: ATOM     11  C   UNL     1     140.967  71.498 226.498 -0.68 -0.00    +0.030 A  
DOCKED: ATOM     12  C   UNL     1     140.038  69.731 225.107 -0.42 -0.00    +0.002 A  
DOCKED: ATOM     13  C   UNL     1     141.079  70.598 227.561 -0.62 -0.00    +0.023 A  
DOCKED: ATOM     14  C   UNL     1     140.152  68.832 226.179 -0.52 -0.01    +0.030 A  
DOCKED: ATOM     15  C   UNL     1     140.672  69.267 227.404 -0.58 -0.01    +0.041 A  
DOCKED: ATOM     16  Cl  UNL     1     140.814  68.144 228.743 -0.63 +0.02    -0.084 Cl 
DOCKED: ENDBRANCH   3   6
DOCKED: ENDBRANCH   2   3
DOCKED: ENDBRANCH   1   2
DOCKED: BRANCH   1  17
DOCKED: ATOM     17  C   UNL     1     140.817  76.042 221.472 -0.24 -0.08    +0.245 C  
DOCKED: ATOM     18  O   UNL     1     141.099  76.527 222.602 -0.32 +0.10    -0.273 OA 
DOCKED: BRANCH  17  19
DOCKED: ATOM     19  N   UNL     1     141.471  76.560 220.288 -0.11 +0.15    -0.331 N  
DOCKED: ATOM     20  C   UNL     1     142.169  77.858 220.371 -0.16 -0.09    +0.120 C  
DOCKED: ATOM     21  C   UNL     1     141.624  75.719 219.080 -0.12 -0.06    +0.153 C  
DOCKED: ATOM     22  C   UNL     1     142.017  78.658 219.076 -0.26 -0.01    +0.022 C  
DOCKED: ATOM     23  C   UNL     1     141.556  76.559 217.789 -0.11 -0.01    +0.033 C  
DOCKED: ATOM     24  C   UNL     1     142.422  77.817 217.868 -0.29 -0.00    +0.004 C  
DOCKED: BRANCH  21  25
DOCKED: ATOM     25  C   UNL     1     142.889  74.898 219.135 -0.20 -0.06    +0.150 A  
DOCKED: ATOM     26  N   UNL     1     143.390  74.309 218.014 -0.07 +0.07    -0.240 NA 
DOCKED: ATOM     27  N   UNL     1     143.518  74.714 220.328 -0.24 +0.10    -0.240 NA 
DOCKED: ATOM     28  C   UNL     1     144.519  73.557 218.061 -0.15 -0.01    +0.106 A  
DOCKED: ATOM     29  C   UNL     1     144.651  73.969 220.417 -0.44 -0.03    +0.106 A  
DOCKED: ATOM     30  C   UNL     1     145.179  73.372 219.274 -0.33 -0.00    -0.071 A  
DOCKED: ATOM     31  O   UNL     1     146.338  72.608 219.343 -0.31 -0.96    -0.870 OA 
DOCKED: ENDBRANCH  21  25
DOCKED: ENDBRANCH  17  19
DOCKED: ENDBRANCH   1  17
DOCKED: TORSDOF 7
DOCKED: TER
DOCKED: ENDMDL
________________________________________________________________________________


    FINAL DOCKED STATE:
    ________________________


Run:   15 / 20
Time taken for this run:   0.042s

DOCKED: MODEL        15
DOCKED: USER    Run = 15
DOCKED: USER
DOCKED: USER    Estimated Free Energy of Binding    =  -7.34 kcal/mol  [=(1)+(2)+(3)-(4)]
DOCKED: USER
DOCKED: USER    (1) Final Intermolecular Energy     =  -9.43 kcal/mol
DOCKED: USER        vdW + Hbond + desolv Energy     =  -8.33 kcal/mol
DOCKED: USER        Electrostatic Energy            =  -1.10 kcal/mol
DOCKED: USER        Moving Ligand-Fixed Receptor    =  -9.43 kcal/mol
DOCKED: USER        Moving Ligand-Moving Receptor   =  +0.00 kcal/mol
DOCKED: USER    (2) Final Total Internal Energy     =  -2.46 kcal/mol
DOCKED: USER    (3) Torsional Free Energy           =  +2.09 kcal/mol
DOCKED: USER    (4) Unbound System's Energy         =  -2.46 kcal/mol
DOCKED: USER
DOCKED: USER
DOCKED: REMARK SMILES O=C(C/N=C(\O)c1ccc2cc(Cl)ccc2n1)N1CCCC[C@H]1c1ncc([O-])cn1
DOCKED: REMARK SMILES IDX 3 1 4 2 5 3 6 4 7 6 17 7 8 8 16 9 9 10 15 11 10 12 14 13
DOCKED: REMARK SMILES IDX 11 14 12 15 13 16 2 17 1 18 18 19 19 20 23 21 20 22 22 23
DOCKED: REMARK SMILES IDX 21 24 24 25 25 26 30 27 26 28 29 29 27 30 28 31
DOCKED: REMARK H PARENT 6 5
DOCKED: USER                              x       y       z     vdW  Elec       q    Type
DOCKED: USER                           _______ _______ _______ _____ _____    ______ ____
DOCKED: ROOT
DOCKED: ATOM      1  C   UNL     1     139.200  74.950 221.121 -0.14 -0.05    +0.246 C  
DOCKED: ENDROOT
DOCKED: BRANCH   1   2
DOCKED: ATOM      2  N   UNL     1     139.990  74.161 222.065 -0.79 +0.02    -0.240 NA 
DOCKED: BRANCH   2   3
DOCKED: ATOM      3  C   UNL     1     140.421  72.946 221.870 -0.21 -0.02    +0.233 C  
DOCKED: BRANCH   3   4
DOCKED: ATOM      4  O   UNL     1     141.010  72.561 220.660 -0.04 +0.07    -0.492 OA 
DOCKED: ATOM      5  H   UNL     1     141.289  73.216 219.943 +0.08 -0.06    +0.295 HD 
DOCKED: ENDBRANCH   3   4
DOCKED: BRANCH   3   6
DOCKED: ATOM      6  C   UNL     1     140.284  71.954 222.953 -0.30 -0.02    +0.125 A  
DOCKED: ATOM      7  N   UNL     1     140.730  72.259 224.204 +0.01 +0.02    -0.243 NA 
DOCKED: ATOM      8  C   UNL     1     139.700  70.700 222.715 -0.23 -0.01    +0.035 A  
DOCKED: ATOM      9  C   UNL     1     140.630  71.384 225.241 -0.50 -0.01    +0.071 A  
DOCKED: ATOM     10  C   UNL     1     139.583  69.781 223.759 -0.27 -0.00    +0.013 A  
DOCKED: ATOM     11  C   UNL     1     141.102  71.738 226.509 -0.70 -0.00    +0.030 A  
DOCKED: ATOM     12  C   UNL     1     140.049  70.113 225.037 -0.44 -0.00    +0.002 A  
DOCKED: ATOM     13  C   UNL     1     140.998  70.837 227.573 -0.66 -0.00    +0.023 A  
DOCKED: ATOM     14  C   UNL     1     139.947  69.213 226.108 -0.48 -0.00    +0.030 A  
DOCKED: ATOM     15  C   UNL     1     140.422  69.576 227.374 -0.57 -0.01    +0.041 A  
DOCKED: ATOM     16  Cl  UNL     1     140.294  68.451 228.713 -0.60 +0.02    -0.084 Cl 
DOCKED: ENDBRANCH   3   6
DOCKED: ENDBRANCH   2   3
DOCKED: ENDBRANCH   1   2
DOCKED: BRANCH   1  17
DOCKED: ATOM     17  C   UNL     1     139.848  74.969 219.757 -0.04 -0.06    +0.245 C  
DOCKED: ATOM     18  O   UNL     1     139.531  74.070 218.932 -0.01 +0.06    -0.273 OA 
DOCKED: BRANCH  17  19
DOCKED: ATOM     19  N   UNL     1     140.854  75.948 219.399 -0.02 +0.11    -0.331 N  
DOCKED: ATOM     20  C   UNL     1     141.234  76.973 220.390 -0.22 -0.05    +0.120 C  
DOCKED: ATOM     21  C   UNL     1     141.640  75.803 218.153 -0.08 -0.06    +0.153 C  
DOCKED: ATOM     22  C   UNL     1     141.525  78.317 219.721 -0.26 -0.01    +0.022 C  
DOCKED: ATOM     23  C   UNL     1     141.998  77.172 217.544 -0.18 -0.02    +0.033 C  
DOCKED: ATOM     24  C   UNL     1     142.536  78.151 218.588 -0.31 -0.00    +0.004 C  
DOCKED: BRANCH  21  25
DOCKED: ATOM     25  C   UNL     1     142.873  74.961 218.374 -0.14 -0.06    +0.150 A  
DOCKED: ATOM     26  N   UNL     1     143.729  74.694 217.349 -0.08 +0.09    -0.240 NA 
DOCKED: ATOM     27  N   UNL     1     143.112  74.429 219.604 -0.16 +0.08    -0.240 NA 
DOCKED: ATOM     28  C   UNL     1     144.832  73.924 217.538 -0.09 -0.02    +0.106 A  
DOCKED: ATOM     29  C   UNL     1     144.204  73.654 219.833 -0.32 -0.02    +0.106 A  
DOCKED: ATOM     30  C   UNL     1     145.094  73.385 218.796 -0.25 -0.00    -0.071 A  
DOCKED: ATOM     31  O   UNL     1     146.218  72.597 219.010 -0.31 -1.07    -0.870 OA 
DOCKED: ENDBRANCH  21  25
DOCKED: ENDBRANCH  17  19
DOCKED: ENDBRANCH   1  17
DOCKED: TORSDOF 7
DOCKED: TER
DOCKED: ENDMDL
________________________________________________________________________________


    FINAL DOCKED STATE:
    ________________________


Run:   16 / 20
Time taken for this run:   0.042s

DOCKED: MODEL        16
DOCKED: USER    Run = 16
DOCKED: USER
DOCKED: USER    Estimated Free Energy of Binding    =  -6.37 kcal/mol  [=(1)+(2)+(3)-(4)]
DOCKED: USER
DOCKED: USER    (1) Final Intermolecular Energy     =  -8.46 kcal/mol
DOCKED: USER        vdW + Hbond + desolv Energy     =  -7.39 kcal/mol
DOCKED: USER        Electrostatic Energy            =  -1.07 kcal/mol
DOCKED: USER        Moving Ligand-Fixed Receptor    =  -8.46 kcal/mol
DOCKED: USER        Moving Ligand-Moving Receptor   =  +0.00 kcal/mol
DOCKED: USER    (2) Final Total Internal Energy     =  -2.24 kcal/mol
DOCKED: USER    (3) Torsional Free Energy           =  +2.09 kcal/mol
DOCKED: USER    (4) Unbound System's Energy         =  -2.24 kcal/mol
DOCKED: USER
DOCKED: USER
DOCKED: REMARK SMILES O=C(C/N=C(\O)c1ccc2cc(Cl)ccc2n1)N1CCCC[C@H]1c1ncc([O-])cn1
DOCKED: REMARK SMILES IDX 3 1 4 2 5 3 6 4 7 6 17 7 8 8 16 9 9 10 15 11 10 12 14 13
DOCKED: REMARK SMILES IDX 11 14 12 15 13 16 2 17 1 18 18 19 19 20 23 21 20 22 22 23
DOCKED: REMARK SMILES IDX 21 24 24 25 25 26 30 27 26 28 29 29 27 30 28 31
DOCKED: REMARK H PARENT 6 5
DOCKED: USER                              x       y       z     vdW  Elec       q    Type
DOCKED: USER                           _______ _______ _______ _____ _____    ______ ____
DOCKED: ROOT
DOCKED: ATOM      1  C   UNL     1     141.603  72.198 220.238 -0.10 -0.04    +0.246 C  
DOCKED: ENDROOT
DOCKED: BRANCH   1   2
DOCKED: ATOM      2  N   UNL     1     140.538  73.196 220.329 -0.07 +0.04    -0.240 NA 
DOCKED: BRANCH   2   3
DOCKED: ATOM      3  C   UNL     1     140.260  73.921 221.377 -0.20 -0.03    +0.233 C  
DOCKED: BRANCH   3   4
DOCKED: ATOM      4  O   UNL     1     139.848  73.342 222.582 -0.63 +0.05    -0.492 OA 
DOCKED: ATOM      5  H   UNL     1     139.309  73.835 223.281 -0.39 -0.13    +0.295 HD 
DOCKED: ENDBRANCH   3   4
DOCKED: BRANCH   3   6
DOCKED: ATOM      6  C   UNL     1     140.387  75.388 221.287 -0.26 -0.03    +0.125 A  
DOCKED: ATOM      7  N   UNL     1     140.868  76.089 222.352 -0.32 +0.06    -0.243 NA 
DOCKED: ATOM      8  C   UNL     1     140.019  76.074 220.118 -0.12 -0.01    +0.035 A  
DOCKED: ATOM      9  C   UNL     1     141.006  77.441 222.325 -0.39 -0.03    +0.071 A  
DOCKED: ATOM     10  C   UNL     1     140.149  77.463 220.061 -0.13 -0.00    +0.013 A  
DOCKED: ATOM     11  C   UNL     1     141.504  78.120 223.443 -0.46 -0.01    +0.030 A  
DOCKED: ATOM     12  C   UNL     1     140.644  78.164 221.167 -0.27 -0.00    +0.002 A  
DOCKED: ATOM     13  C   UNL     1     141.644  79.511 223.413 -0.57 -0.01    +0.023 A  
DOCKED: ATOM     14  C   UNL     1     140.788  79.559 221.143 -0.26 -0.01    +0.030 A  
DOCKED: ATOM     15  C   UNL     1     141.287  80.230 222.266 -0.41 -0.01    +0.041 A  
DOCKED: ATOM     16  Cl  UNL     1     141.467  81.975 222.235 -0.47 +0.01    -0.084 Cl 
DOCKED: ENDBRANCH   3   6
DOCKED: ENDBRANCH   2   3
DOCKED: ENDBRANCH   1   2
DOCKED: BRANCH   1  17
DOCKED: ATOM     17  C   UNL     1     142.960  72.859 220.207 -0.16 -0.04    +0.245 C  
DOCKED: ATOM     18  O   UNL     1     143.871  72.386 220.942 -0.22 +0.05    -0.273 OA 
DOCKED: BRANCH  17  19
DOCKED: ATOM     19  N   UNL     1     143.223  74.039 219.410 -0.09 +0.09    -0.331 N  
DOCKED: ATOM     20  C   UNL     1     143.825  75.218 220.062 -0.31 -0.07    +0.120 C  
DOCKED: ATOM     21  C   UNL     1     143.095  74.000 217.936 -0.08 -0.04    +0.153 C  
DOCKED: ATOM     22  C   UNL     1     143.265  76.520 219.487 -0.36 -0.02    +0.022 C  
DOCKED: ATOM     23  C   UNL     1     142.615  75.350 217.370 -0.13 -0.01    +0.033 C  
DOCKED: ATOM     24  C   UNL     1     143.379  76.534 217.965 -0.25 -0.00    +0.004 C  
DOCKED: BRANCH  21  25
DOCKED: ATOM     25  C   UNL     1     144.381  73.555 217.282 -0.10 -0.02    +0.150 A  
DOCKED: ATOM     26  N   UNL     1     145.158  74.440 216.597 -0.08 +0.07    -0.240 NA 
DOCKED: ATOM     27  N   UNL     1     144.749  72.247 217.346 -0.07 -0.04    -0.240 NA 
DOCKED: ATOM     28  C   UNL     1     146.308  74.043 215.994 -0.17 +0.00    +0.106 A  
DOCKED: ATOM     29  C   UNL     1     145.893  71.810 216.756 -0.06 +0.07    +0.106 A  
DOCKED: ATOM     30  C   UNL     1     146.703  72.708 216.063 -0.04 -0.05    -0.071 A  
DOCKED: ATOM     31  O   UNL     1     147.877  72.282 215.454 -0.21 -0.92    -0.870 OA 
DOCKED: ENDBRANCH  21  25
DOCKED: ENDBRANCH  17  19
DOCKED: ENDBRANCH   1  17
DOCKED: TORSDOF 7
DOCKED: TER
DOCKED: ENDMDL
________________________________________________________________________________


    FINAL DOCKED STATE:
    ________________________


Run:   17 / 20
Time taken for this run:   0.042s

DOCKED: MODEL        17
DOCKED: USER    Run = 17
DOCKED: USER
DOCKED: USER    Estimated Free Energy of Binding    =  -7.19 kcal/mol  [=(1)+(2)+(3)-(4)]
DOCKED: USER
DOCKED: USER    (1) Final Intermolecular Energy     =  -9.28 kcal/mol
DOCKED: USER        vdW + Hbond + desolv Energy     =  -8.26 kcal/mol
DOCKED: USER        Electrostatic Energy            =  -1.02 kcal/mol
DOCKED: USER        Moving Ligand-Fixed Receptor    =  -9.28 kcal/mol
DOCKED: USER        Moving Ligand-Moving Receptor   =  +0.00 kcal/mol
DOCKED: USER    (2) Final Total Internal Energy     =  -2.51 kcal/mol
DOCKED: USER    (3) Torsional Free Energy           =  +2.09 kcal/mol
DOCKED: USER    (4) Unbound System's Energy         =  -2.51 kcal/mol
DOCKED: USER
DOCKED: USER
DOCKED: REMARK SMILES O=C(C/N=C(\O)c1ccc2cc(Cl)ccc2n1)N1CCCC[C@H]1c1ncc([O-])cn1
DOCKED: REMARK SMILES IDX 3 1 4 2 5 3 6 4 7 6 17 7 8 8 16 9 9 10 15 11 10 12 14 13
DOCKED: REMARK SMILES IDX 11 14 12 15 13 16 2 17 1 18 18 19 19 20 23 21 20 22 22 23
DOCKED: REMARK SMILES IDX 21 24 24 25 25 26 30 27 26 28 29 29 27 30 28 31
DOCKED: REMARK H PARENT 6 5
DOCKED: USER                              x       y       z     vdW  Elec       q    Type
DOCKED: USER                           _______ _______ _______ _____ _____    ______ ____
DOCKED: ROOT
DOCKED: ATOM      1  C   UNL     1     139.565  75.181 221.324 -0.18 -0.05    +0.246 C  
DOCKED: ENDROOT
DOCKED: BRANCH   1   2
DOCKED: ATOM      2  N   UNL     1     140.314  74.180 222.083 -0.77 +0.01    -0.240 NA 
DOCKED: BRANCH   2   3
DOCKED: ATOM      3  C   UNL     1     140.378  72.907 221.810 -0.21 -0.03    +0.233 C  
DOCKED: BRANCH   3   4
DOCKED: ATOM      4  O   UNL     1     140.554  72.445 220.501 -0.02 +0.08    -0.492 OA 
DOCKED: ATOM      5  H   UNL     1     140.959  73.003 219.762 +0.07 -0.06    +0.295 HD 
DOCKED: ENDBRANCH   3   4
DOCKED: BRANCH   3   6
DOCKED: ATOM      6  C   UNL     1     140.264  71.931 222.910 -0.30 -0.02    +0.125 A  
DOCKED: ATOM      7  N   UNL     1     140.713  72.262 224.153 -0.04 +0.02    -0.243 NA 
DOCKED: ATOM      8  C   UNL     1     139.699  70.663 222.696 -0.23 -0.01    +0.035 A  
DOCKED: ATOM      9  C   UNL     1     140.633  71.403 225.204 -0.50 -0.01    +0.071 A  
DOCKED: ATOM     10  C   UNL     1     139.603  69.760 223.756 -0.26 -0.00    +0.013 A  
DOCKED: ATOM     11  C   UNL     1     141.107  71.786 226.464 -0.69 -0.00    +0.030 A  
DOCKED: ATOM     12  C   UNL     1     140.071  70.121 225.024 -0.44 -0.00    +0.002 A  
DOCKED: ATOM     13  C   UNL     1     141.024  70.900 227.542 -0.67 -0.00    +0.023 A  
DOCKED: ATOM     14  C   UNL     1     139.990  69.236 226.111 -0.48 -0.00    +0.030 A  
DOCKED: ATOM     15  C   UNL     1     140.467  69.628 227.368 -0.56 -0.01    +0.041 A  
DOCKED: ATOM     16  Cl  UNL     1     140.365  68.522 228.726 -0.66 +0.02    -0.084 Cl 
DOCKED: ENDBRANCH   3   6
DOCKED: ENDBRANCH   2   3
DOCKED: ENDBRANCH   1   2
DOCKED: BRANCH   1  17
DOCKED: ATOM     17  C   UNL     1     139.968  75.167 219.869 -0.05 -0.06    +0.245 C  
DOCKED: ATOM     18  O   UNL     1     139.385  74.359 219.096 -0.01 +0.06    -0.273 OA 
DOCKED: BRANCH  17  19
DOCKED: ATOM     19  N   UNL     1     141.031  76.007 219.357 -0.03 +0.12    -0.331 N  
DOCKED: ATOM     20  C   UNL     1     141.553  77.092 220.211 -0.23 -0.06    +0.120 C  
DOCKED: ATOM     21  C   UNL     1     141.729  75.661 218.099 -0.08 -0.06    +0.153 C  
DOCKED: ATOM     22  C   UNL     1     141.918  78.326 219.385 -0.27 -0.01    +0.022 C  
DOCKED: ATOM     23  C   UNL     1     142.167  76.920 217.326 -0.18 -0.02    +0.033 C  
DOCKED: ATOM     24  C   UNL     1     142.845  77.951 218.230 -0.29 -0.00    +0.004 C  
DOCKED: BRANCH  21  25
DOCKED: ATOM     25  C   UNL     1     142.896  74.738 218.352 -0.12 -0.05    +0.150 A  
DOCKED: ATOM     26  N   UNL     1     143.906  74.624 217.445 -0.09 +0.09    -0.240 NA 
DOCKED: ATOM     27  N   UNL     1     142.922  73.982 219.484 -0.11 +0.07    -0.240 NA 
DOCKED: ATOM     28  C   UNL     1     144.950  73.783 217.659 -0.11 -0.01    +0.106 A  
DOCKED: ATOM     29  C   UNL     1     143.950  73.130 219.735 -0.26 -0.02    +0.106 A  
DOCKED: ATOM     30  C   UNL     1     144.995  73.014 218.820 -0.26 -0.01    -0.071 A  
DOCKED: ATOM     31  O   UNL     1     146.056  72.150 219.060 -0.24 -0.98    -0.870 OA 
DOCKED: ENDBRANCH  21  25
DOCKED: ENDBRANCH  17  19
DOCKED: ENDBRANCH   1  17
DOCKED: TORSDOF 7
DOCKED: TER
DOCKED: ENDMDL
________________________________________________________________________________


    FINAL DOCKED STATE:
    ________________________


Run:   18 / 20
Time taken for this run:   0.042s

DOCKED: MODEL        18
DOCKED: USER    Run = 18
DOCKED: USER
DOCKED: USER    Estimated Free Energy of Binding    =  -7.48 kcal/mol  [=(1)+(2)+(3)-(4)]
DOCKED: USER
DOCKED: USER    (1) Final Intermolecular Energy     =  -9.57 kcal/mol
DOCKED: USER        vdW + Hbond + desolv Energy     =  -8.43 kcal/mol
DOCKED: USER        Electrostatic Energy            =  -1.14 kcal/mol
DOCKED: USER        Moving Ligand-Fixed Receptor    =  -9.57 kcal/mol
DOCKED: USER        Moving Ligand-Moving Receptor   =  +0.00 kcal/mol
DOCKED: USER    (2) Final Total Internal Energy     =  -2.30 kcal/mol
DOCKED: USER    (3) Torsional Free Energy           =  +2.09 kcal/mol
DOCKED: USER    (4) Unbound System's Energy         =  -2.30 kcal/mol
DOCKED: USER
DOCKED: USER
DOCKED: REMARK SMILES O=C(C/N=C(\O)c1ccc2cc(Cl)ccc2n1)N1CCCC[C@H]1c1ncc([O-])cn1
DOCKED: REMARK SMILES IDX 3 1 4 2 5 3 6 4 7 6 17 7 8 8 16 9 9 10 15 11 10 12 14 13
DOCKED: REMARK SMILES IDX 11 14 12 15 13 16 2 17 1 18 18 19 19 20 23 21 20 22 22 23
DOCKED: REMARK SMILES IDX 21 24 24 25 25 26 30 27 26 28 29 29 27 30 28 31
DOCKED: REMARK H PARENT 6 5
DOCKED: USER                              x       y       z     vdW  Elec       q    Type
DOCKED: USER                           _______ _______ _______ _____ _____    ______ ____
DOCKED: ROOT
DOCKED: ATOM      1  C   UNL     1     139.111  75.046 220.897 -0.11 -0.05    +0.246 C  
DOCKED: ENDROOT
DOCKED: BRANCH   1   2
DOCKED: ATOM      2  N   UNL     1     139.094  73.584 220.935 -0.08 +0.05    -0.240 NA 
DOCKED: BRANCH   2   3
DOCKED: ATOM      3  C   UNL     1     140.103  72.818 221.242 -0.16 -0.04    +0.233 C  
DOCKED: BRANCH   3   4
DOCKED: ATOM      4  O   UNL     1     141.291  72.838 220.503 -0.04 +0.08    -0.492 OA 
DOCKED: ATOM      5  H   UNL     1     142.033  73.507 220.658 +0.11 -0.05    +0.295 HD 
DOCKED: ENDBRANCH   3   4
DOCKED: BRANCH   3   6
DOCKED: ATOM      6  C   UNL     1     139.987  71.909 222.398 -0.26 -0.02    +0.125 A  
DOCKED: ATOM      7  N   UNL     1     140.546  72.261 223.590 -0.28 +0.02    -0.243 NA 
DOCKED: ATOM      8  C   UNL     1     139.309  70.684 222.288 -0.19 -0.01    +0.035 A  
DOCKED: ATOM      9  C   UNL     1     140.471  71.463 224.688 -0.45 -0.01    +0.071 A  
DOCKED: ATOM     10  C   UNL     1     139.215  69.843 223.399 -0.26 -0.00    +0.013 A  
DOCKED: ATOM     11  C   UNL     1     141.060  71.865 225.892 -0.55 -0.00    +0.030 A  
DOCKED: ATOM     12  C   UNL     1     139.797  70.224 224.614 -0.40 -0.00    +0.002 A  
DOCKED: ATOM     13  C   UNL     1     140.981  71.041 227.019 -0.67 -0.00    +0.023 A  
DOCKED: ATOM     14  C   UNL     1     139.720  69.402 225.749 -0.44 -0.00    +0.030 A  
DOCKED: ATOM     15  C   UNL     1     140.313  69.813 226.950 -0.54 -0.01    +0.041 A  
DOCKED: ATOM     16  Cl  UNL     1     140.217  68.786 228.368 -0.76 +0.02    -0.084 Cl 
DOCKED: ENDBRANCH   3   6
DOCKED: ENDBRANCH   2   3
DOCKED: ENDBRANCH   1   2
DOCKED: BRANCH   1  17
DOCKED: ATOM     17  C   UNL     1     140.498  75.577 221.166 -0.21 -0.06    +0.245 C  
DOCKED: ATOM     18  O   UNL     1     140.984  75.420 222.319 -0.44 +0.03    -0.273 OA 
DOCKED: BRANCH  17  19
DOCKED: ATOM     19  N   UNL     1     141.252  76.301 220.163 -0.08 +0.13    -0.331 N  
DOCKED: ATOM     20  C   UNL     1     141.899  77.573 220.541 -0.23 -0.08    +0.120 C  
DOCKED: ATOM     21  C   UNL     1     141.553  75.685 218.852 -0.10 -0.06    +0.153 C  
DOCKED: ATOM     22  C   UNL     1     141.855  78.583 219.394 -0.27 -0.01    +0.022 C  
DOCKED: ATOM     23  C   UNL     1     141.591  76.735 217.725 -0.12 -0.02    +0.033 C  
DOCKED: ATOM     24  C   UNL     1     142.406  77.970 218.109 -0.30 -0.00    +0.004 C  
DOCKED: BRANCH  21  25
DOCKED: ATOM     25  C   UNL     1     142.830  74.882 218.898 -0.17 -0.06    +0.150 A  
DOCKED: ATOM     26  N   UNL     1     143.317  74.278 217.779 -0.06 +0.07    -0.240 NA 
DOCKED: ATOM     27  N   UNL     1     143.484  74.729 220.082 -0.24 +0.10    -0.240 NA 
DOCKED: ATOM     28  C   UNL     1     144.458  73.542 217.819 -0.14 -0.01    +0.106 A  
DOCKED: ATOM     29  C   UNL     1     144.629  74.002 220.163 -0.41 -0.03    +0.106 A  
DOCKED: ATOM     30  C   UNL     1     145.143  73.389 219.022 -0.29 -0.00    -0.071 A  
DOCKED: ATOM     31  O   UNL     1     146.313  72.642 219.083 -0.31 -1.11    -0.870 OA 
DOCKED: ENDBRANCH  21  25
DOCKED: ENDBRANCH  17  19
DOCKED: ENDBRANCH   1  17
DOCKED: TORSDOF 7
DOCKED: TER
DOCKED: ENDMDL
________________________________________________________________________________


    FINAL DOCKED STATE:
    ________________________


Run:   19 / 20
Time taken for this run:   0.042s

DOCKED: MODEL        19
DOCKED: USER    Run = 19
DOCKED: USER
DOCKED: USER    Estimated Free Energy of Binding    =  -7.57 kcal/mol  [=(1)+(2)+(3)-(4)]
DOCKED: USER
DOCKED: USER    (1) Final Intermolecular Energy     =  -9.65 kcal/mol
DOCKED: USER        vdW + Hbond + desolv Energy     =  -8.68 kcal/mol
DOCKED: USER        Electrostatic Energy            =  -0.98 kcal/mol
DOCKED: USER        Moving Ligand-Fixed Receptor    =  -9.65 kcal/mol
DOCKED: USER        Moving Ligand-Moving Receptor   =  +0.00 kcal/mol
DOCKED: USER    (2) Final Total Internal Energy     =  -1.57 kcal/mol
DOCKED: USER    (3) Torsional Free Energy           =  +2.09 kcal/mol
DOCKED: USER    (4) Unbound System's Energy         =  -1.57 kcal/mol
DOCKED: USER
DOCKED: USER
DOCKED: REMARK SMILES O=C(C/N=C(\O)c1ccc2cc(Cl)ccc2n1)N1CCCC[C@H]1c1ncc([O-])cn1
DOCKED: REMARK SMILES IDX 3 1 4 2 5 3 6 4 7 6 17 7 8 8 16 9 9 10 15 11 10 12 14 13
DOCKED: REMARK SMILES IDX 11 14 12 15 13 16 2 17 1 18 18 19 19 20 23 21 20 22 22 23
DOCKED: REMARK SMILES IDX 21 24 24 25 25 26 30 27 26 28 29 29 27 30 28 31
DOCKED: REMARK H PARENT 6 5
DOCKED: USER                              x       y       z     vdW  Elec       q    Type
DOCKED: USER                           _______ _______ _______ _____ _____    ______ ____
DOCKED: ROOT
DOCKED: ATOM      1  C   UNL     1     139.417  73.195 220.161 -0.05 -0.05    +0.246 C  
DOCKED: ENDROOT
DOCKED: BRANCH   1   2
DOCKED: ATOM      2  N   UNL     1     139.789  71.844 220.581 -0.05 +0.04    -0.240 NA 
DOCKED: BRANCH   2   3
DOCKED: ATOM      3  C   UNL     1     139.086  71.067 221.357 -0.08 -0.04    +0.233 C  
DOCKED: BRANCH   3   4
DOCKED: ATOM      4  O   UNL     1     137.869  70.518 220.939 +0.01 +0.09    -0.492 OA 
DOCKED: ATOM      5  H   UNL     1     137.376  69.799 221.451 +0.05 -0.05    +0.295 HD 
DOCKED: ENDBRANCH   3   4
DOCKED: BRANCH   3   6
DOCKED: ATOM      6  C   UNL     1     139.589  70.760 222.709 -0.21 -0.02    +0.125 A  
DOCKED: ATOM      7  N   UNL     1     139.208  69.604 223.322 -0.12 +0.04    -0.243 NA 
DOCKED: ATOM      8  C   UNL     1     140.456  71.641 223.375 -0.35 -0.00    +0.035 A  
DOCKED: ATOM      9  C   UNL     1     139.641  69.269 224.567 -0.29 -0.01    +0.071 A  
DOCKED: ATOM     10  C   UNL     1     140.917  71.324 224.655 -0.41 -0.00    +0.013 A  
DOCKED: ATOM     11  C   UNL     1     139.224  68.071 225.159 -0.43 -0.00    +0.030 A  
DOCKED: ATOM     12  C   UNL     1     140.512  70.132 225.266 -0.47 -0.00    +0.002 A  
DOCKED: ATOM     13  C   UNL     1     139.669  67.730 226.439 -0.64 -0.00    +0.023 A  
DOCKED: ATOM     14  C   UNL     1     140.957  69.784 226.551 -0.54 -0.01    +0.030 A  
DOCKED: ATOM     15  C   UNL     1     140.534  68.583 227.135 -0.61 -0.01    +0.041 A  
DOCKED: ATOM     16  Cl  UNL     1     141.090  68.148 228.741 -0.69 +0.02    -0.084 Cl 
DOCKED: ENDBRANCH   3   6
DOCKED: ENDBRANCH   2   3
DOCKED: ENDBRANCH   1   2
DOCKED: BRANCH   1  17
DOCKED: ATOM     17  C   UNL     1     139.932  74.225 221.137 -0.17 -0.04    +0.245 C  
DOCKED: ATOM     18  O   UNL     1     139.581  74.131 222.345 -0.81 +0.04    -0.273 OA 
DOCKED: BRANCH  17  19
DOCKED: ATOM     19  N   UNL     1     140.761  75.336 220.717 -0.11 +0.09    -0.331 N  
DOCKED: ATOM     20  C   UNL     1     141.193  76.322 221.726 -0.18 -0.05    +0.120 C  
DOCKED: ATOM     21  C   UNL     1     141.342  75.373 219.356 -0.11 -0.05    +0.153 C  
DOCKED: ATOM     22  C   UNL     1     141.233  77.736 221.144 -0.32 -0.01    +0.022 C  
DOCKED: ATOM     23  C   UNL     1     141.455  76.815 218.825 -0.16 -0.01    +0.033 C  
DOCKED: ATOM     24  C   UNL     1     142.056  77.770 219.858 -0.29 -0.00    +0.004 C  
DOCKED: BRANCH  21  25
DOCKED: ATOM     25  C   UNL     1     142.673  74.663 219.305 -0.17 -0.05    +0.150 A  
DOCKED: ATOM     26  N   UNL     1     143.266  74.377 218.113 -0.07 +0.08    -0.240 NA 
DOCKED: ATOM     27  N   UNL     1     143.270  74.270 220.463 -0.21 +0.08    -0.240 NA 
DOCKED: ATOM     28  C   UNL     1     144.456  73.724 218.060 -0.15 -0.02    +0.106 A  
DOCKED: ATOM     29  C   UNL     1     144.460  73.616 220.453 -0.41 -0.02    +0.106 A  
DOCKED: ATOM     30  C   UNL     1     145.083  73.329 219.240 -0.32 -0.00    -0.071 A  
DOCKED: ATOM     31  O   UNL     1     146.302  72.662 219.208 -0.33 -0.99    -0.870 OA 
DOCKED: ENDBRANCH  21  25
DOCKED: ENDBRANCH  17  19
DOCKED: ENDBRANCH   1  17
DOCKED: TORSDOF 7
DOCKED: TER
DOCKED: ENDMDL
________________________________________________________________________________


    FINAL DOCKED STATE:
    ________________________


Run:   20 / 20
Time taken for this run:   0.042s

DOCKED: MODEL        20
DOCKED: USER    Run = 20
DOCKED: USER
DOCKED: USER    Estimated Free Energy of Binding    =  -7.61 kcal/mol  [=(1)+(2)+(3)-(4)]
DOCKED: USER
DOCKED: USER    (1) Final Intermolecular Energy     =  -9.70 kcal/mol
DOCKED: USER        vdW + Hbond + desolv Energy     =  -8.55 kcal/mol
DOCKED: USER        Electrostatic Energy            =  -1.15 kcal/mol
DOCKED: USER        Moving Ligand-Fixed Receptor    =  -9.70 kcal/mol
DOCKED: USER        Moving Ligand-Moving Receptor   =  +0.00 kcal/mol
DOCKED: USER    (2) Final Total Internal Energy     =  -1.44 kcal/mol
DOCKED: USER    (3) Torsional Free Energy           =  +2.09 kcal/mol
DOCKED: USER    (4) Unbound System's Energy         =  -1.44 kcal/mol
DOCKED: USER
DOCKED: USER
DOCKED: REMARK SMILES O=C(C/N=C(\O)c1ccc2cc(Cl)ccc2n1)N1CCCC[C@H]1c1ncc([O-])cn1
DOCKED: REMARK SMILES IDX 3 1 4 2 5 3 6 4 7 6 17 7 8 8 16 9 9 10 15 11 10 12 14 13
DOCKED: REMARK SMILES IDX 11 14 12 15 13 16 2 17 1 18 18 19 19 20 23 21 20 22 22 23
DOCKED: REMARK SMILES IDX 21 24 24 25 25 26 30 27 26 28 29 29 27 30 28 31
DOCKED: REMARK H PARENT 6 5
DOCKED: USER                              x       y       z     vdW  Elec       q    Type
DOCKED: USER                           _______ _______ _______ _____ _____    ______ ____
DOCKED: ROOT
DOCKED: ATOM      1  C   UNL     1     139.287  73.457 220.225 -0.05 -0.05    +0.246 C  
DOCKED: ENDROOT
DOCKED: BRANCH   1   2
DOCKED: ATOM      2  N   UNL     1     139.437  72.100 220.749 -0.05 +0.04    -0.240 NA 
DOCKED: BRANCH   2   3
DOCKED: ATOM      3  C   UNL     1     138.683  71.546 221.657 -0.09 -0.05    +0.233 C  
DOCKED: BRANCH   3   4
DOCKED: ATOM      4  O   UNL     1     137.320  71.315 221.439 +0.00 +0.09    -0.492 OA 
DOCKED: ATOM      5  H   UNL     1     136.779  70.636 221.957 +0.05 -0.05    +0.295 HD 
DOCKED: ENDBRANCH   3   4
DOCKED: BRANCH   3   6
DOCKED: ATOM      6  C   UNL     1     139.284  71.152 222.946 -0.23 -0.03    +0.125 A  
DOCKED: ATOM      7  N   UNL     1     138.856  70.019 223.570 -0.14 +0.04    -0.243 NA 
DOCKED: ATOM      8  C   UNL     1     140.292  71.929 223.540 -0.36 -0.00    +0.035 A  
DOCKED: ATOM      9  C   UNL     1     139.374  69.608 224.758 -0.33 -0.01    +0.071 A  
DOCKED: ATOM     10  C   UNL     1     140.843  71.532 224.760 -0.42 -0.00    +0.013 A  
DOCKED: ATOM     11  C   UNL     1     138.904  68.437 225.363 -0.42 -0.00    +0.030 A  
DOCKED: ATOM     12  C   UNL     1     140.388  70.364 225.384 -0.50 -0.00    +0.002 A  
DOCKED: ATOM     13  C   UNL     1     139.438  68.017 226.585 -0.58 -0.00    +0.023 A  
DOCKED: ATOM     14  C   UNL     1     140.920  69.938 226.610 -0.54 -0.01    +0.030 A  
DOCKED: ATOM     15  C   UNL     1     140.444  68.765 227.209 -0.60 -0.01    +0.041 A  
DOCKED: ATOM     16  Cl  UNL     1     141.110  68.232 228.741 -0.68 +0.02    -0.084 Cl 
DOCKED: ENDBRANCH   3   6
DOCKED: ENDBRANCH   2   3
DOCKED: ENDBRANCH   1   2
DOCKED: BRANCH   1  17
DOCKED: ATOM     17  C   UNL     1     140.035  74.451 221.081 -0.17 -0.05    +0.245 C  
DOCKED: ATOM     18  O   UNL     1     139.895  74.386 222.332 -0.81 +0.01    -0.273 OA 
DOCKED: BRANCH  17  19
DOCKED: ATOM     19  N   UNL     1     140.853  75.499 220.504 -0.09 +0.10    -0.331 N  
DOCKED: ATOM     20  C   UNL     1     141.335  76.586 221.379 -0.16 -0.06    +0.120 C  
DOCKED: ATOM     21  C   UNL     1     141.377  75.377 219.126 -0.10 -0.05    +0.153 C  
DOCKED: ATOM     22  C   UNL     1     141.361  77.925 220.641 -0.30 -0.01    +0.022 C  
DOCKED: ATOM     23  C   UNL     1     141.478  76.749 218.432 -0.14 -0.01    +0.033 C  
DOCKED: ATOM     24  C   UNL     1     142.128  77.806 219.326 -0.30 -0.00    +0.004 C  
DOCKED: BRANCH  21  25
DOCKED: ATOM     25  C   UNL     1     142.699  74.650 219.099 -0.16 -0.05    +0.150 A  
DOCKED: ATOM     26  N   UNL     1     143.303  74.340 217.918 -0.06 +0.07    -0.240 NA 
DOCKED: ATOM     27  N   UNL     1     143.278  74.266 220.270 -0.20 +0.08    -0.240 NA 
DOCKED: ATOM     28  C   UNL     1     144.485  73.672 217.888 -0.15 -0.02    +0.106 A  
DOCKED: ATOM     29  C   UNL     1     144.460  73.596 220.282 -0.39 -0.02    +0.106 A  
DOCKED: ATOM     30  C   UNL     1     145.093  73.285 219.080 -0.30 -0.00    -0.071 A  
DOCKED: ATOM     31  O   UNL     1     146.304  72.603 219.071 -0.28 -1.13    -0.870 OA 
DOCKED: ENDBRANCH  21  25
DOCKED: ENDBRANCH  17  19
DOCKED: ENDBRANCH   1  17
DOCKED: TORSDOF 7
DOCKED: TER
DOCKED: ENDMDL
________________________________________________________________________________


    CLUSTERING HISTOGRAM
    ____________________


________________________________________________________________________________
     |           |     |           |     |
Clus | Lowest    | Run | Mean      | Num | Histogram
-ter | Binding   |     | Binding   | in  |
Rank | Energy    |     | Energy    | Clus|    5    10   15   20   25   30   35
_____|___________|_____|___________|_____|____:____|____:____|____:____|____:___
   1 |     -8.25 |  14 |     -7.51 |  18 |##################
   2 |     -6.37 |  16 |     -6.37 |   1 |#
   3 |     -6.03 |   8 |     -6.03 |   1 |#
_____|___________|_____|___________|_____|______________________________________


    RMSD TABLE
    __________


_______________________________________________________________________
     |      |      |           |         |                 |
Rank | Sub- | Run  | Binding   | Cluster | Reference       | Grep
     | Rank |      | Energy    | RMSD    | RMSD            | Pattern
_____|______|______|___________|_________|_________________|___________
   1      1     14       -8.25      0.00    269.39           RANKING
   1      2      9       -7.95      1.39    269.15           RANKING
   1      3      1       -7.85      0.77    269.10           RANKING
   1      4      4       -7.82      0.85    269.16           RANKING
   1      5      5       -7.82      0.73    269.14           RANKING
   1      6     11       -7.77      0.78    269.18           RANKING
   1      7     20       -7.61      1.34    269.02           RANKING
   1      8     19       -7.57      1.36    269.03           RANKING
   1      9     18       -7.48      0.94    269.18           RANKING
   1     10      6       -7.48      0.74    269.25           RANKING
   1     11      3       -7.44      0.96    269.15           RANKING
   1     12      2       -7.41      0.94    269.16           RANKING
   1     13     15       -7.34      1.00    269.10           RANKING
   1     14     12       -7.26      0.69    269.38           RANKING
   1     15     17       -7.19      0.96    269.07           RANKING
   1     16     10       -7.08      1.32    269.21           RANKING
   1     17      7       -6.96      1.13    268.79           RANKING
   1     18     13       -6.88      1.30    268.94           RANKING
   2      1     16       -6.37      0.00    268.82           RANKING
   3      1      8       -6.03      0.00    269.30           RANKING

Run time 0.791 sec
Idle time 0.000 sec
