AutoDock-GPU version: v1.6

**********************************************************
**    AutoDock-GPU AUTODOCKTOOLS-COMPATIBLE DLG FILE    **
**********************************************************


    DOCKING PARAMETERS
    ________________________


Ligand file:                               /home/a/REINVENT4/ReinventStudies/pleaseWork/justmol2mol_4_Compounds_ontop/graph-dock-8u2o5u/graph-DockGPU/node-autodockgpu/inputs/ROIVMBRVEAHJIM-SWTVAFTKNA-N.pdbqt
Grid fld file:                             /home/a/REINVENT4/ReinventStudies/mols/Rad51/maps/rad51_receptor.maps.fld

Random seed:                               42
Number of runs:                            20
Number of energy evaluations:              1132076
Number of generations:                     42000
Size of population:                        150
Rate of crossover:                         80.000000%
Tournament selection probability limit:    60.000000%
Rate of mutation:                          2.000000%
Maximal allowed delta movement:            +/- 6.000000A
Maximal allowed delta angle:               +/- 90.000000

Rate of local search:                      100.000000%
Maximal number of local search iterations: 300
Rho lower bound:                           0.010000
Spread of local search delta movement:     2.000000A
Spread of local search delta angle:        74.999999
Limit of consecutive successes/failures:   4

Handle symmetry during clustering:         YES
RMSD tolerance:                            2.000000A

Program call in command line was:          /home/a/REINVENT4/ReinventStudies/adgpu-v1.6_linux_x64_cuda12_128wi --filelist batch.txt --heuristics 1 --nrun 20 --psize 150 --lsit 300 --seed 42 --heurmax 12000000 


    GRID PARAMETERS
    ________________________


Receptor name:                             rad51_receptor
Number of grid points (x, y, z):           53, 53, 53
Grid center (x, y, z):                     139.950000, 75.640000, 221.970000A
Grid size (x, y, z):                       19.500000, 19.500000, 19.500000A
Grid spacing:                              0.375000A


    LIGAND PARAMETERS
    ________________________


Ligand name:                               /home/a/REINVENT4/ReinventStudies/pleaseWork/justmol2mol_4_Compounds_ontop/graph-dock-8u2o5u/graph-DockGPU/node-autodockgpu/inputs/ROIVMBRVEAHJIM-SWTVAFTKNA-N
Number of atoms:                           30
Number of rotatable bonds:                 6
Number of atom types:                      6


    DUMMY DATA (only for ADT-compatibility)
    ________________________


DPF> outlev 1
DPF> ga_run 20
DPF> fld /home/a/REINVENT4/ReinventStudies/mols/Rad51/maps/rad51_receptor.maps.fld
DPF> move /home/a/REINVENT4/ReinventStudies/pleaseWork/justmol2mol_4_Compounds_ontop/graph-dock-8u2o5u/graph-DockGPU/node-autodockgpu/inputs/ROIVMBRVEAHJIM-SWTVAFTKNA-N.pdbqt


    COUNTER STATES
    ________________________


Number of energy evaluations performed:    950269
Number of generations used:                50


    INPUT LIGAND PDBQT FILE:
    ________________________


INPUT-LIGAND-PDBQT: REMARK SMILES O=C(N/C=C(/O)N1CCCC[C@H]1c1ccccc1)c1ccc2ccccc2n1
INPUT-LIGAND-PDBQT: REMARK SMILES IDX 5 1 6 2 4 4 3 5 2 6 1 8 19 9 28 10 20 11 27 12 21 13 26 14
INPUT-LIGAND-PDBQT: REMARK SMILES IDX 22 15 25 16 23 17 24 18 7 19 8 20 12 21 9 22 11 23 10 24
INPUT-LIGAND-PDBQT: REMARK SMILES IDX 13 25 14 26 18 27 15 28 17 29 16 30
INPUT-LIGAND-PDBQT: REMARK H PARENT 6 3 3 7
INPUT-LIGAND-PDBQT: ROOT
INPUT-LIGAND-PDBQT: ATOM      1  C   UNL     1      -1.258   1.973  -0.307  1.00  0.00     0.204 C 
INPUT-LIGAND-PDBQT: ENDROOT
INPUT-LIGAND-PDBQT: BRANCH   1   2
INPUT-LIGAND-PDBQT: ATOM      2  O   UNL     1      -2.589   2.353  -0.460  1.00  0.00    -0.494 OA
INPUT-LIGAND-PDBQT: ATOM      3  H   UNL     1      -3.115   2.090  -1.284  1.00  0.00     0.295 HD
INPUT-LIGAND-PDBQT: ENDBRANCH   1   2
INPUT-LIGAND-PDBQT: BRANCH   1   4
INPUT-LIGAND-PDBQT: ATOM      4  C   UNL     1      -0.601   2.352   0.796  1.00  0.00     0.152 C 
INPUT-LIGAND-PDBQT: BRANCH   4   5
INPUT-LIGAND-PDBQT: ATOM      5  N   UNL     1       0.739   1.916   1.077  1.00  0.00    -0.322 N 
INPUT-LIGAND-PDBQT: ATOM      6  C   UNL     1       1.472   2.393   2.216  1.00  0.00     0.273 C 
INPUT-LIGAND-PDBQT: ATOM      7  H   UNL     1       1.182   1.196   0.467  1.00  0.00     0.169 HD
INPUT-LIGAND-PDBQT: ATOM      8  O   UNL     1       0.961   3.263   2.975  1.00  0.00    -0.267 OA
INPUT-LIGAND-PDBQT: BRANCH   6   9
INPUT-LIGAND-PDBQT: ATOM      9  C   UNL     1       2.826   1.870   2.503  1.00  0.00     0.129 A 
INPUT-LIGAND-PDBQT: ATOM     10  N   UNL     1       3.342   0.873   1.729  1.00  0.00    -0.243 NA
INPUT-LIGAND-PDBQT: ATOM     11  C   UNL     1       3.594   2.387   3.561  1.00  0.00     0.035 A 
INPUT-LIGAND-PDBQT: ATOM     12  C   UNL     1       4.581   0.356   1.941  1.00  0.00     0.071 A 
INPUT-LIGAND-PDBQT: ATOM     13  C   UNL     1       4.873   1.878   3.802  1.00  0.00     0.013 A 
INPUT-LIGAND-PDBQT: ATOM     14  C   UNL     1       5.067  -0.665   1.116  1.00  0.00     0.029 A 
INPUT-LIGAND-PDBQT: ATOM     15  C   UNL     1       5.381   0.855   2.991  1.00  0.00     0.000 A 
INPUT-LIGAND-PDBQT: ATOM     16  C   UNL     1       6.347  -1.189   1.330  1.00  0.00     0.002 A 
INPUT-LIGAND-PDBQT: ATOM     17  C   UNL     1       6.663   0.323   3.201  1.00  0.00     0.010 A 
INPUT-LIGAND-PDBQT: ATOM     18  C   UNL     1       7.143  -0.697   2.369  1.00  0.00     0.001 A 
INPUT-LIGAND-PDBQT: ENDBRANCH   6   9
INPUT-LIGAND-PDBQT: ENDBRANCH   4   5
INPUT-LIGAND-PDBQT: ENDBRANCH   1   4
INPUT-LIGAND-PDBQT: BRANCH   1  19
INPUT-LIGAND-PDBQT: ATOM     19  N   UNL     1      -0.622   1.186  -1.332  1.00  0.00    -0.335 N 
INPUT-LIGAND-PDBQT: ATOM     20  C   UNL     1       0.350   1.872  -2.203  1.00  0.00     0.120 C 
INPUT-LIGAND-PDBQT: ATOM     21  C   UNL     1      -1.223  -0.091  -1.768  1.00  0.00     0.115 C 
INPUT-LIGAND-PDBQT: ATOM     22  C   UNL     1       0.382   1.251  -3.604  1.00  0.00     0.022 C 
INPUT-LIGAND-PDBQT: ATOM     23  C   UNL     1      -0.155  -0.983  -2.440  1.00  0.00     0.030 C 
INPUT-LIGAND-PDBQT: ATOM     24  C   UNL     1       0.655  -0.258  -3.535  1.00  0.00     0.004 C 
INPUT-LIGAND-PDBQT: BRANCH  21  25
INPUT-LIGAND-PDBQT: ATOM     25  C   UNL     1      -1.871  -0.839  -0.613  1.00  0.00    -0.025 A 
INPUT-LIGAND-PDBQT: ATOM     26  C   UNL     1      -1.137  -1.158   0.546  1.00  0.00     0.006 A 
INPUT-LIGAND-PDBQT: ATOM     27  C   UNL     1      -3.220  -1.228  -0.694  1.00  0.00     0.006 A 
INPUT-LIGAND-PDBQT: ATOM     28  C   UNL     1      -1.746  -1.837   1.606  1.00  0.00     0.000 A 
INPUT-LIGAND-PDBQT: ATOM     29  C   UNL     1      -3.823  -1.910   0.367  1.00  0.00     0.000 A 
INPUT-LIGAND-PDBQT: ATOM     30  C   UNL     1      -3.088  -2.212   1.516  1.00  0.00     0.000 A 
INPUT-LIGAND-PDBQT: ENDBRANCH  21  25
INPUT-LIGAND-PDBQT: ENDBRANCH   1  19
INPUT-LIGAND-PDBQT: TORSDOF 6


    FINAL DOCKED STATE:
    ________________________


Run:   1 / 20
Time taken for this run:   0.039s

DOCKED: MODEL        1
DOCKED: USER    Run = 1
DOCKED: USER
DOCKED: USER    Estimated Free Energy of Binding    =  -8.83 kcal/mol  [=(1)+(2)+(3)-(4)]
DOCKED: USER
DOCKED: USER    (1) Final Intermolecular Energy     = -10.62 kcal/mol
DOCKED: USER        vdW + Hbond + desolv Energy     = -10.36 kcal/mol
DOCKED: USER        Electrostatic Energy            =  -0.26 kcal/mol
DOCKED: USER        Moving Ligand-Fixed Receptor    = -10.62 kcal/mol
DOCKED: USER        Moving Ligand-Moving Receptor   =  +0.00 kcal/mol
DOCKED: USER    (2) Final Total Internal Energy     =  -1.10 kcal/mol
DOCKED: USER    (3) Torsional Free Energy           =  +1.79 kcal/mol
DOCKED: USER    (4) Unbound System's Energy         =  -1.10 kcal/mol
DOCKED: USER
DOCKED: USER
DOCKED: REMARK SMILES O=C(N/C=C(/O)N1CCCC[C@H]1c1ccccc1)c1ccc2ccccc2n1
DOCKED: REMARK SMILES IDX 5 1 6 2 4 4 3 5 2 6 1 8 19 9 28 10 20 11 27 12 21 13 26 14
DOCKED: REMARK SMILES IDX 22 15 25 16 23 17 24 18 7 19 8 20 12 21 9 22 11 23 10 24
DOCKED: REMARK SMILES IDX 13 25 14 26 18 27 15 28 17 29 16 30
DOCKED: REMARK H PARENT 6 3 3 7
DOCKED: USER                              x       y       z     vdW  Elec       q    Type
DOCKED: USER                           _______ _______ _______ _____ _____    ______ ____
DOCKED: ROOT
DOCKED: ATOM      1  C   UNL     1     140.684  75.767 221.439 -0.26 -0.06    +0.204 C  
DOCKED: ENDROOT
DOCKED: BRANCH   1   2
DOCKED: ATOM      2  O   UNL     1     141.185  76.055 222.706 -0.03 +0.14    -0.494 OA 
DOCKED: ATOM      3  H   UNL     1     142.139  76.370 222.830 -0.35 -0.25    +0.295 HD 
DOCKED: ENDBRANCH   1   2
DOCKED: BRANCH   1   4
DOCKED: ATOM      4  C   UNL     1     139.760  74.806 221.313 -0.22 -0.03    +0.152 C  
DOCKED: BRANCH   4   5
DOCKED: ATOM      5  N   UNL     1     139.564  73.796 222.316 -0.12 +0.05    -0.322 N  
DOCKED: ATOM      6  C   UNL     1     140.391  72.624 222.389 -0.20 -0.02    +0.273 C  
DOCKED: ATOM      7  H   UNL     1     138.833  73.934 223.046 -0.55 -0.10    +0.169 HD 
DOCKED: ATOM      8  O   UNL     1     141.287  72.430 221.521 -0.20 +0.03    -0.267 OA 
DOCKED: BRANCH   6   9
DOCKED: ATOM      9  C   UNL     1     140.195  71.640 223.476 -0.32 -0.02    +0.129 A  
DOCKED: ATOM     10  N   UNL     1     140.699  71.897 224.717 -0.26 +0.03    -0.243 NA 
DOCKED: ATOM     11  C   UNL     1     139.492  70.443 223.254 -0.27 -0.01    +0.035 A  
DOCKED: ATOM     12  C   UNL     1     140.547  71.034 225.756 -0.53 -0.01    +0.071 A  
DOCKED: ATOM     13  C   UNL     1     139.316  69.537 224.303 -0.33 -0.00    +0.013 A  
DOCKED: ATOM     14  C   UNL     1     141.081  71.345 227.012 -0.70 -0.00    +0.029 A  
DOCKED: ATOM     15  C   UNL     1     139.843  69.825 225.569 -0.46 -0.00    +0.000 A  
DOCKED: ATOM     16  C   UNL     1     140.914  70.459 228.083 -0.62 -0.00    +0.002 A  
DOCKED: ATOM     17  C   UNL     1     139.681  68.941 226.647 -0.55 -0.00    +0.010 A  
DOCKED: ATOM     18  C   UNL     1     140.217  69.261 227.902 -0.64 -0.00    +0.001 A  
DOCKED: ENDBRANCH   6   9
DOCKED: ENDBRANCH   4   5
DOCKED: ENDBRANCH   1   4
DOCKED: BRANCH   1  19
DOCKED: ATOM     19  N   UNL     1     141.167  76.504 220.300 -0.09 +0.14    -0.335 N  
DOCKED: ATOM     20  C   UNL     1     141.301  75.769 219.029 -0.10 -0.04    +0.120 C  
DOCKED: ATOM     21  C   UNL     1     141.895  77.775 220.492 -0.24 -0.07    +0.115 C  
DOCKED: ATOM     22  C   UNL     1     142.437  76.337 218.171 -0.22 -0.01    +0.022 C  
DOCKED: ATOM     23  C   UNL     1     141.842  78.622 219.200 -0.27 -0.02    +0.030 C  
DOCKED: ATOM     24  C   UNL     1     142.252  77.842 217.933 -0.27 -0.00    +0.004 C  
DOCKED: BRANCH  21  25
DOCKED: ATOM     25  C   UNL     1     141.342  78.576 221.660 -0.37 +0.01    -0.025 A  
DOCKED: ATOM     26  C   UNL     1     139.966  78.862 221.756 -0.25 -0.00    +0.006 A  
DOCKED: ATOM     27  C   UNL     1     142.208  79.049 222.662 -0.54 -0.00    +0.006 A  
DOCKED: ATOM     28  C   UNL     1     139.468  79.591 222.841 -0.34 -0.00    +0.000 A  
DOCKED: ATOM     29  C   UNL     1     141.706  79.781 223.742 -0.60 -0.00    +0.000 A  
DOCKED: ATOM     30  C   UNL     1     140.338  80.050 223.833 -0.45 -0.00    +0.000 A  
DOCKED: ENDBRANCH  21  25
DOCKED: ENDBRANCH   1  19
DOCKED: TORSDOF 6
DOCKED: TER
DOCKED: ENDMDL
________________________________________________________________________________


    FINAL DOCKED STATE:
    ________________________


Run:   2 / 20
Time taken for this run:   0.039s

DOCKED: MODEL        2
DOCKED: USER    Run = 2
DOCKED: USER
DOCKED: USER    Estimated Free Energy of Binding    =  -8.46 kcal/mol  [=(1)+(2)+(3)-(4)]
DOCKED: USER
DOCKED: USER    (1) Final Intermolecular Energy     = -10.25 kcal/mol
DOCKED: USER        vdW + Hbond + desolv Energy     = -10.08 kcal/mol
DOCKED: USER        Electrostatic Energy            =  -0.17 kcal/mol
DOCKED: USER        Moving Ligand-Fixed Receptor    = -10.25 kcal/mol
DOCKED: USER        Moving Ligand-Moving Receptor   =  +0.00 kcal/mol
DOCKED: USER    (2) Final Total Internal Energy     =  -1.67 kcal/mol
DOCKED: USER    (3) Torsional Free Energy           =  +1.79 kcal/mol
DOCKED: USER    (4) Unbound System's Energy         =  -1.67 kcal/mol
DOCKED: USER
DOCKED: USER
DOCKED: REMARK SMILES O=C(N/C=C(/O)N1CCCC[C@H]1c1ccccc1)c1ccc2ccccc2n1
DOCKED: REMARK SMILES IDX 5 1 6 2 4 4 3 5 2 6 1 8 19 9 28 10 20 11 27 12 21 13 26 14
DOCKED: REMARK SMILES IDX 22 15 25 16 23 17 24 18 7 19 8 20 12 21 9 22 11 23 10 24
DOCKED: REMARK SMILES IDX 13 25 14 26 18 27 15 28 17 29 16 30
DOCKED: REMARK H PARENT 6 3 3 7
DOCKED: USER                              x       y       z     vdW  Elec       q    Type
DOCKED: USER                           _______ _______ _______ _____ _____    ______ ____
DOCKED: ROOT
DOCKED: ATOM      1  C   UNL     1     140.978  75.433 221.107 -0.23 -0.06    +0.204 C  
DOCKED: ENDROOT
DOCKED: BRANCH   1   2
DOCKED: ATOM      2  O   UNL     1     141.238  76.010 222.348 -0.20 +0.16    -0.494 OA 
DOCKED: ATOM      3  H   UNL     1     142.147  76.401 222.561 -0.39 -0.27    +0.295 HD 
DOCKED: ENDBRANCH   1   2
DOCKED: BRANCH   1   4
DOCKED: ATOM      4  C   UNL     1     140.297  74.282 221.060 -0.21 -0.03    +0.152 C  
DOCKED: BRANCH   4   5
DOCKED: ATOM      5  N   UNL     1     140.056  73.486 222.232 -0.14 +0.03    -0.322 N  
DOCKED: ATOM      6  C   UNL     1     140.421  72.099 222.298 -0.20 -0.03    +0.273 C  
DOCKED: ATOM      7  H   UNL     1     139.649  73.933 223.080 -0.47 -0.01    +0.169 HD 
DOCKED: ATOM      8  O   UNL     1     140.920  71.529 221.287 -0.13 +0.03    -0.267 OA 
DOCKED: BRANCH   6   9
DOCKED: ATOM      9  C   UNL     1     140.213  71.332 223.546 -0.32 -0.02    +0.129 A  
DOCKED: ATOM     10  N   UNL     1     140.658  71.839 224.731 -0.27 +0.03    -0.243 NA 
DOCKED: ATOM     11  C   UNL     1     139.559  70.088 223.533 -0.27 -0.01    +0.035 A  
DOCKED: ATOM     12  C   UNL     1     140.492  71.184 225.910 -0.54 -0.01    +0.071 A  
DOCKED: ATOM     13  C   UNL     1     139.370  69.391 224.730 -0.37 -0.00    +0.013 A  
DOCKED: ATOM     14  C   UNL     1     140.964  71.749 227.101 -0.75 -0.01    +0.029 A  
DOCKED: ATOM     15  C   UNL     1     139.835  69.935 225.934 -0.48 -0.00    +0.000 A  
DOCKED: ATOM     16  C   UNL     1     140.782  71.077 228.315 -0.67 -0.00    +0.002 A  
DOCKED: ATOM     17  C   UNL     1     139.659  69.266 227.156 -0.56 -0.00    +0.010 A  
DOCKED: ATOM     18  C   UNL     1     140.132  69.839 228.343 -0.61 -0.00    +0.001 A  
DOCKED: ENDBRANCH   6   9
DOCKED: ENDBRANCH   4   5
DOCKED: ENDBRANCH   1   4
DOCKED: BRANCH   1  19
DOCKED: ATOM     19  N   UNL     1     141.444  76.085 219.910 -0.08 +0.14    -0.335 N  
DOCKED: ATOM     20  C   UNL     1     140.713  77.287 219.468 -0.11 -0.05    +0.120 C  
DOCKED: ATOM     21  C   UNL     1     142.302  75.355 218.954 -0.17 -0.05    +0.115 C  
DOCKED: ATOM     22  C   UNL     1     140.758  77.440 217.944 -0.08 -0.01    +0.022 C  
DOCKED: ATOM     23  C   UNL     1     143.089  76.352 218.073 -0.27 -0.02    +0.030 C  
DOCKED: ATOM     24  C   UNL     1     142.204  77.439 217.429 -0.22 -0.00    +0.004 C  
DOCKED: BRANCH  21  25
DOCKED: ATOM     25  C   UNL     1     143.265  74.412 219.657 -0.30 +0.01    -0.025 A  
DOCKED: ATOM     26  C   UNL     1     142.979  73.038 219.773 -0.22 -0.00    +0.006 A  
DOCKED: ATOM     27  C   UNL     1     144.460  74.908 220.209 -0.40 -0.00    +0.006 A  
DOCKED: ATOM     28  C   UNL     1     143.877  72.178 220.413 -0.33 -0.00    +0.000 A  
DOCKED: ATOM     29  C   UNL     1     145.352  74.045 220.851 -0.60 -0.00    +0.000 A  
DOCKED: ATOM     30  C   UNL     1     145.063  72.682 220.951 -0.48 -0.00    +0.000 A  
DOCKED: ENDBRANCH  21  25
DOCKED: ENDBRANCH   1  19
DOCKED: TORSDOF 6
DOCKED: TER
DOCKED: ENDMDL
________________________________________________________________________________


    FINAL DOCKED STATE:
    ________________________


Run:   3 / 20
Time taken for this run:   0.039s

DOCKED: MODEL        3
DOCKED: USER    Run = 3
DOCKED: USER
DOCKED: USER    Estimated Free Energy of Binding    =  -8.49 kcal/mol  [=(1)+(2)+(3)-(4)]
DOCKED: USER
DOCKED: USER    (1) Final Intermolecular Energy     = -10.28 kcal/mol
DOCKED: USER        vdW + Hbond + desolv Energy     = -10.10 kcal/mol
DOCKED: USER        Electrostatic Energy            =  -0.19 kcal/mol
DOCKED: USER        Moving Ligand-Fixed Receptor    = -10.28 kcal/mol
DOCKED: USER        Moving Ligand-Moving Receptor   =  +0.00 kcal/mol
DOCKED: USER    (2) Final Total Internal Energy     =  -1.63 kcal/mol
DOCKED: USER    (3) Torsional Free Energy           =  +1.79 kcal/mol
DOCKED: USER    (4) Unbound System's Energy         =  -1.63 kcal/mol
DOCKED: USER
DOCKED: USER
DOCKED: REMARK SMILES O=C(N/C=C(/O)N1CCCC[C@H]1c1ccccc1)c1ccc2ccccc2n1
DOCKED: REMARK SMILES IDX 5 1 6 2 4 4 3 5 2 6 1 8 19 9 28 10 20 11 27 12 21 13 26 14
DOCKED: REMARK SMILES IDX 22 15 25 16 23 17 24 18 7 19 8 20 12 21 9 22 11 23 10 24
DOCKED: REMARK SMILES IDX 13 25 14 26 18 27 15 28 17 29 16 30
DOCKED: REMARK H PARENT 6 3 3 7
DOCKED: USER                              x       y       z     vdW  Elec       q    Type
DOCKED: USER                           _______ _______ _______ _____ _____    ______ ____
DOCKED: ROOT
DOCKED: ATOM      1  C   UNL     1     141.010  75.456 221.125 -0.24 -0.06    +0.204 C  
DOCKED: ENDROOT
DOCKED: BRANCH   1   2
DOCKED: ATOM      2  O   UNL     1     141.268  76.011 222.376 -0.17 +0.16    -0.494 OA 
DOCKED: ATOM      3  H   UNL     1     142.180  76.391 222.600 -0.39 -0.28    +0.295 HD 
DOCKED: ENDBRANCH   1   2
DOCKED: BRANCH   1   4
DOCKED: ATOM      4  C   UNL     1     140.336  74.302 221.057 -0.21 -0.03    +0.152 C  
DOCKED: BRANCH   4   5
DOCKED: ATOM      5  N   UNL     1     140.064  73.504 222.221 -0.13 +0.03    -0.322 N  
DOCKED: ATOM      6  C   UNL     1     140.498  72.139 222.328 -0.20 -0.03    +0.273 C  
DOCKED: ATOM      7  H   UNL     1     139.580  73.937 223.037 -0.48 -0.02    +0.169 HD 
DOCKED: ATOM      8  O   UNL     1     141.091  71.589 221.358 -0.14 +0.03    -0.267 OA 
DOCKED: BRANCH   6   9
DOCKED: ATOM      9  C   UNL     1     140.252  71.374 223.570 -0.32 -0.02    +0.129 A  
DOCKED: ATOM     10  N   UNL     1     140.710  71.856 224.761 -0.27 +0.03    -0.243 NA 
DOCKED: ATOM     11  C   UNL     1     139.549  70.157 223.545 -0.27 -0.01    +0.035 A  
DOCKED: ATOM     12  C   UNL     1     140.511  71.200 225.935 -0.55 -0.01    +0.071 A  
DOCKED: ATOM     13  C   UNL     1     139.325  69.462 224.736 -0.37 -0.00    +0.013 A  
DOCKED: ATOM     14  C   UNL     1     140.998  71.738 227.131 -0.76 -0.01    +0.029 A  
DOCKED: ATOM     15  C   UNL     1     139.804  69.978 225.946 -0.48 -0.00    +0.000 A  
DOCKED: ATOM     16  C   UNL     1     140.783  71.066 228.340 -0.66 -0.00    +0.002 A  
DOCKED: ATOM     17  C   UNL     1     139.594  69.309 227.162 -0.55 -0.00    +0.010 A  
DOCKED: ATOM     18  C   UNL     1     140.083  69.856 228.356 -0.60 -0.00    +0.001 A  
DOCKED: ENDBRANCH   6   9
DOCKED: ENDBRANCH   4   5
DOCKED: ENDBRANCH   1   4
DOCKED: BRANCH   1  19
DOCKED: ATOM     19  N   UNL     1     141.470  76.133 219.940 -0.08 +0.14    -0.335 N  
DOCKED: ATOM     20  C   UNL     1     140.741  77.348 219.531 -0.12 -0.05    +0.120 C  
DOCKED: ATOM     21  C   UNL     1     142.317  75.422 218.960 -0.18 -0.05    +0.115 C  
DOCKED: ATOM     22  C   UNL     1     140.774  77.536 218.010 -0.09 -0.01    +0.022 C  
DOCKED: ATOM     23  C   UNL     1     143.101  76.436 218.097 -0.28 -0.02    +0.030 C  
DOCKED: ATOM     24  C   UNL     1     142.216  77.541 217.484 -0.23 -0.00    +0.004 C  
DOCKED: BRANCH  21  25
DOCKED: ATOM     25  C   UNL     1     143.281  74.459 219.634 -0.31 +0.01    -0.025 A  
DOCKED: ATOM     26  C   UNL     1     143.011  73.078 219.683 -0.21 -0.00    +0.006 A  
DOCKED: ATOM     27  C   UNL     1     144.461  74.943 220.227 -0.38 -0.00    +0.006 A  
DOCKED: ATOM     28  C   UNL     1     143.910  72.200 220.296 -0.33 -0.00    +0.000 A  
DOCKED: ATOM     29  C   UNL     1     145.355  74.062 220.842 -0.61 -0.00    +0.000 A  
DOCKED: ATOM     30  C   UNL     1     145.081  72.693 220.875 -0.50 -0.00    +0.000 A  
DOCKED: ENDBRANCH  21  25
DOCKED: ENDBRANCH   1  19
DOCKED: TORSDOF 6
DOCKED: TER
DOCKED: ENDMDL
________________________________________________________________________________


    FINAL DOCKED STATE:
    ________________________


Run:   4 / 20
Time taken for this run:   0.039s

DOCKED: MODEL        4
DOCKED: USER    Run = 4
DOCKED: USER
DOCKED: USER    Estimated Free Energy of Binding    =  -8.73 kcal/mol  [=(1)+(2)+(3)-(4)]
DOCKED: USER
DOCKED: USER    (1) Final Intermolecular Energy     = -10.52 kcal/mol
DOCKED: USER        vdW + Hbond + desolv Energy     = -10.40 kcal/mol
DOCKED: USER        Electrostatic Energy            =  -0.12 kcal/mol
DOCKED: USER        Moving Ligand-Fixed Receptor    = -10.52 kcal/mol
DOCKED: USER        Moving Ligand-Moving Receptor   =  +0.00 kcal/mol
DOCKED: USER    (2) Final Total Internal Energy     =  -0.98 kcal/mol
DOCKED: USER    (3) Torsional Free Energy           =  +1.79 kcal/mol
DOCKED: USER    (4) Unbound System's Energy         =  -0.98 kcal/mol
DOCKED: USER
DOCKED: USER
DOCKED: REMARK SMILES O=C(N/C=C(/O)N1CCCC[C@H]1c1ccccc1)c1ccc2ccccc2n1
DOCKED: REMARK SMILES IDX 5 1 6 2 4 4 3 5 2 6 1 8 19 9 28 10 20 11 27 12 21 13 26 14
DOCKED: REMARK SMILES IDX 22 15 25 16 23 17 24 18 7 19 8 20 12 21 9 22 11 23 10 24
DOCKED: REMARK SMILES IDX 13 25 14 26 18 27 15 28 17 29 16 30
DOCKED: REMARK H PARENT 6 3 3 7
DOCKED: USER                              x       y       z     vdW  Elec       q    Type
DOCKED: USER                           _______ _______ _______ _____ _____    ______ ____
DOCKED: ROOT
DOCKED: ATOM      1  C   UNL     1     139.768  76.385 222.174 -0.27 -0.04    +0.204 C  
DOCKED: ENDROOT
DOCKED: BRANCH   1   2
DOCKED: ATOM      2  O   UNL     1     141.076  76.762 222.466 -0.19 +0.19    -0.494 OA 
DOCKED: ATOM      3  H   UNL     1     141.864  76.276 222.056 -0.44 -0.19    +0.295 HD 
DOCKED: ENDBRANCH   1   2
DOCKED: BRANCH   1   4
DOCKED: ATOM      4  C   UNL     1     139.554  75.204 221.581 -0.24 -0.03    +0.152 C  
DOCKED: BRANCH   4   5
DOCKED: ATOM      5  N   UNL     1     139.349  73.996 222.332 -0.09 +0.07    -0.322 N  
DOCKED: ATOM      6  C   UNL     1     140.357  72.978 222.428 -0.08 -0.02    +0.273 C  
DOCKED: ATOM      7  H   UNL     1     138.462  73.869 222.866 -0.55 -0.10    +0.169 HD 
DOCKED: ATOM      8  O   UNL     1     141.442  73.104 221.795 -0.29 +0.01    -0.267 OA 
DOCKED: BRANCH   6   9
DOCKED: ATOM      9  C   UNL     1     140.127  71.778 223.263 -0.31 -0.02    +0.129 A  
DOCKED: ATOM     10  N   UNL     1     140.611  71.742 224.538 -0.27 +0.03    -0.243 NA 
DOCKED: ATOM     11  C   UNL     1     139.415  70.673 222.766 -0.23 -0.01    +0.035 A  
DOCKED: ATOM     12  C   UNL     1     140.427  70.671 225.354 -0.48 -0.01    +0.071 A  
DOCKED: ATOM     13  C   UNL     1     139.207  69.558 223.582 -0.27 -0.00    +0.013 A  
DOCKED: ATOM     14  C   UNL     1     140.941  70.683 226.656 -0.60 -0.00    +0.029 A  
DOCKED: ATOM     15  C   UNL     1     139.712  69.546 224.889 -0.39 -0.00    +0.000 A  
DOCKED: ATOM     16  C   UNL     1     140.742  69.583 227.498 -0.60 -0.00    +0.002 A  
DOCKED: ATOM     17  C   UNL     1     139.519  68.446 225.738 -0.51 -0.00    +0.010 A  
DOCKED: ATOM     18  C   UNL     1     140.034  68.467 227.041 -0.64 -0.00    +0.001 A  
DOCKED: ENDBRANCH   6   9
DOCKED: ENDBRANCH   4   5
DOCKED: ENDBRANCH   1   4
DOCKED: BRANCH   1  19
DOCKED: ATOM     19  N   UNL     1     138.682  77.267 222.513 -0.15 +0.06    -0.335 N  
DOCKED: ATOM     20  C   UNL     1     137.364  76.652 222.756 -0.23 -0.02    +0.120 C  
DOCKED: ATOM     21  C   UNL     1     138.772  78.709 222.204 -0.20 -0.02    +0.115 C  
DOCKED: ATOM     22  C   UNL     1     136.224  77.601 222.369 -0.15 -0.00    +0.022 C  
DOCKED: ATOM     23  C   UNL     1     137.795  79.509 223.095 -0.25 -0.00    +0.030 C  
DOCKED: ATOM     24  C   UNL     1     136.357  78.949 223.091 -0.17 -0.00    +0.004 C  
DOCKED: BRANCH  21  25
DOCKED: ATOM     25  C   UNL     1     140.186  79.241 222.379 -0.32 +0.01    -0.025 A  
DOCKED: ATOM     26  C   UNL     1     140.954  79.635 221.266 -0.30 -0.00    +0.006 A  
DOCKED: ATOM     27  C   UNL     1     140.748  79.341 223.664 -0.52 -0.00    +0.006 A  
DOCKED: ATOM     28  C   UNL     1     142.249  80.133 221.439 -0.39 -0.00    +0.000 A  
DOCKED: ATOM     29  C   UNL     1     142.045  79.835 223.831 -0.63 -0.00    +0.000 A  
DOCKED: ATOM     30  C   UNL     1     142.793  80.233 222.721 -0.63 -0.00    +0.000 A  
DOCKED: ENDBRANCH  21  25
DOCKED: ENDBRANCH   1  19
DOCKED: TORSDOF 6
DOCKED: TER
DOCKED: ENDMDL
________________________________________________________________________________


    FINAL DOCKED STATE:
    ________________________


Run:   5 / 20
Time taken for this run:   0.039s

DOCKED: MODEL        5
DOCKED: USER    Run = 5
DOCKED: USER
DOCKED: USER    Estimated Free Energy of Binding    =  -8.86 kcal/mol  [=(1)+(2)+(3)-(4)]
DOCKED: USER
DOCKED: USER    (1) Final Intermolecular Energy     = -10.65 kcal/mol
DOCKED: USER        vdW + Hbond + desolv Energy     = -10.39 kcal/mol
DOCKED: USER        Electrostatic Energy            =  -0.26 kcal/mol
DOCKED: USER        Moving Ligand-Fixed Receptor    = -10.65 kcal/mol
DOCKED: USER        Moving Ligand-Moving Receptor   =  +0.00 kcal/mol
DOCKED: USER    (2) Final Total Internal Energy     =  -1.09 kcal/mol
DOCKED: USER    (3) Torsional Free Energy           =  +1.79 kcal/mol
DOCKED: USER    (4) Unbound System's Energy         =  -1.09 kcal/mol
DOCKED: USER
DOCKED: USER
DOCKED: REMARK SMILES O=C(N/C=C(/O)N1CCCC[C@H]1c1ccccc1)c1ccc2ccccc2n1
DOCKED: REMARK SMILES IDX 5 1 6 2 4 4 3 5 2 6 1 8 19 9 28 10 20 11 27 12 21 13 26 14
DOCKED: REMARK SMILES IDX 22 15 25 16 23 17 24 18 7 19 8 20 12 21 9 22 11 23 10 24
DOCKED: REMARK SMILES IDX 13 25 14 26 18 27 15 28 17 29 16 30
DOCKED: REMARK H PARENT 6 3 3 7
DOCKED: USER                              x       y       z     vdW  Elec       q    Type
DOCKED: USER                           _______ _______ _______ _____ _____    ______ ____
DOCKED: ROOT
DOCKED: ATOM      1  C   UNL     1     140.708  75.746 221.414 -0.26 -0.06    +0.204 C  
DOCKED: ENDROOT
DOCKED: BRANCH   1   2
DOCKED: ATOM      2  O   UNL     1     141.182  76.060 222.686 -0.04 +0.14    -0.494 OA 
DOCKED: ATOM      3  H   UNL     1     142.136  76.367 222.826 -0.36 -0.25    +0.295 HD 
DOCKED: ENDBRANCH   1   2
DOCKED: BRANCH   1   4
DOCKED: ATOM      4  C   UNL     1     139.824  74.750 221.282 -0.22 -0.03    +0.152 C  
DOCKED: BRANCH   4   5
DOCKED: ATOM      5  N   UNL     1     139.611  73.773 222.314 -0.12 +0.05    -0.322 N  
DOCKED: ATOM      6  C   UNL     1     140.377  72.560 222.384 -0.20 -0.03    +0.273 C  
DOCKED: ATOM      7  H   UNL     1     138.915  73.965 223.066 -0.55 -0.10    +0.169 HD 
DOCKED: ATOM      8  O   UNL     1     141.230  72.301 221.489 -0.19 +0.03    -0.267 OA 
DOCKED: BRANCH   6   9
DOCKED: ATOM      9  C   UNL     1     140.169  71.611 223.499 -0.32 -0.02    +0.129 A  
DOCKED: ATOM     10  N   UNL     1     140.688  71.891 224.729 -0.27 +0.03    -0.243 NA 
DOCKED: ATOM     11  C   UNL     1     139.440  70.423 223.315 -0.27 -0.01    +0.035 A  
DOCKED: ATOM     12  C   UNL     1     140.526  71.060 225.792 -0.54 -0.01    +0.071 A  
DOCKED: ATOM     13  C   UNL     1     139.253  69.550 224.390 -0.34 -0.00    +0.013 A  
DOCKED: ATOM     14  C   UNL     1     141.075  71.394 227.035 -0.71 -0.00    +0.029 A  
DOCKED: ATOM     15  C   UNL     1     139.795  69.862 225.643 -0.46 -0.00    +0.000 A  
DOCKED: ATOM     16  C   UNL     1     140.899  70.542 228.131 -0.63 -0.00    +0.002 A  
DOCKED: ATOM     17  C   UNL     1     139.624  69.011 226.747 -0.55 -0.00    +0.010 A  
DOCKED: ATOM     18  C   UNL     1     140.175  69.354 227.988 -0.64 -0.00    +0.001 A  
DOCKED: ENDBRANCH   6   9
DOCKED: ENDBRANCH   4   5
DOCKED: ENDBRANCH   1   4
DOCKED: BRANCH   1  19
DOCKED: ATOM     19  N   UNL     1     141.178  76.495 220.277 -0.09 +0.14    -0.335 N  
DOCKED: ATOM     20  C   UNL     1     141.322  75.767 219.003 -0.10 -0.04    +0.120 C  
DOCKED: ATOM     21  C   UNL     1     141.885  77.777 220.472 -0.25 -0.07    +0.115 C  
DOCKED: ATOM     22  C   UNL     1     142.447  76.357 218.146 -0.22 -0.01    +0.022 C  
DOCKED: ATOM     23  C   UNL     1     141.816  78.628 219.184 -0.27 -0.02    +0.030 C  
DOCKED: ATOM     24  C   UNL     1     142.237  77.860 217.914 -0.27 -0.00    +0.004 C  
DOCKED: BRANCH  21  25
DOCKED: ATOM     25  C   UNL     1     141.321  78.566 221.645 -0.37 +0.01    -0.025 A  
DOCKED: ATOM     26  C   UNL     1     139.942  78.838 221.738 -0.25 -0.00    +0.006 A  
DOCKED: ATOM     27  C   UNL     1     142.179  79.039 222.653 -0.54 -0.00    +0.006 A  
DOCKED: ATOM     28  C   UNL     1     139.434  79.555 222.826 -0.34 -0.00    +0.000 A  
DOCKED: ATOM     29  C   UNL     1     141.666  79.759 223.736 -0.60 -0.00    +0.000 A  
DOCKED: ATOM     30  C   UNL     1     140.296  80.014 223.824 -0.45 -0.00    +0.000 A  
DOCKED: ENDBRANCH  21  25
DOCKED: ENDBRANCH   1  19
DOCKED: TORSDOF 6
DOCKED: TER
DOCKED: ENDMDL
________________________________________________________________________________


    FINAL DOCKED STATE:
    ________________________


Run:   6 / 20
Time taken for this run:   0.039s

DOCKED: MODEL        6
DOCKED: USER    Run = 6
DOCKED: USER
DOCKED: USER    Estimated Free Energy of Binding    =  -8.66 kcal/mol  [=(1)+(2)+(3)-(4)]
DOCKED: USER
DOCKED: USER    (1) Final Intermolecular Energy     = -10.45 kcal/mol
DOCKED: USER        vdW + Hbond + desolv Energy     = -10.22 kcal/mol
DOCKED: USER        Electrostatic Energy            =  -0.23 kcal/mol
DOCKED: USER        Moving Ligand-Fixed Receptor    = -10.45 kcal/mol
DOCKED: USER        Moving Ligand-Moving Receptor   =  +0.00 kcal/mol
DOCKED: USER    (2) Final Total Internal Energy     =  -1.15 kcal/mol
DOCKED: USER    (3) Torsional Free Energy           =  +1.79 kcal/mol
DOCKED: USER    (4) Unbound System's Energy         =  -1.15 kcal/mol
DOCKED: USER
DOCKED: USER
DOCKED: REMARK SMILES O=C(N/C=C(/O)N1CCCC[C@H]1c1ccccc1)c1ccc2ccccc2n1
DOCKED: REMARK SMILES IDX 5 1 6 2 4 4 3 5 2 6 1 8 19 9 28 10 20 11 27 12 21 13 26 14
DOCKED: REMARK SMILES IDX 22 15 25 16 23 17 24 18 7 19 8 20 12 21 9 22 11 23 10 24
DOCKED: REMARK SMILES IDX 13 25 14 26 18 27 15 28 17 29 16 30
DOCKED: REMARK H PARENT 6 3 3 7
DOCKED: USER                              x       y       z     vdW  Elec       q    Type
DOCKED: USER                           _______ _______ _______ _____ _____    ______ ____
DOCKED: ROOT
DOCKED: ATOM      1  C   UNL     1     140.611  75.808 221.434 -0.26 -0.06    +0.204 C  
DOCKED: ENDROOT
DOCKED: BRANCH   1   2
DOCKED: ATOM      2  O   UNL     1     141.100  76.102 222.705 -0.09 +0.13    -0.494 OA 
DOCKED: ATOM      3  H   UNL     1     142.081  76.302 222.852 -0.36 -0.22    +0.295 HD 
DOCKED: ENDBRANCH   1   2
DOCKED: BRANCH   1   4
DOCKED: ATOM      4  C   UNL     1     139.602  74.936 221.316 -0.21 -0.03    +0.152 C  
DOCKED: BRANCH   4   5
DOCKED: ATOM      5  N   UNL     1     139.408  73.859 222.247 -0.11 +0.06    -0.322 N  
DOCKED: ATOM      6  C   UNL     1     140.357  72.790 222.382 -0.16 -0.02    +0.273 C  
DOCKED: ATOM      7  H   UNL     1     138.580  73.871 222.880 -0.55 -0.10    +0.169 HD 
DOCKED: ATOM      8  O   UNL     1     141.372  72.749 221.632 -0.24 +0.02    -0.267 OA 
DOCKED: BRANCH   6   9
DOCKED: ATOM      9  C   UNL     1     140.150  71.733 223.397 -0.31 -0.02    +0.129 A  
DOCKED: ATOM     10  N   UNL     1     140.673  71.887 224.647 -0.26 +0.03    -0.243 NA 
DOCKED: ATOM     11  C   UNL     1     139.418  70.572 223.096 -0.26 -0.01    +0.035 A  
DOCKED: ATOM     12  C   UNL     1     140.511  70.954 225.622 -0.52 -0.01    +0.071 A  
DOCKED: ATOM     13  C   UNL     1     139.232  69.595 224.079 -0.31 -0.00    +0.013 A  
DOCKED: ATOM     14  C   UNL     1     141.064  71.161 226.891 -0.67 -0.00    +0.029 A  
DOCKED: ATOM     15  C   UNL     1     139.777  69.778 225.356 -0.44 -0.00    +0.000 A  
DOCKED: ATOM     16  C   UNL     1     140.888  70.203 227.897 -0.63 -0.00    +0.002 A  
DOCKED: ATOM     17  C   UNL     1     139.607  68.821 226.368 -0.54 -0.00    +0.010 A  
DOCKED: ATOM     18  C   UNL     1     140.162  69.037 227.637 -0.63 -0.00    +0.001 A  
DOCKED: ENDBRANCH   6   9
DOCKED: ENDBRANCH   4   5
DOCKED: ENDBRANCH   1   4
DOCKED: BRANCH   1  19
DOCKED: ATOM     19  N   UNL     1     141.198  76.444 220.283 -0.09 +0.14    -0.335 N  
DOCKED: ATOM     20  C   UNL     1     141.363  75.623 219.070 -0.11 -0.04    +0.120 C  
DOCKED: ATOM     21  C   UNL     1     141.984  77.685 220.440 -0.22 -0.08    +0.115 C  
DOCKED: ATOM     22  C   UNL     1     142.576  76.074 218.248 -0.23 -0.01    +0.022 C  
DOCKED: ATOM     23  C   UNL     1     142.052  78.449 219.098 -0.26 -0.02    +0.030 C  
DOCKED: ATOM     24  C   UNL     1     142.489  77.569 217.908 -0.29 -0.00    +0.004 C  
DOCKED: BRANCH  21  25
DOCKED: ATOM     25  C   UNL     1     141.413  78.588 221.522 -0.36 +0.01    -0.025 A  
DOCKED: ATOM     26  C   UNL     1     142.222  79.060 222.574 -0.53 -0.00    +0.006 A  
DOCKED: ATOM     27  C   UNL     1     140.057  78.959 221.486 -0.23 -0.00    +0.006 A  
DOCKED: ATOM     28  C   UNL     1     141.688  79.898 223.558 -0.60 -0.00    +0.000 A  
DOCKED: ATOM     29  C   UNL     1     139.527  79.794 222.475 -0.30 -0.00    +0.000 A  
DOCKED: ATOM     30  C   UNL     1     140.342  80.264 223.507 -0.46 -0.00    +0.000 A  
DOCKED: ENDBRANCH  21  25
DOCKED: ENDBRANCH   1  19
DOCKED: TORSDOF 6
DOCKED: TER
DOCKED: ENDMDL
________________________________________________________________________________


    FINAL DOCKED STATE:
    ________________________


Run:   7 / 20
Time taken for this run:   0.039s

DOCKED: MODEL        7
DOCKED: USER    Run = 7
DOCKED: USER
DOCKED: USER    Estimated Free Energy of Binding    =  -8.82 kcal/mol  [=(1)+(2)+(3)-(4)]
DOCKED: USER
DOCKED: USER    (1) Final Intermolecular Energy     = -10.61 kcal/mol
DOCKED: USER        vdW + Hbond + desolv Energy     = -10.34 kcal/mol
DOCKED: USER        Electrostatic Energy            =  -0.26 kcal/mol
DOCKED: USER        Moving Ligand-Fixed Receptor    = -10.61 kcal/mol
DOCKED: USER        Moving Ligand-Moving Receptor   =  +0.00 kcal/mol
DOCKED: USER    (2) Final Total Internal Energy     =  -1.11 kcal/mol
DOCKED: USER    (3) Torsional Free Energy           =  +1.79 kcal/mol
DOCKED: USER    (4) Unbound System's Energy         =  -1.11 kcal/mol
DOCKED: USER
DOCKED: USER
DOCKED: REMARK SMILES O=C(N/C=C(/O)N1CCCC[C@H]1c1ccccc1)c1ccc2ccccc2n1
DOCKED: REMARK SMILES IDX 5 1 6 2 4 4 3 5 2 6 1 8 19 9 28 10 20 11 27 12 21 13 26 14
DOCKED: REMARK SMILES IDX 22 15 25 16 23 17 24 18 7 19 8 20 12 21 9 22 11 23 10 24
DOCKED: REMARK SMILES IDX 13 25 14 26 18 27 15 28 17 29 16 30
DOCKED: REMARK H PARENT 6 3 3 7
DOCKED: USER                              x       y       z     vdW  Elec       q    Type
DOCKED: USER                           _______ _______ _______ _____ _____    ______ ____
DOCKED: ROOT
DOCKED: ATOM      1  C   UNL     1     140.697  75.783 221.445 -0.26 -0.06    +0.204 C  
DOCKED: ENDROOT
DOCKED: BRANCH   1   2
DOCKED: ATOM      2  O   UNL     1     141.216  76.050 222.709 -0.01 +0.14    -0.494 OA 
DOCKED: ATOM      3  H   UNL     1     142.170  76.370 222.825 -0.35 -0.25    +0.295 HD 
DOCKED: ENDBRANCH   1   2
DOCKED: BRANCH   1   4
DOCKED: ATOM      4  C   UNL     1     139.763  74.833 221.318 -0.22 -0.03    +0.152 C  
DOCKED: BRANCH   4   5
DOCKED: ATOM      5  N   UNL     1     139.560  73.821 222.317 -0.12 +0.05    -0.322 N  
DOCKED: ATOM      6  C   UNL     1     140.380  72.644 222.387 -0.20 -0.02    +0.273 C  
DOCKED: ATOM      7  H   UNL     1     138.827  73.960 223.046 -0.55 -0.10    +0.169 HD 
DOCKED: ATOM      8  O   UNL     1     141.277  72.448 221.521 -0.20 +0.03    -0.267 OA 
DOCKED: BRANCH   6   9
DOCKED: ATOM      9  C   UNL     1     140.176  71.657 223.471 -0.32 -0.02    +0.129 A  
DOCKED: ATOM     10  N   UNL     1     140.691  71.900 224.710 -0.26 +0.03    -0.243 NA 
DOCKED: ATOM     11  C   UNL     1     139.454  70.472 223.247 -0.27 -0.01    +0.035 A  
DOCKED: ATOM     12  C   UNL     1     140.533  71.034 225.746 -0.53 -0.01    +0.071 A  
DOCKED: ATOM     13  C   UNL     1     139.272  69.563 224.293 -0.33 -0.00    +0.013 A  
DOCKED: ATOM     14  C   UNL     1     141.079  71.331 227.000 -0.70 -0.00    +0.029 A  
DOCKED: ATOM     15  C   UNL     1     139.810  69.837 225.557 -0.45 -0.00    +0.000 A  
DOCKED: ATOM     16  C   UNL     1     140.905  70.443 228.067 -0.63 -0.00    +0.002 A  
DOCKED: ATOM     17  C   UNL     1     139.642  68.950 226.632 -0.54 -0.00    +0.010 A  
DOCKED: ATOM     18  C   UNL     1     140.189  69.256 227.884 -0.64 -0.00    +0.001 A  
DOCKED: ENDBRANCH   6   9
DOCKED: ENDBRANCH   4   5
DOCKED: ENDBRANCH   1   4
DOCKED: BRANCH   1  19
DOCKED: ATOM     19  N   UNL     1     141.174  76.530 220.310 -0.09 +0.14    -0.335 N  
DOCKED: ATOM     20  C   UNL     1     141.306  75.805 219.032 -0.11 -0.04    +0.120 C  
DOCKED: ATOM     21  C   UNL     1     141.899  77.802 220.509 -0.24 -0.07    +0.115 C  
DOCKED: ATOM     22  C   UNL     1     142.437  76.384 218.175 -0.23 -0.01    +0.022 C  
DOCKED: ATOM     23  C   UNL     1     141.839  78.658 219.224 -0.27 -0.02    +0.030 C  
DOCKED: ATOM     24  C   UNL     1     142.247  77.890 217.950 -0.27 -0.00    +0.004 C  
DOCKED: BRANCH  21  25
DOCKED: ATOM     25  C   UNL     1     141.349  78.593 221.685 -0.37 +0.01    -0.025 A  
DOCKED: ATOM     26  C   UNL     1     142.196  79.036 222.720 -0.55 -0.00    +0.006 A  
DOCKED: ATOM     27  C   UNL     1     139.975  78.887 221.756 -0.25 -0.00    +0.006 A  
DOCKED: ATOM     28  C   UNL     1     141.680  79.772 223.792 -0.60 -0.00    +0.000 A  
DOCKED: ATOM     29  C   UNL     1     139.464  79.619 222.832 -0.34 -0.00    +0.000 A  
DOCKED: ATOM     30  C   UNL     1     140.316  80.063 223.847 -0.44 -0.00    +0.000 A  
DOCKED: ENDBRANCH  21  25
DOCKED: ENDBRANCH   1  19
DOCKED: TORSDOF 6
DOCKED: TER
DOCKED: ENDMDL
________________________________________________________________________________


    FINAL DOCKED STATE:
    ________________________


Run:   8 / 20
Time taken for this run:   0.039s

DOCKED: MODEL        8
DOCKED: USER    Run = 8
DOCKED: USER
DOCKED: USER    Estimated Free Energy of Binding    =  -8.49 kcal/mol  [=(1)+(2)+(3)-(4)]
DOCKED: USER
DOCKED: USER    (1) Final Intermolecular Energy     = -10.28 kcal/mol
DOCKED: USER        vdW + Hbond + desolv Energy     = -10.08 kcal/mol
DOCKED: USER        Electrostatic Energy            =  -0.19 kcal/mol
DOCKED: USER        Moving Ligand-Fixed Receptor    = -10.28 kcal/mol
DOCKED: USER        Moving Ligand-Moving Receptor   =  +0.00 kcal/mol
DOCKED: USER    (2) Final Total Internal Energy     =  -1.63 kcal/mol
DOCKED: USER    (3) Torsional Free Energy           =  +1.79 kcal/mol
DOCKED: USER    (4) Unbound System's Energy         =  -1.63 kcal/mol
DOCKED: USER
DOCKED: USER
DOCKED: REMARK SMILES O=C(N/C=C(/O)N1CCCC[C@H]1c1ccccc1)c1ccc2ccccc2n1
DOCKED: REMARK SMILES IDX 5 1 6 2 4 4 3 5 2 6 1 8 19 9 28 10 20 11 27 12 21 13 26 14
DOCKED: REMARK SMILES IDX 22 15 25 16 23 17 24 18 7 19 8 20 12 21 9 22 11 23 10 24
DOCKED: REMARK SMILES IDX 13 25 14 26 18 27 15 28 17 29 16 30
DOCKED: REMARK H PARENT 6 3 3 7
DOCKED: USER                              x       y       z     vdW  Elec       q    Type
DOCKED: USER                           _______ _______ _______ _____ _____    ______ ____
DOCKED: ROOT
DOCKED: ATOM      1  C   UNL     1     140.967  75.443 221.093 -0.23 -0.06    +0.204 C  
DOCKED: ENDROOT
DOCKED: BRANCH   1   2
DOCKED: ATOM      2  O   UNL     1     141.264  75.986 222.340 -0.19 +0.16    -0.494 OA 
DOCKED: ATOM      3  H   UNL     1     142.180  76.371 222.536 -0.40 -0.28    +0.295 HD 
DOCKED: ENDBRANCH   1   2
DOCKED: BRANCH   1   4
DOCKED: ATOM      4  C   UNL     1     140.266  74.304 221.036 -0.20 -0.03    +0.152 C  
DOCKED: BRANCH   4   5
DOCKED: ATOM      5  N   UNL     1     140.004  73.506 222.202 -0.14 +0.03    -0.322 N  
DOCKED: ATOM      6  C   UNL     1     140.467  72.151 222.318 -0.20 -0.03    +0.273 C  
DOCKED: ATOM      7  H   UNL     1     139.505  73.931 223.012 -0.48 -0.03    +0.169 HD 
DOCKED: ATOM      8  O   UNL     1     141.078  71.610 221.354 -0.14 +0.03    -0.267 OA 
DOCKED: BRANCH   6   9
DOCKED: ATOM      9  C   UNL     1     140.230  71.387 223.562 -0.32 -0.02    +0.129 A  
DOCKED: ATOM     10  N   UNL     1     140.695  71.869 224.749 -0.27 +0.03    -0.243 NA 
DOCKED: ATOM     11  C   UNL     1     139.528  70.169 223.542 -0.28 -0.01    +0.035 A  
DOCKED: ATOM     12  C   UNL     1     140.504  71.214 225.925 -0.54 -0.01    +0.071 A  
DOCKED: ATOM     13  C   UNL     1     139.313  69.474 224.735 -0.37 -0.00    +0.013 A  
DOCKED: ATOM     14  C   UNL     1     140.998  71.754 227.118 -0.76 -0.01    +0.029 A  
DOCKED: ATOM     15  C   UNL     1     139.799  69.992 225.942 -0.48 -0.00    +0.000 A  
DOCKED: ATOM     16  C   UNL     1     140.792  71.082 228.329 -0.67 -0.00    +0.002 A  
DOCKED: ATOM     17  C   UNL     1     139.597  69.323 227.160 -0.55 -0.00    +0.010 A  
DOCKED: ATOM     18  C   UNL     1     140.093  69.871 228.350 -0.60 -0.00    +0.001 A  
DOCKED: ENDBRANCH   6   9
DOCKED: ENDBRANCH   4   5
DOCKED: ENDBRANCH   1   4
DOCKED: BRANCH   1  19
DOCKED: ATOM     19  N   UNL     1     141.417  76.113 219.901 -0.07 +0.14    -0.335 N  
DOCKED: ATOM     20  C   UNL     1     140.665  77.308 219.475 -0.11 -0.05    +0.120 C  
DOCKED: ATOM     21  C   UNL     1     142.281  75.408 218.933 -0.17 -0.05    +0.115 C  
DOCKED: ATOM     22  C   UNL     1     140.699  77.477 217.952 -0.08 -0.01    +0.022 C  
DOCKED: ATOM     23  C   UNL     1     143.048  76.425 218.059 -0.28 -0.02    +0.030 C  
DOCKED: ATOM     24  C   UNL     1     142.142  77.505 217.430 -0.22 -0.00    +0.004 C  
DOCKED: BRANCH  21  25
DOCKED: ATOM     25  C   UNL     1     143.263  74.473 219.622 -0.30 +0.01    -0.025 A  
DOCKED: ATOM     26  C   UNL     1     144.449  74.966 220.198 -0.38 -0.00    +0.006 A  
DOCKED: ATOM     27  C   UNL     1     142.996  73.093 219.686 -0.21 -0.00    +0.006 A  
DOCKED: ATOM     28  C   UNL     1     145.340  74.098 220.839 -0.60 -0.00    +0.000 A  
DOCKED: ATOM     29  C   UNL     1     143.891  72.230 220.324 -0.33 -0.00    +0.000 A  
DOCKED: ATOM     30  C   UNL     1     145.060  72.732 220.901 -0.50 -0.00    +0.000 A  
DOCKED: ENDBRANCH  21  25
DOCKED: ENDBRANCH   1  19
DOCKED: TORSDOF 6
DOCKED: TER
DOCKED: ENDMDL
________________________________________________________________________________


    FINAL DOCKED STATE:
    ________________________


Run:   9 / 20
Time taken for this run:   0.039s

DOCKED: MODEL        9
DOCKED: USER    Run = 9
DOCKED: USER
DOCKED: USER    Estimated Free Energy of Binding    =  -8.49 kcal/mol  [=(1)+(2)+(3)-(4)]
DOCKED: USER
DOCKED: USER    (1) Final Intermolecular Energy     = -10.28 kcal/mol
DOCKED: USER        vdW + Hbond + desolv Energy     = -10.09 kcal/mol
DOCKED: USER        Electrostatic Energy            =  -0.19 kcal/mol
DOCKED: USER        Moving Ligand-Fixed Receptor    = -10.28 kcal/mol
DOCKED: USER        Moving Ligand-Moving Receptor   =  +0.00 kcal/mol
DOCKED: USER    (2) Final Total Internal Energy     =  -1.67 kcal/mol
DOCKED: USER    (3) Torsional Free Energy           =  +1.79 kcal/mol
DOCKED: USER    (4) Unbound System's Energy         =  -1.67 kcal/mol
DOCKED: USER
DOCKED: USER
DOCKED: REMARK SMILES O=C(N/C=C(/O)N1CCCC[C@H]1c1ccccc1)c1ccc2ccccc2n1
DOCKED: REMARK SMILES IDX 5 1 6 2 4 4 3 5 2 6 1 8 19 9 28 10 20 11 27 12 21 13 26 14
DOCKED: REMARK SMILES IDX 22 15 25 16 23 17 24 18 7 19 8 20 12 21 9 22 11 23 10 24
DOCKED: REMARK SMILES IDX 13 25 14 26 18 27 15 28 17 29 16 30
DOCKED: REMARK H PARENT 6 3 3 7
DOCKED: USER                              x       y       z     vdW  Elec       q    Type
DOCKED: USER                           _______ _______ _______ _____ _____    ______ ____
DOCKED: ROOT
DOCKED: ATOM      1  C   UNL     1     140.985  75.432 221.101 -0.23 -0.06    +0.204 C  
DOCKED: ENDROOT
DOCKED: BRANCH   1   2
DOCKED: ATOM      2  O   UNL     1     141.361  75.967 222.330 -0.15 +0.17    -0.494 OA 
DOCKED: ATOM      3  H   UNL     1     142.173  76.566 222.412 -0.40 -0.29    +0.295 HD 
DOCKED: ENDBRANCH   1   2
DOCKED: BRANCH   1   4
DOCKED: ATOM      4  C   UNL     1     140.210  74.340 221.081 -0.21 -0.03    +0.152 C  
DOCKED: BRANCH   4   5
DOCKED: ATOM      5  N   UNL     1     139.994  73.534 222.250 -0.13 +0.03    -0.322 N  
DOCKED: ATOM      6  C   UNL     1     140.399  72.157 222.312 -0.21 -0.03    +0.273 C  
DOCKED: ATOM      7  H   UNL     1     139.574  73.966 223.101 -0.51 -0.02    +0.169 HD 
DOCKED: ATOM      8  O   UNL     1     140.913  71.606 221.299 -0.13 +0.03    -0.267 OA 
DOCKED: BRANCH   6   9
DOCKED: ATOM      9  C   UNL     1     140.214  71.381 223.558 -0.32 -0.02    +0.129 A  
DOCKED: ATOM     10  N   UNL     1     140.689  71.875 224.737 -0.27 +0.03    -0.243 NA 
DOCKED: ATOM     11  C   UNL     1     139.553  70.141 223.548 -0.27 -0.01    +0.035 A  
DOCKED: ATOM     12  C   UNL     1     140.545  71.211 225.914 -0.55 -0.01    +0.071 A  
DOCKED: ATOM     13  C   UNL     1     139.387  69.435 224.743 -0.37 -0.00    +0.013 A  
DOCKED: ATOM     14  C   UNL     1     141.047  71.762 227.098 -0.76 -0.01    +0.029 A  
DOCKED: ATOM     15  C   UNL     1     139.882  69.965 225.941 -0.49 -0.00    +0.000 A  
DOCKED: ATOM     16  C   UNL     1     140.889  71.080 228.310 -0.67 -0.00    +0.002 A  
DOCKED: ATOM     17  C   UNL     1     139.729  69.286 227.160 -0.56 -0.00    +0.010 A  
DOCKED: ATOM     18  C   UNL     1     140.232  69.846 228.342 -0.60 -0.00    +0.001 A  
DOCKED: ENDBRANCH   6   9
DOCKED: ENDBRANCH   4   5
DOCKED: ENDBRANCH   1   4
DOCKED: BRANCH   1  19
DOCKED: ATOM     19  N   UNL     1     141.436  76.059 219.885 -0.07 +0.14    -0.335 N  
DOCKED: ATOM     20  C   UNL     1     140.690  77.243 219.421 -0.11 -0.05    +0.120 C  
DOCKED: ATOM     21  C   UNL     1     142.293  75.316 218.939 -0.17 -0.04    +0.115 C  
DOCKED: ATOM     22  C   UNL     1     140.721  77.361 217.893 -0.07 -0.01    +0.022 C  
DOCKED: ATOM     23  C   UNL     1     143.064  76.300 218.030 -0.27 -0.02    +0.030 C  
DOCKED: ATOM     24  C   UNL     1     142.163  77.363 217.367 -0.21 -0.00    +0.004 C  
DOCKED: BRANCH  21  25
DOCKED: ATOM     25  C   UNL     1     143.272  74.399 219.657 -0.30 +0.01    -0.025 A  
DOCKED: ATOM     26  C   UNL     1     143.002  73.024 219.803 -0.22 -0.00    +0.006 A  
DOCKED: ATOM     27  C   UNL     1     144.463  74.921 220.193 -0.39 -0.00    +0.006 A  
DOCKED: ATOM     28  C   UNL     1     143.914  72.189 220.456 -0.34 -0.00    +0.000 A  
DOCKED: ATOM     29  C   UNL     1     145.369  74.082 220.848 -0.60 -0.00    +0.000 A  
DOCKED: ATOM     30  C   UNL     1     145.096  72.718 220.978 -0.48 -0.00    +0.000 A  
DOCKED: ENDBRANCH  21  25
DOCKED: ENDBRANCH   1  19
DOCKED: TORSDOF 6
DOCKED: TER
DOCKED: ENDMDL
________________________________________________________________________________


    FINAL DOCKED STATE:
    ________________________


Run:   10 / 20
Time taken for this run:   0.039s

DOCKED: MODEL        10
DOCKED: USER    Run = 10
DOCKED: USER
DOCKED: USER    Estimated Free Energy of Binding    =  -8.07 kcal/mol  [=(1)+(2)+(3)-(4)]
DOCKED: USER
DOCKED: USER    (1) Final Intermolecular Energy     =  -9.86 kcal/mol
DOCKED: USER        vdW + Hbond + desolv Energy     =  -9.78 kcal/mol
DOCKED: USER        Electrostatic Energy            =  -0.08 kcal/mol
DOCKED: USER        Moving Ligand-Fixed Receptor    =  -9.86 kcal/mol
DOCKED: USER        Moving Ligand-Moving Receptor   =  +0.00 kcal/mol
DOCKED: USER    (2) Final Total Internal Energy     =  -1.64 kcal/mol
DOCKED: USER    (3) Torsional Free Energy           =  +1.79 kcal/mol
DOCKED: USER    (4) Unbound System's Energy         =  -1.64 kcal/mol
DOCKED: USER
DOCKED: USER
DOCKED: REMARK SMILES O=C(N/C=C(/O)N1CCCC[C@H]1c1ccccc1)c1ccc2ccccc2n1
DOCKED: REMARK SMILES IDX 5 1 6 2 4 4 3 5 2 6 1 8 19 9 28 10 20 11 27 12 21 13 26 14
DOCKED: REMARK SMILES IDX 22 15 25 16 23 17 24 18 7 19 8 20 12 21 9 22 11 23 10 24
DOCKED: REMARK SMILES IDX 13 25 14 26 18 27 15 28 17 29 16 30
DOCKED: REMARK H PARENT 6 3 3 7
DOCKED: USER                              x       y       z     vdW  Elec       q    Type
DOCKED: USER                           _______ _______ _______ _____ _____    ______ ____
DOCKED: ROOT
DOCKED: ATOM      1  C   UNL     1     140.505  75.765 221.221 -0.23 -0.06    +0.204 C  
DOCKED: ENDROOT
DOCKED: BRANCH   1   2
DOCKED: ATOM      2  O   UNL     1     141.360  75.756 222.321 -0.16 +0.14    -0.494 OA 
DOCKED: ATOM      3  H   UNL     1     142.211  75.209 222.315 -0.31 -0.10    +0.295 HD 
DOCKED: ENDBRANCH   1   2
DOCKED: BRANCH   1   4
DOCKED: ATOM      4  C   UNL     1     139.385  75.033 221.267 -0.19 -0.03    +0.152 C  
DOCKED: BRANCH   4   5
DOCKED: ATOM      5  N   UNL     1     139.233  73.923 222.166 -0.11 +0.07    -0.322 N  
DOCKED: ATOM      6  C   UNL     1     140.305  73.006 222.433 -0.08 -0.02    +0.273 C  
DOCKED: ATOM      7  H   UNL     1     138.334  73.800 222.680 -0.51 -0.08    +0.169 HD 
DOCKED: ATOM      8  O   UNL     1     141.406  73.131 221.828 -0.31 +0.01    -0.267 OA 
DOCKED: BRANCH   6   9
DOCKED: ATOM      9  C   UNL     1     140.125  71.914 223.415 -0.31 -0.02    +0.129 A  
DOCKED: ATOM     10  N   UNL     1     140.651  72.038 224.667 -0.13 +0.03    -0.243 NA 
DOCKED: ATOM     11  C   UNL     1     139.414  70.748 223.079 -0.27 -0.01    +0.035 A  
DOCKED: ATOM     12  C   UNL     1     140.513  71.070 225.611 -0.53 -0.01    +0.071 A  
DOCKED: ATOM     13  C   UNL     1     139.253  69.737 224.031 -0.31 -0.00    +0.013 A  
DOCKED: ATOM     14  C   UNL     1     141.070  71.247 226.884 -0.69 -0.00    +0.029 A  
DOCKED: ATOM     15  C   UNL     1     139.802  69.889 225.310 -0.44 -0.00    +0.000 A  
DOCKED: ATOM     16  C   UNL     1     140.918  70.254 227.858 -0.63 -0.00    +0.002 A  
DOCKED: ATOM     17  C   UNL     1     139.656  68.897 226.292 -0.52 -0.00    +0.010 A  
DOCKED: ATOM     18  C   UNL     1     140.214  69.082 227.564 -0.63 -0.00    +0.001 A  
DOCKED: ENDBRANCH   6   9
DOCKED: ENDBRANCH   4   5
DOCKED: ENDBRANCH   1   4
DOCKED: BRANCH   1  19
DOCKED: ATOM     19  N   UNL     1     140.843  76.557 220.066 -0.05 +0.12    -0.335 N  
DOCKED: ATOM     20  C   UNL     1     140.812  75.884 218.754 -0.07 -0.04    +0.120 C  
DOCKED: ATOM     21  C   UNL     1     141.596  77.818 220.224 -0.25 -0.06    +0.115 C  
DOCKED: ATOM     22  C   UNL     1     141.832  76.494 217.787 -0.14 -0.01    +0.022 C  
DOCKED: ATOM     23  C   UNL     1     141.383  78.726 218.992 -0.21 -0.02    +0.030 C  
DOCKED: ATOM     24  C   UNL     1     141.625  78.009 217.647 -0.18 -0.00    +0.004 C  
DOCKED: BRANCH  21  25
DOCKED: ATOM     25  C   UNL     1     141.200  78.562 221.490 -0.34 +0.01    -0.025 A  
DOCKED: ATOM     26  C   UNL     1     139.845  78.783 221.808 -0.25 -0.00    +0.006 A  
DOCKED: ATOM     27  C   UNL     1     142.191  79.046 222.362 -0.51 -0.00    +0.006 A  
DOCKED: ATOM     28  C   UNL     1     139.493  79.459 222.980 -0.36 -0.00    +0.000 A  
DOCKED: ATOM     29  C   UNL     1     141.834  79.725 223.531 -0.61 -0.00    +0.000 A  
DOCKED: ATOM     30  C   UNL     1     140.487  79.929 223.840 -0.47 -0.00    +0.000 A  
DOCKED: ENDBRANCH  21  25
DOCKED: ENDBRANCH   1  19
DOCKED: TORSDOF 6
DOCKED: TER
DOCKED: ENDMDL
________________________________________________________________________________


    FINAL DOCKED STATE:
    ________________________


Run:   11 / 20
Time taken for this run:   0.039s

DOCKED: MODEL        11
DOCKED: USER    Run = 11
DOCKED: USER
DOCKED: USER    Estimated Free Energy of Binding    =  -7.35 kcal/mol  [=(1)+(2)+(3)-(4)]
DOCKED: USER
DOCKED: USER    (1) Final Intermolecular Energy     =  -9.14 kcal/mol
DOCKED: USER        vdW + Hbond + desolv Energy     =  -9.16 kcal/mol
DOCKED: USER        Electrostatic Energy            =  +0.01 kcal/mol
DOCKED: USER        Moving Ligand-Fixed Receptor    =  -9.14 kcal/mol
DOCKED: USER        Moving Ligand-Moving Receptor   =  +0.00 kcal/mol
DOCKED: USER    (2) Final Total Internal Energy     =  -1.84 kcal/mol
DOCKED: USER    (3) Torsional Free Energy           =  +1.79 kcal/mol
DOCKED: USER    (4) Unbound System's Energy         =  -1.84 kcal/mol
DOCKED: USER
DOCKED: USER
DOCKED: REMARK SMILES O=C(N/C=C(/O)N1CCCC[C@H]1c1ccccc1)c1ccc2ccccc2n1
DOCKED: REMARK SMILES IDX 5 1 6 2 4 4 3 5 2 6 1 8 19 9 28 10 20 11 27 12 21 13 26 14
DOCKED: REMARK SMILES IDX 22 15 25 16 23 17 24 18 7 19 8 20 12 21 9 22 11 23 10 24
DOCKED: REMARK SMILES IDX 13 25 14 26 18 27 15 28 17 29 16 30
DOCKED: REMARK H PARENT 6 3 3 7
DOCKED: USER                              x       y       z     vdW  Elec       q    Type
DOCKED: USER                           _______ _______ _______ _____ _____    ______ ____
DOCKED: ROOT
DOCKED: ATOM      1  C   UNL     1     140.165  73.800 219.922 -0.06 -0.04    +0.204 C  
DOCKED: ENDROOT
DOCKED: BRANCH   1   2
DOCKED: ATOM      2  O   UNL     1     139.630  73.854 218.637 +0.01 +0.11    -0.494 OA 
DOCKED: ATOM      3  H   UNL     1     139.012  73.127 218.299 +0.02 -0.06    +0.295 HD 
DOCKED: ENDBRANCH   1   2
DOCKED: BRANCH   1   4
DOCKED: ATOM      4  C   UNL     1     139.357  74.012 220.968 -0.15 -0.03    +0.152 C  
DOCKED: BRANCH   4   5
DOCKED: ATOM      5  N   UNL     1     139.512  73.309 222.211 -0.15 +0.06    -0.322 N  
DOCKED: ATOM      6  C   UNL     1     139.585  71.876 222.272 -0.18 -0.05    +0.273 C  
DOCKED: ATOM      7  H   UNL     1     139.623  73.850 223.095 -0.49 -0.02    +0.169 HD 
DOCKED: ATOM      8  O   UNL     1     139.457  71.194 221.217 -0.07 +0.05    -0.267 OA 
DOCKED: BRANCH   6   9
DOCKED: ATOM      9  C   UNL     1     139.809  71.196 223.566 -0.31 -0.02    +0.129 A  
DOCKED: ATOM     10  N   UNL     1     140.336  71.894 224.613 -0.27 +0.04    -0.243 NA 
DOCKED: ATOM     11  C   UNL     1     139.484  69.839 223.738 -0.27 -0.01    +0.035 A  
DOCKED: ATOM     12  C   UNL     1     140.559  71.324 225.827 -0.54 -0.01    +0.071 A  
DOCKED: ATOM     13  C   UNL     1     139.699  69.226 224.976 -0.38 -0.00    +0.013 A  
DOCKED: ATOM     14  C   UNL     1     141.099  72.084 226.871 -0.73 -0.01    +0.029 A  
DOCKED: ATOM     15  C   UNL     1     140.240  69.966 226.036 -0.51 -0.00    +0.000 A  
DOCKED: ATOM     16  C   UNL     1     141.319  71.499 228.123 -0.71 -0.00    +0.002 A  
DOCKED: ATOM     17  C   UNL     1     140.465  69.384 227.293 -0.60 -0.00    +0.010 A  
DOCKED: ATOM     18  C   UNL     1     141.003  70.153 228.334 -0.56 -0.00    +0.001 A  
DOCKED: ENDBRANCH   6   9
DOCKED: ENDBRANCH   4   5
DOCKED: ENDBRANCH   1   4
DOCKED: BRANCH   1  19
DOCKED: ATOM     19  N   UNL     1     141.567  73.518 220.096 -0.05 +0.07    -0.335 N  
DOCKED: ATOM     20  C   UNL     1     141.992  72.112 219.971 -0.13 -0.02    +0.120 C  
DOCKED: ATOM     21  C   UNL     1     142.439  74.489 220.787 -0.22 -0.04    +0.115 C  
DOCKED: ATOM     22  C   UNL     1     143.211  71.816 220.852 -0.26 -0.00    +0.022 C  
DOCKED: ATOM     23  C   UNL     1     143.916  74.252 220.400 -0.40 -0.01    +0.030 C  
DOCKED: ATOM     24  C   UNL     1     144.364  72.782 220.546 -0.42 -0.00    +0.004 C  
DOCKED: BRANCH  21  25
DOCKED: ATOM     25  C   UNL     1     142.047  75.926 220.479 -0.26 +0.01    -0.025 A  
DOCKED: ATOM     26  C   UNL     1     142.539  76.582 219.334 -0.33 -0.00    +0.006 A  
DOCKED: ATOM     27  C   UNL     1     141.187  76.623 221.347 -0.31 -0.00    +0.006 A  
DOCKED: ATOM     28  C   UNL     1     142.164  77.900 219.055 -0.30 -0.00    +0.000 A  
DOCKED: ATOM     29  C   UNL     1     140.818  77.942 221.066 -0.28 -0.00    +0.000 A  
DOCKED: ATOM     30  C   UNL     1     141.304  78.579 219.921 -0.25 -0.00    +0.000 A  
DOCKED: ENDBRANCH  21  25
DOCKED: ENDBRANCH   1  19
DOCKED: TORSDOF 6
DOCKED: TER
DOCKED: ENDMDL
________________________________________________________________________________


    FINAL DOCKED STATE:
    ________________________


Run:   12 / 20
Time taken for this run:   0.039s

DOCKED: MODEL        12
DOCKED: USER    Run = 12
DOCKED: USER
DOCKED: USER    Estimated Free Energy of Binding    =  -7.28 kcal/mol  [=(1)+(2)+(3)-(4)]
DOCKED: USER
DOCKED: USER    (1) Final Intermolecular Energy     =  -9.07 kcal/mol
DOCKED: USER        vdW + Hbond + desolv Energy     =  -9.08 kcal/mol
DOCKED: USER        Electrostatic Energy            =  +0.01 kcal/mol
DOCKED: USER        Moving Ligand-Fixed Receptor    =  -9.07 kcal/mol
DOCKED: USER        Moving Ligand-Moving Receptor   =  +0.00 kcal/mol
DOCKED: USER    (2) Final Total Internal Energy     =  -1.94 kcal/mol
DOCKED: USER    (3) Torsional Free Energy           =  +1.79 kcal/mol
DOCKED: USER    (4) Unbound System's Energy         =  -1.94 kcal/mol
DOCKED: USER
DOCKED: USER
DOCKED: REMARK SMILES O=C(N/C=C(/O)N1CCCC[C@H]1c1ccccc1)c1ccc2ccccc2n1
DOCKED: REMARK SMILES IDX 5 1 6 2 4 4 3 5 2 6 1 8 19 9 28 10 20 11 27 12 21 13 26 14
DOCKED: REMARK SMILES IDX 22 15 25 16 23 17 24 18 7 19 8 20 12 21 9 22 11 23 10 24
DOCKED: REMARK SMILES IDX 13 25 14 26 18 27 15 28 17 29 16 30
DOCKED: REMARK H PARENT 6 3 3 7
DOCKED: USER                              x       y       z     vdW  Elec       q    Type
DOCKED: USER                           _______ _______ _______ _____ _____    ______ ____
DOCKED: ROOT
DOCKED: ATOM      1  C   UNL     1     139.966  73.730 219.907 -0.06 -0.04    +0.204 C  
DOCKED: ENDROOT
DOCKED: BRANCH   1   2
DOCKED: ATOM      2  O   UNL     1     139.425  73.835 218.628 +0.01 +0.10    -0.494 OA 
DOCKED: ATOM      3  H   UNL     1     138.559  73.368 218.389 +0.01 -0.06    +0.295 HD 
DOCKED: ENDBRANCH   1   2
DOCKED: BRANCH   1   4
DOCKED: ATOM      4  C   UNL     1     139.166  73.913 220.964 -0.14 -0.03    +0.152 C  
DOCKED: BRANCH   4   5
DOCKED: ATOM      5  N   UNL     1     139.373  73.228 222.210 -0.13 +0.07    -0.322 N  
DOCKED: ATOM      6  C   UNL     1     139.446  71.796 222.288 -0.17 -0.05    +0.273 C  
DOCKED: ATOM      7  H   UNL     1     139.523  73.782 223.080 -0.50 -0.03    +0.169 HD 
DOCKED: ATOM      8  O   UNL     1     139.271  71.098 221.251 -0.07 +0.05    -0.267 OA 
DOCKED: BRANCH   6   9
DOCKED: ATOM      9  C   UNL     1     139.724  71.134 223.582 -0.31 -0.02    +0.129 A  
DOCKED: ATOM     10  N   UNL     1     140.255  71.857 224.609 -0.26 +0.04    -0.243 NA 
DOCKED: ATOM     11  C   UNL     1     139.446  69.769 223.773 -0.27 -0.01    +0.035 A  
DOCKED: ATOM     12  C   UNL     1     140.527  71.305 225.822 -0.54 -0.01    +0.071 A  
DOCKED: ATOM     13  C   UNL     1     139.712  69.174 225.009 -0.38 -0.00    +0.013 A  
DOCKED: ATOM     14  C   UNL     1     141.068  72.091 226.846 -0.72 -0.01    +0.029 A  
DOCKED: ATOM     15  C   UNL     1     140.256  69.939 226.049 -0.51 -0.00    +0.000 A  
DOCKED: ATOM     16  C   UNL     1     141.338  71.523 228.096 -0.71 -0.00    +0.002 A  
DOCKED: ATOM     17  C   UNL     1     140.531  69.376 227.305 -0.60 -0.00    +0.010 A  
DOCKED: ATOM     18  C   UNL     1     141.071  70.170 228.326 -0.56 -0.00    +0.001 A  
DOCKED: ENDBRANCH   6   9
DOCKED: ENDBRANCH   4   5
DOCKED: ENDBRANCH   1   4
DOCKED: BRANCH   1  19
DOCKED: ATOM     19  N   UNL     1     141.366  73.428 220.063 -0.05 +0.07    -0.335 N  
DOCKED: ATOM     20  C   UNL     1     141.805  72.064 219.716 -0.10 -0.02    +0.120 C  
DOCKED: ATOM     21  C   UNL     1     142.216  74.274 220.926 -0.17 -0.03    +0.115 C  
DOCKED: ATOM     22  C   UNL     1     143.007  71.630 220.563 -0.24 -0.00    +0.022 C  
DOCKED: ATOM     23  C   UNL     1     143.703  74.110 220.538 -0.36 -0.01    +0.030 C  
DOCKED: ATOM     24  C   UNL     1     144.159  72.639 220.448 -0.39 -0.00    +0.004 C  
DOCKED: BRANCH  21  25
DOCKED: ATOM     25  C   UNL     1     141.821  75.741 220.853 -0.26 +0.01    -0.025 A  
DOCKED: ATOM     26  C   UNL     1     142.196  76.538 219.754 -0.31 -0.00    +0.006 A  
DOCKED: ATOM     27  C   UNL     1     141.074  76.322 221.893 -0.37 -0.00    +0.006 A  
DOCKED: ATOM     28  C   UNL     1     141.817  77.883 219.692 -0.29 -0.00    +0.000 A  
DOCKED: ATOM     29  C   UNL     1     140.702  77.668 221.829 -0.37 -0.00    +0.000 A  
DOCKED: ATOM     30  C   UNL     1     141.071  78.447 220.729 -0.28 -0.00    +0.000 A  
DOCKED: ENDBRANCH  21  25
DOCKED: ENDBRANCH   1  19
DOCKED: TORSDOF 6
DOCKED: TER
DOCKED: ENDMDL
________________________________________________________________________________


    FINAL DOCKED STATE:
    ________________________


Run:   13 / 20
Time taken for this run:   0.039s

DOCKED: MODEL        13
DOCKED: USER    Run = 13
DOCKED: USER
DOCKED: USER    Estimated Free Energy of Binding    =  -8.76 kcal/mol  [=(1)+(2)+(3)-(4)]
DOCKED: USER
DOCKED: USER    (1) Final Intermolecular Energy     = -10.55 kcal/mol
DOCKED: USER        vdW + Hbond + desolv Energy     = -10.43 kcal/mol
DOCKED: USER        Electrostatic Energy            =  -0.12 kcal/mol
DOCKED: USER        Moving Ligand-Fixed Receptor    = -10.55 kcal/mol
DOCKED: USER        Moving Ligand-Moving Receptor   =  +0.00 kcal/mol
DOCKED: USER    (2) Final Total Internal Energy     =  -0.95 kcal/mol
DOCKED: USER    (3) Torsional Free Energy           =  +1.79 kcal/mol
DOCKED: USER    (4) Unbound System's Energy         =  -0.95 kcal/mol
DOCKED: USER
DOCKED: USER
DOCKED: REMARK SMILES O=C(N/C=C(/O)N1CCCC[C@H]1c1ccccc1)c1ccc2ccccc2n1
DOCKED: REMARK SMILES IDX 5 1 6 2 4 4 3 5 2 6 1 8 19 9 28 10 20 11 27 12 21 13 26 14
DOCKED: REMARK SMILES IDX 22 15 25 16 23 17 24 18 7 19 8 20 12 21 9 22 11 23 10 24
DOCKED: REMARK SMILES IDX 13 25 14 26 18 27 15 28 17 29 16 30
DOCKED: REMARK H PARENT 6 3 3 7
DOCKED: USER                              x       y       z     vdW  Elec       q    Type
DOCKED: USER                           _______ _______ _______ _____ _____    ______ ____
DOCKED: ROOT
DOCKED: ATOM      1  C   UNL     1     139.814  76.204 222.155 -0.26 -0.04    +0.204 C  
DOCKED: ENDROOT
DOCKED: BRANCH   1   2
DOCKED: ATOM      2  O   UNL     1     141.110  76.642 222.413 -0.18 +0.19    -0.494 OA 
DOCKED: ATOM      3  H   UNL     1     141.912  76.116 222.089 -0.45 -0.19    +0.295 HD 
DOCKED: ENDBRANCH   1   2
DOCKED: BRANCH   1   4
DOCKED: ATOM      4  C   UNL     1     139.638  75.004 221.590 -0.24 -0.03    +0.152 C  
DOCKED: BRANCH   4   5
DOCKED: ATOM      5  N   UNL     1     139.411  73.817 222.367 -0.06 +0.06    -0.322 N  
DOCKED: ATOM      6  C   UNL     1     140.388  72.769 222.460 -0.13 -0.02    +0.273 C  
DOCKED: ATOM      7  H   UNL     1     138.532  73.728 222.922 -0.54 -0.10    +0.169 HD 
DOCKED: ATOM      8  O   UNL     1     141.463  72.849 221.803 -0.25 +0.01    -0.267 OA 
DOCKED: BRANCH   6   9
DOCKED: ATOM      9  C   UNL     1     140.139  71.593 223.323 -0.31 -0.02    +0.129 A  
DOCKED: ATOM     10  N   UNL     1     140.615  71.581 224.601 -0.29 +0.03    -0.243 NA 
DOCKED: ATOM     11  C   UNL     1     139.414  70.485 222.848 -0.23 -0.01    +0.035 A  
DOCKED: ATOM     12  C   UNL     1     140.414  70.532 225.441 -0.47 -0.01    +0.071 A  
DOCKED: ATOM     13  C   UNL     1     139.188  69.393 223.690 -0.28 -0.00    +0.013 A  
DOCKED: ATOM     14  C   UNL     1     140.920  70.569 226.745 -0.59 -0.00    +0.029 A  
DOCKED: ATOM     15  C   UNL     1     139.686  69.406 224.999 -0.40 -0.00    +0.000 A  
DOCKED: ATOM     16  C   UNL     1     140.704  69.492 227.612 -0.62 -0.00    +0.002 A  
DOCKED: ATOM     17  C   UNL     1     139.475  68.328 225.873 -0.53 -0.00    +0.010 A  
DOCKED: ATOM     18  C   UNL     1     139.983  68.374 227.178 -0.65 -0.00    +0.001 A  
DOCKED: ENDBRANCH   6   9
DOCKED: ENDBRANCH   4   5
DOCKED: ENDBRANCH   1   4
DOCKED: BRANCH   1  19
DOCKED: ATOM     19  N   UNL     1     138.698  77.048 222.499 -0.16 +0.06    -0.335 N  
DOCKED: ATOM     20  C   UNL     1     137.400  76.387 222.732 -0.24 -0.03    +0.120 C  
DOCKED: ATOM     21  C   UNL     1     138.742  78.494 222.205 -0.21 -0.02    +0.115 C  
DOCKED: ATOM     22  C   UNL     1     136.231  77.302 222.351 -0.16 -0.00    +0.022 C  
DOCKED: ATOM     23  C   UNL     1     137.736  79.253 223.100 -0.23 -0.00    +0.030 C  
DOCKED: ATOM     24  C   UNL     1     136.317  78.647 223.086 -0.17 -0.00    +0.004 C  
DOCKED: BRANCH  21  25
DOCKED: ATOM     25  C   UNL     1     140.137  79.071 222.388 -0.32 +0.01    -0.025 A  
DOCKED: ATOM     26  C   UNL     1     140.912  79.459 221.278 -0.29 -0.00    +0.006 A  
DOCKED: ATOM     27  C   UNL     1     140.674  79.219 223.679 -0.50 -0.00    +0.006 A  
DOCKED: ATOM     28  C   UNL     1     142.190  79.997 221.459 -0.41 -0.00    +0.000 A  
DOCKED: ATOM     29  C   UNL     1     141.953  79.755 223.855 -0.62 -0.00    +0.000 A  
DOCKED: ATOM     30  C   UNL     1     142.709  80.145 222.747 -0.63 -0.00    +0.000 A  
DOCKED: ENDBRANCH  21  25
DOCKED: ENDBRANCH   1  19
DOCKED: TORSDOF 6
DOCKED: TER
DOCKED: ENDMDL
________________________________________________________________________________


    FINAL DOCKED STATE:
    ________________________


Run:   14 / 20
Time taken for this run:   0.039s

DOCKED: MODEL        14
DOCKED: USER    Run = 14
DOCKED: USER
DOCKED: USER    Estimated Free Energy of Binding    =  -8.81 kcal/mol  [=(1)+(2)+(3)-(4)]
DOCKED: USER
DOCKED: USER    (1) Final Intermolecular Energy     = -10.60 kcal/mol
DOCKED: USER        vdW + Hbond + desolv Energy     = -10.33 kcal/mol
DOCKED: USER        Electrostatic Energy            =  -0.27 kcal/mol
DOCKED: USER        Moving Ligand-Fixed Receptor    = -10.60 kcal/mol
DOCKED: USER        Moving Ligand-Moving Receptor   =  +0.00 kcal/mol
DOCKED: USER    (2) Final Total Internal Energy     =  -1.12 kcal/mol
DOCKED: USER    (3) Torsional Free Energy           =  +1.79 kcal/mol
DOCKED: USER    (4) Unbound System's Energy         =  -1.12 kcal/mol
DOCKED: USER
DOCKED: USER
DOCKED: REMARK SMILES O=C(N/C=C(/O)N1CCCC[C@H]1c1ccccc1)c1ccc2ccccc2n1
DOCKED: REMARK SMILES IDX 5 1 6 2 4 4 3 5 2 6 1 8 19 9 28 10 20 11 27 12 21 13 26 14
DOCKED: REMARK SMILES IDX 22 15 25 16 23 17 24 18 7 19 8 20 12 21 9 22 11 23 10 24
DOCKED: REMARK SMILES IDX 13 25 14 26 18 27 15 28 17 29 16 30
DOCKED: REMARK H PARENT 6 3 3 7
DOCKED: USER                              x       y       z     vdW  Elec       q    Type
DOCKED: USER                           _______ _______ _______ _____ _____    ______ ____
DOCKED: ROOT
DOCKED: ATOM      1  C   UNL     1     140.675  75.769 221.440 -0.26 -0.06    +0.204 C  
DOCKED: ENDROOT
DOCKED: BRANCH   1   2
DOCKED: ATOM      2  O   UNL     1     141.209  76.036 222.698 -0.02 +0.14    -0.494 OA 
DOCKED: ATOM      3  H   UNL     1     142.159  76.369 222.802 -0.36 -0.25    +0.295 HD 
DOCKED: ENDBRANCH   1   2
DOCKED: BRANCH   1   4
DOCKED: ATOM      4  C   UNL     1     139.727  74.831 221.326 -0.22 -0.03    +0.152 C  
DOCKED: BRANCH   4   5
DOCKED: ATOM      5  N   UNL     1     139.533  73.814 222.322 -0.12 +0.05    -0.322 N  
DOCKED: ATOM      6  C   UNL     1     140.354  72.637 222.379 -0.20 -0.03    +0.273 C  
DOCKED: ATOM      7  H   UNL     1     138.807  73.949 223.059 -0.55 -0.10    +0.169 HD 
DOCKED: ATOM      8  O   UNL     1     141.243  72.446 221.503 -0.20 +0.03    -0.267 OA 
DOCKED: BRANCH   6   9
DOCKED: ATOM      9  C   UNL     1     140.161  71.645 223.459 -0.32 -0.02    +0.129 A  
DOCKED: ATOM     10  N   UNL     1     140.671  71.890 224.700 -0.27 +0.03    -0.243 NA 
DOCKED: ATOM     11  C   UNL     1     139.455  70.451 223.230 -0.26 -0.01    +0.035 A  
DOCKED: ATOM     12  C   UNL     1     140.521  71.020 225.733 -0.53 -0.01    +0.071 A  
DOCKED: ATOM     13  C   UNL     1     139.282  69.537 224.273 -0.33 -0.00    +0.013 A  
DOCKED: ATOM     14  C   UNL     1     141.061  71.320 226.989 -0.70 -0.00    +0.029 A  
DOCKED: ATOM     15  C   UNL     1     139.814  69.814 225.539 -0.45 -0.00    +0.000 A  
DOCKED: ATOM     16  C   UNL     1     140.898  70.426 228.053 -0.63 -0.00    +0.002 A  
DOCKED: ATOM     17  C   UNL     1     139.656  68.921 226.611 -0.54 -0.00    +0.010 A  
DOCKED: ATOM     18  C   UNL     1     140.197  69.230 227.866 -0.64 -0.00    +0.001 A  
DOCKED: ENDBRANCH   6   9
DOCKED: ENDBRANCH   4   5
DOCKED: ENDBRANCH   1   4
DOCKED: BRANCH   1  19
DOCKED: ATOM     19  N   UNL     1     141.152  76.503 220.296 -0.08 +0.14    -0.335 N  
DOCKED: ATOM     20  C   UNL     1     141.277  75.766 219.026 -0.10 -0.04    +0.120 C  
DOCKED: ATOM     21  C   UNL     1     141.883  77.774 220.481 -0.25 -0.07    +0.115 C  
DOCKED: ATOM     22  C   UNL     1     142.409  76.331 218.160 -0.22 -0.01    +0.022 C  
DOCKED: ATOM     23  C   UNL     1     141.823  78.618 219.189 -0.27 -0.02    +0.030 C  
DOCKED: ATOM     24  C   UNL     1     142.224  77.836 217.921 -0.27 -0.00    +0.004 C  
DOCKED: BRANCH  21  25
DOCKED: ATOM     25  C   UNL     1     141.339  78.578 221.652 -0.37 +0.01    -0.025 A  
DOCKED: ATOM     26  C   UNL     1     139.966  78.880 221.748 -0.25 -0.00    +0.006 A  
DOCKED: ATOM     27  C   UNL     1     142.209  79.037 222.657 -0.54 -0.00    +0.006 A  
DOCKED: ATOM     28  C   UNL     1     139.476  79.612 222.834 -0.34 -0.00    +0.000 A  
DOCKED: ATOM     29  C   UNL     1     141.714  79.772 223.738 -0.60 -0.00    +0.000 A  
DOCKED: ATOM     30  C   UNL     1     140.350  80.057 223.828 -0.45 -0.00    +0.000 A  
DOCKED: ENDBRANCH  21  25
DOCKED: ENDBRANCH   1  19
DOCKED: TORSDOF 6
DOCKED: TER
DOCKED: ENDMDL
________________________________________________________________________________


    FINAL DOCKED STATE:
    ________________________


Run:   15 / 20
Time taken for this run:   0.039s

DOCKED: MODEL        15
DOCKED: USER    Run = 15
DOCKED: USER
DOCKED: USER    Estimated Free Energy of Binding    =  -7.34 kcal/mol  [=(1)+(2)+(3)-(4)]
DOCKED: USER
DOCKED: USER    (1) Final Intermolecular Energy     =  -9.13 kcal/mol
DOCKED: USER        vdW + Hbond + desolv Energy     =  -9.14 kcal/mol
DOCKED: USER        Electrostatic Energy            =  +0.01 kcal/mol
DOCKED: USER        Moving Ligand-Fixed Receptor    =  -9.13 kcal/mol
DOCKED: USER        Moving Ligand-Moving Receptor   =  +0.00 kcal/mol
DOCKED: USER    (2) Final Total Internal Energy     =  -1.89 kcal/mol
DOCKED: USER    (3) Torsional Free Energy           =  +1.79 kcal/mol
DOCKED: USER    (4) Unbound System's Energy         =  -1.89 kcal/mol
DOCKED: USER
DOCKED: USER
DOCKED: REMARK SMILES O=C(N/C=C(/O)N1CCCC[C@H]1c1ccccc1)c1ccc2ccccc2n1
DOCKED: REMARK SMILES IDX 5 1 6 2 4 4 3 5 2 6 1 8 19 9 28 10 20 11 27 12 21 13 26 14
DOCKED: REMARK SMILES IDX 22 15 25 16 23 17 24 18 7 19 8 20 12 21 9 22 11 23 10 24
DOCKED: REMARK SMILES IDX 13 25 14 26 18 27 15 28 17 29 16 30
DOCKED: REMARK H PARENT 6 3 3 7
DOCKED: USER                              x       y       z     vdW  Elec       q    Type
DOCKED: USER                           _______ _______ _______ _____ _____    ______ ____
DOCKED: ROOT
DOCKED: ATOM      1  C   UNL     1     139.970  73.722 219.906 -0.06 -0.04    +0.204 C  
DOCKED: ENDROOT
DOCKED: BRANCH   1   2
DOCKED: ATOM      2  O   UNL     1     139.394  73.778 218.639 +0.01 +0.10    -0.494 OA 
DOCKED: ATOM      3  H   UNL     1     138.490  73.360 218.459 +0.02 -0.06    +0.295 HD 
DOCKED: ENDBRANCH   1   2
DOCKED: BRANCH   1   4
DOCKED: ATOM      4  C   UNL     1     139.198  73.939 220.977 -0.14 -0.03    +0.152 C  
DOCKED: BRANCH   4   5
DOCKED: ATOM      5  N   UNL     1     139.400  73.247 222.220 -0.14 +0.07    -0.322 N  
DOCKED: ATOM      6  C   UNL     1     139.487  71.815 222.289 -0.17 -0.05    +0.273 C  
DOCKED: ATOM      7  H   UNL     1     139.535  73.796 223.096 -0.51 -0.03    +0.169 HD 
DOCKED: ATOM      8  O   UNL     1     139.330  71.123 221.245 -0.07 +0.05    -0.267 OA 
DOCKED: BRANCH   6   9
DOCKED: ATOM      9  C   UNL     1     139.758  71.147 223.581 -0.31 -0.02    +0.129 A  
DOCKED: ATOM     10  N   UNL     1     140.287  71.864 224.613 -0.26 +0.04    -0.243 NA 
DOCKED: ATOM     11  C   UNL     1     139.476  69.782 223.764 -0.27 -0.01    +0.035 A  
DOCKED: ATOM     12  C   UNL     1     140.554  71.306 225.824 -0.54 -0.01    +0.071 A  
DOCKED: ATOM     13  C   UNL     1     139.736  69.180 224.999 -0.38 -0.00    +0.013 A  
DOCKED: ATOM     14  C   UNL     1     141.094  72.085 226.853 -0.72 -0.01    +0.029 A  
DOCKED: ATOM     15  C   UNL     1     140.278  69.939 226.044 -0.51 -0.00    +0.000 A  
DOCKED: ATOM     16  C   UNL     1     141.358  71.511 228.102 -0.70 -0.00    +0.002 A  
DOCKED: ATOM     17  C   UNL     1     140.548  69.370 227.299 -0.60 -0.00    +0.010 A  
DOCKED: ATOM     18  C   UNL     1     141.086  70.158 228.324 -0.56 -0.00    +0.001 A  
DOCKED: ENDBRANCH   6   9
DOCKED: ENDBRANCH   4   5
DOCKED: ENDBRANCH   1   4
DOCKED: BRANCH   1  19
DOCKED: ATOM     19  N   UNL     1     141.375  73.433 220.034 -0.04 +0.07    -0.335 N  
DOCKED: ATOM     20  C   UNL     1     141.821  72.077 219.665 -0.10 -0.02    +0.120 C  
DOCKED: ATOM     21  C   UNL     1     142.232  74.278 220.890 -0.19 -0.03    +0.115 C  
DOCKED: ATOM     22  C   UNL     1     143.042  71.646 220.486 -0.25 -0.00    +0.022 C  
DOCKED: ATOM     23  C   UNL     1     143.714  74.132 220.474 -0.38 -0.01    +0.030 C  
DOCKED: ATOM     24  C   UNL     1     144.182  72.667 220.361 -0.39 -0.00    +0.004 C  
DOCKED: BRANCH  21  25
DOCKED: ATOM     25  C   UNL     1     141.821  75.742 220.838 -0.27 +0.01    -0.025 A  
DOCKED: ATOM     26  C   UNL     1     141.066  76.319 221.878 -0.37 -0.00    +0.006 A  
DOCKED: ATOM     27  C   UNL     1     142.189  76.539 219.740 -0.31 -0.00    +0.006 A  
DOCKED: ATOM     28  C   UNL     1     140.703  77.668 221.825 -0.37 -0.00    +0.000 A  
DOCKED: ATOM     29  C   UNL     1     141.820  77.886 219.690 -0.29 -0.00    +0.000 A  
DOCKED: ATOM     30  C   UNL     1     141.080  78.451 220.731 -0.28 -0.00    +0.000 A  
DOCKED: ENDBRANCH  21  25
DOCKED: ENDBRANCH   1  19
DOCKED: TORSDOF 6
DOCKED: TER
DOCKED: ENDMDL
________________________________________________________________________________


    FINAL DOCKED STATE:
    ________________________


Run:   16 / 20
Time taken for this run:   0.039s

DOCKED: MODEL        16
DOCKED: USER    Run = 16
DOCKED: USER
DOCKED: USER    Estimated Free Energy of Binding    =  -8.97 kcal/mol  [=(1)+(2)+(3)-(4)]
DOCKED: USER
DOCKED: USER    (1) Final Intermolecular Energy     = -10.76 kcal/mol
DOCKED: USER        vdW + Hbond + desolv Energy     = -10.61 kcal/mol
DOCKED: USER        Electrostatic Energy            =  -0.15 kcal/mol
DOCKED: USER        Moving Ligand-Fixed Receptor    = -10.76 kcal/mol
DOCKED: USER        Moving Ligand-Moving Receptor   =  +0.00 kcal/mol
DOCKED: USER    (2) Final Total Internal Energy     =  -0.72 kcal/mol
DOCKED: USER    (3) Torsional Free Energy           =  +1.79 kcal/mol
DOCKED: USER    (4) Unbound System's Energy         =  -0.72 kcal/mol
DOCKED: USER
DOCKED: USER
DOCKED: REMARK SMILES O=C(N/C=C(/O)N1CCCC[C@H]1c1ccccc1)c1ccc2ccccc2n1
DOCKED: REMARK SMILES IDX 5 1 6 2 4 4 3 5 2 6 1 8 19 9 28 10 20 11 27 12 21 13 26 14
DOCKED: REMARK SMILES IDX 22 15 25 16 23 17 24 18 7 19 8 20 12 21 9 22 11 23 10 24
DOCKED: REMARK SMILES IDX 13 25 14 26 18 27 15 28 17 29 16 30
DOCKED: REMARK H PARENT 6 3 3 7
DOCKED: USER                              x       y       z     vdW  Elec       q    Type
DOCKED: USER                           _______ _______ _______ _____ _____    ______ ____
DOCKED: ROOT
DOCKED: ATOM      1  C   UNL     1     140.082  76.222 221.756 -0.26 -0.05    +0.204 C  
DOCKED: ENDROOT
DOCKED: BRANCH   1   2
DOCKED: ATOM      2  O   UNL     1     141.327  76.843 221.691 -0.11 +0.25    -0.494 OA 
DOCKED: ATOM      3  H   UNL     1     142.159  76.382 222.039 -0.44 -0.27    +0.295 HD 
DOCKED: ENDBRANCH   1   2
DOCKED: BRANCH   1   4
DOCKED: ATOM      4  C   UNL     1     139.982  74.938 221.392 -0.24 -0.03    +0.152 C  
DOCKED: BRANCH   4   5
DOCKED: ATOM      5  N   UNL     1     139.722  73.891 222.341 -0.09 +0.04    -0.322 N  
DOCKED: ATOM      6  C   UNL     1     140.525  72.703 222.405 -0.16 -0.02    +0.273 C  
DOCKED: ATOM      7  H   UNL     1     138.957  74.012 223.040 -0.55 -0.09    +0.169 HD 
DOCKED: ATOM      8  O   UNL     1     141.460  72.529 221.574 -0.21 +0.02    -0.267 OA 
DOCKED: BRANCH   6   9
DOCKED: ATOM      9  C   UNL     1     140.261  71.679 223.439 -0.32 -0.02    +0.129 A  
DOCKED: ATOM     10  N   UNL     1     140.690  71.884 224.717 -0.27 +0.03    -0.243 NA 
DOCKED: ATOM     11  C   UNL     1     139.570  70.495 223.128 -0.26 -0.01    +0.035 A  
DOCKED: ATOM     12  C   UNL     1     140.472  70.983 225.711 -0.53 -0.01    +0.071 A  
DOCKED: ATOM     13  C   UNL     1     139.328  69.550 224.129 -0.31 -0.00    +0.013 A  
DOCKED: ATOM     14  C   UNL     1     140.930  71.242 227.008 -0.69 -0.00    +0.029 A  
DOCKED: ATOM     15  C   UNL     1     139.778  69.786 225.434 -0.44 -0.00    +0.000 A  
DOCKED: ATOM     16  C   UNL     1     140.696  70.317 228.031 -0.63 -0.00    +0.002 A  
DOCKED: ATOM     17  C   UNL     1     139.549  68.861 226.466 -0.54 -0.00    +0.010 A  
DOCKED: ATOM     18  C   UNL     1     140.008  69.130 227.762 -0.63 -0.00    +0.001 A  
DOCKED: ENDBRANCH   6   9
DOCKED: ENDBRANCH   4   5
DOCKED: ENDBRANCH   1   4
DOCKED: BRANCH   1  19
DOCKED: ATOM     19  N   UNL     1     138.938  76.970 222.209 -0.15 +0.07    -0.335 N  
DOCKED: ATOM     20  C   UNL     1     137.670  76.234 222.365 -0.23 -0.03    +0.120 C  
DOCKED: ATOM     21  C   UNL     1     138.922  78.443 222.097 -0.21 -0.02    +0.115 C  
DOCKED: ATOM     22  C   UNL     1     136.461  77.141 222.108 -0.15 -0.00    +0.022 C  
DOCKED: ATOM     23  C   UNL     1     137.897  79.043 223.085 -0.23 -0.00    +0.030 C  
DOCKED: ATOM     24  C   UNL     1     136.503  78.386 223.004 -0.16 -0.00    +0.004 C  
DOCKED: BRANCH  21  25
DOCKED: ATOM     25  C   UNL     1     140.295  79.048 222.343 -0.33 +0.01    -0.025 A  
DOCKED: ATOM     26  C   UNL     1     140.891  78.997 223.618 -0.51 -0.00    +0.006 A  
DOCKED: ATOM     27  C   UNL     1     140.987  79.676 221.292 -0.30 -0.00    +0.006 A  
DOCKED: ATOM     28  C   UNL     1     142.159  79.547 223.830 -0.61 -0.00    +0.000 A  
DOCKED: ATOM     29  C   UNL     1     142.253  80.228 221.510 -0.41 -0.00    +0.000 A  
DOCKED: ATOM     30  C   UNL     1     142.839  80.162 222.777 -0.64 -0.00    +0.000 A  
DOCKED: ENDBRANCH  21  25
DOCKED: ENDBRANCH   1  19
DOCKED: TORSDOF 6
DOCKED: TER
DOCKED: ENDMDL
________________________________________________________________________________


    FINAL DOCKED STATE:
    ________________________


Run:   17 / 20
Time taken for this run:   0.039s

DOCKED: MODEL        17
DOCKED: USER    Run = 17
DOCKED: USER
DOCKED: USER    Estimated Free Energy of Binding    =  -7.79 kcal/mol  [=(1)+(2)+(3)-(4)]
DOCKED: USER
DOCKED: USER    (1) Final Intermolecular Energy     =  -9.58 kcal/mol
DOCKED: USER        vdW + Hbond + desolv Energy     =  -9.52 kcal/mol
DOCKED: USER        Electrostatic Energy            =  -0.05 kcal/mol
DOCKED: USER        Moving Ligand-Fixed Receptor    =  -9.58 kcal/mol
DOCKED: USER        Moving Ligand-Moving Receptor   =  +0.00 kcal/mol
DOCKED: USER    (2) Final Total Internal Energy     =  -1.58 kcal/mol
DOCKED: USER    (3) Torsional Free Energy           =  +1.79 kcal/mol
DOCKED: USER    (4) Unbound System's Energy         =  -1.58 kcal/mol
DOCKED: USER
DOCKED: USER
DOCKED: REMARK SMILES O=C(N/C=C(/O)N1CCCC[C@H]1c1ccccc1)c1ccc2ccccc2n1
DOCKED: REMARK SMILES IDX 5 1 6 2 4 4 3 5 2 6 1 8 19 9 28 10 20 11 27 12 21 13 26 14
DOCKED: REMARK SMILES IDX 22 15 25 16 23 17 24 18 7 19 8 20 12 21 9 22 11 23 10 24
DOCKED: REMARK SMILES IDX 13 25 14 26 18 27 15 28 17 29 16 30
DOCKED: REMARK H PARENT 6 3 3 7
DOCKED: USER                              x       y       z     vdW  Elec       q    Type
DOCKED: USER                           _______ _______ _______ _____ _____    ______ ____
DOCKED: ROOT
DOCKED: ATOM      1  C   UNL     1     141.449  74.338 220.821 -0.21 -0.05    +0.204 C  
DOCKED: ENDROOT
DOCKED: BRANCH   1   2
DOCKED: ATOM      2  O   UNL     1     142.455  73.443 221.178 -0.06 +0.07    -0.494 OA 
DOCKED: ATOM      3  H   UNL     1     142.320  72.444 221.089 +0.12 -0.03    +0.295 HD 
DOCKED: ENDBRANCH   1   2
DOCKED: BRANCH   1   4
DOCKED: ATOM      4  C   UNL     1     140.201  74.109 221.247 -0.22 -0.03    +0.152 C  
DOCKED: BRANCH   4   5
DOCKED: ATOM      5  N   UNL     1     139.919  73.262 222.372 -0.15 +0.04    -0.322 N  
DOCKED: ATOM      6  C   UNL     1     140.306  71.879 222.401 -0.21 -0.04    +0.273 C  
DOCKED: ATOM      7  H   UNL     1     139.461  73.667 223.217 -0.48 -0.05    +0.169 HD 
DOCKED: ATOM      8  O   UNL     1     140.865  71.360 221.395 -0.13 +0.03    -0.267 OA 
DOCKED: BRANCH   6   9
DOCKED: ATOM      9  C   UNL     1     140.052  71.059 223.607 -0.31 -0.02    +0.129 A  
DOCKED: ATOM     10  N   UNL     1     140.562  71.451 224.809 -0.31 +0.04    -0.243 NA 
DOCKED: ATOM     11  C   UNL     1     139.289  69.881 223.534 -0.26 -0.01    +0.035 A  
DOCKED: ATOM     12  C   UNL     1     140.358  70.743 225.951 -0.52 -0.01    +0.071 A  
DOCKED: ATOM     13  C   UNL     1     139.059  69.132 224.692 -0.37 -0.00    +0.013 A  
DOCKED: ATOM     14  C   UNL     1     140.900  71.189 227.161 -0.69 -0.00    +0.029 A  
DOCKED: ATOM     15  C   UNL     1     139.592  69.558 225.915 -0.47 -0.00    +0.000 A  
DOCKED: ATOM     16  C   UNL     1     140.680  70.463 228.337 -0.58 -0.00    +0.002 A  
DOCKED: ATOM     17  C   UNL     1     139.378  68.833 227.098 -0.50 -0.00    +0.010 A  
DOCKED: ATOM     18  C   UNL     1     139.922  69.288 228.307 -0.64 -0.00    +0.001 A  
DOCKED: ENDBRANCH   6   9
DOCKED: ENDBRANCH   4   5
DOCKED: ENDBRANCH   1   4
DOCKED: BRANCH   1  19
DOCKED: ATOM     19  N   UNL     1     141.772  75.483 220.009 -0.09 +0.13    -0.335 N  
DOCKED: ATOM     20  C   UNL     1     140.775  76.567 219.945 -0.14 -0.04    +0.120 C  
DOCKED: ATOM     21  C   UNL     1     142.815  75.384 218.967 -0.23 -0.05    +0.115 C  
DOCKED: ATOM     22  C   UNL     1     140.826  77.295 218.597 -0.11 -0.01    +0.022 C  
DOCKED: ATOM     23  C   UNL     1     143.351  76.789 218.612 -0.28 -0.02    +0.030 C  
DOCKED: ATOM     24  C   UNL     1     142.240  77.813 218.300 -0.29 -0.00    +0.004 C  
DOCKED: BRANCH  21  25
DOCKED: ATOM     25  C   UNL     1     143.964  74.483 219.395 -0.33 +0.01    -0.025 A  
DOCKED: ATOM     26  C   UNL     1     144.213  73.264 218.735 -0.22 -0.00    +0.006 A  
DOCKED: ATOM     27  C   UNL     1     144.792  74.860 220.468 -0.38 -0.00    +0.006 A  
DOCKED: ATOM     28  C   UNL     1     145.279  72.450 219.131 -0.33 +0.00    +0.000 A  
DOCKED: ATOM     29  C   UNL     1     145.853  74.040 220.862 -0.65 -0.00    +0.000 A  
DOCKED: ATOM     30  C   UNL     1     146.098  72.838 220.193 -0.52 +0.00    +0.000 A  
DOCKED: ENDBRANCH  21  25
DOCKED: ENDBRANCH   1  19
DOCKED: TORSDOF 6
DOCKED: TER
DOCKED: ENDMDL
________________________________________________________________________________


    FINAL DOCKED STATE:
    ________________________


Run:   18 / 20
Time taken for this run:   0.039s

DOCKED: MODEL        18
DOCKED: USER    Run = 18
DOCKED: USER
DOCKED: USER    Estimated Free Energy of Binding    =  -8.46 kcal/mol  [=(1)+(2)+(3)-(4)]
DOCKED: USER
DOCKED: USER    (1) Final Intermolecular Energy     = -10.25 kcal/mol
DOCKED: USER        vdW + Hbond + desolv Energy     = -10.07 kcal/mol
DOCKED: USER        Electrostatic Energy            =  -0.18 kcal/mol
DOCKED: USER        Moving Ligand-Fixed Receptor    = -10.25 kcal/mol
DOCKED: USER        Moving Ligand-Moving Receptor   =  +0.00 kcal/mol
DOCKED: USER    (2) Final Total Internal Energy     =  -1.68 kcal/mol
DOCKED: USER    (3) Torsional Free Energy           =  +1.79 kcal/mol
DOCKED: USER    (4) Unbound System's Energy         =  -1.68 kcal/mol
DOCKED: USER
DOCKED: USER
DOCKED: REMARK SMILES O=C(N/C=C(/O)N1CCCC[C@H]1c1ccccc1)c1ccc2ccccc2n1
DOCKED: REMARK SMILES IDX 5 1 6 2 4 4 3 5 2 6 1 8 19 9 28 10 20 11 27 12 21 13 26 14
DOCKED: REMARK SMILES IDX 22 15 25 16 23 17 24 18 7 19 8 20 12 21 9 22 11 23 10 24
DOCKED: REMARK SMILES IDX 13 25 14 26 18 27 15 28 17 29 16 30
DOCKED: REMARK H PARENT 6 3 3 7
DOCKED: USER                              x       y       z     vdW  Elec       q    Type
DOCKED: USER                           _______ _______ _______ _____ _____    ______ ____
DOCKED: ROOT
DOCKED: ATOM      1  C   UNL     1     140.916  75.424 221.065 -0.23 -0.06    +0.204 C  
DOCKED: ENDROOT
DOCKED: BRANCH   1   2
DOCKED: ATOM      2  O   UNL     1     141.259  76.000 222.286 -0.19 +0.17    -0.494 OA 
DOCKED: ATOM      3  H   UNL     1     142.149  76.467 222.410 -0.41 -0.28    +0.295 HD 
DOCKED: ENDBRANCH   1   2
DOCKED: BRANCH   1   4
DOCKED: ATOM      4  C   UNL     1     140.162  74.318 221.063 -0.20 -0.03    +0.152 C  
DOCKED: BRANCH   4   5
DOCKED: ATOM      5  N   UNL     1     139.967  73.521 222.243 -0.14 +0.03    -0.322 N  
DOCKED: ATOM      6  C   UNL     1     140.338  72.135 222.297 -0.21 -0.03    +0.273 C  
DOCKED: ATOM      7  H   UNL     1     139.589  73.968 223.106 -0.51 -0.02    +0.169 HD 
DOCKED: ATOM      8  O   UNL     1     140.801  71.567 221.269 -0.13 +0.03    -0.267 OA 
DOCKED: BRANCH   6   9
DOCKED: ATOM      9  C   UNL     1     140.178  71.369 223.552 -0.32 -0.02    +0.129 A  
DOCKED: ATOM     10  N   UNL     1     140.640  71.891 224.724 -0.27 +0.03    -0.243 NA 
DOCKED: ATOM     11  C   UNL     1     139.554  70.109 223.559 -0.27 -0.01    +0.035 A  
DOCKED: ATOM     12  C   UNL     1     140.518  71.236 225.909 -0.54 -0.01    +0.071 A  
DOCKED: ATOM     13  C   UNL     1     139.410  69.413 224.762 -0.37 -0.00    +0.013 A  
DOCKED: ATOM     14  C   UNL     1     141.005  71.816 227.086 -0.76 -0.01    +0.029 A  
DOCKED: ATOM     15  C   UNL     1     139.891  69.972 225.953 -0.49 -0.00    +0.000 A  
DOCKED: ATOM     16  C   UNL     1     140.869  71.145 228.307 -0.68 -0.00    +0.002 A  
DOCKED: ATOM     17  C   UNL     1     139.760  69.304 227.180 -0.57 -0.00    +0.010 A  
DOCKED: ATOM     18  C   UNL     1     140.249  69.892 228.354 -0.59 -0.00    +0.001 A  
DOCKED: ENDBRANCH   6   9
DOCKED: ENDBRANCH   4   5
DOCKED: ENDBRANCH   1   4
DOCKED: BRANCH   1  19
DOCKED: ATOM     19  N   UNL     1     141.376  76.026 219.841 -0.07 +0.13    -0.335 N  
DOCKED: ATOM     20  C   UNL     1     140.618  77.183 219.331 -0.10 -0.05    +0.120 C  
DOCKED: ATOM     21  C   UNL     1     142.263  75.273 218.930 -0.16 -0.04    +0.115 C  
DOCKED: ATOM     22  C   UNL     1     140.673  77.259 217.802 -0.07 -0.01    +0.022 C  
DOCKED: ATOM     23  C   UNL     1     143.032  76.245 218.007 -0.26 -0.02    +0.030 C  
DOCKED: ATOM     24  C   UNL     1     142.124  77.273 217.300 -0.20 -0.00    +0.004 C  
DOCKED: BRANCH  21  25
DOCKED: ATOM     25  C   UNL     1     143.245  74.394 219.690 -0.30 +0.01    -0.025 A  
DOCKED: ATOM     26  C   UNL     1     142.957  73.038 219.943 -0.23 -0.00    +0.006 A  
DOCKED: ATOM     27  C   UNL     1     144.457  74.932 220.157 -0.40 -0.00    +0.006 A  
DOCKED: ATOM     28  C   UNL     1     143.872  72.237 220.633 -0.34 -0.00    +0.000 A  
DOCKED: ATOM     29  C   UNL     1     145.366  74.127 220.850 -0.60 -0.00    +0.000 A  
DOCKED: ATOM     30  C   UNL     1     145.075  72.781 221.085 -0.48 -0.00    +0.000 A  
DOCKED: ENDBRANCH  21  25
DOCKED: ENDBRANCH   1  19
DOCKED: TORSDOF 6
DOCKED: TER
DOCKED: ENDMDL
________________________________________________________________________________


    FINAL DOCKED STATE:
    ________________________


Run:   19 / 20
Time taken for this run:   0.039s

DOCKED: MODEL        19
DOCKED: USER    Run = 19
DOCKED: USER
DOCKED: USER    Estimated Free Energy of Binding    =  -8.26 kcal/mol  [=(1)+(2)+(3)-(4)]
DOCKED: USER
DOCKED: USER    (1) Final Intermolecular Energy     = -10.05 kcal/mol
DOCKED: USER        vdW + Hbond + desolv Energy     =  -9.96 kcal/mol
DOCKED: USER        Electrostatic Energy            =  -0.09 kcal/mol
DOCKED: USER        Moving Ligand-Fixed Receptor    = -10.05 kcal/mol
DOCKED: USER        Moving Ligand-Moving Receptor   =  +0.00 kcal/mol
DOCKED: USER    (2) Final Total Internal Energy     =  -1.17 kcal/mol
DOCKED: USER    (3) Torsional Free Energy           =  +1.79 kcal/mol
DOCKED: USER    (4) Unbound System's Energy         =  -1.17 kcal/mol
DOCKED: USER
DOCKED: USER
DOCKED: REMARK SMILES O=C(N/C=C(/O)N1CCCC[C@H]1c1ccccc1)c1ccc2ccccc2n1
DOCKED: REMARK SMILES IDX 5 1 6 2 4 4 3 5 2 6 1 8 19 9 28 10 20 11 27 12 21 13 26 14
DOCKED: REMARK SMILES IDX 22 15 25 16 23 17 24 18 7 19 8 20 12 21 9 22 11 23 10 24
DOCKED: REMARK SMILES IDX 13 25 14 26 18 27 15 28 17 29 16 30
DOCKED: REMARK H PARENT 6 3 3 7
DOCKED: USER                              x       y       z     vdW  Elec       q    Type
DOCKED: USER                           _______ _______ _______ _____ _____    ______ ____
DOCKED: ROOT
DOCKED: ATOM      1  C   UNL     1     137.595  69.225 224.836 -0.21 -0.01    +0.204 C  
DOCKED: ENDROOT
DOCKED: BRANCH   1   2
DOCKED: ATOM      2  O   UNL     1     138.120  68.149 225.547 -0.23 -0.03    -0.494 OA 
DOCKED: ATOM      3  H   UNL     1     138.374  68.243 226.523 +0.22 -0.01    +0.295 HD 
DOCKED: ENDBRANCH   1   2
DOCKED: BRANCH   1   4
DOCKED: ATOM      4  C   UNL     1     136.268  69.307 224.676 -0.18 -0.01    +0.152 C  
DOCKED: BRANCH   4   5
DOCKED: ATOM      5  N   UNL     1     135.519  70.466 225.078 -0.05 +0.02    -0.322 N  
DOCKED: ATOM      6  C   UNL     1     134.423  70.381 226.002 -0.18 -0.01    +0.273 C  
DOCKED: ATOM      7  H   UNL     1     135.803  71.406 224.729 +0.05 -0.02    +0.169 HD 
DOCKED: ATOM      8  O   UNL     1     134.057  69.256 226.444 -0.73 -0.00    -0.267 OA 
DOCKED: BRANCH   6   9
DOCKED: ATOM      9  C   UNL     1     133.719  71.607 226.438 -0.32 -0.01    +0.129 A  
DOCKED: ATOM     10  N   UNL     1     134.224  72.829 226.104 -0.36 -0.01    -0.243 NA 
DOCKED: ATOM     11  C   UNL     1     132.533  71.534 227.189 -0.34 -0.01    +0.035 A  
DOCKED: ATOM     12  C   UNL     1     133.619  73.990 226.471 -0.24 +0.01    +0.071 A  
DOCKED: ATOM     13  C   UNL     1     131.887  72.710 227.579 -0.40 -0.00    +0.013 A  
DOCKED: ATOM     14  C   UNL     1     134.175  75.219 226.100 -0.40 +0.00    +0.029 A  
DOCKED: ATOM     15  C   UNL     1     132.424  73.953 227.221 -0.43 -0.00    +0.000 A  
DOCKED: ATOM     16  C   UNL     1     133.545  76.413 226.471 -0.37 -0.00    +0.002 A  
DOCKED: ATOM     17  C   UNL     1     131.800  75.155 227.592 -0.39 -0.00    +0.010 A  
DOCKED: ATOM     18  C   UNL     1     132.361  76.382 227.214 -0.35 -0.00    +0.001 A  
DOCKED: ENDBRANCH   6   9
DOCKED: ENDBRANCH   4   5
DOCKED: ENDBRANCH   1   4
DOCKED: BRANCH   1  19
DOCKED: ATOM     19  N   UNL     1     138.484  70.218 224.291 -0.13 +0.06    -0.335 N  
DOCKED: ATOM     20  C   UNL     1     137.983  71.028 223.165 -0.19 -0.03    +0.120 C  
DOCKED: ATOM     21  C   UNL     1     139.937  70.130 224.540 -0.33 -0.02    +0.115 C  
DOCKED: ATOM     22  C   UNL     1     139.121  71.455 222.232 -0.21 -0.00    +0.022 C  
DOCKED: ATOM     23  C   UNL     1     140.599  71.512 224.340 -0.42 -0.00    +0.030 C  
DOCKED: ATOM     24  C   UNL     1     140.225  72.189 223.005 -0.33 -0.00    +0.004 C  
DOCKED: BRANCH  21  25
DOCKED: ATOM     25  C   UNL     1     140.246  69.604 225.933 -0.47 +0.00    -0.025 A  
DOCKED: ATOM     26  C   UNL     1     139.947  70.368 227.078 -0.55 -0.00    +0.006 A  
DOCKED: ATOM     27  C   UNL     1     140.842  68.341 226.093 -0.55 -0.00    +0.006 A  
DOCKED: ATOM     28  C   UNL     1     140.226  69.870 228.355 -0.59 -0.00    +0.000 A  
DOCKED: ATOM     29  C   UNL     1     141.122  67.849 227.372 -0.63 -0.00    +0.000 A  
DOCKED: ATOM     30  C   UNL     1     140.812  68.611 228.501 -0.65 -0.00    +0.000 A  
DOCKED: ENDBRANCH  21  25
DOCKED: ENDBRANCH   1  19
DOCKED: TORSDOF 6
DOCKED: TER
DOCKED: ENDMDL
________________________________________________________________________________


    FINAL DOCKED STATE:
    ________________________


Run:   20 / 20
Time taken for this run:   0.039s

DOCKED: MODEL        20
DOCKED: USER    Run = 20
DOCKED: USER
DOCKED: USER    Estimated Free Energy of Binding    =  -8.40 kcal/mol  [=(1)+(2)+(3)-(4)]
DOCKED: USER
DOCKED: USER    (1) Final Intermolecular Energy     = -10.19 kcal/mol
DOCKED: USER        vdW + Hbond + desolv Energy     =  -9.99 kcal/mol
DOCKED: USER        Electrostatic Energy            =  -0.20 kcal/mol
DOCKED: USER        Moving Ligand-Fixed Receptor    = -10.19 kcal/mol
DOCKED: USER        Moving Ligand-Moving Receptor   =  +0.00 kcal/mol
DOCKED: USER    (2) Final Total Internal Energy     =  -1.69 kcal/mol
DOCKED: USER    (3) Torsional Free Energy           =  +1.79 kcal/mol
DOCKED: USER    (4) Unbound System's Energy         =  -1.69 kcal/mol
DOCKED: USER
DOCKED: USER
DOCKED: REMARK SMILES O=C(N/C=C(/O)N1CCCC[C@H]1c1ccccc1)c1ccc2ccccc2n1
DOCKED: REMARK SMILES IDX 5 1 6 2 4 4 3 5 2 6 1 8 19 9 28 10 20 11 27 12 21 13 26 14
DOCKED: REMARK SMILES IDX 22 15 25 16 23 17 24 18 7 19 8 20 12 21 9 22 11 23 10 24
DOCKED: REMARK SMILES IDX 13 25 14 26 18 27 15 28 17 29 16 30
DOCKED: REMARK H PARENT 6 3 3 7
DOCKED: USER                              x       y       z     vdW  Elec       q    Type
DOCKED: USER                           _______ _______ _______ _____ _____    ______ ____
DOCKED: ROOT
DOCKED: ATOM      1  C   UNL     1     140.939  75.329 221.091 -0.23 -0.06    +0.204 C  
DOCKED: ENDROOT
DOCKED: BRANCH   1   2
DOCKED: ATOM      2  O   UNL     1     141.441  75.835 222.287 -0.13 +0.17    -0.494 OA 
DOCKED: ATOM      3  H   UNL     1     142.192  76.514 222.291 -0.41 -0.29    +0.295 HD 
DOCKED: ENDBRANCH   1   2
DOCKED: BRANCH   1   4
DOCKED: ATOM      4  C   UNL     1     140.070  74.311 221.135 -0.20 -0.03    +0.152 C  
DOCKED: BRANCH   4   5
DOCKED: ATOM      5  N   UNL     1     139.912  73.489 222.302 -0.14 +0.03    -0.322 N  
DOCKED: ATOM      6  C   UNL     1     140.305  72.108 222.320 -0.21 -0.03    +0.273 C  
DOCKED: ATOM      7  H   UNL     1     139.546  73.912 223.182 -0.50 -0.03    +0.169 HD 
DOCKED: ATOM      8  O   UNL     1     140.754  71.567 221.271 -0.12 +0.04    -0.267 OA 
DOCKED: BRANCH   6   9
DOCKED: ATOM      9  C   UNL     1     140.183  71.314 223.562 -0.32 -0.02    +0.129 A  
DOCKED: ATOM     10  N   UNL     1     140.658  71.821 224.736 -0.28 +0.03    -0.243 NA 
DOCKED: ATOM     11  C   UNL     1     139.582  70.043 223.555 -0.27 -0.01    +0.035 A  
DOCKED: ATOM     12  C   UNL     1     140.570  71.141 225.909 -0.55 -0.01    +0.071 A  
DOCKED: ATOM     13  C   UNL     1     139.475  69.321 224.747 -0.37 -0.00    +0.013 A  
DOCKED: ATOM     14  C   UNL     1     141.069  71.707 227.088 -0.76 -0.01    +0.029 A  
DOCKED: ATOM     15  C   UNL     1     139.968  69.865 225.940 -0.49 -0.00    +0.000 A  
DOCKED: ATOM     16  C   UNL     1     140.969  71.010 228.297 -0.66 -0.00    +0.002 A  
DOCKED: ATOM     17  C   UNL     1     139.873  69.170 227.156 -0.58 -0.00    +0.010 A  
DOCKED: ATOM     18  C   UNL     1     140.373  69.745 228.332 -0.60 -0.00    +0.001 A  
DOCKED: ENDBRANCH   6   9
DOCKED: ENDBRANCH   4   5
DOCKED: ENDBRANCH   1   4
DOCKED: BRANCH   1  19
DOCKED: ATOM     19  N   UNL     1     141.362  75.907 219.842 -0.07 +0.13    -0.335 N  
DOCKED: ATOM     20  C   UNL     1     140.561  77.026 219.311 -0.09 -0.04    +0.120 C  
DOCKED: ATOM     21  C   UNL     1     142.255  75.153 218.939 -0.15 -0.04    +0.115 C  
DOCKED: ATOM     22  C   UNL     1     140.590  77.059 217.779 -0.06 -0.01    +0.022 C  
DOCKED: ATOM     23  C   UNL     1     142.980  76.119 217.975 -0.25 -0.02    +0.030 C  
DOCKED: ATOM     24  C   UNL     1     142.032  77.099 217.253 -0.17 -0.00    +0.004 C  
DOCKED: BRANCH  21  25
DOCKED: ATOM     25  C   UNL     1     143.274  74.326 219.707 -0.30 +0.01    -0.025 A  
DOCKED: ATOM     26  C   UNL     1     143.029  72.971 220.007 -0.24 -0.00    +0.006 A  
DOCKED: ATOM     27  C   UNL     1     144.479  74.911 220.135 -0.39 -0.00    +0.006 A  
DOCKED: ATOM     28  C   UNL     1     143.978  72.217 220.705 -0.35 -0.00    +0.000 A  
DOCKED: ATOM     29  C   UNL     1     145.423  74.154 220.835 -0.60 -0.00    +0.000 A  
DOCKED: ATOM     30  C   UNL     1     145.174  72.809 221.118 -0.50 -0.00    +0.000 A  
DOCKED: ENDBRANCH  21  25
DOCKED: ENDBRANCH   1  19
DOCKED: TORSDOF 6
DOCKED: TER
DOCKED: ENDMDL
________________________________________________________________________________


    CLUSTERING HISTOGRAM
    ____________________


________________________________________________________________________________
     |           |     |           |     |
Clus | Lowest    | Run | Mean      | Num | Histogram
-ter | Binding   |     | Binding   | in  |
Rank | Energy    |     | Energy    | Clus|    5    10   15   20   25   30   35
_____|___________|_____|___________|_____|____:____|____:____|____:____|____:___
   1 |     -8.97 |  16 |     -8.72 |   9 |#########
   2 |     -8.49 |   3 |     -8.37 |   7 |#######
   3 |     -8.26 |  19 |     -8.26 |   1 |#
   4 |     -7.35 |  11 |     -7.32 |   3 |###
_____|___________|_____|___________|_____|______________________________________


    RMSD TABLE
    __________


_______________________________________________________________________
     |      |      |           |         |                 |
Rank | Sub- | Run  | Binding   | Cluster | Reference       | Grep
     | Rank |      | Energy    | RMSD    | RMSD            | Pattern
_____|______|______|___________|_________|_________________|___________
   1      1     16       -8.97      0.00    269.65           RANKING
   1      2      5       -8.86      1.74    269.50           RANKING
   1      3      1       -8.83      1.73    269.50           RANKING
   1      4      7       -8.82      1.73    269.50           RANKING
   1      5     14       -8.81      1.73    269.48           RANKING
   1      6     13       -8.76      0.47    269.52           RANKING
   1      7      4       -8.73      0.52    269.54           RANKING
   1      8      6       -8.66      1.75    269.40           RANKING
   1      9     10       -8.07      1.76    269.28           RANKING
   2      1      3       -8.49      0.00    269.07           RANKING
   2      2      9       -8.49      0.12    269.05           RANKING
   2      3      8       -8.49      0.05    269.04           RANKING
   2      4      2       -8.46      0.08    269.04           RANKING
   2      5     18       -8.46      0.19    269.03           RANKING
   2      6     20       -8.40      0.28    269.02           RANKING
   2      7     17       -7.79      1.07    268.96           RANKING
   3      1     19       -8.26      0.00    269.07           RANKING
   4      1     11       -7.35      0.00    268.76           RANKING
   4      2     15       -7.34      0.35    268.76           RANKING
   4      3     12       -7.28      0.35    268.76           RANKING

Run time 0.732 sec
Idle time 0.000 sec
