AutoDock-GPU version: v1.6

**********************************************************
**    AutoDock-GPU AUTODOCKTOOLS-COMPATIBLE DLG FILE    **
**********************************************************


    DOCKING PARAMETERS
    ________________________


Ligand file:                               /home/a/REINVENT4/ReinventStudies/pleaseWork/justmol2mol_4_Compounds_ontop/graph-dock-8u2o5u/graph-DockGPU/node-autodockgpu/inputs/ROIVMBRVEAHJIM-OHXVKBTRNA-N.pdbqt
Grid fld file:                             /home/a/REINVENT4/ReinventStudies/mols/Rad51/maps/rad51_receptor.maps.fld

Random seed:                               42
Number of runs:                            20
Number of energy evaluations:              1132076
Number of generations:                     42000
Size of population:                        150
Rate of crossover:                         80.000000%
Tournament selection probability limit:    60.000000%
Rate of mutation:                          2.000000%
Maximal allowed delta movement:            +/- 6.000000A
Maximal allowed delta angle:               +/- 90.000000

Rate of local search:                      100.000000%
Maximal number of local search iterations: 300
Rho lower bound:                           0.010000
Spread of local search delta movement:     2.000000A
Spread of local search delta angle:        74.999999
Limit of consecutive successes/failures:   4

Handle symmetry during clustering:         YES
RMSD tolerance:                            2.000000A

Program call in command line was:          /home/a/REINVENT4/ReinventStudies/adgpu-v1.6_linux_x64_cuda12_128wi --filelist batch.txt --heuristics 1 --nrun 20 --psize 150 --lsit 300 --seed 42 --heurmax 12000000 


    GRID PARAMETERS
    ________________________


Receptor name:                             rad51_receptor
Number of grid points (x, y, z):           53, 53, 53
Grid center (x, y, z):                     139.950000, 75.640000, 221.970000A
Grid size (x, y, z):                       19.500000, 19.500000, 19.500000A
Grid spacing:                              0.375000A


    LIGAND PARAMETERS
    ________________________


Ligand name:                               /home/a/REINVENT4/ReinventStudies/pleaseWork/justmol2mol_4_Compounds_ontop/graph-dock-8u2o5u/graph-DockGPU/node-autodockgpu/inputs/ROIVMBRVEAHJIM-OHXVKBTRNA-N
Number of atoms:                           30
Number of rotatable bonds:                 6
Number of atom types:                      6


    DUMMY DATA (only for ADT-compatibility)
    ________________________


DPF> outlev 1
DPF> ga_run 20
DPF> fld /home/a/REINVENT4/ReinventStudies/mols/Rad51/maps/rad51_receptor.maps.fld
DPF> move /home/a/REINVENT4/ReinventStudies/pleaseWork/justmol2mol_4_Compounds_ontop/graph-dock-8u2o5u/graph-DockGPU/node-autodockgpu/inputs/ROIVMBRVEAHJIM-OHXVKBTRNA-N.pdbqt


    COUNTER STATES
    ________________________


Number of energy evaluations performed:    912022
Number of generations used:                50


    INPUT LIGAND PDBQT FILE:
    ________________________


INPUT-LIGAND-PDBQT: REMARK SMILES O=C(N/C=C(\O)N1CCCC[C@H]1c1ccccc1)c1ccc2ccccc2n1
INPUT-LIGAND-PDBQT: REMARK SMILES IDX 5 1 6 2 4 4 3 5 2 6 1 8 19 9 28 10 20 11 27 12 21 13 26 14
INPUT-LIGAND-PDBQT: REMARK SMILES IDX 22 15 25 16 23 17 24 18 7 19 8 20 12 21 9 22 11 23 10 24
INPUT-LIGAND-PDBQT: REMARK SMILES IDX 13 25 14 26 18 27 15 28 17 29 16 30
INPUT-LIGAND-PDBQT: REMARK H PARENT 6 3 3 7
INPUT-LIGAND-PDBQT: ROOT
INPUT-LIGAND-PDBQT: ATOM      1  C   UNL     1      -0.566  -0.606   0.451  1.00  0.00     0.204 C 
INPUT-LIGAND-PDBQT: ENDROOT
INPUT-LIGAND-PDBQT: BRANCH   1   2
INPUT-LIGAND-PDBQT: ATOM      2  O   UNL     1       0.189   0.477   0.001  1.00  0.00    -0.494 OA
INPUT-LIGAND-PDBQT: ATOM      3  H   UNL     1      -0.207   1.189  -0.599  1.00  0.00     0.295 HD
INPUT-LIGAND-PDBQT: ENDBRANCH   1   2
INPUT-LIGAND-PDBQT: BRANCH   1   4
INPUT-LIGAND-PDBQT: ATOM      4  C   UNL     1      -0.026  -1.491   1.300  1.00  0.00     0.152 C 
INPUT-LIGAND-PDBQT: BRANCH   4   5
INPUT-LIGAND-PDBQT: ATOM      5  N   UNL     1       1.309  -1.360   1.808  1.00  0.00    -0.322 N 
INPUT-LIGAND-PDBQT: ATOM      6  C   UNL     1       1.824  -0.144   2.377  1.00  0.00     0.273 C 
INPUT-LIGAND-PDBQT: ATOM      7  H   UNL     1       1.857  -2.240   1.931  1.00  0.00     0.169 HD
INPUT-LIGAND-PDBQT: ATOM      8  O   UNL     1       1.040   0.811   2.635  1.00  0.00    -0.267 OA
INPUT-LIGAND-PDBQT: BRANCH   6   9
INPUT-LIGAND-PDBQT: ATOM      9  C   UNL     1       3.264  -0.017   2.690  1.00  0.00     0.129 A 
INPUT-LIGAND-PDBQT: ATOM     10  N   UNL     1       4.112  -1.036   2.375  1.00  0.00    -0.243 NA
INPUT-LIGAND-PDBQT: ATOM     11  C   UNL     1       3.774   1.142   3.299  1.00  0.00     0.035 A 
INPUT-LIGAND-PDBQT: ATOM     12  C   UNL     1       5.446  -0.974   2.633  1.00  0.00     0.071 A 
INPUT-LIGAND-PDBQT: ATOM     13  C   UNL     1       5.140   1.234   3.577  1.00  0.00     0.013 A 
INPUT-LIGAND-PDBQT: ATOM     14  C   UNL     1       6.278  -2.046   2.293  1.00  0.00     0.029 A 
INPUT-LIGAND-PDBQT: ATOM     15  C   UNL     1       5.992   0.175   3.246  1.00  0.00     0.000 A 
INPUT-LIGAND-PDBQT: ATOM     16  C   UNL     1       7.649  -1.979   2.560  1.00  0.00     0.002 A 
INPUT-LIGAND-PDBQT: ATOM     17  C   UNL     1       7.368   0.234   3.511  1.00  0.00     0.010 A 
INPUT-LIGAND-PDBQT: ATOM     18  C   UNL     1       8.193  -0.842   3.167  1.00  0.00     0.001 A 
INPUT-LIGAND-PDBQT: ENDBRANCH   6   9
INPUT-LIGAND-PDBQT: ENDBRANCH   4   5
INPUT-LIGAND-PDBQT: ENDBRANCH   1   4
INPUT-LIGAND-PDBQT: BRANCH   1  19
INPUT-LIGAND-PDBQT: ATOM     19  N   UNL     1      -1.909  -0.800  -0.031  1.00  0.00    -0.335 N 
INPUT-LIGAND-PDBQT: ATOM     20  C   UNL     1      -3.016  -0.822   0.942  1.00  0.00     0.120 C 
INPUT-LIGAND-PDBQT: ATOM     21  C   UNL     1      -2.134  -0.905  -1.489  1.00  0.00     0.115 C 
INPUT-LIGAND-PDBQT: ATOM     22  C   UNL     1      -4.090  -1.835   0.550  1.00  0.00     0.022 C 
INPUT-LIGAND-PDBQT: ATOM     23  C   UNL     1      -3.329  -1.820  -1.838  1.00  0.00     0.030 C 
INPUT-LIGAND-PDBQT: ATOM     24  C   UNL     1      -4.522  -1.638  -0.900  1.00  0.00     0.004 C 
INPUT-LIGAND-PDBQT: BRANCH  21  25
INPUT-LIGAND-PDBQT: ATOM     25  C   UNL     1      -2.241   0.455  -2.165  1.00  0.00    -0.025 A 
INPUT-LIGAND-PDBQT: ATOM     26  C   UNL     1      -1.472   0.712  -3.318  1.00  0.00     0.006 A 
INPUT-LIGAND-PDBQT: ATOM     27  C   UNL     1      -3.111   1.459  -1.699  1.00  0.00     0.006 A 
INPUT-LIGAND-PDBQT: ATOM     28  C   UNL     1      -1.555   1.946  -3.970  1.00  0.00     0.000 A 
INPUT-LIGAND-PDBQT: ATOM     29  C   UNL     1      -3.190   2.692  -2.354  1.00  0.00     0.000 A 
INPUT-LIGAND-PDBQT: ATOM     30  C   UNL     1      -2.412   2.936  -3.487  1.00  0.00     0.000 A 
INPUT-LIGAND-PDBQT: ENDBRANCH  21  25
INPUT-LIGAND-PDBQT: ENDBRANCH   1  19
INPUT-LIGAND-PDBQT: TORSDOF 6


    FINAL DOCKED STATE:
    ________________________


Run:   1 / 20
Time taken for this run:   0.037s

DOCKED: MODEL        1
DOCKED: USER    Run = 1
DOCKED: USER
DOCKED: USER    Estimated Free Energy of Binding    =  -7.79 kcal/mol  [=(1)+(2)+(3)-(4)]
DOCKED: USER
DOCKED: USER    (1) Final Intermolecular Energy     =  -9.58 kcal/mol
DOCKED: USER        vdW + Hbond + desolv Energy     =  -9.57 kcal/mol
DOCKED: USER        Electrostatic Energy            =  -0.01 kcal/mol
DOCKED: USER        Moving Ligand-Fixed Receptor    =  -9.58 kcal/mol
DOCKED: USER        Moving Ligand-Moving Receptor   =  +0.00 kcal/mol
DOCKED: USER    (2) Final Total Internal Energy     =  -2.26 kcal/mol
DOCKED: USER    (3) Torsional Free Energy           =  +1.79 kcal/mol
DOCKED: USER    (4) Unbound System's Energy         =  -2.26 kcal/mol
DOCKED: USER
DOCKED: USER
DOCKED: REMARK SMILES O=C(N/C=C(\O)N1CCCC[C@H]1c1ccccc1)c1ccc2ccccc2n1
DOCKED: REMARK SMILES IDX 5 1 6 2 4 4 3 5 2 6 1 8 19 9 28 10 20 11 27 12 21 13 26 14
DOCKED: REMARK SMILES IDX 22 15 25 16 23 17 24 18 7 19 8 20 12 21 9 22 11 23 10 24
DOCKED: REMARK SMILES IDX 13 25 14 26 18 27 15 28 17 29 16 30
DOCKED: REMARK H PARENT 6 3 3 7
DOCKED: USER                              x       y       z     vdW  Elec       q    Type
DOCKED: USER                           _______ _______ _______ _____ _____    ______ ____
DOCKED: ROOT
DOCKED: ATOM      1  C   UNL     1     140.043  74.169 220.081 -0.07 -0.04    +0.204 C  
DOCKED: ENDROOT
DOCKED: BRANCH   1   2
DOCKED: ATOM      2  O   UNL     1     139.877  73.118 219.179 +0.01 +0.10    -0.494 OA 
DOCKED: ATOM      3  H   UNL     1     139.814  72.156 219.488 +0.04 -0.05    +0.295 HD 
DOCKED: ENDBRANCH   1   2
DOCKED: BRANCH   1   4
DOCKED: ATOM      4  C   UNL     1     139.264  74.246 221.169 -0.17 -0.03    +0.152 C  
DOCKED: BRANCH   4   5
DOCKED: ATOM      5  N   UNL     1     139.517  73.483 222.357 -0.12 +0.06    -0.322 N  
DOCKED: ATOM      6  C   UNL     1     139.941  72.109 222.341 -0.20 -0.04    +0.273 C  
DOCKED: ATOM      7  H   UNL     1     139.569  74.011 223.256 -0.49 -0.02    +0.169 HD 
DOCKED: ATOM      8  O   UNL     1     140.304  71.576 221.256 -0.11 +0.04    -0.267 OA 
DOCKED: BRANCH   6   9
DOCKED: ATOM      9  C   UNL     1     139.983  71.326 223.595 -0.32 -0.02    +0.129 A  
DOCKED: ATOM     10  N   UNL     1     140.451  71.907 224.734 -0.25 +0.04    -0.243 NA 
DOCKED: ATOM     11  C   UNL     1     139.540  69.993 223.632 -0.27 -0.01    +0.035 A  
DOCKED: ATOM     12  C   UNL     1     140.509  71.239 225.918 -0.54 -0.01    +0.071 A  
DOCKED: ATOM     13  C   UNL     1     139.588  69.281 224.833 -0.37 -0.00    +0.013 A  
DOCKED: ATOM     14  C   UNL     1     140.999  71.877 227.062 -0.76 -0.01    +0.029 A  
DOCKED: ATOM     15  C   UNL     1     140.073  69.898 225.991 -0.50 -0.00    +0.000 A  
DOCKED: ATOM     16  C   UNL     1     141.056  71.187 228.277 -0.70 -0.00    +0.002 A  
DOCKED: ATOM     17  C   UNL     1     140.135  69.212 227.213 -0.59 -0.00    +0.010 A  
DOCKED: ATOM     18  C   UNL     1     140.625  69.858 228.353 -0.58 -0.00    +0.001 A  
DOCKED: ENDBRANCH   6   9
DOCKED: ENDBRANCH   4   5
DOCKED: ENDBRANCH   1   4
DOCKED: BRANCH   1  19
DOCKED: ATOM     19  N   UNL     1     141.019  75.195 219.822 -0.04 +0.10    -0.335 N  
DOCKED: ATOM     20  C   UNL     1     140.845  76.516 220.454 -0.19 -0.04    +0.120 C  
DOCKED: ATOM     21  C   UNL     1     142.193  74.866 218.985 -0.14 -0.04    +0.115 C  
DOCKED: ATOM     22  C   UNL     1     141.282  77.646 219.524 -0.21 -0.01    +0.022 C  
DOCKED: ATOM     23  C   UNL     1     142.700  76.081 218.175 -0.23 -0.02    +0.030 C  
DOCKED: ATOM     24  C   UNL     1     142.679  77.386 218.969 -0.32 -0.00    +0.004 C  
DOCKED: BRANCH  21  25
DOCKED: ATOM     25  C   UNL     1     143.311  74.204 219.778 -0.31 +0.01    -0.025 A  
DOCKED: ATOM     26  C   UNL     1     143.185  72.848 220.143 -0.27 -0.00    +0.006 A  
DOCKED: ATOM     27  C   UNL     1     144.490  74.889 220.130 -0.39 -0.00    +0.006 A  
DOCKED: ATOM     28  C   UNL     1     144.198  72.206 220.861 -0.35 -0.00    +0.000 A  
DOCKED: ATOM     29  C   UNL     1     145.500  74.242 220.849 -0.58 -0.00    +0.000 A  
DOCKED: ATOM     30  C   UNL     1     145.354  72.903 221.216 -0.54 -0.00    +0.000 A  
DOCKED: ENDBRANCH  21  25
DOCKED: ENDBRANCH   1  19
DOCKED: TORSDOF 6
DOCKED: TER
DOCKED: ENDMDL
________________________________________________________________________________


    FINAL DOCKED STATE:
    ________________________


Run:   2 / 20
Time taken for this run:   0.037s

DOCKED: MODEL        2
DOCKED: USER    Run = 2
DOCKED: USER
DOCKED: USER    Estimated Free Energy of Binding    =  -8.78 kcal/mol  [=(1)+(2)+(3)-(4)]
DOCKED: USER
DOCKED: USER    (1) Final Intermolecular Energy     = -10.57 kcal/mol
DOCKED: USER        vdW + Hbond + desolv Energy     = -10.48 kcal/mol
DOCKED: USER        Electrostatic Energy            =  -0.09 kcal/mol
DOCKED: USER        Moving Ligand-Fixed Receptor    = -10.57 kcal/mol
DOCKED: USER        Moving Ligand-Moving Receptor   =  +0.00 kcal/mol
DOCKED: USER    (2) Final Total Internal Energy     =  -1.92 kcal/mol
DOCKED: USER    (3) Torsional Free Energy           =  +1.79 kcal/mol
DOCKED: USER    (4) Unbound System's Energy         =  -1.92 kcal/mol
DOCKED: USER
DOCKED: USER
DOCKED: REMARK SMILES O=C(N/C=C(\O)N1CCCC[C@H]1c1ccccc1)c1ccc2ccccc2n1
DOCKED: REMARK SMILES IDX 5 1 6 2 4 4 3 5 2 6 1 8 19 9 28 10 20 11 27 12 21 13 26 14
DOCKED: REMARK SMILES IDX 22 15 25 16 23 17 24 18 7 19 8 20 12 21 9 22 11 23 10 24
DOCKED: REMARK SMILES IDX 13 25 14 26 18 27 15 28 17 29 16 30
DOCKED: REMARK H PARENT 6 3 3 7
DOCKED: USER                              x       y       z     vdW  Elec       q    Type
DOCKED: USER                           _______ _______ _______ _____ _____    ______ ____
DOCKED: ROOT
DOCKED: ATOM      1  C   UNL     1     140.554  74.251 221.232 -0.21 -0.03    +0.204 C  
DOCKED: ENDROOT
DOCKED: BRANCH   1   2
DOCKED: ATOM      2  O   UNL     1     139.837  74.720 222.332 -0.65 +0.03    -0.494 OA 
DOCKED: ATOM      3  H   UNL     1     139.139  74.151 222.794 -0.48 -0.10    +0.295 HD 
DOCKED: ENDBRANCH   1   2
DOCKED: BRANCH   1   4
DOCKED: ATOM      4  C   UNL     1     140.490  72.956 220.894 -0.16 -0.02    +0.152 C  
DOCKED: BRANCH   4   5
DOCKED: ATOM      5  N   UNL     1     140.483  71.903 221.867 -0.13 +0.04    -0.322 N  
DOCKED: ATOM      6  C   UNL     1     139.403  71.685 222.792 -0.19 -0.06    +0.273 C  
DOCKED: ATOM      7  H   UNL     1     141.211  71.161 221.768 +0.06 -0.02    +0.169 HD 
DOCKED: ATOM      8  O   UNL     1     138.314  72.306 222.643 -0.14 +0.09    -0.267 OA 
DOCKED: BRANCH   6   9
DOCKED: ATOM      9  C   UNL     1     139.551  70.716 223.899 -0.30 -0.02    +0.129 A  
DOCKED: ATOM     10  N   UNL     1     140.170  71.102 225.050 -0.31 +0.04    -0.243 NA 
DOCKED: ATOM     11  C   UNL     1     139.055  69.406 223.787 -0.27 -0.01    +0.035 A  
DOCKED: ATOM     12  C   UNL     1     140.330  70.257 226.104 -0.49 -0.01    +0.071 A  
DOCKED: ATOM     13  C   UNL     1     139.206  68.516 224.853 -0.40 -0.00    +0.013 A  
DOCKED: ATOM     14  C   UNL     1     140.974  70.696 227.266 -0.62 -0.00    +0.029 A  
DOCKED: ATOM     15  C   UNL     1     139.846  68.933 226.025 -0.52 -0.00    +0.000 A  
DOCKED: ATOM     16  C   UNL     1     141.137  69.825 228.347 -0.55 -0.00    +0.002 A  
DOCKED: ATOM     17  C   UNL     1     140.014  68.065 227.114 -0.65 -0.00    +0.010 A  
DOCKED: ATOM     18  C   UNL     1     140.658  68.513 228.272 -0.68 -0.00    +0.001 A  
DOCKED: ENDBRANCH   6   9
DOCKED: ENDBRANCH   4   5
DOCKED: ENDBRANCH   1   4
DOCKED: BRANCH   1  19
DOCKED: ATOM     19  N   UNL     1     141.398  75.147 220.485 -0.11 +0.11    -0.335 N  
DOCKED: ATOM     20  C   UNL     1     141.482  76.558 220.904 -0.21 -0.06    +0.120 C  
DOCKED: ATOM     21  C   UNL     1     142.200  74.605 219.367 -0.16 -0.04    +0.115 C  
DOCKED: ATOM     22  C   UNL     1     141.590  77.497 219.704 -0.26 -0.01    +0.022 C  
DOCKED: ATOM     23  C   UNL     1     142.416  75.638 218.239 -0.18 -0.01    +0.030 C  
DOCKED: ATOM     24  C   UNL     1     142.700  77.048 218.759 -0.33 -0.00    +0.004 C  
DOCKED: BRANCH  21  25
DOCKED: ATOM     25  C   UNL     1     143.511  73.986 219.832 -0.32 +0.01    -0.025 A  
DOCKED: ATOM     26  C   UNL     1     143.728  72.607 219.634 -0.25 -0.00    +0.006 A  
DOCKED: ATOM     27  C   UNL     1     144.535  74.750 220.422 -0.42 -0.00    +0.006 A  
DOCKED: ATOM     28  C   UNL     1     144.925  72.009 220.038 -0.36 +0.00    +0.000 A  
DOCKED: ATOM     29  C   UNL     1     145.730  74.147 220.826 -0.63 -0.00    +0.000 A  
DOCKED: ATOM     30  C   UNL     1     145.925  72.778 220.636 -0.58 +0.00    +0.000 A  
DOCKED: ENDBRANCH  21  25
DOCKED: ENDBRANCH   1  19
DOCKED: TORSDOF 6
DOCKED: TER
DOCKED: ENDMDL
________________________________________________________________________________


    FINAL DOCKED STATE:
    ________________________


Run:   3 / 20
Time taken for this run:   0.037s

DOCKED: MODEL        3
DOCKED: USER    Run = 3
DOCKED: USER
DOCKED: USER    Estimated Free Energy of Binding    =  -8.79 kcal/mol  [=(1)+(2)+(3)-(4)]
DOCKED: USER
DOCKED: USER    (1) Final Intermolecular Energy     = -10.58 kcal/mol
DOCKED: USER        vdW + Hbond + desolv Energy     = -10.49 kcal/mol
DOCKED: USER        Electrostatic Energy            =  -0.09 kcal/mol
DOCKED: USER        Moving Ligand-Fixed Receptor    = -10.58 kcal/mol
DOCKED: USER        Moving Ligand-Moving Receptor   =  +0.00 kcal/mol
DOCKED: USER    (2) Final Total Internal Energy     =  -1.89 kcal/mol
DOCKED: USER    (3) Torsional Free Energy           =  +1.79 kcal/mol
DOCKED: USER    (4) Unbound System's Energy         =  -1.89 kcal/mol
DOCKED: USER
DOCKED: USER
DOCKED: REMARK SMILES O=C(N/C=C(\O)N1CCCC[C@H]1c1ccccc1)c1ccc2ccccc2n1
DOCKED: REMARK SMILES IDX 5 1 6 2 4 4 3 5 2 6 1 8 19 9 28 10 20 11 27 12 21 13 26 14
DOCKED: REMARK SMILES IDX 22 15 25 16 23 17 24 18 7 19 8 20 12 21 9 22 11 23 10 24
DOCKED: REMARK SMILES IDX 13 25 14 26 18 27 15 28 17 29 16 30
DOCKED: REMARK H PARENT 6 3 3 7
DOCKED: USER                              x       y       z     vdW  Elec       q    Type
DOCKED: USER                           _______ _______ _______ _____ _____    ______ ____
DOCKED: ROOT
DOCKED: ATOM      1  C   UNL     1     140.504  74.201 221.329 -0.22 -0.03    +0.204 C  
DOCKED: ENDROOT
DOCKED: BRANCH   1   2
DOCKED: ATOM      2  O   UNL     1     139.633  74.615 222.337 -0.66 +0.06    -0.494 OA 
DOCKED: ATOM      3  H   UNL     1     138.972  73.978 222.763 -0.49 -0.12    +0.295 HD 
DOCKED: ENDBRANCH   1   2
DOCKED: BRANCH   1   4
DOCKED: ATOM      4  C   UNL     1     140.588  72.903 221.009 -0.18 -0.02    +0.152 C  
DOCKED: BRANCH   4   5
DOCKED: ATOM      5  N   UNL     1     140.580  71.861 221.995 -0.14 +0.04    -0.322 N  
DOCKED: ATOM      6  C   UNL     1     139.453  71.584 222.845 -0.20 -0.06    +0.273 C  
DOCKED: ATOM      7  H   UNL     1     141.359  71.168 221.957 +0.06 -0.01    +0.169 HD 
DOCKED: ATOM      8  O   UNL     1     138.340  72.131 222.611 -0.14 +0.08    -0.267 OA 
DOCKED: BRANCH   6   9
DOCKED: ATOM      9  C   UNL     1     139.584  70.638 223.974 -0.30 -0.02    +0.129 A  
DOCKED: ATOM     10  N   UNL     1     140.247  71.025 225.100 -0.31 +0.04    -0.243 NA 
DOCKED: ATOM     11  C   UNL     1     139.029  69.350 223.908 -0.29 -0.01    +0.035 A  
DOCKED: ATOM     12  C   UNL     1     140.394  70.201 226.172 -0.49 -0.01    +0.071 A  
DOCKED: ATOM     13  C   UNL     1     139.165  68.481 224.994 -0.42 -0.00    +0.013 A  
DOCKED: ATOM     14  C   UNL     1     141.084  70.641 227.307 -0.61 -0.00    +0.029 A  
DOCKED: ATOM     15  C   UNL     1     139.850  68.898 226.140 -0.53 -0.00    +0.000 A  
DOCKED: ATOM     16  C   UNL     1     141.234  69.791 228.408 -0.47 -0.00    +0.002 A  
DOCKED: ATOM     17  C   UNL     1     140.005  68.052 227.247 -0.65 -0.00    +0.010 A  
DOCKED: ATOM     18  C   UNL     1     140.696  68.500 228.378 -0.67 -0.00    +0.001 A  
DOCKED: ENDBRANCH   6   9
DOCKED: ENDBRANCH   4   5
DOCKED: ENDBRANCH   1   4
DOCKED: BRANCH   1  19
DOCKED: ATOM     19  N   UNL     1     141.346  75.161 220.663 -0.12 +0.10    -0.335 N  
DOCKED: ATOM     20  C   UNL     1     141.437  76.526 221.212 -0.19 -0.06    +0.120 C  
DOCKED: ATOM     21  C   UNL     1     142.137  74.724 219.492 -0.17 -0.04    +0.115 C  
DOCKED: ATOM     22  C   UNL     1     141.539  77.573 220.104 -0.27 -0.01    +0.022 C  
DOCKED: ATOM     23  C   UNL     1     142.348  75.858 218.465 -0.20 -0.01    +0.030 C  
DOCKED: ATOM     24  C   UNL     1     142.640  77.212 219.112 -0.33 -0.00    +0.004 C  
DOCKED: BRANCH  21  25
DOCKED: ATOM     25  C   UNL     1     143.449  74.061 219.887 -0.32 +0.01    -0.025 A  
DOCKED: ATOM     26  C   UNL     1     144.471  74.845 220.461 -0.40 -0.00    +0.006 A  
DOCKED: ATOM     27  C   UNL     1     143.669  72.679 219.731 -0.26 -0.00    +0.006 A  
DOCKED: ATOM     28  C   UNL     1     145.684  74.265 220.845 -0.57 -0.00    +0.000 A  
DOCKED: ATOM     29  C   UNL     1     144.884  72.104 220.116 -0.37 -0.00    +0.000 A  
DOCKED: ATOM     30  C   UNL     1     145.891  72.896 220.671 -0.61 +0.00    +0.000 A  
DOCKED: ENDBRANCH  21  25
DOCKED: ENDBRANCH   1  19
DOCKED: TORSDOF 6
DOCKED: TER
DOCKED: ENDMDL
________________________________________________________________________________


    FINAL DOCKED STATE:
    ________________________


Run:   4 / 20
Time taken for this run:   0.037s

DOCKED: MODEL        4
DOCKED: USER    Run = 4
DOCKED: USER
DOCKED: USER    Estimated Free Energy of Binding    =  -7.84 kcal/mol  [=(1)+(2)+(3)-(4)]
DOCKED: USER
DOCKED: USER    (1) Final Intermolecular Energy     =  -9.63 kcal/mol
DOCKED: USER        vdW + Hbond + desolv Energy     =  -9.61 kcal/mol
DOCKED: USER        Electrostatic Energy            =  -0.02 kcal/mol
DOCKED: USER        Moving Ligand-Fixed Receptor    =  -9.63 kcal/mol
DOCKED: USER        Moving Ligand-Moving Receptor   =  +0.00 kcal/mol
DOCKED: USER    (2) Final Total Internal Energy     =  -2.29 kcal/mol
DOCKED: USER    (3) Torsional Free Energy           =  +1.79 kcal/mol
DOCKED: USER    (4) Unbound System's Energy         =  -2.29 kcal/mol
DOCKED: USER
DOCKED: USER
DOCKED: REMARK SMILES O=C(N/C=C(\O)N1CCCC[C@H]1c1ccccc1)c1ccc2ccccc2n1
DOCKED: REMARK SMILES IDX 5 1 6 2 4 4 3 5 2 6 1 8 19 9 28 10 20 11 27 12 21 13 26 14
DOCKED: REMARK SMILES IDX 22 15 25 16 23 17 24 18 7 19 8 20 12 21 9 22 11 23 10 24
DOCKED: REMARK SMILES IDX 13 25 14 26 18 27 15 28 17 29 16 30
DOCKED: REMARK H PARENT 6 3 3 7
DOCKED: USER                              x       y       z     vdW  Elec       q    Type
DOCKED: USER                           _______ _______ _______ _____ _____    ______ ____
DOCKED: ROOT
DOCKED: ATOM      1  C   UNL     1     139.958  74.175 220.089 -0.07 -0.04    +0.204 C  
DOCKED: ENDROOT
DOCKED: BRANCH   1   2
DOCKED: ATOM      2  O   UNL     1     139.843  73.191 219.107 +0.01 +0.10    -0.494 OA 
DOCKED: ATOM      3  H   UNL     1     139.931  72.207 219.327 +0.04 -0.05    +0.295 HD 
DOCKED: ENDBRANCH   1   2
DOCKED: BRANCH   1   4
DOCKED: ATOM      4  C   UNL     1     139.137  74.163 221.147 -0.16 -0.03    +0.152 C  
DOCKED: BRANCH   4   5
DOCKED: ATOM      5  N   UNL     1     139.421  73.414 222.338 -0.13 +0.07    -0.322 N  
DOCKED: ATOM      6  C   UNL     1     139.849  72.042 222.327 -0.20 -0.05    +0.273 C  
DOCKED: ATOM      7  H   UNL     1     139.492  73.952 223.229 -0.49 -0.04    +0.169 HD 
DOCKED: ATOM      8  O   UNL     1     140.187  71.497 221.240 -0.10 +0.04    -0.267 OA 
DOCKED: BRANCH   6   9
DOCKED: ATOM      9  C   UNL     1     139.924  71.272 223.588 -0.32 -0.02    +0.129 A  
DOCKED: ATOM     10  N   UNL     1     140.399  71.875 224.714 -0.27 +0.04    -0.243 NA 
DOCKED: ATOM     11  C   UNL     1     139.505  69.933 223.646 -0.27 -0.01    +0.035 A  
DOCKED: ATOM     12  C   UNL     1     140.485  71.220 225.904 -0.54 -0.01    +0.071 A  
DOCKED: ATOM     13  C   UNL     1     139.583  69.235 224.854 -0.37 -0.00    +0.013 A  
DOCKED: ATOM     14  C   UNL     1     140.981  71.879 227.034 -0.76 -0.01    +0.029 A  
DOCKED: ATOM     15  C   UNL     1     140.075  69.872 225.997 -0.50 -0.00    +0.000 A  
DOCKED: ATOM     16  C   UNL     1     141.069  71.203 228.255 -0.71 -0.00    +0.002 A  
DOCKED: ATOM     17  C   UNL     1     140.167  69.201 227.226 -0.59 -0.00    +0.010 A  
DOCKED: ATOM     18  C   UNL     1     140.663  69.868 228.351 -0.57 -0.00    +0.001 A  
DOCKED: ENDBRANCH   6   9
DOCKED: ENDBRANCH   4   5
DOCKED: ENDBRANCH   1   4
DOCKED: BRANCH   1  19
DOCKED: ATOM     19  N   UNL     1     140.927  75.230 219.943 -0.04 +0.10    -0.335 N  
DOCKED: ATOM     20  C   UNL     1     140.731  76.482 220.696 -0.21 -0.04    +0.120 C  
DOCKED: ATOM     21  C   UNL     1     142.116  74.993 219.096 -0.14 -0.04    +0.115 C  
DOCKED: ATOM     22  C   UNL     1     141.169  77.701 219.885 -0.22 -0.01    +0.022 C  
DOCKED: ATOM     23  C   UNL     1     142.621  76.284 218.413 -0.26 -0.02    +0.030 C  
DOCKED: ATOM     24  C   UNL     1     142.576  77.508 219.328 -0.29 -0.00    +0.004 C  
DOCKED: BRANCH  21  25
DOCKED: ATOM     25  C   UNL     1     143.230  74.267 219.837 -0.31 +0.01    -0.025 A  
DOCKED: ATOM     26  C   UNL     1     143.058  72.910 220.177 -0.26 -0.00    +0.006 A  
DOCKED: ATOM     27  C   UNL     1     144.446  74.895 220.167 -0.42 -0.00    +0.006 A  
DOCKED: ATOM     28  C   UNL     1     144.066  72.211 220.848 -0.35 -0.00    +0.000 A  
DOCKED: ATOM     29  C   UNL     1     145.450  74.192 220.839 -0.59 -0.00    +0.000 A  
DOCKED: ATOM     30  C   UNL     1     145.260  72.852 221.180 -0.52 -0.00    +0.000 A  
DOCKED: ENDBRANCH  21  25
DOCKED: ENDBRANCH   1  19
DOCKED: TORSDOF 6
DOCKED: TER
DOCKED: ENDMDL
________________________________________________________________________________


    FINAL DOCKED STATE:
    ________________________


Run:   5 / 20
Time taken for this run:   0.037s

DOCKED: MODEL        5
DOCKED: USER    Run = 5
DOCKED: USER
DOCKED: USER    Estimated Free Energy of Binding    =  -8.46 kcal/mol  [=(1)+(2)+(3)-(4)]
DOCKED: USER
DOCKED: USER    (1) Final Intermolecular Energy     = -10.25 kcal/mol
DOCKED: USER        vdW + Hbond + desolv Energy     = -10.20 kcal/mol
DOCKED: USER        Electrostatic Energy            =  -0.05 kcal/mol
DOCKED: USER        Moving Ligand-Fixed Receptor    = -10.25 kcal/mol
DOCKED: USER        Moving Ligand-Moving Receptor   =  +0.00 kcal/mol
DOCKED: USER    (2) Final Total Internal Energy     =  -1.64 kcal/mol
DOCKED: USER    (3) Torsional Free Energy           =  +1.79 kcal/mol
DOCKED: USER    (4) Unbound System's Energy         =  -1.64 kcal/mol
DOCKED: USER
DOCKED: USER
DOCKED: REMARK SMILES O=C(N/C=C(\O)N1CCCC[C@H]1c1ccccc1)c1ccc2ccccc2n1
DOCKED: REMARK SMILES IDX 5 1 6 2 4 4 3 5 2 6 1 8 19 9 28 10 20 11 27 12 21 13 26 14
DOCKED: REMARK SMILES IDX 22 15 25 16 23 17 24 18 7 19 8 20 12 21 9 22 11 23 10 24
DOCKED: REMARK SMILES IDX 13 25 14 26 18 27 15 28 17 29 16 30
DOCKED: REMARK H PARENT 6 3 3 7
DOCKED: USER                              x       y       z     vdW  Elec       q    Type
DOCKED: USER                           _______ _______ _______ _____ _____    ______ ____
DOCKED: ROOT
DOCKED: ATOM      1  C   UNL     1     140.168  75.169 221.657 -0.24 -0.04    +0.204 C  
DOCKED: ENDROOT
DOCKED: BRANCH   1   2
DOCKED: ATOM      2  O   UNL     1     139.559  75.889 222.685 -0.31 +0.08    -0.494 OA 
DOCKED: ATOM      3  H   UNL     1     139.058  75.428 223.433 -0.37 -0.08    +0.295 HD 
DOCKED: ENDBRANCH   1   2
DOCKED: BRANCH   1   4
DOCKED: ATOM      4  C   UNL     1     139.936  73.856 221.532 -0.22 -0.02    +0.152 C  
DOCKED: BRANCH   4   5
DOCKED: ATOM      5  N   UNL     1     139.966  72.955 222.648 -0.14 +0.04    -0.322 N  
DOCKED: ATOM      6  C   UNL     1     140.263  71.554 222.527 -0.20 -0.04    +0.273 C  
DOCKED: ATOM      7  H   UNL     1     139.951  73.382 223.600 -0.36 -0.00    +0.169 HD 
DOCKED: ATOM      8  O   UNL     1     140.711  71.097 221.438 -0.12 +0.03    -0.267 OA 
DOCKED: BRANCH   6   9
DOCKED: ATOM      9  C   UNL     1     140.074  70.648 223.681 -0.24 -0.02    +0.129 A  
DOCKED: ATOM     10  N   UNL     1     140.611  70.979 224.889 -0.31 +0.03    -0.243 NA 
DOCKED: ATOM     11  C   UNL     1     139.343  69.455 223.554 -0.23 -0.01    +0.035 A  
DOCKED: ATOM     12  C   UNL     1     140.466  70.189 225.986 -0.48 -0.01    +0.071 A  
DOCKED: ATOM     13  C   UNL     1     139.178  68.623 224.664 -0.38 -0.00    +0.013 A  
DOCKED: ATOM     14  C   UNL     1     141.036  70.569 227.206 -0.60 -0.00    +0.029 A  
DOCKED: ATOM     15  C   UNL     1     139.739  68.982 225.895 -0.50 -0.00    +0.000 A  
DOCKED: ATOM     16  C   UNL     1     140.886  69.755 228.333 -0.58 -0.00    +0.002 A  
DOCKED: ATOM     17  C   UNL     1     139.593  68.171 227.029 -0.61 -0.00    +0.010 A  
DOCKED: ATOM     18  C   UNL     1     140.165  68.559 228.245 -0.65 -0.00    +0.001 A  
DOCKED: ENDBRANCH   6   9
DOCKED: ENDBRANCH   4   5
DOCKED: ENDBRANCH   1   4
DOCKED: BRANCH   1  19
DOCKED: ATOM     19  N   UNL     1     141.081  75.827 220.758 -0.12 +0.12    -0.335 N  
DOCKED: ATOM     20  C   UNL     1     141.406  77.246 220.988 -0.24 -0.06    +0.120 C  
DOCKED: ATOM     21  C   UNL     1     141.709  75.036 219.677 -0.16 -0.04    +0.115 C  
DOCKED: ATOM     22  C   UNL     1     141.566  78.007 219.674 -0.26 -0.01    +0.022 C  
DOCKED: ATOM     23  C   UNL     1     141.996  75.882 218.416 -0.16 -0.01    +0.030 C  
DOCKED: ATOM     24  C   UNL     1     142.525  77.280 218.736 -0.32 -0.00    +0.004 C  
DOCKED: BRANCH  21  25
DOCKED: ATOM     25  C   UNL     1     142.942  74.277 220.146 -0.30 +0.01    -0.025 A  
DOCKED: ATOM     26  C   UNL     1     142.842  72.894 220.403 -0.27 -0.00    +0.006 A  
DOCKED: ATOM     27  C   UNL     1     144.195  74.901 220.301 -0.40 -0.00    +0.006 A  
DOCKED: ATOM     28  C   UNL     1     143.958  72.165 220.824 -0.34 -0.00    +0.000 A  
DOCKED: ATOM     29  C   UNL     1     145.308  74.167 220.723 -0.58 -0.00    +0.000 A  
DOCKED: ATOM     30  C   UNL     1     145.190  72.801 220.986 -0.51 -0.00    +0.000 A  
DOCKED: ENDBRANCH  21  25
DOCKED: ENDBRANCH   1  19
DOCKED: TORSDOF 6
DOCKED: TER
DOCKED: ENDMDL
________________________________________________________________________________


    FINAL DOCKED STATE:
    ________________________


Run:   6 / 20
Time taken for this run:   0.037s

DOCKED: MODEL        6
DOCKED: USER    Run = 6
DOCKED: USER
DOCKED: USER    Estimated Free Energy of Binding    =  -8.53 kcal/mol  [=(1)+(2)+(3)-(4)]
DOCKED: USER
DOCKED: USER    (1) Final Intermolecular Energy     = -10.32 kcal/mol
DOCKED: USER        vdW + Hbond + desolv Energy     = -10.22 kcal/mol
DOCKED: USER        Electrostatic Energy            =  -0.10 kcal/mol
DOCKED: USER        Moving Ligand-Fixed Receptor    = -10.32 kcal/mol
DOCKED: USER        Moving Ligand-Moving Receptor   =  +0.00 kcal/mol
DOCKED: USER    (2) Final Total Internal Energy     =  -1.83 kcal/mol
DOCKED: USER    (3) Torsional Free Energy           =  +1.79 kcal/mol
DOCKED: USER    (4) Unbound System's Energy         =  -1.83 kcal/mol
DOCKED: USER
DOCKED: USER
DOCKED: REMARK SMILES O=C(N/C=C(\O)N1CCCC[C@H]1c1ccccc1)c1ccc2ccccc2n1
DOCKED: REMARK SMILES IDX 5 1 6 2 4 4 3 5 2 6 1 8 19 9 28 10 20 11 27 12 21 13 26 14
DOCKED: REMARK SMILES IDX 22 15 25 16 23 17 24 18 7 19 8 20 12 21 9 22 11 23 10 24
DOCKED: REMARK SMILES IDX 13 25 14 26 18 27 15 28 17 29 16 30
DOCKED: REMARK H PARENT 6 3 3 7
DOCKED: USER                              x       y       z     vdW  Elec       q    Type
DOCKED: USER                           _______ _______ _______ _____ _____    ______ ____
DOCKED: ROOT
DOCKED: ATOM      1  C   UNL     1     140.350  75.410 221.571 -0.26 -0.04    +0.204 C  
DOCKED: ENDROOT
DOCKED: BRANCH   1   2
DOCKED: ATOM      2  O   UNL     1     139.568  75.496 222.723 -0.39 +0.06    -0.494 OA 
DOCKED: ATOM      3  H   UNL     1     139.036  74.707 223.065 -0.47 -0.11    +0.295 HD 
DOCKED: ENDBRANCH   1   2
DOCKED: BRANCH   1   4
DOCKED: ATOM      4  C   UNL     1     141.022  74.283 221.302 -0.24 -0.02    +0.152 C  
DOCKED: BRANCH   4   5
DOCKED: ATOM      5  N   UNL     1     141.027  73.155 222.188 -0.09 -0.00    -0.322 N  
DOCKED: ATOM      6  C   UNL     1     139.829  72.542 222.696 -0.16 -0.05    +0.273 C  
DOCKED: ATOM      7  H   UNL     1     141.935  72.655 222.314 +0.09 +0.01    +0.169 HD 
DOCKED: ATOM      8  O   UNL     1     138.707  72.860 222.213 -0.17 +0.08    -0.267 OA 
DOCKED: BRANCH   6   9
DOCKED: ATOM      9  C   UNL     1     139.907  71.520 223.762 -0.34 -0.02    +0.129 A  
DOCKED: ATOM     10  N   UNL     1     140.401  71.861 224.985 -0.26 +0.04    -0.243 NA 
DOCKED: ATOM     11  C   UNL     1     139.471  70.203 223.537 -0.28 -0.01    +0.035 A  
DOCKED: ATOM     12  C   UNL     1     140.492  70.966 226.005 -0.54 -0.01    +0.071 A  
DOCKED: ATOM     13  C   UNL     1     139.553  69.262 224.566 -0.34 -0.00    +0.013 A  
DOCKED: ATOM     14  C   UNL     1     141.008  71.362 227.244 -0.72 -0.00    +0.029 A  
DOCKED: ATOM     15  C   UNL     1     140.065  69.634 225.813 -0.48 -0.00    +0.000 A  
DOCKED: ATOM     16  C   UNL     1     141.100  70.440 228.290 -0.56 -0.00    +0.002 A  
DOCKED: ATOM     17  C   UNL     1     140.161  68.715 226.868 -0.61 -0.00    +0.010 A  
DOCKED: ATOM     18  C   UNL     1     140.678  69.119 228.103 -0.64 -0.00    +0.001 A  
DOCKED: ENDBRANCH   6   9
DOCKED: ENDBRANCH   4   5
DOCKED: ENDBRANCH   1   4
DOCKED: BRANCH   1  19
DOCKED: ATOM     19  N   UNL     1     140.473  76.546 220.695 -0.08 +0.11    -0.335 N  
DOCKED: ATOM     20  C   UNL     1     139.312  76.939 219.876 -0.06 -0.03    +0.120 C  
DOCKED: ATOM     21  C   UNL     1     141.736  77.315 220.698 -0.21 -0.07    +0.115 C  
DOCKED: ATOM     22  C   UNL     1     139.739  77.438 218.497 -0.04 -0.01    +0.022 C  
DOCKED: ATOM     23  C   UNL     1     142.055  77.934 219.318 -0.28 -0.02    +0.030 C  
DOCKED: ATOM     24  C   UNL     1     140.824  78.505 218.615 -0.13 -0.00    +0.004 C  
DOCKED: BRANCH  21  25
DOCKED: ATOM     25  C   UNL     1     141.790  78.350 221.813 -0.34 +0.01    -0.025 A  
DOCKED: ATOM     26  C   UNL     1     142.161  79.674 221.504 -0.39 -0.00    +0.006 A  
DOCKED: ATOM     27  C   UNL     1     141.447  78.040 223.143 -0.49 -0.00    +0.006 A  
DOCKED: ATOM     28  C   UNL     1     142.210  80.652 222.502 -0.56 -0.00    +0.000 A  
DOCKED: ATOM     29  C   UNL     1     141.497  79.022 224.137 -0.57 -0.00    +0.000 A  
DOCKED: ATOM     30  C   UNL     1     141.880  80.326 223.818 -0.61 -0.00    +0.000 A  
DOCKED: ENDBRANCH  21  25
DOCKED: ENDBRANCH   1  19
DOCKED: TORSDOF 6
DOCKED: TER
DOCKED: ENDMDL
________________________________________________________________________________


    FINAL DOCKED STATE:
    ________________________


Run:   7 / 20
Time taken for this run:   0.037s

DOCKED: MODEL        7
DOCKED: USER    Run = 7
DOCKED: USER
DOCKED: USER    Estimated Free Energy of Binding    =  -8.21 kcal/mol  [=(1)+(2)+(3)-(4)]
DOCKED: USER
DOCKED: USER    (1) Final Intermolecular Energy     = -10.00 kcal/mol
DOCKED: USER        vdW + Hbond + desolv Energy     = -10.00 kcal/mol
DOCKED: USER        Electrostatic Energy            =  -0.00 kcal/mol
DOCKED: USER        Moving Ligand-Fixed Receptor    = -10.00 kcal/mol
DOCKED: USER        Moving Ligand-Moving Receptor   =  +0.00 kcal/mol
DOCKED: USER    (2) Final Total Internal Energy     =  -1.92 kcal/mol
DOCKED: USER    (3) Torsional Free Energy           =  +1.79 kcal/mol
DOCKED: USER    (4) Unbound System's Energy         =  -1.92 kcal/mol
DOCKED: USER
DOCKED: USER
DOCKED: REMARK SMILES O=C(N/C=C(\O)N1CCCC[C@H]1c1ccccc1)c1ccc2ccccc2n1
DOCKED: REMARK SMILES IDX 5 1 6 2 4 4 3 5 2 6 1 8 19 9 28 10 20 11 27 12 21 13 26 14
DOCKED: REMARK SMILES IDX 22 15 25 16 23 17 24 18 7 19 8 20 12 21 9 22 11 23 10 24
DOCKED: REMARK SMILES IDX 13 25 14 26 18 27 15 28 17 29 16 30
DOCKED: REMARK H PARENT 6 3 3 7
DOCKED: USER                              x       y       z     vdW  Elec       q    Type
DOCKED: USER                           _______ _______ _______ _____ _____    ______ ____
DOCKED: ROOT
DOCKED: ATOM      1  C   UNL     1     140.909  74.297 221.099 -0.21 -0.04    +0.204 C  
DOCKED: ENDROOT
DOCKED: BRANCH   1   2
DOCKED: ATOM      2  O   UNL     1     139.986  74.866 221.976 -0.64 +0.06    -0.494 OA 
DOCKED: ATOM      3  H   UNL     1     139.461  74.304 222.634 -0.26 -0.05    +0.295 HD 
DOCKED: ENDBRANCH   1   2
DOCKED: BRANCH   1   4
DOCKED: ATOM      4  C   UNL     1     141.051  72.965 221.049 -0.20 -0.02    +0.152 C  
DOCKED: BRANCH   4   5
DOCKED: ATOM      5  N   UNL     1     141.147  72.153 222.227 -0.12 +0.02    -0.322 N  
DOCKED: ATOM      6  C   UNL     1     140.060  71.962 223.149 -0.22 -0.04    +0.273 C  
DOCKED: ATOM      7  H   UNL     1     141.986  71.536 222.310 +0.08 -0.00    +0.169 HD 
DOCKED: ATOM      8  O   UNL     1     138.899  72.352 222.841 -0.16 +0.09    -0.267 OA 
DOCKED: BRANCH   6   9
DOCKED: ATOM      9  C   UNL     1     140.288  71.284 224.444 -0.39 -0.02    +0.129 A  
DOCKED: ATOM     10  N   UNL     1     139.780  70.037 224.647 -0.20 +0.04    -0.243 NA 
DOCKED: ATOM     11  C   UNL     1     141.029  71.903 225.465 -0.36 -0.00    +0.035 A  
DOCKED: ATOM     12  C   UNL     1     139.962  69.362 225.814 -0.43 -0.01    +0.071 A  
DOCKED: ATOM     13  C   UNL     1     141.232  71.234 226.675 -0.65 -0.00    +0.013 A  
DOCKED: ATOM     14  C   UNL     1     139.420  68.083 225.978 -0.55 -0.00    +0.029 A  
DOCKED: ATOM     15  C   UNL     1     140.700  69.954 226.862 -0.58 -0.00    +0.000 A  
DOCKED: ATOM     16  C   UNL     1     139.609  67.392 227.179 -0.35 -0.00    +0.002 A  
DOCKED: ATOM     17  C   UNL     1     140.884  69.255 228.064 -0.61 -0.00    +0.010 A  
DOCKED: ATOM     18  C   UNL     1     140.339  67.976 228.219 -0.37 -0.00    +0.001 A  
DOCKED: ENDBRANCH   6   9
DOCKED: ENDBRANCH   4   5
DOCKED: ENDBRANCH   1   4
DOCKED: BRANCH   1  19
DOCKED: ATOM     19  N   UNL     1     141.742  75.139 220.281 -0.11 +0.12    -0.335 N  
DOCKED: ATOM     20  C   UNL     1     141.817  76.578 220.591 -0.18 -0.07    +0.120 C  
DOCKED: ATOM     21  C   UNL     1     142.541  74.519 219.202 -0.17 -0.04    +0.115 C  
DOCKED: ATOM     22  C   UNL     1     141.911  77.423 219.322 -0.27 -0.01    +0.022 C  
DOCKED: ATOM     23  C   UNL     1     142.742  75.465 217.997 -0.18 -0.01    +0.030 C  
DOCKED: ATOM     24  C   UNL     1     143.018  76.911 218.406 -0.32 -0.00    +0.004 C  
DOCKED: BRANCH  21  25
DOCKED: ATOM     25  C   UNL     1     143.860  73.946 219.704 -0.33 +0.01    -0.025 A  
DOCKED: ATOM     26  C   UNL     1     144.213  72.627 219.356 -0.26 -0.00    +0.006 A  
DOCKED: ATOM     27  C   UNL     1     144.760  74.702 220.478 -0.43 -0.00    +0.006 A  
DOCKED: ATOM     28  C   UNL     1     145.422  72.075 219.790 -0.38 +0.00    +0.000 A  
DOCKED: ATOM     29  C   UNL     1     145.968  74.145 220.911 -0.63 -0.00    +0.000 A  
DOCKED: ATOM     30  C   UNL     1     146.298  72.833 220.569 -0.53 +0.00    +0.000 A  
DOCKED: ENDBRANCH  21  25
DOCKED: ENDBRANCH   1  19
DOCKED: TORSDOF 6
DOCKED: TER
DOCKED: ENDMDL
________________________________________________________________________________


    FINAL DOCKED STATE:
    ________________________


Run:   8 / 20
Time taken for this run:   0.037s

DOCKED: MODEL        8
DOCKED: USER    Run = 8
DOCKED: USER
DOCKED: USER    Estimated Free Energy of Binding    =  -9.02 kcal/mol  [=(1)+(2)+(3)-(4)]
DOCKED: USER
DOCKED: USER    (1) Final Intermolecular Energy     = -10.81 kcal/mol
DOCKED: USER        vdW + Hbond + desolv Energy     = -10.69 kcal/mol
DOCKED: USER        Electrostatic Energy            =  -0.12 kcal/mol
DOCKED: USER        Moving Ligand-Fixed Receptor    = -10.81 kcal/mol
DOCKED: USER        Moving Ligand-Moving Receptor   =  +0.00 kcal/mol
DOCKED: USER    (2) Final Total Internal Energy     =  -1.21 kcal/mol
DOCKED: USER    (3) Torsional Free Energy           =  +1.79 kcal/mol
DOCKED: USER    (4) Unbound System's Energy         =  -1.21 kcal/mol
DOCKED: USER
DOCKED: USER
DOCKED: REMARK SMILES O=C(N/C=C(\O)N1CCCC[C@H]1c1ccccc1)c1ccc2ccccc2n1
DOCKED: REMARK SMILES IDX 5 1 6 2 4 4 3 5 2 6 1 8 19 9 28 10 20 11 27 12 21 13 26 14
DOCKED: REMARK SMILES IDX 22 15 25 16 23 17 24 18 7 19 8 20 12 21 9 22 11 23 10 24
DOCKED: REMARK SMILES IDX 13 25 14 26 18 27 15 28 17 29 16 30
DOCKED: REMARK H PARENT 6 3 3 7
DOCKED: USER                              x       y       z     vdW  Elec       q    Type
DOCKED: USER                           _______ _______ _______ _____ _____    ______ ____
DOCKED: ROOT
DOCKED: ATOM      1  C   UNL     1     140.370  75.795 221.228 -0.23 -0.05    +0.204 C  
DOCKED: ENDROOT
DOCKED: BRANCH   1   2
DOCKED: ATOM      2  O   UNL     1     141.645  76.130 220.772 -0.10 +0.24    -0.494 OA 
DOCKED: ATOM      3  H   UNL     1     142.387  76.388 221.409 -0.40 -0.28    +0.295 HD 
DOCKED: ENDBRANCH   1   2
DOCKED: BRANCH   1   4
DOCKED: ATOM      4  C   UNL     1     139.955  74.522 221.179 -0.21 -0.03    +0.152 C  
DOCKED: BRANCH   4   5
DOCKED: ATOM      5  N   UNL     1     139.897  73.682 222.341 -0.10 +0.03    -0.322 N  
DOCKED: ATOM      6  C   UNL     1     140.578  72.420 222.440 -0.18 -0.02    +0.273 C  
DOCKED: ATOM      7  H   UNL     1     139.493  74.101 223.208 -0.50 -0.03    +0.169 HD 
DOCKED: ATOM      8  O   UNL     1     141.428  72.093 221.565 -0.18 +0.02    -0.267 OA 
DOCKED: BRANCH   6   9
DOCKED: ATOM      9  C   UNL     1     140.311  71.514 223.578 -0.33 -0.02    +0.129 A  
DOCKED: ATOM     10  N   UNL     1     140.707  71.875 224.831 -0.28 +0.03    -0.243 NA 
DOCKED: ATOM     11  C   UNL     1     139.646  70.290 223.389 -0.26 -0.01    +0.035 A  
DOCKED: ATOM     12  C   UNL     1     140.483  71.086 225.916 -0.54 -0.01    +0.071 A  
DOCKED: ATOM     13  C   UNL     1     139.403  69.459 224.485 -0.34 -0.00    +0.013 A  
DOCKED: ATOM     14  C   UNL     1     140.909  71.497 227.183 -0.74 -0.01    +0.029 A  
DOCKED: ATOM     15  C   UNL     1     139.820  69.849 225.763 -0.47 -0.00    +0.000 A  
DOCKED: ATOM     16  C   UNL     1     140.678  70.684 228.297 -0.61 -0.00    +0.002 A  
DOCKED: ATOM     17  C   UNL     1     139.592  69.038 226.885 -0.55 -0.00    +0.010 A  
DOCKED: ATOM     18  C   UNL     1     140.021  69.458 228.148 -0.63 -0.00    +0.001 A  
DOCKED: ENDBRANCH   6   9
DOCKED: ENDBRANCH   4   5
DOCKED: ENDBRANCH   1   4
DOCKED: BRANCH   1  19
DOCKED: ATOM     19  N   UNL     1     139.482  76.822 221.709 -0.12 +0.08    -0.335 N  
DOCKED: ATOM     20  C   UNL     1     138.440  76.459 222.686 -0.25 -0.02    +0.120 C  
DOCKED: ATOM     21  C   UNL     1     139.692  78.214 221.255 -0.16 -0.03    +0.115 C  
DOCKED: ATOM     22  C   UNL     1     137.146  77.235 222.443 -0.22 -0.00    +0.022 C  
DOCKED: ATOM     23  C   UNL     1     138.372  79.013 221.170 -0.11 -0.01    +0.030 C  
DOCKED: ATOM     24  C   UNL     1     137.421  78.732 222.334 -0.19 -0.00    +0.004 C  
DOCKED: BRANCH  21  25
DOCKED: ATOM     25  C   UNL     1     140.748  78.945 222.073 -0.34 +0.01    -0.025 A  
DOCKED: ATOM     26  C   UNL     1     140.884  78.648 223.444 -0.48 -0.00    +0.006 A  
DOCKED: ATOM     27  C   UNL     1     141.624  79.886 221.498 -0.40 -0.00    +0.006 A  
DOCKED: ATOM     28  C   UNL     1     141.851  79.292 224.221 -0.54 -0.00    +0.000 A  
DOCKED: ATOM     29  C   UNL     1     142.590  80.528 222.280 -0.56 -0.00    +0.000 A  
DOCKED: ATOM     30  C   UNL     1     142.702  80.233 223.639 -0.66 -0.00    +0.000 A  
DOCKED: ENDBRANCH  21  25
DOCKED: ENDBRANCH   1  19
DOCKED: TORSDOF 6
DOCKED: TER
DOCKED: ENDMDL
________________________________________________________________________________


    FINAL DOCKED STATE:
    ________________________


Run:   9 / 20
Time taken for this run:   0.037s

DOCKED: MODEL        9
DOCKED: USER    Run = 9
DOCKED: USER
DOCKED: USER    Estimated Free Energy of Binding    =  -8.49 kcal/mol  [=(1)+(2)+(3)-(4)]
DOCKED: USER
DOCKED: USER    (1) Final Intermolecular Energy     = -10.28 kcal/mol
DOCKED: USER        vdW + Hbond + desolv Energy     = -10.15 kcal/mol
DOCKED: USER        Electrostatic Energy            =  -0.13 kcal/mol
DOCKED: USER        Moving Ligand-Fixed Receptor    = -10.28 kcal/mol
DOCKED: USER        Moving Ligand-Moving Receptor   =  +0.00 kcal/mol
DOCKED: USER    (2) Final Total Internal Energy     =  -1.86 kcal/mol
DOCKED: USER    (3) Torsional Free Energy           =  +1.79 kcal/mol
DOCKED: USER    (4) Unbound System's Energy         =  -1.86 kcal/mol
DOCKED: USER
DOCKED: USER
DOCKED: REMARK SMILES O=C(N/C=C(\O)N1CCCC[C@H]1c1ccccc1)c1ccc2ccccc2n1
DOCKED: REMARK SMILES IDX 5 1 6 2 4 4 3 5 2 6 1 8 19 9 28 10 20 11 27 12 21 13 26 14
DOCKED: REMARK SMILES IDX 22 15 25 16 23 17 24 18 7 19 8 20 12 21 9 22 11 23 10 24
DOCKED: REMARK SMILES IDX 13 25 14 26 18 27 15 28 17 29 16 30
DOCKED: REMARK H PARENT 6 3 3 7
DOCKED: USER                              x       y       z     vdW  Elec       q    Type
DOCKED: USER                           _______ _______ _______ _____ _____    ______ ____
DOCKED: ROOT
DOCKED: ATOM      1  C   UNL     1     140.315  75.068 221.565 -0.25 -0.04    +0.204 C  
DOCKED: ENDROOT
DOCKED: BRANCH   1   2
DOCKED: ATOM      2  O   UNL     1     139.520  75.185 222.705 -0.43 +0.06    -0.494 OA 
DOCKED: ATOM      3  H   UNL     1     138.821  74.492 222.940 -0.50 -0.14    +0.295 HD 
DOCKED: ENDBRANCH   1   2
DOCKED: BRANCH   1   4
DOCKED: ATOM      4  C   UNL     1     140.980  73.929 221.327 -0.23 -0.02    +0.152 C  
DOCKED: BRANCH   4   5
DOCKED: ATOM      5  N   UNL     1     140.952  72.815 222.230 -0.14 +0.01    -0.322 N  
DOCKED: ATOM      6  C   UNL     1     139.737  72.241 222.741 -0.19 -0.05    +0.273 C  
DOCKED: ATOM      7  H   UNL     1     141.846  72.294 222.367 +0.07 +0.00    +0.169 HD 
DOCKED: ATOM      8  O   UNL     1     138.625  72.579 222.248 -0.15 +0.07    -0.267 OA 
DOCKED: BRANCH   6   9
DOCKED: ATOM      9  C   UNL     1     139.784  71.233 223.822 -0.33 -0.02    +0.129 A  
DOCKED: ATOM     10  N   UNL     1     140.351  71.557 225.018 -0.31 +0.04    -0.243 NA 
DOCKED: ATOM     11  C   UNL     1     139.245  69.948 223.640 -0.27 -0.01    +0.035 A  
DOCKED: ATOM     12  C   UNL     1     140.418  70.674 226.051 -0.52 -0.01    +0.071 A  
DOCKED: ATOM     13  C   UNL     1     139.301  69.019 224.682 -0.36 -0.00    +0.013 A  
DOCKED: ATOM     14  C   UNL     1     141.012  71.051 227.260 -0.68 -0.00    +0.029 A  
DOCKED: ATOM     15  C   UNL     1     139.889  69.373 225.901 -0.48 -0.00    +0.000 A  
DOCKED: ATOM     16  C   UNL     1     141.079  70.140 228.320 -0.56 -0.00    +0.002 A  
DOCKED: ATOM     17  C   UNL     1     139.961  68.466 226.968 -0.62 -0.00    +0.010 A  
DOCKED: ATOM     18  C   UNL     1     140.555  68.851 228.174 -0.65 -0.00    +0.001 A  
DOCKED: ENDBRANCH   6   9
DOCKED: ENDBRANCH   4   5
DOCKED: ENDBRANCH   1   4
DOCKED: BRANCH   1  19
DOCKED: ATOM     19  N   UNL     1     140.459  76.185 220.667 -0.08 +0.10    -0.335 N  
DOCKED: ATOM     20  C   UNL     1     139.433  76.398 219.630 -0.05 -0.03    +0.120 C  
DOCKED: ATOM     21  C   UNL     1     141.595  77.112 220.859 -0.20 -0.06    +0.115 C  
DOCKED: ATOM     22  C   UNL     1     140.046  76.909 218.328 -0.05 -0.01    +0.022 C  
DOCKED: ATOM     23  C   UNL     1     142.087  77.726 219.530 -0.28 -0.02    +0.030 C  
DOCKED: ATOM     24  C   UNL     1     140.949  78.111 218.585 -0.14 -0.00    +0.004 C  
DOCKED: BRANCH  21  25
DOCKED: ATOM     25  C   UNL     1     141.311  78.177 221.909 -0.39 +0.01    -0.025 A  
DOCKED: ATOM     26  C   UNL     1     142.312  79.119 222.222 -0.46 -0.00    +0.006 A  
DOCKED: ATOM     27  C   UNL     1     140.065  78.279 222.558 -0.37 -0.00    +0.006 A  
DOCKED: ATOM     28  C   UNL     1     142.080  80.117 223.173 -0.62 -0.00    +0.000 A  
DOCKED: ATOM     29  C   UNL     1     139.839  79.279 223.509 -0.43 -0.00    +0.000 A  
DOCKED: ATOM     30  C   UNL     1     140.845  80.196 223.817 -0.48 -0.00    +0.000 A  
DOCKED: ENDBRANCH  21  25
DOCKED: ENDBRANCH   1  19
DOCKED: TORSDOF 6
DOCKED: TER
DOCKED: ENDMDL
________________________________________________________________________________


    FINAL DOCKED STATE:
    ________________________


Run:   10 / 20
Time taken for this run:   0.037s

DOCKED: MODEL        10
DOCKED: USER    Run = 10
DOCKED: USER
DOCKED: USER    Estimated Free Energy of Binding    =  -8.80 kcal/mol  [=(1)+(2)+(3)-(4)]
DOCKED: USER
DOCKED: USER    (1) Final Intermolecular Energy     = -10.59 kcal/mol
DOCKED: USER        vdW + Hbond + desolv Energy     = -10.50 kcal/mol
DOCKED: USER        Electrostatic Energy            =  -0.09 kcal/mol
DOCKED: USER        Moving Ligand-Fixed Receptor    = -10.59 kcal/mol
DOCKED: USER        Moving Ligand-Moving Receptor   =  +0.00 kcal/mol
DOCKED: USER    (2) Final Total Internal Energy     =  -1.90 kcal/mol
DOCKED: USER    (3) Torsional Free Energy           =  +1.79 kcal/mol
DOCKED: USER    (4) Unbound System's Energy         =  -1.90 kcal/mol
DOCKED: USER
DOCKED: USER
DOCKED: REMARK SMILES O=C(N/C=C(\O)N1CCCC[C@H]1c1ccccc1)c1ccc2ccccc2n1
DOCKED: REMARK SMILES IDX 5 1 6 2 4 4 3 5 2 6 1 8 19 9 28 10 20 11 27 12 21 13 26 14
DOCKED: REMARK SMILES IDX 22 15 25 16 23 17 24 18 7 19 8 20 12 21 9 22 11 23 10 24
DOCKED: REMARK SMILES IDX 13 25 14 26 18 27 15 28 17 29 16 30
DOCKED: REMARK H PARENT 6 3 3 7
DOCKED: USER                              x       y       z     vdW  Elec       q    Type
DOCKED: USER                           _______ _______ _______ _____ _____    ______ ____
DOCKED: ROOT
DOCKED: ATOM      1  C   UNL     1     140.408  74.308 221.323 -0.22 -0.03    +0.204 C  
DOCKED: ENDROOT
DOCKED: BRANCH   1   2
DOCKED: ATOM      2  O   UNL     1     139.552  74.738 222.336 -0.63 +0.07    -0.494 OA 
DOCKED: ATOM      3  H   UNL     1     138.926  74.099 222.810 -0.50 -0.13    +0.295 HD 
DOCKED: ENDBRANCH   1   2
DOCKED: BRANCH   1   4
DOCKED: ATOM      4  C   UNL     1     140.443  73.013 220.980 -0.17 -0.02    +0.152 C  
DOCKED: BRANCH   4   5
DOCKED: ATOM      5  N   UNL     1     140.469  71.957 221.951 -0.14 +0.04    -0.322 N  
DOCKED: ATOM      6  C   UNL     1     139.364  71.651 222.818 -0.19 -0.06    +0.273 C  
DOCKED: ATOM      7  H   UNL     1     141.258  71.276 221.888 +0.06 -0.01    +0.169 HD 
DOCKED: ATOM      8  O   UNL     1     138.238  72.184 222.614 -0.14 +0.08    -0.267 OA 
DOCKED: BRANCH   6   9
DOCKED: ATOM      9  C   UNL     1     139.531  70.690 223.930 -0.30 -0.02    +0.129 A  
DOCKED: ATOM     10  N   UNL     1     140.161  71.087 225.071 -0.31 +0.04    -0.243 NA 
DOCKED: ATOM     11  C   UNL     1     139.043  69.376 223.833 -0.28 -0.01    +0.035 A  
DOCKED: ATOM     12  C   UNL     1     140.338  70.251 226.129 -0.49 -0.01    +0.071 A  
DOCKED: ATOM     13  C   UNL     1     139.211  68.494 224.903 -0.41 -0.00    +0.013 A  
DOCKED: ATOM     14  C   UNL     1     140.993  70.703 227.280 -0.62 -0.00    +0.029 A  
DOCKED: ATOM     15  C   UNL     1     139.862  68.923 226.065 -0.52 -0.00    +0.000 A  
DOCKED: ATOM     16  C   UNL     1     141.174  69.840 228.366 -0.52 -0.00    +0.002 A  
DOCKED: ATOM     17  C   UNL     1     140.049  68.064 227.157 -0.65 -0.00    +0.010 A  
DOCKED: ATOM     18  C   UNL     1     140.703  68.524 228.305 -0.68 -0.00    +0.001 A  
DOCKED: ENDBRANCH   6   9
DOCKED: ENDBRANCH   4   5
DOCKED: ENDBRANCH   1   4
DOCKED: BRANCH   1  19
DOCKED: ATOM     19  N   UNL     1     141.288  75.246 220.675 -0.12 +0.11    -0.335 N  
DOCKED: ATOM     20  C   UNL     1     141.385  76.615 221.212 -0.20 -0.06    +0.120 C  
DOCKED: ATOM     21  C   UNL     1     142.110  74.782 219.536 -0.17 -0.04    +0.115 C  
DOCKED: ATOM     22  C   UNL     1     141.542  77.648 220.097 -0.27 -0.01    +0.022 C  
DOCKED: ATOM     23  C   UNL     1     142.374  75.901 218.504 -0.21 -0.01    +0.030 C  
DOCKED: ATOM     24  C   UNL     1     142.669  77.257 219.146 -0.32 -0.00    +0.004 C  
DOCKED: BRANCH  21  25
DOCKED: ATOM     25  C   UNL     1     143.397  74.101 219.981 -0.32 +0.01    -0.025 A  
DOCKED: ATOM     26  C   UNL     1     143.500  72.699 219.886 -0.26 -0.00    +0.006 A  
DOCKED: ATOM     27  C   UNL     1     144.507  74.827 220.452 -0.40 -0.00    +0.006 A  
DOCKED: ATOM     28  C   UNL     1     144.672  72.042 220.274 -0.34 -0.00    +0.000 A  
DOCKED: ATOM     29  C   UNL     1     145.676  74.166 220.841 -0.62 -0.00    +0.000 A  
DOCKED: ATOM     30  C   UNL     1     145.758  72.776 220.753 -0.57 -0.00    +0.000 A  
DOCKED: ENDBRANCH  21  25
DOCKED: ENDBRANCH   1  19
DOCKED: TORSDOF 6
DOCKED: TER
DOCKED: ENDMDL
________________________________________________________________________________


    FINAL DOCKED STATE:
    ________________________


Run:   11 / 20
Time taken for this run:   0.037s

DOCKED: MODEL        11
DOCKED: USER    Run = 11
DOCKED: USER
DOCKED: USER    Estimated Free Energy of Binding    =  -8.48 kcal/mol  [=(1)+(2)+(3)-(4)]
DOCKED: USER
DOCKED: USER    (1) Final Intermolecular Energy     = -10.27 kcal/mol
DOCKED: USER        vdW + Hbond + desolv Energy     = -10.17 kcal/mol
DOCKED: USER        Electrostatic Energy            =  -0.11 kcal/mol
DOCKED: USER        Moving Ligand-Fixed Receptor    = -10.27 kcal/mol
DOCKED: USER        Moving Ligand-Moving Receptor   =  +0.00 kcal/mol
DOCKED: USER    (2) Final Total Internal Energy     =  -1.85 kcal/mol
DOCKED: USER    (3) Torsional Free Energy           =  +1.79 kcal/mol
DOCKED: USER    (4) Unbound System's Energy         =  -1.85 kcal/mol
DOCKED: USER
DOCKED: USER
DOCKED: REMARK SMILES O=C(N/C=C(\O)N1CCCC[C@H]1c1ccccc1)c1ccc2ccccc2n1
DOCKED: REMARK SMILES IDX 5 1 6 2 4 4 3 5 2 6 1 8 19 9 28 10 20 11 27 12 21 13 26 14
DOCKED: REMARK SMILES IDX 22 15 25 16 23 17 24 18 7 19 8 20 12 21 9 22 11 23 10 24
DOCKED: REMARK SMILES IDX 13 25 14 26 18 27 15 28 17 29 16 30
DOCKED: REMARK H PARENT 6 3 3 7
DOCKED: USER                              x       y       z     vdW  Elec       q    Type
DOCKED: USER                           _______ _______ _______ _____ _____    ______ ____
DOCKED: ROOT
DOCKED: ATOM      1  C   UNL     1     140.325  75.311 221.569 -0.25 -0.04    +0.204 C  
DOCKED: ENDROOT
DOCKED: BRANCH   1   2
DOCKED: ATOM      2  O   UNL     1     139.551  75.434 222.723 -0.39 +0.06    -0.494 OA 
DOCKED: ATOM      3  H   UNL     1     138.909  74.707 223.013 -0.47 -0.12    +0.295 HD 
DOCKED: ENDBRANCH   1   2
DOCKED: BRANCH   1   4
DOCKED: ATOM      4  C   UNL     1     140.994  74.175 221.330 -0.23 -0.02    +0.152 C  
DOCKED: BRANCH   4   5
DOCKED: ATOM      5  N   UNL     1     140.968  73.058 222.230 -0.11 +0.00    -0.322 N  
DOCKED: ATOM      6  C   UNL     1     139.754  72.452 222.705 -0.16 -0.05    +0.273 C  
DOCKED: ATOM      7  H   UNL     1     141.871  72.561 222.393 +0.09 +0.01    +0.169 HD 
DOCKED: ATOM      8  O   UNL     1     138.648  72.763 222.181 -0.16 +0.08    -0.267 OA 
DOCKED: BRANCH   6   9
DOCKED: ATOM      9  C   UNL     1     139.796  71.444 223.787 -0.33 -0.03    +0.129 A  
DOCKED: ATOM     10  N   UNL     1     140.355  71.768 224.986 -0.28 +0.04    -0.243 NA 
DOCKED: ATOM     11  C   UNL     1     139.259  70.159 223.600 -0.28 -0.01    +0.035 A  
DOCKED: ATOM     12  C   UNL     1     140.417  70.885 226.018 -0.53 -0.01    +0.071 A  
DOCKED: ATOM     13  C   UNL     1     139.309  69.230 224.642 -0.36 -0.00    +0.013 A  
DOCKED: ATOM     14  C   UNL     1     141.003  71.262 227.231 -0.71 -0.00    +0.029 A  
DOCKED: ATOM     15  C   UNL     1     139.890  69.584 225.865 -0.47 -0.00    +0.000 A  
DOCKED: ATOM     16  C   UNL     1     141.065  70.351 228.291 -0.57 -0.00    +0.002 A  
DOCKED: ATOM     17  C   UNL     1     139.957  68.676 226.932 -0.61 -0.00    +0.010 A  
DOCKED: ATOM     18  C   UNL     1     140.543  69.062 228.142 -0.65 -0.00    +0.001 A  
DOCKED: ENDBRANCH   6   9
DOCKED: ENDBRANCH   4   5
DOCKED: ENDBRANCH   1   4
DOCKED: BRANCH   1  19
DOCKED: ATOM     19  N   UNL     1     140.444  76.420 220.659 -0.07 +0.11    -0.335 N  
DOCKED: ATOM     20  C   UNL     1     139.298  76.756 219.795 -0.05 -0.03    +0.120 C  
DOCKED: ATOM     21  C   UNL     1     141.688  77.221 220.670 -0.22 -0.07    +0.115 C  
DOCKED: ATOM     22  C   UNL     1     139.752  77.220 218.412 -0.04 -0.01    +0.022 C  
DOCKED: ATOM     23  C   UNL     1     142.030  77.801 219.280 -0.28 -0.02    +0.030 C  
DOCKED: ATOM     24  C   UNL     1     140.806  78.317 218.524 -0.13 -0.00    +0.004 C  
DOCKED: BRANCH  21  25
DOCKED: ATOM     25  C   UNL     1     141.685  78.294 221.751 -0.35 +0.01    -0.025 A  
DOCKED: ATOM     26  C   UNL     1     141.902  79.638 221.385 -0.40 -0.00    +0.006 A  
DOCKED: ATOM     27  C   UNL     1     141.436  77.996 223.104 -0.48 -0.00    +0.006 A  
DOCKED: ATOM     28  C   UNL     1     141.894  80.649 222.351 -0.52 -0.00    +0.000 A  
DOCKED: ATOM     29  C   UNL     1     141.430  79.011 224.066 -0.58 -0.00    +0.000 A  
DOCKED: ATOM     30  C   UNL     1     141.660  80.335 223.690 -0.58 -0.00    +0.000 A  
DOCKED: ENDBRANCH  21  25
DOCKED: ENDBRANCH   1  19
DOCKED: TORSDOF 6
DOCKED: TER
DOCKED: ENDMDL
________________________________________________________________________________


    FINAL DOCKED STATE:
    ________________________


Run:   12 / 20
Time taken for this run:   0.037s

DOCKED: MODEL        12
DOCKED: USER    Run = 12
DOCKED: USER
DOCKED: USER    Estimated Free Energy of Binding    =  -8.82 kcal/mol  [=(1)+(2)+(3)-(4)]
DOCKED: USER
DOCKED: USER    (1) Final Intermolecular Energy     = -10.61 kcal/mol
DOCKED: USER        vdW + Hbond + desolv Energy     = -10.52 kcal/mol
DOCKED: USER        Electrostatic Energy            =  -0.09 kcal/mol
DOCKED: USER        Moving Ligand-Fixed Receptor    = -10.61 kcal/mol
DOCKED: USER        Moving Ligand-Moving Receptor   =  +0.00 kcal/mol
DOCKED: USER    (2) Final Total Internal Energy     =  -1.90 kcal/mol
DOCKED: USER    (3) Torsional Free Energy           =  +1.79 kcal/mol
DOCKED: USER    (4) Unbound System's Energy         =  -1.90 kcal/mol
DOCKED: USER
DOCKED: USER
DOCKED: REMARK SMILES O=C(N/C=C(\O)N1CCCC[C@H]1c1ccccc1)c1ccc2ccccc2n1
DOCKED: REMARK SMILES IDX 5 1 6 2 4 4 3 5 2 6 1 8 19 9 28 10 20 11 27 12 21 13 26 14
DOCKED: REMARK SMILES IDX 22 15 25 16 23 17 24 18 7 19 8 20 12 21 9 22 11 23 10 24
DOCKED: REMARK SMILES IDX 13 25 14 26 18 27 15 28 17 29 16 30
DOCKED: REMARK H PARENT 6 3 3 7
DOCKED: USER                              x       y       z     vdW  Elec       q    Type
DOCKED: USER                           _______ _______ _______ _____ _____    ______ ____
DOCKED: ROOT
DOCKED: ATOM      1  C   UNL     1     140.472  74.290 221.312 -0.22 -0.03    +0.204 C  
DOCKED: ENDROOT
DOCKED: BRANCH   1   2
DOCKED: ATOM      2  O   UNL     1     139.643  74.735 222.342 -0.64 +0.06    -0.494 OA 
DOCKED: ATOM      3  H   UNL     1     138.976  74.120 222.790 -0.49 -0.12    +0.295 HD 
DOCKED: ENDBRANCH   1   2
DOCKED: BRANCH   1   4
DOCKED: ATOM      4  C   UNL     1     140.485  72.993 220.976 -0.17 -0.02    +0.152 C  
DOCKED: BRANCH   4   5
DOCKED: ATOM      5  N   UNL     1     140.494  71.941 221.951 -0.14 +0.04    -0.322 N  
DOCKED: ATOM      6  C   UNL     1     139.377  71.645 222.806 -0.19 -0.06    +0.273 C  
DOCKED: ATOM      7  H   UNL     1     141.280  71.256 221.900 +0.06 -0.01    +0.169 HD 
DOCKED: ATOM      8  O   UNL     1     138.257  72.183 222.587 -0.14 +0.08    -0.267 OA 
DOCKED: BRANCH   6   9
DOCKED: ATOM      9  C   UNL     1     139.526  70.688 223.924 -0.30 -0.02    +0.129 A  
DOCKED: ATOM     10  N   UNL     1     140.170  71.078 225.060 -0.31 +0.04    -0.243 NA 
DOCKED: ATOM     11  C   UNL     1     139.006  69.385 223.838 -0.28 -0.01    +0.035 A  
DOCKED: ATOM     12  C   UNL     1     140.332  70.245 226.123 -0.49 -0.01    +0.071 A  
DOCKED: ATOM     13  C   UNL     1     139.159  68.507 224.914 -0.41 -0.00    +0.013 A  
DOCKED: ATOM     14  C   UNL     1     141.002  70.689 227.268 -0.62 -0.00    +0.029 A  
DOCKED: ATOM     15  C   UNL     1     139.824  68.928 226.070 -0.52 -0.00    +0.000 A  
DOCKED: ATOM     16  C   UNL     1     141.167  69.829 228.359 -0.52 -0.00    +0.002 A  
DOCKED: ATOM     17  C   UNL     1     139.995  68.072 227.167 -0.65 -0.00    +0.010 A  
DOCKED: ATOM     18  C   UNL     1     140.665  68.524 228.309 -0.68 -0.00    +0.001 A  
DOCKED: ENDBRANCH   6   9
DOCKED: ENDBRANCH   4   5
DOCKED: ENDBRANCH   1   4
DOCKED: BRANCH   1  19
DOCKED: ATOM     19  N   UNL     1     141.349  75.215 220.642 -0.12 +0.11    -0.335 N  
DOCKED: ATOM     20  C   UNL     1     141.450  76.594 221.151 -0.19 -0.06    +0.120 C  
DOCKED: ATOM     21  C   UNL     1     142.164  74.728 219.507 -0.17 -0.04    +0.115 C  
DOCKED: ATOM     22  C   UNL     1     141.601  77.605 220.016 -0.28 -0.01    +0.022 C  
DOCKED: ATOM     23  C   UNL     1     142.423  75.827 218.452 -0.21 -0.01    +0.030 C  
DOCKED: ATOM     24  C   UNL     1     142.722  77.194 219.066 -0.33 -0.00    +0.004 C  
DOCKED: BRANCH  21  25
DOCKED: ATOM     25  C   UNL     1     143.453  74.055 219.958 -0.33 +0.01    -0.025 A  
DOCKED: ATOM     26  C   UNL     1     143.562  72.652 219.873 -0.26 -0.00    +0.006 A  
DOCKED: ATOM     27  C   UNL     1     144.560  74.789 220.425 -0.41 -0.00    +0.006 A  
DOCKED: ATOM     28  C   UNL     1     144.735  72.003 220.268 -0.33 -0.00    +0.000 A  
DOCKED: ATOM     29  C   UNL     1     145.732  74.135 220.819 -0.63 -0.00    +0.000 A  
DOCKED: ATOM     30  C   UNL     1     145.819  72.744 220.742 -0.56 -0.00    +0.000 A  
DOCKED: ENDBRANCH  21  25
DOCKED: ENDBRANCH   1  19
DOCKED: TORSDOF 6
DOCKED: TER
DOCKED: ENDMDL
________________________________________________________________________________


    FINAL DOCKED STATE:
    ________________________


Run:   13 / 20
Time taken for this run:   0.037s

DOCKED: MODEL        13
DOCKED: USER    Run = 13
DOCKED: USER
DOCKED: USER    Estimated Free Energy of Binding    =  -8.82 kcal/mol  [=(1)+(2)+(3)-(4)]
DOCKED: USER
DOCKED: USER    (1) Final Intermolecular Energy     = -10.61 kcal/mol
DOCKED: USER        vdW + Hbond + desolv Energy     = -10.52 kcal/mol
DOCKED: USER        Electrostatic Energy            =  -0.09 kcal/mol
DOCKED: USER        Moving Ligand-Fixed Receptor    = -10.61 kcal/mol
DOCKED: USER        Moving Ligand-Moving Receptor   =  +0.00 kcal/mol
DOCKED: USER    (2) Final Total Internal Energy     =  -1.90 kcal/mol
DOCKED: USER    (3) Torsional Free Energy           =  +1.79 kcal/mol
DOCKED: USER    (4) Unbound System's Energy         =  -1.90 kcal/mol
DOCKED: USER
DOCKED: USER
DOCKED: REMARK SMILES O=C(N/C=C(\O)N1CCCC[C@H]1c1ccccc1)c1ccc2ccccc2n1
DOCKED: REMARK SMILES IDX 5 1 6 2 4 4 3 5 2 6 1 8 19 9 28 10 20 11 27 12 21 13 26 14
DOCKED: REMARK SMILES IDX 22 15 25 16 23 17 24 18 7 19 8 20 12 21 9 22 11 23 10 24
DOCKED: REMARK SMILES IDX 13 25 14 26 18 27 15 28 17 29 16 30
DOCKED: REMARK H PARENT 6 3 3 7
DOCKED: USER                              x       y       z     vdW  Elec       q    Type
DOCKED: USER                           _______ _______ _______ _____ _____    ______ ____
DOCKED: ROOT
DOCKED: ATOM      1  C   UNL     1     140.499  74.286 221.300 -0.22 -0.03    +0.204 C  
DOCKED: ENDROOT
DOCKED: BRANCH   1   2
DOCKED: ATOM      2  O   UNL     1     139.679  74.732 222.336 -0.64 +0.05    -0.494 OA 
DOCKED: ATOM      3  H   UNL     1     138.988  74.130 222.765 -0.49 -0.11    +0.295 HD 
DOCKED: ENDBRANCH   1   2
DOCKED: BRANCH   1   4
DOCKED: ATOM      4  C   UNL     1     140.508  72.988 220.965 -0.17 -0.02    +0.152 C  
DOCKED: BRANCH   4   5
DOCKED: ATOM      5  N   UNL     1     140.513  71.938 221.942 -0.14 +0.04    -0.322 N  
DOCKED: ATOM      6  C   UNL     1     139.384  71.628 222.777 -0.19 -0.06    +0.273 C  
DOCKED: ATOM      7  H   UNL     1     141.308  71.263 221.908 +0.06 -0.01    +0.169 HD 
DOCKED: ATOM      8  O   UNL     1     138.260  72.151 222.536 -0.13 +0.08    -0.267 OA 
DOCKED: BRANCH   6   9
DOCKED: ATOM      9  C   UNL     1     139.524  70.675 223.900 -0.30 -0.02    +0.129 A  
DOCKED: ATOM     10  N   UNL     1     140.164  71.067 225.037 -0.31 +0.04    -0.243 NA 
DOCKED: ATOM     11  C   UNL     1     139.001  69.374 223.816 -0.28 -0.01    +0.035 A  
DOCKED: ATOM     12  C   UNL     1     140.318  70.238 226.104 -0.49 -0.01    +0.071 A  
DOCKED: ATOM     13  C   UNL     1     139.145  68.499 224.896 -0.40 -0.00    +0.013 A  
DOCKED: ATOM     14  C   UNL     1     140.984  70.684 227.251 -0.62 -0.00    +0.029 A  
DOCKED: ATOM     15  C   UNL     1     139.806  68.923 226.053 -0.52 -0.00    +0.000 A  
DOCKED: ATOM     16  C   UNL     1     141.141  69.828 228.345 -0.55 -0.00    +0.002 A  
DOCKED: ATOM     17  C   UNL     1     139.969  68.070 227.155 -0.65 -0.00    +0.010 A  
DOCKED: ATOM     18  C   UNL     1     140.635  68.525 228.298 -0.67 -0.00    +0.001 A  
DOCKED: ENDBRANCH   6   9
DOCKED: ENDBRANCH   4   5
DOCKED: ENDBRANCH   1   4
DOCKED: BRANCH   1  19
DOCKED: ATOM     19  N   UNL     1     141.369  75.209 220.619 -0.12 +0.11    -0.335 N  
DOCKED: ATOM     20  C   UNL     1     141.457  76.596 221.110 -0.19 -0.06    +0.120 C  
DOCKED: ATOM     21  C   UNL     1     142.191  74.714 219.493 -0.17 -0.04    +0.115 C  
DOCKED: ATOM     22  C   UNL     1     141.601  77.592 219.961 -0.27 -0.01    +0.022 C  
DOCKED: ATOM     23  C   UNL     1     142.444  75.801 218.424 -0.20 -0.01    +0.030 C  
DOCKED: ATOM     24  C   UNL     1     142.729  77.179 219.020 -0.33 -0.00    +0.004 C  
DOCKED: BRANCH  21  25
DOCKED: ATOM     25  C   UNL     1     143.485  74.059 219.956 -0.33 +0.01    -0.025 A  
DOCKED: ATOM     26  C   UNL     1     143.621  72.659 219.853 -0.27 -0.00    +0.006 A  
DOCKED: ATOM     27  C   UNL     1     144.570  74.806 220.452 -0.41 -0.00    +0.006 A  
DOCKED: ATOM     28  C   UNL     1     144.800  72.026 220.258 -0.33 -0.00    +0.000 A  
DOCKED: ATOM     29  C   UNL     1     145.747  74.168 220.857 -0.62 -0.00    +0.000 A  
DOCKED: ATOM     30  C   UNL     1     145.862  72.780 220.762 -0.57 -0.00    +0.000 A  
DOCKED: ENDBRANCH  21  25
DOCKED: ENDBRANCH   1  19
DOCKED: TORSDOF 6
DOCKED: TER
DOCKED: ENDMDL
________________________________________________________________________________


    FINAL DOCKED STATE:
    ________________________


Run:   14 / 20
Time taken for this run:   0.037s

DOCKED: MODEL        14
DOCKED: USER    Run = 14
DOCKED: USER
DOCKED: USER    Estimated Free Energy of Binding    =  -8.79 kcal/mol  [=(1)+(2)+(3)-(4)]
DOCKED: USER
DOCKED: USER    (1) Final Intermolecular Energy     = -10.58 kcal/mol
DOCKED: USER        vdW + Hbond + desolv Energy     = -10.49 kcal/mol
DOCKED: USER        Electrostatic Energy            =  -0.09 kcal/mol
DOCKED: USER        Moving Ligand-Fixed Receptor    = -10.58 kcal/mol
DOCKED: USER        Moving Ligand-Moving Receptor   =  +0.00 kcal/mol
DOCKED: USER    (2) Final Total Internal Energy     =  -1.91 kcal/mol
DOCKED: USER    (3) Torsional Free Energy           =  +1.79 kcal/mol
DOCKED: USER    (4) Unbound System's Energy         =  -1.91 kcal/mol
DOCKED: USER
DOCKED: USER
DOCKED: REMARK SMILES O=C(N/C=C(\O)N1CCCC[C@H]1c1ccccc1)c1ccc2ccccc2n1
DOCKED: REMARK SMILES IDX 5 1 6 2 4 4 3 5 2 6 1 8 19 9 28 10 20 11 27 12 21 13 26 14
DOCKED: REMARK SMILES IDX 22 15 25 16 23 17 24 18 7 19 8 20 12 21 9 22 11 23 10 24
DOCKED: REMARK SMILES IDX 13 25 14 26 18 27 15 28 17 29 16 30
DOCKED: REMARK H PARENT 6 3 3 7
DOCKED: USER                              x       y       z     vdW  Elec       q    Type
DOCKED: USER                           _______ _______ _______ _____ _____    ______ ____
DOCKED: ROOT
DOCKED: ATOM      1  C   UNL     1     140.375  74.397 221.325 -0.22 -0.03    +0.204 C  
DOCKED: ENDROOT
DOCKED: BRANCH   1   2
DOCKED: ATOM      2  O   UNL     1     139.579  74.853 222.376 -0.60 +0.06    -0.494 OA 
DOCKED: ATOM      3  H   UNL     1     138.850  74.279 222.779 -0.50 -0.13    +0.295 HD 
DOCKED: ENDBRANCH   1   2
DOCKED: BRANCH   1   4
DOCKED: ATOM      4  C   UNL     1     140.336  73.106 220.969 -0.17 -0.02    +0.152 C  
DOCKED: BRANCH   4   5
DOCKED: ATOM      5  N   UNL     1     140.377  72.038 221.926 -0.14 +0.04    -0.322 N  
DOCKED: ATOM      6  C   UNL     1     139.291  71.733 222.818 -0.18 -0.06    +0.273 C  
DOCKED: ATOM      7  H   UNL     1     141.156  71.350 221.835 +0.06 -0.02    +0.169 HD 
DOCKED: ATOM      8  O   UNL     1     138.166  72.280 222.650 -0.13 +0.09    -0.267 OA 
DOCKED: BRANCH   6   9
DOCKED: ATOM      9  C   UNL     1     139.476  70.758 223.915 -0.30 -0.02    +0.129 A  
DOCKED: ATOM     10  N   UNL     1     140.093  71.150 225.065 -0.31 +0.04    -0.243 NA 
DOCKED: ATOM     11  C   UNL     1     139.018  69.435 223.793 -0.27 -0.01    +0.035 A  
DOCKED: ATOM     12  C   UNL     1     140.286  70.299 226.109 -0.49 -0.01    +0.071 A  
DOCKED: ATOM     13  C   UNL     1     139.203  68.539 224.849 -0.40 -0.00    +0.013 A  
DOCKED: ATOM     14  C   UNL     1     140.926  70.746 227.270 -0.63 -0.00    +0.029 A  
DOCKED: ATOM     15  C   UNL     1     139.840  68.962 226.020 -0.51 -0.00    +0.000 A  
DOCKED: ATOM     16  C   UNL     1     141.124  69.869 228.341 -0.55 -0.00    +0.002 A  
DOCKED: ATOM     17  C   UNL     1     140.043  68.089 227.099 -0.66 -0.00    +0.010 A  
DOCKED: ATOM     18  C   UNL     1     140.683  68.544 228.256 -0.67 -0.00    +0.001 A  
DOCKED: ENDBRANCH   6   9
DOCKED: ENDBRANCH   4   5
DOCKED: ENDBRANCH   1   4
DOCKED: BRANCH   1  19
DOCKED: ATOM     19  N   UNL     1     141.272  75.301 220.653 -0.12 +0.11    -0.335 N  
DOCKED: ATOM     20  C   UNL     1     141.387  76.685 221.148 -0.21 -0.06    +0.120 C  
DOCKED: ATOM     21  C   UNL     1     142.091  74.790 219.533 -0.17 -0.04    +0.115 C  
DOCKED: ATOM     22  C   UNL     1     141.563  77.680 220.002 -0.27 -0.01    +0.022 C  
DOCKED: ATOM     23  C   UNL     1     142.377  75.872 218.468 -0.20 -0.01    +0.030 C  
DOCKED: ATOM     24  C   UNL     1     142.689  77.242 219.069 -0.32 -0.00    +0.004 C  
DOCKED: BRANCH  21  25
DOCKED: ATOM     25  C   UNL     1     143.366  74.104 220.005 -0.32 +0.01    -0.025 A  
DOCKED: ATOM     26  C   UNL     1     143.428  72.696 220.007 -0.27 -0.00    +0.006 A  
DOCKED: ATOM     27  C   UNL     1     144.504  74.829 220.408 -0.40 -0.00    +0.006 A  
DOCKED: ATOM     28  C   UNL     1     144.588  72.034 220.423 -0.33 -0.00    +0.000 A  
DOCKED: ATOM     29  C   UNL     1     145.661  74.163 220.824 -0.62 -0.00    +0.000 A  
DOCKED: ATOM     30  C   UNL     1     145.702  72.767 220.833 -0.56 -0.00    +0.000 A  
DOCKED: ENDBRANCH  21  25
DOCKED: ENDBRANCH   1  19
DOCKED: TORSDOF 6
DOCKED: TER
DOCKED: ENDMDL
________________________________________________________________________________


    FINAL DOCKED STATE:
    ________________________


Run:   15 / 20
Time taken for this run:   0.037s

DOCKED: MODEL        15
DOCKED: USER    Run = 15
DOCKED: USER
DOCKED: USER    Estimated Free Energy of Binding    =  -8.46 kcal/mol  [=(1)+(2)+(3)-(4)]
DOCKED: USER
DOCKED: USER    (1) Final Intermolecular Energy     = -10.25 kcal/mol
DOCKED: USER        vdW + Hbond + desolv Energy     = -10.23 kcal/mol
DOCKED: USER        Electrostatic Energy            =  -0.02 kcal/mol
DOCKED: USER        Moving Ligand-Fixed Receptor    = -10.25 kcal/mol
DOCKED: USER        Moving Ligand-Moving Receptor   =  +0.00 kcal/mol
DOCKED: USER    (2) Final Total Internal Energy     =  -1.38 kcal/mol
DOCKED: USER    (3) Torsional Free Energy           =  +1.79 kcal/mol
DOCKED: USER    (4) Unbound System's Energy         =  -1.38 kcal/mol
DOCKED: USER
DOCKED: USER
DOCKED: REMARK SMILES O=C(N/C=C(\O)N1CCCC[C@H]1c1ccccc1)c1ccc2ccccc2n1
DOCKED: REMARK SMILES IDX 5 1 6 2 4 4 3 5 2 6 1 8 19 9 28 10 20 11 27 12 21 13 26 14
DOCKED: REMARK SMILES IDX 22 15 25 16 23 17 24 18 7 19 8 20 12 21 9 22 11 23 10 24
DOCKED: REMARK SMILES IDX 13 25 14 26 18 27 15 28 17 29 16 30
DOCKED: REMARK H PARENT 6 3 3 7
DOCKED: USER                              x       y       z     vdW  Elec       q    Type
DOCKED: USER                           _______ _______ _______ _____ _____    ______ ____
DOCKED: ROOT
DOCKED: ATOM      1  C   UNL     1     138.443  72.172 222.499 -0.11 -0.06    +0.204 C  
DOCKED: ENDROOT
DOCKED: BRANCH   1   2
DOCKED: ATOM      2  O   UNL     1     137.152  72.624 222.772 -0.05 +0.17    -0.494 OA 
DOCKED: ATOM      3  H   UNL     1     136.953  73.214 223.570 -0.49 -0.17    +0.295 HD 
DOCKED: ENDBRANCH   1   2
DOCKED: BRANCH   1   4
DOCKED: ATOM      4  C   UNL     1     139.378  73.035 222.077 -0.19 -0.03    +0.152 C  
DOCKED: BRANCH   4   5
DOCKED: ATOM      5  N   UNL     1     139.308  74.442 222.343 -0.09 +0.06    -0.322 N  
DOCKED: ATOM      6  C   UNL     1     140.266  75.391 221.843 -0.20 -0.05    +0.273 C  
DOCKED: ATOM      7  H   UNL     1     138.422  74.801 222.763 -0.49 -0.07    +0.169 HD 
DOCKED: ATOM      8  O   UNL     1     141.107  75.036 220.971 -0.22 +0.07    -0.267 OA 
DOCKED: BRANCH   6   9
DOCKED: ATOM      9  C   UNL     1     140.253  76.790 222.324 -0.34 -0.03    +0.129 A  
DOCKED: ATOM     10  N   UNL     1     141.430  77.456 222.486 -0.16 +0.12    -0.243 NA 
DOCKED: ATOM     11  C   UNL     1     139.043  77.447 222.607 -0.29 -0.01    +0.035 A  
DOCKED: ATOM     12  C   UNL     1     141.480  78.744 222.919 -0.49 -0.03    +0.071 A  
DOCKED: ATOM     13  C   UNL     1     139.063  78.771 223.054 -0.33 -0.00    +0.013 A  
DOCKED: ATOM     14  C   UNL     1     142.713  79.387 223.072 -0.56 -0.01    +0.029 A  
DOCKED: ATOM     15  C   UNL     1     140.284  79.434 223.215 -0.45 -0.00    +0.000 A  
DOCKED: ATOM     16  C   UNL     1     142.761  80.712 223.517 -0.66 -0.00    +0.002 A  
DOCKED: ATOM     17  C   UNL     1     140.341  80.763 223.662 -0.41 -0.00    +0.010 A  
DOCKED: ATOM     18  C   UNL     1     141.578  81.398 223.811 -0.50 -0.00    +0.001 A  
DOCKED: ENDBRANCH   6   9
DOCKED: ENDBRANCH   4   5
DOCKED: ENDBRANCH   1   4
DOCKED: BRANCH   1  19
DOCKED: ATOM     19  N   UNL     1     138.761  70.773 222.625 -0.08 +0.07    -0.335 N  
DOCKED: ATOM     20  C   UNL     1     139.573  70.132 221.575 -0.12 -0.02    +0.120 C  
DOCKED: ATOM     21  C   UNL     1     138.315  70.048 223.835 -0.24 -0.02    +0.115 C  
DOCKED: ATOM     22  C   UNL     1     139.118  68.699 221.308 -0.14 -0.00    +0.022 C  
DOCKED: ATOM     23  C   UNL     1     138.012  68.560 223.553 -0.24 -0.00    +0.030 C  
DOCKED: ATOM     24  C   UNL     1     139.021  67.907 222.609 -0.15 -0.00    +0.004 C  
DOCKED: BRANCH  21  25
DOCKED: ATOM     25  C   UNL     1     139.270  70.224 225.008 -0.39 +0.00    -0.025 A  
DOCKED: ATOM     26  C   UNL     1     140.189  71.293 224.993 -0.50 -0.00    +0.006 A  
DOCKED: ATOM     27  C   UNL     1     139.245  69.374 226.130 -0.46 -0.00    +0.006 A  
DOCKED: ATOM     28  C   UNL     1     141.071  71.489 226.059 -0.67 -0.00    +0.000 A  
DOCKED: ATOM     29  C   UNL     1     140.130  69.574 227.194 -0.58 -0.00    +0.000 A  
DOCKED: ATOM     30  C   UNL     1     141.043  70.629 227.158 -0.64 -0.00    +0.000 A  
DOCKED: ENDBRANCH  21  25
DOCKED: ENDBRANCH   1  19
DOCKED: TORSDOF 6
DOCKED: TER
DOCKED: ENDMDL
________________________________________________________________________________


    FINAL DOCKED STATE:
    ________________________


Run:   16 / 20
Time taken for this run:   0.037s

DOCKED: MODEL        16
DOCKED: USER    Run = 16
DOCKED: USER
DOCKED: USER    Estimated Free Energy of Binding    =  -8.42 kcal/mol  [=(1)+(2)+(3)-(4)]
DOCKED: USER
DOCKED: USER    (1) Final Intermolecular Energy     = -10.21 kcal/mol
DOCKED: USER        vdW + Hbond + desolv Energy     = -10.17 kcal/mol
DOCKED: USER        Electrostatic Energy            =  -0.04 kcal/mol
DOCKED: USER        Moving Ligand-Fixed Receptor    = -10.21 kcal/mol
DOCKED: USER        Moving Ligand-Moving Receptor   =  +0.00 kcal/mol
DOCKED: USER    (2) Final Total Internal Energy     =  -1.68 kcal/mol
DOCKED: USER    (3) Torsional Free Energy           =  +1.79 kcal/mol
DOCKED: USER    (4) Unbound System's Energy         =  -1.68 kcal/mol
DOCKED: USER
DOCKED: USER
DOCKED: REMARK SMILES O=C(N/C=C(\O)N1CCCC[C@H]1c1ccccc1)c1ccc2ccccc2n1
DOCKED: REMARK SMILES IDX 5 1 6 2 4 4 3 5 2 6 1 8 19 9 28 10 20 11 27 12 21 13 26 14
DOCKED: REMARK SMILES IDX 22 15 25 16 23 17 24 18 7 19 8 20 12 21 9 22 11 23 10 24
DOCKED: REMARK SMILES IDX 13 25 14 26 18 27 15 28 17 29 16 30
DOCKED: REMARK H PARENT 6 3 3 7
DOCKED: USER                              x       y       z     vdW  Elec       q    Type
DOCKED: USER                           _______ _______ _______ _____ _____    ______ ____
DOCKED: ROOT
DOCKED: ATOM      1  C   UNL     1     140.238  75.168 221.641 -0.24 -0.04    +0.204 C  
DOCKED: ENDROOT
DOCKED: BRANCH   1   2
DOCKED: ATOM      2  O   UNL     1     139.705  75.908 222.696 -0.30 +0.07    -0.494 OA 
DOCKED: ATOM      3  H   UNL     1     139.166  75.471 223.433 -0.36 -0.07    +0.295 HD 
DOCKED: ENDBRANCH   1   2
DOCKED: BRANCH   1   4
DOCKED: ATOM      4  C   UNL     1     139.946  73.865 221.523 -0.22 -0.02    +0.152 C  
DOCKED: BRANCH   4   5
DOCKED: ATOM      5  N   UNL     1     139.973  72.962 222.637 -0.14 +0.04    -0.322 N  
DOCKED: ATOM      6  C   UNL     1     140.257  71.558 222.512 -0.20 -0.04    +0.273 C  
DOCKED: ATOM      7  H   UNL     1     139.967  73.388 223.591 -0.35 -0.00    +0.169 HD 
DOCKED: ATOM      8  O   UNL     1     140.695  71.100 221.421 -0.12 +0.03    -0.267 OA 
DOCKED: BRANCH   6   9
DOCKED: ATOM      9  C   UNL     1     140.066  70.652 223.666 -0.24 -0.02    +0.129 A  
DOCKED: ATOM     10  N   UNL     1     140.585  70.991 224.879 -0.31 +0.03    -0.243 NA 
DOCKED: ATOM     11  C   UNL     1     139.349  69.451 223.533 -0.23 -0.01    +0.035 A  
DOCKED: ATOM     12  C   UNL     1     140.437  70.202 225.977 -0.48 -0.01    +0.071 A  
DOCKED: ATOM     13  C   UNL     1     139.182  68.619 224.643 -0.37 -0.00    +0.013 A  
DOCKED: ATOM     14  C   UNL     1     140.989  70.590 227.202 -0.61 -0.00    +0.029 A  
DOCKED: ATOM     15  C   UNL     1     139.724  68.986 225.879 -0.49 -0.00    +0.000 A  
DOCKED: ATOM     16  C   UNL     1     140.835  69.776 228.328 -0.58 -0.00    +0.002 A  
DOCKED: ATOM     17  C   UNL     1     139.575  68.175 227.013 -0.60 -0.00    +0.010 A  
DOCKED: ATOM     18  C   UNL     1     140.129  68.571 228.234 -0.64 -0.00    +0.001 A  
DOCKED: ENDBRANCH   6   9
DOCKED: ENDBRANCH   4   5
DOCKED: ENDBRANCH   1   4
DOCKED: BRANCH   1  19
DOCKED: ATOM     19  N   UNL     1     141.138  75.790 220.705 -0.12 +0.12    -0.335 N  
DOCKED: ATOM     20  C   UNL     1     141.455  77.220 220.868 -0.25 -0.06    +0.120 C  
DOCKED: ATOM     21  C   UNL     1     141.761  74.956 219.654 -0.16 -0.04    +0.115 C  
DOCKED: ATOM     22  C   UNL     1     141.597  77.923 219.520 -0.25 -0.01    +0.022 C  
DOCKED: ATOM     23  C   UNL     1     142.029  75.747 218.354 -0.15 -0.01    +0.030 C  
DOCKED: ATOM     24  C   UNL     1     142.552  77.161 218.606 -0.32 -0.00    +0.004 C  
DOCKED: BRANCH  21  25
DOCKED: ATOM     25  C   UNL     1     143.004  74.226 220.144 -0.31 +0.01    -0.025 A  
DOCKED: ATOM     26  C   UNL     1     142.933  72.842 220.397 -0.27 -0.00    +0.006 A  
DOCKED: ATOM     27  C   UNL     1     144.238  74.881 220.321 -0.40 -0.00    +0.006 A  
DOCKED: ATOM     28  C   UNL     1     144.059  72.139 220.837 -0.35 -0.00    +0.000 A  
DOCKED: ATOM     29  C   UNL     1     145.361  74.174 220.763 -0.58 -0.00    +0.000 A  
DOCKED: ATOM     30  C   UNL     1     145.271  72.805 221.022 -0.52 -0.00    +0.000 A  
DOCKED: ENDBRANCH  21  25
DOCKED: ENDBRANCH   1  19
DOCKED: TORSDOF 6
DOCKED: TER
DOCKED: ENDMDL
________________________________________________________________________________


    FINAL DOCKED STATE:
    ________________________


Run:   17 / 20
Time taken for this run:   0.037s

DOCKED: MODEL        17
DOCKED: USER    Run = 17
DOCKED: USER
DOCKED: USER    Estimated Free Energy of Binding    =  -8.81 kcal/mol  [=(1)+(2)+(3)-(4)]
DOCKED: USER
DOCKED: USER    (1) Final Intermolecular Energy     = -10.60 kcal/mol
DOCKED: USER        vdW + Hbond + desolv Energy     = -10.51 kcal/mol
DOCKED: USER        Electrostatic Energy            =  -0.09 kcal/mol
DOCKED: USER        Moving Ligand-Fixed Receptor    = -10.60 kcal/mol
DOCKED: USER        Moving Ligand-Moving Receptor   =  +0.00 kcal/mol
DOCKED: USER    (2) Final Total Internal Energy     =  -1.89 kcal/mol
DOCKED: USER    (3) Torsional Free Energy           =  +1.79 kcal/mol
DOCKED: USER    (4) Unbound System's Energy         =  -1.89 kcal/mol
DOCKED: USER
DOCKED: USER
DOCKED: REMARK SMILES O=C(N/C=C(\O)N1CCCC[C@H]1c1ccccc1)c1ccc2ccccc2n1
DOCKED: REMARK SMILES IDX 5 1 6 2 4 4 3 5 2 6 1 8 19 9 28 10 20 11 27 12 21 13 26 14
DOCKED: REMARK SMILES IDX 22 15 25 16 23 17 24 18 7 19 8 20 12 21 9 22 11 23 10 24
DOCKED: REMARK SMILES IDX 13 25 14 26 18 27 15 28 17 29 16 30
DOCKED: REMARK H PARENT 6 3 3 7
DOCKED: USER                              x       y       z     vdW  Elec       q    Type
DOCKED: USER                           _______ _______ _______ _____ _____    ______ ____
DOCKED: ROOT
DOCKED: ATOM      1  C   UNL     1     140.456  74.264 221.344 -0.22 -0.03    +0.204 C  
DOCKED: ENDROOT
DOCKED: BRANCH   1   2
DOCKED: ATOM      2  O   UNL     1     139.587  74.696 222.346 -0.65 +0.06    -0.494 OA 
DOCKED: ATOM      3  H   UNL     1     138.925  74.067 222.783 -0.49 -0.12    +0.295 HD 
DOCKED: ENDBRANCH   1   2
DOCKED: BRANCH   1   4
DOCKED: ATOM      4  C   UNL     1     140.496  72.968 221.006 -0.17 -0.02    +0.152 C  
DOCKED: BRANCH   4   5
DOCKED: ATOM      5  N   UNL     1     140.493  71.915 221.980 -0.14 +0.04    -0.322 N  
DOCKED: ATOM      6  C   UNL     1     139.383  71.648 222.854 -0.19 -0.06    +0.273 C  
DOCKED: ATOM      7  H   UNL     1     141.259  71.208 221.916 +0.06 -0.01    +0.169 HD 
DOCKED: ATOM      8  O   UNL     1     138.274  72.217 222.655 -0.14 +0.08    -0.267 OA 
DOCKED: BRANCH   6   9
DOCKED: ATOM      9  C   UNL     1     139.524  70.686 223.969 -0.30 -0.02    +0.129 A  
DOCKED: ATOM     10  N   UNL     1     140.169  71.068 225.107 -0.31 +0.04    -0.243 NA 
DOCKED: ATOM     11  C   UNL     1     138.996  69.388 223.878 -0.28 -0.01    +0.035 A  
DOCKED: ATOM     12  C   UNL     1     140.325  70.229 226.167 -0.49 -0.01    +0.071 A  
DOCKED: ATOM     13  C   UNL     1     139.141  68.504 224.950 -0.41 -0.00    +0.013 A  
DOCKED: ATOM     14  C   UNL     1     140.996  70.665 227.315 -0.62 -0.00    +0.029 A  
DOCKED: ATOM     15  C   UNL     1     139.808  68.917 226.108 -0.52 -0.00    +0.000 A  
DOCKED: ATOM     16  C   UNL     1     141.154  69.800 228.402 -0.49 -0.00    +0.002 A  
DOCKED: ATOM     17  C   UNL     1     139.972  68.056 227.203 -0.65 -0.00    +0.010 A  
DOCKED: ATOM     18  C   UNL     1     140.643  68.499 228.347 -0.67 -0.00    +0.001 A  
DOCKED: ENDBRANCH   6   9
DOCKED: ENDBRANCH   4   5
DOCKED: ENDBRANCH   1   4
DOCKED: BRANCH   1  19
DOCKED: ATOM     19  N   UNL     1     141.342  75.201 220.703 -0.13 +0.10    -0.335 N  
DOCKED: ATOM     20  C   UNL     1     141.436  76.570 221.242 -0.18 -0.06    +0.120 C  
DOCKED: ATOM     21  C   UNL     1     142.171  74.737 219.571 -0.18 -0.04    +0.115 C  
DOCKED: ATOM     22  C   UNL     1     141.602  77.603 220.129 -0.28 -0.01    +0.022 C  
DOCKED: ATOM     23  C   UNL     1     142.445  75.856 218.541 -0.22 -0.01    +0.030 C  
DOCKED: ATOM     24  C   UNL     1     142.736  77.211 219.186 -0.31 -0.00    +0.004 C  
DOCKED: BRANCH  21  25
DOCKED: ATOM     25  C   UNL     1     143.454  74.054 220.025 -0.33 +0.01    -0.025 A  
DOCKED: ATOM     26  C   UNL     1     143.533  72.647 219.991 -0.27 -0.00    +0.006 A  
DOCKED: ATOM     27  C   UNL     1     144.583  74.781 220.446 -0.41 -0.00    +0.006 A  
DOCKED: ATOM     28  C   UNL     1     144.700  71.989 220.390 -0.31 -0.00    +0.000 A  
DOCKED: ATOM     29  C   UNL     1     145.748  74.118 220.845 -0.64 -0.00    +0.000 A  
DOCKED: ATOM     30  C   UNL     1     145.806  72.724 220.819 -0.55 -0.00    +0.000 A  
DOCKED: ENDBRANCH  21  25
DOCKED: ENDBRANCH   1  19
DOCKED: TORSDOF 6
DOCKED: TER
DOCKED: ENDMDL
________________________________________________________________________________


    FINAL DOCKED STATE:
    ________________________


Run:   18 / 20
Time taken for this run:   0.037s

DOCKED: MODEL        18
DOCKED: USER    Run = 18
DOCKED: USER
DOCKED: USER    Estimated Free Energy of Binding    =  -8.48 kcal/mol  [=(1)+(2)+(3)-(4)]
DOCKED: USER
DOCKED: USER    (1) Final Intermolecular Energy     = -10.27 kcal/mol
DOCKED: USER        vdW + Hbond + desolv Energy     = -10.14 kcal/mol
DOCKED: USER        Electrostatic Energy            =  -0.13 kcal/mol
DOCKED: USER        Moving Ligand-Fixed Receptor    = -10.27 kcal/mol
DOCKED: USER        Moving Ligand-Moving Receptor   =  +0.00 kcal/mol
DOCKED: USER    (2) Final Total Internal Energy     =  -1.87 kcal/mol
DOCKED: USER    (3) Torsional Free Energy           =  +1.79 kcal/mol
DOCKED: USER    (4) Unbound System's Energy         =  -1.87 kcal/mol
DOCKED: USER
DOCKED: USER
DOCKED: REMARK SMILES O=C(N/C=C(\O)N1CCCC[C@H]1c1ccccc1)c1ccc2ccccc2n1
DOCKED: REMARK SMILES IDX 5 1 6 2 4 4 3 5 2 6 1 8 19 9 28 10 20 11 27 12 21 13 26 14
DOCKED: REMARK SMILES IDX 22 15 25 16 23 17 24 18 7 19 8 20 12 21 9 22 11 23 10 24
DOCKED: REMARK SMILES IDX 13 25 14 26 18 27 15 28 17 29 16 30
DOCKED: REMARK H PARENT 6 3 3 7
DOCKED: USER                              x       y       z     vdW  Elec       q    Type
DOCKED: USER                           _______ _______ _______ _____ _____    ______ ____
DOCKED: ROOT
DOCKED: ATOM      1  C   UNL     1     140.298  75.085 221.571 -0.25 -0.04    +0.204 C  
DOCKED: ENDROOT
DOCKED: BRANCH   1   2
DOCKED: ATOM      2  O   UNL     1     139.496  75.207 222.706 -0.42 +0.06    -0.494 OA 
DOCKED: ATOM      3  H   UNL     1     138.827  74.494 222.963 -0.49 -0.15    +0.295 HD 
DOCKED: ENDBRANCH   1   2
DOCKED: BRANCH   1   4
DOCKED: ATOM      4  C   UNL     1     140.954  73.941 221.335 -0.23 -0.02    +0.152 C  
DOCKED: BRANCH   4   5
DOCKED: ATOM      5  N   UNL     1     140.936  72.837 222.250 -0.14 +0.01    -0.322 N  
DOCKED: ATOM      6  C   UNL     1     139.726  72.232 222.739 -0.19 -0.05    +0.273 C  
DOCKED: ATOM      7  H   UNL     1     141.842  72.345 222.417 +0.08 +0.01    +0.169 HD 
DOCKED: ATOM      8  O   UNL     1     138.618  72.532 222.214 -0.15 +0.07    -0.267 OA 
DOCKED: BRANCH   6   9
DOCKED: ATOM      9  C   UNL     1     139.776  71.239 223.833 -0.33 -0.03    +0.129 A  
DOCKED: ATOM     10  N   UNL     1     140.347  71.578 225.023 -0.31 +0.04    -0.243 NA 
DOCKED: ATOM     11  C   UNL     1     139.235  69.952 223.669 -0.27 -0.01    +0.035 A  
DOCKED: ATOM     12  C   UNL     1     140.417  70.710 226.067 -0.53 -0.01    +0.071 A  
DOCKED: ATOM     13  C   UNL     1     139.293  69.038 224.724 -0.37 -0.00    +0.013 A  
DOCKED: ATOM     14  C   UNL     1     141.014  71.102 227.269 -0.68 -0.00    +0.029 A  
DOCKED: ATOM     15  C   UNL     1     139.885  69.408 225.936 -0.48 -0.00    +0.000 A  
DOCKED: ATOM     16  C   UNL     1     141.084  70.206 228.341 -0.56 -0.00    +0.002 A  
DOCKED: ATOM     17  C   UNL     1     139.960  68.515 227.015 -0.62 -0.00    +0.010 A  
DOCKED: ATOM     18  C   UNL     1     140.558  68.916 228.214 -0.65 -0.00    +0.001 A  
DOCKED: ENDBRANCH   6   9
DOCKED: ENDBRANCH   4   5
DOCKED: ENDBRANCH   1   4
DOCKED: BRANCH   1  19
DOCKED: ATOM     19  N   UNL     1     140.458  76.202 220.676 -0.08 +0.10    -0.335 N  
DOCKED: ATOM     20  C   UNL     1     139.439  76.430 219.636 -0.05 -0.03    +0.120 C  
DOCKED: ATOM     21  C   UNL     1     141.603  77.117 220.876 -0.18 -0.06    +0.115 C  
DOCKED: ATOM     22  C   UNL     1     140.063  76.937 218.337 -0.05 -0.01    +0.022 C  
DOCKED: ATOM     23  C   UNL     1     142.108  77.729 219.551 -0.28 -0.02    +0.030 C  
DOCKED: ATOM     24  C   UNL     1     140.978  78.129 218.602 -0.14 -0.00    +0.004 C  
DOCKED: BRANCH  21  25
DOCKED: ATOM     25  C   UNL     1     141.325  78.182 221.928 -0.39 +0.01    -0.025 A  
DOCKED: ATOM     26  C   UNL     1     142.342  79.101 222.260 -0.46 -0.00    +0.006 A  
DOCKED: ATOM     27  C   UNL     1     140.073  78.307 222.558 -0.37 -0.00    +0.006 A  
DOCKED: ATOM     28  C   UNL     1     142.117  80.099 223.213 -0.62 -0.00    +0.000 A  
DOCKED: ATOM     29  C   UNL     1     139.853  79.307 223.511 -0.43 -0.00    +0.000 A  
DOCKED: ATOM     30  C   UNL     1     140.873  80.201 223.839 -0.48 -0.00    +0.000 A  
DOCKED: ENDBRANCH  21  25
DOCKED: ENDBRANCH   1  19
DOCKED: TORSDOF 6
DOCKED: TER
DOCKED: ENDMDL
________________________________________________________________________________


    FINAL DOCKED STATE:
    ________________________


Run:   19 / 20
Time taken for this run:   0.037s

DOCKED: MODEL        19
DOCKED: USER    Run = 19
DOCKED: USER
DOCKED: USER    Estimated Free Energy of Binding    =  -8.82 kcal/mol  [=(1)+(2)+(3)-(4)]
DOCKED: USER
DOCKED: USER    (1) Final Intermolecular Energy     = -10.61 kcal/mol
DOCKED: USER        vdW + Hbond + desolv Energy     = -10.53 kcal/mol
DOCKED: USER        Electrostatic Energy            =  -0.09 kcal/mol
DOCKED: USER        Moving Ligand-Fixed Receptor    = -10.61 kcal/mol
DOCKED: USER        Moving Ligand-Moving Receptor   =  +0.00 kcal/mol
DOCKED: USER    (2) Final Total Internal Energy     =  -1.91 kcal/mol
DOCKED: USER    (3) Torsional Free Energy           =  +1.79 kcal/mol
DOCKED: USER    (4) Unbound System's Energy         =  -1.91 kcal/mol
DOCKED: USER
DOCKED: USER
DOCKED: REMARK SMILES O=C(N/C=C(\O)N1CCCC[C@H]1c1ccccc1)c1ccc2ccccc2n1
DOCKED: REMARK SMILES IDX 5 1 6 2 4 4 3 5 2 6 1 8 19 9 28 10 20 11 27 12 21 13 26 14
DOCKED: REMARK SMILES IDX 22 15 25 16 23 17 24 18 7 19 8 20 12 21 9 22 11 23 10 24
DOCKED: REMARK SMILES IDX 13 25 14 26 18 27 15 28 17 29 16 30
DOCKED: REMARK H PARENT 6 3 3 7
DOCKED: USER                              x       y       z     vdW  Elec       q    Type
DOCKED: USER                           _______ _______ _______ _____ _____    ______ ____
DOCKED: ROOT
DOCKED: ATOM      1  C   UNL     1     140.473  74.290 221.314 -0.22 -0.03    +0.204 C  
DOCKED: ENDROOT
DOCKED: BRANCH   1   2
DOCKED: ATOM      2  O   UNL     1     139.640  74.733 222.340 -0.64 +0.06    -0.494 OA 
DOCKED: ATOM      3  H   UNL     1     138.914  74.144 222.728 -0.50 -0.12    +0.295 HD 
DOCKED: ENDBRANCH   1   2
DOCKED: BRANCH   1   4
DOCKED: ATOM      4  C   UNL     1     140.485  72.994 220.974 -0.17 -0.02    +0.152 C  
DOCKED: BRANCH   4   5
DOCKED: ATOM      5  N   UNL     1     140.486  71.939 221.946 -0.14 +0.04    -0.322 N  
DOCKED: ATOM      6  C   UNL     1     139.387  71.682 222.837 -0.19 -0.06    +0.273 C  
DOCKED: ATOM      7  H   UNL     1     141.244  71.225 221.869 +0.06 -0.01    +0.169 HD 
DOCKED: ATOM      8  O   UNL     1     138.281  72.262 222.655 -0.14 +0.08    -0.267 OA 
DOCKED: BRANCH   6   9
DOCKED: ATOM      9  C   UNL     1     139.536  70.717 223.948 -0.30 -0.02    +0.129 A  
DOCKED: ATOM     10  N   UNL     1     140.176  71.100 225.088 -0.31 +0.04    -0.243 NA 
DOCKED: ATOM     11  C   UNL     1     139.020  69.414 223.850 -0.28 -0.01    +0.035 A  
DOCKED: ATOM     12  C   UNL     1     140.338  70.259 226.145 -0.49 -0.01    +0.071 A  
DOCKED: ATOM     13  C   UNL     1     139.172  68.527 224.919 -0.41 -0.00    +0.013 A  
DOCKED: ATOM     14  C   UNL     1     141.004  70.696 227.295 -0.62 -0.00    +0.029 A  
DOCKED: ATOM     15  C   UNL     1     139.834  68.941 226.080 -0.52 -0.00    +0.000 A  
DOCKED: ATOM     16  C   UNL     1     141.169  69.828 228.379 -0.51 -0.00    +0.002 A  
DOCKED: ATOM     17  C   UNL     1     140.004  68.077 227.172 -0.65 -0.00    +0.010 A  
DOCKED: ATOM     18  C   UNL     1     140.670  68.523 228.318 -0.68 -0.00    +0.001 A  
DOCKED: ENDBRANCH   6   9
DOCKED: ENDBRANCH   4   5
DOCKED: ENDBRANCH   1   4
DOCKED: BRANCH   1  19
DOCKED: ATOM     19  N   UNL     1     141.355  75.215 220.650 -0.12 +0.11    -0.335 N  
DOCKED: ATOM     20  C   UNL     1     141.441  76.598 221.151 -0.20 -0.06    +0.120 C  
DOCKED: ATOM     21  C   UNL     1     142.189  74.725 219.531 -0.18 -0.04    +0.115 C  
DOCKED: ATOM     22  C   UNL     1     141.603  77.601 220.011 -0.28 -0.01    +0.022 C  
DOCKED: ATOM     23  C   UNL     1     142.458  75.817 218.472 -0.21 -0.01    +0.030 C  
DOCKED: ATOM     24  C   UNL     1     142.741  77.190 219.081 -0.33 -0.00    +0.004 C  
DOCKED: BRANCH  21  25
DOCKED: ATOM     25  C   UNL     1     143.475  74.061 220.005 -0.33 +0.01    -0.025 A  
DOCKED: ATOM     26  C   UNL     1     143.580  72.656 219.964 -0.27 -0.00    +0.006 A  
DOCKED: ATOM     27  C   UNL     1     144.583  74.806 220.453 -0.41 -0.00    +0.006 A  
DOCKED: ATOM     28  C   UNL     1     144.750  72.016 220.381 -0.31 -0.00    +0.000 A  
DOCKED: ATOM     29  C   UNL     1     145.752  74.161 220.869 -0.62 -0.00    +0.000 A  
DOCKED: ATOM     30  C   UNL     1     145.835  72.768 220.835 -0.57 -0.00    +0.000 A  
DOCKED: ENDBRANCH  21  25
DOCKED: ENDBRANCH   1  19
DOCKED: TORSDOF 6
DOCKED: TER
DOCKED: ENDMDL
________________________________________________________________________________


    FINAL DOCKED STATE:
    ________________________


Run:   20 / 20
Time taken for this run:   0.037s

DOCKED: MODEL        20
DOCKED: USER    Run = 20
DOCKED: USER
DOCKED: USER    Estimated Free Energy of Binding    =  -8.81 kcal/mol  [=(1)+(2)+(3)-(4)]
DOCKED: USER
DOCKED: USER    (1) Final Intermolecular Energy     = -10.60 kcal/mol
DOCKED: USER        vdW + Hbond + desolv Energy     = -10.51 kcal/mol
DOCKED: USER        Electrostatic Energy            =  -0.09 kcal/mol
DOCKED: USER        Moving Ligand-Fixed Receptor    = -10.60 kcal/mol
DOCKED: USER        Moving Ligand-Moving Receptor   =  +0.00 kcal/mol
DOCKED: USER    (2) Final Total Internal Energy     =  -1.91 kcal/mol
DOCKED: USER    (3) Torsional Free Energy           =  +1.79 kcal/mol
DOCKED: USER    (4) Unbound System's Energy         =  -1.91 kcal/mol
DOCKED: USER
DOCKED: USER
DOCKED: REMARK SMILES O=C(N/C=C(\O)N1CCCC[C@H]1c1ccccc1)c1ccc2ccccc2n1
DOCKED: REMARK SMILES IDX 5 1 6 2 4 4 3 5 2 6 1 8 19 9 28 10 20 11 27 12 21 13 26 14
DOCKED: REMARK SMILES IDX 22 15 25 16 23 17 24 18 7 19 8 20 12 21 9 22 11 23 10 24
DOCKED: REMARK SMILES IDX 13 25 14 26 18 27 15 28 17 29 16 30
DOCKED: REMARK H PARENT 6 3 3 7
DOCKED: USER                              x       y       z     vdW  Elec       q    Type
DOCKED: USER                           _______ _______ _______ _____ _____    ______ ____
DOCKED: ROOT
DOCKED: ATOM      1  C   UNL     1     140.420  74.354 221.319 -0.22 -0.03    +0.204 C  
DOCKED: ENDROOT
DOCKED: BRANCH   1   2
DOCKED: ATOM      2  O   UNL     1     139.611  74.806 222.362 -0.62 +0.06    -0.494 OA 
DOCKED: ATOM      3  H   UNL     1     138.909  74.214 222.786 -0.50 -0.12    +0.295 HD 
DOCKED: ENDBRANCH   1   2
DOCKED: BRANCH   1   4
DOCKED: ATOM      4  C   UNL     1     140.396  73.061 220.967 -0.17 -0.02    +0.152 C  
DOCKED: BRANCH   4   5
DOCKED: ATOM      5  N   UNL     1     140.417  71.997 221.929 -0.14 +0.04    -0.322 N  
DOCKED: ATOM      6  C   UNL     1     139.328  71.719 222.826 -0.19 -0.06    +0.273 C  
DOCKED: ATOM      7  H   UNL     1     141.182  71.292 221.838 +0.06 -0.02    +0.169 HD 
DOCKED: ATOM      8  O   UNL     1     138.215  72.289 222.659 -0.14 +0.09    -0.267 OA 
DOCKED: BRANCH   6   9
DOCKED: ATOM      9  C   UNL     1     139.497  70.745 223.926 -0.30 -0.02    +0.129 A  
DOCKED: ATOM     10  N   UNL     1     140.121  71.130 225.075 -0.31 +0.04    -0.243 NA 
DOCKED: ATOM     11  C   UNL     1     139.017  69.429 223.810 -0.28 -0.01    +0.035 A  
DOCKED: ATOM     12  C   UNL     1     140.300  70.281 226.122 -0.49 -0.01    +0.071 A  
DOCKED: ATOM     13  C   UNL     1     139.187  68.534 224.869 -0.40 -0.00    +0.013 A  
DOCKED: ATOM     14  C   UNL     1     140.948  70.721 227.281 -0.63 -0.00    +0.029 A  
DOCKED: ATOM     15  C   UNL     1     139.831  68.952 226.038 -0.51 -0.00    +0.000 A  
DOCKED: ATOM     16  C   UNL     1     141.130  69.846 228.356 -0.54 -0.00    +0.002 A  
DOCKED: ATOM     17  C   UNL     1     140.019  68.079 227.120 -0.65 -0.00    +0.010 A  
DOCKED: ATOM     18  C   UNL     1     140.667  68.528 228.276 -0.68 -0.00    +0.001 A  
DOCKED: ENDBRANCH   6   9
DOCKED: ENDBRANCH   4   5
DOCKED: ENDBRANCH   1   4
DOCKED: BRANCH   1  19
DOCKED: ATOM     19  N   UNL     1     141.314  75.264 220.652 -0.12 +0.11    -0.335 N  
DOCKED: ATOM     20  C   UNL     1     141.419  76.648 221.149 -0.20 -0.06    +0.120 C  
DOCKED: ATOM     21  C   UNL     1     142.140  74.759 219.534 -0.17 -0.04    +0.115 C  
DOCKED: ATOM     22  C   UNL     1     141.594  77.645 220.005 -0.27 -0.01    +0.022 C  
DOCKED: ATOM     23  C   UNL     1     142.424  75.844 218.471 -0.21 -0.01    +0.030 C  
DOCKED: ATOM     24  C   UNL     1     142.725  77.215 219.075 -0.32 -0.00    +0.004 C  
DOCKED: BRANCH  21  25
DOCKED: ATOM     25  C   UNL     1     143.417  74.080 220.010 -0.33 +0.01    -0.025 A  
DOCKED: ATOM     26  C   UNL     1     143.496  72.673 219.990 -0.27 -0.00    +0.006 A  
DOCKED: ATOM     27  C   UNL     1     144.542  74.810 220.438 -0.41 -0.00    +0.006 A  
DOCKED: ATOM     28  C   UNL     1     144.657  72.017 220.409 -0.32 -0.00    +0.000 A  
DOCKED: ATOM     29  C   UNL     1     145.702  74.151 220.857 -0.63 -0.00    +0.000 A  
DOCKED: ATOM     30  C   UNL     1     145.759  72.756 220.844 -0.56 -0.00    +0.000 A  
DOCKED: ENDBRANCH  21  25
DOCKED: ENDBRANCH   1  19
DOCKED: TORSDOF 6
DOCKED: TER
DOCKED: ENDMDL
________________________________________________________________________________


    CLUSTERING HISTOGRAM
    ____________________


________________________________________________________________________________
     |           |     |           |     |
Clus | Lowest    | Run | Mean      | Num | Histogram
-ter | Binding   |     | Binding   | in  |
Rank | Energy    |     | Energy    | Clus|    5    10   15   20   25   30   35
_____|___________|_____|___________|_____|____:____|____:____|____:____|____:___
   1 |     -9.02 |   8 |     -8.60 |   5 |#####
   2 |     -8.82 |  13 |     -8.57 |  14 |##############
   3 |     -8.46 |  15 |     -8.46 |   1 |#
_____|___________|_____|___________|_____|______________________________________


    RMSD TABLE
    __________


_______________________________________________________________________
     |      |      |           |         |                 |
Rank | Sub- | Run  | Binding   | Cluster | Reference       | Grep
     | Rank |      | Energy    | RMSD    | RMSD            | Pattern
_____|______|______|___________|_________|_________________|___________
   1      1      8       -9.02      0.00    269.57           RANKING
   1      2      6       -8.53      1.55    269.41           RANKING
   1      3      9       -8.49      1.64    269.26           RANKING
   1      4     11       -8.48      1.58    269.33           RANKING
   1      5     18       -8.48      1.64    269.28           RANKING
   2      1     13       -8.82      0.00    268.85           RANKING
   2      2     19       -8.82      0.07    268.88           RANKING
   2      3     12       -8.82      0.04    268.85           RANKING
   2      4     17       -8.81      0.10    268.89           RANKING
   2      5     20       -8.81      0.10    268.86           RANKING
   2      6     10       -8.80      0.09    268.86           RANKING
   2      7     14       -8.79      0.14    268.84           RANKING
   2      8      3       -8.79      0.12    268.88           RANKING
   2      9      2       -8.78      0.15    268.79           RANKING
   2     10      5       -8.46      0.91    268.92           RANKING
   2     11     16       -8.42      0.90    268.92           RANKING
   2     12      7       -8.21      0.77    269.02           RANKING
   2     13      4       -7.84      1.28    268.65           RANKING
   2     14      1       -7.79      1.27    268.65           RANKING
   3      1     15       -8.46      0.00    269.11           RANKING

Run time 0.705 sec
Idle time 0.000 sec
