AutoDock-GPU version: v1.6

**********************************************************
**    AutoDock-GPU AUTODOCKTOOLS-COMPATIBLE DLG FILE    **
**********************************************************


    DOCKING PARAMETERS
    ________________________


Ligand file:                               /home/a/REINVENT4/ReinventStudies/pleaseWork/justmol2mol_4_Compounds_ontop/graph-dock-8u2o5u/graph-DockGPU/node-autodockgpu/inputs/UAXKWYTZVQFEPY-JYOZUDMANA-N.pdbqt
Grid fld file:                             /home/a/REINVENT4/ReinventStudies/mols/Rad51/maps/rad51_receptor.maps.fld

Random seed:                               42
Number of runs:                            20
Number of energy evaluations:              2040163
Number of generations:                     42000
Size of population:                        150
Rate of crossover:                         80.000000%
Tournament selection probability limit:    60.000000%
Rate of mutation:                          2.000000%
Maximal allowed delta movement:            +/- 6.000000A
Maximal allowed delta angle:               +/- 90.000000

Rate of local search:                      100.000000%
Maximal number of local search iterations: 300
Rho lower bound:                           0.010000
Spread of local search delta movement:     2.000000A
Spread of local search delta angle:        74.999999
Limit of consecutive successes/failures:   4

Handle symmetry during clustering:         YES
RMSD tolerance:                            2.000000A

Program call in command line was:          /home/a/REINVENT4/ReinventStudies/adgpu-v1.6_linux_x64_cuda12_128wi --filelist batch.txt --heuristics 1 --nrun 20 --psize 150 --lsit 300 --seed 42 --heurmax 12000000 


    GRID PARAMETERS
    ________________________


Receptor name:                             rad51_receptor
Number of grid points (x, y, z):           53, 53, 53
Grid center (x, y, z):                     139.950000, 75.640000, 221.970000A
Grid size (x, y, z):                       19.500000, 19.500000, 19.500000A
Grid spacing:                              0.375000A


    LIGAND PARAMETERS
    ________________________


Ligand name:                               /home/a/REINVENT4/ReinventStudies/pleaseWork/justmol2mol_4_Compounds_ontop/graph-dock-8u2o5u/graph-DockGPU/node-autodockgpu/inputs/UAXKWYTZVQFEPY-JYOZUDMANA-N
Number of atoms:                           28
Number of rotatable bonds:                 9
Number of atom types:                      6


    DUMMY DATA (only for ADT-compatibility)
    ________________________


DPF> outlev 1
DPF> ga_run 20
DPF> fld /home/a/REINVENT4/ReinventStudies/mols/Rad51/maps/rad51_receptor.maps.fld
DPF> move /home/a/REINVENT4/ReinventStudies/pleaseWork/justmol2mol_4_Compounds_ontop/graph-dock-8u2o5u/graph-DockGPU/node-autodockgpu/inputs/UAXKWYTZVQFEPY-JYOZUDMANA-N.pdbqt


    COUNTER STATES
    ________________________


Number of energy evaluations performed:    1190339
Number of generations used:                55


    INPUT LIGAND PDBQT FILE:
    ________________________


INPUT-LIGAND-PDBQT: REMARK SMILES C[C@H]([N-]/C(O)=C/N=C(\O)c1ccc2cc(F)ccc2n1)c1ccccc1
INPUT-LIGAND-PDBQT: REMARK SMILES IDX 6 1 7 2 8 3 9 4 10 6 20 7 11 8 19 9 12 10 18 11 13 12 17 13
INPUT-LIGAND-PDBQT: REMARK SMILES IDX 14 14 15 15 16 16 4 17 3 18 2 19 1 20 21 21 22 22 26 23
INPUT-LIGAND-PDBQT: REMARK SMILES IDX 23 24 25 25 24 26 5 27
INPUT-LIGAND-PDBQT: REMARK H PARENT 9 5 5 28
INPUT-LIGAND-PDBQT: ROOT
INPUT-LIGAND-PDBQT: ATOM      1  C   UNL     1       0.186  -0.206  -1.246  1.00  0.00     0.136 C 
INPUT-LIGAND-PDBQT: ENDROOT
INPUT-LIGAND-PDBQT: BRANCH   1   2
INPUT-LIGAND-PDBQT: ATOM      2  N   UNL     1      -0.709  -0.589  -0.194  1.00  0.00    -0.218 NA
INPUT-LIGAND-PDBQT: BRANCH   2   3
INPUT-LIGAND-PDBQT: ATOM      3  C   UNL     1      -2.012  -0.553  -0.214  1.00  0.00     0.237 C 
INPUT-LIGAND-PDBQT: BRANCH   3   4
INPUT-LIGAND-PDBQT: ATOM      4  O   UNL     1      -2.730  -0.099  -1.325  1.00  0.00    -0.492 OA
INPUT-LIGAND-PDBQT: ATOM      5  H   UNL     1      -2.308   0.252  -2.172  1.00  0.00     0.295 HD
INPUT-LIGAND-PDBQT: ENDBRANCH   3   4
INPUT-LIGAND-PDBQT: BRANCH   3   6
INPUT-LIGAND-PDBQT: ATOM      6  C   UNL     1      -2.774  -0.999   0.970  1.00  0.00     0.126 A 
INPUT-LIGAND-PDBQT: ATOM      7  N   UNL     1      -4.134  -0.924   0.946  1.00  0.00    -0.243 NA
INPUT-LIGAND-PDBQT: ATOM      8  C   UNL     1      -2.131  -1.495   2.118  1.00  0.00     0.035 A 
INPUT-LIGAND-PDBQT: ATOM      9  C   UNL     1      -4.900  -1.316   1.999  1.00  0.00     0.071 A 
INPUT-LIGAND-PDBQT: ATOM     10  C   UNL     1      -2.892  -1.905   3.215  1.00  0.00     0.013 A 
INPUT-LIGAND-PDBQT: ATOM     11  C   UNL     1      -6.294  -1.219   1.928  1.00  0.00     0.032 A 
INPUT-LIGAND-PDBQT: ATOM     12  C   UNL     1      -4.288  -1.819   3.167  1.00  0.00     0.003 A 
INPUT-LIGAND-PDBQT: ATOM     13  C   UNL     1      -7.079  -1.620   3.014  1.00  0.00     0.041 A 
INPUT-LIGAND-PDBQT: ATOM     14  C   UNL     1      -5.081  -2.220   4.252  1.00  0.00     0.049 A 
INPUT-LIGAND-PDBQT: ATOM     15  C   UNL     1      -6.474  -2.119   4.173  1.00  0.00     0.123 A 
INPUT-LIGAND-PDBQT: ATOM     16  F   UNL     1      -7.241  -2.506   5.222  1.00  0.00    -0.207 F 
INPUT-LIGAND-PDBQT: ENDBRANCH   3   6
INPUT-LIGAND-PDBQT: ENDBRANCH   2   3
INPUT-LIGAND-PDBQT: ENDBRANCH   1   2
INPUT-LIGAND-PDBQT: BRANCH   1  17
INPUT-LIGAND-PDBQT: ATOM     17  C   UNL     1       1.501  -0.261  -1.052  1.00  0.00     0.029 C 
INPUT-LIGAND-PDBQT: BRANCH  17  18
INPUT-LIGAND-PDBQT: ATOM     18  N   UNL     1       2.380   0.128  -2.116  1.00  0.00    -0.647 NA
INPUT-LIGAND-PDBQT: BRANCH  18  19
INPUT-LIGAND-PDBQT: ATOM     19  C   UNL     1       3.837   0.199  -2.016  1.00  0.00    -0.079 C 
INPUT-LIGAND-PDBQT: ATOM     20  C   UNL     1       4.429   0.427  -3.405  1.00  0.00    -0.008 C 
INPUT-LIGAND-PDBQT: BRANCH  19  21
INPUT-LIGAND-PDBQT: ATOM     21  C   UNL     1       4.256   1.311  -1.080  1.00  0.00    -0.063 A 
INPUT-LIGAND-PDBQT: ATOM     22  C   UNL     1       3.667   2.587  -1.167  1.00  0.00     0.002 A 
INPUT-LIGAND-PDBQT: ATOM     23  C   UNL     1       5.275   1.092  -0.137  1.00  0.00     0.002 A 
INPUT-LIGAND-PDBQT: ATOM     24  C   UNL     1       4.077   3.614  -0.311  1.00  0.00     0.000 A 
INPUT-LIGAND-PDBQT: ATOM     25  C   UNL     1       5.681   2.123   0.717  1.00  0.00     0.000 A 
INPUT-LIGAND-PDBQT: ATOM     26  C   UNL     1       5.081   3.382   0.631  1.00  0.00     0.000 A 
INPUT-LIGAND-PDBQT: ENDBRANCH  19  21
INPUT-LIGAND-PDBQT: ENDBRANCH  18  19
INPUT-LIGAND-PDBQT: ENDBRANCH  17  18
INPUT-LIGAND-PDBQT: BRANCH  17  27
INPUT-LIGAND-PDBQT: ATOM     27  O   UNL     1       1.999  -0.692   0.180  1.00  0.00    -0.529 OA
INPUT-LIGAND-PDBQT: ATOM     28  H   UNL     1       2.989  -0.768   0.369  1.00  0.00     0.290 HD
INPUT-LIGAND-PDBQT: ENDBRANCH  17  27
INPUT-LIGAND-PDBQT: ENDBRANCH   1  17
INPUT-LIGAND-PDBQT: TORSDOF 9


    FINAL DOCKED STATE:
    ________________________


Run:   1 / 20
Time taken for this run:   0.047s

DOCKED: MODEL        1
DOCKED: USER    Run = 1
DOCKED: USER
DOCKED: USER    Estimated Free Energy of Binding    =  -7.22 kcal/mol  [=(1)+(2)+(3)-(4)]
DOCKED: USER
DOCKED: USER    (1) Final Intermolecular Energy     =  -9.90 kcal/mol
DOCKED: USER        vdW + Hbond + desolv Energy     =  -9.87 kcal/mol
DOCKED: USER        Electrostatic Energy            =  -0.03 kcal/mol
DOCKED: USER        Moving Ligand-Fixed Receptor    =  -9.90 kcal/mol
DOCKED: USER        Moving Ligand-Moving Receptor   =  +0.00 kcal/mol
DOCKED: USER    (2) Final Total Internal Energy     =  -2.03 kcal/mol
DOCKED: USER    (3) Torsional Free Energy           =  +2.68 kcal/mol
DOCKED: USER    (4) Unbound System's Energy         =  -2.03 kcal/mol
DOCKED: USER
DOCKED: USER
DOCKED: REMARK SMILES C[C@H]([N-]/C(O)=C/N=C(\O)c1ccc2cc(F)ccc2n1)c1ccccc1
DOCKED: REMARK SMILES IDX 6 1 7 2 8 3 9 4 10 6 20 7 11 8 19 9 12 10 18 11 13 12 17 13
DOCKED: REMARK SMILES IDX 14 14 15 15 16 16 4 17 3 18 2 19 1 20 21 21 22 22 26 23
DOCKED: REMARK SMILES IDX 23 24 25 25 24 26 5 27
DOCKED: REMARK H PARENT 9 5 5 28
DOCKED: USER                              x       y       z     vdW  Elec       q    Type
DOCKED: USER                           _______ _______ _______ _____ _____    ______ ____
DOCKED: ROOT
DOCKED: ATOM      1  C   UNL     1     136.423  69.657 224.998 -0.17 -0.01    +0.136 C  
DOCKED: ENDROOT
DOCKED: BRANCH   1   2
DOCKED: ATOM      2  N   UNL     1     135.515  70.509 224.290 -0.10 +0.02    -0.218 NA 
DOCKED: BRANCH   2   3
DOCKED: ATOM      3  C   UNL     1     135.481  71.812 224.304 -0.10 -0.03    +0.237 C  
DOCKED: BRANCH   3   4
DOCKED: ATOM      4  O   UNL     1     136.310  72.590 223.489 -0.07 +0.14    -0.492 OA 
DOCKED: ATOM      5  H   UNL     1     137.285  72.772 223.677 -0.47 -0.18    +0.295 HD 
DOCKED: ENDBRANCH   3   4
DOCKED: BRANCH   3   6
DOCKED: ATOM      6  C   UNL     1     134.544  72.510 225.207 -0.19 -0.01    +0.126 A  
DOCKED: ATOM      7  N   UNL     1     134.627  73.864 225.327 -0.24 +0.01    -0.243 NA 
DOCKED: ATOM      8  C   UNL     1     133.573  71.811 225.947 -0.29 -0.00    +0.035 A  
DOCKED: ATOM      9  C   UNL     1     133.798  74.573 226.139 -0.32 +0.00    +0.071 A  
DOCKED: ATOM     10  C   UNL     1     132.708  72.512 226.790 -0.39 -0.00    +0.013 A  
DOCKED: ATOM     11  C   UNL     1     133.923  75.963 226.230 -0.38 -0.00    +0.032 A  
DOCKED: ATOM     12  C   UNL     1     132.812  73.904 226.896 -0.39 -0.00    +0.003 A  
DOCKED: ATOM     13  C   UNL     1     133.071  76.689 227.069 -0.35 -0.00    +0.041 A  
DOCKED: ATOM     14  C   UNL     1     131.961  74.637 227.735 -0.38 -0.00    +0.049 A  
DOCKED: ATOM     15  C   UNL     1     132.093  76.027 227.820 -0.26 +0.00    +0.123 A  
DOCKED: ATOM     16  F   UNL     1     131.270  76.737 228.631 -0.09 -0.03    -0.207 F  
DOCKED: ENDBRANCH   3   6
DOCKED: ENDBRANCH   2   3
DOCKED: ENDBRANCH   1   2
DOCKED: BRANCH   1  17
DOCKED: ATOM     17  C   UNL     1     137.730  69.739 224.764 -0.28 -0.00    +0.029 C  
DOCKED: BRANCH  17  18
DOCKED: ATOM     18  N   UNL     1     138.568  68.620 225.085 -0.15 +0.03    -0.647 NA 
DOCKED: BRANCH  18  19
DOCKED: ATOM     19  C   UNL     1     139.321  68.467 226.329 -0.48 +0.01    -0.079 C  
DOCKED: ATOM     20  C   UNL     1     140.359  67.360 226.159 -0.62 +0.00    -0.008 C  
DOCKED: BRANCH  19  21
DOCKED: ATOM     21  C   UNL     1     139.999  69.766 226.708 -0.49 +0.01    -0.063 A  
DOCKED: ATOM     22  C   UNL     1     140.826  70.442 225.790 -0.56 -0.00    +0.002 A  
DOCKED: ATOM     23  C   UNL     1     139.843  70.291 228.002 -0.62 -0.00    +0.002 A  
DOCKED: ATOM     24  C   UNL     1     141.465  71.630 226.158 -0.64 -0.00    +0.000 A  
DOCKED: ATOM     25  C   UNL     1     140.484  71.480 228.364 -0.72 -0.00    +0.000 A  
DOCKED: ATOM     26  C   UNL     1     141.293  72.150 227.442 -0.82 -0.00    +0.000 A  
DOCKED: ENDBRANCH  19  21
DOCKED: ENDBRANCH  18  19
DOCKED: ENDBRANCH  17  18
DOCKED: BRANCH  17  27
DOCKED: ATOM     27  O   UNL     1     138.260  70.906 224.208 -0.08 +0.12    -0.529 OA 
DOCKED: ATOM     28  H   UNL     1     138.015  71.827 224.545 -0.22 -0.12    +0.290 HD 
DOCKED: ENDBRANCH  17  27
DOCKED: ENDBRANCH   1  17
DOCKED: TORSDOF 9
DOCKED: TER
DOCKED: ENDMDL
________________________________________________________________________________


    FINAL DOCKED STATE:
    ________________________


Run:   2 / 20
Time taken for this run:   0.047s

DOCKED: MODEL        2
DOCKED: USER    Run = 2
DOCKED: USER
DOCKED: USER    Estimated Free Energy of Binding    =  -7.85 kcal/mol  [=(1)+(2)+(3)-(4)]
DOCKED: USER
DOCKED: USER    (1) Final Intermolecular Energy     = -10.53 kcal/mol
DOCKED: USER        vdW + Hbond + desolv Energy     = -10.49 kcal/mol
DOCKED: USER        Electrostatic Energy            =  -0.04 kcal/mol
DOCKED: USER        Moving Ligand-Fixed Receptor    = -10.53 kcal/mol
DOCKED: USER        Moving Ligand-Moving Receptor   =  +0.00 kcal/mol
DOCKED: USER    (2) Final Total Internal Energy     =  -1.76 kcal/mol
DOCKED: USER    (3) Torsional Free Energy           =  +2.68 kcal/mol
DOCKED: USER    (4) Unbound System's Energy         =  -1.76 kcal/mol
DOCKED: USER
DOCKED: USER
DOCKED: REMARK SMILES C[C@H]([N-]/C(O)=C/N=C(\O)c1ccc2cc(F)ccc2n1)c1ccccc1
DOCKED: REMARK SMILES IDX 6 1 7 2 8 3 9 4 10 6 20 7 11 8 19 9 12 10 18 11 13 12 17 13
DOCKED: REMARK SMILES IDX 14 14 15 15 16 16 4 17 3 18 2 19 1 20 21 21 22 22 26 23
DOCKED: REMARK SMILES IDX 23 24 25 25 24 26 5 27
DOCKED: REMARK H PARENT 9 5 5 28
DOCKED: USER                              x       y       z     vdW  Elec       q    Type
DOCKED: USER                           _______ _______ _______ _____ _____    ______ ____
DOCKED: ROOT
DOCKED: ATOM      1  C   UNL     1     140.331  72.220 221.876 -0.23 -0.02    +0.136 C  
DOCKED: ENDROOT
DOCKED: BRANCH   1   2
DOCKED: ATOM      2  N   UNL     1     140.688  73.603 221.999 -0.70 +0.01    -0.218 NA 
DOCKED: BRANCH   2   3
DOCKED: ATOM      3  C   UNL     1     139.894  74.633 221.916 -0.16 -0.03    +0.237 C  
DOCKED: BRANCH   3   4
DOCKED: ATOM      4  O   UNL     1     138.502  74.508 221.947 -0.14 +0.14    -0.492 OA 
DOCKED: ATOM      5  H   UNL     1     137.962  74.344 222.784 -0.47 -0.16    +0.295 HD 
DOCKED: ENDBRANCH   3   4
DOCKED: BRANCH   3   6
DOCKED: ATOM      6  C   UNL     1     140.467  75.988 221.781 -0.31 -0.03    +0.126 A  
DOCKED: ATOM      7  N   UNL     1     140.160  76.931 222.716 -0.22 +0.05    -0.243 NA 
DOCKED: ATOM      8  C   UNL     1     141.316  76.328 220.713 -0.27 -0.02    +0.035 A  
DOCKED: ATOM      9  C   UNL     1     140.650  78.198 222.655 -0.40 -0.02    +0.071 A  
DOCKED: ATOM     10  C   UNL     1     141.834  77.622 220.624 -0.31 -0.01    +0.013 A  
DOCKED: ATOM     11  C   UNL     1     140.306  79.132 223.639 -0.41 -0.01    +0.032 A  
DOCKED: ATOM     12  C   UNL     1     141.505  78.573 221.597 -0.39 -0.00    +0.003 A  
DOCKED: ATOM     13  C   UNL     1     140.809  80.435 223.572 -0.46 -0.01    +0.041 A  
DOCKED: ATOM     14  C   UNL     1     142.006  79.881 221.536 -0.40 -0.02    +0.049 A  
DOCKED: ATOM     15  C   UNL     1     141.657  80.809 222.523 -0.43 -0.03    +0.123 A  
DOCKED: ATOM     16  F   UNL     1     142.140  82.074 222.464 -0.06 +0.03    -0.207 F  
DOCKED: ENDBRANCH   3   6
DOCKED: ENDBRANCH   2   3
DOCKED: ENDBRANCH   1   2
DOCKED: BRANCH   1  17
DOCKED: ATOM     17  C   UNL     1     139.477  71.676 222.739 -0.29 -0.01    +0.029 C  
DOCKED: BRANCH  17  18
DOCKED: ATOM     18  N   UNL     1     139.904  70.561 223.534 +0.03 +0.11    -0.647 NA 
DOCKED: BRANCH  18  19
DOCKED: ATOM     19  C   UNL     1     139.233  70.090 224.744 -0.35 +0.01    -0.079 C  
DOCKED: ATOM     20  C   UNL     1     139.183  68.563 224.733 -0.39 +0.00    -0.008 C  
DOCKED: BRANCH  19  21
DOCKED: ATOM     21  C   UNL     1     139.952  70.581 225.981 -0.47 +0.01    -0.063 A  
DOCKED: ATOM     22  C   UNL     1     139.848  69.884 227.200 -0.56 -0.00    +0.002 A  
DOCKED: ATOM     23  C   UNL     1     140.701  71.769 225.936 -0.57 -0.00    +0.002 A  
DOCKED: ATOM     24  C   UNL     1     140.499  70.359 228.343 -0.58 -0.00    +0.000 A  
DOCKED: ATOM     25  C   UNL     1     141.351  72.240 227.082 -0.79 -0.00    +0.000 A  
DOCKED: ATOM     26  C   UNL     1     141.251  71.533 228.283 -0.73 -0.00    +0.000 A  
DOCKED: ENDBRANCH  19  21
DOCKED: ENDBRANCH  18  19
DOCKED: ENDBRANCH  17  18
DOCKED: BRANCH  17  27
DOCKED: ATOM     27  O   UNL     1     138.187  72.199 222.855 -0.03 +0.18    -0.529 OA 
DOCKED: ATOM     28  H   UNL     1     137.979  73.008 223.424 -0.42 -0.23    +0.290 HD 
DOCKED: ENDBRANCH  17  27
DOCKED: ENDBRANCH   1  17
DOCKED: TORSDOF 9
DOCKED: TER
DOCKED: ENDMDL
________________________________________________________________________________


    FINAL DOCKED STATE:
    ________________________


Run:   3 / 20
Time taken for this run:   0.047s

DOCKED: MODEL        3
DOCKED: USER    Run = 3
DOCKED: USER
DOCKED: USER    Estimated Free Energy of Binding    =  -6.99 kcal/mol  [=(1)+(2)+(3)-(4)]
DOCKED: USER
DOCKED: USER    (1) Final Intermolecular Energy     =  -9.67 kcal/mol
DOCKED: USER        vdW + Hbond + desolv Energy     =  -9.82 kcal/mol
DOCKED: USER        Electrostatic Energy            =  +0.15 kcal/mol
DOCKED: USER        Moving Ligand-Fixed Receptor    =  -9.67 kcal/mol
DOCKED: USER        Moving Ligand-Moving Receptor   =  +0.00 kcal/mol
DOCKED: USER    (2) Final Total Internal Energy     =  -1.86 kcal/mol
DOCKED: USER    (3) Torsional Free Energy           =  +2.68 kcal/mol
DOCKED: USER    (4) Unbound System's Energy         =  -1.86 kcal/mol
DOCKED: USER
DOCKED: USER
DOCKED: REMARK SMILES C[C@H]([N-]/C(O)=C/N=C(\O)c1ccc2cc(F)ccc2n1)c1ccccc1
DOCKED: REMARK SMILES IDX 6 1 7 2 8 3 9 4 10 6 20 7 11 8 19 9 12 10 18 11 13 12 17 13
DOCKED: REMARK SMILES IDX 14 14 15 15 16 16 4 17 3 18 2 19 1 20 21 21 22 22 26 23
DOCKED: REMARK SMILES IDX 23 24 25 25 24 26 5 27
DOCKED: REMARK H PARENT 9 5 5 28
DOCKED: USER                              x       y       z     vdW  Elec       q    Type
DOCKED: USER                           _______ _______ _______ _____ _____    ______ ____
DOCKED: ROOT
DOCKED: ATOM      1  C   UNL     1     140.859  72.614 221.167 -0.20 -0.02    +0.136 C  
DOCKED: ENDROOT
DOCKED: BRANCH   1   2
DOCKED: ATOM      2  N   UNL     1     140.051  71.577 221.739 -0.13 +0.03    -0.218 NA 
DOCKED: BRANCH   2   3
DOCKED: ATOM      3  C   UNL     1     139.294  71.660 222.797 -0.20 -0.05    +0.237 C  
DOCKED: BRANCH   3   4
DOCKED: ATOM      4  O   UNL     1     138.023  72.241 222.763 -0.06 +0.16    -0.492 OA 
DOCKED: ATOM      5  H   UNL     1     137.829  73.202 223.006 -0.42 -0.17    +0.295 HD 
DOCKED: ENDBRANCH   3   4
DOCKED: BRANCH   3   6
DOCKED: ATOM      6  C   UNL     1     139.781  71.130 224.087 -0.35 -0.02    +0.126 A  
DOCKED: ATOM      7  N   UNL     1     139.378  69.891 224.486 -0.19 +0.04    -0.243 NA 
DOCKED: ATOM      8  C   UNL     1     140.645  71.872 224.911 -0.36 -0.00    +0.035 A  
DOCKED: ATOM      9  C   UNL     1     139.785  69.339 225.660 -0.41 -0.01    +0.071 A  
DOCKED: ATOM     10  C   UNL     1     141.079  71.331 226.124 -0.66 -0.00    +0.013 A  
DOCKED: ATOM     11  C   UNL     1     139.343  68.064 226.027 -0.55 -0.00    +0.032 A  
DOCKED: ATOM     12  C   UNL     1     140.652  70.056 226.512 -0.56 -0.00    +0.003 A  
DOCKED: ATOM     13  C   UNL     1     139.761  67.500 227.238 -0.33 -0.01    +0.041 A  
DOCKED: ATOM     14  C   UNL     1     141.068  69.485 227.723 -0.55 -0.01    +0.049 A  
DOCKED: ATOM     15  C   UNL     1     140.621  68.210 228.083 -0.54 -0.03    +0.123 A  
DOCKED: ATOM     16  F   UNL     1     141.022  67.658 229.255 -0.13 +0.06    -0.207 F  
DOCKED: ENDBRANCH   3   6
DOCKED: ENDBRANCH   2   3
DOCKED: ENDBRANCH   1   2
DOCKED: BRANCH   1  17
DOCKED: ATOM     17  C   UNL     1     140.718  73.870 221.581 -0.29 -0.00    +0.029 C  
DOCKED: BRANCH  17  18
DOCKED: ATOM     18  N   UNL     1     141.740  74.826 221.269 -0.01 +0.18    -0.647 NA 
DOCKED: BRANCH  18  19
DOCKED: ATOM     19  C   UNL     1     142.305  75.047 219.939 -0.25 +0.03    -0.079 C  
DOCKED: ATOM     20  C   UNL     1     142.547  76.540 219.733 -0.35 +0.00    -0.008 C  
DOCKED: BRANCH  19  21
DOCKED: ATOM     21  C   UNL     1     143.598  74.279 219.772 -0.32 +0.02    -0.063 A  
DOCKED: ATOM     22  C   UNL     1     143.997  73.807 218.507 -0.20 -0.00    +0.002 A  
DOCKED: ATOM     23  C   UNL     1     144.396  73.991 220.892 -0.39 -0.00    +0.002 A  
DOCKED: ATOM     24  C   UNL     1     145.184  73.080 218.367 -0.25 +0.00    +0.000 A  
DOCKED: ATOM     25  C   UNL     1     145.582  73.263 220.746 -0.64 -0.00    +0.000 A  
DOCKED: ATOM     26  C   UNL     1     145.976  72.810 219.484 -0.37 +0.00    +0.000 A  
DOCKED: ENDBRANCH  19  21
DOCKED: ENDBRANCH  18  19
DOCKED: ENDBRANCH  17  18
DOCKED: BRANCH  17  27
DOCKED: ATOM     27  O   UNL     1     139.580  74.234 222.305 -0.68 +0.07    -0.529 OA 
DOCKED: ATOM     28  H   UNL     1     139.275  73.731 223.127 -0.45 -0.12    +0.290 HD 
DOCKED: ENDBRANCH  17  27
DOCKED: ENDBRANCH   1  17
DOCKED: TORSDOF 9
DOCKED: TER
DOCKED: ENDMDL
________________________________________________________________________________


    FINAL DOCKED STATE:
    ________________________


Run:   4 / 20
Time taken for this run:   0.047s

DOCKED: MODEL        4
DOCKED: USER    Run = 4
DOCKED: USER
DOCKED: USER    Estimated Free Energy of Binding    =  -7.80 kcal/mol  [=(1)+(2)+(3)-(4)]
DOCKED: USER
DOCKED: USER    (1) Final Intermolecular Energy     = -10.49 kcal/mol
DOCKED: USER        vdW + Hbond + desolv Energy     = -10.70 kcal/mol
DOCKED: USER        Electrostatic Energy            =  +0.21 kcal/mol
DOCKED: USER        Moving Ligand-Fixed Receptor    = -10.49 kcal/mol
DOCKED: USER        Moving Ligand-Moving Receptor   =  +0.00 kcal/mol
DOCKED: USER    (2) Final Total Internal Energy     =  -2.14 kcal/mol
DOCKED: USER    (3) Torsional Free Energy           =  +2.68 kcal/mol
DOCKED: USER    (4) Unbound System's Energy         =  -2.14 kcal/mol
DOCKED: USER
DOCKED: USER
DOCKED: REMARK SMILES C[C@H]([N-]/C(O)=C/N=C(\O)c1ccc2cc(F)ccc2n1)c1ccccc1
DOCKED: REMARK SMILES IDX 6 1 7 2 8 3 9 4 10 6 20 7 11 8 19 9 12 10 18 11 13 12 17 13
DOCKED: REMARK SMILES IDX 14 14 15 15 16 16 4 17 3 18 2 19 1 20 21 21 22 22 26 23
DOCKED: REMARK SMILES IDX 23 24 25 25 24 26 5 27
DOCKED: REMARK H PARENT 9 5 5 28
DOCKED: USER                              x       y       z     vdW  Elec       q    Type
DOCKED: USER                           _______ _______ _______ _____ _____    ______ ____
DOCKED: ROOT
DOCKED: ATOM      1  C   UNL     1     140.804  74.215 221.357 -0.25 -0.02    +0.136 C  
DOCKED: ENDROOT
DOCKED: BRANCH   1   2
DOCKED: ATOM      2  N   UNL     1     140.738  73.126 222.286 -0.61 +0.00    -0.218 NA 
DOCKED: BRANCH   2   3
DOCKED: ATOM      3  C   UNL     1     139.665  72.568 222.772 -0.09 -0.05    +0.237 C  
DOCKED: BRANCH   3   4
DOCKED: ATOM      4  O   UNL     1     138.379  72.939 222.365 -0.07 +0.17    -0.492 OA 
DOCKED: ATOM      5  H   UNL     1     137.890  73.757 222.696 -0.45 -0.15    +0.295 HD 
DOCKED: ENDBRANCH   3   4
DOCKED: BRANCH   3   6
DOCKED: ATOM      6  C   UNL     1     139.790  71.508 223.793 -0.33 -0.03    +0.126 A  
DOCKED: ATOM      7  N   UNL     1     140.277  71.831 225.024 -0.24 +0.05    -0.243 NA 
DOCKED: ATOM      8  C   UNL     1     139.423  70.177 223.525 -0.27 -0.01    +0.035 A  
DOCKED: ATOM      9  C   UNL     1     140.420  70.908 226.012 -0.53 -0.01    +0.071 A  
DOCKED: ATOM     10  C   UNL     1     139.560  69.207 224.521 -0.33 -0.00    +0.013 A  
DOCKED: ATOM     11  C   UNL     1     140.926  71.288 227.260 -0.71 -0.01    +0.032 A  
DOCKED: ATOM     12  C   UNL     1     140.062  69.564 225.777 -0.47 -0.00    +0.003 A  
DOCKED: ATOM     13  C   UNL     1     141.075  70.336 228.273 -0.53 -0.01    +0.041 A  
DOCKED: ATOM     14  C   UNL     1     140.214  68.614 226.798 -0.58 -0.01    +0.049 A  
DOCKED: ATOM     15  C   UNL     1     140.720  69.002 228.043 -0.53 -0.03    +0.123 A  
DOCKED: ATOM     16  F   UNL     1     140.868  68.084 229.029 -0.18 +0.05    -0.207 F  
DOCKED: ENDBRANCH   3   6
DOCKED: ENDBRANCH   2   3
DOCKED: ENDBRANCH   1   2
DOCKED: BRANCH   1  17
DOCKED: ATOM     17  C   UNL     1     140.171  75.355 221.623 -0.32 -0.01    +0.029 C  
DOCKED: BRANCH  17  18
DOCKED: ATOM     18  N   UNL     1     140.396  76.491 220.778 +0.03 +0.21    -0.647 NA 
DOCKED: BRANCH  18  19
DOCKED: ATOM     19  C   UNL     1     141.640  77.258 220.718 -0.24 +0.04    -0.079 C  
DOCKED: ATOM     20  C   UNL     1     141.780  77.887 219.333 -0.27 +0.00    -0.008 C  
DOCKED: BRANCH  19  21
DOCKED: ATOM     21  C   UNL     1     141.659  78.331 221.784 -0.33 +0.03    -0.063 A  
DOCKED: ATOM     22  C   UNL     1     141.400  78.014 223.131 -0.48 -0.00    +0.002 A  
DOCKED: ATOM     23  C   UNL     1     141.894  79.671 221.431 -0.41 -0.00    +0.002 A  
DOCKED: ATOM     24  C   UNL     1     141.399  79.017 224.105 -0.56 -0.00    +0.000 A  
DOCKED: ATOM     25  C   UNL     1     141.892  80.670 222.410 -0.53 -0.00    +0.000 A  
DOCKED: ATOM     26  C   UNL     1     141.647  80.343 223.746 -0.58 -0.00    +0.000 A  
DOCKED: ENDBRANCH  19  21
DOCKED: ENDBRANCH  18  19
DOCKED: ENDBRANCH  17  18
DOCKED: BRANCH  17  27
DOCKED: ATOM     27  O   UNL     1     139.301  75.422 222.713 -0.36 +0.09    -0.529 OA 
DOCKED: ATOM     28  H   UNL     1     139.194  74.661 223.370 -0.44 -0.12    +0.290 HD 
DOCKED: ENDBRANCH  17  27
DOCKED: ENDBRANCH   1  17
DOCKED: TORSDOF 9
DOCKED: TER
DOCKED: ENDMDL
________________________________________________________________________________


    FINAL DOCKED STATE:
    ________________________


Run:   5 / 20
Time taken for this run:   0.047s

DOCKED: MODEL        5
DOCKED: USER    Run = 5
DOCKED: USER
DOCKED: USER    Estimated Free Energy of Binding    =  -7.21 kcal/mol  [=(1)+(2)+(3)-(4)]
DOCKED: USER
DOCKED: USER    (1) Final Intermolecular Energy     =  -9.90 kcal/mol
DOCKED: USER        vdW + Hbond + desolv Energy     =  -9.95 kcal/mol
DOCKED: USER        Electrostatic Energy            =  +0.05 kcal/mol
DOCKED: USER        Moving Ligand-Fixed Receptor    =  -9.90 kcal/mol
DOCKED: USER        Moving Ligand-Moving Receptor   =  +0.00 kcal/mol
DOCKED: USER    (2) Final Total Internal Energy     =  -2.12 kcal/mol
DOCKED: USER    (3) Torsional Free Energy           =  +2.68 kcal/mol
DOCKED: USER    (4) Unbound System's Energy         =  -2.12 kcal/mol
DOCKED: USER
DOCKED: USER
DOCKED: REMARK SMILES C[C@H]([N-]/C(O)=C/N=C(\O)c1ccc2cc(F)ccc2n1)c1ccccc1
DOCKED: REMARK SMILES IDX 6 1 7 2 8 3 9 4 10 6 20 7 11 8 19 9 12 10 18 11 13 12 17 13
DOCKED: REMARK SMILES IDX 14 14 15 15 16 16 4 17 3 18 2 19 1 20 21 21 22 22 26 23
DOCKED: REMARK SMILES IDX 23 24 25 25 24 26 5 27
DOCKED: REMARK H PARENT 9 5 5 28
DOCKED: USER                              x       y       z     vdW  Elec       q    Type
DOCKED: USER                           _______ _______ _______ _____ _____    ______ ____
DOCKED: ROOT
DOCKED: ATOM      1  C   UNL     1     140.496  72.237 222.138 -0.25 -0.01    +0.136 C  
DOCKED: ENDROOT
DOCKED: BRANCH   1   2
DOCKED: ATOM      2  N   UNL     1     140.701  73.646 222.301 -0.67 -0.01    -0.218 NA 
DOCKED: BRANCH   2   3
DOCKED: ATOM      3  C   UNL     1     139.963  74.612 221.829 -0.17 -0.03    +0.237 C  
DOCKED: BRANCH   3   4
DOCKED: ATOM      4  O   UNL     1     138.648  74.405 221.401 -0.08 +0.12    -0.492 OA 
DOCKED: ATOM      5  H   UNL     1     138.197  73.503 221.358 +0.05 -0.07    +0.295 HD 
DOCKED: ENDBRANCH   3   4
DOCKED: BRANCH   3   6
DOCKED: ATOM      6  C   UNL     1     140.518  75.976 221.731 -0.31 -0.03    +0.126 A  
DOCKED: ATOM      7  N   UNL     1     140.241  76.874 222.717 -0.23 +0.05    -0.243 NA 
DOCKED: ATOM      8  C   UNL     1     141.322  76.370 220.646 -0.27 -0.02    +0.035 A  
DOCKED: ATOM      9  C   UNL     1     140.718  78.148 222.693 -0.41 -0.02    +0.071 A  
DOCKED: ATOM     10  C   UNL     1     141.826  77.672 220.595 -0.31 -0.01    +0.013 A  
DOCKED: ATOM     11  C   UNL     1     140.405  79.034 223.729 -0.40 -0.01    +0.032 A  
DOCKED: ATOM     12  C   UNL     1     141.527  78.577 221.620 -0.39 -0.00    +0.003 A  
DOCKED: ATOM     13  C   UNL     1     140.894  80.344 223.700 -0.46 -0.01    +0.041 A  
DOCKED: ATOM     14  C   UNL     1     142.015  79.891 221.597 -0.41 -0.02    +0.049 A  
DOCKED: ATOM     15  C   UNL     1     141.697  80.772 222.637 -0.44 -0.03    +0.123 A  
DOCKED: ATOM     16  F   UNL     1     142.168  82.043 222.615 -0.07 +0.03    -0.207 F  
DOCKED: ENDBRANCH   3   6
DOCKED: ENDBRANCH   2   3
DOCKED: ENDBRANCH   1   2
DOCKED: BRANCH   1  17
DOCKED: ATOM     17  C   UNL     1     139.516  71.628 222.801 -0.30 -0.01    +0.029 C  
DOCKED: BRANCH  17  18
DOCKED: ATOM     18  N   UNL     1     139.784  70.376 223.445 +0.05 +0.11    -0.647 NA 
DOCKED: BRANCH  18  19
DOCKED: ATOM     19  C   UNL     1     139.140  69.910 224.673 -0.34 +0.01    -0.079 C  
DOCKED: ATOM     20  C   UNL     1     139.150  68.384 224.702 -0.38 +0.00    -0.008 C  
DOCKED: BRANCH  19  21
DOCKED: ATOM     21  C   UNL     1     139.847  70.462 225.891 -0.44 +0.01    -0.063 A  
DOCKED: ATOM     22  C   UNL     1     139.594  69.935 227.172 -0.51 -0.00    +0.002 A  
DOCKED: ATOM     23  C   UNL     1     140.737  71.542 225.760 -0.61 -0.00    +0.002 A  
DOCKED: ATOM     24  C   UNL     1     140.237  70.466 228.294 -0.61 -0.00    +0.000 A  
DOCKED: ATOM     25  C   UNL     1     141.378  72.069 226.887 -0.75 -0.00    +0.000 A  
DOCKED: ATOM     26  C   UNL     1     141.129  71.530 228.152 -0.78 -0.00    +0.000 A  
DOCKED: ENDBRANCH  19  21
DOCKED: ENDBRANCH  18  19
DOCKED: ENDBRANCH  17  18
DOCKED: BRANCH  17  27
DOCKED: ATOM     27  O   UNL     1     138.251  72.218 222.858 -0.03 +0.18    -0.529 OA 
DOCKED: ATOM     28  H   UNL     1     138.118  73.195 223.083 -0.44 -0.19    +0.290 HD 
DOCKED: ENDBRANCH  17  27
DOCKED: ENDBRANCH   1  17
DOCKED: TORSDOF 9
DOCKED: TER
DOCKED: ENDMDL
________________________________________________________________________________


    FINAL DOCKED STATE:
    ________________________


Run:   6 / 20
Time taken for this run:   0.047s

DOCKED: MODEL        6
DOCKED: USER    Run = 6
DOCKED: USER
DOCKED: USER    Estimated Free Energy of Binding    =  -7.79 kcal/mol  [=(1)+(2)+(3)-(4)]
DOCKED: USER
DOCKED: USER    (1) Final Intermolecular Energy     = -10.48 kcal/mol
DOCKED: USER        vdW + Hbond + desolv Energy     = -10.69 kcal/mol
DOCKED: USER        Electrostatic Energy            =  +0.22 kcal/mol
DOCKED: USER        Moving Ligand-Fixed Receptor    = -10.48 kcal/mol
DOCKED: USER        Moving Ligand-Moving Receptor   =  +0.00 kcal/mol
DOCKED: USER    (2) Final Total Internal Energy     =  -2.12 kcal/mol
DOCKED: USER    (3) Torsional Free Energy           =  +2.68 kcal/mol
DOCKED: USER    (4) Unbound System's Energy         =  -2.12 kcal/mol
DOCKED: USER
DOCKED: USER
DOCKED: REMARK SMILES C[C@H]([N-]/C(O)=C/N=C(\O)c1ccc2cc(F)ccc2n1)c1ccccc1
DOCKED: REMARK SMILES IDX 6 1 7 2 8 3 9 4 10 6 20 7 11 8 19 9 12 10 18 11 13 12 17 13
DOCKED: REMARK SMILES IDX 14 14 15 15 16 16 4 17 3 18 2 19 1 20 21 21 22 22 26 23
DOCKED: REMARK SMILES IDX 23 24 25 25 24 26 5 27
DOCKED: REMARK H PARENT 9 5 5 28
DOCKED: USER                              x       y       z     vdW  Elec       q    Type
DOCKED: USER                           _______ _______ _______ _____ _____    ______ ____
DOCKED: ROOT
DOCKED: ATOM      1  C   UNL     1     140.787  74.250 221.350 -0.25 -0.02    +0.136 C  
DOCKED: ENDROOT
DOCKED: BRANCH   1   2
DOCKED: ATOM      2  N   UNL     1     140.720  73.152 222.269 -0.62 +0.00    -0.218 NA 
DOCKED: BRANCH   2   3
DOCKED: ATOM      3  C   UNL     1     139.647  72.604 222.767 -0.08 -0.05    +0.237 C  
DOCKED: BRANCH   3   4
DOCKED: ATOM      4  O   UNL     1     138.361  72.983 222.370 -0.06 +0.17    -0.492 OA 
DOCKED: ATOM      5  H   UNL     1     137.871  73.792 222.720 -0.47 -0.15    +0.295 HD 
DOCKED: ENDBRANCH   3   4
DOCKED: BRANCH   3   6
DOCKED: ATOM      6  C   UNL     1     139.774  71.548 223.792 -0.32 -0.03    +0.126 A  
DOCKED: ATOM      7  N   UNL     1     140.264  71.875 225.020 -0.23 +0.05    -0.243 NA 
DOCKED: ATOM      8  C   UNL     1     139.405  70.216 223.529 -0.28 -0.01    +0.035 A  
DOCKED: ATOM      9  C   UNL     1     140.409  70.955 226.011 -0.54 -0.01    +0.071 A  
DOCKED: ATOM     10  C   UNL     1     139.543  69.250 224.528 -0.34 -0.00    +0.013 A  
DOCKED: ATOM     11  C   UNL     1     140.917  71.339 227.257 -0.72 -0.01    +0.032 A  
DOCKED: ATOM     12  C   UNL     1     140.048  69.610 225.782 -0.47 -0.00    +0.003 A  
DOCKED: ATOM     13  C   UNL     1     141.068  70.390 228.273 -0.53 -0.01    +0.041 A  
DOCKED: ATOM     14  C   UNL     1     140.201  68.663 226.805 -0.58 -0.01    +0.049 A  
DOCKED: ATOM     15  C   UNL     1     140.711  69.055 228.048 -0.53 -0.03    +0.123 A  
DOCKED: ATOM     16  F   UNL     1     140.860  68.140 229.037 -0.19 +0.05    -0.207 F  
DOCKED: ENDBRANCH   3   6
DOCKED: ENDBRANCH   2   3
DOCKED: ENDBRANCH   1   2
DOCKED: BRANCH   1  17
DOCKED: ATOM     17  C   UNL     1     140.157  75.389 221.628 -0.32 -0.01    +0.029 C  
DOCKED: BRANCH  17  18
DOCKED: ATOM     18  N   UNL     1     140.396  76.537 220.804 +0.03 +0.21    -0.647 NA 
DOCKED: BRANCH  18  19
DOCKED: ATOM     19  C   UNL     1     141.653  77.282 220.748 -0.23 +0.05    -0.079 C  
DOCKED: ATOM     20  C   UNL     1     141.871  77.802 219.329 -0.28 +0.00    -0.008 C  
DOCKED: BRANCH  19  21
DOCKED: ATOM     21  C   UNL     1     141.639  78.432 221.730 -0.35 +0.03    -0.063 A  
DOCKED: ATOM     22  C   UNL     1     141.375  78.211 223.095 -0.53 -0.00    +0.002 A  
DOCKED: ATOM     23  C   UNL     1     141.846  79.747 221.278 -0.40 -0.00    +0.002 A  
DOCKED: ATOM     24  C   UNL     1     141.343  79.285 223.991 -0.56 -0.00    +0.000 A  
DOCKED: ATOM     25  C   UNL     1     141.812  80.817 222.179 -0.50 -0.00    +0.000 A  
DOCKED: ATOM     26  C   UNL     1     141.563  80.585 223.534 -0.57 -0.00    +0.000 A  
DOCKED: ENDBRANCH  19  21
DOCKED: ENDBRANCH  18  19
DOCKED: ENDBRANCH  17  18
DOCKED: BRANCH  17  27
DOCKED: ATOM     27  O   UNL     1     139.277  75.443 222.712 -0.36 +0.10    -0.529 OA 
DOCKED: ATOM     28  H   UNL     1     139.187  74.687 223.377 -0.44 -0.12    +0.290 HD 
DOCKED: ENDBRANCH  17  27
DOCKED: ENDBRANCH   1  17
DOCKED: TORSDOF 9
DOCKED: TER
DOCKED: ENDMDL
________________________________________________________________________________


    FINAL DOCKED STATE:
    ________________________


Run:   7 / 20
Time taken for this run:   0.047s

DOCKED: MODEL        7
DOCKED: USER    Run = 7
DOCKED: USER
DOCKED: USER    Estimated Free Energy of Binding    =  -7.22 kcal/mol  [=(1)+(2)+(3)-(4)]
DOCKED: USER
DOCKED: USER    (1) Final Intermolecular Energy     =  -9.91 kcal/mol
DOCKED: USER        vdW + Hbond + desolv Energy     = -10.09 kcal/mol
DOCKED: USER        Electrostatic Energy            =  +0.18 kcal/mol
DOCKED: USER        Moving Ligand-Fixed Receptor    =  -9.91 kcal/mol
DOCKED: USER        Moving Ligand-Moving Receptor   =  +0.00 kcal/mol
DOCKED: USER    (2) Final Total Internal Energy     =  -2.04 kcal/mol
DOCKED: USER    (3) Torsional Free Energy           =  +2.68 kcal/mol
DOCKED: USER    (4) Unbound System's Energy         =  -2.04 kcal/mol
DOCKED: USER
DOCKED: USER
DOCKED: REMARK SMILES C[C@H]([N-]/C(O)=C/N=C(\O)c1ccc2cc(F)ccc2n1)c1ccccc1
DOCKED: REMARK SMILES IDX 6 1 7 2 8 3 9 4 10 6 20 7 11 8 19 9 12 10 18 11 13 12 17 13
DOCKED: REMARK SMILES IDX 14 14 15 15 16 16 4 17 3 18 2 19 1 20 21 21 22 22 26 23
DOCKED: REMARK SMILES IDX 23 24 25 25 24 26 5 27
DOCKED: REMARK H PARENT 9 5 5 28
DOCKED: USER                              x       y       z     vdW  Elec       q    Type
DOCKED: USER                           _______ _______ _______ _____ _____    ______ ____
DOCKED: ROOT
DOCKED: ATOM      1  C   UNL     1     140.744  74.553 221.524 -0.26 -0.02    +0.136 C  
DOCKED: ENDROOT
DOCKED: BRANCH   1   2
DOCKED: ATOM      2  N   UNL     1     140.735  73.397 222.371 -0.63 -0.01    -0.218 NA 
DOCKED: BRANCH   2   3
DOCKED: ATOM      3  C   UNL     1     139.791  72.504 222.479 -0.20 -0.04    +0.237 C  
DOCKED: BRANCH   3   4
DOCKED: ATOM      4  O   UNL     1     138.706  72.453 221.597 -0.04 +0.11    -0.492 OA 
DOCKED: ATOM      5  H   UNL     1     138.307  73.258 221.137 +0.06 -0.07    +0.295 HD 
DOCKED: ENDBRANCH   3   4
DOCKED: BRANCH   3   6
DOCKED: ATOM      6  C   UNL     1     139.848  71.507 223.567 -0.32 -0.02    +0.126 A  
DOCKED: ATOM      7  N   UNL     1     140.364  71.875 224.773 -0.26 +0.04    -0.243 NA 
DOCKED: ATOM      8  C   UNL     1     139.388  70.190 223.386 -0.26 -0.01    +0.035 A  
DOCKED: ATOM      9  C   UNL     1     140.449  71.010 225.819 -0.53 -0.01    +0.071 A  
DOCKED: ATOM     10  C   UNL     1     139.462  69.280 224.443 -0.33 -0.00    +0.013 A  
DOCKED: ATOM     11  C   UNL     1     140.987  71.434 227.039 -0.72 -0.01    +0.032 A  
DOCKED: ATOM     12  C   UNL     1     139.995  69.681 225.673 -0.46 -0.00    +0.003 A  
DOCKED: ATOM     13  C   UNL     1     141.076  70.541 228.112 -0.58 -0.01    +0.041 A  
DOCKED: ATOM     14  C   UNL     1     140.087  68.791 226.753 -0.56 -0.01    +0.049 A  
DOCKED: ATOM     15  C   UNL     1     140.627  69.223 227.969 -0.53 -0.02    +0.123 A  
DOCKED: ATOM     16  F   UNL     1     140.716  68.363 229.014 -0.17 +0.05    -0.207 F  
DOCKED: ENDBRANCH   3   6
DOCKED: ENDBRANCH   2   3
DOCKED: ENDBRANCH   1   2
DOCKED: BRANCH   1  17
DOCKED: ATOM     17  C   UNL     1     139.741  75.426 221.583 -0.30 -0.01    +0.029 C  
DOCKED: BRANCH  17  18
DOCKED: ATOM     18  N   UNL     1     139.906  76.718 220.983 +0.04 +0.18    -0.647 NA 
DOCKED: BRANCH  18  19
DOCKED: ATOM     19  C   UNL     1     139.456  77.979 221.571 -0.20 +0.02    -0.079 C  
DOCKED: ATOM     20  C   UNL     1     138.484  77.686 222.712 -0.29 +0.00    -0.008 C  
DOCKED: BRANCH  19  21
DOCKED: ATOM     21  C   UNL     1     140.632  78.783 222.079 -0.32 +0.02    -0.063 A  
DOCKED: ATOM     22  C   UNL     1     141.120  78.598 223.387 -0.53 -0.00    +0.002 A  
DOCKED: ATOM     23  C   UNL     1     141.226  79.759 221.260 -0.33 -0.00    +0.002 A  
DOCKED: ATOM     24  C   UNL     1     142.195  79.362 223.854 -0.59 -0.00    +0.000 A  
DOCKED: ATOM     25  C   UNL     1     142.300  80.519 221.733 -0.45 -0.00    +0.000 A  
DOCKED: ATOM     26  C   UNL     1     142.785  80.320 223.028 -0.66 -0.00    +0.000 A  
DOCKED: ENDBRANCH  19  21
DOCKED: ENDBRANCH  18  19
DOCKED: ENDBRANCH  17  18
DOCKED: BRANCH  17  27
DOCKED: ATOM     27  O   UNL     1     138.552  75.069 222.221 -0.15 +0.15    -0.529 OA 
DOCKED: ATOM     28  H   UNL     1     138.470  74.240 222.794 -0.50 -0.15    +0.290 HD 
DOCKED: ENDBRANCH  17  27
DOCKED: ENDBRANCH   1  17
DOCKED: TORSDOF 9
DOCKED: TER
DOCKED: ENDMDL
________________________________________________________________________________


    FINAL DOCKED STATE:
    ________________________


Run:   8 / 20
Time taken for this run:   0.047s

DOCKED: MODEL        8
DOCKED: USER    Run = 8
DOCKED: USER
DOCKED: USER    Estimated Free Energy of Binding    =  -7.85 kcal/mol  [=(1)+(2)+(3)-(4)]
DOCKED: USER
DOCKED: USER    (1) Final Intermolecular Energy     = -10.53 kcal/mol
DOCKED: USER        vdW + Hbond + desolv Energy     = -10.74 kcal/mol
DOCKED: USER        Electrostatic Energy            =  +0.20 kcal/mol
DOCKED: USER        Moving Ligand-Fixed Receptor    = -10.53 kcal/mol
DOCKED: USER        Moving Ligand-Moving Receptor   =  +0.00 kcal/mol
DOCKED: USER    (2) Final Total Internal Energy     =  -2.08 kcal/mol
DOCKED: USER    (3) Torsional Free Energy           =  +2.68 kcal/mol
DOCKED: USER    (4) Unbound System's Energy         =  -2.08 kcal/mol
DOCKED: USER
DOCKED: USER
DOCKED: REMARK SMILES C[C@H]([N-]/C(O)=C/N=C(\O)c1ccc2cc(F)ccc2n1)c1ccccc1
DOCKED: REMARK SMILES IDX 6 1 7 2 8 3 9 4 10 6 20 7 11 8 19 9 12 10 18 11 13 12 17 13
DOCKED: REMARK SMILES IDX 14 14 15 15 16 16 4 17 3 18 2 19 1 20 21 21 22 22 26 23
DOCKED: REMARK SMILES IDX 23 24 25 25 24 26 5 27
DOCKED: REMARK H PARENT 9 5 5 28
DOCKED: USER                              x       y       z     vdW  Elec       q    Type
DOCKED: USER                           _______ _______ _______ _____ _____    ______ ____
DOCKED: ROOT
DOCKED: ATOM      1  C   UNL     1     140.896  74.257 221.431 -0.24 -0.02    +0.136 C  
DOCKED: ENDROOT
DOCKED: BRANCH   1   2
DOCKED: ATOM      2  N   UNL     1     140.803  73.128 222.308 -0.59 -0.00    -0.218 NA 
DOCKED: BRANCH   2   3
DOCKED: ATOM      3  C   UNL     1     139.717  72.565 222.758 -0.12 -0.05    +0.237 C  
DOCKED: BRANCH   3   4
DOCKED: ATOM      4  O   UNL     1     138.445  72.925 222.302 -0.08 +0.16    -0.492 OA 
DOCKED: ATOM      5  H   UNL     1     137.886  73.667 222.696 -0.44 -0.15    +0.295 HD 
DOCKED: ENDBRANCH   3   4
DOCKED: BRANCH   3   6
DOCKED: ATOM      6  C   UNL     1     139.812  71.512 223.790 -0.33 -0.03    +0.126 A  
DOCKED: ATOM      7  N   UNL     1     140.299  71.836 225.020 -0.25 +0.04    -0.243 NA 
DOCKED: ATOM      8  C   UNL     1     139.417  70.187 223.531 -0.27 -0.01    +0.035 A  
DOCKED: ATOM      9  C   UNL     1     140.415  70.919 226.018 -0.53 -0.01    +0.071 A  
DOCKED: ATOM     10  C   UNL     1     139.526  69.224 224.537 -0.34 -0.00    +0.013 A  
DOCKED: ATOM     11  C   UNL     1     140.922  71.299 227.265 -0.71 -0.01    +0.032 A  
DOCKED: ATOM     12  C   UNL     1     140.028  69.580 225.793 -0.47 -0.00    +0.003 A  
DOCKED: ATOM     13  C   UNL     1     141.043  70.353 228.288 -0.53 -0.01    +0.041 A  
DOCKED: ATOM     14  C   UNL     1     140.152  68.637 226.823 -0.58 -0.01    +0.049 A  
DOCKED: ATOM     15  C   UNL     1     140.660  69.025 228.068 -0.53 -0.03    +0.123 A  
DOCKED: ATOM     16  F   UNL     1     140.780  68.113 229.064 -0.18 +0.05    -0.207 F  
DOCKED: ENDBRANCH   3   6
DOCKED: ENDBRANCH   2   3
DOCKED: ENDBRANCH   1   2
DOCKED: BRANCH   1  17
DOCKED: ATOM     17  C   UNL     1     140.175  75.349 221.675 -0.31 -0.01    +0.029 C  
DOCKED: BRANCH  17  18
DOCKED: ATOM     18  N   UNL     1     140.366  76.509 220.855 +0.03 +0.20    -0.647 NA 
DOCKED: BRANCH  18  19
DOCKED: ATOM     19  C   UNL     1     141.614  77.264 220.748 -0.24 +0.04    -0.079 C  
DOCKED: ATOM     20  C   UNL     1     141.765  77.791 219.323 -0.27 +0.00    -0.008 C  
DOCKED: BRANCH  19  21
DOCKED: ATOM     21  C   UNL     1     141.632  78.410 221.734 -0.35 +0.03    -0.063 A  
DOCKED: ATOM     22  C   UNL     1     141.378  78.189 223.102 -0.53 -0.00    +0.002 A  
DOCKED: ATOM     23  C   UNL     1     141.862  79.722 221.286 -0.39 -0.00    +0.002 A  
DOCKED: ATOM     24  C   UNL     1     141.376  79.259 224.002 -0.56 -0.00    +0.000 A  
DOCKED: ATOM     25  C   UNL     1     141.860  80.789 222.192 -0.50 -0.00    +0.000 A  
DOCKED: ATOM     26  C   UNL     1     141.619  80.557 223.548 -0.58 -0.00    +0.000 A  
DOCKED: ENDBRANCH  19  21
DOCKED: ENDBRANCH  18  19
DOCKED: ENDBRANCH  17  18
DOCKED: BRANCH  17  27
DOCKED: ATOM     27  O   UNL     1     139.247  75.343 222.720 -0.37 +0.10    -0.529 OA 
DOCKED: ATOM     28  H   UNL     1     139.203  74.599 223.403 -0.45 -0.13    +0.290 HD 
DOCKED: ENDBRANCH  17  27
DOCKED: ENDBRANCH   1  17
DOCKED: TORSDOF 9
DOCKED: TER
DOCKED: ENDMDL
________________________________________________________________________________


    FINAL DOCKED STATE:
    ________________________


Run:   9 / 20
Time taken for this run:   0.047s

DOCKED: MODEL        9
DOCKED: USER    Run = 9
DOCKED: USER
DOCKED: USER    Estimated Free Energy of Binding    =  -6.99 kcal/mol  [=(1)+(2)+(3)-(4)]
DOCKED: USER
DOCKED: USER    (1) Final Intermolecular Energy     =  -9.68 kcal/mol
DOCKED: USER        vdW + Hbond + desolv Energy     =  -9.76 kcal/mol
DOCKED: USER        Electrostatic Energy            =  +0.08 kcal/mol
DOCKED: USER        Moving Ligand-Fixed Receptor    =  -9.68 kcal/mol
DOCKED: USER        Moving Ligand-Moving Receptor   =  +0.00 kcal/mol
DOCKED: USER    (2) Final Total Internal Energy     =  -2.33 kcal/mol
DOCKED: USER    (3) Torsional Free Energy           =  +2.68 kcal/mol
DOCKED: USER    (4) Unbound System's Energy         =  -2.33 kcal/mol
DOCKED: USER
DOCKED: USER
DOCKED: REMARK SMILES C[C@H]([N-]/C(O)=C/N=C(\O)c1ccc2cc(F)ccc2n1)c1ccccc1
DOCKED: REMARK SMILES IDX 6 1 7 2 8 3 9 4 10 6 20 7 11 8 19 9 12 10 18 11 13 12 17 13
DOCKED: REMARK SMILES IDX 14 14 15 15 16 16 4 17 3 18 2 19 1 20 21 21 22 22 26 23
DOCKED: REMARK SMILES IDX 23 24 25 25 24 26 5 27
DOCKED: REMARK H PARENT 9 5 5 28
DOCKED: USER                              x       y       z     vdW  Elec       q    Type
DOCKED: USER                           _______ _______ _______ _____ _____    ______ ____
DOCKED: ROOT
DOCKED: ATOM      1  C   UNL     1     140.693  72.620 222.691 -0.14 -0.00    +0.136 C  
DOCKED: ENDROOT
DOCKED: BRANCH   1   2
DOCKED: ATOM      2  N   UNL     1     140.522  73.779 221.866 -0.68 +0.01    -0.218 NA 
DOCKED: BRANCH   2   3
DOCKED: ATOM      3  C   UNL     1     139.598  74.693 221.972 -0.19 -0.04    +0.237 C  
DOCKED: BRANCH   3   4
DOCKED: ATOM      4  O   UNL     1     138.262  74.378 222.241 -0.08 +0.17    -0.492 OA 
DOCKED: ATOM      5  H   UNL     1     137.960  73.752 222.972 -0.47 -0.20    +0.295 HD 
DOCKED: ENDBRANCH   3   4
DOCKED: BRANCH   3   6
DOCKED: ATOM      6  C   UNL     1     139.955  76.116 221.801 -0.29 -0.03    +0.126 A  
DOCKED: ATOM      7  N   UNL     1     140.690  76.733 222.768 -0.21 +0.07    -0.243 NA 
DOCKED: ATOM      8  C   UNL     1     139.554  76.847 220.668 -0.14 -0.01    +0.035 A  
DOCKED: ATOM      9  C   UNL     1     141.054  78.040 222.678 -0.44 -0.03    +0.071 A  
DOCKED: ATOM     10  C   UNL     1     139.914  78.191 220.549 -0.15 -0.00    +0.013 A  
DOCKED: ATOM     11  C   UNL     1     141.808  78.631 223.698 -0.59 -0.01    +0.032 A  
DOCKED: ATOM     12  C   UNL     1     140.669  78.803 221.555 -0.30 -0.00    +0.003 A  
DOCKED: ATOM     13  C   UNL     1     142.179  79.976 223.604 -0.61 -0.01    +0.041 A  
DOCKED: ATOM     14  C   UNL     1     141.045  80.152 221.467 -0.31 -0.02    +0.049 A  
DOCKED: ATOM     15  C   UNL     1     141.798  80.735 222.491 -0.44 -0.03    +0.123 A  
DOCKED: ATOM     16  F   UNL     1     142.161  82.038 222.407 -0.06 +0.03    -0.207 F  
DOCKED: ENDBRANCH   3   6
DOCKED: ENDBRANCH   2   3
DOCKED: ENDBRANCH   1   2
DOCKED: BRANCH   1  17
DOCKED: ATOM     17  C   UNL     1     139.731  71.704 222.758 -0.31 -0.01    +0.029 C  
DOCKED: BRANCH  17  18
DOCKED: ATOM     18  N   UNL     1     139.933  70.537 223.566 +0.03 +0.11    -0.647 NA 
DOCKED: BRANCH  18  19
DOCKED: ATOM     19  C   UNL     1     139.196  70.227 224.790 -0.35 +0.01    -0.079 C  
DOCKED: ATOM     20  C   UNL     1     138.923  68.726 224.851 -0.40 +0.00    -0.008 C  
DOCKED: BRANCH  19  21
DOCKED: ATOM     21  C   UNL     1     139.975  70.667 226.010 -0.47 +0.01    -0.063 A  
DOCKED: ATOM     22  C   UNL     1     139.921  69.925 227.206 -0.57 -0.00    +0.002 A  
DOCKED: ATOM     23  C   UNL     1     140.731  71.851 225.974 -0.56 -0.00    +0.002 A  
DOCKED: ATOM     24  C   UNL     1     140.629  70.352 228.334 -0.57 -0.00    +0.000 A  
DOCKED: ATOM     25  C   UNL     1     141.437  72.273 227.106 -0.79 -0.00    +0.000 A  
DOCKED: ATOM     26  C   UNL     1     141.387  71.523 228.284 -0.69 -0.00    +0.000 A  
DOCKED: ENDBRANCH  19  21
DOCKED: ENDBRANCH  18  19
DOCKED: ENDBRANCH  17  18
DOCKED: BRANCH  17  27
DOCKED: ATOM     27  O   UNL     1     138.545  71.896 222.045 -0.03 +0.12    -0.529 OA 
DOCKED: ATOM     28  H   UNL     1     138.375  72.721 221.486 +0.06 -0.07    +0.290 HD 
DOCKED: ENDBRANCH  17  27
DOCKED: ENDBRANCH   1  17
DOCKED: TORSDOF 9
DOCKED: TER
DOCKED: ENDMDL
________________________________________________________________________________


    FINAL DOCKED STATE:
    ________________________


Run:   10 / 20
Time taken for this run:   0.047s

DOCKED: MODEL        10
DOCKED: USER    Run = 10
DOCKED: USER
DOCKED: USER    Estimated Free Energy of Binding    =  -7.07 kcal/mol  [=(1)+(2)+(3)-(4)]
DOCKED: USER
DOCKED: USER    (1) Final Intermolecular Energy     =  -9.75 kcal/mol
DOCKED: USER        vdW + Hbond + desolv Energy     =  -9.84 kcal/mol
DOCKED: USER        Electrostatic Energy            =  +0.08 kcal/mol
DOCKED: USER        Moving Ligand-Fixed Receptor    =  -9.75 kcal/mol
DOCKED: USER        Moving Ligand-Moving Receptor   =  +0.00 kcal/mol
DOCKED: USER    (2) Final Total Internal Energy     =  -2.31 kcal/mol
DOCKED: USER    (3) Torsional Free Energy           =  +2.68 kcal/mol
DOCKED: USER    (4) Unbound System's Energy         =  -2.31 kcal/mol
DOCKED: USER
DOCKED: USER
DOCKED: REMARK SMILES C[C@H]([N-]/C(O)=C/N=C(\O)c1ccc2cc(F)ccc2n1)c1ccccc1
DOCKED: REMARK SMILES IDX 6 1 7 2 8 3 9 4 10 6 20 7 11 8 19 9 12 10 18 11 13 12 17 13
DOCKED: REMARK SMILES IDX 14 14 15 15 16 16 4 17 3 18 2 19 1 20 21 21 22 22 26 23
DOCKED: REMARK SMILES IDX 23 24 25 25 24 26 5 27
DOCKED: REMARK H PARENT 9 5 5 28
DOCKED: USER                              x       y       z     vdW  Elec       q    Type
DOCKED: USER                           _______ _______ _______ _____ _____    ______ ____
DOCKED: ROOT
DOCKED: ATOM      1  C   UNL     1     140.604  72.659 222.723 -0.12 -0.00    +0.136 C  
DOCKED: ENDROOT
DOCKED: BRANCH   1   2
DOCKED: ATOM      2  N   UNL     1     140.473  73.765 221.822 -0.65 +0.02    -0.218 NA 
DOCKED: BRANCH   2   3
DOCKED: ATOM      3  C   UNL     1     139.710  74.813 221.964 -0.18 -0.04    +0.237 C  
DOCKED: BRANCH   3   4
DOCKED: ATOM      4  O   UNL     1     138.336  74.710 222.206 -0.12 +0.16    -0.492 OA 
DOCKED: ATOM      5  H   UNL     1     137.922  74.094 222.889 -0.47 -0.18    +0.295 HD 
DOCKED: ENDBRANCH   3   4
DOCKED: BRANCH   3   6
DOCKED: ATOM      6  C   UNL     1     140.298  76.164 221.865 -0.31 -0.03    +0.126 A  
DOCKED: ATOM      7  N   UNL     1     139.867  77.135 222.717 -0.20 +0.05    -0.243 NA 
DOCKED: ATOM      8  C   UNL     1     141.287  76.471 220.914 -0.28 -0.02    +0.035 A  
DOCKED: ATOM      9  C   UNL     1     140.362  78.401 222.684 -0.38 -0.02    +0.071 A  
DOCKED: ATOM     10  C   UNL     1     141.815  77.763 220.856 -0.31 -0.01    +0.013 A  
DOCKED: ATOM     11  C   UNL     1     139.887  79.366 223.579 -0.42 -0.01    +0.032 A  
DOCKED: ATOM     12  C   UNL     1     141.356  78.744 221.742 -0.39 -0.00    +0.003 A  
DOCKED: ATOM     13  C   UNL     1     140.397  80.668 223.540 -0.42 -0.01    +0.041 A  
DOCKED: ATOM     14  C   UNL     1     141.863  80.051 221.709 -0.42 -0.02    +0.049 A  
DOCKED: ATOM     15  C   UNL     1     141.382  81.010 222.607 -0.40 -0.03    +0.123 A  
DOCKED: ATOM     16  F   UNL     1     141.872  82.274 222.574 -0.10 +0.02    -0.207 F  
DOCKED: ENDBRANCH   3   6
DOCKED: ENDBRANCH   2   3
DOCKED: ENDBRANCH   1   2
DOCKED: BRANCH   1  17
DOCKED: ATOM     17  C   UNL     1     139.619  71.771 222.832 -0.31 -0.01    +0.029 C  
DOCKED: BRANCH  17  18
DOCKED: ATOM     18  N   UNL     1     139.872  70.526 223.498 +0.03 +0.11    -0.647 NA 
DOCKED: BRANCH  18  19
DOCKED: ATOM     19  C   UNL     1     139.208  70.080 224.722 -0.35 +0.01    -0.079 C  
DOCKED: ATOM     20  C   UNL     1     139.166  68.554 224.747 -0.39 +0.00    -0.008 C  
DOCKED: BRANCH  19  21
DOCKED: ATOM     21  C   UNL     1     139.929  70.604 225.944 -0.46 +0.01    -0.063 A  
DOCKED: ATOM     22  C   UNL     1     140.703  71.778 225.877 -0.56 -0.00    +0.002 A  
DOCKED: ATOM     23  C   UNL     1     139.870  69.894 227.156 -0.56 -0.00    +0.002 A  
DOCKED: ATOM     24  C   UNL     1     141.383  72.242 227.007 -0.77 -0.00    +0.000 A  
DOCKED: ATOM     25  C   UNL     1     140.552  70.362 228.283 -0.59 -0.00    +0.000 A  
DOCKED: ATOM     26  C   UNL     1     141.306  71.536 228.209 -0.72 -0.00    +0.000 A  
DOCKED: ENDBRANCH  19  21
DOCKED: ENDBRANCH  18  19
DOCKED: ENDBRANCH  17  18
DOCKED: BRANCH  17  27
DOCKED: ATOM     27  O   UNL     1     138.361  72.067 222.300 -0.04 +0.14    -0.529 OA 
DOCKED: ATOM     28  H   UNL     1     138.197  72.871 221.711 +0.05 -0.07    +0.290 HD 
DOCKED: ENDBRANCH  17  27
DOCKED: ENDBRANCH   1  17
DOCKED: TORSDOF 9
DOCKED: TER
DOCKED: ENDMDL
________________________________________________________________________________


    FINAL DOCKED STATE:
    ________________________


Run:   11 / 20
Time taken for this run:   0.047s

DOCKED: MODEL        11
DOCKED: USER    Run = 11
DOCKED: USER
DOCKED: USER    Estimated Free Energy of Binding    =  -7.44 kcal/mol  [=(1)+(2)+(3)-(4)]
DOCKED: USER
DOCKED: USER    (1) Final Intermolecular Energy     = -10.13 kcal/mol
DOCKED: USER        vdW + Hbond + desolv Energy     = -10.37 kcal/mol
DOCKED: USER        Electrostatic Energy            =  +0.25 kcal/mol
DOCKED: USER        Moving Ligand-Fixed Receptor    = -10.13 kcal/mol
DOCKED: USER        Moving Ligand-Moving Receptor   =  +0.00 kcal/mol
DOCKED: USER    (2) Final Total Internal Energy     =  -1.78 kcal/mol
DOCKED: USER    (3) Torsional Free Energy           =  +2.68 kcal/mol
DOCKED: USER    (4) Unbound System's Energy         =  -1.78 kcal/mol
DOCKED: USER
DOCKED: USER
DOCKED: REMARK SMILES C[C@H]([N-]/C(O)=C/N=C(\O)c1ccc2cc(F)ccc2n1)c1ccccc1
DOCKED: REMARK SMILES IDX 6 1 7 2 8 3 9 4 10 6 20 7 11 8 19 9 12 10 18 11 13 12 17 13
DOCKED: REMARK SMILES IDX 14 14 15 15 16 16 4 17 3 18 2 19 1 20 21 21 22 22 26 23
DOCKED: REMARK SMILES IDX 23 24 25 25 24 26 5 27
DOCKED: REMARK H PARENT 9 5 5 28
DOCKED: USER                              x       y       z     vdW  Elec       q    Type
DOCKED: USER                           _______ _______ _______ _____ _____    ______ ____
DOCKED: ROOT
DOCKED: ATOM      1  C   UNL     1     141.012  74.305 221.508 -0.23 -0.02    +0.136 C  
DOCKED: ENDROOT
DOCKED: BRANCH   1   2
DOCKED: ATOM      2  N   UNL     1     140.863  73.056 222.195 -0.52 +0.00    -0.218 NA 
DOCKED: BRANCH   2   3
DOCKED: ATOM      3  C   UNL     1     139.749  72.474 222.542 -0.19 -0.04    +0.237 C  
DOCKED: BRANCH   3   4
DOCKED: ATOM      4  O   UNL     1     138.535  72.744 221.902 -0.06 +0.13    -0.492 OA 
DOCKED: ATOM      5  H   UNL     1     138.126  73.663 221.819 +0.02 -0.08    +0.295 HD 
DOCKED: ENDBRANCH   3   4
DOCKED: BRANCH   3   6
DOCKED: ATOM      6  C   UNL     1     139.748  71.497 223.649 -0.32 -0.03    +0.126 A  
DOCKED: ATOM      7  N   UNL     1     140.357  71.828 224.821 -0.27 +0.04    -0.243 NA 
DOCKED: ATOM      8  C   UNL     1     139.138  70.236 223.520 -0.27 -0.01    +0.035 A  
DOCKED: ATOM      9  C   UNL     1     140.396  70.978 225.883 -0.53 -0.01    +0.071 A  
DOCKED: ATOM     10  C   UNL     1     139.163  69.343 224.594 -0.36 -0.00    +0.013 A  
DOCKED: ATOM     11  C   UNL     1     141.035  71.362 227.067 -0.71 -0.01    +0.032 A  
DOCKED: ATOM     12  C   UNL     1     139.794  69.705 225.789 -0.46 -0.00    +0.003 A  
DOCKED: ATOM     13  C   UNL     1     141.076  70.485 228.155 -0.57 -0.01    +0.041 A  
DOCKED: ATOM     14  C   UNL     1     139.838  68.831 226.884 -0.55 -0.01    +0.049 A  
DOCKED: ATOM     15  C   UNL     1     140.480  69.223 228.064 -0.53 -0.02    +0.123 A  
DOCKED: ATOM     16  F   UNL     1     140.523  68.377 229.123 -0.15 +0.05    -0.207 F  
DOCKED: ENDBRANCH   3   6
DOCKED: ENDBRANCH   2   3
DOCKED: ENDBRANCH   1   2
DOCKED: BRANCH   1  17
DOCKED: ATOM     17  C   UNL     1     140.438  75.403 221.993 -0.24 -0.00    +0.029 C  
DOCKED: BRANCH  17  18
DOCKED: ATOM     18  N   UNL     1     141.082  76.670 221.801 -0.02 +0.27    -0.647 NA 
DOCKED: BRANCH  18  19
DOCKED: ATOM     19  C   UNL     1     140.388  77.935 221.565 -0.27 +0.03    -0.079 C  
DOCKED: ATOM     20  C   UNL     1     138.920  77.789 221.960 -0.25 +0.00    -0.008 C  
DOCKED: BRANCH  19  21
DOCKED: ATOM     21  C   UNL     1     141.033  79.054 222.352 -0.38 +0.02    -0.063 A  
DOCKED: ATOM     22  C   UNL     1     142.434  79.180 222.411 -0.49 -0.00    +0.002 A  
DOCKED: ATOM     23  C   UNL     1     140.234  79.959 223.073 -0.42 -0.00    +0.002 A  
DOCKED: ATOM     24  C   UNL     1     143.020  80.206 223.160 -0.66 -0.00    +0.000 A  
DOCKED: ATOM     25  C   UNL     1     140.826  80.984 223.820 -0.41 -0.00    +0.000 A  
DOCKED: ATOM     26  C   UNL     1     142.217  81.108 223.861 -0.64 -0.00    +0.000 A  
DOCKED: ENDBRANCH  19  21
DOCKED: ENDBRANCH  18  19
DOCKED: ENDBRANCH  17  18
DOCKED: BRANCH  17  27
DOCKED: ATOM     27  O   UNL     1     139.223  75.302 222.675 -0.38 +0.11    -0.529 OA 
DOCKED: ATOM     28  H   UNL     1     138.902  74.437 223.087 -0.49 -0.15    +0.290 HD 
DOCKED: ENDBRANCH  17  27
DOCKED: ENDBRANCH   1  17
DOCKED: TORSDOF 9
DOCKED: TER
DOCKED: ENDMDL
________________________________________________________________________________


    FINAL DOCKED STATE:
    ________________________


Run:   12 / 20
Time taken for this run:   0.047s

DOCKED: MODEL        12
DOCKED: USER    Run = 12
DOCKED: USER
DOCKED: USER    Estimated Free Energy of Binding    =  -7.14 kcal/mol  [=(1)+(2)+(3)-(4)]
DOCKED: USER
DOCKED: USER    (1) Final Intermolecular Energy     =  -9.83 kcal/mol
DOCKED: USER        vdW + Hbond + desolv Energy     = -10.06 kcal/mol
DOCKED: USER        Electrostatic Energy            =  +0.23 kcal/mol
DOCKED: USER        Moving Ligand-Fixed Receptor    =  -9.83 kcal/mol
DOCKED: USER        Moving Ligand-Moving Receptor   =  +0.00 kcal/mol
DOCKED: USER    (2) Final Total Internal Energy     =  -1.96 kcal/mol
DOCKED: USER    (3) Torsional Free Energy           =  +2.68 kcal/mol
DOCKED: USER    (4) Unbound System's Energy         =  -1.96 kcal/mol
DOCKED: USER
DOCKED: USER
DOCKED: REMARK SMILES C[C@H]([N-]/C(O)=C/N=C(\O)c1ccc2cc(F)ccc2n1)c1ccccc1
DOCKED: REMARK SMILES IDX 6 1 7 2 8 3 9 4 10 6 20 7 11 8 19 9 12 10 18 11 13 12 17 13
DOCKED: REMARK SMILES IDX 14 14 15 15 16 16 4 17 3 18 2 19 1 20 21 21 22 22 26 23
DOCKED: REMARK SMILES IDX 23 24 25 25 24 26 5 27
DOCKED: REMARK H PARENT 9 5 5 28
DOCKED: USER                              x       y       z     vdW  Elec       q    Type
DOCKED: USER                           _______ _______ _______ _____ _____    ______ ____
DOCKED: ROOT
DOCKED: ATOM      1  C   UNL     1     141.076  73.594 221.395 -0.23 -0.02    +0.136 C  
DOCKED: ENDROOT
DOCKED: BRANCH   1   2
DOCKED: ATOM      2  N   UNL     1     140.170  72.486 221.471 -0.16 +0.03    -0.218 NA 
DOCKED: BRANCH   2   3
DOCKED: ATOM      3  C   UNL     1     139.244  72.283 222.366 -0.18 -0.05    +0.237 C  
DOCKED: BRANCH   3   4
DOCKED: ATOM      4  O   UNL     1     137.998  72.917 222.309 -0.06 +0.16    -0.492 OA 
DOCKED: ATOM      5  H   UNL     1     137.798  73.819 222.715 -0.46 -0.15    +0.295 HD 
DOCKED: ENDBRANCH   3   4
DOCKED: BRANCH   3   6
DOCKED: ATOM      6  C   UNL     1     139.501  71.359 223.488 -0.30 -0.03    +0.126 A  
DOCKED: ATOM      7  N   UNL     1     140.017  71.856 224.647 -0.19 +0.05    -0.243 NA 
DOCKED: ATOM      8  C   UNL     1     139.231  69.983 223.389 -0.25 -0.01    +0.035 A  
DOCKED: ATOM      9  C   UNL     1     140.280  71.065 225.721 -0.51 -0.01    +0.071 A  
DOCKED: ATOM     10  C   UNL     1     139.492  69.146 224.476 -0.32 -0.00    +0.013 A  
DOCKED: ATOM     11  C   UNL     1     140.810  71.622 226.891 -0.71 -0.01    +0.032 A  
DOCKED: ATOM     12  C   UNL     1     140.020  69.679 225.656 -0.46 -0.00    +0.003 A  
DOCKED: ATOM     13  C   UNL     1     141.083  70.805 227.993 -0.64 -0.01    +0.041 A  
DOCKED: ATOM     14  C   UNL     1     140.295  68.866 226.765 -0.56 -0.01    +0.049 A  
DOCKED: ATOM     15  C   UNL     1     140.826  69.431 227.930 -0.51 -0.02    +0.123 A  
DOCKED: ATOM     16  F   UNL     1     141.093  68.644 229.002 -0.15 +0.05    -0.207 F  
DOCKED: ENDBRANCH   3   6
DOCKED: ENDBRANCH   2   3
DOCKED: ENDBRANCH   1   2
DOCKED: BRANCH   1  17
DOCKED: ATOM     17  C   UNL     1     140.641  74.826 221.648 -0.29 -0.00    +0.029 C  
DOCKED: BRANCH  17  18
DOCKED: ATOM     18  N   UNL     1     141.253  75.933 220.974 -0.01 +0.25    -0.647 NA 
DOCKED: BRANCH  18  19
DOCKED: ATOM     19  C   UNL     1     140.601  77.214 220.704 -0.21 +0.03    -0.079 C  
DOCKED: ATOM     20  C   UNL     1     139.088  77.012 220.661 -0.13 +0.00    -0.008 C  
DOCKED: BRANCH  19  21
DOCKED: ATOM     21  C   UNL     1     140.962  78.232 221.763 -0.33 +0.03    -0.063 A  
DOCKED: ATOM     22  C   UNL     1     142.184  78.929 221.706 -0.37 -0.00    +0.002 A  
DOCKED: ATOM     23  C   UNL     1     140.095  78.462 222.845 -0.39 -0.00    +0.002 A  
DOCKED: ATOM     24  C   UNL     1     142.518  79.853 222.701 -0.61 -0.00    +0.000 A  
DOCKED: ATOM     25  C   UNL     1     140.434  79.387 223.838 -0.49 -0.00    +0.000 A  
DOCKED: ATOM     26  C   UNL     1     141.643  80.083 223.765 -0.59 -0.00    +0.000 A  
DOCKED: ENDBRANCH  19  21
DOCKED: ENDBRANCH  18  19
DOCKED: ENDBRANCH  17  18
DOCKED: BRANCH  17  27
DOCKED: ATOM     27  O   UNL     1     139.601  75.016 222.560 -0.48 +0.06    -0.529 OA 
DOCKED: ATOM     28  H   UNL     1     139.226  74.263 223.122 -0.47 -0.11    +0.290 HD 
DOCKED: ENDBRANCH  17  27
DOCKED: ENDBRANCH   1  17
DOCKED: TORSDOF 9
DOCKED: TER
DOCKED: ENDMDL
________________________________________________________________________________


    FINAL DOCKED STATE:
    ________________________


Run:   13 / 20
Time taken for this run:   0.047s

DOCKED: MODEL        13
DOCKED: USER    Run = 13
DOCKED: USER
DOCKED: USER    Estimated Free Energy of Binding    =  -7.12 kcal/mol  [=(1)+(2)+(3)-(4)]
DOCKED: USER
DOCKED: USER    (1) Final Intermolecular Energy     =  -9.80 kcal/mol
DOCKED: USER        vdW + Hbond + desolv Energy     =  -9.87 kcal/mol
DOCKED: USER        Electrostatic Energy            =  +0.07 kcal/mol
DOCKED: USER        Moving Ligand-Fixed Receptor    =  -9.80 kcal/mol
DOCKED: USER        Moving Ligand-Moving Receptor   =  +0.00 kcal/mol
DOCKED: USER    (2) Final Total Internal Energy     =  -2.29 kcal/mol
DOCKED: USER    (3) Torsional Free Energy           =  +2.68 kcal/mol
DOCKED: USER    (4) Unbound System's Energy         =  -2.29 kcal/mol
DOCKED: USER
DOCKED: USER
DOCKED: REMARK SMILES C[C@H]([N-]/C(O)=C/N=C(\O)c1ccc2cc(F)ccc2n1)c1ccccc1
DOCKED: REMARK SMILES IDX 6 1 7 2 8 3 9 4 10 6 20 7 11 8 19 9 12 10 18 11 13 12 17 13
DOCKED: REMARK SMILES IDX 14 14 15 15 16 16 4 17 3 18 2 19 1 20 21 21 22 22 26 23
DOCKED: REMARK SMILES IDX 23 24 25 25 24 26 5 27
DOCKED: REMARK H PARENT 9 5 5 28
DOCKED: USER                              x       y       z     vdW  Elec       q    Type
DOCKED: USER                           _______ _______ _______ _____ _____    ______ ____
DOCKED: ROOT
DOCKED: ATOM      1  C   UNL     1     140.675  72.638 222.730 -0.12 -0.00    +0.136 C  
DOCKED: ENDROOT
DOCKED: BRANCH   1   2
DOCKED: ATOM      2  N   UNL     1     140.556  73.749 221.832 -0.65 +0.01    -0.218 NA 
DOCKED: BRANCH   2   3
DOCKED: ATOM      3  C   UNL     1     139.774  74.784 221.958 -0.17 -0.03    +0.237 C  
DOCKED: BRANCH   3   4
DOCKED: ATOM      4  O   UNL     1     138.401  74.659 222.198 -0.12 +0.16    -0.492 OA 
DOCKED: ATOM      5  H   UNL     1     138.001  74.117 222.949 -0.48 -0.20    +0.295 HD 
DOCKED: ENDBRANCH   3   4
DOCKED: BRANCH   3   6
DOCKED: ATOM      6  C   UNL     1     140.337  76.144 221.842 -0.31 -0.03    +0.126 A  
DOCKED: ATOM      7  N   UNL     1     139.915  77.109 222.706 -0.20 +0.05    -0.243 NA 
DOCKED: ATOM      8  C   UNL     1     141.294  76.466 220.863 -0.28 -0.02    +0.035 A  
DOCKED: ATOM      9  C   UNL     1     140.389  78.383 222.658 -0.38 -0.02    +0.071 A  
DOCKED: ATOM     10  C   UNL     1     141.800  77.766 220.790 -0.32 -0.01    +0.013 A  
DOCKED: ATOM     11  C   UNL     1     139.924  79.340 223.565 -0.42 -0.01    +0.032 A  
DOCKED: ATOM     12  C   UNL     1     141.351  78.741 221.688 -0.39 -0.00    +0.003 A  
DOCKED: ATOM     13  C   UNL     1     140.411  80.650 223.511 -0.43 -0.01    +0.041 A  
DOCKED: ATOM     14  C   UNL     1     141.836  80.056 221.640 -0.41 -0.02    +0.049 A  
DOCKED: ATOM     15  C   UNL     1     141.365  81.007 222.551 -0.40 -0.03    +0.123 A  
DOCKED: ATOM     16  F   UNL     1     141.833  82.278 222.504 -0.11 +0.03    -0.207 F  
DOCKED: ENDBRANCH   3   6
DOCKED: ENDBRANCH   2   3
DOCKED: ENDBRANCH   1   2
DOCKED: BRANCH   1  17
DOCKED: ATOM     17  C   UNL     1     139.675  71.768 222.847 -0.31 -0.01    +0.029 C  
DOCKED: BRANCH  17  18
DOCKED: ATOM     18  N   UNL     1     139.915  70.513 223.497 +0.04 +0.11    -0.647 NA 
DOCKED: BRANCH  18  19
DOCKED: ATOM     19  C   UNL     1     139.225  70.045 224.698 -0.34 +0.01    -0.079 C  
DOCKED: ATOM     20  C   UNL     1     139.178  68.518 224.693 -0.38 +0.00    -0.008 C  
DOCKED: BRANCH  19  21
DOCKED: ATOM     21  C   UNL     1     139.922  70.542 225.945 -0.46 +0.01    -0.063 A  
DOCKED: ATOM     22  C   UNL     1     139.721  69.907 227.185 -0.54 -0.00    +0.002 A  
DOCKED: ATOM     23  C   UNL     1     140.748  71.677 225.885 -0.59 -0.00    +0.002 A  
DOCKED: ATOM     24  C   UNL     1     140.353  70.389 228.336 -0.59 -0.00    +0.000 A  
DOCKED: ATOM     25  C   UNL     1     141.379  72.154 227.039 -0.78 -0.00    +0.000 A  
DOCKED: ATOM     26  C   UNL     1     141.183  71.509 228.263 -0.75 -0.00    +0.000 A  
DOCKED: ENDBRANCH  19  21
DOCKED: ENDBRANCH  18  19
DOCKED: ENDBRANCH  17  18
DOCKED: BRANCH  17  27
DOCKED: ATOM     27  O   UNL     1     138.415  72.094 222.340 -0.05 +0.14    -0.529 OA 
DOCKED: ATOM     28  H   UNL     1     138.252  72.919 221.780 +0.04 -0.08    +0.290 HD 
DOCKED: ENDBRANCH  17  27
DOCKED: ENDBRANCH   1  17
DOCKED: TORSDOF 9
DOCKED: TER
DOCKED: ENDMDL
________________________________________________________________________________


    FINAL DOCKED STATE:
    ________________________


Run:   14 / 20
Time taken for this run:   0.047s

DOCKED: MODEL        14
DOCKED: USER    Run = 14
DOCKED: USER
DOCKED: USER    Estimated Free Energy of Binding    =  -6.69 kcal/mol  [=(1)+(2)+(3)-(4)]
DOCKED: USER
DOCKED: USER    (1) Final Intermolecular Energy     =  -9.38 kcal/mol
DOCKED: USER        vdW + Hbond + desolv Energy     =  -9.33 kcal/mol
DOCKED: USER        Electrostatic Energy            =  -0.05 kcal/mol
DOCKED: USER        Moving Ligand-Fixed Receptor    =  -9.38 kcal/mol
DOCKED: USER        Moving Ligand-Moving Receptor   =  +0.00 kcal/mol
DOCKED: USER    (2) Final Total Internal Energy     =  -2.38 kcal/mol
DOCKED: USER    (3) Torsional Free Energy           =  +2.68 kcal/mol
DOCKED: USER    (4) Unbound System's Energy         =  -2.38 kcal/mol
DOCKED: USER
DOCKED: USER
DOCKED: REMARK SMILES C[C@H]([N-]/C(O)=C/N=C(\O)c1ccc2cc(F)ccc2n1)c1ccccc1
DOCKED: REMARK SMILES IDX 6 1 7 2 8 3 9 4 10 6 20 7 11 8 19 9 12 10 18 11 13 12 17 13
DOCKED: REMARK SMILES IDX 14 14 15 15 16 16 4 17 3 18 2 19 1 20 21 21 22 22 26 23
DOCKED: REMARK SMILES IDX 23 24 25 25 24 26 5 27
DOCKED: REMARK H PARENT 9 5 5 28
DOCKED: USER                              x       y       z     vdW  Elec       q    Type
DOCKED: USER                           _______ _______ _______ _____ _____    ______ ____
DOCKED: ROOT
DOCKED: ATOM      1  C   UNL     1     136.046  70.864 224.583 -0.05 -0.02    +0.136 C  
DOCKED: ENDROOT
DOCKED: BRANCH   1   2
DOCKED: ATOM      2  N   UNL     1     134.674  71.183 224.845 -0.11 +0.02    -0.218 NA 
DOCKED: BRANCH   2   3
DOCKED: ATOM      3  C   UNL     1     134.046  71.094 225.984 -0.21 -0.01    +0.237 C  
DOCKED: BRANCH   3   4
DOCKED: ATOM      4  O   UNL     1     134.027  69.915 226.737 -0.45 -0.00    -0.492 OA 
DOCKED: ATOM      5  H   UNL     1     134.734  69.196 226.689 +0.16 -0.01    +0.295 HD 
DOCKED: ENDBRANCH   3   4
DOCKED: BRANCH   3   6
DOCKED: ATOM      6  C   UNL     1     133.321  72.266 226.513 -0.32 -0.01    +0.126 A  
DOCKED: ATOM      7  N   UNL     1     133.876  73.503 226.375 -0.70 -0.02    -0.243 NA 
DOCKED: ATOM      8  C   UNL     1     132.077  72.137 227.156 -0.38 -0.01    +0.035 A  
DOCKED: ATOM      9  C   UNL     1     133.265  74.627 226.837 -0.24 +0.01    +0.071 A  
DOCKED: ATOM     10  C   UNL     1     131.426  73.274 227.641 -0.40 -0.00    +0.013 A  
DOCKED: ATOM     11  C   UNL     1     133.875  75.875 226.672 -0.40 -0.00    +0.032 A  
DOCKED: ATOM     12  C   UNL     1     132.016  74.534 227.486 -0.42 -0.00    +0.003 A  
DOCKED: ATOM     13  C   UNL     1     133.246  77.029 227.152 -0.35 -0.00    +0.041 A  
DOCKED: ATOM     14  C   UNL     1     131.391  75.695 227.964 -0.22 +0.00    +0.049 A  
DOCKED: ATOM     15  C   UNL     1     132.008  76.939 227.796 -0.27 +0.00    +0.123 A  
DOCKED: ATOM     16  F   UNL     1     131.404  78.062 228.258 -0.07 -0.03    -0.207 F  
DOCKED: ENDBRANCH   3   6
DOCKED: ENDBRANCH   2   3
DOCKED: ENDBRANCH   1   2
DOCKED: BRANCH   1  17
DOCKED: ATOM     17  C   UNL     1     136.484  69.620 224.760 -0.24 -0.00    +0.029 C  
DOCKED: BRANCH  17  18
DOCKED: ATOM     18  N   UNL     1     137.895  69.364 224.718 +0.03 +0.06    -0.647 NA 
DOCKED: BRANCH  18  19
DOCKED: ATOM     19  C   UNL     1     138.691  68.871 225.840 -0.34 +0.01    -0.079 C  
DOCKED: ATOM     20  C   UNL     1     139.565  67.710 225.370 -0.47 +0.00    -0.008 C  
DOCKED: BRANCH  19  21
DOCKED: ATOM     21  C   UNL     1     139.552  69.975 226.412 -0.41 +0.01    -0.063 A  
DOCKED: ATOM     22  C   UNL     1     139.607  70.202 227.801 -0.54 -0.00    +0.002 A  
DOCKED: ATOM     23  C   UNL     1     140.277  70.820 225.553 -0.55 -0.00    +0.002 A  
DOCKED: ATOM     24  C   UNL     1     140.390  71.239 228.317 -0.69 -0.00    +0.000 A  
DOCKED: ATOM     25  C   UNL     1     141.059  71.856 226.076 -0.63 -0.00    +0.000 A  
DOCKED: ATOM     26  C   UNL     1     141.116  72.064 227.456 -0.83 -0.00    +0.000 A  
DOCKED: ENDBRANCH  19  21
DOCKED: ENDBRANCH  18  19
DOCKED: ENDBRANCH  17  18
DOCKED: BRANCH  17  27
DOCKED: ATOM     27  O   UNL     1     135.567  68.591 224.984 -0.33 -0.03    -0.529 OA 
DOCKED: ATOM     28  H   UNL     1     134.569  68.750 225.016 +0.10 -0.01    +0.290 HD 
DOCKED: ENDBRANCH  17  27
DOCKED: ENDBRANCH   1  17
DOCKED: TORSDOF 9
DOCKED: TER
DOCKED: ENDMDL
________________________________________________________________________________


    FINAL DOCKED STATE:
    ________________________


Run:   15 / 20
Time taken for this run:   0.047s

DOCKED: MODEL        15
DOCKED: USER    Run = 15
DOCKED: USER
DOCKED: USER    Estimated Free Energy of Binding    =  -7.07 kcal/mol  [=(1)+(2)+(3)-(4)]
DOCKED: USER
DOCKED: USER    (1) Final Intermolecular Energy     =  -9.76 kcal/mol
DOCKED: USER        vdW + Hbond + desolv Energy     =  -9.99 kcal/mol
DOCKED: USER        Electrostatic Energy            =  +0.23 kcal/mol
DOCKED: USER        Moving Ligand-Fixed Receptor    =  -9.76 kcal/mol
DOCKED: USER        Moving Ligand-Moving Receptor   =  +0.00 kcal/mol
DOCKED: USER    (2) Final Total Internal Energy     =  -2.18 kcal/mol
DOCKED: USER    (3) Torsional Free Energy           =  +2.68 kcal/mol
DOCKED: USER    (4) Unbound System's Energy         =  -2.18 kcal/mol
DOCKED: USER
DOCKED: USER
DOCKED: REMARK SMILES C[C@H]([N-]/C(O)=C/N=C(\O)c1ccc2cc(F)ccc2n1)c1ccccc1
DOCKED: REMARK SMILES IDX 6 1 7 2 8 3 9 4 10 6 20 7 11 8 19 9 12 10 18 11 13 12 17 13
DOCKED: REMARK SMILES IDX 14 14 15 15 16 16 4 17 3 18 2 19 1 20 21 21 22 22 26 23
DOCKED: REMARK SMILES IDX 23 24 25 25 24 26 5 27
DOCKED: REMARK H PARENT 9 5 5 28
DOCKED: USER                              x       y       z     vdW  Elec       q    Type
DOCKED: USER                           _______ _______ _______ _____ _____    ______ ____
DOCKED: ROOT
DOCKED: ATOM      1  C   UNL     1     140.353  73.139 220.606 -0.13 -0.02    +0.136 C  
DOCKED: ENDROOT
DOCKED: BRANCH   1   2
DOCKED: ATOM      2  N   UNL     1     139.981  71.984 221.369 -0.11 +0.04    -0.218 NA 
DOCKED: BRANCH   2   3
DOCKED: ATOM      3  C   UNL     1     139.126  71.929 222.352 -0.17 -0.05    +0.237 C  
DOCKED: BRANCH   3   4
DOCKED: ATOM      4  O   UNL     1     137.953  72.690 222.365 -0.06 +0.16    -0.492 OA 
DOCKED: ATOM      5  H   UNL     1     137.888  73.633 222.721 -0.46 -0.15    +0.295 HD 
DOCKED: ENDBRANCH   3   4
DOCKED: BRANCH   3   6
DOCKED: ATOM      6  C   UNL     1     139.390  71.042 223.502 -0.28 -0.03    +0.126 A  
DOCKED: ATOM      7  N   UNL     1     139.958  71.567 224.624 -0.27 +0.05    -0.243 NA 
DOCKED: ATOM      8  C   UNL     1     139.074  69.672 223.466 -0.25 -0.01    +0.035 A  
DOCKED: ATOM      9  C   UNL     1     140.230  70.810 225.721 -0.50 -0.01    +0.071 A  
DOCKED: ATOM     10  C   UNL     1     139.342  68.870 224.578 -0.34 -0.00    +0.013 A  
DOCKED: ATOM     11  C   UNL     1     140.814  71.394 226.850 -0.69 -0.01    +0.032 A  
DOCKED: ATOM     12  C   UNL     1     139.925  69.432 225.719 -0.47 -0.00    +0.003 A  
DOCKED: ATOM     13  C   UNL     1     141.096  70.612 227.975 -0.61 -0.01    +0.041 A  
DOCKED: ATOM     14  C   UNL     1     140.210  68.654 226.851 -0.58 -0.01    +0.049 A  
DOCKED: ATOM     15  C   UNL     1     140.795  69.246 227.975 -0.52 -0.03    +0.123 A  
DOCKED: ATOM     16  F   UNL     1     141.071  68.494 229.069 -0.16 +0.05    -0.207 F  
DOCKED: ENDBRANCH   3   6
DOCKED: ENDBRANCH   2   3
DOCKED: ENDBRANCH   1   2
DOCKED: BRANCH   1  17
DOCKED: ATOM     17  C   UNL     1     140.522  74.310 221.214 -0.28 -0.00    +0.029 C  
DOCKED: BRANCH  17  18
DOCKED: ATOM     18  N   UNL     1     141.447  75.256 220.660 -0.00 +0.21    -0.647 NA 
DOCKED: BRANCH  18  19
DOCKED: ATOM     19  C   UNL     1     142.357  74.986 219.548 -0.22 +0.03    -0.079 C  
DOCKED: ATOM     20  C   UNL     1     142.799  76.308 218.924 -0.32 +0.00    -0.008 C  
DOCKED: BRANCH  19  21
DOCKED: ATOM     21  C   UNL     1     143.561  74.202 220.020 -0.33 +0.02    -0.063 A  
DOCKED: ATOM     22  C   UNL     1     144.736  74.862 220.429 -0.37 -0.00    +0.002 A  
DOCKED: ATOM     23  C   UNL     1     143.534  72.797 220.014 -0.28 -0.00    +0.002 A  
DOCKED: ATOM     24  C   UNL     1     145.851  74.126 220.843 -0.64 -0.00    +0.000 A  
DOCKED: ATOM     25  C   UNL     1     144.652  72.066 220.429 -0.34 -0.00    +0.000 A  
DOCKED: ATOM     26  C   UNL     1     145.809  72.731 220.845 -0.55 -0.00    +0.000 A  
DOCKED: ENDBRANCH  19  21
DOCKED: ENDBRANCH  18  19
DOCKED: ENDBRANCH  17  18
DOCKED: BRANCH  17  27
DOCKED: ATOM     27  O   UNL     1     139.798  74.596 222.374 -0.61 +0.03    -0.529 OA 
DOCKED: ATOM     28  H   UNL     1     139.577  73.892 223.064 -0.43 -0.04    +0.290 HD 
DOCKED: ENDBRANCH  17  27
DOCKED: ENDBRANCH   1  17
DOCKED: TORSDOF 9
DOCKED: TER
DOCKED: ENDMDL
________________________________________________________________________________


    FINAL DOCKED STATE:
    ________________________


Run:   16 / 20
Time taken for this run:   0.047s

DOCKED: MODEL        16
DOCKED: USER    Run = 16
DOCKED: USER
DOCKED: USER    Estimated Free Energy of Binding    =  -6.69 kcal/mol  [=(1)+(2)+(3)-(4)]
DOCKED: USER
DOCKED: USER    (1) Final Intermolecular Energy     =  -9.37 kcal/mol
DOCKED: USER        vdW + Hbond + desolv Energy     =  -9.35 kcal/mol
DOCKED: USER        Electrostatic Energy            =  -0.02 kcal/mol
DOCKED: USER        Moving Ligand-Fixed Receptor    =  -9.37 kcal/mol
DOCKED: USER        Moving Ligand-Moving Receptor   =  +0.00 kcal/mol
DOCKED: USER    (2) Final Total Internal Energy     =  -2.34 kcal/mol
DOCKED: USER    (3) Torsional Free Energy           =  +2.68 kcal/mol
DOCKED: USER    (4) Unbound System's Energy         =  -2.34 kcal/mol
DOCKED: USER
DOCKED: USER
DOCKED: REMARK SMILES C[C@H]([N-]/C(O)=C/N=C(\O)c1ccc2cc(F)ccc2n1)c1ccccc1
DOCKED: REMARK SMILES IDX 6 1 7 2 8 3 9 4 10 6 20 7 11 8 19 9 12 10 18 11 13 12 17 13
DOCKED: REMARK SMILES IDX 14 14 15 15 16 16 4 17 3 18 2 19 1 20 21 21 22 22 26 23
DOCKED: REMARK SMILES IDX 23 24 25 25 24 26 5 27
DOCKED: REMARK H PARENT 9 5 5 28
DOCKED: USER                              x       y       z     vdW  Elec       q    Type
DOCKED: USER                           _______ _______ _______ _____ _____    ______ ____
DOCKED: ROOT
DOCKED: ATOM      1  C   UNL     1     136.000  70.807 224.300 -0.14 -0.02    +0.136 C  
DOCKED: ENDROOT
DOCKED: BRANCH   1   2
DOCKED: ATOM      2  N   UNL     1     134.623  71.085 224.585 -0.09 +0.02    -0.218 NA 
DOCKED: BRANCH   2   3
DOCKED: ATOM      3  C   UNL     1     134.025  71.010 225.741 -0.19 -0.02    +0.237 C  
DOCKED: BRANCH   3   4
DOCKED: ATOM      4  O   UNL     1     133.963  69.820 226.474 -0.48 +0.00    -0.492 OA 
DOCKED: ATOM      5  H   UNL     1     134.753  69.218 226.652 +0.15 -0.01    +0.295 HD 
DOCKED: ENDBRANCH   3   4
DOCKED: BRANCH   3   6
DOCKED: ATOM      6  C   UNL     1     133.381  72.211 226.311 -0.30 -0.01    +0.126 A  
DOCKED: ATOM      7  N   UNL     1     133.958  73.428 226.107 -0.58 -0.01    -0.243 NA 
DOCKED: ATOM      8  C   UNL     1     132.193  72.127 227.058 -0.37 -0.01    +0.035 A  
DOCKED: ATOM      9  C   UNL     1     133.422  74.576 226.601 -0.22 +0.01    +0.071 A  
DOCKED: ATOM     10  C   UNL     1     131.620  73.289 227.579 -0.42 -0.00    +0.013 A  
DOCKED: ATOM     11  C   UNL     1     134.051  75.803 226.366 -0.40 -0.00    +0.032 A  
DOCKED: ATOM     12  C   UNL     1     132.230  74.529 227.356 -0.42 -0.00    +0.003 A  
DOCKED: ATOM     13  C   UNL     1     133.499  76.981 226.879 -0.33 -0.00    +0.041 A  
DOCKED: ATOM     14  C   UNL     1     131.681  75.714 227.867 -0.33 +0.00    +0.049 A  
DOCKED: ATOM     15  C   UNL     1     132.317  76.937 227.628 -0.28 +0.00    +0.123 A  
DOCKED: ATOM     16  F   UNL     1     131.788  78.083 228.122 -0.06 -0.02    -0.207 F  
DOCKED: ENDBRANCH   3   6
DOCKED: ENDBRANCH   2   3
DOCKED: ENDBRANCH   1   2
DOCKED: BRANCH   1  17
DOCKED: ATOM     17  C   UNL     1     136.527  69.637 224.649 -0.24 -0.00    +0.029 C  
DOCKED: BRANCH  17  18
DOCKED: ATOM     18  N   UNL     1     137.954  69.497 224.687 +0.03 +0.07    -0.647 NA 
DOCKED: BRANCH  18  19
DOCKED: ATOM     19  C   UNL     1     138.715  68.964 225.816 -0.36 +0.01    -0.079 C  
DOCKED: ATOM     20  C   UNL     1     139.545  67.772 225.348 -0.48 +0.00    -0.008 C  
DOCKED: BRANCH  19  21
DOCKED: ATOM     21  C   UNL     1     139.613  70.028 226.406 -0.42 +0.01    -0.063 A  
DOCKED: ATOM     22  C   UNL     1     140.310  70.926 225.574 -0.56 -0.00    +0.002 A  
DOCKED: ATOM     23  C   UNL     1     139.797  70.104 227.797 -0.60 -0.00    +0.002 A  
DOCKED: ATOM     24  C   UNL     1     141.155  71.892 226.129 -0.63 -0.00    +0.000 A  
DOCKED: ATOM     25  C   UNL     1     140.643  71.073 228.347 -0.66 -0.00    +0.000 A  
DOCKED: ATOM     26  C   UNL     1     141.320  71.967 227.513 -0.80 -0.00    +0.000 A  
DOCKED: ENDBRANCH  19  21
DOCKED: ENDBRANCH  18  19
DOCKED: ENDBRANCH  17  18
DOCKED: BRANCH  17  27
DOCKED: ATOM     27  O   UNL     1     135.685  68.570 224.975 -0.28 -0.03    -0.529 OA 
DOCKED: ATOM     28  H   UNL     1     134.678  68.656 224.979 +0.10 -0.01    +0.290 HD 
DOCKED: ENDBRANCH  17  27
DOCKED: ENDBRANCH   1  17
DOCKED: TORSDOF 9
DOCKED: TER
DOCKED: ENDMDL
________________________________________________________________________________


    FINAL DOCKED STATE:
    ________________________


Run:   17 / 20
Time taken for this run:   0.047s

DOCKED: MODEL        17
DOCKED: USER    Run = 17
DOCKED: USER
DOCKED: USER    Estimated Free Energy of Binding    =  -7.05 kcal/mol  [=(1)+(2)+(3)-(4)]
DOCKED: USER
DOCKED: USER    (1) Final Intermolecular Energy     =  -9.73 kcal/mol
DOCKED: USER        vdW + Hbond + desolv Energy     =  -9.84 kcal/mol
DOCKED: USER        Electrostatic Energy            =  +0.11 kcal/mol
DOCKED: USER        Moving Ligand-Fixed Receptor    =  -9.73 kcal/mol
DOCKED: USER        Moving Ligand-Moving Receptor   =  +0.00 kcal/mol
DOCKED: USER    (2) Final Total Internal Energy     =  -2.21 kcal/mol
DOCKED: USER    (3) Torsional Free Energy           =  +2.68 kcal/mol
DOCKED: USER    (4) Unbound System's Energy         =  -2.21 kcal/mol
DOCKED: USER
DOCKED: USER
DOCKED: REMARK SMILES C[C@H]([N-]/C(O)=C/N=C(\O)c1ccc2cc(F)ccc2n1)c1ccccc1
DOCKED: REMARK SMILES IDX 6 1 7 2 8 3 9 4 10 6 20 7 11 8 19 9 12 10 18 11 13 12 17 13
DOCKED: REMARK SMILES IDX 14 14 15 15 16 16 4 17 3 18 2 19 1 20 21 21 22 22 26 23
DOCKED: REMARK SMILES IDX 23 24 25 25 24 26 5 27
DOCKED: REMARK H PARENT 9 5 5 28
DOCKED: USER                              x       y       z     vdW  Elec       q    Type
DOCKED: USER                           _______ _______ _______ _____ _____    ______ ____
DOCKED: ROOT
DOCKED: ATOM      1  C   UNL     1     140.802  73.442 221.947 -0.18 -0.01    +0.136 C  
DOCKED: ENDROOT
DOCKED: BRANCH   1   2
DOCKED: ATOM      2  N   UNL     1     140.319  74.721 221.518 -0.45 +0.03    -0.218 NA 
DOCKED: BRANCH   2   3
DOCKED: ATOM      3  C   UNL     1     139.367  75.427 222.060 -0.21 -0.05    +0.237 C  
DOCKED: BRANCH   3   4
DOCKED: ATOM      4  O   UNL     1     138.083  74.914 222.272 -0.10 +0.16    -0.492 OA 
DOCKED: ATOM      5  H   UNL     1     137.878  74.116 222.856 -0.47 -0.17    +0.295 HD 
DOCKED: ENDBRANCH   3   4
DOCKED: BRANCH   3   6
DOCKED: ATOM      6  C   UNL     1     139.632  76.822 222.467 -0.26 -0.03    +0.126 A  
DOCKED: ATOM      7  N   UNL     1     140.923  77.242 222.581 -0.27 +0.09    -0.243 NA 
DOCKED: ATOM      8  C   UNL     1     138.587  77.723 222.741 -0.28 -0.01    +0.035 A  
DOCKED: ATOM      9  C   UNL     1     141.242  78.511 222.951 -0.48 -0.02    +0.071 A  
DOCKED: ATOM     10  C   UNL     1     138.885  79.032 223.124 -0.33 -0.00    +0.013 A  
DOCKED: ATOM     11  C   UNL     1     142.583  78.896 223.055 -0.28 -0.02    +0.032 A  
DOCKED: ATOM     12  C   UNL     1     140.219  79.441 223.233 -0.44 -0.00    +0.003 A  
DOCKED: ATOM     13  C   UNL     1     142.909  80.201 223.439 -0.63 -0.01    +0.041 A  
DOCKED: ATOM     14  C   UNL     1     140.552  80.748 223.617 -0.41 -0.01    +0.049 A  
DOCKED: ATOM     15  C   UNL     1     141.896  81.125 223.720 -0.51 -0.02    +0.123 A  
DOCKED: ATOM     16  F   UNL     1     142.218  82.388 224.091 +0.04 +0.00    -0.207 F  
DOCKED: ENDBRANCH   3   6
DOCKED: ENDBRANCH   2   3
DOCKED: ENDBRANCH   1   2
DOCKED: BRANCH   1  17
DOCKED: ATOM     17  C   UNL     1     139.948  72.525 222.394 -0.30 -0.00    +0.029 C  
DOCKED: BRANCH  17  18
DOCKED: ATOM     18  N   UNL     1     140.347  71.664 223.469 -0.05 +0.09    -0.647 NA 
DOCKED: BRANCH  18  19
DOCKED: ATOM     19  C   UNL     1     139.431  70.915 224.328 -0.36 +0.02    -0.079 C  
DOCKED: ATOM     20  C   UNL     1     139.182  69.536 223.721 -0.29 +0.00    -0.008 C  
DOCKED: BRANCH  19  21
DOCKED: ATOM     21  C   UNL     1     139.996  70.778 225.724 -0.48 +0.01    -0.063 A  
DOCKED: ATOM     22  C   UNL     1     140.656  71.856 226.344 -0.60 -0.00    +0.002 A  
DOCKED: ATOM     23  C   UNL     1     139.906  69.551 226.403 -0.51 -0.00    +0.002 A  
DOCKED: ATOM     24  C   UNL     1     141.194  71.712 227.626 -0.79 -0.00    +0.000 A  
DOCKED: ATOM     25  C   UNL     1     140.445  69.412 227.687 -0.63 -0.00    +0.000 A  
DOCKED: ATOM     26  C   UNL     1     141.087  70.493 228.298 -0.58 -0.00    +0.000 A  
DOCKED: ENDBRANCH  19  21
DOCKED: ENDBRANCH  18  19
DOCKED: ENDBRANCH  17  18
DOCKED: BRANCH  17  27
DOCKED: ATOM     27  O   UNL     1     138.683  72.419 221.811 -0.04 +0.12    -0.529 OA 
DOCKED: ATOM     28  H   UNL     1     138.282  73.155 221.247 +0.06 -0.07    +0.290 HD 
DOCKED: ENDBRANCH  17  27
DOCKED: ENDBRANCH   1  17
DOCKED: TORSDOF 9
DOCKED: TER
DOCKED: ENDMDL
________________________________________________________________________________


    FINAL DOCKED STATE:
    ________________________


Run:   18 / 20
Time taken for this run:   0.047s

DOCKED: MODEL        18
DOCKED: USER    Run = 18
DOCKED: USER
DOCKED: USER    Estimated Free Energy of Binding    =  -6.86 kcal/mol  [=(1)+(2)+(3)-(4)]
DOCKED: USER
DOCKED: USER    (1) Final Intermolecular Energy     =  -9.54 kcal/mol
DOCKED: USER        vdW + Hbond + desolv Energy     =  -9.66 kcal/mol
DOCKED: USER        Electrostatic Energy            =  +0.12 kcal/mol
DOCKED: USER        Moving Ligand-Fixed Receptor    =  -9.54 kcal/mol
DOCKED: USER        Moving Ligand-Moving Receptor   =  +0.00 kcal/mol
DOCKED: USER    (2) Final Total Internal Energy     =  -2.03 kcal/mol
DOCKED: USER    (3) Torsional Free Energy           =  +2.68 kcal/mol
DOCKED: USER    (4) Unbound System's Energy         =  -2.03 kcal/mol
DOCKED: USER
DOCKED: USER
DOCKED: REMARK SMILES C[C@H]([N-]/C(O)=C/N=C(\O)c1ccc2cc(F)ccc2n1)c1ccccc1
DOCKED: REMARK SMILES IDX 6 1 7 2 8 3 9 4 10 6 20 7 11 8 19 9 12 10 18 11 13 12 17 13
DOCKED: REMARK SMILES IDX 14 14 15 15 16 16 4 17 3 18 2 19 1 20 21 21 22 22 26 23
DOCKED: REMARK SMILES IDX 23 24 25 25 24 26 5 27
DOCKED: REMARK H PARENT 9 5 5 28
DOCKED: USER                              x       y       z     vdW  Elec       q    Type
DOCKED: USER                           _______ _______ _______ _____ _____    ______ ____
DOCKED: ROOT
DOCKED: ATOM      1  C   UNL     1     140.709  72.109 222.384 -0.25 -0.01    +0.136 C  
DOCKED: ENDROOT
DOCKED: BRANCH   1   2
DOCKED: ATOM      2  N   UNL     1     140.703  73.502 222.045 -0.67 +0.00    -0.218 NA 
DOCKED: BRANCH   2   3
DOCKED: ATOM      3  C   UNL     1     139.689  74.209 221.630 -0.19 -0.04    +0.237 C  
DOCKED: BRANCH   3   4
DOCKED: ATOM      4  O   UNL     1     138.710  73.684 220.780 -0.02 +0.10    -0.492 OA 
DOCKED: ATOM      5  H   UNL     1     138.205  72.827 220.953 +0.05 -0.06    +0.295 HD 
DOCKED: ENDBRANCH   3   4
DOCKED: BRANCH   3   6
DOCKED: ATOM      6  C   UNL     1     139.555  75.616 222.057 -0.28 -0.02    +0.126 A  
DOCKED: ATOM      7  N   UNL     1     140.682  76.359 222.242 -0.30 +0.07    -0.243 NA 
DOCKED: ATOM      8  C   UNL     1     138.297  76.204 222.279 -0.28 -0.01    +0.035 A  
DOCKED: ATOM      9  C   UNL     1     140.635  77.660 222.635 -0.39 -0.02    +0.071 A  
DOCKED: ATOM     10  C   UNL     1     138.219  77.539 222.683 -0.28 -0.00    +0.013 A  
DOCKED: ATOM     11  C   UNL     1     141.820  78.383 222.814 -0.38 -0.02    +0.032 A  
DOCKED: ATOM     12  C   UNL     1     139.390  78.282 222.866 -0.32 -0.00    +0.003 A  
DOCKED: ATOM     13  C   UNL     1     141.769  79.720 223.221 -0.56 -0.01    +0.041 A  
DOCKED: ATOM     14  C   UNL     1     139.345  79.624 223.274 -0.36 -0.01    +0.049 A  
DOCKED: ATOM     15  C   UNL     1     140.535  80.339 223.451 -0.39 -0.02    +0.123 A  
DOCKED: ATOM     16  F   UNL     1     140.492  81.635 223.845 +0.07 +0.01    -0.207 F  
DOCKED: ENDBRANCH   3   6
DOCKED: ENDBRANCH   2   3
DOCKED: ENDBRANCH   1   2
DOCKED: BRANCH   1  17
DOCKED: ATOM     17  C   UNL     1     139.640  71.560 222.955 -0.31 -0.01    +0.029 C  
DOCKED: BRANCH  17  18
DOCKED: ATOM     18  N   UNL     1     139.784  70.316 223.653 +0.05 +0.11    -0.647 NA 
DOCKED: BRANCH  18  19
DOCKED: ATOM     19  C   UNL     1     139.125  69.981 224.915 -0.35 +0.01    -0.079 C  
DOCKED: ATOM     20  C   UNL     1     138.974  68.465 225.020 -0.41 +0.00    -0.008 C  
DOCKED: BRANCH  19  21
DOCKED: ATOM     21  C   UNL     1     139.918  70.511 226.089 -0.46 +0.01    -0.063 A  
DOCKED: ATOM     22  C   UNL     1     140.584  71.749 226.010 -0.54 -0.00    +0.002 A  
DOCKED: ATOM     23  C   UNL     1     140.033  69.747 227.263 -0.58 -0.00    +0.002 A  
DOCKED: ATOM     24  C   UNL     1     141.331  72.219 227.094 -0.79 -0.00    +0.000 A  
DOCKED: ATOM     25  C   UNL     1     140.783  70.222 228.345 -0.57 -0.00    +0.000 A  
DOCKED: ATOM     26  C   UNL     1     141.429  71.458 228.261 -0.66 -0.00    +0.000 A  
DOCKED: ENDBRANCH  19  21
DOCKED: ENDBRANCH  18  19
DOCKED: ENDBRANCH  17  18
DOCKED: BRANCH  17  27
DOCKED: ATOM     27  O   UNL     1     138.403  72.204 222.867 -0.04 +0.18    -0.529 OA 
DOCKED: ATOM     28  H   UNL     1     138.315  73.211 222.859 -0.42 -0.15    +0.290 HD 
DOCKED: ENDBRANCH  17  27
DOCKED: ENDBRANCH   1  17
DOCKED: TORSDOF 9
DOCKED: TER
DOCKED: ENDMDL
________________________________________________________________________________


    FINAL DOCKED STATE:
    ________________________


Run:   19 / 20
Time taken for this run:   0.047s

DOCKED: MODEL        19
DOCKED: USER    Run = 19
DOCKED: USER
DOCKED: USER    Estimated Free Energy of Binding    =  -7.28 kcal/mol  [=(1)+(2)+(3)-(4)]
DOCKED: USER
DOCKED: USER    (1) Final Intermolecular Energy     =  -9.96 kcal/mol
DOCKED: USER        vdW + Hbond + desolv Energy     = -10.02 kcal/mol
DOCKED: USER        Electrostatic Energy            =  +0.06 kcal/mol
DOCKED: USER        Moving Ligand-Fixed Receptor    =  -9.96 kcal/mol
DOCKED: USER        Moving Ligand-Moving Receptor   =  +0.00 kcal/mol
DOCKED: USER    (2) Final Total Internal Energy     =  -2.04 kcal/mol
DOCKED: USER    (3) Torsional Free Energy           =  +2.68 kcal/mol
DOCKED: USER    (4) Unbound System's Energy         =  -2.04 kcal/mol
DOCKED: USER
DOCKED: USER
DOCKED: REMARK SMILES C[C@H]([N-]/C(O)=C/N=C(\O)c1ccc2cc(F)ccc2n1)c1ccccc1
DOCKED: REMARK SMILES IDX 6 1 7 2 8 3 9 4 10 6 20 7 11 8 19 9 12 10 18 11 13 12 17 13
DOCKED: REMARK SMILES IDX 14 14 15 15 16 16 4 17 3 18 2 19 1 20 21 21 22 22 26 23
DOCKED: REMARK SMILES IDX 23 24 25 25 24 26 5 27
DOCKED: REMARK H PARENT 9 5 5 28
DOCKED: USER                              x       y       z     vdW  Elec       q    Type
DOCKED: USER                           _______ _______ _______ _____ _____    ______ ____
DOCKED: ROOT
DOCKED: ATOM      1  C   UNL     1     141.388  72.467 221.661 -0.18 -0.01    +0.136 C  
DOCKED: ENDROOT
DOCKED: BRANCH   1   2
DOCKED: ATOM      2  N   UNL     1     141.370  73.854 221.301 -0.26 +0.03    -0.218 NA 
DOCKED: BRANCH   2   3
DOCKED: ATOM      3  C   UNL     1     140.565  74.776 221.751 -0.14 -0.03    +0.237 C  
DOCKED: BRANCH   3   4
DOCKED: ATOM      4  O   UNL     1     139.332  74.470 222.336 -0.60 +0.09    -0.492 OA 
DOCKED: ATOM      5  H   UNL     1     139.171  73.684 222.948 -0.45 -0.12    +0.295 HD 
DOCKED: ENDBRANCH   3   4
DOCKED: BRANCH   3   6
DOCKED: ATOM      6  C   UNL     1     140.949  76.198 221.644 -0.30 -0.04    +0.126 A  
DOCKED: ATOM      7  N   UNL     1     140.798  77.006 222.730 -0.26 +0.08    -0.243 NA 
DOCKED: ATOM      8  C   UNL     1     141.463  76.736 220.450 -0.27 -0.02    +0.035 A  
DOCKED: ATOM      9  C   UNL     1     141.130  78.324 222.704 -0.45 -0.03    +0.071 A  
DOCKED: ATOM     10  C   UNL     1     141.812  78.087 220.394 -0.31 -0.01    +0.013 A  
DOCKED: ATOM     11  C   UNL     1     140.956  79.114 223.846 -0.51 -0.01    +0.032 A  
DOCKED: ATOM     12  C   UNL     1     141.649  78.897 221.524 -0.40 -0.00    +0.003 A  
DOCKED: ATOM     13  C   UNL     1     141.296  80.471 223.815 -0.49 -0.01    +0.041 A  
DOCKED: ATOM     14  C   UNL     1     141.988  80.258 221.500 -0.40 -0.02    +0.049 A  
DOCKED: ATOM     15  C   UNL     1     141.810  81.041 222.645 -0.45 -0.03    +0.123 A  
DOCKED: ATOM     16  F   UNL     1     142.137  82.357 222.623 +0.04 +0.02    -0.207 F  
DOCKED: ENDBRANCH   3   6
DOCKED: ENDBRANCH   2   3
DOCKED: ENDBRANCH   1   2
DOCKED: BRANCH   1  17
DOCKED: ATOM     17  C   UNL     1     140.345  71.930 222.288 -0.30 -0.00    +0.029 C  
DOCKED: BRANCH  17  18
DOCKED: ATOM     18  N   UNL     1     140.532  71.358 223.590 -0.01 +0.08    -0.647 NA 
DOCKED: BRANCH  18  19
DOCKED: ATOM     19  C   UNL     1     139.454  70.968 224.497 -0.37 +0.02    -0.079 C  
DOCKED: ATOM     20  C   UNL     1     138.662  69.820 223.877 -0.30 +0.00    -0.008 C  
DOCKED: BRANCH  19  21
DOCKED: ATOM     21  C   UNL     1     140.009  70.555 225.842 -0.47 +0.01    -0.063 A  
DOCKED: ATOM     22  C   UNL     1     140.524  71.514 226.735 -0.67 -0.00    +0.002 A  
DOCKED: ATOM     23  C   UNL     1     140.056  69.196 226.198 -0.52 -0.00    +0.002 A  
DOCKED: ATOM     24  C   UNL     1     141.054  71.119 227.967 -0.75 -0.00    +0.000 A  
DOCKED: ATOM     25  C   UNL     1     140.587  68.806 227.432 -0.65 -0.00    +0.000 A  
DOCKED: ATOM     26  C   UNL     1     141.084  69.767 228.316 -0.57 -0.00    +0.000 A  
DOCKED: ENDBRANCH  19  21
DOCKED: ENDBRANCH  18  19
DOCKED: ENDBRANCH  17  18
DOCKED: BRANCH  17  27
DOCKED: ATOM     27  O   UNL     1     139.092  71.935 221.671 -0.03 +0.10    -0.529 OA 
DOCKED: ATOM     28  H   UNL     1     138.729  72.744 221.186 +0.06 -0.06    +0.290 HD 
DOCKED: ENDBRANCH  17  27
DOCKED: ENDBRANCH   1  17
DOCKED: TORSDOF 9
DOCKED: TER
DOCKED: ENDMDL
________________________________________________________________________________


    FINAL DOCKED STATE:
    ________________________


Run:   20 / 20
Time taken for this run:   0.047s

DOCKED: MODEL        20
DOCKED: USER    Run = 20
DOCKED: USER
DOCKED: USER    Estimated Free Energy of Binding    =  -7.48 kcal/mol  [=(1)+(2)+(3)-(4)]
DOCKED: USER
DOCKED: USER    (1) Final Intermolecular Energy     = -10.17 kcal/mol
DOCKED: USER        vdW + Hbond + desolv Energy     = -10.38 kcal/mol
DOCKED: USER        Electrostatic Energy            =  +0.22 kcal/mol
DOCKED: USER        Moving Ligand-Fixed Receptor    = -10.17 kcal/mol
DOCKED: USER        Moving Ligand-Moving Receptor   =  +0.00 kcal/mol
DOCKED: USER    (2) Final Total Internal Energy     =  -2.20 kcal/mol
DOCKED: USER    (3) Torsional Free Energy           =  +2.68 kcal/mol
DOCKED: USER    (4) Unbound System's Energy         =  -2.20 kcal/mol
DOCKED: USER
DOCKED: USER
DOCKED: REMARK SMILES C[C@H]([N-]/C(O)=C/N=C(\O)c1ccc2cc(F)ccc2n1)c1ccccc1
DOCKED: REMARK SMILES IDX 6 1 7 2 8 3 9 4 10 6 20 7 11 8 19 9 12 10 18 11 13 12 17 13
DOCKED: REMARK SMILES IDX 14 14 15 15 16 16 4 17 3 18 2 19 1 20 21 21 22 22 26 23
DOCKED: REMARK SMILES IDX 23 24 25 25 24 26 5 27
DOCKED: REMARK H PARENT 9 5 5 28
DOCKED: USER                              x       y       z     vdW  Elec       q    Type
DOCKED: USER                           _______ _______ _______ _____ _____    ______ ____
DOCKED: ROOT
DOCKED: ATOM      1  C   UNL     1     140.907  74.483 221.503 -0.25 -0.02    +0.136 C  
DOCKED: ENDROOT
DOCKED: BRANCH   1   2
DOCKED: ATOM      2  N   UNL     1     140.840  73.328 222.349 -0.58 -0.01    -0.218 NA 
DOCKED: BRANCH   2   3
DOCKED: ATOM      3  C   UNL     1     139.795  72.589 222.595 -0.18 -0.04    +0.237 C  
DOCKED: BRANCH   3   4
DOCKED: ATOM      4  O   UNL     1     138.592  72.740 221.896 -0.07 +0.12    -0.492 OA 
DOCKED: ATOM      5  H   UNL     1     138.133  73.624 221.736 +0.03 -0.08    +0.295 HD 
DOCKED: ENDBRANCH   3   4
DOCKED: BRANCH   3   6
DOCKED: ATOM      6  C   UNL     1     139.861  71.554 223.647 -0.32 -0.02    +0.126 A  
DOCKED: ATOM      7  N   UNL     1     140.366  71.887 224.867 -0.26 +0.04    -0.243 NA 
DOCKED: ATOM      8  C   UNL     1     139.420  70.239 223.418 -0.27 -0.01    +0.035 A  
DOCKED: ATOM      9  C   UNL     1     140.459  70.987 225.883 -0.53 -0.01    +0.071 A  
DOCKED: ATOM     10  C   UNL     1     139.503  69.293 224.442 -0.33 -0.00    +0.013 A  
DOCKED: ATOM     11  C   UNL     1     140.986  71.374 227.119 -0.71 -0.01    +0.032 A  
DOCKED: ATOM     12  C   UNL     1     140.025  69.658 225.688 -0.46 -0.00    +0.003 A  
DOCKED: ATOM     13  C   UNL     1     141.082  70.446 228.161 -0.56 -0.01    +0.041 A  
DOCKED: ATOM     14  C   UNL     1     140.124  68.732 226.736 -0.56 -0.01    +0.049 A  
DOCKED: ATOM     15  C   UNL     1     140.653  69.127 227.969 -0.53 -0.02    +0.123 A  
DOCKED: ATOM     16  F   UNL     1     140.749  68.232 228.983 -0.18 +0.05    -0.207 F  
DOCKED: ENDBRANCH   3   6
DOCKED: ENDBRANCH   2   3
DOCKED: ENDBRANCH   1   2
DOCKED: BRANCH   1  17
DOCKED: ATOM     17  C   UNL     1     140.075  75.502 221.704 -0.32 -0.01    +0.029 C  
DOCKED: BRANCH  17  18
DOCKED: ATOM     18  N   UNL     1     140.271  76.717 220.968 +0.03 +0.20    -0.647 NA 
DOCKED: BRANCH  18  19
DOCKED: ATOM     19  C   UNL     1     141.549  77.411 220.820 -0.26 +0.04    -0.079 C  
DOCKED: ATOM     20  C   UNL     1     141.643  78.005 219.416 -0.26 +0.00    -0.008 C  
DOCKED: BRANCH  19  21
DOCKED: ATOM     21  C   UNL     1     141.692  78.500 221.860 -0.36 +0.03    -0.063 A  
DOCKED: ATOM     22  C   UNL     1     142.107  79.795 221.495 -0.41 -0.00    +0.002 A  
DOCKED: ATOM     23  C   UNL     1     141.451  78.216 223.215 -0.53 -0.00    +0.002 A  
DOCKED: ATOM     24  C   UNL     1     142.256  80.789 222.467 -0.55 -0.00    +0.000 A  
DOCKED: ATOM     25  C   UNL     1     141.601  79.215 224.183 -0.55 -0.00    +0.000 A  
DOCKED: ATOM     26  C   UNL     1     142.001  80.500 223.809 -0.62 -0.00    +0.000 A  
DOCKED: ENDBRANCH  19  21
DOCKED: ENDBRANCH  18  19
DOCKED: ENDBRANCH  17  18
DOCKED: BRANCH  17  27
DOCKED: ATOM     27  O   UNL     1     139.030  75.369 222.621 -0.29 +0.12    -0.529 OA 
DOCKED: ATOM     28  H   UNL     1     138.832  74.499 223.095 -0.49 -0.16    +0.290 HD 
DOCKED: ENDBRANCH  17  27
DOCKED: ENDBRANCH   1  17
DOCKED: TORSDOF 9
DOCKED: TER
DOCKED: ENDMDL
________________________________________________________________________________


    CLUSTERING HISTOGRAM
    ____________________


________________________________________________________________________________
     |           |     |           |     |
Clus | Lowest    | Run | Mean      | Num | Histogram
-ter | Binding   |     | Binding   | in  |
Rank | Energy    |     | Energy    | Clus|    5    10   15   20   25   30   35
_____|___________|_____|___________|_____|____:____|____:____|____:____|____:___
   1 |     -7.85 |   2 |     -7.18 |   8 |########
   2 |     -7.85 |   8 |     -7.53 |   7 |#######
   3 |     -7.22 |   1 |     -6.87 |   3 |###
   4 |     -7.07 |  15 |     -7.03 |   2 |##
_____|___________|_____|___________|_____|______________________________________


    RMSD TABLE
    __________


_______________________________________________________________________
     |      |      |           |         |                 |
Rank | Sub- | Run  | Binding   | Cluster | Reference       | Grep
     | Rank |      | Energy    | RMSD    | RMSD            | Pattern
_____|______|______|___________|_________|_________________|___________
   1      1      2       -7.85      0.00    271.94           RANKING
   1      2     19       -7.28      0.94    271.96           RANKING
   1      3      5       -7.21      0.39    271.87           RANKING
   1      4     13       -7.12      0.45    271.91           RANKING
   1      5     10       -7.07      0.47    271.91           RANKING
   1      6     17       -7.05      1.16    272.17           RANKING
   1      7      9       -6.99      0.86    271.88           RANKING
   1      8     18       -6.86      1.10    271.82           RANKING
   2      1      8       -7.85      0.00    272.02           RANKING
   2      2      4       -7.80      0.12    272.02           RANKING
   2      3      6       -7.79      0.07    272.01           RANKING
   2      4     20       -7.48      0.31    272.00           RANKING
   2      5     11       -7.44      0.91    272.13           RANKING
   2      6      7       -7.22      0.97    271.87           RANKING
   2      7     12       -7.14      0.81    271.82           RANKING
   3      1      1       -7.22      0.00    271.44           RANKING
   3      2     14       -6.69      1.91    271.34           RANKING
   3      3     16       -6.69      1.88    271.30           RANKING
   4      1     15       -7.07      0.00    271.30           RANKING
   4      2      3       -6.99      1.02    271.37           RANKING

Run time 0.898 sec
Idle time 0.000 sec
