AutoDock-GPU version: v1.6

**********************************************************
**    AutoDock-GPU AUTODOCKTOOLS-COMPATIBLE DLG FILE    **
**********************************************************


    DOCKING PARAMETERS
    ________________________


Ligand file:                               /home/a/REINVENT4/ReinventStudies/pleaseWork/justmol2mol_4_Compounds_ontop/graph-dock-8u2o5u/graph-DockGPU/node-autodockgpu/inputs/UAXKWYTZVQFEPY-PLBNTITRNA-N.pdbqt
Grid fld file:                             /home/a/REINVENT4/ReinventStudies/mols/Rad51/maps/rad51_receptor.maps.fld

Random seed:                               42
Number of runs:                            20
Number of energy evaluations:              2040163
Number of generations:                     42000
Size of population:                        150
Rate of crossover:                         80.000000%
Tournament selection probability limit:    60.000000%
Rate of mutation:                          2.000000%
Maximal allowed delta movement:            +/- 6.000000A
Maximal allowed delta angle:               +/- 90.000000

Rate of local search:                      100.000000%
Maximal number of local search iterations: 300
Rho lower bound:                           0.010000
Spread of local search delta movement:     2.000000A
Spread of local search delta angle:        74.999999
Limit of consecutive successes/failures:   4

Handle symmetry during clustering:         YES
RMSD tolerance:                            2.000000A

Program call in command line was:          /home/a/REINVENT4/ReinventStudies/adgpu-v1.6_linux_x64_cuda12_128wi --filelist batch.txt --heuristics 1 --nrun 20 --psize 150 --lsit 300 --seed 42 --heurmax 12000000 


    GRID PARAMETERS
    ________________________


Receptor name:                             rad51_receptor
Number of grid points (x, y, z):           53, 53, 53
Grid center (x, y, z):                     139.950000, 75.640000, 221.970000A
Grid size (x, y, z):                       19.500000, 19.500000, 19.500000A
Grid spacing:                              0.375000A


    LIGAND PARAMETERS
    ________________________


Ligand name:                               /home/a/REINVENT4/ReinventStudies/pleaseWork/justmol2mol_4_Compounds_ontop/graph-dock-8u2o5u/graph-DockGPU/node-autodockgpu/inputs/UAXKWYTZVQFEPY-PLBNTITRNA-N
Number of atoms:                           28
Number of rotatable bonds:                 9
Number of atom types:                      6


    DUMMY DATA (only for ADT-compatibility)
    ________________________


DPF> outlev 1
DPF> ga_run 20
DPF> fld /home/a/REINVENT4/ReinventStudies/mols/Rad51/maps/rad51_receptor.maps.fld
DPF> move /home/a/REINVENT4/ReinventStudies/pleaseWork/justmol2mol_4_Compounds_ontop/graph-dock-8u2o5u/graph-DockGPU/node-autodockgpu/inputs/UAXKWYTZVQFEPY-PLBNTITRNA-N.pdbqt


    COUNTER STATES
    ________________________


Number of energy evaluations performed:    2047549
Number of generations used:                100


    INPUT LIGAND PDBQT FILE:
    ________________________


INPUT-LIGAND-PDBQT: REMARK SMILES C[C@H]([N-]/C(O)=C/N=C(/O)c1ccc2cc(F)ccc2n1)c1ccccc1
INPUT-LIGAND-PDBQT: REMARK SMILES IDX 6 1 4 2 5 3 3 5 2 6 1 7 21 8 22 9 26 10 23 11 25 12 24 13
INPUT-LIGAND-PDBQT: REMARK SMILES IDX 7 14 8 15 9 16 10 18 20 19 11 20 19 21 12 22 18 23 13 24
INPUT-LIGAND-PDBQT: REMARK SMILES IDX 17 25 14 26 15 27 16 28
INPUT-LIGAND-PDBQT: REMARK H PARENT 5 4 9 17
INPUT-LIGAND-PDBQT: ROOT
INPUT-LIGAND-PDBQT: ATOM      1  C   UNL     1      -0.296  -0.141  -0.192  1.00  0.00     0.136 C 
INPUT-LIGAND-PDBQT: ENDROOT
INPUT-LIGAND-PDBQT: BRANCH   1   2
INPUT-LIGAND-PDBQT: ATOM      2  C   UNL     1      -0.824   0.917   0.428  1.00  0.00     0.029 C 
INPUT-LIGAND-PDBQT: BRANCH   2   3
INPUT-LIGAND-PDBQT: ATOM      3  O   UNL     1      -1.459   0.790   1.665  1.00  0.00    -0.529 OA
INPUT-LIGAND-PDBQT: ATOM      4  H   UNL     1      -1.550  -0.095   2.149  1.00  0.00     0.290 HD
INPUT-LIGAND-PDBQT: ENDBRANCH   2   3
INPUT-LIGAND-PDBQT: BRANCH   2   5
INPUT-LIGAND-PDBQT: ATOM      5  N   UNL     1      -0.724   2.202  -0.198  1.00  0.00    -0.647 NA
INPUT-LIGAND-PDBQT: BRANCH   5   6
INPUT-LIGAND-PDBQT: ATOM      6  C   UNL     1      -1.242   3.458   0.347  1.00  0.00    -0.079 C 
INPUT-LIGAND-PDBQT: ATOM      7  C   UNL     1      -2.777   3.453   0.361  1.00  0.00    -0.008 C 
INPUT-LIGAND-PDBQT: BRANCH   6   8
INPUT-LIGAND-PDBQT: ATOM      8  C   UNL     1      -0.587   3.775   1.682  1.00  0.00    -0.063 A 
INPUT-LIGAND-PDBQT: ATOM      9  C   UNL     1      -1.234   3.567   2.919  1.00  0.00     0.002 A 
INPUT-LIGAND-PDBQT: ATOM     10  C   UNL     1       0.739   4.246   1.685  1.00  0.00     0.002 A 
INPUT-LIGAND-PDBQT: ATOM     11  C   UNL     1      -0.574   3.845   4.119  1.00  0.00     0.000 A 
INPUT-LIGAND-PDBQT: ATOM     12  C   UNL     1       1.394   4.523   2.889  1.00  0.00     0.000 A 
INPUT-LIGAND-PDBQT: ATOM     13  C   UNL     1       0.737   4.325   4.105  1.00  0.00     0.000 A 
INPUT-LIGAND-PDBQT: ENDBRANCH   6   8
INPUT-LIGAND-PDBQT: ENDBRANCH   5   6
INPUT-LIGAND-PDBQT: ENDBRANCH   2   5
INPUT-LIGAND-PDBQT: ENDBRANCH   1   2
INPUT-LIGAND-PDBQT: BRANCH   1  14
INPUT-LIGAND-PDBQT: ATOM     14  N   UNL     1      -0.387  -1.453   0.380  1.00  0.00    -0.218 NA
INPUT-LIGAND-PDBQT: BRANCH  14  15
INPUT-LIGAND-PDBQT: ATOM     15  C   UNL     1       0.204  -2.531  -0.054  1.00  0.00     0.237 C 
INPUT-LIGAND-PDBQT: BRANCH  15  16
INPUT-LIGAND-PDBQT: ATOM     16  O   UNL     1      -0.086  -3.749   0.555  1.00  0.00    -0.492 OA
INPUT-LIGAND-PDBQT: ATOM     17  H   UNL     1      -0.741  -3.806   1.326  1.00  0.00     0.295 HD
INPUT-LIGAND-PDBQT: ENDBRANCH  15  16
INPUT-LIGAND-PDBQT: BRANCH  15  18
INPUT-LIGAND-PDBQT: ATOM     18  C   UNL     1       1.165  -2.532  -1.175  1.00  0.00     0.126 A 
INPUT-LIGAND-PDBQT: ATOM     19  N   UNL     1       1.027  -3.462  -2.159  1.00  0.00    -0.243 NA
INPUT-LIGAND-PDBQT: ATOM     20  C   UNL     1       2.264  -1.658  -1.196  1.00  0.00     0.035 A 
INPUT-LIGAND-PDBQT: ATOM     21  C   UNL     1       1.901  -3.548  -3.198  1.00  0.00     0.071 A 
INPUT-LIGAND-PDBQT: ATOM     22  C   UNL     1       3.177  -1.720  -2.251  1.00  0.00     0.013 A 
INPUT-LIGAND-PDBQT: ATOM     23  C   UNL     1       1.714  -4.510  -4.197  1.00  0.00     0.032 A 
INPUT-LIGAND-PDBQT: ATOM     24  C   UNL     1       3.002  -2.666  -3.267  1.00  0.00     0.003 A 
INPUT-LIGAND-PDBQT: ATOM     25  C   UNL     1       2.614  -4.595  -5.264  1.00  0.00     0.041 A 
INPUT-LIGAND-PDBQT: ATOM     26  C   UNL     1       3.901  -2.758  -4.341  1.00  0.00     0.049 A 
INPUT-LIGAND-PDBQT: ATOM     27  C   UNL     1       3.705  -3.721  -5.336  1.00  0.00     0.123 A 
INPUT-LIGAND-PDBQT: ATOM     28  F   UNL     1       4.574  -3.809  -6.373  1.00  0.00    -0.207 F 
INPUT-LIGAND-PDBQT: ENDBRANCH  15  18
INPUT-LIGAND-PDBQT: ENDBRANCH  14  15
INPUT-LIGAND-PDBQT: ENDBRANCH   1  14
INPUT-LIGAND-PDBQT: TORSDOF 9


    FINAL DOCKED STATE:
    ________________________


Run:   1 / 20
Time taken for this run:   0.079s

DOCKED: MODEL        1
DOCKED: USER    Run = 1
DOCKED: USER
DOCKED: USER    Estimated Free Energy of Binding    =  -7.30 kcal/mol  [=(1)+(2)+(3)-(4)]
DOCKED: USER
DOCKED: USER    (1) Final Intermolecular Energy     =  -9.99 kcal/mol
DOCKED: USER        vdW + Hbond + desolv Energy     = -10.18 kcal/mol
DOCKED: USER        Electrostatic Energy            =  +0.20 kcal/mol
DOCKED: USER        Moving Ligand-Fixed Receptor    =  -9.99 kcal/mol
DOCKED: USER        Moving Ligand-Moving Receptor   =  +0.00 kcal/mol
DOCKED: USER    (2) Final Total Internal Energy     =  -1.97 kcal/mol
DOCKED: USER    (3) Torsional Free Energy           =  +2.68 kcal/mol
DOCKED: USER    (4) Unbound System's Energy         =  -1.97 kcal/mol
DOCKED: USER
DOCKED: USER
DOCKED: REMARK SMILES C[C@H]([N-]/C(O)=C/N=C(/O)c1ccc2cc(F)ccc2n1)c1ccccc1
DOCKED: REMARK SMILES IDX 6 1 4 2 5 3 3 5 2 6 1 7 21 8 22 9 26 10 23 11 25 12 24 13
DOCKED: REMARK SMILES IDX 7 14 8 15 9 16 10 18 20 19 11 20 19 21 12 22 18 23 13 24
DOCKED: REMARK SMILES IDX 17 25 14 26 15 27 16 28
DOCKED: REMARK H PARENT 5 4 9 17
DOCKED: USER                              x       y       z     vdW  Elec       q    Type
DOCKED: USER                           _______ _______ _______ _____ _____    ______ ____
DOCKED: ROOT
DOCKED: ATOM      1  C   UNL     1     140.064  74.543 221.570 -0.25 -0.02    +0.136 C  
DOCKED: ENDROOT
DOCKED: BRANCH   1   2
DOCKED: ATOM      2  C   UNL     1     139.267  75.526 221.994 -0.30 -0.01    +0.029 C  
DOCKED: BRANCH   2   3
DOCKED: ATOM      3  O   UNL     1     138.017  75.256 222.554 -0.07 +0.18    -0.529 OA 
DOCKED: ATOM      4  H   UNL     1     137.793  74.376 223.003 -0.44 -0.18    +0.290 HD 
DOCKED: ENDBRANCH   2   3
DOCKED: BRANCH   2   5
DOCKED: ATOM      5  N   UNL     1     139.719  76.880 221.870 -0.01 +0.16    -0.647 NA 
DOCKED: BRANCH   5   6
DOCKED: ATOM      6  C   UNL     1     141.117  77.315 221.871 -0.31 +0.04    -0.079 C  
DOCKED: ATOM      7  C   UNL     1     141.713  77.235 220.459 -0.30 +0.00    -0.008 C  
DOCKED: BRANCH   6   8
DOCKED: ATOM      8  C   UNL     1     141.259  78.666 222.554 -0.44 +0.02    -0.063 A  
DOCKED: ATOM      9  C   UNL     1     140.180  79.318 223.190 -0.43 -0.00    +0.002 A  
DOCKED: ATOM     10  C   UNL     1     142.531  79.266 222.600 -0.54 -0.00    +0.002 A  
DOCKED: ATOM     11  C   UNL     1     140.372  80.544 223.831 -0.42 -0.00    +0.000 A  
DOCKED: ATOM     12  C   UNL     1     142.717  80.494 223.243 -0.67 -0.00    +0.000 A  
DOCKED: ATOM     13  C   UNL     1     141.638  81.133 223.856 -0.56 -0.00    +0.000 A  
DOCKED: ENDBRANCH   6   8
DOCKED: ENDBRANCH   5   6
DOCKED: ENDBRANCH   2   5
DOCKED: ENDBRANCH   1   2
DOCKED: BRANCH   1  14
DOCKED: ATOM     14  N   UNL     1     140.263  73.362 222.360 -0.74 +0.01    -0.218 NA 
DOCKED: BRANCH  14  15
DOCKED: ATOM     15  C   UNL     1     139.357  72.482 222.682 -0.09 -0.06    +0.237 C  
DOCKED: BRANCH  15  16
DOCKED: ATOM     16  O   UNL     1     138.146  72.482 221.995 -0.05 +0.13    -0.492 OA 
DOCKED: ATOM     17  H   UNL     1     137.759  73.338 221.615 +0.05 -0.08    +0.295 HD 
DOCKED: ENDBRANCH  15  16
DOCKED: BRANCH  15  18
DOCKED: ATOM     18  C   UNL     1     139.550  71.469 223.739 -0.31 -0.03    +0.126 A  
DOCKED: ATOM     19  N   UNL     1     140.069  71.858 224.936 -0.17 +0.05    -0.243 NA 
DOCKED: ATOM     20  C   UNL     1     139.299  70.108 223.501 -0.27 -0.01    +0.035 A  
DOCKED: ATOM     21  C   UNL     1     140.314  70.971 225.938 -0.52 -0.01    +0.071 A  
DOCKED: ATOM     22  C   UNL     1     139.538  69.174 224.511 -0.33 -0.00    +0.013 A  
DOCKED: ATOM     23  C   UNL     1     140.834  71.415 227.159 -0.72 -0.01    +0.032 A  
DOCKED: ATOM     24  C   UNL     1     140.046  69.598 225.744 -0.47 -0.00    +0.003 A  
DOCKED: ATOM     25  C   UNL     1     141.084  70.501 228.187 -0.56 -0.01    +0.041 A  
DOCKED: ATOM     26  C   UNL     1     140.300  68.687 226.781 -0.58 -0.01    +0.049 A  
DOCKED: ATOM     27  C   UNL     1     140.818  69.140 227.998 -0.52 -0.03    +0.123 A  
DOCKED: ATOM     28  F   UNL     1     141.063  68.258 228.999 -0.18 +0.05    -0.207 F  
DOCKED: ENDBRANCH  15  18
DOCKED: ENDBRANCH  14  15
DOCKED: ENDBRANCH   1  14
DOCKED: TORSDOF 9
DOCKED: TER
DOCKED: ENDMDL
________________________________________________________________________________


    FINAL DOCKED STATE:
    ________________________


Run:   2 / 20
Time taken for this run:   0.079s

DOCKED: MODEL        2
DOCKED: USER    Run = 2
DOCKED: USER
DOCKED: USER    Estimated Free Energy of Binding    =  -7.20 kcal/mol  [=(1)+(2)+(3)-(4)]
DOCKED: USER
DOCKED: USER    (1) Final Intermolecular Energy     =  -9.89 kcal/mol
DOCKED: USER        vdW + Hbond + desolv Energy     =  -9.94 kcal/mol
DOCKED: USER        Electrostatic Energy            =  +0.05 kcal/mol
DOCKED: USER        Moving Ligand-Fixed Receptor    =  -9.89 kcal/mol
DOCKED: USER        Moving Ligand-Moving Receptor   =  +0.00 kcal/mol
DOCKED: USER    (2) Final Total Internal Energy     =  -2.27 kcal/mol
DOCKED: USER    (3) Torsional Free Energy           =  +2.68 kcal/mol
DOCKED: USER    (4) Unbound System's Energy         =  -2.27 kcal/mol
DOCKED: USER
DOCKED: USER
DOCKED: REMARK SMILES C[C@H]([N-]/C(O)=C/N=C(/O)c1ccc2cc(F)ccc2n1)c1ccccc1
DOCKED: REMARK SMILES IDX 6 1 4 2 5 3 3 5 2 6 1 7 21 8 22 9 26 10 23 11 25 12 24 13
DOCKED: REMARK SMILES IDX 7 14 8 15 9 16 10 18 20 19 11 20 19 21 12 22 18 23 13 24
DOCKED: REMARK SMILES IDX 17 25 14 26 15 27 16 28
DOCKED: REMARK H PARENT 5 4 9 17
DOCKED: USER                              x       y       z     vdW  Elec       q    Type
DOCKED: USER                           _______ _______ _______ _____ _____    ______ ____
DOCKED: ROOT
DOCKED: ATOM      1  C   UNL     1     141.073  72.509 221.980 -0.21 -0.01    +0.136 C  
DOCKED: ENDROOT
DOCKED: BRANCH   1   2
DOCKED: ATOM      2  C   UNL     1     140.048  71.797 222.453 -0.30 -0.00    +0.029 C  
DOCKED: BRANCH   2   3
DOCKED: ATOM      3  O   UNL     1     138.737  72.059 222.052 -0.04 +0.12    -0.529 OA 
DOCKED: ATOM      4  H   UNL     1     138.483  72.863 221.491 +0.06 -0.07    +0.290 HD 
DOCKED: ENDBRANCH   2   3
DOCKED: BRANCH   2   5
DOCKED: ATOM      5  N   UNL     1     140.315  70.743 223.386 +0.07 +0.09    -0.647 NA 
DOCKED: BRANCH   5   6
DOCKED: ATOM      6  C   UNL     1     139.447  70.347 224.496 -0.35 +0.01    -0.079 C  
DOCKED: ATOM      7  C   UNL     1     139.069  68.863 224.389 -0.35 +0.00    -0.008 C  
DOCKED: BRANCH   6   8
DOCKED: ATOM      8  C   UNL     1     140.054  70.762 225.827 -0.49 +0.01    -0.063 A  
DOCKED: ATOM      9  C   UNL     1     140.901  71.882 225.965 -0.57 -0.00    +0.002 A  
DOCKED: ATOM     10  C   UNL     1     139.713  70.028 226.979 -0.51 -0.00    +0.002 A  
DOCKED: ATOM     11  C   UNL     1     141.406  72.239 227.218 -0.82 -0.00    +0.000 A  
DOCKED: ATOM     12  C   UNL     1     140.222  70.389 228.230 -0.61 -0.00    +0.000 A  
DOCKED: ATOM     13  C   UNL     1     141.070  71.492 228.349 -0.75 -0.00    +0.000 A  
DOCKED: ENDBRANCH   6   8
DOCKED: ENDBRANCH   5   6
DOCKED: ENDBRANCH   2   5
DOCKED: ENDBRANCH   1   2
DOCKED: BRANCH   1  14
DOCKED: ATOM     14  N   UNL     1     140.856  73.751 221.296 -0.28 +0.03    -0.218 NA 
DOCKED: BRANCH  14  15
DOCKED: ATOM     15  C   UNL     1     140.213  74.788 221.756 -0.17 -0.03    +0.237 C  
DOCKED: BRANCH  15  16
DOCKED: ATOM     16  O   UNL     1     138.967  74.599 222.348 -0.38 +0.13    -0.492 OA 
DOCKED: ATOM     17  H   UNL     1     138.826  73.888 223.055 -0.49 -0.18    +0.295 HD 
DOCKED: ENDBRANCH  15  16
DOCKED: BRANCH  15  18
DOCKED: ATOM     18  C   UNL     1     140.746  76.164 221.694 -0.31 -0.04    +0.126 A  
DOCKED: ATOM     19  N   UNL     1     140.478  77.020 222.718 -0.25 +0.06    -0.243 NA 
DOCKED: ATOM     20  C   UNL     1     141.440  76.628 220.565 -0.28 -0.02    +0.035 A  
DOCKED: ATOM     21  C   UNL     1     140.901  78.313 222.706 -0.43 -0.02    +0.071 A  
DOCKED: ATOM     22  C   UNL     1     141.889  77.950 220.525 -0.31 -0.01    +0.013 A  
DOCKED: ATOM     23  C   UNL     1     140.616  79.156 223.786 -0.45 -0.01    +0.032 A  
DOCKED: ATOM     24  C   UNL     1     141.626  78.807 221.599 -0.40 -0.00    +0.003 A  
DOCKED: ATOM     25  C   UNL     1     141.053  80.484 223.771 -0.46 -0.01    +0.041 A  
DOCKED: ATOM     26  C   UNL     1     142.060  80.141 221.592 -0.42 -0.02    +0.049 A  
DOCKED: ATOM     27  C   UNL     1     141.773  80.976 222.676 -0.45 -0.03    +0.123 A  
DOCKED: ATOM     28  F   UNL     1     142.193  82.265 222.668 +0.03 +0.03    -0.207 F  
DOCKED: ENDBRANCH  15  18
DOCKED: ENDBRANCH  14  15
DOCKED: ENDBRANCH   1  14
DOCKED: TORSDOF 9
DOCKED: TER
DOCKED: ENDMDL
________________________________________________________________________________


    FINAL DOCKED STATE:
    ________________________


Run:   3 / 20
Time taken for this run:   0.079s

DOCKED: MODEL        3
DOCKED: USER    Run = 3
DOCKED: USER
DOCKED: USER    Estimated Free Energy of Binding    =  -7.90 kcal/mol  [=(1)+(2)+(3)-(4)]
DOCKED: USER
DOCKED: USER    (1) Final Intermolecular Energy     = -10.58 kcal/mol
DOCKED: USER        vdW + Hbond + desolv Energy     = -10.78 kcal/mol
DOCKED: USER        Electrostatic Energy            =  +0.20 kcal/mol
DOCKED: USER        Moving Ligand-Fixed Receptor    = -10.58 kcal/mol
DOCKED: USER        Moving Ligand-Moving Receptor   =  +0.00 kcal/mol
DOCKED: USER    (2) Final Total Internal Energy     =  -1.93 kcal/mol
DOCKED: USER    (3) Torsional Free Energy           =  +2.68 kcal/mol
DOCKED: USER    (4) Unbound System's Energy         =  -1.93 kcal/mol
DOCKED: USER
DOCKED: USER
DOCKED: REMARK SMILES C[C@H]([N-]/C(O)=C/N=C(/O)c1ccc2cc(F)ccc2n1)c1ccccc1
DOCKED: REMARK SMILES IDX 6 1 4 2 5 3 3 5 2 6 1 7 21 8 22 9 26 10 23 11 25 12 24 13
DOCKED: REMARK SMILES IDX 7 14 8 15 9 16 10 18 20 19 11 20 19 21 12 22 18 23 13 24
DOCKED: REMARK SMILES IDX 17 25 14 26 15 27 16 28
DOCKED: REMARK H PARENT 5 4 9 17
DOCKED: USER                              x       y       z     vdW  Elec       q    Type
DOCKED: USER                           _______ _______ _______ _____ _____    ______ ____
DOCKED: ROOT
DOCKED: ATOM      1  C   UNL     1     140.987  74.260 221.331 -0.24 -0.02    +0.136 C  
DOCKED: ENDROOT
DOCKED: BRANCH   1   2
DOCKED: ATOM      2  C   UNL     1     140.298  75.369 221.610 -0.33 -0.01    +0.029 C  
DOCKED: BRANCH   2   3
DOCKED: ATOM      3  O   UNL     1     139.458  75.439 222.723 -0.37 +0.08    -0.529 OA 
DOCKED: ATOM      4  H   UNL     1     139.205  74.628 223.275 -0.46 -0.11    +0.290 HD 
DOCKED: ENDBRANCH   2   3
DOCKED: BRANCH   2   5
DOCKED: ATOM      5  N   UNL     1     140.438  76.502 220.745 +0.03 +0.21    -0.647 NA 
DOCKED: BRANCH   5   6
DOCKED: ATOM      6  C   UNL     1     141.643  77.320 220.599 -0.26 +0.04    -0.079 C  
DOCKED: ATOM      7  C   UNL     1     141.789  77.822 219.156 -0.26 +0.00    -0.008 C  
DOCKED: BRANCH   6   8
DOCKED: ATOM      8  C   UNL     1     141.691  78.402 221.666 -0.34 +0.04    -0.063 A  
DOCKED: ATOM      9  C   UNL     1     141.925  79.761 221.365 -0.40 -0.00    +0.002 A  
DOCKED: ATOM     10  C   UNL     1     141.438  78.041 223.002 -0.49 -0.00    +0.002 A  
DOCKED: ATOM     11  C   UNL     1     141.926  80.721 222.381 -0.53 -0.00    +0.000 A  
DOCKED: ATOM     12  C   UNL     1     141.441  79.006 224.014 -0.59 -0.00    +0.000 A  
DOCKED: ATOM     13  C   UNL     1     141.687  80.344 223.704 -0.59 -0.00    +0.000 A  
DOCKED: ENDBRANCH   6   8
DOCKED: ENDBRANCH   5   6
DOCKED: ENDBRANCH   2   5
DOCKED: ENDBRANCH   1   2
DOCKED: BRANCH   1  14
DOCKED: ATOM     14  N   UNL     1     140.918  73.113 222.189 -0.50 +0.00    -0.218 NA 
DOCKED: BRANCH  14  15
DOCKED: ATOM     15  C   UNL     1     139.839  72.588 222.697 -0.17 -0.04    +0.237 C  
DOCKED: BRANCH  15  16
DOCKED: ATOM     16  O   UNL     1     138.599  73.013 222.227 -0.10 +0.15    -0.492 OA 
DOCKED: ATOM     17  H   UNL     1     138.088  73.754 222.692 -0.47 -0.15    +0.295 HD 
DOCKED: ENDBRANCH  15  16
DOCKED: BRANCH  15  18
DOCKED: ATOM     18  C   UNL     1     139.859  71.551 223.747 -0.33 -0.02    +0.126 A  
DOCKED: ATOM     19  N   UNL     1     140.359  71.865 224.974 -0.26 +0.04    -0.243 NA 
DOCKED: ATOM     20  C   UNL     1     139.463  70.231 223.478 -0.27 -0.01    +0.035 A  
DOCKED: ATOM     21  C   UNL     1     140.449  70.947 225.973 -0.54 -0.01    +0.071 A  
DOCKED: ATOM     22  C   UNL     1     139.540  69.266 224.485 -0.33 -0.00    +0.013 A  
DOCKED: ATOM     23  C   UNL     1     140.955  71.316 227.225 -0.71 -0.01    +0.032 A  
DOCKED: ATOM     24  C   UNL     1     140.032  69.617 225.747 -0.47 -0.00    +0.003 A  
DOCKED: ATOM     25  C   UNL     1     141.045  70.370 228.250 -0.54 -0.01    +0.041 A  
DOCKED: ATOM     26  C   UNL     1     140.125  68.673 226.782 -0.57 -0.01    +0.049 A  
DOCKED: ATOM     27  C   UNL     1     140.631  69.051 228.030 -0.53 -0.03    +0.123 A  
DOCKED: ATOM     28  F   UNL     1     140.721  68.138 229.028 -0.19 +0.05    -0.207 F  
DOCKED: ENDBRANCH  15  18
DOCKED: ENDBRANCH  14  15
DOCKED: ENDBRANCH   1  14
DOCKED: TORSDOF 9
DOCKED: TER
DOCKED: ENDMDL
________________________________________________________________________________


    FINAL DOCKED STATE:
    ________________________


Run:   4 / 20
Time taken for this run:   0.079s

DOCKED: MODEL        4
DOCKED: USER    Run = 4
DOCKED: USER
DOCKED: USER    Estimated Free Energy of Binding    =  -7.25 kcal/mol  [=(1)+(2)+(3)-(4)]
DOCKED: USER
DOCKED: USER    (1) Final Intermolecular Energy     =  -9.94 kcal/mol
DOCKED: USER        vdW + Hbond + desolv Energy     = -10.00 kcal/mol
DOCKED: USER        Electrostatic Energy            =  +0.06 kcal/mol
DOCKED: USER        Moving Ligand-Fixed Receptor    =  -9.94 kcal/mol
DOCKED: USER        Moving Ligand-Moving Receptor   =  +0.00 kcal/mol
DOCKED: USER    (2) Final Total Internal Energy     =  -2.22 kcal/mol
DOCKED: USER    (3) Torsional Free Energy           =  +2.68 kcal/mol
DOCKED: USER    (4) Unbound System's Energy         =  -2.22 kcal/mol
DOCKED: USER
DOCKED: USER
DOCKED: REMARK SMILES C[C@H]([N-]/C(O)=C/N=C(/O)c1ccc2cc(F)ccc2n1)c1ccccc1
DOCKED: REMARK SMILES IDX 6 1 4 2 5 3 3 5 2 6 1 7 21 8 22 9 26 10 23 11 25 12 24 13
DOCKED: REMARK SMILES IDX 7 14 8 15 9 16 10 18 20 19 11 20 19 21 12 22 18 23 13 24
DOCKED: REMARK SMILES IDX 17 25 14 26 15 27 16 28
DOCKED: REMARK H PARENT 5 4 9 17
DOCKED: USER                              x       y       z     vdW  Elec       q    Type
DOCKED: USER                           _______ _______ _______ _____ _____    ______ ____
DOCKED: ROOT
DOCKED: ATOM      1  C   UNL     1     141.227  72.441 221.956 -0.15 -0.01    +0.136 C  
DOCKED: ENDROOT
DOCKED: BRANCH   1   2
DOCKED: ATOM      2  C   UNL     1     140.153  71.764 222.369 -0.29 -0.00    +0.029 C  
DOCKED: BRANCH   2   3
DOCKED: ATOM      3  O   UNL     1     138.884  72.033 221.853 -0.04 +0.11    -0.529 OA 
DOCKED: ATOM      4  H   UNL     1     138.669  72.872 221.328 +0.06 -0.06    +0.290 HD 
DOCKED: ENDBRANCH   2   3
DOCKED: BRANCH   2   5
DOCKED: ATOM      5  N   UNL     1     140.323  70.741 223.359 +0.07 +0.09    -0.647 NA 
DOCKED: BRANCH   5   6
DOCKED: ATOM      6  C   UNL     1     139.397  70.456 224.456 -0.35 +0.01    -0.079 C  
DOCKED: ATOM      7  C   UNL     1     138.836  69.032 224.338 -0.35 +0.00    -0.008 C  
DOCKED: BRANCH   6   8
DOCKED: ATOM      8  C   UNL     1     140.035  70.787 225.796 -0.48 +0.01    -0.063 A  
DOCKED: ATOM      9  C   UNL     1     140.894  71.891 225.981 -0.57 -0.00    +0.002 A  
DOCKED: ATOM     10  C   UNL     1     139.712  69.989 226.910 -0.51 -0.00    +0.002 A  
DOCKED: ATOM     11  C   UNL     1     141.428  72.169 227.242 -0.81 -0.00    +0.000 A  
DOCKED: ATOM     12  C   UNL     1     140.250  70.272 228.169 -0.62 -0.00    +0.000 A  
DOCKED: ATOM     13  C   UNL     1     141.109  71.360 228.335 -0.72 -0.00    +0.000 A  
DOCKED: ENDBRANCH   6   8
DOCKED: ENDBRANCH   5   6
DOCKED: ENDBRANCH   2   5
DOCKED: ENDBRANCH   1   2
DOCKED: BRANCH   1  14
DOCKED: ATOM     14  N   UNL     1     141.094  73.718 221.317 -0.28 +0.03    -0.218 NA 
DOCKED: BRANCH  14  15
DOCKED: ATOM     15  C   UNL     1     140.410  74.738 221.757 -0.15 -0.03    +0.237 C  
DOCKED: BRANCH  15  16
DOCKED: ATOM     16  O   UNL     1     139.172  74.511 222.352 -0.54 +0.11    -0.492 OA 
DOCKED: ATOM     17  H   UNL     1     139.056  73.801 223.065 -0.48 -0.15    +0.295 HD 
DOCKED: ENDBRANCH  15  16
DOCKED: BRANCH  15  18
DOCKED: ATOM     18  C   UNL     1     140.888  76.132 221.668 -0.31 -0.04    +0.126 A  
DOCKED: ATOM     19  N   UNL     1     140.672  76.970 222.718 -0.26 +0.07    -0.243 NA 
DOCKED: ATOM     20  C   UNL     1     141.473  76.630 220.493 -0.27 -0.02    +0.035 A  
DOCKED: ATOM     21  C   UNL     1     141.046  78.277 222.687 -0.44 -0.02    +0.071 A  
DOCKED: ATOM     22  C   UNL     1     141.871  77.967 220.431 -0.31 -0.01    +0.013 A  
DOCKED: ATOM     23  C   UNL     1     140.819  79.101 223.795 -0.49 -0.01    +0.032 A  
DOCKED: ATOM     24  C   UNL     1     141.664  78.805 221.532 -0.40 -0.00    +0.003 A  
DOCKED: ATOM     25  C   UNL     1     141.206  80.445 223.760 -0.49 -0.01    +0.041 A  
DOCKED: ATOM     26  C   UNL     1     142.050  80.155 221.504 -0.40 -0.02    +0.049 A  
DOCKED: ATOM     27  C   UNL     1     141.820  80.970 222.617 -0.45 -0.03    +0.123 A  
DOCKED: ATOM     28  F   UNL     1     142.192  82.274 222.589 +0.03 +0.03    -0.207 F  
DOCKED: ENDBRANCH  15  18
DOCKED: ENDBRANCH  14  15
DOCKED: ENDBRANCH   1  14
DOCKED: TORSDOF 9
DOCKED: TER
DOCKED: ENDMDL
________________________________________________________________________________


    FINAL DOCKED STATE:
    ________________________


Run:   5 / 20
Time taken for this run:   0.079s

DOCKED: MODEL        5
DOCKED: USER    Run = 5
DOCKED: USER
DOCKED: USER    Estimated Free Energy of Binding    =  -7.03 kcal/mol  [=(1)+(2)+(3)-(4)]
DOCKED: USER
DOCKED: USER    (1) Final Intermolecular Energy     =  -9.71 kcal/mol
DOCKED: USER        vdW + Hbond + desolv Energy     =  -9.81 kcal/mol
DOCKED: USER        Electrostatic Energy            =  +0.10 kcal/mol
DOCKED: USER        Moving Ligand-Fixed Receptor    =  -9.71 kcal/mol
DOCKED: USER        Moving Ligand-Moving Receptor   =  +0.00 kcal/mol
DOCKED: USER    (2) Final Total Internal Energy     =  -2.08 kcal/mol
DOCKED: USER    (3) Torsional Free Energy           =  +2.68 kcal/mol
DOCKED: USER    (4) Unbound System's Energy         =  -2.08 kcal/mol
DOCKED: USER
DOCKED: USER
DOCKED: REMARK SMILES C[C@H]([N-]/C(O)=C/N=C(/O)c1ccc2cc(F)ccc2n1)c1ccccc1
DOCKED: REMARK SMILES IDX 6 1 4 2 5 3 3 5 2 6 1 7 21 8 22 9 26 10 23 11 25 12 24 13
DOCKED: REMARK SMILES IDX 7 14 8 15 9 16 10 18 20 19 11 20 19 21 12 22 18 23 13 24
DOCKED: REMARK SMILES IDX 17 25 14 26 15 27 16 28
DOCKED: REMARK H PARENT 5 4 9 17
DOCKED: USER                              x       y       z     vdW  Elec       q    Type
DOCKED: USER                           _______ _______ _______ _____ _____    ______ ____
DOCKED: ROOT
DOCKED: ATOM      1  C   UNL     1     140.052  71.730 221.098 -0.13 -0.02    +0.136 C  
DOCKED: ENDROOT
DOCKED: BRANCH   1   2
DOCKED: ATOM      2  C   UNL     1     140.156  73.058 221.187 -0.22 -0.00    +0.029 C  
DOCKED: BRANCH   2   3
DOCKED: ATOM      3  O   UNL     1     139.750  73.741 222.335 -0.71 +0.06    -0.529 OA 
DOCKED: ATOM      4  H   UNL     1     139.344  73.276 223.138 -0.40 -0.11    +0.290 HD 
DOCKED: ENDBRANCH   2   3
DOCKED: BRANCH   2   5
DOCKED: ATOM      5  N   UNL     1     140.701  73.781 220.077 +0.04 +0.13    -0.647 NA 
DOCKED: BRANCH   5   6
DOCKED: ATOM      6  C   UNL     1     141.774  74.775 220.152 -0.22 +0.02    -0.079 C  
DOCKED: ATOM      7  C   UNL     1     141.462  75.834 221.218 -0.28 +0.00    -0.008 C  
DOCKED: BRANCH   6   8
DOCKED: ATOM      8  C   UNL     1     143.127  74.095 220.296 -0.30 +0.02    -0.063 A  
DOCKED: ATOM      9  C   UNL     1     144.331  74.815 220.445 -0.41 -0.00    +0.002 A  
DOCKED: ATOM     10  C   UNL     1     143.171  72.689 220.336 -0.28 -0.00    +0.002 A  
DOCKED: ATOM     11  C   UNL     1     145.544  74.140 220.606 -0.60 -0.00    +0.000 A  
DOCKED: ATOM     12  C   UNL     1     144.388  72.020 220.497 -0.34 -0.00    +0.000 A  
DOCKED: ATOM     13  C   UNL     1     145.574  72.745 220.630 -0.55 -0.00    +0.000 A  
DOCKED: ENDBRANCH   6   8
DOCKED: ENDBRANCH   5   6
DOCKED: ENDBRANCH   2   5
DOCKED: ENDBRANCH   1   2
DOCKED: BRANCH   1  14
DOCKED: ATOM     14  N   UNL     1     138.947  71.034 221.691 -0.07 +0.04    -0.218 NA 
DOCKED: BRANCH  14  15
DOCKED: ATOM     15  C   UNL     1     138.491  71.192 222.902 -0.15 -0.05    +0.237 C  
DOCKED: BRANCH  15  16
DOCKED: ATOM     16  O   UNL     1     137.547  72.187 223.142 -0.03 +0.18    -0.492 OA 
DOCKED: ATOM     17  H   UNL     1     137.793  73.168 223.082 -0.44 -0.18    +0.295 HD 
DOCKED: ENDBRANCH  15  16
DOCKED: BRANCH  15  18
DOCKED: ATOM     18  C   UNL     1     138.918  70.357 224.043 -0.27 -0.02    +0.126 A  
DOCKED: ATOM     19  N   UNL     1     139.554  70.949 225.090 -0.26 +0.05    -0.243 NA 
DOCKED: ATOM     20  C   UNL     1     138.765  68.961 224.024 -0.30 -0.00    +0.035 A  
DOCKED: ATOM     21  C   UNL     1     140.012  70.235 226.153 -0.47 -0.01    +0.071 A  
DOCKED: ATOM     22  C   UNL     1     139.222  68.201 225.103 -0.44 -0.00    +0.013 A  
DOCKED: ATOM     23  C   UNL     1     140.648  70.886 227.217 -0.65 -0.01    +0.032 A  
DOCKED: ATOM     24  C   UNL     1     139.849  68.832 226.182 -0.53 -0.00    +0.003 A  
DOCKED: ATOM     25  C   UNL     1     141.117  70.148 228.309 -0.51 -0.01    +0.041 A  
DOCKED: ATOM     26  C   UNL     1     140.324  68.099 227.281 -0.63 -0.01    +0.049 A  
DOCKED: ATOM     27  C   UNL     1     140.955  68.758 228.341 -0.54 -0.03    +0.123 A  
DOCKED: ATOM     28  F   UNL     1     141.413  68.049 229.402 -0.14 +0.05    -0.207 F  
DOCKED: ENDBRANCH  15  18
DOCKED: ENDBRANCH  14  15
DOCKED: ENDBRANCH   1  14
DOCKED: TORSDOF 9
DOCKED: TER
DOCKED: ENDMDL
________________________________________________________________________________


    FINAL DOCKED STATE:
    ________________________


Run:   6 / 20
Time taken for this run:   0.079s

DOCKED: MODEL        6
DOCKED: USER    Run = 6
DOCKED: USER
DOCKED: USER    Estimated Free Energy of Binding    =  -7.86 kcal/mol  [=(1)+(2)+(3)-(4)]
DOCKED: USER
DOCKED: USER    (1) Final Intermolecular Energy     = -10.55 kcal/mol
DOCKED: USER        vdW + Hbond + desolv Energy     = -10.77 kcal/mol
DOCKED: USER        Electrostatic Energy            =  +0.22 kcal/mol
DOCKED: USER        Moving Ligand-Fixed Receptor    = -10.55 kcal/mol
DOCKED: USER        Moving Ligand-Moving Receptor   =  +0.00 kcal/mol
DOCKED: USER    (2) Final Total Internal Energy     =  -2.03 kcal/mol
DOCKED: USER    (3) Torsional Free Energy           =  +2.68 kcal/mol
DOCKED: USER    (4) Unbound System's Energy         =  -2.03 kcal/mol
DOCKED: USER
DOCKED: USER
DOCKED: REMARK SMILES C[C@H]([N-]/C(O)=C/N=C(/O)c1ccc2cc(F)ccc2n1)c1ccccc1
DOCKED: REMARK SMILES IDX 6 1 4 2 5 3 3 5 2 6 1 7 21 8 22 9 26 10 23 11 25 12 24 13
DOCKED: REMARK SMILES IDX 7 14 8 15 9 16 10 18 20 19 11 20 19 21 12 22 18 23 13 24
DOCKED: REMARK SMILES IDX 17 25 14 26 15 27 16 28
DOCKED: REMARK H PARENT 5 4 9 17
DOCKED: USER                              x       y       z     vdW  Elec       q    Type
DOCKED: USER                           _______ _______ _______ _____ _____    ______ ____
DOCKED: ROOT
DOCKED: ATOM      1  C   UNL     1     140.810  74.296 221.318 -0.25 -0.02    +0.136 C  
DOCKED: ENDROOT
DOCKED: BRANCH   1   2
DOCKED: ATOM      2  C   UNL     1     140.197  75.440 221.632 -0.32 -0.01    +0.029 C  
DOCKED: BRANCH   2   3
DOCKED: ATOM      3  O   UNL     1     139.334  75.523 222.726 -0.34 +0.09    -0.529 OA 
DOCKED: ATOM      4  H   UNL     1     139.209  74.766 223.388 -0.44 -0.11    +0.290 HD 
DOCKED: ENDBRANCH   2   3
DOCKED: BRANCH   2   5
DOCKED: ATOM      5  N   UNL     1     140.445  76.598 220.824 +0.03 +0.21    -0.647 NA 
DOCKED: BRANCH   5   6
DOCKED: ATOM      6  C   UNL     1     141.719  77.311 220.726 -0.23 +0.05    -0.079 C  
DOCKED: ATOM      7  C   UNL     1     141.974  77.773 219.285 -0.28 +0.00    -0.008 C  
DOCKED: BRANCH   6   8
DOCKED: ATOM      8  C   UNL     1     141.804  78.407 221.778 -0.33 +0.04    -0.063 A  
DOCKED: ATOM      9  C   UNL     1     142.175  79.733 221.471 -0.39 -0.00    +0.002 A  
DOCKED: ATOM     10  C   UNL     1     141.445  78.096 223.102 -0.51 -0.00    +0.002 A  
DOCKED: ATOM     11  C   UNL     1     142.206  80.709 222.470 -0.56 -0.00    +0.000 A  
DOCKED: ATOM     12  C   UNL     1     141.478  79.077 224.098 -0.57 -0.00    +0.000 A  
DOCKED: ATOM     13  C   UNL     1     141.861  80.382 223.783 -0.61 -0.00    +0.000 A  
DOCKED: ENDBRANCH   6   8
DOCKED: ENDBRANCH   5   6
DOCKED: ENDBRANCH   2   5
DOCKED: ENDBRANCH   1   2
DOCKED: BRANCH   1  14
DOCKED: ATOM     14  N   UNL     1     140.799  73.181 222.219 -0.57 +0.00    -0.218 NA 
DOCKED: BRANCH  14  15
DOCKED: ATOM     15  C   UNL     1     139.746  72.616 222.741 -0.13 -0.04    +0.237 C  
DOCKED: BRANCH  15  16
DOCKED: ATOM     16  O   UNL     1     138.484  73.017 222.310 -0.09 +0.16    -0.492 OA 
DOCKED: ATOM     17  H   UNL     1     138.012  73.806 222.735 -0.48 -0.16    +0.295 HD 
DOCKED: ENDBRANCH  15  16
DOCKED: BRANCH  15  18
DOCKED: ATOM     18  C   UNL     1     139.820  71.555 223.765 -0.32 -0.03    +0.126 A  
DOCKED: ATOM     19  N   UNL     1     140.327  71.859 224.991 -0.26 +0.04    -0.243 NA 
DOCKED: ATOM     20  C   UNL     1     139.467  70.228 223.470 -0.27 -0.01    +0.035 A  
DOCKED: ATOM     21  C   UNL     1     140.464  70.921 225.967 -0.54 -0.01    +0.071 A  
DOCKED: ATOM     22  C   UNL     1     139.594  69.244 224.452 -0.31 -0.00    +0.013 A  
DOCKED: ATOM     23  C   UNL     1     140.976  71.279 227.220 -0.71 -0.01    +0.032 A  
DOCKED: ATOM     24  C   UNL     1     140.092  69.582 225.715 -0.47 -0.00    +0.003 A  
DOCKED: ATOM     25  C   UNL     1     141.115  70.313 228.221 -0.52 -0.01    +0.041 A  
DOCKED: ATOM     26  C   UNL     1     140.235  68.618 226.726 -0.58 -0.01    +0.049 A  
DOCKED: ATOM     27  C   UNL     1     140.745  68.986 227.975 -0.53 -0.03    +0.123 A  
DOCKED: ATOM     28  F   UNL     1     140.883  68.054 228.950 -0.18 +0.06    -0.207 F  
DOCKED: ENDBRANCH  15  18
DOCKED: ENDBRANCH  14  15
DOCKED: ENDBRANCH   1  14
DOCKED: TORSDOF 9
DOCKED: TER
DOCKED: ENDMDL
________________________________________________________________________________


    FINAL DOCKED STATE:
    ________________________


Run:   7 / 20
Time taken for this run:   0.079s

DOCKED: MODEL        7
DOCKED: USER    Run = 7
DOCKED: USER
DOCKED: USER    Estimated Free Energy of Binding    =  -7.20 kcal/mol  [=(1)+(2)+(3)-(4)]
DOCKED: USER
DOCKED: USER    (1) Final Intermolecular Energy     =  -9.88 kcal/mol
DOCKED: USER        vdW + Hbond + desolv Energy     =  -9.96 kcal/mol
DOCKED: USER        Electrostatic Energy            =  +0.07 kcal/mol
DOCKED: USER        Moving Ligand-Fixed Receptor    =  -9.88 kcal/mol
DOCKED: USER        Moving Ligand-Moving Receptor   =  +0.00 kcal/mol
DOCKED: USER    (2) Final Total Internal Energy     =  -2.04 kcal/mol
DOCKED: USER    (3) Torsional Free Energy           =  +2.68 kcal/mol
DOCKED: USER    (4) Unbound System's Energy         =  -2.04 kcal/mol
DOCKED: USER
DOCKED: USER
DOCKED: REMARK SMILES C[C@H]([N-]/C(O)=C/N=C(/O)c1ccc2cc(F)ccc2n1)c1ccccc1
DOCKED: REMARK SMILES IDX 6 1 4 2 5 3 3 5 2 6 1 7 21 8 22 9 26 10 23 11 25 12 24 13
DOCKED: REMARK SMILES IDX 7 14 8 15 9 16 10 18 20 19 11 20 19 21 12 22 18 23 13 24
DOCKED: REMARK SMILES IDX 17 25 14 26 15 27 16 28
DOCKED: REMARK H PARENT 5 4 9 17
DOCKED: USER                              x       y       z     vdW  Elec       q    Type
DOCKED: USER                           _______ _______ _______ _____ _____    ______ ____
DOCKED: ROOT
DOCKED: ATOM      1  C   UNL     1     140.787  72.415 221.990 -0.24 -0.01    +0.136 C  
DOCKED: ENDROOT
DOCKED: BRANCH   1   2
DOCKED: ATOM      2  C   UNL     1     139.792  71.879 222.701 -0.31 -0.01    +0.029 C  
DOCKED: BRANCH   2   3
DOCKED: ATOM      3  O   UNL     1     138.515  72.442 222.700 -0.05 +0.18    -0.529 OA 
DOCKED: ATOM      4  H   UNL     1     138.335  73.400 222.978 -0.47 -0.18    +0.290 HD 
DOCKED: ENDBRANCH   2   3
DOCKED: BRANCH   2   5
DOCKED: ATOM      5  N   UNL     1     140.055  70.699 223.470 +0.04 +0.10    -0.647 NA 
DOCKED: BRANCH   5   6
DOCKED: ATOM      6  C   UNL     1     139.275  70.241 224.621 -0.35 +0.01    -0.079 C  
DOCKED: ATOM      7  C   UNL     1     138.974  68.740 224.512 -0.37 +0.00    -0.008 C  
DOCKED: BRANCH   6   8
DOCKED: ATOM      8  C   UNL     1     139.934  70.672 225.922 -0.46 +0.01    -0.063 A  
DOCKED: ATOM      9  C   UNL     1     139.827  69.928 227.116 -0.55 -0.00    +0.002 A  
DOCKED: ATOM     10  C   UNL     1     140.727  71.835 225.920 -0.55 -0.00    +0.002 A  
DOCKED: ATOM     11  C   UNL     1     140.480  70.353 228.276 -0.59 -0.00    +0.000 A  
DOCKED: ATOM     12  C   UNL     1     141.377  72.256 227.084 -0.79 -0.00    +0.000 A  
DOCKED: ATOM     13  C   UNL     1     141.252  71.517 228.262 -0.73 -0.00    +0.000 A  
DOCKED: ENDBRANCH   6   8
DOCKED: ENDBRANCH   5   6
DOCKED: ENDBRANCH   2   5
DOCKED: ENDBRANCH   1   2
DOCKED: BRANCH   1  14
DOCKED: ATOM     14  N   UNL     1     141.010  73.832 221.984 -0.62 +0.00    -0.218 NA 
DOCKED: BRANCH  14  15
DOCKED: ATOM     15  C   UNL     1     140.182  74.746 221.560 -0.22 -0.04    +0.237 C  
DOCKED: BRANCH  15  16
DOCKED: ATOM     16  O   UNL     1     138.911  74.361 221.144 -0.06 +0.11    -0.492 OA 
DOCKED: ATOM     17  H   UNL     1     138.536  73.449 221.380 +0.06 -0.07    +0.295 HD 
DOCKED: ENDBRANCH  15  16
DOCKED: BRANCH  15  18
DOCKED: ATOM     18  C   UNL     1     140.520  76.182 221.509 -0.29 -0.04    +0.126 A  
DOCKED: ATOM     19  N   UNL     1     141.009  76.784 222.627 -0.26 +0.09    -0.243 NA 
DOCKED: ATOM     20  C   UNL     1     140.260  76.953 220.364 -0.15 -0.01    +0.035 A  
DOCKED: ATOM     21  C   UNL     1     141.299  78.112 222.663 -0.42 -0.03    +0.071 A  
DOCKED: ATOM     22  C   UNL     1     140.550  78.319 220.369 -0.19 -0.00    +0.013 A  
DOCKED: ATOM     23  C   UNL     1     141.815  78.689 223.830 -0.59 -0.01    +0.032 A  
DOCKED: ATOM     24  C   UNL     1     141.078  78.913 221.521 -0.34 -0.00    +0.003 A  
DOCKED: ATOM     25  C   UNL     1     142.113  80.054 223.863 -0.59 -0.01    +0.041 A  
DOCKED: ATOM     26  C   UNL     1     141.380  80.283 221.562 -0.36 -0.02    +0.049 A  
DOCKED: ATOM     27  C   UNL     1     141.896  80.850 222.732 -0.47 -0.03    +0.123 A  
DOCKED: ATOM     28  F   UNL     1     142.188  82.174 222.771 -0.01 +0.03    -0.207 F  
DOCKED: ENDBRANCH  15  18
DOCKED: ENDBRANCH  14  15
DOCKED: ENDBRANCH   1  14
DOCKED: TORSDOF 9
DOCKED: TER
DOCKED: ENDMDL
________________________________________________________________________________


    FINAL DOCKED STATE:
    ________________________


Run:   8 / 20
Time taken for this run:   0.079s

DOCKED: MODEL        8
DOCKED: USER    Run = 8
DOCKED: USER
DOCKED: USER    Estimated Free Energy of Binding    =  -6.79 kcal/mol  [=(1)+(2)+(3)-(4)]
DOCKED: USER
DOCKED: USER    (1) Final Intermolecular Energy     =  -9.48 kcal/mol
DOCKED: USER        vdW + Hbond + desolv Energy     =  -9.55 kcal/mol
DOCKED: USER        Electrostatic Energy            =  +0.07 kcal/mol
DOCKED: USER        Moving Ligand-Fixed Receptor    =  -9.48 kcal/mol
DOCKED: USER        Moving Ligand-Moving Receptor   =  +0.00 kcal/mol
DOCKED: USER    (2) Final Total Internal Energy     =  -2.38 kcal/mol
DOCKED: USER    (3) Torsional Free Energy           =  +2.68 kcal/mol
DOCKED: USER    (4) Unbound System's Energy         =  -2.38 kcal/mol
DOCKED: USER
DOCKED: USER
DOCKED: REMARK SMILES C[C@H]([N-]/C(O)=C/N=C(/O)c1ccc2cc(F)ccc2n1)c1ccccc1
DOCKED: REMARK SMILES IDX 6 1 4 2 5 3 3 5 2 6 1 7 21 8 22 9 26 10 23 11 25 12 24 13
DOCKED: REMARK SMILES IDX 7 14 8 15 9 16 10 18 20 19 11 20 19 21 12 22 18 23 13 24
DOCKED: REMARK SMILES IDX 17 25 14 26 15 27 16 28
DOCKED: REMARK H PARENT 5 4 9 17
DOCKED: USER                              x       y       z     vdW  Elec       q    Type
DOCKED: USER                           _______ _______ _______ _____ _____    ______ ____
DOCKED: ROOT
DOCKED: ATOM      1  C   UNL     1     140.254  72.400 220.782 -0.13 -0.02    +0.136 C  
DOCKED: ENDROOT
DOCKED: BRANCH   1   2
DOCKED: ATOM      2  C   UNL     1     140.461  73.549 221.429 -0.27 -0.00    +0.029 C  
DOCKED: BRANCH   2   3
DOCKED: ATOM      3  O   UNL     1     139.952  73.761 222.712 -0.61 -0.01    -0.529 OA 
DOCKED: ATOM      4  H   UNL     1     139.633  73.008 223.309 -0.28 -0.08    +0.290 HD 
DOCKED: ENDBRANCH   2   3
DOCKED: BRANCH   2   5
DOCKED: ATOM      5  N   UNL     1     141.228  74.573 220.784 -0.02 +0.15    -0.647 NA 
DOCKED: BRANCH   5   6
DOCKED: ATOM      6  C   UNL     1     142.035  74.400 219.575 -0.17 +0.02    -0.079 C  
DOCKED: ATOM      7  C   UNL     1     142.040  75.684 218.735 -0.18 +0.00    -0.008 C  
DOCKED: BRANCH   6   8
DOCKED: ATOM      8  C   UNL     1     143.411  73.852 219.922 -0.29 +0.02    -0.063 A  
DOCKED: ATOM      9  C   UNL     1     144.445  74.658 220.444 -0.45 -0.00    +0.002 A  
DOCKED: ATOM     10  C   UNL     1     143.644  72.473 219.764 -0.25 -0.00    +0.002 A  
DOCKED: ATOM     11  C   UNL     1     145.681  74.098 220.776 -0.63 -0.00    +0.000 A  
DOCKED: ATOM     12  C   UNL     1     144.884  71.918 220.098 -0.34 +0.00    +0.000 A  
DOCKED: ATOM     13  C   UNL     1     145.902  72.730 220.601 -0.56 +0.00    +0.000 A  
DOCKED: ENDBRANCH   6   8
DOCKED: ENDBRANCH   5   6
DOCKED: ENDBRANCH   2   5
DOCKED: ENDBRANCH   1   2
DOCKED: BRANCH   1  14
DOCKED: ATOM     14  N   UNL     1     139.392  71.392 221.327 -0.07 +0.04    -0.218 NA 
DOCKED: BRANCH  14  15
DOCKED: ATOM     15  C   UNL     1     138.741  71.454 222.455 -0.14 -0.05    +0.237 C  
DOCKED: BRANCH  15  16
DOCKED: ATOM     16  O   UNL     1     137.684  72.352 222.573 -0.05 +0.16    -0.492 OA 
DOCKED: ATOM     17  H   UNL     1     137.843  73.315 222.846 -0.41 -0.16    +0.295 HD 
DOCKED: ENDBRANCH  15  16
DOCKED: BRANCH  15  18
DOCKED: ATOM     18  C   UNL     1     139.060  70.607 223.621 -0.25 -0.02    +0.126 A  
DOCKED: ATOM     19  N   UNL     1     139.701  71.166 224.684 -0.27 +0.05    -0.243 NA 
DOCKED: ATOM     20  C   UNL     1     138.801  69.227 223.616 -0.26 -0.01    +0.035 A  
DOCKED: ATOM     21  C   UNL     1     140.064  70.436 225.773 -0.47 -0.01    +0.071 A  
DOCKED: ATOM     22  C   UNL     1     139.159  68.452 224.720 -0.38 -0.00    +0.013 A  
DOCKED: ATOM     23  C   UNL     1     140.708  71.054 226.851 -0.65 -0.01    +0.032 A  
DOCKED: ATOM     24  C   UNL     1     139.793  69.051 225.814 -0.48 -0.00    +0.003 A  
DOCKED: ATOM     25  C   UNL     1     141.079  70.300 227.970 -0.58 -0.01    +0.041 A  
DOCKED: ATOM     26  C   UNL     1     140.169  68.301 226.940 -0.61 -0.01    +0.049 A  
DOCKED: ATOM     27  C   UNL     1     140.810  68.927 228.014 -0.53 -0.03    +0.123 A  
DOCKED: ATOM     28  F   UNL     1     141.173  68.202 229.101 -0.18 +0.05    -0.207 F  
DOCKED: ENDBRANCH  15  18
DOCKED: ENDBRANCH  14  15
DOCKED: ENDBRANCH   1  14
DOCKED: TORSDOF 9
DOCKED: TER
DOCKED: ENDMDL
________________________________________________________________________________


    FINAL DOCKED STATE:
    ________________________


Run:   9 / 20
Time taken for this run:   0.079s

DOCKED: MODEL        9
DOCKED: USER    Run = 9
DOCKED: USER
DOCKED: USER    Estimated Free Energy of Binding    =  -7.82 kcal/mol  [=(1)+(2)+(3)-(4)]
DOCKED: USER
DOCKED: USER    (1) Final Intermolecular Energy     = -10.51 kcal/mol
DOCKED: USER        vdW + Hbond + desolv Energy     = -10.71 kcal/mol
DOCKED: USER        Electrostatic Energy            =  +0.20 kcal/mol
DOCKED: USER        Moving Ligand-Fixed Receptor    = -10.51 kcal/mol
DOCKED: USER        Moving Ligand-Moving Receptor   =  +0.00 kcal/mol
DOCKED: USER    (2) Final Total Internal Energy     =  -2.02 kcal/mol
DOCKED: USER    (3) Torsional Free Energy           =  +2.68 kcal/mol
DOCKED: USER    (4) Unbound System's Energy         =  -2.02 kcal/mol
DOCKED: USER
DOCKED: USER
DOCKED: REMARK SMILES C[C@H]([N-]/C(O)=C/N=C(/O)c1ccc2cc(F)ccc2n1)c1ccccc1
DOCKED: REMARK SMILES IDX 6 1 4 2 5 3 3 5 2 6 1 7 21 8 22 9 26 10 23 11 25 12 24 13
DOCKED: REMARK SMILES IDX 7 14 8 15 9 16 10 18 20 19 11 20 19 21 12 22 18 23 13 24
DOCKED: REMARK SMILES IDX 17 25 14 26 15 27 16 28
DOCKED: REMARK H PARENT 5 4 9 17
DOCKED: USER                              x       y       z     vdW  Elec       q    Type
DOCKED: USER                           _______ _______ _______ _____ _____    ______ ____
DOCKED: ROOT
DOCKED: ATOM      1  C   UNL     1     140.716  74.188 221.208 -0.24 -0.02    +0.136 C  
DOCKED: ENDROOT
DOCKED: BRANCH   1   2
DOCKED: ATOM      2  C   UNL     1     140.163  75.346 221.575 -0.32 -0.01    +0.029 C  
DOCKED: BRANCH   2   3
DOCKED: ATOM      3  O   UNL     1     139.385  75.445 222.731 -0.35 +0.09    -0.529 OA 
DOCKED: ATOM      4  H   UNL     1     139.206  74.658 223.342 -0.45 -0.11    +0.290 HD 
DOCKED: ENDBRANCH   2   3
DOCKED: BRANCH   2   5
DOCKED: ATOM      5  N   UNL     1     140.385  76.503 220.760 +0.03 +0.21    -0.647 NA 
DOCKED: BRANCH   5   6
DOCKED: ATOM      6  C   UNL     1     141.627  77.276 220.697 -0.24 +0.04    -0.079 C  
DOCKED: ATOM      7  C   UNL     1     141.951  77.668 219.249 -0.28 +0.00    -0.008 C  
DOCKED: BRANCH   6   8
DOCKED: ATOM      8  C   UNL     1     141.592  78.431 221.684 -0.35 +0.03    -0.063 A  
DOCKED: ATOM      9  C   UNL     1     141.398  78.247 223.070 -0.54 -0.00    +0.002 A  
DOCKED: ATOM     10  C   UNL     1     141.814  79.734 221.202 -0.39 -0.00    +0.002 A  
DOCKED: ATOM     11  C   UNL     1     141.406  79.341 223.939 -0.58 -0.00    +0.000 A  
DOCKED: ATOM     12  C   UNL     1     141.821  80.826 222.076 -0.49 -0.00    +0.000 A  
DOCKED: ATOM     13  C   UNL     1     141.615  80.630 223.443 -0.58 -0.00    +0.000 A  
DOCKED: ENDBRANCH   6   8
DOCKED: ENDBRANCH   5   6
DOCKED: ENDBRANCH   2   5
DOCKED: ENDBRANCH   1   2
DOCKED: BRANCH   1  14
DOCKED: ATOM     14  N   UNL     1     140.696  73.051 222.083 -0.52 +0.01    -0.218 NA 
DOCKED: BRANCH  14  15
DOCKED: ATOM     15  C   UNL     1     139.652  72.551 222.681 -0.15 -0.05    +0.237 C  
DOCKED: BRANCH  15  16
DOCKED: ATOM     16  O   UNL     1     138.385  72.989 222.302 -0.08 +0.16    -0.492 OA 
DOCKED: ATOM     17  H   UNL     1     137.967  73.809 222.725 -0.48 -0.15    +0.295 HD 
DOCKED: ENDBRANCH  15  16
DOCKED: BRANCH  15  18
DOCKED: ATOM     18  C   UNL     1     139.739  71.527 223.742 -0.32 -0.03    +0.126 A  
DOCKED: ATOM     19  N   UNL     1     140.253  71.876 224.952 -0.23 +0.05    -0.243 NA 
DOCKED: ATOM     20  C   UNL     1     139.391  70.189 223.496 -0.27 -0.01    +0.035 A  
DOCKED: ATOM     21  C   UNL     1     140.403  70.974 225.960 -0.53 -0.01    +0.071 A  
DOCKED: ATOM     22  C   UNL     1     139.530  69.241 224.511 -0.33 -0.00    +0.013 A  
DOCKED: ATOM     23  C   UNL     1     140.922  71.378 227.195 -0.72 -0.01    +0.032 A  
DOCKED: ATOM     24  C   UNL     1     140.036  69.626 225.758 -0.47 -0.00    +0.003 A  
DOCKED: ATOM     25  C   UNL     1     141.074  70.449 228.228 -0.55 -0.01    +0.041 A  
DOCKED: ATOM     26  C   UNL     1     140.191  68.698 226.800 -0.57 -0.01    +0.049 A  
DOCKED: ATOM     27  C   UNL     1     140.709  69.112 228.031 -0.53 -0.03    +0.123 A  
DOCKED: ATOM     28  F   UNL     1     140.859  68.215 229.038 -0.18 +0.05    -0.207 F  
DOCKED: ENDBRANCH  15  18
DOCKED: ENDBRANCH  14  15
DOCKED: ENDBRANCH   1  14
DOCKED: TORSDOF 9
DOCKED: TER
DOCKED: ENDMDL
________________________________________________________________________________


    FINAL DOCKED STATE:
    ________________________


Run:   10 / 20
Time taken for this run:   0.079s

DOCKED: MODEL        10
DOCKED: USER    Run = 10
DOCKED: USER
DOCKED: USER    Estimated Free Energy of Binding    =  -7.85 kcal/mol  [=(1)+(2)+(3)-(4)]
DOCKED: USER
DOCKED: USER    (1) Final Intermolecular Energy     = -10.54 kcal/mol
DOCKED: USER        vdW + Hbond + desolv Energy     = -10.55 kcal/mol
DOCKED: USER        Electrostatic Energy            =  +0.01 kcal/mol
DOCKED: USER        Moving Ligand-Fixed Receptor    = -10.54 kcal/mol
DOCKED: USER        Moving Ligand-Moving Receptor   =  +0.00 kcal/mol
DOCKED: USER    (2) Final Total Internal Energy     =  -1.72 kcal/mol
DOCKED: USER    (3) Torsional Free Energy           =  +2.68 kcal/mol
DOCKED: USER    (4) Unbound System's Energy         =  -1.72 kcal/mol
DOCKED: USER
DOCKED: USER
DOCKED: REMARK SMILES C[C@H]([N-]/C(O)=C/N=C(/O)c1ccc2cc(F)ccc2n1)c1ccccc1
DOCKED: REMARK SMILES IDX 6 1 4 2 5 3 3 5 2 6 1 7 21 8 22 9 26 10 23 11 25 12 24 13
DOCKED: REMARK SMILES IDX 7 14 8 15 9 16 10 18 20 19 11 20 19 21 12 22 18 23 13 24
DOCKED: REMARK SMILES IDX 17 25 14 26 15 27 16 28
DOCKED: REMARK H PARENT 5 4 9 17
DOCKED: USER                              x       y       z     vdW  Elec       q    Type
DOCKED: USER                           _______ _______ _______ _____ _____    ______ ____
DOCKED: ROOT
DOCKED: ATOM      1  C   UNL     1     140.326  72.467 221.788 -0.23 -0.02    +0.136 C  
DOCKED: ENDROOT
DOCKED: BRANCH   1   2
DOCKED: ATOM      2  C   UNL     1     139.515  71.887 222.675 -0.29 -0.01    +0.029 C  
DOCKED: BRANCH   2   3
DOCKED: ATOM      3  O   UNL     1     138.192  72.305 222.830 -0.02 +0.19    -0.529 OA 
DOCKED: ATOM      4  H   UNL     1     137.917  73.279 222.817 -0.41 -0.15    +0.290 HD 
DOCKED: ENDBRANCH   2   3
DOCKED: BRANCH   2   5
DOCKED: ATOM      5  N   UNL     1     140.025  70.811 223.473 +0.02 +0.10    -0.647 NA 
DOCKED: BRANCH   5   6
DOCKED: ATOM      6  C   UNL     1     139.371  70.240 224.652 -0.35 +0.01    -0.079 C  
DOCKED: ATOM      7  C   UNL     1     139.217  68.720 224.505 -0.35 +0.00    -0.008 C  
DOCKED: BRANCH   6   8
DOCKED: ATOM      8  C   UNL     1     140.065  70.697 225.925 -0.49 +0.01    -0.063 A  
DOCKED: ATOM      9  C   UNL     1     140.817  71.889 226.000 -0.57 -0.00    +0.002 A  
DOCKED: ATOM     10  C   UNL     1     139.907  69.925 227.091 -0.56 -0.00    +0.002 A  
DOCKED: ATOM     11  C   UNL     1     141.408  72.279 227.205 -0.81 -0.00    +0.000 A  
DOCKED: ATOM     12  C   UNL     1     140.502  70.320 228.294 -0.59 -0.00    +0.000 A  
DOCKED: ATOM     13  C   UNL     1     141.254  71.495 228.350 -0.71 -0.00    +0.000 A  
DOCKED: ENDBRANCH   6   8
DOCKED: ENDBRANCH   5   6
DOCKED: ENDBRANCH   2   5
DOCKED: ENDBRANCH   1   2
DOCKED: BRANCH   1  14
DOCKED: ATOM     14  N   UNL     1     140.766  73.821 221.965 -0.71 +0.01    -0.218 NA 
DOCKED: BRANCH  14  15
DOCKED: ATOM     15  C   UNL     1     140.015  74.886 221.972 -0.14 -0.03    +0.237 C  
DOCKED: BRANCH  15  16
DOCKED: ATOM     16  O   UNL     1     138.639  74.738 222.128 -0.18 +0.14    -0.492 OA 
DOCKED: ATOM     17  H   UNL     1     138.236  74.512 223.030 -0.47 -0.19    +0.295 HD 
DOCKED: ENDBRANCH  15  16
DOCKED: BRANCH  15  18
DOCKED: ATOM     18  C   UNL     1     140.550  76.255 221.832 -0.32 -0.04    +0.126 A  
DOCKED: ATOM     19  N   UNL     1     140.164  77.206 222.726 -0.22 +0.06    -0.243 NA 
DOCKED: ATOM     20  C   UNL     1     141.368  76.613 220.748 -0.28 -0.02    +0.035 A  
DOCKED: ATOM     21  C   UNL     1     140.584  78.497 222.632 -0.39 -0.02    +0.071 A  
DOCKED: ATOM     22  C   UNL     1     141.818  77.929 220.626 -0.32 -0.01    +0.013 A  
DOCKED: ATOM     23  C   UNL     1     140.176  79.441 223.581 -0.44 -0.01    +0.032 A  
DOCKED: ATOM     24  C   UNL     1     141.432  78.886 221.571 -0.38 -0.00    +0.003 A  
DOCKED: ATOM     25  C   UNL     1     140.610  80.766 223.481 -0.44 -0.01    +0.041 A  
DOCKED: ATOM     26  C   UNL     1     141.863  80.219 221.478 -0.40 -0.02    +0.049 A  
DOCKED: ATOM     27  C   UNL     1     141.451  81.155 222.432 -0.40 -0.03    +0.123 A  
DOCKED: ATOM     28  F   UNL     1     141.868  82.442 222.342 -0.08 +0.03    -0.207 F  
DOCKED: ENDBRANCH  15  18
DOCKED: ENDBRANCH  14  15
DOCKED: ENDBRANCH   1  14
DOCKED: TORSDOF 9
DOCKED: TER
DOCKED: ENDMDL
________________________________________________________________________________


    FINAL DOCKED STATE:
    ________________________


Run:   11 / 20
Time taken for this run:   0.079s

DOCKED: MODEL        11
DOCKED: USER    Run = 11
DOCKED: USER
DOCKED: USER    Estimated Free Energy of Binding    =  -7.88 kcal/mol  [=(1)+(2)+(3)-(4)]
DOCKED: USER
DOCKED: USER    (1) Final Intermolecular Energy     = -10.57 kcal/mol
DOCKED: USER        vdW + Hbond + desolv Energy     = -10.79 kcal/mol
DOCKED: USER        Electrostatic Energy            =  +0.22 kcal/mol
DOCKED: USER        Moving Ligand-Fixed Receptor    = -10.57 kcal/mol
DOCKED: USER        Moving Ligand-Moving Receptor   =  +0.00 kcal/mol
DOCKED: USER    (2) Final Total Internal Energy     =  -1.95 kcal/mol
DOCKED: USER    (3) Torsional Free Energy           =  +2.68 kcal/mol
DOCKED: USER    (4) Unbound System's Energy         =  -1.95 kcal/mol
DOCKED: USER
DOCKED: USER
DOCKED: REMARK SMILES C[C@H]([N-]/C(O)=C/N=C(/O)c1ccc2cc(F)ccc2n1)c1ccccc1
DOCKED: REMARK SMILES IDX 6 1 4 2 5 3 3 5 2 6 1 7 21 8 22 9 26 10 23 11 25 12 24 13
DOCKED: REMARK SMILES IDX 7 14 8 15 9 16 10 18 20 19 11 20 19 21 12 22 18 23 13 24
DOCKED: REMARK SMILES IDX 17 25 14 26 15 27 16 28
DOCKED: REMARK H PARENT 5 4 9 17
DOCKED: USER                              x       y       z     vdW  Elec       q    Type
DOCKED: USER                           _______ _______ _______ _____ _____    ______ ____
DOCKED: ROOT
DOCKED: ATOM      1  C   UNL     1     140.901  74.121 221.282 -0.24 -0.02    +0.136 C  
DOCKED: ENDROOT
DOCKED: BRANCH   1   2
DOCKED: ATOM      2  C   UNL     1     140.400  75.318 221.597 -0.33 -0.01    +0.029 C  
DOCKED: BRANCH   2   3
DOCKED: ATOM      3  O   UNL     1     139.529  75.478 222.676 -0.38 +0.07    -0.529 OA 
DOCKED: ATOM      4  H   UNL     1     139.284  74.721 223.303 -0.44 -0.08    +0.290 HD 
DOCKED: ENDBRANCH   2   3
DOCKED: BRANCH   2   5
DOCKED: ATOM      5  N   UNL     1     140.776  76.451 220.804 +0.02 +0.23    -0.647 NA 
DOCKED: BRANCH   5   6
DOCKED: ATOM      6  C   UNL     1     140.229  77.802 220.936 -0.19 +0.03    -0.079 C  
DOCKED: ATOM      7  C   UNL     1     138.733  77.753 221.276 -0.16 +0.00    -0.008 C  
DOCKED: BRANCH   6   8
DOCKED: ATOM      8  C   UNL     1     141.077  78.635 221.884 -0.35 +0.02    -0.063 A  
DOCKED: ATOM      9  C   UNL     1     141.825  79.753 221.458 -0.42 -0.00    +0.002 A  
DOCKED: ATOM     10  C   UNL     1     141.073  78.308 223.253 -0.49 -0.00    +0.002 A  
DOCKED: ATOM     11  C   UNL     1     142.562  80.504 222.377 -0.58 -0.00    +0.000 A  
DOCKED: ATOM     12  C   UNL     1     141.814  79.062 224.168 -0.58 -0.00    +0.000 A  
DOCKED: ATOM     13  C   UNL     1     142.560  80.159 223.730 -0.66 -0.00    +0.000 A  
DOCKED: ENDBRANCH   6   8
DOCKED: ENDBRANCH   5   6
DOCKED: ENDBRANCH   2   5
DOCKED: ENDBRANCH   1   2
DOCKED: BRANCH   1  14
DOCKED: ATOM     14  N   UNL     1     140.854  73.033 222.216 -0.52 +0.00    -0.218 NA 
DOCKED: BRANCH  14  15
DOCKED: ATOM     15  C   UNL     1     139.784  72.525 222.762 -0.14 -0.04    +0.237 C  
DOCKED: BRANCH  15  16
DOCKED: ATOM     16  O   UNL     1     138.536  72.969 222.335 -0.09 +0.16    -0.492 OA 
DOCKED: ATOM     17  H   UNL     1     138.126  73.818 222.709 -0.48 -0.15    +0.295 HD 
DOCKED: ENDBRANCH  15  16
DOCKED: BRANCH  15  18
DOCKED: ATOM     18  C   UNL     1     139.826  71.487 223.811 -0.34 -0.03    +0.126 A  
DOCKED: ATOM     19  N   UNL     1     140.347  71.801 225.028 -0.27 +0.04    -0.243 NA 
DOCKED: ATOM     20  C   UNL     1     139.427  70.166 223.548 -0.27 -0.01    +0.035 A  
DOCKED: ATOM     21  C   UNL     1     140.456  70.883 226.025 -0.54 -0.01    +0.071 A  
DOCKED: ATOM     22  C   UNL     1     139.523  69.201 224.552 -0.34 -0.00    +0.013 A  
DOCKED: ATOM     23  C   UNL     1     140.984  71.252 227.267 -0.70 -0.01    +0.032 A  
DOCKED: ATOM     24  C   UNL     1     140.037  69.552 225.806 -0.47 -0.00    +0.003 A  
DOCKED: ATOM     25  C   UNL     1     141.094  70.305 228.291 -0.52 -0.01    +0.041 A  
DOCKED: ATOM     26  C   UNL     1     140.151  68.607 226.838 -0.58 -0.01    +0.049 A  
DOCKED: ATOM     27  C   UNL     1     140.678  68.986 228.076 -0.54 -0.03    +0.123 A  
DOCKED: ATOM     28  F   UNL     1     140.788  68.073 229.073 -0.18 +0.05    -0.207 F  
DOCKED: ENDBRANCH  15  18
DOCKED: ENDBRANCH  14  15
DOCKED: ENDBRANCH   1  14
DOCKED: TORSDOF 9
DOCKED: TER
DOCKED: ENDMDL
________________________________________________________________________________


    FINAL DOCKED STATE:
    ________________________


Run:   12 / 20
Time taken for this run:   0.079s

DOCKED: MODEL        12
DOCKED: USER    Run = 12
DOCKED: USER
DOCKED: USER    Estimated Free Energy of Binding    =  -7.83 kcal/mol  [=(1)+(2)+(3)-(4)]
DOCKED: USER
DOCKED: USER    (1) Final Intermolecular Energy     = -10.51 kcal/mol
DOCKED: USER        vdW + Hbond + desolv Energy     = -10.53 kcal/mol
DOCKED: USER        Electrostatic Energy            =  +0.02 kcal/mol
DOCKED: USER        Moving Ligand-Fixed Receptor    = -10.51 kcal/mol
DOCKED: USER        Moving Ligand-Moving Receptor   =  +0.00 kcal/mol
DOCKED: USER    (2) Final Total Internal Energy     =  -1.78 kcal/mol
DOCKED: USER    (3) Torsional Free Energy           =  +2.68 kcal/mol
DOCKED: USER    (4) Unbound System's Energy         =  -1.78 kcal/mol
DOCKED: USER
DOCKED: USER
DOCKED: REMARK SMILES C[C@H]([N-]/C(O)=C/N=C(/O)c1ccc2cc(F)ccc2n1)c1ccccc1
DOCKED: REMARK SMILES IDX 6 1 4 2 5 3 3 5 2 6 1 7 21 8 22 9 26 10 23 11 25 12 24 13
DOCKED: REMARK SMILES IDX 7 14 8 15 9 16 10 18 20 19 11 20 19 21 12 22 18 23 13 24
DOCKED: REMARK SMILES IDX 17 25 14 26 15 27 16 28
DOCKED: REMARK H PARENT 5 4 9 17
DOCKED: USER                              x       y       z     vdW  Elec       q    Type
DOCKED: USER                           _______ _______ _______ _____ _____    ______ ____
DOCKED: ROOT
DOCKED: ATOM      1  C   UNL     1     140.475  72.411 221.822 -0.24 -0.02    +0.136 C  
DOCKED: ENDROOT
DOCKED: BRANCH   1   2
DOCKED: ATOM      2  C   UNL     1     139.633  71.872 222.706 -0.30 -0.01    +0.029 C  
DOCKED: BRANCH   2   3
DOCKED: ATOM      3  O   UNL     1     138.321  72.332 222.831 -0.01 +0.19    -0.529 OA 
DOCKED: ATOM      4  H   UNL     1     138.065  73.305 222.716 -0.43 -0.14    +0.290 HD 
DOCKED: ENDBRANCH   2   3
DOCKED: BRANCH   2   5
DOCKED: ATOM      5  N   UNL     1     140.097  70.796 223.531 +0.02 +0.10    -0.647 NA 
DOCKED: BRANCH   5   6
DOCKED: ATOM      6  C   UNL     1     139.379  70.225 224.671 -0.35 +0.01    -0.079 C  
DOCKED: ATOM      7  C   UNL     1     139.207  68.709 224.503 -0.35 +0.00    -0.008 C  
DOCKED: BRANCH   6   8
DOCKED: ATOM      8  C   UNL     1     140.017  70.659 225.981 -0.48 +0.01    -0.063 A  
DOCKED: ATOM      9  C   UNL     1     139.936  69.891 227.162 -0.57 -0.00    +0.002 A  
DOCKED: ATOM     10  C   UNL     1     140.765  71.852 226.002 -0.57 -0.00    +0.002 A  
DOCKED: ATOM     11  C   UNL     1     140.569  70.321 228.331 -0.58 -0.00    +0.000 A  
DOCKED: ATOM     12  C   UNL     1     141.395  72.277 227.175 -0.81 -0.00    +0.000 A  
DOCKED: ATOM     13  C   UNL     1     141.296  71.513 228.340 -0.71 -0.00    +0.000 A  
DOCKED: ENDBRANCH   6   8
DOCKED: ENDBRANCH   5   6
DOCKED: ENDBRANCH   2   5
DOCKED: ENDBRANCH   1   2
DOCKED: BRANCH   1  14
DOCKED: ATOM     14  N   UNL     1     140.912  73.771 221.953 -0.65 +0.00    -0.218 NA 
DOCKED: BRANCH  14  15
DOCKED: ATOM     15  C   UNL     1     140.154  74.832 221.960 -0.12 -0.03    +0.237 C  
DOCKED: BRANCH  15  16
DOCKED: ATOM     16  O   UNL     1     138.783  74.678 222.148 -0.22 +0.13    -0.492 OA 
DOCKED: ATOM     17  H   UNL     1     138.396  74.520 223.071 -0.48 -0.19    +0.295 HD 
DOCKED: ENDBRANCH  15  16
DOCKED: BRANCH  15  18
DOCKED: ATOM     18  C   UNL     1     140.677  76.202 221.789 -0.32 -0.04    +0.126 A  
DOCKED: ATOM     19  N   UNL     1     140.366  77.145 222.720 -0.24 +0.06    -0.243 NA 
DOCKED: ATOM     20  C   UNL     1     141.405  76.569 220.646 -0.28 -0.02    +0.035 A  
DOCKED: ATOM     21  C   UNL     1     140.778  78.437 222.603 -0.40 -0.02    +0.071 A  
DOCKED: ATOM     22  C   UNL     1     141.844  77.886 220.499 -0.32 -0.01    +0.013 A  
DOCKED: ATOM     23  C   UNL     1     140.449  79.372 223.590 -0.47 -0.01    +0.032 A  
DOCKED: ATOM     24  C   UNL     1     141.537  78.835 221.480 -0.38 -0.00    +0.003 A  
DOCKED: ATOM     25  C   UNL     1     140.875  80.699 223.467 -0.47 -0.01    +0.041 A  
DOCKED: ATOM     26  C   UNL     1     141.960  80.168 221.364 -0.38 -0.02    +0.049 A  
DOCKED: ATOM     27  C   UNL     1     141.629  81.096 222.357 -0.41 -0.03    +0.123 A  
DOCKED: ATOM     28  F   UNL     1     142.038  82.383 222.243 -0.01 +0.03    -0.207 F  
DOCKED: ENDBRANCH  15  18
DOCKED: ENDBRANCH  14  15
DOCKED: ENDBRANCH   1  14
DOCKED: TORSDOF 9
DOCKED: TER
DOCKED: ENDMDL
________________________________________________________________________________


    FINAL DOCKED STATE:
    ________________________


Run:   13 / 20
Time taken for this run:   0.079s

DOCKED: MODEL        13
DOCKED: USER    Run = 13
DOCKED: USER
DOCKED: USER    Estimated Free Energy of Binding    =  -5.88 kcal/mol  [=(1)+(2)+(3)-(4)]
DOCKED: USER
DOCKED: USER    (1) Final Intermolecular Energy     =  -8.57 kcal/mol
DOCKED: USER        vdW + Hbond + desolv Energy     =  -8.67 kcal/mol
DOCKED: USER        Electrostatic Energy            =  +0.10 kcal/mol
DOCKED: USER        Moving Ligand-Fixed Receptor    =  -8.57 kcal/mol
DOCKED: USER        Moving Ligand-Moving Receptor   =  +0.00 kcal/mol
DOCKED: USER    (2) Final Total Internal Energy     =  -2.78 kcal/mol
DOCKED: USER    (3) Torsional Free Energy           =  +2.68 kcal/mol
DOCKED: USER    (4) Unbound System's Energy         =  -2.78 kcal/mol
DOCKED: USER
DOCKED: USER
DOCKED: REMARK SMILES C[C@H]([N-]/C(O)=C/N=C(/O)c1ccc2cc(F)ccc2n1)c1ccccc1
DOCKED: REMARK SMILES IDX 6 1 4 2 5 3 3 5 2 6 1 7 21 8 22 9 26 10 23 11 25 12 24 13
DOCKED: REMARK SMILES IDX 7 14 8 15 9 16 10 18 20 19 11 20 19 21 12 22 18 23 13 24
DOCKED: REMARK SMILES IDX 17 25 14 26 15 27 16 28
DOCKED: REMARK H PARENT 5 4 9 17
DOCKED: USER                              x       y       z     vdW  Elec       q    Type
DOCKED: USER                           _______ _______ _______ _____ _____    ______ ____
DOCKED: ROOT
DOCKED: ATOM      1  C   UNL     1     139.428  74.596 220.265 -0.09 -0.03    +0.136 C  
DOCKED: ENDROOT
DOCKED: BRANCH   1   2
DOCKED: ATOM      2  C   UNL     1     140.315  74.030 221.086 -0.24 -0.00    +0.029 C  
DOCKED: BRANCH   2   3
DOCKED: ATOM      3  O   UNL     1     140.004  73.770 222.422 -0.69 +0.02    -0.529 OA 
DOCKED: ATOM      4  H   UNL     1     139.493  74.421 223.005 -0.42 -0.03    +0.290 HD 
DOCKED: ENDBRANCH   2   3
DOCKED: BRANCH   2   5
DOCKED: ATOM      5  N   UNL     1     141.607  73.684 220.570 +0.02 +0.13    -0.647 NA 
DOCKED: BRANCH   5   6
DOCKED: ATOM      6  C   UNL     1     142.821  74.490 220.702 -0.23 +0.03    -0.079 C  
DOCKED: ATOM      7  C   UNL     1     144.074  73.611 220.579 -0.41 +0.00    -0.008 C  
DOCKED: BRANCH   6   8
DOCKED: ATOM      8  C   UNL     1     142.779  75.685 219.762 -0.32 +0.03    -0.063 A  
DOCKED: ATOM      9  C   UNL     1     143.317  75.651 218.458 -0.28 -0.00    +0.002 A  
DOCKED: ATOM     10  C   UNL     1     142.128  76.856 220.193 -0.30 -0.00    +0.002 A  
DOCKED: ATOM     11  C   UNL     1     143.222  76.767 217.623 -0.28 -0.00    +0.000 A  
DOCKED: ATOM     12  C   UNL     1     142.037  77.970 219.354 -0.29 -0.00    +0.000 A  
DOCKED: ATOM     13  C   UNL     1     142.586  77.927 218.071 -0.32 -0.00    +0.000 A  
DOCKED: ENDBRANCH   6   8
DOCKED: ENDBRANCH   5   6
DOCKED: ENDBRANCH   2   5
DOCKED: ENDBRANCH   1   2
DOCKED: BRANCH   1  14
DOCKED: ATOM     14  N   UNL     1     138.752  75.808 220.630 -0.05 +0.05    -0.218 NA 
DOCKED: BRANCH  14  15
DOCKED: ATOM     15  C   UNL     1     138.549  76.248 221.840 -0.19 -0.05    +0.237 C  
DOCKED: BRANCH  15  16
DOCKED: ATOM     16  O   UNL     1     137.812  75.466 222.725 -0.10 +0.16    -0.492 OA 
DOCKED: ATOM     17  H   UNL     1     138.012  74.479 222.844 -0.46 -0.16    +0.295 HD 
DOCKED: ENDBRANCH  15  16
DOCKED: BRANCH  15  18
DOCKED: ATOM     18  C   UNL     1     139.072  77.538 222.331 -0.26 -0.03    +0.126 A  
DOCKED: ATOM     19  N   UNL     1     140.419  77.718 222.399 -0.23 +0.07    -0.243 NA 
DOCKED: ATOM     20  C   UNL     1     138.213  78.540 222.812 -0.25 -0.01    +0.035 A  
DOCKED: ATOM     21  C   UNL     1     140.970  78.865 222.882 -0.44 -0.02    +0.071 A  
DOCKED: ATOM     22  C   UNL     1     138.749  79.729 223.311 -0.35 -0.00    +0.013 A  
DOCKED: ATOM     23  C   UNL     1     142.361  79.015 222.921 -0.51 -0.02    +0.032 A  
DOCKED: ATOM     24  C   UNL     1     140.136  79.905 223.348 -0.44 -0.00    +0.003 A  
DOCKED: ATOM     25  C   UNL     1     142.924  80.195 223.417 -0.63 -0.01    +0.041 A  
DOCKED: ATOM     26  C   UNL     1     140.709  81.086 223.844 -0.31 -0.01    +0.049 A  
DOCKED: ATOM     27  C   UNL     1     142.100  81.229 223.878 -0.52 -0.02    +0.123 A  
DOCKED: ATOM     28  F   UNL     1     142.652  82.370 224.358 -0.07 +0.00    -0.207 F  
DOCKED: ENDBRANCH  15  18
DOCKED: ENDBRANCH  14  15
DOCKED: ENDBRANCH   1  14
DOCKED: TORSDOF 9
DOCKED: TER
DOCKED: ENDMDL
________________________________________________________________________________


    FINAL DOCKED STATE:
    ________________________


Run:   14 / 20
Time taken for this run:   0.079s

DOCKED: MODEL        14
DOCKED: USER    Run = 14
DOCKED: USER
DOCKED: USER    Estimated Free Energy of Binding    =  -7.24 kcal/mol  [=(1)+(2)+(3)-(4)]
DOCKED: USER
DOCKED: USER    (1) Final Intermolecular Energy     =  -9.93 kcal/mol
DOCKED: USER        vdW + Hbond + desolv Energy     = -10.14 kcal/mol
DOCKED: USER        Electrostatic Energy            =  +0.22 kcal/mol
DOCKED: USER        Moving Ligand-Fixed Receptor    =  -9.93 kcal/mol
DOCKED: USER        Moving Ligand-Moving Receptor   =  +0.00 kcal/mol
DOCKED: USER    (2) Final Total Internal Energy     =  -2.01 kcal/mol
DOCKED: USER    (3) Torsional Free Energy           =  +2.68 kcal/mol
DOCKED: USER    (4) Unbound System's Energy         =  -2.01 kcal/mol
DOCKED: USER
DOCKED: USER
DOCKED: REMARK SMILES C[C@H]([N-]/C(O)=C/N=C(/O)c1ccc2cc(F)ccc2n1)c1ccccc1
DOCKED: REMARK SMILES IDX 6 1 4 2 5 3 3 5 2 6 1 7 21 8 22 9 26 10 23 11 25 12 24 13
DOCKED: REMARK SMILES IDX 7 14 8 15 9 16 10 18 20 19 11 20 19 21 12 22 18 23 13 24
DOCKED: REMARK SMILES IDX 17 25 14 26 15 27 16 28
DOCKED: REMARK H PARENT 5 4 9 17
DOCKED: USER                              x       y       z     vdW  Elec       q    Type
DOCKED: USER                           _______ _______ _______ _____ _____    ______ ____
DOCKED: ROOT
DOCKED: ATOM      1  C   UNL     1     140.560  73.924 220.925 -0.20 -0.02    +0.136 C  
DOCKED: ENDROOT
DOCKED: BRANCH   1   2
DOCKED: ATOM      2  C   UNL     1     140.153  75.076 221.465 -0.30 -0.01    +0.029 C  
DOCKED: BRANCH   2   3
DOCKED: ATOM      3  O   UNL     1     139.547  75.114 222.722 -0.41 +0.06    -0.529 OA 
DOCKED: ATOM      4  H   UNL     1     139.420  74.290 223.297 -0.41 -0.07    +0.290 HD 
DOCKED: ENDBRANCH   2   3
DOCKED: BRANCH   2   5
DOCKED: ATOM      5  N   UNL     1     140.355  76.289 220.729 +0.03 +0.20    -0.647 NA 
DOCKED: BRANCH   5   6
DOCKED: ATOM      6  C   UNL     1     141.509  77.181 220.857 -0.25 +0.04    -0.079 C  
DOCKED: ATOM      7  C   UNL     1     141.955  77.693 219.480 -0.29 +0.00    -0.008 C  
DOCKED: BRANCH   6   8
DOCKED: ATOM      8  C   UNL     1     141.240  78.263 221.890 -0.36 +0.03    -0.063 A  
DOCKED: ATOM      9  C   UNL     1     140.059  78.306 222.661 -0.39 -0.00    +0.002 A  
DOCKED: ATOM     10  C   UNL     1     142.235  79.230 222.125 -0.49 -0.00    +0.002 A  
DOCKED: ATOM     11  C   UNL     1     139.876  79.305 223.622 -0.43 -0.00    +0.000 A  
DOCKED: ATOM     12  C   UNL     1     142.046  80.228 223.087 -0.61 -0.00    +0.000 A  
DOCKED: ATOM     13  C   UNL     1     140.867  80.266 223.833 -0.48 -0.00    +0.000 A  
DOCKED: ENDBRANCH   6   8
DOCKED: ENDBRANCH   5   6
DOCKED: ENDBRANCH   2   5
DOCKED: ENDBRANCH   1   2
DOCKED: BRANCH   1  14
DOCKED: ATOM     14  N   UNL     1     140.382  72.681 221.618 -0.22 +0.03    -0.218 NA 
DOCKED: BRANCH  14  15
DOCKED: ATOM     15  C   UNL     1     139.399  72.373 222.418 -0.18 -0.05    +0.237 C  
DOCKED: BRANCH  15  16
DOCKED: ATOM     16  O   UNL     1     138.152  72.953 222.206 -0.06 +0.16    -0.492 OA 
DOCKED: ATOM     17  H   UNL     1     137.855  73.766 222.734 -0.47 -0.15    +0.295 HD 
DOCKED: ENDBRANCH  15  16
DOCKED: BRANCH  15  18
DOCKED: ATOM     18  C   UNL     1     139.536  71.424 223.541 -0.30 -0.03    +0.126 A  
DOCKED: ATOM     19  N   UNL     1     140.096  71.856 224.703 -0.21 +0.05    -0.243 NA 
DOCKED: ATOM     20  C   UNL     1     139.188  70.071 223.400 -0.25 -0.01    +0.035 A  
DOCKED: ATOM     21  C   UNL     1     140.293  71.025 225.762 -0.51 -0.01    +0.071 A  
DOCKED: ATOM     22  C   UNL     1     139.375  69.193 224.470 -0.33 -0.00    +0.013 A  
DOCKED: ATOM     23  C   UNL     1     140.859  71.514 226.945 -0.71 -0.01    +0.032 A  
DOCKED: ATOM     24  C   UNL     1     139.927  69.664 225.666 -0.46 -0.00    +0.003 A  
DOCKED: ATOM     25  C   UNL     1     141.058  70.657 228.032 -0.62 -0.01    +0.041 A  
DOCKED: ATOM     26  C   UNL     1     140.131  68.810 226.761 -0.56 -0.01    +0.049 A  
DOCKED: ATOM     27  C   UNL     1     140.696  69.308 227.940 -0.52 -0.02    +0.123 A  
DOCKED: ATOM     28  F   UNL     1     140.892  68.482 228.998 -0.17 +0.05    -0.207 F  
DOCKED: ENDBRANCH  15  18
DOCKED: ENDBRANCH  14  15
DOCKED: ENDBRANCH   1  14
DOCKED: TORSDOF 9
DOCKED: TER
DOCKED: ENDMDL
________________________________________________________________________________


    FINAL DOCKED STATE:
    ________________________


Run:   15 / 20
Time taken for this run:   0.079s

DOCKED: MODEL        15
DOCKED: USER    Run = 15
DOCKED: USER
DOCKED: USER    Estimated Free Energy of Binding    =  -7.11 kcal/mol  [=(1)+(2)+(3)-(4)]
DOCKED: USER
DOCKED: USER    (1) Final Intermolecular Energy     =  -9.79 kcal/mol
DOCKED: USER        vdW + Hbond + desolv Energy     =  -9.86 kcal/mol
DOCKED: USER        Electrostatic Energy            =  +0.06 kcal/mol
DOCKED: USER        Moving Ligand-Fixed Receptor    =  -9.79 kcal/mol
DOCKED: USER        Moving Ligand-Moving Receptor   =  +0.00 kcal/mol
DOCKED: USER    (2) Final Total Internal Energy     =  -2.28 kcal/mol
DOCKED: USER    (3) Torsional Free Energy           =  +2.68 kcal/mol
DOCKED: USER    (4) Unbound System's Energy         =  -2.28 kcal/mol
DOCKED: USER
DOCKED: USER
DOCKED: REMARK SMILES C[C@H]([N-]/C(O)=C/N=C(/O)c1ccc2cc(F)ccc2n1)c1ccccc1
DOCKED: REMARK SMILES IDX 6 1 4 2 5 3 3 5 2 6 1 7 21 8 22 9 26 10 23 11 25 12 24 13
DOCKED: REMARK SMILES IDX 7 14 8 15 9 16 10 18 20 19 11 20 19 21 12 22 18 23 13 24
DOCKED: REMARK SMILES IDX 17 25 14 26 15 27 16 28
DOCKED: REMARK H PARENT 5 4 9 17
DOCKED: USER                              x       y       z     vdW  Elec       q    Type
DOCKED: USER                           _______ _______ _______ _____ _____    ______ ____
DOCKED: ROOT
DOCKED: ATOM      1  C   UNL     1     141.204  72.473 221.964 -0.15 -0.01    +0.136 C  
DOCKED: ENDROOT
DOCKED: BRANCH   1   2
DOCKED: ATOM      2  C   UNL     1     140.148  71.745 222.336 -0.29 -0.00    +0.029 C  
DOCKED: BRANCH   2   3
DOCKED: ATOM      3  O   UNL     1     138.886  71.961 221.779 -0.03 +0.11    -0.529 OA 
DOCKED: ATOM      4  H   UNL     1     138.660  72.780 221.229 +0.06 -0.06    +0.290 HD 
DOCKED: ENDBRANCH   2   3
DOCKED: BRANCH   2   5
DOCKED: ATOM      5  N   UNL     1     140.331  70.723 223.323 +0.09 +0.09    -0.647 NA 
DOCKED: BRANCH   5   6
DOCKED: ATOM      6  C   UNL     1     139.389  70.394 224.394 -0.34 +0.01    -0.079 C  
DOCKED: ATOM      7  C   UNL     1     138.907  68.942 224.269 -0.34 +0.00    -0.008 C  
DOCKED: BRANCH   6   8
DOCKED: ATOM      8  C   UNL     1     139.968  70.766 225.751 -0.48 +0.01    -0.063 A  
DOCKED: ATOM      9  C   UNL     1     139.710  70.020 226.921 -0.51 -0.00    +0.002 A  
DOCKED: ATOM     10  C   UNL     1     140.839  71.868 225.831 -0.54 -0.00    +0.002 A  
DOCKED: ATOM     11  C   UNL     1     140.294  70.387 228.137 -0.63 -0.00    +0.000 A  
DOCKED: ATOM     12  C   UNL     1     141.419  72.231 227.050 -0.78 -0.00    +0.000 A  
DOCKED: ATOM     13  C   UNL     1     141.145  71.492 228.203 -0.76 -0.00    +0.000 A  
DOCKED: ENDBRANCH   6   8
DOCKED: ENDBRANCH   5   6
DOCKED: ENDBRANCH   2   5
DOCKED: ENDBRANCH   1   2
DOCKED: BRANCH   1  14
DOCKED: ATOM     14  N   UNL     1     141.035  73.734 221.302 -0.28 +0.03    -0.218 NA 
DOCKED: BRANCH  14  15
DOCKED: ATOM     15  C   UNL     1     140.363  74.760 221.747 -0.16 -0.03    +0.237 C  
DOCKED: BRANCH  15  16
DOCKED: ATOM     16  O   UNL     1     139.129  74.544 222.353 -0.50 +0.12    -0.492 OA 
DOCKED: ATOM     17  H   UNL     1     138.977  73.750 222.964 -0.48 -0.15    +0.295 HD 
DOCKED: ENDBRANCH  15  16
DOCKED: BRANCH  15  18
DOCKED: ATOM     18  C   UNL     1     140.852  76.150 221.652 -0.31 -0.04    +0.126 A  
DOCKED: ATOM     19  N   UNL     1     140.607  77.005 222.682 -0.26 +0.07    -0.243 NA 
DOCKED: ATOM     20  C   UNL     1     141.478  76.627 220.489 -0.27 -0.02    +0.035 A  
DOCKED: ATOM     21  C   UNL     1     140.990  78.310 222.643 -0.43 -0.02    +0.071 A  
DOCKED: ATOM     22  C   UNL     1     141.885  77.961 220.420 -0.30 -0.01    +0.013 A  
DOCKED: ATOM     23  C   UNL     1     140.731  79.152 223.731 -0.48 -0.01    +0.032 A  
DOCKED: ATOM     24  C   UNL     1     141.648  78.817 221.501 -0.39 -0.00    +0.003 A  
DOCKED: ATOM     25  C   UNL     1     141.127  80.492 223.687 -0.48 -0.01    +0.041 A  
DOCKED: ATOM     26  C   UNL     1     142.042  80.164 221.465 -0.40 -0.02    +0.049 A  
DOCKED: ATOM     27  C   UNL     1     141.781  80.997 222.557 -0.44 -0.03    +0.123 A  
DOCKED: ATOM     28  F   UNL     1     142.162  82.298 222.522 +0.03 +0.03    -0.207 F  
DOCKED: ENDBRANCH  15  18
DOCKED: ENDBRANCH  14  15
DOCKED: ENDBRANCH   1  14
DOCKED: TORSDOF 9
DOCKED: TER
DOCKED: ENDMDL
________________________________________________________________________________


    FINAL DOCKED STATE:
    ________________________


Run:   16 / 20
Time taken for this run:   0.079s

DOCKED: MODEL        16
DOCKED: USER    Run = 16
DOCKED: USER
DOCKED: USER    Estimated Free Energy of Binding    =  -6.59 kcal/mol  [=(1)+(2)+(3)-(4)]
DOCKED: USER
DOCKED: USER    (1) Final Intermolecular Energy     =  -9.28 kcal/mol
DOCKED: USER        vdW + Hbond + desolv Energy     =  -9.33 kcal/mol
DOCKED: USER        Electrostatic Energy            =  +0.06 kcal/mol
DOCKED: USER        Moving Ligand-Fixed Receptor    =  -9.28 kcal/mol
DOCKED: USER        Moving Ligand-Moving Receptor   =  +0.00 kcal/mol
DOCKED: USER    (2) Final Total Internal Energy     =  -2.36 kcal/mol
DOCKED: USER    (3) Torsional Free Energy           =  +2.68 kcal/mol
DOCKED: USER    (4) Unbound System's Energy         =  -2.36 kcal/mol
DOCKED: USER
DOCKED: USER
DOCKED: REMARK SMILES C[C@H]([N-]/C(O)=C/N=C(/O)c1ccc2cc(F)ccc2n1)c1ccccc1
DOCKED: REMARK SMILES IDX 6 1 4 2 5 3 3 5 2 6 1 7 21 8 22 9 26 10 23 11 25 12 24 13
DOCKED: REMARK SMILES IDX 7 14 8 15 9 16 10 18 20 19 11 20 19 21 12 22 18 23 13 24
DOCKED: REMARK SMILES IDX 17 25 14 26 15 27 16 28
DOCKED: REMARK H PARENT 5 4 9 17
DOCKED: USER                              x       y       z     vdW  Elec       q    Type
DOCKED: USER                           _______ _______ _______ _____ _____    ______ ____
DOCKED: ROOT
DOCKED: ATOM      1  C   UNL     1     139.957  72.306 220.794 -0.12 -0.02    +0.136 C  
DOCKED: ENDROOT
DOCKED: BRANCH   1   2
DOCKED: ATOM      2  C   UNL     1     140.199  73.494 221.354 -0.25 -0.00    +0.029 C  
DOCKED: BRANCH   2   3
DOCKED: ATOM      3  O   UNL     1     139.938  73.724 222.706 -0.61 -0.00    -0.529 OA 
DOCKED: ATOM      4  H   UNL     1     139.588  73.007 223.329 -0.30 -0.09    +0.290 HD 
DOCKED: ENDBRANCH   2   3
DOCKED: BRANCH   2   5
DOCKED: ATOM      5  N   UNL     1     140.743  74.540 220.540 +0.01 +0.15    -0.647 NA 
DOCKED: BRANCH   5   6
DOCKED: ATOM      6  C   UNL     1     141.713  74.362 219.459 -0.13 +0.02    -0.079 C  
DOCKED: ATOM      7  C   UNL     1     141.766  75.608 218.564 -0.14 +0.00    -0.008 C  
DOCKED: BRANCH   6   8
DOCKED: ATOM      8  C   UNL     1     143.056  73.909 220.011 -0.27 +0.02    -0.063 A  
DOCKED: ATOM      9  C   UNL     1     143.320  72.570 220.372 -0.30 -0.00    +0.002 A  
DOCKED: ATOM     10  C   UNL     1     144.093  74.854 220.116 -0.45 -0.00    +0.002 A  
DOCKED: ATOM     11  C   UNL     1     144.583  72.200 220.844 -0.31 -0.00    +0.000 A  
DOCKED: ATOM     12  C   UNL     1     145.354  74.478 220.590 -0.46 -0.00    +0.000 A  
DOCKED: ATOM     13  C   UNL     1     145.598  73.153 220.956 -0.64 -0.00    +0.000 A  
DOCKED: ENDBRANCH   6   8
DOCKED: ENDBRANCH   5   6
DOCKED: ENDBRANCH   2   5
DOCKED: ENDBRANCH   1   2
DOCKED: BRANCH   1  14
DOCKED: ATOM     14  N   UNL     1     139.071  71.365 221.413 -0.07 +0.04    -0.218 NA 
DOCKED: BRANCH  14  15
DOCKED: ATOM     15  C   UNL     1     138.540  71.464 222.600 -0.14 -0.06    +0.237 C  
DOCKED: BRANCH  15  16
DOCKED: ATOM     16  O   UNL     1     137.546  72.415 222.815 -0.03 +0.17    -0.492 OA 
DOCKED: ATOM     17  H   UNL     1     137.780  73.378 223.028 -0.44 -0.18    +0.295 HD 
DOCKED: ENDBRANCH  15  16
DOCKED: BRANCH  15  18
DOCKED: ATOM     18  C   UNL     1     138.932  70.607 223.737 -0.25 -0.02    +0.126 A  
DOCKED: ATOM     19  N   UNL     1     139.571  71.172 224.797 -0.26 +0.05    -0.243 NA 
DOCKED: ATOM     20  C   UNL     1     138.742  69.216 223.702 -0.27 -0.01    +0.035 A  
DOCKED: ATOM     21  C   UNL     1     139.999  70.435 225.858 -0.46 -0.01    +0.071 A  
DOCKED: ATOM     22  C   UNL     1     139.167  68.433 224.778 -0.39 -0.00    +0.013 A  
DOCKED: ATOM     23  C   UNL     1     140.639  71.058 226.935 -0.65 -0.01    +0.032 A  
DOCKED: ATOM     24  C   UNL     1     139.799  69.037 225.871 -0.49 -0.00    +0.003 A  
DOCKED: ATOM     25  C   UNL     1     141.077  70.298 228.024 -0.58 -0.01    +0.041 A  
DOCKED: ATOM     26  C   UNL     1     140.241  68.281 226.967 -0.62 -0.01    +0.049 A  
DOCKED: ATOM     27  C   UNL     1     140.878  68.912 228.040 -0.53 -0.03    +0.123 A  
DOCKED: ATOM     28  F   UNL     1     141.305  68.181 229.099 -0.18 +0.05    -0.207 F  
DOCKED: ENDBRANCH  15  18
DOCKED: ENDBRANCH  14  15
DOCKED: ENDBRANCH   1  14
DOCKED: TORSDOF 9
DOCKED: TER
DOCKED: ENDMDL
________________________________________________________________________________


    FINAL DOCKED STATE:
    ________________________


Run:   17 / 20
Time taken for this run:   0.079s

DOCKED: MODEL        17
DOCKED: USER    Run = 17
DOCKED: USER
DOCKED: USER    Estimated Free Energy of Binding    =  -7.33 kcal/mol  [=(1)+(2)+(3)-(4)]
DOCKED: USER
DOCKED: USER    (1) Final Intermolecular Energy     = -10.02 kcal/mol
DOCKED: USER        vdW + Hbond + desolv Energy     = -10.22 kcal/mol
DOCKED: USER        Electrostatic Energy            =  +0.20 kcal/mol
DOCKED: USER        Moving Ligand-Fixed Receptor    = -10.02 kcal/mol
DOCKED: USER        Moving Ligand-Moving Receptor   =  +0.00 kcal/mol
DOCKED: USER    (2) Final Total Internal Energy     =  -1.91 kcal/mol
DOCKED: USER    (3) Torsional Free Energy           =  +2.68 kcal/mol
DOCKED: USER    (4) Unbound System's Energy         =  -1.91 kcal/mol
DOCKED: USER
DOCKED: USER
DOCKED: REMARK SMILES C[C@H]([N-]/C(O)=C/N=C(/O)c1ccc2cc(F)ccc2n1)c1ccccc1
DOCKED: REMARK SMILES IDX 6 1 4 2 5 3 3 5 2 6 1 7 21 8 22 9 26 10 23 11 25 12 24 13
DOCKED: REMARK SMILES IDX 7 14 8 15 9 16 10 18 20 19 11 20 19 21 12 22 18 23 13 24
DOCKED: REMARK SMILES IDX 17 25 14 26 15 27 16 28
DOCKED: REMARK H PARENT 5 4 9 17
DOCKED: USER                              x       y       z     vdW  Elec       q    Type
DOCKED: USER                           _______ _______ _______ _____ _____    ______ ____
DOCKED: ROOT
DOCKED: ATOM      1  C   UNL     1     141.125  74.029 221.587 -0.20 -0.01    +0.136 C  
DOCKED: ENDROOT
DOCKED: BRANCH   1   2
DOCKED: ATOM      2  C   UNL     1     140.378  75.135 221.645 -0.31 -0.01    +0.029 C  
DOCKED: BRANCH   2   3
DOCKED: ATOM      3  O   UNL     1     139.408  75.303 222.634 -0.40 +0.08    -0.529 OA 
DOCKED: ATOM      4  H   UNL     1     139.202  74.596 223.330 -0.45 -0.12    +0.290 HD 
DOCKED: ENDBRANCH   2   3
DOCKED: BRANCH   2   5
DOCKED: ATOM      5  N   UNL     1     140.592  76.161 220.669 +0.03 +0.21    -0.647 NA 
DOCKED: BRANCH   5   6
DOCKED: ATOM      6  C   UNL     1     141.613  77.208 220.743 -0.24 +0.04    -0.079 C  
DOCKED: ATOM      7  C   UNL     1     141.892  77.795 219.352 -0.28 +0.00    -0.008 C  
DOCKED: BRANCH   6   8
DOCKED: ATOM      8  C   UNL     1     141.260  78.228 221.814 -0.36 +0.03    -0.063 A  
DOCKED: ATOM      9  C   UNL     1     139.981  78.303 222.405 -0.35 -0.00    +0.002 A  
DOCKED: ATOM     10  C   UNL     1     142.267  79.098 222.271 -0.49 -0.00    +0.002 A  
DOCKED: ATOM     11  C   UNL     1     139.719  79.239 223.409 -0.41 -0.00    +0.000 A  
DOCKED: ATOM     12  C   UNL     1     141.999  80.033 223.276 -0.62 -0.00    +0.000 A  
DOCKED: ATOM     13  C   UNL     1     140.725  80.105 223.842 -0.47 -0.00    +0.000 A  
DOCKED: ENDBRANCH   6   8
DOCKED: ENDBRANCH   5   6
DOCKED: ENDBRANCH   2   5
DOCKED: ENDBRANCH   1   2
DOCKED: BRANCH   1  14
DOCKED: ATOM     14  N   UNL     1     140.531  72.730 221.711 -0.26 +0.02    -0.218 NA 
DOCKED: BRANCH  14  15
DOCKED: ATOM     15  C   UNL     1     139.531  72.405 222.482 -0.18 -0.05    +0.237 C  
DOCKED: BRANCH  15  16
DOCKED: ATOM     16  O   UNL     1     138.283  72.973 222.240 -0.07 +0.16    -0.492 OA 
DOCKED: ATOM     17  H   UNL     1     137.952  73.761 222.784 -0.48 -0.16    +0.295 HD 
DOCKED: ENDBRANCH  15  16
DOCKED: BRANCH  15  18
DOCKED: ATOM     18  C   UNL     1     139.648  71.449 223.601 -0.31 -0.03    +0.126 A  
DOCKED: ATOM     19  N   UNL     1     140.182  71.876 224.778 -0.22 +0.05    -0.243 NA 
DOCKED: ATOM     20  C   UNL     1     139.308  70.095 223.444 -0.26 -0.01    +0.035 A  
DOCKED: ATOM     21  C   UNL     1     140.359  71.038 225.835 -0.53 -0.01    +0.071 A  
DOCKED: ATOM     22  C   UNL     1     139.476  69.212 224.512 -0.33 -0.00    +0.013 A  
DOCKED: ATOM     23  C   UNL     1     140.898  71.521 227.033 -0.72 -0.01    +0.032 A  
DOCKED: ATOM     24  C   UNL     1     140.001  69.676 225.723 -0.47 -0.00    +0.003 A  
DOCKED: ATOM     25  C   UNL     1     141.078  70.658 228.118 -0.60 -0.01    +0.041 A  
DOCKED: ATOM     26  C   UNL     1     140.185  68.816 226.817 -0.56 -0.01    +0.049 A  
DOCKED: ATOM     27  C   UNL     1     140.722  69.308 228.010 -0.52 -0.02    +0.123 A  
DOCKED: ATOM     28  F   UNL     1     140.900  68.476 229.066 -0.16 +0.05    -0.207 F  
DOCKED: ENDBRANCH  15  18
DOCKED: ENDBRANCH  14  15
DOCKED: ENDBRANCH   1  14
DOCKED: TORSDOF 9
DOCKED: TER
DOCKED: ENDMDL
________________________________________________________________________________


    FINAL DOCKED STATE:
    ________________________


Run:   18 / 20
Time taken for this run:   0.079s

DOCKED: MODEL        18
DOCKED: USER    Run = 18
DOCKED: USER
DOCKED: USER    Estimated Free Energy of Binding    =  -6.77 kcal/mol  [=(1)+(2)+(3)-(4)]
DOCKED: USER
DOCKED: USER    (1) Final Intermolecular Energy     =  -9.46 kcal/mol
DOCKED: USER        vdW + Hbond + desolv Energy     =  -9.47 kcal/mol
DOCKED: USER        Electrostatic Energy            =  +0.01 kcal/mol
DOCKED: USER        Moving Ligand-Fixed Receptor    =  -9.46 kcal/mol
DOCKED: USER        Moving Ligand-Moving Receptor   =  +0.00 kcal/mol
DOCKED: USER    (2) Final Total Internal Energy     =  -2.40 kcal/mol
DOCKED: USER    (3) Torsional Free Energy           =  +2.68 kcal/mol
DOCKED: USER    (4) Unbound System's Energy         =  -2.40 kcal/mol
DOCKED: USER
DOCKED: USER
DOCKED: REMARK SMILES C[C@H]([N-]/C(O)=C/N=C(/O)c1ccc2cc(F)ccc2n1)c1ccccc1
DOCKED: REMARK SMILES IDX 6 1 4 2 5 3 3 5 2 6 1 7 21 8 22 9 26 10 23 11 25 12 24 13
DOCKED: REMARK SMILES IDX 7 14 8 15 9 16 10 18 20 19 11 20 19 21 12 22 18 23 13 24
DOCKED: REMARK SMILES IDX 17 25 14 26 15 27 16 28
DOCKED: REMARK H PARENT 5 4 9 17
DOCKED: USER                              x       y       z     vdW  Elec       q    Type
DOCKED: USER                           _______ _______ _______ _____ _____    ______ ____
DOCKED: ROOT
DOCKED: ATOM      1  C   UNL     1     139.202  69.087 223.559 -0.19 -0.02    +0.136 C  
DOCKED: ENDROOT
DOCKED: BRANCH   1   2
DOCKED: ATOM      2  C   UNL     1     138.356  69.191 224.587 -0.33 -0.00    +0.029 C  
DOCKED: BRANCH   2   3
DOCKED: ATOM      3  O   UNL     1     137.351  70.161 224.603 -0.05 +0.07    -0.529 OA 
DOCKED: ATOM      4  H   UNL     1     137.331  70.943 223.960 +0.09 -0.06    +0.290 HD 
DOCKED: ENDBRANCH   2   3
DOCKED: BRANCH   2   5
DOCKED: ATOM      5  N   UNL     1     138.490  68.279 225.684 -0.21 -0.00    -0.647 NA 
DOCKED: BRANCH   5   6
DOCKED: ATOM      6  C   UNL     1     139.595  68.257 226.644 -0.56 +0.01    -0.079 C  
DOCKED: ATOM      7  C   UNL     1     140.691  67.284 226.189 -0.52 +0.00    -0.008 C  
DOCKED: BRANCH   6   8
DOCKED: ATOM      8  C   UNL     1     140.071  69.669 226.946 -0.51 +0.01    -0.063 A  
DOCKED: ATOM      9  C   UNL     1     139.669  70.382 228.096 -0.58 -0.00    +0.002 A  
DOCKED: ATOM     10  C   UNL     1     140.994  70.269 226.069 -0.56 -0.00    +0.002 A  
DOCKED: ATOM     11  C   UNL     1     140.163  71.665 228.343 -0.70 -0.00    +0.000 A  
DOCKED: ATOM     12  C   UNL     1     141.484  71.554 226.321 -0.65 -0.00    +0.000 A  
DOCKED: ATOM     13  C   UNL     1     141.067  72.253 227.456 -0.83 -0.00    +0.000 A  
DOCKED: ENDBRANCH   6   8
DOCKED: ENDBRANCH   5   6
DOCKED: ENDBRANCH   2   5
DOCKED: ENDBRANCH   1   2
DOCKED: BRANCH   1  14
DOCKED: ATOM     14  N   UNL     1     139.478  70.212 222.713 -0.12 +0.04    -0.218 NA 
DOCKED: BRANCH  14  15
DOCKED: ATOM     15  C   UNL     1     139.745  71.427 223.102 -0.24 -0.04    +0.237 C  
DOCKED: BRANCH  15  16
DOCKED: ATOM     16  O   UNL     1     139.256  71.864 224.330 +0.08 +0.17    -0.492 OA 
DOCKED: ATOM     17  H   UNL     1     138.280  72.108 224.448 -0.22 -0.17    +0.295 HD 
DOCKED: ENDBRANCH  15  16
DOCKED: BRANCH  15  18
DOCKED: ATOM     18  C   UNL     1     140.556  72.371 222.307 -0.27 -0.01    +0.126 A  
DOCKED: ATOM     19  N   UNL     1     140.224  73.691 222.313 -0.76 +0.00    -0.243 NA 
DOCKED: ATOM     20  C   UNL     1     141.597  71.922 221.478 -0.22 -0.00    +0.035 A  
DOCKED: ATOM     21  C   UNL     1     140.900  74.608 221.571 -0.30 -0.01    +0.071 A  
DOCKED: ATOM     22  C   UNL     1     142.312  72.840 220.706 -0.25 -0.00    +0.013 A  
DOCKED: ATOM     23  C   UNL     1     140.536  75.959 221.618 -0.34 -0.01    +0.032 A  
DOCKED: ATOM     24  C   UNL     1     141.972  74.197 220.748 -0.28 -0.00    +0.003 A  
DOCKED: ATOM     25  C   UNL     1     141.234  76.899 220.854 -0.28 -0.02    +0.041 A  
DOCKED: ATOM     26  C   UNL     1     142.667  75.147 219.984 -0.30 -0.02    +0.049 A  
DOCKED: ATOM     27  C   UNL     1     142.297  76.495 220.039 -0.26 -0.07    +0.123 A  
DOCKED: ATOM     28  F   UNL     1     142.969  77.412 219.300 -0.11 +0.16    -0.207 F  
DOCKED: ENDBRANCH  15  18
DOCKED: ENDBRANCH  14  15
DOCKED: ENDBRANCH   1  14
DOCKED: TORSDOF 9
DOCKED: TER
DOCKED: ENDMDL
________________________________________________________________________________


    FINAL DOCKED STATE:
    ________________________


Run:   19 / 20
Time taken for this run:   0.079s

DOCKED: MODEL        19
DOCKED: USER    Run = 19
DOCKED: USER
DOCKED: USER    Estimated Free Energy of Binding    =  -7.40 kcal/mol  [=(1)+(2)+(3)-(4)]
DOCKED: USER
DOCKED: USER    (1) Final Intermolecular Energy     = -10.09 kcal/mol
DOCKED: USER        vdW + Hbond + desolv Energy     = -10.29 kcal/mol
DOCKED: USER        Electrostatic Energy            =  +0.21 kcal/mol
DOCKED: USER        Moving Ligand-Fixed Receptor    = -10.09 kcal/mol
DOCKED: USER        Moving Ligand-Moving Receptor   =  +0.00 kcal/mol
DOCKED: USER    (2) Final Total Internal Energy     =  -2.12 kcal/mol
DOCKED: USER    (3) Torsional Free Energy           =  +2.68 kcal/mol
DOCKED: USER    (4) Unbound System's Energy         =  -2.12 kcal/mol
DOCKED: USER
DOCKED: USER
DOCKED: REMARK SMILES C[C@H]([N-]/C(O)=C/N=C(/O)c1ccc2cc(F)ccc2n1)c1ccccc1
DOCKED: REMARK SMILES IDX 6 1 4 2 5 3 3 5 2 6 1 7 21 8 22 9 26 10 23 11 25 12 24 13
DOCKED: REMARK SMILES IDX 7 14 8 15 9 16 10 18 20 19 11 20 19 21 12 22 18 23 13 24
DOCKED: REMARK SMILES IDX 17 25 14 26 15 27 16 28
DOCKED: REMARK H PARENT 5 4 9 17
DOCKED: USER                              x       y       z     vdW  Elec       q    Type
DOCKED: USER                           _______ _______ _______ _____ _____    ______ ____
DOCKED: ROOT
DOCKED: ATOM      1  C   UNL     1     140.694  74.547 221.528 -0.26 -0.02    +0.136 C  
DOCKED: ENDROOT
DOCKED: BRANCH   1   2
DOCKED: ATOM      2  C   UNL     1     139.753  75.477 221.702 -0.31 -0.01    +0.029 C  
DOCKED: BRANCH   2   3
DOCKED: ATOM      3  O   UNL     1     138.557  75.184 222.361 -0.16 +0.15    -0.529 OA 
DOCKED: ATOM      4  H   UNL     1     138.411  74.328 222.882 -0.50 -0.17    +0.290 HD 
DOCKED: ENDBRANCH   2   3
DOCKED: BRANCH   2   5
DOCKED: ATOM      5  N   UNL     1     139.990  76.799 221.202 +0.03 +0.18    -0.647 NA 
DOCKED: BRANCH   5   6
DOCKED: ATOM      6  C   UNL     1     141.304  77.381 220.924 -0.27 +0.04    -0.079 C  
DOCKED: ATOM      7  C   UNL     1     141.441  77.730 219.436 -0.23 +0.00    -0.008 C  
DOCKED: BRANCH   6   8
DOCKED: ATOM      8  C   UNL     1     141.599  78.524 221.883 -0.37 +0.03    -0.063 A  
DOCKED: ATOM      9  C   UNL     1     141.939  79.821 221.444 -0.41 -0.00    +0.002 A  
DOCKED: ATOM     10  C   UNL     1     141.476  78.290 223.265 -0.54 -0.00    +0.002 A  
DOCKED: ATOM     11  C   UNL     1     142.168  80.844 222.368 -0.54 -0.00    +0.000 A  
DOCKED: ATOM     12  C   UNL     1     141.708  79.317 224.185 -0.55 -0.00    +0.000 A  
DOCKED: ATOM     13  C   UNL     1     142.056  80.593 223.737 -0.63 -0.00    +0.000 A  
DOCKED: ENDBRANCH   6   8
DOCKED: ENDBRANCH   5   6
DOCKED: ENDBRANCH   2   5
DOCKED: ENDBRANCH   1   2
DOCKED: BRANCH   1  14
DOCKED: ATOM     14  N   UNL     1     140.733  73.373 222.351 -0.65 -0.01    -0.218 NA 
DOCKED: BRANCH  14  15
DOCKED: ATOM     15  C   UNL     1     139.757  72.532 222.549 -0.18 -0.04    +0.237 C  
DOCKED: BRANCH  15  16
DOCKED: ATOM     16  O   UNL     1     138.666  72.551 221.683 -0.05 +0.11    -0.492 OA 
DOCKED: ATOM     17  H   UNL     1     138.354  73.414 221.254 +0.06 -0.07    +0.295 HD 
DOCKED: ENDBRANCH  15  16
DOCKED: BRANCH  15  18
DOCKED: ATOM     18  C   UNL     1     139.750  71.543 223.646 -0.32 -0.03    +0.126 A  
DOCKED: ATOM     19  N   UNL     1     140.329  71.872 224.832 -0.26 +0.04    -0.243 NA 
DOCKED: ATOM     20  C   UNL     1     139.243  70.247 223.457 -0.27 -0.01    +0.035 A  
DOCKED: ATOM     21  C   UNL     1     140.397  70.995 225.870 -0.53 -0.01    +0.071 A  
DOCKED: ATOM     22  C   UNL     1     139.295  69.325 224.505 -0.35 -0.00    +0.013 A  
DOCKED: ATOM     23  C   UNL     1     140.989  71.379 227.078 -0.71 -0.01    +0.032 A  
DOCKED: ATOM     24  C   UNL     1     139.871  69.692 225.726 -0.46 -0.00    +0.003 A  
DOCKED: ATOM     25  C   UNL     1     141.056  70.475 228.143 -0.57 -0.01    +0.041 A  
DOCKED: ATOM     26  C   UNL     1     139.943  68.791 226.799 -0.55 -0.01    +0.049 A  
DOCKED: ATOM     27  C   UNL     1     140.534  69.184 228.004 -0.53 -0.02    +0.123 A  
DOCKED: ATOM     28  F   UNL     1     140.602  68.312 229.040 -0.17 +0.05    -0.207 F  
DOCKED: ENDBRANCH  15  18
DOCKED: ENDBRANCH  14  15
DOCKED: ENDBRANCH   1  14
DOCKED: TORSDOF 9
DOCKED: TER
DOCKED: ENDMDL
________________________________________________________________________________


    FINAL DOCKED STATE:
    ________________________


Run:   20 / 20
Time taken for this run:   0.079s

DOCKED: MODEL        20
DOCKED: USER    Run = 20
DOCKED: USER
DOCKED: USER    Estimated Free Energy of Binding    =  -7.40 kcal/mol  [=(1)+(2)+(3)-(4)]
DOCKED: USER
DOCKED: USER    (1) Final Intermolecular Energy     = -10.09 kcal/mol
DOCKED: USER        vdW + Hbond + desolv Energy     = -10.32 kcal/mol
DOCKED: USER        Electrostatic Energy            =  +0.23 kcal/mol
DOCKED: USER        Moving Ligand-Fixed Receptor    = -10.09 kcal/mol
DOCKED: USER        Moving Ligand-Moving Receptor   =  +0.00 kcal/mol
DOCKED: USER    (2) Final Total Internal Energy     =  -2.08 kcal/mol
DOCKED: USER    (3) Torsional Free Energy           =  +2.68 kcal/mol
DOCKED: USER    (4) Unbound System's Energy         =  -2.08 kcal/mol
DOCKED: USER
DOCKED: USER
DOCKED: REMARK SMILES C[C@H]([N-]/C(O)=C/N=C(/O)c1ccc2cc(F)ccc2n1)c1ccccc1
DOCKED: REMARK SMILES IDX 6 1 4 2 5 3 3 5 2 6 1 7 21 8 22 9 26 10 23 11 25 12 24 13
DOCKED: REMARK SMILES IDX 7 14 8 15 9 16 10 18 20 19 11 20 19 21 12 22 18 23 13 24
DOCKED: REMARK SMILES IDX 17 25 14 26 15 27 16 28
DOCKED: REMARK H PARENT 5 4 9 17
DOCKED: USER                              x       y       z     vdW  Elec       q    Type
DOCKED: USER                           _______ _______ _______ _____ _____    ______ ____
DOCKED: ROOT
DOCKED: ATOM      1  C   UNL     1     140.814  74.352 221.293 -0.25 -0.02    +0.136 C  
DOCKED: ENDROOT
DOCKED: BRANCH   1   2
DOCKED: ATOM      2  C   UNL     1     140.146  75.451 221.653 -0.32 -0.01    +0.029 C  
DOCKED: BRANCH   2   3
DOCKED: ATOM      3  O   UNL     1     139.224  75.429 222.700 -0.36 +0.10    -0.529 OA 
DOCKED: ATOM      4  H   UNL     1     138.859  74.570 223.095 -0.49 -0.15    +0.290 HD 
DOCKED: ENDBRANCH   2   3
DOCKED: BRANCH   2   5
DOCKED: ATOM      5  N   UNL     1     140.397  76.671 220.944 +0.03 +0.21    -0.647 NA 
DOCKED: BRANCH   5   6
DOCKED: ATOM      6  C   UNL     1     141.678  77.377 220.889 -0.21 +0.05    -0.079 C  
DOCKED: ATOM      7  C   UNL     1     142.002  77.805 219.451 -0.29 +0.00    -0.008 C  
DOCKED: BRANCH   6   8
DOCKED: ATOM      8  C   UNL     1     141.721  78.494 221.919 -0.36 +0.03    -0.063 A  
DOCKED: ATOM      9  C   UNL     1     141.480  78.277 223.292 -0.54 -0.00    +0.002 A  
DOCKED: ATOM     10  C   UNL     1     142.066  79.790 221.491 -0.41 -0.00    +0.002 A  
DOCKED: ATOM     11  C   UNL     1     141.564  79.335 224.202 -0.53 -0.00    +0.000 A  
DOCKED: ATOM     12  C   UNL     1     142.148  80.844 222.406 -0.54 -0.00    +0.000 A  
DOCKED: ATOM     13  C   UNL     1     141.894  80.617 223.760 -0.61 -0.00    +0.000 A  
DOCKED: ENDBRANCH   6   8
DOCKED: ENDBRANCH   5   6
DOCKED: ENDBRANCH   2   5
DOCKED: ENDBRANCH   1   2
DOCKED: BRANCH   1  14
DOCKED: ATOM     14  N   UNL     1     140.752  73.159 222.086 -0.55 +0.01    -0.218 NA 
DOCKED: BRANCH  14  15
DOCKED: ATOM     15  C   UNL     1     139.672  72.554 222.494 -0.18 -0.05    +0.237 C  
DOCKED: BRANCH  15  16
DOCKED: ATOM     16  O   UNL     1     138.462  72.843 221.869 -0.06 +0.13    -0.492 OA 
DOCKED: ATOM     17  H   UNL     1     138.123  73.796 221.801 +0.02 -0.08    +0.295 HD 
DOCKED: ENDBRANCH  15  16
DOCKED: BRANCH  15  18
DOCKED: ATOM     18  C   UNL     1     139.664  71.559 223.586 -0.30 -0.03    +0.126 A  
DOCKED: ATOM     19  N   UNL     1     140.277  71.868 224.761 -0.25 +0.04    -0.243 NA 
DOCKED: ATOM     20  C   UNL     1     139.121  70.278 223.402 -0.26 -0.01    +0.035 A  
DOCKED: ATOM     21  C   UNL     1     140.345  70.984 225.793 -0.52 -0.01    +0.071 A  
DOCKED: ATOM     22  C   UNL     1     139.172  69.349 224.444 -0.34 -0.00    +0.013 A  
DOCKED: ATOM     23  C   UNL     1     140.972  71.347 226.990 -0.70 -0.01    +0.032 A  
DOCKED: ATOM     24  C   UNL     1     139.784  69.695 225.654 -0.45 -0.00    +0.003 A  
DOCKED: ATOM     25  C   UNL     1     141.040  70.436 228.049 -0.59 -0.01    +0.041 A  
DOCKED: ATOM     26  C   UNL     1     139.856  68.786 226.721 -0.54 -0.01    +0.049 A  
DOCKED: ATOM     27  C   UNL     1     140.483  69.158 227.915 -0.53 -0.02    +0.123 A  
DOCKED: ATOM     28  F   UNL     1     140.552  68.280 228.945 -0.18 +0.05    -0.207 F  
DOCKED: ENDBRANCH  15  18
DOCKED: ENDBRANCH  14  15
DOCKED: ENDBRANCH   1  14
DOCKED: TORSDOF 9
DOCKED: TER
DOCKED: ENDMDL
________________________________________________________________________________


    CLUSTERING HISTOGRAM
    ____________________


________________________________________________________________________________
     |           |     |           |     |
Clus | Lowest    | Run | Mean      | Num | Histogram
-ter | Binding   |     | Binding   | in  |
Rank | Energy    |     | Energy    | Clus|    5    10   15   20   25   30   35
_____|___________|_____|___________|_____|____:____|____:____|____:____|____:___
   1 |     -7.90 |   3 |     -7.57 |   9 |#########
   2 |     -7.85 |  10 |     -7.41 |   6 |######
   3 |     -7.03 |   5 |     -6.81 |   3 |###
   4 |     -6.77 |  18 |     -6.77 |   1 |#
   5 |     -5.88 |  13 |     -5.88 |   1 |#
_____|___________|_____|___________|_____|______________________________________


    RMSD TABLE
    __________


_______________________________________________________________________
     |      |      |           |         |                 |
Rank | Sub- | Run  | Binding   | Cluster | Reference       | Grep
     | Rank |      | Energy    | RMSD    | RMSD            | Pattern
_____|______|______|___________|_________|_________________|___________
   1      1      3       -7.90      0.00    271.67           RANKING
   1      2     11       -7.88      0.68    271.72           RANKING
   1      3      6       -7.86      0.15    271.71           RANKING
   1      4      9       -7.82      0.18    271.63           RANKING
   1      5     20       -7.40      0.33    271.60           RANKING
   1      6     19       -7.40      0.50    271.57           RANKING
   1      7     17       -7.33      0.62    271.55           RANKING
   1      8      1       -7.30      0.86    271.67           RANKING
   1      9     14       -7.24      0.62    271.48           RANKING
   2      1     10       -7.85      0.00    271.62           RANKING
   2      2     12       -7.83      0.15    271.65           RANKING
   2      3      4       -7.25      0.64    271.63           RANKING
   2      4      2       -7.20      0.52    271.63           RANKING
   2      5      7       -7.20      0.77    271.58           RANKING
   2      6     15       -7.11      0.63    271.57           RANKING
   3      1      5       -7.03      0.00    270.97           RANKING
   3      2      8       -6.79      0.63    270.84           RANKING
   3      3     16       -6.59      0.56    270.82           RANKING
   4      1     18       -6.77      0.00    271.07           RANKING
   5      1     13       -5.88      0.00    271.01           RANKING

Run time 1.551 sec
Idle time 0.000 sec
