AutoDock-GPU version: v1.6

**********************************************************
**    AutoDock-GPU AUTODOCKTOOLS-COMPATIBLE DLG FILE    **
**********************************************************


    DOCKING PARAMETERS
    ________________________


Ligand file:                               /home/a/REINVENT4/ReinventStudies/pleaseWork/justmol2mol_4_Compounds_ontop/graph-dock-8u2o5u/graph-DockGPU/node-autodockgpu/inputs/UVFMONQMWPHOLX-GBKJKMAJNA-M.pdbqt
Grid fld file:                             /home/a/REINVENT4/ReinventStudies/mols/Rad51/maps/rad51_receptor.maps.fld

Random seed:                               42
Number of runs:                            20
Number of energy evaluations:              1613968
Number of generations:                     42000
Size of population:                        150
Rate of crossover:                         80.000000%
Tournament selection probability limit:    60.000000%
Rate of mutation:                          2.000000%
Maximal allowed delta movement:            +/- 6.000000A
Maximal allowed delta angle:               +/- 90.000000

Rate of local search:                      100.000000%
Maximal number of local search iterations: 300
Rho lower bound:                           0.010000
Spread of local search delta movement:     2.000000A
Spread of local search delta angle:        74.999999
Limit of consecutive successes/failures:   4

Handle symmetry during clustering:         YES
RMSD tolerance:                            2.000000A

Program call in command line was:          /home/a/REINVENT4/ReinventStudies/adgpu-v1.6_linux_x64_cuda12_128wi --filelist batch.txt --heuristics 1 --nrun 20 --psize 150 --lsit 300 --seed 42 --heurmax 12000000 


    GRID PARAMETERS
    ________________________


Receptor name:                             rad51_receptor
Number of grid points (x, y, z):           53, 53, 53
Grid center (x, y, z):                     139.950000, 75.640000, 221.970000A
Grid size (x, y, z):                       19.500000, 19.500000, 19.500000A
Grid spacing:                              0.375000A


    LIGAND PARAMETERS
    ________________________


Ligand name:                               /home/a/REINVENT4/ReinventStudies/pleaseWork/justmol2mol_4_Compounds_ontop/graph-dock-8u2o5u/graph-DockGPU/node-autodockgpu/inputs/UVFMONQMWPHOLX-GBKJKMAJNA-M
Number of atoms:                           31
Number of rotatable bonds:                 8
Number of atom types:                      7


    DUMMY DATA (only for ADT-compatibility)
    ________________________


DPF> outlev 1
DPF> ga_run 20
DPF> fld /home/a/REINVENT4/ReinventStudies/mols/Rad51/maps/rad51_receptor.maps.fld
DPF> move /home/a/REINVENT4/ReinventStudies/pleaseWork/justmol2mol_4_Compounds_ontop/graph-dock-8u2o5u/graph-DockGPU/node-autodockgpu/inputs/UVFMONQMWPHOLX-GBKJKMAJNA-M.pdbqt


    COUNTER STATES
    ________________________


Number of energy evaluations performed:    1082917
Number of generations used:                60


    INPUT LIGAND PDBQT FILE:
    ________________________


INPUT-LIGAND-PDBQT: REMARK SMILES O=C([N-]CC(=O)N1CC[C@H](O)[C@H]1Cc1ccccc1)c1ccc2cc(Cl)ccc2n1
INPUT-LIGAND-PDBQT: REMARK SMILES IDX 4 1 3 2 2 3 1 4 20 5 21 6 30 7 22 8 29 9 23 10 28 11 24 12
INPUT-LIGAND-PDBQT: REMARK SMILES IDX 27 13 25 14 26 15 5 16 6 17 7 18 8 19 12 20 9 21 10 22 13 23
INPUT-LIGAND-PDBQT: REMARK SMILES IDX 14 24 15 25 19 26 16 27 18 28 17 29 11 30
INPUT-LIGAND-PDBQT: REMARK H PARENT 11 31
INPUT-LIGAND-PDBQT: ROOT
INPUT-LIGAND-PDBQT: ATOM      1  C   UNL     1       0.111  -0.300   0.298  1.00  0.00    -0.015 C 
INPUT-LIGAND-PDBQT: ENDROOT
INPUT-LIGAND-PDBQT: BRANCH   1   2
INPUT-LIGAND-PDBQT: ATOM      2  N   UNL     1      -0.030   0.979   0.986  1.00  0.00    -0.640 NA
INPUT-LIGAND-PDBQT: BRANCH   2   3
INPUT-LIGAND-PDBQT: ATOM      3  C   UNL     1       0.606   1.317   2.225  1.00  0.00     0.101 C 
INPUT-LIGAND-PDBQT: ATOM      4  O   UNL     1       0.650   2.526   2.573  1.00  0.00    -0.313 OA
INPUT-LIGAND-PDBQT: BRANCH   3   5
INPUT-LIGAND-PDBQT: ATOM      5  C   UNL     1       1.248   0.307   3.082  1.00  0.00     0.088 A 
INPUT-LIGAND-PDBQT: ATOM      6  C   UNL     1       0.569  -0.860   3.463  1.00  0.00     0.031 A 
INPUT-LIGAND-PDBQT: ATOM      7  N   UNL     1       2.502   0.542   3.559  1.00  0.00    -0.246 NA
INPUT-LIGAND-PDBQT: ATOM      8  C   UNL     1       1.201  -1.787   4.295  1.00  0.00     0.013 A 
INPUT-LIGAND-PDBQT: ATOM      9  C   UNL     1       3.141  -0.341   4.372  1.00  0.00     0.071 A 
INPUT-LIGAND-PDBQT: ATOM     10  C   UNL     1       2.498  -1.538   4.756  1.00  0.00     0.002 A 
INPUT-LIGAND-PDBQT: ATOM     11  C   UNL     1       4.436  -0.067   4.827  1.00  0.00     0.030 A 
INPUT-LIGAND-PDBQT: ATOM     12  C   UNL     1       3.161  -2.446   5.596  1.00  0.00     0.030 A 
INPUT-LIGAND-PDBQT: ATOM     13  C   UNL     1       5.091  -0.977   5.662  1.00  0.00     0.023 A 
INPUT-LIGAND-PDBQT: ATOM     14  C   UNL     1       4.456  -2.164   6.047  1.00  0.00     0.041 A 
INPUT-LIGAND-PDBQT: ATOM     15  Cl  UNL     1       5.285  -3.301   7.094  1.00  0.00    -0.084 Cl
INPUT-LIGAND-PDBQT: ENDBRANCH   3   5
INPUT-LIGAND-PDBQT: ENDBRANCH   2   3
INPUT-LIGAND-PDBQT: ENDBRANCH   1   2
INPUT-LIGAND-PDBQT: BRANCH   1  16
INPUT-LIGAND-PDBQT: ATOM     16  C   UNL     1      -0.454  -0.195  -1.086  1.00  0.00     0.205 C 
INPUT-LIGAND-PDBQT: ATOM     17  O   UNL     1      -0.212   0.833  -1.775  1.00  0.00    -0.277 OA
INPUT-LIGAND-PDBQT: BRANCH  16  18
INPUT-LIGAND-PDBQT: ATOM     18  N   UNL     1      -1.225  -1.271  -1.650  1.00  0.00    -0.338 N 
INPUT-LIGAND-PDBQT: ATOM     19  C   UNL     1      -0.904  -2.664  -1.387  1.00  0.00     0.122 C 
INPUT-LIGAND-PDBQT: ATOM     20  C   UNL     1      -2.124  -1.106  -2.790  1.00  0.00     0.118 C 
INPUT-LIGAND-PDBQT: ATOM     21  C   UNL     1      -1.357  -3.428  -2.620  1.00  0.00     0.055 C 
INPUT-LIGAND-PDBQT: ATOM     22  C   UNL     1      -2.386  -2.531  -3.312  1.00  0.00     0.139 C 
INPUT-LIGAND-PDBQT: BRANCH  20  23
INPUT-LIGAND-PDBQT: ATOM     23  C   UNL     1      -3.448  -0.429  -2.368  1.00  0.00     0.063 C 
INPUT-LIGAND-PDBQT: BRANCH  23  24
INPUT-LIGAND-PDBQT: ATOM     24  C   UNL     1      -3.259   1.005  -1.946  1.00  0.00    -0.046 A 
INPUT-LIGAND-PDBQT: ATOM     25  C   UNL     1      -3.266   1.353  -0.584  1.00  0.00     0.004 A 
INPUT-LIGAND-PDBQT: ATOM     26  C   UNL     1      -3.042   2.004  -2.910  1.00  0.00     0.004 A 
INPUT-LIGAND-PDBQT: ATOM     27  C   UNL     1      -3.054   2.679  -0.194  1.00  0.00     0.000 A 
INPUT-LIGAND-PDBQT: ATOM     28  C   UNL     1      -2.832   3.329  -2.516  1.00  0.00     0.000 A 
INPUT-LIGAND-PDBQT: ATOM     29  C   UNL     1      -2.838   3.666  -1.159  1.00  0.00     0.000 A 
INPUT-LIGAND-PDBQT: ENDBRANCH  23  24
INPUT-LIGAND-PDBQT: ENDBRANCH  20  23
INPUT-LIGAND-PDBQT: BRANCH  22  30
INPUT-LIGAND-PDBQT: ATOM     30  O   UNL     1      -2.237  -2.578  -4.707  1.00  0.00    -0.391 OA
INPUT-LIGAND-PDBQT: ATOM     31  H   UNL     1      -2.570  -3.467  -4.997  1.00  0.00     0.211 HD
INPUT-LIGAND-PDBQT: ENDBRANCH  22  30
INPUT-LIGAND-PDBQT: ENDBRANCH  16  18
INPUT-LIGAND-PDBQT: ENDBRANCH   1  16
INPUT-LIGAND-PDBQT: TORSDOF 8


    FINAL DOCKED STATE:
    ________________________


Run:   1 / 20
Time taken for this run:   0.046s

DOCKED: MODEL        1
DOCKED: USER    Run = 1
DOCKED: USER
DOCKED: USER    Estimated Free Energy of Binding    =  -8.52 kcal/mol  [=(1)+(2)+(3)-(4)]
DOCKED: USER
DOCKED: USER    (1) Final Intermolecular Energy     = -10.90 kcal/mol
DOCKED: USER        vdW + Hbond + desolv Energy     = -10.95 kcal/mol
DOCKED: USER        Electrostatic Energy            =  +0.04 kcal/mol
DOCKED: USER        Moving Ligand-Fixed Receptor    = -10.90 kcal/mol
DOCKED: USER        Moving Ligand-Moving Receptor   =  +0.00 kcal/mol
DOCKED: USER    (2) Final Total Internal Energy     =  -1.34 kcal/mol
DOCKED: USER    (3) Torsional Free Energy           =  +2.39 kcal/mol
DOCKED: USER    (4) Unbound System's Energy         =  -1.34 kcal/mol
DOCKED: USER
DOCKED: USER
DOCKED: REMARK SMILES O=C([N-]CC(=O)N1CC[C@H](O)[C@H]1Cc1ccccc1)c1ccc2cc(Cl)ccc2n1
DOCKED: REMARK SMILES IDX 4 1 3 2 2 3 1 4 20 5 21 6 30 7 22 8 29 9 23 10 28 11 24 12
DOCKED: REMARK SMILES IDX 27 13 25 14 26 15 5 16 6 17 7 18 8 19 12 20 9 21 10 22 13 23
DOCKED: REMARK SMILES IDX 14 24 15 25 19 26 16 27 18 28 17 29 11 30
DOCKED: REMARK H PARENT 11 31
DOCKED: USER                              x       y       z     vdW  Elec       q    Type
DOCKED: USER                           _______ _______ _______ _____ _____    ______ ____
DOCKED: ROOT
DOCKED: ATOM      1  C   UNL     1     138.722  75.030 222.076 -0.21 +0.00    -0.015 C  
DOCKED: ENDROOT
DOCKED: BRANCH   1   2
DOCKED: ATOM      2  N   UNL     1     139.994  74.316 222.056 -0.61 +0.05    -0.640 NA 
DOCKED: BRANCH   2   3
DOCKED: ATOM      3  C   UNL     1     140.140  72.909 221.825 -0.25 -0.01    +0.101 C  
DOCKED: ATOM      4  O   UNL     1     140.283  72.502 220.642 -0.07 +0.05    -0.313 OA 
DOCKED: BRANCH   3   5
DOCKED: ATOM      5  C   UNL     1     140.084  71.921 222.914 -0.31 -0.01    +0.088 A  
DOCKED: ATOM      6  C   UNL     1     139.458  70.679 222.737 -0.24 -0.01    +0.031 A  
DOCKED: ATOM      7  N   UNL     1     140.599  72.248 224.132 -0.09 +0.03    -0.246 NA 
DOCKED: ATOM      8  C   UNL     1     139.404  69.774 223.800 -0.28 -0.00    +0.013 A  
DOCKED: ATOM      9  C   UNL     1     140.560  71.388 225.185 -0.49 -0.01    +0.071 A  
DOCKED: ATOM     10  C   UNL     1     139.959  70.119 225.037 -0.43 -0.00    +0.002 A  
DOCKED: ATOM     11  C   UNL     1     141.115  71.758 226.416 -0.68 -0.00    +0.030 A  
DOCKED: ATOM     12  C   UNL     1     139.920  69.235 226.126 -0.48 -0.00    +0.030 A  
DOCKED: ATOM     13  C   UNL     1     141.074  70.872 227.496 -0.66 -0.00    +0.023 A  
DOCKED: ATOM     14  C   UNL     1     140.477  69.613 227.354 -0.56 -0.01    +0.041 A  
DOCKED: ATOM     15  Cl  UNL     1     140.431  68.507 228.714 -0.68 +0.02    -0.084 Cl 
DOCKED: ENDBRANCH   3   5
DOCKED: ENDBRANCH   2   3
DOCKED: ENDBRANCH   1   2
DOCKED: BRANCH   1  16
DOCKED: ATOM     16  C   UNL     1     138.628  75.930 220.881 -0.10 -0.05    +0.205 C  
DOCKED: ATOM     17  O   UNL     1     137.664  75.795 220.080 -0.02 +0.06    -0.277 OA 
DOCKED: BRANCH  16  18
DOCKED: ATOM     18  N   UNL     1     139.596  76.973 220.668 -0.03 +0.09    -0.338 N  
DOCKED: ATOM     19  C   UNL     1     139.408  77.998 219.655 -0.05 -0.04    +0.122 C  
DOCKED: ATOM     20  C   UNL     1     140.975  76.902 221.147 -0.27 -0.05    +0.118 C  
DOCKED: ATOM     21  C   UNL     1     140.806  78.400 219.215 -0.14 -0.02    +0.055 C  
DOCKED: ATOM     22  C   UNL     1     141.739  77.976 220.350 -0.25 -0.08    +0.139 C  
DOCKED: BRANCH  20  23
DOCKED: ATOM     23  C   UNL     1     141.057  77.189 222.664 -0.33 -0.02    +0.063 C  
DOCKED: BRANCH  23  24
DOCKED: ATOM     24  C   UNL     1     141.298  78.645 222.968 -0.50 +0.02    -0.046 A  
DOCKED: ATOM     25  C   UNL     1     140.216  79.522 223.154 -0.43 -0.00    +0.004 A  
DOCKED: ATOM     26  C   UNL     1     142.610  79.133 223.100 -0.51 -0.00    +0.004 A  
DOCKED: ATOM     27  C   UNL     1     140.443  80.865 223.472 -0.45 -0.00    +0.000 A  
DOCKED: ATOM     28  C   UNL     1     142.832  80.476 223.417 -0.68 -0.00    +0.000 A  
DOCKED: ATOM     29  C   UNL     1     141.750  81.341 223.603 -0.57 -0.00    +0.000 A  
DOCKED: ENDBRANCH  23  24
DOCKED: ENDBRANCH  20  23
DOCKED: BRANCH  22  30
DOCKED: ATOM     30  O   UNL     1     142.939  77.450 219.845 -0.08 +0.34    -0.391 OA 
DOCKED: ATOM     31  H   UNL     1     143.606  77.514 220.578 -0.47 -0.28    +0.211 HD 
DOCKED: ENDBRANCH  22  30
DOCKED: ENDBRANCH  16  18
DOCKED: ENDBRANCH   1  16
DOCKED: TORSDOF 8
DOCKED: TER
DOCKED: ENDMDL
________________________________________________________________________________


    FINAL DOCKED STATE:
    ________________________


Run:   2 / 20
Time taken for this run:   0.046s

DOCKED: MODEL        2
DOCKED: USER    Run = 2
DOCKED: USER
DOCKED: USER    Estimated Free Energy of Binding    =  -7.00 kcal/mol  [=(1)+(2)+(3)-(4)]
DOCKED: USER
DOCKED: USER    (1) Final Intermolecular Energy     =  -9.39 kcal/mol
DOCKED: USER        vdW + Hbond + desolv Energy     =  -9.53 kcal/mol
DOCKED: USER        Electrostatic Energy            =  +0.15 kcal/mol
DOCKED: USER        Moving Ligand-Fixed Receptor    =  -9.39 kcal/mol
DOCKED: USER        Moving Ligand-Moving Receptor   =  +0.00 kcal/mol
DOCKED: USER    (2) Final Total Internal Energy     =  -2.42 kcal/mol
DOCKED: USER    (3) Torsional Free Energy           =  +2.39 kcal/mol
DOCKED: USER    (4) Unbound System's Energy         =  -2.42 kcal/mol
DOCKED: USER
DOCKED: USER
DOCKED: REMARK SMILES O=C([N-]CC(=O)N1CC[C@H](O)[C@H]1Cc1ccccc1)c1ccc2cc(Cl)ccc2n1
DOCKED: REMARK SMILES IDX 4 1 3 2 2 3 1 4 20 5 21 6 30 7 22 8 29 9 23 10 28 11 24 12
DOCKED: REMARK SMILES IDX 27 13 25 14 26 15 5 16 6 17 7 18 8 19 12 20 9 21 10 22 13 23
DOCKED: REMARK SMILES IDX 14 24 15 25 19 26 16 27 18 28 17 29 11 30
DOCKED: REMARK H PARENT 11 31
DOCKED: USER                              x       y       z     vdW  Elec       q    Type
DOCKED: USER                           _______ _______ _______ _____ _____    ______ ____
DOCKED: ROOT
DOCKED: ATOM      1  C   UNL     1     140.087  73.211 220.806 -0.18 +0.00    -0.015 C  
DOCKED: ENDROOT
DOCKED: BRANCH   1   2
DOCKED: ATOM      2  N   UNL     1     138.671  73.559 220.868 +0.02 +0.14    -0.640 NA 
DOCKED: BRANCH   2   3
DOCKED: ATOM      3  C   UNL     1     138.055  74.296 221.931 -0.14 -0.03    +0.101 C  
DOCKED: ATOM      4  O   UNL     1     137.128  73.752 222.587 -0.04 +0.12    -0.313 OA 
DOCKED: BRANCH   3   5
DOCKED: ATOM      5  C   UNL     1     138.435  75.681 222.253 -0.25 -0.02    +0.088 A  
DOCKED: ATOM      6  C   UNL     1     137.490  76.601 222.731 -0.27 -0.01    +0.031 A  
DOCKED: ATOM      7  N   UNL     1     139.715  76.088 222.024 -0.27 +0.05    -0.246 NA 
DOCKED: ATOM      8  C   UNL     1     137.882  77.914 223.006 -0.17 -0.00    +0.013 A  
DOCKED: ATOM      9  C   UNL     1     140.123  77.359 222.280 -0.35 -0.02    +0.071 A  
DOCKED: ATOM     10  C   UNL     1     139.206  78.306 222.786 -0.32 -0.00    +0.002 A  
DOCKED: ATOM     11  C   UNL     1     141.452  77.731 222.045 -0.29 -0.02    +0.030 A  
DOCKED: ATOM     12  C   UNL     1     139.632  79.617 223.048 -0.36 -0.01    +0.030 A  
DOCKED: ATOM     13  C   UNL     1     141.870  79.038 222.310 -0.49 -0.01    +0.023 A  
DOCKED: ATOM     14  C   UNL     1     140.963  79.981 222.810 -0.43 -0.01    +0.041 A  
DOCKED: ATOM     15  Cl  UNL     1     141.495  81.619 223.140 -0.52 +0.01    -0.084 Cl 
DOCKED: ENDBRANCH   3   5
DOCKED: ENDBRANCH   2   3
DOCKED: ENDBRANCH   1   2
DOCKED: BRANCH   1  16
DOCKED: ATOM     16  C   UNL     1     140.311  71.885 221.468 -0.16 -0.03    +0.205 C  
DOCKED: ATOM     17  O   UNL     1     141.478  71.411 221.520 -0.11 +0.03    -0.277 OA 
DOCKED: BRANCH  16  18
DOCKED: ATOM     18  N   UNL     1     139.221  71.176 222.084 -0.07 +0.06    -0.338 N  
DOCKED: ATOM     19  C   UNL     1     138.080  70.706 221.315 -0.07 -0.02    +0.122 C  
DOCKED: ATOM     20  C   UNL     1     138.966  71.184 223.522 -0.26 -0.03    +0.118 C  
DOCKED: ATOM     21  C   UNL     1     136.906  70.716 222.279 -0.10 -0.01    +0.055 C  
DOCKED: ATOM     22  C   UNL     1     137.516  70.688 223.682 -0.19 -0.03    +0.139 C  
DOCKED: BRANCH  20  23
DOCKED: ATOM     23  C   UNL     1     139.945  70.253 224.272 -0.34 -0.01    +0.063 C  
DOCKED: BRANCH  23  24
DOCKED: ATOM     24  C   UNL     1     140.232  70.720 225.676 -0.51 +0.01    -0.046 A  
DOCKED: ATOM     25  C   UNL     1     139.738  70.002 226.780 -0.50 -0.00    +0.004 A  
DOCKED: ATOM     26  C   UNL     1     141.022  71.861 225.896 -0.57 -0.00    +0.004 A  
DOCKED: ATOM     27  C   UNL     1     140.036  70.417 228.081 -0.64 -0.00    +0.000 A  
DOCKED: ATOM     28  C   UNL     1     141.316  72.273 227.199 -0.81 -0.00    +0.000 A  
DOCKED: ATOM     29  C   UNL     1     140.824  71.552 228.291 -0.77 -0.00    +0.000 A  
DOCKED: ENDBRANCH  23  24
DOCKED: ENDBRANCH  20  23
DOCKED: BRANCH  22  30
DOCKED: ATOM     30  O   UNL     1     136.805  71.523 224.558 +0.08 +0.08    -0.391 OA 
DOCKED: ATOM     31  H   UNL     1     137.055  72.455 224.325 -0.45 -0.10    +0.211 HD 
DOCKED: ENDBRANCH  22  30
DOCKED: ENDBRANCH  16  18
DOCKED: ENDBRANCH   1  16
DOCKED: TORSDOF 8
DOCKED: TER
DOCKED: ENDMDL
________________________________________________________________________________


    FINAL DOCKED STATE:
    ________________________


Run:   3 / 20
Time taken for this run:   0.046s

DOCKED: MODEL        3
DOCKED: USER    Run = 3
DOCKED: USER
DOCKED: USER    Estimated Free Energy of Binding    =  -8.57 kcal/mol  [=(1)+(2)+(3)-(4)]
DOCKED: USER
DOCKED: USER    (1) Final Intermolecular Energy     = -10.96 kcal/mol
DOCKED: USER        vdW + Hbond + desolv Energy     = -11.06 kcal/mol
DOCKED: USER        Electrostatic Energy            =  +0.10 kcal/mol
DOCKED: USER        Moving Ligand-Fixed Receptor    = -10.96 kcal/mol
DOCKED: USER        Moving Ligand-Moving Receptor   =  +0.00 kcal/mol
DOCKED: USER    (2) Final Total Internal Energy     =  -1.39 kcal/mol
DOCKED: USER    (3) Torsional Free Energy           =  +2.39 kcal/mol
DOCKED: USER    (4) Unbound System's Energy         =  -1.39 kcal/mol
DOCKED: USER
DOCKED: USER
DOCKED: REMARK SMILES O=C([N-]CC(=O)N1CC[C@H](O)[C@H]1Cc1ccccc1)c1ccc2cc(Cl)ccc2n1
DOCKED: REMARK SMILES IDX 4 1 3 2 2 3 1 4 20 5 21 6 30 7 22 8 29 9 23 10 28 11 24 12
DOCKED: REMARK SMILES IDX 27 13 25 14 26 15 5 16 6 17 7 18 8 19 12 20 9 21 10 22 13 23
DOCKED: REMARK SMILES IDX 14 24 15 25 19 26 16 27 18 28 17 29 11 30
DOCKED: REMARK H PARENT 11 31
DOCKED: USER                              x       y       z     vdW  Elec       q    Type
DOCKED: USER                           _______ _______ _______ _____ _____    ______ ____
DOCKED: ROOT
DOCKED: ATOM      1  C   UNL     1     138.515  74.482 220.783 -0.13 +0.00    -0.015 C  
DOCKED: ENDROOT
DOCKED: BRANCH   1   2
DOCKED: ATOM      2  N   UNL     1     138.693  73.072 221.112 +0.01 +0.14    -0.640 NA 
DOCKED: BRANCH   2   3
DOCKED: ATOM      3  C   UNL     1     139.905  72.494 221.612 -0.22 -0.02    +0.101 C  
DOCKED: ATOM      4  O   UNL     1     140.988  72.757 221.026 -0.14 +0.04    -0.313 OA 
DOCKED: BRANCH   3   5
DOCKED: ATOM      5  C   UNL     1     139.923  71.569 222.757 -0.29 -0.01    +0.088 A  
DOCKED: ATOM      6  C   UNL     1     139.356  70.289 222.666 -0.20 -0.01    +0.031 A  
DOCKED: ATOM      7  N   UNL     1     140.448  71.990 223.941 -0.25 +0.03    -0.246 NA 
DOCKED: ATOM      8  C   UNL     1     139.371  69.446 223.779 -0.26 -0.00    +0.013 A  
DOCKED: ATOM      9  C   UNL     1     140.475  71.191 225.042 -0.48 -0.01    +0.071 A  
DOCKED: ATOM     10  C   UNL     1     139.936  69.888 224.980 -0.41 -0.00    +0.002 A  
DOCKED: ATOM     11  C   UNL     1     141.038  71.658 226.235 -0.65 -0.00    +0.030 A  
DOCKED: ATOM     12  C   UNL     1     139.965  69.068 226.119 -0.50 -0.00    +0.030 A  
DOCKED: ATOM     13  C   UNL     1     141.065  70.835 227.365 -0.65 -0.00    +0.023 A  
DOCKED: ATOM     14  C   UNL     1     140.530  69.543 227.308 -0.56 -0.01    +0.041 A  
DOCKED: ATOM     15  Cl  UNL     1     140.568  68.516 228.730 -0.68 +0.02    -0.084 Cl 
DOCKED: ENDBRANCH   3   5
DOCKED: ENDBRANCH   2   3
DOCKED: ENDBRANCH   1   2
DOCKED: BRANCH   1  16
DOCKED: ATOM     16  C   UNL     1     139.737  75.252 221.182 -0.19 -0.04    +0.205 C  
DOCKED: ATOM     17  O   UNL     1     139.948  75.486 222.403 -0.55 +0.03    -0.277 OA 
DOCKED: BRANCH  16  18
DOCKED: ATOM     18  N   UNL     1     140.691  75.683 220.194 -0.05 +0.10    -0.338 N  
DOCKED: ATOM     19  C   UNL     1     140.939  74.918 218.984 -0.06 -0.03    +0.122 C  
DOCKED: ATOM     20  C   UNL     1     141.734  76.672 220.459 -0.23 -0.06    +0.118 C  
DOCKED: ATOM     21  C   UNL     1     142.386  75.197 218.612 -0.16 -0.02    +0.055 C  
DOCKED: ATOM     22  C   UNL     1     142.752  76.507 219.315 -0.29 -0.08    +0.139 C  
DOCKED: BRANCH  20  23
DOCKED: ATOM     23  C   UNL     1     141.158  78.106 220.473 -0.25 -0.03    +0.063 C  
DOCKED: BRANCH  23  24
DOCKED: ATOM     24  C   UNL     1     141.563  78.883 221.699 -0.38 +0.02    -0.046 A  
DOCKED: ATOM     25  C   UNL     1     141.392  78.331 222.980 -0.53 -0.00    +0.004 A  
DOCKED: ATOM     26  C   UNL     1     142.144  80.156 221.570 -0.45 -0.00    +0.004 A  
DOCKED: ATOM     27  C   UNL     1     141.802  79.040 224.114 -0.59 -0.00    +0.000 A  
DOCKED: ATOM     28  C   UNL     1     142.552  80.862 222.706 -0.57 -0.00    +0.000 A  
DOCKED: ATOM     29  C   UNL     1     142.381  80.304 223.976 -0.61 -0.00    +0.000 A  
DOCKED: ENDBRANCH  23  24
DOCKED: ENDBRANCH  20  23
DOCKED: BRANCH  22  30
DOCKED: ATOM     30  O   UNL     1     144.059  76.457 219.824 -0.25 +0.32    -0.391 OA 
DOCKED: ATOM     31  H   UNL     1     144.117  77.158 220.524 -0.48 -0.26    +0.211 HD 
DOCKED: ENDBRANCH  22  30
DOCKED: ENDBRANCH  16  18
DOCKED: ENDBRANCH   1  16
DOCKED: TORSDOF 8
DOCKED: TER
DOCKED: ENDMDL
________________________________________________________________________________


    FINAL DOCKED STATE:
    ________________________


Run:   4 / 20
Time taken for this run:   0.046s

DOCKED: MODEL        4
DOCKED: USER    Run = 4
DOCKED: USER
DOCKED: USER    Estimated Free Energy of Binding    =  -7.16 kcal/mol  [=(1)+(2)+(3)-(4)]
DOCKED: USER
DOCKED: USER    (1) Final Intermolecular Energy     =  -9.55 kcal/mol
DOCKED: USER        vdW + Hbond + desolv Energy     =  -9.64 kcal/mol
DOCKED: USER        Electrostatic Energy            =  +0.09 kcal/mol
DOCKED: USER        Moving Ligand-Fixed Receptor    =  -9.55 kcal/mol
DOCKED: USER        Moving Ligand-Moving Receptor   =  +0.00 kcal/mol
DOCKED: USER    (2) Final Total Internal Energy     =  -2.39 kcal/mol
DOCKED: USER    (3) Torsional Free Energy           =  +2.39 kcal/mol
DOCKED: USER    (4) Unbound System's Energy         =  -2.39 kcal/mol
DOCKED: USER
DOCKED: USER
DOCKED: REMARK SMILES O=C([N-]CC(=O)N1CC[C@H](O)[C@H]1Cc1ccccc1)c1ccc2cc(Cl)ccc2n1
DOCKED: REMARK SMILES IDX 4 1 3 2 2 3 1 4 20 5 21 6 30 7 22 8 29 9 23 10 28 11 24 12
DOCKED: REMARK SMILES IDX 27 13 25 14 26 15 5 16 6 17 7 18 8 19 12 20 9 21 10 22 13 23
DOCKED: REMARK SMILES IDX 14 24 15 25 19 26 16 27 18 28 17 29 11 30
DOCKED: REMARK H PARENT 11 31
DOCKED: USER                              x       y       z     vdW  Elec       q    Type
DOCKED: USER                           _______ _______ _______ _____ _____    ______ ____
DOCKED: ROOT
DOCKED: ATOM      1  C   UNL     1     140.443  71.173 220.352 -0.12 +0.00    -0.015 C  
DOCKED: ENDROOT
DOCKED: BRANCH   1   2
DOCKED: ATOM      2  N   UNL     1     141.039  72.052 221.353 +0.00 +0.08    -0.640 NA 
DOCKED: BRANCH   2   3
DOCKED: ATOM      3  C   UNL     1     140.402  73.208 221.911 -0.26 -0.01    +0.101 C  
DOCKED: ATOM      4  O   UNL     1     139.455  73.044 222.725 -0.50 +0.08    -0.313 OA 
DOCKED: BRANCH   3   5
DOCKED: ATOM      5  C   UNL     1     140.784  74.578 221.533 -0.29 -0.01    +0.088 A  
DOCKED: ATOM      6  C   UNL     1     141.669  74.819 220.472 -0.26 -0.01    +0.031 A  
DOCKED: ATOM      7  N   UNL     1     140.314  75.625 222.268 -0.45 +0.03    -0.246 NA 
DOCKED: ATOM      8  C   UNL     1     142.028  76.131 220.155 -0.29 -0.01    +0.013 A  
DOCKED: ATOM      9  C   UNL     1     140.647  76.912 221.984 -0.36 -0.02    +0.071 A  
DOCKED: ATOM     10  C   UNL     1     141.516  77.194 220.907 -0.29 -0.00    +0.002 A  
DOCKED: ATOM     11  C   UNL     1     140.129  77.959 222.755 -0.35 -0.01    +0.030 A  
DOCKED: ATOM     12  C   UNL     1     141.858  78.524 220.618 -0.28 -0.02    +0.030 A  
DOCKED: ATOM     13  C   UNL     1     140.473  79.281 222.460 -0.36 -0.01    +0.023 A  
DOCKED: ATOM     14  C   UNL     1     141.336  79.565 221.395 -0.34 -0.02    +0.041 A  
DOCKED: ATOM     15  Cl  UNL     1     141.761  81.227 221.031 -0.38 +0.03    -0.084 Cl 
DOCKED: ENDBRANCH   3   5
DOCKED: ENDBRANCH   2   3
DOCKED: ENDBRANCH   1   2
DOCKED: BRANCH   1  16
DOCKED: ATOM     16  C   UNL     1     139.992  69.900 221.001 -0.06 -0.04    +0.205 C  
DOCKED: ATOM     17  O   UNL     1     140.659  68.845 220.821 -0.03 +0.05    -0.277 OA 
DOCKED: BRANCH  16  18
DOCKED: ATOM     18  N   UNL     1     138.839  69.881 221.862 -0.05 +0.06    -0.338 N  
DOCKED: ATOM     19  C   UNL     1     137.496  69.691 221.340 -0.06 -0.02    +0.122 C  
DOCKED: ATOM     20  C   UNL     1     138.844  70.404 223.226 -0.22 -0.02    +0.118 C  
DOCKED: ATOM     21  C   UNL     1     136.577  70.435 222.294 -0.08 -0.01    +0.055 C  
DOCKED: ATOM     22  C   UNL     1     137.361  70.579 223.601 -0.18 -0.02    +0.139 C  
DOCKED: BRANCH  20  23
DOCKED: ATOM     23  C   UNL     1     139.540  69.426 224.200 -0.27 -0.01    +0.063 C  
DOCKED: BRANCH  23  24
DOCKED: ATOM     24  C   UNL     1     139.988  70.095 225.474 -0.44 +0.01    -0.046 A  
DOCKED: ATOM     25  C   UNL     1     140.743  71.280 225.428 -0.58 -0.00    +0.004 A  
DOCKED: ATOM     26  C   UNL     1     139.629  69.556 226.721 -0.52 -0.00    +0.004 A  
DOCKED: ATOM     27  C   UNL     1     141.126  71.918 226.612 -0.73 -0.00    +0.000 A  
DOCKED: ATOM     28  C   UNL     1     140.015  70.196 227.902 -0.64 -0.00    +0.000 A  
DOCKED: ATOM     29  C   UNL     1     140.763  71.376 227.848 -0.78 -0.00    +0.000 A  
DOCKED: ENDBRANCH  23  24
DOCKED: ENDBRANCH  20  23
DOCKED: BRANCH  22  30
DOCKED: ATOM     30  O   UNL     1     137.146  71.839 224.181 -0.05 +0.12    -0.391 OA 
DOCKED: ATOM     31  H   UNL     1     137.819  72.452 223.783 -0.42 -0.13    +0.211 HD 
DOCKED: ENDBRANCH  22  30
DOCKED: ENDBRANCH  16  18
DOCKED: ENDBRANCH   1  16
DOCKED: TORSDOF 8
DOCKED: TER
DOCKED: ENDMDL
________________________________________________________________________________


    FINAL DOCKED STATE:
    ________________________


Run:   5 / 20
Time taken for this run:   0.046s

DOCKED: MODEL        5
DOCKED: USER    Run = 5
DOCKED: USER
DOCKED: USER    Estimated Free Energy of Binding    =  -8.60 kcal/mol  [=(1)+(2)+(3)-(4)]
DOCKED: USER
DOCKED: USER    (1) Final Intermolecular Energy     = -10.99 kcal/mol
DOCKED: USER        vdW + Hbond + desolv Energy     = -10.97 kcal/mol
DOCKED: USER        Electrostatic Energy            =  -0.02 kcal/mol
DOCKED: USER        Moving Ligand-Fixed Receptor    = -10.99 kcal/mol
DOCKED: USER        Moving Ligand-Moving Receptor   =  +0.00 kcal/mol
DOCKED: USER    (2) Final Total Internal Energy     =  -1.40 kcal/mol
DOCKED: USER    (3) Torsional Free Energy           =  +2.39 kcal/mol
DOCKED: USER    (4) Unbound System's Energy         =  -1.40 kcal/mol
DOCKED: USER
DOCKED: USER
DOCKED: REMARK SMILES O=C([N-]CC(=O)N1CC[C@H](O)[C@H]1Cc1ccccc1)c1ccc2cc(Cl)ccc2n1
DOCKED: REMARK SMILES IDX 4 1 3 2 2 3 1 4 20 5 21 6 30 7 22 8 29 9 23 10 28 11 24 12
DOCKED: REMARK SMILES IDX 27 13 25 14 26 15 5 16 6 17 7 18 8 19 12 20 9 21 10 22 13 23
DOCKED: REMARK SMILES IDX 14 24 15 25 19 26 16 27 18 28 17 29 11 30
DOCKED: REMARK H PARENT 11 31
DOCKED: USER                              x       y       z     vdW  Elec       q    Type
DOCKED: USER                           _______ _______ _______ _____ _____    ______ ____
DOCKED: ROOT
DOCKED: ATOM      1  C   UNL     1     139.419  75.435 221.792 -0.30 +0.00    -0.015 C  
DOCKED: ENDROOT
DOCKED: BRANCH   1   2
DOCKED: ATOM      2  N   UNL     1     140.257  74.346 222.284 -0.53 -0.02    -0.640 NA 
DOCKED: BRANCH   2   3
DOCKED: ATOM      3  C   UNL     1     140.041  72.957 222.005 -0.26 -0.01    +0.101 C  
DOCKED: ATOM      4  O   UNL     1     139.787  72.609 220.822 -0.06 +0.06    -0.313 OA 
DOCKED: BRANCH   3   5
DOCKED: ATOM      5  C   UNL     1     140.062  71.930 223.059 -0.32 -0.01    +0.088 A  
DOCKED: ATOM      6  C   UNL     1     139.537  70.649 222.835 -0.25 -0.01    +0.031 A  
DOCKED: ATOM      7  N   UNL     1     140.547  72.253 224.291 -0.05 +0.03    -0.246 NA 
DOCKED: ATOM      8  C   UNL     1     139.554  69.705 223.865 -0.28 -0.00    +0.013 A  
DOCKED: ATOM      9  C   UNL     1     140.574  71.356 225.312 -0.51 -0.01    +0.071 A  
DOCKED: ATOM     10  C   UNL     1     140.077  70.049 225.116 -0.44 -0.00    +0.002 A  
DOCKED: ATOM     11  C   UNL     1     141.095  71.725 226.558 -0.70 -0.00    +0.030 A  
DOCKED: ATOM     12  C   UNL     1     140.106  69.127 226.174 -0.50 -0.01    +0.030 A  
DOCKED: ATOM     13  C   UNL     1     141.123  70.801 227.606 -0.61 -0.00    +0.023 A  
DOCKED: ATOM     14  C   UNL     1     140.629  69.505 227.416 -0.57 -0.01    +0.041 A  
DOCKED: ATOM     15  Cl  UNL     1     140.668  68.351 228.737 -0.65 +0.02    -0.084 Cl 
DOCKED: ENDBRANCH   3   5
DOCKED: ENDBRANCH   2   3
DOCKED: ENDBRANCH   1   2
DOCKED: BRANCH   1  16
DOCKED: ATOM     16  C   UNL     1     139.454  75.463 220.294 -0.08 -0.05    +0.205 C  
DOCKED: ATOM     17  O   UNL     1     138.411  75.172 219.647 -0.02 +0.06    -0.277 OA 
DOCKED: BRANCH  16  18
DOCKED: ATOM     18  N   UNL     1     140.644  75.864 219.592 -0.02 +0.11    -0.338 N  
DOCKED: ATOM     19  C   UNL     1     141.101  75.170 218.400 -0.05 -0.04    +0.122 C  
DOCKED: ATOM     20  C   UNL     1     141.677  76.715 220.179 -0.24 -0.06    +0.118 C  
DOCKED: ATOM     21  C   UNL     1     142.613  75.323 218.392 -0.18 -0.02    +0.055 C  
DOCKED: ATOM     22  C   UNL     1     142.915  76.531 219.282 -0.30 -0.09    +0.139 C  
DOCKED: BRANCH  20  23
DOCKED: ATOM     23  C   UNL     1     141.237  78.197 220.203 -0.24 -0.03    +0.063 C  
DOCKED: BRANCH  23  24
DOCKED: ATOM     24  C   UNL     1     141.617  78.895 221.483 -0.36 +0.02    -0.046 A  
DOCKED: ATOM     25  C   UNL     1     142.167  80.189 221.452 -0.43 -0.00    +0.004 A  
DOCKED: ATOM     26  C   UNL     1     141.395  78.272 222.722 -0.50 -0.00    +0.004 A  
DOCKED: ATOM     27  C   UNL     1     142.484  80.849 222.643 -0.57 -0.00    +0.000 A  
DOCKED: ATOM     28  C   UNL     1     141.715  78.935 223.911 -0.61 -0.00    +0.000 A  
DOCKED: ATOM     29  C   UNL     1     142.259  80.222 223.871 -0.64 -0.00    +0.000 A  
DOCKED: ENDBRANCH  23  24
DOCKED: ENDBRANCH  20  23
DOCKED: BRANCH  22  30
DOCKED: ATOM     30  O   UNL     1     144.059  76.305 220.064 -0.26 +0.32    -0.391 OA 
DOCKED: ATOM     31  H   UNL     1     144.253  77.159 220.533 -0.46 -0.26    +0.211 HD 
DOCKED: ENDBRANCH  22  30
DOCKED: ENDBRANCH  16  18
DOCKED: ENDBRANCH   1  16
DOCKED: TORSDOF 8
DOCKED: TER
DOCKED: ENDMDL
________________________________________________________________________________


    FINAL DOCKED STATE:
    ________________________


Run:   6 / 20
Time taken for this run:   0.046s

DOCKED: MODEL        6
DOCKED: USER    Run = 6
DOCKED: USER
DOCKED: USER    Estimated Free Energy of Binding    =  -7.86 kcal/mol  [=(1)+(2)+(3)-(4)]
DOCKED: USER
DOCKED: USER    (1) Final Intermolecular Energy     = -10.24 kcal/mol
DOCKED: USER        vdW + Hbond + desolv Energy     = -10.37 kcal/mol
DOCKED: USER        Electrostatic Energy            =  +0.13 kcal/mol
DOCKED: USER        Moving Ligand-Fixed Receptor    = -10.24 kcal/mol
DOCKED: USER        Moving Ligand-Moving Receptor   =  +0.00 kcal/mol
DOCKED: USER    (2) Final Total Internal Energy     =  -1.37 kcal/mol
DOCKED: USER    (3) Torsional Free Energy           =  +2.39 kcal/mol
DOCKED: USER    (4) Unbound System's Energy         =  -1.37 kcal/mol
DOCKED: USER
DOCKED: USER
DOCKED: REMARK SMILES O=C([N-]CC(=O)N1CC[C@H](O)[C@H]1Cc1ccccc1)c1ccc2cc(Cl)ccc2n1
DOCKED: REMARK SMILES IDX 4 1 3 2 2 3 1 4 20 5 21 6 30 7 22 8 29 9 23 10 28 11 24 12
DOCKED: REMARK SMILES IDX 27 13 25 14 26 15 5 16 6 17 7 18 8 19 12 20 9 21 10 22 13 23
DOCKED: REMARK SMILES IDX 14 24 15 25 19 26 16 27 18 28 17 29 11 30
DOCKED: REMARK H PARENT 11 31
DOCKED: USER                              x       y       z     vdW  Elec       q    Type
DOCKED: USER                           _______ _______ _______ _____ _____    ______ ____
DOCKED: ROOT
DOCKED: ATOM      1  C   UNL     1     139.398  75.214 221.183 -0.23 +0.00    -0.015 C  
DOCKED: ENDROOT
DOCKED: BRANCH   1   2
DOCKED: ATOM      2  N   UNL     1     140.041  74.236 222.055 -0.61 +0.05    -0.640 NA 
DOCKED: BRANCH   2   3
DOCKED: ATOM      3  C   UNL     1     140.079  72.824 221.814 -0.25 -0.01    +0.101 C  
DOCKED: ATOM      4  O   UNL     1     140.069  72.412 220.624 -0.06 +0.05    -0.313 OA 
DOCKED: BRANCH   3   5
DOCKED: ATOM      5  C   UNL     1     140.084  71.838 222.907 -0.31 -0.01    +0.088 A  
DOCKED: ATOM      6  C   UNL     1     139.562  70.549 222.724 -0.23 -0.01    +0.031 A  
DOCKED: ATOM      7  N   UNL     1     140.551  72.208 224.132 -0.12 +0.03    -0.246 NA 
DOCKED: ATOM      8  C   UNL     1     139.563  69.646 223.790 -0.27 -0.00    +0.013 A  
DOCKED: ATOM      9  C   UNL     1     140.562  71.351 225.187 -0.49 -0.01    +0.071 A  
DOCKED: ATOM     10  C   UNL     1     140.068  70.037 225.034 -0.43 -0.00    +0.002 A  
DOCKED: ATOM     11  C   UNL     1     141.065  71.768 226.425 -0.68 -0.00    +0.030 A  
DOCKED: ATOM     12  C   UNL     1     140.081  69.157 226.127 -0.49 -0.01    +0.030 A  
DOCKED: ATOM     13  C   UNL     1     141.077  70.885 227.509 -0.66 -0.00    +0.023 A  
DOCKED: ATOM     14  C   UNL     1     140.586  69.582 227.362 -0.56 -0.01    +0.041 A  
DOCKED: ATOM     15  Cl  UNL     1     140.605  68.479 228.726 -0.68 +0.02    -0.084 Cl 
DOCKED: ENDBRANCH   3   5
DOCKED: ENDBRANCH   2   3
DOCKED: ENDBRANCH   1   2
DOCKED: BRANCH   1  16
DOCKED: ATOM     16  C   UNL     1     138.822  76.325 222.008 -0.22 -0.04    +0.205 C  
DOCKED: ATOM     17  O   UNL     1     138.252  76.052 223.099 -0.24 +0.07    -0.277 OA 
DOCKED: BRANCH  16  18
DOCKED: ATOM     18  N   UNL     1     138.955  77.696 221.592 -0.07 +0.08    -0.338 N  
DOCKED: ATOM     19  C   UNL     1     138.087  78.741 222.108 -0.16 -0.02    +0.122 C  
DOCKED: ATOM     20  C   UNL     1     139.677  78.106 220.389 -0.10 -0.03    +0.118 C  
DOCKED: ATOM     21  C   UNL     1     137.990  79.776 221.000 -0.08 -0.01    +0.055 C  
DOCKED: ATOM     22  C   UNL     1     139.209  79.546 220.105 -0.06 -0.04    +0.139 C  
DOCKED: BRANCH  20  23
DOCKED: ATOM     23  C   UNL     1     141.206  78.064 220.610 -0.26 -0.03    +0.063 C  
DOCKED: BRANCH  23  24
DOCKED: ATOM     24  C   UNL     1     141.642  78.857 221.815 -0.40 +0.02    -0.046 A  
DOCKED: ATOM     25  C   UNL     1     142.182  80.146 221.661 -0.46 -0.00    +0.004 A  
DOCKED: ATOM     26  C   UNL     1     141.482  78.328 223.107 -0.54 -0.00    +0.004 A  
DOCKED: ATOM     27  C   UNL     1     142.551  80.894 222.784 -0.58 -0.00    +0.000 A  
DOCKED: ATOM     28  C   UNL     1     141.854  79.078 224.226 -0.55 -0.00    +0.000 A  
DOCKED: ATOM     29  C   UNL     1     142.388  80.360 224.065 -0.58 -0.00    +0.000 A  
DOCKED: ENDBRANCH  23  24
DOCKED: ENDBRANCH  20  23
DOCKED: BRANCH  22  30
DOCKED: ATOM     30  O   UNL     1     138.874  79.694 218.750 +0.00 +0.11    -0.391 OA 
DOCKED: ATOM     31  H   UNL     1     137.931  80.003 218.724 +0.01 -0.05    +0.211 HD 
DOCKED: ENDBRANCH  22  30
DOCKED: ENDBRANCH  16  18
DOCKED: ENDBRANCH   1  16
DOCKED: TORSDOF 8
DOCKED: TER
DOCKED: ENDMDL
________________________________________________________________________________


    FINAL DOCKED STATE:
    ________________________


Run:   7 / 20
Time taken for this run:   0.046s

DOCKED: MODEL        7
DOCKED: USER    Run = 7
DOCKED: USER
DOCKED: USER    Estimated Free Energy of Binding    =  -7.77 kcal/mol  [=(1)+(2)+(3)-(4)]
DOCKED: USER
DOCKED: USER    (1) Final Intermolecular Energy     = -10.15 kcal/mol
DOCKED: USER        vdW + Hbond + desolv Energy     = -10.40 kcal/mol
DOCKED: USER        Electrostatic Energy            =  +0.25 kcal/mol
DOCKED: USER        Moving Ligand-Fixed Receptor    = -10.15 kcal/mol
DOCKED: USER        Moving Ligand-Moving Receptor   =  +0.00 kcal/mol
DOCKED: USER    (2) Final Total Internal Energy     =  -2.38 kcal/mol
DOCKED: USER    (3) Torsional Free Energy           =  +2.39 kcal/mol
DOCKED: USER    (4) Unbound System's Energy         =  -2.38 kcal/mol
DOCKED: USER
DOCKED: USER
DOCKED: REMARK SMILES O=C([N-]CC(=O)N1CC[C@H](O)[C@H]1Cc1ccccc1)c1ccc2cc(Cl)ccc2n1
DOCKED: REMARK SMILES IDX 4 1 3 2 2 3 1 4 20 5 21 6 30 7 22 8 29 9 23 10 28 11 24 12
DOCKED: REMARK SMILES IDX 27 13 25 14 26 15 5 16 6 17 7 18 8 19 12 20 9 21 10 22 13 23
DOCKED: REMARK SMILES IDX 14 24 15 25 19 26 16 27 18 28 17 29 11 30
DOCKED: REMARK H PARENT 11 31
DOCKED: USER                              x       y       z     vdW  Elec       q    Type
DOCKED: USER                           _______ _______ _______ _____ _____    ______ ____
DOCKED: ROOT
DOCKED: ATOM      1  C   UNL     1     137.452  73.729 221.965 -0.15 +0.00    -0.015 C  
DOCKED: ENDROOT
DOCKED: BRANCH   1   2
DOCKED: ATOM      2  N   UNL     1     138.720  73.272 221.406 -0.01 +0.15    -0.640 NA 
DOCKED: BRANCH   2   3
DOCKED: ATOM      3  C   UNL     1     139.909  73.026 222.168 -0.24 -0.01    +0.101 C  
DOCKED: ATOM      4  O   UNL     1     140.932  73.721 221.934 -0.65 +0.01    -0.313 OA 
DOCKED: BRANCH   3   5
DOCKED: ATOM      5  C   UNL     1     139.989  71.962 223.182 -0.31 -0.02    +0.088 A  
DOCKED: ATOM      6  C   UNL     1     139.530  70.665 222.911 -0.25 -0.01    +0.031 A  
DOCKED: ATOM      7  N   UNL     1     140.463  72.263 224.423 -0.00 +0.04    -0.246 NA 
DOCKED: ATOM      8  C   UNL     1     139.601  69.685 223.904 -0.27 -0.00    +0.013 A  
DOCKED: ATOM      9  C   UNL     1     140.543  71.330 225.409 -0.51 -0.01    +0.071 A  
DOCKED: ATOM     10  C   UNL     1     140.113  70.008 225.165 -0.44 -0.00    +0.002 A  
DOCKED: ATOM     11  C   UNL     1     141.051  71.679 226.666 -0.71 -0.00    +0.030 A  
DOCKED: ATOM     12  C   UNL     1     140.196  69.049 226.187 -0.51 -0.01    +0.030 A  
DOCKED: ATOM     13  C   UNL     1     141.133  70.718 227.678 -0.60 -0.00    +0.023 A  
DOCKED: ATOM     14  C   UNL     1     140.706  69.406 227.441 -0.58 -0.01    +0.041 A  
DOCKED: ATOM     15  Cl  UNL     1     140.812  68.206 228.716 -0.66 +0.02    -0.084 Cl 
DOCKED: ENDBRANCH   3   5
DOCKED: ENDBRANCH   2   3
DOCKED: ENDBRANCH   1   2
DOCKED: BRANCH   1  16
DOCKED: ATOM     16  C   UNL     1     137.450  75.225 222.058 -0.15 -0.06    +0.205 C  
DOCKED: ATOM     17  O   UNL     1     136.617  75.794 222.814 -0.17 +0.07    -0.277 OA 
DOCKED: BRANCH  16  18
DOCKED: ATOM     18  N   UNL     1     138.415  76.009 221.335 -0.07 +0.08    -0.338 N  
DOCKED: ATOM     19  C   UNL     1     138.507  75.964 219.885 -0.04 -0.03    +0.122 C  
DOCKED: ATOM     20  C   UNL     1     139.595  76.607 221.955 -0.29 -0.03    +0.118 C  
DOCKED: ATOM     21  C   UNL     1     139.963  76.251 219.558 -0.08 -0.02    +0.055 C  
DOCKED: ATOM     22  C   UNL     1     140.534  76.961 220.788 -0.19 -0.05    +0.139 C  
DOCKED: BRANCH  20  23
DOCKED: ATOM     23  C   UNL     1     139.225  77.874 222.760 -0.26 -0.01    +0.063 C  
DOCKED: BRANCH  23  24
DOCKED: ATOM     24  C   UNL     1     140.339  78.888 222.792 -0.39 +0.01    -0.046 A  
DOCKED: ATOM     25  C   UNL     1     140.183  80.136 222.164 -0.30 -0.00    +0.004 A  
DOCKED: ATOM     26  C   UNL     1     141.533  78.607 223.478 -0.59 -0.00    +0.004 A  
DOCKED: ATOM     27  C   UNL     1     141.205  81.089 222.227 -0.43 -0.00    +0.000 A  
DOCKED: ATOM     28  C   UNL     1     142.552  79.562 223.537 -0.59 -0.00    +0.000 A  
DOCKED: ATOM     29  C   UNL     1     142.388  80.802 222.911 -0.60 -0.00    +0.000 A  
DOCKED: ENDBRANCH  23  24
DOCKED: ENDBRANCH  20  23
DOCKED: BRANCH  22  30
DOCKED: ATOM     30  O   UNL     1     141.840  76.525 221.059 -0.07 +0.23    -0.391 OA 
DOCKED: ATOM     31  H   UNL     1     141.758  75.755 221.680 -0.28 -0.10    +0.211 HD 
DOCKED: ENDBRANCH  22  30
DOCKED: ENDBRANCH  16  18
DOCKED: ENDBRANCH   1  16
DOCKED: TORSDOF 8
DOCKED: TER
DOCKED: ENDMDL
________________________________________________________________________________


    FINAL DOCKED STATE:
    ________________________


Run:   8 / 20
Time taken for this run:   0.046s

DOCKED: MODEL        8
DOCKED: USER    Run = 8
DOCKED: USER
DOCKED: USER    Estimated Free Energy of Binding    =  -7.21 kcal/mol  [=(1)+(2)+(3)-(4)]
DOCKED: USER
DOCKED: USER    (1) Final Intermolecular Energy     =  -9.60 kcal/mol
DOCKED: USER        vdW + Hbond + desolv Energy     =  -9.72 kcal/mol
DOCKED: USER        Electrostatic Energy            =  +0.13 kcal/mol
DOCKED: USER        Moving Ligand-Fixed Receptor    =  -9.60 kcal/mol
DOCKED: USER        Moving Ligand-Moving Receptor   =  +0.00 kcal/mol
DOCKED: USER    (2) Final Total Internal Energy     =  -2.37 kcal/mol
DOCKED: USER    (3) Torsional Free Energy           =  +2.39 kcal/mol
DOCKED: USER    (4) Unbound System's Energy         =  -2.37 kcal/mol
DOCKED: USER
DOCKED: USER
DOCKED: REMARK SMILES O=C([N-]CC(=O)N1CC[C@H](O)[C@H]1Cc1ccccc1)c1ccc2cc(Cl)ccc2n1
DOCKED: REMARK SMILES IDX 4 1 3 2 2 3 1 4 20 5 21 6 30 7 22 8 29 9 23 10 28 11 24 12
DOCKED: REMARK SMILES IDX 27 13 25 14 26 15 5 16 6 17 7 18 8 19 12 20 9 21 10 22 13 23
DOCKED: REMARK SMILES IDX 14 24 15 25 19 26 16 27 18 28 17 29 11 30
DOCKED: REMARK H PARENT 11 31
DOCKED: USER                              x       y       z     vdW  Elec       q    Type
DOCKED: USER                           _______ _______ _______ _____ _____    ______ ____
DOCKED: ROOT
DOCKED: ATOM      1  C   UNL     1     137.782  73.605 221.452 -0.14 +0.00    -0.015 C  
DOCKED: ENDROOT
DOCKED: BRANCH   1   2
DOCKED: ATOM      2  N   UNL     1     136.608  72.829 221.837 +0.02 +0.15    -0.640 NA 
DOCKED: BRANCH   2   3
DOCKED: ATOM      3  C   UNL     1     136.185  72.600 223.187 -0.15 -0.03    +0.101 C  
DOCKED: ATOM      4  O   UNL     1     136.392  71.471 223.703 -0.12 +0.06    -0.313 OA 
DOCKED: BRANCH   3   5
DOCKED: ATOM      5  C   UNL     1     135.477  73.622 223.976 -0.21 -0.02    +0.088 A  
DOCKED: ATOM      6  C   UNL     1     135.747  74.988 223.803 -0.27 -0.01    +0.031 A  
DOCKED: ATOM      7  N   UNL     1     134.589  73.227 224.929 -0.16 +0.02    -0.246 NA 
DOCKED: ATOM      8  C   UNL     1     135.073  75.930 224.583 -0.30 -0.00    +0.013 A  
DOCKED: ATOM      9  C   UNL     1     133.919  74.121 225.705 -0.30 -0.00    +0.071 A  
DOCKED: ATOM     10  C   UNL     1     134.147  75.505 225.542 -0.35 -0.00    +0.002 A  
DOCKED: ATOM     11  C   UNL     1     133.002  73.673 226.663 -0.35 +0.00    +0.030 A  
DOCKED: ATOM     12  C   UNL     1     133.454  76.424 226.345 -0.33 -0.00    +0.030 A  
DOCKED: ATOM     13  C   UNL     1     132.315  74.594 227.458 -0.41 -0.00    +0.023 A  
DOCKED: ATOM     14  C   UNL     1     132.540  75.967 227.301 -0.35 -0.00    +0.041 A  
DOCKED: ATOM     15  Cl  UNL     1     131.672  77.116 228.303 -0.39 -0.01    -0.084 Cl 
DOCKED: ENDBRANCH   3   5
DOCKED: ENDBRANCH   2   3
DOCKED: ENDBRANCH   1   2
DOCKED: BRANCH   1  16
DOCKED: ATOM     16  C   UNL     1     139.008  73.012 222.077 -0.13 -0.05    +0.205 C  
DOCKED: ATOM     17  O   UNL     1     139.950  73.773 222.429 -0.82 +0.01    -0.277 OA 
DOCKED: BRANCH  16  18
DOCKED: ATOM     18  N   UNL     1     139.099  71.597 222.321 -0.10 +0.07    -0.338 N  
DOCKED: ATOM     19  C   UNL     1     138.701  70.620 221.322 -0.09 -0.02    +0.122 C  
DOCKED: ATOM     20  C   UNL     1     139.227  71.018 223.656 -0.29 -0.03    +0.118 C  
DOCKED: ATOM     21  C   UNL     1     138.228  69.405 222.103 -0.14 -0.01    +0.055 C  
DOCKED: ATOM     22  C   UNL     1     138.859  69.531 223.492 -0.21 -0.02    +0.139 C  
DOCKED: BRANCH  20  23
DOCKED: ATOM     23  C   UNL     1     140.667  71.165 224.197 -0.37 -0.01    +0.063 C  
DOCKED: BRANCH  23  24
DOCKED: ATOM     24  C   UNL     1     140.779  70.813 225.658 -0.55 +0.01    -0.046 A  
DOCKED: ATOM     25  C   UNL     1     140.810  69.468 226.066 -0.52 -0.00    +0.004 A  
DOCKED: ATOM     26  C   UNL     1     140.884  71.828 226.624 -0.71 -0.00    +0.004 A  
DOCKED: ATOM     27  C   UNL     1     140.950  69.145 227.419 -0.61 -0.00    +0.000 A  
DOCKED: ATOM     28  C   UNL     1     141.023  71.500 227.977 -0.81 -0.00    +0.000 A  
DOCKED: ATOM     29  C   UNL     1     141.056  70.160 228.373 -0.52 -0.00    +0.000 A  
DOCKED: ENDBRANCH  23  24
DOCKED: ENDBRANCH  20  23
DOCKED: BRANCH  22  30
DOCKED: ATOM     30  O   UNL     1     137.956  69.136 224.492 -0.15 +0.03    -0.391 OA 
DOCKED: ATOM     31  H   UNL     1     137.232  69.815 224.504 +0.08 -0.02    +0.211 HD 
DOCKED: ENDBRANCH  22  30
DOCKED: ENDBRANCH  16  18
DOCKED: ENDBRANCH   1  16
DOCKED: TORSDOF 8
DOCKED: TER
DOCKED: ENDMDL
________________________________________________________________________________


    FINAL DOCKED STATE:
    ________________________


Run:   9 / 20
Time taken for this run:   0.046s

DOCKED: MODEL        9
DOCKED: USER    Run = 9
DOCKED: USER
DOCKED: USER    Estimated Free Energy of Binding    =  -8.53 kcal/mol  [=(1)+(2)+(3)-(4)]
DOCKED: USER
DOCKED: USER    (1) Final Intermolecular Energy     = -10.92 kcal/mol
DOCKED: USER        vdW + Hbond + desolv Energy     = -10.99 kcal/mol
DOCKED: USER        Electrostatic Energy            =  +0.08 kcal/mol
DOCKED: USER        Moving Ligand-Fixed Receptor    = -10.92 kcal/mol
DOCKED: USER        Moving Ligand-Moving Receptor   =  +0.00 kcal/mol
DOCKED: USER    (2) Final Total Internal Energy     =  -1.29 kcal/mol
DOCKED: USER    (3) Torsional Free Energy           =  +2.39 kcal/mol
DOCKED: USER    (4) Unbound System's Energy         =  -1.29 kcal/mol
DOCKED: USER
DOCKED: USER
DOCKED: REMARK SMILES O=C([N-]CC(=O)N1CC[C@H](O)[C@H]1Cc1ccccc1)c1ccc2cc(Cl)ccc2n1
DOCKED: REMARK SMILES IDX 4 1 3 2 2 3 1 4 20 5 21 6 30 7 22 8 29 9 23 10 28 11 24 12
DOCKED: REMARK SMILES IDX 27 13 25 14 26 15 5 16 6 17 7 18 8 19 12 20 9 21 10 22 13 23
DOCKED: REMARK SMILES IDX 14 24 15 25 19 26 16 27 18 28 17 29 11 30
DOCKED: REMARK H PARENT 11 31
DOCKED: USER                              x       y       z     vdW  Elec       q    Type
DOCKED: USER                           _______ _______ _______ _____ _____    ______ ____
DOCKED: ROOT
DOCKED: ATOM      1  C   UNL     1     139.157  73.256 220.372 -0.10 +0.00    -0.015 C  
DOCKED: ENDROOT
DOCKED: BRANCH   1   2
DOCKED: ATOM      2  N   UNL     1     139.451  71.986 221.026 +0.03 +0.12    -0.640 NA 
DOCKED: BRANCH   2   3
DOCKED: ATOM      3  C   UNL     1     138.697  71.429 222.110 -0.16 -0.02    +0.101 C  
DOCKED: ATOM      4  O   UNL     1     137.454  71.285 221.972 -0.04 +0.06    -0.313 OA 
DOCKED: BRANCH   3   5
DOCKED: ATOM      5  C   UNL     1     139.316  71.062 223.394 -0.29 -0.02    +0.088 A  
DOCKED: ATOM      6  C   UNL     1     140.269  71.892 224.004 -0.37 -0.00    +0.031 A  
DOCKED: ATOM      7  N   UNL     1     139.000  69.867 223.966 -0.16 +0.04    -0.246 NA 
DOCKED: ATOM      8  C   UNL     1     140.852  71.502 225.212 -0.52 -0.00    +0.013 A  
DOCKED: ATOM      9  C   UNL     1     139.553  69.460 225.139 -0.36 -0.01    +0.071 A  
DOCKED: ATOM     10  C   UNL     1     140.497  70.281 225.795 -0.53 -0.00    +0.002 A  
DOCKED: ATOM     11  C   UNL     1     139.188  68.231 225.700 -0.50 -0.00    +0.030 A  
DOCKED: ATOM     12  C   UNL     1     141.066  69.857 227.006 -0.55 -0.01    +0.030 A  
DOCKED: ATOM     13  C   UNL     1     139.758  67.816 226.907 -0.63 -0.00    +0.023 A  
DOCKED: ATOM     14  C   UNL     1     140.696  68.626 227.559 -0.63 -0.01    +0.041 A  
DOCKED: ATOM     15  Cl  UNL     1     141.405  68.098 229.074 -0.46 +0.02    -0.084 Cl 
DOCKED: ENDBRANCH   3   5
DOCKED: ENDBRANCH   2   3
DOCKED: ENDBRANCH   1   2
DOCKED: BRANCH   1  16
DOCKED: ATOM     16  C   UNL     1     140.037  74.331 220.935 -0.16 -0.04    +0.205 C  
DOCKED: ATOM     17  O   UNL     1     140.016  74.559 222.175 -0.79 +0.01    -0.277 OA 
DOCKED: BRANCH  16  18
DOCKED: ATOM     18  N   UNL     1     140.936  75.067 220.085 -0.05 +0.10    -0.338 N  
DOCKED: ATOM     19  C   UNL     1     141.406  74.530 218.819 -0.06 -0.03    +0.122 C  
DOCKED: ATOM     20  C   UNL     1     141.734  76.200 220.547 -0.22 -0.06    +0.118 C  
DOCKED: ATOM     21  C   UNL     1     142.782  75.137 218.603 -0.20 -0.02    +0.055 C  
DOCKED: ATOM     22  C   UNL     1     142.827  76.391 219.480 -0.30 -0.08    +0.139 C  
DOCKED: BRANCH  20  23
DOCKED: ATOM     23  C   UNL     1     140.873  77.477 220.679 -0.24 -0.03    +0.063 C  
DOCKED: BRANCH  23  24
DOCKED: ATOM     24  C   UNL     1     141.380  78.413 221.745 -0.37 +0.02    -0.046 A  
DOCKED: ATOM     25  C   UNL     1     141.292  78.060 223.103 -0.49 -0.00    +0.004 A  
DOCKED: ATOM     26  C   UNL     1     141.976  79.635 221.390 -0.38 -0.00    +0.004 A  
DOCKED: ATOM     27  C   UNL     1     141.797  78.914 224.088 -0.59 -0.00    +0.000 A  
DOCKED: ATOM     28  C   UNL     1     142.478  80.487 222.378 -0.57 -0.00    +0.000 A  
DOCKED: ATOM     29  C   UNL     1     142.388  80.127 223.726 -0.65 -0.00    +0.000 A  
DOCKED: ENDBRANCH  23  24
DOCKED: ENDBRANCH  20  23
DOCKED: BRANCH  22  30
DOCKED: ATOM     30  O   UNL     1     144.085  76.536 220.085 -0.19 +0.34    -0.391 OA 
DOCKED: ATOM     31  H   UNL     1     144.053  77.382 220.604 -0.46 -0.30    +0.211 HD 
DOCKED: ENDBRANCH  22  30
DOCKED: ENDBRANCH  16  18
DOCKED: ENDBRANCH   1  16
DOCKED: TORSDOF 8
DOCKED: TER
DOCKED: ENDMDL
________________________________________________________________________________


    FINAL DOCKED STATE:
    ________________________


Run:   10 / 20
Time taken for this run:   0.046s

DOCKED: MODEL        10
DOCKED: USER    Run = 10
DOCKED: USER
DOCKED: USER    Estimated Free Energy of Binding    =  -6.46 kcal/mol  [=(1)+(2)+(3)-(4)]
DOCKED: USER
DOCKED: USER    (1) Final Intermolecular Energy     =  -8.84 kcal/mol
DOCKED: USER        vdW + Hbond + desolv Energy     =  -8.99 kcal/mol
DOCKED: USER        Electrostatic Energy            =  +0.14 kcal/mol
DOCKED: USER        Moving Ligand-Fixed Receptor    =  -8.84 kcal/mol
DOCKED: USER        Moving Ligand-Moving Receptor   =  +0.00 kcal/mol
DOCKED: USER    (2) Final Total Internal Energy     =  -2.98 kcal/mol
DOCKED: USER    (3) Torsional Free Energy           =  +2.39 kcal/mol
DOCKED: USER    (4) Unbound System's Energy         =  -2.98 kcal/mol
DOCKED: USER
DOCKED: USER
DOCKED: REMARK SMILES O=C([N-]CC(=O)N1CC[C@H](O)[C@H]1Cc1ccccc1)c1ccc2cc(Cl)ccc2n1
DOCKED: REMARK SMILES IDX 4 1 3 2 2 3 1 4 20 5 21 6 30 7 22 8 29 9 23 10 28 11 24 12
DOCKED: REMARK SMILES IDX 27 13 25 14 26 15 5 16 6 17 7 18 8 19 12 20 9 21 10 22 13 23
DOCKED: REMARK SMILES IDX 14 24 15 25 19 26 16 27 18 28 17 29 11 30
DOCKED: REMARK H PARENT 11 31
DOCKED: USER                              x       y       z     vdW  Elec       q    Type
DOCKED: USER                           _______ _______ _______ _____ _____    ______ ____
DOCKED: ROOT
DOCKED: ATOM      1  C   UNL     1     141.841  75.177 220.146 -0.26 +0.01    -0.015 C  
DOCKED: ENDROOT
DOCKED: BRANCH   1   2
DOCKED: ATOM      2  N   UNL     1     141.445  75.510 221.511 -0.05 +0.22    -0.640 NA 
DOCKED: BRANCH   2   3
DOCKED: ATOM      3  C   UNL     1     140.093  75.549 221.985 -0.28 -0.02    +0.101 C  
DOCKED: ATOM      4  O   UNL     1     139.546  74.474 222.343 -0.75 +0.04    -0.313 OA 
DOCKED: BRANCH   3   5
DOCKED: ATOM      5  C   UNL     1     139.309  76.794 222.026 -0.28 -0.02    +0.088 A  
DOCKED: ATOM      6  C   UNL     1     138.378  77.099 221.021 -0.12 -0.01    +0.031 A  
DOCKED: ATOM      7  N   UNL     1     139.537  77.689 223.027 -0.06 +0.04    -0.246 NA 
DOCKED: ATOM      8  C   UNL     1     137.666  78.300 221.080 -0.09 -0.00    +0.013 A  
DOCKED: ATOM      9  C   UNL     1     138.861  78.866 223.108 -0.29 -0.01    +0.071 A  
DOCKED: ATOM     10  C   UNL     1     137.898  79.196 222.129 -0.18 -0.00    +0.002 A  
DOCKED: ATOM     11  C   UNL     1     139.115  79.751 224.163 -0.35 -0.00    +0.030 A  
DOCKED: ATOM     12  C   UNL     1     137.204  80.412 222.217 -0.12 -0.00    +0.030 A  
DOCKED: ATOM     13  C   UNL     1     138.418  80.960 224.245 -0.37 -0.00    +0.023 A  
DOCKED: ATOM     14  C   UNL     1     137.465  81.292 223.274 -0.22 -0.00    +0.041 A  
DOCKED: ATOM     15  Cl  UNL     1     136.594  82.810 223.385 -0.18 +0.01    -0.084 Cl 
DOCKED: ENDBRANCH   3   5
DOCKED: ENDBRANCH   2   3
DOCKED: ENDBRANCH   1   2
DOCKED: BRANCH   1  16
DOCKED: ATOM     16  C   UNL     1     142.759  76.236 219.613 -0.26 -0.12    +0.205 C  
DOCKED: ATOM     17  O   UNL     1     143.989  76.180 219.885 -0.35 +0.21    -0.277 OA 
DOCKED: BRANCH  16  18
DOCKED: ATOM     18  N   UNL     1     142.259  77.281 218.760 -0.13 +0.20    -0.338 N  
DOCKED: ATOM     19  C   UNL     1     142.116  77.096 217.325 -0.16 -0.07    +0.122 C  
DOCKED: ATOM     20  C   UNL     1     142.208  78.687 219.154 -0.19 -0.08    +0.118 C  
DOCKED: ATOM     21  C   UNL     1     142.307  78.475 216.714 -0.18 -0.05    +0.055 C  
DOCKED: ATOM     22  C   UNL     1     142.031  79.473 217.842 -0.23 -0.11    +0.139 C  
DOCKED: BRANCH  20  23
DOCKED: ATOM     23  C   UNL     1     141.026  78.958 220.114 -0.21 -0.03    +0.063 C  
DOCKED: BRANCH  23  24
DOCKED: ATOM     24  C   UNL     1     141.442  79.712 221.350 -0.35 +0.02    -0.046 A  
DOCKED: ATOM     25  C   UNL     1     142.186  79.073 222.357 -0.51 -0.00    +0.004 A  
DOCKED: ATOM     26  C   UNL     1     141.117  81.072 221.493 -0.37 -0.00    +0.004 A  
DOCKED: ATOM     27  C   UNL     1     142.602  79.785 223.486 -0.64 -0.00    +0.000 A  
DOCKED: ATOM     28  C   UNL     1     141.534  81.780 222.624 -0.45 -0.00    +0.000 A  
DOCKED: ATOM     29  C   UNL     1     142.275  81.137 223.620 -0.63 -0.00    +0.000 A  
DOCKED: ENDBRANCH  23  24
DOCKED: ENDBRANCH  20  23
DOCKED: BRANCH  22  30
DOCKED: ATOM     30  O   UNL     1     142.929  80.550 217.790 -0.23 +0.44    -0.391 OA 
DOCKED: ATOM     31  H   UNL     1     143.674  80.270 217.198 -0.49 -0.50    +0.211 HD 
DOCKED: ENDBRANCH  22  30
DOCKED: ENDBRANCH  16  18
DOCKED: ENDBRANCH   1  16
DOCKED: TORSDOF 8
DOCKED: TER
DOCKED: ENDMDL
________________________________________________________________________________


    FINAL DOCKED STATE:
    ________________________


Run:   11 / 20
Time taken for this run:   0.046s

DOCKED: MODEL        11
DOCKED: USER    Run = 11
DOCKED: USER
DOCKED: USER    Estimated Free Energy of Binding    =  -8.22 kcal/mol  [=(1)+(2)+(3)-(4)]
DOCKED: USER
DOCKED: USER    (1) Final Intermolecular Energy     = -10.61 kcal/mol
DOCKED: USER        vdW + Hbond + desolv Energy     = -10.72 kcal/mol
DOCKED: USER        Electrostatic Energy            =  +0.12 kcal/mol
DOCKED: USER        Moving Ligand-Fixed Receptor    = -10.61 kcal/mol
DOCKED: USER        Moving Ligand-Moving Receptor   =  +0.00 kcal/mol
DOCKED: USER    (2) Final Total Internal Energy     =  -1.27 kcal/mol
DOCKED: USER    (3) Torsional Free Energy           =  +2.39 kcal/mol
DOCKED: USER    (4) Unbound System's Energy         =  -1.27 kcal/mol
DOCKED: USER
DOCKED: USER
DOCKED: REMARK SMILES O=C([N-]CC(=O)N1CC[C@H](O)[C@H]1Cc1ccccc1)c1ccc2cc(Cl)ccc2n1
DOCKED: REMARK SMILES IDX 4 1 3 2 2 3 1 4 20 5 21 6 30 7 22 8 29 9 23 10 28 11 24 12
DOCKED: REMARK SMILES IDX 27 13 25 14 26 15 5 16 6 17 7 18 8 19 12 20 9 21 10 22 13 23
DOCKED: REMARK SMILES IDX 14 24 15 25 19 26 16 27 18 28 17 29 11 30
DOCKED: REMARK H PARENT 11 31
DOCKED: USER                              x       y       z     vdW  Elec       q    Type
DOCKED: USER                           _______ _______ _______ _____ _____    ______ ____
DOCKED: ROOT
DOCKED: ATOM      1  C   UNL     1     138.662  73.778 221.830 -0.18 +0.00    -0.015 C  
DOCKED: ENDROOT
DOCKED: BRANCH   1   2
DOCKED: ATOM      2  N   UNL     1     138.800  72.439 221.267 +0.02 +0.13    -0.640 NA 
DOCKED: BRANCH   2   3
DOCKED: ATOM      3  C   UNL     1     138.541  71.221 221.976 -0.13 -0.02    +0.101 C  
DOCKED: ATOM      4  O   UNL     1     137.705  70.409 221.499 -0.02 +0.06    -0.313 OA 
DOCKED: BRANCH   3   5
DOCKED: ATOM      5  C   UNL     1     139.182  70.907 223.263 -0.26 -0.02    +0.088 A  
DOCKED: ATOM      6  C   UNL     1     140.094  71.794 223.856 -0.37 -0.01    +0.031 A  
DOCKED: ATOM      7  N   UNL     1     138.927  69.708 223.856 -0.15 +0.04    -0.246 NA 
DOCKED: ATOM      8  C   UNL     1     140.700  71.454 225.067 -0.53 -0.00    +0.013 A  
DOCKED: ATOM      9  C   UNL     1     139.504  69.349 225.034 -0.36 -0.01    +0.071 A  
DOCKED: ATOM     10  C   UNL     1     140.408  70.227 225.672 -0.51 -0.00    +0.002 A  
DOCKED: ATOM     11  C   UNL     1     139.202  68.113 225.617 -0.49 -0.00    +0.030 A  
DOCKED: ATOM     12  C   UNL     1     141.001  69.852 226.887 -0.55 -0.01    +0.030 A  
DOCKED: ATOM     13  C   UNL     1     139.796  67.747 226.829 -0.64 -0.00    +0.023 A  
DOCKED: ATOM     14  C   UNL     1     140.694  68.614 227.463 -0.63 -0.01    +0.041 A  
DOCKED: ATOM     15  Cl  UNL     1     141.434  68.148 228.984 -0.50 +0.02    -0.084 Cl 
DOCKED: ENDBRANCH   3   5
DOCKED: ENDBRANCH   2   3
DOCKED: ENDBRANCH   1   2
DOCKED: BRANCH   1  16
DOCKED: ATOM     16  C   UNL     1     139.965  74.510 221.722 -0.20 -0.03    +0.205 C  
DOCKED: ATOM     17  O   UNL     1     141.038  73.900 221.980 -0.67 +0.00    -0.277 OA 
DOCKED: BRANCH  16  18
DOCKED: ATOM     18  N   UNL     1     140.006  75.879 221.282 -0.13 +0.08    -0.338 N  
DOCKED: ATOM     19  C   UNL     1     139.148  76.368 220.215 -0.07 -0.03    +0.122 C  
DOCKED: ATOM     20  C   UNL     1     141.115  76.785 221.572 -0.26 -0.05    +0.118 C  
DOCKED: ATOM     21  C   UNL     1     139.922  77.495 219.552 -0.08 -0.02    +0.055 C  
DOCKED: ATOM     22  C   UNL     1     140.955  77.955 220.583 -0.20 -0.06    +0.139 C  
DOCKED: BRANCH  20  23
DOCKED: ATOM     23  C   UNL     1     141.056  77.295 223.031 -0.15 -0.02    +0.063 C  
DOCKED: BRANCH  23  24
DOCKED: ATOM     24  C   UNL     1     141.322  78.774 223.141 -0.52 +0.01    -0.046 A  
DOCKED: ATOM     25  C   UNL     1     140.261  79.676 223.333 -0.45 -0.00    +0.004 A  
DOCKED: ATOM     26  C   UNL     1     142.639  79.263 223.084 -0.55 -0.00    +0.004 A  
DOCKED: ATOM     27  C   UNL     1     140.515  81.044 223.471 -0.42 -0.00    +0.000 A  
DOCKED: ATOM     28  C   UNL     1     142.888  80.632 223.221 -0.64 -0.00    +0.000 A  
DOCKED: ATOM     29  C   UNL     1     141.827  81.521 223.414 -0.55 -0.00    +0.000 A  
DOCKED: ENDBRANCH  23  24
DOCKED: ENDBRANCH  20  23
DOCKED: BRANCH  22  30
DOCKED: ATOM     30  O   UNL     1     142.183  78.248 219.968 -0.14 +0.28    -0.391 OA 
DOCKED: ATOM     31  H   UNL     1     142.892  77.953 220.597 -0.37 -0.23    +0.211 HD 
DOCKED: ENDBRANCH  22  30
DOCKED: ENDBRANCH  16  18
DOCKED: ENDBRANCH   1  16
DOCKED: TORSDOF 8
DOCKED: TER
DOCKED: ENDMDL
________________________________________________________________________________


    FINAL DOCKED STATE:
    ________________________


Run:   12 / 20
Time taken for this run:   0.046s

DOCKED: MODEL        12
DOCKED: USER    Run = 12
DOCKED: USER
DOCKED: USER    Estimated Free Energy of Binding    =  -8.64 kcal/mol  [=(1)+(2)+(3)-(4)]
DOCKED: USER
DOCKED: USER    (1) Final Intermolecular Energy     = -11.02 kcal/mol
DOCKED: USER        vdW + Hbond + desolv Energy     = -10.79 kcal/mol
DOCKED: USER        Electrostatic Energy            =  -0.23 kcal/mol
DOCKED: USER        Moving Ligand-Fixed Receptor    = -11.02 kcal/mol
DOCKED: USER        Moving Ligand-Moving Receptor   =  +0.00 kcal/mol
DOCKED: USER    (2) Final Total Internal Energy     =  -1.51 kcal/mol
DOCKED: USER    (3) Torsional Free Energy           =  +2.39 kcal/mol
DOCKED: USER    (4) Unbound System's Energy         =  -1.51 kcal/mol
DOCKED: USER
DOCKED: USER
DOCKED: REMARK SMILES O=C([N-]CC(=O)N1CC[C@H](O)[C@H]1Cc1ccccc1)c1ccc2cc(Cl)ccc2n1
DOCKED: REMARK SMILES IDX 4 1 3 2 2 3 1 4 20 5 21 6 30 7 22 8 29 9 23 10 28 11 24 12
DOCKED: REMARK SMILES IDX 27 13 25 14 26 15 5 16 6 17 7 18 8 19 12 20 9 21 10 22 13 23
DOCKED: REMARK SMILES IDX 14 24 15 25 19 26 16 27 18 28 17 29 11 30
DOCKED: REMARK H PARENT 11 31
DOCKED: USER                              x       y       z     vdW  Elec       q    Type
DOCKED: USER                           _______ _______ _______ _____ _____    ______ ____
DOCKED: ROOT
DOCKED: ATOM      1  C   UNL     1     140.575  71.995 219.588 -0.08 +0.00    -0.015 C  
DOCKED: ENDROOT
DOCKED: BRANCH   1   2
DOCKED: ATOM      2  N   UNL     1     139.666  72.598 220.557 +0.03 +0.12    -0.640 NA 
DOCKED: BRANCH   2   3
DOCKED: ATOM      3  C   UNL     1     140.009  72.923 221.910 -0.25 -0.01    +0.101 C  
DOCKED: ATOM      4  O   UNL     1     140.325  74.110 222.187 -0.81 -0.00    -0.313 OA 
DOCKED: BRANCH   3   5
DOCKED: ATOM      5  C   UNL     1     140.047  71.910 222.977 -0.31 -0.01    +0.088 A  
DOCKED: ATOM      6  C   UNL     1     139.556  70.613 222.766 -0.24 -0.01    +0.031 A  
DOCKED: ATOM      7  N   UNL     1     140.515  72.260 224.207 -0.08 +0.03    -0.246 NA 
DOCKED: ATOM      8  C   UNL     1     139.589  69.683 223.807 -0.27 -0.00    +0.013 A  
DOCKED: ATOM      9  C   UNL     1     140.557  71.377 225.241 -0.50 -0.01    +0.071 A  
DOCKED: ATOM     10  C   UNL     1     140.094  70.056 225.057 -0.43 -0.00    +0.002 A  
DOCKED: ATOM     11  C   UNL     1     141.060  71.774 226.485 -0.69 -0.00    +0.030 A  
DOCKED: ATOM     12  C   UNL     1     140.138  69.148 226.127 -0.50 -0.01    +0.030 A  
DOCKED: ATOM     13  C   UNL     1     141.103  70.864 227.545 -0.64 -0.00    +0.023 A  
DOCKED: ATOM     14  C   UNL     1     140.643  69.554 227.368 -0.57 -0.01    +0.041 A  
DOCKED: ATOM     15  Cl  UNL     1     140.701  68.418 228.703 -0.70 +0.02    -0.084 Cl 
DOCKED: ENDBRANCH   3   5
DOCKED: ENDBRANCH   2   3
DOCKED: ENDBRANCH   1   2
DOCKED: BRANCH   1  16
DOCKED: ATOM     16  C   UNL     1     141.592  73.005 219.150 -0.04 -0.04    +0.205 C  
DOCKED: ATOM     17  O   UNL     1     141.293  73.826 218.240 -0.01 +0.07    -0.277 OA 
DOCKED: BRANCH  16  18
DOCKED: ATOM     18  N   UNL     1     142.879  73.078 219.787 -0.06 +0.06    -0.338 N  
DOCKED: ATOM     19  C   UNL     1     143.302  74.254 220.530 -0.27 -0.04    +0.122 C  
DOCKED: ATOM     20  C   UNL     1     143.992  72.191 219.458 -0.20 -0.01    +0.118 C  
DOCKED: ATOM     21  C   UNL     1     144.815  74.301 220.396 -0.45 -0.02    +0.055 C  
DOCKED: ATOM     22  C   UNL     1     145.245  72.878 220.032 -0.40 +0.01    +0.139 C  
DOCKED: BRANCH  20  23
DOCKED: ATOM     23  C   UNL     1     143.802  70.792 220.088 -0.21 -0.00    +0.063 C  
DOCKED: BRANCH  23  24
DOCKED: ATOM     24  C   UNL     1     144.648  69.736 219.426 -0.24 -0.01    -0.046 A  
DOCKED: ATOM     25  C   UNL     1     145.437  70.054 218.307 -0.26 +0.00    +0.004 A  
DOCKED: ATOM     26  C   UNL     1     144.680  68.429 219.942 -0.35 +0.00    +0.004 A  
DOCKED: ATOM     27  C   UNL     1     146.249  69.080 217.718 -0.25 +0.00    +0.000 A  
DOCKED: ATOM     28  C   UNL     1     145.492  67.458 219.348 -0.53 -0.00    +0.000 A  
DOCKED: ATOM     29  C   UNL     1     146.276  67.783 218.237 -0.38 -0.00    +0.000 A  
DOCKED: ENDBRANCH  23  24
DOCKED: ENDBRANCH  20  23
DOCKED: BRANCH  22  30
DOCKED: ATOM     30  O   UNL     1     146.277  72.893 219.080 -0.67 -0.40    -0.391 OA 
DOCKED: ATOM     31  H   UNL     1     146.350  73.829 218.757 -0.44 +0.05    +0.211 HD 
DOCKED: ENDBRANCH  22  30
DOCKED: ENDBRANCH  16  18
DOCKED: ENDBRANCH   1  16
DOCKED: TORSDOF 8
DOCKED: TER
DOCKED: ENDMDL
________________________________________________________________________________


    FINAL DOCKED STATE:
    ________________________


Run:   13 / 20
Time taken for this run:   0.046s

DOCKED: MODEL        13
DOCKED: USER    Run = 13
DOCKED: USER
DOCKED: USER    Estimated Free Energy of Binding    =  -8.66 kcal/mol  [=(1)+(2)+(3)-(4)]
DOCKED: USER
DOCKED: USER    (1) Final Intermolecular Energy     = -11.05 kcal/mol
DOCKED: USER        vdW + Hbond + desolv Energy     = -10.79 kcal/mol
DOCKED: USER        Electrostatic Energy            =  -0.25 kcal/mol
DOCKED: USER        Moving Ligand-Fixed Receptor    = -11.05 kcal/mol
DOCKED: USER        Moving Ligand-Moving Receptor   =  +0.00 kcal/mol
DOCKED: USER    (2) Final Total Internal Energy     =  -1.48 kcal/mol
DOCKED: USER    (3) Torsional Free Energy           =  +2.39 kcal/mol
DOCKED: USER    (4) Unbound System's Energy         =  -1.48 kcal/mol
DOCKED: USER
DOCKED: USER
DOCKED: REMARK SMILES O=C([N-]CC(=O)N1CC[C@H](O)[C@H]1Cc1ccccc1)c1ccc2cc(Cl)ccc2n1
DOCKED: REMARK SMILES IDX 4 1 3 2 2 3 1 4 20 5 21 6 30 7 22 8 29 9 23 10 28 11 24 12
DOCKED: REMARK SMILES IDX 27 13 25 14 26 15 5 16 6 17 7 18 8 19 12 20 9 21 10 22 13 23
DOCKED: REMARK SMILES IDX 14 24 15 25 19 26 16 27 18 28 17 29 11 30
DOCKED: REMARK H PARENT 11 31
DOCKED: USER                              x       y       z     vdW  Elec       q    Type
DOCKED: USER                           _______ _______ _______ _____ _____    ______ ____
DOCKED: ROOT
DOCKED: ATOM      1  C   UNL     1     140.417  73.270 219.479 -0.07 +0.00    -0.015 C  
DOCKED: ENDROOT
DOCKED: BRANCH   1   2
DOCKED: ATOM      2  N   UNL     1     139.778  72.594 220.603 +0.03 +0.11    -0.640 NA 
DOCKED: BRANCH   2   3
DOCKED: ATOM      3  C   UNL     1     139.995  72.915 221.982 -0.26 -0.01    +0.101 C  
DOCKED: ATOM      4  O   UNL     1     140.194  74.116 222.301 -0.81 -0.01    -0.313 OA 
DOCKED: BRANCH   3   5
DOCKED: ATOM      5  C   UNL     1     140.040  71.884 223.033 -0.32 -0.01    +0.088 A  
DOCKED: ATOM      6  C   UNL     1     139.552  70.589 222.801 -0.24 -0.01    +0.031 A  
DOCKED: ATOM      7  N   UNL     1     140.509  72.215 224.268 -0.08 +0.03    -0.246 NA 
DOCKED: ATOM      8  C   UNL     1     139.590  69.642 223.827 -0.26 -0.00    +0.013 A  
DOCKED: ATOM      9  C   UNL     1     140.556  71.316 225.286 -0.50 -0.01    +0.071 A  
DOCKED: ATOM     10  C   UNL     1     140.097  69.996 225.082 -0.43 -0.00    +0.002 A  
DOCKED: ATOM     11  C   UNL     1     141.060  71.694 226.535 -0.70 -0.00    +0.030 A  
DOCKED: ATOM     12  C   UNL     1     140.147  69.071 226.136 -0.50 -0.01    +0.030 A  
DOCKED: ATOM     13  C   UNL     1     141.108  70.767 227.580 -0.62 -0.00    +0.023 A  
DOCKED: ATOM     14  C   UNL     1     140.652  69.458 227.383 -0.57 -0.01    +0.041 A  
DOCKED: ATOM     15  Cl  UNL     1     140.717  68.300 228.699 -0.67 +0.02    -0.084 Cl 
DOCKED: ENDBRANCH   3   5
DOCKED: ENDBRANCH   2   3
DOCKED: ENDBRANCH   1   2
DOCKED: BRANCH   1  16
DOCKED: ATOM     16  C   UNL     1     141.644  72.515 219.066 -0.04 -0.04    +0.205 C  
DOCKED: ATOM     17  O   UNL     1     141.579  71.720 218.089 -0.01 +0.05    -0.277 OA 
DOCKED: BRANCH  16  18
DOCKED: ATOM     18  N   UNL     1     142.898  72.724 219.738 -0.05 +0.05    -0.338 N  
DOCKED: ATOM     19  C   UNL     1     143.179  73.945 220.476 -0.27 -0.03    +0.122 C  
DOCKED: ATOM     20  C   UNL     1     144.104  71.949 219.453 -0.20 -0.00    +0.118 C  
DOCKED: ATOM     21  C   UNL     1     144.683  74.141 220.385 -0.47 -0.02    +0.055 C  
DOCKED: ATOM     22  C   UNL     1     145.264  72.765 220.053 -0.39 +0.01    +0.139 C  
DOCKED: BRANCH  20  23
DOCKED: ATOM     23  C   UNL     1     144.035  70.546 220.098 -0.16 -0.00    +0.063 C  
DOCKED: BRANCH  23  24
DOCKED: ATOM     24  C   UNL     1     144.849  69.522 219.350 -0.28 -0.01    -0.046 A  
DOCKED: ATOM     25  C   UNL     1     144.926  68.197 219.813 -0.42 +0.00    +0.004 A  
DOCKED: ATOM     26  C   UNL     1     145.514  69.875 218.163 -0.26 +0.00    +0.004 A  
DOCKED: ATOM     27  C   UNL     1     145.653  67.241 219.097 -0.54 -0.00    +0.000 A  
DOCKED: ATOM     28  C   UNL     1     146.240  68.916 217.451 -0.22 +0.00    +0.000 A  
DOCKED: ATOM     29  C   UNL     1     146.310  67.600 217.917 -0.38 -0.00    +0.000 A  
DOCKED: ENDBRANCH  23  24
DOCKED: ENDBRANCH  20  23
DOCKED: BRANCH  22  30
DOCKED: ATOM     30  O   UNL     1     146.317  72.872 219.131 -0.66 -0.41    -0.391 OA 
DOCKED: ATOM     31  H   UNL     1     146.357  73.826 218.858 -0.43 +0.05    +0.211 HD 
DOCKED: ENDBRANCH  22  30
DOCKED: ENDBRANCH  16  18
DOCKED: ENDBRANCH   1  16
DOCKED: TORSDOF 8
DOCKED: TER
DOCKED: ENDMDL
________________________________________________________________________________


    FINAL DOCKED STATE:
    ________________________


Run:   14 / 20
Time taken for this run:   0.046s

DOCKED: MODEL        14
DOCKED: USER    Run = 14
DOCKED: USER
DOCKED: USER    Estimated Free Energy of Binding    =  -7.22 kcal/mol  [=(1)+(2)+(3)-(4)]
DOCKED: USER
DOCKED: USER    (1) Final Intermolecular Energy     =  -9.61 kcal/mol
DOCKED: USER        vdW + Hbond + desolv Energy     =  -9.48 kcal/mol
DOCKED: USER        Electrostatic Energy            =  -0.12 kcal/mol
DOCKED: USER        Moving Ligand-Fixed Receptor    =  -9.61 kcal/mol
DOCKED: USER        Moving Ligand-Moving Receptor   =  +0.00 kcal/mol
DOCKED: USER    (2) Final Total Internal Energy     =  -1.97 kcal/mol
DOCKED: USER    (3) Torsional Free Energy           =  +2.39 kcal/mol
DOCKED: USER    (4) Unbound System's Energy         =  -1.97 kcal/mol
DOCKED: USER
DOCKED: USER
DOCKED: REMARK SMILES O=C([N-]CC(=O)N1CC[C@H](O)[C@H]1Cc1ccccc1)c1ccc2cc(Cl)ccc2n1
DOCKED: REMARK SMILES IDX 4 1 3 2 2 3 1 4 20 5 21 6 30 7 22 8 29 9 23 10 28 11 24 12
DOCKED: REMARK SMILES IDX 27 13 25 14 26 15 5 16 6 17 7 18 8 19 12 20 9 21 10 22 13 23
DOCKED: REMARK SMILES IDX 14 24 15 25 19 26 16 27 18 28 17 29 11 30
DOCKED: REMARK H PARENT 11 31
DOCKED: USER                              x       y       z     vdW  Elec       q    Type
DOCKED: USER                           _______ _______ _______ _____ _____    ______ ____
DOCKED: ROOT
DOCKED: ATOM      1  C   UNL     1     140.324  71.765 219.806 -0.08 +0.00    -0.015 C  
DOCKED: ENDROOT
DOCKED: BRANCH   1   2
DOCKED: ATOM      2  N   UNL     1     139.470  72.596 220.648 +0.03 +0.12    -0.640 NA 
DOCKED: BRANCH   2   3
DOCKED: ATOM      3  C   UNL     1     139.737  72.923 222.017 -0.24 -0.02    +0.101 C  
DOCKED: ATOM      4  O   UNL     1     139.945  74.126 222.323 -0.83 +0.01    -0.313 OA 
DOCKED: BRANCH   3   5
DOCKED: ATOM      5  C   UNL     1     139.822  71.897 223.070 -0.31 -0.02    +0.088 A  
DOCKED: ATOM      6  C   UNL     1     139.320  70.603 222.865 -0.24 -0.01    +0.031 A  
DOCKED: ATOM      7  N   UNL     1     140.345  72.233 224.282 -0.10 +0.04    -0.246 NA 
DOCKED: ATOM      8  C   UNL     1     139.398  69.661 223.894 -0.29 -0.00    +0.013 A  
DOCKED: ATOM      9  C   UNL     1     140.432  71.338 225.302 -0.49 -0.01    +0.071 A  
DOCKED: ATOM     10  C   UNL     1     139.959  70.019 225.124 -0.43 -0.00    +0.002 A  
DOCKED: ATOM     11  C   UNL     1     140.990  71.720 226.527 -0.69 -0.00    +0.030 A  
DOCKED: ATOM     12  C   UNL     1     140.050  69.099 226.180 -0.50 -0.01    +0.030 A  
DOCKED: ATOM     13  C   UNL     1     141.079  70.797 227.573 -0.65 -0.00    +0.023 A  
DOCKED: ATOM     14  C   UNL     1     140.610  69.489 227.402 -0.57 -0.01    +0.041 A  
DOCKED: ATOM     15  Cl  UNL     1     140.726  68.338 228.720 -0.68 +0.02    -0.084 Cl 
DOCKED: ENDBRANCH   3   5
DOCKED: ENDBRANCH   2   3
DOCKED: ENDBRANCH   1   2
DOCKED: BRANCH   1  16
DOCKED: ATOM     16  C   UNL     1     141.760  71.975 220.180 -0.11 -0.03    +0.205 C  
DOCKED: ATOM     17  O   UNL     1     142.181  71.539 221.285 -0.13 +0.02    -0.277 OA 
DOCKED: BRANCH  16  18
DOCKED: ATOM     18  N   UNL     1     142.669  72.624 219.272 -0.02 +0.05    -0.338 N  
DOCKED: ATOM     19  C   UNL     1     142.378  72.748 217.854 -0.02 -0.02    +0.122 C  
DOCKED: ATOM     20  C   UNL     1     144.075  72.873 219.582 -0.24 -0.01    +0.118 C  
DOCKED: ATOM     21  C   UNL     1     143.729  72.760 217.158 -0.06 -0.01    +0.055 C  
DOCKED: ATOM     22  C   UNL     1     144.745  73.168 218.227 -0.16 +0.00    +0.139 C  
DOCKED: BRANCH  20  23
DOCKED: ATOM     23  C   UNL     1     144.235  74.074 220.541 -0.41 -0.02    +0.063 C  
DOCKED: BRANCH  23  24
DOCKED: ATOM     24  C   UNL     1     143.320  75.220 220.194 -0.31 +0.02    -0.046 A  
DOCKED: ATOM     25  C   UNL     1     143.694  76.159 219.217 -0.35 -0.00    +0.004 A  
DOCKED: ATOM     26  C   UNL     1     142.070  75.344 220.824 -0.26 -0.00    +0.004 A  
DOCKED: ATOM     27  C   UNL     1     142.828  77.200 218.871 -0.35 -0.00    +0.000 A  
DOCKED: ATOM     28  C   UNL     1     141.207  76.388 220.477 -0.26 -0.00    +0.000 A  
DOCKED: ATOM     29  C   UNL     1     141.586  77.315 219.501 -0.24 -0.00    +0.000 A  
DOCKED: ENDBRANCH  23  24
DOCKED: ENDBRANCH  20  23
DOCKED: BRANCH  22  30
DOCKED: ATOM     30  O   UNL     1     145.934  72.433 218.097 -0.58 -0.44    -0.391 OA 
DOCKED: ATOM     31  H   UNL     1     145.670  71.512 217.837 +0.07 +0.18    +0.211 HD 
DOCKED: ENDBRANCH  22  30
DOCKED: ENDBRANCH  16  18
DOCKED: ENDBRANCH   1  16
DOCKED: TORSDOF 8
DOCKED: TER
DOCKED: ENDMDL
________________________________________________________________________________


    FINAL DOCKED STATE:
    ________________________


Run:   15 / 20
Time taken for this run:   0.046s

DOCKED: MODEL        15
DOCKED: USER    Run = 15
DOCKED: USER
DOCKED: USER    Estimated Free Energy of Binding    =  -7.47 kcal/mol  [=(1)+(2)+(3)-(4)]
DOCKED: USER
DOCKED: USER    (1) Final Intermolecular Energy     =  -9.86 kcal/mol
DOCKED: USER        vdW + Hbond + desolv Energy     =  -9.87 kcal/mol
DOCKED: USER        Electrostatic Energy            =  +0.02 kcal/mol
DOCKED: USER        Moving Ligand-Fixed Receptor    =  -9.86 kcal/mol
DOCKED: USER        Moving Ligand-Moving Receptor   =  +0.00 kcal/mol
DOCKED: USER    (2) Final Total Internal Energy     =  -2.36 kcal/mol
DOCKED: USER    (3) Torsional Free Energy           =  +2.39 kcal/mol
DOCKED: USER    (4) Unbound System's Energy         =  -2.36 kcal/mol
DOCKED: USER
DOCKED: USER
DOCKED: REMARK SMILES O=C([N-]CC(=O)N1CC[C@H](O)[C@H]1Cc1ccccc1)c1ccc2cc(Cl)ccc2n1
DOCKED: REMARK SMILES IDX 4 1 3 2 2 3 1 4 20 5 21 6 30 7 22 8 29 9 23 10 28 11 24 12
DOCKED: REMARK SMILES IDX 27 13 25 14 26 15 5 16 6 17 7 18 8 19 12 20 9 21 10 22 13 23
DOCKED: REMARK SMILES IDX 14 24 15 25 19 26 16 27 18 28 17 29 11 30
DOCKED: REMARK H PARENT 11 31
DOCKED: USER                              x       y       z     vdW  Elec       q    Type
DOCKED: USER                           _______ _______ _______ _____ _____    ______ ____
DOCKED: ROOT
DOCKED: ATOM      1  C   UNL     1     141.036  72.951 221.250 -0.26 +0.00    -0.015 C  
DOCKED: ENDROOT
DOCKED: BRANCH   1   2
DOCKED: ATOM      2  N   UNL     1     140.343  73.629 222.340 -0.57 -0.01    -0.640 NA 
DOCKED: BRANCH   2   3
DOCKED: ATOM      3  C   UNL     1     139.229  74.516 222.176 -0.08 -0.02    +0.101 C  
DOCKED: ATOM      4  O   UNL     1     138.069  74.028 222.125 -0.11 +0.11    -0.313 OA 
DOCKED: BRANCH   3   5
DOCKED: ATOM      5  C   UNL     1     139.396  75.970 222.021 -0.29 -0.02    +0.088 A  
DOCKED: ATOM      6  C   UNL     1     138.495  76.727 221.257 -0.16 -0.01    +0.031 A  
DOCKED: ATOM      7  N   UNL     1     140.479  76.577 222.582 -0.26 +0.06    -0.246 NA 
DOCKED: ATOM      8  C   UNL     1     138.697  78.102 221.113 -0.13 -0.00    +0.013 A  
DOCKED: ATOM      9  C   UNL     1     140.701  77.913 222.457 -0.39 -0.02    +0.071 A  
DOCKED: ATOM     10  C   UNL     1     139.802  78.711 221.716 -0.24 -0.00    +0.002 A  
DOCKED: ATOM     11  C   UNL     1     141.819  78.498 223.063 -0.48 -0.01    +0.030 A  
DOCKED: ATOM     12  C   UNL     1     140.037  80.089 221.589 -0.22 -0.01    +0.030 A  
DOCKED: ATOM     13  C   UNL     1     142.045  79.872 222.934 -0.58 -0.01    +0.023 A  
DOCKED: ATOM     14  C   UNL     1     141.157  80.666 222.198 -0.40 -0.01    +0.041 A  
DOCKED: ATOM     15  Cl  UNL     1     141.447  82.389 222.041 -0.33 +0.01    -0.084 Cl 
DOCKED: ENDBRANCH   3   5
DOCKED: ENDBRANCH   2   3
DOCKED: ENDBRANCH   1   2
DOCKED: BRANCH   1  16
DOCKED: ATOM     16  C   UNL     1     140.703  71.490 221.270 -0.13 -0.03    +0.205 C  
DOCKED: ATOM     17  O   UNL     1     141.530  70.661 220.802 -0.02 +0.03    -0.277 OA 
DOCKED: BRANCH  16  18
DOCKED: ATOM     18  N   UNL     1     139.476  71.023 221.859 -0.07 +0.06    -0.338 N  
DOCKED: ATOM     19  C   UNL     1     138.307  70.715 221.052 -0.06 -0.02    +0.122 C  
DOCKED: ATOM     20  C   UNL     1     139.158  71.164 223.278 -0.26 -0.03    +0.118 C  
DOCKED: ATOM     21  C   UNL     1     137.109  70.991 221.945 -0.09 -0.01    +0.055 C  
DOCKED: ATOM     22  C   UNL     1     137.638  70.941 223.380 -0.18 -0.03    +0.139 C  
DOCKED: BRANCH  20  23
DOCKED: ATOM     23  C   UNL     1     139.919  70.122 224.130 -0.29 -0.01    +0.063 C  
DOCKED: BRANCH  23  24
DOCKED: ATOM     24  C   UNL     1     140.226  70.620 225.519 -0.49 +0.01    -0.046 A  
DOCKED: ATOM     25  C   UNL     1     139.743  69.930 226.645 -0.50 -0.00    +0.004 A  
DOCKED: ATOM     26  C   UNL     1     141.024  71.761 225.702 -0.54 -0.00    +0.004 A  
DOCKED: ATOM     27  C   UNL     1     140.060  70.373 227.933 -0.65 -0.00    +0.000 A  
DOCKED: ATOM     28  C   UNL     1     141.338  72.202 226.991 -0.77 -0.00    +0.000 A  
DOCKED: ATOM     29  C   UNL     1     140.856  71.509 228.106 -0.79 -0.00    +0.000 A  
DOCKED: ENDBRANCH  23  24
DOCKED: ENDBRANCH  20  23
DOCKED: BRANCH  22  30
DOCKED: ATOM     30  O   UNL     1     137.047  71.941 224.169 -0.02 +0.13    -0.391 OA 
DOCKED: ATOM     31  H   UNL     1     137.338  72.810 223.788 -0.50 -0.14    +0.211 HD 
DOCKED: ENDBRANCH  22  30
DOCKED: ENDBRANCH  16  18
DOCKED: ENDBRANCH   1  16
DOCKED: TORSDOF 8
DOCKED: TER
DOCKED: ENDMDL
________________________________________________________________________________


    FINAL DOCKED STATE:
    ________________________


Run:   16 / 20
Time taken for this run:   0.046s

DOCKED: MODEL        16
DOCKED: USER    Run = 16
DOCKED: USER
DOCKED: USER    Estimated Free Energy of Binding    =  -8.36 kcal/mol  [=(1)+(2)+(3)-(4)]
DOCKED: USER
DOCKED: USER    (1) Final Intermolecular Energy     = -10.75 kcal/mol
DOCKED: USER        vdW + Hbond + desolv Energy     = -10.70 kcal/mol
DOCKED: USER        Electrostatic Energy            =  -0.05 kcal/mol
DOCKED: USER        Moving Ligand-Fixed Receptor    = -10.75 kcal/mol
DOCKED: USER        Moving Ligand-Moving Receptor   =  +0.00 kcal/mol
DOCKED: USER    (2) Final Total Internal Energy     =  -1.33 kcal/mol
DOCKED: USER    (3) Torsional Free Energy           =  +2.39 kcal/mol
DOCKED: USER    (4) Unbound System's Energy         =  -1.33 kcal/mol
DOCKED: USER
DOCKED: USER
DOCKED: REMARK SMILES O=C([N-]CC(=O)N1CC[C@H](O)[C@H]1Cc1ccccc1)c1ccc2cc(Cl)ccc2n1
DOCKED: REMARK SMILES IDX 4 1 3 2 2 3 1 4 20 5 21 6 30 7 22 8 29 9 23 10 28 11 24 12
DOCKED: REMARK SMILES IDX 27 13 25 14 26 15 5 16 6 17 7 18 8 19 12 20 9 21 10 22 13 23
DOCKED: REMARK SMILES IDX 14 24 15 25 19 26 16 27 18 28 17 29 11 30
DOCKED: REMARK H PARENT 11 31
DOCKED: USER                              x       y       z     vdW  Elec       q    Type
DOCKED: USER                           _______ _______ _______ _____ _____    ______ ____
DOCKED: ROOT
DOCKED: ATOM      1  C   UNL     1     141.978  71.489 220.249 -0.17 +0.00    -0.015 C  
DOCKED: ENDROOT
DOCKED: BRANCH   1   2
DOCKED: ATOM      2  N   UNL     1     140.690  72.046 220.647 +0.02 +0.10    -0.640 NA 
DOCKED: BRANCH   2   3
DOCKED: ATOM      3  C   UNL     1     140.354  72.465 221.976 -0.26 -0.01    +0.101 C  
DOCKED: ATOM      4  O   UNL     1     140.173  73.691 222.197 -0.79 +0.01    -0.313 OA 
DOCKED: BRANCH   3   5
DOCKED: ATOM      5  C   UNL     1     140.258  71.518 223.099 -0.32 -0.01    +0.088 A  
DOCKED: ATOM      6  C   UNL     1     139.661  70.259 222.939 -0.21 -0.01    +0.031 A  
DOCKED: ATOM      7  N   UNL     1     140.705  71.900 224.328 -0.24 +0.03    -0.246 NA 
DOCKED: ATOM      8  C   UNL     1     139.567  69.394 224.032 -0.27 -0.00    +0.013 A  
DOCKED: ATOM      9  C   UNL     1     140.625  71.080 225.410 -0.52 -0.01    +0.071 A  
DOCKED: ATOM     10  C   UNL     1     140.053  69.796 225.281 -0.44 -0.00    +0.002 A  
DOCKED: ATOM     11  C   UNL     1     141.110  71.506 226.652 -0.70 -0.00    +0.030 A  
DOCKED: ATOM     12  C   UNL     1     139.972  68.953 226.400 -0.52 -0.00    +0.030 A  
DOCKED: ATOM     13  C   UNL     1     141.028  70.661 227.762 -0.64 -0.00    +0.023 A  
DOCKED: ATOM     14  C   UNL     1     140.459  69.387 227.639 -0.59 -0.01    +0.041 A  
DOCKED: ATOM     15  Cl  UNL     1     140.360  68.333 229.037 -0.19 +0.02    -0.084 Cl 
DOCKED: ENDBRANCH   3   5
DOCKED: ENDBRANCH   2   3
DOCKED: ENDBRANCH   1   2
DOCKED: BRANCH   1  16
DOCKED: ATOM     16  C   UNL     1     141.775  70.141 219.625 -0.07 -0.03    +0.205 C  
DOCKED: ATOM     17  O   UNL     1     140.602  69.710 219.457 -0.05 +0.05    -0.277 OA 
DOCKED: BRANCH  16  18
DOCKED: ATOM     18  N   UNL     1     142.897  69.361 219.176 -0.06 +0.04    -0.338 N  
DOCKED: ATOM     19  C   UNL     1     142.741  67.996 218.701 -0.14 -0.03    +0.122 C  
DOCKED: ATOM     20  C   UNL     1     144.285  69.693 219.489 -0.21 +0.01    +0.118 C  
DOCKED: ATOM     21  C   UNL     1     144.050  67.297 219.030 -0.31 -0.02    +0.055 C  
DOCKED: ATOM     22  C   UNL     1     145.086  68.410 219.201 -0.32 +0.01    +0.139 C  
DOCKED: BRANCH  20  23
DOCKED: ATOM     23  C   UNL     1     144.795  70.861 218.614 -0.20 +0.02    +0.063 C  
DOCKED: BRANCH  23  24
DOCKED: ATOM     24  C   UNL     1     144.972  72.138 219.394 -0.30 -0.01    -0.046 A  
DOCKED: ATOM     25  C   UNL     1     145.987  72.246 220.361 -0.32 +0.00    +0.004 A  
DOCKED: ATOM     26  C   UNL     1     144.145  73.244 219.138 -0.25 -0.00    +0.004 A  
DOCKED: ATOM     27  C   UNL     1     146.172  73.444 221.057 -0.72 -0.00    +0.000 A  
DOCKED: ATOM     28  C   UNL     1     144.333  74.440 219.838 -0.41 -0.00    +0.000 A  
DOCKED: ATOM     29  C   UNL     1     145.346  74.540 220.796 -0.43 -0.00    +0.000 A  
DOCKED: ENDBRANCH  23  24
DOCKED: ENDBRANCH  20  23
DOCKED: BRANCH  22  30
DOCKED: ATOM     30  O   UNL     1     145.958  68.126 220.264 -0.86 -0.16    -0.391 OA 
DOCKED: ATOM     31  H   UNL     1     146.228  67.176 220.162 -0.23 -0.02    +0.211 HD 
DOCKED: ENDBRANCH  22  30
DOCKED: ENDBRANCH  16  18
DOCKED: ENDBRANCH   1  16
DOCKED: TORSDOF 8
DOCKED: TER
DOCKED: ENDMDL
________________________________________________________________________________


    FINAL DOCKED STATE:
    ________________________


Run:   17 / 20
Time taken for this run:   0.046s

DOCKED: MODEL        17
DOCKED: USER    Run = 17
DOCKED: USER
DOCKED: USER    Estimated Free Energy of Binding    =  -8.12 kcal/mol  [=(1)+(2)+(3)-(4)]
DOCKED: USER
DOCKED: USER    (1) Final Intermolecular Energy     = -10.51 kcal/mol
DOCKED: USER        vdW + Hbond + desolv Energy     = -10.55 kcal/mol
DOCKED: USER        Electrostatic Energy            =  +0.04 kcal/mol
DOCKED: USER        Moving Ligand-Fixed Receptor    = -10.51 kcal/mol
DOCKED: USER        Moving Ligand-Moving Receptor   =  +0.00 kcal/mol
DOCKED: USER    (2) Final Total Internal Energy     =  -1.70 kcal/mol
DOCKED: USER    (3) Torsional Free Energy           =  +2.39 kcal/mol
DOCKED: USER    (4) Unbound System's Energy         =  -1.70 kcal/mol
DOCKED: USER
DOCKED: USER
DOCKED: REMARK SMILES O=C([N-]CC(=O)N1CC[C@H](O)[C@H]1Cc1ccccc1)c1ccc2cc(Cl)ccc2n1
DOCKED: REMARK SMILES IDX 4 1 3 2 2 3 1 4 20 5 21 6 30 7 22 8 29 9 23 10 28 11 24 12
DOCKED: REMARK SMILES IDX 27 13 25 14 26 15 5 16 6 17 7 18 8 19 12 20 9 21 10 22 13 23
DOCKED: REMARK SMILES IDX 14 24 15 25 19 26 16 27 18 28 17 29 11 30
DOCKED: REMARK H PARENT 11 31
DOCKED: USER                              x       y       z     vdW  Elec       q    Type
DOCKED: USER                           _______ _______ _______ _____ _____    ______ ____
DOCKED: ROOT
DOCKED: ATOM      1  C   UNL     1     140.971  71.214 219.970 -0.11 +0.00    -0.015 C  
DOCKED: ENDROOT
DOCKED: BRANCH   1   2
DOCKED: ATOM      2  N   UNL     1     140.602  72.556 220.410 +0.03 +0.11    -0.640 NA 
DOCKED: BRANCH   2   3
DOCKED: ATOM      3  C   UNL     1     140.192  72.898 221.740 -0.25 -0.01    +0.101 C  
DOCKED: ATOM      4  O   UNL     1     139.911  74.097 221.997 -0.79 +0.03    -0.313 OA 
DOCKED: BRANCH   3   5
DOCKED: ATOM      5  C   UNL     1     140.131  71.905 222.825 -0.30 -0.01    +0.088 A  
DOCKED: ATOM      6  C   UNL     1     139.534  70.650 222.629 -0.23 -0.01    +0.031 A  
DOCKED: ATOM      7  N   UNL     1     140.610  72.237 224.056 -0.12 +0.02    -0.246 NA 
DOCKED: ATOM      8  C   UNL     1     139.474  69.741 223.687 -0.27 -0.00    +0.013 A  
DOCKED: ATOM      9  C   UNL     1     140.563  71.373 225.105 -0.49 -0.01    +0.071 A  
DOCKED: ATOM     10  C   UNL     1     139.993  70.092 224.938 -0.42 -0.00    +0.002 A  
DOCKED: ATOM     11  C   UNL     1     141.082  71.750 226.349 -0.67 -0.00    +0.030 A  
DOCKED: ATOM     12  C   UNL     1     139.946  69.204 226.024 -0.48 -0.00    +0.030 A  
DOCKED: ATOM     13  C   UNL     1     141.034  70.859 227.425 -0.66 -0.00    +0.023 A  
DOCKED: ATOM     14  C   UNL     1     140.467  69.589 227.265 -0.56 -0.01    +0.041 A  
DOCKED: ATOM     15  Cl  UNL     1     140.411  68.477 228.620 -0.69 +0.02    -0.084 Cl 
DOCKED: ENDBRANCH   3   5
DOCKED: ENDBRANCH   2   3
DOCKED: ENDBRANCH   1   2
DOCKED: BRANCH   1  16
DOCKED: ATOM     16  C   UNL     1     142.383  70.919 220.378 -0.00 -0.02    +0.205 C  
DOCKED: ATOM     17  O   UNL     1     142.879  71.524 221.367 -0.10 +0.03    -0.277 OA 
DOCKED: BRANCH  16  18
DOCKED: ATOM     18  N   UNL     1     143.156  69.922 219.686 -0.07 +0.02    -0.338 N  
DOCKED: ATOM     19  C   UNL     1     142.559  68.687 219.204 -0.13 -0.02    +0.122 C  
DOCKED: ATOM     20  C   UNL     1     144.615  69.863 219.727 -0.06 +0.02    +0.118 C  
DOCKED: ATOM     21  C   UNL     1     143.672  67.654 219.239 -0.25 -0.01    +0.055 C  
DOCKED: ATOM     22  C   UNL     1     144.980  68.449 219.239 -0.31 +0.01    +0.139 C  
DOCKED: BRANCH  20  23
DOCKED: ATOM     23  C   UNL     1     145.246  70.935 218.809 -0.24 +0.03    +0.063 C  
DOCKED: BRANCH  23  24
DOCKED: ATOM     24  C   UNL     1     145.102  72.330 219.360 -0.32 -0.01    -0.046 A  
DOCKED: ATOM     25  C   UNL     1     144.136  73.206 218.835 -0.22 -0.00    +0.004 A  
DOCKED: ATOM     26  C   UNL     1     145.911  72.758 220.426 -0.56 +0.00    +0.004 A  
DOCKED: ATOM     27  C   UNL     1     143.980  74.488 219.373 -0.34 -0.00    +0.000 A  
DOCKED: ATOM     28  C   UNL     1     145.754  74.040 220.960 -0.63 -0.00    +0.000 A  
DOCKED: ATOM     29  C   UNL     1     144.788  74.904 220.434 -0.35 -0.00    +0.000 A  
DOCKED: ENDBRANCH  23  24
DOCKED: ENDBRANCH  20  23
DOCKED: BRANCH  22  30
DOCKED: ATOM     30  O   UNL     1     145.925  67.863 220.095 -0.85 -0.08    -0.391 OA 
DOCKED: ATOM     31  H   UNL     1     145.868  66.882 219.951 -0.12 -0.04    +0.211 HD 
DOCKED: ENDBRANCH  22  30
DOCKED: ENDBRANCH  16  18
DOCKED: ENDBRANCH   1  16
DOCKED: TORSDOF 8
DOCKED: TER
DOCKED: ENDMDL
________________________________________________________________________________


    FINAL DOCKED STATE:
    ________________________


Run:   18 / 20
Time taken for this run:   0.046s

DOCKED: MODEL        18
DOCKED: USER    Run = 18
DOCKED: USER
DOCKED: USER    Estimated Free Energy of Binding    =  -8.63 kcal/mol  [=(1)+(2)+(3)-(4)]
DOCKED: USER
DOCKED: USER    (1) Final Intermolecular Energy     = -11.01 kcal/mol
DOCKED: USER        vdW + Hbond + desolv Energy     = -10.83 kcal/mol
DOCKED: USER        Electrostatic Energy            =  -0.18 kcal/mol
DOCKED: USER        Moving Ligand-Fixed Receptor    = -11.01 kcal/mol
DOCKED: USER        Moving Ligand-Moving Receptor   =  +0.00 kcal/mol
DOCKED: USER    (2) Final Total Internal Energy     =  -1.51 kcal/mol
DOCKED: USER    (3) Torsional Free Energy           =  +2.39 kcal/mol
DOCKED: USER    (4) Unbound System's Energy         =  -1.51 kcal/mol
DOCKED: USER
DOCKED: USER
DOCKED: REMARK SMILES O=C([N-]CC(=O)N1CC[C@H](O)[C@H]1Cc1ccccc1)c1ccc2cc(Cl)ccc2n1
DOCKED: REMARK SMILES IDX 4 1 3 2 2 3 1 4 20 5 21 6 30 7 22 8 29 9 23 10 28 11 24 12
DOCKED: REMARK SMILES IDX 27 13 25 14 26 15 5 16 6 17 7 18 8 19 12 20 9 21 10 22 13 23
DOCKED: REMARK SMILES IDX 14 24 15 25 19 26 16 27 18 28 17 29 11 30
DOCKED: REMARK H PARENT 11 31
DOCKED: USER                              x       y       z     vdW  Elec       q    Type
DOCKED: USER                           _______ _______ _______ _____ _____    ______ ____
DOCKED: ROOT
DOCKED: ATOM      1  C   UNL     1     140.349  73.484 219.434 -0.07 +0.00    -0.015 C  
DOCKED: ENDROOT
DOCKED: BRANCH   1   2
DOCKED: ATOM      2  N   UNL     1     140.045  72.565 220.526 +0.03 +0.11    -0.640 NA 
DOCKED: BRANCH   2   3
DOCKED: ATOM      3  C   UNL     1     140.041  72.916 221.915 -0.26 -0.01    +0.101 C  
DOCKED: ATOM      4  O   UNL     1     140.063  74.134 222.232 -0.82 +0.01    -0.313 OA 
DOCKED: BRANCH   3   5
DOCKED: ATOM      5  C   UNL     1     140.057  71.903 222.983 -0.31 -0.01    +0.088 A  
DOCKED: ATOM      6  C   UNL     1     139.548  70.613 222.769 -0.24 -0.01    +0.031 A  
DOCKED: ATOM      7  N   UNL     1     140.520  72.247 224.217 -0.08 +0.03    -0.246 NA 
DOCKED: ATOM      8  C   UNL     1     139.559  69.684 223.812 -0.27 -0.00    +0.013 A  
DOCKED: ATOM      9  C   UNL     1     140.541  71.365 225.251 -0.50 -0.01    +0.071 A  
DOCKED: ATOM     10  C   UNL     1     140.060  70.050 225.066 -0.43 -0.00    +0.002 A  
DOCKED: ATOM     11  C   UNL     1     141.040  71.756 226.499 -0.69 -0.00    +0.030 A  
DOCKED: ATOM     12  C   UNL     1     140.083  69.143 226.136 -0.50 -0.01    +0.030 A  
DOCKED: ATOM     13  C   UNL     1     141.061  70.846 227.560 -0.66 -0.00    +0.023 A  
DOCKED: ATOM     14  C   UNL     1     140.583  69.542 227.381 -0.57 -0.01    +0.041 A  
DOCKED: ATOM     15  Cl  UNL     1     140.614  68.407 228.717 -0.67 +0.02    -0.084 Cl 
DOCKED: ENDBRANCH   3   5
DOCKED: ENDBRANCH   2   3
DOCKED: ENDBRANCH   1   2
DOCKED: BRANCH   1  16
DOCKED: ATOM     16  C   UNL     1     141.688  73.151 218.850 -0.03 -0.04    +0.205 C  
DOCKED: ATOM     17  O   UNL     1     141.766  72.817 217.636 -0.00 +0.05    -0.277 OA 
DOCKED: BRANCH  16  18
DOCKED: ATOM     18  N   UNL     1     142.884  73.254 219.643 -0.06 +0.07    -0.338 N  
DOCKED: ATOM     19  C   UNL     1     143.219  74.468 220.369 -0.29 -0.04    +0.122 C  
DOCKED: ATOM     20  C   UNL     1     144.021  72.347 219.508 -0.21 -0.01    +0.118 C  
DOCKED: ATOM     21  C   UNL     1     144.737  74.502 220.430 -0.42 -0.02    +0.055 C  
DOCKED: ATOM     22  C   UNL     1     145.196  73.060 220.201 -0.43 -0.00    +0.139 C  
DOCKED: BRANCH  20  23
DOCKED: ATOM     23  C   UNL     1     143.736  70.986 220.183 -0.21 -0.00    +0.063 C  
DOCKED: BRANCH  23  24
DOCKED: ATOM     24  C   UNL     1     144.558  69.865 219.601 -0.21 -0.01    -0.046 A  
DOCKED: ATOM     25  C   UNL     1     145.499  70.123 218.589 -0.29 +0.00    +0.004 A  
DOCKED: ATOM     26  C   UNL     1     144.413  68.554 220.087 -0.32 +0.00    +0.004 A  
DOCKED: ATOM     27  C   UNL     1     146.286  69.087 218.077 -0.28 +0.00    +0.000 A  
DOCKED: ATOM     28  C   UNL     1     145.201  67.521 219.571 -0.49 -0.00    +0.000 A  
DOCKED: ATOM     29  C   UNL     1     146.136  67.787 218.567 -0.44 -0.00    +0.000 A  
DOCKED: ENDBRANCH  23  24
DOCKED: ENDBRANCH  20  23
DOCKED: BRANCH  22  30
DOCKED: ATOM     30  O   UNL     1     146.342  73.020 219.390 -0.68 -0.31    -0.391 OA 
DOCKED: ATOM     31  H   UNL     1     146.394  73.898 218.931 -0.44 +0.04    +0.211 HD 
DOCKED: ENDBRANCH  22  30
DOCKED: ENDBRANCH  16  18
DOCKED: ENDBRANCH   1  16
DOCKED: TORSDOF 8
DOCKED: TER
DOCKED: ENDMDL
________________________________________________________________________________


    FINAL DOCKED STATE:
    ________________________


Run:   19 / 20
Time taken for this run:   0.046s

DOCKED: MODEL        19
DOCKED: USER    Run = 19
DOCKED: USER
DOCKED: USER    Estimated Free Energy of Binding    =  -8.63 kcal/mol  [=(1)+(2)+(3)-(4)]
DOCKED: USER
DOCKED: USER    (1) Final Intermolecular Energy     = -11.02 kcal/mol
DOCKED: USER        vdW + Hbond + desolv Energy     = -11.05 kcal/mol
DOCKED: USER        Electrostatic Energy            =  +0.03 kcal/mol
DOCKED: USER        Moving Ligand-Fixed Receptor    = -11.02 kcal/mol
DOCKED: USER        Moving Ligand-Moving Receptor   =  +0.00 kcal/mol
DOCKED: USER    (2) Final Total Internal Energy     =  -1.26 kcal/mol
DOCKED: USER    (3) Torsional Free Energy           =  +2.39 kcal/mol
DOCKED: USER    (4) Unbound System's Energy         =  -1.26 kcal/mol
DOCKED: USER
DOCKED: USER
DOCKED: REMARK SMILES O=C([N-]CC(=O)N1CC[C@H](O)[C@H]1Cc1ccccc1)c1ccc2cc(Cl)ccc2n1
DOCKED: REMARK SMILES IDX 4 1 3 2 2 3 1 4 20 5 21 6 30 7 22 8 29 9 23 10 28 11 24 12
DOCKED: REMARK SMILES IDX 27 13 25 14 26 15 5 16 6 17 7 18 8 19 12 20 9 21 10 22 13 23
DOCKED: REMARK SMILES IDX 14 24 15 25 19 26 16 27 18 28 17 29 11 30
DOCKED: REMARK H PARENT 11 31
DOCKED: USER                              x       y       z     vdW  Elec       q    Type
DOCKED: USER                           _______ _______ _______ _____ _____    ______ ____
DOCKED: ROOT
DOCKED: ATOM      1  C   UNL     1     139.778  75.104 221.943 -0.29 +0.00    -0.015 C  
DOCKED: ENDROOT
DOCKED: BRANCH   1   2
DOCKED: ATOM      2  N   UNL     1     140.334  73.773 222.166 -0.59 +0.01    -0.640 NA 
DOCKED: BRANCH   2   3
DOCKED: ATOM      3  C   UNL     1     139.569  72.563 222.212 -0.24 -0.02    +0.101 C  
DOCKED: ATOM      4  O   UNL     1     138.683  72.373 221.337 -0.06 +0.07    -0.313 OA 
DOCKED: BRANCH   3   5
DOCKED: ATOM      5  C   UNL     1     139.751  71.555 223.269 -0.31 -0.02    +0.088 A  
DOCKED: ATOM      6  C   UNL     1     139.357  70.222 223.078 -0.24 -0.01    +0.031 A  
DOCKED: ATOM      7  N   UNL     1     140.255  71.941 224.474 -0.21 +0.05    -0.246 NA 
DOCKED: ATOM      8  C   UNL     1     139.525  69.297 224.111 -0.28 -0.00    +0.013 A  
DOCKED: ATOM      9  C   UNL     1     140.428  71.064 225.498 -0.51 -0.01    +0.071 A  
DOCKED: ATOM     10  C   UNL     1     140.066  69.709 225.333 -0.44 -0.00    +0.002 A  
DOCKED: ATOM     11  C   UNL     1     140.965  71.500 226.714 -0.70 -0.00    +0.030 A  
DOCKED: ATOM     12  C   UNL     1     140.245  68.806 226.393 -0.55 -0.01    +0.030 A  
DOCKED: ATOM     13  C   UNL     1     141.141  70.595 227.765 -0.58 -0.00    +0.023 A  
DOCKED: ATOM     14  C   UNL     1     140.782  69.251 227.607 -0.58 -0.01    +0.041 A  
DOCKED: ATOM     15  Cl  UNL     1     141.008  68.122 228.930 -0.53 +0.02    -0.084 Cl 
DOCKED: ENDBRANCH   3   5
DOCKED: ENDBRANCH   2   3
DOCKED: ENDBRANCH   1   2
DOCKED: BRANCH   1  16
DOCKED: ATOM     16  C   UNL     1     139.581  75.330 220.475 -0.10 -0.05    +0.205 C  
DOCKED: ATOM     17  O   UNL     1     138.443  75.136 219.968 -0.02 +0.06    -0.277 OA 
DOCKED: BRANCH  16  18
DOCKED: ATOM     18  N   UNL     1     140.660  75.810 219.652 -0.02 +0.11    -0.338 N  
DOCKED: ATOM     19  C   UNL     1     141.024  75.156 218.406 -0.05 -0.04    +0.122 C  
DOCKED: ATOM     20  C   UNL     1     141.698  76.718 220.135 -0.24 -0.06    +0.118 C  
DOCKED: ATOM     21  C   UNL     1     142.513  75.403 218.234 -0.16 -0.02    +0.055 C  
DOCKED: ATOM     22  C   UNL     1     142.838  76.619 219.105 -0.29 -0.09    +0.139 C  
DOCKED: BRANCH  20  23
DOCKED: ATOM     23  C   UNL     1     141.176  78.169 220.230 -0.23 -0.03    +0.063 C  
DOCKED: BRANCH  23  24
DOCKED: ATOM     24  C   UNL     1     141.601  78.859 221.501 -0.36 +0.02    -0.046 A  
DOCKED: ATOM     25  C   UNL     1     142.116  80.166 221.463 -0.43 -0.00    +0.004 A  
DOCKED: ATOM     26  C   UNL     1     141.456  78.212 222.740 -0.49 -0.00    +0.004 A  
DOCKED: ATOM     27  C   UNL     1     142.476  80.816 222.648 -0.57 -0.00    +0.000 A  
DOCKED: ATOM     28  C   UNL     1     141.819  78.865 223.922 -0.61 -0.00    +0.000 A  
DOCKED: ATOM     29  C   UNL     1     142.328  80.166 223.876 -0.64 -0.00    +0.000 A  
DOCKED: ENDBRANCH  23  24
DOCKED: ENDBRANCH  20  23
DOCKED: BRANCH  22  30
DOCKED: ATOM     30  O   UNL     1     144.073  76.458 219.752 -0.25 +0.31    -0.391 OA 
DOCKED: ATOM     31  H   UNL     1     144.077  77.092 220.516 -0.46 -0.26    +0.211 HD 
DOCKED: ENDBRANCH  22  30
DOCKED: ENDBRANCH  16  18
DOCKED: ENDBRANCH   1  16
DOCKED: TORSDOF 8
DOCKED: TER
DOCKED: ENDMDL
________________________________________________________________________________


    FINAL DOCKED STATE:
    ________________________


Run:   20 / 20
Time taken for this run:   0.046s

DOCKED: MODEL        20
DOCKED: USER    Run = 20
DOCKED: USER
DOCKED: USER    Estimated Free Energy of Binding    =  -8.00 kcal/mol  [=(1)+(2)+(3)-(4)]
DOCKED: USER
DOCKED: USER    (1) Final Intermolecular Energy     = -10.38 kcal/mol
DOCKED: USER        vdW + Hbond + desolv Energy     = -10.51 kcal/mol
DOCKED: USER        Electrostatic Energy            =  +0.13 kcal/mol
DOCKED: USER        Moving Ligand-Fixed Receptor    = -10.38 kcal/mol
DOCKED: USER        Moving Ligand-Moving Receptor   =  +0.00 kcal/mol
DOCKED: USER    (2) Final Total Internal Energy     =  -1.26 kcal/mol
DOCKED: USER    (3) Torsional Free Energy           =  +2.39 kcal/mol
DOCKED: USER    (4) Unbound System's Energy         =  -1.26 kcal/mol
DOCKED: USER
DOCKED: USER
DOCKED: REMARK SMILES O=C([N-]CC(=O)N1CC[C@H](O)[C@H]1Cc1ccccc1)c1ccc2cc(Cl)ccc2n1
DOCKED: REMARK SMILES IDX 4 1 3 2 2 3 1 4 20 5 21 6 30 7 22 8 29 9 23 10 28 11 24 12
DOCKED: REMARK SMILES IDX 27 13 25 14 26 15 5 16 6 17 7 18 8 19 12 20 9 21 10 22 13 23
DOCKED: REMARK SMILES IDX 14 24 15 25 19 26 16 27 18 28 17 29 11 30
DOCKED: REMARK H PARENT 11 31
DOCKED: USER                              x       y       z     vdW  Elec       q    Type
DOCKED: USER                           _______ _______ _______ _____ _____    ______ ____
DOCKED: ROOT
DOCKED: ATOM      1  C   UNL     1     141.390  74.362 221.279 -0.27 +0.00    -0.015 C  
DOCKED: ENDROOT
DOCKED: BRANCH   1   2
DOCKED: ATOM      2  N   UNL     1     140.249  73.905 222.066 -0.61 +0.03    -0.640 NA 
DOCKED: BRANCH   2   3
DOCKED: ATOM      3  C   UNL     1     139.655  72.605 221.969 -0.24 -0.02    +0.101 C  
DOCKED: ATOM      4  O   UNL     1     138.961  72.330 220.955 -0.05 +0.06    -0.313 OA 
DOCKED: BRANCH   3   5
DOCKED: ATOM      5  C   UNL     1     139.790  71.596 223.032 -0.30 -0.02    +0.088 A  
DOCKED: ATOM      6  C   UNL     1     139.364  70.273 222.836 -0.22 -0.01    +0.031 A  
DOCKED: ATOM      7  N   UNL     1     140.283  71.972 224.244 -0.23 +0.04    -0.246 NA 
DOCKED: ATOM      8  C   UNL     1     139.488  69.347 223.874 -0.25 -0.00    +0.013 A  
DOCKED: ATOM      9  C   UNL     1     140.412  71.092 225.274 -0.50 -0.01    +0.071 A  
DOCKED: ATOM     10  C   UNL     1     140.018  69.747 225.105 -0.42 -0.00    +0.002 A  
DOCKED: ATOM     11  C   UNL     1     140.938  71.518 226.499 -0.68 -0.00    +0.030 A  
DOCKED: ATOM     12  C   UNL     1     140.152  68.844 226.171 -0.52 -0.01    +0.030 A  
DOCKED: ATOM     13  C   UNL     1     141.071  70.612 227.555 -0.62 -0.00    +0.023 A  
DOCKED: ATOM     14  C   UNL     1     140.679  69.277 227.393 -0.58 -0.01    +0.041 A  
DOCKED: ATOM     15  Cl  UNL     1     140.850  68.147 228.723 -0.66 +0.02    -0.084 Cl 
DOCKED: ENDBRANCH   3   5
DOCKED: ENDBRANCH   2   3
DOCKED: ENDBRANCH   1   2
DOCKED: BRANCH   1  16
DOCKED: ATOM     16  C   UNL     1     141.000  75.562 220.471 -0.17 -0.07    +0.205 C  
DOCKED: ATOM     17  O   UNL     1     141.171  75.548 219.222 -0.05 +0.09    -0.277 OA 
DOCKED: BRANCH  16  18
DOCKED: ATOM     18  N   UNL     1     140.390  76.705 221.098 -0.10 +0.11    -0.338 N  
DOCKED: ATOM     19  C   UNL     1     139.585  76.580 222.302 -0.30 -0.03    +0.122 C  
DOCKED: ATOM     20  C   UNL     1     140.200  77.987 220.424 -0.14 -0.04    +0.118 C  
DOCKED: ATOM     21  C   UNL     1     138.571  77.710 222.234 -0.25 -0.01    +0.055 C  
DOCKED: ATOM     22  C   UNL     1     139.162  78.744 221.272 -0.12 -0.03    +0.139 C  
DOCKED: BRANCH  20  23
DOCKED: ATOM     23  C   UNL     1     141.523  78.783 220.347 -0.27 -0.03    +0.063 C  
DOCKED: BRANCH  23  24
DOCKED: ATOM     24  C   UNL     1     141.756  79.644 221.561 -0.40 +0.02    -0.046 A  
DOCKED: ATOM     25  C   UNL     1     142.227  79.075 222.757 -0.55 -0.00    +0.004 A  
DOCKED: ATOM     26  C   UNL     1     141.534  81.030 221.499 -0.41 -0.00    +0.004 A  
DOCKED: ATOM     27  C   UNL     1     142.476  79.882 223.872 -0.60 -0.00    +0.000 A  
DOCKED: ATOM     28  C   UNL     1     141.783  81.833 222.616 -0.43 -0.00    +0.000 A  
DOCKED: ATOM     29  C   UNL     1     142.254  81.259 223.801 -0.64 -0.00    +0.000 A  
DOCKED: ENDBRANCH  23  24
DOCKED: ENDBRANCH  20  23
DOCKED: BRANCH  22  30
DOCKED: ATOM     30  O   UNL     1     138.165  79.295 220.452 -0.00 +0.08    -0.391 OA 
DOCKED: ATOM     31  H   UNL     1     138.517  80.162 220.123 +0.04 -0.05    +0.211 HD 
DOCKED: ENDBRANCH  22  30
DOCKED: ENDBRANCH  16  18
DOCKED: ENDBRANCH   1  16
DOCKED: TORSDOF 8
DOCKED: TER
DOCKED: ENDMDL
________________________________________________________________________________


    CLUSTERING HISTOGRAM
    ____________________


________________________________________________________________________________
     |           |     |           |     |
Clus | Lowest    | Run | Mean      | Num | Histogram
-ter | Binding   |     | Binding   | in  |
Rank | Energy    |     | Energy    | Clus|    5    10   15   20   25   30   35
_____|___________|_____|___________|_____|____:____|____:____|____:____|____:___
   1 |     -8.66 |  13 |     -8.64 |   3 |###
   2 |     -8.63 |  19 |     -8.35 |   8 |########
   3 |     -8.36 |  16 |     -8.24 |   2 |##
   4 |     -7.86 |   6 |     -7.86 |   1 |#
   5 |     -7.47 |  15 |     -7.21 |   3 |###
   6 |     -7.22 |  14 |     -7.22 |   1 |#
   7 |     -7.21 |   8 |     -7.21 |   1 |#
   8 |     -6.46 |  10 |     -6.46 |   1 |#
_____|___________|_____|___________|_____|______________________________________


    RMSD TABLE
    __________


_______________________________________________________________________
     |      |      |           |         |                 |
Rank | Sub- | Run  | Binding   | Cluster | Reference       | Grep
     | Rank |      | Energy    | RMSD    | RMSD            | Pattern
_____|______|______|___________|_________|_________________|___________
   1      1     13       -8.66      0.00    268.46           RANKING
   1      2     12       -8.64      0.50    268.51           RANKING
   1      3     18       -8.63      0.44    268.54           RANKING
   2      1     19       -8.63      0.00    269.34           RANKING
   2      2      5       -8.60      0.40    269.34           RANKING
   2      3      3       -8.57      0.90    269.33           RANKING
   2      4      9       -8.53      1.16    269.25           RANKING
   2      5      1       -8.52      1.16    269.51           RANKING
   2      6     11       -8.22      1.57    269.44           RANKING
   2      7     20       -8.00      1.79    269.46           RANKING
   2      8      7       -7.77      1.64    269.39           RANKING
   3      1     16       -8.36      0.00    268.57           RANKING
   3      2     17       -8.12      0.83    268.59           RANKING
   4      1      6       -7.86      0.00    269.37           RANKING
   5      1     15       -7.47      0.00    269.08           RANKING
   5      2      4       -7.16      1.44    268.68           RANKING
   5      3      2       -7.00      1.00    269.04           RANKING
   6      1     14       -7.22      0.00    268.52           RANKING
   7      1      8       -7.21      0.00    268.64           RANKING
   8      1     10       -6.46      0.00    269.15           RANKING

Run time 0.873 sec
Idle time 0.000 sec
