AutoDock-GPU version: v1.6

**********************************************************
**    AutoDock-GPU AUTODOCKTOOLS-COMPATIBLE DLG FILE    **
**********************************************************


    DOCKING PARAMETERS
    ________________________


Ligand file:                               /home/a/REINVENT4/ReinventStudies/pleaseWork/justmol2mol_4_Compounds_ontop/graph-dock-8u2o5u/graph-DockGPU/node-autodockgpu/inputs/VGWTXNJVRNWNTI-REGRURQQNA-O.pdbqt
Grid fld file:                             /home/a/REINVENT4/ReinventStudies/mols/Rad51/maps/rad51_receptor.maps.fld

Random seed:                               42
Number of runs:                            20
Number of energy evaluations:              1132076
Number of generations:                     42000
Size of population:                        150
Rate of crossover:                         80.000000%
Tournament selection probability limit:    60.000000%
Rate of mutation:                          2.000000%
Maximal allowed delta movement:            +/- 6.000000A
Maximal allowed delta angle:               +/- 90.000000

Rate of local search:                      100.000000%
Maximal number of local search iterations: 300
Rho lower bound:                           0.010000
Spread of local search delta movement:     2.000000A
Spread of local search delta angle:        74.999999
Limit of consecutive successes/failures:   4

Handle symmetry during clustering:         YES
RMSD tolerance:                            2.000000A

Program call in command line was:          /home/a/REINVENT4/ReinventStudies/adgpu-v1.6_linux_x64_cuda12_128wi --filelist batch.txt --heuristics 1 --nrun 20 --psize 150 --lsit 300 --seed 42 --heurmax 12000000 


    GRID PARAMETERS
    ________________________


Receptor name:                             rad51_receptor
Number of grid points (x, y, z):           53, 53, 53
Grid center (x, y, z):                     139.950000, 75.640000, 221.970000A
Grid size (x, y, z):                       19.500000, 19.500000, 19.500000A
Grid spacing:                              0.375000A


    LIGAND PARAMETERS
    ________________________


Ligand name:                               /home/a/REINVENT4/ReinventStudies/pleaseWork/justmol2mol_4_Compounds_ontop/graph-dock-8u2o5u/graph-DockGPU/node-autodockgpu/inputs/VGWTXNJVRNWNTI-REGRURQQNA-O
Number of atoms:                           31
Number of rotatable bonds:                 6
Number of atom types:                      8


    DUMMY DATA (only for ADT-compatibility)
    ________________________


DPF> outlev 1
DPF> ga_run 20
DPF> fld /home/a/REINVENT4/ReinventStudies/mols/Rad51/maps/rad51_receptor.maps.fld
DPF> move /home/a/REINVENT4/ReinventStudies/pleaseWork/justmol2mol_4_Compounds_ontop/graph-dock-8u2o5u/graph-DockGPU/node-autodockgpu/inputs/VGWTXNJVRNWNTI-REGRURQQNA-O.pdbqt


    COUNTER STATES
    ________________________


Number of energy evaluations performed:    1136353
Number of generations used:                68


    INPUT LIGAND PDBQT FILE:
    ________________________


INPUT-LIGAND-PDBQT: REMARK SMILES O=C(NC/C(O)=[N+]1/CCC[C@@H]1c1ncc(F)cn1)c1ccc2cc(Cl)ccc2n1
INPUT-LIGAND-PDBQT: REMARK SMILES IDX 5 1 6 2 7 4 8 5 11 6 9 7 10 8 12 9 13 10 18 11 14 12 17 13
INPUT-LIGAND-PDBQT: REMARK SMILES IDX 15 14 16 15 4 16 3 17 2 18 1 20 19 21 29 22 20 23 28 24
INPUT-LIGAND-PDBQT: REMARK SMILES IDX 21 25 27 26 22 27 26 28 23 29 24 30 25 31
INPUT-LIGAND-PDBQT: REMARK H PARENT 6 3 3 19
INPUT-LIGAND-PDBQT: ROOT
INPUT-LIGAND-PDBQT: ATOM      1  C   UNL     1       2.153  -2.224  -2.080  1.00  0.00     0.354 C 
INPUT-LIGAND-PDBQT: ENDROOT
INPUT-LIGAND-PDBQT: BRANCH   1   2
INPUT-LIGAND-PDBQT: ATOM      2  O   UNL     1       1.858  -3.292  -2.936  1.00  0.00    -0.462 OA
INPUT-LIGAND-PDBQT: ATOM      3  H   UNL     1       1.917  -4.264  -2.664  1.00  0.00     0.299 HD
INPUT-LIGAND-PDBQT: ENDBRANCH   1   2
INPUT-LIGAND-PDBQT: BRANCH   1   4
INPUT-LIGAND-PDBQT: ATOM      4  N   UNL     1       2.563  -2.437  -0.847  1.00  0.00    -0.191 N 
INPUT-LIGAND-PDBQT: ATOM      5  C   UNL     1       2.839  -3.770  -0.318  1.00  0.00     0.355 C 
INPUT-LIGAND-PDBQT: ATOM      6  C   UNL     1       2.882  -1.397   0.137  1.00  0.00     0.332 C 
INPUT-LIGAND-PDBQT: ATOM      7  C   UNL     1       3.361  -3.569   1.100  1.00  0.00     0.080 C 
INPUT-LIGAND-PDBQT: ATOM      8  C   UNL     1       3.742  -2.098   1.186  1.00  0.00     0.091 C 
INPUT-LIGAND-PDBQT: BRANCH   6   9
INPUT-LIGAND-PDBQT: ATOM      9  C   UNL     1       1.628  -0.857   0.778  1.00  0.00     0.197 A 
INPUT-LIGAND-PDBQT: ATOM     10  N   UNL     1       0.547  -1.663   0.972  1.00  0.00    -0.232 NA
INPUT-LIGAND-PDBQT: ATOM     11  N   UNL     1       1.604   0.423   1.239  1.00  0.00    -0.232 NA
INPUT-LIGAND-PDBQT: ATOM     12  C   UNL     1      -0.567  -1.203   1.597  1.00  0.00     0.154 A 
INPUT-LIGAND-PDBQT: ATOM     13  C   UNL     1       0.509   0.920   1.871  1.00  0.00     0.154 A 
INPUT-LIGAND-PDBQT: ATOM     14  C   UNL     1      -0.608   0.108   2.066  1.00  0.00     0.159 A 
INPUT-LIGAND-PDBQT: ATOM     15  F   UNL     1      -1.711   0.586   2.693  1.00  0.00    -0.204 F 
INPUT-LIGAND-PDBQT: ENDBRANCH   6   9
INPUT-LIGAND-PDBQT: ENDBRANCH   1   4
INPUT-LIGAND-PDBQT: BRANCH   1  16
INPUT-LIGAND-PDBQT: ATOM     16  C   UNL     1       1.990  -0.839  -2.658  1.00  0.00     0.269 C 
INPUT-LIGAND-PDBQT: BRANCH  16  17
INPUT-LIGAND-PDBQT: ATOM     17  N   UNL     1       0.851  -0.141  -2.068  1.00  0.00    -0.337 N 
INPUT-LIGAND-PDBQT: ATOM     18  C   UNL     1      -0.501  -0.607  -2.206  1.00  0.00     0.270 C 
INPUT-LIGAND-PDBQT: ATOM     19  H   UNL     1       1.040   0.750  -1.558  1.00  0.00     0.164 HD
INPUT-LIGAND-PDBQT: ATOM     20  O   UNL     1      -0.743  -1.638  -2.891  1.00  0.00    -0.268 OA
INPUT-LIGAND-PDBQT: BRANCH  18  21
INPUT-LIGAND-PDBQT: ATOM     21  C   UNL     1      -1.609   0.108  -1.537  1.00  0.00     0.128 A 
INPUT-LIGAND-PDBQT: ATOM     22  N   UNL     1      -1.367   1.301  -0.927  1.00  0.00    -0.243 NA
INPUT-LIGAND-PDBQT: ATOM     23  C   UNL     1      -2.904  -0.436  -1.499  1.00  0.00     0.035 A 
INPUT-LIGAND-PDBQT: ATOM     24  C   UNL     1      -2.338   1.990  -0.271  1.00  0.00     0.071 A 
INPUT-LIGAND-PDBQT: ATOM     25  C   UNL     1      -3.922   0.248  -0.830  1.00  0.00     0.013 A 
INPUT-LIGAND-PDBQT: ATOM     26  C   UNL     1      -2.037   3.205   0.353  1.00  0.00     0.030 A 
INPUT-LIGAND-PDBQT: ATOM     27  C   UNL     1      -3.648   1.469  -0.205  1.00  0.00     0.002 A 
INPUT-LIGAND-PDBQT: ATOM     28  C   UNL     1      -3.034   3.903   1.042  1.00  0.00     0.023 A 
INPUT-LIGAND-PDBQT: ATOM     29  C   UNL     1      -4.644   2.175   0.486  1.00  0.00     0.030 A 
INPUT-LIGAND-PDBQT: ATOM     30  C   UNL     1      -4.335   3.391   1.108  1.00  0.00     0.041 A 
INPUT-LIGAND-PDBQT: ATOM     31  Cl  UNL     1      -5.580   4.272   1.975  1.00  0.00    -0.084 Cl
INPUT-LIGAND-PDBQT: ENDBRANCH  18  21
INPUT-LIGAND-PDBQT: ENDBRANCH  16  17
INPUT-LIGAND-PDBQT: ENDBRANCH   1  16
INPUT-LIGAND-PDBQT: TORSDOF 6


    FINAL DOCKED STATE:
    ________________________


Run:   1 / 20
Time taken for this run:   0.047s

DOCKED: MODEL        1
DOCKED: USER    Run = 1
DOCKED: USER
DOCKED: USER    Estimated Free Energy of Binding    =  -7.33 kcal/mol  [=(1)+(2)+(3)-(4)]
DOCKED: USER
DOCKED: USER    (1) Final Intermolecular Energy     =  -9.12 kcal/mol
DOCKED: USER        vdW + Hbond + desolv Energy     =  -8.77 kcal/mol
DOCKED: USER        Electrostatic Energy            =  -0.35 kcal/mol
DOCKED: USER        Moving Ligand-Fixed Receptor    =  -9.12 kcal/mol
DOCKED: USER        Moving Ligand-Moving Receptor   =  +0.00 kcal/mol
DOCKED: USER    (2) Final Total Internal Energy     =  -2.07 kcal/mol
DOCKED: USER    (3) Torsional Free Energy           =  +1.79 kcal/mol
DOCKED: USER    (4) Unbound System's Energy         =  -2.07 kcal/mol
DOCKED: USER
DOCKED: USER
DOCKED: REMARK SMILES O=C(NC/C(O)=[N+]1/CCC[C@@H]1c1ncc(F)cn1)c1ccc2cc(Cl)ccc2n1
DOCKED: REMARK SMILES IDX 5 1 6 2 7 4 8 5 11 6 9 7 10 8 12 9 13 10 18 11 14 12 17 13
DOCKED: REMARK SMILES IDX 15 14 16 15 4 16 3 17 2 18 1 20 19 21 29 22 20 23 28 24
DOCKED: REMARK SMILES IDX 21 25 27 26 22 27 26 28 23 29 24 30 25 31
DOCKED: REMARK H PARENT 6 3 3 19
DOCKED: USER                              x       y       z     vdW  Elec       q    Type
DOCKED: USER                           _______ _______ _______ _____ _____    ______ ____
DOCKED: ROOT
DOCKED: ATOM      1  C   UNL     1     140.256  74.584 220.032 -0.04 -0.08    +0.354 C  
DOCKED: ENDROOT
DOCKED: BRANCH   1   2
DOCKED: ATOM      2  O   UNL     1     139.774  73.795 218.981 +0.01 +0.10    -0.462 OA 
DOCKED: ATOM      3  H   UNL     1     139.216  72.962 219.113 +0.03 -0.06    +0.299 HD 
DOCKED: ENDBRANCH   1   2
DOCKED: BRANCH   1   4
DOCKED: ATOM      4  N   UNL     1     141.481  75.067 220.011 -0.12 +0.06    -0.191 N  
DOCKED: ATOM      5  C   UNL     1     142.662  74.255 220.292 -0.14 -0.11    +0.355 C  
DOCKED: ATOM      6  C   UNL     1     141.852  76.434 219.629 -0.14 -0.16    +0.332 C  
DOCKED: ATOM      7  C   UNL     1     143.867  75.165 220.084 -0.34 -0.04    +0.080 C  
DOCKED: ATOM      8  C   UNL     1     143.341  76.359 219.300 -0.35 -0.06    +0.091 C  
DOCKED: BRANCH   6   9
DOCKED: ATOM      9  C   UNL     1     141.625  77.394 220.770 -0.20 -0.11    +0.197 A  
DOCKED: ATOM     10  N   UNL     1     141.821  78.731 220.599 -0.19 +0.14    -0.232 NA 
DOCKED: ATOM     11  N   UNL     1     141.144  76.931 221.955 -0.22 +0.10    -0.232 NA 
DOCKED: ATOM     12  C   UNL     1     141.568  79.610 221.602 -0.32 -0.06    +0.154 A  
DOCKED: ATOM     13  C   UNL     1     140.876  77.779 222.982 -0.29 -0.05    +0.154 A  
DOCKED: ATOM     14  C   UNL     1     141.083  79.149 222.823 -0.38 -0.05    +0.159 A  
DOCKED: ATOM     15  F   UNL     1     140.824  80.011 223.837 -0.14 +0.04    -0.204 F  
DOCKED: ENDBRANCH   6   9
DOCKED: ENDBRANCH   1   4
DOCKED: BRANCH   1  16
DOCKED: ATOM     16  C   UNL     1     139.291  74.855 221.162 -0.14 -0.06    +0.269 C  
DOCKED: BRANCH  16  17
DOCKED: ATOM     17  N   UNL     1     139.408  73.856 222.219 -0.11 +0.07    -0.337 N  
DOCKED: ATOM     18  C   UNL     1     139.286  72.446 221.971 -0.16 -0.06    +0.270 C  
DOCKED: ATOM     19  H   UNL     1     139.551  74.197 223.195 -0.51 -0.02    +0.164 HD 
DOCKED: ATOM     20  O   UNL     1     139.031  72.033 220.807 -0.05 +0.05    -0.268 OA 
DOCKED: BRANCH  18  21
DOCKED: ATOM     21  C   UNL     1     139.472  71.475 223.072 -0.27 -0.03    +0.128 A  
DOCKED: ATOM     22  N   UNL     1     140.025  71.889 224.245 -0.24 +0.05    -0.243 NA 
DOCKED: ATOM     23  C   UNL     1     139.109  70.127 222.917 -0.21 -0.01    +0.035 A  
DOCKED: ATOM     24  C   UNL     1     140.248  71.037 225.281 -0.48 -0.01    +0.071 A  
DOCKED: ATOM     25  C   UNL     1     139.329  69.227 223.964 -0.28 -0.00    +0.013 A  
DOCKED: ATOM     26  C   UNL     1     140.833  71.506 226.462 -0.67 -0.00    +0.030 A  
DOCKED: ATOM     27  C   UNL     1     139.905  69.674 225.158 -0.42 -0.00    +0.002 A  
DOCKED: ATOM     28  C   UNL     1     141.077  70.624 227.519 -0.62 -0.00    +0.023 A  
DOCKED: ATOM     29  C   UNL     1     140.150  68.795 226.223 -0.53 -0.01    +0.030 A  
DOCKED: ATOM     30  C   UNL     1     140.736  69.272 227.402 -0.58 -0.01    +0.041 A  
DOCKED: ATOM     31  Cl  UNL     1     141.046  68.172 228.733 -0.69 +0.02    -0.084 Cl 
DOCKED: ENDBRANCH  18  21
DOCKED: ENDBRANCH  16  17
DOCKED: ENDBRANCH   1  16
DOCKED: TORSDOF 6
DOCKED: TER
DOCKED: ENDMDL
________________________________________________________________________________


    FINAL DOCKED STATE:
    ________________________


Run:   2 / 20
Time taken for this run:   0.047s

DOCKED: MODEL        2
DOCKED: USER    Run = 2
DOCKED: USER
DOCKED: USER    Estimated Free Energy of Binding    =  -8.45 kcal/mol  [=(1)+(2)+(3)-(4)]
DOCKED: USER
DOCKED: USER    (1) Final Intermolecular Energy     = -10.24 kcal/mol
DOCKED: USER        vdW + Hbond + desolv Energy     =  -9.69 kcal/mol
DOCKED: USER        Electrostatic Energy            =  -0.54 kcal/mol
DOCKED: USER        Moving Ligand-Fixed Receptor    = -10.24 kcal/mol
DOCKED: USER        Moving Ligand-Moving Receptor   =  +0.00 kcal/mol
DOCKED: USER    (2) Final Total Internal Energy     =  -2.02 kcal/mol
DOCKED: USER    (3) Torsional Free Energy           =  +1.79 kcal/mol
DOCKED: USER    (4) Unbound System's Energy         =  -2.02 kcal/mol
DOCKED: USER
DOCKED: USER
DOCKED: REMARK SMILES O=C(NC/C(O)=[N+]1/CCC[C@@H]1c1ncc(F)cn1)c1ccc2cc(Cl)ccc2n1
DOCKED: REMARK SMILES IDX 5 1 6 2 7 4 8 5 11 6 9 7 10 8 12 9 13 10 18 11 14 12 17 13
DOCKED: REMARK SMILES IDX 15 14 16 15 4 16 3 17 2 18 1 20 19 21 29 22 20 23 28 24
DOCKED: REMARK SMILES IDX 21 25 27 26 22 27 26 28 23 29 24 30 25 31
DOCKED: REMARK H PARENT 6 3 3 19
DOCKED: USER                              x       y       z     vdW  Elec       q    Type
DOCKED: USER                           _______ _______ _______ _____ _____    ______ ____
DOCKED: ROOT
DOCKED: ATOM      1  C   UNL     1     140.761  76.389 221.348 -0.18 -0.12    +0.354 C  
DOCKED: ENDROOT
DOCKED: BRANCH   1   2
DOCKED: ATOM      2  O   UNL     1     141.042  76.481 222.716 -0.21 +0.15    -0.462 OA 
DOCKED: ATOM      3  H   UNL     1     141.850  76.958 223.094 -0.28 -0.19    +0.299 HD 
DOCKED: ENDBRANCH   1   2
DOCKED: BRANCH   1   4
DOCKED: ATOM      4  N   UNL     1     141.213  77.290 220.501 -0.16 +0.09    -0.191 N  
DOCKED: ATOM      5  C   UNL     1     142.249  77.006 219.512 -0.17 -0.21    +0.355 C  
DOCKED: ATOM      6  C   UNL     1     140.703  78.658 220.360 -0.09 -0.13    +0.332 C  
DOCKED: ATOM      7  C   UNL     1     142.418  78.279 218.690 -0.25 -0.06    +0.080 C  
DOCKED: ATOM      8  C   UNL     1     141.183  79.118 218.985 -0.18 -0.05    +0.091 C  
DOCKED: BRANCH   6   9
DOCKED: ATOM      9  C   UNL     1     141.269  79.559 221.429 -0.25 -0.08    +0.197 A  
DOCKED: ATOM     10  N   UNL     1     140.983  80.890 221.436 -0.18 +0.06    -0.232 NA 
DOCKED: ATOM     11  N   UNL     1     142.004  79.023 222.441 -0.32 +0.11    -0.232 NA 
DOCKED: ATOM     12  C   UNL     1     141.442  81.701 222.424 -0.36 -0.03    +0.154 A  
DOCKED: ATOM     13  C   UNL     1     142.480  79.800 223.449 -0.52 -0.05    +0.154 A  
DOCKED: ATOM     14  C   UNL     1     142.203  81.167 223.461 -0.49 -0.03    +0.159 A  
DOCKED: ATOM     15  F   UNL     1     142.671  81.960 224.457 -0.18 +0.01    -0.204 F  
DOCKED: ENDBRANCH   6   9
DOCKED: ENDBRANCH   1   4
DOCKED: BRANCH   1  16
DOCKED: ATOM     16  C   UNL     1     139.937  75.201 220.913 -0.15 -0.06    +0.269 C  
DOCKED: BRANCH  16  17
DOCKED: ATOM     17  N   UNL     1     139.831  74.203 221.974 -0.16 +0.04    -0.337 N  
DOCKED: ATOM     18  C   UNL     1     140.007  72.797 221.737 -0.18 -0.04    +0.270 C  
DOCKED: ATOM     19  H   UNL     1     139.582  74.538 222.931 -0.42 -0.01    +0.164 HD 
DOCKED: ATOM     20  O   UNL     1     140.226  72.379 220.568 -0.07 +0.05    -0.268 OA 
DOCKED: BRANCH  18  21
DOCKED: ATOM     21  C   UNL     1     139.946  71.838 222.861 -0.28 -0.02    +0.128 A  
DOCKED: ATOM     22  N   UNL     1     140.467  72.186 224.070 -0.17 +0.03    -0.243 NA 
DOCKED: ATOM     23  C   UNL     1     139.382  70.562 222.695 -0.22 -0.01    +0.035 A  
DOCKED: ATOM     24  C   UNL     1     140.467  71.336 225.131 -0.48 -0.01    +0.071 A  
DOCKED: ATOM     25  C   UNL     1     139.370  69.666 223.767 -0.27 -0.00    +0.013 A  
DOCKED: ATOM     26  C   UNL     1     141.028  71.735 226.349 -0.67 -0.00    +0.030 A  
DOCKED: ATOM     27  C   UNL     1     139.917  70.044 224.998 -0.42 -0.00    +0.002 A  
DOCKED: ATOM     28  C   UNL     1     141.042  70.852 227.434 -0.66 -0.00    +0.023 A  
DOCKED: ATOM     29  C   UNL     1     139.933  69.164 226.090 -0.48 -0.00    +0.030 A  
DOCKED: ATOM     30  C   UNL     1     140.495  69.570 227.307 -0.56 -0.01    +0.041 A  
DOCKED: ATOM     31  Cl  UNL     1     140.518  68.468 228.672 -0.69 +0.02    -0.084 Cl 
DOCKED: ENDBRANCH  18  21
DOCKED: ENDBRANCH  16  17
DOCKED: ENDBRANCH   1  16
DOCKED: TORSDOF 6
DOCKED: TER
DOCKED: ENDMDL
________________________________________________________________________________


    FINAL DOCKED STATE:
    ________________________


Run:   3 / 20
Time taken for this run:   0.047s

DOCKED: MODEL        3
DOCKED: USER    Run = 3
DOCKED: USER
DOCKED: USER    Estimated Free Energy of Binding    =  -8.03 kcal/mol  [=(1)+(2)+(3)-(4)]
DOCKED: USER
DOCKED: USER    (1) Final Intermolecular Energy     =  -9.82 kcal/mol
DOCKED: USER        vdW + Hbond + desolv Energy     =  -9.38 kcal/mol
DOCKED: USER        Electrostatic Energy            =  -0.44 kcal/mol
DOCKED: USER        Moving Ligand-Fixed Receptor    =  -9.82 kcal/mol
DOCKED: USER        Moving Ligand-Moving Receptor   =  +0.00 kcal/mol
DOCKED: USER    (2) Final Total Internal Energy     =  -1.91 kcal/mol
DOCKED: USER    (3) Torsional Free Energy           =  +1.79 kcal/mol
DOCKED: USER    (4) Unbound System's Energy         =  -1.91 kcal/mol
DOCKED: USER
DOCKED: USER
DOCKED: REMARK SMILES O=C(NC/C(O)=[N+]1/CCC[C@@H]1c1ncc(F)cn1)c1ccc2cc(Cl)ccc2n1
DOCKED: REMARK SMILES IDX 5 1 6 2 7 4 8 5 11 6 9 7 10 8 12 9 13 10 18 11 14 12 17 13
DOCKED: REMARK SMILES IDX 15 14 16 15 4 16 3 17 2 18 1 20 19 21 29 22 20 23 28 24
DOCKED: REMARK SMILES IDX 21 25 27 26 22 27 26 28 23 29 24 30 25 31
DOCKED: REMARK H PARENT 6 3 3 19
DOCKED: USER                              x       y       z     vdW  Elec       q    Type
DOCKED: USER                           _______ _______ _______ _____ _____    ______ ____
DOCKED: ROOT
DOCKED: ATOM      1  C   UNL     1     141.215  75.591 220.678 -0.14 -0.12    +0.354 C  
DOCKED: ENDROOT
DOCKED: BRANCH   1   2
DOCKED: ATOM      2  O   UNL     1     142.172  74.627 221.018 -0.14 +0.14    -0.462 OA 
DOCKED: ATOM      3  H   UNL     1     142.041  73.633 220.884 +0.12 -0.05    +0.299 HD 
DOCKED: ENDBRANCH   1   2
DOCKED: BRANCH   1   4
DOCKED: ATOM      4  N   UNL     1     141.553  76.673 220.008 -0.15 +0.09    -0.191 N  
DOCKED: ATOM      5  C   UNL     1     142.585  76.682 218.975 -0.17 -0.21    +0.355 C  
DOCKED: ATOM      6  C   UNL     1     140.907  77.985 220.126 -0.10 -0.14    +0.332 C  
DOCKED: ATOM      7  C   UNL     1     142.606  78.094 218.401 -0.28 -0.06    +0.080 C  
DOCKED: ATOM      8  C   UNL     1     141.302  78.735 218.856 -0.18 -0.05    +0.091 C  
DOCKED: BRANCH   6   9
DOCKED: ATOM      9  C   UNL     1     141.410  78.728 221.339 -0.25 -0.09    +0.197 A  
DOCKED: ATOM     10  N   UNL     1     141.330  78.167 222.577 -0.29 +0.10    -0.232 NA 
DOCKED: ATOM     11  N   UNL     1     142.023  79.933 221.185 -0.23 +0.11    -0.232 NA 
DOCKED: ATOM     12  C   UNL     1     141.829  78.803 223.668 -0.49 -0.05    +0.154 A  
DOCKED: ATOM     13  C   UNL     1     142.536  80.600 222.251 -0.42 -0.05    +0.154 A  
DOCKED: ATOM     14  C   UNL     1     142.450  80.041 223.526 -0.52 -0.04    +0.159 A  
DOCKED: ATOM     15  F   UNL     1     142.955  80.691 224.603 -0.15 +0.03    -0.204 F  
DOCKED: ENDBRANCH   6   9
DOCKED: ENDBRANCH   1   4
DOCKED: BRANCH   1  16
DOCKED: ATOM     16  C   UNL     1     139.796  75.306 221.107 -0.16 -0.06    +0.269 C  
DOCKED: BRANCH  16  17
DOCKED: ATOM     17  N   UNL     1     139.745  74.280 222.145 -0.10 +0.04    -0.337 N  
DOCKED: ATOM     18  C   UNL     1     139.986  72.890 221.874 -0.19 -0.04    +0.270 C  
DOCKED: ATOM     19  H   UNL     1     139.486  74.580 223.110 -0.52 -0.02    +0.164 HD 
DOCKED: ATOM     20  O   UNL     1     140.218  72.511 220.693 -0.08 +0.04    -0.268 OA 
DOCKED: BRANCH  18  21
DOCKED: ATOM     21  C   UNL     1     139.978  71.903 222.975 -0.29 -0.02    +0.128 A  
DOCKED: ATOM     22  N   UNL     1     140.456  72.258 224.199 -0.10 +0.03    -0.243 NA 
DOCKED: ATOM     23  C   UNL     1     139.509  70.594 222.771 -0.23 -0.01    +0.035 A  
DOCKED: ATOM     24  C   UNL     1     140.502  71.386 225.241 -0.49 -0.01    +0.071 A  
DOCKED: ATOM     25  C   UNL     1     139.546  69.674 223.822 -0.27 -0.00    +0.013 A  
DOCKED: ATOM     26  C   UNL     1     141.015  71.795 226.476 -0.69 -0.00    +0.030 A  
DOCKED: ATOM     27  C   UNL     1     140.047  70.061 225.070 -0.43 -0.00    +0.002 A  
DOCKED: ATOM     28  C   UNL     1     141.077  70.890 227.541 -0.66 -0.00    +0.023 A  
DOCKED: ATOM     29  C   UNL     1     140.110  69.159 226.142 -0.50 -0.01    +0.030 A  
DOCKED: ATOM     30  C   UNL     1     140.625  69.576 227.376 -0.57 -0.01    +0.041 A  
DOCKED: ATOM     31  Cl  UNL     1     140.707  68.447 228.717 -0.70 +0.02    -0.084 Cl 
DOCKED: ENDBRANCH  18  21
DOCKED: ENDBRANCH  16  17
DOCKED: ENDBRANCH   1  16
DOCKED: TORSDOF 6
DOCKED: TER
DOCKED: ENDMDL
________________________________________________________________________________


    FINAL DOCKED STATE:
    ________________________


Run:   4 / 20
Time taken for this run:   0.047s

DOCKED: MODEL        4
DOCKED: USER    Run = 4
DOCKED: USER
DOCKED: USER    Estimated Free Energy of Binding    =  -8.15 kcal/mol  [=(1)+(2)+(3)-(4)]
DOCKED: USER
DOCKED: USER    (1) Final Intermolecular Energy     =  -9.94 kcal/mol
DOCKED: USER        vdW + Hbond + desolv Energy     =  -9.50 kcal/mol
DOCKED: USER        Electrostatic Energy            =  -0.44 kcal/mol
DOCKED: USER        Moving Ligand-Fixed Receptor    =  -9.94 kcal/mol
DOCKED: USER        Moving Ligand-Moving Receptor   =  +0.00 kcal/mol
DOCKED: USER    (2) Final Total Internal Energy     =  -1.87 kcal/mol
DOCKED: USER    (3) Torsional Free Energy           =  +1.79 kcal/mol
DOCKED: USER    (4) Unbound System's Energy         =  -1.87 kcal/mol
DOCKED: USER
DOCKED: USER
DOCKED: REMARK SMILES O=C(NC/C(O)=[N+]1/CCC[C@@H]1c1ncc(F)cn1)c1ccc2cc(Cl)ccc2n1
DOCKED: REMARK SMILES IDX 5 1 6 2 7 4 8 5 11 6 9 7 10 8 12 9 13 10 18 11 14 12 17 13
DOCKED: REMARK SMILES IDX 15 14 16 15 4 16 3 17 2 18 1 20 19 21 29 22 20 23 28 24
DOCKED: REMARK SMILES IDX 21 25 27 26 22 27 26 28 23 29 24 30 25 31
DOCKED: REMARK H PARENT 6 3 3 19
DOCKED: USER                              x       y       z     vdW  Elec       q    Type
DOCKED: USER                           _______ _______ _______ _____ _____    ______ ____
DOCKED: ROOT
DOCKED: ATOM      1  C   UNL     1     139.734  76.054 221.403 -0.16 -0.08    +0.354 C  
DOCKED: ENDROOT
DOCKED: BRANCH   1   2
DOCKED: ATOM      2  O   UNL     1     139.133  76.802 222.422 -0.16 +0.09    -0.462 OA 
DOCKED: ATOM      3  H   UNL     1     139.365  77.765 222.626 +0.13 -0.06    +0.299 HD 
DOCKED: ENDBRANCH   1   2
DOCKED: BRANCH   1   4
DOCKED: ATOM      4  N   UNL     1     140.836  76.471 220.816 -0.16 +0.07    -0.191 N  
DOCKED: ATOM      5  C   UNL     1     141.937  75.580 220.463 -0.13 -0.15    +0.355 C  
DOCKED: ATOM      6  C   UNL     1     141.092  77.841 220.358 -0.12 -0.15    +0.332 C  
DOCKED: ATOM      7  C   UNL     1     142.968  76.438 219.738 -0.33 -0.05    +0.080 C  
DOCKED: ATOM      8  C   UNL     1     142.233  77.713 219.352 -0.26 -0.06    +0.091 C  
DOCKED: BRANCH   6   9
DOCKED: ATOM      9  C   UNL     1     141.515  78.724 221.505 -0.27 -0.10    +0.197 A  
DOCKED: ATOM     10  N   UNL     1     141.439  78.275 222.789 -0.32 +0.10    -0.232 NA 
DOCKED: ATOM     11  N   UNL     1     142.051  79.949 221.251 -0.23 +0.11    -0.232 NA 
DOCKED: ATOM     12  C   UNL     1     141.868  79.040 223.825 -0.49 -0.04    +0.154 A  
DOCKED: ATOM     13  C   UNL     1     142.493  80.743 222.260 -0.40 -0.05    +0.154 A  
DOCKED: ATOM     14  C   UNL     1     142.411  80.299 223.580 -0.53 -0.04    +0.159 A  
DOCKED: ATOM     15  F   UNL     1     142.846  81.078 224.601 -0.16 +0.03    -0.204 F  
DOCKED: ENDBRANCH   6   9
DOCKED: ENDBRANCH   1   4
DOCKED: BRANCH   1  16
DOCKED: ATOM     16  C   UNL     1     139.058  74.754 221.040 -0.12 -0.06    +0.269 C  
DOCKED: BRANCH  16  17
DOCKED: ATOM     17  N   UNL     1     139.177  73.769 222.111 -0.11 +0.08    -0.337 N  
DOCKED: ATOM     18  C   UNL     1     139.308  72.360 221.859 -0.15 -0.05    +0.270 C  
DOCKED: ATOM     19  H   UNL     1     139.130  74.115 223.095 -0.55 -0.07    +0.164 HD 
DOCKED: ATOM     20  O   UNL     1     139.283  71.930 220.674 -0.04 +0.05    -0.268 OA 
DOCKED: BRANCH  18  21
DOCKED: ATOM     21  C   UNL     1     139.485  71.414 222.982 -0.26 -0.03    +0.128 A  
DOCKED: ATOM     22  N   UNL     1     140.029  71.853 224.150 -0.25 +0.05    -0.243 NA 
DOCKED: ATOM     23  C   UNL     1     139.124  70.063 222.854 -0.21 -0.01    +0.035 A  
DOCKED: ATOM     24  C   UNL     1     140.243  71.025 225.207 -0.48 -0.01    +0.071 A  
DOCKED: ATOM     25  C   UNL     1     139.335  69.187 223.922 -0.26 -0.00    +0.013 A  
DOCKED: ATOM     26  C   UNL     1     140.819  71.520 226.381 -0.66 -0.00    +0.030 A  
DOCKED: ATOM     27  C   UNL     1     139.901  69.659 225.110 -0.41 -0.00    +0.002 A  
DOCKED: ATOM     28  C   UNL     1     141.054  70.661 227.460 -0.63 -0.00    +0.023 A  
DOCKED: ATOM     29  C   UNL     1     140.138  68.804 226.196 -0.53 -0.01    +0.030 A  
DOCKED: ATOM     30  C   UNL     1     140.714  69.307 227.369 -0.58 -0.01    +0.041 A  
DOCKED: ATOM     31  Cl  UNL     1     141.014  68.236 228.726 -0.69 +0.02    -0.084 Cl 
DOCKED: ENDBRANCH  18  21
DOCKED: ENDBRANCH  16  17
DOCKED: ENDBRANCH   1  16
DOCKED: TORSDOF 6
DOCKED: TER
DOCKED: ENDMDL
________________________________________________________________________________


    FINAL DOCKED STATE:
    ________________________


Run:   5 / 20
Time taken for this run:   0.047s

DOCKED: MODEL        5
DOCKED: USER    Run = 5
DOCKED: USER
DOCKED: USER    Estimated Free Energy of Binding    =  -7.83 kcal/mol  [=(1)+(2)+(3)-(4)]
DOCKED: USER
DOCKED: USER    (1) Final Intermolecular Energy     =  -9.62 kcal/mol
DOCKED: USER        vdW + Hbond + desolv Energy     =  -9.37 kcal/mol
DOCKED: USER        Electrostatic Energy            =  -0.26 kcal/mol
DOCKED: USER        Moving Ligand-Fixed Receptor    =  -9.62 kcal/mol
DOCKED: USER        Moving Ligand-Moving Receptor   =  +0.00 kcal/mol
DOCKED: USER    (2) Final Total Internal Energy     =  -1.74 kcal/mol
DOCKED: USER    (3) Torsional Free Energy           =  +1.79 kcal/mol
DOCKED: USER    (4) Unbound System's Energy         =  -1.74 kcal/mol
DOCKED: USER
DOCKED: USER
DOCKED: REMARK SMILES O=C(NC/C(O)=[N+]1/CCC[C@@H]1c1ncc(F)cn1)c1ccc2cc(Cl)ccc2n1
DOCKED: REMARK SMILES IDX 5 1 6 2 7 4 8 5 11 6 9 7 10 8 12 9 13 10 18 11 14 12 17 13
DOCKED: REMARK SMILES IDX 15 14 16 15 4 16 3 17 2 18 1 20 19 21 29 22 20 23 28 24
DOCKED: REMARK SMILES IDX 21 25 27 26 22 27 26 28 23 29 24 30 25 31
DOCKED: REMARK H PARENT 6 3 3 19
DOCKED: USER                              x       y       z     vdW  Elec       q    Type
DOCKED: USER                           _______ _______ _______ _____ _____    ______ ____
DOCKED: ROOT
DOCKED: ATOM      1  C   UNL     1     139.993  76.112 221.104 -0.14 -0.09    +0.354 C  
DOCKED: ENDROOT
DOCKED: BRANCH   1   2
DOCKED: ATOM      2  O   UNL     1     141.377  76.313 221.172 -0.13 +0.21    -0.462 OA 
DOCKED: ATOM      3  H   UNL     1     141.875  76.513 222.029 -0.43 -0.21    +0.299 HD 
DOCKED: ENDBRANCH   1   2
DOCKED: BRANCH   1   4
DOCKED: ATOM      4  N   UNL     1     139.152  77.085 221.388 -0.12 +0.05    -0.191 N  
DOCKED: ATOM      5  C   UNL     1     138.255  77.677 220.398 -0.01 -0.08    +0.355 C  
DOCKED: ATOM      6  C   UNL     1     138.926  77.655 222.720 -0.14 -0.06    +0.332 C  
DOCKED: ATOM      7  C   UNL     1     137.406  78.698 221.146 -0.08 -0.01    +0.080 C  
DOCKED: ATOM      8  C   UNL     1     137.577  78.364 222.621 -0.19 -0.01    +0.091 C  
DOCKED: BRANCH   6   9
DOCKED: ATOM      9  C   UNL     1     140.004  78.650 223.072 -0.28 -0.04    +0.197 A  
DOCKED: ATOM     10  N   UNL     1     141.307  78.261 223.148 -0.34 +0.08    -0.232 NA 
DOCKED: ATOM     11  N   UNL     1     139.683  79.962 223.237 -0.23 +0.04    -0.232 NA 
DOCKED: ATOM     12  C   UNL     1     142.292  79.157 223.410 -0.45 -0.06    +0.154 A  
DOCKED: ATOM     13  C   UNL     1     140.640  80.890 223.499 -0.36 -0.02    +0.154 A  
DOCKED: ATOM     14  C   UNL     1     141.976  80.502 223.590 -0.49 -0.03    +0.159 A  
DOCKED: ATOM     15  F   UNL     1     142.946  81.413 223.852 -0.17 +0.03    -0.204 F  
DOCKED: ENDBRANCH   6   9
DOCKED: ENDBRANCH   1   4
DOCKED: BRANCH   1  16
DOCKED: ATOM     16  C   UNL     1     139.536  74.738 220.677 -0.10 -0.06    +0.269 C  
DOCKED: BRANCH  16  17
DOCKED: ATOM     17  N   UNL     1     139.536  73.800 221.796 -0.14 +0.06    -0.337 N  
DOCKED: ATOM     18  C   UNL     1     139.639  72.378 221.616 -0.15 -0.05    +0.270 C  
DOCKED: ATOM     19  H   UNL     1     139.421  74.191 222.757 -0.42 -0.03    +0.164 HD 
DOCKED: ATOM     20  O   UNL     1     139.696  71.894 220.453 -0.04 +0.05    -0.268 OA 
DOCKED: BRANCH  18  21
DOCKED: ATOM     21  C   UNL     1     139.693  71.479 222.789 -0.26 -0.02    +0.128 A  
DOCKED: ATOM     22  N   UNL     1     140.255  71.921 223.948 -0.27 +0.04    -0.243 NA 
DOCKED: ATOM     23  C   UNL     1     139.195  70.167 222.720 -0.20 -0.01    +0.035 A  
DOCKED: ATOM     24  C   UNL     1     140.360  71.132 225.050 -0.48 -0.01    +0.071 A  
DOCKED: ATOM     25  C   UNL     1     139.292  69.331 223.836 -0.27 -0.00    +0.013 A  
DOCKED: ATOM     26  C   UNL     1     140.959  71.626 226.213 -0.64 -0.00    +0.030 A  
DOCKED: ATOM     27  C   UNL     1     139.879  69.805 225.013 -0.41 -0.00    +0.002 A  
DOCKED: ATOM     28  C   UNL     1     141.082  70.806 227.339 -0.64 -0.00    +0.023 A  
DOCKED: ATOM     29  C   UNL     1     140.003  68.988 226.147 -0.50 -0.01    +0.030 A  
DOCKED: ATOM     30  C   UNL     1     140.604  69.490 227.308 -0.56 -0.01    +0.041 A  
DOCKED: ATOM     31  Cl  UNL     1     140.762  68.467 228.725 -0.70 +0.02    -0.084 Cl 
DOCKED: ENDBRANCH  18  21
DOCKED: ENDBRANCH  16  17
DOCKED: ENDBRANCH   1  16
DOCKED: TORSDOF 6
DOCKED: TER
DOCKED: ENDMDL
________________________________________________________________________________


    FINAL DOCKED STATE:
    ________________________


Run:   6 / 20
Time taken for this run:   0.047s

DOCKED: MODEL        6
DOCKED: USER    Run = 6
DOCKED: USER
DOCKED: USER    Estimated Free Energy of Binding    =  -7.92 kcal/mol  [=(1)+(2)+(3)-(4)]
DOCKED: USER
DOCKED: USER    (1) Final Intermolecular Energy     =  -9.71 kcal/mol
DOCKED: USER        vdW + Hbond + desolv Energy     =  -9.20 kcal/mol
DOCKED: USER        Electrostatic Energy            =  -0.52 kcal/mol
DOCKED: USER        Moving Ligand-Fixed Receptor    =  -9.71 kcal/mol
DOCKED: USER        Moving Ligand-Moving Receptor   =  +0.00 kcal/mol
DOCKED: USER    (2) Final Total Internal Energy     =  -2.37 kcal/mol
DOCKED: USER    (3) Torsional Free Energy           =  +1.79 kcal/mol
DOCKED: USER    (4) Unbound System's Energy         =  -2.37 kcal/mol
DOCKED: USER
DOCKED: USER
DOCKED: REMARK SMILES O=C(NC/C(O)=[N+]1/CCC[C@@H]1c1ncc(F)cn1)c1ccc2cc(Cl)ccc2n1
DOCKED: REMARK SMILES IDX 5 1 6 2 7 4 8 5 11 6 9 7 10 8 12 9 13 10 18 11 14 12 17 13
DOCKED: REMARK SMILES IDX 15 14 16 15 4 16 3 17 2 18 1 20 19 21 29 22 20 23 28 24
DOCKED: REMARK SMILES IDX 21 25 27 26 22 27 26 28 23 29 24 30 25 31
DOCKED: REMARK H PARENT 6 3 3 19
DOCKED: USER                              x       y       z     vdW  Elec       q    Type
DOCKED: USER                           _______ _______ _______ _____ _____    ______ ____
DOCKED: ROOT
DOCKED: ATOM      1  C   UNL     1     141.091  76.370 221.152 -0.17 -0.14    +0.354 C  
DOCKED: ENDROOT
DOCKED: BRANCH   1   2
DOCKED: ATOM      2  O   UNL     1     141.114  76.559 222.540 -0.20 +0.17    -0.462 OA 
DOCKED: ATOM      3  H   UNL     1     141.867  77.020 223.032 -0.28 -0.19    +0.299 HD 
DOCKED: ENDBRANCH   1   2
DOCKED: BRANCH   1   4
DOCKED: ATOM      4  N   UNL     1     141.468  77.328 220.331 -0.17 +0.10    -0.191 N  
DOCKED: ATOM      5  C   UNL     1     142.510  77.149 219.324 -0.18 -0.23    +0.355 C  
DOCKED: ATOM      6  C   UNL     1     140.862  78.660 220.241 -0.10 -0.14    +0.332 C  
DOCKED: ATOM      7  C   UNL     1     142.579  78.457 218.543 -0.26 -0.06    +0.080 C  
DOCKED: ATOM      8  C   UNL     1     141.292  79.197 218.878 -0.19 -0.05    +0.091 C  
DOCKED: BRANCH   6   9
DOCKED: ATOM      9  C   UNL     1     141.376  79.563 221.334 -0.25 -0.08    +0.197 A  
DOCKED: ATOM     10  N   UNL     1     141.014  80.876 221.376 -0.18 +0.06    -0.232 NA 
DOCKED: ATOM     11  N   UNL     1     142.143  79.045 222.331 -0.32 +0.12    -0.232 NA 
DOCKED: ATOM     12  C   UNL     1     141.426  81.685 222.385 -0.36 -0.03    +0.154 A  
DOCKED: ATOM     13  C   UNL     1     142.574  79.821 223.360 -0.52 -0.05    +0.154 A  
DOCKED: ATOM     14  C   UNL     1     142.219  81.169 223.408 -0.48 -0.03    +0.159 A  
DOCKED: ATOM     15  F   UNL     1     142.640  81.960 224.425 -0.19 +0.01    -0.204 F  
DOCKED: ENDBRANCH   6   9
DOCKED: ENDBRANCH   1   4
DOCKED: BRANCH   1  16
DOCKED: ATOM     16  C   UNL     1     140.631  75.015 220.670 -0.15 -0.07    +0.269 C  
DOCKED: BRANCH  16  17
DOCKED: ATOM     17  N   UNL     1     140.543  74.055 221.767 -0.16 +0.03    -0.337 N  
DOCKED: ATOM     18  C   UNL     1     139.924  72.767 221.622 -0.17 -0.04    +0.270 C  
DOCKED: ATOM     19  H   UNL     1     140.919  74.345 222.696 +0.10 +0.07    +0.164 HD 
DOCKED: ATOM     20  O   UNL     1     139.395  72.444 220.524 -0.04 +0.05    -0.268 OA 
DOCKED: BRANCH  18  21
DOCKED: ATOM     21  C   UNL     1     139.917  71.811 222.751 -0.28 -0.02    +0.128 A  
DOCKED: ATOM     22  N   UNL     1     140.420  72.193 223.957 -0.21 +0.03    -0.243 NA 
DOCKED: ATOM     23  C   UNL     1     139.421  70.506 222.593 -0.21 -0.01    +0.035 A  
DOCKED: ATOM     24  C   UNL     1     140.467  71.351 225.023 -0.48 -0.01    +0.071 A  
DOCKED: ATOM     25  C   UNL     1     139.459  69.617 223.669 -0.26 -0.00    +0.013 A  
DOCKED: ATOM     26  C   UNL     1     141.007  71.785 226.238 -0.64 -0.00    +0.030 A  
DOCKED: ATOM     27  C   UNL     1     139.987  70.030 224.897 -0.41 -0.00    +0.002 A  
DOCKED: ATOM     28  C   UNL     1     141.070  70.910 227.327 -0.66 -0.00    +0.023 A  
DOCKED: ATOM     29  C   UNL     1     140.051  69.158 225.994 -0.48 -0.01    +0.030 A  
DOCKED: ATOM     30  C   UNL     1     140.593  69.600 227.207 -0.55 -0.01    +0.041 A  
DOCKED: ATOM     31  Cl  UNL     1     140.677  68.508 228.578 -0.75 +0.02    -0.084 Cl 
DOCKED: ENDBRANCH  18  21
DOCKED: ENDBRANCH  16  17
DOCKED: ENDBRANCH   1  16
DOCKED: TORSDOF 6
DOCKED: TER
DOCKED: ENDMDL
________________________________________________________________________________


    FINAL DOCKED STATE:
    ________________________


Run:   7 / 20
Time taken for this run:   0.047s

DOCKED: MODEL        7
DOCKED: USER    Run = 7
DOCKED: USER
DOCKED: USER    Estimated Free Energy of Binding    =  -8.05 kcal/mol  [=(1)+(2)+(3)-(4)]
DOCKED: USER
DOCKED: USER    (1) Final Intermolecular Energy     =  -9.84 kcal/mol
DOCKED: USER        vdW + Hbond + desolv Energy     =  -9.40 kcal/mol
DOCKED: USER        Electrostatic Energy            =  -0.44 kcal/mol
DOCKED: USER        Moving Ligand-Fixed Receptor    =  -9.84 kcal/mol
DOCKED: USER        Moving Ligand-Moving Receptor   =  +0.00 kcal/mol
DOCKED: USER    (2) Final Total Internal Energy     =  -1.88 kcal/mol
DOCKED: USER    (3) Torsional Free Energy           =  +1.79 kcal/mol
DOCKED: USER    (4) Unbound System's Energy         =  -1.88 kcal/mol
DOCKED: USER
DOCKED: USER
DOCKED: REMARK SMILES O=C(NC/C(O)=[N+]1/CCC[C@@H]1c1ncc(F)cn1)c1ccc2cc(Cl)ccc2n1
DOCKED: REMARK SMILES IDX 5 1 6 2 7 4 8 5 11 6 9 7 10 8 12 9 13 10 18 11 14 12 17 13
DOCKED: REMARK SMILES IDX 15 14 16 15 4 16 3 17 2 18 1 20 19 21 29 22 20 23 28 24
DOCKED: REMARK SMILES IDX 21 25 27 26 22 27 26 28 23 29 24 30 25 31
DOCKED: REMARK H PARENT 6 3 3 19
DOCKED: USER                              x       y       z     vdW  Elec       q    Type
DOCKED: USER                           _______ _______ _______ _____ _____    ______ ____
DOCKED: ROOT
DOCKED: ATOM      1  C   UNL     1     141.228  75.635 220.737 -0.15 -0.12    +0.354 C  
DOCKED: ENDROOT
DOCKED: BRANCH   1   2
DOCKED: ATOM      2  O   UNL     1     142.196  74.715 221.157 -0.13 +0.15    -0.462 OA 
DOCKED: ATOM      3  H   UNL     1     142.143  73.721 220.976 +0.12 -0.05    +0.299 HD 
DOCKED: ENDBRANCH   1   2
DOCKED: BRANCH   1   4
DOCKED: ATOM      4  N   UNL     1     141.562  76.697 220.034 -0.16 +0.09    -0.191 N  
DOCKED: ATOM      5  C   UNL     1     142.551  76.662 218.959 -0.17 -0.20    +0.355 C  
DOCKED: ATOM      6  C   UNL     1     140.952  78.026 220.153 -0.10 -0.14    +0.332 C  
DOCKED: ATOM      7  C   UNL     1     142.581  78.063 218.358 -0.29 -0.06    +0.080 C  
DOCKED: ATOM      8  C   UNL     1     141.312  78.742 218.854 -0.18 -0.05    +0.091 C  
DOCKED: BRANCH   6   9
DOCKED: ATOM      9  C   UNL     1     141.522  78.778 221.330 -0.26 -0.10    +0.197 A  
DOCKED: ATOM     10  N   UNL     1     142.091  80.004 221.158 -0.23 +0.11    -0.232 NA 
DOCKED: ATOM     11  N   UNL     1     141.397  78.264 222.583 -0.30 +0.10    -0.232 NA 
DOCKED: ATOM     12  C   UNL     1     142.558  80.714 222.217 -0.39 -0.05    +0.154 A  
DOCKED: ATOM     13  C   UNL     1     141.850  78.944 223.668 -0.49 -0.05    +0.154 A  
DOCKED: ATOM     14  C   UNL     1     142.443  80.196 223.505 -0.53 -0.04    +0.159 A  
DOCKED: ATOM     15  F   UNL     1     142.903  80.890 224.575 -0.16 +0.03    -0.204 F  
DOCKED: ENDBRANCH   6   9
DOCKED: ENDBRANCH   1   4
DOCKED: BRANCH   1  16
DOCKED: ATOM     16  C   UNL     1     139.801  75.328 221.122 -0.17 -0.06    +0.269 C  
DOCKED: BRANCH  16  17
DOCKED: ATOM     17  N   UNL     1     139.733  74.293 222.150 -0.10 +0.04    -0.337 N  
DOCKED: ATOM     18  C   UNL     1     140.048  72.916 221.887 -0.19 -0.04    +0.270 C  
DOCKED: ATOM     19  H   UNL     1     139.407  74.575 223.101 -0.53 -0.03    +0.164 HD 
DOCKED: ATOM     20  O   UNL     1     140.362  72.556 220.720 -0.09 +0.04    -0.268 OA 
DOCKED: BRANCH  18  21
DOCKED: ATOM     21  C   UNL     1     140.019  71.921 222.981 -0.29 -0.02    +0.128 A  
DOCKED: ATOM     22  N   UNL     1     140.488  72.264 224.213 -0.08 +0.03    -0.243 NA 
DOCKED: ATOM     23  C   UNL     1     139.537  70.620 222.764 -0.24 -0.01    +0.035 A  
DOCKED: ATOM     24  C   UNL     1     140.515  71.384 225.249 -0.49 -0.01    +0.071 A  
DOCKED: ATOM     25  C   UNL     1     139.554  69.693 223.809 -0.27 -0.00    +0.013 A  
DOCKED: ATOM     26  C   UNL     1     141.020  71.778 226.492 -0.69 -0.00    +0.030 A  
DOCKED: ATOM     27  C   UNL     1     140.047  70.065 225.064 -0.43 -0.00    +0.002 A  
DOCKED: ATOM     28  C   UNL     1     141.062  70.866 227.551 -0.66 -0.00    +0.023 A  
DOCKED: ATOM     29  C   UNL     1     140.090  69.156 226.131 -0.49 -0.01    +0.030 A  
DOCKED: ATOM     30  C   UNL     1     140.597  69.558 227.373 -0.57 -0.01    +0.041 A  
DOCKED: ATOM     31  Cl  UNL     1     140.654  68.419 228.706 -0.69 +0.02    -0.084 Cl 
DOCKED: ENDBRANCH  18  21
DOCKED: ENDBRANCH  16  17
DOCKED: ENDBRANCH   1  16
DOCKED: TORSDOF 6
DOCKED: TER
DOCKED: ENDMDL
________________________________________________________________________________


    FINAL DOCKED STATE:
    ________________________


Run:   8 / 20
Time taken for this run:   0.047s

DOCKED: MODEL        8
DOCKED: USER    Run = 8
DOCKED: USER
DOCKED: USER    Estimated Free Energy of Binding    =  -8.21 kcal/mol  [=(1)+(2)+(3)-(4)]
DOCKED: USER
DOCKED: USER    (1) Final Intermolecular Energy     = -10.00 kcal/mol
DOCKED: USER        vdW + Hbond + desolv Energy     =  -9.65 kcal/mol
DOCKED: USER        Electrostatic Energy            =  -0.35 kcal/mol
DOCKED: USER        Moving Ligand-Fixed Receptor    = -10.00 kcal/mol
DOCKED: USER        Moving Ligand-Moving Receptor   =  +0.00 kcal/mol
DOCKED: USER    (2) Final Total Internal Energy     =  -1.59 kcal/mol
DOCKED: USER    (3) Torsional Free Energy           =  +1.79 kcal/mol
DOCKED: USER    (4) Unbound System's Energy         =  -1.59 kcal/mol
DOCKED: USER
DOCKED: USER
DOCKED: REMARK SMILES O=C(NC/C(O)=[N+]1/CCC[C@@H]1c1ncc(F)cn1)c1ccc2cc(Cl)ccc2n1
DOCKED: REMARK SMILES IDX 5 1 6 2 7 4 8 5 11 6 9 7 10 8 12 9 13 10 18 11 14 12 17 13
DOCKED: REMARK SMILES IDX 15 14 16 15 4 16 3 17 2 18 1 20 19 21 29 22 20 23 28 24
DOCKED: REMARK SMILES IDX 21 25 27 26 22 27 26 28 23 29 24 30 25 31
DOCKED: REMARK H PARENT 6 3 3 19
DOCKED: USER                              x       y       z     vdW  Elec       q    Type
DOCKED: USER                           _______ _______ _______ _____ _____    ______ ____
DOCKED: ROOT
DOCKED: ATOM      1  C   UNL     1     139.880  76.105 221.551 -0.18 -0.08    +0.354 C  
DOCKED: ENDROOT
DOCKED: BRANCH   1   2
DOCKED: ATOM      2  O   UNL     1     141.215  76.015 221.964 -0.22 +0.17    -0.462 OA 
DOCKED: ATOM      3  H   UNL     1     141.855  76.798 221.974 -0.42 -0.22    +0.299 HD 
DOCKED: ENDBRANCH   1   2
DOCKED: BRANCH   1   4
DOCKED: ATOM      4  N   UNL     1     139.248  77.260 221.548 -0.13 +0.05    -0.191 N  
DOCKED: ATOM      5  C   UNL     1     138.638  77.831 220.351 -0.02 -0.08    +0.355 C  
DOCKED: ATOM      6  C   UNL     1     138.986  78.091 222.728 -0.15 -0.06    +0.332 C  
DOCKED: ATOM      7  C   UNL     1     137.949  79.117 220.793 -0.07 -0.02    +0.080 C  
DOCKED: ATOM      8  C   UNL     1     137.852  79.024 222.309 -0.17 -0.01    +0.091 C  
DOCKED: BRANCH   6   9
DOCKED: ATOM      9  C   UNL     1     140.205  78.899 223.100 -0.31 -0.04    +0.197 A  
DOCKED: ATOM     10  N   UNL     1     141.452  78.366 222.979 -0.34 +0.09    -0.232 NA 
DOCKED: ATOM     11  N   UNL     1     140.062  80.197 223.483 -0.26 +0.04    -0.232 NA 
DOCKED: ATOM     12  C   UNL     1     142.559  79.101 223.259 -0.37 -0.07    +0.154 A  
DOCKED: ATOM     13  C   UNL     1     141.144  80.966 223.770 -0.37 -0.02    +0.154 A  
DOCKED: ATOM     14  C   UNL     1     142.426  80.428 223.661 -0.53 -0.04    +0.159 A  
DOCKED: ATOM     15  F   UNL     1     143.519  81.179 223.945 -0.12 +0.03    -0.204 F  
DOCKED: ENDBRANCH   6   9
DOCKED: ENDBRANCH   1   4
DOCKED: BRANCH   1  16
DOCKED: ATOM     16  C   UNL     1     139.232  74.818 221.101 -0.13 -0.06    +0.269 C  
DOCKED: BRANCH  16  17
DOCKED: ATOM     17  N   UNL     1     139.269  73.802 222.150 -0.11 +0.08    -0.337 N  
DOCKED: ATOM     18  C   UNL     1     139.741  72.465 221.919 -0.18 -0.05    +0.270 C  
DOCKED: ATOM     19  H   UNL     1     138.901  74.064 223.091 -0.56 -0.10    +0.164 HD 
DOCKED: ATOM     20  O   UNL     1     140.109  72.120 220.762 -0.07 +0.04    -0.268 OA 
DOCKED: BRANCH  18  21
DOCKED: ATOM     21  C   UNL     1     139.811  71.495 223.032 -0.28 -0.02    +0.128 A  
DOCKED: ATOM     22  N   UNL     1     140.307  71.891 224.237 -0.28 +0.04    -0.243 NA 
DOCKED: ATOM     23  C   UNL     1     139.397  70.163 222.861 -0.21 -0.01    +0.035 A  
DOCKED: ATOM     24  C   UNL     1     140.424  71.037 225.289 -0.50 -0.01    +0.071 A  
DOCKED: ATOM     25  C   UNL     1     139.508  69.262 223.923 -0.24 -0.00    +0.013 A  
DOCKED: ATOM     26  C   UNL     1     140.953  71.488 226.503 -0.68 -0.00    +0.030 A  
DOCKED: ATOM     27  C   UNL     1     140.027  69.690 225.149 -0.42 -0.00    +0.002 A  
DOCKED: ATOM     28  C   UNL     1     141.089  70.603 227.577 -0.61 -0.00    +0.023 A  
DOCKED: ATOM     29  C   UNL     1     140.163  68.809 226.232 -0.53 -0.01    +0.030 A  
DOCKED: ATOM     30  C   UNL     1     140.694  69.267 227.444 -0.58 -0.01    +0.041 A  
DOCKED: ATOM     31  Cl  UNL     1     140.867  68.163 228.796 -0.61 +0.02    -0.084 Cl 
DOCKED: ENDBRANCH  18  21
DOCKED: ENDBRANCH  16  17
DOCKED: ENDBRANCH   1  16
DOCKED: TORSDOF 6
DOCKED: TER
DOCKED: ENDMDL
________________________________________________________________________________


    FINAL DOCKED STATE:
    ________________________


Run:   9 / 20
Time taken for this run:   0.047s

DOCKED: MODEL        9
DOCKED: USER    Run = 9
DOCKED: USER
DOCKED: USER    Estimated Free Energy of Binding    =  -8.00 kcal/mol  [=(1)+(2)+(3)-(4)]
DOCKED: USER
DOCKED: USER    (1) Final Intermolecular Energy     =  -9.79 kcal/mol
DOCKED: USER        vdW + Hbond + desolv Energy     =  -9.36 kcal/mol
DOCKED: USER        Electrostatic Energy            =  -0.43 kcal/mol
DOCKED: USER        Moving Ligand-Fixed Receptor    =  -9.79 kcal/mol
DOCKED: USER        Moving Ligand-Moving Receptor   =  +0.00 kcal/mol
DOCKED: USER    (2) Final Total Internal Energy     =  -1.91 kcal/mol
DOCKED: USER    (3) Torsional Free Energy           =  +1.79 kcal/mol
DOCKED: USER    (4) Unbound System's Energy         =  -1.91 kcal/mol
DOCKED: USER
DOCKED: USER
DOCKED: REMARK SMILES O=C(NC/C(O)=[N+]1/CCC[C@@H]1c1ncc(F)cn1)c1ccc2cc(Cl)ccc2n1
DOCKED: REMARK SMILES IDX 5 1 6 2 7 4 8 5 11 6 9 7 10 8 12 9 13 10 18 11 14 12 17 13
DOCKED: REMARK SMILES IDX 15 14 16 15 4 16 3 17 2 18 1 20 19 21 29 22 20 23 28 24
DOCKED: REMARK SMILES IDX 21 25 27 26 22 27 26 28 23 29 24 30 25 31
DOCKED: REMARK H PARENT 6 3 3 19
DOCKED: USER                              x       y       z     vdW  Elec       q    Type
DOCKED: USER                           _______ _______ _______ _____ _____    ______ ____
DOCKED: ROOT
DOCKED: ATOM      1  C   UNL     1     141.213  75.506 220.606 -0.14 -0.12    +0.354 C  
DOCKED: ENDROOT
DOCKED: BRANCH   1   2
DOCKED: ATOM      2  O   UNL     1     142.157  74.519 220.913 -0.14 +0.13    -0.462 OA 
DOCKED: ATOM      3  H   UNL     1     142.006  73.530 220.764 +0.11 -0.05    +0.299 HD 
DOCKED: ENDBRANCH   1   2
DOCKED: BRANCH   1   4
DOCKED: ATOM      4  N   UNL     1     141.555  76.584 219.932 -0.15 +0.09    -0.191 N  
DOCKED: ATOM      5  C   UNL     1     142.548  76.574 218.861 -0.16 -0.20    +0.355 C  
DOCKED: ATOM      6  C   UNL     1     140.950  77.912 220.084 -0.10 -0.14    +0.332 C  
DOCKED: ATOM      7  C   UNL     1     142.586  77.989 218.298 -0.29 -0.06    +0.080 C  
DOCKED: ATOM      8  C   UNL     1     141.318  78.662 218.806 -0.18 -0.05    +0.091 C  
DOCKED: BRANCH   6   9
DOCKED: ATOM      9  C   UNL     1     141.518  78.630 221.283 -0.26 -0.10    +0.197 A  
DOCKED: ATOM     10  N   UNL     1     142.106  79.851 221.144 -0.22 +0.12    -0.232 NA 
DOCKED: ATOM     11  N   UNL     1     141.371  78.091 222.524 -0.28 +0.10    -0.232 NA 
DOCKED: ATOM     12  C   UNL     1     142.572  80.531 222.223 -0.43 -0.05    +0.154 A  
DOCKED: ATOM     13  C   UNL     1     141.823  78.741 223.628 -0.49 -0.05    +0.154 A  
DOCKED: ATOM     14  C   UNL     1     142.436  79.987 223.498 -0.52 -0.04    +0.159 A  
DOCKED: ATOM     15  F   UNL     1     142.895  80.651 224.588 -0.15 +0.03    -0.204 F  
DOCKED: ENDBRANCH   6   9
DOCKED: ENDBRANCH   1   4
DOCKED: BRANCH   1  16
DOCKED: ATOM     16  C   UNL     1     139.801  75.250 221.074 -0.16 -0.06    +0.269 C  
DOCKED: BRANCH  16  17
DOCKED: ATOM     17  N   UNL     1     139.757  74.229 222.118 -0.11 +0.04    -0.337 N  
DOCKED: ATOM     18  C   UNL     1     139.958  72.833 221.847 -0.19 -0.04    +0.270 C  
DOCKED: ATOM     19  H   UNL     1     139.536  74.539 223.089 -0.53 -0.01    +0.164 HD 
DOCKED: ATOM     20  O   UNL     1     140.145  72.444 220.661 -0.07 +0.05    -0.268 OA 
DOCKED: BRANCH  18  21
DOCKED: ATOM     21  C   UNL     1     139.962  71.851 222.952 -0.29 -0.02    +0.128 A  
DOCKED: ATOM     22  N   UNL     1     140.428  72.220 224.177 -0.13 +0.03    -0.243 NA 
DOCKED: ATOM     23  C   UNL     1     139.515  70.533 222.752 -0.23 -0.01    +0.035 A  
DOCKED: ATOM     24  C   UNL     1     140.484  71.354 225.223 -0.49 -0.01    +0.071 A  
DOCKED: ATOM     25  C   UNL     1     139.563  69.620 223.808 -0.27 -0.00    +0.013 A  
DOCKED: ATOM     26  C   UNL     1     140.984  71.777 226.459 -0.68 -0.00    +0.030 A  
DOCKED: ATOM     27  C   UNL     1     140.052  70.021 225.056 -0.43 -0.00    +0.002 A  
DOCKED: ATOM     28  C   UNL     1     141.057  70.878 227.528 -0.66 -0.00    +0.023 A  
DOCKED: ATOM     29  C   UNL     1     140.125  69.125 226.133 -0.50 -0.01    +0.030 A  
DOCKED: ATOM     30  C   UNL     1     140.628  69.556 227.367 -0.57 -0.01    +0.041 A  
DOCKED: ATOM     31  Cl  UNL     1     140.722  68.434 228.713 -0.70 +0.02    -0.084 Cl 
DOCKED: ENDBRANCH  18  21
DOCKED: ENDBRANCH  16  17
DOCKED: ENDBRANCH   1  16
DOCKED: TORSDOF 6
DOCKED: TER
DOCKED: ENDMDL
________________________________________________________________________________


    FINAL DOCKED STATE:
    ________________________


Run:   10 / 20
Time taken for this run:   0.047s

DOCKED: MODEL        10
DOCKED: USER    Run = 10
DOCKED: USER
DOCKED: USER    Estimated Free Energy of Binding    =  -8.11 kcal/mol  [=(1)+(2)+(3)-(4)]
DOCKED: USER
DOCKED: USER    (1) Final Intermolecular Energy     =  -9.90 kcal/mol
DOCKED: USER        vdW + Hbond + desolv Energy     =  -9.46 kcal/mol
DOCKED: USER        Electrostatic Energy            =  -0.44 kcal/mol
DOCKED: USER        Moving Ligand-Fixed Receptor    =  -9.90 kcal/mol
DOCKED: USER        Moving Ligand-Moving Receptor   =  +0.00 kcal/mol
DOCKED: USER    (2) Final Total Internal Energy     =  -2.02 kcal/mol
DOCKED: USER    (3) Torsional Free Energy           =  +1.79 kcal/mol
DOCKED: USER    (4) Unbound System's Energy         =  -2.02 kcal/mol
DOCKED: USER
DOCKED: USER
DOCKED: REMARK SMILES O=C(NC/C(O)=[N+]1/CCC[C@@H]1c1ncc(F)cn1)c1ccc2cc(Cl)ccc2n1
DOCKED: REMARK SMILES IDX 5 1 6 2 7 4 8 5 11 6 9 7 10 8 12 9 13 10 18 11 14 12 17 13
DOCKED: REMARK SMILES IDX 15 14 16 15 4 16 3 17 2 18 1 20 19 21 29 22 20 23 28 24
DOCKED: REMARK SMILES IDX 21 25 27 26 22 27 26 28 23 29 24 30 25 31
DOCKED: REMARK H PARENT 6 3 3 19
DOCKED: USER                              x       y       z     vdW  Elec       q    Type
DOCKED: USER                           _______ _______ _______ _____ _____    ______ ____
DOCKED: ROOT
DOCKED: ATOM      1  C   UNL     1     140.157  76.120 221.448 -0.18 -0.09    +0.354 C  
DOCKED: ENDROOT
DOCKED: BRANCH   1   2
DOCKED: ATOM      2  O   UNL     1     139.775  76.668 222.679 -0.18 +0.09    -0.462 OA 
DOCKED: ATOM      3  H   UNL     1     140.232  77.462 223.108 +0.16 -0.06    +0.299 HD 
DOCKED: ENDBRANCH   1   2
DOCKED: BRANCH   1   4
DOCKED: ATOM      4  N   UNL     1     141.070  76.704 220.701 -0.16 +0.08    -0.191 N  
DOCKED: ATOM      5  C   UNL     1     142.199  75.986 220.114 -0.15 -0.18    +0.355 C  
DOCKED: ATOM      6  C   UNL     1     141.055  78.109 220.278 -0.11 -0.15    +0.332 C  
DOCKED: ATOM      7  C   UNL     1     142.959  77.000 219.268 -0.30 -0.06    +0.080 C  
DOCKED: ATOM      8  C   UNL     1     142.004  78.170 219.083 -0.24 -0.06    +0.091 C  
DOCKED: BRANCH   6   9
DOCKED: ATOM      9  C   UNL     1     141.557  79.009 221.379 -0.27 -0.10    +0.197 A  
DOCKED: ATOM     10  N   UNL     1     141.744  80.340 221.154 -0.23 +0.09    -0.232 NA 
DOCKED: ATOM     11  N   UNL     1     141.748  78.505 222.628 -0.29 +0.11    -0.232 NA 
DOCKED: ATOM     12  C   UNL     1     142.143  81.170 222.151 -0.36 -0.04    +0.154 A  
DOCKED: ATOM     13  C   UNL     1     142.145  79.303 223.653 -0.48 -0.05    +0.154 A  
DOCKED: ATOM     14  C   UNL     1     142.350  80.665 223.433 -0.52 -0.03    +0.159 A  
DOCKED: ATOM     15  F   UNL     1     142.748  81.478 224.443 -0.19 +0.02    -0.204 F  
DOCKED: ENDBRANCH   6   9
DOCKED: ENDBRANCH   1   4
DOCKED: BRANCH   1  16
DOCKED: ATOM     16  C   UNL     1     139.478  74.832 221.050 -0.14 -0.06    +0.269 C  
DOCKED: BRANCH  16  17
DOCKED: ATOM     17  N   UNL     1     139.530  73.843 222.124 -0.14 +0.06    -0.337 N  
DOCKED: ATOM     18  C   UNL     1     139.513  72.428 221.877 -0.16 -0.05    +0.270 C  
DOCKED: ATOM     19  H   UNL     1     139.545  74.195 223.106 -0.53 -0.02    +0.164 HD 
DOCKED: ATOM     20  O   UNL     1     139.411  71.998 220.696 -0.05 +0.05    -0.268 OA 
DOCKED: BRANCH  18  21
DOCKED: ATOM     21  C   UNL     1     139.627  71.473 223.000 -0.27 -0.02    +0.128 A  
DOCKED: ATOM     22  N   UNL     1     140.155  71.889 224.184 -0.26 +0.05    -0.243 NA 
DOCKED: ATOM     23  C   UNL     1     139.222  70.135 222.857 -0.21 -0.01    +0.035 A  
DOCKED: ATOM     24  C   UNL     1     140.313  71.050 225.242 -0.49 -0.01    +0.071 A  
DOCKED: ATOM     25  C   UNL     1     139.375  69.248 223.926 -0.26 -0.00    +0.013 A  
DOCKED: ATOM     26  C   UNL     1     140.874  71.520 226.433 -0.67 -0.00    +0.030 A  
DOCKED: ATOM     27  C   UNL     1     139.926  69.697 225.131 -0.42 -0.00    +0.002 A  
DOCKED: ATOM     28  C   UNL     1     141.052  70.651 227.514 -0.63 -0.00    +0.023 A  
DOCKED: ATOM     29  C   UNL     1     140.105  68.830 226.219 -0.53 -0.01    +0.030 A  
DOCKED: ATOM     30  C   UNL     1     140.667  69.309 227.409 -0.58 -0.01    +0.041 A  
DOCKED: ATOM     31  Cl  UNL     1     140.893  68.224 228.769 -0.63 +0.02    -0.084 Cl 
DOCKED: ENDBRANCH  18  21
DOCKED: ENDBRANCH  16  17
DOCKED: ENDBRANCH   1  16
DOCKED: TORSDOF 6
DOCKED: TER
DOCKED: ENDMDL
________________________________________________________________________________


    FINAL DOCKED STATE:
    ________________________


Run:   11 / 20
Time taken for this run:   0.047s

DOCKED: MODEL        11
DOCKED: USER    Run = 11
DOCKED: USER
DOCKED: USER    Estimated Free Energy of Binding    =  -7.33 kcal/mol  [=(1)+(2)+(3)-(4)]
DOCKED: USER
DOCKED: USER    (1) Final Intermolecular Energy     =  -9.12 kcal/mol
DOCKED: USER        vdW + Hbond + desolv Energy     =  -8.76 kcal/mol
DOCKED: USER        Electrostatic Energy            =  -0.35 kcal/mol
DOCKED: USER        Moving Ligand-Fixed Receptor    =  -9.12 kcal/mol
DOCKED: USER        Moving Ligand-Moving Receptor   =  +0.00 kcal/mol
DOCKED: USER    (2) Final Total Internal Energy     =  -2.08 kcal/mol
DOCKED: USER    (3) Torsional Free Energy           =  +1.79 kcal/mol
DOCKED: USER    (4) Unbound System's Energy         =  -2.08 kcal/mol
DOCKED: USER
DOCKED: USER
DOCKED: REMARK SMILES O=C(NC/C(O)=[N+]1/CCC[C@@H]1c1ncc(F)cn1)c1ccc2cc(Cl)ccc2n1
DOCKED: REMARK SMILES IDX 5 1 6 2 7 4 8 5 11 6 9 7 10 8 12 9 13 10 18 11 14 12 17 13
DOCKED: REMARK SMILES IDX 15 14 16 15 4 16 3 17 2 18 1 20 19 21 29 22 20 23 28 24
DOCKED: REMARK SMILES IDX 21 25 27 26 22 27 26 28 23 29 24 30 25 31
DOCKED: REMARK H PARENT 6 3 3 19
DOCKED: USER                              x       y       z     vdW  Elec       q    Type
DOCKED: USER                           _______ _______ _______ _____ _____    ______ ____
DOCKED: ROOT
DOCKED: ATOM      1  C   UNL     1     140.270  74.596 220.039 -0.05 -0.08    +0.354 C  
DOCKED: ENDROOT
DOCKED: BRANCH   1   2
DOCKED: ATOM      2  O   UNL     1     139.783  73.812 218.986 +0.01 +0.10    -0.462 OA 
DOCKED: ATOM      3  H   UNL     1     139.149  73.035 219.110 +0.03 -0.06    +0.299 HD 
DOCKED: ENDBRANCH   1   2
DOCKED: BRANCH   1   4
DOCKED: ATOM      4  N   UNL     1     141.497  75.072 220.018 -0.12 +0.06    -0.191 N  
DOCKED: ATOM      5  C   UNL     1     142.674  74.254 220.298 -0.14 -0.11    +0.355 C  
DOCKED: ATOM      6  C   UNL     1     141.876  76.437 219.637 -0.14 -0.16    +0.332 C  
DOCKED: ATOM      7  C   UNL     1     143.884  75.158 220.091 -0.34 -0.04    +0.080 C  
DOCKED: ATOM      8  C   UNL     1     143.365  76.355 219.308 -0.34 -0.06    +0.091 C  
DOCKED: BRANCH   6   9
DOCKED: ATOM      9  C   UNL     1     141.654  77.397 220.779 -0.20 -0.11    +0.197 A  
DOCKED: ATOM     10  N   UNL     1     141.837  78.736 220.604 -0.19 +0.14    -0.232 NA 
DOCKED: ATOM     11  N   UNL     1     141.191  76.932 221.971 -0.20 +0.11    -0.232 NA 
DOCKED: ATOM     12  C   UNL     1     141.588  79.615 221.608 -0.32 -0.06    +0.154 A  
DOCKED: ATOM     13  C   UNL     1     140.928  77.780 223.000 -0.30 -0.05    +0.154 A  
DOCKED: ATOM     14  C   UNL     1     141.122  79.151 222.836 -0.38 -0.05    +0.159 A  
DOCKED: ATOM     15  F   UNL     1     140.867  80.013 223.851 -0.14 +0.04    -0.204 F  
DOCKED: ENDBRANCH   6   9
DOCKED: ENDBRANCH   1   4
DOCKED: BRANCH   1  16
DOCKED: ATOM     16  C   UNL     1     139.308  74.869 221.170 -0.15 -0.06    +0.269 C  
DOCKED: BRANCH  16  17
DOCKED: ATOM     17  N   UNL     1     139.419  73.863 222.224 -0.11 +0.07    -0.337 N  
DOCKED: ATOM     18  C   UNL     1     139.293  72.455 221.969 -0.16 -0.06    +0.270 C  
DOCKED: ATOM     19  H   UNL     1     139.560  74.200 223.202 -0.50 -0.02    +0.164 HD 
DOCKED: ATOM     20  O   UNL     1     139.039  72.048 220.802 -0.05 +0.05    -0.268 OA 
DOCKED: BRANCH  18  21
DOCKED: ATOM     21  C   UNL     1     139.473  71.479 223.065 -0.27 -0.03    +0.128 A  
DOCKED: ATOM     22  N   UNL     1     140.031  71.883 224.239 -0.24 +0.05    -0.243 NA 
DOCKED: ATOM     23  C   UNL     1     139.099  70.134 222.906 -0.21 -0.01    +0.035 A  
DOCKED: ATOM     24  C   UNL     1     140.249  71.026 225.272 -0.48 -0.01    +0.071 A  
DOCKED: ATOM     25  C   UNL     1     139.313  69.229 223.948 -0.28 -0.00    +0.013 A  
DOCKED: ATOM     26  C   UNL     1     140.839  71.486 226.453 -0.66 -0.00    +0.030 A  
DOCKED: ATOM     27  C   UNL     1     139.894  69.666 225.143 -0.42 -0.00    +0.002 A  
DOCKED: ATOM     28  C   UNL     1     141.077  70.598 227.507 -0.62 -0.00    +0.023 A  
DOCKED: ATOM     29  C   UNL     1     140.135  68.781 226.205 -0.53 -0.01    +0.030 A  
DOCKED: ATOM     30  C   UNL     1     140.726  69.249 227.385 -0.58 -0.01    +0.041 A  
DOCKED: ATOM     31  Cl  UNL     1     141.029  68.141 228.711 -0.70 +0.02    -0.084 Cl 
DOCKED: ENDBRANCH  18  21
DOCKED: ENDBRANCH  16  17
DOCKED: ENDBRANCH   1  16
DOCKED: TORSDOF 6
DOCKED: TER
DOCKED: ENDMDL
________________________________________________________________________________


    FINAL DOCKED STATE:
    ________________________


Run:   12 / 20
Time taken for this run:   0.047s

DOCKED: MODEL        12
DOCKED: USER    Run = 12
DOCKED: USER
DOCKED: USER    Estimated Free Energy of Binding    =  -7.32 kcal/mol  [=(1)+(2)+(3)-(4)]
DOCKED: USER
DOCKED: USER    (1) Final Intermolecular Energy     =  -9.11 kcal/mol
DOCKED: USER        vdW + Hbond + desolv Energy     =  -8.78 kcal/mol
DOCKED: USER        Electrostatic Energy            =  -0.33 kcal/mol
DOCKED: USER        Moving Ligand-Fixed Receptor    =  -9.11 kcal/mol
DOCKED: USER        Moving Ligand-Moving Receptor   =  +0.00 kcal/mol
DOCKED: USER    (2) Final Total Internal Energy     =  -2.16 kcal/mol
DOCKED: USER    (3) Torsional Free Energy           =  +1.79 kcal/mol
DOCKED: USER    (4) Unbound System's Energy         =  -2.16 kcal/mol
DOCKED: USER
DOCKED: USER
DOCKED: REMARK SMILES O=C(NC/C(O)=[N+]1/CCC[C@@H]1c1ncc(F)cn1)c1ccc2cc(Cl)ccc2n1
DOCKED: REMARK SMILES IDX 5 1 6 2 7 4 8 5 11 6 9 7 10 8 12 9 13 10 18 11 14 12 17 13
DOCKED: REMARK SMILES IDX 15 14 16 15 4 16 3 17 2 18 1 20 19 21 29 22 20 23 28 24
DOCKED: REMARK SMILES IDX 21 25 27 26 22 27 26 28 23 29 24 30 25 31
DOCKED: REMARK H PARENT 6 3 3 19
DOCKED: USER                              x       y       z     vdW  Elec       q    Type
DOCKED: USER                           _______ _______ _______ _____ _____    ______ ____
DOCKED: ROOT
DOCKED: ATOM      1  C   UNL     1     141.383  75.887 220.496 -0.14 -0.14    +0.354 C  
DOCKED: ENDROOT
DOCKED: BRANCH   1   2
DOCKED: ATOM      2  O   UNL     1     142.464  76.753 220.294 -0.11 +0.32    -0.462 OA 
DOCKED: ATOM      3  H   UNL     1     142.921  77.267 221.035 -0.34 -0.35    +0.299 HD 
DOCKED: ENDBRANCH   1   2
DOCKED: BRANCH   1   4
DOCKED: ATOM      4  N   UNL     1     140.238  76.332 220.969 -0.14 +0.06    -0.191 N  
DOCKED: ATOM      5  C   UNL     1     139.034  76.460 220.151 -0.02 -0.09    +0.355 C  
DOCKED: ATOM      6  C   UNL     1     139.969  76.678 222.368 -0.20 -0.07    +0.332 C  
DOCKED: ATOM      7  C   UNL     1     137.926  76.926 221.088 -0.11 -0.02    +0.080 C  
DOCKED: ATOM      8  C   UNL     1     138.448  76.662 222.493 -0.26 -0.02    +0.091 C  
DOCKED: BRANCH   6   9
DOCKED: ATOM      9  C   UNL     1     140.497  78.053 222.695 -0.31 -0.05    +0.197 A  
DOCKED: ATOM     10  N   UNL     1     139.666  79.017 223.182 -0.23 +0.04    -0.232 NA 
DOCKED: ATOM     11  N   UNL     1     141.829  78.309 222.580 -0.24 +0.12    -0.232 NA 
DOCKED: ATOM     12  C   UNL     1     140.140  80.240 223.531 -0.35 -0.02    +0.154 A  
DOCKED: ATOM     13  C   UNL     1     142.342  79.520 222.920 -0.49 -0.06    +0.154 A  
DOCKED: ATOM     14  C   UNL     1     141.499  80.518 223.409 -0.44 -0.03    +0.159 A  
DOCKED: ATOM     15  F   UNL     1     141.992  81.733 223.753 -0.17 +0.02    -0.204 F  
DOCKED: ENDBRANCH   6   9
DOCKED: ENDBRANCH   1   4
DOCKED: BRANCH   1  16
DOCKED: ATOM     16  C   UNL     1     141.608  74.440 220.129 -0.13 -0.07    +0.269 C  
DOCKED: BRANCH  16  17
DOCKED: ATOM     17  N   UNL     1     141.371  73.554 221.265 -0.14 +0.04    -0.337 N  
DOCKED: ATOM     18  C   UNL     1     140.106  72.916 221.502 -0.17 -0.04    +0.270 C  
DOCKED: ATOM     19  H   UNL     1     142.153  73.416 221.943 +0.08 +0.00    +0.164 HD 
DOCKED: ATOM     20  O   UNL     1     139.134  73.144 220.732 -0.06 +0.05    -0.268 OA 
DOCKED: BRANCH  18  21
DOCKED: ATOM     21  C   UNL     1     139.942  71.982 222.636 -0.27 -0.02    +0.128 A  
DOCKED: ATOM     22  N   UNL     1     140.573  72.239 223.815 -0.21 +0.02    -0.243 NA 
DOCKED: ATOM     23  C   UNL     1     139.164  70.818 222.510 -0.21 -0.01    +0.035 A  
DOCKED: ATOM     24  C   UNL     1     140.483  71.402 224.883 -0.46 -0.01    +0.071 A  
DOCKED: ATOM     25  C   UNL     1     139.056  69.938 223.589 -0.27 -0.00    +0.013 A  
DOCKED: ATOM     26  C   UNL     1     141.162  71.703 226.068 -0.61 -0.00    +0.030 A  
DOCKED: ATOM     27  C   UNL     1     139.718  70.220 224.788 -0.41 -0.00    +0.002 A  
DOCKED: ATOM     28  C   UNL     1     141.082  70.831 227.159 -0.64 -0.00    +0.023 A  
DOCKED: ATOM     29  C   UNL     1     139.641  69.351 225.887 -0.45 -0.00    +0.030 A  
DOCKED: ATOM     30  C   UNL     1     140.323  69.659 227.071 -0.54 -0.01    +0.041 A  
DOCKED: ATOM     31  Cl  UNL     1     140.229  68.570 228.443 -0.72 +0.02    -0.084 Cl 
DOCKED: ENDBRANCH  18  21
DOCKED: ENDBRANCH  16  17
DOCKED: ENDBRANCH   1  16
DOCKED: TORSDOF 6
DOCKED: TER
DOCKED: ENDMDL
________________________________________________________________________________


    FINAL DOCKED STATE:
    ________________________


Run:   13 / 20
Time taken for this run:   0.047s

DOCKED: MODEL        13
DOCKED: USER    Run = 13
DOCKED: USER
DOCKED: USER    Estimated Free Energy of Binding    =  -7.28 kcal/mol  [=(1)+(2)+(3)-(4)]
DOCKED: USER
DOCKED: USER    (1) Final Intermolecular Energy     =  -9.07 kcal/mol
DOCKED: USER        vdW + Hbond + desolv Energy     =  -8.72 kcal/mol
DOCKED: USER        Electrostatic Energy            =  -0.36 kcal/mol
DOCKED: USER        Moving Ligand-Fixed Receptor    =  -9.07 kcal/mol
DOCKED: USER        Moving Ligand-Moving Receptor   =  +0.00 kcal/mol
DOCKED: USER    (2) Final Total Internal Energy     =  -2.33 kcal/mol
DOCKED: USER    (3) Torsional Free Energy           =  +1.79 kcal/mol
DOCKED: USER    (4) Unbound System's Energy         =  -2.33 kcal/mol
DOCKED: USER
DOCKED: USER
DOCKED: REMARK SMILES O=C(NC/C(O)=[N+]1/CCC[C@@H]1c1ncc(F)cn1)c1ccc2cc(Cl)ccc2n1
DOCKED: REMARK SMILES IDX 5 1 6 2 7 4 8 5 11 6 9 7 10 8 12 9 13 10 18 11 14 12 17 13
DOCKED: REMARK SMILES IDX 15 14 16 15 4 16 3 17 2 18 1 20 19 21 29 22 20 23 28 24
DOCKED: REMARK SMILES IDX 21 25 27 26 22 27 26 28 23 29 24 30 25 31
DOCKED: REMARK H PARENT 6 3 3 19
DOCKED: USER                              x       y       z     vdW  Elec       q    Type
DOCKED: USER                           _______ _______ _______ _____ _____    ______ ____
DOCKED: ROOT
DOCKED: ATOM      1  C   UNL     1     140.163  76.044 221.359 -0.17 -0.09    +0.354 C  
DOCKED: ENDROOT
DOCKED: BRANCH   1   2
DOCKED: ATOM      2  O   UNL     1     140.443  76.184 222.724 -0.22 +0.08    -0.462 OA 
DOCKED: ATOM      3  H   UNL     1     140.885  76.998 223.128 +0.12 -0.09    +0.299 HD 
DOCKED: ENDBRANCH   1   2
DOCKED: BRANCH   1   4
DOCKED: ATOM      4  N   UNL     1     140.384  77.033 220.518 -0.10 +0.07    -0.191 N  
DOCKED: ATOM      5  C   UNL     1     141.104  76.863 219.259 -0.06 -0.15    +0.355 C  
DOCKED: ATOM      6  C   UNL     1     139.882  78.404 220.664 -0.06 -0.10    +0.332 C  
DOCKED: ATOM      7  C   UNL     1     141.067  78.216 218.558 -0.13 -0.04    +0.080 C  
DOCKED: ATOM      8  C   UNL     1     139.977  79.008 219.265 -0.08 -0.03    +0.091 C  
DOCKED: BRANCH   6   9
DOCKED: ATOM      9  C   UNL     1     140.737  79.193 221.624 -0.21 -0.07    +0.197 A  
DOCKED: ATOM     10  N   UNL     1     140.927  78.758 222.900 -0.28 +0.07    -0.232 NA 
DOCKED: ATOM     11  N   UNL     1     141.387  80.306 221.188 -0.20 +0.08    -0.232 NA 
DOCKED: ATOM     12  C   UNL     1     141.738  79.430 223.757 -0.49 -0.04    +0.154 A  
DOCKED: ATOM     13  C   UNL     1     142.209  81.006 222.014 -0.36 -0.04    +0.154 A  
DOCKED: ATOM     14  C   UNL     1     142.403  80.576 223.326 -0.52 -0.04    +0.159 A  
DOCKED: ATOM     15  F   UNL     1     143.218  81.261 224.166 -0.17 +0.03    -0.204 F  
DOCKED: ENDBRANCH   6   9
DOCKED: ENDBRANCH   1   4
DOCKED: BRANCH   1  16
DOCKED: ATOM     16  C   UNL     1     139.620  74.706 220.921 -0.13 -0.06    +0.269 C  
DOCKED: BRANCH  16  17
DOCKED: ATOM     17  N   UNL     1     139.649  73.732 222.009 -0.15 +0.05    -0.337 N  
DOCKED: ATOM     18  C   UNL     1     139.557  72.316 221.784 -0.16 -0.05    +0.270 C  
DOCKED: ATOM     19  H   UNL     1     139.704  74.097 222.985 -0.40 +0.00    +0.164 HD 
DOCKED: ATOM     20  O   UNL     1     139.406  71.874 220.613 -0.04 +0.05    -0.268 OA 
DOCKED: BRANCH  18  21
DOCKED: ATOM     21  C   UNL     1     139.651  71.373 222.919 -0.26 -0.02    +0.128 A  
DOCKED: ATOM     22  N   UNL     1     140.213  71.784 224.090 -0.27 +0.04    -0.243 NA 
DOCKED: ATOM     23  C   UNL     1     139.193  70.049 222.802 -0.20 -0.01    +0.035 A  
DOCKED: ATOM     24  C   UNL     1     140.354  70.955 225.157 -0.48 -0.01    +0.071 A  
DOCKED: ATOM     25  C   UNL     1     139.327  69.173 223.881 -0.26 -0.00    +0.013 A  
DOCKED: ATOM     26  C   UNL     1     140.950  71.420 226.334 -0.66 -0.00    +0.030 A  
DOCKED: ATOM     27  C   UNL     1     139.913  69.617 225.072 -0.41 -0.00    +0.002 A  
DOCKED: ATOM     28  C   UNL     1     141.110  70.559 227.424 -0.59 -0.00    +0.023 A  
DOCKED: ATOM     29  C   UNL     1     140.075  68.759 226.170 -0.53 -0.01    +0.030 A  
DOCKED: ATOM     30  C   UNL     1     140.673  69.232 227.344 -0.58 -0.01    +0.041 A  
DOCKED: ATOM     31  Cl  UNL     1     140.878  68.158 228.716 -0.67 +0.02    -0.084 Cl 
DOCKED: ENDBRANCH  18  21
DOCKED: ENDBRANCH  16  17
DOCKED: ENDBRANCH   1  16
DOCKED: TORSDOF 6
DOCKED: TER
DOCKED: ENDMDL
________________________________________________________________________________


    FINAL DOCKED STATE:
    ________________________


Run:   14 / 20
Time taken for this run:   0.047s

DOCKED: MODEL        14
DOCKED: USER    Run = 14
DOCKED: USER
DOCKED: USER    Estimated Free Energy of Binding    =  -7.88 kcal/mol  [=(1)+(2)+(3)-(4)]
DOCKED: USER
DOCKED: USER    (1) Final Intermolecular Energy     =  -9.67 kcal/mol
DOCKED: USER        vdW + Hbond + desolv Energy     =  -9.25 kcal/mol
DOCKED: USER        Electrostatic Energy            =  -0.42 kcal/mol
DOCKED: USER        Moving Ligand-Fixed Receptor    =  -9.67 kcal/mol
DOCKED: USER        Moving Ligand-Moving Receptor   =  +0.00 kcal/mol
DOCKED: USER    (2) Final Total Internal Energy     =  -2.15 kcal/mol
DOCKED: USER    (3) Torsional Free Energy           =  +1.79 kcal/mol
DOCKED: USER    (4) Unbound System's Energy         =  -2.15 kcal/mol
DOCKED: USER
DOCKED: USER
DOCKED: REMARK SMILES O=C(NC/C(O)=[N+]1/CCC[C@@H]1c1ncc(F)cn1)c1ccc2cc(Cl)ccc2n1
DOCKED: REMARK SMILES IDX 5 1 6 2 7 4 8 5 11 6 9 7 10 8 12 9 13 10 18 11 14 12 17 13
DOCKED: REMARK SMILES IDX 15 14 16 15 4 16 3 17 2 18 1 20 19 21 29 22 20 23 28 24
DOCKED: REMARK SMILES IDX 21 25 27 26 22 27 26 28 23 29 24 30 25 31
DOCKED: REMARK H PARENT 6 3 3 19
DOCKED: USER                              x       y       z     vdW  Elec       q    Type
DOCKED: USER                           _______ _______ _______ _____ _____    ______ ____
DOCKED: ROOT
DOCKED: ATOM      1  C   UNL     1     140.277  76.039 221.314 -0.17 -0.10    +0.354 C  
DOCKED: ENDROOT
DOCKED: BRANCH   1   2
DOCKED: ATOM      2  O   UNL     1     141.070  75.981 222.467 -0.21 +0.12    -0.462 OA 
DOCKED: ATOM      3  H   UNL     1     141.884  76.560 222.619 -0.38 -0.21    +0.299 HD 
DOCKED: ENDBRANCH   1   2
DOCKED: BRANCH   1   4
DOCKED: ATOM      4  N   UNL     1     140.248  77.121 220.565 -0.10 +0.06    -0.191 N  
DOCKED: ATOM      5  C   UNL     1     140.684  77.136 219.171 -0.03 -0.14    +0.355 C  
DOCKED: ATOM      6  C   UNL     1     139.711  78.424 220.969 -0.06 -0.09    +0.332 C  
DOCKED: ATOM      7  C   UNL     1     140.414  78.544 218.653 -0.08 -0.03    +0.080 C  
DOCKED: ATOM      8  C   UNL     1     139.461  79.170 219.660 -0.07 -0.03    +0.091 C  
DOCKED: BRANCH   6   9
DOCKED: ATOM      9  C   UNL     1     140.707  79.182 221.810 -0.22 -0.06    +0.197 A  
DOCKED: ATOM     10  N   UNL     1     141.034  80.469 221.505 -0.18 +0.07    -0.232 NA 
DOCKED: ATOM     11  N   UNL     1     141.223  78.604 222.928 -0.31 +0.08    -0.232 NA 
DOCKED: ATOM     12  C   UNL     1     141.888  81.179 222.286 -0.39 -0.04    +0.154 A  
DOCKED: ATOM     13  C   UNL     1     142.080  79.282 223.736 -0.47 -0.05    +0.154 A  
DOCKED: ATOM     14  C   UNL     1     142.431  80.596 223.429 -0.53 -0.04    +0.159 A  
DOCKED: ATOM     15  F   UNL     1     143.285  81.289 224.222 -0.16 +0.03    -0.204 F  
DOCKED: ENDBRANCH   6   9
DOCKED: ENDBRANCH   1   4
DOCKED: BRANCH   1  16
DOCKED: ATOM     16  C   UNL     1     139.485  74.796 220.985 -0.13 -0.06    +0.269 C  
DOCKED: BRANCH  16  17
DOCKED: ATOM     17  N   UNL     1     139.544  73.818 222.067 -0.14 +0.06    -0.337 N  
DOCKED: ATOM     18  C   UNL     1     139.413  72.405 221.844 -0.15 -0.05    +0.270 C  
DOCKED: ATOM     19  H   UNL     1     139.651  74.179 223.041 -0.45 -0.00    +0.164 HD 
DOCKED: ATOM     20  O   UNL     1     139.201  71.970 220.680 -0.04 +0.05    -0.268 OA 
DOCKED: BRANCH  18  21
DOCKED: ATOM     21  C   UNL     1     139.540  71.457 222.972 -0.26 -0.03    +0.128 A  
DOCKED: ATOM     22  N   UNL     1     140.118  71.868 224.134 -0.26 +0.05    -0.243 NA 
DOCKED: ATOM     23  C   UNL     1     139.096  70.128 222.855 -0.21 -0.01    +0.035 A  
DOCKED: ATOM     24  C   UNL     1     140.289  71.034 225.194 -0.48 -0.01    +0.071 A  
DOCKED: ATOM     25  C   UNL     1     139.261  69.247 223.926 -0.29 -0.00    +0.013 A  
DOCKED: ATOM     26  C   UNL     1     140.902  71.500 226.361 -0.66 -0.00    +0.030 A  
DOCKED: ATOM     27  C   UNL     1     139.863  69.691 225.108 -0.41 -0.00    +0.002 A  
DOCKED: ATOM     28  C   UNL     1     141.092  70.635 227.444 -0.61 -0.00    +0.023 A  
DOCKED: ATOM     29  C   UNL     1     140.056  68.829 226.198 -0.52 -0.01    +0.030 A  
DOCKED: ATOM     30  C   UNL     1     140.670  69.303 227.364 -0.58 -0.01    +0.041 A  
DOCKED: ATOM     31  Cl  UNL     1     140.913  68.224 228.725 -0.68 +0.02    -0.084 Cl 
DOCKED: ENDBRANCH  18  21
DOCKED: ENDBRANCH  16  17
DOCKED: ENDBRANCH   1  16
DOCKED: TORSDOF 6
DOCKED: TER
DOCKED: ENDMDL
________________________________________________________________________________


    FINAL DOCKED STATE:
    ________________________


Run:   15 / 20
Time taken for this run:   0.047s

DOCKED: MODEL        15
DOCKED: USER    Run = 15
DOCKED: USER
DOCKED: USER    Estimated Free Energy of Binding    =  -8.03 kcal/mol  [=(1)+(2)+(3)-(4)]
DOCKED: USER
DOCKED: USER    (1) Final Intermolecular Energy     =  -9.82 kcal/mol
DOCKED: USER        vdW + Hbond + desolv Energy     =  -9.38 kcal/mol
DOCKED: USER        Electrostatic Energy            =  -0.44 kcal/mol
DOCKED: USER        Moving Ligand-Fixed Receptor    =  -9.82 kcal/mol
DOCKED: USER        Moving Ligand-Moving Receptor   =  +0.00 kcal/mol
DOCKED: USER    (2) Final Total Internal Energy     =  -1.89 kcal/mol
DOCKED: USER    (3) Torsional Free Energy           =  +1.79 kcal/mol
DOCKED: USER    (4) Unbound System's Energy         =  -1.89 kcal/mol
DOCKED: USER
DOCKED: USER
DOCKED: REMARK SMILES O=C(NC/C(O)=[N+]1/CCC[C@@H]1c1ncc(F)cn1)c1ccc2cc(Cl)ccc2n1
DOCKED: REMARK SMILES IDX 5 1 6 2 7 4 8 5 11 6 9 7 10 8 12 9 13 10 18 11 14 12 17 13
DOCKED: REMARK SMILES IDX 15 14 16 15 4 16 3 17 2 18 1 20 19 21 29 22 20 23 28 24
DOCKED: REMARK SMILES IDX 21 25 27 26 22 27 26 28 23 29 24 30 25 31
DOCKED: REMARK H PARENT 6 3 3 19
DOCKED: USER                              x       y       z     vdW  Elec       q    Type
DOCKED: USER                           _______ _______ _______ _____ _____    ______ ____
DOCKED: ROOT
DOCKED: ATOM      1  C   UNL     1     141.203  75.602 220.697 -0.14 -0.12    +0.354 C  
DOCKED: ENDROOT
DOCKED: BRANCH   1   2
DOCKED: ATOM      2  O   UNL     1     142.158  74.652 221.077 -0.14 +0.14    -0.462 OA 
DOCKED: ATOM      3  H   UNL     1     142.054  73.658 220.926 +0.12 -0.05    +0.299 HD 
DOCKED: ENDBRANCH   1   2
DOCKED: BRANCH   1   4
DOCKED: ATOM      4  N   UNL     1     141.546  76.668 220.003 -0.15 +0.09    -0.191 N  
DOCKED: ATOM      5  C   UNL     1     142.537  76.636 218.931 -0.17 -0.20    +0.355 C  
DOCKED: ATOM      6  C   UNL     1     140.945  78.000 220.134 -0.10 -0.14    +0.332 C  
DOCKED: ATOM      7  C   UNL     1     142.578  78.042 218.343 -0.29 -0.06    +0.080 C  
DOCKED: ATOM      8  C   UNL     1     141.313  78.726 218.842 -0.18 -0.05    +0.091 C  
DOCKED: BRANCH   6   9
DOCKED: ATOM      9  C   UNL     1     141.517  78.737 221.318 -0.26 -0.10    +0.197 A  
DOCKED: ATOM     10  N   UNL     1     142.098  79.959 221.159 -0.23 +0.11    -0.232 NA 
DOCKED: ATOM     11  N   UNL     1     141.381  78.215 222.567 -0.29 +0.10    -0.232 NA 
DOCKED: ATOM     12  C   UNL     1     142.568  80.656 222.225 -0.40 -0.05    +0.154 A  
DOCKED: ATOM     13  C   UNL     1     141.836  78.882 223.660 -0.49 -0.05    +0.154 A  
DOCKED: ATOM     14  C   UNL     1     142.442  80.129 223.509 -0.53 -0.04    +0.159 A  
DOCKED: ATOM     15  F   UNL     1     142.904  80.810 224.586 -0.16 +0.03    -0.204 F  
DOCKED: ENDBRANCH   6   9
DOCKED: ENDBRANCH   1   4
DOCKED: BRANCH   1  16
DOCKED: ATOM     16  C   UNL     1     139.778  75.322 221.110 -0.16 -0.06    +0.269 C  
DOCKED: BRANCH  16  17
DOCKED: ATOM     17  N   UNL     1     139.711  74.294 222.145 -0.10 +0.04    -0.337 N  
DOCKED: ATOM     18  C   UNL     1     139.973  72.907 221.879 -0.19 -0.04    +0.270 C  
DOCKED: ATOM     19  H   UNL     1     139.426  74.591 223.104 -0.53 -0.02    +0.164 HD 
DOCKED: ATOM     20  O   UNL     1     140.237  72.531 220.704 -0.08 +0.04    -0.268 OA 
DOCKED: BRANCH  18  21
DOCKED: ATOM     21  C   UNL     1     139.949  71.918 222.979 -0.29 -0.02    +0.128 A  
DOCKED: ATOM     22  N   UNL     1     140.428  72.266 224.205 -0.10 +0.03    -0.243 NA 
DOCKED: ATOM     23  C   UNL     1     139.462  70.617 222.772 -0.23 -0.01    +0.035 A  
DOCKED: ATOM     24  C   UNL     1     140.458  71.392 225.246 -0.49 -0.01    +0.071 A  
DOCKED: ATOM     25  C   UNL     1     139.483  69.695 223.822 -0.28 -0.00    +0.013 A  
DOCKED: ATOM     26  C   UNL     1     140.974  71.792 226.483 -0.68 -0.00    +0.030 A  
DOCKED: ATOM     27  C   UNL     1     139.986  70.074 225.071 -0.43 -0.00    +0.002 A  
DOCKED: ATOM     28  C   UNL     1     141.020  70.885 227.547 -0.67 -0.00    +0.023 A  
DOCKED: ATOM     29  C   UNL     1     140.033  69.170 226.143 -0.49 -0.01    +0.030 A  
DOCKED: ATOM     30  C   UNL     1     140.550  69.578 227.379 -0.57 -0.01    +0.041 A  
DOCKED: ATOM     31  Cl  UNL     1     140.613  68.446 228.718 -0.68 +0.02    -0.084 Cl 
DOCKED: ENDBRANCH  18  21
DOCKED: ENDBRANCH  16  17
DOCKED: ENDBRANCH   1  16
DOCKED: TORSDOF 6
DOCKED: TER
DOCKED: ENDMDL
________________________________________________________________________________


    FINAL DOCKED STATE:
    ________________________


Run:   16 / 20
Time taken for this run:   0.047s

DOCKED: MODEL        16
DOCKED: USER    Run = 16
DOCKED: USER
DOCKED: USER    Estimated Free Energy of Binding    =  -8.46 kcal/mol  [=(1)+(2)+(3)-(4)]
DOCKED: USER
DOCKED: USER    (1) Final Intermolecular Energy     = -10.25 kcal/mol
DOCKED: USER        vdW + Hbond + desolv Energy     =  -9.68 kcal/mol
DOCKED: USER        Electrostatic Energy            =  -0.57 kcal/mol
DOCKED: USER        Moving Ligand-Fixed Receptor    = -10.25 kcal/mol
DOCKED: USER        Moving Ligand-Moving Receptor   =  +0.00 kcal/mol
DOCKED: USER    (2) Final Total Internal Energy     =  -1.69 kcal/mol
DOCKED: USER    (3) Torsional Free Energy           =  +1.79 kcal/mol
DOCKED: USER    (4) Unbound System's Energy         =  -1.69 kcal/mol
DOCKED: USER
DOCKED: USER
DOCKED: REMARK SMILES O=C(NC/C(O)=[N+]1/CCC[C@@H]1c1ncc(F)cn1)c1ccc2cc(Cl)ccc2n1
DOCKED: REMARK SMILES IDX 5 1 6 2 7 4 8 5 11 6 9 7 10 8 12 9 13 10 18 11 14 12 17 13
DOCKED: REMARK SMILES IDX 15 14 16 15 4 16 3 17 2 18 1 20 19 21 29 22 20 23 28 24
DOCKED: REMARK SMILES IDX 21 25 27 26 22 27 26 28 23 29 24 30 25 31
DOCKED: REMARK H PARENT 6 3 3 19
DOCKED: USER                              x       y       z     vdW  Elec       q    Type
DOCKED: USER                           _______ _______ _______ _____ _____    ______ ____
DOCKED: ROOT
DOCKED: ATOM      1  C   UNL     1     140.624  76.039 221.217 -0.17 -0.11    +0.354 C  
DOCKED: ENDROOT
DOCKED: BRANCH   1   2
DOCKED: ATOM      2  O   UNL     1     141.417  75.747 222.333 -0.16 +0.14    -0.462 OA 
DOCKED: ATOM      3  H   UNL     1     142.001  76.427 222.802 -0.36 -0.22    +0.299 HD 
DOCKED: ENDBRANCH   1   2
DOCKED: BRANCH   1   4
DOCKED: ATOM      4  N   UNL     1     140.938  77.023 220.401 -0.13 +0.08    -0.191 N  
DOCKED: ATOM      5  C   UNL     1     141.813  76.851 219.245 -0.12 -0.18    +0.355 C  
DOCKED: ATOM      6  C   UNL     1     140.407  78.389 220.468 -0.08 -0.12    +0.332 C  
DOCKED: ATOM      7  C   UNL     1     141.851  78.198 218.531 -0.23 -0.05    +0.080 C  
DOCKED: ATOM      8  C   UNL     1     140.672  78.983 219.087 -0.12 -0.04    +0.091 C  
DOCKED: BRANCH   6   9
DOCKED: ATOM      9  C   UNL     1     141.126  79.196 221.521 -0.24 -0.08    +0.197 A  
DOCKED: ATOM     10  N   UNL     1     141.240  80.549 221.398 -0.20 +0.07    -0.232 NA 
DOCKED: ATOM     11  N   UNL     1     141.594  78.580 222.640 -0.30 +0.10    -0.232 NA 
DOCKED: ATOM     12  C   UNL     1     141.836  81.292 222.366 -0.40 -0.03    +0.154 A  
DOCKED: ATOM     13  C   UNL     1     142.195  79.289 223.631 -0.48 -0.05    +0.154 A  
DOCKED: ATOM     14  C   UNL     1     142.327  80.672 223.513 -0.52 -0.03    +0.159 A  
DOCKED: ATOM     15  F   UNL     1     142.926  81.397 224.490 -0.17 +0.02    -0.204 F  
DOCKED: ENDBRANCH   6   9
DOCKED: ENDBRANCH   1   4
DOCKED: BRANCH   1  16
DOCKED: ATOM     16  C   UNL     1     139.417  75.157 221.005 -0.13 -0.06    +0.269 C  
DOCKED: BRANCH  16  17
DOCKED: ATOM     17  N   UNL     1     139.341  74.100 222.010 -0.14 +0.07    -0.337 N  
DOCKED: ATOM     18  C   UNL     1     140.192  72.943 221.985 -0.20 -0.03    +0.270 C  
DOCKED: ATOM     19  H   UNL     1     138.610  74.187 222.750 -0.56 -0.08    +0.164 HD 
DOCKED: ATOM     20  O   UNL     1     141.020  72.793 221.046 -0.16 +0.04    -0.268 OA 
DOCKED: BRANCH  18  21
DOCKED: ATOM     21  C   UNL     1     140.111  71.933 223.062 -0.30 -0.02    +0.128 A  
DOCKED: ATOM     22  N   UNL     1     140.596  72.230 224.299 -0.05 +0.03    -0.243 NA 
DOCKED: ATOM     23  C   UNL     1     139.563  70.661 222.823 -0.24 -0.01    +0.035 A  
DOCKED: ATOM     24  C   UNL     1     140.576  71.334 225.321 -0.51 -0.01    +0.071 A  
DOCKED: ATOM     25  C   UNL     1     139.531  69.718 223.853 -0.28 -0.00    +0.013 A  
DOCKED: ATOM     26  C   UNL     1     141.100  71.681 226.570 -0.70 -0.00    +0.030 A  
DOCKED: ATOM     27  C   UNL     1     140.041  70.044 225.114 -0.44 -0.00    +0.002 A  
DOCKED: ATOM     28  C   UNL     1     141.094  70.750 227.614 -0.63 -0.00    +0.023 A  
DOCKED: ATOM     29  C   UNL     1     140.037  69.116 226.166 -0.50 -0.01    +0.030 A  
DOCKED: ATOM     30  C   UNL     1     140.563  69.471 227.414 -0.57 -0.01    +0.041 A  
DOCKED: ATOM     31  Cl  UNL     1     140.560  68.309 228.728 -0.61 +0.02    -0.084 Cl 
DOCKED: ENDBRANCH  18  21
DOCKED: ENDBRANCH  16  17
DOCKED: ENDBRANCH   1  16
DOCKED: TORSDOF 6
DOCKED: TER
DOCKED: ENDMDL
________________________________________________________________________________


    FINAL DOCKED STATE:
    ________________________


Run:   17 / 20
Time taken for this run:   0.047s

DOCKED: MODEL        17
DOCKED: USER    Run = 17
DOCKED: USER
DOCKED: USER    Estimated Free Energy of Binding    =  -8.39 kcal/mol  [=(1)+(2)+(3)-(4)]
DOCKED: USER
DOCKED: USER    (1) Final Intermolecular Energy     = -10.18 kcal/mol
DOCKED: USER        vdW + Hbond + desolv Energy     =  -9.77 kcal/mol
DOCKED: USER        Electrostatic Energy            =  -0.41 kcal/mol
DOCKED: USER        Moving Ligand-Fixed Receptor    = -10.18 kcal/mol
DOCKED: USER        Moving Ligand-Moving Receptor   =  +0.00 kcal/mol
DOCKED: USER    (2) Final Total Internal Energy     =  -1.38 kcal/mol
DOCKED: USER    (3) Torsional Free Energy           =  +1.79 kcal/mol
DOCKED: USER    (4) Unbound System's Energy         =  -1.38 kcal/mol
DOCKED: USER
DOCKED: USER
DOCKED: REMARK SMILES O=C(NC/C(O)=[N+]1/CCC[C@@H]1c1ncc(F)cn1)c1ccc2cc(Cl)ccc2n1
DOCKED: REMARK SMILES IDX 5 1 6 2 7 4 8 5 11 6 9 7 10 8 12 9 13 10 18 11 14 12 17 13
DOCKED: REMARK SMILES IDX 15 14 16 15 4 16 3 17 2 18 1 20 19 21 29 22 20 23 28 24
DOCKED: REMARK SMILES IDX 21 25 27 26 22 27 26 28 23 29 24 30 25 31
DOCKED: REMARK H PARENT 6 3 3 19
DOCKED: USER                              x       y       z     vdW  Elec       q    Type
DOCKED: USER                           _______ _______ _______ _____ _____    ______ ____
DOCKED: ROOT
DOCKED: ATOM      1  C   UNL     1     140.004  75.775 221.533 -0.18 -0.08    +0.354 C  
DOCKED: ENDROOT
DOCKED: BRANCH   1   2
DOCKED: ATOM      2  O   UNL     1     139.563  76.370 222.721 -0.21 +0.08    -0.462 OA 
DOCKED: ATOM      3  H   UNL     1     139.106  75.864 223.468 -0.18 -0.05    +0.299 HD 
DOCKED: ENDBRANCH   1   2
DOCKED: BRANCH   1   4
DOCKED: ATOM      4  N   UNL     1     140.930  76.348 220.792 -0.17 +0.07    -0.191 N  
DOCKED: ATOM      5  C   UNL     1     142.055  75.616 220.216 -0.14 -0.16    +0.355 C  
DOCKED: ATOM      6  C   UNL     1     140.933  77.751 220.366 -0.11 -0.14    +0.332 C  
DOCKED: ATOM      7  C   UNL     1     142.833  76.620 219.373 -0.33 -0.05    +0.080 C  
DOCKED: ATOM      8  C   UNL     1     141.891  77.800 219.178 -0.24 -0.05    +0.091 C  
DOCKED: BRANCH   6   9
DOCKED: ATOM      9  C   UNL     1     141.436  78.649 221.468 -0.27 -0.09    +0.197 A  
DOCKED: ATOM     10  N   UNL     1     141.810  79.931 221.201 -0.23 +0.10    -0.232 NA 
DOCKED: ATOM     11  N   UNL     1     141.440  78.201 222.753 -0.31 +0.10    -0.232 NA 
DOCKED: ATOM     12  C   UNL     1     142.212  80.766 222.194 -0.41 -0.05    +0.154 A  
DOCKED: ATOM     13  C   UNL     1     141.834  79.005 223.775 -0.50 -0.05    +0.154 A  
DOCKED: ATOM     14  C   UNL     1     142.229  80.317 223.513 -0.52 -0.04    +0.159 A  
DOCKED: ATOM     15  F   UNL     1     142.627  81.135 224.518 -0.17 +0.03    -0.204 F  
DOCKED: ENDBRANCH   6   9
DOCKED: ENDBRANCH   1   4
DOCKED: BRANCH   1  16
DOCKED: ATOM     16  C   UNL     1     139.374  74.451 221.174 -0.14 -0.06    +0.269 C  
DOCKED: BRANCH  16  17
DOCKED: ATOM     17  N   UNL     1     139.458  73.499 222.278 -0.12 +0.07    -0.337 N  
DOCKED: ATOM     18  C   UNL     1     139.402  72.077 222.082 -0.16 -0.05    +0.270 C  
DOCKED: ATOM     19  H   UNL     1     139.525  73.884 223.246 -0.49 -0.03    +0.164 HD 
DOCKED: ATOM     20  O   UNL     1     139.237  71.609 220.922 -0.05 +0.05    -0.268 OA 
DOCKED: BRANCH  18  21
DOCKED: ATOM     21  C   UNL     1     139.551  71.159 223.231 -0.27 -0.02    +0.128 A  
DOCKED: ATOM     22  N   UNL     1     140.105  71.615 224.388 -0.27 +0.05    -0.243 NA 
DOCKED: ATOM     23  C   UNL     1     139.152  69.814 223.141 -0.23 -0.01    +0.035 A  
DOCKED: ATOM     24  C   UNL     1     140.295  70.811 225.467 -0.49 -0.01    +0.071 A  
DOCKED: ATOM     25  C   UNL     1     139.337  68.963 224.233 -0.29 -0.00    +0.013 A  
DOCKED: ATOM     26  C   UNL     1     140.883  71.323 226.629 -0.67 -0.00    +0.030 A  
DOCKED: ATOM     27  C   UNL     1     139.915  69.453 225.409 -0.44 -0.00    +0.002 A  
DOCKED: ATOM     28  C   UNL     1     141.093  70.489 227.732 -0.60 -0.00    +0.023 A  
DOCKED: ATOM     29  C   UNL     1     140.126  68.622 226.519 -0.57 -0.01    +0.030 A  
DOCKED: ATOM     30  C   UNL     1     140.715  69.142 227.679 -0.60 -0.01    +0.041 A  
DOCKED: ATOM     31  Cl  UNL     1     140.982  68.102 229.066 -0.40 +0.02    -0.084 Cl 
DOCKED: ENDBRANCH  18  21
DOCKED: ENDBRANCH  16  17
DOCKED: ENDBRANCH   1  16
DOCKED: TORSDOF 6
DOCKED: TER
DOCKED: ENDMDL
________________________________________________________________________________


    FINAL DOCKED STATE:
    ________________________


Run:   18 / 20
Time taken for this run:   0.047s

DOCKED: MODEL        18
DOCKED: USER    Run = 18
DOCKED: USER
DOCKED: USER    Estimated Free Energy of Binding    =  -8.22 kcal/mol  [=(1)+(2)+(3)-(4)]
DOCKED: USER
DOCKED: USER    (1) Final Intermolecular Energy     = -10.01 kcal/mol
DOCKED: USER        vdW + Hbond + desolv Energy     =  -9.64 kcal/mol
DOCKED: USER        Electrostatic Energy            =  -0.37 kcal/mol
DOCKED: USER        Moving Ligand-Fixed Receptor    = -10.01 kcal/mol
DOCKED: USER        Moving Ligand-Moving Receptor   =  +0.00 kcal/mol
DOCKED: USER    (2) Final Total Internal Energy     =  -1.57 kcal/mol
DOCKED: USER    (3) Torsional Free Energy           =  +1.79 kcal/mol
DOCKED: USER    (4) Unbound System's Energy         =  -1.57 kcal/mol
DOCKED: USER
DOCKED: USER
DOCKED: REMARK SMILES O=C(NC/C(O)=[N+]1/CCC[C@@H]1c1ncc(F)cn1)c1ccc2cc(Cl)ccc2n1
DOCKED: REMARK SMILES IDX 5 1 6 2 7 4 8 5 11 6 9 7 10 8 12 9 13 10 18 11 14 12 17 13
DOCKED: REMARK SMILES IDX 15 14 16 15 4 16 3 17 2 18 1 20 19 21 29 22 20 23 28 24
DOCKED: REMARK SMILES IDX 21 25 27 26 22 27 26 28 23 29 24 30 25 31
DOCKED: REMARK H PARENT 6 3 3 19
DOCKED: USER                              x       y       z     vdW  Elec       q    Type
DOCKED: USER                           _______ _______ _______ _____ _____    ______ ____
DOCKED: ROOT
DOCKED: ATOM      1  C   UNL     1     139.666  76.115 221.663 -0.18 -0.08    +0.354 C  
DOCKED: ENDROOT
DOCKED: BRANCH   1   2
DOCKED: ATOM      2  O   UNL     1     140.879  75.899 222.327 -0.31 +0.11    -0.462 OA 
DOCKED: ATOM      3  H   UNL     1     141.742  76.371 222.092 -0.38 -0.18    +0.299 HD 
DOCKED: ENDBRANCH   1   2
DOCKED: BRANCH   1   4
DOCKED: ATOM      4  N   UNL     1     139.193  77.332 221.495 -0.12 +0.04    -0.191 N  
DOCKED: ATOM      5  C   UNL     1     138.747  77.843 220.202 -0.01 -0.09    +0.355 C  
DOCKED: ATOM      6  C   UNL     1     138.964  78.312 222.563 -0.15 -0.06    +0.332 C  
DOCKED: ATOM      7  C   UNL     1     138.204  79.244 220.458 -0.06 -0.02    +0.080 C  
DOCKED: ATOM      8  C   UNL     1     137.994  79.328 221.963 -0.15 -0.02    +0.091 C  
DOCKED: BRANCH   6   9
DOCKED: ATOM      9  C   UNL     1     140.250  78.998 222.952 -0.30 -0.04    +0.197 A  
DOCKED: ATOM     10  N   UNL     1     141.453  78.436 222.648 -0.30 +0.10    -0.232 NA 
DOCKED: ATOM     11  N   UNL     1     140.209  80.225 223.538 -0.27 +0.04    -0.232 NA 
DOCKED: ATOM     12  C   UNL     1     142.617  79.070 222.944 -0.35 -0.08    +0.154 A  
DOCKED: ATOM     13  C   UNL     1     141.351  80.892 223.849 -0.40 -0.02    +0.154 A  
DOCKED: ATOM     14  C   UNL     1     142.589  80.323 223.553 -0.54 -0.04    +0.159 A  
DOCKED: ATOM     15  F   UNL     1     143.740  80.972 223.857 -0.16 +0.04    -0.204 F  
DOCKED: ENDBRANCH   6   9
DOCKED: ENDBRANCH   1   4
DOCKED: BRANCH   1  16
DOCKED: ATOM     16  C   UNL     1     138.959  74.886 221.145 -0.13 -0.06    +0.269 C  
DOCKED: BRANCH  16  17
DOCKED: ATOM     17  N   UNL     1     138.966  73.807 222.129 -0.08 +0.09    -0.337 N  
DOCKED: ATOM     18  C   UNL     1     140.082  72.918 222.297 -0.18 -0.03    +0.270 C  
DOCKED: ATOM     19  H   UNL     1     138.104  73.668 222.701 -0.52 -0.08    +0.164 HD 
DOCKED: ATOM     20  O   UNL     1     141.093  73.031 221.551 -0.27 +0.03    -0.268 OA 
DOCKED: BRANCH  18  21
DOCKED: ATOM     21  C   UNL     1     140.057  71.880 223.350 -0.31 -0.02    +0.128 A  
DOCKED: ATOM     22  N   UNL     1     140.532  72.172 224.592 -0.02 +0.04    -0.243 NA 
DOCKED: ATOM     23  C   UNL     1     139.573  70.588 223.083 -0.26 -0.01    +0.035 A  
DOCKED: ATOM     24  C   UNL     1     140.563  71.252 225.592 -0.53 -0.01    +0.071 A  
DOCKED: ATOM     25  C   UNL     1     139.594  69.620 224.090 -0.30 -0.00    +0.013 A  
DOCKED: ATOM     26  C   UNL     1     141.075  71.595 226.847 -0.73 -0.00    +0.030 A  
DOCKED: ATOM     27  C   UNL     1     140.093  69.942 225.356 -0.45 -0.00    +0.002 A  
DOCKED: ATOM     28  C   UNL     1     141.121  70.641 227.869 -0.61 -0.00    +0.023 A  
DOCKED: ATOM     29  C   UNL     1     140.141  68.990 226.386 -0.53 -0.01    +0.030 A  
DOCKED: ATOM     30  C   UNL     1     140.654  69.341 227.640 -0.59 -0.01    +0.041 A  
DOCKED: ATOM     31  Cl  UNL     1     140.716  68.150 228.926 -0.47 +0.02    -0.084 Cl 
DOCKED: ENDBRANCH  18  21
DOCKED: ENDBRANCH  16  17
DOCKED: ENDBRANCH   1  16
DOCKED: TORSDOF 6
DOCKED: TER
DOCKED: ENDMDL
________________________________________________________________________________


    FINAL DOCKED STATE:
    ________________________


Run:   19 / 20
Time taken for this run:   0.047s

DOCKED: MODEL        19
DOCKED: USER    Run = 19
DOCKED: USER
DOCKED: USER    Estimated Free Energy of Binding    =  -7.99 kcal/mol  [=(1)+(2)+(3)-(4)]
DOCKED: USER
DOCKED: USER    (1) Final Intermolecular Energy     =  -9.78 kcal/mol
DOCKED: USER        vdW + Hbond + desolv Energy     =  -9.34 kcal/mol
DOCKED: USER        Electrostatic Energy            =  -0.44 kcal/mol
DOCKED: USER        Moving Ligand-Fixed Receptor    =  -9.78 kcal/mol
DOCKED: USER        Moving Ligand-Moving Receptor   =  +0.00 kcal/mol
DOCKED: USER    (2) Final Total Internal Energy     =  -1.93 kcal/mol
DOCKED: USER    (3) Torsional Free Energy           =  +1.79 kcal/mol
DOCKED: USER    (4) Unbound System's Energy         =  -1.93 kcal/mol
DOCKED: USER
DOCKED: USER
DOCKED: REMARK SMILES O=C(NC/C(O)=[N+]1/CCC[C@@H]1c1ncc(F)cn1)c1ccc2cc(Cl)ccc2n1
DOCKED: REMARK SMILES IDX 5 1 6 2 7 4 8 5 11 6 9 7 10 8 12 9 13 10 18 11 14 12 17 13
DOCKED: REMARK SMILES IDX 15 14 16 15 4 16 3 17 2 18 1 20 19 21 29 22 20 23 28 24
DOCKED: REMARK SMILES IDX 21 25 27 26 22 27 26 28 23 29 24 30 25 31
DOCKED: REMARK H PARENT 6 3 3 19
DOCKED: USER                              x       y       z     vdW  Elec       q    Type
DOCKED: USER                           _______ _______ _______ _____ _____    ______ ____
DOCKED: ROOT
DOCKED: ATOM      1  C   UNL     1     141.209  75.529 220.597 -0.13 -0.12    +0.354 C  
DOCKED: ENDROOT
DOCKED: BRANCH   1   2
DOCKED: ATOM      2  O   UNL     1     142.120  74.498 220.853 -0.14 +0.13    -0.462 OA 
DOCKED: ATOM      3  H   UNL     1     141.926  73.520 220.681 +0.11 -0.05    +0.299 HD 
DOCKED: ENDBRANCH   1   2
DOCKED: BRANCH   1   4
DOCKED: ATOM      4  N   UNL     1     141.576  76.611 219.942 -0.15 +0.09    -0.191 N  
DOCKED: ATOM      5  C   UNL     1     142.633  76.612 218.934 -0.17 -0.20    +0.355 C  
DOCKED: ATOM      6  C   UNL     1     140.945  77.930 220.053 -0.10 -0.14    +0.332 C  
DOCKED: ATOM      7  C   UNL     1     142.686  78.027 218.370 -0.27 -0.06    +0.080 C  
DOCKED: ATOM      8  C   UNL     1     141.380  78.682 218.797 -0.18 -0.05    +0.091 C  
DOCKED: BRANCH   6   9
DOCKED: ATOM      9  C   UNL     1     141.429  78.659 221.282 -0.25 -0.10    +0.197 A  
DOCKED: ATOM     10  N   UNL     1     141.339  78.079 222.511 -0.28 +0.10    -0.232 NA 
DOCKED: ATOM     11  N   UNL     1     142.032  79.872 221.153 -0.22 +0.11    -0.232 NA 
DOCKED: ATOM     12  C   UNL     1     141.821  78.702 223.617 -0.49 -0.05    +0.154 A  
DOCKED: ATOM     13  C   UNL     1     142.528  80.526 222.235 -0.43 -0.05    +0.154 A  
DOCKED: ATOM     14  C   UNL     1     142.433  79.948 223.500 -0.52 -0.04    +0.159 A  
DOCKED: ATOM     15  F   UNL     1     142.921  80.586 224.592 -0.14 +0.03    -0.204 F  
DOCKED: ENDBRANCH   6   9
DOCKED: ENDBRANCH   1   4
DOCKED: BRANCH   1  16
DOCKED: ATOM     16  C   UNL     1     139.800  75.317 221.096 -0.16 -0.06    +0.269 C  
DOCKED: BRANCH  16  17
DOCKED: ATOM     17  N   UNL     1     139.748  74.295 222.138 -0.10 +0.04    -0.337 N  
DOCKED: ATOM     18  C   UNL     1     139.917  72.895 221.862 -0.19 -0.04    +0.270 C  
DOCKED: ATOM     19  H   UNL     1     139.543  74.607 223.113 -0.52 -0.01    +0.164 HD 
DOCKED: ATOM     20  O   UNL     1     140.082  72.505 220.673 -0.07 +0.05    -0.268 OA 
DOCKED: BRANCH  18  21
DOCKED: ATOM     21  C   UNL     1     139.913  71.911 222.965 -0.29 -0.02    +0.128 A  
DOCKED: ATOM     22  N   UNL     1     140.413  72.263 224.181 -0.11 +0.03    -0.243 NA 
DOCKED: ATOM     23  C   UNL     1     139.425  70.607 222.771 -0.23 -0.01    +0.035 A  
DOCKED: ATOM     24  C   UNL     1     140.463  71.393 225.224 -0.49 -0.01    +0.071 A  
DOCKED: ATOM     25  C   UNL     1     139.466  69.690 223.824 -0.28 -0.00    +0.013 A  
DOCKED: ATOM     26  C   UNL     1     140.999  71.798 226.451 -0.68 -0.00    +0.030 A  
DOCKED: ATOM     27  C   UNL     1     139.989  70.073 225.063 -0.43 -0.00    +0.002 A  
DOCKED: ATOM     28  C   UNL     1     141.066  70.895 227.517 -0.66 -0.00    +0.023 A  
DOCKED: ATOM     29  C   UNL     1     140.057  69.173 226.137 -0.49 -0.01    +0.030 A  
DOCKED: ATOM     30  C   UNL     1     140.595  69.586 227.362 -0.56 -0.01    +0.041 A  
DOCKED: ATOM     31  Cl  UNL     1     140.683  68.459 228.704 -0.70 +0.02    -0.084 Cl 
DOCKED: ENDBRANCH  18  21
DOCKED: ENDBRANCH  16  17
DOCKED: ENDBRANCH   1  16
DOCKED: TORSDOF 6
DOCKED: TER
DOCKED: ENDMDL
________________________________________________________________________________


    FINAL DOCKED STATE:
    ________________________


Run:   20 / 20
Time taken for this run:   0.047s

DOCKED: MODEL        20
DOCKED: USER    Run = 20
DOCKED: USER
DOCKED: USER    Estimated Free Energy of Binding    =  -7.38 kcal/mol  [=(1)+(2)+(3)-(4)]
DOCKED: USER
DOCKED: USER    (1) Final Intermolecular Energy     =  -9.17 kcal/mol
DOCKED: USER        vdW + Hbond + desolv Energy     =  -8.81 kcal/mol
DOCKED: USER        Electrostatic Energy            =  -0.35 kcal/mol
DOCKED: USER        Moving Ligand-Fixed Receptor    =  -9.17 kcal/mol
DOCKED: USER        Moving Ligand-Moving Receptor   =  +0.00 kcal/mol
DOCKED: USER    (2) Final Total Internal Energy     =  -2.12 kcal/mol
DOCKED: USER    (3) Torsional Free Energy           =  +1.79 kcal/mol
DOCKED: USER    (4) Unbound System's Energy         =  -2.12 kcal/mol
DOCKED: USER
DOCKED: USER
DOCKED: REMARK SMILES O=C(NC/C(O)=[N+]1/CCC[C@@H]1c1ncc(F)cn1)c1ccc2cc(Cl)ccc2n1
DOCKED: REMARK SMILES IDX 5 1 6 2 7 4 8 5 11 6 9 7 10 8 12 9 13 10 18 11 14 12 17 13
DOCKED: REMARK SMILES IDX 15 14 16 15 4 16 3 17 2 18 1 20 19 21 29 22 20 23 28 24
DOCKED: REMARK SMILES IDX 21 25 27 26 22 27 26 28 23 29 24 30 25 31
DOCKED: REMARK H PARENT 6 3 3 19
DOCKED: USER                              x       y       z     vdW  Elec       q    Type
DOCKED: USER                           _______ _______ _______ _____ _____    ______ ____
DOCKED: ROOT
DOCKED: ATOM      1  C   UNL     1     140.226  74.596 220.042 -0.04 -0.08    +0.354 C  
DOCKED: ENDROOT
DOCKED: BRANCH   1   2
DOCKED: ATOM      2  O   UNL     1     139.743  73.808 218.990 +0.01 +0.10    -0.462 OA 
DOCKED: ATOM      3  H   UNL     1     139.198  72.967 219.122 +0.03 -0.06    +0.299 HD 
DOCKED: ENDBRANCH   1   2
DOCKED: BRANCH   1   4
DOCKED: ATOM      4  N   UNL     1     141.449  75.085 220.016 -0.12 +0.06    -0.191 N  
DOCKED: ATOM      5  C   UNL     1     142.634  74.282 220.303 -0.14 -0.11    +0.355 C  
DOCKED: ATOM      6  C   UNL     1     141.813  76.450 219.622 -0.13 -0.16    +0.332 C  
DOCKED: ATOM      7  C   UNL     1     143.834  75.197 220.086 -0.34 -0.04    +0.080 C  
DOCKED: ATOM      8  C   UNL     1     143.302  76.381 219.292 -0.35 -0.06    +0.091 C  
DOCKED: BRANCH   6   9
DOCKED: ATOM      9  C   UNL     1     141.581  77.419 220.754 -0.21 -0.11    +0.197 A  
DOCKED: ATOM     10  N   UNL     1     141.199  76.970 221.983 -0.19 +0.11    -0.232 NA 
DOCKED: ATOM     11  N   UNL     1     141.833  78.743 220.571 -0.19 +0.14    -0.232 NA 
DOCKED: ATOM     12  C   UNL     1     141.041  77.827 223.024 -0.34 -0.05    +0.154 A  
DOCKED: ATOM     13  C   UNL     1     141.688  79.632 221.588 -0.33 -0.07    +0.154 A  
DOCKED: ATOM     14  C   UNL     1     141.287  79.186 222.847 -0.40 -0.05    +0.159 A  
DOCKED: ATOM     15  F   UNL     1     141.135  80.058 223.874 -0.14 +0.04    -0.204 F  
DOCKED: ENDBRANCH   6   9
DOCKED: ENDBRANCH   1   4
DOCKED: BRANCH   1  16
DOCKED: ATOM     16  C   UNL     1     139.267  74.857 221.178 -0.14 -0.06    +0.269 C  
DOCKED: BRANCH  16  17
DOCKED: ATOM     17  N   UNL     1     139.397  73.855 222.232 -0.11 +0.07    -0.337 N  
DOCKED: ATOM     18  C   UNL     1     139.274  72.446 221.983 -0.16 -0.06    +0.270 C  
DOCKED: ATOM     19  H   UNL     1     139.551  74.195 223.207 -0.50 -0.02    +0.164 HD 
DOCKED: ATOM     20  O   UNL     1     139.005  72.034 220.821 -0.05 +0.05    -0.268 OA 
DOCKED: BRANCH  18  21
DOCKED: ATOM     21  C   UNL     1     139.474  71.473 223.079 -0.27 -0.03    +0.128 A  
DOCKED: ATOM     22  N   UNL     1     140.013  71.891 224.257 -0.24 +0.05    -0.243 NA 
DOCKED: ATOM     23  C   UNL     1     139.139  70.118 222.916 -0.21 -0.01    +0.035 A  
DOCKED: ATOM     24  C   UNL     1     140.248  71.039 225.290 -0.48 -0.01    +0.071 A  
DOCKED: ATOM     25  C   UNL     1     139.371  69.218 223.958 -0.27 -0.00    +0.013 A  
DOCKED: ATOM     26  C   UNL     1     140.818  71.513 226.476 -0.67 -0.00    +0.030 A  
DOCKED: ATOM     27  C   UNL     1     139.932  69.669 225.157 -0.42 -0.00    +0.002 A  
DOCKED: ATOM     28  C   UNL     1     141.074  70.630 227.530 -0.62 -0.00    +0.023 A  
DOCKED: ATOM     29  C   UNL     1     140.190  68.790 226.219 -0.53 -0.01    +0.030 A  
DOCKED: ATOM     30  C   UNL     1     140.761  69.272 227.404 -0.58 -0.01    +0.041 A  
DOCKED: ATOM     31  Cl  UNL     1     141.086  68.171 228.730 -0.69 +0.02    -0.084 Cl 
DOCKED: ENDBRANCH  18  21
DOCKED: ENDBRANCH  16  17
DOCKED: ENDBRANCH   1  16
DOCKED: TORSDOF 6
DOCKED: TER
DOCKED: ENDMDL
________________________________________________________________________________


    CLUSTERING HISTOGRAM
    ____________________


________________________________________________________________________________
     |           |     |           |     |
Clus | Lowest    | Run | Mean      | Num | Histogram
-ter | Binding   |     | Binding   | in  |
Rank | Energy    |     | Energy    | Clus|    5    10   15   20   25   30   35
_____|___________|_____|___________|_____|____:____|____:____|____:____|____:___
   1 |     -8.46 |  16 |     -7.92 |  20 |####################
_____|___________|_____|___________|_____|______________________________________


    RMSD TABLE
    __________


_______________________________________________________________________
     |      |      |           |         |                 |
Rank | Sub- | Run  | Binding   | Cluster | Reference       | Grep
     | Rank |      | Energy    | RMSD    | RMSD            | Pattern
_____|______|______|___________|_________|_________________|___________
   1      1     16       -8.46      0.00    272.83           RANKING
   1      2      2       -8.45      0.51    272.86           RANKING
   1      3     17       -8.39      0.96    272.77           RANKING
   1      4     18       -8.22      1.20    272.98           RANKING
   1      5      8       -8.21      1.26    272.87           RANKING
   1      6      4       -8.15      1.05    272.71           RANKING
   1      7     10       -8.11      0.81    272.78           RANKING
   1      8      7       -8.05      0.86    272.72           RANKING
   1      9      3       -8.03      0.90    272.70           RANKING
   1     10     15       -8.03      0.89    272.69           RANKING
   1     11      9       -8.00      0.96    272.65           RANKING
   1     12     19       -7.99      0.97    272.65           RANKING
   1     13      6       -7.92      0.78    272.84           RANKING
   1     14     14       -7.88      0.70    272.66           RANKING
   1     15      5       -7.83      1.42    272.67           RANKING
   1     16     20       -7.38      1.59    272.14           RANKING
   1     17      1       -7.33      1.62    272.12           RANKING
   1     18     11       -7.33      1.62    272.13           RANKING
   1     19     12       -7.32      1.51    272.59           RANKING
   1     20     13       -7.28      0.72    272.62           RANKING

Run time 0.901 sec
Idle time 0.000 sec
