AutoDock-GPU version: v1.6

**********************************************************
**    AutoDock-GPU AUTODOCKTOOLS-COMPATIBLE DLG FILE    **
**********************************************************


    DOCKING PARAMETERS
    ________________________


Ligand file:                               /home/a/REINVENT4/ReinventStudies/pleaseWork/justmol2mol_4_Compounds_ontop/graph-dock-8u2o5u/graph-DockGPU/node-autodockgpu/inputs/VGWTXNJVRNWNTI-STBRYRCPNA-N.pdbqt
Grid fld file:                             /home/a/REINVENT4/ReinventStudies/mols/Rad51/maps/rad51_receptor.maps.fld

Random seed:                               42
Number of runs:                            20
Number of energy evaluations:              1259779
Number of generations:                     42000
Size of population:                        150
Rate of crossover:                         80.000000%
Tournament selection probability limit:    60.000000%
Rate of mutation:                          2.000000%
Maximal allowed delta movement:            +/- 6.000000A
Maximal allowed delta angle:               +/- 90.000000

Rate of local search:                      100.000000%
Maximal number of local search iterations: 300
Rho lower bound:                           0.010000
Spread of local search delta movement:     2.000000A
Spread of local search delta angle:        74.999999
Limit of consecutive successes/failures:   4

Handle symmetry during clustering:         YES
RMSD tolerance:                            2.000000A

Program call in command line was:          /home/a/REINVENT4/ReinventStudies/adgpu-v1.6_linux_x64_cuda12_128wi --filelist batch.txt --heuristics 1 --nrun 20 --psize 150 --lsit 300 --seed 42 --heurmax 12000000 


    GRID PARAMETERS
    ________________________


Receptor name:                             rad51_receptor
Number of grid points (x, y, z):           53, 53, 53
Grid center (x, y, z):                     139.950000, 75.640000, 221.970000A
Grid size (x, y, z):                       19.500000, 19.500000, 19.500000A
Grid spacing:                              0.375000A


    LIGAND PARAMETERS
    ________________________


Ligand name:                               /home/a/REINVENT4/ReinventStudies/pleaseWork/justmol2mol_4_Compounds_ontop/graph-dock-8u2o5u/graph-DockGPU/node-autodockgpu/inputs/VGWTXNJVRNWNTI-STBRYRCPNA-N
Number of atoms:                           30
Number of rotatable bonds:                 7
Number of atom types:                      8


    DUMMY DATA (only for ADT-compatibility)
    ________________________


DPF> outlev 1
DPF> ga_run 20
DPF> fld /home/a/REINVENT4/ReinventStudies/mols/Rad51/maps/rad51_receptor.maps.fld
DPF> move /home/a/REINVENT4/ReinventStudies/pleaseWork/justmol2mol_4_Compounds_ontop/graph-dock-8u2o5u/graph-DockGPU/node-autodockgpu/inputs/VGWTXNJVRNWNTI-STBRYRCPNA-N.pdbqt


    COUNTER STATES
    ________________________


Number of energy evaluations performed:    1281184
Number of generations used:                62


    INPUT LIGAND PDBQT FILE:
    ________________________


INPUT-LIGAND-PDBQT: REMARK SMILES O=C(C/N=C(\O)c1ccc2cc(Cl)ccc2n1)N1CCC[C@@H]1c1ncc(F)cn1
INPUT-LIGAND-PDBQT: REMARK SMILES IDX 3 1 4 2 5 3 6 4 7 6 17 7 8 8 16 9 9 10 15 11 10 12 14 13
INPUT-LIGAND-PDBQT: REMARK SMILES IDX 11 14 12 15 13 16 2 17 1 18 18 19 19 20 22 21 20 22 21 23
INPUT-LIGAND-PDBQT: REMARK SMILES IDX 23 24 24 25 29 26 25 27 28 28 26 29 27 30
INPUT-LIGAND-PDBQT: REMARK H PARENT 6 5
INPUT-LIGAND-PDBQT: ROOT
INPUT-LIGAND-PDBQT: ATOM      1  C   UNL     1       1.200  -1.131   0.928  1.00  0.00     0.246 C 
INPUT-LIGAND-PDBQT: ENDROOT
INPUT-LIGAND-PDBQT: BRANCH   1   2
INPUT-LIGAND-PDBQT: ATOM      2  N   UNL     1      -0.214  -0.759   0.942  1.00  0.00    -0.240 NA
INPUT-LIGAND-PDBQT: BRANCH   2   3
INPUT-LIGAND-PDBQT: ATOM      3  C   UNL     1      -1.005  -0.725  -0.094  1.00  0.00     0.233 C 
INPUT-LIGAND-PDBQT: BRANCH   3   4
INPUT-LIGAND-PDBQT: ATOM      4  O   UNL     1      -0.554  -1.065  -1.374  1.00  0.00    -0.492 OA
INPUT-LIGAND-PDBQT: ATOM      5  H   UNL     1       0.395  -1.355  -1.571  1.00  0.00     0.295 HD
INPUT-LIGAND-PDBQT: ENDBRANCH   3   4
INPUT-LIGAND-PDBQT: BRANCH   3   6
INPUT-LIGAND-PDBQT: ATOM      6  C   UNL     1      -2.415  -0.321   0.067  1.00  0.00     0.125 A 
INPUT-LIGAND-PDBQT: ATOM      7  N   UNL     1      -3.224  -0.296  -1.029  1.00  0.00    -0.243 NA
INPUT-LIGAND-PDBQT: ATOM      8  C   UNL     1      -2.941   0.040   1.321  1.00  0.00     0.035 A 
INPUT-LIGAND-PDBQT: ATOM      9  C   UNL     1      -4.532   0.067  -0.956  1.00  0.00     0.071 A 
INPUT-LIGAND-PDBQT: ATOM     10  C   UNL     1      -4.282   0.417   1.427  1.00  0.00     0.013 A 
INPUT-LIGAND-PDBQT: ATOM     11  C   UNL     1      -5.324   0.078  -2.109  1.00  0.00     0.030 A 
INPUT-LIGAND-PDBQT: ATOM     12  C   UNL     1      -5.093   0.435   0.287  1.00  0.00     0.002 A 
INPUT-LIGAND-PDBQT: ATOM     13  C   UNL     1      -6.669   0.452  -2.031  1.00  0.00     0.023 A 
INPUT-LIGAND-PDBQT: ATOM     14  C   UNL     1      -6.443   0.809   0.358  1.00  0.00     0.030 A 
INPUT-LIGAND-PDBQT: ATOM     15  C   UNL     1      -7.229   0.817  -0.801  1.00  0.00     0.041 A 
INPUT-LIGAND-PDBQT: ATOM     16  Cl  UNL     1      -8.917   1.285  -0.711  1.00  0.00    -0.084 Cl
INPUT-LIGAND-PDBQT: ENDBRANCH   3   6
INPUT-LIGAND-PDBQT: ENDBRANCH   2   3
INPUT-LIGAND-PDBQT: ENDBRANCH   1   2
INPUT-LIGAND-PDBQT: BRANCH   1  17
INPUT-LIGAND-PDBQT: ATOM     17  C   UNL     1       2.032  -0.064   0.264  1.00  0.00     0.245 C 
INPUT-LIGAND-PDBQT: ATOM     18  O   UNL     1       1.718   1.146   0.432  1.00  0.00    -0.273 OA
INPUT-LIGAND-PDBQT: BRANCH  17  19
INPUT-LIGAND-PDBQT: ATOM     19  N   UNL     1       3.208  -0.393  -0.499  1.00  0.00    -0.331 N 
INPUT-LIGAND-PDBQT: ATOM     20  C   UNL     1       3.679  -1.749  -0.737  1.00  0.00     0.120 C 
INPUT-LIGAND-PDBQT: ATOM     21  C   UNL     1       4.035   0.609  -1.158  1.00  0.00     0.153 C 
INPUT-LIGAND-PDBQT: ATOM     22  C   UNL     1       4.988  -1.605  -1.503  1.00  0.00     0.024 C 
INPUT-LIGAND-PDBQT: ATOM     23  C   UNL     1       4.991  -0.181  -2.053  1.00  0.00     0.035 C 
INPUT-LIGAND-PDBQT: BRANCH  21  24
INPUT-LIGAND-PDBQT: ATOM     24  C   UNL     1       4.788   1.423  -0.140  1.00  0.00     0.150 A 
INPUT-LIGAND-PDBQT: ATOM     25  N   UNL     1       4.842   2.777  -0.259  1.00  0.00    -0.236 NA
INPUT-LIGAND-PDBQT: ATOM     26  N   UNL     1       5.440   0.808   0.886  1.00  0.00    -0.236 NA
INPUT-LIGAND-PDBQT: ATOM     27  C   UNL     1       5.528   3.532   0.637  1.00  0.00     0.154 A 
INPUT-LIGAND-PDBQT: ATOM     28  C   UNL     1       6.137   1.528   1.803  1.00  0.00     0.154 A 
INPUT-LIGAND-PDBQT: ATOM     29  C   UNL     1       6.194   2.917   1.697  1.00  0.00     0.159 A 
INPUT-LIGAND-PDBQT: ATOM     30  F   UNL     1       6.885   3.653   2.602  1.00  0.00    -0.204 F 
INPUT-LIGAND-PDBQT: ENDBRANCH  21  24
INPUT-LIGAND-PDBQT: ENDBRANCH  17  19
INPUT-LIGAND-PDBQT: ENDBRANCH   1  17
INPUT-LIGAND-PDBQT: TORSDOF 7


    FINAL DOCKED STATE:
    ________________________


Run:   1 / 20
Time taken for this run:   0.051s

DOCKED: MODEL        1
DOCKED: USER    Run = 1
DOCKED: USER
DOCKED: USER    Estimated Free Energy of Binding    =  -6.34 kcal/mol  [=(1)+(2)+(3)-(4)]
DOCKED: USER
DOCKED: USER    (1) Final Intermolecular Energy     =  -8.43 kcal/mol
DOCKED: USER        vdW + Hbond + desolv Energy     =  -8.32 kcal/mol
DOCKED: USER        Electrostatic Energy            =  -0.11 kcal/mol
DOCKED: USER        Moving Ligand-Fixed Receptor    =  -8.43 kcal/mol
DOCKED: USER        Moving Ligand-Moving Receptor   =  +0.00 kcal/mol
DOCKED: USER    (2) Final Total Internal Energy     =  -2.73 kcal/mol
DOCKED: USER    (3) Torsional Free Energy           =  +2.09 kcal/mol
DOCKED: USER    (4) Unbound System's Energy         =  -2.73 kcal/mol
DOCKED: USER
DOCKED: USER
DOCKED: REMARK SMILES O=C(C/N=C(\O)c1ccc2cc(Cl)ccc2n1)N1CCC[C@@H]1c1ncc(F)cn1
DOCKED: REMARK SMILES IDX 3 1 4 2 5 3 6 4 7 6 17 7 8 8 16 9 9 10 15 11 10 12 14 13
DOCKED: REMARK SMILES IDX 11 14 12 15 13 16 2 17 1 18 18 19 19 20 22 21 20 22 21 23
DOCKED: REMARK SMILES IDX 23 24 24 25 29 26 25 27 28 28 26 29 27 30
DOCKED: REMARK H PARENT 6 5
DOCKED: USER                              x       y       z     vdW  Elec       q    Type
DOCKED: USER                           _______ _______ _______ _____ _____    ______ ____
DOCKED: ROOT
DOCKED: ATOM      1  C   UNL     1     139.796  75.376 221.646 -0.22 -0.05    +0.246 C  
DOCKED: ENDROOT
DOCKED: BRANCH   1   2
DOCKED: ATOM      2  N   UNL     1     140.323  74.171 222.285 -0.74 -0.01    -0.240 NA 
DOCKED: BRANCH   2   3
DOCKED: ATOM      3  C   UNL     1     139.980  72.945 222.004 -0.21 -0.03    +0.233 C  
DOCKED: BRANCH   3   4
DOCKED: ATOM      4  O   UNL     1     139.587  72.570 220.714 -0.01 +0.09    -0.492 OA 
DOCKED: ATOM      5  H   UNL     1     139.954  72.996 219.874 +0.05 -0.06    +0.295 HD 
DOCKED: ENDBRANCH   3   4
DOCKED: BRANCH   3   6
DOCKED: ATOM      6  C   UNL     1     140.001  71.912 223.057 -0.30 -0.02    +0.125 A  
DOCKED: ATOM      7  N   UNL     1     140.484  72.236 224.290 -0.07 +0.03    -0.243 NA 
DOCKED: ATOM      8  C   UNL     1     139.537  70.605 222.820 -0.24 -0.01    +0.035 A  
DOCKED: ATOM      9  C   UNL     1     140.535  71.336 225.307 -0.50 -0.01    +0.071 A  
DOCKED: ATOM     10  C   UNL     1     139.577  69.659 223.847 -0.27 -0.00    +0.013 A  
DOCKED: ATOM     11  C   UNL     1     141.040  71.714 226.556 -0.70 -0.00    +0.030 A  
DOCKED: ATOM     12  C   UNL     1     140.078  70.015 225.104 -0.43 -0.00    +0.002 A  
DOCKED: ATOM     13  C   UNL     1     141.092  70.786 227.600 -0.63 -0.00    +0.023 A  
DOCKED: ATOM     14  C   UNL     1     140.132  69.090 226.156 -0.50 -0.01    +0.030 A  
DOCKED: ATOM     15  C   UNL     1     140.639  69.476 227.403 -0.57 -0.01    +0.041 A  
DOCKED: ATOM     16  Cl  UNL     1     140.707  68.318 228.718 -0.67 +0.02    -0.084 Cl 
DOCKED: ENDBRANCH   3   6
DOCKED: ENDBRANCH   2   3
DOCKED: ENDBRANCH   1   2
DOCKED: BRANCH   1  17
DOCKED: ATOM     17  C   UNL     1     139.954  75.305 220.149 -0.07 -0.06    +0.245 C  
DOCKED: ATOM     18  O   UNL     1     138.990  74.885 219.453 -0.02 +0.06    -0.273 OA 
DOCKED: BRANCH  17  19
DOCKED: ATOM     19  N   UNL     1     141.152  75.767 219.496 -0.04 +0.12    -0.331 N  
DOCKED: ATOM     20  C   UNL     1     141.180  76.404 218.189 -0.07 -0.05    +0.120 C  
DOCKED: ATOM     21  C   UNL     1     142.473  75.682 220.105 -0.24 -0.08    +0.153 C  
DOCKED: ATOM     22  C   UNL     1     142.653  76.633 217.870 -0.25 -0.01    +0.024 C  
DOCKED: ATOM     23  C   UNL     1     143.387  76.512 219.203 -0.34 -0.02    +0.035 C  
DOCKED: BRANCH  21  24
DOCKED: ATOM     24  C   UNL     1     142.930  74.249 220.174 -0.24 -0.05    +0.150 A  
DOCKED: ATOM     25  N   UNL     1     142.127  73.257 219.705 -0.07 +0.05    -0.236 NA 
DOCKED: ATOM     26  N   UNL     1     144.134  73.938 220.731 -0.26 +0.07    -0.236 NA 
DOCKED: ATOM     27  C   UNL     1     142.509  71.956 219.771 -0.12 -0.02    +0.154 A  
DOCKED: ATOM     28  C   UNL     1     144.552  72.649 220.816 -0.34 -0.03    +0.154 A  
DOCKED: ATOM     29  C   UNL     1     143.742  71.623 220.331 -0.21 -0.02    +0.159 A  
DOCKED: ATOM     30  F   UNL     1     144.142  70.330 220.407 -0.02 +0.00    -0.204 F  
DOCKED: ENDBRANCH  21  24
DOCKED: ENDBRANCH  17  19
DOCKED: ENDBRANCH   1  17
DOCKED: TORSDOF 7
DOCKED: TER
DOCKED: ENDMDL
________________________________________________________________________________


    FINAL DOCKED STATE:
    ________________________


Run:   2 / 20
Time taken for this run:   0.051s

DOCKED: MODEL        2
DOCKED: USER    Run = 2
DOCKED: USER
DOCKED: USER    Estimated Free Energy of Binding    =  -6.23 kcal/mol  [=(1)+(2)+(3)-(4)]
DOCKED: USER
DOCKED: USER    (1) Final Intermolecular Energy     =  -8.32 kcal/mol
DOCKED: USER        vdW + Hbond + desolv Energy     =  -8.31 kcal/mol
DOCKED: USER        Electrostatic Energy            =  -0.01 kcal/mol
DOCKED: USER        Moving Ligand-Fixed Receptor    =  -8.32 kcal/mol
DOCKED: USER        Moving Ligand-Moving Receptor   =  +0.00 kcal/mol
DOCKED: USER    (2) Final Total Internal Energy     =  -2.98 kcal/mol
DOCKED: USER    (3) Torsional Free Energy           =  +2.09 kcal/mol
DOCKED: USER    (4) Unbound System's Energy         =  -2.98 kcal/mol
DOCKED: USER
DOCKED: USER
DOCKED: REMARK SMILES O=C(C/N=C(\O)c1ccc2cc(Cl)ccc2n1)N1CCC[C@@H]1c1ncc(F)cn1
DOCKED: REMARK SMILES IDX 3 1 4 2 5 3 6 4 7 6 17 7 8 8 16 9 9 10 15 11 10 12 14 13
DOCKED: REMARK SMILES IDX 11 14 12 15 13 16 2 17 1 18 18 19 19 20 22 21 20 22 21 23
DOCKED: REMARK SMILES IDX 23 24 24 25 29 26 25 27 28 28 26 29 27 30
DOCKED: REMARK H PARENT 6 5
DOCKED: USER                              x       y       z     vdW  Elec       q    Type
DOCKED: USER                           _______ _______ _______ _____ _____    ______ ____
DOCKED: ROOT
DOCKED: ATOM      1  C   UNL     1     141.078  74.840 221.461 -0.21 -0.05    +0.246 C  
DOCKED: ENDROOT
DOCKED: BRANCH   1   2
DOCKED: ATOM      2  N   UNL     1     139.934  74.103 221.996 -0.79 +0.03    -0.240 NA 
DOCKED: BRANCH   2   3
DOCKED: ATOM      3  C   UNL     1     139.658  72.850 221.765 -0.18 -0.04    +0.233 C  
DOCKED: BRANCH   3   4
DOCKED: ATOM      4  O   UNL     1     139.265  72.406 220.498 +0.00 +0.09    -0.492 OA 
DOCKED: ATOM      5  H   UNL     1     139.918  72.207 219.751 +0.05 -0.05    +0.295 HD 
DOCKED: ENDBRANCH   3   4
DOCKED: BRANCH   3   6
DOCKED: ATOM      6  C   UNL     1     139.756  71.860 222.855 -0.28 -0.02    +0.125 A  
DOCKED: ATOM      7  N   UNL     1     140.275  72.247 224.054 -0.17 +0.04    -0.243 NA 
DOCKED: ATOM      8  C   UNL     1     139.330  70.530 222.684 -0.22 -0.01    +0.035 A  
DOCKED: ATOM      9  C   UNL     1     140.397  71.389 225.101 -0.48 -0.01    +0.071 A  
DOCKED: ATOM     10  C   UNL     1     139.443  69.626 223.743 -0.27 -0.00    +0.013 A  
DOCKED: ATOM     11  C   UNL     1     140.937  71.832 226.313 -0.64 -0.00    +0.030 A  
DOCKED: ATOM     12  C   UNL     1     139.979  70.047 224.965 -0.42 -0.00    +0.002 A  
DOCKED: ATOM     13  C   UNL     1     141.061  70.947 227.389 -0.67 -0.00    +0.023 A  
DOCKED: ATOM     14  C   UNL     1     140.107  69.165 226.048 -0.49 -0.01    +0.030 A  
DOCKED: ATOM     15  C   UNL     1     140.648  69.616 227.258 -0.56 -0.01    +0.041 A  
DOCKED: ATOM     16  Cl  UNL     1     140.807  68.512 228.612 -0.74 +0.02    -0.084 Cl 
DOCKED: ENDBRANCH   3   6
DOCKED: ENDBRANCH   2   3
DOCKED: ENDBRANCH   1   2
DOCKED: BRANCH   1  17
DOCKED: ATOM     17  C   UNL     1     141.652  74.144 220.254 -0.14 -0.06    +0.245 C  
DOCKED: ATOM     18  O   UNL     1     140.918  73.974 219.242 -0.03 +0.06    -0.273 OA 
DOCKED: BRANCH  17  19
DOCKED: ATOM     19  N   UNL     1     143.031  73.732 220.207 -0.12 +0.08    -0.331 N  
DOCKED: ATOM     20  C   UNL     1     144.076  74.441 219.485 -0.29 -0.05    +0.120 C  
DOCKED: ATOM     21  C   UNL     1     143.538  72.570 220.925 -0.12 -0.02    +0.153 C  
DOCKED: ATOM     22  C   UNL     1     145.335  73.597 219.642 -0.38 -0.00    +0.024 C  
DOCKED: ATOM     23  C   UNL     1     145.061  72.661 220.816 -0.46 -0.01    +0.035 C  
DOCKED: BRANCH  21  24
DOCKED: ATOM     24  C   UNL     1     143.022  71.300 220.304 -0.17 -0.02    +0.150 A  
DOCKED: ATOM     25  N   UNL     1     141.682  71.079 220.225 -0.07 +0.03    -0.236 NA 
DOCKED: ATOM     26  N   UNL     1     143.891  70.357 219.844 -0.12 -0.00    -0.236 NA 
DOCKED: ATOM     27  C   UNL     1     141.191  69.934 219.684 -0.08 -0.02    +0.154 A  
DOCKED: ATOM     28  C   UNL     1     143.440  69.199 219.295 -0.16 -0.01    +0.154 A  
DOCKED: ATOM     29  C   UNL     1     142.069  68.963 219.202 -0.10 -0.03    +0.159 A  
DOCKED: ATOM     30  F   UNL     1     141.599  67.813 218.658 -0.02 +0.06    -0.204 F  
DOCKED: ENDBRANCH  21  24
DOCKED: ENDBRANCH  17  19
DOCKED: ENDBRANCH   1  17
DOCKED: TORSDOF 7
DOCKED: TER
DOCKED: ENDMDL
________________________________________________________________________________


    FINAL DOCKED STATE:
    ________________________


Run:   3 / 20
Time taken for this run:   0.051s

DOCKED: MODEL        3
DOCKED: USER    Run = 3
DOCKED: USER
DOCKED: USER    Estimated Free Energy of Binding    =  -7.10 kcal/mol  [=(1)+(2)+(3)-(4)]
DOCKED: USER
DOCKED: USER    (1) Final Intermolecular Energy     =  -9.18 kcal/mol
DOCKED: USER        vdW + Hbond + desolv Energy     =  -9.20 kcal/mol
DOCKED: USER        Electrostatic Energy            =  +0.02 kcal/mol
DOCKED: USER        Moving Ligand-Fixed Receptor    =  -9.18 kcal/mol
DOCKED: USER        Moving Ligand-Moving Receptor   =  +0.00 kcal/mol
DOCKED: USER    (2) Final Total Internal Energy     =  -1.85 kcal/mol
DOCKED: USER    (3) Torsional Free Energy           =  +2.09 kcal/mol
DOCKED: USER    (4) Unbound System's Energy         =  -1.85 kcal/mol
DOCKED: USER
DOCKED: USER
DOCKED: REMARK SMILES O=C(C/N=C(\O)c1ccc2cc(Cl)ccc2n1)N1CCC[C@@H]1c1ncc(F)cn1
DOCKED: REMARK SMILES IDX 3 1 4 2 5 3 6 4 7 6 17 7 8 8 16 9 9 10 15 11 10 12 14 13
DOCKED: REMARK SMILES IDX 11 14 12 15 13 16 2 17 1 18 18 19 19 20 22 21 20 22 21 23
DOCKED: REMARK SMILES IDX 23 24 24 25 29 26 25 27 28 28 26 29 27 30
DOCKED: REMARK H PARENT 6 5
DOCKED: USER                              x       y       z     vdW  Elec       q    Type
DOCKED: USER                           _______ _______ _______ _____ _____    ______ ____
DOCKED: ROOT
DOCKED: ATOM      1  C   UNL     1     140.095  71.855 219.706 -0.03 -0.04    +0.246 C  
DOCKED: ENDROOT
DOCKED: BRANCH   1   2
DOCKED: ATOM      2  N   UNL     1     139.105  72.002 220.772 -0.04 +0.04    -0.240 NA 
DOCKED: BRANCH   2   3
DOCKED: ATOM      3  C   UNL     1     139.346  72.411 221.987 -0.17 -0.05    +0.233 C  
DOCKED: BRANCH   3   4
DOCKED: ATOM      4  O   UNL     1     139.420  73.772 222.302 -0.59 +0.10    -0.492 OA 
DOCKED: ATOM      5  H   UNL     1     139.569  74.119 223.241 -0.43 -0.03    +0.295 HD 
DOCKED: ENDBRANCH   3   4
DOCKED: BRANCH   3   6
DOCKED: ATOM      6  C   UNL     1     139.548  71.429 223.070 -0.27 -0.03    +0.125 A  
DOCKED: ATOM      7  N   UNL     1     140.094  71.847 224.246 -0.25 +0.05    -0.243 NA 
DOCKED: ATOM      8  C   UNL     1     139.193  70.077 222.916 -0.21 -0.01    +0.035 A  
DOCKED: ATOM      9  C   UNL     1     140.310  70.999 225.286 -0.49 -0.01    +0.071 A  
DOCKED: ATOM     10  C   UNL     1     139.402  69.182 223.967 -0.25 -0.00    +0.013 A  
DOCKED: ATOM     11  C   UNL     1     140.874  71.473 226.475 -0.67 -0.00    +0.030 A  
DOCKED: ATOM     12  C   UNL     1     139.965  69.634 225.166 -0.42 -0.00    +0.002 A  
DOCKED: ATOM     13  C   UNL     1     141.095  70.598 227.543 -0.60 -0.00    +0.023 A  
DOCKED: ATOM     14  C   UNL     1     140.190  68.762 226.241 -0.54 -0.01    +0.030 A  
DOCKED: ATOM     15  C   UNL     1     140.755  69.245 227.428 -0.58 -0.01    +0.041 A  
DOCKED: ATOM     16  Cl  UNL     1     141.035  68.154 228.772 -0.66 +0.02    -0.084 Cl 
DOCKED: ENDBRANCH   3   6
DOCKED: ENDBRANCH   2   3
DOCKED: ENDBRANCH   1   2
DOCKED: BRANCH   1  17
DOCKED: ATOM     17  C   UNL     1     140.755  73.174 219.397 -0.03 -0.05    +0.245 C  
DOCKED: ATOM     18  O   UNL     1     140.088  74.064 218.802 -0.01 +0.06    -0.273 OA 
DOCKED: BRANCH  17  19
DOCKED: ATOM     19  N   UNL     1     142.100  73.461 219.822 -0.05 +0.07    -0.331 N  
DOCKED: ATOM     20  C   UNL     1     142.973  72.503 220.483 -0.23 -0.02    +0.120 C  
DOCKED: ATOM     21  C   UNL     1     142.752  74.743 219.591 -0.22 -0.06    +0.153 C  
DOCKED: ATOM     22  C   UNL     1     144.246  73.267 220.823 -0.40 -0.00    +0.024 C  
DOCKED: ATOM     23  C   UNL     1     144.221  74.521 219.952 -0.40 -0.01    +0.035 C  
DOCKED: BRANCH  21  24
DOCKED: ATOM     24  C   UNL     1     142.134  75.810 220.454 -0.21 -0.08    +0.150 A  
DOCKED: ATOM     25  N   UNL     1     142.337  77.123 220.161 -0.19 +0.16    -0.236 NA 
DOCKED: ATOM     26  N   UNL     1     141.393  75.469 221.546 -0.27 +0.08    -0.236 NA 
DOCKED: ATOM     27  C   UNL     1     141.804  78.104 220.933 -0.25 -0.10    +0.154 A  
DOCKED: ATOM     28  C   UNL     1     140.843  76.421 222.343 -0.30 -0.05    +0.154 A  
DOCKED: ATOM     29  C   UNL     1     141.038  77.770 222.049 -0.32 -0.07    +0.159 A  
DOCKED: ATOM     30  F   UNL     1     140.497  78.735 222.833 -0.10 +0.05    -0.204 F  
DOCKED: ENDBRANCH  21  24
DOCKED: ENDBRANCH  17  19
DOCKED: ENDBRANCH   1  17
DOCKED: TORSDOF 7
DOCKED: TER
DOCKED: ENDMDL
________________________________________________________________________________


    FINAL DOCKED STATE:
    ________________________


Run:   4 / 20
Time taken for this run:   0.051s

DOCKED: MODEL        4
DOCKED: USER    Run = 4
DOCKED: USER
DOCKED: USER    Estimated Free Energy of Binding    =  -6.50 kcal/mol  [=(1)+(2)+(3)-(4)]
DOCKED: USER
DOCKED: USER    (1) Final Intermolecular Energy     =  -8.59 kcal/mol
DOCKED: USER        vdW + Hbond + desolv Energy     =  -8.47 kcal/mol
DOCKED: USER        Electrostatic Energy            =  -0.12 kcal/mol
DOCKED: USER        Moving Ligand-Fixed Receptor    =  -8.59 kcal/mol
DOCKED: USER        Moving Ligand-Moving Receptor   =  +0.00 kcal/mol
DOCKED: USER    (2) Final Total Internal Energy     =  -2.50 kcal/mol
DOCKED: USER    (3) Torsional Free Energy           =  +2.09 kcal/mol
DOCKED: USER    (4) Unbound System's Energy         =  -2.50 kcal/mol
DOCKED: USER
DOCKED: USER
DOCKED: REMARK SMILES O=C(C/N=C(\O)c1ccc2cc(Cl)ccc2n1)N1CCC[C@@H]1c1ncc(F)cn1
DOCKED: REMARK SMILES IDX 3 1 4 2 5 3 6 4 7 6 17 7 8 8 16 9 9 10 15 11 10 12 14 13
DOCKED: REMARK SMILES IDX 11 14 12 15 13 16 2 17 1 18 18 19 19 20 22 21 20 22 21 23
DOCKED: REMARK SMILES IDX 23 24 24 25 29 26 25 27 28 28 26 29 27 30
DOCKED: REMARK H PARENT 6 5
DOCKED: USER                              x       y       z     vdW  Elec       q    Type
DOCKED: USER                           _______ _______ _______ _____ _____    ______ ____
DOCKED: ROOT
DOCKED: ATOM      1  C   UNL     1     139.217  74.647 220.677 -0.10 -0.05    +0.246 C  
DOCKED: ENDROOT
DOCKED: BRANCH   1   2
DOCKED: ATOM      2  N   UNL     1     139.155  73.287 221.209 -0.11 +0.05    -0.240 NA 
DOCKED: BRANCH   2   3
DOCKED: ATOM      3  C   UNL     1     140.177  72.552 221.548 -0.18 -0.03    +0.233 C  
DOCKED: BRANCH   3   4
DOCKED: ATOM      4  O   UNL     1     141.388  72.610 220.850 -0.06 +0.07    -0.492 OA 
DOCKED: ATOM      5  H   UNL     1     142.002  73.415 220.866 +0.12 -0.05    +0.295 HD 
DOCKED: ENDBRANCH   3   4
DOCKED: BRANCH   3   6
DOCKED: ATOM      6  C   UNL     1     140.075  71.630 222.696 -0.27 -0.02    +0.125 A  
DOCKED: ATOM      7  N   UNL     1     140.579  72.017 223.901 -0.23 +0.02    -0.243 NA 
DOCKED: ATOM      8  C   UNL     1     139.473  70.364 222.574 -0.20 -0.01    +0.035 A  
DOCKED: ATOM      9  C   UNL     1     140.521  71.219 225.000 -0.48 -0.01    +0.071 A  
DOCKED: ATOM     10  C   UNL     1     139.398  69.523 223.687 -0.25 -0.00    +0.013 A  
DOCKED: ATOM     11  C   UNL     1     141.053  71.659 226.217 -0.65 -0.00    +0.030 A  
DOCKED: ATOM     12  C   UNL     1     139.923  69.942 224.914 -0.41 -0.00    +0.002 A  
DOCKED: ATOM     13  C   UNL     1     140.992  70.837 227.346 -0.65 -0.00    +0.023 A  
DOCKED: ATOM     14  C   UNL     1     139.866  69.122 226.050 -0.48 -0.00    +0.030 A  
DOCKED: ATOM     15  C   UNL     1     140.400  69.571 227.265 -0.56 -0.01    +0.041 A  
DOCKED: ATOM     16  Cl  UNL     1     140.328  68.544 228.685 -0.67 +0.02    -0.084 Cl 
DOCKED: ENDBRANCH   3   6
DOCKED: ENDBRANCH   2   3
DOCKED: ENDBRANCH   1   2
DOCKED: BRANCH   1  17
DOCKED: ATOM     17  C   UNL     1     140.596  75.231 220.848 -0.18 -0.06    +0.245 C  
DOCKED: ATOM     18  O   UNL     1     141.174  75.112 221.963 -0.53 +0.04    -0.273 OA 
DOCKED: BRANCH  17  19
DOCKED: ATOM     19  N   UNL     1     141.289  75.859 219.753 -0.06 +0.12    -0.331 N  
DOCKED: ATOM     20  C   UNL     1     140.659  76.253 218.502 -0.05 -0.04    +0.120 C  
DOCKED: ATOM     21  C   UNL     1     142.702  76.211 219.802 -0.27 -0.09    +0.153 C  
DOCKED: ATOM     22  C   UNL     1     141.783  76.784 217.621 -0.14 -0.01    +0.024 C  
DOCKED: ATOM     23  C   UNL     1     142.945  77.078 218.566 -0.33 -0.02    +0.035 C  
DOCKED: BRANCH  21  24
DOCKED: ATOM     24  C   UNL     1     143.554  74.970 219.774 -0.31 -0.07    +0.150 A  
DOCKED: ATOM     25  N   UNL     1     143.140  73.877 219.079 -0.09 +0.06    -0.236 NA 
DOCKED: ATOM     26  N   UNL     1     144.727  74.927 220.466 -0.28 +0.12    -0.236 NA 
DOCKED: ATOM     27  C   UNL     1     143.883  72.741 219.052 -0.14 -0.01    +0.154 A  
DOCKED: ATOM     28  C   UNL     1     145.499  73.809 220.464 -0.50 -0.03    +0.154 A  
DOCKED: ATOM     29  C   UNL     1     145.090  72.685 219.749 -0.31 +0.01    +0.159 A  
DOCKED: ATOM     30  F   UNL     1     145.846  71.560 219.736 -0.09 -0.11    -0.204 F  
DOCKED: ENDBRANCH  21  24
DOCKED: ENDBRANCH  17  19
DOCKED: ENDBRANCH   1  17
DOCKED: TORSDOF 7
DOCKED: TER
DOCKED: ENDMDL
________________________________________________________________________________


    FINAL DOCKED STATE:
    ________________________


Run:   5 / 20
Time taken for this run:   0.051s

DOCKED: MODEL        5
DOCKED: USER    Run = 5
DOCKED: USER
DOCKED: USER    Estimated Free Energy of Binding    =  -7.53 kcal/mol  [=(1)+(2)+(3)-(4)]
DOCKED: USER
DOCKED: USER    (1) Final Intermolecular Energy     =  -9.62 kcal/mol
DOCKED: USER        vdW + Hbond + desolv Energy     =  -9.43 kcal/mol
DOCKED: USER        Electrostatic Energy            =  -0.19 kcal/mol
DOCKED: USER        Moving Ligand-Fixed Receptor    =  -9.62 kcal/mol
DOCKED: USER        Moving Ligand-Moving Receptor   =  +0.00 kcal/mol
DOCKED: USER    (2) Final Total Internal Energy     =  -1.71 kcal/mol
DOCKED: USER    (3) Torsional Free Energy           =  +2.09 kcal/mol
DOCKED: USER    (4) Unbound System's Energy         =  -1.71 kcal/mol
DOCKED: USER
DOCKED: USER
DOCKED: REMARK SMILES O=C(C/N=C(\O)c1ccc2cc(Cl)ccc2n1)N1CCC[C@@H]1c1ncc(F)cn1
DOCKED: REMARK SMILES IDX 3 1 4 2 5 3 6 4 7 6 17 7 8 8 16 9 9 10 15 11 10 12 14 13
DOCKED: REMARK SMILES IDX 11 14 12 15 13 16 2 17 1 18 18 19 19 20 22 21 20 22 21 23
DOCKED: REMARK SMILES IDX 23 24 24 25 29 26 25 27 28 28 26 29 27 30
DOCKED: REMARK H PARENT 6 5
DOCKED: USER                              x       y       z     vdW  Elec       q    Type
DOCKED: USER                           _______ _______ _______ _____ _____    ______ ____
DOCKED: ROOT
DOCKED: ATOM      1  C   UNL     1     140.857  72.407 220.675 -0.11 -0.04    +0.246 C  
DOCKED: ENDROOT
DOCKED: BRANCH   1   2
DOCKED: ATOM      2  N   UNL     1     139.572  71.818 221.051 -0.06 +0.04    -0.240 NA 
DOCKED: BRANCH   2   3
DOCKED: ATOM      3  C   UNL     1     138.963  71.978 222.192 -0.15 -0.05    +0.233 C  
DOCKED: BRANCH   3   4
DOCKED: ATOM      4  O   UNL     1     138.033  73.003 222.392 -0.03 +0.18    -0.492 OA 
DOCKED: ATOM      5  H   UNL     1     138.283  73.923 222.731 -0.50 -0.15    +0.295 HD 
DOCKED: ENDBRANCH   3   4
DOCKED: BRANCH   3   6
DOCKED: ATOM      6  C   UNL     1     139.248  71.063 223.315 -0.26 -0.03    +0.125 A  
DOCKED: ATOM      7  N   UNL     1     139.855  71.556 224.430 -0.26 +0.05    -0.243 NA 
DOCKED: ATOM      8  C   UNL     1     138.911  69.698 223.259 -0.23 -0.01    +0.035 A  
DOCKED: ATOM      9  C   UNL     1     140.150  70.772 225.502 -0.48 -0.01    +0.071 A  
DOCKED: ATOM     10  C   UNL     1     139.201  68.868 224.345 -0.34 -0.00    +0.013 A  
DOCKED: ATOM     11  C   UNL     1     140.774  71.323 226.625 -0.66 -0.00    +0.030 A  
DOCKED: ATOM     12  C   UNL     1     139.825  69.398 225.480 -0.44 -0.00    +0.002 A  
DOCKED: ATOM     13  C   UNL     1     141.076  70.514 227.726 -0.62 -0.00    +0.023 A  
DOCKED: ATOM     14  C   UNL     1     140.130  68.592 226.587 -0.58 -0.01    +0.030 A  
DOCKED: ATOM     15  C   UNL     1     140.755  69.152 227.708 -0.59 -0.01    +0.041 A  
DOCKED: ATOM     16  Cl  UNL     1     141.136  68.144 229.092 -0.47 +0.02    -0.084 Cl 
DOCKED: ENDBRANCH   3   6
DOCKED: ENDBRANCH   2   3
DOCKED: ENDBRANCH   1   2
DOCKED: BRANCH   1  17
DOCKED: ATOM     17  C   UNL     1     140.879  73.885 220.970 -0.18 -0.04    +0.245 C  
DOCKED: ATOM     18  O   UNL     1     140.323  74.306 222.021 -0.81 +0.01    -0.273 OA 
DOCKED: BRANCH  17  19
DOCKED: ATOM     19  N   UNL     1     141.574  74.812 220.115 -0.08 +0.10    -0.331 N  
DOCKED: ATOM     20  C   UNL     1     141.001  75.416 218.921 -0.07 -0.04    +0.120 C  
DOCKED: ATOM     21  C   UNL     1     142.926  75.283 220.384 -0.14 -0.08    +0.153 C  
DOCKED: ATOM     22  C   UNL     1     142.118  76.243 218.298 -0.19 -0.01    +0.024 C  
DOCKED: ATOM     23  C   UNL     1     143.159  76.429 219.398 -0.37 -0.02    +0.035 C  
DOCKED: BRANCH  21  24
DOCKED: ATOM     24  C   UNL     1     143.921  74.173 220.176 -0.32 -0.05    +0.150 A  
DOCKED: ATOM     25  N   UNL     1     143.612  73.128 219.362 -0.10 +0.04    -0.236 NA 
DOCKED: ATOM     26  N   UNL     1     145.122  74.197 220.820 -0.36 +0.07    -0.236 NA 
DOCKED: ATOM     27  C   UNL     1     144.486  72.107 219.171 -0.19 +0.01    +0.154 A  
DOCKED: ATOM     28  C   UNL     1     146.023  73.194 220.654 -0.53 +0.01    +0.154 A  
DOCKED: ATOM     29  C   UNL     1     145.722  72.121 219.818 -0.29 +0.06    +0.159 A  
DOCKED: ATOM     30  F   UNL     1     146.609  71.110 219.640 -0.03 -0.23    -0.204 F  
DOCKED: ENDBRANCH  21  24
DOCKED: ENDBRANCH  17  19
DOCKED: ENDBRANCH   1  17
DOCKED: TORSDOF 7
DOCKED: TER
DOCKED: ENDMDL
________________________________________________________________________________


    FINAL DOCKED STATE:
    ________________________


Run:   6 / 20
Time taken for this run:   0.051s

DOCKED: MODEL        6
DOCKED: USER    Run = 6
DOCKED: USER
DOCKED: USER    Estimated Free Energy of Binding    =  -6.36 kcal/mol  [=(1)+(2)+(3)-(4)]
DOCKED: USER
DOCKED: USER    (1) Final Intermolecular Energy     =  -8.45 kcal/mol
DOCKED: USER        vdW + Hbond + desolv Energy     =  -8.38 kcal/mol
DOCKED: USER        Electrostatic Energy            =  -0.08 kcal/mol
DOCKED: USER        Moving Ligand-Fixed Receptor    =  -8.45 kcal/mol
DOCKED: USER        Moving Ligand-Moving Receptor   =  +0.00 kcal/mol
DOCKED: USER    (2) Final Total Internal Energy     =  -2.54 kcal/mol
DOCKED: USER    (3) Torsional Free Energy           =  +2.09 kcal/mol
DOCKED: USER    (4) Unbound System's Energy         =  -2.54 kcal/mol
DOCKED: USER
DOCKED: USER
DOCKED: REMARK SMILES O=C(C/N=C(\O)c1ccc2cc(Cl)ccc2n1)N1CCC[C@@H]1c1ncc(F)cn1
DOCKED: REMARK SMILES IDX 3 1 4 2 5 3 6 4 7 6 17 7 8 8 16 9 9 10 15 11 10 12 14 13
DOCKED: REMARK SMILES IDX 11 14 12 15 13 16 2 17 1 18 18 19 19 20 22 21 20 22 21 23
DOCKED: REMARK SMILES IDX 23 24 24 25 29 26 25 27 28 28 26 29 27 30
DOCKED: REMARK H PARENT 6 5
DOCKED: USER                              x       y       z     vdW  Elec       q    Type
DOCKED: USER                           _______ _______ _______ _____ _____    ______ ____
DOCKED: ROOT
DOCKED: ATOM      1  C   UNL     1     137.553  73.206 221.052 -0.06 -0.05    +0.246 C  
DOCKED: ENDROOT
DOCKED: BRANCH   1   2
DOCKED: ATOM      2  N   UNL     1     138.736  72.379 221.288 -0.07 +0.05    -0.240 NA 
DOCKED: BRANCH   2   3
DOCKED: ATOM      3  C   UNL     1     139.616  72.558 222.233 -0.20 -0.04    +0.233 C  
DOCKED: BRANCH   3   4
DOCKED: ATOM      4  O   UNL     1     140.435  73.691 222.269 -0.69 -0.01    -0.492 OA 
DOCKED: ATOM      5  H   UNL     1     140.301  74.495 221.669 +0.09 -0.04    +0.295 HD 
DOCKED: ENDBRANCH   3   4
DOCKED: BRANCH   3   6
DOCKED: ATOM      6  C   UNL     1     139.767  71.551 223.301 -0.30 -0.02    +0.125 A  
DOCKED: ATOM      7  N   UNL     1     140.282  71.935 224.502 -0.22 +0.04    -0.243 NA 
DOCKED: ATOM      8  C   UNL     1     139.394  70.208 223.107 -0.24 -0.01    +0.035 A  
DOCKED: ATOM      9  C   UNL     1     140.451  71.062 225.530 -0.52 -0.01    +0.071 A  
DOCKED: ATOM     10  C   UNL     1     139.555  69.288 224.146 -0.28 -0.00    +0.013 A  
DOCKED: ATOM     11  C   UNL     1     140.985  71.502 226.746 -0.70 -0.00    +0.030 A  
DOCKED: ATOM     12  C   UNL     1     140.087  69.706 225.371 -0.44 -0.00    +0.002 A  
DOCKED: ATOM     13  C   UNL     1     141.157  70.602 227.802 -0.57 -0.00    +0.023 A  
DOCKED: ATOM     14  C   UNL     1     140.263  68.809 226.434 -0.55 -0.01    +0.030 A  
DOCKED: ATOM     15  C   UNL     1     140.797  69.258 227.648 -0.58 -0.01    +0.041 A  
DOCKED: ATOM     16  Cl  UNL     1     141.017  68.134 228.977 -0.52 +0.02    -0.084 Cl 
DOCKED: ENDBRANCH   3   6
DOCKED: ENDBRANCH   2   3
DOCKED: ENDBRANCH   1   2
DOCKED: BRANCH   1  17
DOCKED: ATOM     17  C   UNL     1     137.939  74.644 220.814 -0.07 -0.05    +0.245 C  
DOCKED: ATOM     18  O   UNL     1     138.916  74.895 220.057 -0.03 +0.06    -0.273 OA 
DOCKED: BRANCH  17  19
DOCKED: ATOM     19  N   UNL     1     137.179  75.730 221.376 -0.05 +0.07    -0.331 N  
DOCKED: ATOM     20  C   UNL     1     136.059  76.378 220.712 -0.04 -0.02    +0.120 C  
DOCKED: ATOM     21  C   UNL     1     137.429  76.270 222.706 -0.23 -0.03    +0.153 C  
DOCKED: ATOM     22  C   UNL     1     135.632  77.515 221.633 -0.07 -0.00    +0.024 C  
DOCKED: ATOM     23  C   UNL     1     136.248  77.199 222.993 -0.18 -0.01    +0.035 C  
DOCKED: BRANCH  21  24
DOCKED: ATOM     24  C   UNL     1     138.733  77.022 222.733 -0.22 -0.03    +0.150 A  
DOCKED: ATOM     25  N   UNL     1     138.749  78.341 223.064 -0.18 +0.04    -0.236 NA 
DOCKED: ATOM     26  N   UNL     1     139.895  76.395 222.399 -0.28 +0.05    -0.236 NA 
DOCKED: ATOM     27  C   UNL     1     139.910  79.045 223.080 -0.31 -0.03    +0.154 A  
DOCKED: ATOM     28  C   UNL     1     141.077  77.064 222.403 -0.30 -0.06    +0.154 A  
DOCKED: ATOM     29  C   UNL     1     141.109  78.414 222.748 -0.39 -0.06    +0.159 A  
DOCKED: ATOM     30  F   UNL     1     142.278  79.100 222.758 -0.17 +0.10    -0.204 F  
DOCKED: ENDBRANCH  21  24
DOCKED: ENDBRANCH  17  19
DOCKED: ENDBRANCH   1  17
DOCKED: TORSDOF 7
DOCKED: TER
DOCKED: ENDMDL
________________________________________________________________________________


    FINAL DOCKED STATE:
    ________________________


Run:   7 / 20
Time taken for this run:   0.051s

DOCKED: MODEL        7
DOCKED: USER    Run = 7
DOCKED: USER
DOCKED: USER    Estimated Free Energy of Binding    =  -7.21 kcal/mol  [=(1)+(2)+(3)-(4)]
DOCKED: USER
DOCKED: USER    (1) Final Intermolecular Energy     =  -9.30 kcal/mol
DOCKED: USER        vdW + Hbond + desolv Energy     =  -9.24 kcal/mol
DOCKED: USER        Electrostatic Energy            =  -0.05 kcal/mol
DOCKED: USER        Moving Ligand-Fixed Receptor    =  -9.30 kcal/mol
DOCKED: USER        Moving Ligand-Moving Receptor   =  +0.00 kcal/mol
DOCKED: USER    (2) Final Total Internal Energy     =  -1.58 kcal/mol
DOCKED: USER    (3) Torsional Free Energy           =  +2.09 kcal/mol
DOCKED: USER    (4) Unbound System's Energy         =  -1.58 kcal/mol
DOCKED: USER
DOCKED: USER
DOCKED: REMARK SMILES O=C(C/N=C(\O)c1ccc2cc(Cl)ccc2n1)N1CCC[C@@H]1c1ncc(F)cn1
DOCKED: REMARK SMILES IDX 3 1 4 2 5 3 6 4 7 6 17 7 8 8 16 9 9 10 15 11 10 12 14 13
DOCKED: REMARK SMILES IDX 11 14 12 15 13 16 2 17 1 18 18 19 19 20 22 21 20 22 21 23
DOCKED: REMARK SMILES IDX 23 24 24 25 29 26 25 27 28 28 26 29 27 30
DOCKED: REMARK H PARENT 6 5
DOCKED: USER                              x       y       z     vdW  Elec       q    Type
DOCKED: USER                           _______ _______ _______ _____ _____    ______ ____
DOCKED: ROOT
DOCKED: ATOM      1  C   UNL     1     139.109  75.129 221.119 -0.14 -0.05    +0.246 C  
DOCKED: ENDROOT
DOCKED: BRANCH   1   2
DOCKED: ATOM      2  N   UNL     1     139.064  73.683 221.331 -0.14 +0.05    -0.240 NA 
DOCKED: BRANCH   2   3
DOCKED: ATOM      3  C   UNL     1     140.083  72.921 221.614 -0.19 -0.03    +0.233 C  
DOCKED: BRANCH   3   4
DOCKED: ATOM      4  O   UNL     1     141.281  72.999 220.895 -0.07 +0.07    -0.492 OA 
DOCKED: ATOM      5  H   UNL     1     141.971  73.724 221.041 +0.12 -0.05    +0.295 HD 
DOCKED: ENDBRANCH   3   4
DOCKED: BRANCH   3   6
DOCKED: ATOM      6  C   UNL     1     139.991  71.944 222.716 -0.28 -0.02    +0.125 A  
DOCKED: ATOM      7  N   UNL     1     140.555  72.250 223.918 -0.18 +0.02    -0.243 NA 
DOCKED: ATOM      8  C   UNL     1     139.338  70.708 222.555 -0.21 -0.01    +0.035 A  
DOCKED: ATOM      9  C   UNL     1     140.510  71.399 224.977 -0.47 -0.01    +0.071 A  
DOCKED: ATOM     10  C   UNL     1     139.276  69.813 223.626 -0.27 -0.00    +0.013 A  
DOCKED: ATOM     11  C   UNL     1     141.104  71.757 226.192 -0.64 -0.00    +0.030 A  
DOCKED: ATOM     12  C   UNL     1     139.863  70.150 224.851 -0.42 -0.00    +0.002 A  
DOCKED: ATOM     13  C   UNL     1     141.057  70.879 227.280 -0.65 -0.00    +0.023 A  
DOCKED: ATOM     14  C   UNL     1     139.819  69.275 225.946 -0.46 -0.00    +0.030 A  
DOCKED: ATOM     15  C   UNL     1     140.416  69.641 227.159 -0.55 -0.01    +0.041 A  
DOCKED: ATOM     16  Cl  UNL     1     140.360  68.545 228.528 -0.73 +0.02    -0.084 Cl 
DOCKED: ENDBRANCH   3   6
DOCKED: ENDBRANCH   2   3
DOCKED: ENDBRANCH   1   2
DOCKED: BRANCH   1  17
DOCKED: ATOM     17  C   UNL     1     140.507  75.659 221.311 -0.22 -0.06    +0.245 C  
DOCKED: ATOM     18  O   UNL     1     141.163  75.294 222.325 -0.35 +0.03    -0.273 OA 
DOCKED: BRANCH  17  19
DOCKED: ATOM     19  N   UNL     1     141.128  76.516 220.334 -0.09 +0.14    -0.331 N  
DOCKED: ATOM     20  C   UNL     1     142.080  76.062 219.332 -0.21 -0.06    +0.120 C  
DOCKED: ATOM     21  C   UNL     1     140.830  77.937 220.218 -0.16 -0.06    +0.153 C  
DOCKED: ATOM     22  C   UNL     1     142.531  77.314 218.591 -0.31 -0.02    +0.024 C  
DOCKED: ATOM     23  C   UNL     1     141.489  78.383 218.912 -0.21 -0.02    +0.035 C  
DOCKED: BRANCH  21  24
DOCKED: ATOM     24  C   UNL     1     141.388  78.690 221.396 -0.28 -0.07    +0.150 A  
DOCKED: ATOM     25  N   UNL     1     142.024  79.877 221.203 -0.22 +0.12    -0.236 NA 
DOCKED: ATOM     26  N   UNL     1     141.283  78.176 222.653 -0.29 +0.10    -0.236 NA 
DOCKED: ATOM     27  C   UNL     1     142.550  80.567 222.247 -0.43 -0.05    +0.154 A  
DOCKED: ATOM     28  C   UNL     1     141.796  78.836 223.723 -0.49 -0.05    +0.154 A  
DOCKED: ATOM     29  C   UNL     1     142.444  80.057 223.541 -0.52 -0.04    +0.159 A  
DOCKED: ATOM     30  F   UNL     1     142.963  80.731 224.596 -0.15 +0.03    -0.204 F  
DOCKED: ENDBRANCH  21  24
DOCKED: ENDBRANCH  17  19
DOCKED: ENDBRANCH   1  17
DOCKED: TORSDOF 7
DOCKED: TER
DOCKED: ENDMDL
________________________________________________________________________________


    FINAL DOCKED STATE:
    ________________________


Run:   8 / 20
Time taken for this run:   0.051s

DOCKED: MODEL        8
DOCKED: USER    Run = 8
DOCKED: USER
DOCKED: USER    Estimated Free Energy of Binding    =  -7.56 kcal/mol  [=(1)+(2)+(3)-(4)]
DOCKED: USER
DOCKED: USER    (1) Final Intermolecular Energy     =  -9.64 kcal/mol
DOCKED: USER        vdW + Hbond + desolv Energy     =  -9.54 kcal/mol
DOCKED: USER        Electrostatic Energy            =  -0.10 kcal/mol
DOCKED: USER        Moving Ligand-Fixed Receptor    =  -9.64 kcal/mol
DOCKED: USER        Moving Ligand-Moving Receptor   =  +0.00 kcal/mol
DOCKED: USER    (2) Final Total Internal Energy     =  -1.50 kcal/mol
DOCKED: USER    (3) Torsional Free Energy           =  +2.09 kcal/mol
DOCKED: USER    (4) Unbound System's Energy         =  -1.50 kcal/mol
DOCKED: USER
DOCKED: USER
DOCKED: REMARK SMILES O=C(C/N=C(\O)c1ccc2cc(Cl)ccc2n1)N1CCC[C@@H]1c1ncc(F)cn1
DOCKED: REMARK SMILES IDX 3 1 4 2 5 3 6 4 7 6 17 7 8 8 16 9 9 10 15 11 10 12 14 13
DOCKED: REMARK SMILES IDX 11 14 12 15 13 16 2 17 1 18 18 19 19 20 22 21 20 22 21 23
DOCKED: REMARK SMILES IDX 23 24 24 25 29 26 25 27 28 28 26 29 27 30
DOCKED: REMARK H PARENT 6 5
DOCKED: USER                              x       y       z     vdW  Elec       q    Type
DOCKED: USER                           _______ _______ _______ _____ _____    ______ ____
DOCKED: ROOT
DOCKED: ATOM      1  C   UNL     1     140.865  72.803 219.726 -0.05 -0.05    +0.246 C  
DOCKED: ENDROOT
DOCKED: BRANCH   1   2
DOCKED: ATOM      2  N   UNL     1     139.809  72.500 220.691 -0.06 +0.04    -0.240 NA 
DOCKED: BRANCH   2   3
DOCKED: ATOM      3  C   UNL     1     139.790  72.865 221.942 -0.20 -0.04    +0.233 C  
DOCKED: BRANCH   3   4
DOCKED: ATOM      4  O   UNL     1     139.684  74.210 222.313 -0.71 +0.05    -0.492 OA 
DOCKED: ATOM      5  H   UNL     1     139.226  74.520 223.161 -0.47 -0.10    +0.295 HD 
DOCKED: ENDBRANCH   3   4
DOCKED: BRANCH   3   6
DOCKED: ATOM      6  C   UNL     1     139.881  71.850 223.009 -0.29 -0.02    +0.125 A  
DOCKED: ATOM      7  N   UNL     1     140.363  72.216 224.230 -0.13 +0.04    -0.243 NA 
DOCKED: ATOM      8  C   UNL     1     139.484  70.517 222.796 -0.23 -0.01    +0.035 A  
DOCKED: ATOM      9  C   UNL     1     140.476  71.335 225.258 -0.49 -0.01    +0.071 A  
DOCKED: ATOM     10  C   UNL     1     139.588  69.589 223.834 -0.26 -0.00    +0.013 A  
DOCKED: ATOM     11  C   UNL     1     140.978  71.757 226.494 -0.68 -0.00    +0.030 A  
DOCKED: ATOM     12  C   UNL     1     140.087  69.989 225.079 -0.43 -0.00    +0.002 A  
DOCKED: ATOM     13  C   UNL     1     141.093  70.848 227.550 -0.64 -0.00    +0.023 A  
DOCKED: ATOM     14  C   UNL     1     140.205  69.082 226.143 -0.50 -0.01    +0.030 A  
DOCKED: ATOM     15  C   UNL     1     140.708  69.513 227.377 -0.57 -0.01    +0.041 A  
DOCKED: ATOM     16  Cl  UNL     1     140.856  68.379 228.706 -0.70 +0.02    -0.084 Cl 
DOCKED: ENDBRANCH   3   6
DOCKED: ENDBRANCH   2   3
DOCKED: ENDBRANCH   1   2
DOCKED: BRANCH   1  17
DOCKED: ATOM     17  C   UNL     1     142.138  72.075 220.073 -0.10 -0.04    +0.245 C  
DOCKED: ATOM     18  O   UNL     1     142.125  70.814 220.119 -0.09 +0.03    -0.273 OA 
DOCKED: BRANCH  17  19
DOCKED: ATOM     19  N   UNL     1     143.374  72.781 220.286 -0.11 +0.05    -0.331 N  
DOCKED: ATOM     20  C   UNL     1     143.504  74.230 220.279 -0.31 -0.04    +0.120 C  
DOCKED: ATOM     21  C   UNL     1     144.634  72.109 220.579 -0.17 -0.02    +0.153 C  
DOCKED: ATOM     22  C   UNL     1     144.990  74.515 220.453 -0.42 -0.01    +0.024 C  
DOCKED: ATOM     23  C   UNL     1     145.599  73.222 220.991 -0.62 -0.00    +0.035 C  
DOCKED: BRANCH  21  24
DOCKED: ATOM     24  C   UNL     1     145.134  71.375 219.365 -0.23 +0.05    +0.150 A  
DOCKED: ATOM     25  N   UNL     1     145.500  72.070 218.254 -0.53 -0.17    -0.236 NA 
DOCKED: ATOM     26  N   UNL     1     145.197  70.014 219.362 -0.20 -0.08    -0.236 NA 
DOCKED: ATOM     27  C   UNL     1     145.940  71.430 217.140 +0.03 +0.14    +0.154 A  
DOCKED: ATOM     28  C   UNL     1     145.631  69.336 218.267 -0.22 +0.04    +0.154 A  
DOCKED: ATOM     29  C   UNL     1     146.017  70.037 217.125 -0.13 +0.08    +0.159 A  
DOCKED: ATOM     30  F   UNL     1     146.452  69.379 216.023 -0.03 -0.04    -0.204 F  
DOCKED: ENDBRANCH  21  24
DOCKED: ENDBRANCH  17  19
DOCKED: ENDBRANCH   1  17
DOCKED: TORSDOF 7
DOCKED: TER
DOCKED: ENDMDL
________________________________________________________________________________


    FINAL DOCKED STATE:
    ________________________


Run:   9 / 20
Time taken for this run:   0.051s

DOCKED: MODEL        9
DOCKED: USER    Run = 9
DOCKED: USER
DOCKED: USER    Estimated Free Energy of Binding    =  -7.38 kcal/mol  [=(1)+(2)+(3)-(4)]
DOCKED: USER
DOCKED: USER    (1) Final Intermolecular Energy     =  -9.47 kcal/mol
DOCKED: USER        vdW + Hbond + desolv Energy     =  -9.45 kcal/mol
DOCKED: USER        Electrostatic Energy            =  -0.02 kcal/mol
DOCKED: USER        Moving Ligand-Fixed Receptor    =  -9.47 kcal/mol
DOCKED: USER        Moving Ligand-Moving Receptor   =  +0.00 kcal/mol
DOCKED: USER    (2) Final Total Internal Energy     =  -1.55 kcal/mol
DOCKED: USER    (3) Torsional Free Energy           =  +2.09 kcal/mol
DOCKED: USER    (4) Unbound System's Energy         =  -1.55 kcal/mol
DOCKED: USER
DOCKED: USER
DOCKED: REMARK SMILES O=C(C/N=C(\O)c1ccc2cc(Cl)ccc2n1)N1CCC[C@@H]1c1ncc(F)cn1
DOCKED: REMARK SMILES IDX 3 1 4 2 5 3 6 4 7 6 17 7 8 8 16 9 9 10 15 11 10 12 14 13
DOCKED: REMARK SMILES IDX 11 14 12 15 13 16 2 17 1 18 18 19 19 20 22 21 20 22 21 23
DOCKED: REMARK SMILES IDX 23 24 24 25 29 26 25 27 28 28 26 29 27 30
DOCKED: REMARK H PARENT 6 5
DOCKED: USER                              x       y       z     vdW  Elec       q    Type
DOCKED: USER                           _______ _______ _______ _____ _____    ______ ____
DOCKED: ROOT
DOCKED: ATOM      1  C   UNL     1     141.455  74.554 221.629 +0.03 -0.04    +0.246 C  
DOCKED: ENDROOT
DOCKED: BRANCH   1   2
DOCKED: ATOM      2  N   UNL     1     140.758  73.269 221.612 -0.33 +0.02    -0.240 NA 
DOCKED: BRANCH   2   3
DOCKED: ATOM      3  C   UNL     1     139.730  72.947 222.348 -0.18 -0.04    +0.233 C  
DOCKED: BRANCH   3   4
DOCKED: ATOM      4  O   UNL     1     138.494  73.585 222.203 -0.09 +0.16    -0.492 OA 
DOCKED: ATOM      5  H   UNL     1     138.253  74.446 222.677 -0.45 -0.14    +0.295 HD 
DOCKED: ENDBRANCH   3   4
DOCKED: BRANCH   3   6
DOCKED: ATOM      6  C   UNL     1     139.855  71.885 223.364 -0.29 -0.02    +0.125 A  
DOCKED: ATOM      7  N   UNL     1     140.348  72.202 224.594 +0.01 +0.04    -0.243 NA 
DOCKED: ATOM      8  C   UNL     1     139.479  70.556 223.093 -0.26 -0.01    +0.035 A  
DOCKED: ATOM      9  C   UNL     1     140.492  71.275 225.578 -0.52 -0.01    +0.071 A  
DOCKED: ATOM     10  C   UNL     1     139.615  69.582 224.086 -0.28 -0.00    +0.013 A  
DOCKED: ATOM     11  C   UNL     1     141.004  71.648 226.825 -0.72 -0.00    +0.030 A  
DOCKED: ATOM     12  C   UNL     1     140.124  69.932 225.341 -0.45 -0.00    +0.002 A  
DOCKED: ATOM     13  C   UNL     1     141.151  70.693 227.836 -0.59 -0.00    +0.023 A  
DOCKED: ATOM     14  C   UNL     1     140.274  68.979 226.359 -0.53 -0.01    +0.030 A  
DOCKED: ATOM     15  C   UNL     1     140.788  69.361 227.605 -0.58 -0.01    +0.041 A  
DOCKED: ATOM     16  Cl  UNL     1     140.975  68.168 228.877 -0.57 +0.02    -0.084 Cl 
DOCKED: ENDBRANCH   3   6
DOCKED: ENDBRANCH   2   3
DOCKED: ENDBRANCH   1   2
DOCKED: BRANCH   1  17
DOCKED: ATOM     17  C   UNL     1     140.614  75.633 220.996 -0.19 -0.07    +0.245 C  
DOCKED: ATOM     18  O   UNL     1     139.405  75.742 221.338 -0.16 +0.06    -0.273 OA 
DOCKED: BRANCH  17  19
DOCKED: ATOM     19  N   UNL     1     141.176  76.575 220.064 -0.08 +0.14    -0.331 N  
DOCKED: ATOM     20  C   UNL     1     142.109  76.223 219.004 -0.20 -0.06    +0.120 C  
DOCKED: ATOM     21  C   UNL     1     140.831  77.990 220.057 -0.15 -0.06    +0.153 C  
DOCKED: ATOM     22  C   UNL     1     142.498  77.538 218.340 -0.31 -0.02    +0.024 C  
DOCKED: ATOM     23  C   UNL     1     141.434  78.547 218.766 -0.20 -0.02    +0.035 C  
DOCKED: BRANCH  21  24
DOCKED: ATOM     24  C   UNL     1     141.402  78.678 221.267 -0.27 -0.07    +0.150 A  
DOCKED: ATOM     25  N   UNL     1     141.279  78.105 222.495 -0.28 +0.10    -0.236 NA 
DOCKED: ATOM     26  N   UNL     1     142.019  79.887 221.144 -0.22 +0.12    -0.236 NA 
DOCKED: ATOM     27  C   UNL     1     141.772  78.713 223.604 -0.49 -0.05    +0.154 A  
DOCKED: ATOM     28  C   UNL     1     142.525  80.527 222.229 -0.43 -0.05    +0.154 A  
DOCKED: ATOM     29  C   UNL     1     142.413  79.947 223.492 -0.52 -0.04    +0.159 A  
DOCKED: ATOM     30  F   UNL     1     142.911  80.571 224.588 -0.14 +0.03    -0.204 F  
DOCKED: ENDBRANCH  21  24
DOCKED: ENDBRANCH  17  19
DOCKED: ENDBRANCH   1  17
DOCKED: TORSDOF 7
DOCKED: TER
DOCKED: ENDMDL
________________________________________________________________________________


    FINAL DOCKED STATE:
    ________________________


Run:   10 / 20
Time taken for this run:   0.051s

DOCKED: MODEL        10
DOCKED: USER    Run = 10
DOCKED: USER
DOCKED: USER    Estimated Free Energy of Binding    =  -6.24 kcal/mol  [=(1)+(2)+(3)-(4)]
DOCKED: USER
DOCKED: USER    (1) Final Intermolecular Energy     =  -8.32 kcal/mol
DOCKED: USER        vdW + Hbond + desolv Energy     =  -8.30 kcal/mol
DOCKED: USER        Electrostatic Energy            =  -0.03 kcal/mol
DOCKED: USER        Moving Ligand-Fixed Receptor    =  -8.32 kcal/mol
DOCKED: USER        Moving Ligand-Moving Receptor   =  +0.00 kcal/mol
DOCKED: USER    (2) Final Total Internal Energy     =  -2.93 kcal/mol
DOCKED: USER    (3) Torsional Free Energy           =  +2.09 kcal/mol
DOCKED: USER    (4) Unbound System's Energy         =  -2.93 kcal/mol
DOCKED: USER
DOCKED: USER
DOCKED: REMARK SMILES O=C(C/N=C(\O)c1ccc2cc(Cl)ccc2n1)N1CCC[C@@H]1c1ncc(F)cn1
DOCKED: REMARK SMILES IDX 3 1 4 2 5 3 6 4 7 6 17 7 8 8 16 9 9 10 15 11 10 12 14 13
DOCKED: REMARK SMILES IDX 11 14 12 15 13 16 2 17 1 18 18 19 19 20 22 21 20 22 21 23
DOCKED: REMARK SMILES IDX 23 24 24 25 29 26 25 27 28 28 26 29 27 30
DOCKED: REMARK H PARENT 6 5
DOCKED: USER                              x       y       z     vdW  Elec       q    Type
DOCKED: USER                           _______ _______ _______ _____ _____    ______ ____
DOCKED: ROOT
DOCKED: ATOM      1  C   UNL     1     140.933  74.978 221.323 -0.22 -0.05    +0.246 C  
DOCKED: ENDROOT
DOCKED: BRANCH   1   2
DOCKED: ATOM      2  N   UNL     1     139.953  74.131 222.002 -0.80 +0.02    -0.240 NA 
DOCKED: BRANCH   2   3
DOCKED: ATOM      3  C   UNL     1     139.735  72.869 221.758 -0.18 -0.04    +0.233 C  
DOCKED: BRANCH   3   4
DOCKED: ATOM      4  O   UNL     1     139.434  72.411 220.470 -0.00 +0.09    -0.492 OA 
DOCKED: ATOM      5  H   UNL     1     140.137  72.221 219.768 +0.05 -0.05    +0.295 HD 
DOCKED: ENDBRANCH   3   4
DOCKED: BRANCH   3   6
DOCKED: ATOM      6  C   UNL     1     139.803  71.882 222.853 -0.28 -0.02    +0.125 A  
DOCKED: ATOM      7  N   UNL     1     140.331  72.261 224.051 -0.19 +0.04    -0.243 NA 
DOCKED: ATOM      8  C   UNL     1     139.341  70.564 222.689 -0.22 -0.01    +0.035 A  
DOCKED: ATOM      9  C   UNL     1     140.426  71.406 225.103 -0.48 -0.01    +0.071 A  
DOCKED: ATOM     10  C   UNL     1     139.426  69.663 223.753 -0.27 -0.00    +0.013 A  
DOCKED: ATOM     11  C   UNL     1     140.976  71.840 226.314 -0.65 -0.00    +0.030 A  
DOCKED: ATOM     12  C   UNL     1     139.971  70.075 224.974 -0.42 -0.00    +0.002 A  
DOCKED: ATOM     13  C   UNL     1     141.073  70.958 227.395 -0.67 -0.00    +0.023 A  
DOCKED: ATOM     14  C   UNL     1     140.072  69.196 226.062 -0.49 -0.01    +0.030 A  
DOCKED: ATOM     15  C   UNL     1     140.623  69.639 227.271 -0.56 -0.01    +0.041 A  
DOCKED: ATOM     16  Cl  UNL     1     140.749  68.538 228.631 -0.73 +0.02    -0.084 Cl 
DOCKED: ENDBRANCH   3   6
DOCKED: ENDBRANCH   2   3
DOCKED: ENDBRANCH   1   2
DOCKED: BRANCH   1  17
DOCKED: ATOM     17  C   UNL     1     141.564  74.249 220.164 -0.13 -0.06    +0.245 C  
DOCKED: ATOM     18  O   UNL     1     140.881  74.054 219.122 -0.03 +0.06    -0.273 OA 
DOCKED: BRANCH  17  19
DOCKED: ATOM     19  N   UNL     1     142.942  73.833 220.198 -0.12 +0.08    -0.331 N  
DOCKED: ATOM     20  C   UNL     1     144.045  74.597 219.635 -0.31 -0.05    +0.120 C  
DOCKED: ATOM     21  C   UNL     1     143.387  72.607 220.849 -0.20 -0.02    +0.153 C  
DOCKED: ATOM     22  C   UNL     1     145.286  73.734 219.822 -0.42 -0.00    +0.024 C  
DOCKED: ATOM     23  C   UNL     1     144.914  72.697 220.878 -0.44 -0.01    +0.035 C  
DOCKED: BRANCH  21  24
DOCKED: ATOM     24  C   UNL     1     142.927  71.402 220.073 -0.16 -0.02    +0.150 A  
DOCKED: ATOM     25  N   UNL     1     141.698  70.870 220.312 -0.07 +0.03    -0.236 NA 
DOCKED: ATOM     26  N   UNL     1     143.746  70.824 219.151 -0.08 +0.00    -0.236 NA 
DOCKED: ATOM     27  C   UNL     1     141.267  69.774 219.638 -0.08 -0.02    +0.154 A  
DOCKED: ATOM     28  C   UNL     1     143.351  69.727 218.455 -0.08 -0.01    +0.154 A  
DOCKED: ATOM     29  C   UNL     1     142.091  69.176 218.685 -0.08 -0.03    +0.159 A  
DOCKED: ATOM     30  F   UNL     1     141.679  68.080 218.001 -0.00 +0.06    -0.204 F  
DOCKED: ENDBRANCH  21  24
DOCKED: ENDBRANCH  17  19
DOCKED: ENDBRANCH   1  17
DOCKED: TORSDOF 7
DOCKED: TER
DOCKED: ENDMDL
________________________________________________________________________________


    FINAL DOCKED STATE:
    ________________________


Run:   11 / 20
Time taken for this run:   0.051s

DOCKED: MODEL        11
DOCKED: USER    Run = 11
DOCKED: USER
DOCKED: USER    Estimated Free Energy of Binding    =  -7.31 kcal/mol  [=(1)+(2)+(3)-(4)]
DOCKED: USER
DOCKED: USER    (1) Final Intermolecular Energy     =  -9.39 kcal/mol
DOCKED: USER        vdW + Hbond + desolv Energy     =  -9.47 kcal/mol
DOCKED: USER        Electrostatic Energy            =  +0.07 kcal/mol
DOCKED: USER        Moving Ligand-Fixed Receptor    =  -9.39 kcal/mol
DOCKED: USER        Moving Ligand-Moving Receptor   =  +0.00 kcal/mol
DOCKED: USER    (2) Final Total Internal Energy     =  -1.20 kcal/mol
DOCKED: USER    (3) Torsional Free Energy           =  +2.09 kcal/mol
DOCKED: USER    (4) Unbound System's Energy         =  -1.20 kcal/mol
DOCKED: USER
DOCKED: USER
DOCKED: REMARK SMILES O=C(C/N=C(\O)c1ccc2cc(Cl)ccc2n1)N1CCC[C@@H]1c1ncc(F)cn1
DOCKED: REMARK SMILES IDX 3 1 4 2 5 3 6 4 7 6 17 7 8 8 16 9 9 10 15 11 10 12 14 13
DOCKED: REMARK SMILES IDX 11 14 12 15 13 16 2 17 1 18 18 19 19 20 22 21 20 22 21 23
DOCKED: REMARK SMILES IDX 23 24 24 25 29 26 25 27 28 28 26 29 27 30
DOCKED: REMARK H PARENT 6 5
DOCKED: USER                              x       y       z     vdW  Elec       q    Type
DOCKED: USER                           _______ _______ _______ _____ _____    ______ ____
DOCKED: ROOT
DOCKED: ATOM      1  C   UNL     1     141.334  74.766 221.572 -0.12 -0.05    +0.246 C  
DOCKED: ENDROOT
DOCKED: BRANCH   1   2
DOCKED: ATOM      2  N   UNL     1     140.095  74.110 221.987 -0.79 +0.02    -0.240 NA 
DOCKED: BRANCH   2   3
DOCKED: ATOM      3  C   UNL     1     139.777  72.866 221.761 -0.19 -0.04    +0.233 C  
DOCKED: BRANCH   3   4
DOCKED: ATOM      4  O   UNL     1     139.357  72.434 220.498 -0.00 +0.09    -0.492 OA 
DOCKED: ATOM      5  H   UNL     1     139.819  71.699 219.979 +0.05 -0.05    +0.295 HD 
DOCKED: ENDBRANCH   3   4
DOCKED: BRANCH   3   6
DOCKED: ATOM      6  C   UNL     1     139.855  71.874 222.850 -0.28 -0.02    +0.125 A  
DOCKED: ATOM      7  N   UNL     1     140.348  72.259 224.060 -0.18 +0.04    -0.243 NA 
DOCKED: ATOM      8  C   UNL     1     139.436  70.543 222.668 -0.22 -0.01    +0.035 A  
DOCKED: ATOM      9  C   UNL     1     140.450  71.399 225.108 -0.48 -0.01    +0.071 A  
DOCKED: ATOM     10  C   UNL     1     139.529  69.637 223.727 -0.26 -0.00    +0.013 A  
DOCKED: ATOM     11  C   UNL     1     140.963  71.841 226.332 -0.65 -0.00    +0.030 A  
DOCKED: ATOM     12  C   UNL     1     140.038  70.056 224.960 -0.42 -0.00    +0.002 A  
DOCKED: ATOM     13  C   UNL     1     141.068  70.954 227.408 -0.67 -0.00    +0.023 A  
DOCKED: ATOM     14  C   UNL     1     140.146  69.172 226.044 -0.49 -0.01    +0.030 A  
DOCKED: ATOM     15  C   UNL     1     140.661  69.622 227.266 -0.56 -0.01    +0.041 A  
DOCKED: ATOM     16  Cl  UNL     1     140.795  68.515 228.620 -0.74 +0.02    -0.084 Cl 
DOCKED: ENDBRANCH   3   6
DOCKED: ENDBRANCH   2   3
DOCKED: ENDBRANCH   1   2
DOCKED: BRANCH   1  17
DOCKED: ATOM     17  C   UNL     1     141.069  76.174 221.106 -0.22 -0.09    +0.245 C  
DOCKED: ATOM     18  O   UNL     1     141.943  76.762 220.412 -0.20 +0.16    -0.273 OA 
DOCKED: BRANCH  17  19
DOCKED: ATOM     19  N   UNL     1     139.819  76.835 221.380 -0.10 +0.09    -0.331 N  
DOCKED: ATOM     20  C   UNL     1     138.752  77.008 220.406 -0.07 -0.03    +0.120 C  
DOCKED: ATOM     21  C   UNL     1     139.470  77.366 222.691 -0.19 -0.03    +0.153 C  
DOCKED: ATOM     22  C   UNL     1     137.679  77.832 221.107 -0.10 -0.00    +0.024 C  
DOCKED: ATOM     23  C   UNL     1     137.986  77.725 222.599 -0.25 -0.01    +0.035 C  
DOCKED: BRANCH  21  24
DOCKED: ATOM     24  C   UNL     1     140.306  78.576 223.008 -0.33 -0.03    +0.150 A  
DOCKED: ATOM     25  N   UNL     1     141.652  78.451 223.158 -0.34 +0.09    -0.236 NA 
DOCKED: ATOM     26  N   UNL     1     139.717  79.794 223.174 -0.22 +0.04    -0.236 NA 
DOCKED: ATOM     27  C   UNL     1     142.426  79.525 223.461 -0.48 -0.05    +0.154 A  
DOCKED: ATOM     28  C   UNL     1     140.457  80.892 223.477 -0.35 -0.02    +0.154 A  
DOCKED: ATOM     29  C   UNL     1     141.838  80.779 223.626 -0.48 -0.03    +0.159 A  
DOCKED: ATOM     30  F   UNL     1     142.594  81.864 223.928 -0.15 +0.02    -0.204 F  
DOCKED: ENDBRANCH  21  24
DOCKED: ENDBRANCH  17  19
DOCKED: ENDBRANCH   1  17
DOCKED: TORSDOF 7
DOCKED: TER
DOCKED: ENDMDL
________________________________________________________________________________


    FINAL DOCKED STATE:
    ________________________


Run:   12 / 20
Time taken for this run:   0.051s

DOCKED: MODEL        12
DOCKED: USER    Run = 12
DOCKED: USER
DOCKED: USER    Estimated Free Energy of Binding    =  -6.52 kcal/mol  [=(1)+(2)+(3)-(4)]
DOCKED: USER
DOCKED: USER    (1) Final Intermolecular Energy     =  -8.61 kcal/mol
DOCKED: USER        vdW + Hbond + desolv Energy     =  -8.48 kcal/mol
DOCKED: USER        Electrostatic Energy            =  -0.13 kcal/mol
DOCKED: USER        Moving Ligand-Fixed Receptor    =  -8.61 kcal/mol
DOCKED: USER        Moving Ligand-Moving Receptor   =  +0.00 kcal/mol
DOCKED: USER    (2) Final Total Internal Energy     =  -2.46 kcal/mol
DOCKED: USER    (3) Torsional Free Energy           =  +2.09 kcal/mol
DOCKED: USER    (4) Unbound System's Energy         =  -2.46 kcal/mol
DOCKED: USER
DOCKED: USER
DOCKED: REMARK SMILES O=C(C/N=C(\O)c1ccc2cc(Cl)ccc2n1)N1CCC[C@@H]1c1ncc(F)cn1
DOCKED: REMARK SMILES IDX 3 1 4 2 5 3 6 4 7 6 17 7 8 8 16 9 9 10 15 11 10 12 14 13
DOCKED: REMARK SMILES IDX 11 14 12 15 13 16 2 17 1 18 18 19 19 20 22 21 20 22 21 23
DOCKED: REMARK SMILES IDX 23 24 24 25 29 26 25 27 28 28 26 29 27 30
DOCKED: REMARK H PARENT 6 5
DOCKED: USER                              x       y       z     vdW  Elec       q    Type
DOCKED: USER                           _______ _______ _______ _____ _____    ______ ____
DOCKED: ROOT
DOCKED: ATOM      1  C   UNL     1     139.269  74.583 220.646 -0.09 -0.05    +0.246 C  
DOCKED: ENDROOT
DOCKED: BRANCH   1   2
DOCKED: ATOM      2  N   UNL     1     139.213  73.242 221.226 -0.11 +0.05    -0.240 NA 
DOCKED: BRANCH   2   3
DOCKED: ATOM      3  C   UNL     1     140.239  72.514 221.568 -0.18 -0.03    +0.233 C  
DOCKED: BRANCH   3   4
DOCKED: ATOM      4  O   UNL     1     141.449  72.576 220.867 -0.06 +0.07    -0.492 OA 
DOCKED: ATOM      5  H   UNL     1     142.038  73.398 220.846 +0.12 -0.05    +0.295 HD 
DOCKED: ENDBRANCH   3   4
DOCKED: BRANCH   3   6
DOCKED: ATOM      6  C   UNL     1     140.143  71.597 222.719 -0.27 -0.02    +0.125 A  
DOCKED: ATOM      7  N   UNL     1     140.661  71.985 223.918 -0.22 +0.02    -0.243 NA 
DOCKED: ATOM      8  C   UNL     1     139.532  70.334 222.608 -0.20 -0.01    +0.035 A  
DOCKED: ATOM      9  C   UNL     1     140.609  71.191 225.021 -0.49 -0.01    +0.071 A  
DOCKED: ATOM     10  C   UNL     1     139.464  69.497 223.724 -0.25 -0.00    +0.013 A  
DOCKED: ATOM     11  C   UNL     1     141.156  71.633 226.230 -0.65 -0.00    +0.030 A  
DOCKED: ATOM     12  C   UNL     1     140.003  69.918 224.945 -0.41 -0.00    +0.002 A  
DOCKED: ATOM     13  C   UNL     1     141.102  70.814 227.363 -0.63 -0.00    +0.023 A  
DOCKED: ATOM     14  C   UNL     1     139.953  69.102 226.085 -0.49 -0.00    +0.030 A  
DOCKED: ATOM     15  C   UNL     1     140.502  69.551 227.292 -0.56 -0.01    +0.041 A  
DOCKED: ATOM     16  Cl  UNL     1     140.438  68.531 228.717 -0.68 +0.02    -0.084 Cl 
DOCKED: ENDBRANCH   3   6
DOCKED: ENDBRANCH   2   3
DOCKED: ENDBRANCH   1   2
DOCKED: BRANCH   1  17
DOCKED: ATOM     17  C   UNL     1     140.627  75.204 220.852 -0.18 -0.06    +0.245 C  
DOCKED: ATOM     18  O   UNL     1     141.173  75.112 221.986 -0.52 +0.04    -0.273 OA 
DOCKED: BRANCH  17  19
DOCKED: ATOM     19  N   UNL     1     141.336  75.838 219.772 -0.06 +0.12    -0.331 N  
DOCKED: ATOM     20  C   UNL     1     140.722  76.258 218.521 -0.06 -0.04    +0.120 C  
DOCKED: ATOM     21  C   UNL     1     142.753  76.171 219.837 -0.26 -0.09    +0.153 C  
DOCKED: ATOM     22  C   UNL     1     141.860  76.787 217.657 -0.15 -0.01    +0.024 C  
DOCKED: ATOM     23  C   UNL     1     143.018  77.052 218.616 -0.32 -0.02    +0.035 C  
DOCKED: BRANCH  21  24
DOCKED: ATOM     24  C   UNL     1     143.590  74.921 219.800 -0.31 -0.07    +0.150 A  
DOCKED: ATOM     25  N   UNL     1     144.772  74.875 220.472 -0.30 +0.12    -0.236 NA 
DOCKED: ATOM     26  N   UNL     1     143.183  73.843 219.073 -0.09 +0.06    -0.236 NA 
DOCKED: ATOM     27  C   UNL     1     145.553  73.764 220.440 -0.50 -0.02    +0.154 A  
DOCKED: ATOM     28  C   UNL     1     143.936  72.713 219.017 -0.14 -0.01    +0.154 A  
DOCKED: ATOM     29  C   UNL     1     145.146  72.650 219.707 -0.31 +0.02    +0.159 A  
DOCKED: ATOM     30  F   UNL     1     145.911  71.532 219.662 -0.10 -0.12    -0.204 F  
DOCKED: ENDBRANCH  21  24
DOCKED: ENDBRANCH  17  19
DOCKED: ENDBRANCH   1  17
DOCKED: TORSDOF 7
DOCKED: TER
DOCKED: ENDMDL
________________________________________________________________________________


    FINAL DOCKED STATE:
    ________________________


Run:   13 / 20
Time taken for this run:   0.051s

DOCKED: MODEL        13
DOCKED: USER    Run = 13
DOCKED: USER
DOCKED: USER    Estimated Free Energy of Binding    =  -6.65 kcal/mol  [=(1)+(2)+(3)-(4)]
DOCKED: USER
DOCKED: USER    (1) Final Intermolecular Energy     =  -8.73 kcal/mol
DOCKED: USER        vdW + Hbond + desolv Energy     =  -8.70 kcal/mol
DOCKED: USER        Electrostatic Energy            =  -0.03 kcal/mol
DOCKED: USER        Moving Ligand-Fixed Receptor    =  -8.73 kcal/mol
DOCKED: USER        Moving Ligand-Moving Receptor   =  +0.00 kcal/mol
DOCKED: USER    (2) Final Total Internal Energy     =  -2.50 kcal/mol
DOCKED: USER    (3) Torsional Free Energy           =  +2.09 kcal/mol
DOCKED: USER    (4) Unbound System's Energy         =  -2.50 kcal/mol
DOCKED: USER
DOCKED: USER
DOCKED: REMARK SMILES O=C(C/N=C(\O)c1ccc2cc(Cl)ccc2n1)N1CCC[C@@H]1c1ncc(F)cn1
DOCKED: REMARK SMILES IDX 3 1 4 2 5 3 6 4 7 6 17 7 8 8 16 9 9 10 15 11 10 12 14 13
DOCKED: REMARK SMILES IDX 11 14 12 15 13 16 2 17 1 18 18 19 19 20 22 21 20 22 21 23
DOCKED: REMARK SMILES IDX 23 24 24 25 29 26 25 27 28 28 26 29 27 30
DOCKED: REMARK H PARENT 6 5
DOCKED: USER                              x       y       z     vdW  Elec       q    Type
DOCKED: USER                           _______ _______ _______ _____ _____    ______ ____
DOCKED: ROOT
DOCKED: ATOM      1  C   UNL     1     141.494  73.107 219.552 -0.06 -0.05    +0.246 C  
DOCKED: ENDROOT
DOCKED: BRANCH   1   2
DOCKED: ATOM      2  N   UNL     1     140.396  72.645 220.400 -0.06 +0.04    -0.240 NA 
DOCKED: BRANCH   2   3
DOCKED: ATOM      3  C   UNL     1     140.188  72.996 221.638 -0.20 -0.03    +0.233 C  
DOCKED: BRANCH   3   4
DOCKED: ATOM      4  O   UNL     1     140.015  74.336 222.002 -0.72 +0.05    -0.492 OA 
DOCKED: ATOM      5  H   UNL     1     140.769  75.011 222.014 +0.10 -0.03    +0.295 HD 
DOCKED: ENDBRANCH   3   4
DOCKED: BRANCH   3   6
DOCKED: ATOM      6  C   UNL     1     140.128  71.970 222.696 -0.28 -0.02    +0.125 A  
DOCKED: ATOM      7  N   UNL     1     140.612  72.269 223.934 -0.15 +0.02    -0.243 NA 
DOCKED: ATOM      8  C   UNL     1     139.587  70.693 222.457 -0.21 -0.01    +0.035 A  
DOCKED: ATOM      9  C   UNL     1     140.591  71.373 224.957 -0.47 -0.01    +0.071 A  
DOCKED: ATOM     10  C   UNL     1     139.551  69.752 223.489 -0.24 -0.00    +0.013 A  
DOCKED: ATOM     11  C   UNL     1     141.101  71.726 226.211 -0.65 -0.00    +0.030 A  
DOCKED: ATOM     12  C   UNL     1     140.055  70.083 224.752 -0.40 -0.00    +0.002 A  
DOCKED: ATOM     13  C   UNL     1     141.078  70.802 227.260 -0.64 -0.00    +0.023 A  
DOCKED: ATOM     14  C   UNL     1     140.035  69.161 225.809 -0.46 -0.01    +0.030 A  
DOCKED: ATOM     15  C   UNL     1     140.547  69.522 227.062 -0.55 -0.01    +0.041 A  
DOCKED: ATOM     16  Cl  UNL     1     140.522  68.369 228.383 -0.73 +0.02    -0.084 Cl 
DOCKED: ENDBRANCH   3   6
DOCKED: ENDBRANCH   2   3
DOCKED: ENDBRANCH   1   2
DOCKED: BRANCH   1  17
DOCKED: ATOM     17  C   UNL     1     142.060  74.407 220.063 -0.15 -0.07    +0.245 C  
DOCKED: ATOM     18  O   UNL     1     142.583  74.435 221.210 -0.16 +0.08    -0.273 OA 
DOCKED: BRANCH  17  19
DOCKED: ATOM     19  N   UNL     1     142.075  75.594 219.247 -0.07 +0.14    -0.331 N  
DOCKED: ATOM     20  C   UNL     1     143.015  75.832 218.163 -0.20 -0.06    +0.120 C  
DOCKED: ATOM     21  C   UNL     1     141.109  76.673 219.396 -0.12 -0.06    +0.153 C  
DOCKED: ATOM     22  C   UNL     1     142.714  77.237 217.654 -0.27 -0.02    +0.024 C  
DOCKED: ATOM     23  C   UNL     1     141.323  77.578 218.182 -0.15 -0.02    +0.035 C  
DOCKED: BRANCH  21  24
DOCKED: ATOM     24  C   UNL     1     141.347  77.420 220.681 -0.23 -0.08    +0.150 A  
DOCKED: ATOM     25  N   UNL     1     140.980  76.864 221.867 -0.24 +0.09    -0.236 NA 
DOCKED: ATOM     26  N   UNL     1     141.904  78.663 220.661 -0.17 +0.15    -0.236 NA 
DOCKED: ATOM     27  C   UNL     1     141.170  77.524 223.039 -0.25 -0.06    +0.154 A  
DOCKED: ATOM     28  C   UNL     1     142.110  79.356 221.811 -0.34 -0.08    +0.154 A  
DOCKED: ATOM     29  C   UNL     1     141.746  78.794 223.034 -0.44 -0.06    +0.159 A  
DOCKED: ATOM     30  F   UNL     1     141.943  79.470 224.193 -0.17 +0.05    -0.204 F  
DOCKED: ENDBRANCH  21  24
DOCKED: ENDBRANCH  17  19
DOCKED: ENDBRANCH   1  17
DOCKED: TORSDOF 7
DOCKED: TER
DOCKED: ENDMDL
________________________________________________________________________________


    FINAL DOCKED STATE:
    ________________________


Run:   14 / 20
Time taken for this run:   0.051s

DOCKED: MODEL        14
DOCKED: USER    Run = 14
DOCKED: USER
DOCKED: USER    Estimated Free Energy of Binding    =  -8.08 kcal/mol  [=(1)+(2)+(3)-(4)]
DOCKED: USER
DOCKED: USER    (1) Final Intermolecular Energy     = -10.17 kcal/mol
DOCKED: USER        vdW + Hbond + desolv Energy     = -10.14 kcal/mol
DOCKED: USER        Electrostatic Energy            =  -0.03 kcal/mol
DOCKED: USER        Moving Ligand-Fixed Receptor    = -10.17 kcal/mol
DOCKED: USER        Moving Ligand-Moving Receptor   =  +0.00 kcal/mol
DOCKED: USER    (2) Final Total Internal Energy     =  -1.55 kcal/mol
DOCKED: USER    (3) Torsional Free Energy           =  +2.09 kcal/mol
DOCKED: USER    (4) Unbound System's Energy         =  -1.55 kcal/mol
DOCKED: USER
DOCKED: USER
DOCKED: REMARK SMILES O=C(C/N=C(\O)c1ccc2cc(Cl)ccc2n1)N1CCC[C@@H]1c1ncc(F)cn1
DOCKED: REMARK SMILES IDX 3 1 4 2 5 3 6 4 7 6 17 7 8 8 16 9 9 10 15 11 10 12 14 13
DOCKED: REMARK SMILES IDX 11 14 12 15 13 16 2 17 1 18 18 19 19 20 22 21 20 22 21 23
DOCKED: REMARK SMILES IDX 23 24 24 25 29 26 25 27 28 28 26 29 27 30
DOCKED: REMARK H PARENT 6 5
DOCKED: USER                              x       y       z     vdW  Elec       q    Type
DOCKED: USER                           _______ _______ _______ _____ _____    ______ ____
DOCKED: ROOT
DOCKED: ATOM      1  C   UNL     1     141.744  73.935 221.188 -0.12 -0.04    +0.246 C  
DOCKED: ENDROOT
DOCKED: BRANCH   1   2
DOCKED: ATOM      2  N   UNL     1     140.688  72.925 221.232 -0.17 +0.03    -0.240 NA 
DOCKED: BRANCH   2   3
DOCKED: ATOM      3  C   UNL     1     139.765  72.825 222.147 -0.20 -0.04    +0.233 C  
DOCKED: BRANCH   3   4
DOCKED: ATOM      4  O   UNL     1     138.666  73.690 222.180 -0.14 +0.15    -0.492 OA 
DOCKED: ATOM      5  H   UNL     1     138.622  74.511 222.769 -0.49 -0.13    +0.295 HD 
DOCKED: ENDBRANCH   3   4
DOCKED: BRANCH   3   6
DOCKED: ATOM      6  C   UNL     1     139.863  71.778 223.183 -0.30 -0.02    +0.125 A  
DOCKED: ATOM      7  N   UNL     1     140.344  72.111 224.414 -0.13 +0.04    -0.243 NA 
DOCKED: ATOM      8  C   UNL     1     139.476  70.450 222.930 -0.24 -0.01    +0.035 A  
DOCKED: ATOM      9  C   UNL     1     140.464  71.199 225.415 -0.51 -0.01    +0.071 A  
DOCKED: ATOM     10  C   UNL     1     139.587  69.491 223.940 -0.26 -0.00    +0.013 A  
DOCKED: ATOM     11  C   UNL     1     140.963  71.587 226.663 -0.70 -0.00    +0.030 A  
DOCKED: ATOM     12  C   UNL     1     140.084  69.857 225.196 -0.43 -0.00    +0.002 A  
DOCKED: ATOM     13  C   UNL     1     141.086  70.648 227.691 -0.62 -0.00    +0.023 A  
DOCKED: ATOM     14  C   UNL     1     140.209  68.920 226.232 -0.52 -0.01    +0.030 A  
DOCKED: ATOM     15  C   UNL     1     140.710  69.316 227.478 -0.58 -0.01    +0.041 A  
DOCKED: ATOM     16  Cl  UNL     1     140.866  68.143 228.772 -0.62 +0.02    -0.084 Cl 
DOCKED: ENDBRANCH   3   6
DOCKED: ENDBRANCH   2   3
DOCKED: ENDBRANCH   1   2
DOCKED: BRANCH   1  17
DOCKED: ATOM     17  C   UNL     1     141.161  75.325 221.180 -0.22 -0.07    +0.245 C  
DOCKED: ATOM     18  O   UNL     1     140.329  75.641 222.073 -0.49 +0.05    -0.273 OA 
DOCKED: BRANCH  17  19
DOCKED: ATOM     19  N   UNL     1     141.582  76.312 220.220 -0.11 +0.15    -0.331 N  
DOCKED: ATOM     20  C   UNL     1     142.565  76.072 219.174 -0.26 -0.06    +0.120 C  
DOCKED: ATOM     21  C   UNL     1     141.028  77.658 220.167 -0.18 -0.07    +0.153 C  
DOCKED: ATOM     22  C   UNL     1     142.756  77.410 218.470 -0.32 -0.02    +0.024 C  
DOCKED: ATOM     23  C   UNL     1     141.549  78.259 218.861 -0.22 -0.02    +0.035 C  
DOCKED: BRANCH  21  24
DOCKED: ATOM     24  C   UNL     1     141.481  78.461 221.357 -0.28 -0.08    +0.150 A  
DOCKED: ATOM     25  N   UNL     1     142.065  79.676 221.173 -0.21 +0.13    -0.236 NA 
DOCKED: ATOM     26  N   UNL     1     141.333  77.966 222.617 -0.28 +0.10    -0.236 NA 
DOCKED: ATOM     27  C   UNL     1     142.497  80.412 222.229 -0.43 -0.05    +0.154 A  
DOCKED: ATOM     28  C   UNL     1     141.752  78.672 223.699 -0.48 -0.05    +0.154 A  
DOCKED: ATOM     29  C   UNL     1     142.346  79.921 223.525 -0.51 -0.04    +0.159 A  
DOCKED: ATOM     30  F   UNL     1     142.771  80.641 224.593 -0.13 +0.03    -0.204 F  
DOCKED: ENDBRANCH  21  24
DOCKED: ENDBRANCH  17  19
DOCKED: ENDBRANCH   1  17
DOCKED: TORSDOF 7
DOCKED: TER
DOCKED: ENDMDL
________________________________________________________________________________


    FINAL DOCKED STATE:
    ________________________


Run:   15 / 20
Time taken for this run:   0.051s

DOCKED: MODEL        15
DOCKED: USER    Run = 15
DOCKED: USER
DOCKED: USER    Estimated Free Energy of Binding    =  -5.45 kcal/mol  [=(1)+(2)+(3)-(4)]
DOCKED: USER
DOCKED: USER    (1) Final Intermolecular Energy     =  -7.54 kcal/mol
DOCKED: USER        vdW + Hbond + desolv Energy     =  -7.52 kcal/mol
DOCKED: USER        Electrostatic Energy            =  -0.02 kcal/mol
DOCKED: USER        Moving Ligand-Fixed Receptor    =  -7.54 kcal/mol
DOCKED: USER        Moving Ligand-Moving Receptor   =  +0.00 kcal/mol
DOCKED: USER    (2) Final Total Internal Energy     =  -3.34 kcal/mol
DOCKED: USER    (3) Torsional Free Energy           =  +2.09 kcal/mol
DOCKED: USER    (4) Unbound System's Energy         =  -3.34 kcal/mol
DOCKED: USER
DOCKED: USER
DOCKED: REMARK SMILES O=C(C/N=C(\O)c1ccc2cc(Cl)ccc2n1)N1CCC[C@@H]1c1ncc(F)cn1
DOCKED: REMARK SMILES IDX 3 1 4 2 5 3 6 4 7 6 17 7 8 8 16 9 9 10 15 11 10 12 14 13
DOCKED: REMARK SMILES IDX 11 14 12 15 13 16 2 17 1 18 18 19 19 20 22 21 20 22 21 23
DOCKED: REMARK SMILES IDX 23 24 24 25 29 26 25 27 28 28 26 29 27 30
DOCKED: REMARK H PARENT 6 5
DOCKED: USER                              x       y       z     vdW  Elec       q    Type
DOCKED: USER                           _______ _______ _______ _____ _____    ______ ____
DOCKED: ROOT
DOCKED: ATOM      1  C   UNL     1     139.552  74.888 221.526 -0.20 -0.05    +0.246 C  
DOCKED: ENDROOT
DOCKED: BRANCH   1   2
DOCKED: ATOM      2  N   UNL     1     139.950  73.730 222.325 -0.79 +0.02    -0.240 NA 
DOCKED: BRANCH   2   3
DOCKED: ATOM      3  C   UNL     1     139.557  72.501 222.136 -0.19 -0.04    +0.233 C  
DOCKED: BRANCH   3   4
DOCKED: ATOM      4  O   UNL     1     138.989  72.089 220.926 -0.01 +0.09    -0.492 OA 
DOCKED: ATOM      5  H   UNL     1     138.067  72.372 220.619 +0.05 -0.06    +0.295 HD 
DOCKED: ENDBRANCH   3   4
DOCKED: BRANCH   3   6
DOCKED: ATOM      6  C   UNL     1     139.708  71.504 223.214 -0.29 -0.02    +0.125 A  
DOCKED: ATOM      7  N   UNL     1     140.182  71.909 224.426 -0.23 +0.05    -0.243 NA 
DOCKED: ATOM      8  C   UNL     1     139.378  70.151 223.019 -0.22 -0.01    +0.035 A  
DOCKED: ATOM      9  C   UNL     1     140.349  71.047 225.463 -0.50 -0.01    +0.071 A  
DOCKED: ATOM     10  C   UNL     1     139.538  69.241 224.068 -0.26 -0.00    +0.013 A  
DOCKED: ATOM     11  C   UNL     1     140.839  71.508 226.689 -0.69 -0.00    +0.030 A  
DOCKED: ATOM     12  C   UNL     1     140.027  69.681 225.303 -0.43 -0.00    +0.002 A  
DOCKED: ATOM     13  C   UNL     1     141.010  70.619 227.755 -0.64 -0.00    +0.023 A  
DOCKED: ATOM     14  C   UNL     1     140.200  68.794 226.376 -0.54 -0.01    +0.030 A  
DOCKED: ATOM     15  C   UNL     1     140.691  69.264 227.600 -0.59 -0.01    +0.041 A  
DOCKED: ATOM     16  Cl  UNL     1     140.908  68.155 228.941 -0.51 +0.02    -0.084 Cl 
DOCKED: ENDBRANCH   3   6
DOCKED: ENDBRANCH   2   3
DOCKED: ENDBRANCH   1   2
DOCKED: BRANCH   1  17
DOCKED: ATOM     17  C   UNL     1     138.101  74.795 221.126 -0.10 -0.06    +0.245 C  
DOCKED: ATOM     18  O   UNL     1     137.814  74.410 219.960 -0.02 +0.06    -0.273 OA 
DOCKED: BRANCH  17  19
DOCKED: ATOM     19  N   UNL     1     137.044  75.073 222.063 -0.08 +0.09    -0.331 N  
DOCKED: ATOM     20  C   UNL     1     137.109  76.096 223.095 -0.21 -0.03    +0.120 C  
DOCKED: ATOM     21  C   UNL     1     135.763  74.378 222.046 -0.09 -0.03    +0.153 C  
DOCKED: ATOM     22  C   UNL     1     135.817  75.965 223.892 -0.25 -0.00    +0.024 C  
DOCKED: ATOM     23  C   UNL     1     134.868  75.157 223.011 -0.14 -0.01    +0.035 C  
DOCKED: BRANCH  21  24
DOCKED: ATOM     24  C   UNL     1     135.933  72.950 222.491 -0.10 -0.03    +0.150 A  
DOCKED: ATOM     25  N   UNL     1     136.151  71.973 221.569 -0.02 +0.04    -0.236 NA 
DOCKED: ATOM     26  N   UNL     1     135.841  72.626 223.811 -0.13 +0.05    -0.236 NA 
DOCKED: ATOM     27  C   UNL     1     136.291  70.676 221.944 -0.04 -0.03    +0.154 A  
DOCKED: ATOM     28  C   UNL     1     135.975  71.339 224.226 -0.14 -0.02    +0.154 A  
DOCKED: ATOM     29  C   UNL     1     136.207  70.330 223.293 -0.11 -0.02    +0.159 A  
DOCKED: ATOM     30  F   UNL     1     136.344  69.040 223.687 -0.04 +0.01    -0.204 F  
DOCKED: ENDBRANCH  21  24
DOCKED: ENDBRANCH  17  19
DOCKED: ENDBRANCH   1  17
DOCKED: TORSDOF 7
DOCKED: TER
DOCKED: ENDMDL
________________________________________________________________________________


    FINAL DOCKED STATE:
    ________________________


Run:   16 / 20
Time taken for this run:   0.051s

DOCKED: MODEL        16
DOCKED: USER    Run = 16
DOCKED: USER
DOCKED: USER    Estimated Free Energy of Binding    =  -6.30 kcal/mol  [=(1)+(2)+(3)-(4)]
DOCKED: USER
DOCKED: USER    (1) Final Intermolecular Energy     =  -8.39 kcal/mol
DOCKED: USER        vdW + Hbond + desolv Energy     =  -8.36 kcal/mol
DOCKED: USER        Electrostatic Energy            =  -0.03 kcal/mol
DOCKED: USER        Moving Ligand-Fixed Receptor    =  -8.39 kcal/mol
DOCKED: USER        Moving Ligand-Moving Receptor   =  +0.00 kcal/mol
DOCKED: USER    (2) Final Total Internal Energy     =  -2.94 kcal/mol
DOCKED: USER    (3) Torsional Free Energy           =  +2.09 kcal/mol
DOCKED: USER    (4) Unbound System's Energy         =  -2.94 kcal/mol
DOCKED: USER
DOCKED: USER
DOCKED: REMARK SMILES O=C(C/N=C(\O)c1ccc2cc(Cl)ccc2n1)N1CCC[C@@H]1c1ncc(F)cn1
DOCKED: REMARK SMILES IDX 3 1 4 2 5 3 6 4 7 6 17 7 8 8 16 9 9 10 15 11 10 12 14 13
DOCKED: REMARK SMILES IDX 11 14 12 15 13 16 2 17 1 18 18 19 19 20 22 21 20 22 21 23
DOCKED: REMARK SMILES IDX 23 24 24 25 29 26 25 27 28 28 26 29 27 30
DOCKED: REMARK H PARENT 6 5
DOCKED: USER                              x       y       z     vdW  Elec       q    Type
DOCKED: USER                           _______ _______ _______ _____ _____    ______ ____
DOCKED: ROOT
DOCKED: ATOM      1  C   UNL     1     140.991  74.895 221.173 -0.22 -0.06    +0.246 C  
DOCKED: ENDROOT
DOCKED: BRANCH   1   2
DOCKED: ATOM      2  N   UNL     1     140.095  74.098 222.010 -0.79 +0.02    -0.240 NA 
DOCKED: BRANCH   2   3
DOCKED: ATOM      3  C   UNL     1     139.744  72.861 221.791 -0.19 -0.04    +0.233 C  
DOCKED: BRANCH   3   4
DOCKED: ATOM      4  O   UNL     1     139.283  72.440 220.539 -0.00 +0.09    -0.492 OA 
DOCKED: ATOM      5  H   UNL     1     139.885  72.049 219.826 +0.05 -0.05    +0.295 HD 
DOCKED: ENDBRANCH   3   4
DOCKED: BRANCH   3   6
DOCKED: ATOM      6  C   UNL     1     139.830  71.867 222.877 -0.28 -0.02    +0.125 A  
DOCKED: ATOM      7  N   UNL     1     140.331  72.249 224.085 -0.18 +0.04    -0.243 NA 
DOCKED: ATOM      8  C   UNL     1     139.411  70.536 222.694 -0.22 -0.01    +0.035 A  
DOCKED: ATOM      9  C   UNL     1     140.441  71.387 225.130 -0.48 -0.01    +0.071 A  
DOCKED: ATOM     10  C   UNL     1     139.511  69.627 223.751 -0.26 -0.00    +0.013 A  
DOCKED: ATOM     11  C   UNL     1     140.962  71.826 226.352 -0.65 -0.00    +0.030 A  
DOCKED: ATOM     12  C   UNL     1     140.029  70.044 224.982 -0.42 -0.00    +0.002 A  
DOCKED: ATOM     13  C   UNL     1     141.074  70.937 227.425 -0.67 -0.00    +0.023 A  
DOCKED: ATOM     14  C   UNL     1     140.144  69.157 226.063 -0.49 -0.01    +0.030 A  
DOCKED: ATOM     15  C   UNL     1     140.667  69.605 227.282 -0.56 -0.01    +0.041 A  
DOCKED: ATOM     16  Cl  UNL     1     140.810  68.495 228.633 -0.73 +0.02    -0.084 Cl 
DOCKED: ENDBRANCH   3   6
DOCKED: ENDBRANCH   2   3
DOCKED: ENDBRANCH   1   2
DOCKED: BRANCH   1  17
DOCKED: ATOM     17  C   UNL     1     141.608  74.052 220.087 -0.12 -0.06    +0.245 C  
DOCKED: ATOM     18  O   UNL     1     140.903  73.727 219.093 -0.02 +0.06    -0.273 OA 
DOCKED: BRANCH  17  19
DOCKED: ATOM     19  N   UNL     1     142.995  73.667 220.131 -0.11 +0.08    -0.331 N  
DOCKED: ATOM     20  C   UNL     1     144.065  74.378 219.448 -0.28 -0.04    +0.120 C  
DOCKED: ATOM     21  C   UNL     1     143.483  72.536 220.908 -0.14 -0.02    +0.153 C  
DOCKED: ATOM     22  C   UNL     1     145.329  73.565 219.700 -0.41 -0.00    +0.024 C  
DOCKED: ATOM     23  C   UNL     1     145.007  72.655 220.883 -0.44 -0.01    +0.035 C  
DOCKED: BRANCH  21  24
DOCKED: ATOM     24  C   UNL     1     143.027  71.239 220.295 -0.16 -0.02    +0.150 A  
DOCKED: ATOM     25  N   UNL     1     141.698  70.972 220.181 -0.07 +0.03    -0.236 NA 
DOCKED: ATOM     26  N   UNL     1     143.940  70.317 219.879 -0.12 -0.00    -0.236 NA 
DOCKED: ATOM     27  C   UNL     1     141.262  69.803 219.646 -0.08 -0.02    +0.154 A  
DOCKED: ATOM     28  C   UNL     1     143.544  69.135 219.338 -0.17 -0.01    +0.154 A  
DOCKED: ATOM     29  C   UNL     1     142.185  68.853 219.208 -0.11 -0.03    +0.159 A  
DOCKED: ATOM     30  F   UNL     1     141.770  67.679 218.672 -0.02 +0.06    -0.204 F  
DOCKED: ENDBRANCH  21  24
DOCKED: ENDBRANCH  17  19
DOCKED: ENDBRANCH   1  17
DOCKED: TORSDOF 7
DOCKED: TER
DOCKED: ENDMDL
________________________________________________________________________________


    FINAL DOCKED STATE:
    ________________________


Run:   17 / 20
Time taken for this run:   0.051s

DOCKED: MODEL        17
DOCKED: USER    Run = 17
DOCKED: USER
DOCKED: USER    Estimated Free Energy of Binding    =  -6.28 kcal/mol  [=(1)+(2)+(3)-(4)]
DOCKED: USER
DOCKED: USER    (1) Final Intermolecular Energy     =  -8.37 kcal/mol
DOCKED: USER        vdW + Hbond + desolv Energy     =  -8.34 kcal/mol
DOCKED: USER        Electrostatic Energy            =  -0.03 kcal/mol
DOCKED: USER        Moving Ligand-Fixed Receptor    =  -8.37 kcal/mol
DOCKED: USER        Moving Ligand-Moving Receptor   =  +0.00 kcal/mol
DOCKED: USER    (2) Final Total Internal Energy     =  -2.96 kcal/mol
DOCKED: USER    (3) Torsional Free Energy           =  +2.09 kcal/mol
DOCKED: USER    (4) Unbound System's Energy         =  -2.96 kcal/mol
DOCKED: USER
DOCKED: USER
DOCKED: REMARK SMILES O=C(C/N=C(\O)c1ccc2cc(Cl)ccc2n1)N1CCC[C@@H]1c1ncc(F)cn1
DOCKED: REMARK SMILES IDX 3 1 4 2 5 3 6 4 7 6 17 7 8 8 16 9 9 10 15 11 10 12 14 13
DOCKED: REMARK SMILES IDX 11 14 12 15 13 16 2 17 1 18 18 19 19 20 22 21 20 22 21 23
DOCKED: REMARK SMILES IDX 23 24 24 25 29 26 25 27 28 28 26 29 27 30
DOCKED: REMARK H PARENT 6 5
DOCKED: USER                              x       y       z     vdW  Elec       q    Type
DOCKED: USER                           _______ _______ _______ _____ _____    ______ ____
DOCKED: ROOT
DOCKED: ATOM      1  C   UNL     1     140.900  74.906 220.999 -0.20 -0.06    +0.246 C  
DOCKED: ENDROOT
DOCKED: BRANCH   1   2
DOCKED: ATOM      2  N   UNL     1     140.232  74.050 221.979 -0.79 +0.02    -0.240 NA 
DOCKED: BRANCH   2   3
DOCKED: ATOM      3  C   UNL     1     139.822  72.829 221.772 -0.19 -0.04    +0.233 C  
DOCKED: BRANCH   3   4
DOCKED: ATOM      4  O   UNL     1     139.339  72.418 220.525 -0.00 +0.09    -0.492 OA 
DOCKED: ATOM      5  H   UNL     1     139.939  72.202 219.740 +0.05 -0.05    +0.295 HD 
DOCKED: ENDBRANCH   3   4
DOCKED: BRANCH   3   6
DOCKED: ATOM      6  C   UNL     1     139.861  71.843 222.869 -0.28 -0.02    +0.125 A  
DOCKED: ATOM      7  N   UNL     1     140.370  72.216 224.076 -0.18 +0.04    -0.243 NA 
DOCKED: ATOM      8  C   UNL     1     139.387  70.529 222.697 -0.22 -0.01    +0.035 A  
DOCKED: ATOM      9  C   UNL     1     140.439  71.361 225.130 -0.48 -0.01    +0.071 A  
DOCKED: ATOM     10  C   UNL     1     139.444  69.627 223.762 -0.27 -0.00    +0.013 A  
DOCKED: ATOM     11  C   UNL     1     140.971  71.789 226.350 -0.65 -0.00    +0.030 A  
DOCKED: ATOM     12  C   UNL     1     139.972  70.034 224.992 -0.42 -0.00    +0.002 A  
DOCKED: ATOM     13  C   UNL     1     141.041  70.907 227.432 -0.66 -0.00    +0.023 A  
DOCKED: ATOM     14  C   UNL     1     140.045  69.155 226.082 -0.49 -0.01    +0.030 A  
DOCKED: ATOM     15  C   UNL     1     140.579  69.592 227.301 -0.56 -0.01    +0.041 A  
DOCKED: ATOM     16  Cl  UNL     1     140.669  68.491 228.663 -0.72 +0.02    -0.084 Cl 
DOCKED: ENDBRANCH   3   6
DOCKED: ENDBRANCH   2   3
DOCKED: ENDBRANCH   1   2
DOCKED: BRANCH   1  17
DOCKED: ATOM     17  C   UNL     1     141.585  74.081 219.940 -0.11 -0.06    +0.245 C  
DOCKED: ATOM     18  O   UNL     1     140.940  73.761 218.905 -0.02 +0.06    -0.273 OA 
DOCKED: BRANCH  17  19
DOCKED: ATOM     19  N   UNL     1     142.971  73.710 220.056 -0.11 +0.08    -0.331 N  
DOCKED: ATOM     20  C   UNL     1     144.068  74.423 219.419 -0.28 -0.04    +0.120 C  
DOCKED: ATOM     21  C   UNL     1     143.430  72.593 220.871 -0.18 -0.02    +0.153 C  
DOCKED: ATOM     22  C   UNL     1     145.325  73.625 219.743 -0.41 -0.00    +0.024 C  
DOCKED: ATOM     23  C   UNL     1     144.953  72.727 220.919 -0.44 -0.01    +0.035 C  
DOCKED: BRANCH  21  24
DOCKED: ATOM     24  C   UNL     1     143.017  71.285 220.252 -0.16 -0.02    +0.150 A  
DOCKED: ATOM     25  N   UNL     1     143.963  70.378 219.885 -0.12 -0.00    -0.236 NA 
DOCKED: ATOM     26  N   UNL     1     141.700  71.014 220.031 -0.07 +0.03    -0.236 NA 
DOCKED: ATOM     27  C   UNL     1     143.616  69.198 219.310 -0.17 -0.01    +0.154 A  
DOCKED: ATOM     28  C   UNL     1     141.313  69.845 219.458 -0.08 -0.03    +0.154 A  
DOCKED: ATOM     29  C   UNL     1     142.272  68.904 219.085 -0.11 -0.03    +0.159 A  
DOCKED: ATOM     30  F   UNL     1     141.905  67.732 218.511 -0.02 +0.06    -0.204 F  
DOCKED: ENDBRANCH  21  24
DOCKED: ENDBRANCH  17  19
DOCKED: ENDBRANCH   1  17
DOCKED: TORSDOF 7
DOCKED: TER
DOCKED: ENDMDL
________________________________________________________________________________


    FINAL DOCKED STATE:
    ________________________


Run:   18 / 20
Time taken for this run:   0.051s

DOCKED: MODEL        18
DOCKED: USER    Run = 18
DOCKED: USER
DOCKED: USER    Estimated Free Energy of Binding    =  -6.51 kcal/mol  [=(1)+(2)+(3)-(4)]
DOCKED: USER
DOCKED: USER    (1) Final Intermolecular Energy     =  -8.60 kcal/mol
DOCKED: USER        vdW + Hbond + desolv Energy     =  -8.47 kcal/mol
DOCKED: USER        Electrostatic Energy            =  -0.12 kcal/mol
DOCKED: USER        Moving Ligand-Fixed Receptor    =  -8.60 kcal/mol
DOCKED: USER        Moving Ligand-Moving Receptor   =  +0.00 kcal/mol
DOCKED: USER    (2) Final Total Internal Energy     =  -2.49 kcal/mol
DOCKED: USER    (3) Torsional Free Energy           =  +2.09 kcal/mol
DOCKED: USER    (4) Unbound System's Energy         =  -2.49 kcal/mol
DOCKED: USER
DOCKED: USER
DOCKED: REMARK SMILES O=C(C/N=C(\O)c1ccc2cc(Cl)ccc2n1)N1CCC[C@@H]1c1ncc(F)cn1
DOCKED: REMARK SMILES IDX 3 1 4 2 5 3 6 4 7 6 17 7 8 8 16 9 9 10 15 11 10 12 14 13
DOCKED: REMARK SMILES IDX 11 14 12 15 13 16 2 17 1 18 18 19 19 20 22 21 20 22 21 23
DOCKED: REMARK SMILES IDX 23 24 24 25 29 26 25 27 28 28 26 29 27 30
DOCKED: REMARK H PARENT 6 5
DOCKED: USER                              x       y       z     vdW  Elec       q    Type
DOCKED: USER                           _______ _______ _______ _____ _____    ______ ____
DOCKED: ROOT
DOCKED: ATOM      1  C   UNL     1     139.238  74.535 220.642 -0.09 -0.05    +0.246 C  
DOCKED: ENDROOT
DOCKED: BRANCH   1   2
DOCKED: ATOM      2  N   UNL     1     139.169  73.183 221.195 -0.10 +0.05    -0.240 NA 
DOCKED: BRANCH   2   3
DOCKED: ATOM      3  C   UNL     1     140.187  72.446 221.541 -0.18 -0.03    +0.233 C  
DOCKED: BRANCH   3   4
DOCKED: ATOM      4  O   UNL     1     141.398  72.491 220.841 -0.06 +0.07    -0.492 OA 
DOCKED: ATOM      5  H   UNL     1     142.012  73.295 220.842 +0.11 -0.05    +0.295 HD 
DOCKED: ENDBRANCH   3   4
DOCKED: BRANCH   3   6
DOCKED: ATOM      6  C   UNL     1     140.080  71.536 222.697 -0.27 -0.02    +0.125 A  
DOCKED: ATOM      7  N   UNL     1     140.594  71.928 223.896 -0.25 +0.03    -0.243 NA 
DOCKED: ATOM      8  C   UNL     1     139.465  70.275 222.590 -0.20 -0.01    +0.035 A  
DOCKED: ATOM      9  C   UNL     1     140.534  71.141 225.003 -0.48 -0.01    +0.071 A  
DOCKED: ATOM     10  C   UNL     1     139.387  69.445 223.710 -0.25 -0.00    +0.013 A  
DOCKED: ATOM     11  C   UNL     1     141.076  71.587 226.213 -0.66 -0.00    +0.030 A  
DOCKED: ATOM     12  C   UNL     1     139.922  69.870 224.931 -0.41 -0.00    +0.002 A  
DOCKED: ATOM     13  C   UNL     1     141.012  70.775 227.350 -0.64 -0.00    +0.023 A  
DOCKED: ATOM     14  C   UNL     1     139.861  69.061 226.076 -0.49 -0.00    +0.030 A  
DOCKED: ATOM     15  C   UNL     1     140.406  69.515 227.283 -0.56 -0.01    +0.041 A  
DOCKED: ATOM     16  Cl  UNL     1     140.330  68.502 228.713 -0.66 +0.02    -0.084 Cl 
DOCKED: ENDBRANCH   3   6
DOCKED: ENDBRANCH   2   3
DOCKED: ENDBRANCH   1   2
DOCKED: BRANCH   1  17
DOCKED: ATOM     17  C   UNL     1     140.609  75.129 220.840 -0.18 -0.06    +0.245 C  
DOCKED: ATOM     18  O   UNL     1     141.173  74.998 221.961 -0.54 +0.04    -0.273 OA 
DOCKED: BRANCH  17  19
DOCKED: ATOM     19  N   UNL     1     141.309  75.781 219.765 -0.06 +0.12    -0.331 N  
DOCKED: ATOM     20  C   UNL     1     140.689  76.204 218.518 -0.05 -0.04    +0.120 C  
DOCKED: ATOM     21  C   UNL     1     142.722  76.131 219.832 -0.26 -0.09    +0.153 C  
DOCKED: ATOM     22  C   UNL     1     141.819  76.754 217.658 -0.14 -0.01    +0.024 C  
DOCKED: ATOM     23  C   UNL     1     142.975  77.026 218.617 -0.32 -0.02    +0.035 C  
DOCKED: BRANCH  21  24
DOCKED: ATOM     24  C   UNL     1     143.575  74.891 219.783 -0.31 -0.07    +0.150 A  
DOCKED: ATOM     25  N   UNL     1     143.158  73.809 219.073 -0.09 +0.06    -0.236 NA 
DOCKED: ATOM     26  N   UNL     1     144.750  74.838 220.470 -0.30 +0.11    -0.236 NA 
DOCKED: ATOM     27  C   UNL     1     143.901  72.673 219.026 -0.14 -0.01    +0.154 A  
DOCKED: ATOM     28  C   UNL     1     145.522  73.720 220.448 -0.50 -0.02    +0.154 A  
DOCKED: ATOM     29  C   UNL     1     145.110  72.606 219.718 -0.31 +0.02    +0.159 A  
DOCKED: ATOM     30  F   UNL     1     145.866  71.481 219.685 -0.09 -0.11    -0.204 F  
DOCKED: ENDBRANCH  21  24
DOCKED: ENDBRANCH  17  19
DOCKED: ENDBRANCH   1  17
DOCKED: TORSDOF 7
DOCKED: TER
DOCKED: ENDMDL
________________________________________________________________________________


    FINAL DOCKED STATE:
    ________________________


Run:   19 / 20
Time taken for this run:   0.051s

DOCKED: MODEL        19
DOCKED: USER    Run = 19
DOCKED: USER
DOCKED: USER    Estimated Free Energy of Binding    =  -5.33 kcal/mol  [=(1)+(2)+(3)-(4)]
DOCKED: USER
DOCKED: USER    (1) Final Intermolecular Energy     =  -7.42 kcal/mol
DOCKED: USER        vdW + Hbond + desolv Energy     =  -7.34 kcal/mol
DOCKED: USER        Electrostatic Energy            =  -0.08 kcal/mol
DOCKED: USER        Moving Ligand-Fixed Receptor    =  -7.42 kcal/mol
DOCKED: USER        Moving Ligand-Moving Receptor   =  +0.00 kcal/mol
DOCKED: USER    (2) Final Total Internal Energy     =  -3.50 kcal/mol
DOCKED: USER    (3) Torsional Free Energy           =  +2.09 kcal/mol
DOCKED: USER    (4) Unbound System's Energy         =  -3.50 kcal/mol
DOCKED: USER
DOCKED: USER
DOCKED: REMARK SMILES O=C(C/N=C(\O)c1ccc2cc(Cl)ccc2n1)N1CCC[C@@H]1c1ncc(F)cn1
DOCKED: REMARK SMILES IDX 3 1 4 2 5 3 6 4 7 6 17 7 8 8 16 9 9 10 15 11 10 12 14 13
DOCKED: REMARK SMILES IDX 11 14 12 15 13 16 2 17 1 18 18 19 19 20 22 21 20 22 21 23
DOCKED: REMARK SMILES IDX 23 24 24 25 29 26 25 27 28 28 26 29 27 30
DOCKED: REMARK H PARENT 6 5
DOCKED: USER                              x       y       z     vdW  Elec       q    Type
DOCKED: USER                           _______ _______ _______ _____ _____    ______ ____
DOCKED: ROOT
DOCKED: ATOM      1  C   UNL     1     140.941  75.998 219.258 -0.07 -0.09    +0.246 C  
DOCKED: ENDROOT
DOCKED: BRANCH   1   2
DOCKED: ATOM      2  N   UNL     1     139.950  76.027 220.333 -0.06 +0.07    -0.240 NA 
DOCKED: BRANCH   2   3
DOCKED: ATOM      3  C   UNL     1     140.124  76.543 221.518 -0.22 -0.06    +0.233 C  
DOCKED: BRANCH   3   4
DOCKED: ATOM      4  O   UNL     1     141.281  76.297 222.265 -0.14 +0.20    -0.492 OA 
DOCKED: ATOM      5  H   UNL     1     142.170  76.742 222.077 -0.41 -0.29    +0.295 HD 
DOCKED: ENDBRANCH   3   4
DOCKED: BRANCH   3   6
DOCKED: ATOM      6  C   UNL     1     139.085  77.413 222.103 -0.24 -0.03    +0.125 A  
DOCKED: ATOM      7  N   UNL     1     139.466  78.481 222.858 -0.19 +0.05    -0.243 NA 
DOCKED: ATOM      8  C   UNL     1     137.715  77.165 221.901 -0.19 -0.01    +0.035 A  
DOCKED: ATOM      9  C   UNL     1     138.565  79.324 223.429 -0.29 -0.01    +0.071 A  
DOCKED: ATOM     10  C   UNL     1     136.765  78.014 222.475 -0.18 -0.00    +0.013 A  
DOCKED: ATOM     11  C   UNL     1     139.004  80.407 224.197 -0.36 -0.00    +0.030 A  
DOCKED: ATOM     12  C   UNL     1     137.182  79.104 223.246 -0.17 -0.00    +0.002 A  
DOCKED: ATOM     13  C   UNL     1     138.075  81.272 224.783 -0.35 -0.00    +0.023 A  
DOCKED: ATOM     14  C   UNL     1     136.255  79.976 223.837 -0.20 -0.00    +0.030 A  
DOCKED: ATOM     15  C   UNL     1     136.703  81.059 224.604 -0.29 -0.00    +0.041 A  
DOCKED: ATOM     16  Cl  UNL     1     135.543  82.148 225.342 -0.27 +0.01    -0.084 Cl 
DOCKED: ENDBRANCH   3   6
DOCKED: ENDBRANCH   2   3
DOCKED: ENDBRANCH   1   2
DOCKED: BRANCH   1  17
DOCKED: ATOM     17  C   UNL     1     142.017  77.028 219.489 -0.19 -0.14    +0.245 C  
DOCKED: ATOM     18  O   UNL     1     143.068  76.685 220.097 -0.28 +0.22    -0.273 OA 
DOCKED: BRANCH  17  19
DOCKED: ATOM     19  N   UNL     1     141.899  78.368 218.976 -0.12 +0.21    -0.331 N  
DOCKED: ATOM     20  C   UNL     1     142.606  78.864 217.805 -0.26 -0.11    +0.120 C  
DOCKED: ATOM     21  C   UNL     1     141.012  79.367 219.557 -0.16 -0.07    +0.153 C  
DOCKED: ATOM     22  C   UNL     1     142.247  80.341 217.698 -0.29 -0.02    +0.024 C  
DOCKED: ATOM     23  C   UNL     1     141.001  80.526 218.560 -0.17 -0.02    +0.035 C  
DOCKED: BRANCH  21  24
DOCKED: ATOM     24  C   UNL     1     141.526  79.808 220.902 -0.26 -0.07    +0.150 A  
DOCKED: ATOM     25  N   UNL     1     142.122  78.908 221.730 -0.25 +0.14    -0.236 NA 
DOCKED: ATOM     26  N   UNL     1     141.372  81.100 221.306 -0.22 +0.07    -0.236 NA 
DOCKED: ATOM     27  C   UNL     1     142.578  79.278 222.954 -0.45 -0.07    +0.154 A  
DOCKED: ATOM     28  C   UNL     1     141.815  81.509 222.523 -0.39 -0.03    +0.154 A  
DOCKED: ATOM     29  C   UNL     1     142.435  80.599 223.378 -0.52 -0.04    +0.159 A  
DOCKED: ATOM     30  F   UNL     1     142.884  80.988 224.597 -0.16 +0.03    -0.204 F  
DOCKED: ENDBRANCH  21  24
DOCKED: ENDBRANCH  17  19
DOCKED: ENDBRANCH   1  17
DOCKED: TORSDOF 7
DOCKED: TER
DOCKED: ENDMDL
________________________________________________________________________________


    FINAL DOCKED STATE:
    ________________________


Run:   20 / 20
Time taken for this run:   0.051s

DOCKED: MODEL        20
DOCKED: USER    Run = 20
DOCKED: USER
DOCKED: USER    Estimated Free Energy of Binding    =  -6.26 kcal/mol  [=(1)+(2)+(3)-(4)]
DOCKED: USER
DOCKED: USER    (1) Final Intermolecular Energy     =  -8.35 kcal/mol
DOCKED: USER        vdW + Hbond + desolv Energy     =  -8.32 kcal/mol
DOCKED: USER        Electrostatic Energy            =  -0.03 kcal/mol
DOCKED: USER        Moving Ligand-Fixed Receptor    =  -8.35 kcal/mol
DOCKED: USER        Moving Ligand-Moving Receptor   =  +0.00 kcal/mol
DOCKED: USER    (2) Final Total Internal Energy     =  -2.86 kcal/mol
DOCKED: USER    (3) Torsional Free Energy           =  +2.09 kcal/mol
DOCKED: USER    (4) Unbound System's Energy         =  -2.86 kcal/mol
DOCKED: USER
DOCKED: USER
DOCKED: REMARK SMILES O=C(C/N=C(\O)c1ccc2cc(Cl)ccc2n1)N1CCC[C@@H]1c1ncc(F)cn1
DOCKED: REMARK SMILES IDX 3 1 4 2 5 3 6 4 7 6 17 7 8 8 16 9 9 10 15 11 10 12 14 13
DOCKED: REMARK SMILES IDX 11 14 12 15 13 16 2 17 1 18 18 19 19 20 22 21 20 22 21 23
DOCKED: REMARK SMILES IDX 23 24 24 25 29 26 25 27 28 28 26 29 27 30
DOCKED: REMARK H PARENT 6 5
DOCKED: USER                              x       y       z     vdW  Elec       q    Type
DOCKED: USER                           _______ _______ _______ _____ _____    ______ ____
DOCKED: ROOT
DOCKED: ATOM      1  C   UNL     1     140.933  74.905 221.207 -0.22 -0.05    +0.246 C  
DOCKED: ENDROOT
DOCKED: BRANCH   1   2
DOCKED: ATOM      2  N   UNL     1     140.074  74.055 222.031 -0.78 +0.02    -0.240 NA 
DOCKED: BRANCH   2   3
DOCKED: ATOM      3  C   UNL     1     139.792  72.803 221.802 -0.19 -0.04    +0.233 C  
DOCKED: BRANCH   3   4
DOCKED: ATOM      4  O   UNL     1     139.458  72.348 220.522 -0.00 +0.09    -0.492 OA 
DOCKED: ATOM      5  H   UNL     1     140.098  72.367 219.739 +0.05 -0.05    +0.295 HD 
DOCKED: ENDBRANCH   3   4
DOCKED: BRANCH   3   6
DOCKED: ATOM      6  C   UNL     1     139.823  71.826 222.907 -0.28 -0.02    +0.125 A  
DOCKED: ATOM      7  N   UNL     1     140.387  72.188 224.093 -0.18 +0.03    -0.243 NA 
DOCKED: ATOM      8  C   UNL     1     139.286  70.533 222.764 -0.22 -0.01    +0.035 A  
DOCKED: ATOM      9  C   UNL     1     140.452  71.339 225.154 -0.48 -0.01    +0.071 A  
DOCKED: ATOM     10  C   UNL     1     139.338  69.640 223.837 -0.28 -0.00    +0.013 A  
DOCKED: ATOM     11  C   UNL     1     141.042  71.756 226.352 -0.67 -0.00    +0.030 A  
DOCKED: ATOM     12  C   UNL     1     139.923  70.034 225.045 -0.42 -0.00    +0.002 A  
DOCKED: ATOM     13  C   UNL     1     141.107  70.881 227.441 -0.64 -0.00    +0.023 A  
DOCKED: ATOM     14  C   UNL     1     139.991  69.162 226.142 -0.49 -0.00    +0.030 A  
DOCKED: ATOM     15  C   UNL     1     140.583  69.587 227.338 -0.56 -0.01    +0.041 A  
DOCKED: ATOM     16  Cl  UNL     1     140.668  68.495 228.708 -0.71 +0.02    -0.084 Cl 
DOCKED: ENDBRANCH   3   6
DOCKED: ENDBRANCH   2   3
DOCKED: ENDBRANCH   1   2
DOCKED: BRANCH   1  17
DOCKED: ATOM     17  C   UNL     1     141.618  74.099 220.133 -0.13 -0.06    +0.245 C  
DOCKED: ATOM     18  O   UNL     1     140.969  73.787 219.098 -0.02 +0.06    -0.273 OA 
DOCKED: BRANCH  17  19
DOCKED: ATOM     19  N   UNL     1     143.008  73.736 220.236 -0.12 +0.08    -0.331 N  
DOCKED: ATOM     20  C   UNL     1     144.103  74.519 219.684 -0.32 -0.05    +0.120 C  
DOCKED: ATOM     21  C   UNL     1     143.471  72.554 220.950 -0.09 -0.02    +0.153 C  
DOCKED: ATOM     22  C   UNL     1     145.367  73.712 219.952 -0.46 -0.00    +0.024 C  
DOCKED: ATOM     23  C   UNL     1     144.991  72.703 221.034 -0.40 -0.01    +0.035 C  
DOCKED: BRANCH  21  24
DOCKED: ATOM     24  C   UNL     1     143.086  71.304 220.207 -0.17 -0.02    +0.150 A  
DOCKED: ATOM     25  N   UNL     1     144.049  70.441 219.785 -0.12 -0.01    -0.236 NA 
DOCKED: ATOM     26  N   UNL     1     141.777  71.045 219.929 -0.06 +0.03    -0.236 NA 
DOCKED: ATOM     27  C   UNL     1     143.727  69.314 219.098 -0.16 -0.01    +0.154 A  
DOCKED: ATOM     28  C   UNL     1     141.415  69.929 219.244 -0.07 -0.03    +0.154 A  
DOCKED: ATOM     29  C   UNL     1     142.392  69.032 218.813 -0.09 -0.03    +0.159 A  
DOCKED: ATOM     30  F   UNL     1     142.050  67.913 218.128 -0.01 +0.06    -0.204 F  
DOCKED: ENDBRANCH  21  24
DOCKED: ENDBRANCH  17  19
DOCKED: ENDBRANCH   1  17
DOCKED: TORSDOF 7
DOCKED: TER
DOCKED: ENDMDL
________________________________________________________________________________


    CLUSTERING HISTOGRAM
    ____________________


________________________________________________________________________________
     |           |     |           |     |
Clus | Lowest    | Run | Mean      | Num | Histogram
-ter | Binding   |     | Binding   | in  |
Rank | Energy    |     | Energy    | Clus|    5    10   15   20   25   30   35
_____|___________|_____|___________|_____|____:____|____:____|____:____|____:___
   1 |     -8.08 |  14 |     -7.29 |   6 |######
   2 |     -7.56 |   8 |     -7.55 |   2 |##
   3 |     -6.52 |  12 |     -6.47 |   4 |####
   4 |     -6.36 |   6 |     -6.36 |   1 |#
   5 |     -6.30 |  16 |     -6.26 |   5 |#####
   6 |     -5.45 |  15 |     -5.45 |   1 |#
   7 |     -5.33 |  19 |     -5.33 |   1 |#
_____|___________|_____|___________|_____|______________________________________


    RMSD TABLE
    __________


_______________________________________________________________________
     |      |      |           |         |                 |
Rank | Sub- | Run  | Binding   | Cluster | Reference       | Grep
     | Rank |      | Energy    | RMSD    | RMSD            | Pattern
_____|______|______|___________|_________|_________________|___________
   1      1     14       -8.08      0.00    270.94           RANKING
   1      2      9       -7.38      0.38    270.94           RANKING
   1      3     11       -7.31      1.80    270.90           RANKING
   1      4      7       -7.21      1.12    270.80           RANKING
   1      5      3       -7.10      1.83    270.19           RANKING
   1      6     13       -6.65      1.17    270.40           RANKING
   2      1      8       -7.56      0.00    269.92           RANKING
   2      2      5       -7.53      1.83    270.14           RANKING
   3      1     12       -6.52      0.00    270.01           RANKING
   3      2     18       -6.51      0.08    269.97           RANKING
   3      3      4       -6.50      0.08    269.98           RANKING
   3      4      1       -6.34      1.25    269.89           RANKING
   4      1      6       -6.36      0.00    270.30           RANKING
   5      1     16       -6.30      0.00    269.63           RANKING
   5      2     17       -6.28      0.12    269.60           RANKING
   5      3     20       -6.26      0.24    269.64           RANKING
   5      4     10       -6.24      0.35    269.57           RANKING
   5      5      2       -6.23      0.13    269.63           RANKING
   6      1     15       -5.45      0.00    269.40           RANKING
   7      1     19       -5.33      0.00    270.81           RANKING

Run time 0.973 sec
Idle time 0.000 sec
