AutoDock-GPU version: v1.6

**********************************************************
**    AutoDock-GPU AUTODOCKTOOLS-COMPATIBLE DLG FILE    **
**********************************************************


    DOCKING PARAMETERS
    ________________________


Ligand file:                               /home/a/REINVENT4/ReinventStudies/pleaseWork/justmol2mol_4_Compounds_ontop/graph-dock-8u2o5u/graph-DockGPU/node-autodockgpu/inputs/VRQJUSAHYCQOQW-OYOHKOPJNA-N.pdbqt
Grid fld file:                             /home/a/REINVENT4/ReinventStudies/mols/Rad51/maps/rad51_receptor.maps.fld

Random seed:                               42
Number of runs:                            20
Number of energy evaluations:              2542121
Number of generations:                     42000
Size of population:                        150
Rate of crossover:                         80.000000%
Tournament selection probability limit:    60.000000%
Rate of mutation:                          2.000000%
Maximal allowed delta movement:            +/- 6.000000A
Maximal allowed delta angle:               +/- 90.000000

Rate of local search:                      100.000000%
Maximal number of local search iterations: 300
Rho lower bound:                           0.010000
Spread of local search delta movement:     2.000000A
Spread of local search delta angle:        74.999999
Limit of consecutive successes/failures:   4

Handle symmetry during clustering:         YES
RMSD tolerance:                            2.000000A

Program call in command line was:          /home/a/REINVENT4/ReinventStudies/adgpu-v1.6_linux_x64_cuda12_128wi --filelist batch.txt --heuristics 1 --nrun 20 --psize 150 --lsit 300 --seed 42 --heurmax 12000000 


    GRID PARAMETERS
    ________________________


Receptor name:                             rad51_receptor
Number of grid points (x, y, z):           53, 53, 53
Grid center (x, y, z):                     139.950000, 75.640000, 221.970000A
Grid size (x, y, z):                       19.500000, 19.500000, 19.500000A
Grid spacing:                              0.375000A


    LIGAND PARAMETERS
    ________________________


Ligand name:                               /home/a/REINVENT4/ReinventStudies/pleaseWork/justmol2mol_4_Compounds_ontop/graph-dock-8u2o5u/graph-DockGPU/node-autodockgpu/inputs/VRQJUSAHYCQOQW-OYOHKOPJNA-N
Number of atoms:                           33
Number of rotatable bonds:                 10
Number of atom types:                      6


    DUMMY DATA (only for ADT-compatibility)
    ________________________


DPF> outlev 1
DPF> ga_run 20
DPF> fld /home/a/REINVENT4/ReinventStudies/mols/Rad51/maps/rad51_receptor.maps.fld
DPF> move /home/a/REINVENT4/ReinventStudies/pleaseWork/justmol2mol_4_Compounds_ontop/graph-dock-8u2o5u/graph-DockGPU/node-autodockgpu/inputs/VRQJUSAHYCQOQW-OYOHKOPJNA-N.pdbqt


    COUNTER STATES
    ________________________


Number of energy evaluations performed:    1678924
Number of generations used:                80


    INPUT LIGAND PDBQT FILE:
    ________________________


INPUT-LIGAND-PDBQT: REMARK SMILES CC(C)C[C@H](NC(=O)C/N=C(/O)c1ccc2ccccc2n1)C(=O)NC1CCCC1
INPUT-LIGAND-PDBQT: REMARK SMILES IDX 7 1 8 2 6 3 9 5 10 6 11 7 12 8 13 10 22 11 14 12 21 13 15 14
INPUT-LIGAND-PDBQT: REMARK SMILES IDX 20 15 16 16 19 17 17 18 18 19 5 20 23 21 25 22 24 23 26 25
INPUT-LIGAND-PDBQT: REMARK SMILES IDX 27 26 30 27 28 28 29 29 4 30 2 31 1 32 3 33
INPUT-LIGAND-PDBQT: REMARK H PARENT 6 4 12 9 25 24
INPUT-LIGAND-PDBQT: ROOT
INPUT-LIGAND-PDBQT: ATOM      1  C   UNL     1      -0.342   1.192   0.202  1.00  0.00     0.242 C 
INPUT-LIGAND-PDBQT: ATOM      2  O   UNL     1      -1.163   1.098   1.151  1.00  0.00    -0.273 OA
INPUT-LIGAND-PDBQT: ATOM      3  N   UNL     1      -0.686   1.922  -0.986  1.00  0.00    -0.343 N 
INPUT-LIGAND-PDBQT: ATOM      4  H   UNL     1       0.012   1.965  -1.762  1.00  0.00     0.164 HD
INPUT-LIGAND-PDBQT: ENDROOT
INPUT-LIGAND-PDBQT: BRANCH   1   5
INPUT-LIGAND-PDBQT: ATOM      5  C   UNL     1       1.003   0.556   0.337  1.00  0.00     0.246 C 
INPUT-LIGAND-PDBQT: BRANCH   5   6
INPUT-LIGAND-PDBQT: ATOM      6  N   UNL     1       1.845   1.402   1.162  1.00  0.00    -0.240 NA
INPUT-LIGAND-PDBQT: BRANCH   6   7
INPUT-LIGAND-PDBQT: ATOM      7  C   UNL     1       2.971   1.058   1.720  1.00  0.00     0.233 C 
INPUT-LIGAND-PDBQT: BRANCH   7   8
INPUT-LIGAND-PDBQT: ATOM      8  O   UNL     1       3.606   1.962   2.561  1.00  0.00    -0.492 OA
INPUT-LIGAND-PDBQT: ATOM      9  H   UNL     1       3.247   2.906   2.694  1.00  0.00     0.295 HD
INPUT-LIGAND-PDBQT: ENDBRANCH   7   8
INPUT-LIGAND-PDBQT: BRANCH   7  10
INPUT-LIGAND-PDBQT: ATOM     10  C   UNL     1       3.583  -0.271   1.550  1.00  0.00     0.125 A 
INPUT-LIGAND-PDBQT: ATOM     11  N   UNL     1       3.920  -0.980   2.658  1.00  0.00    -0.243 NA
INPUT-LIGAND-PDBQT: ATOM     12  C   UNL     1       3.895  -0.775   0.277  1.00  0.00     0.035 A 
INPUT-LIGAND-PDBQT: ATOM     13  C   UNL     1       4.520  -2.195   2.578  1.00  0.00     0.071 A 
INPUT-LIGAND-PDBQT: ATOM     14  C   UNL     1       4.511  -2.017   0.160  1.00  0.00     0.013 A 
INPUT-LIGAND-PDBQT: ATOM     15  C   UNL     1       4.845  -2.896   3.745  1.00  0.00     0.029 A 
INPUT-LIGAND-PDBQT: ATOM     16  C   UNL     1       4.825  -2.749   1.316  1.00  0.00     0.000 A 
INPUT-LIGAND-PDBQT: ATOM     17  C   UNL     1       5.472  -4.142   3.658  1.00  0.00     0.002 A 
INPUT-LIGAND-PDBQT: ATOM     18  C   UNL     1       5.445  -4.007   1.240  1.00  0.00     0.010 A 
INPUT-LIGAND-PDBQT: ATOM     19  C   UNL     1       5.768  -4.697   2.409  1.00  0.00     0.001 A 
INPUT-LIGAND-PDBQT: ENDBRANCH   7  10
INPUT-LIGAND-PDBQT: ENDBRANCH   6   7
INPUT-LIGAND-PDBQT: ENDBRANCH   5   6
INPUT-LIGAND-PDBQT: ENDBRANCH   1   5
INPUT-LIGAND-PDBQT: BRANCH   3  20
INPUT-LIGAND-PDBQT: ATOM     20  C   UNL     1      -1.959   2.640  -1.114  1.00  0.00     0.171 C 
INPUT-LIGAND-PDBQT: BRANCH  20  21
INPUT-LIGAND-PDBQT: ATOM     21  C   UNL     1      -3.096   1.654  -1.149  1.00  0.00     0.242 C 
INPUT-LIGAND-PDBQT: ATOM     22  N   UNL     1      -3.033   0.496  -1.994  1.00  0.00    -0.352 N 
INPUT-LIGAND-PDBQT: ATOM     23  O   UNL     1      -4.115   1.860  -0.432  1.00  0.00    -0.273 OA
INPUT-LIGAND-PDBQT: ATOM     24  H   UNL     1      -2.266   0.436  -2.699  1.00  0.00     0.163 HD
INPUT-LIGAND-PDBQT: BRANCH  22  25
INPUT-LIGAND-PDBQT: ATOM     25  C   UNL     1      -3.984  -0.613  -1.851  1.00  0.00     0.082 C 
INPUT-LIGAND-PDBQT: ATOM     26  C   UNL     1      -3.688  -1.397  -0.579  1.00  0.00     0.025 C 
INPUT-LIGAND-PDBQT: ATOM     27  C   UNL     1      -3.819  -1.635  -2.977  1.00  0.00     0.025 C 
INPUT-LIGAND-PDBQT: ATOM     28  C   UNL     1      -2.633  -2.411  -0.979  1.00  0.00     0.002 C 
INPUT-LIGAND-PDBQT: ATOM     29  C   UNL     1      -2.874  -2.717  -2.455  1.00  0.00     0.002 C 
INPUT-LIGAND-PDBQT: ENDBRANCH  22  25
INPUT-LIGAND-PDBQT: ENDBRANCH  20  21
INPUT-LIGAND-PDBQT: BRANCH  20  30
INPUT-LIGAND-PDBQT: ATOM     30  C   UNL     1      -1.947   3.539  -2.370  1.00  0.00     0.038 C 
INPUT-LIGAND-PDBQT: BRANCH  30  31
INPUT-LIGAND-PDBQT: ATOM     31  C   UNL     1      -3.202   4.451  -2.482  1.00  0.00    -0.015 C 
INPUT-LIGAND-PDBQT: ATOM     32  C   UNL     1      -2.821   5.857  -2.962  1.00  0.00     0.007 C 
INPUT-LIGAND-PDBQT: ATOM     33  C   UNL     1      -4.248   3.850  -3.434  1.00  0.00     0.007 C 
INPUT-LIGAND-PDBQT: ENDBRANCH  30  31
INPUT-LIGAND-PDBQT: ENDBRANCH  20  30
INPUT-LIGAND-PDBQT: ENDBRANCH   3  20
INPUT-LIGAND-PDBQT: TORSDOF 10


    FINAL DOCKED STATE:
    ________________________


Run:   1 / 20
Time taken for this run:   0.081s

DOCKED: MODEL        1
DOCKED: USER    Run = 1
DOCKED: USER
DOCKED: USER    Estimated Free Energy of Binding    =  -7.32 kcal/mol  [=(1)+(2)+(3)-(4)]
DOCKED: USER
DOCKED: USER    (1) Final Intermolecular Energy     = -10.30 kcal/mol
DOCKED: USER        vdW + Hbond + desolv Energy     = -10.26 kcal/mol
DOCKED: USER        Electrostatic Energy            =  -0.04 kcal/mol
DOCKED: USER        Moving Ligand-Fixed Receptor    = -10.30 kcal/mol
DOCKED: USER        Moving Ligand-Moving Receptor   =  +0.00 kcal/mol
DOCKED: USER    (2) Final Total Internal Energy     =  -4.00 kcal/mol
DOCKED: USER    (3) Torsional Free Energy           =  +2.98 kcal/mol
DOCKED: USER    (4) Unbound System's Energy         =  -4.00 kcal/mol
DOCKED: USER
DOCKED: USER
DOCKED: REMARK SMILES CC(C)C[C@H](NC(=O)C/N=C(/O)c1ccc2ccccc2n1)C(=O)NC1CCCC1
DOCKED: REMARK SMILES IDX 7 1 8 2 6 3 9 5 10 6 11 7 12 8 13 10 22 11 14 12 21 13 15 14
DOCKED: REMARK SMILES IDX 20 15 16 16 19 17 17 18 18 19 5 20 23 21 25 22 24 23 26 25
DOCKED: REMARK SMILES IDX 27 26 30 27 28 28 29 29 4 30 2 31 1 32 3 33
DOCKED: REMARK H PARENT 6 4 12 9 25 24
DOCKED: USER                              x       y       z     vdW  Elec       q    Type
DOCKED: USER                           _______ _______ _______ _____ _____    ______ ____
DOCKED: ROOT
DOCKED: ATOM      1  C   UNL     1     136.858  73.815 222.006 -0.09 -0.07    +0.242 C  
DOCKED: ATOM      2  O   UNL     1     135.794  74.486 222.049 -0.06 +0.06    -0.273 OA 
DOCKED: ATOM      3  N   UNL     1     138.122  74.470 221.819 -0.09 +0.10    -0.343 N  
DOCKED: ATOM      4  H   UNL     1     138.984  73.882 221.770 -0.00 -0.04    +0.164 HD 
DOCKED: ENDROOT
DOCKED: BRANCH   1   5
DOCKED: ATOM      5  C   UNL     1     136.792  72.333 222.178 -0.08 -0.06    +0.246 C  
DOCKED: BRANCH   5   6
DOCKED: ATOM      6  N   UNL     1     138.127  71.781 222.042 -0.08 +0.06    -0.240 NA 
DOCKED: BRANCH   6   7
DOCKED: ATOM      7  C   UNL     1     139.086  71.862 222.920 -0.17 -0.06    +0.233 C  
DOCKED: BRANCH   7   8
DOCKED: ATOM      8  O   UNL     1     139.946  72.951 222.874 -0.51 +0.06    -0.492 OA 
DOCKED: ATOM      9  H   UNL     1     139.640  73.882 223.151 -0.40 -0.03    +0.295 HD 
DOCKED: ENDBRANCH   7   8
DOCKED: BRANCH   7  10
DOCKED: ATOM     10  C   UNL     1     139.275  70.881 224.002 -0.30 -0.03    +0.125 A  
DOCKED: ATOM     11  N   UNL     1     139.931  71.269 225.126 -0.29 +0.05    -0.243 NA 
DOCKED: ATOM     12  C   UNL     1     138.864  69.546 223.859 -0.28 -0.01    +0.035 A  
DOCKED: ATOM     13  C   UNL     1     140.173  70.410 226.149 -0.49 -0.01    +0.071 A  
DOCKED: ATOM     14  C   UNL     1     139.097  68.640 224.889 -0.40 -0.00    +0.013 A  
DOCKED: ATOM     15  C   UNL     1     140.847  70.852 227.293 -0.65 -0.00    +0.029 A  
DOCKED: ATOM     16  C   UNL     1     139.751  69.066 226.055 -0.50 -0.00    +0.000 A  
DOCKED: ATOM     17  C   UNL     1     141.103  69.961 228.339 -0.55 -0.00    +0.002 A  
DOCKED: ATOM     18  C   UNL     1     140.004  68.182 227.118 -0.65 -0.00    +0.010 A  
DOCKED: ATOM     19  C   UNL     1     140.680  68.631 228.253 -0.67 -0.00    +0.001 A  
DOCKED: ENDBRANCH   7  10
DOCKED: ENDBRANCH   6   7
DOCKED: ENDBRANCH   5   6
DOCKED: ENDBRANCH   1   5
DOCKED: BRANCH   3  20
DOCKED: ATOM     20  C   UNL     1     138.235  75.931 221.744 -0.19 -0.04    +0.171 C  
DOCKED: BRANCH  20  21
DOCKED: ATOM     21  C   UNL     1     139.684  76.332 221.811 -0.23 -0.06    +0.242 C  
DOCKED: ATOM     22  N   UNL     1     140.068  77.708 221.681 -0.10 +0.10    -0.352 N  
DOCKED: ATOM     23  O   UNL     1     140.565  75.442 221.975 -0.55 +0.05    -0.273 OA 
DOCKED: ATOM     24  H   UNL     1     139.348  78.399 221.378 +0.06 -0.04    +0.163 HD 
DOCKED: BRANCH  22  25
DOCKED: ATOM     25  C   UNL     1     141.424  78.163 222.013 -0.35 -0.04    +0.082 C  
DOCKED: ATOM     26  C   UNL     1     141.547  78.394 223.514 -0.51 -0.01    +0.025 C  
DOCKED: ATOM     27  C   UNL     1     141.720  79.529 221.391 -0.39 -0.01    +0.025 C  
DOCKED: ATOM     28  C   UNL     1     141.064  79.815 223.734 -0.54 -0.00    +0.002 C  
DOCKED: ATOM     29  C   UNL     1     141.386  80.578 222.451 -0.49 -0.00    +0.002 C  
DOCKED: ENDBRANCH  22  25
DOCKED: ENDBRANCH  20  21
DOCKED: BRANCH  20  30
DOCKED: ATOM     30  C   UNL     1     137.408  76.594 222.867 -0.24 -0.01    +0.038 C  
DOCKED: BRANCH  30  31
DOCKED: ATOM     31  C   UNL     1     136.797  77.963 222.452 -0.18 +0.00    -0.015 C  
DOCKED: ATOM     32  C   UNL     1     137.570  79.127 223.083 -0.22 -0.00    +0.007 C  
DOCKED: ATOM     33  C   UNL     1     136.779  78.128 220.924 -0.06 -0.00    +0.007 C  
DOCKED: ENDBRANCH  30  31
DOCKED: ENDBRANCH  20  30
DOCKED: ENDBRANCH   3  20
DOCKED: TORSDOF 10
DOCKED: TER
DOCKED: ENDMDL
________________________________________________________________________________


    FINAL DOCKED STATE:
    ________________________


Run:   2 / 20
Time taken for this run:   0.081s

DOCKED: MODEL        2
DOCKED: USER    Run = 2
DOCKED: USER
DOCKED: USER    Estimated Free Energy of Binding    =  -7.89 kcal/mol  [=(1)+(2)+(3)-(4)]
DOCKED: USER
DOCKED: USER    (1) Final Intermolecular Energy     = -10.87 kcal/mol
DOCKED: USER        vdW + Hbond + desolv Energy     = -10.88 kcal/mol
DOCKED: USER        Electrostatic Energy            =  +0.00 kcal/mol
DOCKED: USER        Moving Ligand-Fixed Receptor    = -10.87 kcal/mol
DOCKED: USER        Moving Ligand-Moving Receptor   =  +0.00 kcal/mol
DOCKED: USER    (2) Final Total Internal Energy     =  -2.97 kcal/mol
DOCKED: USER    (3) Torsional Free Energy           =  +2.98 kcal/mol
DOCKED: USER    (4) Unbound System's Energy         =  -2.97 kcal/mol
DOCKED: USER
DOCKED: USER
DOCKED: REMARK SMILES CC(C)C[C@H](NC(=O)C/N=C(/O)c1ccc2ccccc2n1)C(=O)NC1CCCC1
DOCKED: REMARK SMILES IDX 7 1 8 2 6 3 9 5 10 6 11 7 12 8 13 10 22 11 14 12 21 13 15 14
DOCKED: REMARK SMILES IDX 20 15 16 16 19 17 17 18 18 19 5 20 23 21 25 22 24 23 26 25
DOCKED: REMARK SMILES IDX 27 26 30 27 28 28 29 29 4 30 2 31 1 32 3 33
DOCKED: REMARK H PARENT 6 4 12 9 25 24
DOCKED: USER                              x       y       z     vdW  Elec       q    Type
DOCKED: USER                           _______ _______ _______ _____ _____    ______ ____
DOCKED: ROOT
DOCKED: ATOM      1  C   UNL     1     139.757  74.961 221.355 -0.19 -0.05    +0.242 C  
DOCKED: ATOM      2  O   UNL     1     140.760  74.699 222.068 -0.67 +0.01    -0.273 OA 
DOCKED: ATOM      3  N   UNL     1     139.654  76.225 220.681 -0.04 +0.09    -0.343 N  
DOCKED: ATOM      4  H   UNL     1     138.800  76.417 220.112 +0.03 -0.04    +0.164 HD 
DOCKED: ENDROOT
DOCKED: BRANCH   1   5
DOCKED: ATOM      5  C   UNL     1     138.686  73.930 221.197 -0.11 -0.06    +0.246 C  
DOCKED: BRANCH   5   6
DOCKED: ATOM      6  N   UNL     1     138.766  72.994 222.303 -0.15 +0.07    -0.240 NA 
DOCKED: BRANCH   6   7
DOCKED: ATOM      7  C   UNL     1     139.711  72.120 222.505 -0.21 -0.04    +0.233 C  
DOCKED: BRANCH   7   8
DOCKED: ATOM      8  O   UNL     1     140.720  71.992 221.560 -0.09 +0.06    -0.492 OA 
DOCKED: ATOM      9  H   UNL     1     141.330  72.774 221.325 +0.11 -0.03    +0.295 HD 
DOCKED: ENDBRANCH   7   8
DOCKED: BRANCH   7  10
DOCKED: ATOM     10  C   UNL     1     139.798  71.292 223.720 -0.33 -0.02    +0.125 A  
DOCKED: ATOM     11  N   UNL     1     140.327  71.838 224.845 -0.27 +0.04    -0.243 NA 
DOCKED: ATOM     12  C   UNL     1     139.422  69.939 223.712 -0.27 -0.01    +0.035 A  
DOCKED: ATOM     13  C   UNL     1     140.472  71.125 225.991 -0.55 -0.01    +0.071 A  
DOCKED: ATOM     14  C   UNL     1     139.558  69.179 224.870 -0.38 -0.00    +0.013 A  
DOCKED: ATOM     15  C   UNL     1     141.017  71.729 227.130 -0.76 -0.01    +0.029 A  
DOCKED: ATOM     16  C   UNL     1     140.080  69.769 226.031 -0.50 -0.00    +0.000 A  
DOCKED: ATOM     17  C   UNL     1     141.173  70.987 228.304 -0.62 -0.00    +0.002 A  
DOCKED: ATOM     18  C   UNL     1     140.231  69.037 227.220 -0.61 -0.00    +0.010 A  
DOCKED: ATOM     19  C   UNL     1     140.779  69.646 228.350 -0.59 -0.00    +0.001 A  
DOCKED: ENDBRANCH   7  10
DOCKED: ENDBRANCH   6   7
DOCKED: ENDBRANCH   5   6
DOCKED: ENDBRANCH   1   5
DOCKED: BRANCH   3  20
DOCKED: ATOM     20  C   UNL     1     140.730  77.222 220.735 -0.19 -0.07    +0.171 C  
DOCKED: BRANCH  20  21
DOCKED: ATOM     21  C   UNL     1     141.918  76.727 219.955 -0.19 -0.13    +0.242 C  
DOCKED: ATOM     22  N   UNL     1     142.745  75.675 220.472 -0.05 +0.21    -0.352 N  
DOCKED: ATOM     23  O   UNL     1     142.189  77.256 218.840 -0.17 +0.16    -0.273 OA 
DOCKED: ATOM     24  H   UNL     1     142.607  75.375 221.461 -0.44 -0.10    +0.163 HD 
DOCKED: BRANCH  22  25
DOCKED: ATOM     25  C   UNL     1     143.732  74.989 219.630 -0.34 -0.04    +0.082 C  
DOCKED: ATOM     26  C   UNL     1     143.131  73.715 219.048 -0.19 -0.01    +0.025 C  
DOCKED: ATOM     27  C   UNL     1     144.926  74.505 220.455 -0.44 -0.01    +0.025 C  
DOCKED: ATOM     28  C   UNL     1     143.360  72.654 220.107 -0.28 -0.00    +0.002 C  
DOCKED: ATOM     29  C   UNL     1     144.634  73.057 220.846 -0.48 -0.00    +0.002 C  
DOCKED: ENDBRANCH  22  25
DOCKED: ENDBRANCH  20  21
DOCKED: BRANCH  20  30
DOCKED: ATOM     30  C   UNL     1     141.102  77.535 222.201 -0.38 -0.02    +0.038 C  
DOCKED: BRANCH  30  31
DOCKED: ATOM     31  C   UNL     1     141.176  79.059 222.501 -0.47 +0.01    -0.015 C  
DOCKED: ATOM     32  C   UNL     1     140.151  79.461 223.569 -0.46 -0.00    +0.007 C  
DOCKED: ATOM     33  C   UNL     1     142.584  79.472 222.960 -0.61 -0.00    +0.007 C  
DOCKED: ENDBRANCH  30  31
DOCKED: ENDBRANCH  20  30
DOCKED: ENDBRANCH   3  20
DOCKED: TORSDOF 10
DOCKED: TER
DOCKED: ENDMDL
________________________________________________________________________________


    FINAL DOCKED STATE:
    ________________________


Run:   3 / 20
Time taken for this run:   0.081s

DOCKED: MODEL        3
DOCKED: USER    Run = 3
DOCKED: USER
DOCKED: USER    Estimated Free Energy of Binding    =  -7.99 kcal/mol  [=(1)+(2)+(3)-(4)]
DOCKED: USER
DOCKED: USER    (1) Final Intermolecular Energy     = -10.97 kcal/mol
DOCKED: USER        vdW + Hbond + desolv Energy     = -10.81 kcal/mol
DOCKED: USER        Electrostatic Energy            =  -0.16 kcal/mol
DOCKED: USER        Moving Ligand-Fixed Receptor    = -10.97 kcal/mol
DOCKED: USER        Moving Ligand-Moving Receptor   =  +0.00 kcal/mol
DOCKED: USER    (2) Final Total Internal Energy     =  -3.78 kcal/mol
DOCKED: USER    (3) Torsional Free Energy           =  +2.98 kcal/mol
DOCKED: USER    (4) Unbound System's Energy         =  -3.78 kcal/mol
DOCKED: USER
DOCKED: USER
DOCKED: REMARK SMILES CC(C)C[C@H](NC(=O)C/N=C(/O)c1ccc2ccccc2n1)C(=O)NC1CCCC1
DOCKED: REMARK SMILES IDX 7 1 8 2 6 3 9 5 10 6 11 7 12 8 13 10 22 11 14 12 21 13 15 14
DOCKED: REMARK SMILES IDX 20 15 16 16 19 17 17 18 18 19 5 20 23 21 25 22 24 23 26 25
DOCKED: REMARK SMILES IDX 27 26 30 27 28 28 29 29 4 30 2 31 1 32 3 33
DOCKED: REMARK H PARENT 6 4 12 9 25 24
DOCKED: USER                              x       y       z     vdW  Elec       q    Type
DOCKED: USER                           _______ _______ _______ _____ _____    ______ ____
DOCKED: ROOT
DOCKED: ATOM      1  C   UNL     1     141.198  71.689 220.930 -0.12 -0.03    +0.242 C  
DOCKED: ATOM      2  O   UNL     1     142.403  71.610 220.577 -0.14 +0.03    -0.273 OA 
DOCKED: ATOM      3  N   UNL     1     140.648  72.945 221.358 -0.12 +0.04    -0.343 N  
DOCKED: ATOM      4  H   UNL     1     139.649  72.972 221.662 +0.04 -0.03    +0.164 HD 
DOCKED: ENDROOT
DOCKED: BRANCH   1   5
DOCKED: ATOM      5  C   UNL     1     140.341  70.466 220.877 -0.06 -0.04    +0.246 C  
DOCKED: BRANCH   5   6
DOCKED: ATOM      6  N   UNL     1     139.009  70.802 221.343 -0.05 +0.04    -0.240 NA 
DOCKED: BRANCH   6   7
DOCKED: ATOM      7  C   UNL     1     138.702  71.292 222.510 -0.14 -0.05    +0.233 C  
DOCKED: BRANCH   7   8
DOCKED: ATOM      8  O   UNL     1     137.888  72.414 222.574 -0.05 +0.16    -0.492 OA 
DOCKED: ATOM      9  H   UNL     1     137.903  73.036 223.380 -0.41 -0.22    +0.295 HD 
DOCKED: ENDBRANCH   7   8
DOCKED: BRANCH   7  10
DOCKED: ATOM     10  C   UNL     1     139.130  70.679 223.780 -0.27 -0.02    +0.125 A  
DOCKED: ATOM     11  N   UNL     1     139.684  71.472 224.732 -0.25 +0.06    -0.243 NA 
DOCKED: ATOM     12  C   UNL     1     139.050  69.292 223.986 -0.29 -0.01    +0.035 A  
DOCKED: ATOM     13  C   UNL     1     140.134  70.972 225.911 -0.49 -0.01    +0.071 A  
DOCKED: ATOM     14  C   UNL     1     139.503  68.747 225.183 -0.42 -0.00    +0.013 A  
DOCKED: ATOM     15  C   UNL     1     140.693  71.825 226.869 -0.70 -0.01    +0.029 A  
DOCKED: ATOM     16  C   UNL     1     140.046  69.586 226.168 -0.50 -0.00    +0.000 A  
DOCKED: ATOM     17  C   UNL     1     141.165  71.304 228.077 -0.72 -0.00    +0.002 A  
DOCKED: ATOM     18  C   UNL     1     140.512  69.075 227.391 -0.62 -0.00    +0.010 A  
DOCKED: ATOM     19  C   UNL     1     141.071  69.933 228.338 -0.57 -0.00    +0.001 A  
DOCKED: ENDBRANCH   7  10
DOCKED: ENDBRANCH   6   7
DOCKED: ENDBRANCH   5   6
DOCKED: ENDBRANCH   1   5
DOCKED: BRANCH   3  20
DOCKED: ATOM     20  C   UNL     1     141.432  74.185 221.331 -0.16 -0.03    +0.171 C  
DOCKED: BRANCH  20  21
DOCKED: ATOM     21  C   UNL     1     140.629  75.306 221.936 -0.15 -0.04    +0.242 C  
DOCKED: ATOM     22  N   UNL     1     141.172  76.631 222.019 -0.14 +0.15    -0.352 N  
DOCKED: ATOM     23  O   UNL     1     139.471  75.067 222.381 -0.62 +0.04    -0.273 OA 
DOCKED: ATOM     24  H   UNL     1     142.185  76.768 221.806 -0.51 -0.16    +0.163 HD 
DOCKED: BRANCH  22  25
DOCKED: ATOM     25  C   UNL     1     140.330  77.788 222.344 -0.36 -0.02    +0.082 C  
DOCKED: ATOM     26  C   UNL     1     140.237  78.723 221.145 -0.22 -0.01    +0.025 C  
DOCKED: ATOM     27  C   UNL     1     140.960  78.642 223.446 -0.47 -0.01    +0.025 C  
DOCKED: ATOM     28  C   UNL     1     141.449  79.628 221.257 -0.38 -0.00    +0.002 C  
DOCKED: ATOM     29  C   UNL     1     141.758  79.744 222.748 -0.57 -0.00    +0.002 C  
DOCKED: ENDBRANCH  22  25
DOCKED: ENDBRANCH  20  21
DOCKED: BRANCH  20  30
DOCKED: ATOM     30  C   UNL     1     141.870  74.515 219.887 -0.20 -0.01    +0.038 C  
DOCKED: BRANCH  30  31
DOCKED: ATOM     31  C   UNL     1     143.174  75.360 219.822 -0.36 +0.01    -0.015 C  
DOCKED: ATOM     32  C   UNL     1     144.410  74.490 220.086 -0.45 -0.00    +0.007 C  
DOCKED: ATOM     33  C   UNL     1     143.321  76.059 218.461 -0.31 -0.00    +0.007 C  
DOCKED: ENDBRANCH  30  31
DOCKED: ENDBRANCH  20  30
DOCKED: ENDBRANCH   3  20
DOCKED: TORSDOF 10
DOCKED: TER
DOCKED: ENDMDL
________________________________________________________________________________


    FINAL DOCKED STATE:
    ________________________


Run:   4 / 20
Time taken for this run:   0.081s

DOCKED: MODEL        4
DOCKED: USER    Run = 4
DOCKED: USER
DOCKED: USER    Estimated Free Energy of Binding    =  -8.52 kcal/mol  [=(1)+(2)+(3)-(4)]
DOCKED: USER
DOCKED: USER    (1) Final Intermolecular Energy     = -11.50 kcal/mol
DOCKED: USER        vdW + Hbond + desolv Energy     = -11.44 kcal/mol
DOCKED: USER        Electrostatic Energy            =  -0.06 kcal/mol
DOCKED: USER        Moving Ligand-Fixed Receptor    = -11.50 kcal/mol
DOCKED: USER        Moving Ligand-Moving Receptor   =  +0.00 kcal/mol
DOCKED: USER    (2) Final Total Internal Energy     =  -3.95 kcal/mol
DOCKED: USER    (3) Torsional Free Energy           =  +2.98 kcal/mol
DOCKED: USER    (4) Unbound System's Energy         =  -3.95 kcal/mol
DOCKED: USER
DOCKED: USER
DOCKED: REMARK SMILES CC(C)C[C@H](NC(=O)C/N=C(/O)c1ccc2ccccc2n1)C(=O)NC1CCCC1
DOCKED: REMARK SMILES IDX 7 1 8 2 6 3 9 5 10 6 11 7 12 8 13 10 22 11 14 12 21 13 15 14
DOCKED: REMARK SMILES IDX 20 15 16 16 19 17 17 18 18 19 5 20 23 21 25 22 24 23 26 25
DOCKED: REMARK SMILES IDX 27 26 30 27 28 28 29 29 4 30 2 31 1 32 3 33
DOCKED: REMARK H PARENT 6 4 12 9 25 24
DOCKED: USER                              x       y       z     vdW  Elec       q    Type
DOCKED: USER                           _______ _______ _______ _____ _____    ______ ____
DOCKED: ROOT
DOCKED: ATOM      1  C   UNL     1     142.157  72.912 220.672 -0.15 -0.04    +0.242 C  
DOCKED: ATOM      2  O   UNL     1     143.369  73.084 220.381 -0.19 +0.05    -0.273 OA 
DOCKED: ATOM      3  N   UNL     1     141.303  74.039 220.923 -0.13 +0.06    -0.343 N  
DOCKED: ATOM      4  H   UNL     1     140.307  73.859 221.180 +0.05 -0.03    +0.164 HD 
DOCKED: ENDROOT
DOCKED: BRANCH   1   5
DOCKED: ATOM      5  C   UNL     1     141.613  71.522 220.729 -0.10 -0.03    +0.246 C  
DOCKED: BRANCH   5   6
DOCKED: ATOM      6  N   UNL     1     140.247  71.569 221.216 -0.09 +0.04    -0.240 NA 
DOCKED: BRANCH   6   7
DOCKED: ATOM      7  C   UNL     1     139.853  72.049 222.361 -0.21 -0.04    +0.233 C  
DOCKED: BRANCH   7   8
DOCKED: ATOM      8  O   UNL     1     139.334  73.336 222.406 -0.42 +0.12    -0.492 OA 
DOCKED: ATOM      9  H   UNL     1     139.493  73.945 223.207 -0.43 -0.06    +0.295 HD 
DOCKED: ENDBRANCH   7   8
DOCKED: BRANCH   7  10
DOCKED: ATOM     10  C   UNL     1     139.877  71.272 223.613 -0.32 -0.02    +0.125 A  
DOCKED: ATOM     11  N   UNL     1     140.370  71.858 224.734 -0.27 +0.04    -0.243 NA 
DOCKED: ATOM     12  C   UNL     1     139.479  69.926 223.645 -0.27 -0.01    +0.035 A  
DOCKED: ATOM     13  C   UNL     1     140.456  71.191 225.914 -0.54 -0.01    +0.071 A  
DOCKED: ATOM     14  C   UNL     1     139.556  69.214 224.838 -0.37 -0.00    +0.013 A  
DOCKED: ATOM     15  C   UNL     1     140.964  71.834 227.048 -0.75 -0.01    +0.029 A  
DOCKED: ATOM     16  C   UNL     1     140.040  69.845 225.995 -0.50 -0.00    +0.000 A  
DOCKED: ATOM     17  C   UNL     1     141.061  71.141 228.258 -0.69 -0.00    +0.002 A  
DOCKED: ATOM     18  C   UNL     1     140.131  69.161 227.218 -0.60 -0.00    +0.010 A  
DOCKED: ATOM     19  C   UNL     1     140.642  69.810 228.343 -0.59 -0.00    +0.001 A  
DOCKED: ENDBRANCH   7  10
DOCKED: ENDBRANCH   6   7
DOCKED: ENDBRANCH   5   6
DOCKED: ENDBRANCH   1   5
DOCKED: BRANCH   3  20
DOCKED: ATOM     20  C   UNL     1     141.779  75.419 220.781 -0.22 -0.07    +0.171 C  
DOCKED: BRANCH  20  21
DOCKED: ATOM     21  C   UNL     1     141.039  76.312 221.741 -0.23 -0.09    +0.242 C  
DOCKED: ATOM     22  N   UNL     1     141.494  77.649 221.995 -0.08 +0.19    -0.352 N  
DOCKED: ATOM     23  O   UNL     1     140.014  75.869 222.332 -0.47 +0.05    -0.273 OA 
DOCKED: ATOM     24  H   UNL     1     142.430  77.932 221.632 -0.43 -0.15    +0.163 HD 
DOCKED: BRANCH  22  25
DOCKED: ATOM     25  C   UNL     1     140.656  78.626 222.701 -0.41 -0.02    +0.082 C  
DOCKED: ATOM     26  C   UNL     1     140.473  79.874 221.847 -0.30 -0.01    +0.025 C  
DOCKED: ATOM     27  C   UNL     1     141.341  79.130 223.972 -0.53 -0.01    +0.025 C  
DOCKED: ATOM     28  C   UNL     1     141.675  80.744 222.160 -0.49 -0.00    +0.002 C  
DOCKED: ATOM     29  C   UNL     1     142.075  80.416 223.596 -0.65 -0.00    +0.002 C  
DOCKED: ENDBRANCH  22  25
DOCKED: ENDBRANCH  20  21
DOCKED: BRANCH  20  30
DOCKED: ATOM     30  C   UNL     1     141.619  75.898 219.322 -0.18 -0.02    +0.038 C  
DOCKED: BRANCH  30  31
DOCKED: ATOM     31  C   UNL     1     142.729  76.893 218.878 -0.33 +0.01    -0.015 C  
DOCKED: ATOM     32  C   UNL     1     143.321  76.490 217.522 -0.26 -0.00    +0.007 C  
DOCKED: ATOM     33  C   UNL     1     142.192  78.330 218.796 -0.30 -0.00    +0.007 C  
DOCKED: ENDBRANCH  30  31
DOCKED: ENDBRANCH  20  30
DOCKED: ENDBRANCH   3  20
DOCKED: TORSDOF 10
DOCKED: TER
DOCKED: ENDMDL
________________________________________________________________________________


    FINAL DOCKED STATE:
    ________________________


Run:   5 / 20
Time taken for this run:   0.081s

DOCKED: MODEL        5
DOCKED: USER    Run = 5
DOCKED: USER
DOCKED: USER    Estimated Free Energy of Binding    =  -8.03 kcal/mol  [=(1)+(2)+(3)-(4)]
DOCKED: USER
DOCKED: USER    (1) Final Intermolecular Energy     = -11.02 kcal/mol
DOCKED: USER        vdW + Hbond + desolv Energy     = -10.88 kcal/mol
DOCKED: USER        Electrostatic Energy            =  -0.14 kcal/mol
DOCKED: USER        Moving Ligand-Fixed Receptor    = -11.02 kcal/mol
DOCKED: USER        Moving Ligand-Moving Receptor   =  +0.00 kcal/mol
DOCKED: USER    (2) Final Total Internal Energy     =  -4.19 kcal/mol
DOCKED: USER    (3) Torsional Free Energy           =  +2.98 kcal/mol
DOCKED: USER    (4) Unbound System's Energy         =  -4.19 kcal/mol
DOCKED: USER
DOCKED: USER
DOCKED: REMARK SMILES CC(C)C[C@H](NC(=O)C/N=C(/O)c1ccc2ccccc2n1)C(=O)NC1CCCC1
DOCKED: REMARK SMILES IDX 7 1 8 2 6 3 9 5 10 6 11 7 12 8 13 10 22 11 14 12 21 13 15 14
DOCKED: REMARK SMILES IDX 20 15 16 16 19 17 17 18 18 19 5 20 23 21 25 22 24 23 26 25
DOCKED: REMARK SMILES IDX 27 26 30 27 28 28 29 29 4 30 2 31 1 32 3 33
DOCKED: REMARK H PARENT 6 4 12 9 25 24
DOCKED: USER                              x       y       z     vdW  Elec       q    Type
DOCKED: USER                           _______ _______ _______ _____ _____    ______ ____
DOCKED: ROOT
DOCKED: ATOM      1  C   UNL     1     141.218  71.759 220.867 -0.12 -0.03    +0.242 C  
DOCKED: ATOM      2  O   UNL     1     142.452  71.654 220.646 -0.14 +0.03    -0.273 OA 
DOCKED: ATOM      3  N   UNL     1     140.646  73.033 221.204 -0.11 +0.05    -0.343 N  
DOCKED: ATOM      4  H   UNL     1     139.621  73.081 221.399 +0.04 -0.03    +0.164 HD 
DOCKED: ENDROOT
DOCKED: BRANCH   1   5
DOCKED: ATOM      5  C   UNL     1     140.352  70.547 220.752 -0.07 -0.04    +0.246 C  
DOCKED: BRANCH   5   6
DOCKED: ATOM      6  N   UNL     1     139.040  70.851 221.293 -0.05 +0.04    -0.240 NA 
DOCKED: BRANCH   6   7
DOCKED: ATOM      7  C   UNL     1     138.791  71.398 222.449 -0.15 -0.05    +0.233 C  
DOCKED: BRANCH   7   8
DOCKED: ATOM      8  O   UNL     1     138.120  72.613 222.485 -0.05 +0.17    -0.492 OA 
DOCKED: ATOM      9  H   UNL     1     138.447  73.384 223.064 -0.46 -0.20    +0.295 HD 
DOCKED: ENDBRANCH   7   8
DOCKED: BRANCH   7  10
DOCKED: ATOM     10  C   UNL     1     139.138  70.765 223.733 -0.27 -0.03    +0.125 A  
DOCKED: ATOM     11  N   UNL     1     139.755  71.513 224.684 -0.26 +0.05    -0.243 NA 
DOCKED: ATOM     12  C   UNL     1     138.917  69.396 223.957 -0.29 -0.01    +0.035 A  
DOCKED: ATOM     13  C   UNL     1     140.136  70.988 225.876 -0.49 -0.01    +0.071 A  
DOCKED: ATOM     14  C   UNL     1     139.296  68.826 225.168 -0.42 -0.00    +0.013 A  
DOCKED: ATOM     15  C   UNL     1     140.764  71.795 226.831 -0.70 -0.01    +0.029 A  
DOCKED: ATOM     16  C   UNL     1     139.906  69.622 226.150 -0.49 -0.00    +0.000 A  
DOCKED: ATOM     17  C   UNL     1     141.163  71.248 228.053 -0.71 -0.00    +0.002 A  
DOCKED: ATOM     18  C   UNL     1     140.302  69.085 227.386 -0.61 -0.00    +0.010 A  
DOCKED: ATOM     19  C   UNL     1     140.930  69.897 228.331 -0.57 -0.00    +0.001 A  
DOCKED: ENDBRANCH   7  10
DOCKED: ENDBRANCH   6   7
DOCKED: ENDBRANCH   5   6
DOCKED: ENDBRANCH   1   5
DOCKED: BRANCH   3  20
DOCKED: ATOM     20  C   UNL     1     141.449  74.261 221.231 -0.21 -0.03    +0.171 C  
DOCKED: BRANCH  20  21
DOCKED: ATOM     21  C   UNL     1     140.662  75.367 221.881 -0.18 -0.04    +0.242 C  
DOCKED: ATOM     22  N   UNL     1     141.198  76.696 221.961 -0.12 +0.16    -0.352 N  
DOCKED: ATOM     23  O   UNL     1     139.524  75.113 222.366 -0.64 +0.04    -0.273 OA 
DOCKED: ATOM     24  H   UNL     1     142.200  76.843 221.711 -0.50 -0.15    +0.163 HD 
DOCKED: BRANCH  22  25
DOCKED: ATOM     25  C   UNL     1     140.360  77.842 222.333 -0.37 -0.02    +0.082 C  
DOCKED: ATOM     26  C   UNL     1     140.240  78.806 221.160 -0.22 -0.01    +0.025 C  
DOCKED: ATOM     27  C   UNL     1     141.012  78.669 223.442 -0.49 -0.01    +0.025 C  
DOCKED: ATOM     28  C   UNL     1     141.451  79.712 221.269 -0.38 -0.00    +0.002 C  
DOCKED: ATOM     29  C   UNL     1     141.792  79.790 222.755 -0.57 -0.00    +0.002 C  
DOCKED: ENDBRANCH  22  25
DOCKED: ENDBRANCH  20  21
DOCKED: BRANCH  20  30
DOCKED: ATOM     30  C   UNL     1     141.896  74.644 219.803 -0.20 -0.01    +0.038 C  
DOCKED: BRANCH  30  31
DOCKED: ATOM     31  C   UNL     1     143.225  75.452 219.774 -0.37 +0.01    -0.015 C  
DOCKED: ATOM     32  C   UNL     1     144.439  74.521 219.884 -0.38 -0.00    +0.007 C  
DOCKED: ATOM     33  C   UNL     1     143.340  76.295 218.494 -0.31 -0.00    +0.007 C  
DOCKED: ENDBRANCH  30  31
DOCKED: ENDBRANCH  20  30
DOCKED: ENDBRANCH   3  20
DOCKED: TORSDOF 10
DOCKED: TER
DOCKED: ENDMDL
________________________________________________________________________________


    FINAL DOCKED STATE:
    ________________________


Run:   6 / 20
Time taken for this run:   0.081s

DOCKED: MODEL        6
DOCKED: USER    Run = 6
DOCKED: USER
DOCKED: USER    Estimated Free Energy of Binding    =  -7.41 kcal/mol  [=(1)+(2)+(3)-(4)]
DOCKED: USER
DOCKED: USER    (1) Final Intermolecular Energy     = -10.40 kcal/mol
DOCKED: USER        vdW + Hbond + desolv Energy     = -10.31 kcal/mol
DOCKED: USER        Electrostatic Energy            =  -0.08 kcal/mol
DOCKED: USER        Moving Ligand-Fixed Receptor    = -10.40 kcal/mol
DOCKED: USER        Moving Ligand-Moving Receptor   =  +0.00 kcal/mol
DOCKED: USER    (2) Final Total Internal Energy     =  -3.17 kcal/mol
DOCKED: USER    (3) Torsional Free Energy           =  +2.98 kcal/mol
DOCKED: USER    (4) Unbound System's Energy         =  -3.17 kcal/mol
DOCKED: USER
DOCKED: USER
DOCKED: REMARK SMILES CC(C)C[C@H](NC(=O)C/N=C(/O)c1ccc2ccccc2n1)C(=O)NC1CCCC1
DOCKED: REMARK SMILES IDX 7 1 8 2 6 3 9 5 10 6 11 7 12 8 13 10 22 11 14 12 21 13 15 14
DOCKED: REMARK SMILES IDX 20 15 16 16 19 17 17 18 18 19 5 20 23 21 25 22 24 23 26 25
DOCKED: REMARK SMILES IDX 27 26 30 27 28 28 29 29 4 30 2 31 1 32 3 33
DOCKED: REMARK H PARENT 6 4 12 9 25 24
DOCKED: USER                              x       y       z     vdW  Elec       q    Type
DOCKED: USER                           _______ _______ _______ _____ _____    ______ ____
DOCKED: ROOT
DOCKED: ATOM      1  C   UNL     1     139.560  75.013 221.806 -0.21 -0.04    +0.242 C  
DOCKED: ATOM      2  O   UNL     1     140.775  74.746 221.997 -0.68 +0.02    -0.273 OA 
DOCKED: ATOM      3  N   UNL     1     139.145  76.364 221.552 -0.11 +0.08    -0.343 N  
DOCKED: ATOM      4  H   UNL     1     138.127  76.554 221.415 +0.04 -0.03    +0.164 HD 
DOCKED: ENDROOT
DOCKED: BRANCH   1   5
DOCKED: ATOM      5  C   UNL     1     138.559  73.904 221.823 -0.11 -0.07    +0.246 C  
DOCKED: BRANCH   5   6
DOCKED: ATOM      6  N   UNL     1     139.237  72.651 221.547 -0.12 +0.05    -0.240 NA 
DOCKED: BRANCH   6   7
DOCKED: ATOM      7  C   UNL     1     140.207  72.131 222.243 -0.22 -0.03    +0.233 C  
DOCKED: BRANCH   7   8
DOCKED: ATOM      8  O   UNL     1     141.512  72.282 221.792 -0.09 +0.03    -0.492 OA 
DOCKED: ATOM      9  H   UNL     1     141.906  73.202 221.607 +0.13 -0.02    +0.295 HD 
DOCKED: ENDBRANCH   7   8
DOCKED: BRANCH   7  10
DOCKED: ATOM     10  C   UNL     1     139.998  71.434 223.524 -0.32 -0.02    +0.125 A  
DOCKED: ATOM     11  N   UNL     1     140.596  71.926 224.639 -0.23 +0.03    -0.243 NA 
DOCKED: ATOM     12  C   UNL     1     139.265  70.238 223.595 -0.28 -0.01    +0.035 A  
DOCKED: ATOM     13  C   UNL     1     140.477  71.317 225.846 -0.53 -0.01    +0.071 A  
DOCKED: ATOM     14  C   UNL     1     139.125  69.588 224.816 -0.37 -0.00    +0.013 A  
DOCKED: ATOM     15  C   UNL     1     141.105  71.860 226.973 -0.76 -0.00    +0.029 A  
DOCKED: ATOM     16  C   UNL     1     139.726  70.127 225.964 -0.47 -0.00    +0.000 A  
DOCKED: ATOM     17  C   UNL     1     140.989  71.224 228.211 -0.72 -0.00    +0.002 A  
DOCKED: ATOM     18  C   UNL     1     139.606  69.502 227.216 -0.55 -0.00    +0.010 A  
DOCKED: ATOM     19  C   UNL     1     140.238  70.050 228.333 -0.59 -0.00    +0.001 A  
DOCKED: ENDBRANCH   7  10
DOCKED: ENDBRANCH   6   7
DOCKED: ENDBRANCH   5   6
DOCKED: ENDBRANCH   1   5
DOCKED: BRANCH   3  20
DOCKED: ATOM     20  C   UNL     1     140.111  77.462 221.432 -0.21 -0.05    +0.171 C  
DOCKED: BRANCH  20  21
DOCKED: ATOM     21  C   UNL     1     141.058  77.183 220.296 -0.15 -0.10    +0.242 C  
DOCKED: ATOM     22  N   UNL     1     142.188  76.318 220.483 -0.10 +0.21    -0.352 N  
DOCKED: ATOM     23  O   UNL     1     140.855  77.727 219.174 -0.06 +0.12    -0.273 OA 
DOCKED: ATOM     24  H   UNL     1     142.431  76.020 221.453 -0.49 -0.14    +0.163 HD 
DOCKED: BRANCH  22  25
DOCKED: ATOM     25  C   UNL     1     142.964  75.810 219.345 -0.31 -0.04    +0.082 C  
DOCKED: ATOM     26  C   UNL     1     142.081  74.952 218.448 -0.12 -0.01    +0.025 C  
DOCKED: ATOM     27  C   UNL     1     144.073  74.864 219.807 -0.39 -0.01    +0.025 C  
DOCKED: ATOM     28  C   UNL     1     142.140  73.562 219.053 -0.12 -0.00    +0.002 C  
DOCKED: ATOM     29  C   UNL     1     143.507  73.447 219.723 -0.29 -0.00    +0.002 C  
DOCKED: ENDBRANCH  22  25
DOCKED: ENDBRANCH  20  21
DOCKED: BRANCH  20  30
DOCKED: ATOM     30  C   UNL     1     140.865  77.665 222.765 -0.40 -0.01    +0.038 C  
DOCKED: BRANCH  30  31
DOCKED: ATOM     31  C   UNL     1     141.028  79.162 223.154 -0.52 +0.00    -0.015 C  
DOCKED: ATOM     32  C   UNL     1     142.489  79.611 223.017 -0.63 -0.00    +0.007 C  
DOCKED: ATOM     33  C   UNL     1     140.132  80.066 222.293 -0.33 -0.00    +0.007 C  
DOCKED: ENDBRANCH  30  31
DOCKED: ENDBRANCH  20  30
DOCKED: ENDBRANCH   3  20
DOCKED: TORSDOF 10
DOCKED: TER
DOCKED: ENDMDL
________________________________________________________________________________


    FINAL DOCKED STATE:
    ________________________


Run:   7 / 20
Time taken for this run:   0.081s

DOCKED: MODEL        7
DOCKED: USER    Run = 7
DOCKED: USER
DOCKED: USER    Estimated Free Energy of Binding    =  -8.80 kcal/mol  [=(1)+(2)+(3)-(4)]
DOCKED: USER
DOCKED: USER    (1) Final Intermolecular Energy     = -11.78 kcal/mol
DOCKED: USER        vdW + Hbond + desolv Energy     = -11.58 kcal/mol
DOCKED: USER        Electrostatic Energy            =  -0.20 kcal/mol
DOCKED: USER        Moving Ligand-Fixed Receptor    = -11.78 kcal/mol
DOCKED: USER        Moving Ligand-Moving Receptor   =  +0.00 kcal/mol
DOCKED: USER    (2) Final Total Internal Energy     =  -3.30 kcal/mol
DOCKED: USER    (3) Torsional Free Energy           =  +2.98 kcal/mol
DOCKED: USER    (4) Unbound System's Energy         =  -3.30 kcal/mol
DOCKED: USER
DOCKED: USER
DOCKED: REMARK SMILES CC(C)C[C@H](NC(=O)C/N=C(/O)c1ccc2ccccc2n1)C(=O)NC1CCCC1
DOCKED: REMARK SMILES IDX 7 1 8 2 6 3 9 5 10 6 11 7 12 8 13 10 22 11 14 12 21 13 15 14
DOCKED: REMARK SMILES IDX 20 15 16 16 19 17 17 18 18 19 5 20 23 21 25 22 24 23 26 25
DOCKED: REMARK SMILES IDX 27 26 30 27 28 28 29 29 4 30 2 31 1 32 3 33
DOCKED: REMARK H PARENT 6 4 12 9 25 24
DOCKED: USER                              x       y       z     vdW  Elec       q    Type
DOCKED: USER                           _______ _______ _______ _____ _____    ______ ____
DOCKED: ROOT
DOCKED: ATOM      1  C   UNL     1     142.467  73.152 220.682 -0.16 -0.04    +0.242 C  
DOCKED: ATOM      2  O   UNL     1     143.643  73.363 220.288 -0.21 +0.06    -0.273 OA 
DOCKED: ATOM      3  N   UNL     1     141.570  74.250 220.910 -0.14 +0.07    -0.343 N  
DOCKED: ATOM      4  H   UNL     1     140.606  74.040 221.255 +0.05 -0.03    +0.164 HD 
DOCKED: ENDROOT
DOCKED: BRANCH   1   5
DOCKED: ATOM      5  C   UNL     1     142.009  71.745 220.886 -0.11 -0.03    +0.246 C  
DOCKED: BRANCH   5   6
DOCKED: ATOM      6  N   UNL     1     140.610  71.754 221.272 -0.11 +0.03    -0.240 NA 
DOCKED: BRANCH   6   7
DOCKED: ATOM      7  C   UNL     1     140.125  72.199 222.396 -0.22 -0.03    +0.233 C  
DOCKED: BRANCH   7   8
DOCKED: ATOM      8  O   UNL     1     139.610  73.488 222.441 -0.62 +0.08    -0.492 OA 
DOCKED: ATOM      9  H   UNL     1     138.842  73.732 223.063 -0.48 -0.18    +0.295 HD 
DOCKED: ENDBRANCH   7   8
DOCKED: BRANCH   7  10
DOCKED: ATOM     10  C   UNL     1     140.039  71.381 223.618 -0.33 -0.02    +0.125 A  
DOCKED: ATOM     11  N   UNL     1     140.537  71.885 224.776 -0.27 +0.04    -0.243 NA 
DOCKED: ATOM     12  C   UNL     1     139.531  70.072 223.588 -0.27 -0.01    +0.035 A  
DOCKED: ATOM     13  C   UNL     1     140.526  71.174 225.933 -0.55 -0.01    +0.071 A  
DOCKED: ATOM     14  C   UNL     1     139.506  69.316 224.755 -0.37 -0.00    +0.013 A  
DOCKED: ATOM     15  C   UNL     1     141.044  71.734 227.106 -0.76 -0.01    +0.029 A  
DOCKED: ATOM     16  C   UNL     1     139.998  69.865 225.950 -0.49 -0.00    +0.000 A  
DOCKED: ATOM     17  C   UNL     1     141.039  70.994 228.292 -0.66 -0.00    +0.002 A  
DOCKED: ATOM     18  C   UNL     1     139.988  69.135 227.150 -0.59 -0.00    +0.010 A  
DOCKED: ATOM     19  C   UNL     1     140.510  69.700 228.314 -0.60 -0.00    +0.001 A  
DOCKED: ENDBRANCH   7  10
DOCKED: ENDBRANCH   6   7
DOCKED: ENDBRANCH   5   6
DOCKED: ENDBRANCH   1   5
DOCKED: BRANCH   3  20
DOCKED: ATOM     20  C   UNL     1     141.954  75.637 220.628 -0.17 -0.08    +0.171 C  
DOCKED: BRANCH  20  21
DOCKED: ATOM     21  C   UNL     1     141.170  76.570 221.512 -0.17 -0.10    +0.242 C  
DOCKED: ATOM     22  N   UNL     1     141.654  77.893 221.788 -0.07 +0.21    -0.352 N  
DOCKED: ATOM     23  O   UNL     1     140.084  76.174 222.019 -0.31 +0.06    -0.273 OA 
DOCKED: ATOM     24  H   UNL     1     142.627  78.136 221.503 -0.43 -0.16    +0.163 HD 
DOCKED: BRANCH  22  25
DOCKED: ATOM     25  C   UNL     1     140.797  78.910 222.410 -0.37 -0.03    +0.082 C  
DOCKED: ATOM     26  C   UNL     1     140.963  80.244 221.694 -0.35 -0.01    +0.025 C  
DOCKED: ATOM     27  C   UNL     1     141.227  79.193 223.850 -0.56 -0.01    +0.025 C  
DOCKED: ATOM     28  C   UNL     1     142.156  80.903 222.362 -0.54 -0.00    +0.002 C  
DOCKED: ATOM     29  C   UNL     1     142.174  80.391 223.800 -0.65 -0.00    +0.002 C  
DOCKED: ENDBRANCH  22  25
DOCKED: ENDBRANCH  20  21
DOCKED: BRANCH  20  30
DOCKED: ATOM     30  C   UNL     1     141.745  75.961 219.132 -0.18 -0.02    +0.038 C  
DOCKED: BRANCH  30  31
DOCKED: ATOM     31  C   UNL     1     142.851  76.882 218.545 -0.33 +0.01    -0.015 C  
DOCKED: ATOM     32  C   UNL     1     143.296  76.396 217.160 -0.25 -0.00    +0.007 C  
DOCKED: ATOM     33  C   UNL     1     142.374  78.340 218.447 -0.30 -0.01    +0.007 C  
DOCKED: ENDBRANCH  30  31
DOCKED: ENDBRANCH  20  30
DOCKED: ENDBRANCH   3  20
DOCKED: TORSDOF 10
DOCKED: TER
DOCKED: ENDMDL
________________________________________________________________________________


    FINAL DOCKED STATE:
    ________________________


Run:   8 / 20
Time taken for this run:   0.081s

DOCKED: MODEL        8
DOCKED: USER    Run = 8
DOCKED: USER
DOCKED: USER    Estimated Free Energy of Binding    =  -8.29 kcal/mol  [=(1)+(2)+(3)-(4)]
DOCKED: USER
DOCKED: USER    (1) Final Intermolecular Energy     = -11.27 kcal/mol
DOCKED: USER        vdW + Hbond + desolv Energy     = -11.15 kcal/mol
DOCKED: USER        Electrostatic Energy            =  -0.12 kcal/mol
DOCKED: USER        Moving Ligand-Fixed Receptor    = -11.27 kcal/mol
DOCKED: USER        Moving Ligand-Moving Receptor   =  +0.00 kcal/mol
DOCKED: USER    (2) Final Total Internal Energy     =  -4.13 kcal/mol
DOCKED: USER    (3) Torsional Free Energy           =  +2.98 kcal/mol
DOCKED: USER    (4) Unbound System's Energy         =  -4.13 kcal/mol
DOCKED: USER
DOCKED: USER
DOCKED: REMARK SMILES CC(C)C[C@H](NC(=O)C/N=C(/O)c1ccc2ccccc2n1)C(=O)NC1CCCC1
DOCKED: REMARK SMILES IDX 7 1 8 2 6 3 9 5 10 6 11 7 12 8 13 10 22 11 14 12 21 13 15 14
DOCKED: REMARK SMILES IDX 20 15 16 16 19 17 17 18 18 19 5 20 23 21 25 22 24 23 26 25
DOCKED: REMARK SMILES IDX 27 26 30 27 28 28 29 29 4 30 2 31 1 32 3 33
DOCKED: REMARK H PARENT 6 4 12 9 25 24
DOCKED: USER                              x       y       z     vdW  Elec       q    Type
DOCKED: USER                           _______ _______ _______ _____ _____    ______ ____
DOCKED: ROOT
DOCKED: ATOM      1  C   UNL     1     141.837  72.644 220.641 -0.14 -0.03    +0.242 C  
DOCKED: ATOM      2  O   UNL     1     143.046  72.783 220.321 -0.16 +0.04    -0.273 OA 
DOCKED: ATOM      3  N   UNL     1     141.020  73.795 220.909 -0.11 +0.06    -0.343 N  
DOCKED: ATOM      4  H   UNL     1     140.025  73.643 221.189 +0.04 -0.03    +0.164 HD 
DOCKED: ENDROOT
DOCKED: BRANCH   1   5
DOCKED: ATOM      5  C   UNL     1     141.256  71.270 220.715 -0.08 -0.03    +0.246 C  
DOCKED: BRANCH   5   6
DOCKED: ATOM      6  N   UNL     1     139.892  71.358 221.203 -0.08 +0.04    -0.240 NA 
DOCKED: BRANCH   6   7
DOCKED: ATOM      7  C   UNL     1     139.514  71.868 222.341 -0.20 -0.04    +0.233 C  
DOCKED: BRANCH   7   8
DOCKED: ATOM      8  O   UNL     1     138.863  73.095 222.342 -0.15 +0.15    -0.492 OA 
DOCKED: ATOM      9  H   UNL     1     139.028  73.783 223.075 -0.48 -0.15    +0.295 HD 
DOCKED: ENDBRANCH   7   8
DOCKED: BRANCH   7  10
DOCKED: ATOM     10  C   UNL     1     139.690  71.181 223.632 -0.31 -0.02    +0.125 A  
DOCKED: ATOM     11  N   UNL     1     140.263  71.860 224.659 -0.25 +0.04    -0.243 NA 
DOCKED: ATOM     12  C   UNL     1     139.354  69.827 223.791 -0.28 -0.01    +0.035 A  
DOCKED: ATOM     13  C   UNL     1     140.489  71.280 225.865 -0.54 -0.01    +0.071 A  
DOCKED: ATOM     14  C   UNL     1     139.575  69.202 225.014 -0.39 -0.00    +0.013 A  
DOCKED: ATOM     15  C   UNL     1     141.076  72.018 226.899 -0.74 -0.01    +0.029 A  
DOCKED: ATOM     16  C   UNL     1     140.140  69.928 226.074 -0.51 -0.00    +0.000 A  
DOCKED: ATOM     17  C   UNL     1     141.317  71.414 228.136 -0.69 -0.00    +0.002 A  
DOCKED: ATOM     18  C   UNL     1     140.377  69.335 227.325 -0.60 -0.00    +0.010 A  
DOCKED: ATOM     19  C   UNL     1     140.965  70.077 228.349 -0.56 -0.00    +0.001 A  
DOCKED: ENDBRANCH   7  10
DOCKED: ENDBRANCH   6   7
DOCKED: ENDBRANCH   5   6
DOCKED: ENDBRANCH   1   5
DOCKED: BRANCH   3  20
DOCKED: ATOM     20  C   UNL     1     141.530  75.161 220.752 -0.23 -0.06    +0.171 C  
DOCKED: BRANCH  20  21
DOCKED: ATOM     21  C   UNL     1     140.899  76.059 221.783 -0.24 -0.08    +0.242 C  
DOCKED: ATOM     22  N   UNL     1     141.430  77.368 222.035 -0.09 +0.19    -0.352 N  
DOCKED: ATOM     23  O   UNL     1     139.899  75.645 222.434 -0.51 +0.04    -0.273 OA 
DOCKED: ATOM     24  H   UNL     1     142.351  77.621 221.613 -0.45 -0.16    +0.163 HD 
DOCKED: BRANCH  22  25
DOCKED: ATOM     25  C   UNL     1     140.688  78.361 222.820 -0.41 -0.02    +0.082 C  
DOCKED: ATOM     26  C   UNL     1     140.366  79.576 221.960 -0.30 -0.01    +0.025 C  
DOCKED: ATOM     27  C   UNL     1     141.540  78.916 223.962 -0.55 -0.01    +0.025 C  
DOCKED: ATOM     28  C   UNL     1     141.588  80.469 222.068 -0.48 -0.00    +0.002 C  
DOCKED: ATOM     29  C   UNL     1     142.195  80.196 223.442 -0.66 -0.00    +0.002 C  
DOCKED: ENDBRANCH  22  25
DOCKED: ENDBRANCH  20  21
DOCKED: BRANCH  20  30
DOCKED: ATOM     30  C   UNL     1     141.270  75.672 219.318 -0.14 -0.01    +0.038 C  
DOCKED: BRANCH  30  31
DOCKED: ATOM     31  C   UNL     1     142.429  76.549 218.761 -0.28 +0.01    -0.015 C  
DOCKED: ATOM     32  C   UNL     1     142.034  78.030 218.730 -0.28 -0.00    +0.007 C  
DOCKED: ATOM     33  C   UNL     1     143.710  76.377 219.593 -0.31 -0.01    +0.007 C  
DOCKED: ENDBRANCH  30  31
DOCKED: ENDBRANCH  20  30
DOCKED: ENDBRANCH   3  20
DOCKED: TORSDOF 10
DOCKED: TER
DOCKED: ENDMDL
________________________________________________________________________________


    FINAL DOCKED STATE:
    ________________________


Run:   9 / 20
Time taken for this run:   0.081s

DOCKED: MODEL        9
DOCKED: USER    Run = 9
DOCKED: USER
DOCKED: USER    Estimated Free Energy of Binding    =  -7.69 kcal/mol  [=(1)+(2)+(3)-(4)]
DOCKED: USER
DOCKED: USER    (1) Final Intermolecular Energy     = -10.67 kcal/mol
DOCKED: USER        vdW + Hbond + desolv Energy     = -10.62 kcal/mol
DOCKED: USER        Electrostatic Energy            =  -0.05 kcal/mol
DOCKED: USER        Moving Ligand-Fixed Receptor    = -10.67 kcal/mol
DOCKED: USER        Moving Ligand-Moving Receptor   =  +0.00 kcal/mol
DOCKED: USER    (2) Final Total Internal Energy     =  -3.11 kcal/mol
DOCKED: USER    (3) Torsional Free Energy           =  +2.98 kcal/mol
DOCKED: USER    (4) Unbound System's Energy         =  -3.11 kcal/mol
DOCKED: USER
DOCKED: USER
DOCKED: REMARK SMILES CC(C)C[C@H](NC(=O)C/N=C(/O)c1ccc2ccccc2n1)C(=O)NC1CCCC1
DOCKED: REMARK SMILES IDX 7 1 8 2 6 3 9 5 10 6 11 7 12 8 13 10 22 11 14 12 21 13 15 14
DOCKED: REMARK SMILES IDX 20 15 16 16 19 17 17 18 18 19 5 20 23 21 25 22 24 23 26 25
DOCKED: REMARK SMILES IDX 27 26 30 27 28 28 29 29 4 30 2 31 1 32 3 33
DOCKED: REMARK H PARENT 6 4 12 9 25 24
DOCKED: USER                              x       y       z     vdW  Elec       q    Type
DOCKED: USER                           _______ _______ _______ _____ _____    ______ ____
DOCKED: ROOT
DOCKED: ATOM      1  C   UNL     1     137.475  72.927 221.321 -0.06 -0.06    +0.242 C  
DOCKED: ATOM      2  O   UNL     1     136.980  72.004 220.623 -0.01 +0.05    -0.273 OA 
DOCKED: ATOM      3  N   UNL     1     138.213  72.619 222.514 -0.02 +0.12    -0.343 N  
DOCKED: ATOM      4  H   UNL     1     138.596  73.410 223.079 -0.51 -0.11    +0.164 HD 
DOCKED: ENDROOT
DOCKED: BRANCH   1   5
DOCKED: ATOM      5  C   UNL     1     137.307  74.344 220.878 -0.06 -0.05    +0.246 C  
DOCKED: BRANCH   5   6
DOCKED: ATOM      6  N   UNL     1     138.616  74.957 220.749 -0.06 +0.05    -0.240 NA 
DOCKED: BRANCH   6   7
DOCKED: ATOM      7  C   UNL     1     139.402  75.308 221.727 -0.21 -0.05    +0.233 C  
DOCKED: BRANCH   7   8
DOCKED: ATOM      8  O   UNL     1     140.215  74.346 222.312 -0.70 -0.01    -0.492 OA 
DOCKED: ATOM      9  H   UNL     1     139.899  73.797 223.109 -0.29 +0.04    +0.295 HD 
DOCKED: ENDBRANCH   7   8
DOCKED: BRANCH   7  10
DOCKED: ATOM     10  C   UNL     1     139.516  76.694 222.213 -0.29 -0.03    +0.125 A  
DOCKED: ATOM     11  N   UNL     1     140.754  77.237 222.347 -0.27 +0.08    -0.243 NA 
DOCKED: ATOM     12  C   UNL     1     138.386  77.425 222.612 -0.28 -0.01    +0.035 A  
DOCKED: ATOM     13  C   UNL     1     140.938  78.495 222.823 -0.44 -0.02    +0.071 A  
DOCKED: ATOM     14  C   UNL     1     138.540  78.717 223.104 -0.29 -0.00    +0.013 A  
DOCKED: ATOM     15  C   UNL     1     142.230  79.020 222.940 -0.54 -0.01    +0.029 A  
DOCKED: ATOM     16  C   UNL     1     139.824  79.273 223.208 -0.41 -0.00    +0.000 A  
DOCKED: ATOM     17  C   UNL     1     142.415  80.312 223.439 -0.66 -0.00    +0.002 A  
DOCKED: ATOM     18  C   UNL     1     140.021  80.575 223.699 -0.41 -0.00    +0.010 A  
DOCKED: ATOM     19  C   UNL     1     141.314  81.088 223.814 -0.50 -0.00    +0.001 A  
DOCKED: ENDBRANCH   7  10
DOCKED: ENDBRANCH   6   7
DOCKED: ENDBRANCH   5   6
DOCKED: ENDBRANCH   1   5
DOCKED: BRANCH   3  20
DOCKED: ATOM     20  C   UNL     1     138.481  71.237 222.926 -0.18 -0.04    +0.171 C  
DOCKED: BRANCH  20  21
DOCKED: ATOM     21  C   UNL     1     139.541  71.222 223.994 -0.26 -0.05    +0.242 C  
DOCKED: ATOM     22  N   UNL     1     139.648  70.116 224.902 -0.15 +0.06    -0.352 N  
DOCKED: ATOM     23  O   UNL     1     140.333  72.201 224.092 -0.32 +0.04    -0.273 OA 
DOCKED: ATOM     24  H   UNL     1     138.883  69.406 224.913 +0.09 -0.02    +0.163 HD 
DOCKED: BRANCH  22  25
DOCKED: ATOM     25  C   UNL     1     140.823  69.940 225.764 -0.47 -0.01    +0.082 C  
DOCKED: ATOM     26  C   UNL     1     140.592  68.791 226.737 -0.61 -0.01    +0.025 C  
DOCKED: ATOM     27  C   UNL     1     141.041  71.160 226.660 -0.68 -0.00    +0.025 C  
DOCKED: ATOM     28  C   UNL     1     139.872  69.414 227.918 -0.64 -0.00    +0.002 C  
DOCKED: ATOM     29  C   UNL     1     140.342  70.864 227.987 -0.71 -0.00    +0.002 C  
DOCKED: ENDBRANCH  22  25
DOCKED: ENDBRANCH  20  21
DOCKED: BRANCH  20  30
DOCKED: ATOM     30  C   UNL     1     138.890  70.381 221.707 -0.13 -0.01    +0.038 C  
DOCKED: BRANCH  30  31
DOCKED: ATOM     31  C   UNL     1     139.181  68.897 222.071 -0.17 +0.00    -0.015 C  
DOCKED: ATOM     32  C   UNL     1     137.974  68.252 222.763 -0.22 -0.00    +0.007 C  
DOCKED: ATOM     33  C   UNL     1     139.557  68.078 220.827 -0.15 -0.00    +0.007 C  
DOCKED: ENDBRANCH  30  31
DOCKED: ENDBRANCH  20  30
DOCKED: ENDBRANCH   3  20
DOCKED: TORSDOF 10
DOCKED: TER
DOCKED: ENDMDL
________________________________________________________________________________


    FINAL DOCKED STATE:
    ________________________


Run:   10 / 20
Time taken for this run:   0.081s

DOCKED: MODEL        10
DOCKED: USER    Run = 10
DOCKED: USER
DOCKED: USER    Estimated Free Energy of Binding    =  -8.60 kcal/mol  [=(1)+(2)+(3)-(4)]
DOCKED: USER
DOCKED: USER    (1) Final Intermolecular Energy     = -11.58 kcal/mol
DOCKED: USER        vdW + Hbond + desolv Energy     = -11.51 kcal/mol
DOCKED: USER        Electrostatic Energy            =  -0.07 kcal/mol
DOCKED: USER        Moving Ligand-Fixed Receptor    = -11.58 kcal/mol
DOCKED: USER        Moving Ligand-Moving Receptor   =  +0.00 kcal/mol
DOCKED: USER    (2) Final Total Internal Energy     =  -3.60 kcal/mol
DOCKED: USER    (3) Torsional Free Energy           =  +2.98 kcal/mol
DOCKED: USER    (4) Unbound System's Energy         =  -3.60 kcal/mol
DOCKED: USER
DOCKED: USER
DOCKED: REMARK SMILES CC(C)C[C@H](NC(=O)C/N=C(/O)c1ccc2ccccc2n1)C(=O)NC1CCCC1
DOCKED: REMARK SMILES IDX 7 1 8 2 6 3 9 5 10 6 11 7 12 8 13 10 22 11 14 12 21 13 15 14
DOCKED: REMARK SMILES IDX 20 15 16 16 19 17 17 18 18 19 5 20 23 21 25 22 24 23 26 25
DOCKED: REMARK SMILES IDX 27 26 30 27 28 28 29 29 4 30 2 31 1 32 3 33
DOCKED: REMARK H PARENT 6 4 12 9 25 24
DOCKED: USER                              x       y       z     vdW  Elec       q    Type
DOCKED: USER                           _______ _______ _______ _____ _____    ______ ____
DOCKED: ROOT
DOCKED: ATOM      1  C   UNL     1     142.290  73.151 220.811 -0.16 -0.04    +0.242 C  
DOCKED: ATOM      2  O   UNL     1     143.513  73.412 220.953 -0.21 +0.06    -0.273 OA 
DOCKED: ATOM      3  N   UNL     1     141.330  74.212 220.686 -0.11 +0.07    -0.343 N  
DOCKED: ATOM      4  H   UNL     1     140.321  73.960 220.588 +0.05 -0.03    +0.164 HD 
DOCKED: ENDROOT
DOCKED: BRANCH   1   5
DOCKED: ATOM      5  C   UNL     1     141.853  71.724 220.751 -0.12 -0.03    +0.246 C  
DOCKED: BRANCH   5   6
DOCKED: ATOM      6  N   UNL     1     140.483  71.629 221.220 -0.10 +0.03    -0.240 NA 
DOCKED: BRANCH   6   7
DOCKED: ATOM      7  C   UNL     1     140.017  72.111 222.337 -0.22 -0.04    +0.233 C  
DOCKED: BRANCH   7   8
DOCKED: ATOM      8  O   UNL     1     139.487  73.394 222.345 -0.56 +0.10    -0.492 OA 
DOCKED: ATOM      9  H   UNL     1     139.490  73.965 223.188 -0.43 -0.06    +0.295 HD 
DOCKED: ENDBRANCH   7   8
DOCKED: BRANCH   7  10
DOCKED: ATOM     10  C   UNL     1     139.970  71.339 223.591 -0.33 -0.02    +0.125 A  
DOCKED: ATOM     11  N   UNL     1     140.469  71.902 224.722 -0.25 +0.04    -0.243 NA 
DOCKED: ATOM     12  C   UNL     1     139.498  70.017 223.619 -0.27 -0.01    +0.035 A  
DOCKED: ATOM     13  C   UNL     1     140.491  71.237 225.905 -0.54 -0.01    +0.071 A  
DOCKED: ATOM     14  C   UNL     1     139.508  69.307 224.816 -0.37 -0.00    +0.013 A  
DOCKED: ATOM     15  C   UNL     1     141.009  71.856 227.049 -0.76 -0.01    +0.029 A  
DOCKED: ATOM     16  C   UNL     1     140.001  69.916 225.981 -0.50 -0.00    +0.000 A  
DOCKED: ATOM     17  C   UNL     1     141.040  71.164 228.263 -0.70 -0.00    +0.002 A  
DOCKED: ATOM     18  C   UNL     1     140.026  69.233 227.208 -0.59 -0.00    +0.010 A  
DOCKED: ATOM     19  C   UNL     1     140.547  69.858 228.343 -0.59 -0.00    +0.001 A  
DOCKED: ENDBRANCH   7  10
DOCKED: ENDBRANCH   6   7
DOCKED: ENDBRANCH   5   6
DOCKED: ENDBRANCH   1   5
DOCKED: BRANCH   3  20
DOCKED: ATOM     20  C   UNL     1     141.734  75.622 220.643 -0.21 -0.07    +0.171 C  
DOCKED: BRANCH  20  21
DOCKED: ATOM     21  C   UNL     1     141.019  76.387 221.726 -0.23 -0.09    +0.242 C  
DOCKED: ATOM     22  N   UNL     1     141.475  77.688 222.123 -0.11 +0.19    -0.352 N  
DOCKED: ATOM     23  O   UNL     1     140.016  75.867 222.290 -0.46 +0.05    -0.273 OA 
DOCKED: ATOM     24  H   UNL     1     142.397  78.022 221.768 -0.40 -0.15    +0.163 HD 
DOCKED: BRANCH  22  25
DOCKED: ATOM     25  C   UNL     1     140.654  78.566 222.966 -0.41 -0.02    +0.082 C  
DOCKED: ATOM     26  C   UNL     1     140.190  79.777 222.166 -0.30 -0.01    +0.025 C  
DOCKED: ATOM     27  C   UNL     1     141.472  79.157 224.115 -0.51 -0.01    +0.025 C  
DOCKED: ATOM     28  C   UNL     1     141.317  80.785 222.290 -0.47 -0.00    +0.002 C  
DOCKED: ATOM     29  C   UNL     1     141.981  80.518 223.639 -0.63 -0.00    +0.002 C  
DOCKED: ENDBRANCH  22  25
DOCKED: ENDBRANCH  20  21
DOCKED: BRANCH  20  30
DOCKED: ATOM     30  C   UNL     1     141.457  76.220 219.247 -0.17 -0.02    +0.038 C  
DOCKED: BRANCH  30  31
DOCKED: ATOM     31  C   UNL     1     142.460  77.342 218.851 -0.32 +0.01    -0.015 C  
DOCKED: ATOM     32  C   UNL     1     142.930  77.175 217.401 -0.28 -0.00    +0.007 C  
DOCKED: ATOM     33  C   UNL     1     141.842  78.736 219.034 -0.27 -0.00    +0.007 C  
DOCKED: ENDBRANCH  30  31
DOCKED: ENDBRANCH  20  30
DOCKED: ENDBRANCH   3  20
DOCKED: TORSDOF 10
DOCKED: TER
DOCKED: ENDMDL
________________________________________________________________________________


    FINAL DOCKED STATE:
    ________________________


Run:   11 / 20
Time taken for this run:   0.081s

DOCKED: MODEL        11
DOCKED: USER    Run = 11
DOCKED: USER
DOCKED: USER    Estimated Free Energy of Binding    =  -8.13 kcal/mol  [=(1)+(2)+(3)-(4)]
DOCKED: USER
DOCKED: USER    (1) Final Intermolecular Energy     = -11.11 kcal/mol
DOCKED: USER        vdW + Hbond + desolv Energy     = -10.96 kcal/mol
DOCKED: USER        Electrostatic Energy            =  -0.15 kcal/mol
DOCKED: USER        Moving Ligand-Fixed Receptor    = -11.11 kcal/mol
DOCKED: USER        Moving Ligand-Moving Receptor   =  +0.00 kcal/mol
DOCKED: USER    (2) Final Total Internal Energy     =  -4.26 kcal/mol
DOCKED: USER    (3) Torsional Free Energy           =  +2.98 kcal/mol
DOCKED: USER    (4) Unbound System's Energy         =  -4.26 kcal/mol
DOCKED: USER
DOCKED: USER
DOCKED: REMARK SMILES CC(C)C[C@H](NC(=O)C/N=C(/O)c1ccc2ccccc2n1)C(=O)NC1CCCC1
DOCKED: REMARK SMILES IDX 7 1 8 2 6 3 9 5 10 6 11 7 12 8 13 10 22 11 14 12 21 13 15 14
DOCKED: REMARK SMILES IDX 20 15 16 16 19 17 17 18 18 19 5 20 23 21 25 22 24 23 26 25
DOCKED: REMARK SMILES IDX 27 26 30 27 28 28 29 29 4 30 2 31 1 32 3 33
DOCKED: REMARK H PARENT 6 4 12 9 25 24
DOCKED: USER                              x       y       z     vdW  Elec       q    Type
DOCKED: USER                           _______ _______ _______ _____ _____    ______ ____
DOCKED: ROOT
DOCKED: ATOM      1  C   UNL     1     141.375  71.779 220.640 -0.11 -0.03    +0.242 C  
DOCKED: ATOM      2  O   UNL     1     142.569  71.711 220.249 -0.12 +0.03    -0.273 OA 
DOCKED: ATOM      3  N   UNL     1     140.808  73.042 221.021 -0.10 +0.05    -0.343 N  
DOCKED: ATOM      4  H   UNL     1     139.819  73.061 221.359 +0.04 -0.03    +0.164 HD 
DOCKED: ENDROOT
DOCKED: BRANCH   1   5
DOCKED: ATOM      5  C   UNL     1     140.550  70.535 220.679 -0.05 -0.04    +0.246 C  
DOCKED: BRANCH   5   6
DOCKED: ATOM      6  N   UNL     1     139.254  70.846 221.253 -0.06 +0.04    -0.240 NA 
DOCKED: BRANCH   6   7
DOCKED: ATOM      7  C   UNL     1     139.038  71.417 222.404 -0.16 -0.05    +0.233 C  
DOCKED: BRANCH   7   8
DOCKED: ATOM      8  O   UNL     1     138.421  72.661 222.431 -0.06 +0.16    -0.492 OA 
DOCKED: ATOM      9  H   UNL     1     138.719  73.388 223.078 -0.45 -0.18    +0.295 HD 
DOCKED: ENDBRANCH   7   8
DOCKED: BRANCH   7  10
DOCKED: ATOM     10  C   UNL     1     139.366  70.784 223.693 -0.28 -0.02    +0.125 A  
DOCKED: ATOM     11  N   UNL     1     139.904  71.549 224.678 -0.27 +0.05    -0.243 NA 
DOCKED: ATOM     12  C   UNL     1     139.209  69.402 223.890 -0.28 -0.01    +0.035 A  
DOCKED: ATOM     13  C   UNL     1     140.264  71.027 225.878 -0.51 -0.01    +0.071 A  
DOCKED: ATOM     14  C   UNL     1     139.569  68.835 225.108 -0.41 -0.00    +0.013 A  
DOCKED: ATOM     15  C   UNL     1     140.809  71.852 226.868 -0.71 -0.01    +0.029 A  
DOCKED: ATOM     16  C   UNL     1     140.096  69.647 226.125 -0.50 -0.00    +0.000 A  
DOCKED: ATOM     17  C   UNL     1     141.188  71.308 228.098 -0.71 -0.00    +0.002 A  
DOCKED: ATOM     18  C   UNL     1     140.469  69.113 227.369 -0.61 -0.00    +0.010 A  
DOCKED: ATOM     19  C   UNL     1     141.015  69.943 228.349 -0.56 -0.00    +0.001 A  
DOCKED: ENDBRANCH   7  10
DOCKED: ENDBRANCH   6   7
DOCKED: ENDBRANCH   5   6
DOCKED: ENDBRANCH   1   5
DOCKED: BRANCH   3  20
DOCKED: ATOM     20  C   UNL     1     141.558  74.297 220.904 -0.21 -0.04    +0.171 C  
DOCKED: BRANCH  20  21
DOCKED: ATOM     21  C   UNL     1     140.887  75.368 221.722 -0.20 -0.05    +0.242 C  
DOCKED: ATOM     22  N   UNL     1     141.446  76.687 221.799 -0.04 +0.18    -0.352 N  
DOCKED: ATOM     23  O   UNL     1     139.827  75.092 222.350 -0.66 +0.03    -0.273 OA 
DOCKED: ATOM     24  H   UNL     1     142.404  76.844 221.416 -0.46 -0.17    +0.163 HD 
DOCKED: BRANCH  22  25
DOCKED: ATOM     25  C   UNL     1     140.686  77.814 222.352 -0.39 -0.03    +0.082 C  
DOCKED: ATOM     26  C   UNL     1     140.531  78.908 221.303 -0.26 -0.01    +0.025 C  
DOCKED: ATOM     27  C   UNL     1     141.444  78.488 223.497 -0.54 -0.01    +0.025 C  
DOCKED: ATOM     28  C   UNL     1     141.786  79.751 221.426 -0.42 -0.00    +0.002 C  
DOCKED: ATOM     29  C   UNL     1     142.226  79.650 222.884 -0.62 -0.00    +0.002 C  
DOCKED: ENDBRANCH  22  25
DOCKED: ENDBRANCH  20  21
DOCKED: BRANCH  20  30
DOCKED: ATOM     30  C   UNL     1     141.687  74.711 219.421 -0.15 -0.01    +0.038 C  
DOCKED: BRANCH  30  31
DOCKED: ATOM     31  C   UNL     1     143.088  75.285 219.065 -0.30 +0.01    -0.015 C  
DOCKED: ATOM     32  C   UNL     1     143.046  76.814 218.952 -0.35 -0.00    +0.007 C  
DOCKED: ATOM     33  C   UNL     1     144.142  74.877 220.107 -0.42 -0.00    +0.007 C  
DOCKED: ENDBRANCH  30  31
DOCKED: ENDBRANCH  20  30
DOCKED: ENDBRANCH   3  20
DOCKED: TORSDOF 10
DOCKED: TER
DOCKED: ENDMDL
________________________________________________________________________________


    FINAL DOCKED STATE:
    ________________________


Run:   12 / 20
Time taken for this run:   0.081s

DOCKED: MODEL        12
DOCKED: USER    Run = 12
DOCKED: USER
DOCKED: USER    Estimated Free Energy of Binding    =  -8.31 kcal/mol  [=(1)+(2)+(3)-(4)]
DOCKED: USER
DOCKED: USER    (1) Final Intermolecular Energy     = -11.29 kcal/mol
DOCKED: USER        vdW + Hbond + desolv Energy     = -11.11 kcal/mol
DOCKED: USER        Electrostatic Energy            =  -0.18 kcal/mol
DOCKED: USER        Moving Ligand-Fixed Receptor    = -11.29 kcal/mol
DOCKED: USER        Moving Ligand-Moving Receptor   =  +0.00 kcal/mol
DOCKED: USER    (2) Final Total Internal Energy     =  -3.17 kcal/mol
DOCKED: USER    (3) Torsional Free Energy           =  +2.98 kcal/mol
DOCKED: USER    (4) Unbound System's Energy         =  -3.17 kcal/mol
DOCKED: USER
DOCKED: USER
DOCKED: REMARK SMILES CC(C)C[C@H](NC(=O)C/N=C(/O)c1ccc2ccccc2n1)C(=O)NC1CCCC1
DOCKED: REMARK SMILES IDX 7 1 8 2 6 3 9 5 10 6 11 7 12 8 13 10 22 11 14 12 21 13 15 14
DOCKED: REMARK SMILES IDX 20 15 16 16 19 17 17 18 18 19 5 20 23 21 25 22 24 23 26 25
DOCKED: REMARK SMILES IDX 27 26 30 27 28 28 29 29 4 30 2 31 1 32 3 33
DOCKED: REMARK H PARENT 6 4 12 9 25 24
DOCKED: USER                              x       y       z     vdW  Elec       q    Type
DOCKED: USER                           _______ _______ _______ _____ _____    ______ ____
DOCKED: ROOT
DOCKED: ATOM      1  C   UNL     1     139.382  73.479 220.330 -0.06 -0.05    +0.242 C  
DOCKED: ATOM      2  O   UNL     1     138.769  74.392 219.718 -0.02 +0.06    -0.273 OA 
DOCKED: ATOM      3  N   UNL     1     140.717  73.697 220.811 -0.09 +0.06    -0.343 N  
DOCKED: ATOM      4  H   UNL     1     141.204  72.912 221.299 +0.05 -0.02    +0.164 HD 
DOCKED: ENDROOT
DOCKED: BRANCH   1   5
DOCKED: ATOM      5  C   UNL     1     138.694  72.175 220.571 -0.04 -0.05    +0.246 C  
DOCKED: BRANCH   5   6
DOCKED: ATOM      6  N   UNL     1     139.480  71.392 221.505 -0.08 +0.04    -0.240 NA 
DOCKED: BRANCH   6   7
DOCKED: ATOM      7  C   UNL     1     139.727  71.695 222.748 -0.22 -0.04    +0.233 C  
DOCKED: BRANCH   7   8
DOCKED: ATOM      8  O   UNL     1     139.965  73.022 223.080 -0.43 +0.05    -0.492 OA 
DOCKED: ATOM      9  H   UNL     1     139.215  73.711 223.088 -0.46 -0.12    +0.295 HD 
DOCKED: ENDBRANCH   7   8
DOCKED: BRANCH   7  10
DOCKED: ATOM     10  C   UNL     1     139.709  70.706 223.839 -0.30 -0.02    +0.125 A  
DOCKED: ATOM     11  N   UNL     1     140.309  71.022 225.016 -0.31 +0.04    -0.243 NA 
DOCKED: ATOM     12  C   UNL     1     139.161  69.426 223.657 -0.26 -0.01    +0.035 A  
DOCKED: ATOM     13  C   UNL     1     140.363  70.147 226.052 -0.48 -0.01    +0.071 A  
DOCKED: ATOM     14  C   UNL     1     139.201  68.504 224.699 -0.38 -0.00    +0.013 A  
DOCKED: ATOM     15  C   UNL     1     140.986  70.515 227.250 -0.60 -0.00    +0.029 A  
DOCKED: ATOM     16  C   UNL     1     139.799  68.860 225.918 -0.51 -0.00    +0.000 A  
DOCKED: ATOM     17  C   UNL     1     141.048  69.607 228.311 -0.58 -0.00    +0.002 A  
DOCKED: ATOM     18  C   UNL     1     139.858  67.959 226.994 -0.64 -0.00    +0.010 A  
DOCKED: ATOM     19  C   UNL     1     140.483  68.334 228.184 -0.65 -0.00    +0.001 A  
DOCKED: ENDBRANCH   7  10
DOCKED: ENDBRANCH   6   7
DOCKED: ENDBRANCH   5   6
DOCKED: ENDBRANCH   1   5
DOCKED: BRANCH   3  20
DOCKED: ATOM     20  C   UNL     1     141.388  74.996 220.678 -0.22 -0.05    +0.171 C  
DOCKED: BRANCH  20  21
DOCKED: ATOM     21  C   UNL     1     140.832  75.959 221.692 -0.25 -0.07    +0.242 C  
DOCKED: ATOM     22  N   UNL     1     141.436  77.247 221.883 -0.08 +0.19    -0.352 N  
DOCKED: ATOM     23  O   UNL     1     139.832  75.620 222.384 -0.52 +0.04    -0.273 OA 
DOCKED: ATOM     24  H   UNL     1     142.356  77.438 221.428 -0.45 -0.15    +0.163 HD 
DOCKED: BRANCH  22  25
DOCKED: ATOM     25  C   UNL     1     140.767  78.303 222.652 -0.42 -0.03    +0.082 C  
DOCKED: ATOM     26  C   UNL     1     140.633  79.563 221.807 -0.31 -0.01    +0.025 C  
DOCKED: ATOM     27  C   UNL     1     141.612  78.737 223.852 -0.56 -0.01    +0.025 C  
DOCKED: ATOM     28  C   UNL     1     141.939  80.309 222.002 -0.50 -0.00    +0.002 C  
DOCKED: ATOM     29  C   UNL     1     142.434  79.943 223.399 -0.66 -0.00    +0.002 C  
DOCKED: ENDBRANCH  22  25
DOCKED: ENDBRANCH  20  21
DOCKED: BRANCH  20  30
DOCKED: ATOM     30  C   UNL     1     141.236  75.535 219.238 -0.13 -0.01    +0.038 C  
DOCKED: BRANCH  30  31
DOCKED: ATOM     31  C   UNL     1     142.488  76.313 218.741 -0.27 +0.01    -0.015 C  
DOCKED: ATOM     32  C   UNL     1     142.205  77.818 218.656 -0.29 -0.00    +0.007 C  
DOCKED: ATOM     33  C   UNL     1     143.698  76.070 219.657 -0.38 -0.00    +0.007 C  
DOCKED: ENDBRANCH  30  31
DOCKED: ENDBRANCH  20  30
DOCKED: ENDBRANCH   3  20
DOCKED: TORSDOF 10
DOCKED: TER
DOCKED: ENDMDL
________________________________________________________________________________


    FINAL DOCKED STATE:
    ________________________


Run:   13 / 20
Time taken for this run:   0.081s

DOCKED: MODEL        13
DOCKED: USER    Run = 13
DOCKED: USER
DOCKED: USER    Estimated Free Energy of Binding    =  -8.52 kcal/mol  [=(1)+(2)+(3)-(4)]
DOCKED: USER
DOCKED: USER    (1) Final Intermolecular Energy     = -11.50 kcal/mol
DOCKED: USER        vdW + Hbond + desolv Energy     = -11.45 kcal/mol
DOCKED: USER        Electrostatic Energy            =  -0.05 kcal/mol
DOCKED: USER        Moving Ligand-Fixed Receptor    = -11.50 kcal/mol
DOCKED: USER        Moving Ligand-Moving Receptor   =  +0.00 kcal/mol
DOCKED: USER    (2) Final Total Internal Energy     =  -3.96 kcal/mol
DOCKED: USER    (3) Torsional Free Energy           =  +2.98 kcal/mol
DOCKED: USER    (4) Unbound System's Energy         =  -3.96 kcal/mol
DOCKED: USER
DOCKED: USER
DOCKED: REMARK SMILES CC(C)C[C@H](NC(=O)C/N=C(/O)c1ccc2ccccc2n1)C(=O)NC1CCCC1
DOCKED: REMARK SMILES IDX 7 1 8 2 6 3 9 5 10 6 11 7 12 8 13 10 22 11 14 12 21 13 15 14
DOCKED: REMARK SMILES IDX 20 15 16 16 19 17 17 18 18 19 5 20 23 21 25 22 24 23 26 25
DOCKED: REMARK SMILES IDX 27 26 30 27 28 28 29 29 4 30 2 31 1 32 3 33
DOCKED: REMARK H PARENT 6 4 12 9 25 24
DOCKED: USER                              x       y       z     vdW  Elec       q    Type
DOCKED: USER                           _______ _______ _______ _____ _____    ______ ____
DOCKED: ROOT
DOCKED: ATOM      1  C   UNL     1     142.274  73.020 220.752 -0.16 -0.04    +0.242 C  
DOCKED: ATOM      2  O   UNL     1     143.484  73.229 220.473 -0.21 +0.05    -0.273 OA 
DOCKED: ATOM      3  N   UNL     1     141.383  74.122 220.985 -0.13 +0.06    -0.343 N  
DOCKED: ATOM      4  H   UNL     1     140.390  73.913 221.232 +0.05 -0.03    +0.164 HD 
DOCKED: ENDROOT
DOCKED: BRANCH   1   5
DOCKED: ATOM      5  C   UNL     1     141.773  71.614 220.813 -0.11 -0.03    +0.246 C  
DOCKED: BRANCH   5   6
DOCKED: ATOM      6  N   UNL     1     140.386  71.626 221.239 -0.10 +0.04    -0.240 NA 
DOCKED: BRANCH   6   7
DOCKED: ATOM      7  C   UNL     1     139.932  72.086 222.370 -0.22 -0.04    +0.233 C  
DOCKED: BRANCH   7   8
DOCKED: ATOM      8  O   UNL     1     139.367  73.354 222.400 -0.45 +0.11    -0.492 OA 
DOCKED: ATOM      9  H   UNL     1     139.523  73.987 223.183 -0.43 -0.05    +0.295 HD 
DOCKED: ENDBRANCH   7   8
DOCKED: BRANCH   7  10
DOCKED: ATOM     10  C   UNL     1     139.933  71.304 223.619 -0.33 -0.02    +0.125 A  
DOCKED: ATOM     11  N   UNL     1     140.431  71.875 224.745 -0.27 +0.04    -0.243 NA 
DOCKED: ATOM     12  C   UNL     1     139.508  69.965 223.644 -0.27 -0.01    +0.035 A  
DOCKED: ATOM     13  C   UNL     1     140.498  71.202 225.922 -0.54 -0.01    +0.071 A  
DOCKED: ATOM     14  C   UNL     1     139.564  69.247 224.834 -0.37 -0.00    +0.013 A  
DOCKED: ATOM     15  C   UNL     1     141.013  71.830 227.062 -0.76 -0.01    +0.029 A  
DOCKED: ATOM     16  C   UNL     1     140.055  69.864 225.996 -0.50 -0.00    +0.000 A  
DOCKED: ATOM     17  C   UNL     1     141.089  71.130 228.270 -0.69 -0.00    +0.002 A  
DOCKED: ATOM     18  C   UNL     1     140.125  69.174 227.217 -0.59 -0.00    +0.010 A  
DOCKED: ATOM     19  C   UNL     1     140.643  69.807 228.347 -0.58 -0.00    +0.001 A  
DOCKED: ENDBRANCH   7  10
DOCKED: ENDBRANCH   6   7
DOCKED: ENDBRANCH   5   6
DOCKED: ENDBRANCH   1   5
DOCKED: BRANCH   3  20
DOCKED: ATOM     20  C   UNL     1     141.817  75.516 220.838 -0.20 -0.07    +0.171 C  
DOCKED: BRANCH  20  21
DOCKED: ATOM     21  C   UNL     1     141.057  76.388 221.801 -0.22 -0.09    +0.242 C  
DOCKED: ATOM     22  N   UNL     1     141.501  77.722 222.086 -0.08 +0.19    -0.352 N  
DOCKED: ATOM     23  O   UNL     1     140.024  75.930 222.367 -0.45 +0.05    -0.273 OA 
DOCKED: ATOM     24  H   UNL     1     142.442  78.016 221.744 -0.41 -0.15    +0.163 HD 
DOCKED: BRANCH  22  25
DOCKED: ATOM     25  C   UNL     1     140.647  78.682 222.795 -0.41 -0.02    +0.082 C  
DOCKED: ATOM     26  C   UNL     1     140.330  79.868 221.893 -0.29 -0.01    +0.025 C  
DOCKED: ATOM     27  C   UNL     1     141.376  79.297 223.991 -0.52 -0.01    +0.025 C  
DOCKED: ATOM     28  C   UNL     1     141.490  80.827 222.082 -0.47 -0.00    +0.002 C  
DOCKED: ATOM     29  C   UNL     1     142.000  80.604 223.503 -0.64 -0.00    +0.002 C  
DOCKED: ENDBRANCH  22  25
DOCKED: ENDBRANCH  20  21
DOCKED: BRANCH  20  30
DOCKED: ATOM     30  C   UNL     1     141.634  75.987 219.378 -0.19 -0.02    +0.038 C  
DOCKED: BRANCH  30  31
DOCKED: ATOM     31  C   UNL     1     142.729  76.990 218.917 -0.34 +0.01    -0.015 C  
DOCKED: ATOM     32  C   UNL     1     143.299  76.594 217.549 -0.26 -0.00    +0.007 C  
DOCKED: ATOM     33  C   UNL     1     142.181  78.424 218.848 -0.29 -0.00    +0.007 C  
DOCKED: ENDBRANCH  30  31
DOCKED: ENDBRANCH  20  30
DOCKED: ENDBRANCH   3  20
DOCKED: TORSDOF 10
DOCKED: TER
DOCKED: ENDMDL
________________________________________________________________________________


    FINAL DOCKED STATE:
    ________________________


Run:   14 / 20
Time taken for this run:   0.081s

DOCKED: MODEL        14
DOCKED: USER    Run = 14
DOCKED: USER
DOCKED: USER    Estimated Free Energy of Binding    =  -8.56 kcal/mol  [=(1)+(2)+(3)-(4)]
DOCKED: USER
DOCKED: USER    (1) Final Intermolecular Energy     = -11.54 kcal/mol
DOCKED: USER        vdW + Hbond + desolv Energy     = -11.48 kcal/mol
DOCKED: USER        Electrostatic Energy            =  -0.06 kcal/mol
DOCKED: USER        Moving Ligand-Fixed Receptor    = -11.54 kcal/mol
DOCKED: USER        Moving Ligand-Moving Receptor   =  +0.00 kcal/mol
DOCKED: USER    (2) Final Total Internal Energy     =  -3.85 kcal/mol
DOCKED: USER    (3) Torsional Free Energy           =  +2.98 kcal/mol
DOCKED: USER    (4) Unbound System's Energy         =  -3.85 kcal/mol
DOCKED: USER
DOCKED: USER
DOCKED: REMARK SMILES CC(C)C[C@H](NC(=O)C/N=C(/O)c1ccc2ccccc2n1)C(=O)NC1CCCC1
DOCKED: REMARK SMILES IDX 7 1 8 2 6 3 9 5 10 6 11 7 12 8 13 10 22 11 14 12 21 13 15 14
DOCKED: REMARK SMILES IDX 20 15 16 16 19 17 17 18 18 19 5 20 23 21 25 22 24 23 26 25
DOCKED: REMARK SMILES IDX 27 26 30 27 28 28 29 29 4 30 2 31 1 32 3 33
DOCKED: REMARK H PARENT 6 4 12 9 25 24
DOCKED: USER                              x       y       z     vdW  Elec       q    Type
DOCKED: USER                           _______ _______ _______ _____ _____    ______ ____
DOCKED: ROOT
DOCKED: ATOM      1  C   UNL     1     142.124  72.878 220.614 -0.15 -0.04    +0.242 C  
DOCKED: ATOM      2  O   UNL     1     143.354  73.026 220.396 -0.19 +0.05    -0.273 OA 
DOCKED: ATOM      3  N   UNL     1     141.281  74.022 220.826 -0.12 +0.07    -0.343 N  
DOCKED: ATOM      4  H   UNL     1     140.268  73.862 221.022 +0.05 -0.03    +0.164 HD 
DOCKED: ENDROOT
DOCKED: BRANCH   1   5
DOCKED: ATOM      5  C   UNL     1     141.547  71.500 220.624 -0.10 -0.03    +0.246 C  
DOCKED: BRANCH   5   6
DOCKED: ATOM      6  N   UNL     1     140.215  71.550 221.197 -0.09 +0.04    -0.240 NA 
DOCKED: BRANCH   6   7
DOCKED: ATOM      7  C   UNL     1     139.893  72.057 222.353 -0.22 -0.04    +0.233 C  
DOCKED: BRANCH   7   8
DOCKED: ATOM      8  O   UNL     1     139.444  73.370 222.408 -0.50 +0.10    -0.492 OA 
DOCKED: ATOM      9  H   UNL     1     139.551  73.933 223.250 -0.42 -0.05    +0.295 HD 
DOCKED: ENDBRANCH   7   8
DOCKED: BRANCH   7  10
DOCKED: ATOM     10  C   UNL     1     139.925  71.288 223.609 -0.32 -0.02    +0.125 A  
DOCKED: ATOM     11  N   UNL     1     140.418  71.884 224.726 -0.27 +0.04    -0.243 NA 
DOCKED: ATOM     12  C   UNL     1     139.537  69.939 223.651 -0.27 -0.01    +0.035 A  
DOCKED: ATOM     13  C   UNL     1     140.512  71.225 225.909 -0.54 -0.01    +0.071 A  
DOCKED: ATOM     14  C   UNL     1     139.622  69.235 224.848 -0.37 -0.00    +0.013 A  
DOCKED: ATOM     15  C   UNL     1     141.019  71.878 227.038 -0.76 -0.01    +0.029 A  
DOCKED: ATOM     16  C   UNL     1     140.106  69.876 225.999 -0.50 -0.00    +0.000 A  
DOCKED: ATOM     17  C   UNL     1     141.124  71.193 228.252 -0.69 -0.00    +0.002 A  
DOCKED: ATOM     18  C   UNL     1     140.205  69.200 227.227 -0.60 -0.00    +0.010 A  
DOCKED: ATOM     19  C   UNL     1     140.715  69.859 228.346 -0.58 -0.00    +0.001 A  
DOCKED: ENDBRANCH   7  10
DOCKED: ENDBRANCH   6   7
DOCKED: ENDBRANCH   5   6
DOCKED: ENDBRANCH   1   5
DOCKED: BRANCH   3  20
DOCKED: ATOM     20  C   UNL     1     141.795  75.392 220.728 -0.22 -0.07    +0.171 C  
DOCKED: BRANCH  20  21
DOCKED: ATOM     21  C   UNL     1     141.087  76.272 221.724 -0.21 -0.09    +0.242 C  
DOCKED: ATOM     22  N   UNL     1     141.552  77.604 221.982 +0.01 +0.20    -0.352 N  
DOCKED: ATOM     23  O   UNL     1     140.082  75.821 222.342 -0.48 +0.04    -0.273 OA 
DOCKED: ATOM     24  H   UNL     1     142.477  77.893 221.593 -0.45 -0.16    +0.163 HD 
DOCKED: BRANCH  22  25
DOCKED: ATOM     25  C   UNL     1     140.739  78.572 222.729 -0.42 -0.02    +0.082 C  
DOCKED: ATOM     26  C   UNL     1     140.486  79.810 221.879 -0.30 -0.01    +0.025 C  
DOCKED: ATOM     27  C   UNL     1     141.487  79.096 223.956 -0.56 -0.01    +0.025 C  
DOCKED: ATOM     28  C   UNL     1     141.688  80.703 222.118 -0.49 -0.00    +0.002 C  
DOCKED: ATOM     29  C   UNL     1     142.176  80.392 223.531 -0.66 -0.00    +0.002 C  
DOCKED: ENDBRANCH  22  25
DOCKED: ENDBRANCH  20  21
DOCKED: BRANCH  20  30
DOCKED: ATOM     30  C   UNL     1     141.637  75.925 219.287 -0.18 -0.02    +0.038 C  
DOCKED: BRANCH  30  31
DOCKED: ATOM     31  C   UNL     1     142.790  76.876 218.856 -0.34 +0.01    -0.015 C  
DOCKED: ATOM     32  C   UNL     1     143.416  76.420 217.532 -0.24 -0.00    +0.007 C  
DOCKED: ATOM     33  C   UNL     1     142.298  78.326 218.717 -0.29 -0.00    +0.007 C  
DOCKED: ENDBRANCH  30  31
DOCKED: ENDBRANCH  20  30
DOCKED: ENDBRANCH   3  20
DOCKED: TORSDOF 10
DOCKED: TER
DOCKED: ENDMDL
________________________________________________________________________________


    FINAL DOCKED STATE:
    ________________________


Run:   15 / 20
Time taken for this run:   0.081s

DOCKED: MODEL        15
DOCKED: USER    Run = 15
DOCKED: USER
DOCKED: USER    Estimated Free Energy of Binding    =  -8.61 kcal/mol  [=(1)+(2)+(3)-(4)]
DOCKED: USER
DOCKED: USER    (1) Final Intermolecular Energy     = -11.59 kcal/mol
DOCKED: USER        vdW + Hbond + desolv Energy     = -11.55 kcal/mol
DOCKED: USER        Electrostatic Energy            =  -0.04 kcal/mol
DOCKED: USER        Moving Ligand-Fixed Receptor    = -11.59 kcal/mol
DOCKED: USER        Moving Ligand-Moving Receptor   =  +0.00 kcal/mol
DOCKED: USER    (2) Final Total Internal Energy     =  -3.77 kcal/mol
DOCKED: USER    (3) Torsional Free Energy           =  +2.98 kcal/mol
DOCKED: USER    (4) Unbound System's Energy         =  -3.77 kcal/mol
DOCKED: USER
DOCKED: USER
DOCKED: REMARK SMILES CC(C)C[C@H](NC(=O)C/N=C(/O)c1ccc2ccccc2n1)C(=O)NC1CCCC1
DOCKED: REMARK SMILES IDX 7 1 8 2 6 3 9 5 10 6 11 7 12 8 13 10 22 11 14 12 21 13 15 14
DOCKED: REMARK SMILES IDX 20 15 16 16 19 17 17 18 18 19 5 20 23 21 25 22 24 23 26 25
DOCKED: REMARK SMILES IDX 27 26 30 27 28 28 29 29 4 30 2 31 1 32 3 33
DOCKED: REMARK H PARENT 6 4 12 9 25 24
DOCKED: USER                              x       y       z     vdW  Elec       q    Type
DOCKED: USER                           _______ _______ _______ _____ _____    ______ ____
DOCKED: ROOT
DOCKED: ATOM      1  C   UNL     1     142.282  73.230 220.701 -0.16 -0.04    +0.242 C  
DOCKED: ATOM      2  O   UNL     1     143.488  73.550 220.540 -0.23 +0.06    -0.273 OA 
DOCKED: ATOM      3  N   UNL     1     141.267  74.243 220.775 -0.12 +0.07    -0.343 N  
DOCKED: ATOM      4  H   UNL     1     140.277  73.945 220.927 +0.05 -0.03    +0.164 HD 
DOCKED: ENDROOT
DOCKED: BRANCH   1   5
DOCKED: ATOM      5  C   UNL     1     141.917  71.785 220.790 -0.12 -0.03    +0.246 C  
DOCKED: BRANCH   5   6
DOCKED: ATOM      6  N   UNL     1     140.545  71.671 221.248 -0.11 +0.03    -0.240 NA 
DOCKED: BRANCH   6   7
DOCKED: ATOM      7  C   UNL     1     140.067  72.128 222.371 -0.22 -0.03    +0.233 C  
DOCKED: BRANCH   7   8
DOCKED: ATOM      8  O   UNL     1     139.516  73.402 222.396 -0.57 +0.10    -0.492 OA 
DOCKED: ATOM      9  H   UNL     1     139.561  73.983 223.231 -0.43 -0.04    +0.295 HD 
DOCKED: ENDBRANCH   7   8
DOCKED: BRANCH   7  10
DOCKED: ATOM     10  C   UNL     1     140.029  71.337 223.612 -0.33 -0.02    +0.125 A  
DOCKED: ATOM     11  N   UNL     1     140.523  71.887 224.751 -0.27 +0.04    -0.243 NA 
DOCKED: ATOM     12  C   UNL     1     139.570  70.009 223.620 -0.27 -0.01    +0.035 A  
DOCKED: ATOM     13  C   UNL     1     140.554  71.204 225.924 -0.55 -0.01    +0.071 A  
DOCKED: ATOM     14  C   UNL     1     139.588  69.281 224.805 -0.37 -0.00    +0.013 A  
DOCKED: ATOM     15  C   UNL     1     141.066  71.810 227.077 -0.77 -0.01    +0.029 A  
DOCKED: ATOM     16  C   UNL     1     140.076  69.876 225.980 -0.50 -0.00    +0.000 A  
DOCKED: ATOM     17  C   UNL     1     141.105  71.099 228.280 -0.67 -0.00    +0.002 A  
DOCKED: ATOM     18  C   UNL     1     140.109  69.176 227.196 -0.59 -0.00    +0.010 A  
DOCKED: ATOM     19  C   UNL     1     140.625  69.787 228.340 -0.59 -0.00    +0.001 A  
DOCKED: ENDBRANCH   7  10
DOCKED: ENDBRANCH   6   7
DOCKED: ENDBRANCH   5   6
DOCKED: ENDBRANCH   1   5
DOCKED: BRANCH   3  20
DOCKED: ATOM     20  C   UNL     1     141.576  75.666 220.595 -0.21 -0.07    +0.171 C  
DOCKED: BRANCH  20  21
DOCKED: ATOM     21  C   UNL     1     141.036  76.453 221.759 -0.23 -0.09    +0.242 C  
DOCKED: ATOM     22  N   UNL     1     141.561  77.753 222.068 -0.03 +0.20    -0.352 N  
DOCKED: ATOM     23  O   UNL     1     140.120  75.955 222.471 -0.42 +0.04    -0.273 OA 
DOCKED: ATOM     24  H   UNL     1     142.427  78.069 221.578 -0.38 -0.15    +0.163 HD 
DOCKED: BRANCH  22  25
DOCKED: ATOM     25  C   UNL     1     140.884  78.652 223.010 -0.45 -0.02    +0.082 C  
DOCKED: ATOM     26  C   UNL     1     140.566  79.978 222.332 -0.36 -0.01    +0.025 C  
DOCKED: ATOM     27  C   UNL     1     141.799  79.028 224.176 -0.52 -0.01    +0.025 C  
DOCKED: ATOM     28  C   UNL     1     141.818  80.816 222.501 -0.55 -0.00    +0.002 C  
DOCKED: ATOM     29  C   UNL     1     142.472  80.348 223.799 -0.67 -0.00    +0.002 C  
DOCKED: ENDBRANCH  22  25
DOCKED: ENDBRANCH  20  21
DOCKED: BRANCH  20  30
DOCKED: ATOM     30  C   UNL     1     141.007  76.176 219.252 -0.13 -0.01    +0.038 C  
DOCKED: BRANCH  30  31
DOCKED: ATOM     31  C   UNL     1     142.050  76.957 218.403 -0.23 +0.01    -0.015 C  
DOCKED: ATOM     32  C   UNL     1     142.181  78.406 218.887 -0.29 -0.00    +0.007 C  
DOCKED: ATOM     33  C   UNL     1     143.428  76.277 218.442 -0.27 -0.00    +0.007 C  
DOCKED: ENDBRANCH  30  31
DOCKED: ENDBRANCH  20  30
DOCKED: ENDBRANCH   3  20
DOCKED: TORSDOF 10
DOCKED: TER
DOCKED: ENDMDL
________________________________________________________________________________


    FINAL DOCKED STATE:
    ________________________


Run:   16 / 20
Time taken for this run:   0.081s

DOCKED: MODEL        16
DOCKED: USER    Run = 16
DOCKED: USER
DOCKED: USER    Estimated Free Energy of Binding    =  -8.15 kcal/mol  [=(1)+(2)+(3)-(4)]
DOCKED: USER
DOCKED: USER    (1) Final Intermolecular Energy     = -11.14 kcal/mol
DOCKED: USER        vdW + Hbond + desolv Energy     = -11.00 kcal/mol
DOCKED: USER        Electrostatic Energy            =  -0.14 kcal/mol
DOCKED: USER        Moving Ligand-Fixed Receptor    = -11.14 kcal/mol
DOCKED: USER        Moving Ligand-Moving Receptor   =  +0.00 kcal/mol
DOCKED: USER    (2) Final Total Internal Energy     =  -4.26 kcal/mol
DOCKED: USER    (3) Torsional Free Energy           =  +2.98 kcal/mol
DOCKED: USER    (4) Unbound System's Energy         =  -4.26 kcal/mol
DOCKED: USER
DOCKED: USER
DOCKED: REMARK SMILES CC(C)C[C@H](NC(=O)C/N=C(/O)c1ccc2ccccc2n1)C(=O)NC1CCCC1
DOCKED: REMARK SMILES IDX 7 1 8 2 6 3 9 5 10 6 11 7 12 8 13 10 22 11 14 12 21 13 15 14
DOCKED: REMARK SMILES IDX 20 15 16 16 19 17 17 18 18 19 5 20 23 21 25 22 24 23 26 25
DOCKED: REMARK SMILES IDX 27 26 30 27 28 28 29 29 4 30 2 31 1 32 3 33
DOCKED: REMARK H PARENT 6 4 12 9 25 24
DOCKED: USER                              x       y       z     vdW  Elec       q    Type
DOCKED: USER                           _______ _______ _______ _____ _____    ______ ____
DOCKED: ROOT
DOCKED: ATOM      1  C   UNL     1     141.442  72.003 220.729 -0.12 -0.03    +0.242 C  
DOCKED: ATOM      2  O   UNL     1     142.667  71.948 220.446 -0.14 +0.03    -0.273 OA 
DOCKED: ATOM      3  N   UNL     1     140.816  73.266 221.002 -0.10 +0.05    -0.343 N  
DOCKED: ATOM      4  H   UNL     1     139.802  73.274 221.251 +0.04 -0.03    +0.164 HD 
DOCKED: ENDROOT
DOCKED: BRANCH   1   5
DOCKED: ATOM      5  C   UNL     1     140.643  70.741 220.753 -0.07 -0.04    +0.246 C  
DOCKED: BRANCH   5   6
DOCKED: ATOM      6  N   UNL     1     139.319  71.030 221.272 -0.06 +0.04    -0.240 NA 
DOCKED: BRANCH   6   7
DOCKED: ATOM      7  C   UNL     1     139.045  71.557 222.432 -0.16 -0.05    +0.233 C  
DOCKED: BRANCH   7   8
DOCKED: ATOM      8  O   UNL     1     138.372  72.771 222.474 -0.04 +0.17    -0.492 OA 
DOCKED: ATOM      9  H   UNL     1     138.721  73.552 223.027 -0.47 -0.18    +0.295 HD 
DOCKED: ENDBRANCH   7   8
DOCKED: BRANCH   7  10
DOCKED: ATOM     10  C   UNL     1     139.362  70.901 223.712 -0.29 -0.03    +0.125 A  
DOCKED: ATOM     11  N   UNL     1     139.927  71.641 224.701 -0.23 +0.05    -0.243 NA 
DOCKED: ATOM     12  C   UNL     1     139.168  69.523 223.895 -0.28 -0.01    +0.035 A  
DOCKED: ATOM     13  C   UNL     1     140.279  71.095 225.893 -0.52 -0.01    +0.071 A  
DOCKED: ATOM     14  C   UNL     1     139.519  68.932 225.105 -0.41 -0.00    +0.013 A  
DOCKED: ATOM     15  C   UNL     1     140.853  71.895 226.888 -0.72 -0.01    +0.029 A  
DOCKED: ATOM     16  C   UNL     1     140.074  69.719 226.127 -0.50 -0.00    +0.000 A  
DOCKED: ATOM     17  C   UNL     1     141.224  71.327 228.111 -0.70 -0.00    +0.002 A  
DOCKED: ATOM     18  C   UNL     1     140.440  69.161 227.363 -0.61 -0.00    +0.010 A  
DOCKED: ATOM     19  C   UNL     1     141.014  69.965 228.348 -0.56 -0.00    +0.001 A  
DOCKED: ENDBRANCH   7  10
DOCKED: ENDBRANCH   6   7
DOCKED: ENDBRANCH   5   6
DOCKED: ENDBRANCH   1   5
DOCKED: BRANCH   3  20
DOCKED: ATOM     20  C   UNL     1     141.547  74.534 220.892 -0.22 -0.04    +0.171 C  
DOCKED: BRANCH  20  21
DOCKED: ATOM     21  C   UNL     1     140.874  75.582 221.738 -0.22 -0.06    +0.242 C  
DOCKED: ATOM     22  N   UNL     1     141.442  76.893 221.866 -0.03 +0.19    -0.352 N  
DOCKED: ATOM     23  O   UNL     1     139.805  75.293 222.346 -0.62 +0.03    -0.273 OA 
DOCKED: ATOM     24  H   UNL     1     142.405  77.056 221.499 -0.47 -0.17    +0.163 HD 
DOCKED: BRANCH  22  25
DOCKED: ATOM     25  C   UNL     1     140.683  78.007 222.448 -0.39 -0.03    +0.082 C  
DOCKED: ATOM     26  C   UNL     1     140.533  79.129 221.429 -0.27 -0.01    +0.025 C  
DOCKED: ATOM     27  C   UNL     1     141.441  78.646 223.613 -0.56 -0.01    +0.025 C  
DOCKED: ATOM     28  C   UNL     1     141.790  79.965 221.578 -0.44 -0.00    +0.002 C  
DOCKED: ATOM     29  C   UNL     1     142.227  79.822 223.034 -0.64 -0.00    +0.002 C  
DOCKED: ENDBRANCH  22  25
DOCKED: ENDBRANCH  20  21
DOCKED: BRANCH  20  30
DOCKED: ATOM     30  C   UNL     1     141.645  74.974 219.415 -0.16 -0.01    +0.038 C  
DOCKED: BRANCH  30  31
DOCKED: ATOM     31  C   UNL     1     143.031  75.576 219.046 -0.31 +0.01    -0.015 C  
DOCKED: ATOM     32  C   UNL     1     142.957  77.104 218.939 -0.35 -0.00    +0.007 C  
DOCKED: ATOM     33  C   UNL     1     144.103  75.185 220.076 -0.37 -0.00    +0.007 C  
DOCKED: ENDBRANCH  30  31
DOCKED: ENDBRANCH  20  30
DOCKED: ENDBRANCH   3  20
DOCKED: TORSDOF 10
DOCKED: TER
DOCKED: ENDMDL
________________________________________________________________________________


    FINAL DOCKED STATE:
    ________________________


Run:   17 / 20
Time taken for this run:   0.081s

DOCKED: MODEL        17
DOCKED: USER    Run = 17
DOCKED: USER
DOCKED: USER    Estimated Free Energy of Binding    =  -8.55 kcal/mol  [=(1)+(2)+(3)-(4)]
DOCKED: USER
DOCKED: USER    (1) Final Intermolecular Energy     = -11.53 kcal/mol
DOCKED: USER        vdW + Hbond + desolv Energy     = -11.47 kcal/mol
DOCKED: USER        Electrostatic Energy            =  -0.06 kcal/mol
DOCKED: USER        Moving Ligand-Fixed Receptor    = -11.53 kcal/mol
DOCKED: USER        Moving Ligand-Moving Receptor   =  +0.00 kcal/mol
DOCKED: USER    (2) Final Total Internal Energy     =  -3.93 kcal/mol
DOCKED: USER    (3) Torsional Free Energy           =  +2.98 kcal/mol
DOCKED: USER    (4) Unbound System's Energy         =  -3.93 kcal/mol
DOCKED: USER
DOCKED: USER
DOCKED: REMARK SMILES CC(C)C[C@H](NC(=O)C/N=C(/O)c1ccc2ccccc2n1)C(=O)NC1CCCC1
DOCKED: REMARK SMILES IDX 7 1 8 2 6 3 9 5 10 6 11 7 12 8 13 10 22 11 14 12 21 13 15 14
DOCKED: REMARK SMILES IDX 20 15 16 16 19 17 17 18 18 19 5 20 23 21 25 22 24 23 26 25
DOCKED: REMARK SMILES IDX 27 26 30 27 28 28 29 29 4 30 2 31 1 32 3 33
DOCKED: REMARK H PARENT 6 4 12 9 25 24
DOCKED: USER                              x       y       z     vdW  Elec       q    Type
DOCKED: USER                           _______ _______ _______ _____ _____    ______ ____
DOCKED: ROOT
DOCKED: ATOM      1  C   UNL     1     142.235  72.983 220.697 -0.16 -0.04    +0.242 C  
DOCKED: ATOM      2  O   UNL     1     143.453  73.170 220.443 -0.20 +0.05    -0.273 OA 
DOCKED: ATOM      3  N   UNL     1     141.359  74.101 220.912 -0.13 +0.07    -0.343 N  
DOCKED: ATOM      4  H   UNL     1     140.357  73.910 221.138 +0.05 -0.03    +0.164 HD 
DOCKED: ENDROOT
DOCKED: BRANCH   1   5
DOCKED: ATOM      5  C   UNL     1     141.707  71.586 220.748 -0.11 -0.03    +0.246 C  
DOCKED: BRANCH   5   6
DOCKED: ATOM      6  N   UNL     1     140.336  71.617 221.221 -0.10 +0.04    -0.240 NA 
DOCKED: BRANCH   6   7
DOCKED: ATOM      7  C   UNL     1     139.924  72.098 222.360 -0.22 -0.04    +0.233 C  
DOCKED: BRANCH   7   8
DOCKED: ATOM      8  O   UNL     1     139.394  73.381 222.392 -0.48 +0.11    -0.492 OA 
DOCKED: ATOM      9  H   UNL     1     139.524  73.989 223.199 -0.43 -0.05    +0.295 HD 
DOCKED: ENDBRANCH   7   8
DOCKED: BRANCH   7  10
DOCKED: ATOM     10  C   UNL     1     139.940  71.328 223.615 -0.33 -0.02    +0.125 A  
DOCKED: ATOM     11  N   UNL     1     140.450  71.909 224.731 -0.25 +0.04    -0.243 NA 
DOCKED: ATOM     12  C   UNL     1     139.516  69.990 223.657 -0.27 -0.01    +0.035 A  
DOCKED: ATOM     13  C   UNL     1     140.530  71.247 225.913 -0.55 -0.01    +0.071 A  
DOCKED: ATOM     14  C   UNL     1     139.585  69.282 224.853 -0.38 -0.00    +0.013 A  
DOCKED: ATOM     15  C   UNL     1     141.057  71.886 227.041 -0.77 -0.01    +0.029 A  
DOCKED: ATOM     16  C   UNL     1     140.088  69.910 226.003 -0.50 -0.00    +0.000 A  
DOCKED: ATOM     17  C   UNL     1     141.147  71.197 228.254 -0.68 -0.00    +0.002 A  
DOCKED: ATOM     18  C   UNL     1     140.172  69.231 227.230 -0.59 -0.00    +0.010 A  
DOCKED: ATOM     19  C   UNL     1     140.703  69.875 228.349 -0.58 -0.00    +0.001 A  
DOCKED: ENDBRANCH   7  10
DOCKED: ENDBRANCH   6   7
DOCKED: ENDBRANCH   5   6
DOCKED: ENDBRANCH   1   5
DOCKED: BRANCH   3  20
DOCKED: ATOM     20  C   UNL     1     141.821  75.486 220.774 -0.21 -0.07    +0.171 C  
DOCKED: BRANCH  20  21
DOCKED: ATOM     21  C   UNL     1     141.088  76.365 221.752 -0.21 -0.09    +0.242 C  
DOCKED: ATOM     22  N   UNL     1     141.545  77.698 222.022 -0.03 +0.20    -0.352 N  
DOCKED: ATOM     23  O   UNL     1     140.068  75.913 222.344 -0.46 +0.05    -0.273 OA 
DOCKED: ATOM     24  H   UNL     1     142.479  77.986 221.657 -0.43 -0.15    +0.163 HD 
DOCKED: BRANCH  22  25
DOCKED: ATOM     25  C   UNL     1     140.713  78.664 222.749 -0.42 -0.02    +0.082 C  
DOCKED: ATOM     26  C   UNL     1     140.520  79.923 221.913 -0.31 -0.01    +0.025 C  
DOCKED: ATOM     27  C   UNL     1     141.409  79.152 224.020 -0.53 -0.01    +0.025 C  
DOCKED: ATOM     28  C   UNL     1     141.724  80.791 222.226 -0.51 -0.00    +0.002 C  
DOCKED: ATOM     29  C   UNL     1     142.139  80.445 223.654 -0.65 -0.00    +0.002 C  
DOCKED: ENDBRANCH  22  25
DOCKED: ENDBRANCH  20  21
DOCKED: BRANCH  20  30
DOCKED: ATOM     30  C   UNL     1     141.633  75.975 219.320 -0.19 -0.02    +0.038 C  
DOCKED: BRANCH  30  31
DOCKED: ATOM     31  C   UNL     1     142.727  76.984 218.868 -0.33 +0.01    -0.015 C  
DOCKED: ATOM     32  C   UNL     1     143.300  76.600 217.498 -0.26 -0.00    +0.007 C  
DOCKED: ATOM     33  C   UNL     1     142.177  78.418 218.811 -0.29 -0.00    +0.007 C  
DOCKED: ENDBRANCH  30  31
DOCKED: ENDBRANCH  20  30
DOCKED: ENDBRANCH   3  20
DOCKED: TORSDOF 10
DOCKED: TER
DOCKED: ENDMDL
________________________________________________________________________________


    FINAL DOCKED STATE:
    ________________________


Run:   18 / 20
Time taken for this run:   0.081s

DOCKED: MODEL        18
DOCKED: USER    Run = 18
DOCKED: USER
DOCKED: USER    Estimated Free Energy of Binding    =  -6.70 kcal/mol  [=(1)+(2)+(3)-(4)]
DOCKED: USER
DOCKED: USER    (1) Final Intermolecular Energy     =  -9.68 kcal/mol
DOCKED: USER        vdW + Hbond + desolv Energy     =  -9.62 kcal/mol
DOCKED: USER        Electrostatic Energy            =  -0.06 kcal/mol
DOCKED: USER        Moving Ligand-Fixed Receptor    =  -9.68 kcal/mol
DOCKED: USER        Moving Ligand-Moving Receptor   =  +0.00 kcal/mol
DOCKED: USER    (2) Final Total Internal Energy     =  -4.71 kcal/mol
DOCKED: USER    (3) Torsional Free Energy           =  +2.98 kcal/mol
DOCKED: USER    (4) Unbound System's Energy         =  -4.71 kcal/mol
DOCKED: USER
DOCKED: USER
DOCKED: REMARK SMILES CC(C)C[C@H](NC(=O)C/N=C(/O)c1ccc2ccccc2n1)C(=O)NC1CCCC1
DOCKED: REMARK SMILES IDX 7 1 8 2 6 3 9 5 10 6 11 7 12 8 13 10 22 11 14 12 21 13 15 14
DOCKED: REMARK SMILES IDX 20 15 16 16 19 17 17 18 18 19 5 20 23 21 25 22 24 23 26 25
DOCKED: REMARK SMILES IDX 27 26 30 27 28 28 29 29 4 30 2 31 1 32 3 33
DOCKED: REMARK H PARENT 6 4 12 9 25 24
DOCKED: USER                              x       y       z     vdW  Elec       q    Type
DOCKED: USER                           _______ _______ _______ _____ _____    ______ ____
DOCKED: ROOT
DOCKED: ATOM      1  C   UNL     1     141.376  74.223 220.424 -0.15 -0.06    +0.242 C  
DOCKED: ATOM      2  O   UNL     1     141.601  73.678 219.312 -0.04 +0.06    -0.273 OA 
DOCKED: ATOM      3  N   UNL     1     142.218  75.287 220.895 -0.10 +0.15    -0.343 N  
DOCKED: ATOM      4  H   UNL     1     142.014  75.704 221.831 -0.45 -0.09    +0.164 HD 
DOCKED: ENDROOT
DOCKED: BRANCH   1   5
DOCKED: ATOM      5  C   UNL     1     140.208  73.766 221.236 -0.18 -0.04    +0.246 C  
DOCKED: BRANCH   5   6
DOCKED: ATOM      6  N   UNL     1     140.001  74.695 222.331 -0.68 +0.01    -0.240 NA 
DOCKED: BRANCH   6   7
DOCKED: ATOM      7  C   UNL     1     139.128  75.661 222.366 -0.20 -0.05    +0.233 C  
DOCKED: BRANCH   7   8
DOCKED: ATOM      8  O   UNL     1     137.778  75.348 222.288 -0.11 +0.14    -0.492 OA 
DOCKED: ATOM      9  H   UNL     1     137.311  74.822 223.025 -0.31 -0.14    +0.295 HD 
DOCKED: ENDBRANCH   7   8
DOCKED: BRANCH   7  10
DOCKED: ATOM     10  C   UNL     1     139.497  77.076 222.544 -0.24 -0.02    +0.125 A  
DOCKED: ATOM     11  N   UNL     1     140.809  77.420 222.488 -0.27 +0.08    -0.243 NA 
DOCKED: ATOM     12  C   UNL     1     138.533  78.051 222.848 -0.26 -0.01    +0.035 A  
DOCKED: ATOM     13  C   UNL     1     141.226  78.697 222.678 -0.45 -0.03    +0.071 A  
DOCKED: ATOM     14  C   UNL     1     138.927  79.370 223.050 -0.33 -0.00    +0.013 A  
DOCKED: ATOM     15  C   UNL     1     142.589  79.010 222.606 -0.41 -0.02    +0.029 A  
DOCKED: ATOM     16  C   UNL     1     140.285  79.712 222.959 -0.41 -0.00    +0.000 A  
DOCKED: ATOM     17  C   UNL     1     143.014  80.325 222.813 -0.63 -0.00    +0.002 A  
DOCKED: ATOM     18  C   UNL     1     140.723  81.032 223.154 -0.44 -0.00    +0.010 A  
DOCKED: ATOM     19  C   UNL     1     142.083  81.333 223.082 -0.55 -0.00    +0.001 A  
DOCKED: ENDBRANCH   7  10
DOCKED: ENDBRANCH   6   7
DOCKED: ENDBRANCH   5   6
DOCKED: ENDBRANCH   1   5
DOCKED: BRANCH   3  20
DOCKED: ATOM     20  C   UNL     1     143.315  75.826 220.083 -0.14 -0.11    +0.171 C  
DOCKED: BRANCH  20  21
DOCKED: ATOM     21  C   UNL     1     142.760  76.755 219.036 -0.24 -0.15    +0.242 C  
DOCKED: ATOM     22  N   UNL     1     141.726  77.693 219.366 -0.10 +0.19    -0.352 N  
DOCKED: ATOM     23  O   UNL     1     143.209  76.695 217.857 -0.22 +0.17    -0.273 OA 
DOCKED: ATOM     24  H   UNL     1     141.255  77.609 220.293 +0.06 -0.08    +0.163 HD 
DOCKED: BRANCH  22  25
DOCKED: ATOM     25  C   UNL     1     141.361  78.786 218.456 -0.18 -0.04    +0.082 C  
DOCKED: ATOM     26  C   UNL     1     142.349  79.937 218.596 -0.30 -0.02    +0.025 C  
DOCKED: ATOM     27  C   UNL     1     140.009  79.394 218.833 -0.08 -0.01    +0.025 C  
DOCKED: ATOM     28  C   UNL     1     141.817  80.774 219.744 -0.30 -0.00    +0.002 C  
DOCKED: ATOM     29  C   UNL     1     140.302  80.590 219.739 -0.15 -0.00    +0.002 C  
DOCKED: ENDBRANCH  22  25
DOCKED: ENDBRANCH  20  21
DOCKED: BRANCH  20  30
DOCKED: ATOM     30  C   UNL     1     144.132  74.678 219.450 -0.26 -0.02    +0.038 C  
DOCKED: BRANCH  30  31
DOCKED: ATOM     31  C   UNL     1     144.624  73.632 220.490 -0.50 +0.00    -0.015 C  
DOCKED: ATOM     32  C   UNL     1     144.376  72.202 219.994 -0.34 -0.00    +0.007 C  
DOCKED: ATOM     33  C   UNL     1     146.118  73.813 220.803 -0.66 -0.00    +0.007 C  
DOCKED: ENDBRANCH  30  31
DOCKED: ENDBRANCH  20  30
DOCKED: ENDBRANCH   3  20
DOCKED: TORSDOF 10
DOCKED: TER
DOCKED: ENDMDL
________________________________________________________________________________


    FINAL DOCKED STATE:
    ________________________


Run:   19 / 20
Time taken for this run:   0.081s

DOCKED: MODEL        19
DOCKED: USER    Run = 19
DOCKED: USER
DOCKED: USER    Estimated Free Energy of Binding    =  -8.44 kcal/mol  [=(1)+(2)+(3)-(4)]
DOCKED: USER
DOCKED: USER    (1) Final Intermolecular Energy     = -11.42 kcal/mol
DOCKED: USER        vdW + Hbond + desolv Energy     = -11.39 kcal/mol
DOCKED: USER        Electrostatic Energy            =  -0.03 kcal/mol
DOCKED: USER        Moving Ligand-Fixed Receptor    = -11.42 kcal/mol
DOCKED: USER        Moving Ligand-Moving Receptor   =  +0.00 kcal/mol
DOCKED: USER    (2) Final Total Internal Energy     =  -3.89 kcal/mol
DOCKED: USER    (3) Torsional Free Energy           =  +2.98 kcal/mol
DOCKED: USER    (4) Unbound System's Energy         =  -3.89 kcal/mol
DOCKED: USER
DOCKED: USER
DOCKED: REMARK SMILES CC(C)C[C@H](NC(=O)C/N=C(/O)c1ccc2ccccc2n1)C(=O)NC1CCCC1
DOCKED: REMARK SMILES IDX 7 1 8 2 6 3 9 5 10 6 11 7 12 8 13 10 22 11 14 12 21 13 15 14
DOCKED: REMARK SMILES IDX 20 15 16 16 19 17 17 18 18 19 5 20 23 21 25 22 24 23 26 25
DOCKED: REMARK SMILES IDX 27 26 30 27 28 28 29 29 4 30 2 31 1 32 3 33
DOCKED: REMARK H PARENT 6 4 12 9 25 24
DOCKED: USER                              x       y       z     vdW  Elec       q    Type
DOCKED: USER                           _______ _______ _______ _____ _____    ______ ____
DOCKED: ROOT
DOCKED: ATOM      1  C   UNL     1     142.337  73.129 220.877 -0.14 -0.04    +0.242 C  
DOCKED: ATOM      2  O   UNL     1     143.565  73.352 220.718 -0.24 +0.06    -0.273 OA 
DOCKED: ATOM      3  N   UNL     1     141.406  74.219 220.965 -0.14 +0.07    -0.343 N  
DOCKED: ATOM      4  H   UNL     1     140.396  73.998 221.115 +0.05 -0.03    +0.164 HD 
DOCKED: ENDROOT
DOCKED: BRANCH   1   5
DOCKED: ATOM      5  C   UNL     1     141.857  71.716 220.949 -0.11 -0.03    +0.246 C  
DOCKED: BRANCH   5   6
DOCKED: ATOM      6  N   UNL     1     140.448  71.712 221.294 -0.11 +0.03    -0.240 NA 
DOCKED: BRANCH   6   7
DOCKED: ATOM      7  C   UNL     1     139.928  72.131 222.413 -0.22 -0.04    +0.233 C  
DOCKED: BRANCH   7   8
DOCKED: ATOM      8  O   UNL     1     139.314  73.375 222.443 -0.41 +0.12    -0.492 OA 
DOCKED: ATOM      9  H   UNL     1     139.534  74.059 223.166 -0.44 -0.04    +0.295 HD 
DOCKED: ENDBRANCH   7   8
DOCKED: BRANCH   7  10
DOCKED: ATOM     10  C   UNL     1     139.907  71.323 223.645 -0.33 -0.02    +0.125 A  
DOCKED: ATOM     11  N   UNL     1     140.457  71.840 224.773 -0.27 +0.04    -0.243 NA 
DOCKED: ATOM     12  C   UNL     1     139.407  70.011 223.650 -0.27 -0.01    +0.035 A  
DOCKED: ATOM     13  C   UNL     1     140.505  71.139 225.935 -0.55 -0.01    +0.071 A  
DOCKED: ATOM     14  C   UNL     1     139.442  69.265 224.824 -0.37 -0.00    +0.013 A  
DOCKED: ATOM     15  C   UNL     1     141.076  71.712 227.077 -0.76 -0.01    +0.029 A  
DOCKED: ATOM     16  C   UNL     1     139.988  69.827 225.989 -0.49 -0.00    +0.000 A  
DOCKED: ATOM     17  C   UNL     1     141.133  70.983 228.268 -0.64 -0.00    +0.002 A  
DOCKED: ATOM     18  C   UNL     1     140.040  69.108 227.194 -0.59 -0.00    +0.010 A  
DOCKED: ATOM     19  C   UNL     1     140.614  69.686 228.327 -0.60 -0.00    +0.001 A  
DOCKED: ENDBRANCH   7  10
DOCKED: ENDBRANCH   6   7
DOCKED: ENDBRANCH   5   6
DOCKED: ENDBRANCH   1   5
DOCKED: BRANCH   3  20
DOCKED: ATOM     20  C   UNL     1     141.828  75.614 220.802 -0.19 -0.07    +0.171 C  
DOCKED: BRANCH  20  21
DOCKED: ATOM     21  C   UNL     1     141.114  76.481 221.805 -0.17 -0.10    +0.242 C  
DOCKED: ATOM     22  N   UNL     1     141.597  77.797 222.108 -0.01 +0.20    -0.352 N  
DOCKED: ATOM     23  O   UNL     1     140.087  76.033 222.388 -0.42 +0.05    -0.273 OA 
DOCKED: ATOM     24  H   UNL     1     142.535  78.078 221.747 -0.43 -0.15    +0.163 HD 
DOCKED: BRANCH  22  25
DOCKED: ATOM     25  C   UNL     1     140.785  78.760 222.862 -0.43 -0.02    +0.082 C  
DOCKED: ATOM     26  C   UNL     1     140.632  80.051 222.069 -0.34 -0.01    +0.025 C  
DOCKED: ATOM     27  C   UNL     1     141.484  79.185 224.154 -0.49 -0.01    +0.025 C  
DOCKED: ATOM     28  C   UNL     1     141.856  80.876 222.420 -0.54 -0.00    +0.002 C  
DOCKED: ATOM     29  C   UNL     1     142.250  80.470 223.838 -0.65 -0.00    +0.002 C  
DOCKED: ENDBRANCH  22  25
DOCKED: ENDBRANCH  20  21
DOCKED: BRANCH  20  30
DOCKED: ATOM     30  C   UNL     1     141.571  76.090 219.355 -0.19 -0.02    +0.038 C  
DOCKED: BRANCH  30  31
DOCKED: ATOM     31  C   UNL     1     142.696  77.012 218.804 -0.33 +0.01    -0.015 C  
DOCKED: ATOM     32  C   UNL     1     143.254  76.472 217.482 -0.26 -0.00    +0.007 C  
DOCKED: ATOM     33  C   UNL     1     142.192  78.450 218.600 -0.30 -0.00    +0.007 C  
DOCKED: ENDBRANCH  30  31
DOCKED: ENDBRANCH  20  30
DOCKED: ENDBRANCH   3  20
DOCKED: TORSDOF 10
DOCKED: TER
DOCKED: ENDMDL
________________________________________________________________________________


    FINAL DOCKED STATE:
    ________________________


Run:   20 / 20
Time taken for this run:   0.081s

DOCKED: MODEL        20
DOCKED: USER    Run = 20
DOCKED: USER
DOCKED: USER    Estimated Free Energy of Binding    =  -8.50 kcal/mol  [=(1)+(2)+(3)-(4)]
DOCKED: USER
DOCKED: USER    (1) Final Intermolecular Energy     = -11.49 kcal/mol
DOCKED: USER        vdW + Hbond + desolv Energy     = -11.42 kcal/mol
DOCKED: USER        Electrostatic Energy            =  -0.06 kcal/mol
DOCKED: USER        Moving Ligand-Fixed Receptor    = -11.49 kcal/mol
DOCKED: USER        Moving Ligand-Moving Receptor   =  +0.00 kcal/mol
DOCKED: USER    (2) Final Total Internal Energy     =  -3.95 kcal/mol
DOCKED: USER    (3) Torsional Free Energy           =  +2.98 kcal/mol
DOCKED: USER    (4) Unbound System's Energy         =  -3.95 kcal/mol
DOCKED: USER
DOCKED: USER
DOCKED: REMARK SMILES CC(C)C[C@H](NC(=O)C/N=C(/O)c1ccc2ccccc2n1)C(=O)NC1CCCC1
DOCKED: REMARK SMILES IDX 7 1 8 2 6 3 9 5 10 6 11 7 12 8 13 10 22 11 14 12 21 13 15 14
DOCKED: REMARK SMILES IDX 20 15 16 16 19 17 17 18 18 19 5 20 23 21 25 22 24 23 26 25
DOCKED: REMARK SMILES IDX 27 26 30 27 28 28 29 29 4 30 2 31 1 32 3 33
DOCKED: REMARK H PARENT 6 4 12 9 25 24
DOCKED: USER                              x       y       z     vdW  Elec       q    Type
DOCKED: USER                           _______ _______ _______ _____ _____    ______ ____
DOCKED: ROOT
DOCKED: ATOM      1  C   UNL     1     142.098  72.908 220.634 -0.15 -0.04    +0.242 C  
DOCKED: ATOM      2  O   UNL     1     143.305  73.068 220.315 -0.18 +0.05    -0.273 OA 
DOCKED: ATOM      3  N   UNL     1     141.265  74.042 220.918 -0.12 +0.06    -0.343 N  
DOCKED: ATOM      4  H   UNL     1     140.273  73.873 221.197 +0.05 -0.03    +0.164 HD 
DOCKED: ENDROOT
DOCKED: BRANCH   1   5
DOCKED: ATOM      5  C   UNL     1     141.538  71.524 220.689 -0.10 -0.03    +0.246 C  
DOCKED: BRANCH   5   6
DOCKED: ATOM      6  N   UNL     1     140.182  71.584 221.201 -0.09 +0.04    -0.240 NA 
DOCKED: BRANCH   6   7
DOCKED: ATOM      7  C   UNL     1     139.814  72.071 222.352 -0.21 -0.04    +0.233 C  
DOCKED: BRANCH   7   8
DOCKED: ATOM      8  O   UNL     1     139.306  73.362 222.402 -0.41 +0.12    -0.492 OA 
DOCKED: ATOM      9  H   UNL     1     139.469  73.967 223.205 -0.43 -0.07    +0.295 HD 
DOCKED: ENDBRANCH   7   8
DOCKED: BRANCH   7  10
DOCKED: ATOM     10  C   UNL     1     139.855  71.299 223.606 -0.32 -0.02    +0.125 A  
DOCKED: ATOM     11  N   UNL     1     140.340  71.897 224.724 -0.26 +0.04    -0.243 NA 
DOCKED: ATOM     12  C   UNL     1     139.483  69.945 223.643 -0.27 -0.01    +0.035 A  
DOCKED: ATOM     13  C   UNL     1     140.442  71.236 225.905 -0.54 -0.01    +0.071 A  
DOCKED: ATOM     14  C   UNL     1     139.576  69.239 224.838 -0.37 -0.00    +0.013 A  
DOCKED: ATOM     15  C   UNL     1     140.942  71.892 227.036 -0.75 -0.01    +0.029 A  
DOCKED: ATOM     16  C   UNL     1     140.052  69.882 225.992 -0.50 -0.00    +0.000 A  
DOCKED: ATOM     17  C   UNL     1     141.054  71.205 228.248 -0.71 -0.00    +0.002 A  
DOCKED: ATOM     18  C   UNL     1     140.159  69.204 227.217 -0.59 -0.00    +0.010 A  
DOCKED: ATOM     19  C   UNL     1     140.661  69.866 228.338 -0.58 -0.00    +0.001 A  
DOCKED: ENDBRANCH   7  10
DOCKED: ENDBRANCH   6   7
DOCKED: ENDBRANCH   5   6
DOCKED: ENDBRANCH   1   5
DOCKED: BRANCH   3  20
DOCKED: ATOM     20  C   UNL     1     141.755  75.418 220.780 -0.22 -0.07    +0.171 C  
DOCKED: BRANCH  20  21
DOCKED: ATOM     21  C   UNL     1     141.026  76.315 221.744 -0.23 -0.09    +0.242 C  
DOCKED: ATOM     22  N   UNL     1     141.491  77.649 221.995 -0.08 +0.19    -0.352 N  
DOCKED: ATOM     23  O   UNL     1     140.002  75.879 222.341 -0.47 +0.05    -0.273 OA 
DOCKED: ATOM     24  H   UNL     1     142.427  77.927 221.627 -0.43 -0.15    +0.163 HD 
DOCKED: BRANCH  22  25
DOCKED: ATOM     25  C   UNL     1     140.663  78.631 222.706 -0.41 -0.02    +0.082 C  
DOCKED: ATOM     26  C   UNL     1     140.466  79.873 221.845 -0.30 -0.01    +0.025 C  
DOCKED: ATOM     27  C   UNL     1     141.366  79.146 223.963 -0.54 -0.01    +0.025 C  
DOCKED: ATOM     28  C   UNL     1     141.672  80.746 222.134 -0.49 -0.00    +0.002 C  
DOCKED: ATOM     29  C   UNL     1     142.095  80.430 223.566 -0.65 -0.00    +0.002 C  
DOCKED: ENDBRANCH  22  25
DOCKED: ENDBRANCH  20  21
DOCKED: BRANCH  20  30
DOCKED: ATOM     30  C   UNL     1     141.597  75.903 219.322 -0.18 -0.02    +0.038 C  
DOCKED: BRANCH  30  31
DOCKED: ATOM     31  C   UNL     1     142.729  76.871 218.873 -0.33 +0.01    -0.015 C  
DOCKED: ATOM     32  C   UNL     1     143.344  76.421 217.542 -0.26 -0.00    +0.007 C  
DOCKED: ATOM     33  C   UNL     1     142.213  78.312 218.738 -0.30 -0.00    +0.007 C  
DOCKED: ENDBRANCH  30  31
DOCKED: ENDBRANCH  20  30
DOCKED: ENDBRANCH   3  20
DOCKED: TORSDOF 10
DOCKED: TER
DOCKED: ENDMDL
________________________________________________________________________________


    CLUSTERING HISTOGRAM
    ____________________


________________________________________________________________________________
     |           |     |           |     |
Clus | Lowest    | Run | Mean      | Num | Histogram
-ter | Binding   |     | Binding   | in  |
Rank | Energy    |     | Energy    | Clus|    5    10   15   20   25   30   35
_____|___________|_____|___________|_____|____:____|____:____|____:____|____:___
   1 |     -8.80 |   7 |     -8.31 |  17 |#################
   2 |     -7.69 |   9 |     -7.69 |   1 |#
   3 |     -7.32 |   1 |     -7.32 |   1 |#
   4 |     -6.70 |  18 |     -6.70 |   1 |#
_____|___________|_____|___________|_____|______________________________________


    RMSD TABLE
    __________


_______________________________________________________________________
     |      |      |           |         |                 |
Rank | Sub- | Run  | Binding   | Cluster | Reference       | Grep
     | Rank |      | Energy    | RMSD    | RMSD            | Pattern
_____|______|______|___________|_________|_________________|___________
   1      1      7       -8.80      0.00    270.25           RANKING
   1      2     15       -8.61      0.42    270.32           RANKING
   1      3     10       -8.60      0.47    270.26           RANKING
   1      4     14       -8.56      0.37    270.22           RANKING
   1      5     17       -8.55      0.32    270.27           RANKING
   1      6      4       -8.52      0.35    270.22           RANKING
   1      7     13       -8.52      0.35    270.27           RANKING
   1      8     20       -8.50      0.36    270.21           RANKING
   1      9     19       -8.44      0.30    270.33           RANKING
   1     10     12       -8.31      1.16    269.93           RANKING
   1     11      8       -8.29      0.65    270.17           RANKING
   1     12     16       -8.15      1.04    270.00           RANKING
   1     13     11       -8.13      1.17    269.93           RANKING
   1     14      5       -8.03      1.27    269.89           RANKING
   1     15      3       -7.99      1.33    269.91           RANKING
   1     16      2       -7.89      1.73    270.05           RANKING
   1     17      6       -7.41      1.63    269.96           RANKING
   2      1      9       -7.69      0.00    269.87           RANKING
   3      1      1       -7.32      0.00    269.90           RANKING
   4      1     18       -6.70      0.00    269.87           RANKING

Run time 1.562 sec
Idle time 0.000 sec
