AutoDock-GPU version: v1.6

**********************************************************
**    AutoDock-GPU AUTODOCKTOOLS-COMPATIBLE DLG FILE    **
**********************************************************


    DOCKING PARAMETERS
    ________________________


Ligand file:                               /home/a/REINVENT4/ReinventStudies/pleaseWork/justmol2mol_4_Compounds_ontop/graph-dock-8u2o5u/graph-DockGPU/node-autodockgpu/inputs/VSBINEHGPRYERI-PRRSJINENA-M.pdbqt
Grid fld file:                             /home/a/REINVENT4/ReinventStudies/mols/Rad51/maps/rad51_receptor.maps.fld

Random seed:                               42
Number of runs:                            20
Number of energy evaluations:              3119281
Number of generations:                     42000
Size of population:                        150
Rate of crossover:                         80.000000%
Tournament selection probability limit:    60.000000%
Rate of mutation:                          2.000000%
Maximal allowed delta movement:            +/- 6.000000A
Maximal allowed delta angle:               +/- 90.000000

Rate of local search:                      100.000000%
Maximal number of local search iterations: 300
Rho lower bound:                           0.010000
Spread of local search delta movement:     2.000000A
Spread of local search delta angle:        74.999999
Limit of consecutive successes/failures:   4

Handle symmetry during clustering:         YES
RMSD tolerance:                            2.000000A

Program call in command line was:          /home/a/REINVENT4/ReinventStudies/adgpu-v1.6_linux_x64_cuda12_128wi --filelist batch.txt --heuristics 1 --nrun 20 --psize 150 --lsit 300 --seed 42 --heurmax 12000000 


    GRID PARAMETERS
    ________________________


Receptor name:                             rad51_receptor
Number of grid points (x, y, z):           53, 53, 53
Grid center (x, y, z):                     139.950000, 75.640000, 221.970000A
Grid size (x, y, z):                       19.500000, 19.500000, 19.500000A
Grid spacing:                              0.375000A


    LIGAND PARAMETERS
    ________________________


Ligand name:                               /home/a/REINVENT4/ReinventStudies/pleaseWork/justmol2mol_4_Compounds_ontop/graph-dock-8u2o5u/graph-DockGPU/node-autodockgpu/inputs/VSBINEHGPRYERI-PRRSJINENA-M
Number of atoms:                           32
Number of rotatable bonds:                 11
Number of atom types:                      6


    DUMMY DATA (only for ADT-compatibility)
    ________________________


DPF> outlev 1
DPF> ga_run 20
DPF> fld /home/a/REINVENT4/ReinventStudies/mols/Rad51/maps/rad51_receptor.maps.fld
DPF> move /home/a/REINVENT4/ReinventStudies/pleaseWork/justmol2mol_4_Compounds_ontop/graph-dock-8u2o5u/graph-DockGPU/node-autodockgpu/inputs/VSBINEHGPRYERI-PRRSJINENA-M.pdbqt


    COUNTER STATES
    ________________________


Number of energy evaluations performed:    1539765
Number of generations used:                70


    INPUT LIGAND PDBQT FILE:
    ________________________


INPUT-LIGAND-PDBQT: REMARK SMILES CC(C)C[C@H](NC(=O)C/N=C(/O)c1ccc2ccccc2n1)C(=O)[N-]C1CCCC1
INPUT-LIGAND-PDBQT: REMARK SMILES IDX 7 1 8 2 6 3 9 5 10 6 11 7 12 8 13 10 22 11 14 12 21 13 15 14
INPUT-LIGAND-PDBQT: REMARK SMILES IDX 20 15 16 16 19 17 17 18 18 19 5 20 23 21 24 22 25 23 26 24
INPUT-LIGAND-PDBQT: REMARK SMILES IDX 27 25 30 26 28 27 29 28 4 29 2 30 1 31 3 32
INPUT-LIGAND-PDBQT: REMARK H PARENT 6 4 12 9
INPUT-LIGAND-PDBQT: ROOT
INPUT-LIGAND-PDBQT: ATOM      1  C   UNL     1      -0.877  -0.769   2.126  1.00  0.00     0.242 C 
INPUT-LIGAND-PDBQT: ATOM      2  O   UNL     1      -1.655  -1.101   3.062  1.00  0.00    -0.273 OA
INPUT-LIGAND-PDBQT: ATOM      3  N   UNL     1      -0.896   0.568   1.604  1.00  0.00    -0.346 N 
INPUT-LIGAND-PDBQT: ATOM      4  H   UNL     1      -0.213   0.805   0.848  1.00  0.00     0.164 HD
INPUT-LIGAND-PDBQT: ENDROOT
INPUT-LIGAND-PDBQT: BRANCH   1   5
INPUT-LIGAND-PDBQT: ATOM      5  C   UNL     1       0.092  -1.770   1.584  1.00  0.00     0.246 C 
INPUT-LIGAND-PDBQT: BRANCH   5   6
INPUT-LIGAND-PDBQT: ATOM      6  N   UNL     1       1.431  -1.446   2.067  1.00  0.00    -0.240 NA
INPUT-LIGAND-PDBQT: BRANCH   6   7
INPUT-LIGAND-PDBQT: ATOM      7  C   UNL     1       2.561  -2.000   1.720  1.00  0.00     0.233 C 
INPUT-LIGAND-PDBQT: BRANCH   7   8
INPUT-LIGAND-PDBQT: ATOM      8  O   UNL     1       3.735  -1.504   2.284  1.00  0.00    -0.492 OA
INPUT-LIGAND-PDBQT: ATOM      9  H   UNL     1       3.716  -0.737   2.946  1.00  0.00     0.295 HD
INPUT-LIGAND-PDBQT: ENDBRANCH   7   8
INPUT-LIGAND-PDBQT: BRANCH   7  10
INPUT-LIGAND-PDBQT: ATOM     10  C   UNL     1       2.665  -3.122   0.748  1.00  0.00     0.125 A 
INPUT-LIGAND-PDBQT: ATOM     11  N   UNL     1       1.596  -3.926   0.486  1.00  0.00    -0.243 NA
INPUT-LIGAND-PDBQT: ATOM     12  C   UNL     1       3.893  -3.391   0.119  1.00  0.00     0.035 A 
INPUT-LIGAND-PDBQT: ATOM     13  C   UNL     1       1.667  -4.975  -0.377  1.00  0.00     0.071 A 
INPUT-LIGAND-PDBQT: ATOM     14  C   UNL     1       3.999  -4.461  -0.772  1.00  0.00     0.013 A 
INPUT-LIGAND-PDBQT: ATOM     15  C   UNL     1       0.537  -5.766  -0.615  1.00  0.00     0.029 A 
INPUT-LIGAND-PDBQT: ATOM     16  C   UNL     1       2.883  -5.266  -1.031  1.00  0.00     0.000 A 
INPUT-LIGAND-PDBQT: ATOM     17  C   UNL     1       0.615  -6.846  -1.501  1.00  0.00     0.002 A 
INPUT-LIGAND-PDBQT: ATOM     18  C   UNL     1       2.954  -6.351  -1.918  1.00  0.00     0.010 A 
INPUT-LIGAND-PDBQT: ATOM     19  C   UNL     1       1.820  -7.137  -2.151  1.00  0.00     0.001 A 
INPUT-LIGAND-PDBQT: ENDBRANCH   7  10
INPUT-LIGAND-PDBQT: ENDBRANCH   6   7
INPUT-LIGAND-PDBQT: ENDBRANCH   5   6
INPUT-LIGAND-PDBQT: ENDBRANCH   1   5
INPUT-LIGAND-PDBQT: BRANCH   3  20
INPUT-LIGAND-PDBQT: ATOM     20  C   UNL     1      -1.767   1.611   2.158  1.00  0.00     0.130 C 
INPUT-LIGAND-PDBQT: BRANCH  20  21
INPUT-LIGAND-PDBQT: ATOM     21  C   UNL     1      -2.092   2.688   1.149  1.00  0.00     0.074 C 
INPUT-LIGAND-PDBQT: ATOM     22  O   UNL     1      -2.887   3.612   1.471  1.00  0.00    -0.318 OA
INPUT-LIGAND-PDBQT: BRANCH  21  23
INPUT-LIGAND-PDBQT: ATOM     23  N   UNL     1      -1.533   2.658  -0.170  1.00  0.00    -0.649 NA
INPUT-LIGAND-PDBQT: BRANCH  23  24
INPUT-LIGAND-PDBQT: ATOM     24  C   UNL     1      -1.791   3.684  -1.175  1.00  0.00    -0.107 C 
INPUT-LIGAND-PDBQT: ATOM     25  C   UNL     1      -3.212   3.599  -1.715  1.00  0.00    -0.016 C 
INPUT-LIGAND-PDBQT: ATOM     26  C   UNL     1      -0.901   3.485  -2.388  1.00  0.00    -0.016 C 
INPUT-LIGAND-PDBQT: ATOM     27  C   UNL     1      -3.140   4.093  -3.156  1.00  0.00    -0.001 C 
INPUT-LIGAND-PDBQT: ATOM     28  C   UNL     1      -1.663   4.106  -3.549  1.00  0.00    -0.001 C 
INPUT-LIGAND-PDBQT: ENDBRANCH  23  24
INPUT-LIGAND-PDBQT: ENDBRANCH  21  23
INPUT-LIGAND-PDBQT: ENDBRANCH  20  21
INPUT-LIGAND-PDBQT: BRANCH  20  29
INPUT-LIGAND-PDBQT: ATOM     29  C   UNL     1      -1.204   2.184   3.486  1.00  0.00     0.034 C 
INPUT-LIGAND-PDBQT: BRANCH  29  30
INPUT-LIGAND-PDBQT: ATOM     30  C   UNL     1       0.235   2.774   3.492  1.00  0.00    -0.015 C 
INPUT-LIGAND-PDBQT: ATOM     31  C   UNL     1       1.336   1.707   3.406  1.00  0.00     0.007 C 
INPUT-LIGAND-PDBQT: ATOM     32  C   UNL     1       0.459   3.879   2.453  1.00  0.00     0.007 C 
INPUT-LIGAND-PDBQT: ENDBRANCH  29  30
INPUT-LIGAND-PDBQT: ENDBRANCH  20  29
INPUT-LIGAND-PDBQT: ENDBRANCH   3  20
INPUT-LIGAND-PDBQT: TORSDOF 11


    FINAL DOCKED STATE:
    ________________________


Run:   1 / 20
Time taken for this run:   0.070s

DOCKED: MODEL        1
DOCKED: USER    Run = 1
DOCKED: USER
DOCKED: USER    Estimated Free Energy of Binding    =  -7.83 kcal/mol  [=(1)+(2)+(3)-(4)]
DOCKED: USER
DOCKED: USER    (1) Final Intermolecular Energy     = -11.11 kcal/mol
DOCKED: USER        vdW + Hbond + desolv Energy     = -11.23 kcal/mol
DOCKED: USER        Electrostatic Energy            =  +0.12 kcal/mol
DOCKED: USER        Moving Ligand-Fixed Receptor    = -11.11 kcal/mol
DOCKED: USER        Moving Ligand-Moving Receptor   =  +0.00 kcal/mol
DOCKED: USER    (2) Final Total Internal Energy     =  -2.83 kcal/mol
DOCKED: USER    (3) Torsional Free Energy           =  +3.28 kcal/mol
DOCKED: USER    (4) Unbound System's Energy         =  -2.83 kcal/mol
DOCKED: USER
DOCKED: USER
DOCKED: REMARK SMILES CC(C)C[C@H](NC(=O)C/N=C(/O)c1ccc2ccccc2n1)C(=O)[N-]C1CCCC1
DOCKED: REMARK SMILES IDX 7 1 8 2 6 3 9 5 10 6 11 7 12 8 13 10 22 11 14 12 21 13 15 14
DOCKED: REMARK SMILES IDX 20 15 16 16 19 17 17 18 18 19 5 20 23 21 24 22 25 23 26 24
DOCKED: REMARK SMILES IDX 27 25 30 26 28 27 29 28 4 29 2 30 1 31 3 32
DOCKED: REMARK H PARENT 6 4 12 9
DOCKED: USER                              x       y       z     vdW  Elec       q    Type
DOCKED: USER                           _______ _______ _______ _____ _____    ______ ____
DOCKED: ROOT
DOCKED: ATOM      1  C   UNL     1     140.758  74.823 220.766 -0.17 -0.06    +0.242 C  
DOCKED: ATOM      2  O   UNL     1     139.527  74.934 220.510 -0.07 +0.06    -0.273 OA 
DOCKED: ATOM      3  N   UNL     1     141.528  75.973 221.148 -0.13 +0.15    -0.346 N  
DOCKED: ATOM      4  H   UNL     1     142.538  75.827 221.378 -0.47 -0.13    +0.164 HD 
DOCKED: ENDROOT
DOCKED: BRANCH   1   5
DOCKED: ATOM      5  C   UNL     1     141.404  73.477 220.702 -0.16 -0.04    +0.246 C  
DOCKED: BRANCH   5   6
DOCKED: ATOM      6  N   UNL     1     141.301  72.836 222.009 -0.22 +0.01    -0.240 NA 
DOCKED: BRANCH   6   7
DOCKED: ATOM      7  C   UNL     1     140.219  72.606 222.702 -0.18 -0.02    +0.233 C  
DOCKED: BRANCH   7   8
DOCKED: ATOM      8  O   UNL     1     139.082  73.358 222.412 -0.26 +0.14    -0.492 OA 
DOCKED: ATOM      9  H   UNL     1     139.049  74.354 222.600 -0.36 -0.09    +0.295 HD 
DOCKED: ENDBRANCH   7   8
DOCKED: BRANCH   7  10
DOCKED: ATOM     10  C   UNL     1     140.137  71.596 223.792 -0.34 -0.02    +0.125 A  
DOCKED: ATOM     11  N   UNL     1     140.621  71.864 225.037 -0.29 +0.04    -0.243 NA 
DOCKED: ATOM     12  C   UNL     1     139.592  70.327 223.529 -0.29 -0.01    +0.035 A  
DOCKED: ATOM     13  C   UNL     1     140.585  70.952 226.045 -0.55 -0.01    +0.071 A  
DOCKED: ATOM     14  C   UNL     1     139.540  69.368 224.542 -0.34 -0.00    +0.013 A  
DOCKED: ATOM     15  C   UNL     1     141.091  71.281 227.308 -0.71 -0.00    +0.029 A  
DOCKED: ATOM     16  C   UNL     1     140.036  69.672 225.816 -0.48 -0.00    +0.000 A  
DOCKED: ATOM     17  C   UNL     1     141.054  70.338 228.342 -0.56 -0.00    +0.002 A  
DOCKED: ATOM     18  C   UNL     1     140.003  68.732 226.857 -0.60 -0.00    +0.010 A  
DOCKED: ATOM     19  C   UNL     1     140.511  69.068 228.117 -0.65 -0.00    +0.001 A  
DOCKED: ENDBRANCH   7  10
DOCKED: ENDBRANCH   6   7
DOCKED: ENDBRANCH   5   6
DOCKED: ENDBRANCH   1   5
DOCKED: BRANCH   3  20
DOCKED: ATOM     20  C   UNL     1     140.924  77.300 221.309 -0.27 -0.05    +0.130 C  
DOCKED: BRANCH  20  21
DOCKED: ATOM     21  C   UNL     1     139.872  77.328 222.394 -0.33 -0.02    +0.074 C  
DOCKED: ATOM     22  O   UNL     1     139.395  76.240 222.815 -0.24 +0.05    -0.318 OA 
DOCKED: BRANCH  21  23
DOCKED: ATOM     23  N   UNL     1     139.393  78.568 222.927 +0.02 +0.12    -0.649 NA 
DOCKED: BRANCH  23  24
DOCKED: ATOM     24  C   UNL     1     140.263  79.573 223.530 -0.41 +0.02    -0.107 C  
DOCKED: ATOM     25  C   UNL     1     140.519  80.738 222.584 -0.39 +0.00    -0.016 C  
DOCKED: ATOM     26  C   UNL     1     141.637  78.993 223.815 -0.61 +0.00    -0.016 C  
DOCKED: ATOM     27  C   UNL     1     141.913  81.253 222.926 -0.56 +0.00    -0.001 C  
DOCKED: ATOM     28  C   UNL     1     142.586  80.182 223.784 -0.66 +0.00    -0.001 C  
DOCKED: ENDBRANCH  23  24
DOCKED: ENDBRANCH  21  23
DOCKED: ENDBRANCH  20  21
DOCKED: BRANCH  20  29
DOCKED: ATOM     29  C   UNL     1     140.407  77.864 219.959 -0.15 -0.01    +0.034 C  
DOCKED: BRANCH  29  30
DOCKED: ATOM     30  C   UNL     1     141.419  78.562 219.006 -0.22 +0.01    -0.015 C  
DOCKED: ATOM     31  C   UNL     1     141.894  79.932 219.512 -0.29 -0.00    +0.007 C  
DOCKED: ATOM     32  C   UNL     1     142.610  77.681 218.610 -0.32 -0.00    +0.007 C  
DOCKED: ENDBRANCH  29  30
DOCKED: ENDBRANCH  20  29
DOCKED: ENDBRANCH   3  20
DOCKED: TORSDOF 11
DOCKED: TER
DOCKED: ENDMDL
________________________________________________________________________________


    FINAL DOCKED STATE:
    ________________________


Run:   2 / 20
Time taken for this run:   0.070s

DOCKED: MODEL        2
DOCKED: USER    Run = 2
DOCKED: USER
DOCKED: USER    Estimated Free Energy of Binding    =  -7.67 kcal/mol  [=(1)+(2)+(3)-(4)]
DOCKED: USER
DOCKED: USER    (1) Final Intermolecular Energy     = -10.95 kcal/mol
DOCKED: USER        vdW + Hbond + desolv Energy     = -11.13 kcal/mol
DOCKED: USER        Electrostatic Energy            =  +0.18 kcal/mol
DOCKED: USER        Moving Ligand-Fixed Receptor    = -10.95 kcal/mol
DOCKED: USER        Moving Ligand-Moving Receptor   =  +0.00 kcal/mol
DOCKED: USER    (2) Final Total Internal Energy     =  -3.96 kcal/mol
DOCKED: USER    (3) Torsional Free Energy           =  +3.28 kcal/mol
DOCKED: USER    (4) Unbound System's Energy         =  -3.96 kcal/mol
DOCKED: USER
DOCKED: USER
DOCKED: REMARK SMILES CC(C)C[C@H](NC(=O)C/N=C(/O)c1ccc2ccccc2n1)C(=O)[N-]C1CCCC1
DOCKED: REMARK SMILES IDX 7 1 8 2 6 3 9 5 10 6 11 7 12 8 13 10 22 11 14 12 21 13 15 14
DOCKED: REMARK SMILES IDX 20 15 16 16 19 17 17 18 18 19 5 20 23 21 24 22 25 23 26 24
DOCKED: REMARK SMILES IDX 27 25 30 26 28 27 29 28 4 29 2 30 1 31 3 32
DOCKED: REMARK H PARENT 6 4 12 9
DOCKED: USER                              x       y       z     vdW  Elec       q    Type
DOCKED: USER                           _______ _______ _______ _____ _____    ______ ____
DOCKED: ROOT
DOCKED: ATOM      1  C   UNL     1     141.873  73.302 221.067 -0.14 -0.03    +0.242 C  
DOCKED: ATOM      2  O   UNL     1     143.060  73.701 220.915 -0.20 +0.06    -0.273 OA 
DOCKED: ATOM      3  N   UNL     1     140.824  74.237 221.358 -0.15 +0.05    -0.346 N  
DOCKED: ATOM      4  H   UNL     1     139.851  73.864 221.448 +0.04 -0.03    +0.164 HD 
DOCKED: ENDROOT
DOCKED: BRANCH   1   5
DOCKED: ATOM      5  C   UNL     1     141.559  71.849 220.911 -0.13 -0.03    +0.246 C  
DOCKED: BRANCH   5   6
DOCKED: ATOM      6  N   UNL     1     140.159  71.625 221.259 -0.09 +0.04    -0.240 NA 
DOCKED: BRANCH   6   7
DOCKED: ATOM      7  C   UNL     1     139.550  71.949 222.367 -0.20 -0.04    +0.233 C  
DOCKED: BRANCH   7   8
DOCKED: ATOM      8  O   UNL     1     138.675  73.034 222.341 -0.12 +0.16    -0.492 OA 
DOCKED: ATOM      9  H   UNL     1     138.707  73.751 223.057 -0.49 -0.19    +0.295 HD 
DOCKED: ENDBRANCH   7   8
DOCKED: BRANCH   7  10
DOCKED: ATOM     10  C   UNL     1     139.748  71.234 223.657 -0.32 -0.02    +0.125 A  
DOCKED: ATOM     11  N   UNL     1     140.298  71.864 224.733 -0.26 +0.04    -0.243 NA 
DOCKED: ATOM     12  C   UNL     1     139.407  69.874 223.762 -0.27 -0.01    +0.035 A  
DOCKED: ATOM     13  C   UNL     1     140.516  71.230 225.917 -0.54 -0.01    +0.071 A  
DOCKED: ATOM     14  C   UNL     1     139.618  69.194 224.964 -0.39 -0.00    +0.013 A  
DOCKED: ATOM     15  C   UNL     1     141.078  71.926 226.993 -0.76 -0.01    +0.029 A  
DOCKED: ATOM     16  C   UNL     1     140.176  69.868 226.057 -0.51 -0.00    +0.000 A  
DOCKED: ATOM     17  C   UNL     1     141.303  71.270 228.208 -0.65 -0.00    +0.002 A  
DOCKED: ATOM     18  C   UNL     1     140.405  69.216 227.278 -0.60 -0.00    +0.010 A  
DOCKED: ATOM     19  C   UNL     1     140.967  69.919 228.350 -0.56 -0.00    +0.001 A  
DOCKED: ENDBRANCH   7  10
DOCKED: ENDBRANCH   6   7
DOCKED: ENDBRANCH   5   6
DOCKED: ENDBRANCH   1   5
DOCKED: BRANCH   3  20
DOCKED: ATOM     20  C   UNL     1     141.064  75.682 221.437 -0.29 -0.04    +0.130 C  
DOCKED: BRANCH  20  21
DOCKED: ATOM     21  C   UNL     1     140.050  76.390 222.307 -0.34 -0.02    +0.074 C  
DOCKED: ATOM     22  O   UNL     1     139.052  75.748 222.732 -0.35 +0.07    -0.318 OA 
DOCKED: BRANCH  21  23
DOCKED: ATOM     23  N   UNL     1     140.194  77.778 222.630 -0.00 +0.16    -0.649 NA 
DOCKED: BRANCH  23  24
DOCKED: ATOM     24  C   UNL     1     141.484  78.458 222.697 -0.42 +0.05    -0.107 C  
DOCKED: ATOM     25  C   UNL     1     141.733  79.057 224.074 -0.55 +0.00    -0.016 C  
DOCKED: ATOM     26  C   UNL     1     141.520  79.639 221.746 -0.42 +0.01    -0.016 C  
DOCKED: ATOM     27  C   UNL     1     142.596  80.292 223.840 -0.66 +0.00    -0.001 C  
DOCKED: ATOM     28  C   UNL     1     142.531  80.605 222.345 -0.55 +0.00    -0.001 C  
DOCKED: ENDBRANCH  23  24
DOCKED: ENDBRANCH  21  23
DOCKED: ENDBRANCH  20  21
DOCKED: BRANCH  20  29
DOCKED: ATOM     29  C   UNL     1     141.195  76.321 220.029 -0.21 -0.01    +0.034 C  
DOCKED: BRANCH  29  30
DOCKED: ATOM     30  C   UNL     1     142.516  77.058 219.665 -0.33 +0.01    -0.015 C  
DOCKED: ATOM     31  C   UNL     1     143.684  76.109 219.362 -0.34 -0.00    +0.007 C  
DOCKED: ATOM     32  C   UNL     1     142.359  78.107 218.558 -0.30 -0.00    +0.007 C  
DOCKED: ENDBRANCH  29  30
DOCKED: ENDBRANCH  20  29
DOCKED: ENDBRANCH   3  20
DOCKED: TORSDOF 11
DOCKED: TER
DOCKED: ENDMDL
________________________________________________________________________________


    FINAL DOCKED STATE:
    ________________________


Run:   3 / 20
Time taken for this run:   0.070s

DOCKED: MODEL        3
DOCKED: USER    Run = 3
DOCKED: USER
DOCKED: USER    Estimated Free Energy of Binding    =  -7.44 kcal/mol  [=(1)+(2)+(3)-(4)]
DOCKED: USER
DOCKED: USER    (1) Final Intermolecular Energy     = -10.72 kcal/mol
DOCKED: USER        vdW + Hbond + desolv Energy     = -10.89 kcal/mol
DOCKED: USER        Electrostatic Energy            =  +0.17 kcal/mol
DOCKED: USER        Moving Ligand-Fixed Receptor    = -10.72 kcal/mol
DOCKED: USER        Moving Ligand-Moving Receptor   =  +0.00 kcal/mol
DOCKED: USER    (2) Final Total Internal Energy     =  -4.04 kcal/mol
DOCKED: USER    (3) Torsional Free Energy           =  +3.28 kcal/mol
DOCKED: USER    (4) Unbound System's Energy         =  -4.04 kcal/mol
DOCKED: USER
DOCKED: USER
DOCKED: REMARK SMILES CC(C)C[C@H](NC(=O)C/N=C(/O)c1ccc2ccccc2n1)C(=O)[N-]C1CCCC1
DOCKED: REMARK SMILES IDX 7 1 8 2 6 3 9 5 10 6 11 7 12 8 13 10 22 11 14 12 21 13 15 14
DOCKED: REMARK SMILES IDX 20 15 16 16 19 17 17 18 18 19 5 20 23 21 24 22 25 23 26 24
DOCKED: REMARK SMILES IDX 27 25 30 26 28 27 29 28 4 29 2 30 1 31 3 32
DOCKED: REMARK H PARENT 6 4 12 9
DOCKED: USER                              x       y       z     vdW  Elec       q    Type
DOCKED: USER                           _______ _______ _______ _____ _____    ______ ____
DOCKED: ROOT
DOCKED: ATOM      1  C   UNL     1     141.869  73.730 221.190 -0.09 -0.04    +0.242 C  
DOCKED: ATOM      2  O   UNL     1     142.965  74.244 220.832 -0.23 +0.08    -0.273 OA 
DOCKED: ATOM      3  N   UNL     1     140.769  74.563 221.585 -0.18 +0.05    -0.346 N  
DOCKED: ATOM      4  H   UNL     1     139.872  74.093 221.845 +0.02 -0.02    +0.164 HD 
DOCKED: ENDROOT
DOCKED: BRANCH   1   5
DOCKED: ATOM      5  C   UNL     1     141.712  72.243 221.169 -0.15 -0.03    +0.246 C  
DOCKED: BRANCH   5   6
DOCKED: ATOM      6  N   UNL     1     140.300  71.912 221.333 -0.11 +0.04    -0.240 NA 
DOCKED: BRANCH   6   7
DOCKED: ATOM      7  C   UNL     1     139.557  72.085 222.392 -0.20 -0.05    +0.233 C  
DOCKED: BRANCH   7   8
DOCKED: ATOM      8  O   UNL     1     138.564  73.062 222.343 -0.10 +0.16    -0.492 OA 
DOCKED: ATOM      9  H   UNL     1     138.551  73.831 223.004 -0.49 -0.20    +0.295 HD 
DOCKED: ENDBRANCH   7   8
DOCKED: BRANCH   7  10
DOCKED: ATOM     10  C   UNL     1     139.719  71.307 223.650 -0.32 -0.02    +0.125 A  
DOCKED: ATOM     11  N   UNL     1     140.236  71.884 224.772 -0.23 +0.05    -0.243 NA 
DOCKED: ATOM     12  C   UNL     1     139.378  69.944 223.678 -0.27 -0.01    +0.035 A  
DOCKED: ATOM     13  C   UNL     1     140.421  71.193 225.928 -0.54 -0.01    +0.071 A  
DOCKED: ATOM     14  C   UNL     1     139.556  69.206 224.850 -0.38 -0.00    +0.013 A  
DOCKED: ATOM     15  C   UNL     1     140.950  71.836 227.053 -0.75 -0.01    +0.029 A  
DOCKED: ATOM     16  C   UNL     1     140.080  69.825 225.991 -0.50 -0.00    +0.000 A  
DOCKED: ATOM     17  C   UNL     1     141.142  71.120 228.240 -0.67 -0.00    +0.002 A  
DOCKED: ATOM     18  C   UNL     1     140.275  69.114 227.185 -0.60 -0.00    +0.010 A  
DOCKED: ATOM     19  C   UNL     1     140.805  69.763 228.306 -0.59 -0.00    +0.001 A  
DOCKED: ENDBRANCH   7  10
DOCKED: ENDBRANCH   6   7
DOCKED: ENDBRANCH   5   6
DOCKED: ENDBRANCH   1   5
DOCKED: BRANCH   3  20
DOCKED: ATOM     20  C   UNL     1     140.843  76.028 221.542 -0.30 -0.04    +0.130 C  
DOCKED: BRANCH  20  21
DOCKED: ATOM     21  C   UNL     1     139.702  76.686 222.282 -0.33 -0.02    +0.074 C  
DOCKED: ATOM     22  O   UNL     1     138.858  75.963 222.877 -0.24 +0.07    -0.318 OA 
DOCKED: BRANCH  21  23
DOCKED: ATOM     23  N   UNL     1     139.552  78.111 222.293 +0.03 +0.14    -0.649 NA 
DOCKED: BRANCH  23  24
DOCKED: ATOM     24  C   UNL     1     140.306  78.990 223.180 -0.38 +0.02    -0.107 C  
DOCKED: ATOM     25  C   UNL     1     140.185  80.449 222.763 -0.38 +0.00    -0.016 C  
DOCKED: ATOM     26  C   UNL     1     141.791  78.685 223.105 -0.55 +0.01    -0.016 C  
DOCKED: ATOM     27  C   UNL     1     141.496  81.110 223.176 -0.55 +0.00    -0.001 C  
DOCKED: ATOM     28  C   UNL     1     142.485  79.986 223.481 -0.66 +0.00    -0.001 C  
DOCKED: ENDBRANCH  23  24
DOCKED: ENDBRANCH  21  23
DOCKED: ENDBRANCH  20  21
DOCKED: BRANCH  20  29
DOCKED: ATOM     29  C   UNL     1     140.997  76.553 220.089 -0.20 -0.01    +0.034 C  
DOCKED: BRANCH  29  30
DOCKED: ATOM     30  C   UNL     1     142.221  77.450 219.747 -0.31 +0.01    -0.015 C  
DOCKED: ATOM     31  C   UNL     1     143.272  76.748 218.875 -0.34 -0.00    +0.007 C  
DOCKED: ATOM     32  C   UNL     1     141.846  78.817 219.163 -0.28 -0.00    +0.007 C  
DOCKED: ENDBRANCH  29  30
DOCKED: ENDBRANCH  20  29
DOCKED: ENDBRANCH   3  20
DOCKED: TORSDOF 11
DOCKED: TER
DOCKED: ENDMDL
________________________________________________________________________________


    FINAL DOCKED STATE:
    ________________________


Run:   4 / 20
Time taken for this run:   0.070s

DOCKED: MODEL        4
DOCKED: USER    Run = 4
DOCKED: USER
DOCKED: USER    Estimated Free Energy of Binding    =  -7.62 kcal/mol  [=(1)+(2)+(3)-(4)]
DOCKED: USER
DOCKED: USER    (1) Final Intermolecular Energy     = -10.90 kcal/mol
DOCKED: USER        vdW + Hbond + desolv Energy     = -11.11 kcal/mol
DOCKED: USER        Electrostatic Energy            =  +0.21 kcal/mol
DOCKED: USER        Moving Ligand-Fixed Receptor    = -10.90 kcal/mol
DOCKED: USER        Moving Ligand-Moving Receptor   =  +0.00 kcal/mol
DOCKED: USER    (2) Final Total Internal Energy     =  -3.93 kcal/mol
DOCKED: USER    (3) Torsional Free Energy           =  +3.28 kcal/mol
DOCKED: USER    (4) Unbound System's Energy         =  -3.93 kcal/mol
DOCKED: USER
DOCKED: USER
DOCKED: REMARK SMILES CC(C)C[C@H](NC(=O)C/N=C(/O)c1ccc2ccccc2n1)C(=O)[N-]C1CCCC1
DOCKED: REMARK SMILES IDX 7 1 8 2 6 3 9 5 10 6 11 7 12 8 13 10 22 11 14 12 21 13 15 14
DOCKED: REMARK SMILES IDX 20 15 16 16 19 17 17 18 18 19 5 20 23 21 24 22 25 23 26 24
DOCKED: REMARK SMILES IDX 27 25 30 26 28 27 29 28 4 29 2 30 1 31 3 32
DOCKED: REMARK H PARENT 6 4 12 9
DOCKED: USER                              x       y       z     vdW  Elec       q    Type
DOCKED: USER                           _______ _______ _______ _____ _____    ______ ____
DOCKED: ROOT
DOCKED: ATOM      1  C   UNL     1     142.017  73.268 220.914 -0.15 -0.04    +0.242 C  
DOCKED: ATOM      2  O   UNL     1     143.197  73.667 220.712 -0.22 +0.06    -0.273 OA 
DOCKED: ATOM      3  N   UNL     1     140.956  74.210 221.126 -0.14 +0.06    -0.346 N  
DOCKED: ATOM      4  H   UNL     1     139.989  73.833 221.260 +0.04 -0.03    +0.164 HD 
DOCKED: ENDROOT
DOCKED: BRANCH   1   5
DOCKED: ATOM      5  C   UNL     1     141.724  71.802 220.897 -0.12 -0.03    +0.246 C  
DOCKED: BRANCH   5   6
DOCKED: ATOM      6  N   UNL     1     140.320  71.594 221.239 -0.10 +0.04    -0.240 NA 
DOCKED: BRANCH   6   7
DOCKED: ATOM      7  C   UNL     1     139.705  71.943 222.336 -0.21 -0.04    +0.233 C  
DOCKED: BRANCH   7   8
DOCKED: ATOM      8  O   UNL     1     138.895  73.077 222.303 -0.16 +0.14    -0.492 OA 
DOCKED: ATOM      9  H   UNL     1     138.879  73.733 223.074 -0.48 -0.18    +0.295 HD 
DOCKED: ENDBRANCH   7   8
DOCKED: BRANCH   7  10
DOCKED: ATOM     10  C   UNL     1     139.830  71.204 223.622 -0.32 -0.02    +0.125 A  
DOCKED: ATOM     11  N   UNL     1     140.339  71.808 224.733 -0.27 +0.04    -0.243 NA 
DOCKED: ATOM     12  C   UNL     1     139.460  69.849 223.689 -0.27 -0.01    +0.035 A  
DOCKED: ATOM     13  C   UNL     1     140.491  71.152 225.915 -0.54 -0.01    +0.071 A  
DOCKED: ATOM     14  C   UNL     1     139.603  69.147 224.888 -0.38 -0.00    +0.013 A  
DOCKED: ATOM     15  C   UNL     1     141.014  71.821 227.027 -0.76 -0.01    +0.029 A  
DOCKED: ATOM     16  C   UNL     1     140.120  69.794 226.017 -0.50 -0.00    +0.000 A  
DOCKED: ATOM     17  C   UNL     1     141.171  71.142 228.240 -0.66 -0.00    +0.002 A  
DOCKED: ATOM     18  C   UNL     1     140.281  69.119 227.237 -0.61 -0.00    +0.010 A  
DOCKED: ATOM     19  C   UNL     1     140.805  69.795 228.345 -0.58 -0.00    +0.001 A  
DOCKED: ENDBRANCH   7  10
DOCKED: ENDBRANCH   6   7
DOCKED: ENDBRANCH   5   6
DOCKED: ENDBRANCH   1   5
DOCKED: BRANCH   3  20
DOCKED: ATOM     20  C   UNL     1     141.175  75.660 221.067 -0.26 -0.04    +0.130 C  
DOCKED: BRANCH  20  21
DOCKED: ATOM     21  C   UNL     1     140.266  76.420 222.004 -0.35 -0.02    +0.074 C  
DOCKED: ATOM     22  O   UNL     1     139.452  75.781 222.724 -0.41 +0.05    -0.318 OA 
DOCKED: BRANCH  21  23
DOCKED: ATOM     23  N   UNL     1     140.297  77.851 222.066 +0.02 +0.19    -0.649 NA 
DOCKED: BRANCH  23  24
DOCKED: ATOM     24  C   UNL     1     141.519  78.619 222.281 -0.40 +0.05    -0.107 C  
DOCKED: ATOM     25  C   UNL     1     141.755  78.901 223.758 -0.61 +0.00    -0.016 C  
DOCKED: ATOM     26  C   UNL     1     141.415  79.989 221.635 -0.40 +0.01    -0.016 C  
DOCKED: ATOM     27  C   UNL     1     142.491  80.236 223.815 -0.66 +0.00    -0.001 C  
DOCKED: ATOM     28  C   UNL     1     142.350  80.881 222.437 -0.53 +0.00    -0.001 C  
DOCKED: ENDBRANCH  23  24
DOCKED: ENDBRANCH  21  23
DOCKED: ENDBRANCH  20  21
DOCKED: BRANCH  20  29
DOCKED: ATOM     29  C   UNL     1     141.113  76.192 219.610 -0.16 -0.01    +0.034 C  
DOCKED: BRANCH  29  30
DOCKED: ATOM     30  C   UNL     1     142.417  76.732 218.958 -0.30 +0.01    -0.015 C  
DOCKED: ATOM     31  C   UNL     1     142.378  78.239 218.665 -0.29 -0.01    +0.007 C  
DOCKED: ATOM     32  C   UNL     1     143.695  76.353 219.716 -0.34 -0.01    +0.007 C  
DOCKED: ENDBRANCH  29  30
DOCKED: ENDBRANCH  20  29
DOCKED: ENDBRANCH   3  20
DOCKED: TORSDOF 11
DOCKED: TER
DOCKED: ENDMDL
________________________________________________________________________________


    FINAL DOCKED STATE:
    ________________________


Run:   5 / 20
Time taken for this run:   0.070s

DOCKED: MODEL        5
DOCKED: USER    Run = 5
DOCKED: USER
DOCKED: USER    Estimated Free Energy of Binding    =  -7.35 kcal/mol  [=(1)+(2)+(3)-(4)]
DOCKED: USER
DOCKED: USER    (1) Final Intermolecular Energy     = -10.63 kcal/mol
DOCKED: USER        vdW + Hbond + desolv Energy     = -10.85 kcal/mol
DOCKED: USER        Electrostatic Energy            =  +0.22 kcal/mol
DOCKED: USER        Moving Ligand-Fixed Receptor    = -10.63 kcal/mol
DOCKED: USER        Moving Ligand-Moving Receptor   =  +0.00 kcal/mol
DOCKED: USER    (2) Final Total Internal Energy     =  -3.96 kcal/mol
DOCKED: USER    (3) Torsional Free Energy           =  +3.28 kcal/mol
DOCKED: USER    (4) Unbound System's Energy         =  -3.96 kcal/mol
DOCKED: USER
DOCKED: USER
DOCKED: REMARK SMILES CC(C)C[C@H](NC(=O)C/N=C(/O)c1ccc2ccccc2n1)C(=O)[N-]C1CCCC1
DOCKED: REMARK SMILES IDX 7 1 8 2 6 3 9 5 10 6 11 7 12 8 13 10 22 11 14 12 21 13 15 14
DOCKED: REMARK SMILES IDX 20 15 16 16 19 17 17 18 18 19 5 20 23 21 24 22 25 23 26 24
DOCKED: REMARK SMILES IDX 27 25 30 26 28 27 29 28 4 29 2 30 1 31 3 32
DOCKED: REMARK H PARENT 6 4 12 9
DOCKED: USER                              x       y       z     vdW  Elec       q    Type
DOCKED: USER                           _______ _______ _______ _____ _____    ______ ____
DOCKED: ROOT
DOCKED: ATOM      1  C   UNL     1     141.905  73.130 221.078 -0.14 -0.03    +0.242 C  
DOCKED: ATOM      2  O   UNL     1     143.093  73.534 220.948 -0.19 +0.05    -0.273 OA 
DOCKED: ATOM      3  N   UNL     1     140.840  74.065 221.302 -0.14 +0.05    -0.346 N  
DOCKED: ATOM      4  H   UNL     1     139.867  73.687 221.375 +0.04 -0.03    +0.164 HD 
DOCKED: ENDROOT
DOCKED: BRANCH   1   5
DOCKED: ATOM      5  C   UNL     1     141.607  71.670 220.963 -0.11 -0.03    +0.246 C  
DOCKED: BRANCH   5   6
DOCKED: ATOM      6  N   UNL     1     140.218  71.436 221.346 -0.10 +0.04    -0.240 NA 
DOCKED: BRANCH   6   7
DOCKED: ATOM      7  C   UNL     1     139.635  71.755 222.470 -0.21 -0.04    +0.233 C  
DOCKED: BRANCH   7   8
DOCKED: ATOM      8  O   UNL     1     138.643  72.733 222.439 -0.08 +0.16    -0.492 OA 
DOCKED: ATOM      9  H   UNL     1     138.746  73.600 222.953 -0.48 -0.17    +0.295 HD 
DOCKED: ENDBRANCH   7   8
DOCKED: BRANCH   7  10
DOCKED: ATOM     10  C   UNL     1     139.980  71.140 223.780 -0.33 -0.02    +0.125 A  
DOCKED: ATOM     11  N   UNL     1     139.539  69.893 224.110 -0.17 +0.04    -0.243 NA 
DOCKED: ATOM     12  C   UNL     1     140.735  71.867 224.717 -0.32 -0.00    +0.035 A  
DOCKED: ATOM     13  C   UNL     1     139.815  69.316 225.310 -0.38 -0.01    +0.071 A  
DOCKED: ATOM     14  C   UNL     1     141.036  71.303 225.958 -0.64 -0.00    +0.013 A  
DOCKED: ATOM     15  C   UNL     1     139.342  68.030 225.596 -0.50 -0.00    +0.029 A  
DOCKED: ATOM     16  C   UNL     1     140.578  70.016 226.268 -0.54 -0.00    +0.000 A  
DOCKED: ATOM     17  C   UNL     1     139.625  67.440 226.832 -0.61 -0.00    +0.002 A  
DOCKED: ATOM     18  C   UNL     1     140.858  69.419 227.507 -0.60 -0.00    +0.010 A  
DOCKED: ATOM     19  C   UNL     1     140.382  68.133 227.785 -0.65 -0.00    +0.001 A  
DOCKED: ENDBRANCH   7  10
DOCKED: ENDBRANCH   6   7
DOCKED: ENDBRANCH   5   6
DOCKED: ENDBRANCH   1   5
DOCKED: BRANCH   3  20
DOCKED: ATOM     20  C   UNL     1     141.066  75.515 221.338 -0.29 -0.04    +0.130 C  
DOCKED: BRANCH  20  21
DOCKED: ATOM     21  C   UNL     1     140.037  76.240 222.174 -0.33 -0.02    +0.074 C  
DOCKED: ATOM     22  O   UNL     1     139.089  75.585 222.685 -0.39 +0.07    -0.318 OA 
DOCKED: BRANCH  21  23
DOCKED: ATOM     23  N   UNL     1     140.110  77.657 222.371 -0.00 +0.17    -0.649 NA 
DOCKED: BRANCH  23  24
DOCKED: ATOM     24  C   UNL     1     141.265  78.328 222.958 -0.45 +0.04    -0.107 C  
DOCKED: ATOM     25  C   UNL     1     140.847  79.469 223.875 -0.50 +0.00    -0.016 C  
DOCKED: ATOM     26  C   UNL     1     142.111  78.983 221.882 -0.40 +0.01    -0.016 C  
DOCKED: ATOM     27  C   UNL     1     141.967  80.502 223.791 -0.62 +0.00    -0.001 C  
DOCKED: ATOM     28  C   UNL     1     142.820  80.136 222.577 -0.59 +0.00    -0.001 C  
DOCKED: ENDBRANCH  23  24
DOCKED: ENDBRANCH  21  23
DOCKED: ENDBRANCH  20  21
DOCKED: BRANCH  20  29
DOCKED: ATOM     29  C   UNL     1     141.206  76.110 219.911 -0.20 -0.01    +0.034 C  
DOCKED: BRANCH  29  30
DOCKED: ATOM     30  C   UNL     1     142.598  76.632 219.455 -0.34 +0.01    -0.015 C  
DOCKED: ATOM     31  C   UNL     1     143.466  75.558 218.782 -0.29 -0.00    +0.007 C  
DOCKED: ATOM     32  C   UNL     1     142.536  77.903 218.600 -0.32 -0.01    +0.007 C  
DOCKED: ENDBRANCH  29  30
DOCKED: ENDBRANCH  20  29
DOCKED: ENDBRANCH   3  20
DOCKED: TORSDOF 11
DOCKED: TER
DOCKED: ENDMDL
________________________________________________________________________________


    FINAL DOCKED STATE:
    ________________________


Run:   6 / 20
Time taken for this run:   0.070s

DOCKED: MODEL        6
DOCKED: USER    Run = 6
DOCKED: USER
DOCKED: USER    Estimated Free Energy of Binding    =  -7.52 kcal/mol  [=(1)+(2)+(3)-(4)]
DOCKED: USER
DOCKED: USER    (1) Final Intermolecular Energy     = -10.81 kcal/mol
DOCKED: USER        vdW + Hbond + desolv Energy     = -11.03 kcal/mol
DOCKED: USER        Electrostatic Energy            =  +0.23 kcal/mol
DOCKED: USER        Moving Ligand-Fixed Receptor    = -10.81 kcal/mol
DOCKED: USER        Moving Ligand-Moving Receptor   =  +0.00 kcal/mol
DOCKED: USER    (2) Final Total Internal Energy     =  -3.97 kcal/mol
DOCKED: USER    (3) Torsional Free Energy           =  +3.28 kcal/mol
DOCKED: USER    (4) Unbound System's Energy         =  -3.97 kcal/mol
DOCKED: USER
DOCKED: USER
DOCKED: REMARK SMILES CC(C)C[C@H](NC(=O)C/N=C(/O)c1ccc2ccccc2n1)C(=O)[N-]C1CCCC1
DOCKED: REMARK SMILES IDX 7 1 8 2 6 3 9 5 10 6 11 7 12 8 13 10 22 11 14 12 21 13 15 14
DOCKED: REMARK SMILES IDX 20 15 16 16 19 17 17 18 18 19 5 20 23 21 24 22 25 23 26 24
DOCKED: REMARK SMILES IDX 27 25 30 26 28 27 29 28 4 29 2 30 1 31 3 32
DOCKED: REMARK H PARENT 6 4 12 9
DOCKED: USER                              x       y       z     vdW  Elec       q    Type
DOCKED: USER                           _______ _______ _______ _____ _____    ______ ____
DOCKED: ROOT
DOCKED: ATOM      1  C   UNL     1     141.974  73.265 220.864 -0.17 -0.04    +0.242 C  
DOCKED: ATOM      2  O   UNL     1     143.099  73.657 220.451 -0.21 +0.06    -0.273 OA 
DOCKED: ATOM      3  N   UNL     1     140.962  74.215 221.230 -0.15 +0.06    -0.346 N  
DOCKED: ATOM      4  H   UNL     1     140.034  73.843 221.540 +0.04 -0.02    +0.164 HD 
DOCKED: ENDROOT
DOCKED: BRANCH   1   5
DOCKED: ATOM      5  C   UNL     1     141.687  71.800 220.939 -0.12 -0.03    +0.246 C  
DOCKED: BRANCH   5   6
DOCKED: ATOM      6  N   UNL     1     140.275  71.607 221.257 -0.10 +0.04    -0.240 NA 
DOCKED: BRANCH   6   7
DOCKED: ATOM      7  C   UNL     1     139.653  71.935 222.357 -0.20 -0.04    +0.233 C  
DOCKED: BRANCH   7   8
DOCKED: ATOM      8  O   UNL     1     138.803  73.039 222.325 -0.13 +0.15    -0.492 OA 
DOCKED: ATOM      9  H   UNL     1     138.875  73.776 223.017 -0.49 -0.17    +0.295 HD 
DOCKED: ENDBRANCH   7   8
DOCKED: BRANCH   7  10
DOCKED: ATOM     10  C   UNL     1     139.809  71.202 223.643 -0.32 -0.02    +0.125 A  
DOCKED: ATOM     11  N   UNL     1     140.338  71.814 224.740 -0.27 +0.04    -0.243 NA 
DOCKED: ATOM     12  C   UNL     1     139.450  69.846 223.723 -0.27 -0.01    +0.035 A  
DOCKED: ATOM     13  C   UNL     1     140.519  71.164 225.921 -0.55 -0.01    +0.071 A  
DOCKED: ATOM     14  C   UNL     1     139.623  69.150 224.922 -0.38 -0.00    +0.013 A  
DOCKED: ATOM     15  C   UNL     1     141.061  71.841 227.019 -0.76 -0.01    +0.029 A  
DOCKED: ATOM     16  C   UNL     1     140.160  69.804 226.037 -0.50 -0.00    +0.000 A  
DOCKED: ATOM     17  C   UNL     1     141.248  71.168 228.232 -0.64 -0.00    +0.002 A  
DOCKED: ATOM     18  C   UNL     1     140.350  69.136 227.256 -0.61 -0.00    +0.010 A  
DOCKED: ATOM     19  C   UNL     1     140.892  69.819 228.349 -0.57 -0.00    +0.001 A  
DOCKED: ENDBRANCH   7  10
DOCKED: ENDBRANCH   6   7
DOCKED: ENDBRANCH   5   6
DOCKED: ENDBRANCH   1   5
DOCKED: BRANCH   3  20
DOCKED: ATOM     20  C   UNL     1     141.162  75.662 221.094 -0.26 -0.04    +0.130 C  
DOCKED: BRANCH  20  21
DOCKED: ATOM     21  C   UNL     1     140.241  76.459 221.989 -0.35 -0.02    +0.074 C  
DOCKED: ATOM     22  O   UNL     1     139.407  75.850 222.711 -0.39 +0.05    -0.318 OA 
DOCKED: BRANCH  21  23
DOCKED: ATOM     23  N   UNL     1     140.285  77.891 222.006 +0.02 +0.19    -0.649 NA 
DOCKED: BRANCH  23  24
DOCKED: ATOM     24  C   UNL     1     141.508  78.655 222.230 -0.40 +0.05    -0.107 C  
DOCKED: ATOM     25  C   UNL     1     141.781  78.857 223.714 -0.60 +0.00    -0.016 C  
DOCKED: ATOM     26  C   UNL     1     141.378  80.057 221.664 -0.40 +0.01    -0.016 C  
DOCKED: ATOM     27  C   UNL     1     142.511  80.191 223.825 -0.66 +0.00    -0.001 C  
DOCKED: ATOM     28  C   UNL     1     142.330  80.910 222.489 -0.54 +0.00    -0.001 C  
DOCKED: ENDBRANCH  23  24
DOCKED: ENDBRANCH  21  23
DOCKED: ENDBRANCH  20  21
DOCKED: BRANCH  20  29
DOCKED: ATOM     29  C   UNL     1     141.097  76.114 219.611 -0.16 -0.01    +0.034 C  
DOCKED: BRANCH  29  30
DOCKED: ATOM     30  C   UNL     1     142.357  76.765 218.974 -0.30 +0.01    -0.015 C  
DOCKED: ATOM     31  C   UNL     1     142.231  78.283 218.777 -0.30 -0.00    +0.007 C  
DOCKED: ATOM     32  C   UNL     1     143.668  76.412 219.687 -0.32 -0.01    +0.007 C  
DOCKED: ENDBRANCH  29  30
DOCKED: ENDBRANCH  20  29
DOCKED: ENDBRANCH   3  20
DOCKED: TORSDOF 11
DOCKED: TER
DOCKED: ENDMDL
________________________________________________________________________________


    FINAL DOCKED STATE:
    ________________________


Run:   7 / 20
Time taken for this run:   0.070s

DOCKED: MODEL        7
DOCKED: USER    Run = 7
DOCKED: USER
DOCKED: USER    Estimated Free Energy of Binding    =  -7.63 kcal/mol  [=(1)+(2)+(3)-(4)]
DOCKED: USER
DOCKED: USER    (1) Final Intermolecular Energy     = -10.91 kcal/mol
DOCKED: USER        vdW + Hbond + desolv Energy     = -11.09 kcal/mol
DOCKED: USER        Electrostatic Energy            =  +0.18 kcal/mol
DOCKED: USER        Moving Ligand-Fixed Receptor    = -10.91 kcal/mol
DOCKED: USER        Moving Ligand-Moving Receptor   =  +0.00 kcal/mol
DOCKED: USER    (2) Final Total Internal Energy     =  -4.02 kcal/mol
DOCKED: USER    (3) Torsional Free Energy           =  +3.28 kcal/mol
DOCKED: USER    (4) Unbound System's Energy         =  -4.02 kcal/mol
DOCKED: USER
DOCKED: USER
DOCKED: REMARK SMILES CC(C)C[C@H](NC(=O)C/N=C(/O)c1ccc2ccccc2n1)C(=O)[N-]C1CCCC1
DOCKED: REMARK SMILES IDX 7 1 8 2 6 3 9 5 10 6 11 7 12 8 13 10 22 11 14 12 21 13 15 14
DOCKED: REMARK SMILES IDX 20 15 16 16 19 17 17 18 18 19 5 20 23 21 24 22 25 23 26 24
DOCKED: REMARK SMILES IDX 27 25 30 26 28 27 29 28 4 29 2 30 1 31 3 32
DOCKED: REMARK H PARENT 6 4 12 9
DOCKED: USER                              x       y       z     vdW  Elec       q    Type
DOCKED: USER                           _______ _______ _______ _____ _____    ______ ____
DOCKED: ROOT
DOCKED: ATOM      1  C   UNL     1     141.857  73.328 221.081 -0.14 -0.03    +0.242 C  
DOCKED: ATOM      2  O   UNL     1     143.031  73.726 220.848 -0.22 +0.06    -0.273 OA 
DOCKED: ATOM      3  N   UNL     1     140.823  74.267 221.412 -0.16 +0.05    -0.346 N  
DOCKED: ATOM      4  H   UNL     1     139.858  73.894 221.568 +0.04 -0.03    +0.164 HD 
DOCKED: ENDROOT
DOCKED: BRANCH   1   5
DOCKED: ATOM      5  C   UNL     1     141.539  71.871 220.976 -0.13 -0.03    +0.246 C  
DOCKED: BRANCH   5   6
DOCKED: ATOM      6  N   UNL     1     140.124  71.670 221.277 -0.09 +0.04    -0.240 NA 
DOCKED: BRANCH   6   7
DOCKED: ATOM      7  C   UNL     1     139.494  71.961 222.382 -0.20 -0.05    +0.233 C  
DOCKED: BRANCH   7   8
DOCKED: ATOM      8  O   UNL     1     138.572  73.006 222.356 -0.09 +0.16    -0.492 OA 
DOCKED: ATOM      9  H   UNL     1     138.588  73.738 223.056 -0.49 -0.20    +0.295 HD 
DOCKED: ENDBRANCH   7   8
DOCKED: BRANCH   7  10
DOCKED: ATOM     10  C   UNL     1     139.713  71.247 223.669 -0.32 -0.02    +0.125 A  
DOCKED: ATOM     11  N   UNL     1     140.272  71.882 224.738 -0.25 +0.05    -0.243 NA 
DOCKED: ATOM     12  C   UNL     1     139.382  69.886 223.779 -0.28 -0.01    +0.035 A  
DOCKED: ATOM     13  C   UNL     1     140.510  71.249 225.919 -0.54 -0.01    +0.071 A  
DOCKED: ATOM     14  C   UNL     1     139.614  69.207 224.978 -0.39 -0.00    +0.013 A  
DOCKED: ATOM     15  C   UNL     1     141.081  71.950 226.988 -0.76 -0.01    +0.029 A  
DOCKED: ATOM     16  C   UNL     1     140.181  69.885 226.064 -0.51 -0.00    +0.000 A  
DOCKED: ATOM     17  C   UNL     1     141.327  71.295 228.199 -0.65 -0.00    +0.002 A  
DOCKED: ATOM     18  C   UNL     1     140.430  69.235 227.282 -0.60 -0.00    +0.010 A  
DOCKED: ATOM     19  C   UNL     1     141.001  69.941 228.346 -0.57 -0.00    +0.001 A  
DOCKED: ENDBRANCH   7  10
DOCKED: ENDBRANCH   6   7
DOCKED: ENDBRANCH   5   6
DOCKED: ENDBRANCH   1   5
DOCKED: BRANCH   3  20
DOCKED: ATOM     20  C   UNL     1     141.063  75.714 221.445 -0.29 -0.04    +0.130 C  
DOCKED: BRANCH  20  21
DOCKED: ATOM     21  C   UNL     1     140.040  76.451 222.278 -0.34 -0.02    +0.074 C  
DOCKED: ATOM     22  O   UNL     1     139.063  75.813 222.756 -0.33 +0.07    -0.318 OA 
DOCKED: BRANCH  21  23
DOCKED: ATOM     23  N   UNL     1     140.150  77.861 222.508 +0.00 +0.17    -0.649 NA 
DOCKED: BRANCH  23  24
DOCKED: ATOM     24  C   UNL     1     141.425  78.569 222.554 -0.43 +0.04    -0.107 C  
DOCKED: ATOM     25  C   UNL     1     141.762  79.032 223.965 -0.59 +0.00    -0.016 C  
DOCKED: ATOM     26  C   UNL     1     141.363  79.843 221.731 -0.40 +0.01    -0.016 C  
DOCKED: ATOM     27  C   UNL     1     142.576  80.311 223.800 -0.67 +0.00    -0.001 C  
DOCKED: ATOM     28  C   UNL     1     142.393  80.772 222.355 -0.53 +0.00    -0.001 C  
DOCKED: ENDBRANCH  23  24
DOCKED: ENDBRANCH  21  23
DOCKED: ENDBRANCH  20  21
DOCKED: BRANCH  20  29
DOCKED: ATOM     29  C   UNL     1     141.209  76.305 220.017 -0.21 -0.01    +0.034 C  
DOCKED: BRANCH  29  30
DOCKED: ATOM     30  C   UNL     1     142.514  77.070 219.657 -0.33 +0.01    -0.015 C  
DOCKED: ATOM     31  C   UNL     1     143.680  76.148 219.272 -0.32 -0.00    +0.007 C  
DOCKED: ATOM     32  C   UNL     1     142.320  78.175 218.612 -0.30 -0.00    +0.007 C  
DOCKED: ENDBRANCH  29  30
DOCKED: ENDBRANCH  20  29
DOCKED: ENDBRANCH   3  20
DOCKED: TORSDOF 11
DOCKED: TER
DOCKED: ENDMDL
________________________________________________________________________________


    FINAL DOCKED STATE:
    ________________________


Run:   8 / 20
Time taken for this run:   0.070s

DOCKED: MODEL        8
DOCKED: USER    Run = 8
DOCKED: USER
DOCKED: USER    Estimated Free Energy of Binding    =  -7.10 kcal/mol  [=(1)+(2)+(3)-(4)]
DOCKED: USER
DOCKED: USER    (1) Final Intermolecular Energy     = -10.38 kcal/mol
DOCKED: USER        vdW + Hbond + desolv Energy     = -10.54 kcal/mol
DOCKED: USER        Electrostatic Energy            =  +0.16 kcal/mol
DOCKED: USER        Moving Ligand-Fixed Receptor    = -10.38 kcal/mol
DOCKED: USER        Moving Ligand-Moving Receptor   =  +0.00 kcal/mol
DOCKED: USER    (2) Final Total Internal Energy     =  -3.53 kcal/mol
DOCKED: USER    (3) Torsional Free Energy           =  +3.28 kcal/mol
DOCKED: USER    (4) Unbound System's Energy         =  -3.53 kcal/mol
DOCKED: USER
DOCKED: USER
DOCKED: REMARK SMILES CC(C)C[C@H](NC(=O)C/N=C(/O)c1ccc2ccccc2n1)C(=O)[N-]C1CCCC1
DOCKED: REMARK SMILES IDX 7 1 8 2 6 3 9 5 10 6 11 7 12 8 13 10 22 11 14 12 21 13 15 14
DOCKED: REMARK SMILES IDX 20 15 16 16 19 17 17 18 18 19 5 20 23 21 24 22 25 23 26 24
DOCKED: REMARK SMILES IDX 27 25 30 26 28 27 29 28 4 29 2 30 1 31 3 32
DOCKED: REMARK H PARENT 6 4 12 9
DOCKED: USER                              x       y       z     vdW  Elec       q    Type
DOCKED: USER                           _______ _______ _______ _____ _____    ______ ____
DOCKED: ROOT
DOCKED: ATOM      1  C   UNL     1     140.171  75.233 221.272 -0.21 -0.05    +0.242 C  
DOCKED: ATOM      2  O   UNL     1     140.162  76.087 220.344 -0.07 +0.08    -0.273 OA 
DOCKED: ATOM      3  N   UNL     1     139.463  75.482 222.496 -0.12 +0.06    -0.346 N  
DOCKED: ATOM      4  H   UNL     1     139.475  74.732 223.226 -0.49 -0.02    +0.164 HD 
DOCKED: ENDROOT
DOCKED: BRANCH   1   5
DOCKED: ATOM      5  C   UNL     1     140.897  73.941 221.077 -0.19 -0.04    +0.246 C  
DOCKED: BRANCH   5   6
DOCKED: ATOM      6  N   UNL     1     140.792  73.147 222.298 -0.58 -0.00    -0.240 NA 
DOCKED: BRANCH   6   7
DOCKED: ATOM      7  C   UNL     1     139.726  72.580 222.793 -0.09 -0.05    +0.233 C  
DOCKED: BRANCH   7   8
DOCKED: ATOM      8  O   UNL     1     138.483  72.989 222.313 -0.09 +0.16    -0.492 OA 
DOCKED: ATOM      9  H   UNL     1     137.977  73.751 222.750 -0.48 -0.16    +0.295 HD 
DOCKED: ENDBRANCH   7   8
DOCKED: BRANCH   7  10
DOCKED: ATOM     10  C   UNL     1     139.764  71.531 223.847 -0.33 -0.03    +0.125 A  
DOCKED: ATOM     11  N   UNL     1     140.335  71.774 225.060 -0.27 +0.04    -0.243 NA 
DOCKED: ATOM     12  C   UNL     1     139.245  70.252 223.580 -0.28 -0.01    +0.035 A  
DOCKED: ATOM     13  C   UNL     1     140.409  70.828 226.035 -0.53 -0.01    +0.071 A  
DOCKED: ATOM     14  C   UNL     1     139.305  69.258 224.559 -0.35 -0.00    +0.013 A  
DOCKED: ATOM     15  C   UNL     1     141.001  71.132 227.266 -0.69 -0.00    +0.029 A  
DOCKED: ATOM     16  C   UNL     1     139.889  69.537 225.801 -0.47 -0.00    +0.000 A  
DOCKED: ATOM     17  C   UNL     1     141.078  70.155 228.264 -0.57 -0.00    +0.002 A  
DOCKED: ATOM     18  C   UNL     1     139.970  68.562 226.807 -0.61 -0.00    +0.010 A  
DOCKED: ATOM     19  C   UNL     1     140.563  68.874 228.035 -0.65 -0.00    +0.001 A  
DOCKED: ENDBRANCH   7  10
DOCKED: ENDBRANCH   6   7
DOCKED: ENDBRANCH   5   6
DOCKED: ENDBRANCH   1   5
DOCKED: BRANCH   3  20
DOCKED: ATOM     20  C   UNL     1     138.665  76.695 222.705 -0.22 -0.02    +0.130 C  
DOCKED: BRANCH  20  21
DOCKED: ATOM     21  C   UNL     1     137.257  76.559 222.174 -0.20 -0.01    +0.074 C  
DOCKED: ATOM     22  O   UNL     1     136.664  77.580 221.733 -0.05 +0.05    -0.318 OA 
DOCKED: BRANCH  21  23
DOCKED: ATOM     23  N   UNL     1     136.580  75.295 222.189 -0.00 +0.16    -0.649 NA 
DOCKED: BRANCH  23  24
DOCKED: ATOM     24  C   UNL     1     135.441  75.005 223.054 -0.17 +0.02    -0.107 C  
DOCKED: ATOM     25  C   UNL     1     135.395  75.937 224.257 -0.27 +0.00    -0.016 C  
DOCKED: ATOM     26  C   UNL     1     135.555  73.612 223.644 -0.20 +0.00    -0.016 C  
DOCKED: ATOM     27  C   UNL     1     134.755  75.132 225.383 -0.40 +0.00    -0.001 C  
DOCKED: ATOM     28  C   UNL     1     134.775  73.666 224.950 -0.29 +0.00    -0.001 C  
DOCKED: ENDBRANCH  23  24
DOCKED: ENDBRANCH  21  23
DOCKED: ENDBRANCH  20  21
DOCKED: BRANCH  20  29
DOCKED: ATOM     29  C   UNL     1     139.388  77.958 222.167 -0.29 -0.01    +0.034 C  
DOCKED: BRANCH  29  30
DOCKED: ATOM     30  C   UNL     1     140.781  78.326 222.753 -0.47 +0.00    -0.015 C  
DOCKED: ATOM     31  C   UNL     1     141.823  78.681 221.683 -0.41 -0.00    +0.007 C  
DOCKED: ATOM     32  C   UNL     1     140.732  79.397 223.848 -0.52 -0.00    +0.007 C  
DOCKED: ENDBRANCH  29  30
DOCKED: ENDBRANCH  20  29
DOCKED: ENDBRANCH   3  20
DOCKED: TORSDOF 11
DOCKED: TER
DOCKED: ENDMDL
________________________________________________________________________________


    FINAL DOCKED STATE:
    ________________________


Run:   9 / 20
Time taken for this run:   0.070s

DOCKED: MODEL        9
DOCKED: USER    Run = 9
DOCKED: USER
DOCKED: USER    Estimated Free Energy of Binding    =  -6.75 kcal/mol  [=(1)+(2)+(3)-(4)]
DOCKED: USER
DOCKED: USER    (1) Final Intermolecular Energy     = -10.03 kcal/mol
DOCKED: USER        vdW + Hbond + desolv Energy     = -10.03 kcal/mol
DOCKED: USER        Electrostatic Energy            =  -0.00 kcal/mol
DOCKED: USER        Moving Ligand-Fixed Receptor    = -10.03 kcal/mol
DOCKED: USER        Moving Ligand-Moving Receptor   =  +0.00 kcal/mol
DOCKED: USER    (2) Final Total Internal Energy     =  -3.19 kcal/mol
DOCKED: USER    (3) Torsional Free Energy           =  +3.28 kcal/mol
DOCKED: USER    (4) Unbound System's Energy         =  -3.19 kcal/mol
DOCKED: USER
DOCKED: USER
DOCKED: REMARK SMILES CC(C)C[C@H](NC(=O)C/N=C(/O)c1ccc2ccccc2n1)C(=O)[N-]C1CCCC1
DOCKED: REMARK SMILES IDX 7 1 8 2 6 3 9 5 10 6 11 7 12 8 13 10 22 11 14 12 21 13 15 14
DOCKED: REMARK SMILES IDX 20 15 16 16 19 17 17 18 18 19 5 20 23 21 24 22 25 23 26 24
DOCKED: REMARK SMILES IDX 27 25 30 26 28 27 29 28 4 29 2 30 1 31 3 32
DOCKED: REMARK H PARENT 6 4 12 9
DOCKED: USER                              x       y       z     vdW  Elec       q    Type
DOCKED: USER                           _______ _______ _______ _____ _____    ______ ____
DOCKED: ROOT
DOCKED: ATOM      1  C   UNL     1     136.465  72.090 221.636 -0.04 -0.05    +0.242 C  
DOCKED: ATOM      2  O   UNL     1     135.443  71.398 221.372 -0.01 +0.04    -0.273 OA 
DOCKED: ATOM      3  N   UNL     1     136.514  72.890 222.826 -0.07 +0.10    -0.346 N  
DOCKED: ATOM      4  H   UNL     1     137.394  73.424 223.017 -0.47 -0.09    +0.164 HD 
DOCKED: ENDROOT
DOCKED: BRANCH   1   5
DOCKED: ATOM      5  C   UNL     1     137.643  72.044 220.716 -0.03 -0.05    +0.246 C  
DOCKED: BRANCH   5   6
DOCKED: ATOM      6  N   UNL     1     138.815  71.600 221.464 -0.06 +0.05    -0.240 NA 
DOCKED: BRANCH   6   7
DOCKED: ATOM      7  C   UNL     1     139.292  72.100 222.571 -0.18 -0.05    +0.233 C  
DOCKED: BRANCH   7   8
DOCKED: ATOM      8  O   UNL     1     139.590  73.461 222.601 -0.58 +0.09    -0.492 OA 
DOCKED: ATOM      9  H   UNL     1     139.559  73.987 223.467 -0.38 -0.05    +0.295 HD 
DOCKED: ENDBRANCH   7   8
DOCKED: BRANCH   7  10
DOCKED: ATOM     10  C   UNL     1     139.546  71.296 223.797 -0.31 -0.03    +0.125 A  
DOCKED: ATOM     11  N   UNL     1     140.096  71.863 224.908 -0.18 +0.05    -0.243 NA 
DOCKED: ATOM     12  C   UNL     1     139.258  69.920 223.804 -0.28 -0.01    +0.035 A  
DOCKED: ATOM     13  C   UNL     1     140.364  71.149 226.034 -0.54 -0.01    +0.071 A  
DOCKED: ATOM     14  C   UNL     1     139.522  69.159 224.944 -0.39 -0.00    +0.013 A  
DOCKED: ATOM     15  C   UNL     1     140.924  71.782 227.150 -0.76 -0.01    +0.029 A  
DOCKED: ATOM     16  C   UNL     1     140.079  69.768 226.075 -0.50 -0.00    +0.000 A  
DOCKED: ATOM     17  C   UNL     1     141.202  71.043 228.306 -0.62 -0.00    +0.002 A  
DOCKED: ATOM     18  C   UNL     1     140.360  69.033 227.237 -0.61 -0.00    +0.010 A  
DOCKED: ATOM     19  C   UNL     1     140.920  69.673 228.349 -0.58 -0.00    +0.001 A  
DOCKED: ENDBRANCH   7  10
DOCKED: ENDBRANCH   6   7
DOCKED: ENDBRANCH   5   6
DOCKED: ENDBRANCH   1   5
DOCKED: BRANCH   3  20
DOCKED: ATOM     20  C   UNL     1     135.421  72.904 223.805 -0.17 -0.03    +0.130 C  
DOCKED: BRANCH  20  21
DOCKED: ATOM     21  C   UNL     1     135.434  74.144 224.668 -0.22 -0.01    +0.074 C  
DOCKED: ATOM     22  O   UNL     1     136.137  75.130 224.317 -0.21 +0.09    -0.318 OA 
DOCKED: BRANCH  21  23
DOCKED: ATOM     23  N   UNL     1     134.684  74.203 225.887 -0.20 -0.04    -0.649 NA 
DOCKED: BRANCH  23  24
DOCKED: ATOM     24  C   UNL     1     133.472  75.001 226.046 -0.30 +0.00    -0.107 C  
DOCKED: ATOM     25  C   UNL     1     133.773  76.369 226.643 -0.37 +0.00    -0.016 C  
DOCKED: ATOM     26  C   UNL     1     132.522  74.347 227.032 -0.39 +0.00    -0.016 C  
DOCKED: ATOM     27  C   UNL     1     132.535  76.756 227.444 -0.35 +0.00    -0.001 C  
DOCKED: ATOM     28  C   UNL     1     131.698  75.488 227.610 -0.38 +0.00    -0.001 C  
DOCKED: ENDBRANCH  23  24
DOCKED: ENDBRANCH  21  23
DOCKED: ENDBRANCH  20  21
DOCKED: BRANCH  20  29
DOCKED: ATOM     29  C   UNL     1     135.379  71.594 224.637 -0.12 -0.00    +0.034 C  
DOCKED: BRANCH  29  30
DOCKED: ATOM     30  C   UNL     1     134.012  71.115 225.203 -0.21 +0.00    -0.015 C  
DOCKED: ATOM     31  C   UNL     1     133.937  71.150 226.736 -0.42 -0.00    +0.007 C  
DOCKED: ATOM     32  C   UNL     1     132.799  71.816 224.578 -0.11 -0.00    +0.007 C  
DOCKED: ENDBRANCH  29  30
DOCKED: ENDBRANCH  20  29
DOCKED: ENDBRANCH   3  20
DOCKED: TORSDOF 11
DOCKED: TER
DOCKED: ENDMDL
________________________________________________________________________________


    FINAL DOCKED STATE:
    ________________________


Run:   10 / 20
Time taken for this run:   0.070s

DOCKED: MODEL        10
DOCKED: USER    Run = 10
DOCKED: USER
DOCKED: USER    Estimated Free Energy of Binding    =  -7.61 kcal/mol  [=(1)+(2)+(3)-(4)]
DOCKED: USER
DOCKED: USER    (1) Final Intermolecular Energy     = -10.89 kcal/mol
DOCKED: USER        vdW + Hbond + desolv Energy     = -11.08 kcal/mol
DOCKED: USER        Electrostatic Energy            =  +0.19 kcal/mol
DOCKED: USER        Moving Ligand-Fixed Receptor    = -10.89 kcal/mol
DOCKED: USER        Moving Ligand-Moving Receptor   =  +0.00 kcal/mol
DOCKED: USER    (2) Final Total Internal Energy     =  -4.02 kcal/mol
DOCKED: USER    (3) Torsional Free Energy           =  +3.28 kcal/mol
DOCKED: USER    (4) Unbound System's Energy         =  -4.02 kcal/mol
DOCKED: USER
DOCKED: USER
DOCKED: REMARK SMILES CC(C)C[C@H](NC(=O)C/N=C(/O)c1ccc2ccccc2n1)C(=O)[N-]C1CCCC1
DOCKED: REMARK SMILES IDX 7 1 8 2 6 3 9 5 10 6 11 7 12 8 13 10 22 11 14 12 21 13 15 14
DOCKED: REMARK SMILES IDX 20 15 16 16 19 17 17 18 18 19 5 20 23 21 24 22 25 23 26 24
DOCKED: REMARK SMILES IDX 27 25 30 26 28 27 29 28 4 29 2 30 1 31 3 32
DOCKED: REMARK H PARENT 6 4 12 9
DOCKED: USER                              x       y       z     vdW  Elec       q    Type
DOCKED: USER                           _______ _______ _______ _____ _____    ______ ____
DOCKED: ROOT
DOCKED: ATOM      1  C   UNL     1     141.831  73.283 221.130 -0.14 -0.03    +0.242 C  
DOCKED: ATOM      2  O   UNL     1     143.006  73.683 220.904 -0.20 +0.06    -0.273 OA 
DOCKED: ATOM      3  N   UNL     1     140.793  74.221 221.454 -0.16 +0.05    -0.346 N  
DOCKED: ATOM      4  H   UNL     1     139.828  73.846 221.605 +0.03 -0.03    +0.164 HD 
DOCKED: ENDROOT
DOCKED: BRANCH   1   5
DOCKED: ATOM      5  C   UNL     1     141.516  71.826 221.025 -0.13 -0.03    +0.246 C  
DOCKED: BRANCH   5   6
DOCKED: ATOM      6  N   UNL     1     140.093  71.627 221.282 -0.09 +0.04    -0.240 NA 
DOCKED: BRANCH   6   7
DOCKED: ATOM      7  C   UNL     1     139.432  71.899 222.375 -0.19 -0.05    +0.233 C  
DOCKED: BRANCH   7   8
DOCKED: ATOM      8  O   UNL     1     138.485  72.920 222.331 -0.09 +0.16    -0.492 OA 
DOCKED: ATOM      9  H   UNL     1     138.522  73.699 222.979 -0.49 -0.19    +0.295 HD 
DOCKED: ENDBRANCH   7   8
DOCKED: BRANCH   7  10
DOCKED: ATOM     10  C   UNL     1     139.644  71.189 223.665 -0.31 -0.02    +0.125 A  
DOCKED: ATOM     11  N   UNL     1     140.204  71.824 224.733 -0.24 +0.05    -0.243 NA 
DOCKED: ATOM     12  C   UNL     1     139.306  69.829 223.778 -0.28 -0.01    +0.035 A  
DOCKED: ATOM     13  C   UNL     1     140.434  71.194 225.917 -0.54 -0.01    +0.071 A  
DOCKED: ATOM     14  C   UNL     1     139.531  69.154 224.980 -0.39 -0.00    +0.013 A  
DOCKED: ATOM     15  C   UNL     1     141.006  71.895 226.985 -0.76 -0.01    +0.029 A  
DOCKED: ATOM     16  C   UNL     1     140.098  69.832 226.066 -0.50 -0.00    +0.000 A  
DOCKED: ATOM     17  C   UNL     1     141.244  71.244 228.200 -0.66 -0.00    +0.002 A  
DOCKED: ATOM     18  C   UNL     1     140.340  69.185 227.287 -0.60 -0.00    +0.010 A  
DOCKED: ATOM     19  C   UNL     1     140.911  69.892 228.350 -0.57 -0.00    +0.001 A  
DOCKED: ENDBRANCH   7  10
DOCKED: ENDBRANCH   6   7
DOCKED: ENDBRANCH   5   6
DOCKED: ENDBRANCH   1   5
DOCKED: BRANCH   3  20
DOCKED: ATOM     20  C   UNL     1     141.030  75.669 221.486 -0.30 -0.04    +0.130 C  
DOCKED: BRANCH  20  21
DOCKED: ATOM     21  C   UNL     1     140.000  76.404 222.311 -0.34 -0.02    +0.074 C  
DOCKED: ATOM     22  O   UNL     1     138.982  75.783 222.720 -0.33 +0.07    -0.318 OA 
DOCKED: BRANCH  21  23
DOCKED: ATOM     23  N   UNL     1     140.151  77.797 222.611 +0.00 +0.16    -0.649 NA 
DOCKED: BRANCH  23  24
DOCKED: ATOM     24  C   UNL     1     141.441  78.478 222.636 -0.43 +0.04    -0.107 C  
DOCKED: ATOM     25  C   UNL     1     141.764  79.025 224.020 -0.57 +0.00    -0.016 C  
DOCKED: ATOM     26  C   UNL     1     141.425  79.696 221.731 -0.41 +0.01    -0.016 C  
DOCKED: ATOM     27  C   UNL     1     142.611  80.271 223.789 -0.66 +0.00    -0.001 C  
DOCKED: ATOM     28  C   UNL     1     142.466  80.641 222.313 -0.54 +0.00    -0.001 C  
DOCKED: ENDBRANCH  23  24
DOCKED: ENDBRANCH  21  23
DOCKED: ENDBRANCH  20  21
DOCKED: BRANCH  20  29
DOCKED: ATOM     29  C   UNL     1     141.185  76.257 220.058 -0.21 -0.01    +0.034 C  
DOCKED: BRANCH  29  30
DOCKED: ATOM     30  C   UNL     1     142.499  77.007 219.700 -0.34 +0.01    -0.015 C  
DOCKED: ATOM     31  C   UNL     1     143.661  76.071 219.335 -0.35 -0.00    +0.007 C  
DOCKED: ATOM     32  C   UNL     1     142.323  78.101 218.640 -0.30 -0.00    +0.007 C  
DOCKED: ENDBRANCH  29  30
DOCKED: ENDBRANCH  20  29
DOCKED: ENDBRANCH   3  20
DOCKED: TORSDOF 11
DOCKED: TER
DOCKED: ENDMDL
________________________________________________________________________________


    FINAL DOCKED STATE:
    ________________________


Run:   11 / 20
Time taken for this run:   0.070s

DOCKED: MODEL        11
DOCKED: USER    Run = 11
DOCKED: USER
DOCKED: USER    Estimated Free Energy of Binding    =  -6.40 kcal/mol  [=(1)+(2)+(3)-(4)]
DOCKED: USER
DOCKED: USER    (1) Final Intermolecular Energy     =  -9.68 kcal/mol
DOCKED: USER        vdW + Hbond + desolv Energy     =  -9.87 kcal/mol
DOCKED: USER        Electrostatic Energy            =  +0.18 kcal/mol
DOCKED: USER        Moving Ligand-Fixed Receptor    =  -9.68 kcal/mol
DOCKED: USER        Moving Ligand-Moving Receptor   =  +0.00 kcal/mol
DOCKED: USER    (2) Final Total Internal Energy     =  -3.59 kcal/mol
DOCKED: USER    (3) Torsional Free Energy           =  +3.28 kcal/mol
DOCKED: USER    (4) Unbound System's Energy         =  -3.59 kcal/mol
DOCKED: USER
DOCKED: USER
DOCKED: REMARK SMILES CC(C)C[C@H](NC(=O)C/N=C(/O)c1ccc2ccccc2n1)C(=O)[N-]C1CCCC1
DOCKED: REMARK SMILES IDX 7 1 8 2 6 3 9 5 10 6 11 7 12 8 13 10 22 11 14 12 21 13 15 14
DOCKED: REMARK SMILES IDX 20 15 16 16 19 17 17 18 18 19 5 20 23 21 24 22 25 23 26 24
DOCKED: REMARK SMILES IDX 27 25 30 26 28 27 29 28 4 29 2 30 1 31 3 32
DOCKED: REMARK H PARENT 6 4 12 9
DOCKED: USER                              x       y       z     vdW  Elec       q    Type
DOCKED: USER                           _______ _______ _______ _____ _____    ______ ____
DOCKED: ROOT
DOCKED: ATOM      1  C   UNL     1     138.857  72.239 220.655 -0.05 -0.05    +0.242 C  
DOCKED: ATOM      2  O   UNL     1     137.894  71.501 220.309 -0.01 +0.05    -0.273 OA 
DOCKED: ATOM      3  N   UNL     1     139.479  72.070 221.938 -0.10 +0.07    -0.346 N  
DOCKED: ATOM      4  H   UNL     1     140.292  72.685 222.170 +0.04 -0.02    +0.164 HD 
DOCKED: ENDROOT
DOCKED: BRANCH   1   5
DOCKED: ATOM      5  C   UNL     1     139.373  73.271 219.705 -0.03 -0.05    +0.246 C  
DOCKED: BRANCH   5   6
DOCKED: ATOM      6  N   UNL     1     140.355  74.103 220.393 -0.08 +0.05    -0.240 NA 
DOCKED: BRANCH   6   7
DOCKED: ATOM      7  C   UNL     1     140.145  74.954 221.360 -0.21 -0.04    +0.233 C  
DOCKED: BRANCH   7   8
DOCKED: ATOM      8  O   UNL     1     139.329  74.555 222.418 -0.55 +0.09    -0.492 OA 
DOCKED: ATOM      9  H   UNL     1     139.631  73.843 223.073 -0.41 -0.03    +0.295 HD 
DOCKED: ENDBRANCH   7   8
DOCKED: BRANCH   7  10
DOCKED: ATOM     10  C   UNL     1     140.716  76.327 221.390 -0.28 -0.04    +0.125 A  
DOCKED: ATOM     11  N   UNL     1     140.873  76.998 222.566 -0.27 +0.08    -0.243 NA 
DOCKED: ATOM     12  C   UNL     1     141.061  76.967 220.187 -0.21 -0.01    +0.035 A  
DOCKED: ATOM     13  C   UNL     1     141.368  78.264 222.623 -0.44 -0.03    +0.071 A  
DOCKED: ATOM     14  C   UNL     1     141.571  78.267 220.211 -0.28 -0.01    +0.013 A  
DOCKED: ATOM     15  C   UNL     1     141.514  78.905 223.858 -0.58 -0.01    +0.029 A  
DOCKED: ATOM     16  C   UNL     1     141.731  78.930 221.433 -0.40 -0.00    +0.000 A  
DOCKED: ATOM     17  C   UNL     1     142.021  80.208 223.912 -0.59 -0.00    +0.002 A  
DOCKED: ATOM     18  C   UNL     1     142.238  80.238 221.495 -0.41 -0.00    +0.010 A  
DOCKED: ATOM     19  C   UNL     1     142.382  80.872 222.734 -0.58 -0.00    +0.001 A  
DOCKED: ENDBRANCH   7  10
DOCKED: ENDBRANCH   6   7
DOCKED: ENDBRANCH   5   6
DOCKED: ENDBRANCH   1   5
DOCKED: BRANCH   3  20
DOCKED: ATOM     20  C   UNL     1     139.067  71.016 222.873 -0.22 -0.03    +0.130 C  
DOCKED: BRANCH  20  21
DOCKED: ATOM     21  C   UNL     1     139.636  71.219 224.258 -0.37 -0.02    +0.074 C  
DOCKED: ATOM     22  O   UNL     1     140.404  72.196 224.470 -0.21 +0.05    -0.318 OA 
DOCKED: BRANCH  21  23
DOCKED: ATOM     23  N   UNL     1     139.337  70.305 225.321 +0.04 +0.10    -0.649 NA 
DOCKED: BRANCH  23  24
DOCKED: ATOM     24  C   UNL     1     140.335  69.824 226.271 -0.46 +0.02    -0.107 C  
DOCKED: ATOM     25  C   UNL     1     140.653  68.351 226.057 -0.54 +0.00    -0.016 C  
DOCKED: ATOM     26  C   UNL     1     139.809  69.906 227.692 -0.60 +0.00    -0.016 C  
DOCKED: ATOM     27  C   UNL     1     141.021  67.800 227.430 -0.61 +0.00    -0.001 C  
DOCKED: ATOM     28  C   UNL     1     140.565  68.833 228.461 -0.63 +0.00    -0.001 C  
DOCKED: ENDBRANCH  23  24
DOCKED: ENDBRANCH  21  23
DOCKED: ENDBRANCH  20  21
DOCKED: BRANCH  20  29
DOCKED: ATOM     29  C   UNL     1     139.358  69.600 222.307 -0.15 -0.01    +0.034 C  
DOCKED: BRANCH  29  30
DOCKED: ATOM     30  C   UNL     1     138.255  68.510 222.423 -0.21 +0.00    -0.015 C  
DOCKED: ATOM     31  C   UNL     1     138.807  67.108 222.720 -0.27 -0.00    +0.007 C  
DOCKED: ATOM     32  C   UNL     1     137.123  68.871 223.391 -0.20 -0.00    +0.007 C  
DOCKED: ENDBRANCH  29  30
DOCKED: ENDBRANCH  20  29
DOCKED: ENDBRANCH   3  20
DOCKED: TORSDOF 11
DOCKED: TER
DOCKED: ENDMDL
________________________________________________________________________________


    FINAL DOCKED STATE:
    ________________________


Run:   12 / 20
Time taken for this run:   0.070s

DOCKED: MODEL        12
DOCKED: USER    Run = 12
DOCKED: USER
DOCKED: USER    Estimated Free Energy of Binding    =  -7.75 kcal/mol  [=(1)+(2)+(3)-(4)]
DOCKED: USER
DOCKED: USER    (1) Final Intermolecular Energy     = -11.03 kcal/mol
DOCKED: USER        vdW + Hbond + desolv Energy     = -11.24 kcal/mol
DOCKED: USER        Electrostatic Energy            =  +0.21 kcal/mol
DOCKED: USER        Moving Ligand-Fixed Receptor    = -11.03 kcal/mol
DOCKED: USER        Moving Ligand-Moving Receptor   =  +0.00 kcal/mol
DOCKED: USER    (2) Final Total Internal Energy     =  -3.26 kcal/mol
DOCKED: USER    (3) Torsional Free Energy           =  +3.28 kcal/mol
DOCKED: USER    (4) Unbound System's Energy         =  -3.26 kcal/mol
DOCKED: USER
DOCKED: USER
DOCKED: REMARK SMILES CC(C)C[C@H](NC(=O)C/N=C(/O)c1ccc2ccccc2n1)C(=O)[N-]C1CCCC1
DOCKED: REMARK SMILES IDX 7 1 8 2 6 3 9 5 10 6 11 7 12 8 13 10 22 11 14 12 21 13 15 14
DOCKED: REMARK SMILES IDX 20 15 16 16 19 17 17 18 18 19 5 20 23 21 24 22 25 23 26 24
DOCKED: REMARK SMILES IDX 27 25 30 26 28 27 29 28 4 29 2 30 1 31 3 32
DOCKED: REMARK H PARENT 6 4 12 9
DOCKED: USER                              x       y       z     vdW  Elec       q    Type
DOCKED: USER                           _______ _______ _______ _____ _____    ______ ____
DOCKED: ROOT
DOCKED: ATOM      1  C   UNL     1     141.720  74.671 220.748 -0.19 -0.07    +0.242 C  
DOCKED: ATOM      2  O   UNL     1     142.758  75.274 220.357 -0.23 +0.13    -0.273 OA 
DOCKED: ATOM      3  N   UNL     1     140.640  75.400 221.351 -0.16 +0.08    -0.346 N  
DOCKED: ATOM      4  H   UNL     1     139.788  74.862 221.633 +0.04 -0.03    +0.164 HD 
DOCKED: ENDROOT
DOCKED: BRANCH   1   5
DOCKED: ATOM      5  C   UNL     1     141.608  73.194 220.549 -0.14 -0.04    +0.246 C  
DOCKED: BRANCH   5   6
DOCKED: ATOM      6  N   UNL     1     141.452  72.549 221.849 -0.16 +0.01    -0.240 NA 
DOCKED: BRANCH   6   7
DOCKED: ATOM      7  C   UNL     1     140.391  72.533 222.611 -0.19 -0.02    +0.233 C  
DOCKED: BRANCH   7   8
DOCKED: ATOM      8  O   UNL     1     139.391  73.470 222.362 -0.51 +0.11    -0.492 OA 
DOCKED: ATOM      9  H   UNL     1     139.242  74.256 222.984 -0.47 -0.09    +0.295 HD 
DOCKED: ENDBRANCH   7   8
DOCKED: BRANCH   7  10
DOCKED: ATOM     10  C   UNL     1     140.198  71.577 223.735 -0.34 -0.02    +0.125 A  
DOCKED: ATOM     11  N   UNL     1     140.686  71.847 224.978 -0.29 +0.03    -0.243 NA 
DOCKED: ATOM     12  C   UNL     1     139.542  70.354 223.508 -0.29 -0.01    +0.035 A  
DOCKED: ATOM     13  C   UNL     1     140.549  70.981 226.019 -0.55 -0.01    +0.071 A  
DOCKED: ATOM     14  C   UNL     1     139.385  69.444 224.556 -0.35 -0.00    +0.013 A  
DOCKED: ATOM     15  C   UNL     1     141.064  71.310 227.278 -0.72 -0.00    +0.029 A  
DOCKED: ATOM     16  C   UNL     1     139.887  69.750 225.826 -0.47 -0.00    +0.000 A  
DOCKED: ATOM     17  C   UNL     1     140.923  70.417 228.345 -0.56 -0.00    +0.002 A  
DOCKED: ATOM     18  C   UNL     1     139.750  68.858 226.901 -0.57 -0.00    +0.010 A  
DOCKED: ATOM     19  C   UNL     1     140.268  69.194 228.157 -0.64 -0.00    +0.001 A  
DOCKED: ENDBRANCH   7  10
DOCKED: ENDBRANCH   6   7
DOCKED: ENDBRANCH   5   6
DOCKED: ENDBRANCH   1   5
DOCKED: BRANCH   3  20
DOCKED: ATOM     20  C   UNL     1     140.664  76.860 221.491 -0.29 -0.05    +0.130 C  
DOCKED: BRANCH  20  21
DOCKED: ATOM     21  C   UNL     1     139.586  77.369 222.420 -0.30 -0.02    +0.074 C  
DOCKED: ATOM     22  O   UNL     1     138.812  76.542 222.974 -0.19 +0.06    -0.318 OA 
DOCKED: BRANCH  21  23
DOCKED: ATOM     23  N   UNL     1     139.417  78.772 222.658 +0.03 +0.13    -0.649 NA 
DOCKED: BRANCH  23  24
DOCKED: ATOM     24  C   UNL     1     140.323  79.560 223.488 -0.41 +0.02    -0.107 C  
DOCKED: ATOM     25  C   UNL     1     140.436  80.995 222.991 -0.41 +0.00    -0.016 C  
DOCKED: ATOM     26  C   UNL     1     141.735  79.011 223.415 -0.61 +0.01    -0.016 C  
DOCKED: ATOM     27  C   UNL     1     141.845  81.451 223.354 -0.55 +0.00    -0.001 C  
DOCKED: ATOM     28  C   UNL     1     142.641  80.196 223.711 -0.65 +0.00    -0.001 C  
DOCKED: ENDBRANCH  23  24
DOCKED: ENDBRANCH  21  23
DOCKED: ENDBRANCH  20  21
DOCKED: BRANCH  20  29
DOCKED: ATOM     29  C   UNL     1     140.650  77.570 220.111 -0.18 -0.01    +0.034 C  
DOCKED: BRANCH  29  30
DOCKED: ATOM     30  C   UNL     1     141.893  78.405 219.690 -0.26 +0.01    -0.015 C  
DOCKED: ATOM     31  C   UNL     1     142.516  77.950 218.362 -0.32 -0.01    +0.007 C  
DOCKED: ATOM     32  C   UNL     1     141.657  79.920 219.696 -0.29 -0.00    +0.007 C  
DOCKED: ENDBRANCH  29  30
DOCKED: ENDBRANCH  20  29
DOCKED: ENDBRANCH   3  20
DOCKED: TORSDOF 11
DOCKED: TER
DOCKED: ENDMDL
________________________________________________________________________________


    FINAL DOCKED STATE:
    ________________________


Run:   13 / 20
Time taken for this run:   0.070s

DOCKED: MODEL        13
DOCKED: USER    Run = 13
DOCKED: USER
DOCKED: USER    Estimated Free Energy of Binding    =  -7.55 kcal/mol  [=(1)+(2)+(3)-(4)]
DOCKED: USER
DOCKED: USER    (1) Final Intermolecular Energy     = -10.83 kcal/mol
DOCKED: USER        vdW + Hbond + desolv Energy     = -11.05 kcal/mol
DOCKED: USER        Electrostatic Energy            =  +0.22 kcal/mol
DOCKED: USER        Moving Ligand-Fixed Receptor    = -10.83 kcal/mol
DOCKED: USER        Moving Ligand-Moving Receptor   =  +0.00 kcal/mol
DOCKED: USER    (2) Final Total Internal Energy     =  -3.86 kcal/mol
DOCKED: USER    (3) Torsional Free Energy           =  +3.28 kcal/mol
DOCKED: USER    (4) Unbound System's Energy         =  -3.86 kcal/mol
DOCKED: USER
DOCKED: USER
DOCKED: REMARK SMILES CC(C)C[C@H](NC(=O)C/N=C(/O)c1ccc2ccccc2n1)C(=O)[N-]C1CCCC1
DOCKED: REMARK SMILES IDX 7 1 8 2 6 3 9 5 10 6 11 7 12 8 13 10 22 11 14 12 21 13 15 14
DOCKED: REMARK SMILES IDX 20 15 16 16 19 17 17 18 18 19 5 20 23 21 24 22 25 23 26 24
DOCKED: REMARK SMILES IDX 27 25 30 26 28 27 29 28 4 29 2 30 1 31 3 32
DOCKED: REMARK H PARENT 6 4 12 9
DOCKED: USER                              x       y       z     vdW  Elec       q    Type
DOCKED: USER                           _______ _______ _______ _____ _____    ______ ____
DOCKED: ROOT
DOCKED: ATOM      1  C   UNL     1     141.884  73.190 220.982 -0.15 -0.03    +0.242 C  
DOCKED: ATOM      2  O   UNL     1     143.082  73.572 221.083 -0.15 +0.05    -0.273 OA 
DOCKED: ATOM      3  N   UNL     1     140.812  74.144 220.996 -0.12 +0.06    -0.346 N  
DOCKED: ATOM      4  H   UNL     1     139.838  73.783 220.880 +0.04 -0.03    +0.164 HD 
DOCKED: ENDROOT
DOCKED: BRANCH   1   5
DOCKED: ATOM      5  C   UNL     1     141.588  71.734 220.813 -0.12 -0.03    +0.246 C  
DOCKED: BRANCH   5   6
DOCKED: ATOM      6  N   UNL     1     140.194  71.488 221.171 -0.09 +0.04    -0.240 NA 
DOCKED: BRANCH   6   7
DOCKED: ATOM      7  C   UNL     1     139.569  71.867 222.252 -0.19 -0.04    +0.233 C  
DOCKED: BRANCH   7   8
DOCKED: ATOM      8  O   UNL     1     138.704  72.956 222.162 -0.10 +0.14    -0.492 OA 
DOCKED: ATOM      9  H   UNL     1     138.763  73.728 222.816 -0.49 -0.15    +0.295 HD 
DOCKED: ENDBRANCH   7   8
DOCKED: BRANCH   7  10
DOCKED: ATOM     10  C   UNL     1     139.737  71.208 223.576 -0.31 -0.02    +0.125 A  
DOCKED: ATOM     11  N   UNL     1     140.281  71.878 224.631 -0.26 +0.04    -0.243 NA 
DOCKED: ATOM     12  C   UNL     1     139.372  69.860 223.738 -0.27 -0.01    +0.035 A  
DOCKED: ATOM     13  C   UNL     1     140.472  71.295 225.845 -0.53 -0.01    +0.071 A  
DOCKED: ATOM     14  C   UNL     1     139.555  69.232 224.972 -0.39 -0.00    +0.013 A  
DOCKED: ATOM     15  C   UNL     1     141.030  72.031 226.897 -0.73 -0.01    +0.029 A  
DOCKED: ATOM     16  C   UNL     1     140.108  69.946 226.042 -0.51 -0.00    +0.000 A  
DOCKED: ATOM     17  C   UNL     1     141.227  71.427 228.143 -0.72 -0.00    +0.002 A  
DOCKED: ATOM     18  C   UNL     1     140.309  69.347 227.295 -0.60 -0.00    +0.010 A  
DOCKED: ATOM     19  C   UNL     1     140.867  70.089 228.341 -0.57 -0.00    +0.001 A  
DOCKED: ENDBRANCH   7  10
DOCKED: ENDBRANCH   6   7
DOCKED: ENDBRANCH   5   6
DOCKED: ENDBRANCH   1   5
DOCKED: BRANCH   3  20
DOCKED: ATOM     20  C   UNL     1     141.054  75.590 221.074 -0.27 -0.04    +0.130 C  
DOCKED: BRANCH  20  21
DOCKED: ATOM     21  C   UNL     1     140.147  76.274 222.070 -0.34 -0.02    +0.074 C  
DOCKED: ATOM     22  O   UNL     1     139.299  75.587 222.702 -0.44 +0.06    -0.318 OA 
DOCKED: BRANCH  21  23
DOCKED: ATOM     23  N   UNL     1     140.219  77.689 222.284 -0.00 +0.18    -0.649 NA 
DOCKED: BRANCH  23  24
DOCKED: ATOM     24  C   UNL     1     141.469  78.402 222.525 -0.40 +0.05    -0.107 C  
DOCKED: ATOM     25  C   UNL     1     141.525  78.981 223.932 -0.58 +0.00    -0.016 C  
DOCKED: ATOM     26  C   UNL     1     141.589  79.603 221.605 -0.41 +0.01    -0.016 C  
DOCKED: ATOM     27  C   UNL     1     142.373  80.244 223.829 -0.66 +0.00    -0.001 C  
DOCKED: ATOM     28  C   UNL     1     142.488  80.583 222.343 -0.56 +0.00    -0.001 C  
DOCKED: ENDBRANCH  23  24
DOCKED: ENDBRANCH  21  23
DOCKED: ENDBRANCH  20  21
DOCKED: BRANCH  20  29
DOCKED: ATOM     29  C   UNL     1     141.015  76.255 219.672 -0.16 -0.01    +0.034 C  
DOCKED: BRANCH  29  30
DOCKED: ATOM     30  C   UNL     1     142.361  76.568 218.958 -0.29 +0.01    -0.015 C  
DOCKED: ATOM     31  C   UNL     1     142.511  78.042 218.552 -0.31 -0.01    +0.007 C  
DOCKED: ATOM     32  C   UNL     1     143.598  76.080 219.721 -0.39 -0.00    +0.007 C  
DOCKED: ENDBRANCH  29  30
DOCKED: ENDBRANCH  20  29
DOCKED: ENDBRANCH   3  20
DOCKED: TORSDOF 11
DOCKED: TER
DOCKED: ENDMDL
________________________________________________________________________________


    FINAL DOCKED STATE:
    ________________________


Run:   14 / 20
Time taken for this run:   0.070s

DOCKED: MODEL        14
DOCKED: USER    Run = 14
DOCKED: USER
DOCKED: USER    Estimated Free Energy of Binding    =  -7.64 kcal/mol  [=(1)+(2)+(3)-(4)]
DOCKED: USER
DOCKED: USER    (1) Final Intermolecular Energy     = -10.93 kcal/mol
DOCKED: USER        vdW + Hbond + desolv Energy     = -11.12 kcal/mol
DOCKED: USER        Electrostatic Energy            =  +0.19 kcal/mol
DOCKED: USER        Moving Ligand-Fixed Receptor    = -10.93 kcal/mol
DOCKED: USER        Moving Ligand-Moving Receptor   =  +0.00 kcal/mol
DOCKED: USER    (2) Final Total Internal Energy     =  -3.94 kcal/mol
DOCKED: USER    (3) Torsional Free Energy           =  +3.28 kcal/mol
DOCKED: USER    (4) Unbound System's Energy         =  -3.94 kcal/mol
DOCKED: USER
DOCKED: USER
DOCKED: REMARK SMILES CC(C)C[C@H](NC(=O)C/N=C(/O)c1ccc2ccccc2n1)C(=O)[N-]C1CCCC1
DOCKED: REMARK SMILES IDX 7 1 8 2 6 3 9 5 10 6 11 7 12 8 13 10 22 11 14 12 21 13 15 14
DOCKED: REMARK SMILES IDX 20 15 16 16 19 17 17 18 18 19 5 20 23 21 24 22 25 23 26 24
DOCKED: REMARK SMILES IDX 27 25 30 26 28 27 29 28 4 29 2 30 1 31 3 32
DOCKED: REMARK H PARENT 6 4 12 9
DOCKED: USER                              x       y       z     vdW  Elec       q    Type
DOCKED: USER                           _______ _______ _______ _____ _____    ______ ____
DOCKED: ROOT
DOCKED: ATOM      1  C   UNL     1     142.061  73.523 221.076 -0.08 -0.04    +0.242 C  
DOCKED: ATOM      2  O   UNL     1     143.210  73.988 220.839 -0.24 +0.08    -0.273 OA 
DOCKED: ATOM      3  N   UNL     1     140.965  74.405 221.360 -0.16 +0.05    -0.346 N  
DOCKED: ATOM      4  H   UNL     1     140.025  73.976 221.522 +0.04 -0.02    +0.164 HD 
DOCKED: ENDROOT
DOCKED: BRANCH   1   5
DOCKED: ATOM      5  C   UNL     1     141.840  72.046 221.026 -0.14 -0.03    +0.246 C  
DOCKED: BRANCH   5   6
DOCKED: ATOM      6  N   UNL     1     140.431  71.767 221.286 -0.11 +0.03    -0.240 NA 
DOCKED: BRANCH   6   7
DOCKED: ATOM      7  C   UNL     1     139.746  72.048 222.362 -0.21 -0.04    +0.233 C  
DOCKED: BRANCH   7   8
DOCKED: ATOM      8  O   UNL     1     138.858  73.120 222.312 -0.15 +0.15    -0.492 OA 
DOCKED: ATOM      9  H   UNL     1     138.830  73.814 223.050 -0.49 -0.18    +0.295 HD 
DOCKED: ENDBRANCH   7   8
DOCKED: BRANCH   7  10
DOCKED: ATOM     10  C   UNL     1     139.872  71.296 223.639 -0.32 -0.02    +0.125 A  
DOCKED: ATOM     11  N   UNL     1     140.367  71.892 224.761 -0.26 +0.04    -0.243 NA 
DOCKED: ATOM     12  C   UNL     1     139.520  69.936 223.688 -0.27 -0.01    +0.035 A  
DOCKED: ATOM     13  C   UNL     1     140.518  71.224 225.936 -0.55 -0.01    +0.071 A  
DOCKED: ATOM     14  C   UNL     1     139.664  69.221 224.879 -0.37 -0.00    +0.013 A  
DOCKED: ATOM     15  C   UNL     1     141.025  71.886 227.060 -0.77 -0.01    +0.029 A  
DOCKED: ATOM     16  C   UNL     1     140.165  69.860 226.019 -0.50 -0.00    +0.000 A  
DOCKED: ATOM     17  C   UNL     1     141.183  71.195 228.266 -0.67 -0.00    +0.002 A  
DOCKED: ATOM     18  C   UNL     1     140.326  69.173 227.232 -0.60 -0.00    +0.010 A  
DOCKED: ATOM     19  C   UNL     1     140.834  69.842 228.351 -0.57 -0.00    +0.001 A  
DOCKED: ENDBRANCH   7  10
DOCKED: ENDBRANCH   6   7
DOCKED: ENDBRANCH   5   6
DOCKED: ENDBRANCH   1   5
DOCKED: BRANCH   3  20
DOCKED: ATOM     20  C   UNL     1     141.110  75.865 221.338 -0.28 -0.04    +0.130 C  
DOCKED: BRANCH  20  21
DOCKED: ATOM     21  C   UNL     1     140.073  76.562 222.189 -0.34 -0.02    +0.074 C  
DOCKED: ATOM     22  O   UNL     1     139.169  75.877 222.739 -0.34 +0.06    -0.318 OA 
DOCKED: BRANCH  21  23
DOCKED: ATOM     23  N   UNL     1     140.089  77.985 222.355 +0.01 +0.17    -0.649 NA 
DOCKED: BRANCH  23  24
DOCKED: ATOM     24  C   UNL     1     141.076  78.688 223.168 -0.46 +0.03    -0.107 C  
DOCKED: ATOM     25  C   UNL     1     140.534  80.009 223.694 -0.46 +0.00    -0.016 C  
DOCKED: ATOM     26  C   UNL     1     142.287  79.067 222.336 -0.45 +0.01    -0.016 C  
DOCKED: ATOM     27  C   UNL     1     141.739  80.936 223.812 -0.59 +0.00    -0.001 C  
DOCKED: ATOM     28  C   UNL     1     142.877  80.289 223.024 -0.66 +0.00    -0.001 C  
DOCKED: ENDBRANCH  23  24
DOCKED: ENDBRANCH  21  23
DOCKED: ENDBRANCH  20  21
DOCKED: BRANCH  20  29
DOCKED: ATOM     29  C   UNL     1     141.162  76.415 219.887 -0.19 -0.01    +0.034 C  
DOCKED: BRANCH  29  30
DOCKED: ATOM     30  C   UNL     1     142.448  77.151 219.416 -0.33 +0.01    -0.015 C  
DOCKED: ATOM     31  C   UNL     1     143.326  76.313 218.475 -0.32 -0.00    +0.007 C  
DOCKED: ATOM     32  C   UNL     1     142.188  78.544 218.828 -0.29 -0.00    +0.007 C  
DOCKED: ENDBRANCH  29  30
DOCKED: ENDBRANCH  20  29
DOCKED: ENDBRANCH   3  20
DOCKED: TORSDOF 11
DOCKED: TER
DOCKED: ENDMDL
________________________________________________________________________________


    FINAL DOCKED STATE:
    ________________________


Run:   15 / 20
Time taken for this run:   0.070s

DOCKED: MODEL        15
DOCKED: USER    Run = 15
DOCKED: USER
DOCKED: USER    Estimated Free Energy of Binding    =  -6.71 kcal/mol  [=(1)+(2)+(3)-(4)]
DOCKED: USER
DOCKED: USER    (1) Final Intermolecular Energy     =  -9.99 kcal/mol
DOCKED: USER        vdW + Hbond + desolv Energy     = -10.21 kcal/mol
DOCKED: USER        Electrostatic Energy            =  +0.22 kcal/mol
DOCKED: USER        Moving Ligand-Fixed Receptor    =  -9.99 kcal/mol
DOCKED: USER        Moving Ligand-Moving Receptor   =  +0.00 kcal/mol
DOCKED: USER    (2) Final Total Internal Energy     =  -4.01 kcal/mol
DOCKED: USER    (3) Torsional Free Energy           =  +3.28 kcal/mol
DOCKED: USER    (4) Unbound System's Energy         =  -4.01 kcal/mol
DOCKED: USER
DOCKED: USER
DOCKED: REMARK SMILES CC(C)C[C@H](NC(=O)C/N=C(/O)c1ccc2ccccc2n1)C(=O)[N-]C1CCCC1
DOCKED: REMARK SMILES IDX 7 1 8 2 6 3 9 5 10 6 11 7 12 8 13 10 22 11 14 12 21 13 15 14
DOCKED: REMARK SMILES IDX 20 15 16 16 19 17 17 18 18 19 5 20 23 21 24 22 25 23 26 24
DOCKED: REMARK SMILES IDX 27 25 30 26 28 27 29 28 4 29 2 30 1 31 3 32
DOCKED: REMARK H PARENT 6 4 12 9
DOCKED: USER                              x       y       z     vdW  Elec       q    Type
DOCKED: USER                           _______ _______ _______ _____ _____    ______ ____
DOCKED: ROOT
DOCKED: ATOM      1  C   UNL     1     141.689  73.188 221.200 -0.15 -0.03    +0.242 C  
DOCKED: ATOM      2  O   UNL     1     142.916  73.480 221.174 -0.13 +0.05    -0.273 OA 
DOCKED: ATOM      3  N   UNL     1     140.707  74.200 221.470 -0.16 +0.04    -0.346 N  
DOCKED: ATOM      4  H   UNL     1     139.700  73.917 221.453 +0.04 -0.03    +0.164 HD 
DOCKED: ENDROOT
DOCKED: BRANCH   1   5
DOCKED: ATOM      5  C   UNL     1     141.259  71.786 220.914 -0.12 -0.03    +0.246 C  
DOCKED: BRANCH   5   6
DOCKED: ATOM      6  N   UNL     1     139.837  71.653 221.215 -0.08 +0.04    -0.240 NA 
DOCKED: BRANCH   6   7
DOCKED: ATOM      7  C   UNL     1     139.225  71.956 222.327 -0.18 -0.05    +0.233 C  
DOCKED: BRANCH   7   8
DOCKED: ATOM      8  O   UNL     1     138.315  73.012 222.308 -0.07 +0.16    -0.492 OA 
DOCKED: ATOM      9  H   UNL     1     138.546  73.911 222.714 -0.50 -0.14    +0.295 HD 
DOCKED: ENDBRANCH   7   8
DOCKED: BRANCH   7  10
DOCKED: ATOM     10  C   UNL     1     139.453  71.246 223.615 -0.30 -0.03    +0.125 A  
DOCKED: ATOM     11  N   UNL     1     140.079  71.863 224.656 -0.20 +0.05    -0.243 NA 
DOCKED: ATOM     12  C   UNL     1     139.059  69.903 223.752 -0.28 -0.01    +0.035 A  
DOCKED: ATOM     13  C   UNL     1     140.326  71.231 225.836 -0.52 -0.01    +0.071 A  
DOCKED: ATOM     14  C   UNL     1     139.299  69.227 224.950 -0.39 -0.00    +0.013 A  
DOCKED: ATOM     15  C   UNL     1     140.968  71.913 226.876 -0.73 -0.01    +0.029 A  
DOCKED: ATOM     16  C   UNL     1     139.935  69.887 226.008 -0.49 -0.00    +0.000 A  
DOCKED: ATOM     17  C   UNL     1     141.222  71.260 228.087 -0.69 -0.00    +0.002 A  
DOCKED: ATOM     18  C   UNL     1     140.194  69.237 227.225 -0.59 -0.00    +0.010 A  
DOCKED: ATOM     19  C   UNL     1     140.836  69.926 228.261 -0.58 -0.00    +0.001 A  
DOCKED: ENDBRANCH   7  10
DOCKED: ENDBRANCH   6   7
DOCKED: ENDBRANCH   5   6
DOCKED: ENDBRANCH   1   5
DOCKED: BRANCH   3  20
DOCKED: ATOM     20  C   UNL     1     141.070  75.607 221.673 -0.28 -0.04    +0.130 C  
DOCKED: BRANCH  20  21
DOCKED: ATOM     21  C   UNL     1     139.908  76.438 222.165 -0.34 -0.02    +0.074 C  
DOCKED: ATOM     22  O   UNL     1     138.736  75.988 222.044 -0.20 +0.07    -0.318 OA 
DOCKED: BRANCH  21  23
DOCKED: ATOM     23  N   UNL     1     140.116  77.734 222.739 +0.01 +0.15    -0.649 NA 
DOCKED: BRANCH  23  24
DOCKED: ATOM     24  C   UNL     1     141.311  78.536 222.499 -0.42 +0.04    -0.107 C  
DOCKED: ATOM     25  C   UNL     1     141.852  79.142 223.787 -0.61 +0.00    -0.016 C  
DOCKED: ATOM     26  C   UNL     1     140.992  79.726 221.613 -0.35 +0.01    -0.016 C  
DOCKED: ATOM     27  C   UNL     1     142.508  80.458 223.384 -0.68 +0.00    -0.001 C  
DOCKED: ATOM     28  C   UNL     1     142.031  80.779 221.968 -0.49 +0.00    -0.001 C  
DOCKED: ENDBRANCH  23  24
DOCKED: ENDBRANCH  21  23
DOCKED: ENDBRANCH  20  21
DOCKED: BRANCH  20  29
DOCKED: ATOM     29  C   UNL     1     141.749  76.212 220.415 -0.27 -0.02    +0.034 C  
DOCKED: BRANCH  29  30
DOCKED: ATOM     30  C   UNL     1     140.902  77.112 219.471 -0.16 +0.01    -0.015 C  
DOCKED: ATOM     31  C   UNL     1     141.745  78.071 218.618 -0.24 -0.00    +0.007 C  
DOCKED: ATOM     32  C   UNL     1     139.905  76.336 218.602 -0.05 -0.00    +0.007 C  
DOCKED: ENDBRANCH  29  30
DOCKED: ENDBRANCH  20  29
DOCKED: ENDBRANCH   3  20
DOCKED: TORSDOF 11
DOCKED: TER
DOCKED: ENDMDL
________________________________________________________________________________


    FINAL DOCKED STATE:
    ________________________


Run:   16 / 20
Time taken for this run:   0.070s

DOCKED: MODEL        16
DOCKED: USER    Run = 16
DOCKED: USER
DOCKED: USER    Estimated Free Energy of Binding    =  -7.51 kcal/mol  [=(1)+(2)+(3)-(4)]
DOCKED: USER
DOCKED: USER    (1) Final Intermolecular Energy     = -10.79 kcal/mol
DOCKED: USER        vdW + Hbond + desolv Energy     = -10.99 kcal/mol
DOCKED: USER        Electrostatic Energy            =  +0.20 kcal/mol
DOCKED: USER        Moving Ligand-Fixed Receptor    = -10.79 kcal/mol
DOCKED: USER        Moving Ligand-Moving Receptor   =  +0.00 kcal/mol
DOCKED: USER    (2) Final Total Internal Energy     =  -3.94 kcal/mol
DOCKED: USER    (3) Torsional Free Energy           =  +3.28 kcal/mol
DOCKED: USER    (4) Unbound System's Energy         =  -3.94 kcal/mol
DOCKED: USER
DOCKED: USER
DOCKED: REMARK SMILES CC(C)C[C@H](NC(=O)C/N=C(/O)c1ccc2ccccc2n1)C(=O)[N-]C1CCCC1
DOCKED: REMARK SMILES IDX 7 1 8 2 6 3 9 5 10 6 11 7 12 8 13 10 22 11 14 12 21 13 15 14
DOCKED: REMARK SMILES IDX 20 15 16 16 19 17 17 18 18 19 5 20 23 21 24 22 25 23 26 24
DOCKED: REMARK SMILES IDX 27 25 30 26 28 27 29 28 4 29 2 30 1 31 3 32
DOCKED: REMARK H PARENT 6 4 12 9
DOCKED: USER                              x       y       z     vdW  Elec       q    Type
DOCKED: USER                           _______ _______ _______ _____ _____    ______ ____
DOCKED: ROOT
DOCKED: ATOM      1  C   UNL     1     141.916  73.202 220.918 -0.16 -0.04    +0.242 C  
DOCKED: ATOM      2  O   UNL     1     143.095  73.586 220.685 -0.22 +0.06    -0.273 OA 
DOCKED: ATOM      3  N   UNL     1     140.870  74.159 221.141 -0.13 +0.06    -0.346 N  
DOCKED: ATOM      4  H   UNL     1     139.903  73.795 221.302 +0.04 -0.03    +0.164 HD 
DOCKED: ENDROOT
DOCKED: BRANCH   1   5
DOCKED: ATOM      5  C   UNL     1     141.606  71.740 220.926 -0.12 -0.03    +0.246 C  
DOCKED: BRANCH   5   6
DOCKED: ATOM      6  N   UNL     1     140.195  71.554 221.253 -0.09 +0.04    -0.240 NA 
DOCKED: BRANCH   6   7
DOCKED: ATOM      7  C   UNL     1     139.578  71.895 222.351 -0.20 -0.04    +0.233 C  
DOCKED: BRANCH   7   8
DOCKED: ATOM      8  O   UNL     1     138.738  73.007 222.314 -0.12 +0.15    -0.492 OA 
DOCKED: ATOM      9  H   UNL     1     138.785  73.724 223.027 -0.49 -0.18    +0.295 HD 
DOCKED: ENDBRANCH   7   8
DOCKED: BRANCH   7  10
DOCKED: ATOM     10  C   UNL     1     139.731  71.170 223.642 -0.32 -0.02    +0.125 A  
DOCKED: ATOM     11  N   UNL     1     140.250  71.791 224.739 -0.26 +0.05    -0.243 NA 
DOCKED: ATOM     12  C   UNL     1     139.380  69.812 223.728 -0.27 -0.01    +0.035 A  
DOCKED: ATOM     13  C   UNL     1     140.427  71.149 225.925 -0.54 -0.01    +0.071 A  
DOCKED: ATOM     14  C   UNL     1     139.549  69.124 224.931 -0.39 -0.00    +0.013 A  
DOCKED: ATOM     15  C   UNL     1     140.958  71.835 227.023 -0.75 -0.01    +0.029 A  
DOCKED: ATOM     16  C   UNL     1     140.075  69.787 226.046 -0.50 -0.00    +0.000 A  
DOCKED: ATOM     17  C   UNL     1     141.141  71.170 228.240 -0.68 -0.00    +0.002 A  
DOCKED: ATOM     18  C   UNL     1     140.262  69.126 227.269 -0.61 -0.00    +0.010 A  
DOCKED: ATOM     19  C   UNL     1     140.794  69.819 228.363 -0.56 -0.00    +0.001 A  
DOCKED: ENDBRANCH   7  10
DOCKED: ENDBRANCH   6   7
DOCKED: ENDBRANCH   5   6
DOCKED: ENDBRANCH   1   5
DOCKED: BRANCH   3  20
DOCKED: ATOM     20  C   UNL     1     141.103  75.606 221.059 -0.26 -0.04    +0.130 C  
DOCKED: BRANCH  20  21
DOCKED: ATOM     21  C   UNL     1     140.198  76.390 221.981 -0.35 -0.02    +0.074 C  
DOCKED: ATOM     22  O   UNL     1     139.386  75.770 222.719 -0.41 +0.05    -0.318 OA 
DOCKED: BRANCH  21  23
DOCKED: ATOM     23  N   UNL     1     140.231  77.822 222.006 +0.02 +0.19    -0.649 NA 
DOCKED: BRANCH  23  24
DOCKED: ATOM     24  C   UNL     1     140.985  78.591 222.992 -0.45 +0.03    -0.107 C  
DOCKED: ATOM     25  C   UNL     1     140.237  79.845 223.420 -0.46 +0.00    -0.016 C  
DOCKED: ATOM     26  C   UNL     1     142.287  79.097 222.399 -0.47 +0.01    -0.016 C  
DOCKED: ATOM     27  C   UNL     1     141.310  80.873 223.764 -0.52 +0.00    -0.001 C  
DOCKED: ATOM     28  C   UNL     1     142.627  80.349 223.192 -0.67 +0.00    -0.001 C  
DOCKED: ENDBRANCH  23  24
DOCKED: ENDBRANCH  21  23
DOCKED: ENDBRANCH  20  21
DOCKED: BRANCH  20  29
DOCKED: ATOM     29  C   UNL     1     141.052  76.114 219.594 -0.16 -0.01    +0.034 C  
DOCKED: BRANCH  29  30
DOCKED: ATOM     30  C   UNL     1     142.307  76.820 219.005 -0.29 +0.01    -0.015 C  
DOCKED: ATOM     31  C   UNL     1     142.189  78.350 218.969 -0.29 -0.00    +0.007 C  
DOCKED: ATOM     32  C   UNL     1     143.626  76.386 219.654 -0.34 -0.01    +0.007 C  
DOCKED: ENDBRANCH  29  30
DOCKED: ENDBRANCH  20  29
DOCKED: ENDBRANCH   3  20
DOCKED: TORSDOF 11
DOCKED: TER
DOCKED: ENDMDL
________________________________________________________________________________


    FINAL DOCKED STATE:
    ________________________


Run:   17 / 20
Time taken for this run:   0.070s

DOCKED: MODEL        17
DOCKED: USER    Run = 17
DOCKED: USER
DOCKED: USER    Estimated Free Energy of Binding    =  -7.24 kcal/mol  [=(1)+(2)+(3)-(4)]
DOCKED: USER
DOCKED: USER    (1) Final Intermolecular Energy     = -10.53 kcal/mol
DOCKED: USER        vdW + Hbond + desolv Energy     = -10.63 kcal/mol
DOCKED: USER        Electrostatic Energy            =  +0.11 kcal/mol
DOCKED: USER        Moving Ligand-Fixed Receptor    = -10.53 kcal/mol
DOCKED: USER        Moving Ligand-Moving Receptor   =  +0.00 kcal/mol
DOCKED: USER    (2) Final Total Internal Energy     =  -3.39 kcal/mol
DOCKED: USER    (3) Torsional Free Energy           =  +3.28 kcal/mol
DOCKED: USER    (4) Unbound System's Energy         =  -3.39 kcal/mol
DOCKED: USER
DOCKED: USER
DOCKED: REMARK SMILES CC(C)C[C@H](NC(=O)C/N=C(/O)c1ccc2ccccc2n1)C(=O)[N-]C1CCCC1
DOCKED: REMARK SMILES IDX 7 1 8 2 6 3 9 5 10 6 11 7 12 8 13 10 22 11 14 12 21 13 15 14
DOCKED: REMARK SMILES IDX 20 15 16 16 19 17 17 18 18 19 5 20 23 21 24 22 25 23 26 24
DOCKED: REMARK SMILES IDX 27 25 30 26 28 27 29 28 4 29 2 30 1 31 3 32
DOCKED: REMARK H PARENT 6 4 12 9
DOCKED: USER                              x       y       z     vdW  Elec       q    Type
DOCKED: USER                           _______ _______ _______ _____ _____    ______ ____
DOCKED: ROOT
DOCKED: ATOM      1  C   UNL     1     136.782  73.291 221.381 -0.06 -0.05    +0.242 C  
DOCKED: ATOM      2  O   UNL     1     135.820  73.650 220.649 -0.01 +0.05    -0.273 OA 
DOCKED: ATOM      3  N   UNL     1     137.555  74.266 222.097 -0.06 +0.11    -0.346 N  
DOCKED: ATOM      4  H   UNL     1     138.325  73.919 222.715 -0.54 -0.08    +0.164 HD 
DOCKED: ENDROOT
DOCKED: BRANCH   1   5
DOCKED: ATOM      5  C   UNL     1     137.094  71.836 221.526 -0.05 -0.05    +0.246 C  
DOCKED: BRANCH   5   6
DOCKED: ATOM      6  N   UNL     1     138.538  71.670 221.665 -0.07 +0.05    -0.240 NA 
DOCKED: BRANCH   6   7
DOCKED: ATOM      7  C   UNL     1     139.278  71.956 222.701 -0.19 -0.05    +0.233 C  
DOCKED: BRANCH   7   8
DOCKED: ATOM      8  O   UNL     1     139.957  73.173 222.707 -0.62 +0.04    -0.492 OA 
DOCKED: ATOM      9  H   UNL     1     139.591  73.976 223.203 -0.42 -0.03    +0.295 HD 
DOCKED: ENDBRANCH   7   8
DOCKED: BRANCH   7  10
DOCKED: ATOM     10  C   UNL     1     139.447  71.050 223.870 -0.31 -0.03    +0.125 A  
DOCKED: ATOM     11  N   UNL     1     140.057  71.480 225.010 -0.30 +0.05    -0.243 NA 
DOCKED: ATOM     12  C   UNL     1     139.012  69.715 223.789 -0.27 -0.01    +0.035 A  
DOCKED: ATOM     13  C   UNL     1     140.249  70.668 226.085 -0.51 -0.01    +0.071 A  
DOCKED: ATOM     14  C   UNL     1     139.195  68.856 224.874 -0.39 -0.00    +0.013 A  
DOCKED: ATOM     15  C   UNL     1     140.876  71.162 227.234 -0.69 -0.00    +0.029 A  
DOCKED: ATOM     16  C   UNL     1     139.816  69.326 226.038 -0.49 -0.00    +0.000 A  
DOCKED: ATOM     17  C   UNL     1     141.075  70.323 228.336 -0.56 -0.00    +0.002 A  
DOCKED: ATOM     18  C   UNL     1     140.019  68.490 227.147 -0.63 -0.00    +0.010 A  
DOCKED: ATOM     19  C   UNL     1     140.647  68.991 228.293 -0.65 -0.00    +0.001 A  
DOCKED: ENDBRANCH   7  10
DOCKED: ENDBRANCH   6   7
DOCKED: ENDBRANCH   5   6
DOCKED: ENDBRANCH   1   5
DOCKED: BRANCH   3  20
DOCKED: ATOM     20  C   UNL     1     137.237  75.698 222.057 -0.18 -0.03    +0.130 C  
DOCKED: BRANCH  20  21
DOCKED: ATOM     21  C   UNL     1     138.376  76.556 222.556 -0.27 -0.02    +0.074 C  
DOCKED: ATOM     22  O   UNL     1     139.468  76.008 222.867 -0.26 +0.05    -0.318 OA 
DOCKED: BRANCH  21  23
DOCKED: ATOM     23  N   UNL     1     138.224  77.973 222.704 +0.01 +0.11    -0.649 NA 
DOCKED: BRANCH  23  24
DOCKED: ATOM     24  C   UNL     1     139.311  78.924 222.495 -0.26 +0.02    -0.107 C  
DOCKED: ATOM     25  C   UNL     1     140.484  78.287 221.763 -0.32 +0.01    -0.016 C  
DOCKED: ATOM     26  C   UNL     1     139.885  79.386 223.822 -0.42 +0.00    -0.016 C  
DOCKED: ATOM     27  C   UNL     1     141.730  79.009 222.264 -0.50 +0.00    -0.001 C  
DOCKED: ATOM     28  C   UNL     1     141.323  79.779 223.520 -0.58 +0.00    -0.001 C  
DOCKED: ENDBRANCH  23  24
DOCKED: ENDBRANCH  21  23
DOCKED: ENDBRANCH  20  21
DOCKED: BRANCH  20  29
DOCKED: ATOM     29  C   UNL     1     135.895  76.009 222.772 -0.20 -0.01    +0.034 C  
DOCKED: BRANCH  29  30
DOCKED: ATOM     30  C   UNL     1     135.660  75.434 224.198 -0.30 +0.00    -0.015 C  
DOCKED: ATOM     31  C   UNL     1     134.611  76.211 225.007 -0.26 -0.00    +0.007 C  
DOCKED: ATOM     32  C   UNL     1     135.368  73.929 224.222 -0.26 -0.00    +0.007 C  
DOCKED: ENDBRANCH  29  30
DOCKED: ENDBRANCH  20  29
DOCKED: ENDBRANCH   3  20
DOCKED: TORSDOF 11
DOCKED: TER
DOCKED: ENDMDL
________________________________________________________________________________


    FINAL DOCKED STATE:
    ________________________


Run:   18 / 20
Time taken for this run:   0.070s

DOCKED: MODEL        18
DOCKED: USER    Run = 18
DOCKED: USER
DOCKED: USER    Estimated Free Energy of Binding    =  -7.61 kcal/mol  [=(1)+(2)+(3)-(4)]
DOCKED: USER
DOCKED: USER    (1) Final Intermolecular Energy     = -10.89 kcal/mol
DOCKED: USER        vdW + Hbond + desolv Energy     = -11.08 kcal/mol
DOCKED: USER        Electrostatic Energy            =  +0.18 kcal/mol
DOCKED: USER        Moving Ligand-Fixed Receptor    = -10.89 kcal/mol
DOCKED: USER        Moving Ligand-Moving Receptor   =  +0.00 kcal/mol
DOCKED: USER    (2) Final Total Internal Energy     =  -3.98 kcal/mol
DOCKED: USER    (3) Torsional Free Energy           =  +3.28 kcal/mol
DOCKED: USER    (4) Unbound System's Energy         =  -3.98 kcal/mol
DOCKED: USER
DOCKED: USER
DOCKED: REMARK SMILES CC(C)C[C@H](NC(=O)C/N=C(/O)c1ccc2ccccc2n1)C(=O)[N-]C1CCCC1
DOCKED: REMARK SMILES IDX 7 1 8 2 6 3 9 5 10 6 11 7 12 8 13 10 22 11 14 12 21 13 15 14
DOCKED: REMARK SMILES IDX 20 15 16 16 19 17 17 18 18 19 5 20 23 21 24 22 25 23 26 24
DOCKED: REMARK SMILES IDX 27 25 30 26 28 27 29 28 4 29 2 30 1 31 3 32
DOCKED: REMARK H PARENT 6 4 12 9
DOCKED: USER                              x       y       z     vdW  Elec       q    Type
DOCKED: USER                           _______ _______ _______ _____ _____    ______ ____
DOCKED: ROOT
DOCKED: ATOM      1  C   UNL     1     141.759  73.087 221.005 -0.16 -0.03    +0.242 C  
DOCKED: ATOM      2  O   UNL     1     142.966  73.431 220.883 -0.21 +0.05    -0.273 OA 
DOCKED: ATOM      3  N   UNL     1     140.743  74.072 221.249 -0.14 +0.05    -0.346 N  
DOCKED: ATOM      4  H   UNL     1     139.752  73.743 221.314 +0.04 -0.03    +0.164 HD 
DOCKED: ENDROOT
DOCKED: BRANCH   1   5
DOCKED: ATOM      5  C   UNL     1     141.384  71.647 220.861 -0.11 -0.03    +0.246 C  
DOCKED: BRANCH   5   6
DOCKED: ATOM      6  N   UNL     1     139.985  71.478 221.240 -0.08 +0.04    -0.240 NA 
DOCKED: BRANCH   6   7
DOCKED: ATOM      7  C   UNL     1     139.414  71.824 222.362 -0.19 -0.05    +0.233 C  
DOCKED: BRANCH   7   8
DOCKED: ATOM      8  O   UNL     1     138.528  72.900 222.342 -0.09 +0.16    -0.492 OA 
DOCKED: ATOM      9  H   UNL     1     138.559  73.618 223.057 -0.48 -0.20    +0.295 HD 
DOCKED: ENDBRANCH   7   8
DOCKED: BRANCH   7  10
DOCKED: ATOM     10  C   UNL     1     139.666  71.141 223.660 -0.31 -0.02    +0.125 A  
DOCKED: ATOM     11  N   UNL     1     140.233  71.807 224.705 -0.25 +0.05    -0.243 NA 
DOCKED: ATOM     12  C   UNL     1     139.358  69.778 223.804 -0.27 -0.01    +0.035 A  
DOCKED: ATOM     13  C   UNL     1     140.500  71.204 225.895 -0.54 -0.01    +0.071 A  
DOCKED: ATOM     14  C   UNL     1     139.619  69.129 225.012 -0.39 -0.00    +0.013 A  
DOCKED: ATOM     15  C   UNL     1     141.078  71.935 226.939 -0.76 -0.01    +0.029 A  
DOCKED: ATOM     16  C   UNL     1     140.194  69.838 226.074 -0.51 -0.00    +0.000 A  
DOCKED: ATOM     17  C   UNL     1     141.353  71.310 228.160 -0.64 -0.00    +0.002 A  
DOCKED: ATOM     18  C   UNL     1     140.473  69.218 227.302 -0.60 -0.00    +0.010 A  
DOCKED: ATOM     19  C   UNL     1     141.051  69.955 228.341 -0.57 -0.00    +0.001 A  
DOCKED: ENDBRANCH   7  10
DOCKED: ENDBRANCH   6   7
DOCKED: ENDBRANCH   5   6
DOCKED: ENDBRANCH   1   5
DOCKED: BRANCH   3  20
DOCKED: ATOM     20  C   UNL     1     141.045  75.506 221.314 -0.28 -0.04    +0.130 C  
DOCKED: BRANCH  20  21
DOCKED: ATOM     21  C   UNL     1     140.064  76.265 222.178 -0.33 -0.02    +0.074 C  
DOCKED: ATOM     22  O   UNL     1     139.126  75.636 222.739 -0.39 +0.06    -0.318 OA 
DOCKED: BRANCH  21  23
DOCKED: ATOM     23  N   UNL     1     140.169  77.684 222.344 -0.01 +0.17    -0.649 NA 
DOCKED: BRANCH  23  24
DOCKED: ATOM     24  C   UNL     1     141.435  78.375 222.564 -0.41 +0.05    -0.107 C  
DOCKED: ATOM     25  C   UNL     1     141.515  78.974 223.962 -0.57 +0.00    -0.016 C  
DOCKED: ATOM     26  C   UNL     1     141.572  79.559 221.625 -0.41 +0.01    -0.016 C  
DOCKED: ATOM     27  C   UNL     1     142.388  80.218 223.832 -0.66 +0.00    -0.001 C  
DOCKED: ATOM     28  C   UNL     1     142.497  80.532 222.340 -0.57 +0.00    -0.001 C  
DOCKED: ENDBRANCH  23  24
DOCKED: ENDBRANCH  21  23
DOCKED: ENDBRANCH  20  21
DOCKED: BRANCH  20  29
DOCKED: ATOM     29  C   UNL     1     141.202  76.125 219.900 -0.19 -0.01    +0.034 C  
DOCKED: BRANCH  29  30
DOCKED: ATOM     30  C   UNL     1     142.522  76.871 219.554 -0.34 +0.01    -0.015 C  
DOCKED: ATOM     31  C   UNL     1     143.777  76.000 219.710 -0.34 -0.00    +0.007 C  
DOCKED: ATOM     32  C   UNL     1     142.504  77.569 218.189 -0.31 -0.00    +0.007 C  
DOCKED: ENDBRANCH  29  30
DOCKED: ENDBRANCH  20  29
DOCKED: ENDBRANCH   3  20
DOCKED: TORSDOF 11
DOCKED: TER
DOCKED: ENDMDL
________________________________________________________________________________


    FINAL DOCKED STATE:
    ________________________


Run:   19 / 20
Time taken for this run:   0.070s

DOCKED: MODEL        19
DOCKED: USER    Run = 19
DOCKED: USER
DOCKED: USER    Estimated Free Energy of Binding    =  -7.62 kcal/mol  [=(1)+(2)+(3)-(4)]
DOCKED: USER
DOCKED: USER    (1) Final Intermolecular Energy     = -10.91 kcal/mol
DOCKED: USER        vdW + Hbond + desolv Energy     = -11.09 kcal/mol
DOCKED: USER        Electrostatic Energy            =  +0.19 kcal/mol
DOCKED: USER        Moving Ligand-Fixed Receptor    = -10.91 kcal/mol
DOCKED: USER        Moving Ligand-Moving Receptor   =  +0.00 kcal/mol
DOCKED: USER    (2) Final Total Internal Energy     =  -4.02 kcal/mol
DOCKED: USER    (3) Torsional Free Energy           =  +3.28 kcal/mol
DOCKED: USER    (4) Unbound System's Energy         =  -4.02 kcal/mol
DOCKED: USER
DOCKED: USER
DOCKED: REMARK SMILES CC(C)C[C@H](NC(=O)C/N=C(/O)c1ccc2ccccc2n1)C(=O)[N-]C1CCCC1
DOCKED: REMARK SMILES IDX 7 1 8 2 6 3 9 5 10 6 11 7 12 8 13 10 22 11 14 12 21 13 15 14
DOCKED: REMARK SMILES IDX 20 15 16 16 19 17 17 18 18 19 5 20 23 21 24 22 25 23 26 24
DOCKED: REMARK SMILES IDX 27 25 30 26 28 27 29 28 4 29 2 30 1 31 3 32
DOCKED: REMARK H PARENT 6 4 12 9
DOCKED: USER                              x       y       z     vdW  Elec       q    Type
DOCKED: USER                           _______ _______ _______ _____ _____    ______ ____
DOCKED: ROOT
DOCKED: ATOM      1  C   UNL     1     141.887  73.345 221.115 -0.12 -0.03    +0.242 C  
DOCKED: ATOM      2  O   UNL     1     143.045  73.759 220.835 -0.23 +0.06    -0.273 OA 
DOCKED: ATOM      3  N   UNL     1     140.851  74.270 221.477 -0.16 +0.05    -0.346 N  
DOCKED: ATOM      4  H   UNL     1     139.899  73.883 221.673 +0.03 -0.02    +0.164 HD 
DOCKED: ENDROOT
DOCKED: BRANCH   1   5
DOCKED: ATOM      5  C   UNL     1     141.589  71.882 221.036 -0.13 -0.03    +0.246 C  
DOCKED: BRANCH   5   6
DOCKED: ATOM      6  N   UNL     1     140.166  71.672 221.288 -0.10 +0.04    -0.240 NA 
DOCKED: BRANCH   6   7
DOCKED: ATOM      7  C   UNL     1     139.502  71.933 222.381 -0.20 -0.05    +0.233 C  
DOCKED: BRANCH   7   8
DOCKED: ATOM      8  O   UNL     1     138.551  72.952 222.343 -0.09 +0.16    -0.492 OA 
DOCKED: ATOM      9  H   UNL     1     138.586  73.726 222.995 -0.49 -0.19    +0.295 HD 
DOCKED: ENDBRANCH   7   8
DOCKED: BRANCH   7  10
DOCKED: ATOM     10  C   UNL     1     139.711  71.211 223.665 -0.32 -0.02    +0.125 A  
DOCKED: ATOM     11  N   UNL     1     140.270  71.836 224.740 -0.25 +0.04    -0.243 NA 
DOCKED: ATOM     12  C   UNL     1     139.370  69.851 223.767 -0.27 -0.01    +0.035 A  
DOCKED: ATOM     13  C   UNL     1     140.498  71.197 225.918 -0.54 -0.01    +0.071 A  
DOCKED: ATOM     14  C   UNL     1     139.592  69.166 224.963 -0.39 -0.00    +0.013 A  
DOCKED: ATOM     15  C   UNL     1     141.070  71.888 226.993 -0.77 -0.01    +0.029 A  
DOCKED: ATOM     16  C   UNL     1     140.159  69.834 226.055 -0.50 -0.00    +0.000 A  
DOCKED: ATOM     17  C   UNL     1     141.306  71.225 228.202 -0.63 -0.00    +0.002 A  
DOCKED: ATOM     18  C   UNL     1     140.399  69.176 227.271 -0.60 -0.00    +0.010 A  
DOCKED: ATOM     19  C   UNL     1     140.971  69.873 228.341 -0.57 -0.00    +0.001 A  
DOCKED: ENDBRANCH   7  10
DOCKED: ENDBRANCH   6   7
DOCKED: ENDBRANCH   5   6
DOCKED: ENDBRANCH   1   5
DOCKED: BRANCH   3  20
DOCKED: ATOM     20  C   UNL     1     141.069  75.722 221.486 -0.29 -0.04    +0.130 C  
DOCKED: BRANCH  20  21
DOCKED: ATOM     21  C   UNL     1     140.030  76.456 222.302 -0.34 -0.02    +0.074 C  
DOCKED: ATOM     22  O   UNL     1     139.039  75.819 222.751 -0.32 +0.07    -0.318 OA 
DOCKED: BRANCH  21  23
DOCKED: ATOM     23  N   UNL     1     140.142  77.863 222.548 +0.00 +0.16    -0.649 NA 
DOCKED: BRANCH  23  24
DOCKED: ATOM     24  C   UNL     1     141.415  78.576 222.563 -0.43 +0.04    -0.107 C  
DOCKED: ATOM     25  C   UNL     1     141.800  79.011 223.971 -0.59 +0.00    -0.016 C  
DOCKED: ATOM     26  C   UNL     1     141.319  79.867 221.771 -0.40 +0.01    -0.016 C  
DOCKED: ATOM     27  C   UNL     1     142.603  80.297 223.805 -0.67 +0.00    -0.001 C  
DOCKED: ATOM     28  C   UNL     1     142.367  80.788 222.377 -0.54 +0.00    -0.001 C  
DOCKED: ENDBRANCH  23  24
DOCKED: ENDBRANCH  21  23
DOCKED: ENDBRANCH  20  21
DOCKED: BRANCH  20  29
DOCKED: ATOM     29  C   UNL     1     141.213  76.290 220.049 -0.21 -0.01    +0.034 C  
DOCKED: BRANCH  29  30
DOCKED: ATOM     30  C   UNL     1     142.489  77.107 219.696 -0.33 +0.01    -0.015 C  
DOCKED: ATOM     31  C   UNL     1     143.694  76.232 219.324 -0.32 -0.00    +0.007 C  
DOCKED: ATOM     32  C   UNL     1     142.258  78.199 218.645 -0.30 -0.00    +0.007 C  
DOCKED: ENDBRANCH  29  30
DOCKED: ENDBRANCH  20  29
DOCKED: ENDBRANCH   3  20
DOCKED: TORSDOF 11
DOCKED: TER
DOCKED: ENDMDL
________________________________________________________________________________


    FINAL DOCKED STATE:
    ________________________


Run:   20 / 20
Time taken for this run:   0.070s

DOCKED: MODEL        20
DOCKED: USER    Run = 20
DOCKED: USER
DOCKED: USER    Estimated Free Energy of Binding    =  -7.47 kcal/mol  [=(1)+(2)+(3)-(4)]
DOCKED: USER
DOCKED: USER    (1) Final Intermolecular Energy     = -10.75 kcal/mol
DOCKED: USER        vdW + Hbond + desolv Energy     = -10.96 kcal/mol
DOCKED: USER        Electrostatic Energy            =  +0.20 kcal/mol
DOCKED: USER        Moving Ligand-Fixed Receptor    = -10.75 kcal/mol
DOCKED: USER        Moving Ligand-Moving Receptor   =  +0.00 kcal/mol
DOCKED: USER    (2) Final Total Internal Energy     =  -3.99 kcal/mol
DOCKED: USER    (3) Torsional Free Energy           =  +3.28 kcal/mol
DOCKED: USER    (4) Unbound System's Energy         =  -3.99 kcal/mol
DOCKED: USER
DOCKED: USER
DOCKED: REMARK SMILES CC(C)C[C@H](NC(=O)C/N=C(/O)c1ccc2ccccc2n1)C(=O)[N-]C1CCCC1
DOCKED: REMARK SMILES IDX 7 1 8 2 6 3 9 5 10 6 11 7 12 8 13 10 22 11 14 12 21 13 15 14
DOCKED: REMARK SMILES IDX 20 15 16 16 19 17 17 18 18 19 5 20 23 21 24 22 25 23 26 24
DOCKED: REMARK SMILES IDX 27 25 30 26 28 27 29 28 4 29 2 30 1 31 3 32
DOCKED: REMARK H PARENT 6 4 12 9
DOCKED: USER                              x       y       z     vdW  Elec       q    Type
DOCKED: USER                           _______ _______ _______ _____ _____    ______ ____
DOCKED: ROOT
DOCKED: ATOM      1  C   UNL     1     142.019  73.502 221.076 -0.09 -0.04    +0.242 C  
DOCKED: ATOM      2  O   UNL     1     143.178  73.949 220.854 -0.23 +0.07    -0.273 OA 
DOCKED: ATOM      3  N   UNL     1     140.927  74.401 221.317 -0.15 +0.06    -0.346 N  
DOCKED: ATOM      4  H   UNL     1     139.979  73.986 221.468 +0.04 -0.03    +0.164 HD 
DOCKED: ENDROOT
DOCKED: BRANCH   1   5
DOCKED: ATOM      5  C   UNL     1     141.783  72.026 221.055 -0.14 -0.03    +0.246 C  
DOCKED: BRANCH   5   6
DOCKED: ATOM      6  N   UNL     1     140.365  71.768 221.292 -0.11 +0.04    -0.240 NA 
DOCKED: BRANCH   6   7
DOCKED: ATOM      7  C   UNL     1     139.673  72.036 222.365 -0.21 -0.04    +0.233 C  
DOCKED: BRANCH   7   8
DOCKED: ATOM      8  O   UNL     1     138.761  73.089 222.311 -0.13 +0.15    -0.492 OA 
DOCKED: ATOM      9  H   UNL     1     138.770  73.828 223.005 -0.49 -0.18    +0.295 HD 
DOCKED: ENDBRANCH   7   8
DOCKED: BRANCH   7  10
DOCKED: ATOM     10  C   UNL     1     139.813  71.290 223.645 -0.32 -0.02    +0.125 A  
DOCKED: ATOM     11  N   UNL     1     140.336  71.886 224.753 -0.26 +0.04    -0.243 NA 
DOCKED: ATOM     12  C   UNL     1     139.444  69.935 223.708 -0.27 -0.01    +0.035 A  
DOCKED: ATOM     13  C   UNL     1     140.501  71.223 225.929 -0.54 -0.01    +0.071 A  
DOCKED: ATOM     14  C   UNL     1     139.601  69.225 224.901 -0.38 -0.00    +0.013 A  
DOCKED: ATOM     15  C   UNL     1     141.037  71.885 227.040 -0.77 -0.01    +0.029 A  
DOCKED: ATOM     16  C   UNL     1     140.132  69.865 226.028 -0.50 -0.00    +0.000 A  
DOCKED: ATOM     17  C   UNL     1     141.208  71.198 228.246 -0.66 -0.00    +0.002 A  
DOCKED: ATOM     18  C   UNL     1     140.307  69.182 227.241 -0.60 -0.00    +0.010 A  
DOCKED: ATOM     19  C   UNL     1     140.843  69.851 228.347 -0.58 -0.00    +0.001 A  
DOCKED: ENDBRANCH   7  10
DOCKED: ENDBRANCH   6   7
DOCKED: ENDBRANCH   5   6
DOCKED: ENDBRANCH   1   5
DOCKED: BRANCH   3  20
DOCKED: ATOM     20  C   UNL     1     141.088  75.859 221.264 -0.28 -0.04    +0.130 C  
DOCKED: BRANCH  20  21
DOCKED: ATOM     21  C   UNL     1     140.040  76.586 222.075 -0.34 -0.02    +0.074 C  
DOCKED: ATOM     22  O   UNL     1     139.204  75.916 222.740 -0.34 +0.06    -0.318 OA 
DOCKED: BRANCH  21  23
DOCKED: ATOM     23  N   UNL     1     139.968  78.017 222.077 +0.03 +0.17    -0.649 NA 
DOCKED: BRANCH  23  24
DOCKED: ATOM     24  C   UNL     1     141.142  78.880 222.165 -0.37 +0.04    -0.107 C  
DOCKED: ATOM     25  C   UNL     1     141.878  78.697 223.485 -0.58 +0.01    -0.016 C  
DOCKED: ATOM     26  C   UNL     1     140.737  80.342 222.144 -0.37 +0.00    -0.016 C  
DOCKED: ATOM     27  C   UNL     1     142.512  80.048 223.799 -0.63 +0.00    -0.001 C  
DOCKED: ATOM     28  C   UNL     1     141.849  81.075 222.881 -0.57 +0.00    -0.001 C  
DOCKED: ENDBRANCH  23  24
DOCKED: ENDBRANCH  21  23
DOCKED: ENDBRANCH  20  21
DOCKED: BRANCH  20  29
DOCKED: ATOM     29  C   UNL     1     141.178  76.374 219.803 -0.19 -0.01    +0.034 C  
DOCKED: BRANCH  29  30
DOCKED: ATOM     30  C   UNL     1     142.467  77.120 219.354 -0.33 +0.01    -0.015 C  
DOCKED: ATOM     31  C   UNL     1     143.345  76.305 218.393 -0.30 -0.00    +0.007 C  
DOCKED: ATOM     32  C   UNL     1     142.212  78.529 218.805 -0.29 -0.00    +0.007 C  
DOCKED: ENDBRANCH  29  30
DOCKED: ENDBRANCH  20  29
DOCKED: ENDBRANCH   3  20
DOCKED: TORSDOF 11
DOCKED: TER
DOCKED: ENDMDL
________________________________________________________________________________


    CLUSTERING HISTOGRAM
    ____________________


________________________________________________________________________________
     |           |     |           |     |
Clus | Lowest    | Run | Mean      | Num | Histogram
-ter | Binding   |     | Binding   | in  |
Rank | Energy    |     | Energy    | Clus|    5    10   15   20   25   30   35
_____|___________|_____|___________|_____|____:____|____:____|____:____|____:___
   1 |     -7.83 |   1 |     -7.53 |  16 |################
   2 |     -7.24 |  17 |     -7.17 |   2 |##
   3 |     -6.75 |   9 |     -6.75 |   1 |#
   4 |     -6.40 |  11 |     -6.40 |   1 |#
_____|___________|_____|___________|_____|______________________________________


    RMSD TABLE
    __________


_______________________________________________________________________
     |      |      |           |         |                 |
Rank | Sub- | Run  | Binding   | Cluster | Reference       | Grep
     | Rank |      | Energy    | RMSD    | RMSD            | Pattern
_____|______|______|___________|_________|_________________|___________
   1      1      1       -7.83      0.00    271.31           RANKING
   1      2     12       -7.75      0.75    271.34           RANKING
   1      3      2       -7.67      1.25    271.21           RANKING
   1      4     14       -7.64      1.18    271.23           RANKING
   1      5      7       -7.63      1.23    271.20           RANKING
   1      6     19       -7.62      1.22    271.21           RANKING
   1      7      4       -7.62      1.26    271.13           RANKING
   1      8     18       -7.61      1.33    271.12           RANKING
   1      9     10       -7.61      1.25    271.18           RANKING
   1     10     13       -7.55      1.32    271.08           RANKING
   1     11      6       -7.52      1.24    271.14           RANKING
   1     12     16       -7.51      1.27    271.12           RANKING
   1     13     20       -7.47      1.17    271.16           RANKING
   1     14      3       -7.44      1.06    271.19           RANKING
   1     15      5       -7.35      1.46    270.99           RANKING
   1     16     15       -6.71      1.29    270.96           RANKING
   2      1     17       -7.24      0.00    270.63           RANKING
   2      2      8       -7.10      1.49    270.71           RANKING
   3      1      9       -6.75      0.00    270.28           RANKING
   4      1     11       -6.40      0.00    270.67           RANKING

Run time 1.357 sec
Idle time 0.000 sec
