AutoDock-GPU version: v1.6

**********************************************************
**    AutoDock-GPU AUTODOCKTOOLS-COMPATIBLE DLG FILE    **
**********************************************************


    DOCKING PARAMETERS
    ________________________


Ligand file:                               /home/a/REINVENT4/ReinventStudies/pleaseWork/justmol2mol_4_Compounds_ontop/graph-dock-8u2o5u/graph-DockGPU/node-autodockgpu/inputs/WWMVZUZFWROBEU-KNNQSSISNA-O.pdbqt
Grid fld file:                             /home/a/REINVENT4/ReinventStudies/mols/Rad51/maps/rad51_receptor.maps.fld

Random seed:                               42
Number of runs:                            20
Number of energy evaluations:              1132076
Number of generations:                     42000
Size of population:                        150
Rate of crossover:                         80.000000%
Tournament selection probability limit:    60.000000%
Rate of mutation:                          2.000000%
Maximal allowed delta movement:            +/- 6.000000A
Maximal allowed delta angle:               +/- 90.000000

Rate of local search:                      100.000000%
Maximal number of local search iterations: 300
Rho lower bound:                           0.010000
Spread of local search delta movement:     2.000000A
Spread of local search delta angle:        74.999999
Limit of consecutive successes/failures:   4

Handle symmetry during clustering:         YES
RMSD tolerance:                            2.000000A

Program call in command line was:          /home/a/REINVENT4/ReinventStudies/adgpu-v1.6_linux_x64_cuda12_128wi --filelist batch.txt --heuristics 1 --nrun 20 --psize 150 --lsit 300 --seed 42 --heurmax 12000000 


    GRID PARAMETERS
    ________________________


Receptor name:                             rad51_receptor
Number of grid points (x, y, z):           53, 53, 53
Grid center (x, y, z):                     139.950000, 75.640000, 221.970000A
Grid size (x, y, z):                       19.500000, 19.500000, 19.500000A
Grid spacing:                              0.375000A


    LIGAND PARAMETERS
    ________________________


Ligand name:                               /home/a/REINVENT4/ReinventStudies/pleaseWork/justmol2mol_4_Compounds_ontop/graph-dock-8u2o5u/graph-DockGPU/node-autodockgpu/inputs/WWMVZUZFWROBEU-KNNQSSISNA-O
Number of atoms:                           30
Number of rotatable bonds:                 6
Number of atom types:                      6


    DUMMY DATA (only for ADT-compatibility)
    ________________________


DPF> outlev 1
DPF> ga_run 20
DPF> fld /home/a/REINVENT4/ReinventStudies/mols/Rad51/maps/rad51_receptor.maps.fld
DPF> move /home/a/REINVENT4/ReinventStudies/pleaseWork/justmol2mol_4_Compounds_ontop/graph-dock-8u2o5u/graph-DockGPU/node-autodockgpu/inputs/WWMVZUZFWROBEU-KNNQSSISNA-O.pdbqt


    COUNTER STATES
    ________________________


Number of energy evaluations performed:    840182
Number of generations used:                45


    INPUT LIGAND PDBQT FILE:
    ________________________


INPUT-LIGAND-PDBQT: REMARK SMILES O=C(NC/C(O)=[N+]1/CCCC[C@H]1c1ccccc1)c1ccc2ccccc2n1
INPUT-LIGAND-PDBQT: REMARK SMILES IDX 5 1 6 2 7 4 8 5 12 6 9 7 11 8 10 9 13 10 14 11 18 12 15 13
INPUT-LIGAND-PDBQT: REMARK SMILES IDX 17 14 16 15 4 16 3 17 2 18 1 20 19 21 28 22 20 23 27 24
INPUT-LIGAND-PDBQT: REMARK SMILES IDX 21 25 26 26 22 27 25 28 23 29 24 30
INPUT-LIGAND-PDBQT: REMARK H PARENT 6 3 3 19
INPUT-LIGAND-PDBQT: ROOT
INPUT-LIGAND-PDBQT: ATOM      1  C   UNL     1       2.973   2.037  -0.071  1.00  0.00     0.354 C 
INPUT-LIGAND-PDBQT: ENDROOT
INPUT-LIGAND-PDBQT: BRANCH   1   2
INPUT-LIGAND-PDBQT: ATOM      2  O   UNL     1       4.138   2.713  -0.460  1.00  0.00    -0.462 OA
INPUT-LIGAND-PDBQT: ATOM      3  H   UNL     1       5.067   2.500  -0.122  1.00  0.00     0.299 HD
INPUT-LIGAND-PDBQT: ENDBRANCH   1   2
INPUT-LIGAND-PDBQT: BRANCH   1   4
INPUT-LIGAND-PDBQT: ATOM      4  N   UNL     1       3.016   0.885   0.587  1.00  0.00    -0.194 N 
INPUT-LIGAND-PDBQT: ATOM      5  C   UNL     1       4.339   0.246   0.813  1.00  0.00     0.354 C 
INPUT-LIGAND-PDBQT: ATOM      6  C   UNL     1       1.771   0.322   1.196  1.00  0.00     0.294 C 
INPUT-LIGAND-PDBQT: ATOM      7  C   UNL     1       4.283  -1.248   1.142  1.00  0.00     0.073 C 
INPUT-LIGAND-PDBQT: ATOM      8  C   UNL     1       1.852  -1.182   1.520  1.00  0.00     0.082 C 
INPUT-LIGAND-PDBQT: ATOM      9  C   UNL     1       3.185  -1.563   2.138  1.00  0.00     0.014 C 
INPUT-LIGAND-PDBQT: BRANCH   6  10
INPUT-LIGAND-PDBQT: ATOM     10  C   UNL     1       1.344   1.106   2.430  1.00  0.00     0.019 A 
INPUT-LIGAND-PDBQT: ATOM     11  C   UNL     1       2.281   1.616   3.349  1.00  0.00     0.010 A 
INPUT-LIGAND-PDBQT: ATOM     12  C   UNL     1      -0.028   1.287   2.690  1.00  0.00     0.010 A 
INPUT-LIGAND-PDBQT: ATOM     13  C   UNL     1       1.855   2.311   4.484  1.00  0.00     0.001 A 
INPUT-LIGAND-PDBQT: ATOM     14  C   UNL     1      -0.449   1.983   3.827  1.00  0.00     0.001 A 
INPUT-LIGAND-PDBQT: ATOM     15  C   UNL     1       0.491   2.497   4.722  1.00  0.00     0.000 A 
INPUT-LIGAND-PDBQT: ENDBRANCH   6  10
INPUT-LIGAND-PDBQT: ENDBRANCH   1   4
INPUT-LIGAND-PDBQT: BRANCH   1  16
INPUT-LIGAND-PDBQT: ATOM     16  C   UNL     1       1.678   2.706  -0.477  1.00  0.00     0.269 C 
INPUT-LIGAND-PDBQT: BRANCH  16  17
INPUT-LIGAND-PDBQT: ATOM     17  N   UNL     1       1.034   1.978  -1.570  1.00  0.00    -0.337 N 
INPUT-LIGAND-PDBQT: ATOM     18  C   UNL     1      -0.253   2.368  -2.071  1.00  0.00     0.270 C 
INPUT-LIGAND-PDBQT: ATOM     19  H   UNL     1       1.514   1.146  -1.983  1.00  0.00     0.164 HD
INPUT-LIGAND-PDBQT: ATOM     20  O   UNL     1      -0.817   3.398  -1.607  1.00  0.00    -0.268 OA
INPUT-LIGAND-PDBQT: BRANCH  18  21
INPUT-LIGAND-PDBQT: ATOM     21  C   UNL     1      -0.925   1.571  -3.120  1.00  0.00     0.128 A 
INPUT-LIGAND-PDBQT: ATOM     22  N   UNL     1      -0.327   0.443  -3.596  1.00  0.00    -0.243 NA
INPUT-LIGAND-PDBQT: ATOM     23  C   UNL     1      -2.176   1.955  -3.632  1.00  0.00     0.035 A 
INPUT-LIGAND-PDBQT: ATOM     24  C   UNL     1      -0.899  -0.331  -4.556  1.00  0.00     0.071 A 
INPUT-LIGAND-PDBQT: ATOM     25  C   UNL     1      -2.789   1.180  -4.619  1.00  0.00     0.013 A 
INPUT-LIGAND-PDBQT: ATOM     26  C   UNL     1      -0.246  -1.481  -5.014  1.00  0.00     0.029 A 
INPUT-LIGAND-PDBQT: ATOM     27  C   UNL     1      -2.155   0.026  -5.093  1.00  0.00     0.000 A 
INPUT-LIGAND-PDBQT: ATOM     28  C   UNL     1      -0.837  -2.275  -6.001  1.00  0.00     0.002 A 
INPUT-LIGAND-PDBQT: ATOM     29  C   UNL     1      -2.742  -0.776  -6.083  1.00  0.00     0.010 A 
INPUT-LIGAND-PDBQT: ATOM     30  C   UNL     1      -2.082  -1.923  -6.535  1.00  0.00     0.001 A 
INPUT-LIGAND-PDBQT: ENDBRANCH  18  21
INPUT-LIGAND-PDBQT: ENDBRANCH  16  17
INPUT-LIGAND-PDBQT: ENDBRANCH   1  16
INPUT-LIGAND-PDBQT: TORSDOF 6


    FINAL DOCKED STATE:
    ________________________


Run:   1 / 20
Time taken for this run:   0.034s

DOCKED: MODEL        1
DOCKED: USER    Run = 1
DOCKED: USER
DOCKED: USER    Estimated Free Energy of Binding    =  -8.86 kcal/mol  [=(1)+(2)+(3)-(4)]
DOCKED: USER
DOCKED: USER    (1) Final Intermolecular Energy     = -10.65 kcal/mol
DOCKED: USER        vdW + Hbond + desolv Energy     = -10.20 kcal/mol
DOCKED: USER        Electrostatic Energy            =  -0.45 kcal/mol
DOCKED: USER        Moving Ligand-Fixed Receptor    = -10.65 kcal/mol
DOCKED: USER        Moving Ligand-Moving Receptor   =  +0.00 kcal/mol
DOCKED: USER    (2) Final Total Internal Energy     =  -1.73 kcal/mol
DOCKED: USER    (3) Torsional Free Energy           =  +1.79 kcal/mol
DOCKED: USER    (4) Unbound System's Energy         =  -1.73 kcal/mol
DOCKED: USER
DOCKED: USER
DOCKED: REMARK SMILES O=C(NC/C(O)=[N+]1/CCCC[C@H]1c1ccccc1)c1ccc2ccccc2n1
DOCKED: REMARK SMILES IDX 5 1 6 2 7 4 8 5 12 6 9 7 11 8 10 9 13 10 14 11 18 12 15 13
DOCKED: REMARK SMILES IDX 17 14 16 15 4 16 3 17 2 18 1 20 19 21 28 22 20 23 27 24
DOCKED: REMARK SMILES IDX 21 25 26 26 22 27 25 28 23 29 24 30
DOCKED: REMARK H PARENT 6 3 3 19
DOCKED: USER                              x       y       z     vdW  Elec       q    Type
DOCKED: USER                           _______ _______ _______ _____ _____    ______ ____
DOCKED: ROOT
DOCKED: ATOM      1  C   UNL     1     140.386  75.080 221.401 -0.18 -0.07    +0.354 C  
DOCKED: ENDROOT
DOCKED: BRANCH   1   2
DOCKED: ATOM      2  O   UNL     1     139.917  75.631 222.602 -0.37 +0.05    -0.462 OA 
DOCKED: ATOM      3  H   UNL     1     139.179  75.233 223.168 -0.40 -0.07    +0.299 HD 
DOCKED: ENDBRANCH   1   2
DOCKED: BRANCH   1   4
DOCKED: ATOM      4  N   UNL     1     141.149  75.771 220.563 -0.16 +0.07    -0.194 N  
DOCKED: ATOM      5  C   UNL     1     141.333  77.226 220.805 -0.14 -0.18    +0.354 C  
DOCKED: ATOM      6  C   UNL     1     141.904  75.065 219.481 -0.10 -0.10    +0.294 C  
DOCKED: ATOM      7  C   UNL     1     141.810  78.025 219.590 -0.26 -0.04    +0.073 C  
DOCKED: ATOM      8  C   UNL     1     142.367  75.983 218.333 -0.18 -0.04    +0.082 C  
DOCKED: ATOM      9  C   UNL     1     142.914  77.304 218.842 -0.31 -0.01    +0.014 C  
DOCKED: BRANCH   6  10
DOCKED: ATOM     10  C   UNL     1     143.085  74.282 220.040 -0.31 -0.01    +0.019 A  
DOCKED: ATOM     11  C   UNL     1     144.324  74.894 220.311 -0.40 -0.00    +0.010 A  
DOCKED: ATOM     12  C   UNL     1     142.955  72.895 220.247 -0.26 -0.00    +0.010 A  
DOCKED: ATOM     13  C   UNL     1     145.395  74.142 220.801 -0.60 -0.00    +0.001 A  
DOCKED: ATOM     14  C   UNL     1     144.029  72.147 220.737 -0.35 -0.00    +0.001 A  
DOCKED: ATOM     15  C   UNL     1     145.247  72.769 221.016 -0.51 -0.00    +0.000 A  
DOCKED: ENDBRANCH   6  10
DOCKED: ENDBRANCH   1   4
DOCKED: BRANCH   1  16
DOCKED: ATOM     16  C   UNL     1     139.940  73.660 221.130 -0.15 -0.05    +0.269 C  
DOCKED: BRANCH  16  17
DOCKED: ATOM     17  N   UNL     1     139.883  72.885 222.370 -0.17 +0.05    -0.337 N  
DOCKED: ATOM     18  C   UNL     1     140.101  71.467 222.375 -0.19 -0.04    +0.270 C  
DOCKED: ATOM     19  H   UNL     1     139.660  73.372 223.268 -0.42 -0.04    +0.164 HD 
DOCKED: ATOM     20  O   UNL     1     140.414  70.880 221.301 -0.10 +0.04    -0.268 OA 
DOCKED: BRANCH  18  21
DOCKED: ATOM     21  C   UNL     1     139.958  70.688 223.623 -0.27 -0.02    +0.128 A  
DOCKED: ATOM     22  N   UNL     1     140.510  71.157 224.777 -0.31 +0.04    -0.243 NA 
DOCKED: ATOM     23  C   UNL     1     139.254  69.471 223.642 -0.25 -0.01    +0.035 A  
DOCKED: ATOM     24  C   UNL     1     140.406  70.486 225.955 -0.50 -0.01    +0.071 A  
DOCKED: ATOM     25  C   UNL     1     139.131  68.760 224.837 -0.39 -0.00    +0.013 A  
DOCKED: ATOM     26  C   UNL     1     140.991  71.008 227.115 -0.66 -0.00    +0.029 A  
DOCKED: ATOM     27  C   UNL     1     139.707  69.261 226.010 -0.48 -0.00    +0.000 A  
DOCKED: ATOM     28  C   UNL     1     140.882  70.316 228.325 -0.57 -0.00    +0.002 A  
DOCKED: ATOM     29  C   UNL     1     139.602  68.573 227.228 -0.58 -0.00    +0.010 A  
DOCKED: ATOM     30  C   UNL     1     140.190  69.101 228.381 -0.64 -0.00    +0.001 A  
DOCKED: ENDBRANCH  18  21
DOCKED: ENDBRANCH  16  17
DOCKED: ENDBRANCH   1  16
DOCKED: TORSDOF 6
DOCKED: TER
DOCKED: ENDMDL
________________________________________________________________________________


    FINAL DOCKED STATE:
    ________________________


Run:   2 / 20
Time taken for this run:   0.034s

DOCKED: MODEL        2
DOCKED: USER    Run = 2
DOCKED: USER
DOCKED: USER    Estimated Free Energy of Binding    =  -8.39 kcal/mol  [=(1)+(2)+(3)-(4)]
DOCKED: USER
DOCKED: USER    (1) Final Intermolecular Energy     = -10.18 kcal/mol
DOCKED: USER        vdW + Hbond + desolv Energy     =  -9.96 kcal/mol
DOCKED: USER        Electrostatic Energy            =  -0.22 kcal/mol
DOCKED: USER        Moving Ligand-Fixed Receptor    = -10.18 kcal/mol
DOCKED: USER        Moving Ligand-Moving Receptor   =  +0.00 kcal/mol
DOCKED: USER    (2) Final Total Internal Energy     =  -1.48 kcal/mol
DOCKED: USER    (3) Torsional Free Energy           =  +1.79 kcal/mol
DOCKED: USER    (4) Unbound System's Energy         =  -1.48 kcal/mol
DOCKED: USER
DOCKED: USER
DOCKED: REMARK SMILES O=C(NC/C(O)=[N+]1/CCCC[C@H]1c1ccccc1)c1ccc2ccccc2n1
DOCKED: REMARK SMILES IDX 5 1 6 2 7 4 8 5 12 6 9 7 11 8 10 9 13 10 14 11 18 12 15 13
DOCKED: REMARK SMILES IDX 17 14 16 15 4 16 3 17 2 18 1 20 19 21 28 22 20 23 27 24
DOCKED: REMARK SMILES IDX 21 25 26 26 22 27 25 28 23 29 24 30
DOCKED: REMARK H PARENT 6 3 3 19
DOCKED: USER                              x       y       z     vdW  Elec       q    Type
DOCKED: USER                           _______ _______ _______ _____ _____    ______ ____
DOCKED: ROOT
DOCKED: ATOM      1  C   UNL     1     138.446  71.976 222.425 -0.09 -0.09    +0.354 C  
DOCKED: ENDROOT
DOCKED: BRANCH   1   2
DOCKED: ATOM      2  O   UNL     1     137.315  72.712 222.804 -0.02 +0.17    -0.462 OA 
DOCKED: ATOM      3  H   UNL     1     137.156  73.087 223.730 -0.47 -0.20    +0.299 HD 
DOCKED: ENDBRANCH   1   2
DOCKED: BRANCH   1   4
DOCKED: ATOM      4  N   UNL     1     138.513  70.660 222.581 -0.11 +0.04    -0.194 N  
DOCKED: ATOM      5  C   UNL     1     139.105  69.844 221.488 -0.05 -0.06    +0.354 C  
DOCKED: ATOM      6  C   UNL     1     138.120  70.038 223.884 -0.17 -0.05    +0.294 C  
DOCKED: ATOM      7  C   UNL     1     138.735  68.359 221.521 -0.15 -0.01    +0.073 C  
DOCKED: ATOM      8  C   UNL     1     137.811  68.531 223.796 -0.15 -0.01    +0.082 C  
DOCKED: ATOM      9  C   UNL     1     138.811  67.793 222.925 -0.25 -0.00    +0.014 C  
DOCKED: BRANCH   6  10
DOCKED: ATOM     10  C   UNL     1     139.156  70.303 224.968 -0.38 -0.00    +0.019 A  
DOCKED: ATOM     11  C   UNL     1     139.154  69.599 226.188 -0.43 -0.00    +0.010 A  
DOCKED: ATOM     12  C   UNL     1     140.117  71.313 224.771 -0.48 -0.00    +0.010 A  
DOCKED: ATOM     13  C   UNL     1     140.104  69.883 227.172 -0.58 -0.00    +0.001 A  
DOCKED: ATOM     14  C   UNL     1     141.066  71.593 225.759 -0.61 -0.00    +0.001 A  
DOCKED: ATOM     15  C   UNL     1     141.062  70.877 226.957 -0.66 -0.00    +0.000 A  
DOCKED: ENDBRANCH   6  10
DOCKED: ENDBRANCH   1   4
DOCKED: BRANCH   1  16
DOCKED: ATOM     16  C   UNL     1     139.581  72.796 221.851 -0.17 -0.05    +0.269 C  
DOCKED: BRANCH  16  17
DOCKED: ATOM     17  N   UNL     1     139.439  74.207 222.208 -0.11 +0.06    -0.337 N  
DOCKED: ATOM     18  C   UNL     1     140.441  75.172 221.855 -0.15 -0.04    +0.270 C  
DOCKED: ATOM     19  H   UNL     1     138.598  74.516 222.747 -0.55 -0.07    +0.164 HD 
DOCKED: ATOM     20  O   UNL     1     141.436  74.813 221.166 -0.27 +0.07    -0.268 OA 
DOCKED: BRANCH  18  21
DOCKED: ATOM     21  C   UNL     1     140.320  76.578 222.296 -0.34 -0.03    +0.128 A  
DOCKED: ATOM     22  N   UNL     1     141.445  77.312 222.524 -0.12 +0.12    -0.243 NA 
DOCKED: ATOM     23  C   UNL     1     139.061  77.174 222.480 -0.29 -0.01    +0.035 A  
DOCKED: ATOM     24  C   UNL     1     141.395  78.610 222.926 -0.49 -0.03    +0.071 A  
DOCKED: ATOM     25  C   UNL     1     138.977  78.506 222.893 -0.31 -0.00    +0.013 A  
DOCKED: ATOM     26  C   UNL     1     142.579  79.323 223.148 -0.57 -0.01    +0.029 A  
DOCKED: ATOM     27  C   UNL     1     140.147  79.239 223.121 -0.43 -0.00    +0.000 A  
DOCKED: ATOM     28  C   UNL     1     142.524  80.657 223.561 -0.67 -0.00    +0.002 A  
DOCKED: ATOM     29  C   UNL     1     140.100  80.579 223.536 -0.43 -0.00    +0.010 A  
DOCKED: ATOM     30  C   UNL     1     141.288  81.284 223.755 -0.48 -0.00    +0.001 A  
DOCKED: ENDBRANCH  18  21
DOCKED: ENDBRANCH  16  17
DOCKED: ENDBRANCH   1  16
DOCKED: TORSDOF 6
DOCKED: TER
DOCKED: ENDMDL
________________________________________________________________________________


    FINAL DOCKED STATE:
    ________________________


Run:   3 / 20
Time taken for this run:   0.034s

DOCKED: MODEL        3
DOCKED: USER    Run = 3
DOCKED: USER
DOCKED: USER    Estimated Free Energy of Binding    =  -8.53 kcal/mol  [=(1)+(2)+(3)-(4)]
DOCKED: USER
DOCKED: USER    (1) Final Intermolecular Energy     = -10.32 kcal/mol
DOCKED: USER        vdW + Hbond + desolv Energy     = -10.07 kcal/mol
DOCKED: USER        Electrostatic Energy            =  -0.26 kcal/mol
DOCKED: USER        Moving Ligand-Fixed Receptor    = -10.32 kcal/mol
DOCKED: USER        Moving Ligand-Moving Receptor   =  +0.00 kcal/mol
DOCKED: USER    (2) Final Total Internal Energy     =  -1.77 kcal/mol
DOCKED: USER    (3) Torsional Free Energy           =  +1.79 kcal/mol
DOCKED: USER    (4) Unbound System's Energy         =  -1.77 kcal/mol
DOCKED: USER
DOCKED: USER
DOCKED: REMARK SMILES O=C(NC/C(O)=[N+]1/CCCC[C@H]1c1ccccc1)c1ccc2ccccc2n1
DOCKED: REMARK SMILES IDX 5 1 6 2 7 4 8 5 12 6 9 7 11 8 10 9 13 10 14 11 18 12 15 13
DOCKED: REMARK SMILES IDX 17 14 16 15 4 16 3 17 2 18 1 20 19 21 28 22 20 23 27 24
DOCKED: REMARK SMILES IDX 21 25 26 26 22 27 25 28 23 29 24 30
DOCKED: REMARK H PARENT 6 3 3 19
DOCKED: USER                              x       y       z     vdW  Elec       q    Type
DOCKED: USER                           _______ _______ _______ _____ _____    ______ ____
DOCKED: ROOT
DOCKED: ATOM      1  C   UNL     1     139.764  75.855 221.767 -0.19 -0.08    +0.354 C  
DOCKED: ENDROOT
DOCKED: BRANCH   1   2
DOCKED: ATOM      2  O   UNL     1     141.109  75.843 222.162 -0.28 +0.13    -0.462 OA 
DOCKED: ATOM      3  H   UNL     1     141.758  75.091 221.973 -0.04 -0.07    +0.299 HD 
DOCKED: ENDBRANCH   1   2
DOCKED: BRANCH   1   4
DOCKED: ATOM      4  N   UNL     1     139.008  76.940 221.881 -0.17 +0.04    -0.194 N  
DOCKED: ATOM      5  C   UNL     1     137.791  76.870 222.732 -0.14 -0.07    +0.354 C  
DOCKED: ATOM      6  C   UNL     1     139.453  78.231 221.271 -0.09 -0.08    +0.294 C  
DOCKED: ATOM      7  C   UNL     1     136.750  77.957 222.454 -0.16 -0.01    +0.073 C  
DOCKED: ATOM      8  C   UNL     1     138.322  79.260 221.079 -0.09 -0.02    +0.082 C  
DOCKED: ATOM      9  C   UNL     1     137.393  79.319 222.278 -0.17 -0.00    +0.014 C  
DOCKED: BRANCH   6  10
DOCKED: ATOM     10  C   UNL     1     140.606  78.853 222.047 -0.33 -0.01    +0.019 A  
DOCKED: ATOM     11  C   UNL     1     140.771  78.644 223.429 -0.46 -0.00    +0.010 A  
DOCKED: ATOM     12  C   UNL     1     141.509  79.701 221.377 -0.38 -0.00    +0.010 A  
DOCKED: ATOM     13  C   UNL     1     141.828  79.248 224.117 -0.57 -0.00    +0.001 A  
DOCKED: ATOM     14  C   UNL     1     142.564  80.303 222.069 -0.51 -0.00    +0.001 A  
DOCKED: ATOM     15  C   UNL     1     142.725  80.075 223.437 -0.66 -0.00    +0.000 A  
DOCKED: ENDBRANCH   6  10
DOCKED: ENDBRANCH   1   4
DOCKED: BRANCH   1  16
DOCKED: ATOM     16  C   UNL     1     139.243  74.540 221.228 -0.14 -0.06    +0.269 C  
DOCKED: BRANCH  16  17
DOCKED: ATOM     17  N   UNL     1     139.145  73.541 222.292 -0.08 +0.09    -0.337 N  
DOCKED: ATOM     18  C   UNL     1     140.277  72.746 222.676 -0.08 -0.02    +0.270 C  
DOCKED: ATOM     19  H   UNL     1     138.228  73.392 222.770 -0.52 -0.08    +0.164 HD 
DOCKED: ATOM     20  O   UNL     1     141.398  72.953 222.133 -0.27 -0.00    -0.268 OA 
DOCKED: BRANCH  18  21
DOCKED: ATOM     21  C   UNL     1     140.138  71.685 223.696 -0.33 -0.02    +0.128 A  
DOCKED: ATOM     22  N   UNL     1     140.641  71.883 224.947 -0.28 +0.04    -0.243 NA 
DOCKED: ATOM     23  C   UNL     1     139.490  70.474 223.399 -0.28 -0.01    +0.035 A  
DOCKED: ATOM     24  C   UNL     1     140.539  70.945 225.926 -0.54 -0.01    +0.071 A  
DOCKED: ATOM     25  C   UNL     1     139.370  69.491 224.384 -0.33 -0.00    +0.013 A  
DOCKED: ATOM     26  C   UNL     1     141.072  71.193 227.196 -0.69 -0.00    +0.029 A  
DOCKED: ATOM     27  C   UNL     1     139.896  69.717 225.661 -0.46 -0.00    +0.000 A  
DOCKED: ATOM     28  C   UNL     1     140.966  70.227 228.201 -0.59 -0.00    +0.002 A  
DOCKED: ATOM     29  C   UNL     1     139.792  68.752 226.674 -0.57 -0.00    +0.010 A  
DOCKED: ATOM     30  C   UNL     1     140.328  69.009 227.940 -0.65 -0.00    +0.001 A  
DOCKED: ENDBRANCH  18  21
DOCKED: ENDBRANCH  16  17
DOCKED: ENDBRANCH   1  16
DOCKED: TORSDOF 6
DOCKED: TER
DOCKED: ENDMDL
________________________________________________________________________________


    FINAL DOCKED STATE:
    ________________________


Run:   4 / 20
Time taken for this run:   0.034s

DOCKED: MODEL        4
DOCKED: USER    Run = 4
DOCKED: USER
DOCKED: USER    Estimated Free Energy of Binding    =  -9.11 kcal/mol  [=(1)+(2)+(3)-(4)]
DOCKED: USER
DOCKED: USER    (1) Final Intermolecular Energy     = -10.90 kcal/mol
DOCKED: USER        vdW + Hbond + desolv Energy     = -10.34 kcal/mol
DOCKED: USER        Electrostatic Energy            =  -0.56 kcal/mol
DOCKED: USER        Moving Ligand-Fixed Receptor    = -10.90 kcal/mol
DOCKED: USER        Moving Ligand-Moving Receptor   =  +0.00 kcal/mol
DOCKED: USER    (2) Final Total Internal Energy     =  -1.60 kcal/mol
DOCKED: USER    (3) Torsional Free Energy           =  +1.79 kcal/mol
DOCKED: USER    (4) Unbound System's Energy         =  -1.60 kcal/mol
DOCKED: USER
DOCKED: USER
DOCKED: REMARK SMILES O=C(NC/C(O)=[N+]1/CCCC[C@H]1c1ccccc1)c1ccc2ccccc2n1
DOCKED: REMARK SMILES IDX 5 1 6 2 7 4 8 5 12 6 9 7 11 8 10 9 13 10 14 11 18 12 15 13
DOCKED: REMARK SMILES IDX 17 14 16 15 4 16 3 17 2 18 1 20 19 21 28 22 20 23 27 24
DOCKED: REMARK SMILES IDX 21 25 26 26 22 27 25 28 23 29 24 30
DOCKED: REMARK H PARENT 6 3 3 19
DOCKED: USER                              x       y       z     vdW  Elec       q    Type
DOCKED: USER                           _______ _______ _______ _____ _____    ______ ____
DOCKED: ROOT
DOCKED: ATOM      1  C   UNL     1     140.956  75.424 221.072 -0.17 -0.10    +0.354 C  
DOCKED: ENDROOT
DOCKED: BRANCH   1   2
DOCKED: ATOM      2  O   UNL     1     141.085  76.017 222.336 -0.28 +0.13    -0.462 OA 
DOCKED: ATOM      3  H   UNL     1     141.956  76.346 222.731 -0.38 -0.21    +0.299 HD 
DOCKED: ENDBRANCH   1   2
DOCKED: BRANCH   1   4
DOCKED: ATOM      4  N   UNL     1     141.658  75.842 220.026 -0.15 +0.08    -0.194 N  
DOCKED: ATOM      5  C   UNL     1     141.944  77.295 219.897 -0.15 -0.21    +0.354 C  
DOCKED: ATOM      6  C   UNL     1     142.255  74.849 219.078 -0.09 -0.10    +0.294 C  
DOCKED: ATOM      7  C   UNL     1     142.328  77.752 218.487 -0.27 -0.05    +0.073 C  
DOCKED: ATOM      8  C   UNL     1     142.638  75.438 217.707 -0.14 -0.03    +0.082 C  
DOCKED: ATOM      9  C   UNL     1     143.305  76.795 217.834 -0.26 -0.01    +0.014 C  
DOCKED: BRANCH   6  10
DOCKED: ATOM     10  C   UNL     1     143.446  74.128 219.695 -0.31 -0.01    +0.019 A  
DOCKED: ATOM     11  C   UNL     1     144.514  74.828 220.288 -0.39 -0.00    +0.010 A  
DOCKED: ATOM     12  C   UNL     1     143.510  72.723 219.630 -0.23 -0.00    +0.010 A  
DOCKED: ATOM     13  C   UNL     1     145.604  74.137 220.824 -0.63 -0.00    +0.001 A  
DOCKED: ATOM     14  C   UNL     1     144.602  72.037 220.167 -0.35 -0.00    +0.001 A  
DOCKED: ATOM     15  C   UNL     1     145.648  72.742 220.767 -0.55 -0.00    +0.000 A  
DOCKED: ENDBRANCH   6  10
DOCKED: ENDBRANCH   1   4
DOCKED: BRANCH   1  16
DOCKED: ATOM     16  C   UNL     1     139.947  74.300 220.992 -0.15 -0.05    +0.269 C  
DOCKED: BRANCH  16  17
DOCKED: ATOM     17  N   UNL     1     139.908  73.542 222.242 -0.13 +0.03    -0.337 N  
DOCKED: ATOM     18  C   UNL     1     140.295  72.161 222.291 -0.21 -0.03    +0.270 C  
DOCKED: ATOM     19  H   UNL     1     139.575  74.012 223.115 -0.52 -0.02    +0.164 HD 
DOCKED: ATOM     20  O   UNL     1     140.740  71.601 221.251 -0.12 +0.04    -0.268 OA 
DOCKED: BRANCH  18  21
DOCKED: ATOM     21  C   UNL     1     140.171  71.389 223.546 -0.32 -0.02    +0.128 A  
DOCKED: ATOM     22  N   UNL     1     140.643  71.916 224.711 -0.24 +0.03    -0.243 NA 
DOCKED: ATOM     23  C   UNL     1     139.567  70.120 223.560 -0.27 -0.01    +0.035 A  
DOCKED: ATOM     24  C   UNL     1     140.553  71.255 225.895 -0.55 -0.01    +0.071 A  
DOCKED: ATOM     25  C   UNL     1     139.460  69.416 224.762 -0.37 -0.00    +0.013 A  
DOCKED: ATOM     26  C   UNL     1     141.053  71.836 227.066 -0.77 -0.01    +0.029 A  
DOCKED: ATOM     27  C   UNL     1     139.953  69.977 225.945 -0.49 -0.00    +0.000 A  
DOCKED: ATOM     28  C   UNL     1     140.958  71.154 228.282 -0.69 -0.00    +0.002 A  
DOCKED: ATOM     29  C   UNL     1     139.861  69.299 227.169 -0.57 -0.00    +0.010 A  
DOCKED: ATOM     30  C   UNL     1     140.364  69.888 228.334 -0.59 -0.00    +0.001 A  
DOCKED: ENDBRANCH  18  21
DOCKED: ENDBRANCH  16  17
DOCKED: ENDBRANCH   1  16
DOCKED: TORSDOF 6
DOCKED: TER
DOCKED: ENDMDL
________________________________________________________________________________


    FINAL DOCKED STATE:
    ________________________


Run:   5 / 20
Time taken for this run:   0.034s

DOCKED: MODEL        5
DOCKED: USER    Run = 5
DOCKED: USER
DOCKED: USER    Estimated Free Energy of Binding    =  -8.40 kcal/mol  [=(1)+(2)+(3)-(4)]
DOCKED: USER
DOCKED: USER    (1) Final Intermolecular Energy     = -10.19 kcal/mol
DOCKED: USER        vdW + Hbond + desolv Energy     =  -9.95 kcal/mol
DOCKED: USER        Electrostatic Energy            =  -0.24 kcal/mol
DOCKED: USER        Moving Ligand-Fixed Receptor    = -10.19 kcal/mol
DOCKED: USER        Moving Ligand-Moving Receptor   =  +0.00 kcal/mol
DOCKED: USER    (2) Final Total Internal Energy     =  -1.51 kcal/mol
DOCKED: USER    (3) Torsional Free Energy           =  +1.79 kcal/mol
DOCKED: USER    (4) Unbound System's Energy         =  -1.51 kcal/mol
DOCKED: USER
DOCKED: USER
DOCKED: REMARK SMILES O=C(NC/C(O)=[N+]1/CCCC[C@H]1c1ccccc1)c1ccc2ccccc2n1
DOCKED: REMARK SMILES IDX 5 1 6 2 7 4 8 5 12 6 9 7 11 8 10 9 13 10 14 11 18 12 15 13
DOCKED: REMARK SMILES IDX 17 14 16 15 4 16 3 17 2 18 1 20 19 21 28 22 20 23 27 24
DOCKED: REMARK SMILES IDX 21 25 26 26 22 27 25 28 23 29 24 30
DOCKED: REMARK H PARENT 6 3 3 19
DOCKED: USER                              x       y       z     vdW  Elec       q    Type
DOCKED: USER                           _______ _______ _______ _____ _____    ______ ____
DOCKED: ROOT
DOCKED: ATOM      1  C   UNL     1     138.390  71.974 222.427 -0.09 -0.09    +0.354 C  
DOCKED: ENDROOT
DOCKED: BRANCH   1   2
DOCKED: ATOM      2  O   UNL     1     137.275  72.702 222.867 -0.01 +0.17    -0.462 OA 
DOCKED: ATOM      3  H   UNL     1     137.320  73.540 223.431 -0.46 -0.22    +0.299 HD 
DOCKED: ENDBRANCH   1   2
DOCKED: BRANCH   1   4
DOCKED: ATOM      4  N   UNL     1     138.479  70.660 222.588 -0.11 +0.04    -0.194 N  
DOCKED: ATOM      5  C   UNL     1     139.076  69.850 221.494 -0.05 -0.06    +0.354 C  
DOCKED: ATOM      6  C   UNL     1     138.106  70.037 223.896 -0.17 -0.05    +0.294 C  
DOCKED: ATOM      7  C   UNL     1     138.730  68.360 221.535 -0.15 -0.01    +0.073 C  
DOCKED: ATOM      8  C   UNL     1     137.821  68.525 223.817 -0.14 -0.01    +0.082 C  
DOCKED: ATOM      9  C   UNL     1     138.826  67.799 222.940 -0.25 -0.00    +0.014 C  
DOCKED: BRANCH   6  10
DOCKED: ATOM     10  C   UNL     1     139.146  70.323 224.972 -0.38 -0.00    +0.019 A  
DOCKED: ATOM     11  C   UNL     1     140.149  71.295 224.798 -0.48 -0.00    +0.010 A  
DOCKED: ATOM     12  C   UNL     1     139.138  69.562 226.157 -0.43 -0.00    +0.010 A  
DOCKED: ATOM     13  C   UNL     1     141.103  71.516 225.795 -0.63 -0.00    +0.001 A  
DOCKED: ATOM     14  C   UNL     1     140.094  69.787 227.151 -0.58 -0.00    +0.001 A  
DOCKED: ATOM     15  C   UNL     1     141.074  70.765 226.973 -0.64 -0.00    +0.000 A  
DOCKED: ENDBRANCH   6  10
DOCKED: ENDBRANCH   1   4
DOCKED: BRANCH   1  16
DOCKED: ATOM     16  C   UNL     1     139.481  72.801 221.783 -0.16 -0.05    +0.269 C  
DOCKED: BRANCH  16  17
DOCKED: ATOM     17  N   UNL     1     139.363  74.209 222.163 -0.11 +0.07    -0.337 N  
DOCKED: ATOM     18  C   UNL     1     140.352  75.173 221.774 -0.18 -0.04    +0.270 C  
DOCKED: ATOM     19  H   UNL     1     138.551  74.515 222.746 -0.55 -0.07    +0.164 HD 
DOCKED: ATOM     20  O   UNL     1     141.312  74.818 221.034 -0.24 +0.07    -0.268 OA 
DOCKED: BRANCH  18  21
DOCKED: ATOM     21  C   UNL     1     140.260  76.574 222.237 -0.33 -0.03    +0.128 A  
DOCKED: ATOM     22  N   UNL     1     141.400  77.288 222.456 -0.12 +0.12    -0.243 NA 
DOCKED: ATOM     23  C   UNL     1     139.014  77.187 222.450 -0.30 -0.01    +0.035 A  
DOCKED: ATOM     24  C   UNL     1     141.377  78.580 222.878 -0.48 -0.03    +0.071 A  
DOCKED: ATOM     25  C   UNL     1     138.957  78.513 222.882 -0.31 -0.00    +0.013 A  
DOCKED: ATOM     26  C   UNL     1     142.575  79.272 223.090 -0.56 -0.01    +0.029 A  
DOCKED: ATOM     27  C   UNL     1     140.142  79.226 223.102 -0.43 -0.00    +0.000 A  
DOCKED: ATOM     28  C   UNL     1     142.547  80.601 223.523 -0.67 -0.00    +0.002 A  
DOCKED: ATOM     29  C   UNL     1     140.122  80.560 223.536 -0.43 -0.00    +0.010 A  
DOCKED: ATOM     30  C   UNL     1     141.324  81.243 223.747 -0.50 -0.00    +0.001 A  
DOCKED: ENDBRANCH  18  21
DOCKED: ENDBRANCH  16  17
DOCKED: ENDBRANCH   1  16
DOCKED: TORSDOF 6
DOCKED: TER
DOCKED: ENDMDL
________________________________________________________________________________


    FINAL DOCKED STATE:
    ________________________


Run:   6 / 20
Time taken for this run:   0.034s

DOCKED: MODEL        6
DOCKED: USER    Run = 6
DOCKED: USER
DOCKED: USER    Estimated Free Energy of Binding    =  -9.09 kcal/mol  [=(1)+(2)+(3)-(4)]
DOCKED: USER
DOCKED: USER    (1) Final Intermolecular Energy     = -10.88 kcal/mol
DOCKED: USER        vdW + Hbond + desolv Energy     = -10.35 kcal/mol
DOCKED: USER        Electrostatic Energy            =  -0.54 kcal/mol
DOCKED: USER        Moving Ligand-Fixed Receptor    = -10.88 kcal/mol
DOCKED: USER        Moving Ligand-Moving Receptor   =  +0.00 kcal/mol
DOCKED: USER    (2) Final Total Internal Energy     =  -1.61 kcal/mol
DOCKED: USER    (3) Torsional Free Energy           =  +1.79 kcal/mol
DOCKED: USER    (4) Unbound System's Energy         =  -1.61 kcal/mol
DOCKED: USER
DOCKED: USER
DOCKED: REMARK SMILES O=C(NC/C(O)=[N+]1/CCCC[C@H]1c1ccccc1)c1ccc2ccccc2n1
DOCKED: REMARK SMILES IDX 5 1 6 2 7 4 8 5 12 6 9 7 11 8 10 9 13 10 14 11 18 12 15 13
DOCKED: REMARK SMILES IDX 17 14 16 15 4 16 3 17 2 18 1 20 19 21 28 22 20 23 27 24
DOCKED: REMARK SMILES IDX 21 25 26 26 22 27 25 28 23 29 24 30
DOCKED: REMARK H PARENT 6 3 3 19
DOCKED: USER                              x       y       z     vdW  Elec       q    Type
DOCKED: USER                           _______ _______ _______ _____ _____    ______ ____
DOCKED: ROOT
DOCKED: ATOM      1  C   UNL     1     140.918  75.406 221.090 -0.17 -0.10    +0.354 C  
DOCKED: ENDROOT
DOCKED: BRANCH   1   2
DOCKED: ATOM      2  O   UNL     1     140.995  76.000 222.358 -0.28 +0.12    -0.462 OA 
DOCKED: ATOM      3  H   UNL     1     141.846  76.345 222.781 -0.37 -0.18    +0.299 HD 
DOCKED: ENDBRANCH   1   2
DOCKED: BRANCH   1   4
DOCKED: ATOM      4  N   UNL     1     141.622  75.857 220.060 -0.15 +0.08    -0.194 N  
DOCKED: ATOM      5  C   UNL     1     141.890  77.316 219.967 -0.15 -0.21    +0.354 C  
DOCKED: ATOM      6  C   UNL     1     142.239  74.895 219.094 -0.09 -0.10    +0.294 C  
DOCKED: ATOM      7  C   UNL     1     142.278  77.811 218.571 -0.27 -0.05    +0.073 C  
DOCKED: ATOM      8  C   UNL     1     142.624  75.520 217.740 -0.14 -0.03    +0.082 C  
DOCKED: ATOM      9  C   UNL     1     143.273  76.883 217.903 -0.25 -0.01    +0.014 C  
DOCKED: BRANCH   6  10
DOCKED: ATOM     10  C   UNL     1     143.435  74.175 219.704 -0.31 -0.01    +0.019 A  
DOCKED: ATOM     11  C   UNL     1     144.481  74.874 220.337 -0.39 -0.00    +0.010 A  
DOCKED: ATOM     12  C   UNL     1     143.527  72.775 219.591 -0.23 -0.00    +0.010 A  
DOCKED: ATOM     13  C   UNL     1     145.576  74.185 220.865 -0.60 -0.00    +0.001 A  
DOCKED: ATOM     14  C   UNL     1     144.625  72.090 220.121 -0.36 -0.00    +0.001 A  
DOCKED: ATOM     15  C   UNL     1     145.647  72.794 220.760 -0.56 -0.00    +0.000 A  
DOCKED: ENDBRANCH   6  10
DOCKED: ENDBRANCH   1   4
DOCKED: BRANCH   1  16
DOCKED: ATOM     16  C   UNL     1     139.961  74.239 220.987 -0.15 -0.05    +0.269 C  
DOCKED: BRANCH  16  17
DOCKED: ATOM     17  N   UNL     1     139.916  73.487 222.241 -0.14 +0.04    -0.337 N  
DOCKED: ATOM     18  C   UNL     1     140.303  72.107 222.298 -0.21 -0.03    +0.270 C  
DOCKED: ATOM     19  H   UNL     1     139.578  73.961 223.109 -0.51 -0.02    +0.164 HD 
DOCKED: ATOM     20  O   UNL     1     140.754  71.541 221.263 -0.12 +0.04    -0.268 OA 
DOCKED: BRANCH  18  21
DOCKED: ATOM     21  C   UNL     1     140.173  71.340 223.557 -0.32 -0.02    +0.128 A  
DOCKED: ATOM     22  N   UNL     1     140.633  71.876 224.722 -0.27 +0.03    -0.243 NA 
DOCKED: ATOM     23  C   UNL     1     139.576  70.068 223.572 -0.27 -0.01    +0.035 A  
DOCKED: ATOM     24  C   UNL     1     140.537  71.220 225.909 -0.55 -0.01    +0.071 A  
DOCKED: ATOM     25  C   UNL     1     139.463  69.370 224.777 -0.37 -0.00    +0.013 A  
DOCKED: ATOM     26  C   UNL     1     141.025  71.811 227.080 -0.76 -0.01    +0.029 A  
DOCKED: ATOM     27  C   UNL     1     139.944  69.940 225.961 -0.49 -0.00    +0.000 A  
DOCKED: ATOM     28  C   UNL     1     140.924  71.134 228.299 -0.68 -0.00    +0.002 A  
DOCKED: ATOM     29  C   UNL     1     139.846  69.268 227.188 -0.57 -0.00    +0.010 A  
DOCKED: ATOM     30  C   UNL     1     140.336  69.865 228.353 -0.59 -0.00    +0.001 A  
DOCKED: ENDBRANCH  18  21
DOCKED: ENDBRANCH  16  17
DOCKED: ENDBRANCH   1  16
DOCKED: TORSDOF 6
DOCKED: TER
DOCKED: ENDMDL
________________________________________________________________________________


    FINAL DOCKED STATE:
    ________________________


Run:   7 / 20
Time taken for this run:   0.034s

DOCKED: MODEL        7
DOCKED: USER    Run = 7
DOCKED: USER
DOCKED: USER    Estimated Free Energy of Binding    =  -8.90 kcal/mol  [=(1)+(2)+(3)-(4)]
DOCKED: USER
DOCKED: USER    (1) Final Intermolecular Energy     = -10.69 kcal/mol
DOCKED: USER        vdW + Hbond + desolv Energy     = -10.25 kcal/mol
DOCKED: USER        Electrostatic Energy            =  -0.44 kcal/mol
DOCKED: USER        Moving Ligand-Fixed Receptor    = -10.69 kcal/mol
DOCKED: USER        Moving Ligand-Moving Receptor   =  +0.00 kcal/mol
DOCKED: USER    (2) Final Total Internal Energy     =  -1.80 kcal/mol
DOCKED: USER    (3) Torsional Free Energy           =  +1.79 kcal/mol
DOCKED: USER    (4) Unbound System's Energy         =  -1.80 kcal/mol
DOCKED: USER
DOCKED: USER
DOCKED: REMARK SMILES O=C(NC/C(O)=[N+]1/CCCC[C@H]1c1ccccc1)c1ccc2ccccc2n1
DOCKED: REMARK SMILES IDX 5 1 6 2 7 4 8 5 12 6 9 7 11 8 10 9 13 10 14 11 18 12 15 13
DOCKED: REMARK SMILES IDX 17 14 16 15 4 16 3 17 2 18 1 20 19 21 28 22 20 23 27 24
DOCKED: REMARK SMILES IDX 21 25 26 26 22 27 25 28 23 29 24 30
DOCKED: REMARK H PARENT 6 3 3 19
DOCKED: USER                              x       y       z     vdW  Elec       q    Type
DOCKED: USER                           _______ _______ _______ _____ _____    ______ ____
DOCKED: ROOT
DOCKED: ATOM      1  C   UNL     1     140.659  74.207 221.145 -0.15 -0.06    +0.354 C  
DOCKED: ENDROOT
DOCKED: BRANCH   1   2
DOCKED: ATOM      2  O   UNL     1     139.971  74.498 222.331 -0.71 +0.01    -0.462 OA 
DOCKED: ATOM      3  H   UNL     1     139.246  73.919 222.733 -0.43 -0.09    +0.299 HD 
DOCKED: ENDBRANCH   1   2
DOCKED: BRANCH   1   4
DOCKED: ATOM      4  N   UNL     1     141.347  75.131 220.486 -0.16 +0.06    -0.194 N  
DOCKED: ATOM      5  C   UNL     1     141.308  76.532 220.983 -0.13 -0.16    +0.354 C  
DOCKED: ATOM      6  C   UNL     1     142.241  74.737 219.354 -0.10 -0.10    +0.294 C  
DOCKED: ATOM      7  C   UNL     1     141.714  77.590 219.953 -0.26 -0.04    +0.073 C  
DOCKED: ATOM      8  C   UNL     1     142.612  75.896 218.410 -0.21 -0.04    +0.082 C  
DOCKED: ATOM      9  C   UNL     1     142.941  77.169 219.169 -0.31 -0.01    +0.014 C  
DOCKED: BRANCH   6  10
DOCKED: ATOM     10  C   UNL     1     143.498  74.034 219.848 -0.32 -0.01    +0.019 A  
DOCKED: ATOM     11  C   UNL     1     144.572  74.744 220.420 -0.42 -0.00    +0.010 A  
DOCKED: ATOM     12  C   UNL     1     143.617  72.640 219.687 -0.24 -0.00    +0.010 A  
DOCKED: ATOM     13  C   UNL     1     145.722  74.072 220.842 -0.64 -0.00    +0.001 A  
DOCKED: ATOM     14  C   UNL     1     144.770  71.973 220.111 -0.35 -0.00    +0.001 A  
DOCKED: ATOM     15  C   UNL     1     145.820  72.687 220.691 -0.55 +0.00    +0.000 A  
DOCKED: ENDBRANCH   6  10
DOCKED: ENDBRANCH   1   4
DOCKED: BRANCH   1  16
DOCKED: ATOM     16  C   UNL     1     140.536  72.776 220.668 -0.10 -0.04    +0.269 C  
DOCKED: BRANCH  16  17
DOCKED: ATOM     17  N   UNL     1     140.621  71.842 221.790 -0.12 +0.04    -0.337 N  
DOCKED: ATOM     18  C   UNL     1     139.487  71.578 222.629 -0.19 -0.05    +0.270 C  
DOCKED: ATOM     19  H   UNL     1     141.531  71.370 221.994 +0.06 -0.01    +0.164 HD 
DOCKED: ATOM     20  O   UNL     1     138.374  72.110 222.360 -0.13 +0.07    -0.268 OA 
DOCKED: BRANCH  18  21
DOCKED: ATOM     21  C   UNL     1     139.614  70.694 223.808 -0.29 -0.02    +0.128 A  
DOCKED: ATOM     22  N   UNL     1     140.229  71.155 224.934 -0.31 +0.04    -0.243 NA 
DOCKED: ATOM     23  C   UNL     1     139.105  69.384 223.790 -0.27 -0.01    +0.035 A  
DOCKED: ATOM     24  C   UNL     1     140.370  70.390 226.048 -0.50 -0.01    +0.071 A  
DOCKED: ATOM     25  C   UNL     1     139.236  68.574 224.920 -0.40 -0.00    +0.013 A  
DOCKED: ATOM     26  C   UNL     1     141.010  70.908 227.180 -0.65 -0.00    +0.029 A  
DOCKED: ATOM     27  C   UNL     1     139.872  69.069 226.064 -0.51 -0.00    +0.000 A  
DOCKED: ATOM     28  C   UNL     1     141.153  70.119 228.325 -0.53 -0.00    +0.002 A  
DOCKED: ATOM     29  C   UNL     1     140.019  68.284 227.217 -0.65 -0.00    +0.010 A  
DOCKED: ATOM     30  C   UNL     1     140.660  68.809 228.343 -0.66 -0.00    +0.001 A  
DOCKED: ENDBRANCH  18  21
DOCKED: ENDBRANCH  16  17
DOCKED: ENDBRANCH   1  16
DOCKED: TORSDOF 6
DOCKED: TER
DOCKED: ENDMDL
________________________________________________________________________________


    FINAL DOCKED STATE:
    ________________________


Run:   8 / 20
Time taken for this run:   0.034s

DOCKED: MODEL        8
DOCKED: USER    Run = 8
DOCKED: USER
DOCKED: USER    Estimated Free Energy of Binding    =  -8.84 kcal/mol  [=(1)+(2)+(3)-(4)]
DOCKED: USER
DOCKED: USER    (1) Final Intermolecular Energy     = -10.63 kcal/mol
DOCKED: USER        vdW + Hbond + desolv Energy     = -10.17 kcal/mol
DOCKED: USER        Electrostatic Energy            =  -0.45 kcal/mol
DOCKED: USER        Moving Ligand-Fixed Receptor    = -10.63 kcal/mol
DOCKED: USER        Moving Ligand-Moving Receptor   =  +0.00 kcal/mol
DOCKED: USER    (2) Final Total Internal Energy     =  -1.60 kcal/mol
DOCKED: USER    (3) Torsional Free Energy           =  +1.79 kcal/mol
DOCKED: USER    (4) Unbound System's Energy         =  -1.60 kcal/mol
DOCKED: USER
DOCKED: USER
DOCKED: REMARK SMILES O=C(NC/C(O)=[N+]1/CCCC[C@H]1c1ccccc1)c1ccc2ccccc2n1
DOCKED: REMARK SMILES IDX 5 1 6 2 7 4 8 5 12 6 9 7 11 8 10 9 13 10 14 11 18 12 15 13
DOCKED: REMARK SMILES IDX 17 14 16 15 4 16 3 17 2 18 1 20 19 21 28 22 20 23 27 24
DOCKED: REMARK SMILES IDX 21 25 26 26 22 27 25 28 23 29 24 30
DOCKED: REMARK H PARENT 6 3 3 19
DOCKED: USER                              x       y       z     vdW  Elec       q    Type
DOCKED: USER                           _______ _______ _______ _____ _____    ______ ____
DOCKED: ROOT
DOCKED: ATOM      1  C   UNL     1     140.001  75.555 221.376 -0.17 -0.08    +0.354 C  
DOCKED: ENDROOT
DOCKED: BRANCH   1   2
DOCKED: ATOM      2  O   UNL     1     139.507  75.880 222.647 -0.32 +0.08    -0.462 OA 
DOCKED: ATOM      3  H   UNL     1     138.915  75.279 223.205 -0.41 -0.10    +0.299 HD 
DOCKED: ENDBRANCH   1   2
DOCKED: BRANCH   1   4
DOCKED: ATOM      4  N   UNL     1     140.332  76.488 220.492 -0.10 +0.06    -0.194 N  
DOCKED: ATOM      5  C   UNL     1     139.406  76.751 219.359 -0.00 -0.10    +0.354 C  
DOCKED: ATOM      6  C   UNL     1     141.543  77.338 220.715 -0.16 -0.16    +0.294 C  
DOCKED: ATOM      7  C   UNL     1     140.041  77.469 218.164 -0.04 -0.03    +0.073 C  
DOCKED: ATOM      8  C   UNL     1     142.063  78.040 219.446 -0.24 -0.05    +0.082 C  
DOCKED: ATOM      9  C   UNL     1     140.935  78.610 218.605 -0.15 -0.01    +0.014 C  
DOCKED: BRANCH   6  10
DOCKED: ATOM     10  C   UNL     1     141.320  78.354 221.827 -0.39 -0.01    +0.019 A  
DOCKED: ATOM     11  C   UNL     1     140.030  78.686 222.285 -0.32 -0.00    +0.010 A  
DOCKED: ATOM     12  C   UNL     1     142.429  79.019 222.384 -0.44 -0.01    +0.010 A  
DOCKED: ATOM     13  C   UNL     1     139.859  79.639 223.292 -0.42 -0.00    +0.001 A  
DOCKED: ATOM     14  C   UNL     1     142.252  79.973 223.391 -0.64 -0.00    +0.001 A  
DOCKED: ATOM     15  C   UNL     1     140.969  80.281 223.847 -0.48 -0.00    +0.000 A  
DOCKED: ENDBRANCH   6  10
DOCKED: ENDBRANCH   1   4
DOCKED: BRANCH   1  16
DOCKED: ATOM     16  C   UNL     1     140.105  74.073 221.088 -0.16 -0.05    +0.269 C  
DOCKED: BRANCH  16  17
DOCKED: ATOM     17  N   UNL     1     139.997  73.292 222.320 -0.15 +0.03    -0.337 N  
DOCKED: ATOM     18  C   UNL     1     140.401  71.916 222.370 -0.20 -0.03    +0.270 C  
DOCKED: ATOM     19  H   UNL     1     139.600  73.741 223.176 -0.49 -0.03    +0.164 HD 
DOCKED: ATOM     20  O   UNL     1     140.922  71.382 221.351 -0.13 +0.03    -0.268 OA 
DOCKED: BRANCH  18  21
DOCKED: ATOM     21  C   UNL     1     140.208  71.120 223.601 -0.31 -0.02    +0.128 A  
DOCKED: ATOM     22  N   UNL     1     140.669  71.596 224.791 -0.31 +0.03    -0.243 NA 
DOCKED: ATOM     23  C   UNL     1     139.549  69.879 223.565 -0.25 -0.01    +0.035 A  
DOCKED: ATOM     24  C   UNL     1     140.516  70.910 225.955 -0.54 -0.01    +0.071 A  
DOCKED: ATOM     25  C   UNL     1     139.376  69.151 224.744 -0.37 -0.00    +0.013 A  
DOCKED: ATOM     26  C   UNL     1     141.008  71.440 227.153 -0.73 -0.00    +0.029 A  
DOCKED: ATOM     27  C   UNL     1     139.860  69.660 225.955 -0.48 -0.00    +0.000 A  
DOCKED: ATOM     28  C   UNL     1     140.849  70.732 228.348 -0.59 -0.00    +0.002 A  
DOCKED: ATOM     29  C   UNL     1     139.704  68.956 227.158 -0.58 -0.00    +0.010 A  
DOCKED: ATOM     30  C   UNL     1     140.199  69.493 228.351 -0.62 -0.00    +0.001 A  
DOCKED: ENDBRANCH  18  21
DOCKED: ENDBRANCH  16  17
DOCKED: ENDBRANCH   1  16
DOCKED: TORSDOF 6
DOCKED: TER
DOCKED: ENDMDL
________________________________________________________________________________


    FINAL DOCKED STATE:
    ________________________


Run:   9 / 20
Time taken for this run:   0.034s

DOCKED: MODEL        9
DOCKED: USER    Run = 9
DOCKED: USER
DOCKED: USER    Estimated Free Energy of Binding    =  -8.62 kcal/mol  [=(1)+(2)+(3)-(4)]
DOCKED: USER
DOCKED: USER    (1) Final Intermolecular Energy     = -10.41 kcal/mol
DOCKED: USER        vdW + Hbond + desolv Energy     =  -9.99 kcal/mol
DOCKED: USER        Electrostatic Energy            =  -0.42 kcal/mol
DOCKED: USER        Moving Ligand-Fixed Receptor    = -10.41 kcal/mol
DOCKED: USER        Moving Ligand-Moving Receptor   =  +0.00 kcal/mol
DOCKED: USER    (2) Final Total Internal Energy     =  -1.62 kcal/mol
DOCKED: USER    (3) Torsional Free Energy           =  +1.79 kcal/mol
DOCKED: USER    (4) Unbound System's Energy         =  -1.62 kcal/mol
DOCKED: USER
DOCKED: USER
DOCKED: REMARK SMILES O=C(NC/C(O)=[N+]1/CCCC[C@H]1c1ccccc1)c1ccc2ccccc2n1
DOCKED: REMARK SMILES IDX 5 1 6 2 7 4 8 5 12 6 9 7 11 8 10 9 13 10 14 11 18 12 15 13
DOCKED: REMARK SMILES IDX 17 14 16 15 4 16 3 17 2 18 1 20 19 21 28 22 20 23 27 24
DOCKED: REMARK SMILES IDX 21 25 26 26 22 27 25 28 23 29 24 30
DOCKED: REMARK H PARENT 6 3 3 19
DOCKED: USER                              x       y       z     vdW  Elec       q    Type
DOCKED: USER                           _______ _______ _______ _____ _____    ______ ____
DOCKED: ROOT
DOCKED: ATOM      1  C   UNL     1     139.645  75.666 221.363 -0.15 -0.08    +0.354 C  
DOCKED: ENDROOT
DOCKED: BRANCH   1   2
DOCKED: ATOM      2  O   UNL     1     139.019  75.898 222.596 -0.24 +0.10    -0.462 OA 
DOCKED: ATOM      3  H   UNL     1     138.515  75.200 223.126 -0.42 -0.13    +0.299 HD 
DOCKED: ENDBRANCH   1   2
DOCKED: BRANCH   1   4
DOCKED: ATOM      4  N   UNL     1     139.845  76.639 220.482 -0.07 +0.06    -0.194 N  
DOCKED: ATOM      5  C   UNL     1     138.740  76.991 219.551 -0.00 -0.09    +0.354 C  
DOCKED: ATOM      6  C   UNL     1     141.106  77.442 220.525 -0.15 -0.13    +0.294 C  
DOCKED: ATOM      7  C   UNL     1     139.175  77.758 218.300 -0.02 -0.02    +0.073 C  
DOCKED: ATOM      8  C   UNL     1     141.414  78.201 219.220 -0.20 -0.04    +0.082 C  
DOCKED: ATOM      9  C   UNL     1     140.175  78.848 218.629 -0.08 -0.01    +0.014 C  
DOCKED: BRANCH   6  10
DOCKED: ATOM     10  C   UNL     1     141.125  78.398 221.710 -0.36 -0.01    +0.019 A  
DOCKED: ATOM     11  C   UNL     1     139.977  78.641 222.489 -0.34 -0.00    +0.010 A  
DOCKED: ATOM     12  C   UNL     1     142.308  79.099 222.010 -0.40 -0.01    +0.010 A  
DOCKED: ATOM     13  C   UNL     1     140.022  79.542 223.555 -0.45 -0.00    +0.001 A  
DOCKED: ATOM     14  C   UNL     1     142.348  80.000 223.079 -0.63 -0.00    +0.001 A  
DOCKED: ATOM     15  C   UNL     1     141.207  80.220 223.852 -0.51 -0.00    +0.000 A  
DOCKED: ENDBRANCH   6  10
DOCKED: ENDBRANCH   1   4
DOCKED: BRANCH   1  16
DOCKED: ATOM     16  C   UNL     1     140.049  74.230 221.110 -0.16 -0.05    +0.269 C  
DOCKED: BRANCH  16  17
DOCKED: ATOM     17  N   UNL     1     139.962  73.438 222.337 -0.14 +0.03    -0.337 N  
DOCKED: ATOM     18  C   UNL     1     140.377  72.065 222.371 -0.21 -0.03    +0.270 C  
DOCKED: ATOM     19  H   UNL     1     139.573  73.878 223.202 -0.50 -0.03    +0.164 HD 
DOCKED: ATOM     20  O   UNL     1     140.888  71.542 221.341 -0.13 +0.03    -0.268 OA 
DOCKED: BRANCH  18  21
DOCKED: ATOM     21  C   UNL     1     140.205  71.257 223.598 -0.32 -0.02    +0.128 A  
DOCKED: ATOM     22  N   UNL     1     140.643  71.744 224.792 -0.29 +0.03    -0.243 NA 
DOCKED: ATOM     23  C   UNL     1     139.590  69.994 223.554 -0.26 -0.01    +0.035 A  
DOCKED: ATOM     24  C   UNL     1     140.508  71.049 225.952 -0.54 -0.01    +0.071 A  
DOCKED: ATOM     25  C   UNL     1     139.437  69.256 224.729 -0.36 -0.00    +0.013 A  
DOCKED: ATOM     26  C   UNL     1     140.975  71.591 227.155 -0.75 -0.01    +0.029 A  
DOCKED: ATOM     27  C   UNL     1     139.896  69.777 225.944 -0.48 -0.00    +0.000 A  
DOCKED: ATOM     28  C   UNL     1     140.834  70.874 228.347 -0.62 -0.00    +0.002 A  
DOCKED: ATOM     29  C   UNL     1     139.758  69.063 227.144 -0.57 -0.00    +0.010 A  
DOCKED: ATOM     30  C   UNL     1     140.228  69.612 228.341 -0.61 -0.00    +0.001 A  
DOCKED: ENDBRANCH  18  21
DOCKED: ENDBRANCH  16  17
DOCKED: ENDBRANCH   1  16
DOCKED: TORSDOF 6
DOCKED: TER
DOCKED: ENDMDL
________________________________________________________________________________


    FINAL DOCKED STATE:
    ________________________


Run:   10 / 20
Time taken for this run:   0.034s

DOCKED: MODEL        10
DOCKED: USER    Run = 10
DOCKED: USER
DOCKED: USER    Estimated Free Energy of Binding    =  -8.83 kcal/mol  [=(1)+(2)+(3)-(4)]
DOCKED: USER
DOCKED: USER    (1) Final Intermolecular Energy     = -10.62 kcal/mol
DOCKED: USER        vdW + Hbond + desolv Energy     = -10.17 kcal/mol
DOCKED: USER        Electrostatic Energy            =  -0.45 kcal/mol
DOCKED: USER        Moving Ligand-Fixed Receptor    = -10.62 kcal/mol
DOCKED: USER        Moving Ligand-Moving Receptor   =  +0.00 kcal/mol
DOCKED: USER    (2) Final Total Internal Energy     =  -1.61 kcal/mol
DOCKED: USER    (3) Torsional Free Energy           =  +1.79 kcal/mol
DOCKED: USER    (4) Unbound System's Energy         =  -1.61 kcal/mol
DOCKED: USER
DOCKED: USER
DOCKED: REMARK SMILES O=C(NC/C(O)=[N+]1/CCCC[C@H]1c1ccccc1)c1ccc2ccccc2n1
DOCKED: REMARK SMILES IDX 5 1 6 2 7 4 8 5 12 6 9 7 11 8 10 9 13 10 14 11 18 12 15 13
DOCKED: REMARK SMILES IDX 17 14 16 15 4 16 3 17 2 18 1 20 19 21 28 22 20 23 27 24
DOCKED: REMARK SMILES IDX 21 25 26 26 22 27 25 28 23 29 24 30
DOCKED: REMARK H PARENT 6 3 3 19
DOCKED: USER                              x       y       z     vdW  Elec       q    Type
DOCKED: USER                           _______ _______ _______ _____ _____    ______ ____
DOCKED: ROOT
DOCKED: ATOM      1  C   UNL     1     139.959  75.547 221.420 -0.17 -0.08    +0.354 C  
DOCKED: ENDROOT
DOCKED: BRANCH   1   2
DOCKED: ATOM      2  O   UNL     1     139.529  75.874 222.714 -0.33 +0.07    -0.462 OA 
DOCKED: ATOM      3  H   UNL     1     138.939  75.288 223.290 -0.40 -0.10    +0.299 HD 
DOCKED: ENDBRANCH   1   2
DOCKED: BRANCH   1   4
DOCKED: ATOM      4  N   UNL     1     140.267  76.478 220.526 -0.10 +0.06    -0.194 N  
DOCKED: ATOM      5  C   UNL     1     139.318  76.732 219.410 -0.00 -0.10    +0.354 C  
DOCKED: ATOM      6  C   UNL     1     141.477  77.335 220.722 -0.17 -0.15    +0.294 C  
DOCKED: ATOM      7  C   UNL     1     139.925  77.448 218.201 -0.04 -0.02    +0.073 C  
DOCKED: ATOM      8  C   UNL     1     141.968  78.035 219.441 -0.24 -0.05    +0.082 C  
DOCKED: ATOM      9  C   UNL     1     140.821  78.596 218.620 -0.13 -0.01    +0.014 C  
DOCKED: BRANCH   6  10
DOCKED: ATOM     10  C   UNL     1     141.271  78.354 221.835 -0.39 -0.01    +0.019 A  
DOCKED: ATOM     11  C   UNL     1     139.988  78.686 222.312 -0.32 -0.00    +0.010 A  
DOCKED: ATOM     12  C   UNL     1     142.388  79.023 222.372 -0.45 -0.01    +0.010 A  
DOCKED: ATOM     13  C   UNL     1     139.831  79.643 223.318 -0.42 -0.00    +0.001 A  
DOCKED: ATOM     14  C   UNL     1     142.225  79.979 223.379 -0.64 -0.00    +0.001 A  
DOCKED: ATOM     15  C   UNL     1     140.949  80.288 223.853 -0.47 -0.00    +0.000 A  
DOCKED: ENDBRANCH   6  10
DOCKED: ENDBRANCH   1   4
DOCKED: BRANCH   1  16
DOCKED: ATOM     16  C   UNL     1     140.020  74.065 221.121 -0.16 -0.05    +0.269 C  
DOCKED: BRANCH  16  17
DOCKED: ATOM     17  N   UNL     1     139.946  73.279 222.352 -0.15 +0.04    -0.337 N  
DOCKED: ATOM     18  C   UNL     1     140.320  71.894 222.378 -0.21 -0.03    +0.270 C  
DOCKED: ATOM     19  H   UNL     1     139.597  73.732 223.228 -0.48 -0.03    +0.164 HD 
DOCKED: ATOM     20  O   UNL     1     140.783  71.353 221.336 -0.12 +0.03    -0.268 OA 
DOCKED: BRANCH  18  21
DOCKED: ATOM     21  C   UNL     1     140.160  71.095 223.612 -0.31 -0.02    +0.128 A  
DOCKED: ATOM     22  N   UNL     1     140.650  71.571 224.791 -0.31 +0.03    -0.243 NA 
DOCKED: ATOM     23  C   UNL     1     139.506  69.852 223.591 -0.25 -0.01    +0.035 A  
DOCKED: ATOM     24  C   UNL     1     140.529  70.883 225.957 -0.54 -0.01    +0.071 A  
DOCKED: ATOM     25  C   UNL     1     139.366  69.121 224.773 -0.37 -0.00    +0.013 A  
DOCKED: ATOM     26  C   UNL     1     141.049  71.413 227.144 -0.72 -0.00    +0.029 A  
DOCKED: ATOM     27  C   UNL     1     139.878  69.630 225.972 -0.48 -0.00    +0.000 A  
DOCKED: ATOM     28  C   UNL     1     140.923  70.703 228.342 -0.60 -0.00    +0.002 A  
DOCKED: ATOM     29  C   UNL     1     139.755  68.924 227.178 -0.58 -0.00    +0.010 A  
DOCKED: ATOM     30  C   UNL     1     140.278  69.461 228.358 -0.62 -0.00    +0.001 A  
DOCKED: ENDBRANCH  18  21
DOCKED: ENDBRANCH  16  17
DOCKED: ENDBRANCH   1  16
DOCKED: TORSDOF 6
DOCKED: TER
DOCKED: ENDMDL
________________________________________________________________________________


    FINAL DOCKED STATE:
    ________________________


Run:   11 / 20
Time taken for this run:   0.034s

DOCKED: MODEL        11
DOCKED: USER    Run = 11
DOCKED: USER
DOCKED: USER    Estimated Free Energy of Binding    =  -8.98 kcal/mol  [=(1)+(2)+(3)-(4)]
DOCKED: USER
DOCKED: USER    (1) Final Intermolecular Energy     = -10.77 kcal/mol
DOCKED: USER        vdW + Hbond + desolv Energy     = -10.33 kcal/mol
DOCKED: USER        Electrostatic Energy            =  -0.44 kcal/mol
DOCKED: USER        Moving Ligand-Fixed Receptor    = -10.77 kcal/mol
DOCKED: USER        Moving Ligand-Moving Receptor   =  +0.00 kcal/mol
DOCKED: USER    (2) Final Total Internal Energy     =  -1.50 kcal/mol
DOCKED: USER    (3) Torsional Free Energy           =  +1.79 kcal/mol
DOCKED: USER    (4) Unbound System's Energy         =  -1.50 kcal/mol
DOCKED: USER
DOCKED: USER
DOCKED: REMARK SMILES O=C(NC/C(O)=[N+]1/CCCC[C@H]1c1ccccc1)c1ccc2ccccc2n1
DOCKED: REMARK SMILES IDX 5 1 6 2 7 4 8 5 12 6 9 7 11 8 10 9 13 10 14 11 18 12 15 13
DOCKED: REMARK SMILES IDX 17 14 16 15 4 16 3 17 2 18 1 20 19 21 28 22 20 23 27 24
DOCKED: REMARK SMILES IDX 21 25 26 26 22 27 25 28 23 29 24 30
DOCKED: REMARK H PARENT 6 3 3 19
DOCKED: USER                              x       y       z     vdW  Elec       q    Type
DOCKED: USER                           _______ _______ _______ _____ _____    ______ ____
DOCKED: ROOT
DOCKED: ATOM      1  C   UNL     1     139.854  75.874 221.421 -0.17 -0.08    +0.354 C  
DOCKED: ENDROOT
DOCKED: BRANCH   1   2
DOCKED: ATOM      2  O   UNL     1     139.318  76.147 222.688 -0.24 +0.08    -0.462 OA 
DOCKED: ATOM      3  H   UNL     1     138.817  75.478 223.257 -0.34 -0.10    +0.299 HD 
DOCKED: ENDBRANCH   1   2
DOCKED: BRANCH   1   4
DOCKED: ATOM      4  N   UNL     1     140.115  76.837 220.546 -0.09 +0.06    -0.194 N  
DOCKED: ATOM      5  C   UNL     1     139.005  77.342 219.695 -0.00 -0.09    +0.354 C  
DOCKED: ATOM      6  C   UNL     1     141.464  77.481 220.520 -0.17 -0.15    +0.294 C  
DOCKED: ATOM      7  C   UNL     1     139.451  78.082 218.432 -0.03 -0.02    +0.073 C  
DOCKED: ATOM      8  C   UNL     1     141.780  78.230 219.211 -0.24 -0.05    +0.082 C  
DOCKED: ATOM      9  C   UNL     1     140.594  79.036 218.713 -0.12 -0.01    +0.014 C  
DOCKED: BRANCH   6  10
DOCKED: ATOM     10  C   UNL     1     141.673  78.399 221.717 -0.37 -0.01    +0.019 A  
DOCKED: ATOM     11  C   UNL     1     141.438  77.966 223.037 -0.47 -0.00    +0.010 A  
DOCKED: ATOM     12  C   UNL     1     142.067  79.733 221.502 -0.40 -0.00    +0.010 A  
DOCKED: ATOM     13  C   UNL     1     141.616  78.841 224.112 -0.55 -0.00    +0.001 A  
DOCKED: ATOM     14  C   UNL     1     142.244  80.604 222.581 -0.58 -0.00    +0.001 A  
DOCKED: ATOM     15  C   UNL     1     142.022  80.158 223.885 -0.61 -0.00    +0.000 A  
DOCKED: ENDBRANCH   6  10
DOCKED: ENDBRANCH   1   4
DOCKED: BRANCH   1  16
DOCKED: ATOM     16  C   UNL     1     140.086  74.408 221.127 -0.17 -0.05    +0.269 C  
DOCKED: BRANCH  16  17
DOCKED: ATOM     17  N   UNL     1     139.977  73.606 222.345 -0.10 +0.02    -0.337 N  
DOCKED: ATOM     18  C   UNL     1     140.427  72.244 222.386 -0.21 -0.03    +0.270 C  
DOCKED: ATOM     19  H   UNL     1     139.547  74.029 223.199 -0.50 -0.02    +0.164 HD 
DOCKED: ATOM     20  O   UNL     1     140.988  71.742 221.373 -0.14 +0.03    -0.268 OA 
DOCKED: BRANCH  18  21
DOCKED: ATOM     21  C   UNL     1     140.233  71.424 223.602 -0.33 -0.02    +0.128 A  
DOCKED: ATOM     22  N   UNL     1     140.681  71.884 224.803 -0.27 +0.03    -0.243 NA 
DOCKED: ATOM     23  C   UNL     1     139.588  70.177 223.539 -0.27 -0.01    +0.035 A  
DOCKED: ATOM     24  C   UNL     1     140.527  71.176 225.954 -0.55 -0.01    +0.071 A  
DOCKED: ATOM     25  C   UNL     1     139.415  69.427 224.704 -0.36 -0.00    +0.013 A  
DOCKED: ATOM     26  C   UNL     1     141.005  71.690 227.165 -0.76 -0.01    +0.029 A  
DOCKED: ATOM     27  C   UNL     1     139.885  69.919 225.927 -0.49 -0.00    +0.000 A  
DOCKED: ATOM     28  C   UNL     1     140.845  70.960 228.346 -0.64 -0.00    +0.002 A  
DOCKED: ATOM     29  C   UNL     1     139.727  69.193 227.117 -0.56 -0.00    +0.010 A  
DOCKED: ATOM     30  C   UNL     1     140.208  69.714 228.322 -0.61 -0.00    +0.001 A  
DOCKED: ENDBRANCH  18  21
DOCKED: ENDBRANCH  16  17
DOCKED: ENDBRANCH   1  16
DOCKED: TORSDOF 6
DOCKED: TER
DOCKED: ENDMDL
________________________________________________________________________________


    FINAL DOCKED STATE:
    ________________________


Run:   12 / 20
Time taken for this run:   0.034s

DOCKED: MODEL        12
DOCKED: USER    Run = 12
DOCKED: USER
DOCKED: USER    Estimated Free Energy of Binding    =  -8.88 kcal/mol  [=(1)+(2)+(3)-(4)]
DOCKED: USER
DOCKED: USER    (1) Final Intermolecular Energy     = -10.67 kcal/mol
DOCKED: USER        vdW + Hbond + desolv Energy     = -10.23 kcal/mol
DOCKED: USER        Electrostatic Energy            =  -0.45 kcal/mol
DOCKED: USER        Moving Ligand-Fixed Receptor    = -10.67 kcal/mol
DOCKED: USER        Moving Ligand-Moving Receptor   =  +0.00 kcal/mol
DOCKED: USER    (2) Final Total Internal Energy     =  -1.71 kcal/mol
DOCKED: USER    (3) Torsional Free Energy           =  +1.79 kcal/mol
DOCKED: USER    (4) Unbound System's Energy         =  -1.71 kcal/mol
DOCKED: USER
DOCKED: USER
DOCKED: REMARK SMILES O=C(NC/C(O)=[N+]1/CCCC[C@H]1c1ccccc1)c1ccc2ccccc2n1
DOCKED: REMARK SMILES IDX 5 1 6 2 7 4 8 5 12 6 9 7 11 8 10 9 13 10 14 11 18 12 15 13
DOCKED: REMARK SMILES IDX 17 14 16 15 4 16 3 17 2 18 1 20 19 21 28 22 20 23 27 24
DOCKED: REMARK SMILES IDX 21 25 26 26 22 27 25 28 23 29 24 30
DOCKED: REMARK H PARENT 6 3 3 19
DOCKED: USER                              x       y       z     vdW  Elec       q    Type
DOCKED: USER                           _______ _______ _______ _____ _____    ______ ____
DOCKED: ROOT
DOCKED: ATOM      1  C   UNL     1     140.386  75.112 221.342 -0.18 -0.07    +0.354 C  
DOCKED: ENDROOT
DOCKED: BRANCH   1   2
DOCKED: ATOM      2  O   UNL     1     139.959  75.679 222.550 -0.37 +0.05    -0.462 OA 
DOCKED: ATOM      3  H   UNL     1     139.244  75.287 223.149 -0.36 -0.06    +0.299 HD 
DOCKED: ENDBRANCH   1   2
DOCKED: BRANCH   1   4
DOCKED: ATOM      4  N   UNL     1     141.148  75.779 220.483 -0.15 +0.07    -0.194 N  
DOCKED: ATOM      5  C   UNL     1     141.319  77.243 220.676 -0.14 -0.17    +0.354 C  
DOCKED: ATOM      6  C   UNL     1     141.916  75.042 219.432 -0.10 -0.10    +0.294 C  
DOCKED: ATOM      7  C   UNL     1     141.797  78.003 219.436 -0.25 -0.04    +0.073 C  
DOCKED: ATOM      8  C   UNL     1     142.378  75.923 218.255 -0.18 -0.04    +0.082 C  
DOCKED: ATOM      9  C   UNL     1     142.911  77.265 218.720 -0.32 -0.01    +0.014 C  
DOCKED: BRANCH   6  10
DOCKED: ATOM     10  C   UNL     1     143.100  74.288 220.024 -0.31 -0.01    +0.019 A  
DOCKED: ATOM     11  C   UNL     1     144.347  74.908 220.234 -0.40 -0.01    +0.010 A  
DOCKED: ATOM     12  C   UNL     1     142.963  72.920 220.326 -0.27 -0.00    +0.010 A  
DOCKED: ATOM     13  C   UNL     1     145.420  74.181 220.758 -0.58 -0.00    +0.001 A  
DOCKED: ATOM     14  C   UNL     1     144.039  72.198 220.850 -0.35 -0.00    +0.001 A  
DOCKED: ATOM     15  C   UNL     1     145.266  72.828 221.068 -0.52 -0.00    +0.000 A  
DOCKED: ENDBRANCH   6  10
DOCKED: ENDBRANCH   1   4
DOCKED: BRANCH   1  16
DOCKED: ATOM     16  C   UNL     1     139.897  73.703 221.086 -0.14 -0.05    +0.269 C  
DOCKED: BRANCH  16  17
DOCKED: ATOM     17  N   UNL     1     139.835  72.938 222.331 -0.17 +0.05    -0.337 N  
DOCKED: ATOM     18  C   UNL     1     140.164  71.541 222.366 -0.19 -0.04    +0.270 C  
DOCKED: ATOM     19  H   UNL     1     139.529  73.414 223.210 -0.46 -0.05    +0.164 HD 
DOCKED: ATOM     20  O   UNL     1     140.577  70.971 221.318 -0.11 +0.04    -0.268 OA 
DOCKED: BRANCH  18  21
DOCKED: ATOM     21  C   UNL     1     140.016  70.765 223.616 -0.27 -0.02    +0.128 A  
DOCKED: ATOM     22  N   UNL     1     140.524  71.259 224.780 -0.31 +0.04    -0.243 NA 
DOCKED: ATOM     23  C   UNL     1     139.355  69.525 223.625 -0.24 -0.01    +0.035 A  
DOCKED: ATOM     24  C   UNL     1     140.414  70.592 225.959 -0.51 -0.01    +0.071 A  
DOCKED: ATOM     25  C   UNL     1     139.227  68.816 224.822 -0.39 -0.00    +0.013 A  
DOCKED: ATOM     26  C   UNL     1     140.952  71.140 227.130 -0.68 -0.00    +0.029 A  
DOCKED: ATOM     27  C   UNL     1     139.757  69.343 226.005 -0.48 -0.00    +0.000 A  
DOCKED: ATOM     28  C   UNL     1     140.838  70.452 228.341 -0.57 -0.00    +0.002 A  
DOCKED: ATOM     29  C   UNL     1     139.646  68.659 227.224 -0.59 -0.00    +0.010 A  
DOCKED: ATOM     30  C   UNL     1     140.187  69.214 228.388 -0.63 -0.00    +0.001 A  
DOCKED: ENDBRANCH  18  21
DOCKED: ENDBRANCH  16  17
DOCKED: ENDBRANCH   1  16
DOCKED: TORSDOF 6
DOCKED: TER
DOCKED: ENDMDL
________________________________________________________________________________


    FINAL DOCKED STATE:
    ________________________


Run:   13 / 20
Time taken for this run:   0.034s

DOCKED: MODEL        13
DOCKED: USER    Run = 13
DOCKED: USER
DOCKED: USER    Estimated Free Energy of Binding    =  -9.09 kcal/mol  [=(1)+(2)+(3)-(4)]
DOCKED: USER
DOCKED: USER    (1) Final Intermolecular Energy     = -10.88 kcal/mol
DOCKED: USER        vdW + Hbond + desolv Energy     = -10.34 kcal/mol
DOCKED: USER        Electrostatic Energy            =  -0.54 kcal/mol
DOCKED: USER        Moving Ligand-Fixed Receptor    = -10.88 kcal/mol
DOCKED: USER        Moving Ligand-Moving Receptor   =  +0.00 kcal/mol
DOCKED: USER    (2) Final Total Internal Energy     =  -1.62 kcal/mol
DOCKED: USER    (3) Torsional Free Energy           =  +1.79 kcal/mol
DOCKED: USER    (4) Unbound System's Energy         =  -1.62 kcal/mol
DOCKED: USER
DOCKED: USER
DOCKED: REMARK SMILES O=C(NC/C(O)=[N+]1/CCCC[C@H]1c1ccccc1)c1ccc2ccccc2n1
DOCKED: REMARK SMILES IDX 5 1 6 2 7 4 8 5 12 6 9 7 11 8 10 9 13 10 14 11 18 12 15 13
DOCKED: REMARK SMILES IDX 17 14 16 15 4 16 3 17 2 18 1 20 19 21 28 22 20 23 27 24
DOCKED: REMARK SMILES IDX 21 25 26 26 22 27 25 28 23 29 24 30
DOCKED: REMARK H PARENT 6 3 3 19
DOCKED: USER                              x       y       z     vdW  Elec       q    Type
DOCKED: USER                           _______ _______ _______ _____ _____    ______ ____
DOCKED: ROOT
DOCKED: ATOM      1  C   UNL     1     140.910  75.411 221.105 -0.17 -0.10    +0.354 C  
DOCKED: ENDROOT
DOCKED: BRANCH   1   2
DOCKED: ATOM      2  O   UNL     1     141.003  76.017 222.366 -0.28 +0.12    -0.462 OA 
DOCKED: ATOM      3  H   UNL     1     141.863  76.347 222.784 -0.37 -0.19    +0.299 HD 
DOCKED: ENDBRANCH   1   2
DOCKED: BRANCH   1   4
DOCKED: ATOM      4  N   UNL     1     141.626  75.831 220.070 -0.15 +0.08    -0.194 N  
DOCKED: ATOM      5  C   UNL     1     141.932  77.281 219.960 -0.15 -0.21    +0.354 C  
DOCKED: ATOM      6  C   UNL     1     142.215  74.842 219.115 -0.09 -0.10    +0.294 C  
DOCKED: ATOM      7  C   UNL     1     142.333  77.750 218.559 -0.28 -0.05    +0.073 C  
DOCKED: ATOM      8  C   UNL     1     142.617  75.441 217.754 -0.14 -0.03    +0.082 C  
DOCKED: ATOM      9  C   UNL     1     143.302  76.788 217.902 -0.26 -0.01    +0.014 C  
DOCKED: BRANCH   6  10
DOCKED: ATOM     10  C   UNL     1     143.392  74.097 219.732 -0.31 -0.01    +0.019 A  
DOCKED: ATOM     11  C   UNL     1     143.411  72.693 219.839 -0.25 -0.00    +0.010 A  
DOCKED: ATOM     12  C   UNL     1     144.473  74.831 220.256 -0.41 -0.00    +0.010 A  
DOCKED: ATOM     13  C   UNL     1     144.495  72.041 220.432 -0.34 -0.00    +0.001 A  
DOCKED: ATOM     14  C   UNL     1     145.556  74.174 220.848 -0.61 -0.00    +0.001 A  
DOCKED: ATOM     15  C   UNL     1     145.569  72.781 220.934 -0.54 -0.00    +0.000 A  
DOCKED: ENDBRANCH   6  10
DOCKED: ENDBRANCH   1   4
DOCKED: BRANCH   1  16
DOCKED: ATOM     16  C   UNL     1     139.922  74.268 221.015 -0.15 -0.05    +0.269 C  
DOCKED: BRANCH  16  17
DOCKED: ATOM     17  N   UNL     1     139.893  73.503 222.261 -0.14 +0.04    -0.337 N  
DOCKED: ATOM     18  C   UNL     1     140.287  72.124 222.301 -0.21 -0.03    +0.270 C  
DOCKED: ATOM     19  H   UNL     1     139.561  73.967 223.138 -0.51 -0.02    +0.164 HD 
DOCKED: ATOM     20  O   UNL     1     140.730  71.572 221.256 -0.12 +0.04    -0.268 OA 
DOCKED: BRANCH  18  21
DOCKED: ATOM     21  C   UNL     1     140.172  71.344 223.552 -0.32 -0.02    +0.128 A  
DOCKED: ATOM     22  N   UNL     1     140.621  71.879 224.723 -0.27 +0.03    -0.243 NA 
DOCKED: ATOM     23  C   UNL     1     139.602  70.060 223.556 -0.26 -0.01    +0.035 A  
DOCKED: ATOM     24  C   UNL     1     140.538  71.211 225.904 -0.55 -0.01    +0.071 A  
DOCKED: ATOM     25  C   UNL     1     139.503  69.349 224.754 -0.37 -0.00    +0.013 A  
DOCKED: ATOM     26  C   UNL     1     141.013  71.801 227.081 -0.76 -0.01    +0.029 A  
DOCKED: ATOM     27  C   UNL     1     139.971  69.919 225.944 -0.49 -0.00    +0.000 A  
DOCKED: ATOM     28  C   UNL     1     140.925  71.112 228.294 -0.68 -0.00    +0.002 A  
DOCKED: ATOM     29  C   UNL     1     139.887  69.233 227.165 -0.58 -0.00    +0.010 A  
DOCKED: ATOM     30  C   UNL     1     140.364  69.830 228.336 -0.60 -0.00    +0.001 A  
DOCKED: ENDBRANCH  18  21
DOCKED: ENDBRANCH  16  17
DOCKED: ENDBRANCH   1  16
DOCKED: TORSDOF 6
DOCKED: TER
DOCKED: ENDMDL
________________________________________________________________________________


    FINAL DOCKED STATE:
    ________________________


Run:   14 / 20
Time taken for this run:   0.034s

DOCKED: MODEL        14
DOCKED: USER    Run = 14
DOCKED: USER
DOCKED: USER    Estimated Free Energy of Binding    =  -8.90 kcal/mol  [=(1)+(2)+(3)-(4)]
DOCKED: USER
DOCKED: USER    (1) Final Intermolecular Energy     = -10.69 kcal/mol
DOCKED: USER        vdW + Hbond + desolv Energy     = -10.26 kcal/mol
DOCKED: USER        Electrostatic Energy            =  -0.43 kcal/mol
DOCKED: USER        Moving Ligand-Fixed Receptor    = -10.69 kcal/mol
DOCKED: USER        Moving Ligand-Moving Receptor   =  +0.00 kcal/mol
DOCKED: USER    (2) Final Total Internal Energy     =  -1.82 kcal/mol
DOCKED: USER    (3) Torsional Free Energy           =  +1.79 kcal/mol
DOCKED: USER    (4) Unbound System's Energy         =  -1.82 kcal/mol
DOCKED: USER
DOCKED: USER
DOCKED: REMARK SMILES O=C(NC/C(O)=[N+]1/CCCC[C@H]1c1ccccc1)c1ccc2ccccc2n1
DOCKED: REMARK SMILES IDX 5 1 6 2 7 4 8 5 12 6 9 7 11 8 10 9 13 10 14 11 18 12 15 13
DOCKED: REMARK SMILES IDX 17 14 16 15 4 16 3 17 2 18 1 20 19 21 28 22 20 23 27 24
DOCKED: REMARK SMILES IDX 21 25 26 26 22 27 25 28 23 29 24 30
DOCKED: REMARK H PARENT 6 3 3 19
DOCKED: USER                              x       y       z     vdW  Elec       q    Type
DOCKED: USER                           _______ _______ _______ _____ _____    ______ ____
DOCKED: ROOT
DOCKED: ATOM      1  C   UNL     1     140.621  74.282 221.112 -0.15 -0.06    +0.354 C  
DOCKED: ENDROOT
DOCKED: BRANCH   1   2
DOCKED: ATOM      2  O   UNL     1     140.032  74.594 222.345 -0.69 +0.01    -0.462 OA 
DOCKED: ATOM      3  H   UNL     1     139.220  74.129 222.729 -0.46 -0.08    +0.299 HD 
DOCKED: ENDBRANCH   1   2
DOCKED: BRANCH   1   4
DOCKED: ATOM      4  N   UNL     1     141.313  75.177 220.418 -0.15 +0.06    -0.194 N  
DOCKED: ATOM      5  C   UNL     1     141.278  76.597 220.857 -0.14 -0.16    +0.354 C  
DOCKED: ATOM      6  C   UNL     1     142.207  74.734 219.303 -0.10 -0.10    +0.294 C  
DOCKED: ATOM      7  C   UNL     1     141.689  77.611 219.787 -0.25 -0.04    +0.073 C  
DOCKED: ATOM      8  C   UNL     1     142.584  75.854 218.314 -0.20 -0.04    +0.082 C  
DOCKED: ATOM      9  C   UNL     1     142.915  77.155 219.022 -0.33 -0.01    +0.014 C  
DOCKED: BRANCH   6  10
DOCKED: ATOM     10  C   UNL     1     143.462  74.049 219.827 -0.32 -0.01    +0.019 A  
DOCKED: ATOM     11  C   UNL     1     144.501  74.770 220.447 -0.42 -0.00    +0.010 A  
DOCKED: ATOM     12  C   UNL     1     143.615  72.661 219.646 -0.24 -0.00    +0.010 A  
DOCKED: ATOM     13  C   UNL     1     145.650  74.113 220.895 -0.62 -0.00    +0.001 A  
DOCKED: ATOM     14  C   UNL     1     144.767  72.009 220.096 -0.36 -0.00    +0.001 A  
DOCKED: ATOM     15  C   UNL     1     145.782  72.733 220.723 -0.56 -0.00    +0.000 A  
DOCKED: ENDBRANCH   6  10
DOCKED: ENDBRANCH   1   4
DOCKED: BRANCH   1  16
DOCKED: ATOM     16  C   UNL     1     140.389  72.866 220.630 -0.10 -0.05    +0.269 C  
DOCKED: BRANCH  16  17
DOCKED: ATOM     17  N   UNL     1     140.496  71.914 221.735 -0.12 +0.04    -0.337 N  
DOCKED: ATOM     18  C   UNL     1     139.424  71.733 222.672 -0.19 -0.06    +0.270 C  
DOCKED: ATOM     19  H   UNL     1     141.379  71.366 221.855 +0.06 -0.01    +0.164 HD 
DOCKED: ATOM     20  O   UNL     1     138.340  72.359 222.507 -0.13 +0.08    -0.268 OA 
DOCKED: BRANCH  18  21
DOCKED: ATOM     21  C   UNL     1     139.582  70.827 223.830 -0.30 -0.02    +0.128 A  
DOCKED: ATOM     22  N   UNL     1     140.170  71.287 224.970 -0.31 +0.04    -0.243 NA 
DOCKED: ATOM     23  C   UNL     1     139.130  69.498 223.777 -0.27 -0.01    +0.035 A  
DOCKED: ATOM     24  C   UNL     1     140.337  70.501 226.067 -0.51 -0.01    +0.071 A  
DOCKED: ATOM     25  C   UNL     1     139.288  68.666 224.888 -0.39 -0.00    +0.013 A  
DOCKED: ATOM     26  C   UNL     1     140.948  71.018 227.216 -0.67 -0.00    +0.029 A  
DOCKED: ATOM     27  C   UNL     1     139.895  69.160 226.047 -0.50 -0.00    +0.000 A  
DOCKED: ATOM     28  C   UNL     1     141.118  70.208 228.342 -0.54 -0.00    +0.002 A  
DOCKED: ATOM     29  C   UNL     1     140.070  68.354 227.182 -0.65 -0.00    +0.010 A  
DOCKED: ATOM     30  C   UNL     1     140.681  68.878 228.325 -0.65 -0.00    +0.001 A  
DOCKED: ENDBRANCH  18  21
DOCKED: ENDBRANCH  16  17
DOCKED: ENDBRANCH   1  16
DOCKED: TORSDOF 6
DOCKED: TER
DOCKED: ENDMDL
________________________________________________________________________________


    FINAL DOCKED STATE:
    ________________________


Run:   15 / 20
Time taken for this run:   0.034s

DOCKED: MODEL        15
DOCKED: USER    Run = 15
DOCKED: USER
DOCKED: USER    Estimated Free Energy of Binding    =  -8.15 kcal/mol  [=(1)+(2)+(3)-(4)]
DOCKED: USER
DOCKED: USER    (1) Final Intermolecular Energy     =  -9.94 kcal/mol
DOCKED: USER        vdW + Hbond + desolv Energy     =  -9.56 kcal/mol
DOCKED: USER        Electrostatic Energy            =  -0.39 kcal/mol
DOCKED: USER        Moving Ligand-Fixed Receptor    =  -9.94 kcal/mol
DOCKED: USER        Moving Ligand-Moving Receptor   =  +0.00 kcal/mol
DOCKED: USER    (2) Final Total Internal Energy     =  -1.85 kcal/mol
DOCKED: USER    (3) Torsional Free Energy           =  +1.79 kcal/mol
DOCKED: USER    (4) Unbound System's Energy         =  -1.85 kcal/mol
DOCKED: USER
DOCKED: USER
DOCKED: REMARK SMILES O=C(NC/C(O)=[N+]1/CCCC[C@H]1c1ccccc1)c1ccc2ccccc2n1
DOCKED: REMARK SMILES IDX 5 1 6 2 7 4 8 5 12 6 9 7 11 8 10 9 13 10 14 11 18 12 15 13
DOCKED: REMARK SMILES IDX 17 14 16 15 4 16 3 17 2 18 1 20 19 21 28 22 20 23 27 24
DOCKED: REMARK SMILES IDX 21 25 26 26 22 27 25 28 23 29 24 30
DOCKED: REMARK H PARENT 6 3 3 19
DOCKED: USER                              x       y       z     vdW  Elec       q    Type
DOCKED: USER                           _______ _______ _______ _____ _____    ______ ____
DOCKED: ROOT
DOCKED: ATOM      1  C   UNL     1     140.208  75.124 221.273 -0.17 -0.07    +0.354 C  
DOCKED: ENDROOT
DOCKED: BRANCH   1   2
DOCKED: ATOM      2  O   UNL     1     139.533  75.113 222.502 -0.51 +0.06    -0.462 OA 
DOCKED: ATOM      3  H   UNL     1     138.863  74.410 222.784 -0.49 -0.12    +0.299 HD 
DOCKED: ENDBRANCH   1   2
DOCKED: BRANCH   1   4
DOCKED: ATOM      4  N   UNL     1     140.110  76.142 220.427 -0.09 +0.06    -0.194 N  
DOCKED: ATOM      5  C   UNL     1     138.877  76.265 219.605 -0.00 -0.09    +0.354 C  
DOCKED: ATOM      6  C   UNL     1     141.162  77.206 220.407 -0.14 -0.13    +0.294 C  
DOCKED: ATOM      7  C   UNL     1     139.019  77.146 218.362 -0.02 -0.02    +0.073 C  
DOCKED: ATOM      8  C   UNL     1     141.178  78.052 219.120 -0.17 -0.04    +0.082 C  
DOCKED: ATOM      9  C   UNL     1     139.779  78.422 218.661 -0.06 -0.00    +0.014 C  
DOCKED: BRANCH   6  10
DOCKED: ATOM     10  C   UNL     1     141.074  78.107 221.631 -0.36 -0.01    +0.019 A  
DOCKED: ATOM     11  C   UNL     1     139.901  78.200 222.404 -0.35 -0.00    +0.010 A  
DOCKED: ATOM     12  C   UNL     1     142.179  78.909 221.976 -0.42 -0.01    +0.010 A  
DOCKED: ATOM     13  C   UNL     1     139.846  79.055 223.508 -0.40 -0.00    +0.001 A  
DOCKED: ATOM     14  C   UNL     1     142.118  79.763 223.081 -0.61 -0.00    +0.001 A  
DOCKED: ATOM     15  C   UNL     1     140.954  79.834 223.849 -0.52 -0.00    +0.000 A  
DOCKED: ENDBRANCH   6  10
DOCKED: ENDBRANCH   1   4
DOCKED: BRANCH   1  16
DOCKED: ATOM     16  C   UNL     1     141.030  73.887 220.982 -0.17 -0.05    +0.269 C  
DOCKED: BRANCH  16  17
DOCKED: ATOM     17  N   UNL     1     141.006  72.965 222.116 -0.13 +0.01    -0.337 N  
DOCKED: ATOM     18  C   UNL     1     139.798  72.300 222.513 -0.20 -0.05    +0.270 C  
DOCKED: ATOM     19  H   UNL     1     141.884  72.800 222.660 +0.18 +0.02    +0.164 HD 
DOCKED: ATOM     20  O   UNL     1     138.746  72.460 221.833 -0.12 +0.06    -0.268 OA 
DOCKED: BRANCH  18  21
DOCKED: ATOM     21  C   UNL     1     139.774  71.434 223.712 -0.32 -0.03    +0.128 A  
DOCKED: ATOM     22  N   UNL     1     140.380  71.855 224.858 -0.27 +0.04    -0.243 NA 
DOCKED: ATOM     23  C   UNL     1     139.131  70.185 223.692 -0.28 -0.01    +0.035 A  
DOCKED: ATOM     24  C   UNL     1     140.387  71.105 225.992 -0.54 -0.01    +0.071 A  
DOCKED: ATOM     25  C   UNL     1     139.121  69.392 224.841 -0.37 -0.00    +0.013 A  
DOCKED: ATOM     26  C   UNL     1     141.023  71.578 227.145 -0.74 -0.01    +0.029 A  
DOCKED: ATOM     27  C   UNL     1     139.751  69.844 226.006 -0.48 -0.00    +0.000 A  
DOCKED: ATOM     28  C   UNL     1     141.027  70.805 228.309 -0.62 -0.00    +0.002 A  
DOCKED: ATOM     29  C   UNL     1     139.759  69.074 227.178 -0.58 -0.00    +0.010 A  
DOCKED: ATOM     30  C   UNL     1     140.398  69.555 228.326 -0.62 -0.00    +0.001 A  
DOCKED: ENDBRANCH  18  21
DOCKED: ENDBRANCH  16  17
DOCKED: ENDBRANCH   1  16
DOCKED: TORSDOF 6
DOCKED: TER
DOCKED: ENDMDL
________________________________________________________________________________


    FINAL DOCKED STATE:
    ________________________


Run:   16 / 20
Time taken for this run:   0.034s

DOCKED: MODEL        16
DOCKED: USER    Run = 16
DOCKED: USER
DOCKED: USER    Estimated Free Energy of Binding    =  -8.90 kcal/mol  [=(1)+(2)+(3)-(4)]
DOCKED: USER
DOCKED: USER    (1) Final Intermolecular Energy     = -10.69 kcal/mol
DOCKED: USER        vdW + Hbond + desolv Energy     = -10.26 kcal/mol
DOCKED: USER        Electrostatic Energy            =  -0.43 kcal/mol
DOCKED: USER        Moving Ligand-Fixed Receptor    = -10.69 kcal/mol
DOCKED: USER        Moving Ligand-Moving Receptor   =  +0.00 kcal/mol
DOCKED: USER    (2) Final Total Internal Energy     =  -1.83 kcal/mol
DOCKED: USER    (3) Torsional Free Energy           =  +1.79 kcal/mol
DOCKED: USER    (4) Unbound System's Energy         =  -1.83 kcal/mol
DOCKED: USER
DOCKED: USER
DOCKED: REMARK SMILES O=C(NC/C(O)=[N+]1/CCCC[C@H]1c1ccccc1)c1ccc2ccccc2n1
DOCKED: REMARK SMILES IDX 5 1 6 2 7 4 8 5 12 6 9 7 11 8 10 9 13 10 14 11 18 12 15 13
DOCKED: REMARK SMILES IDX 17 14 16 15 4 16 3 17 2 18 1 20 19 21 28 22 20 23 27 24
DOCKED: REMARK SMILES IDX 21 25 26 26 22 27 25 28 23 29 24 30
DOCKED: REMARK H PARENT 6 3 3 19
DOCKED: USER                              x       y       z     vdW  Elec       q    Type
DOCKED: USER                           _______ _______ _______ _____ _____    ______ ____
DOCKED: ROOT
DOCKED: ATOM      1  C   UNL     1     140.620  74.269 221.110 -0.15 -0.06    +0.354 C  
DOCKED: ENDROOT
DOCKED: BRANCH   1   2
DOCKED: ATOM      2  O   UNL     1     140.015  74.588 222.334 -0.69 +0.01    -0.462 OA 
DOCKED: ATOM      3  H   UNL     1     139.219  74.103 222.726 -0.46 -0.08    +0.299 HD 
DOCKED: ENDBRANCH   1   2
DOCKED: BRANCH   1   4
DOCKED: ATOM      4  N   UNL     1     141.321  75.160 220.419 -0.15 +0.06    -0.194 N  
DOCKED: ATOM      5  C   UNL     1     141.299  76.578 220.864 -0.14 -0.16    +0.354 C  
DOCKED: ATOM      6  C   UNL     1     142.211  74.713 219.304 -0.10 -0.10    +0.294 C  
DOCKED: ATOM      7  C   UNL     1     141.720  77.592 219.797 -0.26 -0.04    +0.073 C  
DOCKED: ATOM      8  C   UNL     1     142.599  75.832 218.319 -0.20 -0.04    +0.082 C  
DOCKED: ATOM      9  C   UNL     1     142.942  77.127 219.031 -0.34 -0.01    +0.014 C  
DOCKED: BRANCH   6  10
DOCKED: ATOM     10  C   UNL     1     143.459  74.013 219.827 -0.32 -0.01    +0.019 A  
DOCKED: ATOM     11  C   UNL     1     144.500  74.721 220.459 -0.43 -0.00    +0.010 A  
DOCKED: ATOM     12  C   UNL     1     143.604  72.626 219.631 -0.23 -0.00    +0.010 A  
DOCKED: ATOM     13  C   UNL     1     145.642  74.052 220.906 -0.63 -0.00    +0.001 A  
DOCKED: ATOM     14  C   UNL     1     144.749  71.962 220.080 -0.35 -0.00    +0.001 A  
DOCKED: ATOM     15  C   UNL     1     145.767  72.673 220.720 -0.54 -0.00    +0.000 A  
DOCKED: ENDBRANCH   6  10
DOCKED: ENDBRANCH   1   4
DOCKED: BRANCH   1  16
DOCKED: ATOM     16  C   UNL     1     140.393  72.851 220.633 -0.10 -0.05    +0.269 C  
DOCKED: BRANCH  16  17
DOCKED: ATOM     17  N   UNL     1     140.503  71.903 221.742 -0.12 +0.04    -0.337 N  
DOCKED: ATOM     18  C   UNL     1     139.420  71.699 222.660 -0.19 -0.06    +0.270 C  
DOCKED: ATOM     19  H   UNL     1     141.396  71.377 221.878 +0.06 -0.01    +0.164 HD 
DOCKED: ATOM     20  O   UNL     1     138.324  72.298 222.476 -0.13 +0.08    -0.268 OA 
DOCKED: BRANCH  18  21
DOCKED: ATOM     21  C   UNL     1     139.578  70.798 223.823 -0.30 -0.02    +0.128 A  
DOCKED: ATOM     22  N   UNL     1     140.157  71.267 224.964 -0.31 +0.04    -0.243 NA 
DOCKED: ATOM     23  C   UNL     1     139.136  69.466 223.773 -0.27 -0.01    +0.035 A  
DOCKED: ATOM     24  C   UNL     1     140.326  70.487 226.065 -0.50 -0.01    +0.071 A  
DOCKED: ATOM     25  C   UNL     1     139.295  68.640 224.888 -0.39 -0.00    +0.013 A  
DOCKED: ATOM     26  C   UNL     1     140.926  71.013 227.214 -0.67 -0.00    +0.029 A  
DOCKED: ATOM     27  C   UNL     1     139.893  69.143 226.048 -0.50 -0.00    +0.000 A  
DOCKED: ATOM     28  C   UNL     1     141.098  70.208 228.344 -0.55 -0.00    +0.002 A  
DOCKED: ATOM     29  C   UNL     1     140.068  68.342 227.187 -0.65 -0.00    +0.010 A  
DOCKED: ATOM     30  C   UNL     1     140.670  68.876 228.331 -0.66 -0.00    +0.001 A  
DOCKED: ENDBRANCH  18  21
DOCKED: ENDBRANCH  16  17
DOCKED: ENDBRANCH   1  16
DOCKED: TORSDOF 6
DOCKED: TER
DOCKED: ENDMDL
________________________________________________________________________________


    FINAL DOCKED STATE:
    ________________________


Run:   17 / 20
Time taken for this run:   0.034s

DOCKED: MODEL        17
DOCKED: USER    Run = 17
DOCKED: USER
DOCKED: USER    Estimated Free Energy of Binding    =  -8.82 kcal/mol  [=(1)+(2)+(3)-(4)]
DOCKED: USER
DOCKED: USER    (1) Final Intermolecular Energy     = -10.61 kcal/mol
DOCKED: USER        vdW + Hbond + desolv Energy     = -10.17 kcal/mol
DOCKED: USER        Electrostatic Energy            =  -0.44 kcal/mol
DOCKED: USER        Moving Ligand-Fixed Receptor    = -10.61 kcal/mol
DOCKED: USER        Moving Ligand-Moving Receptor   =  +0.00 kcal/mol
DOCKED: USER    (2) Final Total Internal Energy     =  -1.75 kcal/mol
DOCKED: USER    (3) Torsional Free Energy           =  +1.79 kcal/mol
DOCKED: USER    (4) Unbound System's Energy         =  -1.75 kcal/mol
DOCKED: USER
DOCKED: USER
DOCKED: REMARK SMILES O=C(NC/C(O)=[N+]1/CCCC[C@H]1c1ccccc1)c1ccc2ccccc2n1
DOCKED: REMARK SMILES IDX 5 1 6 2 7 4 8 5 12 6 9 7 11 8 10 9 13 10 14 11 18 12 15 13
DOCKED: REMARK SMILES IDX 17 14 16 15 4 16 3 17 2 18 1 20 19 21 28 22 20 23 27 24
DOCKED: REMARK SMILES IDX 21 25 26 26 22 27 25 28 23 29 24 30
DOCKED: REMARK H PARENT 6 3 3 19
DOCKED: USER                              x       y       z     vdW  Elec       q    Type
DOCKED: USER                           _______ _______ _______ _____ _____    ______ ____
DOCKED: ROOT
DOCKED: ATOM      1  C   UNL     1     140.390  75.066 221.452 -0.18 -0.07    +0.354 C  
DOCKED: ENDROOT
DOCKED: BRANCH   1   2
DOCKED: ATOM      2  O   UNL     1     139.934  75.617 222.658 -0.35 +0.04    -0.462 OA 
DOCKED: ATOM      3  H   UNL     1     139.166  75.250 223.204 -0.40 -0.07    +0.299 HD 
DOCKED: ENDBRANCH   1   2
DOCKED: BRANCH   1   4
DOCKED: ATOM      4  N   UNL     1     141.147  75.755 220.607 -0.16 +0.07    -0.194 N  
DOCKED: ATOM      5  C   UNL     1     141.330  77.211 220.844 -0.14 -0.18    +0.354 C  
DOCKED: ATOM      6  C   UNL     1     141.899  75.047 219.525 -0.11 -0.10    +0.294 C  
DOCKED: ATOM      7  C   UNL     1     141.800  78.007 219.623 -0.26 -0.04    +0.073 C  
DOCKED: ATOM      8  C   UNL     1     142.354  75.962 218.372 -0.18 -0.04    +0.082 C  
DOCKED: ATOM      9  C   UNL     1     142.902  77.286 218.873 -0.31 -0.01    +0.014 C  
DOCKED: BRANCH   6  10
DOCKED: ATOM     10  C   UNL     1     143.083  74.268 220.080 -0.32 -0.01    +0.019 A  
DOCKED: ATOM     11  C   UNL     1     144.332  74.876 220.314 -0.40 -0.00    +0.010 A  
DOCKED: ATOM     12  C   UNL     1     142.946  72.888 220.323 -0.27 -0.00    +0.010 A  
DOCKED: ATOM     13  C   UNL     1     145.405  74.127 220.802 -0.60 -0.00    +0.001 A  
DOCKED: ATOM     14  C   UNL     1     144.024  72.142 220.812 -0.34 -0.00    +0.001 A  
DOCKED: ATOM     15  C   UNL     1     145.251  72.761 221.053 -0.50 -0.00    +0.000 A  
DOCKED: ENDBRANCH   6  10
DOCKED: ENDBRANCH   1   4
DOCKED: BRANCH   1  16
DOCKED: ATOM     16  C   UNL     1     139.935  73.649 221.182 -0.15 -0.05    +0.269 C  
DOCKED: BRANCH  16  17
DOCKED: ATOM     17  N   UNL     1     139.918  72.862 222.415 -0.16 +0.05    -0.337 N  
DOCKED: ATOM     18  C   UNL     1     140.023  71.431 222.390 -0.18 -0.04    +0.270 C  
DOCKED: ATOM     19  H   UNL     1     139.810  73.352 223.333 -0.38 -0.02    +0.164 HD 
DOCKED: ATOM     20  O   UNL     1     140.198  70.838 221.289 -0.10 +0.04    -0.268 OA 
DOCKED: BRANCH  18  21
DOCKED: ATOM     21  C   UNL     1     139.921  70.647 223.640 -0.27 -0.02    +0.128 A  
DOCKED: ATOM     22  N   UNL     1     140.464  71.137 224.789 -0.31 +0.04    -0.243 NA 
DOCKED: ATOM     23  C   UNL     1     139.267  69.403 223.664 -0.25 -0.01    +0.035 A  
DOCKED: ATOM     24  C   UNL     1     140.397  70.464 225.968 -0.50 -0.01    +0.071 A  
DOCKED: ATOM     25  C   UNL     1     139.182  68.687 224.860 -0.40 -0.00    +0.013 A  
DOCKED: ATOM     26  C   UNL     1     140.970  71.008 227.123 -0.66 -0.00    +0.029 A  
DOCKED: ATOM     27  C   UNL     1     139.748  69.211 226.028 -0.49 -0.00    +0.000 A  
DOCKED: ATOM     28  C   UNL     1     140.899  70.313 228.333 -0.56 -0.00    +0.002 A  
DOCKED: ATOM     29  C   UNL     1     139.681  68.520 227.246 -0.60 -0.00    +0.010 A  
DOCKED: ATOM     30  C   UNL     1     140.257  69.071 228.395 -0.63 -0.00    +0.001 A  
DOCKED: ENDBRANCH  18  21
DOCKED: ENDBRANCH  16  17
DOCKED: ENDBRANCH   1  16
DOCKED: TORSDOF 6
DOCKED: TER
DOCKED: ENDMDL
________________________________________________________________________________


    FINAL DOCKED STATE:
    ________________________


Run:   18 / 20
Time taken for this run:   0.034s

DOCKED: MODEL        18
DOCKED: USER    Run = 18
DOCKED: USER
DOCKED: USER    Estimated Free Energy of Binding    =  -8.30 kcal/mol  [=(1)+(2)+(3)-(4)]
DOCKED: USER
DOCKED: USER    (1) Final Intermolecular Energy     = -10.09 kcal/mol
DOCKED: USER        vdW + Hbond + desolv Energy     =  -9.68 kcal/mol
DOCKED: USER        Electrostatic Energy            =  -0.40 kcal/mol
DOCKED: USER        Moving Ligand-Fixed Receptor    = -10.09 kcal/mol
DOCKED: USER        Moving Ligand-Moving Receptor   =  +0.00 kcal/mol
DOCKED: USER    (2) Final Total Internal Energy     =  -1.68 kcal/mol
DOCKED: USER    (3) Torsional Free Energy           =  +1.79 kcal/mol
DOCKED: USER    (4) Unbound System's Energy         =  -1.68 kcal/mol
DOCKED: USER
DOCKED: USER
DOCKED: REMARK SMILES O=C(NC/C(O)=[N+]1/CCCC[C@H]1c1ccccc1)c1ccc2ccccc2n1
DOCKED: REMARK SMILES IDX 5 1 6 2 7 4 8 5 12 6 9 7 11 8 10 9 13 10 14 11 18 12 15 13
DOCKED: REMARK SMILES IDX 17 14 16 15 4 16 3 17 2 18 1 20 19 21 28 22 20 23 27 24
DOCKED: REMARK SMILES IDX 21 25 26 26 22 27 25 28 23 29 24 30
DOCKED: REMARK H PARENT 6 3 3 19
DOCKED: USER                              x       y       z     vdW  Elec       q    Type
DOCKED: USER                           _______ _______ _______ _____ _____    ______ ____
DOCKED: ROOT
DOCKED: ATOM      1  C   UNL     1     140.147  75.428 221.409 -0.18 -0.08    +0.354 C  
DOCKED: ENDROOT
DOCKED: BRANCH   1   2
DOCKED: ATOM      2  O   UNL     1     139.602  75.310 222.695 -0.43 +0.05    -0.462 OA 
DOCKED: ATOM      3  H   UNL     1     138.847  74.685 222.945 -0.46 -0.13    +0.299 HD 
DOCKED: ENDBRANCH   1   2
DOCKED: BRANCH   1   4
DOCKED: ATOM      4  N   UNL     1     139.940  76.501 220.654 -0.09 +0.06    -0.194 N  
DOCKED: ATOM      5  C   UNL     1     138.549  76.813 220.233 -0.02 -0.08    +0.354 C  
DOCKED: ATOM      6  C   UNL     1     141.068  77.436 220.354 -0.13 -0.13    +0.294 C  
DOCKED: ATOM      7  C   UNL     1     138.438  77.746 219.024 -0.02 -0.02    +0.073 C  
DOCKED: ATOM      8  C   UNL     1     140.821  78.352 219.140 -0.13 -0.04    +0.082 C  
DOCKED: ATOM      9  C   UNL     1     139.408  78.907 219.120 -0.06 -0.00    +0.014 C  
DOCKED: BRANCH   6  10
DOCKED: ATOM     10  C   UNL     1     141.451  78.266 221.573 -0.37 -0.01    +0.019 A  
DOCKED: ATOM     11  C   UNL     1     141.155  77.844 222.883 -0.45 -0.00    +0.010 A  
DOCKED: ATOM     12  C   UNL     1     142.075  79.514 221.387 -0.35 -0.01    +0.010 A  
DOCKED: ATOM     13  C   UNL     1     141.499  78.640 223.979 -0.53 -0.00    +0.001 A  
DOCKED: ATOM     14  C   UNL     1     142.417  80.307 222.487 -0.58 -0.00    +0.001 A  
DOCKED: ATOM     15  C   UNL     1     142.132  79.869 223.781 -0.63 -0.00    +0.000 A  
DOCKED: ENDBRANCH   6  10
DOCKED: ENDBRANCH   1   4
DOCKED: BRANCH   1  16
DOCKED: ATOM     16  C   UNL     1     140.962  74.240 220.946 -0.18 -0.05    +0.269 C  
DOCKED: BRANCH  16  17
DOCKED: ATOM     17  N   UNL     1     140.975  73.188 221.962 -0.15 +0.01    -0.337 N  
DOCKED: ATOM     18  C   UNL     1     139.763  72.548 222.389 -0.19 -0.05    +0.270 C  
DOCKED: ATOM     19  H   UNL     1     141.883  72.909 222.398 +0.10 +0.02    +0.164 HD 
DOCKED: ATOM     20  O   UNL     1     138.670  72.849 221.835 -0.13 +0.07    -0.268 OA 
DOCKED: BRANCH  18  21
DOCKED: ATOM     21  C   UNL     1     139.786  71.544 223.476 -0.31 -0.03    +0.128 A  
DOCKED: ATOM     22  N   UNL     1     140.369  71.855 224.668 -0.27 +0.04    -0.243 NA 
DOCKED: ATOM     23  C   UNL     1     139.210  70.275 223.302 -0.26 -0.01    +0.035 A  
DOCKED: ATOM     24  C   UNL     1     140.416  70.975 225.703 -0.52 -0.01    +0.071 A  
DOCKED: ATOM     25  C   UNL     1     139.242  69.349 224.347 -0.33 -0.00    +0.013 A  
DOCKED: ATOM     26  C   UNL     1     141.026  71.339 226.909 -0.70 -0.00    +0.029 A  
DOCKED: ATOM     27  C   UNL     1     139.847  69.690 225.562 -0.45 -0.00    +0.000 A  
DOCKED: ATOM     28  C   UNL     1     141.072  70.432 227.971 -0.64 -0.00    +0.002 A  
DOCKED: ATOM     29  C   UNL     1     139.897  68.786 226.633 -0.57 -0.00    +0.010 A  
DOCKED: ATOM     30  C   UNL     1     140.509  69.158 227.834 -0.64 -0.00    +0.001 A  
DOCKED: ENDBRANCH  18  21
DOCKED: ENDBRANCH  16  17
DOCKED: ENDBRANCH   1  16
DOCKED: TORSDOF 6
DOCKED: TER
DOCKED: ENDMDL
________________________________________________________________________________


    FINAL DOCKED STATE:
    ________________________


Run:   19 / 20
Time taken for this run:   0.034s

DOCKED: MODEL        19
DOCKED: USER    Run = 19
DOCKED: USER
DOCKED: USER    Estimated Free Energy of Binding    =  -8.24 kcal/mol  [=(1)+(2)+(3)-(4)]
DOCKED: USER
DOCKED: USER    (1) Final Intermolecular Energy     = -10.03 kcal/mol
DOCKED: USER        vdW + Hbond + desolv Energy     =  -9.59 kcal/mol
DOCKED: USER        Electrostatic Energy            =  -0.44 kcal/mol
DOCKED: USER        Moving Ligand-Fixed Receptor    = -10.03 kcal/mol
DOCKED: USER        Moving Ligand-Moving Receptor   =  +0.00 kcal/mol
DOCKED: USER    (2) Final Total Internal Energy     =  -1.76 kcal/mol
DOCKED: USER    (3) Torsional Free Energy           =  +1.79 kcal/mol
DOCKED: USER    (4) Unbound System's Energy         =  -1.76 kcal/mol
DOCKED: USER
DOCKED: USER
DOCKED: REMARK SMILES O=C(NC/C(O)=[N+]1/CCCC[C@H]1c1ccccc1)c1ccc2ccccc2n1
DOCKED: REMARK SMILES IDX 5 1 6 2 7 4 8 5 12 6 9 7 11 8 10 9 13 10 14 11 18 12 15 13
DOCKED: REMARK SMILES IDX 17 14 16 15 4 16 3 17 2 18 1 20 19 21 28 22 20 23 27 24
DOCKED: REMARK SMILES IDX 21 25 26 26 22 27 25 28 23 29 24 30
DOCKED: REMARK H PARENT 6 3 3 19
DOCKED: USER                              x       y       z     vdW  Elec       q    Type
DOCKED: USER                           _______ _______ _______ _____ _____    ______ ____
DOCKED: ROOT
DOCKED: ATOM      1  C   UNL     1     140.432  75.278 221.049 -0.15 -0.08    +0.354 C  
DOCKED: ENDROOT
DOCKED: BRANCH   1   2
DOCKED: ATOM      2  O   UNL     1     141.425  74.902 221.964 -0.33 +0.07    -0.462 OA 
DOCKED: ATOM      3  H   UNL     1     141.942  74.033 221.928 +0.13 -0.01    +0.299 HD 
DOCKED: ENDBRANCH   1   2
DOCKED: BRANCH   1   4
DOCKED: ATOM      4  N   UNL     1     140.586  76.310 220.228 -0.10 +0.06    -0.194 N  
DOCKED: ATOM      5  C   UNL     1     139.611  76.487 219.120 -0.00 -0.10    +0.354 C  
DOCKED: ATOM      6  C   UNL     1     141.640  77.335 220.502 -0.17 -0.16    +0.294 C  
DOCKED: ATOM      7  C   UNL     1     140.097  77.378 217.974 -0.04 -0.03    +0.073 C  
DOCKED: ATOM      8  C   UNL     1     142.014  78.197 219.282 -0.24 -0.05    +0.082 C  
DOCKED: ATOM      9  C   UNL     1     140.793  78.623 218.487 -0.12 -0.01    +0.014 C  
DOCKED: BRANCH   6  10
DOCKED: ATOM     10  C   UNL     1     141.268  78.223 221.682 -0.37 -0.01    +0.019 A  
DOCKED: ATOM     11  C   UNL     1     139.983  78.197 222.258 -0.34 -0.00    +0.010 A  
DOCKED: ATOM     12  C   UNL     1     142.217  79.134 222.185 -0.49 -0.01    +0.010 A  
DOCKED: ATOM     13  C   UNL     1     139.666  79.042 223.325 -0.39 -0.00    +0.001 A  
DOCKED: ATOM     14  C   UNL     1     141.895  79.977 223.253 -0.60 -0.00    +0.001 A  
DOCKED: ATOM     15  C   UNL     1     140.622  79.929 223.824 -0.48 -0.00    +0.000 A  
DOCKED: ENDBRANCH   6  10
DOCKED: ENDBRANCH   1   4
DOCKED: BRANCH   1  16
DOCKED: ATOM     16  C   UNL     1     139.174  74.437 221.087 -0.13 -0.06    +0.269 C  
DOCKED: BRANCH  16  17
DOCKED: ATOM     17  N   UNL     1     139.158  73.575 222.269 -0.08 +0.09    -0.337 N  
DOCKED: ATOM     18  C   UNL     1     140.041  72.450 222.385 -0.21 -0.04    +0.270 C  
DOCKED: ATOM     19  H   UNL     1     138.477  73.773 223.037 -0.55 -0.12    +0.164 HD 
DOCKED: ATOM     20  O   UNL     1     140.896  72.233 221.481 -0.17 +0.03    -0.268 OA 
DOCKED: BRANCH  18  21
DOCKED: ATOM     21  C   UNL     1     139.954  71.542 223.549 -0.33 -0.02    +0.128 A  
DOCKED: ATOM     22  N   UNL     1     140.524  71.906 224.731 -0.25 +0.04    -0.243 NA 
DOCKED: ATOM     23  C   UNL     1     139.286  70.309 223.458 -0.27 -0.01    +0.035 A  
DOCKED: ATOM     24  C   UNL     1     140.472  71.114 225.835 -0.54 -0.01    +0.071 A  
DOCKED: ATOM     25  C   UNL     1     139.216  69.474 224.575 -0.35 -0.00    +0.013 A  
DOCKED: ATOM     26  C   UNL     1     141.074  71.531 227.029 -0.73 -0.00    +0.029 A  
DOCKED: ATOM     27  C   UNL     1     139.810  69.869 225.779 -0.47 -0.00    +0.000 A  
DOCKED: ATOM     28  C   UNL     1     141.018  70.715 228.162 -0.64 -0.00    +0.002 A  
DOCKED: ATOM     29  C   UNL     1     139.758  69.056 226.920 -0.56 -0.00    +0.010 A  
DOCKED: ATOM     30  C   UNL     1     140.362  69.479 228.108 -0.63 -0.00    +0.001 A  
DOCKED: ENDBRANCH  18  21
DOCKED: ENDBRANCH  16  17
DOCKED: ENDBRANCH   1  16
DOCKED: TORSDOF 6
DOCKED: TER
DOCKED: ENDMDL
________________________________________________________________________________


    FINAL DOCKED STATE:
    ________________________


Run:   20 / 20
Time taken for this run:   0.034s

DOCKED: MODEL        20
DOCKED: USER    Run = 20
DOCKED: USER
DOCKED: USER    Estimated Free Energy of Binding    =  -8.88 kcal/mol  [=(1)+(2)+(3)-(4)]
DOCKED: USER
DOCKED: USER    (1) Final Intermolecular Energy     = -10.67 kcal/mol
DOCKED: USER        vdW + Hbond + desolv Energy     = -10.23 kcal/mol
DOCKED: USER        Electrostatic Energy            =  -0.44 kcal/mol
DOCKED: USER        Moving Ligand-Fixed Receptor    = -10.67 kcal/mol
DOCKED: USER        Moving Ligand-Moving Receptor   =  +0.00 kcal/mol
DOCKED: USER    (2) Final Total Internal Energy     =  -1.73 kcal/mol
DOCKED: USER    (3) Torsional Free Energy           =  +1.79 kcal/mol
DOCKED: USER    (4) Unbound System's Energy         =  -1.73 kcal/mol
DOCKED: USER
DOCKED: USER
DOCKED: REMARK SMILES O=C(NC/C(O)=[N+]1/CCCC[C@H]1c1ccccc1)c1ccc2ccccc2n1
DOCKED: REMARK SMILES IDX 5 1 6 2 7 4 8 5 12 6 9 7 11 8 10 9 13 10 14 11 18 12 15 13
DOCKED: REMARK SMILES IDX 17 14 16 15 4 16 3 17 2 18 1 20 19 21 28 22 20 23 27 24
DOCKED: REMARK SMILES IDX 21 25 26 26 22 27 25 28 23 29 24 30
DOCKED: REMARK H PARENT 6 3 3 19
DOCKED: USER                              x       y       z     vdW  Elec       q    Type
DOCKED: USER                           _______ _______ _______ _____ _____    ______ ____
DOCKED: ROOT
DOCKED: ATOM      1  C   UNL     1     140.387  75.093 221.375 -0.18 -0.07    +0.354 C  
DOCKED: ENDROOT
DOCKED: BRANCH   1   2
DOCKED: ATOM      2  O   UNL     1     139.896  75.653 222.563 -0.38 +0.05    -0.462 OA 
DOCKED: ATOM      3  H   UNL     1     139.194  75.227 223.153 -0.40 -0.07    +0.299 HD 
DOCKED: ENDBRANCH   1   2
DOCKED: BRANCH   1   4
DOCKED: ATOM      4  N   UNL     1     141.153  75.781 220.538 -0.16 +0.07    -0.194 N  
DOCKED: ATOM      5  C   UNL     1     141.329  77.238 220.772 -0.14 -0.17    +0.354 C  
DOCKED: ATOM      6  C   UNL     1     141.922  75.071 219.469 -0.10 -0.10    +0.294 C  
DOCKED: ATOM      7  C   UNL     1     141.813  78.030 219.555 -0.26 -0.04    +0.073 C  
DOCKED: ATOM      8  C   UNL     1     142.390  75.982 218.319 -0.19 -0.04    +0.082 C  
DOCKED: ATOM      9  C   UNL     1     142.927  77.310 218.823 -0.31 -0.01    +0.014 C  
DOCKED: BRANCH   6  10
DOCKED: ATOM     10  C   UNL     1     143.101  74.297 220.044 -0.32 -0.01    +0.019 A  
DOCKED: ATOM     11  C   UNL     1     144.355  74.900 220.257 -0.40 -0.01    +0.010 A  
DOCKED: ATOM     12  C   UNL     1     142.952  72.925 220.326 -0.27 -0.00    +0.010 A  
DOCKED: ATOM     13  C   UNL     1     145.423  74.156 220.763 -0.59 -0.00    +0.001 A  
DOCKED: ATOM     14  C   UNL     1     144.024  72.185 220.832 -0.35 -0.00    +0.001 A  
DOCKED: ATOM     15  C   UNL     1     145.258  72.799 221.054 -0.51 -0.00    +0.000 A  
DOCKED: ENDBRANCH   6  10
DOCKED: ENDBRANCH   1   4
DOCKED: BRANCH   1  16
DOCKED: ATOM     16  C   UNL     1     139.958  73.665 221.116 -0.15 -0.05    +0.269 C  
DOCKED: BRANCH  16  17
DOCKED: ATOM     17  N   UNL     1     139.911  72.899 222.361 -0.17 +0.05    -0.337 N  
DOCKED: ATOM     18  C   UNL     1     140.120  71.479 222.372 -0.19 -0.04    +0.270 C  
DOCKED: ATOM     19  H   UNL     1     139.704  73.393 223.258 -0.41 -0.03    +0.164 HD 
DOCKED: ATOM     20  O   UNL     1     140.415  70.883 221.298 -0.10 +0.04    -0.268 OA 
DOCKED: BRANCH  18  21
DOCKED: ATOM     21  C   UNL     1     139.988  70.709 223.628 -0.27 -0.02    +0.128 A  
DOCKED: ATOM     22  N   UNL     1     140.526  71.200 224.779 -0.31 +0.04    -0.243 NA 
DOCKED: ATOM     23  C   UNL     1     139.309  69.479 223.655 -0.25 -0.01    +0.035 A  
DOCKED: ATOM     24  C   UNL     1     140.432  70.539 225.963 -0.51 -0.01    +0.071 A  
DOCKED: ATOM     25  C   UNL     1     139.196  68.776 224.857 -0.39 -0.00    +0.013 A  
DOCKED: ATOM     26  C   UNL     1     141.001  71.083 227.120 -0.67 -0.00    +0.029 A  
DOCKED: ATOM     27  C   UNL     1     139.758  69.300 226.027 -0.49 -0.00    +0.000 A  
DOCKED: ATOM     28  C   UNL     1     140.902  70.401 228.336 -0.56 -0.00    +0.002 A  
DOCKED: ATOM     29  C   UNL     1     139.662  68.622 227.251 -0.59 -0.00    +0.010 A  
DOCKED: ATOM     30  C   UNL     1     140.235  69.173 228.401 -0.63 -0.00    +0.001 A  
DOCKED: ENDBRANCH  18  21
DOCKED: ENDBRANCH  16  17
DOCKED: ENDBRANCH   1  16
DOCKED: TORSDOF 6
DOCKED: TER
DOCKED: ENDMDL
________________________________________________________________________________


    CLUSTERING HISTOGRAM
    ____________________


________________________________________________________________________________
     |           |     |           |     |
Clus | Lowest    | Run | Mean      | Num | Histogram
-ter | Binding   |     | Binding   | in  |
Rank | Energy    |     | Energy    | Clus|    5    10   15   20   25   30   35
_____|___________|_____|___________|_____|____:____|____:____|____:____|____:___
   1 |     -9.11 |   4 |     -8.94 |  10 |##########
   2 |     -8.98 |  11 |     -8.56 |   8 |########
   3 |     -8.40 |   5 |     -8.39 |   2 |##
_____|___________|_____|___________|_____|______________________________________


    RMSD TABLE
    __________


_______________________________________________________________________
     |      |      |           |         |                 |
Rank | Sub- | Run  | Binding   | Cluster | Reference       | Grep
     | Rank |      | Energy    | RMSD    | RMSD            | Pattern
_____|______|______|___________|_________|_________________|___________
   1      1      4       -9.11      0.00    269.80           RANKING
   1      2      6       -9.09      0.07    269.81           RANKING
   1      3     13       -9.09      0.10    269.82           RANKING
   1      4     14       -8.90      1.18    269.67           RANKING
   1      5     16       -8.90      1.18    269.66           RANKING
   1      6      7       -8.90      1.20    269.68           RANKING
   1      7     12       -8.88      0.73    269.74           RANKING
   1      8     20       -8.88      0.77    269.76           RANKING
   1      9      1       -8.86      0.77    269.74           RANKING
   1     10     17       -8.82      0.80    269.76           RANKING
   2      1     11       -8.98      0.00    270.20           RANKING
   2      2      8       -8.84      0.69    270.10           RANKING
   2      3     10       -8.83      0.69    270.09           RANKING
   2      4      9       -8.62      0.59    270.03           RANKING
   2      5      3       -8.53      1.53    270.33           RANKING
   2      6     18       -8.30      0.93    269.98           RANKING
   2      7     19       -8.24      1.05    269.96           RANKING
   2      8     15       -8.15      1.04    269.95           RANKING
   3      1      5       -8.40      0.00    269.83           RANKING
   3      2      2       -8.39      0.13    269.86           RANKING

Run time 0.651 sec
Idle time 0.000 sec
