AutoDock-GPU version: v1.6

**********************************************************
**    AutoDock-GPU AUTODOCKTOOLS-COMPATIBLE DLG FILE    **
**********************************************************


    DOCKING PARAMETERS
    ________________________


Ligand file:                               /home/a/REINVENT4/ReinventStudies/pleaseWork/justmol2mol_4_Compounds_ontop/graph-dock-8u2o5u/graph-DockGPU/node-autodockgpu/inputs/XDSVILUGLBWOAW-ZSWWDKBRNA-N.pdbqt
Grid fld file:                             /home/a/REINVENT4/ReinventStudies/mols/Rad51/maps/rad51_receptor.maps.fld

Random seed:                               42
Number of runs:                            20
Number of energy evaluations:              1132076
Number of generations:                     42000
Size of population:                        150
Rate of crossover:                         80.000000%
Tournament selection probability limit:    60.000000%
Rate of mutation:                          2.000000%
Maximal allowed delta movement:            +/- 6.000000A
Maximal allowed delta angle:               +/- 90.000000

Rate of local search:                      100.000000%
Maximal number of local search iterations: 300
Rho lower bound:                           0.010000
Spread of local search delta movement:     2.000000A
Spread of local search delta angle:        74.999999
Limit of consecutive successes/failures:   4

Handle symmetry during clustering:         YES
RMSD tolerance:                            2.000000A

Program call in command line was:          /home/a/REINVENT4/ReinventStudies/adgpu-v1.6_linux_x64_cuda12_128wi --filelist batch.txt --heuristics 1 --nrun 20 --psize 150 --lsit 300 --seed 42 --heurmax 12000000 


    GRID PARAMETERS
    ________________________


Receptor name:                             rad51_receptor
Number of grid points (x, y, z):           53, 53, 53
Grid center (x, y, z):                     139.950000, 75.640000, 221.970000A
Grid size (x, y, z):                       19.500000, 19.500000, 19.500000A
Grid spacing:                              0.375000A


    LIGAND PARAMETERS
    ________________________


Ligand name:                               /home/a/REINVENT4/ReinventStudies/pleaseWork/justmol2mol_4_Compounds_ontop/graph-dock-8u2o5u/graph-DockGPU/node-autodockgpu/inputs/XDSVILUGLBWOAW-ZSWWDKBRNA-N
Number of atoms:                           29
Number of rotatable bonds:                 5
Number of atom types:                      7


    DUMMY DATA (only for ADT-compatibility)
    ________________________


DPF> outlev 1
DPF> ga_run 20
DPF> fld /home/a/REINVENT4/ReinventStudies/mols/Rad51/maps/rad51_receptor.maps.fld
DPF> move /home/a/REINVENT4/ReinventStudies/pleaseWork/justmol2mol_4_Compounds_ontop/graph-dock-8u2o5u/graph-DockGPU/node-autodockgpu/inputs/XDSVILUGLBWOAW-ZSWWDKBRNA-N.pdbqt


    COUNTER STATES
    ________________________


Number of energy evaluations performed:    691092
Number of generations used:                35


    INPUT LIGAND PDBQT FILE:
    ________________________


INPUT-LIGAND-PDBQT: REMARK SMILES O=C(NCC(=O)N1CCC[C@H]1c1ccccc1)c1ccc2cc(Cl)ccc2n1
INPUT-LIGAND-PDBQT: REMARK SMILES IDX 4 1 3 2 2 3 1 4 18 6 19 7 28 8 20 9 27 10 21 11 26 12 22 13
INPUT-LIGAND-PDBQT: REMARK SMILES IDX 25 14 23 15 24 16 5 17 6 18 7 19 8 20 11 21 9 22 10 23 12 24
INPUT-LIGAND-PDBQT: REMARK SMILES IDX 13 25 17 26 14 27 16 28 15 29
INPUT-LIGAND-PDBQT: REMARK H PARENT 3 5
INPUT-LIGAND-PDBQT: ROOT
INPUT-LIGAND-PDBQT: ATOM      1  C   UNL     1       2.285   1.099   2.194  1.00  0.00     0.216 C 
INPUT-LIGAND-PDBQT: ENDROOT
INPUT-LIGAND-PDBQT: BRANCH   1   2
INPUT-LIGAND-PDBQT: ATOM      2  N   UNL     1       2.514   2.121   1.179  1.00  0.00    -0.342 N 
INPUT-LIGAND-PDBQT: ATOM      3  C   UNL     1       3.118   1.785  -0.072  1.00  0.00     0.270 C 
INPUT-LIGAND-PDBQT: ATOM      4  O   UNL     1       4.297   1.337  -0.093  1.00  0.00    -0.268 OA
INPUT-LIGAND-PDBQT: ATOM      5  H   UNL     1       1.936   2.991   1.228  1.00  0.00     0.164 HD
INPUT-LIGAND-PDBQT: BRANCH   3   6
INPUT-LIGAND-PDBQT: ATOM      6  C   UNL     1       2.340   1.901  -1.319  1.00  0.00     0.128 A 
INPUT-LIGAND-PDBQT: ATOM      7  C   UNL     1       2.935   1.687  -2.573  1.00  0.00     0.035 A 
INPUT-LIGAND-PDBQT: ATOM      8  N   UNL     1       1.003   2.150  -1.245  1.00  0.00    -0.243 NA
INPUT-LIGAND-PDBQT: ATOM      9  C   UNL     1       2.150   1.735  -3.727  1.00  0.00     0.013 A 
INPUT-LIGAND-PDBQT: ATOM     10  C   UNL     1       0.213   2.198  -2.350  1.00  0.00     0.071 A 
INPUT-LIGAND-PDBQT: ATOM     11  C   UNL     1       0.776   1.986  -3.627  1.00  0.00     0.002 A 
INPUT-LIGAND-PDBQT: ATOM     12  C   UNL     1      -1.158   2.444  -2.224  1.00  0.00     0.030 A 
INPUT-LIGAND-PDBQT: ATOM     13  C   UNL     1      -0.043   2.026  -4.765  1.00  0.00     0.030 A 
INPUT-LIGAND-PDBQT: ATOM     14  C   UNL     1      -1.970   2.480  -3.361  1.00  0.00     0.023 A 
INPUT-LIGAND-PDBQT: ATOM     15  C   UNL     1      -1.415   2.273  -4.630  1.00  0.00     0.041 A 
INPUT-LIGAND-PDBQT: ATOM     16  Cl  UNL     1      -2.441   2.319  -6.052  1.00  0.00    -0.084 Cl
INPUT-LIGAND-PDBQT: ENDBRANCH   3   6
INPUT-LIGAND-PDBQT: ENDBRANCH   1   2
INPUT-LIGAND-PDBQT: BRANCH   1  17
INPUT-LIGAND-PDBQT: ATOM     17  C   UNL     1       0.863   0.625   2.104  1.00  0.00     0.242 C 
INPUT-LIGAND-PDBQT: ATOM     18  O   UNL     1      -0.005   1.183   2.828  1.00  0.00    -0.273 OA
INPUT-LIGAND-PDBQT: BRANCH  17  19
INPUT-LIGAND-PDBQT: ATOM     19  N   UNL     1       0.457  -0.367   1.143  1.00  0.00    -0.334 N 
INPUT-LIGAND-PDBQT: ATOM     20  C   UNL     1       1.367  -1.292   0.485  1.00  0.00     0.120 C 
INPUT-LIGAND-PDBQT: ATOM     21  C   UNL     1      -0.910  -0.479   0.652  1.00  0.00     0.115 C 
INPUT-LIGAND-PDBQT: ATOM     22  C   UNL     1       0.500  -2.153  -0.425  1.00  0.00     0.024 C 
INPUT-LIGAND-PDBQT: ATOM     23  C   UNL     1      -0.832  -1.418  -0.554  1.00  0.00     0.032 C 
INPUT-LIGAND-PDBQT: BRANCH  21  24
INPUT-LIGAND-PDBQT: ATOM     24  C   UNL     1      -1.837  -1.023   1.722  1.00  0.00    -0.025 A 
INPUT-LIGAND-PDBQT: ATOM     25  C   UNL     1      -3.121  -0.473   1.877  1.00  0.00     0.006 A 
INPUT-LIGAND-PDBQT: ATOM     26  C   UNL     1      -1.452  -2.103   2.540  1.00  0.00     0.006 A 
INPUT-LIGAND-PDBQT: ATOM     27  C   UNL     1      -3.996  -0.980   2.843  1.00  0.00     0.000 A 
INPUT-LIGAND-PDBQT: ATOM     28  C   UNL     1      -2.329  -2.605   3.506  1.00  0.00     0.000 A 
INPUT-LIGAND-PDBQT: ATOM     29  C   UNL     1      -3.600  -2.044   3.658  1.00  0.00     0.000 A 
INPUT-LIGAND-PDBQT: ENDBRANCH  21  24
INPUT-LIGAND-PDBQT: ENDBRANCH  17  19
INPUT-LIGAND-PDBQT: ENDBRANCH   1  17
INPUT-LIGAND-PDBQT: TORSDOF 5


    FINAL DOCKED STATE:
    ________________________


Run:   1 / 20
Time taken for this run:   0.027s

DOCKED: MODEL        1
DOCKED: USER    Run = 1
DOCKED: USER
DOCKED: USER    Estimated Free Energy of Binding    =  -7.82 kcal/mol  [=(1)+(2)+(3)-(4)]
DOCKED: USER
DOCKED: USER    (1) Final Intermolecular Energy     =  -9.32 kcal/mol
DOCKED: USER        vdW + Hbond + desolv Energy     =  -9.30 kcal/mol
DOCKED: USER        Electrostatic Energy            =  -0.02 kcal/mol
DOCKED: USER        Moving Ligand-Fixed Receptor    =  -9.32 kcal/mol
DOCKED: USER        Moving Ligand-Moving Receptor   =  +0.00 kcal/mol
DOCKED: USER    (2) Final Total Internal Energy     =  -1.78 kcal/mol
DOCKED: USER    (3) Torsional Free Energy           =  +1.49 kcal/mol
DOCKED: USER    (4) Unbound System's Energy         =  -1.78 kcal/mol
DOCKED: USER
DOCKED: USER
DOCKED: REMARK SMILES O=C(NCC(=O)N1CCC[C@H]1c1ccccc1)c1ccc2cc(Cl)ccc2n1
DOCKED: REMARK SMILES IDX 4 1 3 2 2 3 1 4 18 6 19 7 28 8 20 9 27 10 21 11 26 12 22 13
DOCKED: REMARK SMILES IDX 25 14 23 15 24 16 5 17 6 18 7 19 8 20 11 21 9 22 10 23 12 24
DOCKED: REMARK SMILES IDX 13 25 17 26 14 27 16 28 15 29
DOCKED: REMARK H PARENT 3 5
DOCKED: USER                              x       y       z     vdW  Elec       q    Type
DOCKED: USER                           _______ _______ _______ _____ _____    ______ ____
DOCKED: ROOT
DOCKED: ATOM      1  C   UNL     1     136.755  68.797 223.156 -0.10 -0.02    +0.216 C  
DOCKED: ENDROOT
DOCKED: BRANCH   1   2
DOCKED: ATOM      2  N   UNL     1     135.367  69.244 223.178 -0.04 +0.03    -0.342 N  
DOCKED: ATOM      3  C   UNL     1     134.608  69.207 224.389 -0.11 -0.02    +0.270 C  
DOCKED: ATOM      4  O   UNL     1     134.381  68.100 224.947 -0.70 +0.00    -0.268 OA 
DOCKED: ATOM      5  H   UNL     1     135.055  69.894 222.421 +0.03 -0.02    +0.164 HD 
DOCKED: BRANCH   3   6
DOCKED: ATOM      6  C   UNL     1     134.154  70.465 225.010 -0.16 -0.01    +0.128 A  
DOCKED: ATOM      7  C   UNL     1     133.220  70.465 226.059 -0.27 -0.00    +0.035 A  
DOCKED: ATOM      8  N   UNL     1     134.706  71.642 224.604 -0.09 +0.03    -0.243 NA 
DOCKED: ATOM      9  C   UNL     1     132.868  71.671 226.670 -0.37 -0.00    +0.013 A  
DOCKED: ATOM     10  C   UNL     1     134.387  72.830 225.183 -0.24 -0.00    +0.071 A  
DOCKED: ATOM     11  C   UNL     1     133.454  72.868 226.241 -0.35 -0.00    +0.002 A  
DOCKED: ATOM     12  C   UNL     1     134.990  74.012 224.741 -0.29 -0.00    +0.030 A  
DOCKED: ATOM     13  C   UNL     1     133.134  74.093 226.844 -0.29 +0.00    +0.030 A  
DOCKED: ATOM     14  C   UNL     1     134.670  75.230 225.347 -0.38 -0.00    +0.023 A  
DOCKED: ATOM     15  C   UNL     1     133.742  75.273 226.396 -0.37 +0.00    +0.041 A  
DOCKED: ATOM     16  Cl  UNL     1     133.346  76.805 227.151 -0.44 +0.01    -0.084 Cl 
DOCKED: ENDBRANCH   3   6
DOCKED: ENDBRANCH   1   2
DOCKED: BRANCH   1  17
DOCKED: ATOM     17  C   UNL     1     137.548  69.602 224.146 -0.18 -0.03    +0.242 C  
DOCKED: ATOM     18  O   UNL     1     137.411  69.350 225.373 -0.18 +0.02    -0.273 OA 
DOCKED: BRANCH  17  19
DOCKED: ATOM     19  N   UNL     1     138.527  70.568 223.722 -0.12 +0.07    -0.334 N  
DOCKED: ATOM     20  C   UNL     1     138.230  71.728 222.896 -0.15 -0.03    +0.120 C  
DOCKED: ATOM     21  C   UNL     1     139.950  70.425 224.000 -0.29 -0.02    +0.115 C  
DOCKED: ATOM     22  C   UNL     1     139.554  72.461 222.717 -0.24 -0.01    +0.024 C  
DOCKED: ATOM     23  C   UNL     1     140.642  71.469 223.120 -0.27 -0.00    +0.032 C  
DOCKED: BRANCH  21  24
DOCKED: ATOM     24  C   UNL     1     140.250  70.648 225.469 -0.51 +0.00    -0.025 A  
DOCKED: ATOM     25  C   UNL     1     140.061  69.600 226.386 -0.52 -0.00    +0.006 A  
DOCKED: ATOM     26  C   UNL     1     140.759  71.877 225.931 -0.55 -0.00    +0.006 A  
DOCKED: ATOM     27  C   UNL     1     140.356  69.783 227.741 -0.62 -0.00    +0.000 A  
DOCKED: ATOM     28  C   UNL     1     141.051  72.057 227.286 -0.82 -0.00    +0.000 A  
DOCKED: ATOM     29  C   UNL     1     140.850  71.011 228.191 -0.69 -0.00    +0.000 A  
DOCKED: ENDBRANCH  21  24
DOCKED: ENDBRANCH  17  19
DOCKED: ENDBRANCH   1  17
DOCKED: TORSDOF 5
DOCKED: TER
DOCKED: ENDMDL
________________________________________________________________________________


    FINAL DOCKED STATE:
    ________________________


Run:   2 / 20
Time taken for this run:   0.027s

DOCKED: MODEL        2
DOCKED: USER    Run = 2
DOCKED: USER
DOCKED: USER    Estimated Free Energy of Binding    =  -8.15 kcal/mol  [=(1)+(2)+(3)-(4)]
DOCKED: USER
DOCKED: USER    (1) Final Intermolecular Energy     =  -9.64 kcal/mol
DOCKED: USER        vdW + Hbond + desolv Energy     =  -9.61 kcal/mol
DOCKED: USER        Electrostatic Energy            =  -0.03 kcal/mol
DOCKED: USER        Moving Ligand-Fixed Receptor    =  -9.64 kcal/mol
DOCKED: USER        Moving Ligand-Moving Receptor   =  +0.00 kcal/mol
DOCKED: USER    (2) Final Total Internal Energy     =  -1.96 kcal/mol
DOCKED: USER    (3) Torsional Free Energy           =  +1.49 kcal/mol
DOCKED: USER    (4) Unbound System's Energy         =  -1.96 kcal/mol
DOCKED: USER
DOCKED: USER
DOCKED: REMARK SMILES O=C(NCC(=O)N1CCC[C@H]1c1ccccc1)c1ccc2cc(Cl)ccc2n1
DOCKED: REMARK SMILES IDX 4 1 3 2 2 3 1 4 18 6 19 7 28 8 20 9 27 10 21 11 26 12 22 13
DOCKED: REMARK SMILES IDX 25 14 23 15 24 16 5 17 6 18 7 19 8 20 11 21 9 22 10 23 12 24
DOCKED: REMARK SMILES IDX 13 25 17 26 14 27 16 28 15 29
DOCKED: REMARK H PARENT 3 5
DOCKED: USER                              x       y       z     vdW  Elec       q    Type
DOCKED: USER                           _______ _______ _______ _____ _____    ______ ____
DOCKED: ROOT
DOCKED: ATOM      1  C   UNL     1     139.895  73.257 220.780 -0.12 -0.04    +0.216 C  
DOCKED: ENDROOT
DOCKED: BRANCH   1   2
DOCKED: ATOM      2  N   UNL     1     139.016  73.091 221.932 -0.11 +0.08    -0.342 N  
DOCKED: ATOM      3  C   UNL     1     138.291  71.876 222.128 -0.10 -0.06    +0.270 C  
DOCKED: ATOM      4  O   UNL     1     137.431  71.521 221.276 -0.03 +0.05    -0.268 OA 
DOCKED: ATOM      5  H   UNL     1     139.187  73.701 222.764 -0.49 -0.05    +0.164 HD 
DOCKED: BRANCH   3   6
DOCKED: ATOM      6  C   UNL     1     138.597  71.015 223.284 -0.21 -0.03    +0.128 A  
DOCKED: ATOM      7  C   UNL     1     138.120  69.696 223.359 -0.22 -0.01    +0.035 A  
DOCKED: ATOM      8  N   UNL     1     139.418  71.487 224.263 -0.23 +0.06    -0.243 NA 
DOCKED: ATOM      9  C   UNL     1     138.491  68.887 224.435 -0.34 -0.00    +0.013 A  
DOCKED: ATOM     10  C   UNL     1     139.799  70.722 225.320 -0.43 -0.01    +0.071 A  
DOCKED: ATOM     11  C   UNL     1     139.341  69.392 225.427 -0.43 -0.00    +0.002 A  
DOCKED: ATOM     12  C   UNL     1     140.654  71.247 226.295 -0.62 -0.00    +0.030 A  
DOCKED: ATOM     13  C   UNL     1     139.744  68.601 226.514 -0.56 -0.00    +0.030 A  
DOCKED: ATOM     14  C   UNL     1     141.055  70.454 227.374 -0.60 -0.00    +0.023 A  
DOCKED: ATOM     15  C   UNL     1     140.601  69.134 227.485 -0.59 -0.01    +0.041 A  
DOCKED: ATOM     16  Cl  UNL     1     141.109  68.145 228.842 -0.62 +0.02    -0.084 Cl 
DOCKED: ENDBRANCH   3   6
DOCKED: ENDBRANCH   1   2
DOCKED: BRANCH   1  17
DOCKED: ATOM     17  C   UNL     1     141.135  73.988 221.207 -0.20 -0.04    +0.242 C  
DOCKED: ATOM     18  O   UNL     1     141.029  74.901 222.071 -0.56 +0.02    -0.273 OA 
DOCKED: BRANCH  17  19
DOCKED: ATOM     19  N   UNL     1     142.440  73.602 220.737 -0.12 +0.07    -0.334 N  
DOCKED: ATOM     20  C   UNL     1     142.839  72.230 220.462 -0.21 -0.02    +0.120 C  
DOCKED: ATOM     21  C   UNL     1     143.537  74.548 220.583 -0.22 -0.05    +0.115 C  
DOCKED: ATOM     22  C   UNL     1     144.282  72.305 219.980 -0.33 -0.00    +0.024 C  
DOCKED: ATOM     23  C   UNL     1     144.787  73.689 220.380 -0.51 -0.01    +0.032 C  
DOCKED: BRANCH  21  24
DOCKED: ATOM     24  C   UNL     1     143.302  75.477 219.407 -0.35 +0.01    -0.025 A  
DOCKED: ATOM     25  C   UNL     1     142.807  76.773 219.631 -0.37 -0.00    +0.006 A  
DOCKED: ATOM     26  C   UNL     1     143.613  75.081 218.092 -0.21 -0.00    +0.006 A  
DOCKED: ATOM     27  C   UNL     1     142.608  77.649 218.560 -0.33 -0.00    +0.000 A  
DOCKED: ATOM     28  C   UNL     1     143.411  75.959 217.024 -0.22 -0.00    +0.000 A  
DOCKED: ATOM     29  C   UNL     1     142.908  77.242 217.257 -0.28 -0.00    +0.000 A  
DOCKED: ENDBRANCH  21  24
DOCKED: ENDBRANCH  17  19
DOCKED: ENDBRANCH   1  17
DOCKED: TORSDOF 5
DOCKED: TER
DOCKED: ENDMDL
________________________________________________________________________________


    FINAL DOCKED STATE:
    ________________________


Run:   3 / 20
Time taken for this run:   0.027s

DOCKED: MODEL        3
DOCKED: USER    Run = 3
DOCKED: USER
DOCKED: USER    Estimated Free Energy of Binding    =  -7.12 kcal/mol  [=(1)+(2)+(3)-(4)]
DOCKED: USER
DOCKED: USER    (1) Final Intermolecular Energy     =  -8.61 kcal/mol
DOCKED: USER        vdW + Hbond + desolv Energy     =  -8.50 kcal/mol
DOCKED: USER        Electrostatic Energy            =  -0.11 kcal/mol
DOCKED: USER        Moving Ligand-Fixed Receptor    =  -8.61 kcal/mol
DOCKED: USER        Moving Ligand-Moving Receptor   =  +0.00 kcal/mol
DOCKED: USER    (2) Final Total Internal Energy     =  -2.12 kcal/mol
DOCKED: USER    (3) Torsional Free Energy           =  +1.49 kcal/mol
DOCKED: USER    (4) Unbound System's Energy         =  -2.12 kcal/mol
DOCKED: USER
DOCKED: USER
DOCKED: REMARK SMILES O=C(NCC(=O)N1CCC[C@H]1c1ccccc1)c1ccc2cc(Cl)ccc2n1
DOCKED: REMARK SMILES IDX 4 1 3 2 2 3 1 4 18 6 19 7 28 8 20 9 27 10 21 11 26 12 22 13
DOCKED: REMARK SMILES IDX 25 14 23 15 24 16 5 17 6 18 7 19 8 20 11 21 9 22 10 23 12 24
DOCKED: REMARK SMILES IDX 13 25 17 26 14 27 16 28 15 29
DOCKED: REMARK H PARENT 3 5
DOCKED: USER                              x       y       z     vdW  Elec       q    Type
DOCKED: USER                           _______ _______ _______ _____ _____    ______ ____
DOCKED: ROOT
DOCKED: ATOM      1  C   UNL     1     137.468  76.960 222.135 -0.16 -0.04    +0.216 C  
DOCKED: ENDROOT
DOCKED: BRANCH   1   2
DOCKED: ATOM      2  N   UNL     1     137.885  75.639 222.591 -0.13 +0.10    -0.342 N  
DOCKED: ATOM      3  C   UNL     1     138.149  74.593 221.654 -0.12 -0.07    +0.270 C  
DOCKED: ATOM      4  O   UNL     1     137.218  74.170 220.915 -0.04 +0.06    -0.268 OA 
DOCKED: ATOM      5  H   UNL     1     138.315  75.568 223.542 -0.37 -0.07    +0.164 HD 
DOCKED: BRANCH   3   6
DOCKED: ATOM      6  C   UNL     1     139.517  74.062 221.511 -0.21 -0.02    +0.128 A  
DOCKED: ATOM      7  C   UNL     1     139.807  72.713 221.772 -0.25 -0.01    +0.035 A  
DOCKED: ATOM      8  N   UNL     1     140.501  74.881 221.046 -0.20 +0.05    -0.243 NA 
DOCKED: ATOM      9  C   UNL     1     141.100  72.230 221.556 -0.26 -0.00    +0.013 A  
DOCKED: ATOM     10  C   UNL     1     141.766  74.439 220.822 -0.27 -0.02    +0.071 A  
DOCKED: ATOM     11  C   UNL     1     142.094  73.089 221.072 -0.24 -0.00    +0.002 A  
DOCKED: ATOM     12  C   UNL     1     142.740  75.315 220.332 -0.28 -0.01    +0.030 A  
DOCKED: ATOM     13  C   UNL     1     143.398  72.633 220.830 -0.29 -0.00    +0.030 A  
DOCKED: ATOM     14  C   UNL     1     144.038  74.854 220.090 -0.44 -0.01    +0.023 A  
DOCKED: ATOM     15  C   UNL     1     144.368  73.516 220.340 -0.42 -0.01    +0.041 A  
DOCKED: ATOM     16  Cl  UNL     1     145.998  72.946 220.033 -0.64 -0.02    -0.084 Cl 
DOCKED: ENDBRANCH   3   6
DOCKED: ENDBRANCH   1   2
DOCKED: BRANCH   1  17
DOCKED: ATOM     17  C   UNL     1     138.602  77.927 222.323 -0.18 -0.05    +0.242 C  
DOCKED: ATOM     18  O   UNL     1     138.774  78.439 223.462 -0.18 +0.04    -0.273 OA 
DOCKED: BRANCH  17  19
DOCKED: ATOM     19  N   UNL     1     139.548  78.195 221.272 -0.05 +0.09    -0.334 N  
DOCKED: ATOM     20  C   UNL     1     139.188  78.406 219.878 -0.06 -0.03    +0.120 C  
DOCKED: ATOM     21  C   UNL     1     140.990  78.182 221.484 -0.29 -0.05    +0.115 C  
DOCKED: ATOM     22  C   UNL     1     140.498  78.665 219.144 -0.12 -0.01    +0.024 C  
DOCKED: ATOM     23  C   UNL     1     141.606  78.194 220.083 -0.27 -0.02    +0.032 C  
DOCKED: BRANCH  21  24
DOCKED: ATOM     24  C   UNL     1     141.438  79.380 222.299 -0.45 +0.01    -0.025 A  
DOCKED: ATOM     25  C   UNL     1     141.056  80.673 221.904 -0.38 -0.00    +0.006 A  
DOCKED: ATOM     26  C   UNL     1     142.197  79.219 223.474 -0.61 -0.00    +0.006 A  
DOCKED: ATOM     27  C   UNL     1     141.440  81.786 222.659 -0.45 -0.00    +0.000 A  
DOCKED: ATOM     28  C   UNL     1     142.581  80.334 224.225 -0.54 -0.00    +0.000 A  
DOCKED: ATOM     29  C   UNL     1     142.204  81.617 223.818 -0.58 -0.00    +0.000 A  
DOCKED: ENDBRANCH  21  24
DOCKED: ENDBRANCH  17  19
DOCKED: ENDBRANCH   1  17
DOCKED: TORSDOF 5
DOCKED: TER
DOCKED: ENDMDL
________________________________________________________________________________


    FINAL DOCKED STATE:
    ________________________


Run:   4 / 20
Time taken for this run:   0.027s

DOCKED: MODEL        4
DOCKED: USER    Run = 4
DOCKED: USER
DOCKED: USER    Estimated Free Energy of Binding    =  -8.15 kcal/mol  [=(1)+(2)+(3)-(4)]
DOCKED: USER
DOCKED: USER    (1) Final Intermolecular Energy     =  -9.65 kcal/mol
DOCKED: USER        vdW + Hbond + desolv Energy     =  -9.62 kcal/mol
DOCKED: USER        Electrostatic Energy            =  -0.02 kcal/mol
DOCKED: USER        Moving Ligand-Fixed Receptor    =  -9.65 kcal/mol
DOCKED: USER        Moving Ligand-Moving Receptor   =  +0.00 kcal/mol
DOCKED: USER    (2) Final Total Internal Energy     =  -1.95 kcal/mol
DOCKED: USER    (3) Torsional Free Energy           =  +1.49 kcal/mol
DOCKED: USER    (4) Unbound System's Energy         =  -1.95 kcal/mol
DOCKED: USER
DOCKED: USER
DOCKED: REMARK SMILES O=C(NCC(=O)N1CCC[C@H]1c1ccccc1)c1ccc2cc(Cl)ccc2n1
DOCKED: REMARK SMILES IDX 4 1 3 2 2 3 1 4 18 6 19 7 28 8 20 9 27 10 21 11 26 12 22 13
DOCKED: REMARK SMILES IDX 25 14 23 15 24 16 5 17 6 18 7 19 8 20 11 21 9 22 10 23 12 24
DOCKED: REMARK SMILES IDX 13 25 17 26 14 27 16 28 15 29
DOCKED: REMARK H PARENT 3 5
DOCKED: USER                              x       y       z     vdW  Elec       q    Type
DOCKED: USER                           _______ _______ _______ _____ _____    ______ ____
DOCKED: ROOT
DOCKED: ATOM      1  C   UNL     1     139.881  73.175 220.743 -0.11 -0.04    +0.216 C  
DOCKED: ENDROOT
DOCKED: BRANCH   1   2
DOCKED: ATOM      2  N   UNL     1     139.006  73.020 221.899 -0.11 +0.08    -0.342 N  
DOCKED: ATOM      3  C   UNL     1     138.283  71.805 222.109 -0.10 -0.06    +0.270 C  
DOCKED: ATOM      4  O   UNL     1     137.421  71.441 221.264 -0.03 +0.05    -0.268 OA 
DOCKED: ATOM      5  H   UNL     1     139.179  73.638 222.725 -0.47 -0.05    +0.164 HD 
DOCKED: BRANCH   3   6
DOCKED: ATOM      6  C   UNL     1     138.594  70.956 223.274 -0.21 -0.03    +0.128 A  
DOCKED: ATOM      7  C   UNL     1     138.116  69.638 223.364 -0.22 -0.01    +0.035 A  
DOCKED: ATOM      8  N   UNL     1     139.420  71.438 224.243 -0.23 +0.06    -0.243 NA 
DOCKED: ATOM      9  C   UNL     1     138.490  68.841 224.448 -0.34 -0.00    +0.013 A  
DOCKED: ATOM     10  C   UNL     1     139.805  70.684 225.306 -0.43 -0.01    +0.071 A  
DOCKED: ATOM     11  C   UNL     1     139.346  69.355 225.430 -0.43 -0.00    +0.002 A  
DOCKED: ATOM     12  C   UNL     1     140.666  71.217 226.271 -0.62 -0.00    +0.030 A  
DOCKED: ATOM     13  C   UNL     1     139.754  68.575 226.523 -0.56 -0.00    +0.030 A  
DOCKED: ATOM     14  C   UNL     1     141.071  70.435 227.357 -0.59 -0.00    +0.023 A  
DOCKED: ATOM     15  C   UNL     1     140.616  69.117 227.484 -0.59 -0.01    +0.041 A  
DOCKED: ATOM     16  Cl  UNL     1     141.129  68.142 228.849 -0.61 +0.02    -0.084 Cl 
DOCKED: ENDBRANCH   3   6
DOCKED: ENDBRANCH   1   2
DOCKED: BRANCH   1  17
DOCKED: ATOM     17  C   UNL     1     141.118  73.919 221.158 -0.19 -0.04    +0.242 C  
DOCKED: ATOM     18  O   UNL     1     141.011  74.833 222.020 -0.60 +0.02    -0.273 OA 
DOCKED: BRANCH  17  19
DOCKED: ATOM     19  N   UNL     1     142.422  73.543 220.677 -0.12 +0.07    -0.334 N  
DOCKED: ATOM     20  C   UNL     1     142.813  72.182 220.346 -0.20 -0.02    +0.120 C  
DOCKED: ATOM     21  C   UNL     1     143.527  74.487 220.568 -0.25 -0.04    +0.115 C  
DOCKED: ATOM     22  C   UNL     1     144.259  72.267 219.874 -0.31 -0.00    +0.024 C  
DOCKED: ATOM     23  C   UNL     1     144.772  73.629 220.334 -0.50 -0.01    +0.032 C  
DOCKED: BRANCH  21  24
DOCKED: ATOM     24  C   UNL     1     143.304  75.467 219.431 -0.36 +0.01    -0.025 A  
DOCKED: ATOM     25  C   UNL     1     142.766  76.737 219.701 -0.37 -0.00    +0.006 A  
DOCKED: ATOM     26  C   UNL     1     143.667  75.144 218.109 -0.21 -0.00    +0.006 A  
DOCKED: ATOM     27  C   UNL     1     142.577  77.659 218.667 -0.33 -0.00    +0.000 A  
DOCKED: ATOM     28  C   UNL     1     143.475  76.069 217.079 -0.23 -0.00    +0.000 A  
DOCKED: ATOM     29  C   UNL     1     142.930  77.325 217.357 -0.29 -0.00    +0.000 A  
DOCKED: ENDBRANCH  21  24
DOCKED: ENDBRANCH  17  19
DOCKED: ENDBRANCH   1  17
DOCKED: TORSDOF 5
DOCKED: TER
DOCKED: ENDMDL
________________________________________________________________________________


    FINAL DOCKED STATE:
    ________________________


Run:   5 / 20
Time taken for this run:   0.027s

DOCKED: MODEL        5
DOCKED: USER    Run = 5
DOCKED: USER
DOCKED: USER    Estimated Free Energy of Binding    =  -8.40 kcal/mol  [=(1)+(2)+(3)-(4)]
DOCKED: USER
DOCKED: USER    (1) Final Intermolecular Energy     =  -9.89 kcal/mol
DOCKED: USER        vdW + Hbond + desolv Energy     =  -9.82 kcal/mol
DOCKED: USER        Electrostatic Energy            =  -0.07 kcal/mol
DOCKED: USER        Moving Ligand-Fixed Receptor    =  -9.89 kcal/mol
DOCKED: USER        Moving Ligand-Moving Receptor   =  +0.00 kcal/mol
DOCKED: USER    (2) Final Total Internal Energy     =  -2.08 kcal/mol
DOCKED: USER    (3) Torsional Free Energy           =  +1.49 kcal/mol
DOCKED: USER    (4) Unbound System's Energy         =  -2.08 kcal/mol
DOCKED: USER
DOCKED: USER
DOCKED: REMARK SMILES O=C(NCC(=O)N1CCC[C@H]1c1ccccc1)c1ccc2cc(Cl)ccc2n1
DOCKED: REMARK SMILES IDX 4 1 3 2 2 3 1 4 18 6 19 7 28 8 20 9 27 10 21 11 26 12 22 13
DOCKED: REMARK SMILES IDX 25 14 23 15 24 16 5 17 6 18 7 19 8 20 11 21 9 22 10 23 12 24
DOCKED: REMARK SMILES IDX 13 25 17 26 14 27 16 28 15 29
DOCKED: REMARK H PARENT 3 5
DOCKED: USER                              x       y       z     vdW  Elec       q    Type
DOCKED: USER                           _______ _______ _______ _____ _____    ______ ____
DOCKED: ROOT
DOCKED: ATOM      1  C   UNL     1     139.618  73.620 220.859 -0.12 -0.04    +0.216 C  
DOCKED: ENDROOT
DOCKED: BRANCH   1   2
DOCKED: ATOM      2  N   UNL     1     138.887  72.970 221.941 -0.10 +0.08    -0.342 N  
DOCKED: ATOM      3  C   UNL     1     139.017  71.566 222.169 -0.13 -0.06    +0.270 C  
DOCKED: ATOM      4  O   UNL     1     138.647  70.754 221.278 -0.05 +0.05    -0.268 OA 
DOCKED: ATOM      5  H   UNL     1     138.560  73.569 222.733 -0.53 -0.08    +0.164 HD 
DOCKED: BRANCH   3   6
DOCKED: ATOM      6  C   UNL     1     139.640  71.077 223.413 -0.29 -0.02    +0.128 A  
DOCKED: ATOM      7  C   UNL     1     140.554  71.867 224.130 -0.34 -0.00    +0.035 A  
DOCKED: ATOM      8  N   UNL     1     139.266  69.866 223.911 -0.16 +0.04    -0.243 NA 
DOCKED: ATOM      9  C   UNL     1     141.068  71.400 225.342 -0.54 -0.00    +0.013 A  
DOCKED: ATOM     10  C   UNL     1     139.746  69.387 225.088 -0.36 -0.01    +0.071 A  
DOCKED: ATOM     11  C   UNL     1     140.665  70.154 225.838 -0.53 -0.00    +0.002 A  
DOCKED: ATOM     12  C   UNL     1     139.323  68.143 225.566 -0.49 -0.00    +0.030 A  
DOCKED: ATOM     13  C   UNL     1     141.151  69.662 227.058 -0.51 -0.01    +0.030 A  
DOCKED: ATOM     14  C   UNL     1     139.809  67.659 226.784 -0.63 -0.00    +0.023 A  
DOCKED: ATOM     15  C   UNL     1     140.722  68.415 227.529 -0.64 -0.01    +0.041 A  
DOCKED: ATOM     16  Cl  UNL     1     141.326  67.801 229.057 -0.23 +0.02    -0.084 Cl 
DOCKED: ENDBRANCH   3   6
DOCKED: ENDBRANCH   1   2
DOCKED: BRANCH   1  17
DOCKED: ATOM     17  C   UNL     1     140.118  74.954 221.334 -0.21 -0.05    +0.242 C  
DOCKED: ATOM     18  O   UNL     1     139.828  75.325 222.503 -0.55 +0.02    -0.273 OA 
DOCKED: BRANCH  17  19
DOCKED: ATOM     19  N   UNL     1     141.000  75.760 220.531 -0.10 +0.11    -0.334 N  
DOCKED: ATOM     20  C   UNL     1     141.113  77.207 220.637 -0.23 -0.05    +0.120 C  
DOCKED: ATOM     21  C   UNL     1     141.804  75.211 219.447 -0.16 -0.04    +0.115 C  
DOCKED: ATOM     22  C   UNL     1     142.165  77.618 219.614 -0.30 -0.02    +0.024 C  
DOCKED: ATOM     23  C   UNL     1     142.326  76.425 218.675 -0.25 -0.02    +0.032 C  
DOCKED: BRANCH  21  24
DOCKED: ATOM     24  C   UNL     1     142.941  74.361 219.981 -0.30 +0.01    -0.025 A  
DOCKED: ATOM     25  C   UNL     1     142.718  73.005 220.274 -0.25 -0.00    +0.006 A  
DOCKED: ATOM     26  C   UNL     1     144.234  74.894 220.149 -0.43 -0.00    +0.006 A  
DOCKED: ATOM     27  C   UNL     1     143.762  72.201 220.744 -0.33 -0.00    +0.000 A  
DOCKED: ATOM     28  C   UNL     1     145.274  74.088 220.621 -0.58 -0.00    +0.000 A  
DOCKED: ATOM     29  C   UNL     1     145.039  72.743 220.919 -0.49 -0.00    +0.000 A  
DOCKED: ENDBRANCH  21  24
DOCKED: ENDBRANCH  17  19
DOCKED: ENDBRANCH   1  17
DOCKED: TORSDOF 5
DOCKED: TER
DOCKED: ENDMDL
________________________________________________________________________________


    FINAL DOCKED STATE:
    ________________________


Run:   6 / 20
Time taken for this run:   0.027s

DOCKED: MODEL        6
DOCKED: USER    Run = 6
DOCKED: USER
DOCKED: USER    Estimated Free Energy of Binding    =  -6.38 kcal/mol  [=(1)+(2)+(3)-(4)]
DOCKED: USER
DOCKED: USER    (1) Final Intermolecular Energy     =  -7.88 kcal/mol
DOCKED: USER        vdW + Hbond + desolv Energy     =  -7.84 kcal/mol
DOCKED: USER        Electrostatic Energy            =  -0.04 kcal/mol
DOCKED: USER        Moving Ligand-Fixed Receptor    =  -7.88 kcal/mol
DOCKED: USER        Moving Ligand-Moving Receptor   =  +0.00 kcal/mol
DOCKED: USER    (2) Final Total Internal Energy     =  -2.90 kcal/mol
DOCKED: USER    (3) Torsional Free Energy           =  +1.49 kcal/mol
DOCKED: USER    (4) Unbound System's Energy         =  -2.90 kcal/mol
DOCKED: USER
DOCKED: USER
DOCKED: REMARK SMILES O=C(NCC(=O)N1CCC[C@H]1c1ccccc1)c1ccc2cc(Cl)ccc2n1
DOCKED: REMARK SMILES IDX 4 1 3 2 2 3 1 4 18 6 19 7 28 8 20 9 27 10 21 11 26 12 22 13
DOCKED: REMARK SMILES IDX 25 14 23 15 24 16 5 17 6 18 7 19 8 20 11 21 9 22 10 23 12 24
DOCKED: REMARK SMILES IDX 13 25 17 26 14 27 16 28 15 29
DOCKED: REMARK H PARENT 3 5
DOCKED: USER                              x       y       z     vdW  Elec       q    Type
DOCKED: USER                           _______ _______ _______ _____ _____    ______ ____
DOCKED: ROOT
DOCKED: ATOM      1  C   UNL     1     138.013  80.962 222.423 -0.13 -0.03    +0.216 C  
DOCKED: ENDROOT
DOCKED: BRANCH   1   2
DOCKED: ATOM      2  N   UNL     1     137.807  79.635 221.853 -0.03 +0.06    -0.342 N  
DOCKED: ATOM      3  C   UNL     1     138.591  79.188 220.744 -0.04 -0.06    +0.270 C  
DOCKED: ATOM      4  O   UNL     1     138.516  79.799 219.643 -0.02 +0.06    -0.268 OA 
DOCKED: ATOM      5  H   UNL     1     137.353  78.913 222.457 +0.05 -0.03    +0.164 HD 
DOCKED: BRANCH   3   6
DOCKED: ATOM      6  C   UNL     1     139.527  78.062 220.912 -0.11 -0.03    +0.128 A  
DOCKED: ATOM      7  C   UNL     1     139.201  76.955 221.712 -0.25 -0.01    +0.035 A  
DOCKED: ATOM      8  N   UNL     1     140.700  78.066 220.219 -0.08 +0.10    -0.243 NA 
DOCKED: ATOM      9  C   UNL     1     140.083  75.875 221.790 -0.34 -0.00    +0.013 A  
DOCKED: ATOM     10  C   UNL     1     141.576  77.028 220.271 -0.25 -0.04    +0.071 A  
DOCKED: ATOM     11  C   UNL     1     141.280  75.898 221.063 -0.31 -0.00    +0.002 A  
DOCKED: ATOM     12  C   UNL     1     142.762  77.071 219.531 -0.32 -0.02    +0.030 A  
DOCKED: ATOM     13  C   UNL     1     142.181  74.823 221.107 -0.18 -0.01    +0.030 A  
DOCKED: ATOM     14  C   UNL     1     143.654  75.996 219.577 -0.40 -0.02    +0.023 A  
DOCKED: ATOM     15  C   UNL     1     143.367  74.874 220.364 -0.34 -0.02    +0.041 A  
DOCKED: ATOM     16  Cl  UNL     1     144.492  73.530 220.415 -0.60 +0.02    -0.084 Cl 
DOCKED: ENDBRANCH   3   6
DOCKED: ENDBRANCH   1   2
DOCKED: BRANCH   1  17
DOCKED: ATOM     17  C   UNL     1     138.923  80.852 223.612 -0.25 -0.03    +0.242 C  
DOCKED: ATOM     18  O   UNL     1     138.452  81.093 224.756 -0.28 +0.02    -0.273 OA 
DOCKED: BRANCH  17  19
DOCKED: ATOM     19  N   UNL     1     140.277  80.379 223.486 -0.20 +0.05    -0.334 N  
DOCKED: ATOM     20  C   UNL     1     140.707  79.028 223.812 -0.36 -0.02    +0.120 C  
DOCKED: ATOM     21  C   UNL     1     141.385  81.245 223.108 -0.45 -0.02    +0.115 C  
DOCKED: ATOM     22  C   UNL     1     142.200  78.982 223.512 -0.55 -0.01    +0.024 C  
DOCKED: ATOM     23  C   UNL     1     142.651  80.436 223.402 -0.66 -0.01    +0.032 C  
DOCKED: BRANCH  21  24
DOCKED: ATOM     24  C   UNL     1     141.303  81.639 221.646 -0.38 +0.01    -0.025 A  
DOCKED: ATOM     25  C   UNL     1     141.877  80.809 220.667 -0.33 -0.00    +0.006 A  
DOCKED: ATOM     26  C   UNL     1     140.622  82.803 221.241 -0.31 -0.00    +0.006 A  
DOCKED: ATOM     27  C   UNL     1     141.789  81.146 219.313 -0.29 -0.00    +0.000 A  
DOCKED: ATOM     28  C   UNL     1     140.538  83.137 219.886 -0.21 -0.00    +0.000 A  
DOCKED: ATOM     29  C   UNL     1     141.121  82.310 218.922 -0.20 -0.00    +0.000 A  
DOCKED: ENDBRANCH  21  24
DOCKED: ENDBRANCH  17  19
DOCKED: ENDBRANCH   1  17
DOCKED: TORSDOF 5
DOCKED: TER
DOCKED: ENDMDL
________________________________________________________________________________


    FINAL DOCKED STATE:
    ________________________


Run:   7 / 20
Time taken for this run:   0.027s

DOCKED: MODEL        7
DOCKED: USER    Run = 7
DOCKED: USER
DOCKED: USER    Estimated Free Energy of Binding    =  -8.80 kcal/mol  [=(1)+(2)+(3)-(4)]
DOCKED: USER
DOCKED: USER    (1) Final Intermolecular Energy     = -10.29 kcal/mol
DOCKED: USER        vdW + Hbond + desolv Energy     = -10.22 kcal/mol
DOCKED: USER        Electrostatic Energy            =  -0.07 kcal/mol
DOCKED: USER        Moving Ligand-Fixed Receptor    = -10.29 kcal/mol
DOCKED: USER        Moving Ligand-Moving Receptor   =  +0.00 kcal/mol
DOCKED: USER    (2) Final Total Internal Energy     =  -1.67 kcal/mol
DOCKED: USER    (3) Torsional Free Energy           =  +1.49 kcal/mol
DOCKED: USER    (4) Unbound System's Energy         =  -1.67 kcal/mol
DOCKED: USER
DOCKED: USER
DOCKED: REMARK SMILES O=C(NCC(=O)N1CCC[C@H]1c1ccccc1)c1ccc2cc(Cl)ccc2n1
DOCKED: REMARK SMILES IDX 4 1 3 2 2 3 1 4 18 6 19 7 28 8 20 9 27 10 21 11 26 12 22 13
DOCKED: REMARK SMILES IDX 25 14 23 15 24 16 5 17 6 18 7 19 8 20 11 21 9 22 10 23 12 24
DOCKED: REMARK SMILES IDX 13 25 17 26 14 27 16 28 15 29
DOCKED: REMARK H PARENT 3 5
DOCKED: USER                              x       y       z     vdW  Elec       q    Type
DOCKED: USER                           _______ _______ _______ _____ _____    ______ ____
DOCKED: ROOT
DOCKED: ATOM      1  C   UNL     1     140.363  74.488 221.537 -0.23 -0.03    +0.216 C  
DOCKED: ENDROOT
DOCKED: BRANCH   1   2
DOCKED: ATOM      2  N   UNL     1     139.279  73.753 222.179 -0.10 +0.08    -0.342 N  
DOCKED: ATOM      3  C   UNL     1     139.121  72.349 221.961 -0.14 -0.06    +0.270 C  
DOCKED: ATOM      4  O   UNL     1     138.875  71.924 220.799 -0.04 +0.05    -0.268 OA 
DOCKED: ATOM      5  H   UNL     1     138.855  74.168 223.039 -0.56 -0.09    +0.164 HD 
DOCKED: BRANCH   3   6
DOCKED: ATOM      6  C   UNL     1     139.309  71.405 223.078 -0.25 -0.03    +0.128 A  
DOCKED: ATOM      7  C   UNL     1     139.006  70.041 222.939 -0.21 -0.01    +0.035 A  
DOCKED: ATOM      8  N   UNL     1     139.856  71.856 224.241 -0.20 +0.06    -0.243 NA 
DOCKED: ATOM      9  C   UNL     1     139.265  69.166 223.996 -0.29 -0.00    +0.013 A  
DOCKED: ATOM     10  C   UNL     1     140.124  71.027 225.284 -0.47 -0.01    +0.071 A  
DOCKED: ATOM     11  C   UNL     1     139.834  69.650 225.181 -0.42 -0.00    +0.002 A  
DOCKED: ATOM     12  C   UNL     1     140.698  71.533 226.454 -0.65 -0.00    +0.030 A  
DOCKED: ATOM     13  C   UNL     1     140.121  68.795 226.255 -0.53 -0.01    +0.030 A  
DOCKED: ATOM     14  C   UNL     1     140.985  70.677 227.521 -0.64 -0.00    +0.023 A  
DOCKED: ATOM     15  C   UNL     1     140.696  69.310 227.423 -0.58 -0.01    +0.041 A  
DOCKED: ATOM     16  Cl  UNL     1     141.059  68.241 228.766 -0.66 +0.02    -0.084 Cl 
DOCKED: ENDBRANCH   3   6
DOCKED: ENDBRANCH   1   2
DOCKED: BRANCH   1  17
DOCKED: ATOM     17  C   UNL     1     140.098  75.961 221.658 -0.24 -0.06    +0.242 C  
DOCKED: ATOM     18  O   UNL     1     139.543  76.390 222.706 -0.30 +0.05    -0.273 OA 
DOCKED: BRANCH  17  19
DOCKED: ATOM     19  N   UNL     1     140.555  76.895 220.662 -0.07 +0.12    -0.334 N  
DOCKED: ATOM     20  C   UNL     1     139.857  77.172 219.416 -0.06 -0.04    +0.120 C  
DOCKED: ATOM     21  C   UNL     1     141.831  77.592 220.757 -0.23 -0.07    +0.115 C  
DOCKED: ATOM     22  C   UNL     1     140.692  78.222 218.694 -0.11 -0.01    +0.024 C  
DOCKED: ATOM     23  C   UNL     1     142.057  78.214 219.378 -0.25 -0.02    +0.032 C  
DOCKED: BRANCH  21  24
DOCKED: ATOM     24  C   UNL     1     141.802  78.647 221.846 -0.42 +0.01    -0.025 A  
DOCKED: ATOM     25  C   UNL     1     141.821  80.008 221.498 -0.42 -0.00    +0.006 A  
DOCKED: ATOM     26  C   UNL     1     141.712  78.290 223.206 -0.49 -0.00    +0.006 A  
DOCKED: ATOM     27  C   UNL     1     141.771  80.993 222.489 -0.52 -0.00    +0.000 A  
DOCKED: ATOM     28  C   UNL     1     141.665  79.278 224.194 -0.54 -0.00    +0.000 A  
DOCKED: ATOM     29  C   UNL     1     141.694  80.629 223.836 -0.58 -0.00    +0.000 A  
DOCKED: ENDBRANCH  21  24
DOCKED: ENDBRANCH  17  19
DOCKED: ENDBRANCH   1  17
DOCKED: TORSDOF 5
DOCKED: TER
DOCKED: ENDMDL
________________________________________________________________________________


    FINAL DOCKED STATE:
    ________________________


Run:   8 / 20
Time taken for this run:   0.027s

DOCKED: MODEL        8
DOCKED: USER    Run = 8
DOCKED: USER
DOCKED: USER    Estimated Free Energy of Binding    =  -8.44 kcal/mol  [=(1)+(2)+(3)-(4)]
DOCKED: USER
DOCKED: USER    (1) Final Intermolecular Energy     =  -9.93 kcal/mol
DOCKED: USER        vdW + Hbond + desolv Energy     =  -9.86 kcal/mol
DOCKED: USER        Electrostatic Energy            =  -0.07 kcal/mol
DOCKED: USER        Moving Ligand-Fixed Receptor    =  -9.93 kcal/mol
DOCKED: USER        Moving Ligand-Moving Receptor   =  +0.00 kcal/mol
DOCKED: USER    (2) Final Total Internal Energy     =  -2.05 kcal/mol
DOCKED: USER    (3) Torsional Free Energy           =  +1.49 kcal/mol
DOCKED: USER    (4) Unbound System's Energy         =  -2.05 kcal/mol
DOCKED: USER
DOCKED: USER
DOCKED: REMARK SMILES O=C(NCC(=O)N1CCC[C@H]1c1ccccc1)c1ccc2cc(Cl)ccc2n1
DOCKED: REMARK SMILES IDX 4 1 3 2 2 3 1 4 18 6 19 7 28 8 20 9 27 10 21 11 26 12 22 13
DOCKED: REMARK SMILES IDX 25 14 23 15 24 16 5 17 6 18 7 19 8 20 11 21 9 22 10 23 12 24
DOCKED: REMARK SMILES IDX 13 25 17 26 14 27 16 28 15 29
DOCKED: REMARK H PARENT 3 5
DOCKED: USER                              x       y       z     vdW  Elec       q    Type
DOCKED: USER                           _______ _______ _______ _____ _____    ______ ____
DOCKED: ROOT
DOCKED: ATOM      1  C   UNL     1     140.071  73.443 220.746 -0.12 -0.04    +0.216 C  
DOCKED: ENDROOT
DOCKED: BRANCH   1   2
DOCKED: ATOM      2  N   UNL     1     139.138  73.173 221.834 -0.11 +0.08    -0.342 N  
DOCKED: ATOM      3  C   UNL     1     138.497  71.900 221.946 -0.10 -0.06    +0.270 C  
DOCKED: ATOM      4  O   UNL     1     137.719  71.513 221.031 -0.03 +0.05    -0.268 OA 
DOCKED: ATOM      5  H   UNL     1     139.212  73.764 222.694 -0.47 -0.05    +0.164 HD 
DOCKED: BRANCH   3   6
DOCKED: ATOM      6  C   UNL     1     138.796  71.024 223.093 -0.21 -0.03    +0.128 A  
DOCKED: ATOM      7  C   UNL     1     138.404  69.675 223.103 -0.21 -0.01    +0.035 A  
DOCKED: ATOM      8  N   UNL     1     139.531  71.516 224.129 -0.24 +0.06    -0.243 NA 
DOCKED: ATOM      9  C   UNL     1     138.768  68.858 224.175 -0.33 -0.00    +0.013 A  
DOCKED: ATOM     10  C   UNL     1     139.904  70.744 225.183 -0.44 -0.01    +0.071 A  
DOCKED: ATOM     11  C   UNL     1     139.529  69.383 225.227 -0.42 -0.00    +0.002 A  
DOCKED: ATOM     12  C   UNL     1     140.670  71.290 226.219 -0.62 -0.00    +0.030 A  
DOCKED: ATOM     13  C   UNL     1     139.925  68.586 226.311 -0.55 -0.00    +0.030 A  
DOCKED: ATOM     14  C   UNL     1     141.064  70.490 227.295 -0.60 -0.00    +0.023 A  
DOCKED: ATOM     15  C   UNL     1     140.691  69.140 227.343 -0.58 -0.01    +0.041 A  
DOCKED: ATOM     16  Cl  UNL     1     141.190  68.143 228.697 -0.66 +0.02    -0.084 Cl 
DOCKED: ENDBRANCH   3   6
DOCKED: ENDBRANCH   1   2
DOCKED: BRANCH   1  17
DOCKED: ATOM     17  C   UNL     1     140.924  74.624 221.111 -0.20 -0.05    +0.242 C  
DOCKED: ATOM     18  O   UNL     1     141.025  74.942 222.326 -0.42 -0.00    -0.273 OA 
DOCKED: BRANCH  17  19
DOCKED: ATOM     19  N   UNL     1     141.705  75.325 220.125 -0.10 +0.12    -0.334 N  
DOCKED: ATOM     20  C   UNL     1     141.738  76.772 219.982 -0.23 -0.06    +0.120 C  
DOCKED: ATOM     21  C   UNL     1     142.473  74.641 219.092 -0.16 -0.04    +0.115 C  
DOCKED: ATOM     22  C   UNL     1     142.697  77.056 218.833 -0.33 -0.02    +0.024 C  
DOCKED: ATOM     23  C   UNL     1     142.872  75.731 218.095 -0.21 -0.02    +0.032 C  
DOCKED: BRANCH  21  24
DOCKED: ATOM     24  C   UNL     1     143.689  73.949 219.678 -0.32 +0.01    -0.025 A  
DOCKED: ATOM     25  C   UNL     1     144.614  74.689 220.435 -0.44 -0.00    +0.006 A  
DOCKED: ATOM     26  C   UNL     1     143.890  72.565 219.514 -0.24 -0.00    +0.006 A  
DOCKED: ATOM     27  C   UNL     1     145.727  74.060 221.002 -0.61 -0.00    +0.000 A  
DOCKED: ATOM     28  C   UNL     1     145.006  71.942 220.080 -0.34 +0.00    +0.000 A  
DOCKED: ATOM     29  C   UNL     1     145.924  72.688 220.823 -0.55 -0.00    +0.000 A  
DOCKED: ENDBRANCH  21  24
DOCKED: ENDBRANCH  17  19
DOCKED: ENDBRANCH   1  17
DOCKED: TORSDOF 5
DOCKED: TER
DOCKED: ENDMDL
________________________________________________________________________________


    FINAL DOCKED STATE:
    ________________________


Run:   9 / 20
Time taken for this run:   0.027s

DOCKED: MODEL        9
DOCKED: USER    Run = 9
DOCKED: USER
DOCKED: USER    Estimated Free Energy of Binding    =  -8.21 kcal/mol  [=(1)+(2)+(3)-(4)]
DOCKED: USER
DOCKED: USER    (1) Final Intermolecular Energy     =  -9.71 kcal/mol
DOCKED: USER        vdW + Hbond + desolv Energy     =  -9.63 kcal/mol
DOCKED: USER        Electrostatic Energy            =  -0.08 kcal/mol
DOCKED: USER        Moving Ligand-Fixed Receptor    =  -9.71 kcal/mol
DOCKED: USER        Moving Ligand-Moving Receptor   =  +0.00 kcal/mol
DOCKED: USER    (2) Final Total Internal Energy     =  -1.36 kcal/mol
DOCKED: USER    (3) Torsional Free Energy           =  +1.49 kcal/mol
DOCKED: USER    (4) Unbound System's Energy         =  -1.36 kcal/mol
DOCKED: USER
DOCKED: USER
DOCKED: REMARK SMILES O=C(NCC(=O)N1CCC[C@H]1c1ccccc1)c1ccc2cc(Cl)ccc2n1
DOCKED: REMARK SMILES IDX 4 1 3 2 2 3 1 4 18 6 19 7 28 8 20 9 27 10 21 11 26 12 22 13
DOCKED: REMARK SMILES IDX 25 14 23 15 24 16 5 17 6 18 7 19 8 20 11 21 9 22 10 23 12 24
DOCKED: REMARK SMILES IDX 13 25 17 26 14 27 16 28 15 29
DOCKED: REMARK H PARENT 3 5
DOCKED: USER                              x       y       z     vdW  Elec       q    Type
DOCKED: USER                           _______ _______ _______ _____ _____    ______ ____
DOCKED: ROOT
DOCKED: ATOM      1  C   UNL     1     139.650  75.564 221.811 -0.24 -0.04    +0.216 C  
DOCKED: ENDROOT
DOCKED: BRANCH   1   2
DOCKED: ATOM      2  N   UNL     1     138.722  74.449 221.965 -0.12 +0.09    -0.342 N  
DOCKED: ATOM      3  C   UNL     1     139.087  73.133 221.546 -0.13 -0.06    +0.270 C  
DOCKED: ATOM      4  O   UNL     1     139.330  72.913 220.327 -0.04 +0.05    -0.268 OA 
DOCKED: ATOM      5  H   UNL     1     137.962  74.546 222.676 -0.46 -0.08    +0.164 HD 
DOCKED: BRANCH   3   6
DOCKED: ATOM      6  C   UNL     1     139.242  72.059 222.544 -0.22 -0.03    +0.128 A  
DOCKED: ATOM      7  C   UNL     1     138.704  70.780 222.330 -0.17 -0.01    +0.035 A  
DOCKED: ATOM      8  N   UNL     1     139.981  72.297 223.663 -0.21 +0.05    -0.243 NA 
DOCKED: ATOM      9  C   UNL     1     138.933  69.769 223.266 -0.24 -0.00    +0.013 A  
DOCKED: ATOM     10  C   UNL     1     140.224  71.332 224.589 -0.44 -0.01    +0.071 A  
DOCKED: ATOM     11  C   UNL     1     139.702  70.033 224.405 -0.36 -0.00    +0.002 A  
DOCKED: ATOM     12  C   UNL     1     141.001  71.618 225.716 -0.56 -0.00    +0.030 A  
DOCKED: ATOM     13  C   UNL     1     139.962  69.036 225.357 -0.42 -0.01    +0.030 A  
DOCKED: ATOM     14  C   UNL     1     141.260  70.621 226.660 -0.54 -0.00    +0.023 A  
DOCKED: ATOM     15  C   UNL     1     140.741  69.332 226.483 -0.52 -0.01    +0.041 A  
DOCKED: ATOM     16  Cl  UNL     1     141.071  68.085 227.672 -0.74 +0.02    -0.084 Cl 
DOCKED: ENDBRANCH   3   6
DOCKED: ENDBRANCH   1   2
DOCKED: BRANCH   1  17
DOCKED: ATOM     17  C   UNL     1     140.991  75.035 221.390 -0.22 -0.05    +0.242 C  
DOCKED: ATOM     18  O   UNL     1     141.442  74.009 221.967 -0.41 +0.00    -0.273 OA 
DOCKED: BRANCH  17  19
DOCKED: ATOM     19  N   UNL     1     141.713  75.603 220.282 -0.11 +0.13    -0.334 N  
DOCKED: ATOM     20  C   UNL     1     141.809  77.029 220.010 -0.25 -0.07    +0.120 C  
DOCKED: ATOM     21  C   UNL     1     142.345  74.791 219.250 -0.17 -0.04    +0.115 C  
DOCKED: ATOM     22  C   UNL     1     142.672  77.158 218.761 -0.32 -0.02    +0.024 C  
DOCKED: ATOM     23  C   UNL     1     142.707  75.769 218.130 -0.21 -0.01    +0.032 C  
DOCKED: BRANCH  21  24
DOCKED: ATOM     24  C   UNL     1     143.572  74.078 219.785 -0.32 +0.01    -0.025 A  
DOCKED: ATOM     25  C   UNL     1     143.679  72.683 219.655 -0.25 -0.00    +0.006 A  
DOCKED: ATOM     26  C   UNL     1     144.632  74.793 220.374 -0.39 -0.00    +0.006 A  
DOCKED: ATOM     27  C   UNL     1     144.815  72.014 220.121 -0.36 -0.00    +0.000 A  
DOCKED: ATOM     28  C   UNL     1     145.765  74.120 220.841 -0.64 -0.00    +0.000 A  
DOCKED: ATOM     29  C   UNL     1     145.857  72.731 220.716 -0.56 +0.00    +0.000 A  
DOCKED: ENDBRANCH  21  24
DOCKED: ENDBRANCH  17  19
DOCKED: ENDBRANCH   1  17
DOCKED: TORSDOF 5
DOCKED: TER
DOCKED: ENDMDL
________________________________________________________________________________


    FINAL DOCKED STATE:
    ________________________


Run:   10 / 20
Time taken for this run:   0.027s

DOCKED: MODEL        10
DOCKED: USER    Run = 10
DOCKED: USER
DOCKED: USER    Estimated Free Energy of Binding    =  -8.55 kcal/mol  [=(1)+(2)+(3)-(4)]
DOCKED: USER
DOCKED: USER    (1) Final Intermolecular Energy     = -10.05 kcal/mol
DOCKED: USER        vdW + Hbond + desolv Energy     =  -9.93 kcal/mol
DOCKED: USER        Electrostatic Energy            =  -0.12 kcal/mol
DOCKED: USER        Moving Ligand-Fixed Receptor    = -10.05 kcal/mol
DOCKED: USER        Moving Ligand-Moving Receptor   =  +0.00 kcal/mol
DOCKED: USER    (2) Final Total Internal Energy     =  -1.69 kcal/mol
DOCKED: USER    (3) Torsional Free Energy           =  +1.49 kcal/mol
DOCKED: USER    (4) Unbound System's Energy         =  -1.69 kcal/mol
DOCKED: USER
DOCKED: USER
DOCKED: REMARK SMILES O=C(NCC(=O)N1CCC[C@H]1c1ccccc1)c1ccc2cc(Cl)ccc2n1
DOCKED: REMARK SMILES IDX 4 1 3 2 2 3 1 4 18 6 19 7 28 8 20 9 27 10 21 11 26 12 22 13
DOCKED: REMARK SMILES IDX 25 14 23 15 24 16 5 17 6 18 7 19 8 20 11 21 9 22 10 23 12 24
DOCKED: REMARK SMILES IDX 13 25 17 26 14 27 16 28 15 29
DOCKED: REMARK H PARENT 3 5
DOCKED: USER                              x       y       z     vdW  Elec       q    Type
DOCKED: USER                           _______ _______ _______ _____ _____    ______ ____
DOCKED: ROOT
DOCKED: ATOM      1  C   UNL     1     139.107  73.319 220.918 -0.10 -0.04    +0.216 C  
DOCKED: ENDROOT
DOCKED: BRANCH   1   2
DOCKED: ATOM      2  N   UNL     1     138.214  72.827 221.962 -0.07 +0.09    -0.342 N  
DOCKED: ATOM      3  C   UNL     1     137.869  71.442 222.035 -0.08 -0.06    +0.270 C  
DOCKED: ATOM      4  O   UNL     1     137.237  70.908 221.083 -0.02 +0.05    -0.268 OA 
DOCKED: ATOM      5  H   UNL     1     138.118  73.404 222.828 -0.52 -0.09    +0.164 HD 
DOCKED: BRANCH   3   6
DOCKED: ATOM      6  C   UNL     1     138.310  70.634 223.187 -0.19 -0.03    +0.128 A  
DOCKED: ATOM      7  C   UNL     1     138.019  69.263 223.270 -0.22 -0.00    +0.035 A  
DOCKED: ATOM      8  N   UNL     1     139.074  71.217 224.151 -0.20 +0.06    -0.243 NA 
DOCKED: ATOM      9  C   UNL     1     138.514  68.516 224.341 -0.33 -0.00    +0.013 A  
DOCKED: ATOM     10  C   UNL     1     139.574  70.515 225.202 -0.40 -0.01    +0.071 A  
DOCKED: ATOM     11  C   UNL     1     139.304  69.134 225.318 -0.43 -0.00    +0.002 A  
DOCKED: ATOM     12  C   UNL     1     140.366  71.154 226.162 -0.58 -0.00    +0.030 A  
DOCKED: ATOM     13  C   UNL     1     139.829  68.409 226.398 -0.57 -0.00    +0.030 A  
DOCKED: ATOM     14  C   UNL     1     140.889  70.426 227.234 -0.60 -0.00    +0.023 A  
DOCKED: ATOM     15  C   UNL     1     140.621  69.057 227.354 -0.59 -0.01    +0.041 A  
DOCKED: ATOM     16  Cl  UNL     1     141.282  68.151 228.703 -0.63 +0.02    -0.084 Cl 
DOCKED: ENDBRANCH   3   6
DOCKED: ENDBRANCH   1   2
DOCKED: BRANCH   1  17
DOCKED: ATOM     17  C   UNL     1     140.327  73.919 221.556 -0.21 -0.03    +0.242 C  
DOCKED: ATOM     18  O   UNL     1     140.791  73.378 222.596 -0.56 -0.03    -0.273 OA 
DOCKED: BRANCH  17  19
DOCKED: ATOM     19  N   UNL     1     141.031  75.019 220.951 -0.14 +0.09    -0.334 N  
DOCKED: ATOM     20  C   UNL     1     140.890  76.408 221.362 -0.28 -0.04    +0.120 C  
DOCKED: ATOM     21  C   UNL     1     141.891  74.863 219.786 -0.18 -0.04    +0.115 C  
DOCKED: ATOM     22  C   UNL     1     141.825  77.206 220.462 -0.29 -0.01    +0.024 C  
DOCKED: ATOM     23  C   UNL     1     142.170  76.285 219.294 -0.26 -0.02    +0.032 C  
DOCKED: BRANCH  21  24
DOCKED: ATOM     24  C   UNL     1     143.174  74.136 220.141 -0.32 +0.01    -0.025 A  
DOCKED: ATOM     25  C   UNL     1     144.338  74.872 220.419 -0.39 -0.00    +0.006 A  
DOCKED: ATOM     26  C   UNL     1     143.212  72.731 220.242 -0.28 -0.00    +0.006 A  
DOCKED: ATOM     27  C   UNL     1     145.522  74.217 220.772 -0.58 -0.00    +0.000 A  
DOCKED: ATOM     28  C   UNL     1     144.399  72.080 220.593 -0.34 -0.00    +0.000 A  
DOCKED: ATOM     29  C   UNL     1     145.553  72.822 220.857 -0.56 -0.00    +0.000 A  
DOCKED: ENDBRANCH  21  24
DOCKED: ENDBRANCH  17  19
DOCKED: ENDBRANCH   1  17
DOCKED: TORSDOF 5
DOCKED: TER
DOCKED: ENDMDL
________________________________________________________________________________


    FINAL DOCKED STATE:
    ________________________


Run:   11 / 20
Time taken for this run:   0.027s

DOCKED: MODEL        11
DOCKED: USER    Run = 11
DOCKED: USER
DOCKED: USER    Estimated Free Energy of Binding    =  -8.60 kcal/mol  [=(1)+(2)+(3)-(4)]
DOCKED: USER
DOCKED: USER    (1) Final Intermolecular Energy     = -10.09 kcal/mol
DOCKED: USER        vdW + Hbond + desolv Energy     =  -9.99 kcal/mol
DOCKED: USER        Electrostatic Energy            =  -0.10 kcal/mol
DOCKED: USER        Moving Ligand-Fixed Receptor    = -10.09 kcal/mol
DOCKED: USER        Moving Ligand-Moving Receptor   =  +0.00 kcal/mol
DOCKED: USER    (2) Final Total Internal Energy     =  -1.66 kcal/mol
DOCKED: USER    (3) Torsional Free Energy           =  +1.49 kcal/mol
DOCKED: USER    (4) Unbound System's Energy         =  -1.66 kcal/mol
DOCKED: USER
DOCKED: USER
DOCKED: REMARK SMILES O=C(NCC(=O)N1CCC[C@H]1c1ccccc1)c1ccc2cc(Cl)ccc2n1
DOCKED: REMARK SMILES IDX 4 1 3 2 2 3 1 4 18 6 19 7 28 8 20 9 27 10 21 11 26 12 22 13
DOCKED: REMARK SMILES IDX 25 14 23 15 24 16 5 17 6 18 7 19 8 20 11 21 9 22 10 23 12 24
DOCKED: REMARK SMILES IDX 13 25 17 26 14 27 16 28 15 29
DOCKED: REMARK H PARENT 3 5
DOCKED: USER                              x       y       z     vdW  Elec       q    Type
DOCKED: USER                           _______ _______ _______ _____ _____    ______ ____
DOCKED: ROOT
DOCKED: ATOM      1  C   UNL     1     139.275  73.447 220.824 -0.10 -0.04    +0.216 C  
DOCKED: ENDROOT
DOCKED: BRANCH   1   2
DOCKED: ATOM      2  N   UNL     1     138.385  73.125 221.933 -0.08 +0.10    -0.342 N  
DOCKED: ATOM      3  C   UNL     1     137.849  71.808 222.081 -0.09 -0.06    +0.270 C  
DOCKED: ATOM      4  O   UNL     1     137.091  71.341 221.188 -0.02 +0.05    -0.268 OA 
DOCKED: ATOM      5  H   UNL     1     138.424  73.738 222.780 -0.55 -0.09    +0.164 HD 
DOCKED: BRANCH   3   6
DOCKED: ATOM      6  C   UNL     1     138.237  70.982 223.239 -0.19 -0.03    +0.128 A  
DOCKED: ATOM      7  C   UNL     1     137.736  69.681 223.408 -0.21 -0.01    +0.035 A  
DOCKED: ATOM      8  N   UNL     1     139.153  71.468 224.122 -0.19 +0.07    -0.243 NA 
DOCKED: ATOM      9  C   UNL     1     138.182  68.903 224.478 -0.33 -0.00    +0.013 A  
DOCKED: ATOM     10  C   UNL     1     139.609  70.732 225.170 -0.41 -0.01    +0.071 A  
DOCKED: ATOM     11  C   UNL     1     139.130  69.420 225.370 -0.42 -0.00    +0.002 A  
DOCKED: ATOM     12  C   UNL     1     140.561  71.268 226.044 -0.59 -0.00    +0.030 A  
DOCKED: ATOM     13  C   UNL     1     139.609  68.659 226.447 -0.54 -0.00    +0.030 A  
DOCKED: ATOM     14  C   UNL     1     141.038  70.505 227.113 -0.60 -0.00    +0.023 A  
DOCKED: ATOM     15  C   UNL     1     140.563  69.203 227.317 -0.58 -0.01    +0.041 A  
DOCKED: ATOM     16  Cl  UNL     1     141.166  68.251 228.661 -0.67 +0.02    -0.084 Cl 
DOCKED: ENDBRANCH   3   6
DOCKED: ENDBRANCH   1   2
DOCKED: BRANCH   1  17
DOCKED: ATOM     17  C   UNL     1     140.573  73.969 221.368 -0.20 -0.03    +0.242 C  
DOCKED: ATOM     18  O   UNL     1     141.074  73.402 222.377 -0.53 -0.02    -0.273 OA 
DOCKED: BRANCH  17  19
DOCKED: ATOM     19  N   UNL     1     141.301  75.020 220.707 -0.12 +0.10    -0.334 N  
DOCKED: ATOM     20  C   UNL     1     141.172  76.433 221.027 -0.25 -0.05    +0.120 C  
DOCKED: ATOM     21  C   UNL     1     142.178  74.779 219.569 -0.18 -0.04    +0.115 C  
DOCKED: ATOM     22  C   UNL     1     142.132  77.161 220.094 -0.31 -0.02    +0.024 C  
DOCKED: ATOM     23  C   UNL     1     142.484  76.164 218.993 -0.28 -0.02    +0.032 C  
DOCKED: BRANCH  21  24
DOCKED: ATOM     24  C   UNL     1     143.445  74.060 219.992 -0.33 +0.01    -0.025 A  
DOCKED: ATOM     25  C   UNL     1     143.528  72.663 219.867 -0.26 -0.00    +0.006 A  
DOCKED: ATOM     26  C   UNL     1     144.563  74.772 220.470 -0.42 -0.00    +0.006 A  
DOCKED: ATOM     27  C   UNL     1     144.698  71.989 220.230 -0.33 -0.00    +0.000 A  
DOCKED: ATOM     28  C   UNL     1     145.729  74.094 220.834 -0.64 -0.00    +0.000 A  
DOCKED: ATOM     29  C   UNL     1     145.798  72.703 220.714 -0.55 -0.00    +0.000 A  
DOCKED: ENDBRANCH  21  24
DOCKED: ENDBRANCH  17  19
DOCKED: ENDBRANCH   1  17
DOCKED: TORSDOF 5
DOCKED: TER
DOCKED: ENDMDL
________________________________________________________________________________


    FINAL DOCKED STATE:
    ________________________


Run:   12 / 20
Time taken for this run:   0.027s

DOCKED: MODEL        12
DOCKED: USER    Run = 12
DOCKED: USER
DOCKED: USER    Estimated Free Energy of Binding    =  -8.38 kcal/mol  [=(1)+(2)+(3)-(4)]
DOCKED: USER
DOCKED: USER    (1) Final Intermolecular Energy     =  -9.88 kcal/mol
DOCKED: USER        vdW + Hbond + desolv Energy     =  -9.80 kcal/mol
DOCKED: USER        Electrostatic Energy            =  -0.07 kcal/mol
DOCKED: USER        Moving Ligand-Fixed Receptor    =  -9.88 kcal/mol
DOCKED: USER        Moving Ligand-Moving Receptor   =  +0.00 kcal/mol
DOCKED: USER    (2) Final Total Internal Energy     =  -1.20 kcal/mol
DOCKED: USER    (3) Torsional Free Energy           =  +1.49 kcal/mol
DOCKED: USER    (4) Unbound System's Energy         =  -1.20 kcal/mol
DOCKED: USER
DOCKED: USER
DOCKED: REMARK SMILES O=C(NCC(=O)N1CCC[C@H]1c1ccccc1)c1ccc2cc(Cl)ccc2n1
DOCKED: REMARK SMILES IDX 4 1 3 2 2 3 1 4 18 6 19 7 28 8 20 9 27 10 21 11 26 12 22 13
DOCKED: REMARK SMILES IDX 25 14 23 15 24 16 5 17 6 18 7 19 8 20 11 21 9 22 10 23 12 24
DOCKED: REMARK SMILES IDX 13 25 17 26 14 27 16 28 15 29
DOCKED: REMARK H PARENT 3 5
DOCKED: USER                              x       y       z     vdW  Elec       q    Type
DOCKED: USER                           _______ _______ _______ _____ _____    ______ ____
DOCKED: ROOT
DOCKED: ATOM      1  C   UNL     1     139.568  75.256 221.838 -0.23 -0.04    +0.216 C  
DOCKED: ENDROOT
DOCKED: BRANCH   1   2
DOCKED: ATOM      2  N   UNL     1     138.708  74.087 221.986 -0.11 +0.09    -0.342 N  
DOCKED: ATOM      3  C   UNL     1     139.186  72.783 221.649 -0.14 -0.06    +0.270 C  
DOCKED: ATOM      4  O   UNL     1     139.517  72.530 220.459 -0.04 +0.05    -0.268 OA 
DOCKED: ATOM      5  H   UNL     1     137.900  74.160 222.646 -0.46 -0.08    +0.164 HD 
DOCKED: BRANCH   3   6
DOCKED: ATOM      6  C   UNL     1     139.349  71.764 222.703 -0.24 -0.03    +0.128 A  
DOCKED: ATOM      7  C   UNL     1     138.958  70.431 222.496 -0.19 -0.01    +0.035 A  
DOCKED: ATOM      8  N   UNL     1     139.957  72.112 223.871 -0.20 +0.05    -0.243 NA 
DOCKED: ATOM      9  C   UNL     1     139.195  69.480 223.491 -0.26 -0.00    +0.013 A  
DOCKED: ATOM     10  C   UNL     1     140.205  71.207 224.855 -0.45 -0.01    +0.071 A  
DOCKED: ATOM     11  C   UNL     1     139.827  69.858 224.682 -0.38 -0.00    +0.002 A  
DOCKED: ATOM     12  C   UNL     1     140.844  71.607 226.033 -0.61 -0.00    +0.030 A  
DOCKED: ATOM     13  C   UNL     1     140.093  68.925 225.695 -0.46 -0.01    +0.030 A  
DOCKED: ATOM     14  C   UNL     1     141.108  70.673 227.038 -0.60 -0.00    +0.023 A  
DOCKED: ATOM     15  C   UNL     1     140.733  69.334 226.871 -0.55 -0.01    +0.041 A  
DOCKED: ATOM     16  Cl  UNL     1     141.070  68.167 228.137 -0.75 +0.02    -0.084 Cl 
DOCKED: ENDBRANCH   3   6
DOCKED: ENDBRANCH   1   2
DOCKED: BRANCH   1  17
DOCKED: ATOM     17  C   UNL     1     140.939  74.810 221.418 -0.22 -0.05    +0.242 C  
DOCKED: ATOM     18  O   UNL     1     141.437  73.793 221.972 -0.41 +0.00    -0.273 OA 
DOCKED: BRANCH  17  19
DOCKED: ATOM     19  N   UNL     1     141.642  75.447 220.336 -0.11 +0.13    -0.334 N  
DOCKED: ATOM     20  C   UNL     1     141.710  76.887 220.137 -0.24 -0.06    +0.120 C  
DOCKED: ATOM     21  C   UNL     1     142.281  74.701 219.260 -0.16 -0.04    +0.115 C  
DOCKED: ATOM     22  C   UNL     1     142.561  77.096 218.891 -0.32 -0.02    +0.024 C  
DOCKED: ATOM     23  C   UNL     1     142.617  75.741 218.189 -0.20 -0.01    +0.032 C  
DOCKED: BRANCH  21  24
DOCKED: ATOM     24  C   UNL     1     143.524  73.984 219.750 -0.31 +0.01    -0.025 A  
DOCKED: ATOM     25  C   UNL     1     144.563  74.720 220.346 -0.42 -0.00    +0.006 A  
DOCKED: ATOM     26  C   UNL     1     143.643  72.584 219.658 -0.24 -0.00    +0.006 A  
DOCKED: ATOM     27  C   UNL     1     145.705  74.070 220.825 -0.64 -0.00    +0.000 A  
DOCKED: ATOM     28  C   UNL     1     144.788  71.939 220.135 -0.34 -0.00    +0.000 A  
DOCKED: ATOM     29  C   UNL     1     145.819  72.681 220.718 -0.54 -0.00    +0.000 A  
DOCKED: ENDBRANCH  21  24
DOCKED: ENDBRANCH  17  19
DOCKED: ENDBRANCH   1  17
DOCKED: TORSDOF 5
DOCKED: TER
DOCKED: ENDMDL
________________________________________________________________________________


    FINAL DOCKED STATE:
    ________________________


Run:   13 / 20
Time taken for this run:   0.027s

DOCKED: MODEL        13
DOCKED: USER    Run = 13
DOCKED: USER
DOCKED: USER    Estimated Free Energy of Binding    =  -8.59 kcal/mol  [=(1)+(2)+(3)-(4)]
DOCKED: USER
DOCKED: USER    (1) Final Intermolecular Energy     = -10.08 kcal/mol
DOCKED: USER        vdW + Hbond + desolv Energy     = -10.04 kcal/mol
DOCKED: USER        Electrostatic Energy            =  -0.04 kcal/mol
DOCKED: USER        Moving Ligand-Fixed Receptor    = -10.08 kcal/mol
DOCKED: USER        Moving Ligand-Moving Receptor   =  +0.00 kcal/mol
DOCKED: USER    (2) Final Total Internal Energy     =  -1.80 kcal/mol
DOCKED: USER    (3) Torsional Free Energy           =  +1.49 kcal/mol
DOCKED: USER    (4) Unbound System's Energy         =  -1.80 kcal/mol
DOCKED: USER
DOCKED: USER
DOCKED: REMARK SMILES O=C(NCC(=O)N1CCC[C@H]1c1ccccc1)c1ccc2cc(Cl)ccc2n1
DOCKED: REMARK SMILES IDX 4 1 3 2 2 3 1 4 18 6 19 7 28 8 20 9 27 10 21 11 26 12 22 13
DOCKED: REMARK SMILES IDX 25 14 23 15 24 16 5 17 6 18 7 19 8 20 11 21 9 22 10 23 12 24
DOCKED: REMARK SMILES IDX 13 25 17 26 14 27 16 28 15 29
DOCKED: REMARK H PARENT 3 5
DOCKED: USER                              x       y       z     vdW  Elec       q    Type
DOCKED: USER                           _______ _______ _______ _____ _____    ______ ____
DOCKED: ROOT
DOCKED: ATOM      1  C   UNL     1     140.566  75.256 221.843 -0.19 -0.03    +0.216 C  
DOCKED: ENDROOT
DOCKED: BRANCH   1   2
DOCKED: ATOM      2  N   UNL     1     139.535  74.246 222.049 -0.14 +0.06    -0.342 N  
DOCKED: ATOM      3  C   UNL     1     139.800  72.867 221.785 -0.18 -0.04    +0.270 C  
DOCKED: ATOM      4  O   UNL     1     140.085  72.502 220.612 -0.07 +0.05    -0.268 OA 
DOCKED: ATOM      5  H   UNL     1     138.751  74.480 222.700 -0.54 -0.07    +0.164 HD 
DOCKED: BRANCH   3   6
DOCKED: ATOM      6  C   UNL     1     139.805  71.894 222.893 -0.28 -0.02    +0.128 A  
DOCKED: ATOM      7  C   UNL     1     139.361  70.574 222.708 -0.22 -0.01    +0.035 A  
DOCKED: ATOM      8  N   UNL     1     140.319  72.265 224.099 -0.16 +0.04    -0.243 NA 
DOCKED: ATOM      9  C   UNL     1     139.448  69.662 223.761 -0.27 -0.00    +0.013 A  
DOCKED: ATOM     10  C   UNL     1     140.421  71.398 225.140 -0.48 -0.01    +0.071 A  
DOCKED: ATOM     11  C   UNL     1     139.986  70.063 224.990 -0.42 -0.00    +0.002 A  
DOCKED: ATOM     12  C   UNL     1     140.968  71.821 226.356 -0.65 -0.00    +0.030 A  
DOCKED: ATOM     13  C   UNL     1     140.101  69.168 226.063 -0.49 -0.01    +0.030 A  
DOCKED: ATOM     14  C   UNL     1     141.083  70.923 227.421 -0.66 -0.00    +0.023 A  
DOCKED: ATOM     15  C   UNL     1     140.650  69.599 227.278 -0.56 -0.01    +0.041 A  
DOCKED: ATOM     16  Cl  UNL     1     140.799  68.479 228.619 -0.73 +0.02    -0.084 Cl 
DOCKED: ENDBRANCH   3   6
DOCKED: ENDBRANCH   1   2
DOCKED: BRANCH   1  17
DOCKED: ATOM     17  C   UNL     1     140.016  76.605 222.208 -0.26 -0.06    +0.242 C  
DOCKED: ATOM     18  O   UNL     1     138.824  76.680 222.611 -0.25 +0.05    -0.273 OA 
DOCKED: BRANCH  17  19
DOCKED: ATOM     19  N   UNL     1     140.843  77.783 222.209 -0.19 +0.12    -0.334 N  
DOCKED: ATOM     20  C   UNL     1     141.599  78.253 223.360 -0.39 -0.05    +0.120 C  
DOCKED: ATOM     21  C   UNL     1     140.928  78.690 221.073 -0.25 -0.05    +0.115 C  
DOCKED: ATOM     22  C   UNL     1     142.326  79.509 222.896 -0.60 -0.01    +0.024 C  
DOCKED: ATOM     23  C   UNL     1     141.639  79.938 221.602 -0.41 -0.01    +0.032 C  
DOCKED: BRANCH  21  24
DOCKED: ATOM     24  C   UNL     1     141.689  78.062 219.922 -0.27 +0.01    -0.025 A  
DOCKED: ATOM     25  C   UNL     1     142.542  76.971 220.163 -0.25 -0.00    +0.006 A  
DOCKED: ATOM     26  C   UNL     1     141.526  78.523 218.601 -0.21 -0.00    +0.006 A  
DOCKED: ATOM     27  C   UNL     1     143.233  76.366 219.109 -0.38 -0.00    +0.000 A  
DOCKED: ATOM     28  C   UNL     1     142.220  77.916 217.550 -0.25 -0.00    +0.000 A  
DOCKED: ATOM     29  C   UNL     1     143.073  76.838 217.803 -0.29 -0.00    +0.000 A  
DOCKED: ENDBRANCH  21  24
DOCKED: ENDBRANCH  17  19
DOCKED: ENDBRANCH   1  17
DOCKED: TORSDOF 5
DOCKED: TER
DOCKED: ENDMDL
________________________________________________________________________________


    FINAL DOCKED STATE:
    ________________________


Run:   14 / 20
Time taken for this run:   0.027s

DOCKED: MODEL        14
DOCKED: USER    Run = 14
DOCKED: USER
DOCKED: USER    Estimated Free Energy of Binding    =  -7.35 kcal/mol  [=(1)+(2)+(3)-(4)]
DOCKED: USER
DOCKED: USER    (1) Final Intermolecular Energy     =  -8.84 kcal/mol
DOCKED: USER        vdW + Hbond + desolv Energy     =  -8.87 kcal/mol
DOCKED: USER        Electrostatic Energy            =  +0.03 kcal/mol
DOCKED: USER        Moving Ligand-Fixed Receptor    =  -8.84 kcal/mol
DOCKED: USER        Moving Ligand-Moving Receptor   =  +0.00 kcal/mol
DOCKED: USER    (2) Final Total Internal Energy     =  -2.08 kcal/mol
DOCKED: USER    (3) Torsional Free Energy           =  +1.49 kcal/mol
DOCKED: USER    (4) Unbound System's Energy         =  -2.08 kcal/mol
DOCKED: USER
DOCKED: USER
DOCKED: REMARK SMILES O=C(NCC(=O)N1CCC[C@H]1c1ccccc1)c1ccc2cc(Cl)ccc2n1
DOCKED: REMARK SMILES IDX 4 1 3 2 2 3 1 4 18 6 19 7 28 8 20 9 27 10 21 11 26 12 22 13
DOCKED: REMARK SMILES IDX 25 14 23 15 24 16 5 17 6 18 7 19 8 20 11 21 9 22 10 23 12 24
DOCKED: REMARK SMILES IDX 13 25 17 26 14 27 16 28 15 29
DOCKED: REMARK H PARENT 3 5
DOCKED: USER                              x       y       z     vdW  Elec       q    Type
DOCKED: USER                           _______ _______ _______ _____ _____    ______ ____
DOCKED: ROOT
DOCKED: ATOM      1  C   UNL     1     140.121  72.288 222.467 -0.23 -0.03    +0.216 C  
DOCKED: ENDROOT
DOCKED: BRANCH   1   2
DOCKED: ATOM      2  N   UNL     1     138.966  73.170 222.343 -0.07 +0.10    -0.342 N  
DOCKED: ATOM      3  C   UNL     1     137.681  72.647 222.001 -0.09 -0.07    +0.270 C  
DOCKED: ATOM      4  O   UNL     1     137.515  72.085 220.884 -0.03 +0.05    -0.268 OA 
DOCKED: ATOM      5  H   UNL     1     139.006  74.094 222.833 -0.55 -0.07    +0.164 HD 
DOCKED: BRANCH   3   6
DOCKED: ATOM      6  C   UNL     1     136.578  72.708 222.978 -0.12 -0.04    +0.128 A  
DOCKED: ATOM      7  C   UNL     1     135.955  71.540 223.450 -0.16 -0.01    +0.035 A  
DOCKED: ATOM      8  N   UNL     1     136.207  73.916 223.485 -0.04 +0.09    -0.243 NA 
DOCKED: ATOM      9  C   UNL     1     134.963  71.633 224.428 -0.18 -0.00    +0.013 A  
DOCKED: ATOM     10  C   UNL     1     135.249  74.038 224.441 -0.26 -0.01    +0.071 A  
DOCKED: ATOM     11  C   UNL     1     134.603  72.886 224.940 -0.26 -0.00    +0.002 A  
DOCKED: ATOM     12  C   UNL     1     134.911  75.299 224.941 -0.35 -0.00    +0.030 A  
DOCKED: ATOM     13  C   UNL     1     133.621  73.013 225.934 -0.31 -0.00    +0.030 A  
DOCKED: ATOM     14  C   UNL     1     133.934  75.420 225.934 -0.36 -0.00    +0.023 A  
DOCKED: ATOM     15  C   UNL     1     133.288  74.280 226.429 -0.33 +0.00    +0.041 A  
DOCKED: ATOM     16  Cl  UNL     1     132.064  74.440 227.675 -0.48 +0.01    -0.084 Cl 
DOCKED: ENDBRANCH   3   6
DOCKED: ENDBRANCH   1   2
DOCKED: BRANCH   1  17
DOCKED: ATOM     17  C   UNL     1     139.976  71.458 223.710 -0.27 -0.04    +0.242 C  
DOCKED: ATOM     18  O   UNL     1     140.570  71.832 224.757 -0.36 +0.04    -0.273 OA 
DOCKED: BRANCH  17  19
DOCKED: ATOM     19  N   UNL     1     139.098  70.318 223.758 -0.13 +0.06    -0.334 N  
DOCKED: ATOM     20  C   UNL     1     138.740  69.509 222.604 -0.16 -0.02    +0.120 C  
DOCKED: ATOM     21  C   UNL     1     138.391  69.915 224.967 -0.27 -0.02    +0.115 C  
DOCKED: ATOM     22  C   UNL     1     137.813  68.420 223.129 -0.20 -0.00    +0.024 C  
DOCKED: ATOM     23  C   UNL     1     137.354  68.889 224.507 -0.20 -0.00    +0.032 C  
DOCKED: BRANCH  21  24
DOCKED: ATOM     24  C   UNL     1     139.342  69.325 225.991 -0.45 +0.00    -0.025 A  
DOCKED: ATOM     25  C   UNL     1     139.765  67.991 225.861 -0.57 -0.00    +0.006 A  
DOCKED: ATOM     26  C   UNL     1     139.847  70.104 227.050 -0.53 -0.00    +0.006 A  
DOCKED: ATOM     27  C   UNL     1     140.661  67.440 226.783 -0.65 -0.00    +0.000 A  
DOCKED: ATOM     28  C   UNL     1     140.740  69.548 227.971 -0.63 -0.00    +0.000 A  
DOCKED: ATOM     29  C   UNL     1     141.147  68.217 227.839 -0.63 -0.00    +0.000 A  
DOCKED: ENDBRANCH  21  24
DOCKED: ENDBRANCH  17  19
DOCKED: ENDBRANCH   1  17
DOCKED: TORSDOF 5
DOCKED: TER
DOCKED: ENDMDL
________________________________________________________________________________


    FINAL DOCKED STATE:
    ________________________


Run:   15 / 20
Time taken for this run:   0.027s

DOCKED: MODEL        15
DOCKED: USER    Run = 15
DOCKED: USER
DOCKED: USER    Estimated Free Energy of Binding    =  -8.44 kcal/mol  [=(1)+(2)+(3)-(4)]
DOCKED: USER
DOCKED: USER    (1) Final Intermolecular Energy     =  -9.93 kcal/mol
DOCKED: USER        vdW + Hbond + desolv Energy     =  -9.85 kcal/mol
DOCKED: USER        Electrostatic Energy            =  -0.09 kcal/mol
DOCKED: USER        Moving Ligand-Fixed Receptor    =  -9.93 kcal/mol
DOCKED: USER        Moving Ligand-Moving Receptor   =  +0.00 kcal/mol
DOCKED: USER    (2) Final Total Internal Energy     =  -2.11 kcal/mol
DOCKED: USER    (3) Torsional Free Energy           =  +1.49 kcal/mol
DOCKED: USER    (4) Unbound System's Energy         =  -2.11 kcal/mol
DOCKED: USER
DOCKED: USER
DOCKED: REMARK SMILES O=C(NCC(=O)N1CCC[C@H]1c1ccccc1)c1ccc2cc(Cl)ccc2n1
DOCKED: REMARK SMILES IDX 4 1 3 2 2 3 1 4 18 6 19 7 28 8 20 9 27 10 21 11 26 12 22 13
DOCKED: REMARK SMILES IDX 25 14 23 15 24 16 5 17 6 18 7 19 8 20 11 21 9 22 10 23 12 24
DOCKED: REMARK SMILES IDX 13 25 17 26 14 27 16 28 15 29
DOCKED: REMARK H PARENT 3 5
DOCKED: USER                              x       y       z     vdW  Elec       q    Type
DOCKED: USER                           _______ _______ _______ _____ _____    ______ ____
DOCKED: ROOT
DOCKED: ATOM      1  C   UNL     1     139.469  73.724 220.893 -0.12 -0.04    +0.216 C  
DOCKED: ENDROOT
DOCKED: BRANCH   1   2
DOCKED: ATOM      2  N   UNL     1     138.759  72.996 221.938 -0.10 +0.09    -0.342 N  
DOCKED: ATOM      3  C   UNL     1     138.990  71.600 222.142 -0.13 -0.06    +0.270 C  
DOCKED: ATOM      4  O   UNL     1     138.710  70.783 221.223 -0.05 +0.05    -0.268 OA 
DOCKED: ATOM      5  H   UNL     1     138.365  73.550 222.733 -0.53 -0.08    +0.164 HD 
DOCKED: BRANCH   3   6
DOCKED: ATOM      6  C   UNL     1     139.613  71.133 223.394 -0.29 -0.02    +0.128 A  
DOCKED: ATOM      7  C   UNL     1     140.530  71.933 224.096 -0.29 -0.00    +0.035 A  
DOCKED: ATOM      8  N   UNL     1     139.237  69.932 223.914 -0.16 +0.04    -0.243 NA 
DOCKED: ATOM      9  C   UNL     1     141.044  71.486 225.315 -0.52 -0.00    +0.013 A  
DOCKED: ATOM     10  C   UNL     1     139.717  69.473 225.100 -0.36 -0.01    +0.071 A  
DOCKED: ATOM     11  C   UNL     1     140.638  70.251 225.834 -0.54 -0.00    +0.002 A  
DOCKED: ATOM     12  C   UNL     1     139.291  68.239 225.600 -0.49 -0.00    +0.030 A  
DOCKED: ATOM     13  C   UNL     1     141.124  69.780 227.062 -0.52 -0.01    +0.030 A  
DOCKED: ATOM     14  C   UNL     1     139.776  67.776 226.826 -0.64 -0.00    +0.023 A  
DOCKED: ATOM     15  C   UNL     1     140.693  68.543 227.557 -0.63 -0.01    +0.041 A  
DOCKED: ATOM     16  Cl  UNL     1     141.297  67.955 229.095 -0.34 +0.02    -0.084 Cl 
DOCKED: ENDBRANCH   3   6
DOCKED: ENDBRANCH   1   2
DOCKED: BRANCH   1  17
DOCKED: ATOM     17  C   UNL     1     140.057  74.976 221.477 -0.22 -0.04    +0.242 C  
DOCKED: ATOM     18  O   UNL     1     139.814  75.250 222.682 -0.48 +0.01    -0.273 OA 
DOCKED: BRANCH  17  19
DOCKED: ATOM     19  N   UNL     1     140.968  75.802 220.729 -0.11 +0.11    -0.334 N  
DOCKED: ATOM     20  C   UNL     1     141.125  77.235 220.924 -0.25 -0.05    +0.120 C  
DOCKED: ATOM     21  C   UNL     1     141.764  75.297 219.618 -0.17 -0.04    +0.115 C  
DOCKED: ATOM     22  C   UNL     1     142.195  77.676 219.934 -0.28 -0.02    +0.024 C  
DOCKED: ATOM     23  C   UNL     1     142.327  76.539 218.924 -0.27 -0.02    +0.032 C  
DOCKED: BRANCH  21  24
DOCKED: ATOM     24  C   UNL     1     142.870  74.380 220.104 -0.30 +0.01    -0.025 A  
DOCKED: ATOM     25  C   UNL     1     142.583  73.037 220.399 -0.26 -0.00    +0.006 A  
DOCKED: ATOM     26  C   UNL     1     144.196  74.839 220.226 -0.42 -0.00    +0.006 A  
DOCKED: ATOM     27  C   UNL     1     143.597  72.173 220.825 -0.32 -0.00    +0.000 A  
DOCKED: ATOM     28  C   UNL     1     145.206  73.974 220.654 -0.59 -0.00    +0.000 A  
DOCKED: ATOM     29  C   UNL     1     144.908  72.642 220.954 -0.46 -0.00    +0.000 A  
DOCKED: ENDBRANCH  21  24
DOCKED: ENDBRANCH  17  19
DOCKED: ENDBRANCH   1  17
DOCKED: TORSDOF 5
DOCKED: TER
DOCKED: ENDMDL
________________________________________________________________________________


    FINAL DOCKED STATE:
    ________________________


Run:   16 / 20
Time taken for this run:   0.027s

DOCKED: MODEL        16
DOCKED: USER    Run = 16
DOCKED: USER
DOCKED: USER    Estimated Free Energy of Binding    =  -8.52 kcal/mol  [=(1)+(2)+(3)-(4)]
DOCKED: USER
DOCKED: USER    (1) Final Intermolecular Energy     = -10.01 kcal/mol
DOCKED: USER        vdW + Hbond + desolv Energy     = -10.01 kcal/mol
DOCKED: USER        Electrostatic Energy            =  -0.00 kcal/mol
DOCKED: USER        Moving Ligand-Fixed Receptor    = -10.01 kcal/mol
DOCKED: USER        Moving Ligand-Moving Receptor   =  +0.00 kcal/mol
DOCKED: USER    (2) Final Total Internal Energy     =  -1.30 kcal/mol
DOCKED: USER    (3) Torsional Free Energy           =  +1.49 kcal/mol
DOCKED: USER    (4) Unbound System's Energy         =  -1.30 kcal/mol
DOCKED: USER
DOCKED: USER
DOCKED: REMARK SMILES O=C(NCC(=O)N1CCC[C@H]1c1ccccc1)c1ccc2cc(Cl)ccc2n1
DOCKED: REMARK SMILES IDX 4 1 3 2 2 3 1 4 18 6 19 7 28 8 20 9 27 10 21 11 26 12 22 13
DOCKED: REMARK SMILES IDX 25 14 23 15 24 16 5 17 6 18 7 19 8 20 11 21 9 22 10 23 12 24
DOCKED: REMARK SMILES IDX 13 25 17 26 14 27 16 28 15 29
DOCKED: REMARK H PARENT 3 5
DOCKED: USER                              x       y       z     vdW  Elec       q    Type
DOCKED: USER                           _______ _______ _______ _____ _____    ______ ____
DOCKED: ROOT
DOCKED: ATOM      1  C   UNL     1     140.906  74.909 221.622 -0.21 -0.04    +0.216 C  
DOCKED: ENDROOT
DOCKED: BRANCH   1   2
DOCKED: ATOM      2  N   UNL     1     139.760  74.096 222.011 -0.15 +0.05    -0.342 N  
DOCKED: ATOM      3  C   UNL     1     139.748  72.687 221.770 -0.17 -0.05    +0.270 C  
DOCKED: ATOM      4  O   UNL     1     139.795  72.259 220.584 -0.06 +0.05    -0.268 OA 
DOCKED: ATOM      5  H   UNL     1     139.128  74.473 222.755 -0.50 -0.05    +0.164 HD 
DOCKED: BRANCH   3   6
DOCKED: ATOM      6  C   UNL     1     139.749  71.747 222.905 -0.27 -0.02    +0.128 A  
DOCKED: ATOM      7  C   UNL     1     139.272  70.433 222.765 -0.22 -0.01    +0.035 A  
DOCKED: ATOM      8  N   UNL     1     140.290  72.141 224.092 -0.19 +0.04    -0.243 NA 
DOCKED: ATOM      9  C   UNL     1     139.356  69.549 223.843 -0.28 -0.00    +0.013 A  
DOCKED: ATOM     10  C   UNL     1     140.388  71.302 225.157 -0.48 -0.01    +0.071 A  
DOCKED: ATOM     11  C   UNL     1     139.921  69.974 225.052 -0.42 -0.00    +0.002 A  
DOCKED: ATOM     12  C   UNL     1     140.963  71.747 226.351 -0.66 -0.00    +0.030 A  
DOCKED: ATOM     13  C   UNL     1     140.033  69.107 226.149 -0.50 -0.01    +0.030 A  
DOCKED: ATOM     14  C   UNL     1     141.075  70.879 227.441 -0.66 -0.00    +0.023 A  
DOCKED: ATOM     15  C   UNL     1     140.610  69.561 227.342 -0.56 -0.01    +0.041 A  
DOCKED: ATOM     16  Cl  UNL     1     140.755  68.477 228.713 -0.71 +0.02    -0.084 Cl 
DOCKED: ENDBRANCH   3   6
DOCKED: ENDBRANCH   1   2
DOCKED: BRANCH   1  17
DOCKED: ATOM     17  C   UNL     1     140.429  76.074 220.803 -0.16 -0.07    +0.242 C  
DOCKED: ATOM     18  O   UNL     1     140.820  76.171 219.608 -0.06 +0.09    -0.273 OA 
DOCKED: BRANCH  17  19
DOCKED: ATOM     19  N   UNL     1     139.461  77.010 221.312 -0.08 +0.08    -0.334 N  
DOCKED: ATOM     20  C   UNL     1     138.214  76.630 221.959 -0.21 -0.03    +0.120 C  
DOCKED: ATOM     21  C   UNL     1     139.588  78.451 221.140 -0.14 -0.03    +0.115 C  
DOCKED: ATOM     22  C   UNL     1     137.528  77.936 222.341 -0.21 -0.00    +0.024 C  
DOCKED: ATOM     23  C   UNL     1     138.227  79.028 221.535 -0.14 -0.01    +0.032 C  
DOCKED: BRANCH  21  24
DOCKED: ATOM     24  C   UNL     1     140.702  79.012 222.003 -0.33 +0.01    -0.025 A  
DOCKED: ATOM     25  C   UNL     1     141.576  79.976 221.472 -0.40 -0.00    +0.006 A  
DOCKED: ATOM     26  C   UNL     1     140.854  78.618 223.347 -0.47 -0.00    +0.006 A  
DOCKED: ATOM     27  C   UNL     1     142.593  80.521 222.263 -0.55 -0.00    +0.000 A  
DOCKED: ATOM     28  C   UNL     1     141.873  79.163 224.132 -0.56 -0.00    +0.000 A  
DOCKED: ATOM     29  C   UNL     1     142.743  80.114 223.591 -0.65 -0.00    +0.000 A  
DOCKED: ENDBRANCH  21  24
DOCKED: ENDBRANCH  17  19
DOCKED: ENDBRANCH   1  17
DOCKED: TORSDOF 5
DOCKED: TER
DOCKED: ENDMDL
________________________________________________________________________________


    FINAL DOCKED STATE:
    ________________________


Run:   17 / 20
Time taken for this run:   0.027s

DOCKED: MODEL        17
DOCKED: USER    Run = 17
DOCKED: USER
DOCKED: USER    Estimated Free Energy of Binding    =  -8.44 kcal/mol  [=(1)+(2)+(3)-(4)]
DOCKED: USER
DOCKED: USER    (1) Final Intermolecular Energy     =  -9.93 kcal/mol
DOCKED: USER        vdW + Hbond + desolv Energy     =  -9.87 kcal/mol
DOCKED: USER        Electrostatic Energy            =  -0.06 kcal/mol
DOCKED: USER        Moving Ligand-Fixed Receptor    =  -9.93 kcal/mol
DOCKED: USER        Moving Ligand-Moving Receptor   =  +0.00 kcal/mol
DOCKED: USER    (2) Final Total Internal Energy     =  -2.00 kcal/mol
DOCKED: USER    (3) Torsional Free Energy           =  +1.49 kcal/mol
DOCKED: USER    (4) Unbound System's Energy         =  -2.00 kcal/mol
DOCKED: USER
DOCKED: USER
DOCKED: REMARK SMILES O=C(NCC(=O)N1CCC[C@H]1c1ccccc1)c1ccc2cc(Cl)ccc2n1
DOCKED: REMARK SMILES IDX 4 1 3 2 2 3 1 4 18 6 19 7 28 8 20 9 27 10 21 11 26 12 22 13
DOCKED: REMARK SMILES IDX 25 14 23 15 24 16 5 17 6 18 7 19 8 20 11 21 9 22 10 23 12 24
DOCKED: REMARK SMILES IDX 13 25 17 26 14 27 16 28 15 29
DOCKED: REMARK H PARENT 3 5
DOCKED: USER                              x       y       z     vdW  Elec       q    Type
DOCKED: USER                           _______ _______ _______ _____ _____    ______ ____
DOCKED: ROOT
DOCKED: ATOM      1  C   UNL     1     139.977  73.488 220.933 -0.14 -0.04    +0.216 C  
DOCKED: ENDROOT
DOCKED: BRANCH   1   2
DOCKED: ATOM      2  N   UNL     1     139.202  72.972 222.056 -0.12 +0.08    -0.342 N  
DOCKED: ATOM      3  C   UNL     1     139.195  71.575 222.358 -0.16 -0.06    +0.270 C  
DOCKED: ATOM      4  O   UNL     1     138.731  70.759 221.515 -0.06 +0.05    -0.268 OA 
DOCKED: ATOM      5  H   UNL     1     138.950  73.641 222.819 -0.52 -0.07    +0.164 HD 
DOCKED: BRANCH   3   6
DOCKED: ATOM      6  C   UNL     1     139.787  71.092 223.619 -0.31 -0.02    +0.128 A  
DOCKED: ATOM      7  C   UNL     1     140.615  71.915 224.399 -0.29 -0.00    +0.035 A  
DOCKED: ATOM      8  N   UNL     1     139.466  69.847 224.067 -0.16 +0.04    -0.243 NA 
DOCKED: ATOM      9  C   UNL     1     141.099  71.447 225.623 -0.58 -0.00    +0.013 A  
DOCKED: ATOM     10  C   UNL     1     139.918  69.366 225.256 -0.37 -0.01    +0.071 A  
DOCKED: ATOM     11  C   UNL     1     140.750  70.166 226.068 -0.55 -0.00    +0.002 A  
DOCKED: ATOM     12  C   UNL     1     139.550  68.085 225.682 -0.52 -0.00    +0.030 A  
DOCKED: ATOM     13  C   UNL     1     141.207  69.672 227.298 -0.47 -0.01    +0.030 A  
DOCKED: ATOM     14  C   UNL     1     140.006  67.599 226.910 -0.60 -0.01    +0.023 A  
DOCKED: ATOM     15  C   UNL     1     140.834  68.388 227.717 -0.63 -0.01    +0.041 A  
DOCKED: ATOM     16  Cl  UNL     1     141.401  67.770 229.258 -0.14 +0.02    -0.084 Cl 
DOCKED: ENDBRANCH   3   6
DOCKED: ENDBRANCH   1   2
DOCKED: BRANCH   1  17
DOCKED: ATOM     17  C   UNL     1     140.358  74.913 221.211 -0.20 -0.05    +0.242 C  
DOCKED: ATOM     18  O   UNL     1     139.978  75.439 222.292 -0.58 +0.03    -0.273 OA 
DOCKED: BRANCH  17  19
DOCKED: ATOM     19  N   UNL     1     141.228  75.648 220.329 -0.09 +0.12    -0.334 N  
DOCKED: ATOM     20  C   UNL     1     141.306  77.100 220.278 -0.22 -0.06    +0.120 C  
DOCKED: ATOM     21  C   UNL     1     142.054  75.004 219.317 -0.16 -0.04    +0.115 C  
DOCKED: ATOM     22  C   UNL     1     142.356  77.423 219.222 -0.30 -0.02    +0.024 C  
DOCKED: ATOM     23  C   UNL     1     142.553  76.139 218.420 -0.24 -0.02    +0.032 C  
DOCKED: BRANCH  21  24
DOCKED: ATOM     24  C   UNL     1     143.205  74.245 219.947 -0.31 +0.01    -0.025 A  
DOCKED: ATOM     25  C   UNL     1     143.063  72.876 220.234 -0.27 -0.00    +0.006 A  
DOCKED: ATOM     26  C   UNL     1     144.437  74.875 220.211 -0.42 -0.00    +0.006 A  
DOCKED: ATOM     27  C   UNL     1     144.124  72.157 220.793 -0.35 -0.00    +0.000 A  
DOCKED: ATOM     28  C   UNL     1     145.494  74.152 220.772 -0.61 -0.00    +0.000 A  
DOCKED: ATOM     29  C   UNL     1     145.338  72.794 221.063 -0.51 -0.00    +0.000 A  
DOCKED: ENDBRANCH  21  24
DOCKED: ENDBRANCH  17  19
DOCKED: ENDBRANCH   1  17
DOCKED: TORSDOF 5
DOCKED: TER
DOCKED: ENDMDL
________________________________________________________________________________


    FINAL DOCKED STATE:
    ________________________


Run:   18 / 20
Time taken for this run:   0.027s

DOCKED: MODEL        18
DOCKED: USER    Run = 18
DOCKED: USER
DOCKED: USER    Estimated Free Energy of Binding    =  -8.43 kcal/mol  [=(1)+(2)+(3)-(4)]
DOCKED: USER
DOCKED: USER    (1) Final Intermolecular Energy     =  -9.93 kcal/mol
DOCKED: USER        vdW + Hbond + desolv Energy     =  -9.84 kcal/mol
DOCKED: USER        Electrostatic Energy            =  -0.09 kcal/mol
DOCKED: USER        Moving Ligand-Fixed Receptor    =  -9.93 kcal/mol
DOCKED: USER        Moving Ligand-Moving Receptor   =  +0.00 kcal/mol
DOCKED: USER    (2) Final Total Internal Energy     =  -2.10 kcal/mol
DOCKED: USER    (3) Torsional Free Energy           =  +1.49 kcal/mol
DOCKED: USER    (4) Unbound System's Energy         =  -2.10 kcal/mol
DOCKED: USER
DOCKED: USER
DOCKED: REMARK SMILES O=C(NCC(=O)N1CCC[C@H]1c1ccccc1)c1ccc2cc(Cl)ccc2n1
DOCKED: REMARK SMILES IDX 4 1 3 2 2 3 1 4 18 6 19 7 28 8 20 9 27 10 21 11 26 12 22 13
DOCKED: REMARK SMILES IDX 25 14 23 15 24 16 5 17 6 18 7 19 8 20 11 21 9 22 10 23 12 24
DOCKED: REMARK SMILES IDX 13 25 17 26 14 27 16 28 15 29
DOCKED: REMARK H PARENT 3 5
DOCKED: USER                              x       y       z     vdW  Elec       q    Type
DOCKED: USER                           _______ _______ _______ _____ _____    ______ ____
DOCKED: ROOT
DOCKED: ATOM      1  C   UNL     1     139.468  73.722 220.893 -0.12 -0.04    +0.216 C  
DOCKED: ENDROOT
DOCKED: BRANCH   1   2
DOCKED: ATOM      2  N   UNL     1     138.760  73.004 221.947 -0.10 +0.09    -0.342 N  
DOCKED: ATOM      3  C   UNL     1     138.985  71.608 222.157 -0.13 -0.06    +0.270 C  
DOCKED: ATOM      4  O   UNL     1     138.695  70.787 221.245 -0.05 +0.05    -0.268 OA 
DOCKED: ATOM      5  H   UNL     1     138.374  73.565 222.740 -0.53 -0.08    +0.164 HD 
DOCKED: BRANCH   3   6
DOCKED: ATOM      6  C   UNL     1     139.613  71.145 223.408 -0.29 -0.02    +0.128 A  
DOCKED: ATOM      7  C   UNL     1     140.512  71.957 224.118 -0.27 -0.00    +0.035 A  
DOCKED: ATOM      8  N   UNL     1     139.257  69.934 223.919 -0.16 +0.04    -0.243 NA 
DOCKED: ATOM      9  C   UNL     1     141.031  71.513 225.336 -0.53 -0.00    +0.013 A  
DOCKED: ATOM     10  C   UNL     1     139.742  69.476 225.104 -0.36 -0.01    +0.071 A  
DOCKED: ATOM     11  C   UNL     1     140.646  70.267 225.846 -0.54 -0.00    +0.002 A  
DOCKED: ATOM     12  C   UNL     1     139.337  68.231 225.596 -0.49 -0.00    +0.030 A  
DOCKED: ATOM     13  C   UNL     1     141.137  69.797 227.073 -0.52 -0.01    +0.030 A  
DOCKED: ATOM     14  C   UNL     1     139.827  67.769 226.820 -0.65 -0.00    +0.023 A  
DOCKED: ATOM     15  C   UNL     1     140.727  68.549 227.558 -0.63 -0.01    +0.041 A  
DOCKED: ATOM     16  Cl  UNL     1     141.337  67.963 229.095 -0.35 +0.02    -0.084 Cl 
DOCKED: ENDBRANCH   3   6
DOCKED: ENDBRANCH   1   2
DOCKED: BRANCH   1  17
DOCKED: ATOM     17  C   UNL     1     140.050  74.984 221.462 -0.21 -0.04    +0.242 C  
DOCKED: ATOM     18  O   UNL     1     139.808  75.270 222.665 -0.49 +0.01    -0.273 OA 
DOCKED: BRANCH  17  19
DOCKED: ATOM     19  N   UNL     1     140.953  75.809 220.702 -0.11 +0.11    -0.334 N  
DOCKED: ATOM     20  C   UNL     1     141.097  77.246 220.879 -0.25 -0.05    +0.120 C  
DOCKED: ATOM     21  C   UNL     1     141.753  75.295 219.598 -0.17 -0.04    +0.115 C  
DOCKED: ATOM     22  C   UNL     1     142.163  77.683 219.882 -0.28 -0.02    +0.024 C  
DOCKED: ATOM     23  C   UNL     1     142.305  76.533 218.887 -0.27 -0.02    +0.032 C  
DOCKED: BRANCH  21  24
DOCKED: ATOM     24  C   UNL     1     142.868  74.396 220.096 -0.30 +0.01    -0.025 A  
DOCKED: ATOM     25  C   UNL     1     142.599  73.046 220.383 -0.26 -0.00    +0.006 A  
DOCKED: ATOM     26  C   UNL     1     144.184  74.876 220.237 -0.42 -0.00    +0.006 A  
DOCKED: ATOM     27  C   UNL     1     143.622  72.199 220.820 -0.32 -0.00    +0.000 A  
DOCKED: ATOM     28  C   UNL     1     145.203  74.026 220.677 -0.58 -0.00    +0.000 A  
DOCKED: ATOM     29  C   UNL     1     144.922  72.688 220.968 -0.46 -0.00    +0.000 A  
DOCKED: ENDBRANCH  21  24
DOCKED: ENDBRANCH  17  19
DOCKED: ENDBRANCH   1  17
DOCKED: TORSDOF 5
DOCKED: TER
DOCKED: ENDMDL
________________________________________________________________________________


    FINAL DOCKED STATE:
    ________________________


Run:   19 / 20
Time taken for this run:   0.027s

DOCKED: MODEL        19
DOCKED: USER    Run = 19
DOCKED: USER
DOCKED: USER    Estimated Free Energy of Binding    =  -8.34 kcal/mol  [=(1)+(2)+(3)-(4)]
DOCKED: USER
DOCKED: USER    (1) Final Intermolecular Energy     =  -9.84 kcal/mol
DOCKED: USER        vdW + Hbond + desolv Energy     =  -9.75 kcal/mol
DOCKED: USER        Electrostatic Energy            =  -0.08 kcal/mol
DOCKED: USER        Moving Ligand-Fixed Receptor    =  -9.84 kcal/mol
DOCKED: USER        Moving Ligand-Moving Receptor   =  +0.00 kcal/mol
DOCKED: USER    (2) Final Total Internal Energy     =  -2.12 kcal/mol
DOCKED: USER    (3) Torsional Free Energy           =  +1.49 kcal/mol
DOCKED: USER    (4) Unbound System's Energy         =  -2.12 kcal/mol
DOCKED: USER
DOCKED: USER
DOCKED: REMARK SMILES O=C(NCC(=O)N1CCC[C@H]1c1ccccc1)c1ccc2cc(Cl)ccc2n1
DOCKED: REMARK SMILES IDX 4 1 3 2 2 3 1 4 18 6 19 7 28 8 20 9 27 10 21 11 26 12 22 13
DOCKED: REMARK SMILES IDX 25 14 23 15 24 16 5 17 6 18 7 19 8 20 11 21 9 22 10 23 12 24
DOCKED: REMARK SMILES IDX 13 25 17 26 14 27 16 28 15 29
DOCKED: REMARK H PARENT 3 5
DOCKED: USER                              x       y       z     vdW  Elec       q    Type
DOCKED: USER                           _______ _______ _______ _____ _____    ______ ____
DOCKED: ROOT
DOCKED: ATOM      1  C   UNL     1     139.322  73.736 220.871 -0.11 -0.04    +0.216 C  
DOCKED: ENDROOT
DOCKED: BRANCH   1   2
DOCKED: ATOM      2  N   UNL     1     138.648  72.956 221.902 -0.09 +0.09    -0.342 N  
DOCKED: ATOM      3  C   UNL     1     138.957  71.573 222.090 -0.12 -0.06    +0.270 C  
DOCKED: ATOM      4  O   UNL     1     138.731  70.753 221.159 -0.05 +0.05    -0.268 OA 
DOCKED: ATOM      5  H   UNL     1     138.217  73.476 222.700 -0.51 -0.08    +0.164 HD 
DOCKED: BRANCH   3   6
DOCKED: ATOM      6  C   UNL     1     139.598  71.127 223.340 -0.28 -0.02    +0.128 A  
DOCKED: ATOM      7  C   UNL     1     140.544  71.927 224.002 -0.30 -0.00    +0.035 A  
DOCKED: ATOM      8  N   UNL     1     139.209  69.947 223.899 -0.16 +0.04    -0.243 NA 
DOCKED: ATOM      9  C   UNL     1     141.075  71.502 225.221 -0.49 -0.00    +0.013 A  
DOCKED: ATOM     10  C   UNL     1     139.705  69.510 225.087 -0.36 -0.01    +0.071 A  
DOCKED: ATOM     11  C   UNL     1     140.656  70.288 225.781 -0.54 -0.00    +0.002 A  
DOCKED: ATOM     12  C   UNL     1     139.267  68.298 225.629 -0.49 -0.00    +0.030 A  
DOCKED: ATOM     13  C   UNL     1     141.160  69.840 227.011 -0.51 -0.01    +0.030 A  
DOCKED: ATOM     14  C   UNL     1     139.769  67.857 226.856 -0.64 -0.00    +0.023 A  
DOCKED: ATOM     15  C   UNL     1     140.715  68.625 227.547 -0.63 -0.01    +0.041 A  
DOCKED: ATOM     16  Cl  UNL     1     141.340  68.066 229.087 -0.43 +0.02    -0.084 Cl 
DOCKED: ENDBRANCH   3   6
DOCKED: ENDBRANCH   1   2
DOCKED: BRANCH   1  17
DOCKED: ATOM     17  C   UNL     1     139.938  74.953 221.498 -0.21 -0.04    +0.242 C  
DOCKED: ATOM     18  O   UNL     1     139.707  75.186 222.715 -0.49 +0.02    -0.273 OA 
DOCKED: BRANCH  17  19
DOCKED: ATOM     19  N   UNL     1     140.862  75.789 220.777 -0.11 +0.11    -0.334 N  
DOCKED: ATOM     20  C   UNL     1     141.058  77.208 221.035 -0.26 -0.05    +0.120 C  
DOCKED: ATOM     21  C   UNL     1     141.631  75.315 219.634 -0.16 -0.04    +0.115 C  
DOCKED: ATOM     22  C   UNL     1     142.128  77.666 220.052 -0.28 -0.02    +0.024 C  
DOCKED: ATOM     23  C   UNL     1     142.218  76.573 218.990 -0.26 -0.02    +0.032 C  
DOCKED: BRANCH  21  24
DOCKED: ATOM     24  C   UNL     1     142.718  74.350 220.064 -0.28 +0.01    -0.025 A  
DOCKED: ATOM     25  C   UNL     1     144.047  74.797 220.167 -0.44 -0.00    +0.006 A  
DOCKED: ATOM     26  C   UNL     1     142.417  73.017 220.407 -0.24 -0.00    +0.006 A  
DOCKED: ATOM     27  C   UNL     1     145.057  73.925 220.585 -0.57 -0.00    +0.000 A  
DOCKED: ATOM     28  C   UNL     1     143.431  72.148 220.822 -0.30 -0.00    +0.000 A  
DOCKED: ATOM     29  C   UNL     1     144.750  72.602 220.911 -0.43 -0.00    +0.000 A  
DOCKED: ENDBRANCH  21  24
DOCKED: ENDBRANCH  17  19
DOCKED: ENDBRANCH   1  17
DOCKED: TORSDOF 5
DOCKED: TER
DOCKED: ENDMDL
________________________________________________________________________________


    FINAL DOCKED STATE:
    ________________________


Run:   20 / 20
Time taken for this run:   0.027s

DOCKED: MODEL        20
DOCKED: USER    Run = 20
DOCKED: USER
DOCKED: USER    Estimated Free Energy of Binding    =  -6.43 kcal/mol  [=(1)+(2)+(3)-(4)]
DOCKED: USER
DOCKED: USER    (1) Final Intermolecular Energy     =  -7.92 kcal/mol
DOCKED: USER        vdW + Hbond + desolv Energy     =  -7.88 kcal/mol
DOCKED: USER        Electrostatic Energy            =  -0.04 kcal/mol
DOCKED: USER        Moving Ligand-Fixed Receptor    =  -7.92 kcal/mol
DOCKED: USER        Moving Ligand-Moving Receptor   =  +0.00 kcal/mol
DOCKED: USER    (2) Final Total Internal Energy     =  -2.87 kcal/mol
DOCKED: USER    (3) Torsional Free Energy           =  +1.49 kcal/mol
DOCKED: USER    (4) Unbound System's Energy         =  -2.87 kcal/mol
DOCKED: USER
DOCKED: USER
DOCKED: REMARK SMILES O=C(NCC(=O)N1CCC[C@H]1c1ccccc1)c1ccc2cc(Cl)ccc2n1
DOCKED: REMARK SMILES IDX 4 1 3 2 2 3 1 4 18 6 19 7 28 8 20 9 27 10 21 11 26 12 22 13
DOCKED: REMARK SMILES IDX 25 14 23 15 24 16 5 17 6 18 7 19 8 20 11 21 9 22 10 23 12 24
DOCKED: REMARK SMILES IDX 13 25 17 26 14 27 16 28 15 29
DOCKED: REMARK H PARENT 3 5
DOCKED: USER                              x       y       z     vdW  Elec       q    Type
DOCKED: USER                           _______ _______ _______ _____ _____    ______ ____
DOCKED: ROOT
DOCKED: ATOM      1  C   UNL     1     138.016  80.927 222.348 -0.13 -0.03    +0.216 C  
DOCKED: ENDROOT
DOCKED: BRANCH   1   2
DOCKED: ATOM      2  N   UNL     1     137.820  79.608 221.756 -0.03 +0.06    -0.342 N  
DOCKED: ATOM      3  C   UNL     1     138.594  79.192 220.628 -0.04 -0.06    +0.270 C  
DOCKED: ATOM      4  O   UNL     1     138.496  79.822 219.540 -0.01 +0.06    -0.268 OA 
DOCKED: ATOM      5  H   UNL     1     137.383  78.869 222.352 +0.04 -0.03    +0.164 HD 
DOCKED: BRANCH   3   6
DOCKED: ATOM      6  C   UNL     1     139.547  78.075 220.763 -0.10 -0.04    +0.128 A  
DOCKED: ATOM      7  C   UNL     1     139.255  76.959 221.564 -0.23 -0.01    +0.035 A  
DOCKED: ATOM      8  N   UNL     1     140.700  78.097 220.038 -0.08 +0.10    -0.243 NA 
DOCKED: ATOM      9  C   UNL     1     140.151  75.889 221.610 -0.33 -0.00    +0.013 A  
DOCKED: ATOM     10  C   UNL     1     141.588  77.068 220.058 -0.24 -0.04    +0.071 A  
DOCKED: ATOM     11  C   UNL     1     141.327  75.930 220.851 -0.30 -0.00    +0.002 A  
DOCKED: ATOM     12  C   UNL     1     142.752  77.130 219.286 -0.33 -0.02    +0.030 A  
DOCKED: ATOM     13  C   UNL     1     142.240  74.865 220.863 -0.28 -0.01    +0.030 A  
DOCKED: ATOM     14  C   UNL     1     143.658  76.065 219.300 -0.36 -0.01    +0.023 A  
DOCKED: ATOM     15  C   UNL     1     143.404  74.935 220.087 -0.37 -0.02    +0.041 A  
DOCKED: ATOM     16  Cl  UNL     1     144.545  73.602 220.097 -0.58 +0.02    -0.084 Cl 
DOCKED: ENDBRANCH   3   6
DOCKED: ENDBRANCH   1   2
DOCKED: BRANCH   1  17
DOCKED: ATOM     17  C   UNL     1     138.900  80.799 223.555 -0.25 -0.03    +0.242 C  
DOCKED: ATOM     18  O   UNL     1     138.396  80.993 224.694 -0.29 +0.02    -0.273 OA 
DOCKED: BRANCH  17  19
DOCKED: ATOM     19  N   UNL     1     140.267  80.359 223.446 -0.20 +0.05    -0.334 N  
DOCKED: ATOM     20  C   UNL     1     140.726  79.020 223.783 -0.37 -0.02    +0.120 C  
DOCKED: ATOM     21  C   UNL     1     141.358  81.252 223.079 -0.45 -0.02    +0.115 C  
DOCKED: ATOM     22  C   UNL     1     142.224  79.011 223.501 -0.54 -0.01    +0.024 C  
DOCKED: ATOM     23  C   UNL     1     142.639  80.476 223.392 -0.66 -0.01    +0.032 C  
DOCKED: BRANCH  21  24
DOCKED: ATOM     24  C   UNL     1     141.284  81.639 221.615 -0.38 +0.01    -0.025 A  
DOCKED: ATOM     25  C   UNL     1     140.707  82.866 221.246 -0.31 -0.00    +0.006 A  
DOCKED: ATOM     26  C   UNL     1     141.824  80.808 220.613 -0.34 -0.00    +0.006 A  
DOCKED: ATOM     27  C   UNL     1     140.654  83.247 219.902 -0.22 -0.00    +0.000 A  
DOCKED: ATOM     28  C   UNL     1     141.766  81.192 219.270 -0.28 -0.00    +0.000 A  
DOCKED: ATOM     29  C   UNL     1     141.181  82.411 218.914 -0.21 -0.00    +0.000 A  
DOCKED: ENDBRANCH  21  24
DOCKED: ENDBRANCH  17  19
DOCKED: ENDBRANCH   1  17
DOCKED: TORSDOF 5
DOCKED: TER
DOCKED: ENDMDL
________________________________________________________________________________


    CLUSTERING HISTOGRAM
    ____________________


________________________________________________________________________________
     |           |     |           |     |
Clus | Lowest    | Run | Mean      | Num | Histogram
-ter | Binding   |     | Binding   | in  |
Rank | Energy    |     | Energy    | Clus|    5    10   15   20   25   30   35
_____|___________|_____|___________|_____|____:____|____:____|____:____|____:___
   1 |     -8.80 |   7 |     -8.64 |   3 |###
   2 |     -8.60 |  11 |     -8.38 |  12 |############
   3 |     -7.82 |   1 |     -7.82 |   1 |#
   4 |     -7.35 |  14 |     -7.35 |   1 |#
   5 |     -7.12 |   3 |     -7.12 |   1 |#
   6 |     -6.43 |  20 |     -6.41 |   2 |##
_____|___________|_____|___________|_____|______________________________________


    RMSD TABLE
    __________


_______________________________________________________________________
     |      |      |           |         |                 |
Rank | Sub- | Run  | Binding   | Cluster | Reference       | Grep
     | Rank |      | Energy    | RMSD    | RMSD            | Pattern
_____|______|______|___________|_________|_________________|___________
   1      1      7       -8.80      0.00    272.45           RANKING
   1      2     13       -8.59      1.96    272.25           RANKING
   1      3     16       -8.52      1.36    272.48           RANKING
   2      1     11       -8.60      0.00    271.72           RANKING
   2      2     10       -8.55      0.36    271.70           RANKING
   2      3     17       -8.44      1.06    272.02           RANKING
   2      4     15       -8.44      1.03    271.93           RANKING
   2      5      8       -8.44      0.63    271.75           RANKING
   2      6     18       -8.43      1.03    271.93           RANKING
   2      7      5       -8.40      1.04    271.89           RANKING
   2      8     12       -8.38      0.96    271.76           RANKING
   2      9     19       -8.34      1.05    271.88           RANKING
   2     10      9       -8.21      1.05    271.69           RANKING
   2     11      4       -8.15      1.85    271.58           RANKING
   2     12      2       -8.15      1.85    271.60           RANKING
   3      1      1       -7.82      0.00    271.36           RANKING
   4      1     14       -7.35      0.00    271.39           RANKING
   5      1      3       -7.12      0.00    272.01           RANKING
   6      1     20       -6.43      0.00    272.44           RANKING
   6      2      6       -6.38      0.16    272.51           RANKING

Run time 0.515 sec
Idle time 0.000 sec
