AutoDock-GPU version: v1.6

**********************************************************
**    AutoDock-GPU AUTODOCKTOOLS-COMPATIBLE DLG FILE    **
**********************************************************


    DOCKING PARAMETERS
    ________________________


Ligand file:                               /home/a/REINVENT4/ReinventStudies/pleaseWork/justmol2mol_4_Compounds_ontop/graph-dock-8u2o5u/graph-DockGPU/node-autodockgpu/inputs/ZGGRGVKOKJVDIT-RHFUWPRRNA-M.pdbqt
Grid fld file:                             /home/a/REINVENT4/ReinventStudies/mols/Rad51/maps/rad51_receptor.maps.fld

Random seed:                               42
Number of runs:                            20
Number of energy evaluations:              1259779
Number of generations:                     42000
Size of population:                        150
Rate of crossover:                         80.000000%
Tournament selection probability limit:    60.000000%
Rate of mutation:                          2.000000%
Maximal allowed delta movement:            +/- 6.000000A
Maximal allowed delta angle:               +/- 90.000000

Rate of local search:                      100.000000%
Maximal number of local search iterations: 300
Rho lower bound:                           0.010000
Spread of local search delta movement:     2.000000A
Spread of local search delta angle:        74.999999
Limit of consecutive successes/failures:   4

Handle symmetry during clustering:         YES
RMSD tolerance:                            2.000000A

Program call in command line was:          /home/a/REINVENT4/ReinventStudies/adgpu-v1.6_linux_x64_cuda12_128wi --filelist batch.txt --heuristics 1 --nrun 20 --psize 150 --lsit 300 --seed 42 --heurmax 12000000 


    GRID PARAMETERS
    ________________________


Receptor name:                             rad51_receptor
Number of grid points (x, y, z):           53, 53, 53
Grid center (x, y, z):                     139.950000, 75.640000, 221.970000A
Grid size (x, y, z):                       19.500000, 19.500000, 19.500000A
Grid spacing:                              0.375000A


    LIGAND PARAMETERS
    ________________________


Ligand name:                               /home/a/REINVENT4/ReinventStudies/pleaseWork/justmol2mol_4_Compounds_ontop/graph-dock-8u2o5u/graph-DockGPU/node-autodockgpu/inputs/ZGGRGVKOKJVDIT-RHFUWPRRNA-M
Number of atoms:                           29
Number of rotatable bonds:                 7
Number of atom types:                      6


    DUMMY DATA (only for ADT-compatibility)
    ________________________


DPF> outlev 1
DPF> ga_run 20
DPF> fld /home/a/REINVENT4/ReinventStudies/mols/Rad51/maps/rad51_receptor.maps.fld
DPF> move /home/a/REINVENT4/ReinventStudies/pleaseWork/justmol2mol_4_Compounds_ontop/graph-dock-8u2o5u/graph-DockGPU/node-autodockgpu/inputs/ZGGRGVKOKJVDIT-RHFUWPRRNA-M.pdbqt


    COUNTER STATES
    ________________________


Number of energy evaluations performed:    1269636
Number of generations used:                58


    INPUT LIGAND PDBQT FILE:
    ________________________


INPUT-LIGAND-PDBQT: REMARK SMILES O=C([N-]CC(=O)N1C[C@H](O)C[C@H]1c1ccccc1)c1ccc2ccccc2n1
INPUT-LIGAND-PDBQT: REMARK SMILES IDX 4 1 3 2 2 3 1 4 19 5 20 6 28 7 21 8 27 9 22 10 26 11 23 12
INPUT-LIGAND-PDBQT: REMARK SMILES IDX 25 13 24 14 5 15 6 16 7 17 8 18 12 19 9 20 11 21 13 22 14 23
INPUT-LIGAND-PDBQT: REMARK SMILES IDX 18 24 15 25 17 26 16 27 10 28
INPUT-LIGAND-PDBQT: REMARK H PARENT 10 29
INPUT-LIGAND-PDBQT: ROOT
INPUT-LIGAND-PDBQT: ATOM      1  C   UNL     1       0.502  -0.258  -0.585  1.00  0.00    -0.015 C 
INPUT-LIGAND-PDBQT: ENDROOT
INPUT-LIGAND-PDBQT: BRANCH   1   2
INPUT-LIGAND-PDBQT: ATOM      2  N   UNL     1      -0.474  -1.203  -1.114  1.00  0.00    -0.640 NA
INPUT-LIGAND-PDBQT: BRANCH   2   3
INPUT-LIGAND-PDBQT: ATOM      3  C   UNL     1      -0.529  -2.599  -0.797  1.00  0.00     0.101 C 
INPUT-LIGAND-PDBQT: ATOM      4  O   UNL     1      -1.556  -3.251  -1.119  1.00  0.00    -0.313 OA
INPUT-LIGAND-PDBQT: BRANCH   3   5
INPUT-LIGAND-PDBQT: ATOM      5  C   UNL     1       0.548  -3.291  -0.066  1.00  0.00     0.088 A 
INPUT-LIGAND-PDBQT: ATOM      6  C   UNL     1       1.893  -3.149  -0.442  1.00  0.00     0.031 A 
INPUT-LIGAND-PDBQT: ATOM      7  N   UNL     1       0.220  -4.133   0.953  1.00  0.00    -0.246 NA
INPUT-LIGAND-PDBQT: ATOM      8  C   UNL     1       2.883  -3.842   0.258  1.00  0.00     0.012 A 
INPUT-LIGAND-PDBQT: ATOM      9  C   UNL     1       1.161  -4.823   1.651  1.00  0.00     0.071 A 
INPUT-LIGAND-PDBQT: ATOM     10  C   UNL     1       2.527  -4.685   1.317  1.00  0.00     0.000 A 
INPUT-LIGAND-PDBQT: ATOM     11  C   UNL     1       0.780  -5.670   2.698  1.00  0.00     0.029 A 
INPUT-LIGAND-PDBQT: ATOM     12  C   UNL     1       3.495  -5.399   2.039  1.00  0.00     0.010 A 
INPUT-LIGAND-PDBQT: ATOM     13  C   UNL     1       1.752  -6.378   3.413  1.00  0.00     0.002 A 
INPUT-LIGAND-PDBQT: ATOM     14  C   UNL     1       3.105  -6.242   3.085  1.00  0.00     0.001 A 
INPUT-LIGAND-PDBQT: ENDBRANCH   3   5
INPUT-LIGAND-PDBQT: ENDBRANCH   2   3
INPUT-LIGAND-PDBQT: ENDBRANCH   1   2
INPUT-LIGAND-PDBQT: BRANCH   1  15
INPUT-LIGAND-PDBQT: ATOM     15  C   UNL     1      -0.008   1.138  -0.773  1.00  0.00     0.205 C 
INPUT-LIGAND-PDBQT: ATOM     16  O   UNL     1       0.469   1.841  -1.705  1.00  0.00    -0.277 OA
INPUT-LIGAND-PDBQT: BRANCH  15  17
INPUT-LIGAND-PDBQT: ATOM     17  N   UNL     1      -1.054   1.674   0.061  1.00  0.00    -0.334 N 
INPUT-LIGAND-PDBQT: ATOM     18  C   UNL     1      -1.725   0.920   1.109  1.00  0.00     0.151 C 
INPUT-LIGAND-PDBQT: ATOM     19  C   UNL     1      -1.632   2.997  -0.141  1.00  0.00     0.118 C 
INPUT-LIGAND-PDBQT: ATOM     20  C   UNL     1      -2.710   1.894   1.753  1.00  0.00     0.136 C 
INPUT-LIGAND-PDBQT: ATOM     21  C   UNL     1      -2.876   3.039   0.750  1.00  0.00     0.063 C 
INPUT-LIGAND-PDBQT: BRANCH  19  22
INPUT-LIGAND-PDBQT: ATOM     22  C   UNL     1      -0.643   4.086   0.225  1.00  0.00    -0.025 A 
INPUT-LIGAND-PDBQT: ATOM     23  C   UNL     1       0.133   4.002   1.396  1.00  0.00     0.006 A 
INPUT-LIGAND-PDBQT: ATOM     24  C   UNL     1      -0.525   5.225  -0.591  1.00  0.00     0.006 A 
INPUT-LIGAND-PDBQT: ATOM     25  C   UNL     1       1.023   5.027   1.729  1.00  0.00     0.000 A 
INPUT-LIGAND-PDBQT: ATOM     26  C   UNL     1       0.364   6.249  -0.253  1.00  0.00     0.000 A 
INPUT-LIGAND-PDBQT: ATOM     27  C   UNL     1       1.140   6.149   0.905  1.00  0.00     0.000 A 
INPUT-LIGAND-PDBQT: ENDBRANCH  19  22
INPUT-LIGAND-PDBQT: BRANCH  20  28
INPUT-LIGAND-PDBQT: ATOM     28  O   UNL     1      -3.934   1.260   2.012  1.00  0.00    -0.391 OA
INPUT-LIGAND-PDBQT: ATOM     29  H   UNL     1      -4.459   1.885   2.578  1.00  0.00     0.211 HD
INPUT-LIGAND-PDBQT: ENDBRANCH  20  28
INPUT-LIGAND-PDBQT: ENDBRANCH  15  17
INPUT-LIGAND-PDBQT: ENDBRANCH   1  15
INPUT-LIGAND-PDBQT: TORSDOF 7


    FINAL DOCKED STATE:
    ________________________


Run:   1 / 20
Time taken for this run:   0.049s

DOCKED: MODEL        1
DOCKED: USER    Run = 1
DOCKED: USER
DOCKED: USER    Estimated Free Energy of Binding    =  -8.22 kcal/mol  [=(1)+(2)+(3)-(4)]
DOCKED: USER
DOCKED: USER    (1) Final Intermolecular Energy     = -10.31 kcal/mol
DOCKED: USER        vdW + Hbond + desolv Energy     = -10.13 kcal/mol
DOCKED: USER        Electrostatic Energy            =  -0.18 kcal/mol
DOCKED: USER        Moving Ligand-Fixed Receptor    = -10.31 kcal/mol
DOCKED: USER        Moving Ligand-Moving Receptor   =  +0.00 kcal/mol
DOCKED: USER    (2) Final Total Internal Energy     =  -1.52 kcal/mol
DOCKED: USER    (3) Torsional Free Energy           =  +2.09 kcal/mol
DOCKED: USER    (4) Unbound System's Energy         =  -1.52 kcal/mol
DOCKED: USER
DOCKED: USER
DOCKED: REMARK SMILES O=C([N-]CC(=O)N1C[C@H](O)C[C@H]1c1ccccc1)c1ccc2ccccc2n1
DOCKED: REMARK SMILES IDX 4 1 3 2 2 3 1 4 19 5 20 6 28 7 21 8 27 9 22 10 26 11 23 12
DOCKED: REMARK SMILES IDX 25 13 24 14 5 15 6 16 7 17 8 18 12 19 9 20 11 21 13 22 14 23
DOCKED: REMARK SMILES IDX 18 24 15 25 17 26 16 27 10 28
DOCKED: REMARK H PARENT 10 29
DOCKED: USER                              x       y       z     vdW  Elec       q    Type
DOCKED: USER                           _______ _______ _______ _____ _____    ______ ____
DOCKED: ROOT
DOCKED: ATOM      1  C   UNL     1     140.954  71.079 220.286 -0.13 +0.00    -0.015 C  
DOCKED: ENDROOT
DOCKED: BRANCH   1   2
DOCKED: ATOM      2  N   UNL     1     139.819  71.545 221.073 +0.02 +0.11    -0.640 NA 
DOCKED: BRANCH   2   3
DOCKED: ATOM      3  C   UNL     1     139.903  72.134 222.376 -0.27 -0.02    +0.101 C  
DOCKED: ATOM      4  O   UNL     1     139.979  73.386 222.469 -0.76 +0.02    -0.313 OA 
DOCKED: BRANCH   3   5
DOCKED: ATOM      5  C   UNL     1     139.953  71.329 223.610 -0.35 -0.02    +0.088 A  
DOCKED: ATOM      6  C   UNL     1     139.437  70.024 223.651 -0.28 -0.01    +0.031 A  
DOCKED: ATOM      7  N   UNL     1     140.453  71.890 224.746 -0.26 +0.04    -0.246 NA 
DOCKED: ATOM      8  C   UNL     1     139.478  69.301 224.845 -0.38 -0.00    +0.012 A  
DOCKED: ATOM      9  C   UNL     1     140.503  71.213 225.924 -0.54 -0.01    +0.071 A  
DOCKED: ATOM     10  C   UNL     1     140.016  69.888 225.996 -0.50 -0.00    +0.000 A  
DOCKED: ATOM     11  C   UNL     1     141.035  71.825 227.065 -0.76 -0.01    +0.029 A  
DOCKED: ATOM     12  C   UNL     1     140.070  69.193 227.214 -0.59 -0.00    +0.010 A  
DOCKED: ATOM     13  C   UNL     1     141.084  71.124 228.275 -0.68 -0.00    +0.002 A  
DOCKED: ATOM     14  C   UNL     1     140.604  69.813 228.348 -0.58 -0.00    +0.001 A  
DOCKED: ENDBRANCH   3   5
DOCKED: ENDBRANCH   2   3
DOCKED: ENDBRANCH   1   2
DOCKED: BRANCH   1  15
DOCKED: ATOM     15  C   UNL     1     141.527  72.227 219.513 -0.06 -0.03    +0.205 C  
DOCKED: ATOM     16  O   UNL     1     140.791  72.834 218.688 -0.01 +0.05    -0.277 OA 
DOCKED: BRANCH  15  17
DOCKED: ATOM     17  N   UNL     1     142.881  72.673 219.723 -0.05 +0.05    -0.334 N  
DOCKED: ATOM     18  C   UNL     1     144.031  72.147 219.002 -0.14 -0.00    +0.151 C  
DOCKED: ATOM     19  C   UNL     1     143.255  73.616 220.769 -0.20 -0.03    +0.118 C  
DOCKED: ATOM     20  C   UNL     1     145.234  72.939 219.509 -0.33 +0.02    +0.136 C  
DOCKED: ATOM     21  C   UNL     1     144.784  73.579 220.825 -0.49 -0.01    +0.063 C  
DOCKED: BRANCH  19  22
DOCKED: ATOM     22  C   UNL     1     142.738  75.007 220.460 -0.30 +0.01    -0.025 A  
DOCKED: ATOM     23  C   UNL     1     141.576  75.507 221.077 -0.29 -0.00    +0.006 A  
DOCKED: ATOM     24  C   UNL     1     143.400  75.801 219.506 -0.39 -0.00    +0.006 A  
DOCKED: ATOM     25  C   UNL     1     141.102  76.784 220.761 -0.28 -0.00    +0.000 A  
DOCKED: ATOM     26  C   UNL     1     142.920  77.076 219.192 -0.35 -0.00    +0.000 A  
DOCKED: ATOM     27  C   UNL     1     141.774  77.568 219.821 -0.29 -0.00    +0.000 A  
DOCKED: ENDBRANCH  19  22
DOCKED: BRANCH  20  28
DOCKED: ATOM     28  O   UNL     1     146.336  72.093 219.703 -0.49 -0.36    -0.391 OA 
DOCKED: ATOM     29  H   UNL     1     146.148  71.573 220.528 -0.38 +0.01    +0.211 HD 
DOCKED: ENDBRANCH  20  28
DOCKED: ENDBRANCH  15  17
DOCKED: ENDBRANCH   1  15
DOCKED: TORSDOF 7
DOCKED: TER
DOCKED: ENDMDL
________________________________________________________________________________


    FINAL DOCKED STATE:
    ________________________


Run:   2 / 20
Time taken for this run:   0.049s

DOCKED: MODEL        2
DOCKED: USER    Run = 2
DOCKED: USER
DOCKED: USER    Estimated Free Energy of Binding    =  -8.36 kcal/mol  [=(1)+(2)+(3)-(4)]
DOCKED: USER
DOCKED: USER    (1) Final Intermolecular Energy     = -10.45 kcal/mol
DOCKED: USER        vdW + Hbond + desolv Energy     = -10.47 kcal/mol
DOCKED: USER        Electrostatic Energy            =  +0.02 kcal/mol
DOCKED: USER        Moving Ligand-Fixed Receptor    = -10.45 kcal/mol
DOCKED: USER        Moving Ligand-Moving Receptor   =  +0.00 kcal/mol
DOCKED: USER    (2) Final Total Internal Energy     =  -1.46 kcal/mol
DOCKED: USER    (3) Torsional Free Energy           =  +2.09 kcal/mol
DOCKED: USER    (4) Unbound System's Energy         =  -1.46 kcal/mol
DOCKED: USER
DOCKED: USER
DOCKED: REMARK SMILES O=C([N-]CC(=O)N1C[C@H](O)C[C@H]1c1ccccc1)c1ccc2ccccc2n1
DOCKED: REMARK SMILES IDX 4 1 3 2 2 3 1 4 19 5 20 6 28 7 21 8 27 9 22 10 26 11 23 12
DOCKED: REMARK SMILES IDX 25 13 24 14 5 15 6 16 7 17 8 18 12 19 9 20 11 21 13 22 14 23
DOCKED: REMARK SMILES IDX 18 24 15 25 17 26 16 27 10 28
DOCKED: REMARK H PARENT 10 29
DOCKED: USER                              x       y       z     vdW  Elec       q    Type
DOCKED: USER                           _______ _______ _______ _____ _____    ______ ____
DOCKED: ROOT
DOCKED: ATOM      1  C   UNL     1     139.972  74.524 221.049 -0.24 +0.00    -0.015 C  
DOCKED: ENDROOT
DOCKED: BRANCH   1   2
DOCKED: ATOM      2  N   UNL     1     139.909  73.685 222.240 -0.59 +0.06    -0.640 NA 
DOCKED: BRANCH   2   3
DOCKED: ATOM      3  C   UNL     1     140.610  72.449 222.418 -0.26 -0.01    +0.101 C  
DOCKED: ATOM      4  O   UNL     1     141.457  72.105 221.553 -0.16 +0.03    -0.313 OA 
DOCKED: BRANCH   3   5
DOCKED: ATOM      5  C   UNL     1     140.344  71.541 223.548 -0.35 -0.01    +0.088 A  
DOCKED: ATOM      6  C   UNL     1     139.612  70.356 223.375 -0.27 -0.01    +0.031 A  
DOCKED: ATOM      7  N   UNL     1     140.766  71.895 224.794 -0.24 +0.03    -0.246 NA 
DOCKED: ATOM      8  C   UNL     1     139.358  69.534 224.476 -0.34 -0.00    +0.012 A  
DOCKED: ATOM      9  C   UNL     1     140.531  71.118 225.884 -0.55 -0.01    +0.071 A  
DOCKED: ATOM     10  C   UNL     1     139.819  69.905 225.744 -0.47 -0.00    +0.000 A  
DOCKED: ATOM     11  C   UNL     1     140.991  71.516 227.145 -0.74 -0.00    +0.029 A  
DOCKED: ATOM     12  C   UNL     1     139.578  69.105 226.871 -0.54 -0.00    +0.010 A  
DOCKED: ATOM     13  C   UNL     1     140.746  70.712 228.264 -0.62 -0.00    +0.002 A  
DOCKED: ATOM     14  C   UNL     1     140.043  69.510 228.127 -0.63 -0.00    +0.001 A  
DOCKED: ENDBRANCH   3   5
DOCKED: ENDBRANCH   2   3
DOCKED: ENDBRANCH   1   2
DOCKED: BRANCH   1  15
DOCKED: ATOM     15  C   UNL     1     141.080  75.520 221.203 -0.24 -0.06    +0.205 C  
DOCKED: ATOM     16  O   UNL     1     141.360  75.947 222.356 -0.28 +0.09    -0.277 OA 
DOCKED: BRANCH  15  17
DOCKED: ATOM     17  N   UNL     1     141.852  75.966 220.070 -0.11 +0.15    -0.334 N  
DOCKED: ATOM     18  C   UNL     1     142.064  77.365 219.730 -0.25 -0.09    +0.151 C  
DOCKED: ATOM     19  C   UNL     1     142.404  75.053 219.076 -0.17 -0.04    +0.118 C  
DOCKED: ATOM     20  C   UNL     1     142.972  77.359 218.502 -0.25 -0.10    +0.136 C  
DOCKED: ATOM     21  C   UNL     1     142.878  75.943 217.925 -0.21 -0.03    +0.063 C  
DOCKED: BRANCH  19  22
DOCKED: ATOM     22  C   UNL     1     143.540  74.236 219.658 -0.32 +0.01    -0.025 A  
DOCKED: ATOM     23  C   UNL     1     143.587  72.838 219.501 -0.23 -0.00    +0.006 A  
DOCKED: ATOM     24  C   UNL     1     144.546  74.872 220.407 -0.39 -0.00    +0.006 A  
DOCKED: ATOM     25  C   UNL     1     144.631  72.098 220.064 -0.36 -0.00    +0.000 A  
DOCKED: ATOM     26  C   UNL     1     145.586  74.128 220.971 -0.59 -0.00    +0.000 A  
DOCKED: ATOM     27  C   UNL     1     145.630  72.742 220.797 -0.55 -0.00    +0.000 A  
DOCKED: ENDBRANCH  19  22
DOCKED: BRANCH  20  28
DOCKED: ATOM     28  O   UNL     1     142.550  78.319 217.571 -0.18 +0.34    -0.391 OA 
DOCKED: ATOM     29  H   UNL     1     143.374  78.714 217.182 -0.35 -0.32    +0.211 HD 
DOCKED: ENDBRANCH  20  28
DOCKED: ENDBRANCH  15  17
DOCKED: ENDBRANCH   1  15
DOCKED: TORSDOF 7
DOCKED: TER
DOCKED: ENDMDL
________________________________________________________________________________


    FINAL DOCKED STATE:
    ________________________


Run:   3 / 20
Time taken for this run:   0.049s

DOCKED: MODEL        3
DOCKED: USER    Run = 3
DOCKED: USER
DOCKED: USER    Estimated Free Energy of Binding    =  -8.51 kcal/mol  [=(1)+(2)+(3)-(4)]
DOCKED: USER
DOCKED: USER    (1) Final Intermolecular Energy     = -10.60 kcal/mol
DOCKED: USER        vdW + Hbond + desolv Energy     = -10.55 kcal/mol
DOCKED: USER        Electrostatic Energy            =  -0.05 kcal/mol
DOCKED: USER        Moving Ligand-Fixed Receptor    = -10.60 kcal/mol
DOCKED: USER        Moving Ligand-Moving Receptor   =  +0.00 kcal/mol
DOCKED: USER    (2) Final Total Internal Energy     =  -1.46 kcal/mol
DOCKED: USER    (3) Torsional Free Energy           =  +2.09 kcal/mol
DOCKED: USER    (4) Unbound System's Energy         =  -1.46 kcal/mol
DOCKED: USER
DOCKED: USER
DOCKED: REMARK SMILES O=C([N-]CC(=O)N1C[C@H](O)C[C@H]1c1ccccc1)c1ccc2ccccc2n1
DOCKED: REMARK SMILES IDX 4 1 3 2 2 3 1 4 19 5 20 6 28 7 21 8 27 9 22 10 26 11 23 12
DOCKED: REMARK SMILES IDX 25 13 24 14 5 15 6 16 7 17 8 18 12 19 9 20 11 21 13 22 14 23
DOCKED: REMARK SMILES IDX 18 24 15 25 17 26 16 27 10 28
DOCKED: REMARK H PARENT 10 29
DOCKED: USER                              x       y       z     vdW  Elec       q    Type
DOCKED: USER                           _______ _______ _______ _____ _____    ______ ____
DOCKED: ROOT
DOCKED: ATOM      1  C   UNL     1     140.018  74.621 221.346 -0.27 +0.00    -0.015 C  
DOCKED: ENDROOT
DOCKED: BRANCH   1   2
DOCKED: ATOM      2  N   UNL     1     140.502  73.674 222.343 -0.52 -0.03    -0.640 NA 
DOCKED: BRANCH   2   3
DOCKED: ATOM      3  C   UNL     1     140.319  72.254 222.293 -0.28 -0.01    +0.101 C  
DOCKED: ATOM      4  O   UNL     1     140.195  71.701 221.169 -0.09 +0.05    -0.313 OA 
DOCKED: BRANCH   3   5
DOCKED: ATOM      5  C   UNL     1     140.220  71.422 223.506 -0.34 -0.01    +0.088 A  
DOCKED: ATOM      6  C   UNL     1     139.579  70.174 223.484 -0.27 -0.01    +0.031 A  
DOCKED: ATOM      7  N   UNL     1     140.707  71.908 224.681 -0.24 +0.03    -0.246 NA 
DOCKED: ATOM      8  C   UNL     1     139.482  69.426 224.659 -0.36 -0.00    +0.012 A  
DOCKED: ATOM      9  C   UNL     1     140.625  71.204 225.842 -0.55 -0.01    +0.071 A  
DOCKED: ATOM     10  C   UNL     1     140.009  69.933 225.853 -0.49 -0.00    +0.000 A  
DOCKED: ATOM     11  C   UNL     1     141.148  71.737 227.026 -0.74 -0.00    +0.029 A  
DOCKED: ATOM     12  C   UNL     1     139.925  69.211 227.053 -0.57 -0.00    +0.010 A  
DOCKED: ATOM     13  C   UNL     1     141.060  71.010 228.218 -0.68 -0.00    +0.002 A  
DOCKED: ATOM     14  C   UNL     1     140.452  69.750 228.231 -0.61 -0.00    +0.001 A  
DOCKED: ENDBRANCH   3   5
DOCKED: ENDBRANCH   2   3
DOCKED: ENDBRANCH   1   2
DOCKED: BRANCH   1  15
DOCKED: ATOM     15  C   UNL     1     140.893  75.837 221.351 -0.25 -0.06    +0.205 C  
DOCKED: ATOM     16  O   UNL     1     140.928  76.558 222.385 -0.33 +0.09    -0.277 OA 
DOCKED: BRANCH  15  17
DOCKED: ATOM     17  N   UNL     1     141.719  76.173 220.219 -0.11 +0.16    -0.334 N  
DOCKED: ATOM     18  C   UNL     1     142.012  77.536 219.803 -0.24 -0.09    +0.151 C  
DOCKED: ATOM     19  C   UNL     1     142.251  75.175 219.300 -0.18 -0.04    +0.118 C  
DOCKED: ATOM     20  C   UNL     1     142.953  77.409 218.606 -0.26 -0.10    +0.136 C  
DOCKED: ATOM     21  C   UNL     1     142.804  75.967 218.112 -0.22 -0.03    +0.063 C  
DOCKED: BRANCH  19  22
DOCKED: ATOM     22  C   UNL     1     143.327  74.339 219.965 -0.33 +0.01    -0.025 A  
DOCKED: ATOM     23  C   UNL     1     144.586  74.885 220.277 -0.35 -0.00    +0.006 A  
DOCKED: ATOM     24  C   UNL     1     143.086  72.981 220.239 -0.27 -0.00    +0.006 A  
DOCKED: ATOM     25  C   UNL     1     145.573  74.092 220.869 -0.63 -0.00    +0.000 A  
DOCKED: ATOM     26  C   UNL     1     144.077  72.191 220.828 -0.35 -0.00    +0.000 A  
DOCKED: ATOM     27  C   UNL     1     145.319  72.747 221.146 -0.48 -0.00    +0.000 A  
DOCKED: ENDBRANCH  19  22
DOCKED: BRANCH  20  28
DOCKED: ATOM     28  O   UNL     1     142.608  78.330 217.606 -0.18 +0.34    -0.391 OA 
DOCKED: ATOM     29  H   UNL     1     143.462  78.707 217.266 -0.34 -0.32    +0.211 HD 
DOCKED: ENDBRANCH  20  28
DOCKED: ENDBRANCH  15  17
DOCKED: ENDBRANCH   1  15
DOCKED: TORSDOF 7
DOCKED: TER
DOCKED: ENDMDL
________________________________________________________________________________


    FINAL DOCKED STATE:
    ________________________


Run:   4 / 20
Time taken for this run:   0.049s

DOCKED: MODEL        4
DOCKED: USER    Run = 4
DOCKED: USER
DOCKED: USER    Estimated Free Energy of Binding    =  -7.61 kcal/mol  [=(1)+(2)+(3)-(4)]
DOCKED: USER
DOCKED: USER    (1) Final Intermolecular Energy     =  -9.70 kcal/mol
DOCKED: USER        vdW + Hbond + desolv Energy     =  -9.59 kcal/mol
DOCKED: USER        Electrostatic Energy            =  -0.10 kcal/mol
DOCKED: USER        Moving Ligand-Fixed Receptor    =  -9.70 kcal/mol
DOCKED: USER        Moving Ligand-Moving Receptor   =  +0.00 kcal/mol
DOCKED: USER    (2) Final Total Internal Energy     =  -1.95 kcal/mol
DOCKED: USER    (3) Torsional Free Energy           =  +2.09 kcal/mol
DOCKED: USER    (4) Unbound System's Energy         =  -1.95 kcal/mol
DOCKED: USER
DOCKED: USER
DOCKED: REMARK SMILES O=C([N-]CC(=O)N1C[C@H](O)C[C@H]1c1ccccc1)c1ccc2ccccc2n1
DOCKED: REMARK SMILES IDX 4 1 3 2 2 3 1 4 19 5 20 6 28 7 21 8 27 9 22 10 26 11 23 12
DOCKED: REMARK SMILES IDX 25 13 24 14 5 15 6 16 7 17 8 18 12 19 9 20 11 21 13 22 14 23
DOCKED: REMARK SMILES IDX 18 24 15 25 17 26 16 27 10 28
DOCKED: REMARK H PARENT 10 29
DOCKED: USER                              x       y       z     vdW  Elec       q    Type
DOCKED: USER                           _______ _______ _______ _____ _____    ______ ____
DOCKED: ROOT
DOCKED: ATOM      1  C   UNL     1     140.653  73.717 219.826 -0.11 +0.00    -0.015 C  
DOCKED: ENDROOT
DOCKED: BRANCH   1   2
DOCKED: ATOM      2  N   UNL     1     140.257  75.042 220.286 +0.04 +0.16    -0.640 NA 
DOCKED: BRANCH   2   3
DOCKED: ATOM      3  C   UNL     1     139.885  75.374 221.629 -0.28 -0.02    +0.101 C  
DOCKED: ATOM      4  O   UNL     1     139.459  74.460 222.381 -0.70 +0.05    -0.313 OA 
DOCKED: BRANCH   3   5
DOCKED: ATOM      5  C   UNL     1     139.936  76.752 222.150 -0.33 -0.02    +0.088 A  
DOCKED: ATOM      6  C   UNL     1     138.764  77.496 222.361 -0.28 -0.01    +0.031 A  
DOCKED: ATOM      7  N   UNL     1     141.149  77.332 222.369 -0.24 +0.11    -0.246 NA 
DOCKED: ATOM      8  C   UNL     1     138.854  78.809 222.830 -0.30 -0.00    +0.012 A  
DOCKED: ATOM      9  C   UNL     1     141.268  78.608 222.823 -0.47 -0.03    +0.071 A  
DOCKED: ATOM     10  C   UNL     1     140.110  79.378 223.071 -0.42 -0.00    +0.000 A  
DOCKED: ATOM     11  C   UNL     1     142.535  79.160 223.044 -0.53 -0.01    +0.029 A  
DOCKED: ATOM     12  C   UNL     1     140.237  80.695 223.538 -0.43 -0.00    +0.010 A  
DOCKED: ATOM     13  C   UNL     1     142.653  80.474 223.511 -0.68 -0.00    +0.002 A  
DOCKED: ATOM     14  C   UNL     1     141.508  81.238 223.758 -0.54 -0.00    +0.001 A  
DOCKED: ENDBRANCH   3   5
DOCKED: ENDBRANCH   2   3
DOCKED: ENDBRANCH   1   2
DOCKED: BRANCH   1  15
DOCKED: ATOM     15  C   UNL     1     141.752  73.197 220.701 -0.17 -0.03    +0.205 C  
DOCKED: ATOM     16  O   UNL     1     141.451  72.631 221.787 -0.23 +0.02    -0.277 OA 
DOCKED: BRANCH  15  17
DOCKED: ATOM     17  N   UNL     1     143.135  73.297 220.308 -0.12 +0.07    -0.334 N  
DOCKED: ATOM     18  C   UNL     1     143.924  72.177 219.818 -0.21 -0.01    +0.151 C  
DOCKED: ATOM     19  C   UNL     1     143.923  74.512 220.476 -0.33 -0.05    +0.118 C  
DOCKED: ATOM     20  C   UNL     1     145.298  72.754 219.481 -0.32 +0.03    +0.136 C  
DOCKED: ATOM     21  C   UNL     1     145.373  74.097 220.214 -0.38 -0.02    +0.063 C  
DOCKED: BRANCH  19  22
DOCKED: ATOM     22  C   UNL     1     143.468  75.594 219.517 -0.38 +0.01    -0.025 A  
DOCKED: ATOM     23  C   UNL     1     142.817  76.752 219.981 -0.29 -0.00    +0.006 A  
DOCKED: ATOM     24  C   UNL     1     143.655  75.425 218.133 -0.22 -0.00    +0.006 A  
DOCKED: ATOM     25  C   UNL     1     142.383  77.728 219.079 -0.30 -0.00    +0.000 A  
DOCKED: ATOM     26  C   UNL     1     143.218  76.402 217.235 -0.25 -0.00    +0.000 A  
DOCKED: ATOM     27  C   UNL     1     142.585  77.555 217.708 -0.29 -0.00    +0.000 A  
DOCKED: ENDBRANCH  19  22
DOCKED: BRANCH  20  28
DOCKED: ATOM     28  O   UNL     1     146.315  71.885 219.901 -0.41 -0.29    -0.391 OA 
DOCKED: ATOM     29  H   UNL     1     146.122  71.665 220.850 -0.42 -0.05    +0.211 HD 
DOCKED: ENDBRANCH  20  28
DOCKED: ENDBRANCH  15  17
DOCKED: ENDBRANCH   1  15
DOCKED: TORSDOF 7
DOCKED: TER
DOCKED: ENDMDL
________________________________________________________________________________


    FINAL DOCKED STATE:
    ________________________


Run:   5 / 20
Time taken for this run:   0.049s

DOCKED: MODEL        5
DOCKED: USER    Run = 5
DOCKED: USER
DOCKED: USER    Estimated Free Energy of Binding    =  -7.61 kcal/mol  [=(1)+(2)+(3)-(4)]
DOCKED: USER
DOCKED: USER    (1) Final Intermolecular Energy     =  -9.70 kcal/mol
DOCKED: USER        vdW + Hbond + desolv Energy     =  -9.59 kcal/mol
DOCKED: USER        Electrostatic Energy            =  -0.11 kcal/mol
DOCKED: USER        Moving Ligand-Fixed Receptor    =  -9.70 kcal/mol
DOCKED: USER        Moving Ligand-Moving Receptor   =  +0.00 kcal/mol
DOCKED: USER    (2) Final Total Internal Energy     =  -1.95 kcal/mol
DOCKED: USER    (3) Torsional Free Energy           =  +2.09 kcal/mol
DOCKED: USER    (4) Unbound System's Energy         =  -1.95 kcal/mol
DOCKED: USER
DOCKED: USER
DOCKED: REMARK SMILES O=C([N-]CC(=O)N1C[C@H](O)C[C@H]1c1ccccc1)c1ccc2ccccc2n1
DOCKED: REMARK SMILES IDX 4 1 3 2 2 3 1 4 19 5 20 6 28 7 21 8 27 9 22 10 26 11 23 12
DOCKED: REMARK SMILES IDX 25 13 24 14 5 15 6 16 7 17 8 18 12 19 9 20 11 21 13 22 14 23
DOCKED: REMARK SMILES IDX 18 24 15 25 17 26 16 27 10 28
DOCKED: REMARK H PARENT 10 29
DOCKED: USER                              x       y       z     vdW  Elec       q    Type
DOCKED: USER                           _______ _______ _______ _____ _____    ______ ____
DOCKED: ROOT
DOCKED: ATOM      1  C   UNL     1     140.648  73.716 219.814 -0.11 +0.00    -0.015 C  
DOCKED: ENDROOT
DOCKED: BRANCH   1   2
DOCKED: ATOM      2  N   UNL     1     140.239  75.037 220.278 +0.04 +0.16    -0.640 NA 
DOCKED: BRANCH   2   3
DOCKED: ATOM      3  C   UNL     1     139.922  75.375 221.634 -0.28 -0.02    +0.101 C  
DOCKED: ATOM      4  O   UNL     1     139.541  74.461 222.410 -0.71 +0.04    -0.313 OA 
DOCKED: BRANCH   3   5
DOCKED: ATOM      5  C   UNL     1     139.979  76.758 222.142 -0.33 -0.02    +0.088 A  
DOCKED: ATOM      6  C   UNL     1     138.810  77.508 222.347 -0.28 -0.01    +0.031 A  
DOCKED: ATOM      7  N   UNL     1     141.194  77.335 222.354 -0.22 +0.11    -0.246 NA 
DOCKED: ATOM      8  C   UNL     1     138.905  78.824 222.804 -0.30 -0.00    +0.012 A  
DOCKED: ATOM      9  C   UNL     1     141.318  78.615 222.795 -0.47 -0.03    +0.071 A  
DOCKED: ATOM     10  C   UNL     1     140.163  79.391 223.037 -0.42 -0.00    +0.000 A  
DOCKED: ATOM     11  C   UNL     1     142.587  79.165 223.010 -0.51 -0.01    +0.029 A  
DOCKED: ATOM     12  C   UNL     1     140.295  80.712 223.492 -0.44 -0.00    +0.010 A  
DOCKED: ATOM     13  C   UNL     1     142.710  80.482 223.464 -0.68 -0.00    +0.002 A  
DOCKED: ATOM     14  C   UNL     1     141.568  81.253 223.705 -0.56 -0.00    +0.001 A  
DOCKED: ENDBRANCH   3   5
DOCKED: ENDBRANCH   2   3
DOCKED: ENDBRANCH   1   2
DOCKED: BRANCH   1  15
DOCKED: ATOM     15  C   UNL     1     141.748  73.201 220.691 -0.17 -0.03    +0.205 C  
DOCKED: ATOM     16  O   UNL     1     141.447  72.642 221.781 -0.23 +0.02    -0.277 OA 
DOCKED: BRANCH  15  17
DOCKED: ATOM     17  N   UNL     1     143.130  73.298 220.296 -0.12 +0.07    -0.334 N  
DOCKED: ATOM     18  C   UNL     1     143.918  72.174 219.812 -0.21 -0.01    +0.151 C  
DOCKED: ATOM     19  C   UNL     1     143.919  74.514 220.454 -0.34 -0.05    +0.118 C  
DOCKED: ATOM     20  C   UNL     1     145.292  72.749 219.470 -0.32 +0.03    +0.136 C  
DOCKED: ATOM     21  C   UNL     1     145.368  74.097 220.194 -0.37 -0.02    +0.063 C  
DOCKED: BRANCH  19  22
DOCKED: ATOM     22  C   UNL     1     143.463  75.590 219.489 -0.38 +0.01    -0.025 A  
DOCKED: ATOM     23  C   UNL     1     142.823  76.756 219.947 -0.30 -0.00    +0.006 A  
DOCKED: ATOM     24  C   UNL     1     143.637  75.406 218.106 -0.22 -0.00    +0.006 A  
DOCKED: ATOM     25  C   UNL     1     142.388  77.727 219.039 -0.31 -0.00    +0.000 A  
DOCKED: ATOM     26  C   UNL     1     143.199  76.377 217.201 -0.25 -0.00    +0.000 A  
DOCKED: ATOM     27  C   UNL     1     142.577  77.539 217.668 -0.29 -0.00    +0.000 A  
DOCKED: ENDBRANCH  19  22
DOCKED: BRANCH  20  28
DOCKED: ATOM     28  O   UNL     1     146.310  71.883 219.894 -0.41 -0.29    -0.391 OA 
DOCKED: ATOM     29  H   UNL     1     146.086  71.623 220.826 -0.41 -0.06    +0.211 HD 
DOCKED: ENDBRANCH  20  28
DOCKED: ENDBRANCH  15  17
DOCKED: ENDBRANCH   1  15
DOCKED: TORSDOF 7
DOCKED: TER
DOCKED: ENDMDL
________________________________________________________________________________


    FINAL DOCKED STATE:
    ________________________


Run:   6 / 20
Time taken for this run:   0.049s

DOCKED: MODEL        6
DOCKED: USER    Run = 6
DOCKED: USER
DOCKED: USER    Estimated Free Energy of Binding    =  -8.19 kcal/mol  [=(1)+(2)+(3)-(4)]
DOCKED: USER
DOCKED: USER    (1) Final Intermolecular Energy     = -10.28 kcal/mol
DOCKED: USER        vdW + Hbond + desolv Energy     = -10.09 kcal/mol
DOCKED: USER        Electrostatic Energy            =  -0.19 kcal/mol
DOCKED: USER        Moving Ligand-Fixed Receptor    = -10.28 kcal/mol
DOCKED: USER        Moving Ligand-Moving Receptor   =  +0.00 kcal/mol
DOCKED: USER    (2) Final Total Internal Energy     =  -1.52 kcal/mol
DOCKED: USER    (3) Torsional Free Energy           =  +2.09 kcal/mol
DOCKED: USER    (4) Unbound System's Energy         =  -1.52 kcal/mol
DOCKED: USER
DOCKED: USER
DOCKED: REMARK SMILES O=C([N-]CC(=O)N1C[C@H](O)C[C@H]1c1ccccc1)c1ccc2ccccc2n1
DOCKED: REMARK SMILES IDX 4 1 3 2 2 3 1 4 19 5 20 6 28 7 21 8 27 9 22 10 26 11 23 12
DOCKED: REMARK SMILES IDX 25 13 24 14 5 15 6 16 7 17 8 18 12 19 9 20 11 21 13 22 14 23
DOCKED: REMARK SMILES IDX 18 24 15 25 17 26 16 27 10 28
DOCKED: REMARK H PARENT 10 29
DOCKED: USER                              x       y       z     vdW  Elec       q    Type
DOCKED: USER                           _______ _______ _______ _____ _____    ______ ____
DOCKED: ROOT
DOCKED: ATOM      1  C   UNL     1     140.915  71.118 220.115 -0.12 +0.00    -0.015 C  
DOCKED: ENDROOT
DOCKED: BRANCH   1   2
DOCKED: ATOM      2  N   UNL     1     139.872  71.560 221.033 +0.02 +0.11    -0.640 NA 
DOCKED: BRANCH   2   3
DOCKED: ATOM      3  C   UNL     1     140.098  72.135 222.326 -0.27 -0.01    +0.101 C  
DOCKED: ATOM      4  O   UNL     1     140.359  73.364 222.402 -0.75 +0.00    -0.313 OA 
DOCKED: BRANCH   3   5
DOCKED: ATOM      5  C   UNL     1     140.086  71.336 223.565 -0.34 -0.01    +0.088 A  
DOCKED: ATOM      6  C   UNL     1     139.533  70.046 223.595 -0.27 -0.01    +0.031 A  
DOCKED: ATOM      7  N   UNL     1     140.564  71.890 224.713 -0.26 +0.04    -0.246 NA 
DOCKED: ATOM      8  C   UNL     1     139.516  69.330 224.794 -0.37 -0.00    +0.012 A  
DOCKED: ATOM      9  C   UNL     1     140.557  71.220 225.896 -0.55 -0.01    +0.071 A  
DOCKED: ATOM     10  C   UNL     1     140.032  69.909 225.959 -0.50 -0.00    +0.000 A  
DOCKED: ATOM     11  C   UNL     1     141.068  71.824 227.050 -0.77 -0.01    +0.029 A  
DOCKED: ATOM     12  C   UNL     1     140.027  69.221 227.181 -0.58 -0.00    +0.010 A  
DOCKED: ATOM     13  C   UNL     1     141.059  71.130 228.265 -0.69 -0.00    +0.002 A  
DOCKED: ATOM     14  C   UNL     1     140.541  69.832 228.330 -0.59 -0.00    +0.001 A  
DOCKED: ENDBRANCH   3   5
DOCKED: ENDBRANCH   2   3
DOCKED: ENDBRANCH   1   2
DOCKED: BRANCH   1  15
DOCKED: ATOM     15  C   UNL     1     141.491  72.308 219.410 -0.05 -0.04    +0.205 C  
DOCKED: ATOM     16  O   UNL     1     140.755  72.967 218.626 -0.01 +0.06    -0.277 OA 
DOCKED: BRANCH  15  17
DOCKED: ATOM     17  N   UNL     1     142.848  72.733 219.641 -0.05 +0.05    -0.334 N  
DOCKED: ATOM     18  C   UNL     1     144.004  72.161 218.967 -0.14 -0.00    +0.151 C  
DOCKED: ATOM     19  C   UNL     1     143.215  73.702 220.666 -0.23 -0.03    +0.118 C  
DOCKED: ATOM     20  C   UNL     1     145.211  72.945 219.480 -0.33 +0.02    +0.136 C  
DOCKED: ATOM     21  C   UNL     1     144.741  73.637 220.763 -0.48 -0.01    +0.063 C  
DOCKED: BRANCH  19  22
DOCKED: ATOM     22  C   UNL     1     142.735  75.092 220.299 -0.31 +0.01    -0.025 A  
DOCKED: ATOM     23  C   UNL     1     143.406  75.863 219.331 -0.38 -0.00    +0.006 A  
DOCKED: ATOM     24  C   UNL     1     141.627  75.647 220.964 -0.28 -0.00    +0.006 A  
DOCKED: ATOM     25  C   UNL     1     142.963  77.152 219.023 -0.36 -0.00    +0.000 A  
DOCKED: ATOM     26  C   UNL     1     141.188  76.937 220.654 -0.28 -0.00    +0.000 A  
DOCKED: ATOM     27  C   UNL     1     141.854  77.689 219.682 -0.29 -0.00    +0.000 A  
DOCKED: ENDBRANCH  19  22
DOCKED: BRANCH  20  28
DOCKED: ATOM     28  O   UNL     1     146.290  72.084 219.729 -0.50 -0.33    -0.391 OA 
DOCKED: ATOM     29  H   UNL     1     146.059  71.577 220.551 -0.38 -0.00    +0.211 HD 
DOCKED: ENDBRANCH  20  28
DOCKED: ENDBRANCH  15  17
DOCKED: ENDBRANCH   1  15
DOCKED: TORSDOF 7
DOCKED: TER
DOCKED: ENDMDL
________________________________________________________________________________


    FINAL DOCKED STATE:
    ________________________


Run:   7 / 20
Time taken for this run:   0.049s

DOCKED: MODEL        7
DOCKED: USER    Run = 7
DOCKED: USER
DOCKED: USER    Estimated Free Energy of Binding    =  -8.04 kcal/mol  [=(1)+(2)+(3)-(4)]
DOCKED: USER
DOCKED: USER    (1) Final Intermolecular Energy     = -10.13 kcal/mol
DOCKED: USER        vdW + Hbond + desolv Energy     =  -9.87 kcal/mol
DOCKED: USER        Electrostatic Energy            =  -0.26 kcal/mol
DOCKED: USER        Moving Ligand-Fixed Receptor    = -10.13 kcal/mol
DOCKED: USER        Moving Ligand-Moving Receptor   =  +0.00 kcal/mol
DOCKED: USER    (2) Final Total Internal Energy     =  -1.41 kcal/mol
DOCKED: USER    (3) Torsional Free Energy           =  +2.09 kcal/mol
DOCKED: USER    (4) Unbound System's Energy         =  -1.41 kcal/mol
DOCKED: USER
DOCKED: USER
DOCKED: REMARK SMILES O=C([N-]CC(=O)N1C[C@H](O)C[C@H]1c1ccccc1)c1ccc2ccccc2n1
DOCKED: REMARK SMILES IDX 4 1 3 2 2 3 1 4 19 5 20 6 28 7 21 8 27 9 22 10 26 11 23 12
DOCKED: REMARK SMILES IDX 25 13 24 14 5 15 6 16 7 17 8 18 12 19 9 20 11 21 13 22 14 23
DOCKED: REMARK SMILES IDX 18 24 15 25 17 26 16 27 10 28
DOCKED: REMARK H PARENT 10 29
DOCKED: USER                              x       y       z     vdW  Elec       q    Type
DOCKED: USER                           _______ _______ _______ _____ _____    ______ ____
DOCKED: ROOT
DOCKED: ATOM      1  C   UNL     1     140.698  72.277 219.917 -0.10 +0.00    -0.015 C  
DOCKED: ENDROOT
DOCKED: BRANCH   1   2
DOCKED: ATOM      2  N   UNL     1     141.092  72.009 221.295 +0.01 +0.08    -0.640 NA 
DOCKED: BRANCH   2   3
DOCKED: ATOM      3  C   UNL     1     140.363  72.419 222.458 -0.28 -0.01    +0.101 C  
DOCKED: ATOM      4  O   UNL     1     139.912  73.593 222.504 -0.76 +0.02    -0.313 OA 
DOCKED: BRANCH   3   5
DOCKED: ATOM      5  C   UNL     1     140.164  71.538 223.623 -0.35 -0.01    +0.088 A  
DOCKED: ATOM      6  C   UNL     1     139.392  70.370 223.530 -0.29 -0.01    +0.031 A  
DOCKED: ATOM      7  N   UNL     1     140.688  71.903 224.826 -0.26 +0.03    -0.246 NA 
DOCKED: ATOM      8  C   UNL     1     139.203  69.574 224.662 -0.36 -0.00    +0.012 A  
DOCKED: ATOM      9  C   UNL     1     140.519  71.151 225.946 -0.55 -0.01    +0.071 A  
DOCKED: ATOM     10  C   UNL     1     139.769  69.955 225.884 -0.48 -0.00    +0.000 A  
DOCKED: ATOM     11  C   UNL     1     141.084  71.559 227.159 -0.74 -0.00    +0.029 A  
DOCKED: ATOM     12  C   UNL     1     139.596  69.182 227.041 -0.55 -0.00    +0.010 A  
DOCKED: ATOM     13  C   UNL     1     140.907  70.782 228.309 -0.62 -0.00    +0.002 A  
DOCKED: ATOM     14  C   UNL     1     140.166  69.597 228.250 -0.62 -0.00    +0.001 A  
DOCKED: ENDBRANCH   3   5
DOCKED: ENDBRANCH   2   3
DOCKED: ENDBRANCH   1   2
DOCKED: BRANCH   1  15
DOCKED: ATOM     15  C   UNL     1     141.888  72.117 219.022 -0.04 -0.03    +0.205 C  
DOCKED: ATOM     16  O   UNL     1     141.724  71.625 217.872 -0.00 +0.05    -0.277 OA 
DOCKED: BRANCH  15  17
DOCKED: ATOM     17  N   UNL     1     143.200  72.547 219.433 -0.04 +0.04    -0.334 N  
DOCKED: ATOM     18  C   UNL     1     144.439  72.033 218.868 -0.16 +0.01    +0.151 C  
DOCKED: ATOM     19  C   UNL     1     143.424  73.461 220.546 -0.27 -0.03    +0.118 C  
DOCKED: ATOM     20  C   UNL     1     145.561  72.803 219.561 -0.35 +0.04    +0.136 C  
DOCKED: ATOM     21  C   UNL     1     144.930  73.413 220.817 -0.52 -0.01    +0.063 C  
DOCKED: BRANCH  19  22
DOCKED: ATOM     22  C   UNL     1     142.961  74.863 220.202 -0.33 +0.01    -0.025 A  
DOCKED: ATOM     23  C   UNL     1     143.655  75.650 219.264 -0.36 -0.00    +0.006 A  
DOCKED: ATOM     24  C   UNL     1     141.846  75.411 220.861 -0.29 -0.00    +0.006 A  
DOCKED: ATOM     25  C   UNL     1     143.226  76.949 218.977 -0.34 -0.00    +0.000 A  
DOCKED: ATOM     26  C   UNL     1     141.422  76.712 220.573 -0.29 -0.00    +0.000 A  
DOCKED: ATOM     27  C   UNL     1     142.110  77.480 219.629 -0.31 -0.00    +0.000 A  
DOCKED: ENDBRANCH  19  22
DOCKED: BRANCH  20  28
DOCKED: ATOM     28  O   UNL     1     146.621  71.945 219.888 -0.19 -0.40    -0.391 OA 
DOCKED: ATOM     29  H   UNL     1     146.385  71.526 220.757 -0.42 -0.02    +0.211 HD 
DOCKED: ENDBRANCH  20  28
DOCKED: ENDBRANCH  15  17
DOCKED: ENDBRANCH   1  15
DOCKED: TORSDOF 7
DOCKED: TER
DOCKED: ENDMDL
________________________________________________________________________________


    FINAL DOCKED STATE:
    ________________________


Run:   8 / 20
Time taken for this run:   0.049s

DOCKED: MODEL        8
DOCKED: USER    Run = 8
DOCKED: USER
DOCKED: USER    Estimated Free Energy of Binding    =  -7.62 kcal/mol  [=(1)+(2)+(3)-(4)]
DOCKED: USER
DOCKED: USER    (1) Final Intermolecular Energy     =  -9.71 kcal/mol
DOCKED: USER        vdW + Hbond + desolv Energy     =  -9.61 kcal/mol
DOCKED: USER        Electrostatic Energy            =  -0.10 kcal/mol
DOCKED: USER        Moving Ligand-Fixed Receptor    =  -9.71 kcal/mol
DOCKED: USER        Moving Ligand-Moving Receptor   =  +0.00 kcal/mol
DOCKED: USER    (2) Final Total Internal Energy     =  -1.94 kcal/mol
DOCKED: USER    (3) Torsional Free Energy           =  +2.09 kcal/mol
DOCKED: USER    (4) Unbound System's Energy         =  -1.94 kcal/mol
DOCKED: USER
DOCKED: USER
DOCKED: REMARK SMILES O=C([N-]CC(=O)N1C[C@H](O)C[C@H]1c1ccccc1)c1ccc2ccccc2n1
DOCKED: REMARK SMILES IDX 4 1 3 2 2 3 1 4 19 5 20 6 28 7 21 8 27 9 22 10 26 11 23 12
DOCKED: REMARK SMILES IDX 25 13 24 14 5 15 6 16 7 17 8 18 12 19 9 20 11 21 13 22 14 23
DOCKED: REMARK SMILES IDX 18 24 15 25 17 26 16 27 10 28
DOCKED: REMARK H PARENT 10 29
DOCKED: USER                              x       y       z     vdW  Elec       q    Type
DOCKED: USER                           _______ _______ _______ _____ _____    ______ ____
DOCKED: ROOT
DOCKED: ATOM      1  C   UNL     1     140.656  73.765 219.818 -0.11 +0.00    -0.015 C  
DOCKED: ENDROOT
DOCKED: BRANCH   1   2
DOCKED: ATOM      2  N   UNL     1     140.244  75.078 220.301 +0.04 +0.16    -0.640 NA 
DOCKED: BRANCH   2   3
DOCKED: ATOM      3  C   UNL     1     139.914  75.392 221.660 -0.28 -0.02    +0.101 C  
DOCKED: ATOM      4  O   UNL     1     139.520  74.466 222.415 -0.70 +0.04    -0.313 OA 
DOCKED: BRANCH   3   5
DOCKED: ATOM      5  C   UNL     1     139.972  76.765 222.194 -0.33 -0.02    +0.088 A  
DOCKED: ATOM      6  C   UNL     1     138.802  77.490 222.468 -0.29 -0.01    +0.031 A  
DOCKED: ATOM      7  N   UNL     1     141.186  77.358 222.363 -0.22 +0.11    -0.246 NA 
DOCKED: ATOM      8  C   UNL     1     138.896  78.798 222.948 -0.31 -0.00    +0.012 A  
DOCKED: ATOM      9  C   UNL     1     141.310  78.630 222.826 -0.47 -0.03    +0.071 A  
DOCKED: ATOM     10  C   UNL     1     140.155  79.382 223.137 -0.43 -0.00    +0.000 A  
DOCKED: ATOM     11  C   UNL     1     142.578  79.197 222.995 -0.53 -0.01    +0.029 A  
DOCKED: ATOM     12  C   UNL     1     140.286  80.695 223.614 -0.42 -0.00    +0.010 A  
DOCKED: ATOM     13  C   UNL     1     142.701  80.507 223.472 -0.68 -0.00    +0.002 A  
DOCKED: ATOM     14  C   UNL     1     141.558  81.252 223.781 -0.55 -0.00    +0.001 A  
DOCKED: ENDBRANCH   3   5
DOCKED: ENDBRANCH   2   3
DOCKED: ENDBRANCH   1   2
DOCKED: BRANCH   1  15
DOCKED: ATOM     15  C   UNL     1     141.747  73.234 220.695 -0.17 -0.03    +0.205 C  
DOCKED: ATOM     16  O   UNL     1     141.437  72.670 221.780 -0.23 +0.02    -0.277 OA 
DOCKED: BRANCH  15  17
DOCKED: ATOM     17  N   UNL     1     143.132  73.321 220.307 -0.12 +0.07    -0.334 N  
DOCKED: ATOM     18  C   UNL     1     143.913  72.193 219.822 -0.21 -0.01    +0.151 C  
DOCKED: ATOM     19  C   UNL     1     143.930  74.530 220.474 -0.33 -0.05    +0.118 C  
DOCKED: ATOM     20  C   UNL     1     145.293  72.758 219.488 -0.32 +0.03    +0.136 C  
DOCKED: ATOM     21  C   UNL     1     145.378  74.102 220.218 -0.38 -0.02    +0.063 C  
DOCKED: BRANCH  19  22
DOCKED: ATOM     22  C   UNL     1     143.487  75.613 219.511 -0.38 +0.01    -0.025 A  
DOCKED: ATOM     23  C   UNL     1     142.866  76.789 219.972 -0.28 -0.00    +0.006 A  
DOCKED: ATOM     24  C   UNL     1     143.655  75.429 218.127 -0.22 -0.00    +0.006 A  
DOCKED: ATOM     25  C   UNL     1     142.444  77.767 219.067 -0.30 -0.00    +0.000 A  
DOCKED: ATOM     26  C   UNL     1     143.228  76.407 217.225 -0.25 -0.00    +0.000 A  
DOCKED: ATOM     27  C   UNL     1     142.625  77.577 217.695 -0.29 -0.00    +0.000 A  
DOCKED: ENDBRANCH  19  22
DOCKED: BRANCH  20  28
DOCKED: ATOM     28  O   UNL     1     146.302  71.881 219.913 -0.41 -0.28    -0.391 OA 
DOCKED: ATOM     29  H   UNL     1     146.135  71.708 220.877 -0.42 -0.06    +0.211 HD 
DOCKED: ENDBRANCH  20  28
DOCKED: ENDBRANCH  15  17
DOCKED: ENDBRANCH   1  15
DOCKED: TORSDOF 7
DOCKED: TER
DOCKED: ENDMDL
________________________________________________________________________________


    FINAL DOCKED STATE:
    ________________________


Run:   9 / 20
Time taken for this run:   0.049s

DOCKED: MODEL        9
DOCKED: USER    Run = 9
DOCKED: USER
DOCKED: USER    Estimated Free Energy of Binding    =  -7.94 kcal/mol  [=(1)+(2)+(3)-(4)]
DOCKED: USER
DOCKED: USER    (1) Final Intermolecular Energy     = -10.03 kcal/mol
DOCKED: USER        vdW + Hbond + desolv Energy     =  -9.89 kcal/mol
DOCKED: USER        Electrostatic Energy            =  -0.14 kcal/mol
DOCKED: USER        Moving Ligand-Fixed Receptor    = -10.03 kcal/mol
DOCKED: USER        Moving Ligand-Moving Receptor   =  +0.00 kcal/mol
DOCKED: USER    (2) Final Total Internal Energy     =  -1.23 kcal/mol
DOCKED: USER    (3) Torsional Free Energy           =  +2.09 kcal/mol
DOCKED: USER    (4) Unbound System's Energy         =  -1.23 kcal/mol
DOCKED: USER
DOCKED: USER
DOCKED: REMARK SMILES O=C([N-]CC(=O)N1C[C@H](O)C[C@H]1c1ccccc1)c1ccc2ccccc2n1
DOCKED: REMARK SMILES IDX 4 1 3 2 2 3 1 4 19 5 20 6 28 7 21 8 27 9 22 10 26 11 23 12
DOCKED: REMARK SMILES IDX 25 13 24 14 5 15 6 16 7 17 8 18 12 19 9 20 11 21 13 22 14 23
DOCKED: REMARK SMILES IDX 18 24 15 25 17 26 16 27 10 28
DOCKED: REMARK H PARENT 10 29
DOCKED: USER                              x       y       z     vdW  Elec       q    Type
DOCKED: USER                           _______ _______ _______ _____ _____    ______ ____
DOCKED: ROOT
DOCKED: ATOM      1  C   UNL     1     140.547  72.372 220.231 -0.12 +0.00    -0.015 C  
DOCKED: ENDROOT
DOCKED: BRANCH   1   2
DOCKED: ATOM      2  N   UNL     1     140.174  71.289 221.134 +0.02 +0.10    -0.640 NA 
DOCKED: BRANCH   2   3
DOCKED: ATOM      3  C   UNL     1     139.287  71.413 222.252 -0.20 -0.02    +0.101 C  
DOCKED: ATOM      4  O   UNL     1     138.248  72.112 222.124 -0.09 +0.08    -0.313 OA 
DOCKED: BRANCH   3   5
DOCKED: ATOM      5  C   UNL     1     139.566  70.795 223.561 -0.30 -0.02    +0.088 A  
DOCKED: ATOM      6  C   UNL     1     139.241  69.454 223.818 -0.27 -0.01    +0.031 A  
DOCKED: ATOM      7  N   UNL     1     140.091  71.563 224.556 -0.28 +0.05    -0.246 NA 
DOCKED: ATOM      8  C   UNL     1     139.497  68.911 225.079 -0.41 -0.00    +0.012 A  
DOCKED: ATOM      9  C   UNL     1     140.348  71.063 225.794 -0.52 -0.01    +0.071 A  
DOCKED: ATOM     10  C   UNL     1     140.058  69.711 226.081 -0.50 -0.00    +0.000 A  
DOCKED: ATOM     11  C   UNL     1     140.898  71.885 226.784 -0.72 -0.01    +0.029 A  
DOCKED: ATOM     12  C   UNL     1     140.324  69.199 227.360 -0.61 -0.00    +0.010 A  
DOCKED: ATOM     13  C   UNL     1     141.160  71.367 228.057 -0.74 -0.00    +0.002 A  
DOCKED: ATOM     14  C   UNL     1     140.875  70.028 228.343 -0.57 -0.00    +0.001 A  
DOCKED: ENDBRANCH   3   5
DOCKED: ENDBRANCH   2   3
DOCKED: ENDBRANCH   1   2
DOCKED: BRANCH   1  15
DOCKED: ATOM     15  C   UNL     1     141.558  73.250 220.902 -0.18 -0.03    +0.205 C  
DOCKED: ATOM     16  O   UNL     1     141.215  73.905 221.924 -0.55 +0.01    -0.277 OA 
DOCKED: BRANCH  15  17
DOCKED: ATOM     17  N   UNL     1     142.917  73.328 220.428 -0.12 +0.07    -0.334 N  
DOCKED: ATOM     18  C   UNL     1     143.653  72.199 219.878 -0.20 -0.02    +0.151 C  
DOCKED: ATOM     19  C   UNL     1     143.737  74.525 220.561 -0.25 -0.05    +0.118 C  
DOCKED: ATOM     20  C   UNL     1     145.014  72.755 219.466 -0.30 +0.01    +0.136 C  
DOCKED: ATOM     21  C   UNL     1     145.161  74.086 220.208 -0.43 -0.02    +0.063 C  
DOCKED: BRANCH  19  22
DOCKED: ATOM     22  C   UNL     1     143.247  75.628 219.644 -0.38 +0.01    -0.025 A  
DOCKED: ATOM     23  C   UNL     1     142.360  76.618 220.105 -0.31 -0.00    +0.006 A  
DOCKED: ATOM     24  C   UNL     1     143.644  75.642 218.295 -0.23 -0.00    +0.006 A  
DOCKED: ATOM     25  C   UNL     1     141.900  77.614 219.238 -0.27 -0.00    +0.000 A  
DOCKED: ATOM     26  C   UNL     1     143.180  76.638 217.431 -0.27 -0.00    +0.000 A  
DOCKED: ATOM     27  C   UNL     1     142.310  77.625 217.902 -0.27 -0.00    +0.000 A  
DOCKED: ENDBRANCH  19  22
DOCKED: BRANCH  20  28
DOCKED: ATOM     28  O   UNL     1     146.038  71.861 219.813 -0.43 -0.24    -0.391 OA 
DOCKED: ATOM     29  H   UNL     1     145.968  71.723 220.794 -0.41 -0.05    +0.211 HD 
DOCKED: ENDBRANCH  20  28
DOCKED: ENDBRANCH  15  17
DOCKED: ENDBRANCH   1  15
DOCKED: TORSDOF 7
DOCKED: TER
DOCKED: ENDMDL
________________________________________________________________________________


    FINAL DOCKED STATE:
    ________________________


Run:   10 / 20
Time taken for this run:   0.049s

DOCKED: MODEL        10
DOCKED: USER    Run = 10
DOCKED: USER
DOCKED: USER    Estimated Free Energy of Binding    =  -7.67 kcal/mol  [=(1)+(2)+(3)-(4)]
DOCKED: USER
DOCKED: USER    (1) Final Intermolecular Energy     =  -9.76 kcal/mol
DOCKED: USER        vdW + Hbond + desolv Energy     =  -9.75 kcal/mol
DOCKED: USER        Electrostatic Energy            =  -0.02 kcal/mol
DOCKED: USER        Moving Ligand-Fixed Receptor    =  -9.76 kcal/mol
DOCKED: USER        Moving Ligand-Moving Receptor   =  +0.00 kcal/mol
DOCKED: USER    (2) Final Total Internal Energy     =  -1.51 kcal/mol
DOCKED: USER    (3) Torsional Free Energy           =  +2.09 kcal/mol
DOCKED: USER    (4) Unbound System's Energy         =  -1.51 kcal/mol
DOCKED: USER
DOCKED: USER
DOCKED: REMARK SMILES O=C([N-]CC(=O)N1C[C@H](O)C[C@H]1c1ccccc1)c1ccc2ccccc2n1
DOCKED: REMARK SMILES IDX 4 1 3 2 2 3 1 4 19 5 20 6 28 7 21 8 27 9 22 10 26 11 23 12
DOCKED: REMARK SMILES IDX 25 13 24 14 5 15 6 16 7 17 8 18 12 19 9 20 11 21 13 22 14 23
DOCKED: REMARK SMILES IDX 18 24 15 25 17 26 16 27 10 28
DOCKED: REMARK H PARENT 10 29
DOCKED: USER                              x       y       z     vdW  Elec       q    Type
DOCKED: USER                           _______ _______ _______ _____ _____    ______ ____
DOCKED: ROOT
DOCKED: ATOM      1  C   UNL     1     139.329  74.284 221.471 -0.24 +0.00    -0.015 C  
DOCKED: ENDROOT
DOCKED: BRANCH   1   2
DOCKED: ATOM      2  N   UNL     1     140.301  73.592 222.308 -0.57 +0.01    -0.640 NA 
DOCKED: BRANCH   2   3
DOCKED: ATOM      3  C   UNL     1     140.488  72.173 222.358 -0.28 -0.01    +0.101 C  
DOCKED: ATOM      4  O   UNL     1     140.817  71.570 221.304 -0.11 +0.04    -0.313 OA 
DOCKED: BRANCH   3   5
DOCKED: ATOM      5  C   UNL     1     140.262  71.384 223.583 -0.35 -0.01    +0.088 A  
DOCKED: ATOM      6  C   UNL     1     139.533  70.185 223.554 -0.28 -0.01    +0.031 A  
DOCKED: ATOM      7  N   UNL     1     140.716  71.866 224.773 -0.27 +0.03    -0.246 NA 
DOCKED: ATOM      8  C   UNL     1     139.316  69.479 224.740 -0.37 -0.00    +0.012 A  
DOCKED: ATOM      9  C   UNL     1     140.519  71.203 225.943 -0.55 -0.01    +0.071 A  
DOCKED: ATOM     10  C   UNL     1     139.812  69.980 225.949 -0.48 -0.00    +0.000 A  
DOCKED: ATOM     11  C   UNL     1     141.013  71.730 227.142 -0.76 -0.01    +0.029 A  
DOCKED: ATOM     12  C   UNL     1     139.609  69.299 227.159 -0.56 -0.00    +0.010 A  
DOCKED: ATOM     13  C   UNL     1     140.807  71.044 228.344 -0.66 -0.00    +0.002 A  
DOCKED: ATOM     14  C   UNL     1     140.108  69.832 228.352 -0.60 -0.00    +0.001 A  
DOCKED: ENDBRANCH   3   5
DOCKED: ENDBRANCH   2   3
DOCKED: ENDBRANCH   1   2
DOCKED: BRANCH   1  15
DOCKED: ATOM     15  C   UNL     1     139.975  74.667 220.175 -0.08 -0.05    +0.205 C  
DOCKED: ATOM     16  O   UNL     1     139.598  74.097 219.114 -0.01 +0.06    -0.277 OA 
DOCKED: BRANCH  15  17
DOCKED: ATOM     17  N   UNL     1     140.985  75.693 220.113 -0.06 +0.11    -0.334 N  
DOCKED: ATOM     18  C   UNL     1     140.876  76.981 220.781 -0.21 -0.06    +0.151 C  
DOCKED: ATOM     19  C   UNL     1     142.171  75.592 219.272 -0.19 -0.05    +0.118 C  
DOCKED: ATOM     20  C   UNL     1     142.183  77.714 220.482 -0.15 -0.10    +0.136 C  
DOCKED: ATOM     21  C   UNL     1     142.799  76.988 219.283 -0.31 -0.04    +0.063 C  
DOCKED: BRANCH  19  22
DOCKED: ATOM     22  C   UNL     1     143.127  74.542 219.802 -0.31 +0.01    -0.025 A  
DOCKED: ATOM     23  C   UNL     1     142.774  73.180 219.826 -0.21 -0.00    +0.006 A  
DOCKED: ATOM     24  C   UNL     1     144.374  74.932 220.322 -0.38 -0.00    +0.006 A  
DOCKED: ATOM     25  C   UNL     1     143.660  72.229 220.340 -0.31 -0.00    +0.000 A  
DOCKED: ATOM     26  C   UNL     1     145.256  73.978 220.838 -0.60 -0.00    +0.000 A  
DOCKED: ATOM     27  C   UNL     1     144.900  72.627 220.844 -0.47 -0.00    +0.000 A  
DOCKED: ENDBRANCH  19  22
DOCKED: BRANCH  20  28
DOCKED: ATOM     28  O   UNL     1     141.938  79.063 220.191 -0.13 +0.24    -0.391 OA 
DOCKED: ATOM     29  H   UNL     1     142.669  79.580 220.620 -0.24 -0.17    +0.211 HD 
DOCKED: ENDBRANCH  20  28
DOCKED: ENDBRANCH  15  17
DOCKED: ENDBRANCH   1  15
DOCKED: TORSDOF 7
DOCKED: TER
DOCKED: ENDMDL
________________________________________________________________________________


    FINAL DOCKED STATE:
    ________________________


Run:   11 / 20
Time taken for this run:   0.049s

DOCKED: MODEL        11
DOCKED: USER    Run = 11
DOCKED: USER
DOCKED: USER    Estimated Free Energy of Binding    =  -8.37 kcal/mol  [=(1)+(2)+(3)-(4)]
DOCKED: USER
DOCKED: USER    (1) Final Intermolecular Energy     = -10.46 kcal/mol
DOCKED: USER        vdW + Hbond + desolv Energy     = -10.23 kcal/mol
DOCKED: USER        Electrostatic Energy            =  -0.22 kcal/mol
DOCKED: USER        Moving Ligand-Fixed Receptor    = -10.46 kcal/mol
DOCKED: USER        Moving Ligand-Moving Receptor   =  +0.00 kcal/mol
DOCKED: USER    (2) Final Total Internal Energy     =  -1.18 kcal/mol
DOCKED: USER    (3) Torsional Free Energy           =  +2.09 kcal/mol
DOCKED: USER    (4) Unbound System's Energy         =  -1.18 kcal/mol
DOCKED: USER
DOCKED: USER
DOCKED: REMARK SMILES O=C([N-]CC(=O)N1C[C@H](O)C[C@H]1c1ccccc1)c1ccc2ccccc2n1
DOCKED: REMARK SMILES IDX 4 1 3 2 2 3 1 4 19 5 20 6 28 7 21 8 27 9 22 10 26 11 23 12
DOCKED: REMARK SMILES IDX 25 13 24 14 5 15 6 16 7 17 8 18 12 19 9 20 11 21 13 22 14 23
DOCKED: REMARK SMILES IDX 18 24 15 25 17 26 16 27 10 28
DOCKED: REMARK H PARENT 10 29
DOCKED: USER                              x       y       z     vdW  Elec       q    Type
DOCKED: USER                           _______ _______ _______ _____ _____    ______ ____
DOCKED: ROOT
DOCKED: ATOM      1  C   UNL     1     140.787  73.970 221.080 -0.27 +0.00    -0.015 C  
DOCKED: ENDROOT
DOCKED: BRANCH   1   2
DOCKED: ATOM      2  N   UNL     1     140.326  73.436 222.356 -0.56 +0.01    -0.640 NA 
DOCKED: BRANCH   2   3
DOCKED: ATOM      3  C   UNL     1     139.623  72.199 222.529 -0.26 -0.02    +0.101 C  
DOCKED: ATOM      4  O   UNL     1     138.794  71.848 221.650 -0.07 +0.06    -0.313 OA 
DOCKED: BRANCH   3   5
DOCKED: ATOM      5  C   UNL     1     139.797  71.346 223.718 -0.35 -0.02    +0.088 A  
DOCKED: ATOM      6  C   UNL     1     139.402  69.999 223.715 -0.28 -0.01    +0.031 A  
DOCKED: ATOM      7  N   UNL     1     140.294  71.898 224.860 -0.23 +0.05    -0.246 NA 
DOCKED: ATOM      8  C   UNL     1     139.558  69.230 224.870 -0.38 -0.00    +0.012 A  
DOCKED: ATOM      9  C   UNL     1     140.455  71.175 226.001 -0.55 -0.01    +0.071 A  
DOCKED: ATOM     10  C   UNL     1     140.091  69.810 226.027 -0.50 -0.00    +0.000 A  
DOCKED: ATOM     11  C   UNL     1     140.979  71.780 227.149 -0.76 -0.01    +0.029 A  
DOCKED: ATOM     12  C   UNL     1     140.258  69.068 227.205 -0.61 -0.00    +0.010 A  
DOCKED: ATOM     13  C   UNL     1     141.142  71.033 228.320 -0.64 -0.00    +0.002 A  
DOCKED: ATOM     14  C   UNL     1     140.784  69.681 228.348 -0.59 -0.00    +0.001 A  
DOCKED: ENDBRANCH   3   5
DOCKED: ENDBRANCH   2   3
DOCKED: ENDBRANCH   1   2
DOCKED: BRANCH   1  15
DOCKED: ATOM     15  C   UNL     1     141.634  72.944 220.391 -0.13 -0.03    +0.205 C  
DOCKED: ATOM     16  O   UNL     1     141.089  71.892 219.960 -0.06 +0.04    -0.277 OA 
DOCKED: BRANCH  15  17
DOCKED: ATOM     17  N   UNL     1     143.044  73.155 220.179 -0.10 +0.06    -0.334 N  
DOCKED: ATOM     18  C   UNL     1     143.959  72.124 219.711 -0.20 -0.01    +0.151 C  
DOCKED: ATOM     19  C   UNL     1     143.723  74.396 220.527 -0.29 -0.04    +0.118 C  
DOCKED: ATOM     20  C   UNL     1     145.320  72.806 219.587 -0.34 +0.02    +0.136 C  
DOCKED: ATOM     21  C   UNL     1     145.219  74.088 220.416 -0.50 -0.02    +0.063 C  
DOCKED: BRANCH  19  22
DOCKED: ATOM     22  C   UNL     1     143.312  75.522 219.599 -0.37 +0.01    -0.025 A  
DOCKED: ATOM     23  C   UNL     1     142.568  76.620 220.070 -0.32 -0.00    +0.006 A  
DOCKED: ATOM     24  C   UNL     1     143.637  75.454 218.233 -0.23 -0.00    +0.006 A  
DOCKED: ATOM     25  C   UNL     1     142.178  77.637 219.194 -0.30 -0.00    +0.000 A  
DOCKED: ATOM     26  C   UNL     1     143.243  76.472 217.360 -0.26 -0.00    +0.000 A  
DOCKED: ATOM     27  C   UNL     1     142.516  77.565 217.841 -0.29 -0.00    +0.000 A  
DOCKED: ENDBRANCH  19  22
DOCKED: BRANCH  20  28
DOCKED: ATOM     28  O   UNL     1     146.338  71.967 220.065 -0.39 -0.24    -0.391 OA 
DOCKED: ATOM     29  H   UNL     1     146.131  71.792 221.020 -0.42 -0.08    +0.211 HD 
DOCKED: ENDBRANCH  20  28
DOCKED: ENDBRANCH  15  17
DOCKED: ENDBRANCH   1  15
DOCKED: TORSDOF 7
DOCKED: TER
DOCKED: ENDMDL
________________________________________________________________________________


    FINAL DOCKED STATE:
    ________________________


Run:   12 / 20
Time taken for this run:   0.049s

DOCKED: MODEL        12
DOCKED: USER    Run = 12
DOCKED: USER
DOCKED: USER    Estimated Free Energy of Binding    =  -8.43 kcal/mol  [=(1)+(2)+(3)-(4)]
DOCKED: USER
DOCKED: USER    (1) Final Intermolecular Energy     = -10.52 kcal/mol
DOCKED: USER        vdW + Hbond + desolv Energy     = -10.46 kcal/mol
DOCKED: USER        Electrostatic Energy            =  -0.06 kcal/mol
DOCKED: USER        Moving Ligand-Fixed Receptor    = -10.52 kcal/mol
DOCKED: USER        Moving Ligand-Moving Receptor   =  +0.00 kcal/mol
DOCKED: USER    (2) Final Total Internal Energy     =  -1.49 kcal/mol
DOCKED: USER    (3) Torsional Free Energy           =  +2.09 kcal/mol
DOCKED: USER    (4) Unbound System's Energy         =  -1.49 kcal/mol
DOCKED: USER
DOCKED: USER
DOCKED: REMARK SMILES O=C([N-]CC(=O)N1C[C@H](O)C[C@H]1c1ccccc1)c1ccc2ccccc2n1
DOCKED: REMARK SMILES IDX 4 1 3 2 2 3 1 4 19 5 20 6 28 7 21 8 27 9 22 10 26 11 23 12
DOCKED: REMARK SMILES IDX 25 13 24 14 5 15 6 16 7 17 8 18 12 19 9 20 11 21 13 22 14 23
DOCKED: REMARK SMILES IDX 18 24 15 25 17 26 16 27 10 28
DOCKED: REMARK H PARENT 10 29
DOCKED: USER                              x       y       z     vdW  Elec       q    Type
DOCKED: USER                           _______ _______ _______ _____ _____    ______ ____
DOCKED: ROOT
DOCKED: ATOM      1  C   UNL     1     140.046  74.779 221.507 -0.30 +0.00    -0.015 C  
DOCKED: ENDROOT
DOCKED: BRANCH   1   2
DOCKED: ATOM      2  N   UNL     1     140.661  73.723 222.301 -0.47 -0.04    -0.640 NA 
DOCKED: BRANCH   2   3
DOCKED: ATOM      3  C   UNL     1     140.324  72.332 222.230 -0.27 -0.01    +0.101 C  
DOCKED: ATOM      4  O   UNL     1     140.080  71.827 221.104 -0.08 +0.05    -0.313 OA 
DOCKED: BRANCH   3   5
DOCKED: ATOM      5  C   UNL     1     140.206  71.481 223.428 -0.34 -0.01    +0.088 A  
DOCKED: ATOM      6  C   UNL     1     139.540  70.246 223.382 -0.27 -0.01    +0.031 A  
DOCKED: ATOM      7  N   UNL     1     140.698  71.936 224.614 -0.22 +0.03    -0.246 NA 
DOCKED: ATOM      8  C   UNL     1     139.424  69.479 224.544 -0.35 -0.00    +0.012 A  
DOCKED: ATOM      9  C   UNL     1     140.598  71.214 225.762 -0.54 -0.01    +0.071 A  
DOCKED: ATOM     10  C   UNL     1     139.957  69.955 225.748 -0.48 -0.00    +0.000 A  
DOCKED: ATOM     11  C   UNL     1     141.127  71.715 226.956 -0.74 -0.00    +0.029 A  
DOCKED: ATOM     12  C   UNL     1     139.855  69.213 226.934 -0.56 -0.00    +0.010 A  
DOCKED: ATOM     13  C   UNL     1     141.022  70.969 228.135 -0.69 -0.00    +0.002 A  
DOCKED: ATOM     14  C   UNL     1     140.389  69.722 228.123 -0.62 -0.00    +0.001 A  
DOCKED: ENDBRANCH   3   5
DOCKED: ENDBRANCH   2   3
DOCKED: ENDBRANCH   1   2
DOCKED: BRANCH   1  15
DOCKED: ATOM     15  C   UNL     1     140.963  75.962 221.461 -0.26 -0.07    +0.205 C  
DOCKED: ATOM     16  O   UNL     1     141.070  76.691 222.485 -0.33 +0.10    -0.277 OA 
DOCKED: BRANCH  15  17
DOCKED: ATOM     17  N   UNL     1     141.749  76.258 220.290 -0.12 +0.16    -0.334 N  
DOCKED: ATOM     18  C   UNL     1     142.064  77.605 219.840 -0.23 -0.10    +0.151 C  
DOCKED: ATOM     19  C   UNL     1     142.212  75.231 219.364 -0.18 -0.05    +0.118 C  
DOCKED: ATOM     20  C   UNL     1     142.949  77.434 218.607 -0.26 -0.10    +0.136 C  
DOCKED: ATOM     21  C   UNL     1     142.736  75.990 218.142 -0.21 -0.03    +0.063 C  
DOCKED: BRANCH  19  22
DOCKED: ATOM     22  C   UNL     1     143.291  74.373 219.996 -0.33 +0.01    -0.025 A  
DOCKED: ATOM     23  C   UNL     1     144.556  74.905 220.307 -0.36 -0.00    +0.006 A  
DOCKED: ATOM     24  C   UNL     1     143.046  73.010 220.237 -0.27 -0.00    +0.006 A  
DOCKED: ATOM     25  C   UNL     1     145.546  74.093 220.867 -0.62 -0.00    +0.000 A  
DOCKED: ATOM     26  C   UNL     1     144.039  72.200 220.796 -0.35 -0.00    +0.000 A  
DOCKED: ATOM     27  C   UNL     1     145.288  72.742 221.113 -0.48 -0.00    +0.000 A  
DOCKED: ENDBRANCH  19  22
DOCKED: BRANCH  20  28
DOCKED: ATOM     28  O   UNL     1     142.588  78.350 217.609 -0.18 +0.34    -0.391 OA 
DOCKED: ATOM     29  H   UNL     1     143.434  78.748 217.274 -0.34 -0.32    +0.211 HD 
DOCKED: ENDBRANCH  20  28
DOCKED: ENDBRANCH  15  17
DOCKED: ENDBRANCH   1  15
DOCKED: TORSDOF 7
DOCKED: TER
DOCKED: ENDMDL
________________________________________________________________________________


    FINAL DOCKED STATE:
    ________________________


Run:   13 / 20
Time taken for this run:   0.049s

DOCKED: MODEL        13
DOCKED: USER    Run = 13
DOCKED: USER
DOCKED: USER    Estimated Free Energy of Binding    =  -7.58 kcal/mol  [=(1)+(2)+(3)-(4)]
DOCKED: USER
DOCKED: USER    (1) Final Intermolecular Energy     =  -9.67 kcal/mol
DOCKED: USER        vdW + Hbond + desolv Energy     =  -9.57 kcal/mol
DOCKED: USER        Electrostatic Energy            =  -0.10 kcal/mol
DOCKED: USER        Moving Ligand-Fixed Receptor    =  -9.67 kcal/mol
DOCKED: USER        Moving Ligand-Moving Receptor   =  +0.00 kcal/mol
DOCKED: USER    (2) Final Total Internal Energy     =  -1.97 kcal/mol
DOCKED: USER    (3) Torsional Free Energy           =  +2.09 kcal/mol
DOCKED: USER    (4) Unbound System's Energy         =  -1.97 kcal/mol
DOCKED: USER
DOCKED: USER
DOCKED: REMARK SMILES O=C([N-]CC(=O)N1C[C@H](O)C[C@H]1c1ccccc1)c1ccc2ccccc2n1
DOCKED: REMARK SMILES IDX 4 1 3 2 2 3 1 4 19 5 20 6 28 7 21 8 27 9 22 10 26 11 23 12
DOCKED: REMARK SMILES IDX 25 13 24 14 5 15 6 16 7 17 8 18 12 19 9 20 11 21 13 22 14 23
DOCKED: REMARK SMILES IDX 18 24 15 25 17 26 16 27 10 28
DOCKED: REMARK H PARENT 10 29
DOCKED: USER                              x       y       z     vdW  Elec       q    Type
DOCKED: USER                           _______ _______ _______ _____ _____    ______ ____
DOCKED: ROOT
DOCKED: ATOM      1  C   UNL     1     140.671  73.712 219.851 -0.11 +0.00    -0.015 C  
DOCKED: ENDROOT
DOCKED: BRANCH   1   2
DOCKED: ATOM      2  N   UNL     1     140.244  75.038 220.279 +0.04 +0.16    -0.640 NA 
DOCKED: BRANCH   2   3
DOCKED: ATOM      3  C   UNL     1     139.849  75.390 221.610 -0.28 -0.02    +0.101 C  
DOCKED: ATOM      4  O   UNL     1     139.378  74.493 222.357 -0.69 +0.06    -0.313 OA 
DOCKED: BRANCH   3   5
DOCKED: ATOM      5  C   UNL     1     139.927  76.770 222.124 -0.33 -0.02    +0.088 A  
DOCKED: ATOM      6  C   UNL     1     138.770  77.539 222.327 -0.28 -0.01    +0.031 A  
DOCKED: ATOM      7  N   UNL     1     141.151  77.325 222.344 -0.23 +0.11    -0.246 NA 
DOCKED: ATOM      8  C   UNL     1     138.886  78.852 222.789 -0.30 -0.00    +0.012 A  
DOCKED: ATOM      9  C   UNL     1     141.295  78.601 222.791 -0.47 -0.03    +0.071 A  
DOCKED: ATOM     10  C   UNL     1     140.153  79.396 223.031 -0.42 -0.00    +0.000 A  
DOCKED: ATOM     11  C   UNL     1     142.573  79.128 223.014 -0.51 -0.01    +0.029 A  
DOCKED: ATOM     12  C   UNL     1     140.306  80.712 223.492 -0.44 -0.00    +0.010 A  
DOCKED: ATOM     13  C   UNL     1     142.716  80.441 223.474 -0.68 -0.00    +0.002 A  
DOCKED: ATOM     14  C   UNL     1     141.586  81.230 223.713 -0.56 -0.00    +0.001 A  
DOCKED: ENDBRANCH   3   5
DOCKED: ENDBRANCH   2   3
DOCKED: ENDBRANCH   1   2
DOCKED: BRANCH   1  15
DOCKED: ATOM     15  C   UNL     1     141.782  73.239 220.738 -0.18 -0.03    +0.205 C  
DOCKED: ATOM     16  O   UNL     1     141.495  72.726 221.854 -0.22 +0.01    -0.277 OA 
DOCKED: BRANCH  15  17
DOCKED: ATOM     17  N   UNL     1     143.160  73.323 220.325 -0.12 +0.07    -0.334 N  
DOCKED: ATOM     18  C   UNL     1     143.932  72.191 219.835 -0.21 -0.01    +0.151 C  
DOCKED: ATOM     19  C   UNL     1     143.960  74.533 220.468 -0.33 -0.05    +0.118 C  
DOCKED: ATOM     20  C   UNL     1     145.306  72.754 219.473 -0.32 +0.03    +0.136 C  
DOCKED: ATOM     21  C   UNL     1     145.403  74.103 220.190 -0.35 -0.02    +0.063 C  
DOCKED: BRANCH  19  22
DOCKED: ATOM     22  C   UNL     1     143.500  75.609 219.505 -0.38 +0.01    -0.025 A  
DOCKED: ATOM     23  C   UNL     1     142.831  76.759 219.963 -0.29 -0.00    +0.006 A  
DOCKED: ATOM     24  C   UNL     1     143.701  75.441 218.123 -0.22 -0.00    +0.006 A  
DOCKED: ATOM     25  C   UNL     1     142.394  77.730 219.057 -0.30 -0.00    +0.000 A  
DOCKED: ATOM     26  C   UNL     1     143.260  76.413 217.221 -0.25 -0.00    +0.000 A  
DOCKED: ATOM     27  C   UNL     1     142.609  77.558 217.688 -0.29 -0.00    +0.000 A  
DOCKED: ENDBRANCH  19  22
DOCKED: BRANCH  20  28
DOCKED: ATOM     28  O   UNL     1     146.322  71.880 219.887 -0.42 -0.29    -0.391 OA 
DOCKED: ATOM     29  H   UNL     1     146.153  71.688 220.846 -0.42 -0.05    +0.211 HD 
DOCKED: ENDBRANCH  20  28
DOCKED: ENDBRANCH  15  17
DOCKED: ENDBRANCH   1  15
DOCKED: TORSDOF 7
DOCKED: TER
DOCKED: ENDMDL
________________________________________________________________________________


    FINAL DOCKED STATE:
    ________________________


Run:   14 / 20
Time taken for this run:   0.049s

DOCKED: MODEL        14
DOCKED: USER    Run = 14
DOCKED: USER
DOCKED: USER    Estimated Free Energy of Binding    =  -8.21 kcal/mol  [=(1)+(2)+(3)-(4)]
DOCKED: USER
DOCKED: USER    (1) Final Intermolecular Energy     = -10.30 kcal/mol
DOCKED: USER        vdW + Hbond + desolv Energy     = -10.42 kcal/mol
DOCKED: USER        Electrostatic Energy            =  +0.12 kcal/mol
DOCKED: USER        Moving Ligand-Fixed Receptor    = -10.30 kcal/mol
DOCKED: USER        Moving Ligand-Moving Receptor   =  +0.00 kcal/mol
DOCKED: USER    (2) Final Total Internal Energy     =  -1.06 kcal/mol
DOCKED: USER    (3) Torsional Free Energy           =  +2.09 kcal/mol
DOCKED: USER    (4) Unbound System's Energy         =  -1.06 kcal/mol
DOCKED: USER
DOCKED: USER
DOCKED: REMARK SMILES O=C([N-]CC(=O)N1C[C@H](O)C[C@H]1c1ccccc1)c1ccc2ccccc2n1
DOCKED: REMARK SMILES IDX 4 1 3 2 2 3 1 4 19 5 20 6 28 7 21 8 27 9 22 10 26 11 23 12
DOCKED: REMARK SMILES IDX 25 13 24 14 5 15 6 16 7 17 8 18 12 19 9 20 11 21 13 22 14 23
DOCKED: REMARK SMILES IDX 18 24 15 25 17 26 16 27 10 28
DOCKED: REMARK H PARENT 10 29
DOCKED: USER                              x       y       z     vdW  Elec       q    Type
DOCKED: USER                           _______ _______ _______ _____ _____    ______ ____
DOCKED: ROOT
DOCKED: ATOM      1  C   UNL     1     139.685  74.493 221.427 -0.26 +0.00    -0.015 C  
DOCKED: ENDROOT
DOCKED: BRANCH   1   2
DOCKED: ATOM      2  N   UNL     1     140.297  73.542 222.348 -0.57 +0.01    -0.640 NA 
DOCKED: BRANCH   2   3
DOCKED: ATOM      3  C   UNL     1     140.058  72.129 222.357 -0.27 -0.01    +0.101 C  
DOCKED: ATOM      4  O   UNL     1     139.784  71.557 221.271 -0.08 +0.05    -0.313 OA 
DOCKED: BRANCH   3   5
DOCKED: ATOM      5  C   UNL     1     140.073  71.329 223.595 -0.34 -0.01    +0.088 A  
DOCKED: ATOM      6  C   UNL     1     139.541  70.030 223.630 -0.28 -0.01    +0.031 A  
DOCKED: ATOM      7  N   UNL     1     140.556  71.889 224.739 -0.26 +0.04    -0.246 NA 
DOCKED: ATOM      8  C   UNL     1     139.549  69.313 224.829 -0.37 -0.00    +0.012 A  
DOCKED: ATOM      9  C   UNL     1     140.574  71.217 225.921 -0.55 -0.01    +0.071 A  
DOCKED: ATOM     10  C   UNL     1     140.070  69.898 225.988 -0.50 -0.00    +0.000 A  
DOCKED: ATOM     11  C   UNL     1     141.089  71.827 227.070 -0.77 -0.01    +0.029 A  
DOCKED: ATOM     12  C   UNL     1     140.090  69.208 227.209 -0.59 -0.00    +0.010 A  
DOCKED: ATOM     13  C   UNL     1     141.105  71.131 228.283 -0.68 -0.00    +0.002 A  
DOCKED: ATOM     14  C   UNL     1     140.608  69.826 228.352 -0.58 -0.00    +0.001 A  
DOCKED: ENDBRANCH   3   5
DOCKED: ENDBRANCH   2   3
DOCKED: ENDBRANCH   1   2
DOCKED: BRANCH   1  15
DOCKED: ATOM     15  C   UNL     1     140.189  75.870 221.731 -0.26 -0.05    +0.205 C  
DOCKED: ATOM     16  O   UNL     1     141.434  76.076 221.742 -0.26 +0.12    -0.277 OA 
DOCKED: BRANCH  15  17
DOCKED: ATOM     17  N   UNL     1     139.284  76.966 221.969 -0.14 +0.07    -0.334 N  
DOCKED: ATOM     18  C   UNL     1     138.009  76.831 222.658 -0.23 -0.03    +0.151 C  
DOCKED: ATOM     19  C   UNL     1     139.500  78.306 221.438 -0.17 -0.03    +0.118 C  
DOCKED: ATOM     20  C   UNL     1     137.424  78.241 222.723 -0.17 -0.02    +0.136 C  
DOCKED: ATOM     21  C   UNL     1     138.186  79.055 221.673 -0.14 -0.01    +0.063 C  
DOCKED: BRANCH  19  22
DOCKED: ATOM     22  C   UNL     1     140.665  78.986 222.129 -0.34 +0.01    -0.025 A  
DOCKED: ATOM     23  C   UNL     1     140.956  78.734 223.483 -0.50 -0.00    +0.006 A  
DOCKED: ATOM     24  C   UNL     1     141.446  79.919 221.425 -0.38 -0.00    +0.006 A  
DOCKED: ATOM     25  C   UNL     1     142.021  79.388 224.109 -0.53 -0.00    +0.000 A  
DOCKED: ATOM     26  C   UNL     1     142.508  80.573 222.056 -0.50 -0.00    +0.000 A  
DOCKED: ATOM     27  C   UNL     1     142.797  80.306 223.397 -0.67 -0.00    +0.000 A  
DOCKED: ENDBRANCH  19  22
DOCKED: BRANCH  20  28
DOCKED: ATOM     28  O   UNL     1     136.048  78.218 222.452 -0.05 +0.06    -0.391 OA 
DOCKED: ATOM     29  H   UNL     1     135.923  77.594 221.689 +0.04 -0.03    +0.211 HD 
DOCKED: ENDBRANCH  20  28
DOCKED: ENDBRANCH  15  17
DOCKED: ENDBRANCH   1  15
DOCKED: TORSDOF 7
DOCKED: TER
DOCKED: ENDMDL
________________________________________________________________________________


    FINAL DOCKED STATE:
    ________________________


Run:   15 / 20
Time taken for this run:   0.049s

DOCKED: MODEL        15
DOCKED: USER    Run = 15
DOCKED: USER
DOCKED: USER    Estimated Free Energy of Binding    =  -8.43 kcal/mol  [=(1)+(2)+(3)-(4)]
DOCKED: USER
DOCKED: USER    (1) Final Intermolecular Energy     = -10.51 kcal/mol
DOCKED: USER        vdW + Hbond + desolv Energy     = -10.45 kcal/mol
DOCKED: USER        Electrostatic Energy            =  -0.06 kcal/mol
DOCKED: USER        Moving Ligand-Fixed Receptor    = -10.51 kcal/mol
DOCKED: USER        Moving Ligand-Moving Receptor   =  +0.00 kcal/mol
DOCKED: USER    (2) Final Total Internal Energy     =  -1.49 kcal/mol
DOCKED: USER    (3) Torsional Free Energy           =  +2.09 kcal/mol
DOCKED: USER    (4) Unbound System's Energy         =  -1.49 kcal/mol
DOCKED: USER
DOCKED: USER
DOCKED: REMARK SMILES O=C([N-]CC(=O)N1C[C@H](O)C[C@H]1c1ccccc1)c1ccc2ccccc2n1
DOCKED: REMARK SMILES IDX 4 1 3 2 2 3 1 4 19 5 20 6 28 7 21 8 27 9 22 10 26 11 23 12
DOCKED: REMARK SMILES IDX 25 13 24 14 5 15 6 16 7 17 8 18 12 19 9 20 11 21 13 22 14 23
DOCKED: REMARK SMILES IDX 18 24 15 25 17 26 16 27 10 28
DOCKED: REMARK H PARENT 10 29
DOCKED: USER                              x       y       z     vdW  Elec       q    Type
DOCKED: USER                           _______ _______ _______ _____ _____    ______ ____
DOCKED: ROOT
DOCKED: ATOM      1  C   UNL     1     140.063  74.774 221.552 -0.30 +0.00    -0.015 C  
DOCKED: ENDROOT
DOCKED: BRANCH   1   2
DOCKED: ATOM      2  N   UNL     1     140.691  73.714 222.331 -0.45 -0.05    -0.640 NA 
DOCKED: BRANCH   2   3
DOCKED: ATOM      3  C   UNL     1     140.331  72.328 222.283 -0.28 -0.01    +0.101 C  
DOCKED: ATOM      4  O   UNL     1     140.075  71.809 221.166 -0.08 +0.05    -0.313 OA 
DOCKED: BRANCH   3   5
DOCKED: ATOM      5  C   UNL     1     140.200  71.499 223.495 -0.35 -0.01    +0.088 A  
DOCKED: ATOM      6  C   UNL     1     139.526  70.268 223.467 -0.28 -0.01    +0.031 A  
DOCKED: ATOM      7  N   UNL     1     140.690  71.971 224.675 -0.19 +0.03    -0.246 NA 
DOCKED: ATOM      8  C   UNL     1     139.399  69.523 224.642 -0.36 -0.00    +0.012 A  
DOCKED: ATOM      9  C   UNL     1     140.579  71.270 225.835 -0.55 -0.01    +0.071 A  
DOCKED: ATOM     10  C   UNL     1     139.929  70.015 225.840 -0.49 -0.00    +0.000 A  
DOCKED: ATOM     11  C   UNL     1     141.106  71.788 227.023 -0.76 -0.00    +0.029 A  
DOCKED: ATOM     12  C   UNL     1     139.816  69.295 227.039 -0.56 -0.00    +0.010 A  
DOCKED: ATOM     13  C   UNL     1     140.989  71.063 228.214 -0.69 -0.00    +0.002 A  
DOCKED: ATOM     14  C   UNL     1     140.347  69.820 228.221 -0.61 -0.00    +0.001 A  
DOCKED: ENDBRANCH   3   5
DOCKED: ENDBRANCH   2   3
DOCKED: ENDBRANCH   1   2
DOCKED: BRANCH   1  15
DOCKED: ATOM     15  C   UNL     1     140.977  75.960 221.502 -0.26 -0.07    +0.205 C  
DOCKED: ATOM     16  O   UNL     1     141.095  76.682 222.528 -0.32 +0.10    -0.277 OA 
DOCKED: BRANCH  15  17
DOCKED: ATOM     17  N   UNL     1     141.748  76.264 220.323 -0.12 +0.16    -0.334 N  
DOCKED: ATOM     18  C   UNL     1     142.075  77.614 219.891 -0.23 -0.10    +0.151 C  
DOCKED: ATOM     19  C   UNL     1     142.182  75.247 219.373 -0.18 -0.05    +0.118 C  
DOCKED: ATOM     20  C   UNL     1     142.937  77.451 218.640 -0.25 -0.10    +0.136 C  
DOCKED: ATOM     21  C   UNL     1     142.696  76.019 218.155 -0.21 -0.03    +0.063 C  
DOCKED: BRANCH  19  22
DOCKED: ATOM     22  C   UNL     1     143.258  74.364 219.972 -0.33 +0.01    -0.025 A  
DOCKED: ATOM     23  C   UNL     1     143.012  73.008 220.259 -0.27 -0.00    +0.006 A  
DOCKED: ATOM     24  C   UNL     1     144.513  74.911 220.292 -0.37 -0.00    +0.006 A  
DOCKED: ATOM     25  C   UNL     1     144.009  72.215 220.833 -0.35 -0.00    +0.000 A  
DOCKED: ATOM     26  C   UNL     1     145.507  74.115 220.869 -0.61 -0.00    +0.000 A  
DOCKED: ATOM     27  C   UNL     1     145.256  72.767 221.136 -0.49 -0.00    +0.000 A  
DOCKED: ENDBRANCH  19  22
DOCKED: BRANCH  20  28
DOCKED: ATOM     28  O   UNL     1     142.573  78.390 217.663 -0.18 +0.34    -0.391 OA 
DOCKED: ATOM     29  H   UNL     1     143.420  78.772 217.313 -0.33 -0.32    +0.211 HD 
DOCKED: ENDBRANCH  20  28
DOCKED: ENDBRANCH  15  17
DOCKED: ENDBRANCH   1  15
DOCKED: TORSDOF 7
DOCKED: TER
DOCKED: ENDMDL
________________________________________________________________________________


    FINAL DOCKED STATE:
    ________________________


Run:   16 / 20
Time taken for this run:   0.049s

DOCKED: MODEL        16
DOCKED: USER    Run = 16
DOCKED: USER
DOCKED: USER    Estimated Free Energy of Binding    =  -8.23 kcal/mol  [=(1)+(2)+(3)-(4)]
DOCKED: USER
DOCKED: USER    (1) Final Intermolecular Energy     = -10.32 kcal/mol
DOCKED: USER        vdW + Hbond + desolv Energy     = -10.43 kcal/mol
DOCKED: USER        Electrostatic Energy            =  +0.11 kcal/mol
DOCKED: USER        Moving Ligand-Fixed Receptor    = -10.32 kcal/mol
DOCKED: USER        Moving Ligand-Moving Receptor   =  +0.00 kcal/mol
DOCKED: USER    (2) Final Total Internal Energy     =  -1.04 kcal/mol
DOCKED: USER    (3) Torsional Free Energy           =  +2.09 kcal/mol
DOCKED: USER    (4) Unbound System's Energy         =  -1.04 kcal/mol
DOCKED: USER
DOCKED: USER
DOCKED: REMARK SMILES O=C([N-]CC(=O)N1C[C@H](O)C[C@H]1c1ccccc1)c1ccc2ccccc2n1
DOCKED: REMARK SMILES IDX 4 1 3 2 2 3 1 4 19 5 20 6 28 7 21 8 27 9 22 10 26 11 23 12
DOCKED: REMARK SMILES IDX 25 13 24 14 5 15 6 16 7 17 8 18 12 19 9 20 11 21 13 22 14 23
DOCKED: REMARK SMILES IDX 18 24 15 25 17 26 16 27 10 28
DOCKED: REMARK H PARENT 10 29
DOCKED: USER                              x       y       z     vdW  Elec       q    Type
DOCKED: USER                           _______ _______ _______ _____ _____    ______ ____
DOCKED: ROOT
DOCKED: ATOM      1  C   UNL     1     139.541  74.558 221.656 -0.27 +0.00    -0.015 C  
DOCKED: ENDROOT
DOCKED: BRANCH   1   2
DOCKED: ATOM      2  N   UNL     1     140.353  73.557 222.338 -0.56 -0.00    -0.640 NA 
DOCKED: BRANCH   2   3
DOCKED: ATOM      3  C   UNL     1     140.092  72.149 222.349 -0.27 -0.01    +0.101 C  
DOCKED: ATOM      4  O   UNL     1     139.840  71.573 221.259 -0.08 +0.05    -0.313 OA 
DOCKED: BRANCH   3   5
DOCKED: ATOM      5  C   UNL     1     140.058  71.357 223.592 -0.35 -0.01    +0.088 A  
DOCKED: ATOM      6  C   UNL     1     139.447  70.094 223.636 -0.28 -0.01    +0.031 A  
DOCKED: ATOM      7  N   UNL     1     140.575  71.894 224.732 -0.26 +0.04    -0.246 NA 
DOCKED: ATOM      8  C   UNL     1     139.412  69.385 224.838 -0.38 -0.00    +0.012 A  
DOCKED: ATOM      9  C   UNL     1     140.553  71.229 225.918 -0.55 -0.01    +0.071 A  
DOCKED: ATOM     10  C   UNL     1     139.969  69.944 225.994 -0.50 -0.00    +0.000 A  
DOCKED: ATOM     11  C   UNL     1     141.105  71.814 227.063 -0.76 -0.01    +0.029 A  
DOCKED: ATOM     12  C   UNL     1     139.947  69.262 227.219 -0.58 -0.00    +0.010 A  
DOCKED: ATOM     13  C   UNL     1     141.079  71.126 228.281 -0.69 -0.00    +0.002 A  
DOCKED: ATOM     14  C   UNL     1     140.503  69.854 228.358 -0.57 -0.00    +0.001 A  
DOCKED: ENDBRANCH   3   5
DOCKED: ENDBRANCH   2   3
DOCKED: ENDBRANCH   1   2
DOCKED: BRANCH   1  15
DOCKED: ATOM     15  C   UNL     1     140.066  75.924 221.976 -0.27 -0.04    +0.205 C  
DOCKED: ATOM     16  O   UNL     1     141.311  76.084 222.107 -0.29 +0.11    -0.277 OA 
DOCKED: BRANCH  15  17
DOCKED: ATOM     17  N   UNL     1     139.185  77.058 222.099 -0.14 +0.07    -0.334 N  
DOCKED: ATOM     18  C   UNL     1     137.880  77.008 222.739 -0.22 -0.03    +0.151 C  
DOCKED: ATOM     19  C   UNL     1     139.463  78.350 221.484 -0.17 -0.03    +0.118 C  
DOCKED: ATOM     20  C   UNL     1     137.336  78.434 222.681 -0.17 -0.02    +0.136 C  
DOCKED: ATOM     21  C   UNL     1     138.164  79.150 221.610 -0.13 -0.01    +0.063 C  
DOCKED: BRANCH  19  22
DOCKED: ATOM     22  C   UNL     1     140.619  79.046 222.174 -0.34 +0.01    -0.025 A  
DOCKED: ATOM     23  C   UNL     1     141.481  79.905 221.467 -0.38 -0.00    +0.006 A  
DOCKED: ATOM     24  C   UNL     1     140.870  78.799 223.536 -0.48 -0.00    +0.006 A  
DOCKED: ATOM     25  C   UNL     1     142.555  80.519 222.116 -0.53 -0.00    +0.000 A  
DOCKED: ATOM     26  C   UNL     1     141.947  79.413 224.180 -0.52 -0.00    +0.000 A  
DOCKED: ATOM     27  C   UNL     1     142.788  80.275 223.471 -0.67 -0.00    +0.000 A  
DOCKED: ENDBRANCH  19  22
DOCKED: BRANCH  20  28
DOCKED: ATOM     28  O   UNL     1     135.972  78.430 222.353 -0.05 +0.06    -0.391 OA 
DOCKED: ATOM     29  H   UNL     1     135.894  77.955 221.484 +0.03 -0.03    +0.211 HD 
DOCKED: ENDBRANCH  20  28
DOCKED: ENDBRANCH  15  17
DOCKED: ENDBRANCH   1  15
DOCKED: TORSDOF 7
DOCKED: TER
DOCKED: ENDMDL
________________________________________________________________________________


    FINAL DOCKED STATE:
    ________________________


Run:   17 / 20
Time taken for this run:   0.049s

DOCKED: MODEL        17
DOCKED: USER    Run = 17
DOCKED: USER
DOCKED: USER    Estimated Free Energy of Binding    =  -8.56 kcal/mol  [=(1)+(2)+(3)-(4)]
DOCKED: USER
DOCKED: USER    (1) Final Intermolecular Energy     = -10.65 kcal/mol
DOCKED: USER        vdW + Hbond + desolv Energy     = -10.60 kcal/mol
DOCKED: USER        Electrostatic Energy            =  -0.05 kcal/mol
DOCKED: USER        Moving Ligand-Fixed Receptor    = -10.65 kcal/mol
DOCKED: USER        Moving Ligand-Moving Receptor   =  +0.00 kcal/mol
DOCKED: USER    (2) Final Total Internal Energy     =  -1.44 kcal/mol
DOCKED: USER    (3) Torsional Free Energy           =  +2.09 kcal/mol
DOCKED: USER    (4) Unbound System's Energy         =  -1.44 kcal/mol
DOCKED: USER
DOCKED: USER
DOCKED: REMARK SMILES O=C([N-]CC(=O)N1C[C@H](O)C[C@H]1c1ccccc1)c1ccc2ccccc2n1
DOCKED: REMARK SMILES IDX 4 1 3 2 2 3 1 4 19 5 20 6 28 7 21 8 27 9 22 10 26 11 23 12
DOCKED: REMARK SMILES IDX 25 13 24 14 5 15 6 16 7 17 8 18 12 19 9 20 11 21 13 22 14 23
DOCKED: REMARK SMILES IDX 18 24 15 25 17 26 16 27 10 28
DOCKED: REMARK H PARENT 10 29
DOCKED: USER                              x       y       z     vdW  Elec       q    Type
DOCKED: USER                           _______ _______ _______ _____ _____    ______ ____
DOCKED: ROOT
DOCKED: ATOM      1  C   UNL     1     140.034  74.535 221.184 -0.26 +0.00    -0.015 C  
DOCKED: ENDROOT
DOCKED: BRANCH   1   2
DOCKED: ATOM      2  N   UNL     1     140.335  73.686 222.331 -0.57 -0.01    -0.640 NA 
DOCKED: BRANCH   2   3
DOCKED: ATOM      3  C   UNL     1     140.372  72.254 222.311 -0.28 -0.01    +0.101 C  
DOCKED: ATOM      4  O   UNL     1     140.495  71.668 221.204 -0.10 +0.04    -0.313 OA 
DOCKED: BRANCH   3   5
DOCKED: ATOM      5  C   UNL     1     140.223  71.438 223.530 -0.34 -0.01    +0.088 A  
DOCKED: ATOM      6  C   UNL     1     139.544  70.210 223.508 -0.28 -0.01    +0.031 A  
DOCKED: ATOM      7  N   UNL     1     140.700  71.922 224.711 -0.24 +0.03    -0.246 NA 
DOCKED: ATOM      8  C   UNL     1     139.400  69.479 224.689 -0.36 -0.00    +0.012 A  
DOCKED: ATOM      9  C   UNL     1     140.573  71.234 225.877 -0.55 -0.01    +0.071 A  
DOCKED: ATOM     10  C   UNL     1     139.918  69.982 225.888 -0.49 -0.00    +0.000 A  
DOCKED: ATOM     11  C   UNL     1     141.088  71.763 227.066 -0.76 -0.01    +0.029 A  
DOCKED: ATOM     12  C   UNL     1     139.787  69.276 227.093 -0.56 -0.00    +0.010 A  
DOCKED: ATOM     13  C   UNL     1     140.954  71.052 228.263 -0.68 -0.00    +0.002 A  
DOCKED: ATOM     14  C   UNL     1     140.307  69.812 228.276 -0.61 -0.00    +0.001 A  
DOCKED: ENDBRANCH   3   5
DOCKED: ENDBRANCH   2   3
DOCKED: ENDBRANCH   1   2
DOCKED: BRANCH   1  15
DOCKED: ATOM     15  C   UNL     1     140.876  75.773 221.251 -0.24 -0.06    +0.205 C  
DOCKED: ATOM     16  O   UNL     1     140.878  76.452 222.314 -0.34 +0.09    -0.277 OA 
DOCKED: BRANCH  15  17
DOCKED: ATOM     17  N   UNL     1     141.707  76.176 220.145 -0.11 +0.15    -0.334 N  
DOCKED: ATOM     18  C   UNL     1     142.017  77.561 219.824 -0.24 -0.09    +0.151 C  
DOCKED: ATOM     19  C   UNL     1     142.227  75.238 219.158 -0.17 -0.05    +0.118 C  
DOCKED: ATOM     20  C   UNL     1     142.957  77.506 218.621 -0.25 -0.10    +0.136 C  
DOCKED: ATOM     21  C   UNL     1     142.790  76.104 218.028 -0.22 -0.03    +0.063 C  
DOCKED: BRANCH  19  22
DOCKED: ATOM     22  C   UNL     1     143.291  74.344 219.763 -0.31 +0.01    -0.025 A  
DOCKED: ATOM     23  C   UNL     1     143.087  72.959 219.900 -0.24 -0.00    +0.006 A  
DOCKED: ATOM     24  C   UNL     1     144.488  74.908 220.239 -0.38 -0.00    +0.006 A  
DOCKED: ATOM     25  C   UNL     1     144.071  72.154 220.482 -0.35 -0.00    +0.000 A  
DOCKED: ATOM     26  C   UNL     1     145.468  74.100 220.822 -0.62 -0.00    +0.000 A  
DOCKED: ATOM     27  C   UNL     1     145.261  72.723 220.941 -0.51 -0.00    +0.000 A  
DOCKED: ENDBRANCH  19  22
DOCKED: BRANCH  20  28
DOCKED: ATOM     28  O   UNL     1     142.625  78.499 217.688 -0.19 +0.35    -0.391 OA 
DOCKED: ATOM     29  H   UNL     1     143.484  78.883 217.370 -0.38 -0.33    +0.211 HD 
DOCKED: ENDBRANCH  20  28
DOCKED: ENDBRANCH  15  17
DOCKED: ENDBRANCH   1  15
DOCKED: TORSDOF 7
DOCKED: TER
DOCKED: ENDMDL
________________________________________________________________________________


    FINAL DOCKED STATE:
    ________________________


Run:   18 / 20
Time taken for this run:   0.049s

DOCKED: MODEL        18
DOCKED: USER    Run = 18
DOCKED: USER
DOCKED: USER    Estimated Free Energy of Binding    =  -8.08 kcal/mol  [=(1)+(2)+(3)-(4)]
DOCKED: USER
DOCKED: USER    (1) Final Intermolecular Energy     = -10.16 kcal/mol
DOCKED: USER        vdW + Hbond + desolv Energy     = -10.12 kcal/mol
DOCKED: USER        Electrostatic Energy            =  -0.04 kcal/mol
DOCKED: USER        Moving Ligand-Fixed Receptor    = -10.16 kcal/mol
DOCKED: USER        Moving Ligand-Moving Receptor   =  +0.00 kcal/mol
DOCKED: USER    (2) Final Total Internal Energy     =  -1.28 kcal/mol
DOCKED: USER    (3) Torsional Free Energy           =  +2.09 kcal/mol
DOCKED: USER    (4) Unbound System's Energy         =  -1.28 kcal/mol
DOCKED: USER
DOCKED: USER
DOCKED: REMARK SMILES O=C([N-]CC(=O)N1C[C@H](O)C[C@H]1c1ccccc1)c1ccc2ccccc2n1
DOCKED: REMARK SMILES IDX 4 1 3 2 2 3 1 4 19 5 20 6 28 7 21 8 27 9 22 10 26 11 23 12
DOCKED: REMARK SMILES IDX 25 13 24 14 5 15 6 16 7 17 8 18 12 19 9 20 11 21 13 22 14 23
DOCKED: REMARK SMILES IDX 18 24 15 25 17 26 16 27 10 28
DOCKED: REMARK H PARENT 10 29
DOCKED: USER                              x       y       z     vdW  Elec       q    Type
DOCKED: USER                           _______ _______ _______ _____ _____    ______ ____
DOCKED: ROOT
DOCKED: ATOM      1  C   UNL     1     140.762  74.875 221.590 -0.33 +0.00    -0.015 C  
DOCKED: ENDROOT
DOCKED: BRANCH   1   2
DOCKED: ATOM      2  N   UNL     1     140.106  73.733 222.214 -0.60 +0.03    -0.640 NA 
DOCKED: BRANCH   2   3
DOCKED: ATOM      3  C   UNL     1     140.682  72.431 222.368 -0.26 -0.01    +0.101 C  
DOCKED: ATOM      4  O   UNL     1     141.470  72.011 221.481 -0.15 +0.03    -0.313 OA 
DOCKED: BRANCH   3   5
DOCKED: ATOM      5  C   UNL     1     140.352  71.544 223.498 -0.34 -0.01    +0.088 A  
DOCKED: ATOM      6  C   UNL     1     139.574  70.389 223.316 -0.27 -0.01    +0.031 A  
DOCKED: ATOM      7  N   UNL     1     140.758  71.890 224.751 -0.24 +0.03    -0.246 NA 
DOCKED: ATOM      8  C   UNL     1     139.259  69.588 224.416 -0.34 -0.00    +0.012 A  
DOCKED: ATOM      9  C   UNL     1     140.464  71.132 225.841 -0.54 -0.01    +0.071 A  
DOCKED: ATOM     10  C   UNL     1     139.705  69.950 225.692 -0.46 -0.00    +0.000 A  
DOCKED: ATOM     11  C   UNL     1     140.911  71.520 227.109 -0.73 -0.01    +0.029 A  
DOCKED: ATOM     12  C   UNL     1     139.403  69.170 226.819 -0.51 -0.00    +0.010 A  
DOCKED: ATOM     13  C   UNL     1     140.606  70.737 228.228 -0.63 -0.00    +0.002 A  
DOCKED: ATOM     14  C   UNL     1     139.856  69.565 228.082 -0.63 -0.00    +0.001 A  
DOCKED: ENDBRANCH   3   5
DOCKED: ENDBRANCH   2   3
DOCKED: ENDBRANCH   1   2
DOCKED: BRANCH   1  15
DOCKED: ATOM     15  C   UNL     1     141.045  74.559 220.153 -0.13 -0.05    +0.205 C  
DOCKED: ATOM     16  O   UNL     1     140.409  73.622 219.598 -0.03 +0.06    -0.277 OA 
DOCKED: BRANCH  15  17
DOCKED: ATOM     17  N   UNL     1     141.994  75.328 219.388 -0.07 +0.13    -0.334 N  
DOCKED: ATOM     18  C   UNL     1     141.994  76.781 219.315 -0.22 -0.08    +0.151 C  
DOCKED: ATOM     19  C   UNL     1     142.984  74.719 218.507 -0.16 -0.04    +0.118 C  
DOCKED: ATOM     20  C   UNL     1     143.192  77.152 218.444 -0.20 -0.10    +0.136 C  
DOCKED: ATOM     21  C   UNL     1     143.566  75.873 217.688 -0.19 -0.04    +0.063 C  
DOCKED: BRANCH  19  22
DOCKED: ATOM     22  C   UNL     1     144.055  74.001 219.305 -0.30 +0.01    -0.025 A  
DOCKED: ATOM     23  C   UNL     1     144.486  72.710 218.948 -0.24 +0.00    +0.006 A  
DOCKED: ATOM     24  C   UNL     1     144.600  74.610 220.449 -0.46 -0.00    +0.006 A  
DOCKED: ATOM     25  C   UNL     1     145.458  72.054 219.709 -0.38 +0.00    +0.000 A  
DOCKED: ATOM     26  C   UNL     1     145.569  73.950 221.208 -0.58 -0.00    +0.000 A  
DOCKED: ATOM     27  C   UNL     1     146.001  72.674 220.837 -0.53 -0.00    +0.000 A  
DOCKED: ENDBRANCH  19  22
DOCKED: BRANCH  20  28
DOCKED: ATOM     28  O   UNL     1     142.859  78.189 217.560 -0.20 +0.36    -0.391 OA 
DOCKED: ATOM     29  H   UNL     1     143.717  78.588 217.260 -0.39 -0.34    +0.211 HD 
DOCKED: ENDBRANCH  20  28
DOCKED: ENDBRANCH  15  17
DOCKED: ENDBRANCH   1  15
DOCKED: TORSDOF 7
DOCKED: TER
DOCKED: ENDMDL
________________________________________________________________________________


    FINAL DOCKED STATE:
    ________________________


Run:   19 / 20
Time taken for this run:   0.049s

DOCKED: MODEL        19
DOCKED: USER    Run = 19
DOCKED: USER
DOCKED: USER    Estimated Free Energy of Binding    =  -7.19 kcal/mol  [=(1)+(2)+(3)-(4)]
DOCKED: USER
DOCKED: USER    (1) Final Intermolecular Energy     =  -9.28 kcal/mol
DOCKED: USER        vdW + Hbond + desolv Energy     =  -9.15 kcal/mol
DOCKED: USER        Electrostatic Energy            =  -0.12 kcal/mol
DOCKED: USER        Moving Ligand-Fixed Receptor    =  -9.28 kcal/mol
DOCKED: USER        Moving Ligand-Moving Receptor   =  +0.00 kcal/mol
DOCKED: USER    (2) Final Total Internal Energy     =  -2.08 kcal/mol
DOCKED: USER    (3) Torsional Free Energy           =  +2.09 kcal/mol
DOCKED: USER    (4) Unbound System's Energy         =  -2.08 kcal/mol
DOCKED: USER
DOCKED: USER
DOCKED: REMARK SMILES O=C([N-]CC(=O)N1C[C@H](O)C[C@H]1c1ccccc1)c1ccc2ccccc2n1
DOCKED: REMARK SMILES IDX 4 1 3 2 2 3 1 4 19 5 20 6 28 7 21 8 27 9 22 10 26 11 23 12
DOCKED: REMARK SMILES IDX 25 13 24 14 5 15 6 16 7 17 8 18 12 19 9 20 11 21 13 22 14 23
DOCKED: REMARK SMILES IDX 18 24 15 25 17 26 16 27 10 28
DOCKED: REMARK H PARENT 10 29
DOCKED: USER                              x       y       z     vdW  Elec       q    Type
DOCKED: USER                           _______ _______ _______ _____ _____    ______ ____
DOCKED: ROOT
DOCKED: ATOM      1  C   UNL     1     140.591  73.969 219.167 -0.07 +0.00    -0.015 C  
DOCKED: ENDROOT
DOCKED: BRANCH   1   2
DOCKED: ATOM      2  N   UNL     1     139.663  74.368 220.217 +0.04 +0.14    -0.640 NA 
DOCKED: BRANCH   2   3
DOCKED: ATOM      3  C   UNL     1     140.034  74.763 221.543 -0.27 -0.02    +0.101 C  
DOCKED: ATOM      4  O   UNL     1     140.440  73.881 222.344 -0.78 -0.02    -0.313 OA 
DOCKED: BRANCH   3   5
DOCKED: ATOM      5  C   UNL     1     139.915  76.152 222.022 -0.32 -0.02    +0.088 A  
DOCKED: ATOM      6  C   UNL     1     138.694  76.843 221.957 -0.26 -0.01    +0.031 A  
DOCKED: ATOM      7  N   UNL     1     141.028  76.793 222.474 -0.26 +0.09    -0.246 NA 
DOCKED: ATOM      8  C   UNL     1     138.627  78.168 222.395 -0.26 -0.00    +0.012 A  
DOCKED: ATOM      9  C   UNL     1     140.993  78.083 222.905 -0.43 -0.02    +0.071 A  
DOCKED: ATOM     10  C   UNL     1     139.777  78.801 222.878 -0.37 -0.00    +0.000 A  
DOCKED: ATOM     11  C   UNL     1     142.160  78.700 223.372 -0.49 -0.01    +0.029 A  
DOCKED: ATOM     12  C   UNL     1     139.746  80.132 223.323 -0.41 -0.00    +0.010 A  
DOCKED: ATOM     13  C   UNL     1     142.119  80.027 223.813 -0.64 -0.00    +0.002 A  
DOCKED: ATOM     14  C   UNL     1     140.916  80.740 223.789 -0.46 -0.00    +0.001 A  
DOCKED: ENDBRANCH   3   5
DOCKED: ENDBRANCH   2   3
DOCKED: ENDBRANCH   1   2
DOCKED: BRANCH   1  15
DOCKED: ATOM     15  C   UNL     1     141.580  72.992 219.724 -0.08 -0.04    +0.205 C  
DOCKED: ATOM     16  O   UNL     1     141.168  71.871 220.129 -0.07 +0.04    -0.277 OA 
DOCKED: BRANCH  15  17
DOCKED: ATOM     17  N   UNL     1     142.989  73.292 219.769 -0.07 +0.07    -0.334 N  
DOCKED: ATOM     18  C   UNL     1     144.032  72.360 219.368 -0.18 -0.01    +0.151 C  
DOCKED: ATOM     19  C   UNL     1     143.521  74.525 220.337 -0.32 -0.05    +0.118 C  
DOCKED: ATOM     20  C   UNL     1     145.349  73.117 219.534 -0.35 +0.02    +0.136 C  
DOCKED: ATOM     21  C   UNL     1     145.032  74.304 220.448 -0.45 -0.02    +0.063 C  
DOCKED: BRANCH  19  22
DOCKED: ATOM     22  C   UNL     1     143.192  75.716 219.459 -0.36 +0.01    -0.025 A  
DOCKED: ATOM     23  C   UNL     1     143.538  75.733 218.094 -0.24 -0.00    +0.006 A  
DOCKED: ATOM     24  C   UNL     1     142.571  76.846 220.019 -0.32 -0.00    +0.006 A  
DOCKED: ATOM     25  C   UNL     1     143.247  76.850 217.306 -0.27 -0.00    +0.000 A  
DOCKED: ATOM     26  C   UNL     1     142.285  77.962 219.228 -0.28 -0.00    +0.000 A  
DOCKED: ATOM     27  C   UNL     1     142.620  77.963 217.871 -0.31 -0.00    +0.000 A  
DOCKED: ENDBRANCH  19  22
DOCKED: BRANCH  20  28
DOCKED: ATOM     28  O   UNL     1     146.329  72.286 220.097 -0.47 -0.22    -0.391 OA 
DOCKED: ATOM     29  H   UNL     1     145.907  71.848 220.883 -0.42 -0.06    +0.211 HD 
DOCKED: ENDBRANCH  20  28
DOCKED: ENDBRANCH  15  17
DOCKED: ENDBRANCH   1  15
DOCKED: TORSDOF 7
DOCKED: TER
DOCKED: ENDMDL
________________________________________________________________________________


    FINAL DOCKED STATE:
    ________________________


Run:   20 / 20
Time taken for this run:   0.049s

DOCKED: MODEL        20
DOCKED: USER    Run = 20
DOCKED: USER
DOCKED: USER    Estimated Free Energy of Binding    =  -7.30 kcal/mol  [=(1)+(2)+(3)-(4)]
DOCKED: USER
DOCKED: USER    (1) Final Intermolecular Energy     =  -9.38 kcal/mol
DOCKED: USER        vdW + Hbond + desolv Energy     =  -9.25 kcal/mol
DOCKED: USER        Electrostatic Energy            =  -0.14 kcal/mol
DOCKED: USER        Moving Ligand-Fixed Receptor    =  -9.38 kcal/mol
DOCKED: USER        Moving Ligand-Moving Receptor   =  +0.00 kcal/mol
DOCKED: USER    (2) Final Total Internal Energy     =  -2.02 kcal/mol
DOCKED: USER    (3) Torsional Free Energy           =  +2.09 kcal/mol
DOCKED: USER    (4) Unbound System's Energy         =  -2.02 kcal/mol
DOCKED: USER
DOCKED: USER
DOCKED: REMARK SMILES O=C([N-]CC(=O)N1C[C@H](O)C[C@H]1c1ccccc1)c1ccc2ccccc2n1
DOCKED: REMARK SMILES IDX 4 1 3 2 2 3 1 4 19 5 20 6 28 7 21 8 27 9 22 10 26 11 23 12
DOCKED: REMARK SMILES IDX 25 13 24 14 5 15 6 16 7 17 8 18 12 19 9 20 11 21 13 22 14 23
DOCKED: REMARK SMILES IDX 18 24 15 25 17 26 16 27 10 28
DOCKED: REMARK H PARENT 10 29
DOCKED: USER                              x       y       z     vdW  Elec       q    Type
DOCKED: USER                           _______ _______ _______ _____ _____    ______ ____
DOCKED: ROOT
DOCKED: ATOM      1  C   UNL     1     140.630  73.947 219.411 -0.08 +0.00    -0.015 C  
DOCKED: ENDROOT
DOCKED: BRANCH   1   2
DOCKED: ATOM      2  N   UNL     1     139.569  74.296 220.348 +0.03 +0.14    -0.640 NA 
DOCKED: BRANCH   2   3
DOCKED: ATOM      3  C   UNL     1     139.764  74.665 221.718 -0.25 -0.02    +0.101 C  
DOCKED: ATOM      4  O   UNL     1     139.935  73.754 222.570 -0.76 +0.01    -0.313 OA 
DOCKED: BRANCH   3   5
DOCKED: ATOM      5  C   UNL     1     139.724  76.065 222.178 -0.32 -0.02    +0.088 A  
DOCKED: ATOM      6  C   UNL     1     138.509  76.754 222.312 -0.29 -0.01    +0.031 A  
DOCKED: ATOM      7  N   UNL     1     140.897  76.717 222.414 -0.27 +0.08    -0.246 NA 
DOCKED: ATOM      8  C   UNL     1     138.514  78.089 222.724 -0.29 -0.00    +0.012 A  
DOCKED: ATOM      9  C   UNL     1     140.933  78.016 222.814 -0.43 -0.02    +0.071 A  
DOCKED: ATOM     10  C   UNL     1     139.728  78.734 222.984 -0.37 -0.00    +0.000 A  
DOCKED: ATOM     11  C   UNL     1     142.161  78.644 223.055 -0.41 -0.01    +0.029 A  
DOCKED: ATOM     12  C   UNL     1     139.770  80.074 223.396 -0.42 -0.00    +0.010 A  
DOCKED: ATOM     13  C   UNL     1     142.193  79.981 223.466 -0.64 -0.00    +0.002 A  
DOCKED: ATOM     14  C   UNL     1     141.001  80.693 223.637 -0.49 -0.00    +0.001 A  
DOCKED: ENDBRANCH   3   5
DOCKED: ENDBRANCH   2   3
DOCKED: ENDBRANCH   1   2
DOCKED: BRANCH   1  15
DOCKED: ATOM     15  C   UNL     1     141.610  73.038 220.089 -0.11 -0.04    +0.205 C  
DOCKED: ATOM     16  O   UNL     1     141.176  72.038 220.722 -0.11 +0.04    -0.277 OA 
DOCKED: BRANCH  15  17
DOCKED: ATOM     17  N   UNL     1     143.030  73.264 219.997 -0.09 +0.07    -0.334 N  
DOCKED: ATOM     18  C   UNL     1     143.984  72.264 219.542 -0.19 -0.01    +0.151 C  
DOCKED: ATOM     19  C   UNL     1     143.673  74.485 220.467 -0.32 -0.05    +0.118 C  
DOCKED: ATOM     20  C   UNL     1     145.347  72.954 219.562 -0.35 +0.02    +0.136 C  
DOCKED: ATOM     21  C   UNL     1     145.174  74.187 220.453 -0.48 -0.02    +0.063 C  
DOCKED: BRANCH  19  22
DOCKED: ATOM     22  C   UNL     1     143.327  75.661 219.575 -0.38 +0.01    -0.025 A  
DOCKED: ATOM     23  C   UNL     1     142.628  76.775 220.077 -0.31 -0.00    +0.006 A  
DOCKED: ATOM     24  C   UNL     1     143.666  75.627 218.211 -0.23 -0.00    +0.006 A  
DOCKED: ATOM     25  C   UNL     1     142.297  77.840 219.235 -0.29 -0.00    +0.000 A  
DOCKED: ATOM     26  C   UNL     1     143.331  76.693 217.371 -0.27 -0.00    +0.000 A  
DOCKED: ATOM     27  C   UNL     1     142.649  77.800 217.883 -0.31 -0.00    +0.000 A  
DOCKED: ENDBRANCH  19  22
DOCKED: BRANCH  20  28
DOCKED: ATOM     28  O   UNL     1     146.331  72.091 220.067 -0.43 -0.23    -0.391 OA 
DOCKED: ATOM     29  H   UNL     1     145.992  71.761 220.941 -0.41 -0.08    +0.211 HD 
DOCKED: ENDBRANCH  20  28
DOCKED: ENDBRANCH  15  17
DOCKED: ENDBRANCH   1  15
DOCKED: TORSDOF 7
DOCKED: TER
DOCKED: ENDMDL
________________________________________________________________________________


    CLUSTERING HISTOGRAM
    ____________________


________________________________________________________________________________
     |           |     |           |     |
Clus | Lowest    | Run | Mean      | Num | Histogram
-ter | Binding   |     | Binding   | in  |
Rank | Energy    |     | Energy    | Clus|    5    10   15   20   25   30   35
_____|___________|_____|___________|_____|____:____|____:____|____:____|____:___
   1 |     -8.56 |  17 |     -8.29 |   7 |#######
   2 |     -8.37 |  11 |     -8.15 |   5 |#####
   3 |     -8.23 |  16 |     -8.22 |   2 |##
   4 |     -7.62 |   8 |     -7.48 |   6 |######
_____|___________|_____|___________|_____|______________________________________


    RMSD TABLE
    __________


_______________________________________________________________________
     |      |      |           |         |                 |
Rank | Sub- | Run  | Binding   | Cluster | Reference       | Grep
     | Rank |      | Energy    | RMSD    | RMSD            | Pattern
_____|______|______|___________|_________|_________________|___________
   1      1     17       -8.56      0.00    271.82           RANKING
   1      2      3       -8.51      0.17    271.87           RANKING
   1      3     12       -8.43      0.22    271.86           RANKING
   1      4     15       -8.43      0.22    271.89           RANKING
   1      5      2       -8.36      0.39    271.80           RANKING
   1      6     18       -8.08      0.90    271.63           RANKING
   1      7     10       -7.67      1.12    271.82           RANKING
   2      1     11       -8.37      0.00    271.75           RANKING
   2      2      1       -8.22      1.01    271.70           RANKING
   2      3      6       -8.19      1.02    271.67           RANKING
   2      4      7       -8.04      1.04    271.70           RANKING
   2      5      9       -7.94      0.83    271.65           RANKING
   3      1     16       -8.23      0.00    272.41           RANKING
   3      2     14       -8.21      0.17    272.39           RANKING
   4      1      8       -7.62      0.00    271.79           RANKING
   4      2      5       -7.61      0.06    271.76           RANKING
   4      3      4       -7.61      0.06    271.76           RANKING
   4      4     13       -7.58      0.08    271.77           RANKING
   4      5     20       -7.30      0.62    271.56           RANKING
   4      6     19       -7.19      0.71    271.51           RANKING

Run time 0.948 sec
Idle time 0.000 sec
