AutoDock-GPU version: v1.6

**********************************************************
**    AutoDock-GPU AUTODOCKTOOLS-COMPATIBLE DLG FILE    **
**********************************************************


    DOCKING PARAMETERS
    ________________________


Ligand file:                               /home/a/REINVENT4/ReinventStudies/pleaseWork/justRnve/graph-dock-t2iv78/graph-DockGPU/node-autodockgpu/inputs/DKNPMFASMDQIKA-NSJMMFDCNA-N.pdbqt
Grid fld file:                             /home/a/REINVENT4/ReinventStudies/mols/Rad51/maps/rad51_receptor.maps.fld

Random seed:                               42
Number of runs:                            20
Number of energy evaluations:              2040163
Number of generations:                     42000
Size of population:                        150
Rate of crossover:                         80.000000%
Tournament selection probability limit:    60.000000%
Rate of mutation:                          2.000000%
Maximal allowed delta movement:            +/- 6.000000A
Maximal allowed delta angle:               +/- 90.000000

Rate of local search:                      100.000000%
Maximal number of local search iterations: 300
Rho lower bound:                           0.010000
Spread of local search delta movement:     2.000000A
Spread of local search delta angle:        74.999999
Limit of consecutive successes/failures:   4

Handle symmetry during clustering:         YES
RMSD tolerance:                            2.000000A

Program call in command line was:          /home/a/REINVENT4/ReinventStudies/adgpu-v1.6_linux_x64_cuda12_128wi --filelist batch.txt --heuristics 1 --nrun 20 --psize 150 --lsit 300 --seed 42 --heurmax 12000000 


    GRID PARAMETERS
    ________________________


Receptor name:                             rad51_receptor
Number of grid points (x, y, z):           53, 53, 53
Grid center (x, y, z):                     139.950000, 75.640000, 221.970000A
Grid size (x, y, z):                       19.500000, 19.500000, 19.500000A
Grid spacing:                              0.375000A


    LIGAND PARAMETERS
    ________________________


Ligand name:                               /home/a/REINVENT4/ReinventStudies/pleaseWork/justRnve/graph-dock-t2iv78/graph-DockGPU/node-autodockgpu/inputs/DKNPMFASMDQIKA-NSJMMFDCNA-N
Number of atoms:                           37
Number of rotatable bonds:                 9
Number of atom types:                      6


    DUMMY DATA (only for ADT-compatibility)
    ________________________


DPF> outlev 1
DPF> ga_run 20
DPF> fld /home/a/REINVENT4/ReinventStudies/mols/Rad51/maps/rad51_receptor.maps.fld
DPF> move /home/a/REINVENT4/ReinventStudies/pleaseWork/justRnve/graph-dock-t2iv78/graph-DockGPU/node-autodockgpu/inputs/DKNPMFASMDQIKA-NSJMMFDCNA-N.pdbqt


    COUNTER STATES
    ________________________


Number of energy evaluations performed:    1345757
Number of generations used:                80


    INPUT LIGAND PDBQT FILE:
    ________________________


INPUT-LIGAND-PDBQT: REMARK SMILES O=C([N-]Cc1cccc(-c2cccc(C[NH2+]C3CCCC3)c2)c1)c1ccc(-c2ccccc2)cc1
INPUT-LIGAND-PDBQT: REMARK SMILES IDX 5 1 6 2 7 3 8 4 9 5 23 6 4 7 3 8 2 9 1 10 24 11 25 12 35 13
INPUT-LIGAND-PDBQT: REMARK SMILES IDX 26 14 34 15 27 16 28 17 29 18 33 19 30 20 32 21 31 22 10 23
INPUT-LIGAND-PDBQT: REMARK SMILES IDX 11 24 22 25 12 26 14 27 13 28 15 29 16 30 17 33 18 34 21 35
INPUT-LIGAND-PDBQT: REMARK SMILES IDX 19 36 20 37
INPUT-LIGAND-PDBQT: REMARK H PARENT 16 31 16 32
INPUT-LIGAND-PDBQT: ROOT
INPUT-LIGAND-PDBQT: ATOM      1  C   UNL     1       1.487  -3.426  -0.962  1.00  0.00    -0.065 A 
INPUT-LIGAND-PDBQT: ATOM      2  C   UNL     1       2.489  -3.687  -0.016  1.00  0.00     0.002 A 
INPUT-LIGAND-PDBQT: ATOM      3  C   UNL     1       2.180  -3.724   1.345  1.00  0.00     0.001 A 
INPUT-LIGAND-PDBQT: ATOM      4  C   UNL     1       0.875  -3.476   1.776  1.00  0.00     0.009 A 
INPUT-LIGAND-PDBQT: ATOM      5  C   UNL     1      -0.142  -3.192   0.845  1.00  0.00    -0.018 A 
INPUT-LIGAND-PDBQT: ATOM      6  C   UNL     1       0.175  -3.182  -0.527  1.00  0.00     0.010 A 
INPUT-LIGAND-PDBQT: ENDROOT
INPUT-LIGAND-PDBQT: BRANCH   1   7
INPUT-LIGAND-PDBQT: ATOM      7  C   UNL     1       1.838  -3.306  -2.419  1.00  0.00    -0.081 C 
INPUT-LIGAND-PDBQT: BRANCH   7   8
INPUT-LIGAND-PDBQT: ATOM      8  N   UNL     1       2.231  -1.933  -2.717  1.00  0.00    -0.646 NA
INPUT-LIGAND-PDBQT: BRANCH   8   9
INPUT-LIGAND-PDBQT: ATOM      9  C   UNL     1       1.296  -0.867  -2.926  1.00  0.00     0.082 C 
INPUT-LIGAND-PDBQT: ATOM     10  O   UNL     1       0.072  -1.128  -3.084  1.00  0.00    -0.315 OA
INPUT-LIGAND-PDBQT: BRANCH   9  11
INPUT-LIGAND-PDBQT: ATOM     11  C   UNL     1       1.765   0.539  -2.961  1.00  0.00    -0.001 A 
INPUT-LIGAND-PDBQT: ATOM     12  C   UNL     1       0.885   1.574  -3.322  1.00  0.00     0.011 A 
INPUT-LIGAND-PDBQT: ATOM     13  C   UNL     1       3.090   0.863  -2.618  1.00  0.00     0.011 A 
INPUT-LIGAND-PDBQT: ATOM     14  C   UNL     1       1.321   2.903  -3.340  1.00  0.00     0.009 A 
INPUT-LIGAND-PDBQT: ATOM     15  C   UNL     1       3.525   2.192  -2.635  1.00  0.00     0.009 A 
INPUT-LIGAND-PDBQT: ATOM     16  C   UNL     1       2.645   3.226  -2.996  1.00  0.00    -0.018 A 
INPUT-LIGAND-PDBQT: BRANCH  16  17
INPUT-LIGAND-PDBQT: ATOM     17  C   UNL     1       3.109   4.637  -3.016  1.00  0.00    -0.018 A 
INPUT-LIGAND-PDBQT: ATOM     18  C   UNL     1       4.373   4.967  -3.539  1.00  0.00     0.009 A 
INPUT-LIGAND-PDBQT: ATOM     19  C   UNL     1       2.290   5.665  -2.513  1.00  0.00     0.009 A 
INPUT-LIGAND-PDBQT: ATOM     20  C   UNL     1       4.807   6.297  -3.557  1.00  0.00     0.001 A 
INPUT-LIGAND-PDBQT: ATOM     21  C   UNL     1       2.729   6.993  -2.531  1.00  0.00     0.001 A 
INPUT-LIGAND-PDBQT: ATOM     22  C   UNL     1       3.986   7.308  -3.053  1.00  0.00     0.000 A 
INPUT-LIGAND-PDBQT: ENDBRANCH  16  17
INPUT-LIGAND-PDBQT: ENDBRANCH   9  11
INPUT-LIGAND-PDBQT: ENDBRANCH   8   9
INPUT-LIGAND-PDBQT: ENDBRANCH   7   8
INPUT-LIGAND-PDBQT: ENDBRANCH   1   7
INPUT-LIGAND-PDBQT: BRANCH   5  23
INPUT-LIGAND-PDBQT: ATOM     23  C   UNL     1      -1.516  -2.857   1.304  1.00  0.00    -0.018 A 
INPUT-LIGAND-PDBQT: ATOM     24  C   UNL     1      -2.241  -1.822   0.684  1.00  0.00     0.009 A 
INPUT-LIGAND-PDBQT: ATOM     25  C   UNL     1      -2.102  -3.545   2.384  1.00  0.00     0.018 A 
INPUT-LIGAND-PDBQT: ATOM     26  C   UNL     1      -3.520  -1.484   1.133  1.00  0.00     0.001 A 
INPUT-LIGAND-PDBQT: ATOM     27  C   UNL     1      -3.384  -3.200   2.844  1.00  0.00     0.007 A 
INPUT-LIGAND-PDBQT: ATOM     28  C   UNL     1      -4.091  -2.168   2.207  1.00  0.00     0.009 A 
INPUT-LIGAND-PDBQT: BRANCH  27  29
INPUT-LIGAND-PDBQT: ATOM     29  C   UNL     1      -3.983  -3.912   4.032  1.00  0.00     0.297 C 
INPUT-LIGAND-PDBQT: BRANCH  29  30
INPUT-LIGAND-PDBQT: ATOM     30  N   UNL     1      -3.341  -3.530   5.305  1.00  0.00    -0.340 N 
INPUT-LIGAND-PDBQT: ATOM     31  H   UNL     1      -2.316  -3.746   5.274  1.00  0.00     0.346 HD
INPUT-LIGAND-PDBQT: ATOM     32  H   UNL     1      -3.760  -4.150   6.038  1.00  0.00     0.346 HD
INPUT-LIGAND-PDBQT: BRANCH  30  33
INPUT-LIGAND-PDBQT: ATOM     33  C   UNL     1      -3.583  -2.115   5.682  1.00  0.00     0.182 C 
INPUT-LIGAND-PDBQT: ATOM     34  C   UNL     1      -3.467  -1.913   7.196  1.00  0.00     0.065 C 
INPUT-LIGAND-PDBQT: ATOM     35  C   UNL     1      -2.561  -1.139   5.062  1.00  0.00     0.065 C 
INPUT-LIGAND-PDBQT: ATOM     36  C   UNL     1      -2.965  -0.495   7.377  1.00  0.00     0.006 C 
INPUT-LIGAND-PDBQT: ATOM     37  C   UNL     1      -2.046  -0.252   6.193  1.00  0.00     0.006 C 
INPUT-LIGAND-PDBQT: ENDBRANCH  30  33
INPUT-LIGAND-PDBQT: ENDBRANCH  29  30
INPUT-LIGAND-PDBQT: ENDBRANCH  27  29
INPUT-LIGAND-PDBQT: ENDBRANCH   5  23
INPUT-LIGAND-PDBQT: TORSDOF 9


    FINAL DOCKED STATE:
    ________________________


Run:   1 / 20
Time taken for this run:   0.078s

DOCKED: MODEL        1
DOCKED: USER    Run = 1
DOCKED: USER
DOCKED: USER    Estimated Free Energy of Binding    =  -8.63 kcal/mol  [=(1)+(2)+(3)-(4)]
DOCKED: USER
DOCKED: USER    (1) Final Intermolecular Energy     = -11.31 kcal/mol
DOCKED: USER        vdW + Hbond + desolv Energy     =  -9.69 kcal/mol
DOCKED: USER        Electrostatic Energy            =  -1.62 kcal/mol
DOCKED: USER        Moving Ligand-Fixed Receptor    = -11.31 kcal/mol
DOCKED: USER        Moving Ligand-Moving Receptor   =  +0.00 kcal/mol
DOCKED: USER    (2) Final Total Internal Energy     =  -3.34 kcal/mol
DOCKED: USER    (3) Torsional Free Energy           =  +2.68 kcal/mol
DOCKED: USER    (4) Unbound System's Energy         =  -3.34 kcal/mol
DOCKED: USER
DOCKED: USER
DOCKED: REMARK SMILES O=C([N-]Cc1cccc(-c2cccc(C[NH2+]C3CCCC3)c2)c1)c1ccc(-c2ccccc2)cc1
DOCKED: REMARK SMILES IDX 5 1 6 2 7 3 8 4 9 5 23 6 4 7 3 8 2 9 1 10 24 11 25 12 35 13
DOCKED: REMARK SMILES IDX 26 14 34 15 27 16 28 17 29 18 33 19 30 20 32 21 31 22 10 23
DOCKED: REMARK SMILES IDX 11 24 22 25 12 26 14 27 13 28 15 29 16 30 17 33 18 34 21 35
DOCKED: REMARK SMILES IDX 19 36 20 37
DOCKED: REMARK H PARENT 16 31 16 32
DOCKED: USER                              x       y       z     vdW  Elec       q    Type
DOCKED: USER                           _______ _______ _______ _____ _____    ______ ____
DOCKED: ROOT
DOCKED: ATOM      1  C   UNL     1     144.353  73.559 216.727 -0.10 +0.01    -0.065 A  
DOCKED: ATOM      2  C   UNL     1     143.288  72.719 216.371 -0.03 -0.00    +0.002 A  
DOCKED: ATOM      3  C   UNL     1     141.981  73.210 216.349 -0.01 -0.00    +0.001 A  
DOCKED: ATOM      4  C   UNL     1     141.722  74.534 216.708 -0.03 -0.00    +0.009 A  
DOCKED: ATOM      5  C   UNL     1     142.773  75.389 217.089 -0.13 +0.01    -0.018 A  
DOCKED: ATOM      6  C   UNL     1     144.091  74.892 217.083 -0.17 -0.00    +0.010 A  
DOCKED: ENDROOT
DOCKED: BRANCH   1   7
DOCKED: ATOM      7  C   UNL     1     145.748  73.008 216.828 -0.14 -0.03    -0.081 C  
DOCKED: BRANCH   7   8
DOCKED: ATOM      8  N   UNL     1     146.253  73.197 218.184 -0.35 -0.64    -0.646 NA 
DOCKED: BRANCH   8   9
DOCKED: ATOM      9  C   UNL     1     145.676  72.577 219.340 -0.29 +0.04    +0.082 C  
DOCKED: ATOM     10  O   UNL     1     146.283  71.632 219.914 -0.37 -0.22    -0.315 OA 
DOCKED: BRANCH   9  11
DOCKED: ATOM     11  C   UNL     1     144.367  73.042 219.859 -0.36 +0.00    -0.001 A  
DOCKED: ATOM     12  C   UNL     1     144.201  74.372 220.283 -0.45 -0.00    +0.011 A  
DOCKED: ATOM     13  C   UNL     1     143.268  72.167 219.921 -0.23 -0.00    +0.011 A  
DOCKED: ATOM     14  C   UNL     1     142.963  74.816 220.758 -0.20 -0.00    +0.009 A  
DOCKED: ATOM     15  C   UNL     1     142.029  72.612 220.395 -0.20 -0.00    +0.009 A  
DOCKED: ATOM     16  C   UNL     1     141.864  73.942 220.818 -0.28 +0.00    -0.018 A  
DOCKED: BRANCH  16  17
DOCKED: ATOM     17  C   UNL     1     140.549  74.413 221.324 -0.29 +0.00    -0.018 A  
DOCKED: ATOM     18  C   UNL     1     139.410  73.592 221.227 -0.20 -0.00    +0.009 A  
DOCKED: ATOM     19  C   UNL     1     140.424  75.687 221.908 -0.36 -0.00    +0.009 A  
DOCKED: ATOM     20  C   UNL     1     138.173  74.039 221.704 -0.18 -0.00    +0.001 A  
DOCKED: ATOM     21  C   UNL     1     139.184  76.130 222.382 -0.33 -0.00    +0.001 A  
DOCKED: ATOM     22  C   UNL     1     138.061  75.306 222.280 -0.22 -0.00    +0.000 A  
DOCKED: ENDBRANCH  16  17
DOCKED: ENDBRANCH   9  11
DOCKED: ENDBRANCH   8   9
DOCKED: ENDBRANCH   7   8
DOCKED: ENDBRANCH   1   7
DOCKED: BRANCH   5  23
DOCKED: ATOM     23  C   UNL     1     142.493  76.778 217.541 -0.22 +0.01    -0.018 A  
DOCKED: ATOM     24  C   UNL     1     142.789  77.871 216.705 -0.23 -0.01    +0.009 A  
DOCKED: ATOM     25  C   UNL     1     141.960  77.025 218.820 -0.23 -0.01    +0.018 A  
DOCKED: ATOM     26  C   UNL     1     142.557  79.179 217.138 -0.20 -0.00    +0.001 A  
DOCKED: ATOM     27  C   UNL     1     141.735  78.340 219.262 -0.26 -0.00    +0.007 A  
DOCKED: ATOM     28  C   UNL     1     142.032  79.415 218.410 -0.29 -0.01    +0.009 A  
DOCKED: BRANCH  27  29
DOCKED: ATOM     29  C   UNL     1     141.207  78.595 220.653 -0.16 -0.14    +0.297 C  
DOCKED: BRANCH  29  30
DOCKED: ATOM     30  N   UNL     1     142.198  78.286 221.701 +0.01 +0.25    -0.340 N  
DOCKED: ATOM     31  H   UNL     1     143.170  78.428 221.335 -0.32 -0.44    +0.346 HD 
DOCKED: ATOM     32  H   UNL     1     142.096  77.263 221.904 -0.34 -0.31    +0.346 HD 
DOCKED: BRANCH  30  33
DOCKED: ATOM     33  C   UNL     1     141.979  79.045 222.958 -0.44 -0.07    +0.182 C  
DOCKED: ATOM     34  C   UNL     1     142.950  80.224 223.075 -0.61 -0.02    +0.065 C  
DOCKED: ATOM     35  C   UNL     1     140.570  79.668 223.051 -0.43 -0.01    +0.065 C  
DOCKED: ATOM     36  C   UNL     1     142.204  81.285 223.858 -0.63 -0.00    +0.006 C  
DOCKED: ATOM     37  C   UNL     1     140.753  81.134 223.437 -0.42 -0.00    +0.006 C  
DOCKED: ENDBRANCH  30  33
DOCKED: ENDBRANCH  29  30
DOCKED: ENDBRANCH  27  29
DOCKED: ENDBRANCH   5  23
DOCKED: TORSDOF 9
DOCKED: TER
DOCKED: ENDMDL
________________________________________________________________________________


    FINAL DOCKED STATE:
    ________________________


Run:   2 / 20
Time taken for this run:   0.078s

DOCKED: MODEL        2
DOCKED: USER    Run = 2
DOCKED: USER
DOCKED: USER    Estimated Free Energy of Binding    =  -8.98 kcal/mol  [=(1)+(2)+(3)-(4)]
DOCKED: USER
DOCKED: USER    (1) Final Intermolecular Energy     = -11.66 kcal/mol
DOCKED: USER        vdW + Hbond + desolv Energy     = -11.29 kcal/mol
DOCKED: USER        Electrostatic Energy            =  -0.37 kcal/mol
DOCKED: USER        Moving Ligand-Fixed Receptor    = -11.66 kcal/mol
DOCKED: USER        Moving Ligand-Moving Receptor   =  +0.00 kcal/mol
DOCKED: USER    (2) Final Total Internal Energy     =  -2.07 kcal/mol
DOCKED: USER    (3) Torsional Free Energy           =  +2.68 kcal/mol
DOCKED: USER    (4) Unbound System's Energy         =  -2.07 kcal/mol
DOCKED: USER
DOCKED: USER
DOCKED: REMARK SMILES O=C([N-]Cc1cccc(-c2cccc(C[NH2+]C3CCCC3)c2)c1)c1ccc(-c2ccccc2)cc1
DOCKED: REMARK SMILES IDX 5 1 6 2 7 3 8 4 9 5 23 6 4 7 3 8 2 9 1 10 24 11 25 12 35 13
DOCKED: REMARK SMILES IDX 26 14 34 15 27 16 28 17 29 18 33 19 30 20 32 21 31 22 10 23
DOCKED: REMARK SMILES IDX 11 24 22 25 12 26 14 27 13 28 15 29 16 30 17 33 18 34 21 35
DOCKED: REMARK SMILES IDX 19 36 20 37
DOCKED: REMARK H PARENT 16 31 16 32
DOCKED: USER                              x       y       z     vdW  Elec       q    Type
DOCKED: USER                           _______ _______ _______ _____ _____    ______ ____
DOCKED: ROOT
DOCKED: ATOM      1  C   UNL     1     136.037  73.560 222.389 -0.12 +0.02    -0.065 A  
DOCKED: ATOM      2  C   UNL     1     135.401  73.415 223.631 -0.21 -0.00    +0.002 A  
DOCKED: ATOM      3  C   UNL     1     135.386  74.474 224.542 -0.32 -0.00    +0.001 A  
DOCKED: ATOM      4  C   UNL     1     136.027  75.675 224.232 -0.23 -0.00    +0.009 A  
DOCKED: ATOM      5  C   UNL     1     136.688  75.835 223.000 -0.26 +0.00    -0.018 A  
DOCKED: ATOM      6  C   UNL     1     136.675  74.770 222.078 -0.16 -0.00    +0.010 A  
DOCKED: ENDROOT
DOCKED: BRANCH   1   7
DOCKED: ATOM      7  C   UNL     1     136.121  72.393 221.445 -0.06 +0.02    -0.081 C  
DOCKED: BRANCH   7   8
DOCKED: ATOM      8  N   UNL     1     137.377  72.451 220.705 +0.03 +0.13    -0.646 NA 
DOCKED: BRANCH   8   9
DOCKED: ATOM      9  C   UNL     1     138.645  72.729 221.313 -0.13 -0.02    +0.082 C  
DOCKED: ATOM     10  O   UNL     1     139.409  73.595 220.805 -0.07 +0.06    -0.315 OA 
DOCKED: BRANCH   9  11
DOCKED: ATOM     11  C   UNL     1     139.061  71.999 222.535 -0.25 +0.00    -0.001 A  
DOCKED: ATOM     12  C   UNL     1     138.237  71.002 223.084 -0.22 -0.00    +0.011 A  
DOCKED: ATOM     13  C   UNL     1     140.293  72.278 223.154 -0.33 -0.00    +0.011 A  
DOCKED: ATOM     14  C   UNL     1     138.635  70.301 224.226 -0.32 -0.00    +0.009 A  
DOCKED: ATOM     15  C   UNL     1     140.691  71.576 224.296 -0.42 -0.00    +0.009 A  
DOCKED: ATOM     16  C   UNL     1     139.866  70.580 224.844 -0.44 +0.00    -0.018 A  
DOCKED: BRANCH  16  17
DOCKED: ATOM     17  C   UNL     1     140.289  69.836 226.058 -0.50 +0.00    -0.018 A  
DOCKED: ATOM     18  C   UNL     1     140.673  70.527 227.223 -0.63 -0.00    +0.009 A  
DOCKED: ATOM     19  C   UNL     1     140.311  68.429 226.062 -0.57 -0.00    +0.009 A  
DOCKED: ATOM     20  C   UNL     1     141.070  69.823 228.365 -0.55 -0.00    +0.001 A  
DOCKED: ATOM     21  C   UNL     1     140.711  67.730 227.206 -0.65 -0.00    +0.001 A  
DOCKED: ATOM     22  C   UNL     1     141.090  68.427 228.356 -0.66 -0.00    +0.000 A  
DOCKED: ENDBRANCH  16  17
DOCKED: ENDBRANCH   9  11
DOCKED: ENDBRANCH   8   9
DOCKED: ENDBRANCH   7   8
DOCKED: ENDBRANCH   1   7
DOCKED: BRANCH   5  23
DOCKED: ATOM     23  C   UNL     1     137.432  77.086 222.697 -0.26 +0.00    -0.018 A  
DOCKED: ATOM     24  C   UNL     1     136.900  78.337 223.064 -0.15 -0.00    +0.009 A  
DOCKED: ATOM     25  C   UNL     1     138.661  77.045 222.011 -0.26 -0.00    +0.018 A  
DOCKED: ATOM     26  C   UNL     1     137.581  79.516 222.753 -0.22 -0.00    +0.001 A  
DOCKED: ATOM     27  C   UNL     1     139.343  78.230 221.688 -0.22 -0.00    +0.007 A  
DOCKED: ATOM     28  C   UNL     1     138.797  79.466 222.069 -0.21 -0.00    +0.009 A  
DOCKED: BRANCH  27  29
DOCKED: ATOM     29  C   UNL     1     140.636  78.177 220.911 -0.13 -0.11    +0.297 C  
DOCKED: BRANCH  29  30
DOCKED: ATOM     30  N   UNL     1     141.807  77.937 221.776 -0.04 +0.22    -0.340 N  
DOCKED: ATOM     31  H   UNL     1     142.563  77.450 221.237 -0.34 -0.35    +0.346 HD 
DOCKED: ATOM     32  H   UNL     1     141.487  77.271 222.519 -0.09 -0.18    +0.346 HD 
DOCKED: BRANCH  30  33
DOCKED: ATOM     33  C   UNL     1     142.317  79.169 222.428 -0.36 -0.09    +0.182 C  
DOCKED: ATOM     34  C   UNL     1     141.977  80.416 221.606 -0.41 -0.02    +0.065 C  
DOCKED: ATOM     35  C   UNL     1     141.700  79.418 223.820 -0.57 -0.02    +0.065 C  
DOCKED: ATOM     36  C   UNL     1     141.816  81.534 222.617 -0.49 -0.00    +0.006 C  
DOCKED: ATOM     37  C   UNL     1     141.220  80.867 223.844 -0.48 -0.00    +0.006 C  
DOCKED: ENDBRANCH  30  33
DOCKED: ENDBRANCH  29  30
DOCKED: ENDBRANCH  27  29
DOCKED: ENDBRANCH   5  23
DOCKED: TORSDOF 9
DOCKED: TER
DOCKED: ENDMDL
________________________________________________________________________________


    FINAL DOCKED STATE:
    ________________________


Run:   3 / 20
Time taken for this run:   0.078s

DOCKED: MODEL        3
DOCKED: USER    Run = 3
DOCKED: USER
DOCKED: USER    Estimated Free Energy of Binding    =  -8.29 kcal/mol  [=(1)+(2)+(3)-(4)]
DOCKED: USER
DOCKED: USER    (1) Final Intermolecular Energy     = -10.98 kcal/mol
DOCKED: USER        vdW + Hbond + desolv Energy     = -10.46 kcal/mol
DOCKED: USER        Electrostatic Energy            =  -0.52 kcal/mol
DOCKED: USER        Moving Ligand-Fixed Receptor    = -10.98 kcal/mol
DOCKED: USER        Moving Ligand-Moving Receptor   =  +0.00 kcal/mol
DOCKED: USER    (2) Final Total Internal Energy     =  -2.99 kcal/mol
DOCKED: USER    (3) Torsional Free Energy           =  +2.68 kcal/mol
DOCKED: USER    (4) Unbound System's Energy         =  -2.99 kcal/mol
DOCKED: USER
DOCKED: USER
DOCKED: REMARK SMILES O=C([N-]Cc1cccc(-c2cccc(C[NH2+]C3CCCC3)c2)c1)c1ccc(-c2ccccc2)cc1
DOCKED: REMARK SMILES IDX 5 1 6 2 7 3 8 4 9 5 23 6 4 7 3 8 2 9 1 10 24 11 25 12 35 13
DOCKED: REMARK SMILES IDX 26 14 34 15 27 16 28 17 29 18 33 19 30 20 32 21 31 22 10 23
DOCKED: REMARK SMILES IDX 11 24 22 25 12 26 14 27 13 28 15 29 16 30 17 33 18 34 21 35
DOCKED: REMARK SMILES IDX 19 36 20 37
DOCKED: REMARK H PARENT 16 31 16 32
DOCKED: USER                              x       y       z     vdW  Elec       q    Type
DOCKED: USER                           _______ _______ _______ _____ _____    ______ ____
DOCKED: ROOT
DOCKED: ATOM      1  C   UNL     1     136.971  73.952 220.629 -0.06 +0.01    -0.065 A  
DOCKED: ATOM      2  C   UNL     1     136.190  73.977 221.793 -0.11 -0.00    +0.002 A  
DOCKED: ATOM      3  C   UNL     1     136.486  74.875 222.821 -0.18 -0.00    +0.001 A  
DOCKED: ATOM      4  C   UNL     1     137.579  75.737 222.707 -0.24 -0.00    +0.009 A  
DOCKED: ATOM      5  C   UNL     1     138.389  75.714 221.555 -0.21 +0.00    -0.018 A  
DOCKED: ATOM      6  C   UNL     1     138.066  74.823 220.514 -0.09 -0.00    +0.010 A  
DOCKED: ENDROOT
DOCKED: BRANCH   1   7
DOCKED: ATOM      7  C   UNL     1     136.700  72.930 219.560 -0.01 +0.01    -0.081 C  
DOCKED: BRANCH   7   8
DOCKED: ATOM      8  N   UNL     1     137.644  71.825 219.688 +0.03 +0.12    -0.646 NA 
DOCKED: BRANCH   8   9
DOCKED: ATOM      9  C   UNL     1     138.994  71.982 220.142 -0.05 -0.02    +0.082 C  
DOCKED: ATOM     10  O   UNL     1     139.888  72.355 219.334 -0.01 +0.06    -0.315 OA 
DOCKED: BRANCH   9  11
DOCKED: ATOM     11  C   UNL     1     139.341  71.704 221.556 -0.17 +0.00    -0.001 A  
DOCKED: ATOM     12  C   UNL     1     138.681  70.686 222.264 -0.17 -0.00    +0.011 A  
DOCKED: ATOM     13  C   UNL     1     140.347  72.441 222.207 -0.31 -0.00    +0.011 A  
DOCKED: ATOM     14  C   UNL     1     139.018  70.411 223.594 -0.29 -0.00    +0.009 A  
DOCKED: ATOM     15  C   UNL     1     140.685  72.165 223.536 -0.20 -0.00    +0.009 A  
DOCKED: ATOM     16  C   UNL     1     140.024  71.147 224.243 -0.44 +0.00    -0.018 A  
DOCKED: BRANCH  16  17
DOCKED: ATOM     17  C   UNL     1     140.382  70.856 225.655 -0.55 +0.00    -0.018 A  
DOCKED: ATOM     18  C   UNL     1     140.305  69.544 226.157 -0.51 -0.00    +0.009 A  
DOCKED: ATOM     19  C   UNL     1     140.805  71.890 226.511 -0.67 -0.00    +0.009 A  
DOCKED: ATOM     20  C   UNL     1     140.644  69.273 227.487 -0.62 -0.00    +0.001 A  
DOCKED: ATOM     21  C   UNL     1     141.141  71.615 227.841 -0.80 -0.00    +0.001 A  
DOCKED: ATOM     22  C   UNL     1     141.060  70.307 228.328 -0.56 -0.00    +0.000 A  
DOCKED: ENDBRANCH  16  17
DOCKED: ENDBRANCH   9  11
DOCKED: ENDBRANCH   8   9
DOCKED: ENDBRANCH   7   8
DOCKED: ENDBRANCH   1   7
DOCKED: BRANCH   5  23
DOCKED: ATOM     23  C   UNL     1     139.594  76.580 221.461 -0.25 +0.00    -0.018 A  
DOCKED: ATOM     24  C   UNL     1     139.849  77.556 222.443 -0.35 -0.00    +0.009 A  
DOCKED: ATOM     25  C   UNL     1     140.483  76.460 220.375 -0.18 -0.01    +0.018 A  
DOCKED: ATOM     26  C   UNL     1     140.964  78.391 222.341 -0.43 -0.00    +0.001 A  
DOCKED: ATOM     27  C   UNL     1     141.599  77.306 220.265 -0.28 -0.00    +0.007 A  
DOCKED: ATOM     28  C   UNL     1     141.836  78.269 221.259 -0.35 -0.01    +0.009 A  
DOCKED: BRANCH  27  29
DOCKED: ATOM     29  C   UNL     1     142.518  77.201 219.073 -0.20 -0.19    +0.297 C  
DOCKED: BRANCH  29  30
DOCKED: ATOM     30  N   UNL     1     143.761  76.464 219.377 -0.17 +0.25    -0.340 N  
DOCKED: ATOM     31  H   UNL     1     144.424  77.076 219.910 -0.35 -0.35    +0.346 HD 
DOCKED: ATOM     32  H   UNL     1     144.211  76.261 218.453 -0.14 -0.26    +0.346 HD 
DOCKED: BRANCH  30  33
DOCKED: ATOM     33  C   UNL     1     143.523  75.181 220.084 -0.28 -0.09    +0.182 C  
DOCKED: ATOM     34  C   UNL     1     142.704  74.214 219.225 -0.18 -0.02    +0.065 C  
DOCKED: ATOM     35  C   UNL     1     144.824  74.424 220.421 -0.43 -0.02    +0.065 C  
DOCKED: ATOM     36  C   UNL     1     143.164  72.827 219.627 -0.22 -0.00    +0.006 C  
DOCKED: ATOM     37  C   UNL     1     144.640  72.984 219.948 -0.41 -0.00    +0.006 C  
DOCKED: ENDBRANCH  30  33
DOCKED: ENDBRANCH  29  30
DOCKED: ENDBRANCH  27  29
DOCKED: ENDBRANCH   5  23
DOCKED: TORSDOF 9
DOCKED: TER
DOCKED: ENDMDL
________________________________________________________________________________


    FINAL DOCKED STATE:
    ________________________


Run:   4 / 20
Time taken for this run:   0.078s

DOCKED: MODEL        4
DOCKED: USER    Run = 4
DOCKED: USER
DOCKED: USER    Estimated Free Energy of Binding    =  -8.61 kcal/mol  [=(1)+(2)+(3)-(4)]
DOCKED: USER
DOCKED: USER    (1) Final Intermolecular Energy     = -11.29 kcal/mol
DOCKED: USER        vdW + Hbond + desolv Energy     =  -9.62 kcal/mol
DOCKED: USER        Electrostatic Energy            =  -1.67 kcal/mol
DOCKED: USER        Moving Ligand-Fixed Receptor    = -11.29 kcal/mol
DOCKED: USER        Moving Ligand-Moving Receptor   =  +0.00 kcal/mol
DOCKED: USER    (2) Final Total Internal Energy     =  -2.76 kcal/mol
DOCKED: USER    (3) Torsional Free Energy           =  +2.68 kcal/mol
DOCKED: USER    (4) Unbound System's Energy         =  -2.76 kcal/mol
DOCKED: USER
DOCKED: USER
DOCKED: REMARK SMILES O=C([N-]Cc1cccc(-c2cccc(C[NH2+]C3CCCC3)c2)c1)c1ccc(-c2ccccc2)cc1
DOCKED: REMARK SMILES IDX 5 1 6 2 7 3 8 4 9 5 23 6 4 7 3 8 2 9 1 10 24 11 25 12 35 13
DOCKED: REMARK SMILES IDX 26 14 34 15 27 16 28 17 29 18 33 19 30 20 32 21 31 22 10 23
DOCKED: REMARK SMILES IDX 11 24 22 25 12 26 14 27 13 28 15 29 16 30 17 33 18 34 21 35
DOCKED: REMARK SMILES IDX 19 36 20 37
DOCKED: REMARK H PARENT 16 31 16 32
DOCKED: USER                              x       y       z     vdW  Elec       q    Type
DOCKED: USER                           _______ _______ _______ _____ _____    ______ ____
DOCKED: ROOT
DOCKED: ATOM      1  C   UNL     1     145.540  73.118 216.664 -0.15 -0.01    -0.065 A  
DOCKED: ATOM      2  C   UNL     1     146.579  73.434 215.776 -0.16 +0.00    +0.002 A  
DOCKED: ATOM      3  C   UNL     1     146.679  74.719 215.239 -0.19 -0.00    +0.001 A  
DOCKED: ATOM      4  C   UNL     1     145.730  75.691 215.561 -0.15 -0.01    +0.009 A  
DOCKED: ATOM      5  C   UNL     1     144.667  75.389 216.434 -0.13 +0.01    -0.018 A  
DOCKED: ATOM      6  C   UNL     1     144.590  74.098 216.990 -0.15 -0.00    +0.010 A  
DOCKED: ENDROOT
DOCKED: BRANCH   1   7
DOCKED: ATOM      7  C   UNL     1     145.388  71.713 217.177 -0.10 -0.04    -0.081 C  
DOCKED: BRANCH   7   8
DOCKED: ATOM      8  N   UNL     1     145.817  71.650 218.570 -0.25 -0.66    -0.646 NA 
DOCKED: BRANCH   8   9
DOCKED: ATOM      9  C   UNL     1     145.687  72.741 219.490 -0.34 +0.03    +0.082 C  
DOCKED: ATOM     10  O   UNL     1     146.715  73.359 219.881 -0.55 -0.18    -0.315 OA 
DOCKED: BRANCH   9  11
DOCKED: ATOM     11  C   UNL     1     144.348  73.141 219.987 -0.38 +0.00    -0.001 A  
DOCKED: ATOM     12  C   UNL     1     144.101  74.468 220.377 -0.44 -0.00    +0.011 A  
DOCKED: ATOM     13  C   UNL     1     143.300  72.205 220.060 -0.25 -0.00    +0.011 A  
DOCKED: ATOM     14  C   UNL     1     142.835  74.851 220.831 -0.19 -0.00    +0.009 A  
DOCKED: ATOM     15  C   UNL     1     142.034  72.589 220.512 -0.22 -0.00    +0.009 A  
DOCKED: ATOM     16  C   UNL     1     141.788  73.916 220.902 -0.27 +0.00    -0.018 A  
DOCKED: BRANCH  16  17
DOCKED: ATOM     17  C   UNL     1     140.443  74.322 221.385 -0.29 +0.00    -0.018 A  
DOCKED: ATOM     18  C   UNL     1     140.243  75.587 221.967 -0.35 -0.00    +0.009 A  
DOCKED: ATOM     19  C   UNL     1     139.347  73.446 221.266 -0.19 -0.00    +0.009 A  
DOCKED: ATOM     20  C   UNL     1     138.975  75.967 222.420 -0.32 -0.00    +0.001 A  
DOCKED: ATOM     21  C   UNL     1     138.082  73.829 221.722 -0.17 -0.00    +0.001 A  
DOCKED: ATOM     22  C   UNL     1     137.897  75.088 222.298 -0.18 -0.00    +0.000 A  
DOCKED: ENDBRANCH  16  17
DOCKED: ENDBRANCH   9  11
DOCKED: ENDBRANCH   8   9
DOCKED: ENDBRANCH   7   8
DOCKED: ENDBRANCH   1   7
DOCKED: BRANCH   5  23
DOCKED: ATOM     23  C   UNL     1     143.615  76.399 216.723 -0.24 +0.01    -0.018 A  
DOCKED: ATOM     24  C   UNL     1     143.304  77.394 215.777 -0.19 -0.01    +0.009 A  
DOCKED: ATOM     25  C   UNL     1     142.935  76.398 217.956 -0.26 -0.01    +0.018 A  
DOCKED: ATOM     26  C   UNL     1     142.338  78.363 216.057 -0.16 -0.00    +0.001 A  
DOCKED: ATOM     27  C   UNL     1     141.971  77.378 218.245 -0.22 -0.00    +0.007 A  
DOCKED: ATOM     28  C   UNL     1     141.673  78.357 217.284 -0.17 -0.01    +0.009 A  
DOCKED: BRANCH  27  29
DOCKED: ATOM     29  C   UNL     1     141.283  77.395 219.588 -0.11 -0.14    +0.297 C  
DOCKED: BRANCH  29  30
DOCKED: ATOM     30  N   UNL     1     142.168  77.863 220.672 -0.11 +0.25    -0.340 N  
DOCKED: ATOM     31  H   UNL     1     143.064  78.234 220.275 -0.23 -0.42    +0.346 HD 
DOCKED: ATOM     32  H   UNL     1     142.413  77.012 221.233 -0.36 -0.33    +0.346 HD 
DOCKED: BRANCH  30  33
DOCKED: ATOM     33  C   UNL     1     141.523  78.855 221.568 -0.30 -0.09    +0.182 C  
DOCKED: ATOM     34  C   UNL     1     142.405  79.168 222.781 -0.48 -0.03    +0.065 C  
DOCKED: ATOM     35  C   UNL     1     141.273  80.216 220.886 -0.30 -0.02    +0.065 C  
DOCKED: ATOM     36  C   UNL     1     142.095  80.605 223.146 -0.63 -0.00    +0.006 C  
DOCKED: ATOM     37  C   UNL     1     141.817  81.293 221.822 -0.45 -0.00    +0.006 C  
DOCKED: ENDBRANCH  30  33
DOCKED: ENDBRANCH  29  30
DOCKED: ENDBRANCH  27  29
DOCKED: ENDBRANCH   5  23
DOCKED: TORSDOF 9
DOCKED: TER
DOCKED: ENDMDL
________________________________________________________________________________


    FINAL DOCKED STATE:
    ________________________


Run:   5 / 20
Time taken for this run:   0.078s

DOCKED: MODEL        5
DOCKED: USER    Run = 5
DOCKED: USER
DOCKED: USER    Estimated Free Energy of Binding    =  -8.46 kcal/mol  [=(1)+(2)+(3)-(4)]
DOCKED: USER
DOCKED: USER    (1) Final Intermolecular Energy     = -11.15 kcal/mol
DOCKED: USER        vdW + Hbond + desolv Energy     =  -9.62 kcal/mol
DOCKED: USER        Electrostatic Energy            =  -1.53 kcal/mol
DOCKED: USER        Moving Ligand-Fixed Receptor    = -11.15 kcal/mol
DOCKED: USER        Moving Ligand-Moving Receptor   =  +0.00 kcal/mol
DOCKED: USER    (2) Final Total Internal Energy     =  -2.86 kcal/mol
DOCKED: USER    (3) Torsional Free Energy           =  +2.68 kcal/mol
DOCKED: USER    (4) Unbound System's Energy         =  -2.86 kcal/mol
DOCKED: USER
DOCKED: USER
DOCKED: REMARK SMILES O=C([N-]Cc1cccc(-c2cccc(C[NH2+]C3CCCC3)c2)c1)c1ccc(-c2ccccc2)cc1
DOCKED: REMARK SMILES IDX 5 1 6 2 7 3 8 4 9 5 23 6 4 7 3 8 2 9 1 10 24 11 25 12 35 13
DOCKED: REMARK SMILES IDX 26 14 34 15 27 16 28 17 29 18 33 19 30 20 32 21 31 22 10 23
DOCKED: REMARK SMILES IDX 11 24 22 25 12 26 14 27 13 28 15 29 16 30 17 33 18 34 21 35
DOCKED: REMARK SMILES IDX 19 36 20 37
DOCKED: REMARK H PARENT 16 31 16 32
DOCKED: USER                              x       y       z     vdW  Elec       q    Type
DOCKED: USER                           _______ _______ _______ _____ _____    ______ ____
DOCKED: ROOT
DOCKED: ATOM      1  C   UNL     1     145.294  74.098 216.078 -0.14 +0.01    -0.065 A  
DOCKED: ATOM      2  C   UNL     1     145.795  74.279 214.780 -0.10 -0.00    +0.002 A  
DOCKED: ATOM      3  C   UNL     1     145.433  75.403 214.036 -0.11 -0.00    +0.001 A  
DOCKED: ATOM      4  C   UNL     1     144.549  76.344 214.569 -0.17 -0.01    +0.009 A  
DOCKED: ATOM      5  C   UNL     1     144.018  76.171 215.862 -0.21 +0.01    -0.018 A  
DOCKED: ATOM      6  C   UNL     1     144.409  75.047 216.614 -0.17 -0.00    +0.010 A  
DOCKED: ENDROOT
DOCKED: BRANCH   1   7
DOCKED: ATOM      7  C   UNL     1     145.621  72.847 216.845 -0.13 -0.03    -0.081 C  
DOCKED: BRANCH   7   8
DOCKED: ATOM      8  N   UNL     1     146.182  73.201 218.144 -0.37 -0.59    -0.646 NA 
DOCKED: BRANCH   8   9
DOCKED: ATOM      9  C   UNL     1     145.650  72.738 219.392 -0.33 +0.03    +0.082 C  
DOCKED: ATOM     10  O   UNL     1     146.291  71.889 220.071 -0.43 -0.18    -0.315 OA 
DOCKED: BRANCH   9  11
DOCKED: ATOM     11  C   UNL     1     144.349  73.250 219.883 -0.38 +0.00    -0.001 A  
DOCKED: ATOM     12  C   UNL     1     143.355  72.361 220.326 -0.28 -0.00    +0.011 A  
DOCKED: ATOM     13  C   UNL     1     144.092  74.633 219.929 -0.42 -0.00    +0.011 A  
DOCKED: ATOM     14  C   UNL     1     142.132  72.843 220.805 -0.26 -0.00    +0.009 A  
DOCKED: ATOM     15  C   UNL     1     142.870  75.114 220.409 -0.30 -0.00    +0.009 A  
DOCKED: ATOM     16  C   UNL     1     141.877  74.224 220.853 -0.28 +0.00    -0.018 A  
DOCKED: BRANCH  16  17
DOCKED: ATOM     17  C   UNL     1     140.579  74.737 221.360 -0.30 +0.00    -0.018 A  
DOCKED: ATOM     18  C   UNL     1     139.382  74.049 221.087 -0.19 -0.00    +0.009 A  
DOCKED: ATOM     19  C   UNL     1     140.527  75.919 222.122 -0.34 -0.00    +0.009 A  
DOCKED: ATOM     20  C   UNL     1     138.161  74.534 221.567 -0.19 -0.00    +0.001 A  
DOCKED: ATOM     21  C   UNL     1     139.303  76.401 222.598 -0.29 -0.00    +0.001 A  
DOCKED: ATOM     22  C   UNL     1     138.122  75.709 222.321 -0.28 -0.00    +0.000 A  
DOCKED: ENDBRANCH  16  17
DOCKED: ENDBRANCH   9  11
DOCKED: ENDBRANCH   8   9
DOCKED: ENDBRANCH   7   8
DOCKED: ENDBRANCH   1   7
DOCKED: BRANCH   5  23
DOCKED: ATOM     23  C   UNL     1     143.022  77.132 216.405 -0.22 +0.01    -0.018 A  
DOCKED: ATOM     24  C   UNL     1     142.581  78.218 215.624 -0.14 -0.01    +0.009 A  
DOCKED: ATOM     25  C   UNL     1     142.527  76.992 217.716 -0.25 -0.01    +0.018 A  
DOCKED: ATOM     26  C   UNL     1     141.668  79.140 216.143 -0.14 -0.00    +0.001 A  
DOCKED: ATOM     27  C   UNL     1     141.617  77.924 218.243 -0.20 -0.00    +0.007 A  
DOCKED: ATOM     28  C   UNL     1     141.187  78.996 217.445 -0.13 -0.01    +0.009 A  
DOCKED: BRANCH  27  29
DOCKED: ATOM     29  C   UNL     1     141.130  77.791 219.665 -0.11 -0.14    +0.297 C  
DOCKED: BRANCH  29  30
DOCKED: ATOM     30  N   UNL     1     142.169  78.138 220.655 -0.09 +0.25    -0.340 N  
DOCKED: ATOM     31  H   UNL     1     143.104  78.215 220.188 -0.23 -0.43    +0.346 HD 
DOCKED: ATOM     32  H   UNL     1     142.224  77.325 221.313 -0.33 -0.29    +0.346 HD 
DOCKED: BRANCH  30  33
DOCKED: ATOM     33  C   UNL     1     141.852  79.361 221.434 -0.29 -0.09    +0.182 C  
DOCKED: ATOM     34  C   UNL     1     140.349  79.470 221.714 -0.25 -0.02    +0.065 C  
DOCKED: ATOM     35  C   UNL     1     142.527  79.389 222.821 -0.55 -0.03    +0.065 C  
DOCKED: ATOM     36  C   UNL     1     140.238  80.194 223.040 -0.43 -0.00    +0.006 C  
DOCKED: ATOM     37  C   UNL     1     141.443  79.731 223.840 -0.58 -0.00    +0.006 C  
DOCKED: ENDBRANCH  30  33
DOCKED: ENDBRANCH  29  30
DOCKED: ENDBRANCH  27  29
DOCKED: ENDBRANCH   5  23
DOCKED: TORSDOF 9
DOCKED: TER
DOCKED: ENDMDL
________________________________________________________________________________


    FINAL DOCKED STATE:
    ________________________


Run:   6 / 20
Time taken for this run:   0.078s

DOCKED: MODEL        6
DOCKED: USER    Run = 6
DOCKED: USER
DOCKED: USER    Estimated Free Energy of Binding    =  -7.50 kcal/mol  [=(1)+(2)+(3)-(4)]
DOCKED: USER
DOCKED: USER    (1) Final Intermolecular Energy     = -10.18 kcal/mol
DOCKED: USER        vdW + Hbond + desolv Energy     =  -8.95 kcal/mol
DOCKED: USER        Electrostatic Energy            =  -1.24 kcal/mol
DOCKED: USER        Moving Ligand-Fixed Receptor    = -10.18 kcal/mol
DOCKED: USER        Moving Ligand-Moving Receptor   =  +0.00 kcal/mol
DOCKED: USER    (2) Final Total Internal Energy     =  -3.76 kcal/mol
DOCKED: USER    (3) Torsional Free Energy           =  +2.68 kcal/mol
DOCKED: USER    (4) Unbound System's Energy         =  -3.76 kcal/mol
DOCKED: USER
DOCKED: USER
DOCKED: REMARK SMILES O=C([N-]Cc1cccc(-c2cccc(C[NH2+]C3CCCC3)c2)c1)c1ccc(-c2ccccc2)cc1
DOCKED: REMARK SMILES IDX 5 1 6 2 7 3 8 4 9 5 23 6 4 7 3 8 2 9 1 10 24 11 25 12 35 13
DOCKED: REMARK SMILES IDX 26 14 34 15 27 16 28 17 29 18 33 19 30 20 32 21 31 22 10 23
DOCKED: REMARK SMILES IDX 11 24 22 25 12 26 14 27 13 28 15 29 16 30 17 33 18 34 21 35
DOCKED: REMARK SMILES IDX 19 36 20 37
DOCKED: REMARK H PARENT 16 31 16 32
DOCKED: USER                              x       y       z     vdW  Elec       q    Type
DOCKED: USER                           _______ _______ _______ _____ _____    ______ ____
DOCKED: ROOT
DOCKED: ATOM      1  C   UNL     1     139.874  80.080 223.496 -0.40 +0.01    -0.065 A  
DOCKED: ATOM      2  C   UNL     1     140.926  79.406 224.133 -0.43 -0.00    +0.002 A  
DOCKED: ATOM      3  C   UNL     1     142.169  79.288 223.507 -0.62 -0.00    +0.001 A  
DOCKED: ATOM      4  C   UNL     1     142.365  79.818 222.230 -0.52 -0.00    +0.009 A  
DOCKED: ATOM      5  C   UNL     1     141.317  80.481 221.564 -0.37 +0.01    -0.018 A  
DOCKED: ATOM      6  C   UNL     1     140.075  80.617 222.215 -0.30 -0.00    +0.010 A  
DOCKED: ENDROOT
DOCKED: BRANCH   1   7
DOCKED: ATOM      7  C   UNL     1     138.516  80.135 224.137 -0.33 +0.01    -0.081 C  
DOCKED: BRANCH   7   8
DOCKED: ATOM      8  N   UNL     1     137.486  79.955 223.119 +0.01 +0.09    -0.646 NA 
DOCKED: BRANCH   8   9
DOCKED: ATOM      9  C   UNL     1     137.229  78.708 222.461 -0.17 -0.01    +0.082 C  
DOCKED: ATOM     10  O   UNL     1     136.041  78.329 222.276 -0.06 +0.05    -0.315 OA 
DOCKED: BRANCH   9  11
DOCKED: ATOM     11  C   UNL     1     138.357  77.863 222.002 -0.22 +0.00    -0.001 A  
DOCKED: ATOM     12  C   UNL     1     138.993  78.128 220.776 -0.12 -0.00    +0.011 A  
DOCKED: ATOM     13  C   UNL     1     138.821  76.794 222.790 -0.22 -0.00    +0.011 A  
DOCKED: ATOM     14  C   UNL     1     140.068  77.341 220.349 -0.15 -0.00    +0.009 A  
DOCKED: ATOM     15  C   UNL     1     139.897  76.009 222.363 -0.34 -0.00    +0.009 A  
DOCKED: ATOM     16  C   UNL     1     140.531  76.274 221.138 -0.28 +0.01    -0.018 A  
DOCKED: BRANCH  16  17
DOCKED: ATOM     17  C   UNL     1     141.672  75.438 220.684 -0.29 +0.01    -0.018 A  
DOCKED: ATOM     18  C   UNL     1     142.803  76.030 220.093 -0.31 -0.01    +0.009 A  
DOCKED: ATOM     19  C   UNL     1     141.638  74.039 220.840 -0.28 -0.00    +0.009 A  
DOCKED: ATOM     20  C   UNL     1     143.876  75.240 219.667 -0.39 -0.00    +0.001 A  
DOCKED: ATOM     21  C   UNL     1     142.712  73.253 220.411 -0.28 -0.00    +0.001 A  
DOCKED: ATOM     22  C   UNL     1     143.830  73.853 219.825 -0.35 -0.00    +0.000 A  
DOCKED: ENDBRANCH  16  17
DOCKED: ENDBRANCH   9  11
DOCKED: ENDBRANCH   8   9
DOCKED: ENDBRANCH   7   8
DOCKED: ENDBRANCH   1   7
DOCKED: BRANCH   5  23
DOCKED: ATOM     23  C   UNL     1     141.500  80.984 220.177 -0.30 +0.01    -0.018 A  
DOCKED: ATOM     24  C   UNL     1     141.548  82.368 219.922 -0.21 -0.00    +0.009 A  
DOCKED: ATOM     25  C   UNL     1     141.597  80.090 219.094 -0.26 -0.01    +0.018 A  
DOCKED: ATOM     26  C   UNL     1     141.689  82.844 218.616 -0.21 -0.00    +0.001 A  
DOCKED: ATOM     27  C   UNL     1     141.728  80.566 217.779 -0.24 -0.00    +0.007 A  
DOCKED: ATOM     28  C   UNL     1     141.779  81.950 217.548 -0.21 -0.01    +0.009 A  
DOCKED: BRANCH  27  29
DOCKED: ATOM     29  C   UNL     1     141.783  79.600 216.621 -0.10 -0.25    +0.297 C  
DOCKED: BRANCH  29  30
DOCKED: ATOM     30  N   UNL     1     142.962  78.713 216.678 +0.20 +0.48    -0.340 N  
DOCKED: ATOM     31  H   UNL     1     143.736  79.173 217.214 -0.42 -0.75    +0.346 HD 
DOCKED: ATOM     32  H   UNL     1     143.295  78.611 215.690 -0.22 -0.63    +0.346 HD 
DOCKED: BRANCH  30  33
DOCKED: ATOM     33  C   UNL     1     142.656  77.366 217.220 -0.20 -0.13    +0.182 C  
DOCKED: ATOM     34  C   UNL     1     141.158  77.055 217.131 -0.07 -0.03    +0.065 C  
DOCKED: ATOM     35  C   UNL     1     143.354  76.228 216.445 -0.19 -0.04    +0.065 C  
DOCKED: ATOM     36  C   UNL     1     141.068  75.554 216.950 -0.04 -0.00    +0.006 C  
DOCKED: ATOM     37  C   UNL     1     142.286  75.185 216.123 -0.06 -0.00    +0.006 C  
DOCKED: ENDBRANCH  30  33
DOCKED: ENDBRANCH  29  30
DOCKED: ENDBRANCH  27  29
DOCKED: ENDBRANCH   5  23
DOCKED: TORSDOF 9
DOCKED: TER
DOCKED: ENDMDL
________________________________________________________________________________


    FINAL DOCKED STATE:
    ________________________


Run:   7 / 20
Time taken for this run:   0.078s

DOCKED: MODEL        7
DOCKED: USER    Run = 7
DOCKED: USER
DOCKED: USER    Estimated Free Energy of Binding    =  -8.03 kcal/mol  [=(1)+(2)+(3)-(4)]
DOCKED: USER
DOCKED: USER    (1) Final Intermolecular Energy     = -10.71 kcal/mol
DOCKED: USER        vdW + Hbond + desolv Energy     = -10.10 kcal/mol
DOCKED: USER        Electrostatic Energy            =  -0.61 kcal/mol
DOCKED: USER        Moving Ligand-Fixed Receptor    = -10.71 kcal/mol
DOCKED: USER        Moving Ligand-Moving Receptor   =  +0.00 kcal/mol
DOCKED: USER    (2) Final Total Internal Energy     =  -3.44 kcal/mol
DOCKED: USER    (3) Torsional Free Energy           =  +2.68 kcal/mol
DOCKED: USER    (4) Unbound System's Energy         =  -3.44 kcal/mol
DOCKED: USER
DOCKED: USER
DOCKED: REMARK SMILES O=C([N-]Cc1cccc(-c2cccc(C[NH2+]C3CCCC3)c2)c1)c1ccc(-c2ccccc2)cc1
DOCKED: REMARK SMILES IDX 5 1 6 2 7 3 8 4 9 5 23 6 4 7 3 8 2 9 1 10 24 11 25 12 35 13
DOCKED: REMARK SMILES IDX 26 14 34 15 27 16 28 17 29 18 33 19 30 20 32 21 31 22 10 23
DOCKED: REMARK SMILES IDX 11 24 22 25 12 26 14 27 13 28 15 29 16 30 17 33 18 34 21 35
DOCKED: REMARK SMILES IDX 19 36 20 37
DOCKED: REMARK H PARENT 16 31 16 32
DOCKED: USER                              x       y       z     vdW  Elec       q    Type
DOCKED: USER                           _______ _______ _______ _____ _____    ______ ____
DOCKED: ROOT
DOCKED: ATOM      1  C   UNL     1     138.345  72.505 221.861 -0.15 +0.02    -0.065 A  
DOCKED: ATOM      2  C   UNL     1     138.363  71.793 223.069 -0.19 -0.00    +0.002 A  
DOCKED: ATOM      3  C   UNL     1     139.577  71.468 223.677 -0.37 -0.00    +0.001 A  
DOCKED: ATOM      4  C   UNL     1     140.784  71.827 223.073 -0.28 -0.00    +0.009 A  
DOCKED: ATOM      5  C   UNL     1     140.789  72.524 221.850 -0.29 +0.00    -0.018 A  
DOCKED: ATOM      6  C   UNL     1     139.559  72.870 221.258 -0.18 -0.00    +0.010 A  
DOCKED: ENDROOT
DOCKED: BRANCH   1   7
DOCKED: ATOM      7  C   UNL     1     137.040  72.782 221.168 -0.07 +0.02    -0.081 C  
DOCKED: BRANCH   7   8
DOCKED: ATOM      8  N   UNL     1     136.892  74.218 220.957 +0.03 +0.14    -0.646 NA 
DOCKED: BRANCH   8   9
DOCKED: ATOM      9  C   UNL     1     136.741  75.165 222.023 -0.16 -0.02    +0.082 C  
DOCKED: ATOM     10  O   UNL     1     135.707  75.138 222.744 -0.10 +0.07    -0.315 OA 
DOCKED: BRANCH   9  11
DOCKED: ATOM     11  C   UNL     1     137.795  76.177 222.274 -0.27 +0.00    -0.001 A  
DOCKED: ATOM     12  C   UNL     1     137.454  77.528 222.461 -0.22 -0.00    +0.011 A  
DOCKED: ATOM     13  C   UNL     1     139.148  75.801 222.347 -0.33 -0.00    +0.011 A  
DOCKED: ATOM     14  C   UNL     1     138.445  78.482 222.715 -0.28 -0.00    +0.009 A  
DOCKED: ATOM     15  C   UNL     1     140.139  76.755 222.602 -0.31 -0.00    +0.009 A  
DOCKED: ATOM     16  C   UNL     1     139.798  78.105 222.789 -0.33 +0.00    -0.018 A  
DOCKED: BRANCH  16  17
DOCKED: ATOM     17  C   UNL     1     140.851  79.118 223.057 -0.48 +0.00    -0.018 A  
DOCKED: ATOM     18  C   UNL     1     142.200  78.841 222.769 -0.45 -0.00    +0.009 A  
DOCKED: ATOM     19  C   UNL     1     140.514  80.371 223.603 -0.45 -0.00    +0.009 A  
DOCKED: ATOM     20  C   UNL     1     143.190  79.797 223.022 -0.55 -0.00    +0.001 A  
DOCKED: ATOM     21  C   UNL     1     141.508  81.323 223.857 -0.51 -0.00    +0.001 A  
DOCKED: ATOM     22  C   UNL     1     142.843  81.035 223.566 -0.55 -0.00    +0.000 A  
DOCKED: ENDBRANCH  16  17
DOCKED: ENDBRANCH   9  11
DOCKED: ENDBRANCH   8   9
DOCKED: ENDBRANCH   7   8
DOCKED: ENDBRANCH   1   7
DOCKED: BRANCH   5  23
DOCKED: ATOM     23  C   UNL     1     142.071  72.846 221.168 -0.23 +0.00    -0.018 A  
DOCKED: ATOM     24  C   UNL     1     143.134  71.923 221.179 -0.17 -0.00    +0.009 A  
DOCKED: ATOM     25  C   UNL     1     142.255  74.087 220.529 -0.27 -0.00    +0.018 A  
DOCKED: ATOM     26  C   UNL     1     144.350  72.235 220.566 -0.37 -0.00    +0.001 A  
DOCKED: ATOM     27  C   UNL     1     143.480  74.407 219.921 -0.36 -0.00    +0.007 A  
DOCKED: ATOM     28  C   UNL     1     144.525  73.469 219.939 -0.42 -0.00    +0.009 A  
DOCKED: BRANCH  27  29
DOCKED: ATOM     29  C   UNL     1     143.682  75.758 219.280 -0.18 -0.18    +0.297 C  
DOCKED: BRANCH  29  30
DOCKED: ATOM     30  N   UNL     1     143.000  76.841 220.014 -0.13 +0.27    -0.340 N  
DOCKED: ATOM     31  H   UNL     1     143.702  77.517 220.400 -0.38 -0.46    +0.346 HD 
DOCKED: ATOM     32  H   UNL     1     142.534  76.386 220.834 -0.31 -0.27    +0.346 HD 
DOCKED: BRANCH  30  33
DOCKED: ATOM     33  C   UNL     1     141.968  77.538 219.206 -0.21 -0.11    +0.182 C  
DOCKED: ATOM     34  C   UNL     1     140.574  76.955 219.457 -0.11 -0.02    +0.065 C  
DOCKED: ATOM     35  C   UNL     1     141.847  79.039 219.541 -0.25 -0.04    +0.065 C  
DOCKED: ATOM     36  C   UNL     1     139.612  78.109 219.263 -0.07 -0.00    +0.006 C  
DOCKED: ATOM     37  C   UNL     1     140.364  79.332 219.759 -0.15 -0.00    +0.006 C  
DOCKED: ENDBRANCH  30  33
DOCKED: ENDBRANCH  29  30
DOCKED: ENDBRANCH  27  29
DOCKED: ENDBRANCH   5  23
DOCKED: TORSDOF 9
DOCKED: TER
DOCKED: ENDMDL
________________________________________________________________________________


    FINAL DOCKED STATE:
    ________________________


Run:   8 / 20
Time taken for this run:   0.078s

DOCKED: MODEL        8
DOCKED: USER    Run = 8
DOCKED: USER
DOCKED: USER    Estimated Free Energy of Binding    =  -7.87 kcal/mol  [=(1)+(2)+(3)-(4)]
DOCKED: USER
DOCKED: USER    (1) Final Intermolecular Energy     = -10.55 kcal/mol
DOCKED: USER        vdW + Hbond + desolv Energy     =  -9.96 kcal/mol
DOCKED: USER        Electrostatic Energy            =  -0.60 kcal/mol
DOCKED: USER        Moving Ligand-Fixed Receptor    = -10.55 kcal/mol
DOCKED: USER        Moving Ligand-Moving Receptor   =  +0.00 kcal/mol
DOCKED: USER    (2) Final Total Internal Energy     =  -3.64 kcal/mol
DOCKED: USER    (3) Torsional Free Energy           =  +2.68 kcal/mol
DOCKED: USER    (4) Unbound System's Energy         =  -3.64 kcal/mol
DOCKED: USER
DOCKED: USER
DOCKED: REMARK SMILES O=C([N-]Cc1cccc(-c2cccc(C[NH2+]C3CCCC3)c2)c1)c1ccc(-c2ccccc2)cc1
DOCKED: REMARK SMILES IDX 5 1 6 2 7 3 8 4 9 5 23 6 4 7 3 8 2 9 1 10 24 11 25 12 35 13
DOCKED: REMARK SMILES IDX 26 14 34 15 27 16 28 17 29 18 33 19 30 20 32 21 31 22 10 23
DOCKED: REMARK SMILES IDX 11 24 22 25 12 26 14 27 13 28 15 29 16 30 17 33 18 34 21 35
DOCKED: REMARK SMILES IDX 19 36 20 37
DOCKED: REMARK H PARENT 16 31 16 32
DOCKED: USER                              x       y       z     vdW  Elec       q    Type
DOCKED: USER                           _______ _______ _______ _____ _____    ______ ____
DOCKED: ROOT
DOCKED: ATOM      1  C   UNL     1     138.297  72.542 221.443 -0.12 +0.01    -0.065 A  
DOCKED: ATOM      2  C   UNL     1     138.269  71.734 222.589 -0.20 -0.00    +0.002 A  
DOCKED: ATOM      3  C   UNL     1     139.457  71.389 223.236 -0.33 -0.00    +0.001 A  
DOCKED: ATOM      4  C   UNL     1     140.684  71.824 222.731 -0.32 -0.00    +0.009 A  
DOCKED: ATOM      5  C   UNL     1     140.736  72.619 221.570 -0.27 +0.00    -0.018 A  
DOCKED: ATOM      6  C   UNL     1     139.531  72.983 220.940 -0.15 -0.00    +0.010 A  
DOCKED: ENDROOT
DOCKED: BRANCH   1   7
DOCKED: ATOM      7  C   UNL     1     137.024  72.844 220.702 -0.05 +0.02    -0.081 C  
DOCKED: BRANCH   7   8
DOCKED: ATOM      8  N   UNL     1     136.672  74.248 220.886 +0.03 +0.13    -0.646 NA 
DOCKED: BRANCH   8   9
DOCKED: ATOM      9  C   UNL     1     136.763  74.932 222.142 -0.16 -0.02    +0.082 C  
DOCKED: ATOM     10  O   UNL     1     135.968  74.638 223.076 -0.13 +0.08    -0.315 OA 
DOCKED: BRANCH   9  11
DOCKED: ATOM     11  C   UNL     1     137.786  75.986 222.343 -0.27 +0.00    -0.001 A  
DOCKED: ATOM     12  C   UNL     1     137.401  77.320 222.559 -0.24 -0.00    +0.011 A  
DOCKED: ATOM     13  C   UNL     1     139.156  75.668 222.339 -0.33 -0.00    +0.011 A  
DOCKED: ATOM     14  C   UNL     1     138.364  78.314 222.766 -0.27 -0.00    +0.009 A  
DOCKED: ATOM     15  C   UNL     1     140.119  76.661 222.547 -0.32 -0.00    +0.009 A  
DOCKED: ATOM     16  C   UNL     1     139.732  77.994 222.762 -0.32 +0.00    -0.018 A  
DOCKED: BRANCH  16  17
DOCKED: ATOM     17  C   UNL     1     140.756  79.049 222.980 -0.46 +0.00    -0.018 A  
DOCKED: ATOM     18  C   UNL     1     142.112  78.799 222.698 -0.44 -0.00    +0.009 A  
DOCKED: ATOM     19  C   UNL     1     140.384  80.314 223.472 -0.46 -0.00    +0.009 A  
DOCKED: ATOM     20  C   UNL     1     143.073  79.795 222.904 -0.59 -0.00    +0.001 A  
DOCKED: ATOM     21  C   UNL     1     141.349  81.305 223.678 -0.49 -0.00    +0.001 A  
DOCKED: ATOM     22  C   UNL     1     142.692  81.045 223.394 -0.55 -0.00    +0.000 A  
DOCKED: ENDBRANCH  16  17
DOCKED: ENDBRANCH   9  11
DOCKED: ENDBRANCH   8   9
DOCKED: ENDBRANCH   7   8
DOCKED: ENDBRANCH   1   7
DOCKED: BRANCH   5  23
DOCKED: ATOM     23  C   UNL     1     142.044  73.024 220.988 -0.25 +0.00    -0.018 A  
DOCKED: ATOM     24  C   UNL     1     143.124  72.123 220.970 -0.23 -0.00    +0.009 A  
DOCKED: ATOM     25  C   UNL     1     142.232  74.323 220.477 -0.28 -0.01    +0.018 A  
DOCKED: ATOM     26  C   UNL     1     144.363  72.511 220.453 -0.40 -0.00    +0.001 A  
DOCKED: ATOM     27  C   UNL     1     143.480  74.718 219.966 -0.38 -0.00    +0.007 A  
DOCKED: ATOM     28  C   UNL     1     144.542  73.801 219.953 -0.44 -0.00    +0.009 A  
DOCKED: BRANCH  27  29
DOCKED: ATOM     29  C   UNL     1     143.684  76.127 219.465 -0.18 -0.20    +0.297 C  
DOCKED: BRANCH  29  30
DOCKED: ATOM     30  N   UNL     1     142.764  77.093 220.096 -0.12 +0.27    -0.340 N  
DOCKED: ATOM     31  H   UNL     1     143.303  77.888 220.514 -0.34 -0.46    +0.346 HD 
DOCKED: ATOM     32  H   UNL     1     142.310  76.583 220.890 -0.26 -0.26    +0.346 HD 
DOCKED: BRANCH  30  33
DOCKED: ATOM     33  C   UNL     1     141.707  77.582 219.176 -0.18 -0.10    +0.182 C  
DOCKED: ATOM     34  C   UNL     1     140.413  76.777 219.335 -0.09 -0.02    +0.065 C  
DOCKED: ATOM     35  C   UNL     1     141.307  79.049 219.438 -0.22 -0.03    +0.065 C  
DOCKED: ATOM     36  C   UNL     1     139.293  77.745 219.014 -0.05 -0.00    +0.006 C  
DOCKED: ATOM     37  C   UNL     1     139.783  79.090 219.519 -0.10 -0.00    +0.006 C  
DOCKED: ENDBRANCH  30  33
DOCKED: ENDBRANCH  29  30
DOCKED: ENDBRANCH  27  29
DOCKED: ENDBRANCH   5  23
DOCKED: TORSDOF 9
DOCKED: TER
DOCKED: ENDMDL
________________________________________________________________________________


    FINAL DOCKED STATE:
    ________________________


Run:   9 / 20
Time taken for this run:   0.078s

DOCKED: MODEL        9
DOCKED: USER    Run = 9
DOCKED: USER
DOCKED: USER    Estimated Free Energy of Binding    =  -9.35 kcal/mol  [=(1)+(2)+(3)-(4)]
DOCKED: USER
DOCKED: USER    (1) Final Intermolecular Energy     = -12.03 kcal/mol
DOCKED: USER        vdW + Hbond + desolv Energy     = -11.70 kcal/mol
DOCKED: USER        Electrostatic Energy            =  -0.34 kcal/mol
DOCKED: USER        Moving Ligand-Fixed Receptor    = -12.03 kcal/mol
DOCKED: USER        Moving Ligand-Moving Receptor   =  +0.00 kcal/mol
DOCKED: USER    (2) Final Total Internal Energy     =  -2.01 kcal/mol
DOCKED: USER    (3) Torsional Free Energy           =  +2.68 kcal/mol
DOCKED: USER    (4) Unbound System's Energy         =  -2.01 kcal/mol
DOCKED: USER
DOCKED: USER
DOCKED: REMARK SMILES O=C([N-]Cc1cccc(-c2cccc(C[NH2+]C3CCCC3)c2)c1)c1ccc(-c2ccccc2)cc1
DOCKED: REMARK SMILES IDX 5 1 6 2 7 3 8 4 9 5 23 6 4 7 3 8 2 9 1 10 24 11 25 12 35 13
DOCKED: REMARK SMILES IDX 26 14 34 15 27 16 28 17 29 18 33 19 30 20 32 21 31 22 10 23
DOCKED: REMARK SMILES IDX 11 24 22 25 12 26 14 27 13 28 15 29 16 30 17 33 18 34 21 35
DOCKED: REMARK SMILES IDX 19 36 20 37
DOCKED: REMARK H PARENT 16 31 16 32
DOCKED: USER                              x       y       z     vdW  Elec       q    Type
DOCKED: USER                           _______ _______ _______ _____ _____    ______ ____
DOCKED: ROOT
DOCKED: ATOM      1  C   UNL     1     141.362  81.473 222.143 -0.40 +0.01    -0.065 A  
DOCKED: ATOM      2  C   UNL     1     141.787  81.587 223.475 -0.53 -0.00    +0.002 A  
DOCKED: ATOM      3  C   UNL     1     142.144  80.449 224.200 -0.47 -0.00    +0.001 A  
DOCKED: ATOM      4  C   UNL     1     142.055  79.185 223.612 -0.60 -0.00    +0.009 A  
DOCKED: ATOM      5  C   UNL     1     141.612  79.046 222.283 -0.47 +0.01    -0.018 A  
DOCKED: ATOM      6  C   UNL     1     141.278  80.202 221.553 -0.37 -0.00    +0.010 A  
DOCKED: ENDROOT
DOCKED: BRANCH   1   7
DOCKED: ATOM      7  C   UNL     1     140.901  82.691 221.391 -0.29 +0.01    -0.081 C  
DOCKED: BRANCH   7   8
DOCKED: ATOM      8  N   UNL     1     139.461  82.614 221.169 +0.01 +0.11    -0.646 NA 
DOCKED: BRANCH   8   9
DOCKED: ATOM      9  C   UNL     1     138.620  81.612 221.755 -0.15 -0.01    +0.082 C  
DOCKED: ATOM     10  O   UNL     1     138.390  80.542 221.128 -0.03 +0.06    -0.315 OA 
DOCKED: BRANCH   9  11
DOCKED: ATOM     11  C   UNL     1     138.018  81.832 223.091 -0.21 +0.00    -0.001 A  
DOCKED: ATOM     12  C   UNL     1     137.180  82.938 223.321 -0.13 -0.00    +0.011 A  
DOCKED: ATOM     13  C   UNL     1     138.259  80.933 224.145 -0.38 -0.00    +0.011 A  
DOCKED: ATOM     14  C   UNL     1     136.598  83.139 224.576 -0.20 -0.00    +0.009 A  
DOCKED: ATOM     15  C   UNL     1     137.676  81.134 225.400 -0.37 -0.00    +0.009 A  
DOCKED: ATOM     16  C   UNL     1     136.839  82.239 225.629 -0.37 +0.00    -0.018 A  
DOCKED: BRANCH  16  17
DOCKED: ATOM     17  C   UNL     1     136.222  82.453 226.963 -0.43 +0.00    -0.018 A  
DOCKED: ATOM     18  C   UNL     1     135.617  83.682 227.283 -0.31 -0.00    +0.009 A  
DOCKED: ATOM     19  C   UNL     1     136.232  81.428 227.927 -0.41 -0.00    +0.009 A  
DOCKED: ATOM     20  C   UNL     1     135.036  83.881 228.540 -0.30 +0.00    +0.001 A  
DOCKED: ATOM     21  C   UNL     1     135.652  81.631 229.184 -0.53 -0.00    +0.001 A  
DOCKED: ATOM     22  C   UNL     1     135.054  82.856 229.489 -0.43 +0.00    +0.000 A  
DOCKED: ENDBRANCH  16  17
DOCKED: ENDBRANCH   9  11
DOCKED: ENDBRANCH   8   9
DOCKED: ENDBRANCH   7   8
DOCKED: ENDBRANCH   1   7
DOCKED: BRANCH   5  23
DOCKED: ATOM     23  C   UNL     1     141.448  77.698 221.678 -0.31 +0.01    -0.018 A  
DOCKED: ATOM     24  C   UNL     1     140.708  76.703 222.345 -0.42 -0.00    +0.009 A  
DOCKED: ATOM     25  C   UNL     1     142.054  77.383 220.446 -0.28 -0.01    +0.018 A  
DOCKED: ATOM     26  C   UNL     1     140.578  75.426 221.794 -0.34 -0.00    +0.001 A  
DOCKED: ATOM     27  C   UNL     1     141.933  76.096 219.895 -0.27 -0.00    +0.007 A  
DOCKED: ATOM     28  C   UNL     1     141.186  75.121 220.575 -0.25 -0.00    +0.009 A  
DOCKED: BRANCH  27  29
DOCKED: ATOM     29  C   UNL     1     142.626  75.756 218.598 -0.14 -0.14    +0.297 C  
DOCKED: BRANCH  29  30
DOCKED: ATOM     30  N   UNL     1     144.026  75.335 218.797 +0.01 +0.19    -0.340 N  
DOCKED: ATOM     31  H   UNL     1     144.570  76.093 219.275 -0.01 -0.29    +0.346 HD 
DOCKED: ATOM     32  H   UNL     1     144.435  75.226 217.839 -0.35 -0.21    +0.346 HD 
DOCKED: BRANCH  30  33
DOCKED: ATOM     33  C   UNL     1     144.153  74.044 219.519 -0.26 -0.05    +0.182 C  
DOCKED: ATOM     34  C   UNL     1     144.931  73.016 218.692 -0.25 +0.01    +0.065 C  
DOCKED: ATOM     35  C   UNL     1     144.928  74.166 220.848 -0.41 -0.02    +0.065 C  
DOCKED: ATOM     36  C   UNL     1     145.639  72.137 219.702 -0.38 +0.00    +0.006 C  
DOCKED: ATOM     37  C   UNL     1     145.986  73.066 220.852 -0.65 -0.00    +0.006 C  
DOCKED: ENDBRANCH  30  33
DOCKED: ENDBRANCH  29  30
DOCKED: ENDBRANCH  27  29
DOCKED: ENDBRANCH   5  23
DOCKED: TORSDOF 9
DOCKED: TER
DOCKED: ENDMDL
________________________________________________________________________________


    FINAL DOCKED STATE:
    ________________________


Run:   10 / 20
Time taken for this run:   0.078s

DOCKED: MODEL        10
DOCKED: USER    Run = 10
DOCKED: USER
DOCKED: USER    Estimated Free Energy of Binding    =  -8.71 kcal/mol  [=(1)+(2)+(3)-(4)]
DOCKED: USER
DOCKED: USER    (1) Final Intermolecular Energy     = -11.39 kcal/mol
DOCKED: USER        vdW + Hbond + desolv Energy     =  -9.65 kcal/mol
DOCKED: USER        Electrostatic Energy            =  -1.75 kcal/mol
DOCKED: USER        Moving Ligand-Fixed Receptor    = -11.39 kcal/mol
DOCKED: USER        Moving Ligand-Moving Receptor   =  +0.00 kcal/mol
DOCKED: USER    (2) Final Total Internal Energy     =  -3.32 kcal/mol
DOCKED: USER    (3) Torsional Free Energy           =  +2.68 kcal/mol
DOCKED: USER    (4) Unbound System's Energy         =  -3.32 kcal/mol
DOCKED: USER
DOCKED: USER
DOCKED: REMARK SMILES O=C([N-]Cc1cccc(-c2cccc(C[NH2+]C3CCCC3)c2)c1)c1ccc(-c2ccccc2)cc1
DOCKED: REMARK SMILES IDX 5 1 6 2 7 3 8 4 9 5 23 6 4 7 3 8 2 9 1 10 24 11 25 12 35 13
DOCKED: REMARK SMILES IDX 26 14 34 15 27 16 28 17 29 18 33 19 30 20 32 21 31 22 10 23
DOCKED: REMARK SMILES IDX 11 24 22 25 12 26 14 27 13 28 15 29 16 30 17 33 18 34 21 35
DOCKED: REMARK SMILES IDX 19 36 20 37
DOCKED: REMARK H PARENT 16 31 16 32
DOCKED: USER                              x       y       z     vdW  Elec       q    Type
DOCKED: USER                           _______ _______ _______ _____ _____    ______ ____
DOCKED: ROOT
DOCKED: ATOM      1  C   UNL     1     144.446  73.611 216.744 -0.11 +0.01    -0.065 A  
DOCKED: ATOM      2  C   UNL     1     143.393  72.742 216.424 -0.03 -0.00    +0.002 A  
DOCKED: ATOM      3  C   UNL     1     142.075  73.204 216.420 -0.02 -0.00    +0.001 A  
DOCKED: ATOM      4  C   UNL     1     141.795  74.529 216.760 -0.03 -0.00    +0.009 A  
DOCKED: ATOM      5  C   UNL     1     142.835  75.413 217.104 -0.14 +0.01    -0.018 A  
DOCKED: ATOM      6  C   UNL     1     144.162  74.943 217.080 -0.15 -0.00    +0.010 A  
DOCKED: ENDROOT
DOCKED: BRANCH   1   7
DOCKED: ATOM      7  C   UNL     1     145.854  73.091 216.827 -0.14 -0.03    -0.081 C  
DOCKED: BRANCH   7   8
DOCKED: ATOM      8  N   UNL     1     146.286  73.066 218.220 -0.32 -0.78    -0.646 NA 
DOCKED: BRANCH   8   9
DOCKED: ATOM      9  C   UNL     1     145.591  72.358 219.254 -0.28 +0.04    +0.082 C  
DOCKED: ATOM     10  O   UNL     1     146.066  71.279 219.704 -0.34 -0.21    -0.315 OA 
DOCKED: BRANCH   9  11
DOCKED: ATOM     11  C   UNL     1     144.316  72.888 219.792 -0.34 +0.00    -0.001 A  
DOCKED: ATOM     12  C   UNL     1     144.225  74.224 220.221 -0.44 -0.00    +0.011 A  
DOCKED: ATOM     13  C   UNL     1     143.173  72.072 219.868 -0.22 -0.00    +0.011 A  
DOCKED: ATOM     14  C   UNL     1     143.018  74.731 220.714 -0.23 -0.00    +0.009 A  
DOCKED: ATOM     15  C   UNL     1     141.967  72.580 220.360 -0.20 -0.00    +0.009 A  
DOCKED: ATOM     16  C   UNL     1     141.876  73.915 220.788 -0.27 +0.00    -0.018 A  
DOCKED: BRANCH  16  17
DOCKED: ATOM     17  C   UNL     1     140.595  74.452 221.313 -0.29 +0.00    -0.018 A  
DOCKED: ATOM     18  C   UNL     1     140.546  75.722 221.917 -0.36 -0.00    +0.009 A  
DOCKED: ATOM     19  C   UNL     1     139.410  73.700 221.211 -0.20 -0.00    +0.009 A  
DOCKED: ATOM     20  C   UNL     1     139.337  76.226 222.410 -0.33 -0.00    +0.001 A  
DOCKED: ATOM     21  C   UNL     1     138.204  74.207 221.707 -0.19 -0.00    +0.001 A  
DOCKED: ATOM     22  C   UNL     1     138.169  75.469 222.305 -0.25 -0.00    +0.000 A  
DOCKED: ENDBRANCH  16  17
DOCKED: ENDBRANCH   9  11
DOCKED: ENDBRANCH   8   9
DOCKED: ENDBRANCH   7   8
DOCKED: ENDBRANCH   1   7
DOCKED: BRANCH   5  23
DOCKED: ATOM     23  C   UNL     1     142.534  76.803 217.536 -0.23 +0.01    -0.018 A  
DOCKED: ATOM     24  C   UNL     1     142.812  77.889 216.684 -0.23 -0.01    +0.009 A  
DOCKED: ATOM     25  C   UNL     1     141.997  77.061 218.812 -0.24 -0.01    +0.018 A  
DOCKED: ATOM     26  C   UNL     1     142.560  79.199 217.099 -0.18 -0.00    +0.001 A  
DOCKED: ATOM     27  C   UNL     1     141.752  78.378 219.235 -0.26 -0.00    +0.007 A  
DOCKED: ATOM     28  C   UNL     1     142.032  79.445 218.367 -0.29 -0.01    +0.009 A  
DOCKED: BRANCH  27  29
DOCKED: ATOM     29  C   UNL     1     141.221  78.645 220.622 -0.16 -0.14    +0.297 C  
DOCKED: BRANCH  29  30
DOCKED: ATOM     30  N   UNL     1     142.201  78.321 221.677 -0.01 +0.25    -0.340 N  
DOCKED: ATOM     31  H   UNL     1     143.177  78.467 221.324 -0.31 -0.45    +0.346 HD 
DOCKED: ATOM     32  H   UNL     1     142.097  77.295 221.864 -0.34 -0.30    +0.346 HD 
DOCKED: BRANCH  30  33
DOCKED: ATOM     33  C   UNL     1     141.968  79.062 222.941 -0.44 -0.07    +0.182 C  
DOCKED: ATOM     34  C   UNL     1     142.945  80.233 223.090 -0.61 -0.02    +0.065 C  
DOCKED: ATOM     35  C   UNL     1     140.562  79.693 223.025 -0.42 -0.01    +0.065 C  
DOCKED: ATOM     36  C   UNL     1     142.195  81.288 223.878 -0.63 -0.00    +0.006 C  
DOCKED: ATOM     37  C   UNL     1     140.749  81.152 223.435 -0.42 -0.00    +0.006 C  
DOCKED: ENDBRANCH  30  33
DOCKED: ENDBRANCH  29  30
DOCKED: ENDBRANCH  27  29
DOCKED: ENDBRANCH   5  23
DOCKED: TORSDOF 9
DOCKED: TER
DOCKED: ENDMDL
________________________________________________________________________________


    FINAL DOCKED STATE:
    ________________________


Run:   11 / 20
Time taken for this run:   0.078s

DOCKED: MODEL        11
DOCKED: USER    Run = 11
DOCKED: USER
DOCKED: USER    Estimated Free Energy of Binding    =  -9.04 kcal/mol  [=(1)+(2)+(3)-(4)]
DOCKED: USER
DOCKED: USER    (1) Final Intermolecular Energy     = -11.72 kcal/mol
DOCKED: USER        vdW + Hbond + desolv Energy     = -10.51 kcal/mol
DOCKED: USER        Electrostatic Energy            =  -1.21 kcal/mol
DOCKED: USER        Moving Ligand-Fixed Receptor    = -11.72 kcal/mol
DOCKED: USER        Moving Ligand-Moving Receptor   =  +0.00 kcal/mol
DOCKED: USER    (2) Final Total Internal Energy     =  -2.00 kcal/mol
DOCKED: USER    (3) Torsional Free Energy           =  +2.68 kcal/mol
DOCKED: USER    (4) Unbound System's Energy         =  -2.00 kcal/mol
DOCKED: USER
DOCKED: USER
DOCKED: REMARK SMILES O=C([N-]Cc1cccc(-c2cccc(C[NH2+]C3CCCC3)c2)c1)c1ccc(-c2ccccc2)cc1
DOCKED: REMARK SMILES IDX 5 1 6 2 7 3 8 4 9 5 23 6 4 7 3 8 2 9 1 10 24 11 25 12 35 13
DOCKED: REMARK SMILES IDX 26 14 34 15 27 16 28 17 29 18 33 19 30 20 32 21 31 22 10 23
DOCKED: REMARK SMILES IDX 11 24 22 25 12 26 14 27 13 28 15 29 16 30 17 33 18 34 21 35
DOCKED: REMARK SMILES IDX 19 36 20 37
DOCKED: REMARK H PARENT 16 31 16 32
DOCKED: USER                              x       y       z     vdW  Elec       q    Type
DOCKED: USER                           _______ _______ _______ _____ _____    ______ ____
DOCKED: ROOT
DOCKED: ATOM      1  C   UNL     1     140.818  76.695 221.375 -0.30 +0.02    -0.065 A  
DOCKED: ATOM      2  C   UNL     1     141.078  76.801 222.750 -0.31 -0.00    +0.002 A  
DOCKED: ATOM      3  C   UNL     1     141.385  78.040 223.315 -0.46 -0.00    +0.001 A  
DOCKED: ATOM      4  C   UNL     1     141.461  79.179 222.511 -0.48 -0.00    +0.009 A  
DOCKED: ATOM      5  C   UNL     1     141.224  79.092 221.126 -0.31 +0.01    -0.018 A  
DOCKED: ATOM      6  C   UNL     1     140.890  77.842 220.570 -0.24 -0.00    +0.010 A  
DOCKED: ENDROOT
DOCKED: BRANCH   1   7
DOCKED: ATOM      7  C   UNL     1     140.569  75.348 220.756 -0.22 +0.02    -0.081 C  
DOCKED: BRANCH   7   8
DOCKED: ATOM      8  N   UNL     1     139.323  74.793 221.276 -0.05 +0.14    -0.646 NA 
DOCKED: BRANCH   8   9
DOCKED: ATOM      9  C   UNL     1     138.979  73.404 221.197 -0.16 -0.02    +0.082 C  
DOCKED: ATOM     10  O   UNL     1     138.477  72.941 220.137 -0.02 +0.06    -0.315 OA 
DOCKED: BRANCH   9  11
DOCKED: ATOM     11  C   UNL     1     139.208  72.513 222.360 -0.25 +0.00    -0.001 A  
DOCKED: ATOM     12  C   UNL     1     140.502  72.342 222.882 -0.30 -0.00    +0.011 A  
DOCKED: ATOM     13  C   UNL     1     138.135  71.839 222.971 -0.18 -0.00    +0.011 A  
DOCKED: ATOM     14  C   UNL     1     140.718  71.515 223.989 -0.38 -0.00    +0.009 A  
DOCKED: ATOM     15  C   UNL     1     138.352  71.013 224.079 -0.29 -0.00    +0.009 A  
DOCKED: ATOM     16  C   UNL     1     139.645  70.843 224.599 -0.43 +0.00    -0.018 A  
DOCKED: BRANCH  16  17
DOCKED: ATOM     17  C   UNL     1     139.874  69.963 225.775 -0.46 +0.00    -0.018 A  
DOCKED: ATOM     18  C   UNL     1     140.324  70.502 226.994 -0.60 -0.00    +0.009 A  
DOCKED: ATOM     19  C   UNL     1     139.643  68.578 225.685 -0.50 -0.00    +0.009 A  
DOCKED: ATOM     20  C   UNL     1     140.538  69.671 228.100 -0.62 -0.00    +0.001 A  
DOCKED: ATOM     21  C   UNL     1     139.861  67.751 226.792 -0.67 -0.00    +0.001 A  
DOCKED: ATOM     22  C   UNL     1     140.307  68.298 227.998 -0.65 -0.00    +0.000 A  
DOCKED: ENDBRANCH  16  17
DOCKED: ENDBRANCH   9  11
DOCKED: ENDBRANCH   8   9
DOCKED: ENDBRANCH   7   8
DOCKED: ENDBRANCH   1   7
DOCKED: BRANCH   5  23
DOCKED: ATOM     23  C   UNL     1     141.374  80.289 220.256 -0.29 +0.01    -0.018 A  
DOCKED: ATOM     24  C   UNL     1     141.339  81.582 220.811 -0.33 -0.00    +0.009 A  
DOCKED: ATOM     25  C   UNL     1     141.521  80.152 218.862 -0.24 -0.01    +0.018 A  
DOCKED: ATOM     26  C   UNL     1     141.449  82.709 219.993 -0.21 -0.00    +0.001 A  
DOCKED: ATOM     27  C   UNL     1     141.621  81.284 218.036 -0.23 -0.00    +0.007 A  
DOCKED: ATOM     28  C   UNL     1     141.589  82.563 218.612 -0.22 -0.00    +0.009 A  
DOCKED: BRANCH  27  29
DOCKED: ATOM     29  C   UNL     1     141.730  81.126 216.539 -0.09 -0.22    +0.297 C  
DOCKED: BRANCH  29  30
DOCKED: ATOM     30  N   UNL     1     142.572  79.978 216.150 +0.27 +0.49    -0.340 N  
DOCKED: ATOM     31  H   UNL     1     143.324  79.821 216.863 -0.45 -0.78    +0.346 HD 
DOCKED: ATOM     32  H   UNL     1     143.050  80.257 215.261 -0.45 -0.69    +0.346 HD 
DOCKED: BRANCH  30  33
DOCKED: ATOM     33  C   UNL     1     141.794  78.738 215.904 -0.10 -0.15    +0.182 C  
DOCKED: ATOM     34  C   UNL     1     142.219  77.614 216.855 -0.18 -0.05    +0.065 C  
DOCKED: ATOM     35  C   UNL     1     140.279  78.916 216.137 -0.04 -0.03    +0.065 C  
DOCKED: ATOM     36  C   UNL     1     140.976  76.776 217.071 -0.06 -0.00    +0.006 C  
DOCKED: ATOM     37  C   UNL     1     139.826  77.767 217.034 -0.03 -0.00    +0.006 C  
DOCKED: ENDBRANCH  30  33
DOCKED: ENDBRANCH  29  30
DOCKED: ENDBRANCH  27  29
DOCKED: ENDBRANCH   5  23
DOCKED: TORSDOF 9
DOCKED: TER
DOCKED: ENDMDL
________________________________________________________________________________


    FINAL DOCKED STATE:
    ________________________


Run:   12 / 20
Time taken for this run:   0.078s

DOCKED: MODEL        12
DOCKED: USER    Run = 12
DOCKED: USER
DOCKED: USER    Estimated Free Energy of Binding    =  -8.56 kcal/mol  [=(1)+(2)+(3)-(4)]
DOCKED: USER
DOCKED: USER    (1) Final Intermolecular Energy     = -11.24 kcal/mol
DOCKED: USER        vdW + Hbond + desolv Energy     =  -9.98 kcal/mol
DOCKED: USER        Electrostatic Energy            =  -1.26 kcal/mol
DOCKED: USER        Moving Ligand-Fixed Receptor    = -11.24 kcal/mol
DOCKED: USER        Moving Ligand-Moving Receptor   =  +0.00 kcal/mol
DOCKED: USER    (2) Final Total Internal Energy     =  -2.94 kcal/mol
DOCKED: USER    (3) Torsional Free Energy           =  +2.68 kcal/mol
DOCKED: USER    (4) Unbound System's Energy         =  -2.94 kcal/mol
DOCKED: USER
DOCKED: USER
DOCKED: REMARK SMILES O=C([N-]Cc1cccc(-c2cccc(C[NH2+]C3CCCC3)c2)c1)c1ccc(-c2ccccc2)cc1
DOCKED: REMARK SMILES IDX 5 1 6 2 7 3 8 4 9 5 23 6 4 7 3 8 2 9 1 10 24 11 25 12 35 13
DOCKED: REMARK SMILES IDX 26 14 34 15 27 16 28 17 29 18 33 19 30 20 32 21 31 22 10 23
DOCKED: REMARK SMILES IDX 11 24 22 25 12 26 14 27 13 28 15 29 16 30 17 33 18 34 21 35
DOCKED: REMARK SMILES IDX 19 36 20 37
DOCKED: REMARK H PARENT 16 31 16 32
DOCKED: USER                              x       y       z     vdW  Elec       q    Type
DOCKED: USER                           _______ _______ _______ _____ _____    ______ ____
DOCKED: ROOT
DOCKED: ATOM      1  C   UNL     1     140.137  79.770 223.188 -0.39 +0.01    -0.065 A  
DOCKED: ATOM      2  C   UNL     1     141.336  79.355 223.784 -0.59 -0.00    +0.002 A  
DOCKED: ATOM      3  C   UNL     1     142.560  79.641 223.177 -0.63 -0.00    +0.001 A  
DOCKED: ATOM      4  C   UNL     1     142.598  80.321 221.958 -0.46 -0.00    +0.009 A  
DOCKED: ATOM      5  C   UNL     1     141.405  80.730 221.332 -0.37 +0.01    -0.018 A  
DOCKED: ATOM      6  C   UNL     1     140.177  80.458 221.965 -0.28 -0.00    +0.010 A  
DOCKED: ENDROOT
DOCKED: BRANCH   1   7
DOCKED: ATOM      7  C   UNL     1     138.818  79.389 223.802 -0.25 +0.01    -0.081 C  
DOCKED: BRANCH   7   8
DOCKED: ATOM      8  N   UNL     1     138.262  78.240 223.095 +0.04 +0.09    -0.646 NA 
DOCKED: BRANCH   8   9
DOCKED: ATOM      9  C   UNL     1     138.610  77.892 221.749 -0.18 -0.02    +0.082 C  
DOCKED: ATOM     10  O   UNL     1     137.964  78.388 220.786 -0.02 +0.06    -0.315 OA 
DOCKED: BRANCH   9  11
DOCKED: ATOM     11  C   UNL     1     139.722  76.947 221.488 -0.26 +0.00    -0.001 A  
DOCKED: ATOM     12  C   UNL     1     139.645  75.616 221.934 -0.33 -0.00    +0.011 A  
DOCKED: ATOM     13  C   UNL     1     140.863  77.360 220.776 -0.26 -0.00    +0.011 A  
DOCKED: ATOM     14  C   UNL     1     140.686  74.719 221.674 -0.31 -0.00    +0.009 A  
DOCKED: ATOM     15  C   UNL     1     141.903  76.462 220.516 -0.25 -0.00    +0.009 A  
DOCKED: ATOM     16  C   UNL     1     141.825  75.132 220.962 -0.29 +0.01    -0.018 A  
DOCKED: BRANCH  16  17
DOCKED: ATOM     17  C   UNL     1     142.932  74.179 220.687 -0.29 +0.01    -0.018 A  
DOCKED: ATOM     18  C   UNL     1     144.237  74.649 220.449 -0.43 -0.00    +0.009 A  
DOCKED: ATOM     19  C   UNL     1     142.691  72.793 220.662 -0.27 -0.00    +0.009 A  
DOCKED: ATOM     20  C   UNL     1     145.277  73.749 220.191 -0.55 -0.00    +0.001 A  
DOCKED: ATOM     21  C   UNL     1     143.733  71.898 220.401 -0.31 -0.00    +0.001 A  
DOCKED: ATOM     22  C   UNL     1     145.025  72.376 220.166 -0.42 +0.00    +0.000 A  
DOCKED: ENDBRANCH  16  17
DOCKED: ENDBRANCH   9  11
DOCKED: ENDBRANCH   8   9
DOCKED: ENDBRANCH   7   8
DOCKED: ENDBRANCH   1   7
DOCKED: BRANCH   5  23
DOCKED: ATOM     23  C   UNL     1     141.437  81.391 220.001 -0.29 +0.01    -0.018 A  
DOCKED: ATOM     24  C   UNL     1     141.433  82.795 219.902 -0.19 -0.00    +0.009 A  
DOCKED: ATOM     25  C   UNL     1     141.439  80.626 218.818 -0.23 -0.01    +0.018 A  
DOCKED: ATOM     26  C   UNL     1     141.432  83.419 218.652 -0.17 -0.00    +0.001 A  
DOCKED: ATOM     27  C   UNL     1     141.427  81.252 217.559 -0.18 -0.00    +0.007 A  
DOCKED: ATOM     28  C   UNL     1     141.429  82.653 217.485 -0.16 -0.00    +0.009 A  
DOCKED: BRANCH  27  29
DOCKED: ATOM     29  C   UNL     1     141.382  80.423 216.299 -0.07 -0.21    +0.297 C  
DOCKED: BRANCH  29  30
DOCKED: ATOM     30  N   UNL     1     142.572  79.564 216.142 +0.22 +0.48    -0.340 N  
DOCKED: ATOM     31  H   UNL     1     143.322  79.856 216.813 -0.45 -0.79    +0.346 HD 
DOCKED: ATOM     32  H   UNL     1     142.937  79.748 215.178 -0.37 -0.62    +0.346 HD 
DOCKED: BRANCH  30  33
DOCKED: ATOM     33  C   UNL     1     142.269  78.116 216.269 -0.13 -0.16    +0.182 C  
DOCKED: ATOM     34  C   UNL     1     143.160  77.277 215.347 -0.15 -0.06    +0.065 C  
DOCKED: ATOM     35  C   UNL     1     142.522  77.566 217.688 -0.26 -0.05    +0.065 C  
DOCKED: ATOM     36  C   UNL     1     143.343  75.952 216.058 -0.18 -0.00    +0.006 C  
DOCKED: ATOM     37  C   UNL     1     143.364  76.301 217.535 -0.25 -0.00    +0.006 C  
DOCKED: ENDBRANCH  30  33
DOCKED: ENDBRANCH  29  30
DOCKED: ENDBRANCH  27  29
DOCKED: ENDBRANCH   5  23
DOCKED: TORSDOF 9
DOCKED: TER
DOCKED: ENDMDL
________________________________________________________________________________


    FINAL DOCKED STATE:
    ________________________


Run:   13 / 20
Time taken for this run:   0.078s

DOCKED: MODEL        13
DOCKED: USER    Run = 13
DOCKED: USER
DOCKED: USER    Estimated Free Energy of Binding    =  -8.53 kcal/mol  [=(1)+(2)+(3)-(4)]
DOCKED: USER
DOCKED: USER    (1) Final Intermolecular Energy     = -11.22 kcal/mol
DOCKED: USER        vdW + Hbond + desolv Energy     = -10.12 kcal/mol
DOCKED: USER        Electrostatic Energy            =  -1.10 kcal/mol
DOCKED: USER        Moving Ligand-Fixed Receptor    = -11.22 kcal/mol
DOCKED: USER        Moving Ligand-Moving Receptor   =  +0.00 kcal/mol
DOCKED: USER    (2) Final Total Internal Energy     =  -3.00 kcal/mol
DOCKED: USER    (3) Torsional Free Energy           =  +2.68 kcal/mol
DOCKED: USER    (4) Unbound System's Energy         =  -3.00 kcal/mol
DOCKED: USER
DOCKED: USER
DOCKED: REMARK SMILES O=C([N-]Cc1cccc(-c2cccc(C[NH2+]C3CCCC3)c2)c1)c1ccc(-c2ccccc2)cc1
DOCKED: REMARK SMILES IDX 5 1 6 2 7 3 8 4 9 5 23 6 4 7 3 8 2 9 1 10 24 11 25 12 35 13
DOCKED: REMARK SMILES IDX 26 14 34 15 27 16 28 17 29 18 33 19 30 20 32 21 31 22 10 23
DOCKED: REMARK SMILES IDX 11 24 22 25 12 26 14 27 13 28 15 29 16 30 17 33 18 34 21 35
DOCKED: REMARK SMILES IDX 19 36 20 37
DOCKED: REMARK H PARENT 16 31 16 32
DOCKED: USER                              x       y       z     vdW  Elec       q    Type
DOCKED: USER                           _______ _______ _______ _____ _____    ______ ____
DOCKED: ROOT
DOCKED: ATOM      1  C   UNL     1     142.341  72.672 220.306 -0.20 +0.01    -0.065 A  
DOCKED: ATOM      2  C   UNL     1     143.546  72.217 220.861 -0.30 -0.00    +0.002 A  
DOCKED: ATOM      3  C   UNL     1     144.762  72.762 220.446 -0.46 -0.00    +0.001 A  
DOCKED: ATOM      4  C   UNL     1     144.790  73.746 219.456 -0.36 -0.00    +0.009 A  
DOCKED: ATOM      5  C   UNL     1     143.593  74.203 218.870 -0.23 +0.01    -0.018 A  
DOCKED: ATOM      6  C   UNL     1     142.370  73.665 219.314 -0.15 -0.00    +0.010 A  
DOCKED: ENDROOT
DOCKED: BRANCH   1   7
DOCKED: ATOM      7  C   UNL     1     141.040  72.026 220.695 -0.16 +0.01    -0.081 C  
DOCKED: BRANCH   7   8
DOCKED: ATOM      8  N   UNL     1     139.931  72.904 220.336 +0.04 +0.12    -0.646 NA 
DOCKED: BRANCH   8   9
DOCKED: ATOM      9  C   UNL     1     139.198  73.686 221.286 -0.18 -0.02    +0.082 C  
DOCKED: ATOM     10  O   UNL     1     138.143  73.223 221.801 -0.10 +0.09    -0.315 OA 
DOCKED: BRANCH   9  11
DOCKED: ATOM     11  C   UNL     1     139.673  75.040 221.661 -0.30 +0.00    -0.001 A  
DOCKED: ATOM     12  C   UNL     1     138.822  75.931 222.338 -0.32 -0.00    +0.011 A  
DOCKED: ATOM     13  C   UNL     1     140.985  75.448 221.363 -0.34 -0.00    +0.011 A  
DOCKED: ATOM     14  C   UNL     1     139.273  77.202 222.707 -0.28 -0.00    +0.009 A  
DOCKED: ATOM     15  C   UNL     1     141.436  76.719 221.734 -0.10 -0.00    +0.009 A  
DOCKED: ATOM     16  C   UNL     1     140.585  77.609 222.410 -0.41 +0.01    -0.018 A  
DOCKED: BRANCH  16  17
DOCKED: ATOM     17  C   UNL     1     141.065  78.960 222.800 -0.47 +0.01    -0.018 A  
DOCKED: ATOM     18  C   UNL     1     142.442  79.251 222.823 -0.56 -0.00    +0.009 A  
DOCKED: ATOM     19  C   UNL     1     140.149  79.969 223.152 -0.42 -0.00    +0.009 A  
DOCKED: ATOM     20  C   UNL     1     142.890  80.524 223.191 -0.66 -0.00    +0.001 A  
DOCKED: ATOM     21  C   UNL     1     140.603  81.239 223.522 -0.37 -0.00    +0.001 A  
DOCKED: ATOM     22  C   UNL     1     141.972  81.516 223.540 -0.56 -0.00    +0.000 A  
DOCKED: ENDBRANCH  16  17
DOCKED: ENDBRANCH   9  11
DOCKED: ENDBRANCH   8   9
DOCKED: ENDBRANCH   7   8
DOCKED: ENDBRANCH   1   7
DOCKED: BRANCH   5  23
DOCKED: ATOM     23  C   UNL     1     143.623  75.198 217.766 -0.20 +0.01    -0.018 A  
DOCKED: ATOM     24  C   UNL     1     144.448  74.992 216.644 -0.16 -0.00    +0.009 A  
DOCKED: ATOM     25  C   UNL     1     142.854  76.376 217.838 -0.25 -0.01    +0.018 A  
DOCKED: ATOM     26  C   UNL     1     144.501  75.941 215.620 -0.21 -0.00    +0.001 A  
DOCKED: ATOM     27  C   UNL     1     142.914  77.336 216.813 -0.25 -0.01    +0.007 A  
DOCKED: ATOM     28  C   UNL     1     143.740  77.107 215.701 -0.19 -0.01    +0.009 A  
DOCKED: BRANCH  27  29
DOCKED: ATOM     29  C   UNL     1     142.122  78.616 216.922 -0.13 -0.25    +0.297 C  
DOCKED: BRANCH  29  30
DOCKED: ATOM     30  N   UNL     1     142.927  79.738 217.444 -0.00 +0.46    -0.340 N  
DOCKED: ATOM     31  H   UNL     1     142.964  80.515 216.743 -0.42 -0.58    +0.346 HD 
DOCKED: ATOM     32  H   UNL     1     143.903  79.372 217.544 -0.41 -0.71    +0.346 HD 
DOCKED: BRANCH  30  33
DOCKED: ATOM     33  C   UNL     1     142.463  80.226 218.767 -0.18 -0.13    +0.182 C  
DOCKED: ATOM     34  C   UNL     1     141.831  81.617 218.658 -0.24 -0.03    +0.065 C  
DOCKED: ATOM     35  C   UNL     1     141.374  79.331 219.396 -0.22 -0.03    +0.065 C  
DOCKED: ATOM     36  C   UNL     1     140.778  81.668 219.747 -0.22 -0.00    +0.006 C  
DOCKED: ATOM     37  C   UNL     1     140.238  80.252 219.835 -0.15 -0.00    +0.006 C  
DOCKED: ENDBRANCH  30  33
DOCKED: ENDBRANCH  29  30
DOCKED: ENDBRANCH  27  29
DOCKED: ENDBRANCH   5  23
DOCKED: TORSDOF 9
DOCKED: TER
DOCKED: ENDMDL
________________________________________________________________________________


    FINAL DOCKED STATE:
    ________________________


Run:   14 / 20
Time taken for this run:   0.078s

DOCKED: MODEL        14
DOCKED: USER    Run = 14
DOCKED: USER
DOCKED: USER    Estimated Free Energy of Binding    =  -7.05 kcal/mol  [=(1)+(2)+(3)-(4)]
DOCKED: USER
DOCKED: USER    (1) Final Intermolecular Energy     =  -9.73 kcal/mol
DOCKED: USER        vdW + Hbond + desolv Energy     =  -8.46 kcal/mol
DOCKED: USER        Electrostatic Energy            =  -1.28 kcal/mol
DOCKED: USER        Moving Ligand-Fixed Receptor    =  -9.73 kcal/mol
DOCKED: USER        Moving Ligand-Moving Receptor   =  +0.00 kcal/mol
DOCKED: USER    (2) Final Total Internal Energy     =  -4.05 kcal/mol
DOCKED: USER    (3) Torsional Free Energy           =  +2.68 kcal/mol
DOCKED: USER    (4) Unbound System's Energy         =  -4.05 kcal/mol
DOCKED: USER
DOCKED: USER
DOCKED: REMARK SMILES O=C([N-]Cc1cccc(-c2cccc(C[NH2+]C3CCCC3)c2)c1)c1ccc(-c2ccccc2)cc1
DOCKED: REMARK SMILES IDX 5 1 6 2 7 3 8 4 9 5 23 6 4 7 3 8 2 9 1 10 24 11 25 12 35 13
DOCKED: REMARK SMILES IDX 26 14 34 15 27 16 28 17 29 18 33 19 30 20 32 21 31 22 10 23
DOCKED: REMARK SMILES IDX 11 24 22 25 12 26 14 27 13 28 15 29 16 30 17 33 18 34 21 35
DOCKED: REMARK SMILES IDX 19 36 20 37
DOCKED: REMARK H PARENT 16 31 16 32
DOCKED: USER                              x       y       z     vdW  Elec       q    Type
DOCKED: USER                           _______ _______ _______ _____ _____    ______ ____
DOCKED: ROOT
DOCKED: ATOM      1  C   UNL     1     141.462  81.775 221.908 -0.38 +0.01    -0.065 A  
DOCKED: ATOM      2  C   UNL     1     141.744  81.418 223.235 -0.55 -0.00    +0.002 A  
DOCKED: ATOM      3  C   UNL     1     142.158  80.121 223.542 -0.64 -0.00    +0.001 A  
DOCKED: ATOM      4  C   UNL     1     142.271  79.162 222.533 -0.53 -0.00    +0.009 A  
DOCKED: ATOM      5  C   UNL     1     141.973  79.493 221.198 -0.32 +0.01    -0.018 A  
DOCKED: ATOM      6  C   UNL     1     141.580  80.811 220.895 -0.35 -0.00    +0.010 A  
DOCKED: ENDROOT
DOCKED: BRANCH   1   7
DOCKED: ATOM      7  C   UNL     1     140.938  83.148 221.592 -0.20 +0.01    -0.081 C  
DOCKED: BRANCH   7   8
DOCKED: ATOM      8  N   UNL     1     139.524  83.064 221.242 +0.01 +0.10    -0.646 NA 
DOCKED: BRANCH   8   9
DOCKED: ATOM      9  C   UNL     1     138.556  82.341 222.013 -0.15 -0.01    +0.082 C  
DOCKED: ATOM     10  O   UNL     1     137.705  82.970 222.699 -0.09 +0.03    -0.315 OA 
DOCKED: BRANCH   9  11
DOCKED: ATOM     11  C   UNL     1     138.558  80.859 222.009 -0.18 +0.00    -0.001 A  
DOCKED: ATOM     12  C   UNL     1     138.423  80.150 220.803 -0.09 -0.00    +0.011 A  
DOCKED: ATOM     13  C   UNL     1     138.711  80.138 223.207 -0.34 -0.00    +0.011 A  
DOCKED: ATOM     14  C   UNL     1     138.440  78.752 220.795 -0.09 -0.00    +0.009 A  
DOCKED: ATOM     15  C   UNL     1     138.729  78.739 223.198 -0.28 -0.00    +0.009 A  
DOCKED: ATOM     16  C   UNL     1     138.594  78.032 221.992 -0.22 +0.00    -0.018 A  
DOCKED: BRANCH  16  17
DOCKED: ATOM     17  C   UNL     1     138.611  76.546 221.985 -0.27 +0.00    -0.018 A  
DOCKED: ATOM     18  C   UNL     1     137.408  75.817 221.978 -0.21 -0.00    +0.009 A  
DOCKED: ATOM     19  C   UNL     1     139.832  75.846 221.983 -0.35 -0.00    +0.009 A  
DOCKED: ATOM     20  C   UNL     1     137.427  74.418 221.970 -0.18 -0.00    +0.001 A  
DOCKED: ATOM     21  C   UNL     1     139.847  74.448 221.978 -0.27 -0.00    +0.001 A  
DOCKED: ATOM     22  C   UNL     1     138.645  73.735 221.971 -0.20 -0.00    +0.000 A  
DOCKED: ENDBRANCH  16  17
DOCKED: ENDBRANCH   9  11
DOCKED: ENDBRANCH   8   9
DOCKED: ENDBRANCH   7   8
DOCKED: ENDBRANCH   1   7
DOCKED: BRANCH   5  23
DOCKED: ATOM     23  C   UNL     1     142.023  78.457 220.132 -0.20 +0.01    -0.018 A  
DOCKED: ATOM     24  C   UNL     1     142.217  77.103 220.464 -0.23 -0.01    +0.009 A  
DOCKED: ATOM     25  C   UNL     1     141.908  78.815 218.775 -0.27 -0.01    +0.018 A  
DOCKED: ATOM     26  C   UNL     1     142.295  76.131 219.464 -0.29 -0.00    +0.001 A  
DOCKED: ATOM     27  C   UNL     1     141.996  77.840 217.766 -0.22 -0.00    +0.007 A  
DOCKED: ATOM     28  C   UNL     1     142.185  76.495 218.121 -0.20 -0.00    +0.009 A  
DOCKED: BRANCH  27  29
DOCKED: ATOM     29  C   UNL     1     141.919  78.241 216.313 -0.09 -0.22    +0.297 C  
DOCKED: BRANCH  29  30
DOCKED: ATOM     30  N   UNL     1     142.568  79.539 216.048 +0.24 +0.49    -0.340 N  
DOCKED: ATOM     31  H   UNL     1     143.070  79.513 215.128 -0.33 -0.67    +0.346 HD 
DOCKED: ATOM     32  H   UNL     1     143.299  79.655 216.789 -0.45 -0.77    +0.346 HD 
DOCKED: BRANCH  30  33
DOCKED: ATOM     33  C   UNL     1     141.631  80.688 216.119 -0.10 -0.14    +0.182 C  
DOCKED: ATOM     34  C   UNL     1     140.225  80.237 216.526 -0.05 -0.03    +0.065 C  
DOCKED: ATOM     35  C   UNL     1     142.041  81.741 217.170 -0.21 -0.05    +0.065 C  
DOCKED: ATOM     36  C   UNL     1     139.630  81.405 217.285 -0.04 -0.00    +0.006 C  
DOCKED: ATOM     37  C   UNL     1     140.803  82.035 218.015 -0.14 -0.00    +0.006 C  
DOCKED: ENDBRANCH  30  33
DOCKED: ENDBRANCH  29  30
DOCKED: ENDBRANCH  27  29
DOCKED: ENDBRANCH   5  23
DOCKED: TORSDOF 9
DOCKED: TER
DOCKED: ENDMDL
________________________________________________________________________________


    FINAL DOCKED STATE:
    ________________________


Run:   15 / 20
Time taken for this run:   0.078s

DOCKED: MODEL        15
DOCKED: USER    Run = 15
DOCKED: USER
DOCKED: USER    Estimated Free Energy of Binding    =  -8.33 kcal/mol  [=(1)+(2)+(3)-(4)]
DOCKED: USER
DOCKED: USER    (1) Final Intermolecular Energy     = -11.01 kcal/mol
DOCKED: USER        vdW + Hbond + desolv Energy     = -10.67 kcal/mol
DOCKED: USER        Electrostatic Energy            =  -0.34 kcal/mol
DOCKED: USER        Moving Ligand-Fixed Receptor    = -11.01 kcal/mol
DOCKED: USER        Moving Ligand-Moving Receptor   =  +0.00 kcal/mol
DOCKED: USER    (2) Final Total Internal Energy     =  -2.79 kcal/mol
DOCKED: USER    (3) Torsional Free Energy           =  +2.68 kcal/mol
DOCKED: USER    (4) Unbound System's Energy         =  -2.79 kcal/mol
DOCKED: USER
DOCKED: USER
DOCKED: REMARK SMILES O=C([N-]Cc1cccc(-c2cccc(C[NH2+]C3CCCC3)c2)c1)c1ccc(-c2ccccc2)cc1
DOCKED: REMARK SMILES IDX 5 1 6 2 7 3 8 4 9 5 23 6 4 7 3 8 2 9 1 10 24 11 25 12 35 13
DOCKED: REMARK SMILES IDX 26 14 34 15 27 16 28 17 29 18 33 19 30 20 32 21 31 22 10 23
DOCKED: REMARK SMILES IDX 11 24 22 25 12 26 14 27 13 28 15 29 16 30 17 33 18 34 21 35
DOCKED: REMARK SMILES IDX 19 36 20 37
DOCKED: REMARK H PARENT 16 31 16 32
DOCKED: USER                              x       y       z     vdW  Elec       q    Type
DOCKED: USER                           _______ _______ _______ _____ _____    ______ ____
DOCKED: ROOT
DOCKED: ATOM      1  C   UNL     1     135.460  70.959 221.569 -0.03 +0.01    -0.065 A  
DOCKED: ATOM      2  C   UNL     1     134.670  71.445 222.621 -0.05 -0.00    +0.002 A  
DOCKED: ATOM      3  C   UNL     1     135.121  72.508 223.406 -0.15 -0.00    +0.001 A  
DOCKED: ATOM      4  C   UNL     1     136.373  73.079 223.165 -0.09 -0.00    +0.009 A  
DOCKED: ATOM      5  C   UNL     1     137.190  72.593 222.127 -0.14 +0.00    -0.018 A  
DOCKED: ATOM      6  C   UNL     1     136.715  71.537 221.325 -0.06 -0.00    +0.010 A  
DOCKED: ENDROOT
DOCKED: BRANCH   1   7
DOCKED: ATOM      7  C   UNL     1     135.009  69.762 220.779 -0.01 +0.01    -0.081 C  
DOCKED: BRANCH   7   8
DOCKED: ATOM      8  N   UNL     1     135.301  68.543 221.525 +0.02 +0.10    -0.646 NA 
DOCKED: BRANCH   8   9
DOCKED: ATOM      9  C   UNL     1     136.629  68.067 221.779 -0.11 -0.01    +0.082 C  
DOCKED: ATOM     10  O   UNL     1     137.106  67.134 221.078 -0.06 +0.06    -0.315 OA 
DOCKED: BRANCH   9  11
DOCKED: ATOM     11  C   UNL     1     137.440  68.667 222.866 -0.19 +0.00    -0.001 A  
DOCKED: ATOM     12  C   UNL     1     138.813  68.902 222.683 -0.22 -0.00    +0.011 A  
DOCKED: ATOM     13  C   UNL     1     136.847  69.026 224.090 -0.20 -0.00    +0.011 A  
DOCKED: ATOM     14  C   UNL     1     139.577  69.483 223.701 -0.23 -0.00    +0.009 A  
DOCKED: ATOM     15  C   UNL     1     137.610  69.607 225.108 -0.27 -0.00    +0.009 A  
DOCKED: ATOM     16  C   UNL     1     138.983  69.842 224.924 -0.37 +0.00    -0.018 A  
DOCKED: BRANCH  16  17
DOCKED: ATOM     17  C   UNL     1     139.793  70.458 226.006 -0.46 +0.00    -0.018 A  
DOCKED: ATOM     18  C   UNL     1     140.635  71.553 225.735 -0.58 -0.00    +0.009 A  
DOCKED: ATOM     19  C   UNL     1     139.730  69.955 227.319 -0.54 -0.00    +0.009 A  
DOCKED: ATOM     20  C   UNL     1     141.396  72.131 226.757 -0.71 -0.00    +0.001 A  
DOCKED: ATOM     21  C   UNL     1     140.495  70.535 228.337 -0.59 -0.00    +0.001 A  
DOCKED: ATOM     22  C   UNL     1     141.326  71.622 228.055 -0.74 -0.00    +0.000 A  
DOCKED: ENDBRANCH  16  17
DOCKED: ENDBRANCH   9  11
DOCKED: ENDBRANCH   8   9
DOCKED: ENDBRANCH   7   8
DOCKED: ENDBRANCH   1   7
DOCKED: BRANCH   5  23
DOCKED: ATOM     23  C   UNL     1     138.552  73.149 221.912 -0.19 +0.00    -0.018 A  
DOCKED: ATOM     24  C   UNL     1     139.686  72.325 222.041 -0.26 -0.00    +0.009 A  
DOCKED: ATOM     25  C   UNL     1     138.733  74.512 221.609 -0.22 -0.00    +0.018 A  
DOCKED: ATOM     26  C   UNL     1     140.969  72.851 221.871 -0.29 -0.00    +0.001 A  
DOCKED: ATOM     27  C   UNL     1     140.023  75.046 221.447 -0.30 -0.00    +0.007 A  
DOCKED: ATOM     28  C   UNL     1     141.139  74.204 221.575 -0.28 -0.00    +0.009 A  
DOCKED: BRANCH  27  29
DOCKED: ATOM     29  C   UNL     1     140.208  76.518 221.169 -0.16 -0.09    +0.297 C  
DOCKED: BRANCH  29  30
DOCKED: ATOM     30  N   UNL     1     141.373  77.086 221.875 -0.09 +0.18    -0.340 N  
DOCKED: ATOM     31  H   UNL     1     142.223  77.044 221.264 -0.37 -0.29    +0.346 HD 
DOCKED: ATOM     32  H   UNL     1     141.553  76.455 222.691 -0.22 -0.17    +0.346 HD 
DOCKED: BRANCH  30  33
DOCKED: ATOM     33  C   UNL     1     141.138  78.463 222.378 -0.35 -0.07    +0.182 C  
DOCKED: ATOM     34  C   UNL     1     141.779  78.670 223.754 -0.54 -0.02    +0.065 C  
DOCKED: ATOM     35  C   UNL     1     141.754  79.552 221.475 -0.38 -0.03    +0.065 C  
DOCKED: ATOM     36  C   UNL     1     142.161  80.135 223.805 -0.64 -0.00    +0.006 C  
DOCKED: ATOM     37  C   UNL     1     142.551  80.487 222.381 -0.58 -0.00    +0.006 C  
DOCKED: ENDBRANCH  30  33
DOCKED: ENDBRANCH  29  30
DOCKED: ENDBRANCH  27  29
DOCKED: ENDBRANCH   5  23
DOCKED: TORSDOF 9
DOCKED: TER
DOCKED: ENDMDL
________________________________________________________________________________


    FINAL DOCKED STATE:
    ________________________


Run:   16 / 20
Time taken for this run:   0.078s

DOCKED: MODEL        16
DOCKED: USER    Run = 16
DOCKED: USER
DOCKED: USER    Estimated Free Energy of Binding    =  -8.08 kcal/mol  [=(1)+(2)+(3)-(4)]
DOCKED: USER
DOCKED: USER    (1) Final Intermolecular Energy     = -10.77 kcal/mol
DOCKED: USER        vdW + Hbond + desolv Energy     =  -9.61 kcal/mol
DOCKED: USER        Electrostatic Energy            =  -1.16 kcal/mol
DOCKED: USER        Moving Ligand-Fixed Receptor    = -10.77 kcal/mol
DOCKED: USER        Moving Ligand-Moving Receptor   =  +0.00 kcal/mol
DOCKED: USER    (2) Final Total Internal Energy     =  -3.39 kcal/mol
DOCKED: USER    (3) Torsional Free Energy           =  +2.68 kcal/mol
DOCKED: USER    (4) Unbound System's Energy         =  -3.39 kcal/mol
DOCKED: USER
DOCKED: USER
DOCKED: REMARK SMILES O=C([N-]Cc1cccc(-c2cccc(C[NH2+]C3CCCC3)c2)c1)c1ccc(-c2ccccc2)cc1
DOCKED: REMARK SMILES IDX 5 1 6 2 7 3 8 4 9 5 23 6 4 7 3 8 2 9 1 10 24 11 25 12 35 13
DOCKED: REMARK SMILES IDX 26 14 34 15 27 16 28 17 29 18 33 19 30 20 32 21 31 22 10 23
DOCKED: REMARK SMILES IDX 11 24 22 25 12 26 14 27 13 28 15 29 16 30 17 33 18 34 21 35
DOCKED: REMARK SMILES IDX 19 36 20 37
DOCKED: REMARK H PARENT 16 31 16 32
DOCKED: USER                              x       y       z     vdW  Elec       q    Type
DOCKED: USER                           _______ _______ _______ _____ _____    ______ ____
DOCKED: ROOT
DOCKED: ATOM      1  C   UNL     1     140.105  79.791 223.139 -0.38 +0.01    -0.065 A  
DOCKED: ATOM      2  C   UNL     1     141.225  79.624 223.966 -0.50 -0.00    +0.002 A  
DOCKED: ATOM      3  C   UNL     1     142.505  79.900 223.482 -0.65 -0.00    +0.001 A  
DOCKED: ATOM      4  C   UNL     1     142.681  80.319 222.162 -0.49 -0.00    +0.009 A  
DOCKED: ATOM      5  C   UNL     1     141.573  80.474 221.308 -0.38 +0.01    -0.018 A  
DOCKED: ATOM      6  C   UNL     1     140.284  80.218 221.814 -0.27 -0.00    +0.010 A  
DOCKED: ENDROOT
DOCKED: BRANCH   1   7
DOCKED: ATOM      7  C   UNL     1     138.737  79.416 223.637 -0.27 +0.01    -0.081 C  
DOCKED: BRANCH   7   8
DOCKED: ATOM      8  N   UNL     1     138.331  78.146 223.046 +0.03 +0.10    -0.646 NA 
DOCKED: BRANCH   8   9
DOCKED: ATOM      9  C   UNL     1     138.628  77.768 221.695 -0.18 -0.02    +0.082 C  
DOCKED: ATOM     10  O   UNL     1     137.934  78.227 220.748 -0.02 +0.06    -0.315 OA 
DOCKED: BRANCH   9  11
DOCKED: ATOM     11  C   UNL     1     139.746  76.835 221.412 -0.26 +0.00    -0.001 A  
DOCKED: ATOM     12  C   UNL     1     140.885  77.279 220.718 -0.25 -0.00    +0.011 A  
DOCKED: ATOM     13  C   UNL     1     139.693  75.498 221.846 -0.32 -0.00    +0.011 A  
DOCKED: ATOM     14  C   UNL     1     141.947  76.406 220.464 -0.27 -0.00    +0.009 A  
DOCKED: ATOM     15  C   UNL     1     140.756  74.626 221.592 -0.33 -0.00    +0.009 A  
DOCKED: ATOM     16  C   UNL     1     141.894  75.070 220.899 -0.29 +0.01    -0.018 A  
DOCKED: BRANCH  16  17
DOCKED: ATOM     17  C   UNL     1     143.022  74.141 220.628 -0.30 +0.01    -0.018 A  
DOCKED: ATOM     18  C   UNL     1     144.317  74.638 220.394 -0.44 -0.00    +0.009 A  
DOCKED: ATOM     19  C   UNL     1     142.810  72.750 220.603 -0.27 -0.00    +0.009 A  
DOCKED: ATOM     20  C   UNL     1     145.377  73.761 220.140 -0.55 -0.00    +0.001 A  
DOCKED: ATOM     21  C   UNL     1     143.872  71.877 220.346 -0.31 -0.00    +0.001 A  
DOCKED: ATOM     22  C   UNL     1     145.154  72.382 220.116 -0.43 +0.00    +0.000 A  
DOCKED: ENDBRANCH  16  17
DOCKED: ENDBRANCH   9  11
DOCKED: ENDBRANCH   8   9
DOCKED: ENDBRANCH   7   8
DOCKED: ENDBRANCH   1   7
DOCKED: BRANCH   5  23
DOCKED: ATOM     23  C   UNL     1     141.762  80.851 219.883 -0.30 +0.01    -0.018 A  
DOCKED: ATOM     24  C   UNL     1     141.772  82.206 219.500 -0.18 -0.00    +0.009 A  
DOCKED: ATOM     25  C   UNL     1     141.903  79.863 218.889 -0.29 -0.01    +0.018 A  
DOCKED: ATOM     26  C   UNL     1     141.918  82.563 218.157 -0.24 -0.00    +0.001 A  
DOCKED: ATOM     27  C   UNL     1     142.041  80.219 217.537 -0.26 -0.01    +0.007 A  
DOCKED: ATOM     28  C   UNL     1     142.053  81.577 217.179 -0.23 -0.01    +0.009 A  
DOCKED: BRANCH  27  29
DOCKED: ATOM     29  C   UNL     1     142.144  79.152 216.476 -0.08 -0.30    +0.297 C  
DOCKED: BRANCH  29  30
DOCKED: ATOM     30  N   UNL     1     143.297  78.254 216.685 +0.14 +0.46    -0.340 N  
DOCKED: ATOM     31  H   UNL     1     144.084  78.774 217.140 -0.35 -0.75    +0.346 HD 
DOCKED: ATOM     32  H   UNL     1     143.627  77.979 215.729 -0.08 -0.52    +0.346 HD 
DOCKED: BRANCH  30  33
DOCKED: ATOM     33  C   UNL     1     142.953  77.025 217.442 -0.21 -0.12    +0.182 C  
DOCKED: ATOM     34  C   UNL     1     141.493  76.620 217.216 -0.08 -0.03    +0.065 C  
DOCKED: ATOM     35  C   UNL     1     143.785  75.797 217.016 -0.18 -0.04    +0.065 C  
DOCKED: ATOM     36  C   UNL     1     141.469  75.110 217.333 -0.05 -0.00    +0.006 C  
DOCKED: ATOM     37  C   UNL     1     142.804  74.654 216.770 -0.09 -0.00    +0.006 C  
DOCKED: ENDBRANCH  30  33
DOCKED: ENDBRANCH  29  30
DOCKED: ENDBRANCH  27  29
DOCKED: ENDBRANCH   5  23
DOCKED: TORSDOF 9
DOCKED: TER
DOCKED: ENDMDL
________________________________________________________________________________


    FINAL DOCKED STATE:
    ________________________


Run:   17 / 20
Time taken for this run:   0.078s

DOCKED: MODEL        17
DOCKED: USER    Run = 17
DOCKED: USER
DOCKED: USER    Estimated Free Energy of Binding    =  -7.70 kcal/mol  [=(1)+(2)+(3)-(4)]
DOCKED: USER
DOCKED: USER    (1) Final Intermolecular Energy     = -10.38 kcal/mol
DOCKED: USER        vdW + Hbond + desolv Energy     =  -9.03 kcal/mol
DOCKED: USER        Electrostatic Energy            =  -1.36 kcal/mol
DOCKED: USER        Moving Ligand-Fixed Receptor    = -10.38 kcal/mol
DOCKED: USER        Moving Ligand-Moving Receptor   =  +0.00 kcal/mol
DOCKED: USER    (2) Final Total Internal Energy     =  -3.48 kcal/mol
DOCKED: USER    (3) Torsional Free Energy           =  +2.68 kcal/mol
DOCKED: USER    (4) Unbound System's Energy         =  -3.48 kcal/mol
DOCKED: USER
DOCKED: USER
DOCKED: REMARK SMILES O=C([N-]Cc1cccc(-c2cccc(C[NH2+]C3CCCC3)c2)c1)c1ccc(-c2ccccc2)cc1
DOCKED: REMARK SMILES IDX 5 1 6 2 7 3 8 4 9 5 23 6 4 7 3 8 2 9 1 10 24 11 25 12 35 13
DOCKED: REMARK SMILES IDX 26 14 34 15 27 16 28 17 29 18 33 19 30 20 32 21 31 22 10 23
DOCKED: REMARK SMILES IDX 11 24 22 25 12 26 14 27 13 28 15 29 16 30 17 33 18 34 21 35
DOCKED: REMARK SMILES IDX 19 36 20 37
DOCKED: REMARK H PARENT 16 31 16 32
DOCKED: USER                              x       y       z     vdW  Elec       q    Type
DOCKED: USER                           _______ _______ _______ _____ _____    ______ ____
DOCKED: ROOT
DOCKED: ATOM      1  C   UNL     1     144.427  73.835 216.922 -0.12 +0.01    -0.065 A  
DOCKED: ATOM      2  C   UNL     1     143.419  72.883 216.710 -0.04 -0.00    +0.002 A  
DOCKED: ATOM      3  C   UNL     1     142.085  73.283 216.601 -0.02 -0.00    +0.001 A  
DOCKED: ATOM      4  C   UNL     1     141.743  74.631 216.727 -0.03 -0.00    +0.009 A  
DOCKED: ATOM      5  C   UNL     1     142.737  75.600 216.960 -0.14 +0.01    -0.018 A  
DOCKED: ATOM      6  C   UNL     1     144.082  75.190 217.043 -0.17 -0.00    +0.010 A  
DOCKED: ENDROOT
DOCKED: BRANCH   1   7
DOCKED: ATOM      7  C   UNL     1     145.851  73.394 217.120 -0.16 -0.03    -0.081 C  
DOCKED: BRANCH   7   8
DOCKED: ATOM      8  N   UNL     1     145.928  72.483 218.257 -0.42 -0.71    -0.646 NA 
DOCKED: BRANCH   8   9
DOCKED: ATOM      9  C   UNL     1     145.749  72.895 219.618 -0.39 +0.03    +0.082 C  
DOCKED: ATOM     10  O   UNL     1     146.697  72.773 220.441 -0.28 -0.15    -0.315 OA 
DOCKED: BRANCH   9  11
DOCKED: ATOM     11  C   UNL     1     144.451  73.460 220.061 -0.43 +0.00    -0.001 A  
DOCKED: ATOM     12  C   UNL     1     144.245  74.850 220.066 -0.43 -0.01    +0.011 A  
DOCKED: ATOM     13  C   UNL     1     143.401  72.616 220.466 -0.31 -0.00    +0.011 A  
DOCKED: ATOM     14  C   UNL     1     143.016  75.384 220.468 -0.15 -0.01    +0.009 A  
DOCKED: ATOM     15  C   UNL     1     142.173  73.151 220.867 -0.27 -0.00    +0.009 A  
DOCKED: ATOM     16  C   UNL     1     141.967  74.540 220.872 -0.29 +0.00    -0.018 A  
DOCKED: BRANCH  16  17
DOCKED: ATOM     17  C   UNL     1     140.662  75.107 221.300 -0.31 +0.00    -0.018 A  
DOCKED: ATOM     18  C   UNL     1     139.461  74.430 221.018 -0.20 -0.00    +0.009 A  
DOCKED: ATOM     19  C   UNL     1     140.609  76.329 221.995 -0.39 -0.00    +0.009 A  
DOCKED: ATOM     20  C   UNL     1     138.234  74.966 221.423 -0.18 -0.00    +0.001 A  
DOCKED: ATOM     21  C   UNL     1     139.379  76.862 222.396 -0.33 -0.00    +0.001 A  
DOCKED: ATOM     22  C   UNL     1     138.194  76.181 222.111 -0.27 -0.00    +0.000 A  
DOCKED: ENDBRANCH  16  17
DOCKED: ENDBRANCH   9  11
DOCKED: ENDBRANCH   8   9
DOCKED: ENDBRANCH   7   8
DOCKED: ENDBRANCH   1   7
DOCKED: BRANCH   5  23
DOCKED: ATOM     23  C   UNL     1     142.370  77.026 217.166 -0.20 +0.01    -0.018 A  
DOCKED: ATOM     24  C   UNL     1     142.515  77.957 216.120 -0.18 -0.01    +0.009 A  
DOCKED: ATOM     25  C   UNL     1     141.902  77.476 218.415 -0.22 -0.01    +0.018 A  
DOCKED: ATOM     26  C   UNL     1     142.200  79.303 216.319 -0.14 -0.00    +0.001 A  
DOCKED: ATOM     27  C   UNL     1     141.594  78.831 218.622 -0.23 -0.00    +0.007 A  
DOCKED: ATOM     28  C   UNL     1     141.742  79.741 217.563 -0.22 -0.01    +0.009 A  
DOCKED: BRANCH  27  29
DOCKED: ATOM     29  C   UNL     1     141.139  79.310 219.978 -0.13 -0.13    +0.297 C  
DOCKED: BRANCH  29  30
DOCKED: ATOM     30  N   UNL     1     142.030  80.342 220.543 -0.14 +0.16    -0.340 N  
DOCKED: ATOM     31  H   UNL     1     141.923  81.242 220.017 +0.15 -0.13    +0.346 HD 
DOCKED: ATOM     32  H   UNL     1     143.007  80.006 220.374 -0.05 -0.28    +0.346 HD 
DOCKED: BRANCH  30  33
DOCKED: ATOM     33  C   UNL     1     141.841  80.545 222.002 -0.37 -0.06    +0.182 C  
DOCKED: ATOM     34  C   UNL     1     140.401  80.239 222.426 -0.33 -0.01    +0.065 C  
DOCKED: ATOM     35  C   UNL     1     142.724  79.617 222.862 -0.54 -0.03    +0.065 C  
DOCKED: ATOM     36  C   UNL     1     140.499  79.729 223.849 -0.47 -0.00    +0.006 C  
DOCKED: ATOM     37  C   UNL     1     141.812  78.969 223.902 -0.61 -0.00    +0.006 C  
DOCKED: ENDBRANCH  30  33
DOCKED: ENDBRANCH  29  30
DOCKED: ENDBRANCH  27  29
DOCKED: ENDBRANCH   5  23
DOCKED: TORSDOF 9
DOCKED: TER
DOCKED: ENDMDL
________________________________________________________________________________


    FINAL DOCKED STATE:
    ________________________


Run:   18 / 20
Time taken for this run:   0.078s

DOCKED: MODEL        18
DOCKED: USER    Run = 18
DOCKED: USER
DOCKED: USER    Estimated Free Energy of Binding    =  -8.19 kcal/mol  [=(1)+(2)+(3)-(4)]
DOCKED: USER
DOCKED: USER    (1) Final Intermolecular Energy     = -10.87 kcal/mol
DOCKED: USER        vdW + Hbond + desolv Energy     =  -9.63 kcal/mol
DOCKED: USER        Electrostatic Energy            =  -1.25 kcal/mol
DOCKED: USER        Moving Ligand-Fixed Receptor    = -10.87 kcal/mol
DOCKED: USER        Moving Ligand-Moving Receptor   =  +0.00 kcal/mol
DOCKED: USER    (2) Final Total Internal Energy     =  -3.12 kcal/mol
DOCKED: USER    (3) Torsional Free Energy           =  +2.68 kcal/mol
DOCKED: USER    (4) Unbound System's Energy         =  -3.12 kcal/mol
DOCKED: USER
DOCKED: USER
DOCKED: REMARK SMILES O=C([N-]Cc1cccc(-c2cccc(C[NH2+]C3CCCC3)c2)c1)c1ccc(-c2ccccc2)cc1
DOCKED: REMARK SMILES IDX 5 1 6 2 7 3 8 4 9 5 23 6 4 7 3 8 2 9 1 10 24 11 25 12 35 13
DOCKED: REMARK SMILES IDX 26 14 34 15 27 16 28 17 29 18 33 19 30 20 32 21 31 22 10 23
DOCKED: REMARK SMILES IDX 11 24 22 25 12 26 14 27 13 28 15 29 16 30 17 33 18 34 21 35
DOCKED: REMARK SMILES IDX 19 36 20 37
DOCKED: REMARK H PARENT 16 31 16 32
DOCKED: USER                              x       y       z     vdW  Elec       q    Type
DOCKED: USER                           _______ _______ _______ _____ _____    ______ ____
DOCKED: ROOT
DOCKED: ATOM      1  C   UNL     1     140.251  80.102 223.479 -0.42 +0.01    -0.065 A  
DOCKED: ATOM      2  C   UNL     1     141.438  79.409 223.758 -0.60 -0.00    +0.002 A  
DOCKED: ATOM      3  C   UNL     1     142.596  79.671 223.023 -0.63 -0.00    +0.001 A  
DOCKED: ATOM      4  C   UNL     1     142.573  80.607 221.987 -0.47 -0.00    +0.009 A  
DOCKED: ATOM      5  C   UNL     1     141.388  81.299 221.676 -0.40 +0.00    -0.018 A  
DOCKED: ATOM      6  C   UNL     1     140.232  81.046 222.440 -0.34 -0.00    +0.010 A  
DOCKED: ENDROOT
DOCKED: BRANCH   1   7
DOCKED: ATOM      7  C   UNL     1     138.986  79.760 224.216 -0.25 +0.01    -0.081 C  
DOCKED: BRANCH   7   8
DOCKED: ATOM      8  N   UNL     1     137.853  79.814 223.298 +0.00 +0.09    -0.646 NA 
DOCKED: BRANCH   8   9
DOCKED: ATOM      9  C   UNL     1     137.651  78.879 222.231 -0.16 -0.01    +0.082 C  
DOCKED: ATOM     10  O   UNL     1     136.549  78.856 221.618 -0.03 +0.05    -0.315 OA 
DOCKED: BRANCH   9  11
DOCKED: ATOM     11  C   UNL     1     138.731  77.937 221.851 -0.22 +0.00    -0.001 A  
DOCKED: ATOM     12  C   UNL     1     139.540  78.197 220.732 -0.14 -0.00    +0.011 A  
DOCKED: ATOM     13  C   UNL     1     138.975  76.779 222.611 -0.29 -0.00    +0.011 A  
DOCKED: ATOM     14  C   UNL     1     140.570  77.318 220.380 -0.19 -0.00    +0.009 A  
DOCKED: ATOM     15  C   UNL     1     140.005  75.901 222.261 -0.34 -0.00    +0.009 A  
DOCKED: ATOM     16  C   UNL     1     140.814  76.161 221.142 -0.30 +0.01    -0.018 A  
DOCKED: BRANCH  16  17
DOCKED: ATOM     17  C   UNL     1     141.907  75.227 220.769 -0.29 +0.01    -0.018 A  
DOCKED: ATOM     18  C   UNL     1     141.816  73.859 221.084 -0.26 -0.00    +0.009 A  
DOCKED: ATOM     19  C   UNL     1     143.048  75.697 220.093 -0.33 -0.01    +0.009 A  
DOCKED: ATOM     20  C   UNL     1     142.847  72.981 220.731 -0.28 -0.00    +0.001 A  
DOCKED: ATOM     21  C   UNL     1     144.077  74.816 219.744 -0.41 -0.00    +0.001 A  
DOCKED: ATOM     22  C   UNL     1     143.976  73.459 220.062 -0.37 -0.00    +0.000 A  
DOCKED: ENDBRANCH  16  17
DOCKED: ENDBRANCH   9  11
DOCKED: ENDBRANCH   8   9
DOCKED: ENDBRANCH   7   8
DOCKED: ENDBRANCH   1   7
DOCKED: BRANCH   5  23
DOCKED: ATOM     23  C   UNL     1     141.341  82.243 220.529 -0.29 +0.00    -0.018 A  
DOCKED: ATOM     24  C   UNL     1     140.789  83.529 220.686 -0.25 -0.00    +0.009 A  
DOCKED: ATOM     25  C   UNL     1     141.818  81.859 219.261 -0.23 -0.01    +0.018 A  
DOCKED: ATOM     26  C   UNL     1     140.716  84.407 219.602 -0.17 -0.00    +0.001 A  
DOCKED: ATOM     27  C   UNL     1     141.735  82.737 218.167 -0.22 -0.00    +0.007 A  
DOCKED: ATOM     28  C   UNL     1     141.186  84.016 218.348 -0.15 -0.00    +0.009 A  
DOCKED: BRANCH  27  29
DOCKED: ATOM     29  C   UNL     1     142.206  82.297 216.802 -0.13 -0.20    +0.297 C  
DOCKED: BRANCH  29  30
DOCKED: ATOM     30  N   UNL     1     142.932  81.013 216.838 +0.12 +0.47    -0.340 N  
DOCKED: ATOM     31  H   UNL     1     143.699  81.050 217.551 -0.22 -0.54    +0.346 HD 
DOCKED: ATOM     32  H   UNL     1     143.391  80.913 215.902 -0.42 -0.82    +0.346 HD 
DOCKED: BRANCH  30  33
DOCKED: ATOM     33  C   UNL     1     142.044  79.844 217.061 -0.16 -0.17    +0.182 C  
DOCKED: ATOM     34  C   UNL     1     141.838  79.046 215.770 -0.12 -0.06    +0.065 C  
DOCKED: ATOM     35  C   UNL     1     142.617  78.833 218.077 -0.29 -0.06    +0.065 C  
DOCKED: ATOM     36  C   UNL     1     141.639  77.610 216.211 -0.11 -0.00    +0.006 C  
DOCKED: ATOM     37  C   UNL     1     142.522  77.451 217.436 -0.26 -0.00    +0.006 C  
DOCKED: ENDBRANCH  30  33
DOCKED: ENDBRANCH  29  30
DOCKED: ENDBRANCH  27  29
DOCKED: ENDBRANCH   5  23
DOCKED: TORSDOF 9
DOCKED: TER
DOCKED: ENDMDL
________________________________________________________________________________


    FINAL DOCKED STATE:
    ________________________


Run:   19 / 20
Time taken for this run:   0.078s

DOCKED: MODEL        19
DOCKED: USER    Run = 19
DOCKED: USER
DOCKED: USER    Estimated Free Energy of Binding    =  -8.71 kcal/mol  [=(1)+(2)+(3)-(4)]
DOCKED: USER
DOCKED: USER    (1) Final Intermolecular Energy     = -11.40 kcal/mol
DOCKED: USER        vdW + Hbond + desolv Energy     =  -9.74 kcal/mol
DOCKED: USER        Electrostatic Energy            =  -1.66 kcal/mol
DOCKED: USER        Moving Ligand-Fixed Receptor    = -11.40 kcal/mol
DOCKED: USER        Moving Ligand-Moving Receptor   =  +0.00 kcal/mol
DOCKED: USER    (2) Final Total Internal Energy     =  -3.34 kcal/mol
DOCKED: USER    (3) Torsional Free Energy           =  +2.68 kcal/mol
DOCKED: USER    (4) Unbound System's Energy         =  -3.34 kcal/mol
DOCKED: USER
DOCKED: USER
DOCKED: REMARK SMILES O=C([N-]Cc1cccc(-c2cccc(C[NH2+]C3CCCC3)c2)c1)c1ccc(-c2ccccc2)cc1
DOCKED: REMARK SMILES IDX 5 1 6 2 7 3 8 4 9 5 23 6 4 7 3 8 2 9 1 10 24 11 25 12 35 13
DOCKED: REMARK SMILES IDX 26 14 34 15 27 16 28 17 29 18 33 19 30 20 32 21 31 22 10 23
DOCKED: REMARK SMILES IDX 11 24 22 25 12 26 14 27 13 28 15 29 16 30 17 33 18 34 21 35
DOCKED: REMARK SMILES IDX 19 36 20 37
DOCKED: REMARK H PARENT 16 31 16 32
DOCKED: USER                              x       y       z     vdW  Elec       q    Type
DOCKED: USER                           _______ _______ _______ _____ _____    ______ ____
DOCKED: ROOT
DOCKED: ATOM      1  C   UNL     1     144.435  73.722 216.866 -0.12 +0.01    -0.065 A  
DOCKED: ATOM      2  C   UNL     1     143.425  72.833 216.473 -0.04 -0.00    +0.002 A  
DOCKED: ATOM      3  C   UNL     1     142.101  73.267 216.379 -0.02 -0.00    +0.001 A  
DOCKED: ATOM      4  C   UNL     1     141.770  74.585 216.701 -0.03 -0.00    +0.009 A  
DOCKED: ATOM      5  C   UNL     1     142.766  75.489 217.118 -0.14 +0.01    -0.018 A  
DOCKED: ATOM      6  C   UNL     1     144.101  75.048 217.184 -0.15 -0.00    +0.010 A  
DOCKED: ENDROOT
DOCKED: BRANCH   1   7
DOCKED: ATOM      7  C   UNL     1     145.845  73.232 217.045 -0.15 -0.03    -0.081 C  
DOCKED: BRANCH   7   8
DOCKED: ATOM      8  N   UNL     1     145.908  72.328 218.189 -0.38 -0.74    -0.646 NA 
DOCKED: BRANCH   8   9
DOCKED: ATOM      9  C   UNL     1     145.718  72.751 219.545 -0.35 +0.03    +0.082 C  
DOCKED: ATOM     10  O   UNL     1     146.697  72.768 220.340 -0.31 -0.17    -0.315 OA 
DOCKED: BRANCH   9  11
DOCKED: ATOM     11  C   UNL     1     144.373  73.162 220.015 -0.39 +0.00    -0.001 A  
DOCKED: ATOM     12  C   UNL     1     144.121  74.500 220.366 -0.45 -0.00    +0.011 A  
DOCKED: ATOM     13  C   UNL     1     143.325  72.228 220.100 -0.26 -0.00    +0.011 A  
DOCKED: ATOM     14  C   UNL     1     142.849  74.894 220.794 -0.18 -0.00    +0.009 A  
DOCKED: ATOM     15  C   UNL     1     142.053  72.623 220.527 -0.22 -0.00    +0.009 A  
DOCKED: ATOM     16  C   UNL     1     141.802  73.960 220.879 -0.27 +0.00    -0.018 A  
DOCKED: BRANCH  16  17
DOCKED: ATOM     17  C   UNL     1     140.451  74.377 221.334 -0.28 +0.00    -0.018 A  
DOCKED: ATOM     18  C   UNL     1     139.347  73.518 221.182 -0.19 -0.00    +0.009 A  
DOCKED: ATOM     19  C   UNL     1     140.255  75.639 221.926 -0.35 -0.00    +0.009 A  
DOCKED: ATOM     20  C   UNL     1     138.076  73.913 221.613 -0.17 -0.00    +0.001 A  
DOCKED: ATOM     21  C   UNL     1     138.982  76.031 222.354 -0.33 -0.00    +0.001 A  
DOCKED: ATOM     22  C   UNL     1     137.894  75.169 222.197 -0.21 -0.00    +0.000 A  
DOCKED: ENDBRANCH  16  17
DOCKED: ENDBRANCH   9  11
DOCKED: ENDBRANCH   8   9
DOCKED: ENDBRANCH   7   8
DOCKED: ENDBRANCH   1   7
DOCKED: BRANCH   5  23
DOCKED: ATOM     23  C   UNL     1     142.407  76.872 217.530 -0.21 +0.01    -0.018 A  
DOCKED: ATOM     24  C   UNL     1     142.545  77.943 216.627 -0.22 -0.01    +0.009 A  
DOCKED: ATOM     25  C   UNL     1     141.955  77.140 218.837 -0.24 -0.01    +0.018 A  
DOCKED: ATOM     26  C   UNL     1     142.239  79.248 217.020 -0.22 -0.00    +0.001 A  
DOCKED: ATOM     27  C   UNL     1     141.656  78.452 219.238 -0.25 -0.00    +0.007 A  
DOCKED: ATOM     28  C   UNL     1     141.796  79.504 218.319 -0.26 -0.01    +0.009 A  
DOCKED: BRANCH  27  29
DOCKED: ATOM     29  C   UNL     1     141.218  78.734 220.654 -0.16 -0.14    +0.297 C  
DOCKED: BRANCH  29  30
DOCKED: ATOM     30  N   UNL     1     142.202  78.275 221.654 +0.01 +0.25    -0.340 N  
DOCKED: ATOM     31  H   UNL     1     143.172  78.334 221.262 -0.33 -0.45    +0.346 HD 
DOCKED: ATOM     32  H   UNL     1     142.000  77.260 221.815 -0.33 -0.28    +0.346 HD 
DOCKED: BRANCH  30  33
DOCKED: ATOM     33  C   UNL     1     142.100  78.993 222.949 -0.42 -0.08    +0.182 C  
DOCKED: ATOM     34  C   UNL     1     142.914  80.291 222.934 -0.60 -0.02    +0.065 C  
DOCKED: ATOM     35  C   UNL     1     140.657  79.422 223.293 -0.46 -0.01    +0.065 C  
DOCKED: ATOM     36  C   UNL     1     142.178  81.240 223.858 -0.64 -0.00    +0.006 C  
DOCKED: ATOM     37  C   UNL     1     140.710  80.898 223.681 -0.42 -0.00    +0.006 C  
DOCKED: ENDBRANCH  30  33
DOCKED: ENDBRANCH  29  30
DOCKED: ENDBRANCH  27  29
DOCKED: ENDBRANCH   5  23
DOCKED: TORSDOF 9
DOCKED: TER
DOCKED: ENDMDL
________________________________________________________________________________


    FINAL DOCKED STATE:
    ________________________


Run:   20 / 20
Time taken for this run:   0.078s

DOCKED: MODEL        20
DOCKED: USER    Run = 20
DOCKED: USER
DOCKED: USER    Estimated Free Energy of Binding    =  -8.49 kcal/mol  [=(1)+(2)+(3)-(4)]
DOCKED: USER
DOCKED: USER    (1) Final Intermolecular Energy     = -11.18 kcal/mol
DOCKED: USER        vdW + Hbond + desolv Energy     =  -9.93 kcal/mol
DOCKED: USER        Electrostatic Energy            =  -1.25 kcal/mol
DOCKED: USER        Moving Ligand-Fixed Receptor    = -11.18 kcal/mol
DOCKED: USER        Moving Ligand-Moving Receptor   =  +0.00 kcal/mol
DOCKED: USER    (2) Final Total Internal Energy     =  -2.82 kcal/mol
DOCKED: USER    (3) Torsional Free Energy           =  +2.68 kcal/mol
DOCKED: USER    (4) Unbound System's Energy         =  -2.82 kcal/mol
DOCKED: USER
DOCKED: USER
DOCKED: REMARK SMILES O=C([N-]Cc1cccc(-c2cccc(C[NH2+]C3CCCC3)c2)c1)c1ccc(-c2ccccc2)cc1
DOCKED: REMARK SMILES IDX 5 1 6 2 7 3 8 4 9 5 23 6 4 7 3 8 2 9 1 10 24 11 25 12 35 13
DOCKED: REMARK SMILES IDX 26 14 34 15 27 16 28 17 29 18 33 19 30 20 32 21 31 22 10 23
DOCKED: REMARK SMILES IDX 11 24 22 25 12 26 14 27 13 28 15 29 16 30 17 33 18 34 21 35
DOCKED: REMARK SMILES IDX 19 36 20 37
DOCKED: REMARK H PARENT 16 31 16 32
DOCKED: USER                              x       y       z     vdW  Elec       q    Type
DOCKED: USER                           _______ _______ _______ _____ _____    ______ ____
DOCKED: ROOT
DOCKED: ATOM      1  C   UNL     1     140.005  79.033 222.779 -0.34 +0.01    -0.065 A  
DOCKED: ATOM      2  C   UNL     1     141.067  79.032 223.694 -0.55 -0.00    +0.002 A  
DOCKED: ATOM      3  C   UNL     1     142.288  79.619 223.356 -0.63 -0.00    +0.001 A  
DOCKED: ATOM      4  C   UNL     1     142.468  80.190 222.095 -0.51 -0.00    +0.009 A  
DOCKED: ATOM      5  C   UNL     1     141.421  80.184 221.153 -0.35 +0.01    -0.018 A  
DOCKED: ATOM      6  C   UNL     1     140.186  79.612 221.513 -0.23 -0.00    +0.010 A  
DOCKED: ENDROOT
DOCKED: BRANCH   1   7
DOCKED: ATOM      7  C   UNL     1     138.719  78.329 223.114 -0.20 +0.01    -0.081 C  
DOCKED: BRANCH   7   8
DOCKED: ATOM      8  N   UNL     1     138.309  77.496 221.989 +0.01 +0.13    -0.646 NA 
DOCKED: BRANCH   8   9
DOCKED: ATOM      9  C   UNL     1     138.435  76.069 221.969 -0.25 -0.02    +0.082 C  
DOCKED: ATOM     10  O   UNL     1     137.439  75.347 222.250 -0.15 +0.09    -0.315 OA 
DOCKED: BRANCH   9  11
DOCKED: ATOM     11  C   UNL     1     139.733  75.440 221.626 -0.31 +0.00    -0.001 A  
DOCKED: ATOM     12  C   UNL     1     139.944  74.070 221.859 -0.27 -0.00    +0.011 A  
DOCKED: ATOM     13  C   UNL     1     140.766  76.197 221.046 -0.29 -0.00    +0.011 A  
DOCKED: ATOM     14  C   UNL     1     141.162  73.471 221.520 -0.28 -0.00    +0.009 A  
DOCKED: ATOM     15  C   UNL     1     141.984  75.598 220.707 -0.25 -0.00    +0.009 A  
DOCKED: ATOM     16  C   UNL     1     142.194  74.229 220.940 -0.24 +0.00    -0.018 A  
DOCKED: BRANCH  16  17
DOCKED: ATOM     17  C   UNL     1     143.488  73.594 220.581 -0.33 +0.00    -0.018 A  
DOCKED: ATOM     18  C   UNL     1     144.703  74.267 220.812 -0.43 -0.00    +0.009 A  
DOCKED: ATOM     19  C   UNL     1     143.519  72.310 220.006 -0.26 -0.00    +0.009 A  
DOCKED: ATOM     20  C   UNL     1     145.920  73.666 220.473 -0.65 -0.00    +0.001 A  
DOCKED: ATOM     21  C   UNL     1     144.738  71.714 219.668 -0.31 +0.00    +0.001 A  
DOCKED: ATOM     22  C   UNL     1     145.937  72.392 219.901 -0.44 +0.00    +0.000 A  
DOCKED: ENDBRANCH  16  17
DOCKED: ENDBRANCH   9  11
DOCKED: ENDBRANCH   8   9
DOCKED: ENDBRANCH   7   8
DOCKED: ENDBRANCH   1   7
DOCKED: BRANCH   5  23
DOCKED: ATOM     23  C   UNL     1     141.631  80.726 219.785 -0.29 +0.01    -0.018 A  
DOCKED: ATOM     24  C   UNL     1     141.798  82.110 219.585 -0.17 -0.00    +0.009 A  
DOCKED: ATOM     25  C   UNL     1     141.634  79.873 218.665 -0.25 -0.01    +0.018 A  
DOCKED: ATOM     26  C   UNL     1     141.965  82.626 218.298 -0.23 -0.00    +0.001 A  
DOCKED: ATOM     27  C   UNL     1     141.791  80.390 217.368 -0.22 -0.01    +0.007 A  
DOCKED: ATOM     28  C   UNL     1     141.962  81.773 217.193 -0.22 -0.01    +0.009 A  
DOCKED: BRANCH  27  29
DOCKED: ATOM     29  C   UNL     1     141.746  79.472 216.172 -0.08 -0.25    +0.297 C  
DOCKED: BRANCH  29  30
DOCKED: ATOM     30  N   UNL     1     142.943  78.614 216.069 +0.27 +0.49    -0.340 N  
DOCKED: ATOM     31  H   UNL     1     143.698  78.967 216.705 -0.39 -0.87    +0.346 HD 
DOCKED: ATOM     32  H   UNL     1     143.295  78.724 215.089 -0.15 -0.60    +0.346 HD 
DOCKED: BRANCH  30  33
DOCKED: ATOM     33  C   UNL     1     142.658  77.178 216.315 -0.15 -0.13    +0.182 C  
DOCKED: ATOM     34  C   UNL     1     143.645  76.277 215.567 -0.17 -0.04    +0.065 C  
DOCKED: ATOM     35  C   UNL     1     142.788  76.780 217.800 -0.25 -0.04    +0.065 C  
DOCKED: ATOM     36  C   UNL     1     143.787  75.035 216.423 -0.16 -0.00    +0.006 C  
DOCKED: ATOM     37  C   UNL     1     143.665  75.531 217.853 -0.20 -0.00    +0.006 C  
DOCKED: ENDBRANCH  30  33
DOCKED: ENDBRANCH  29  30
DOCKED: ENDBRANCH  27  29
DOCKED: ENDBRANCH   5  23
DOCKED: TORSDOF 9
DOCKED: TER
DOCKED: ENDMDL
________________________________________________________________________________


    CLUSTERING HISTOGRAM
    ____________________


________________________________________________________________________________
     |           |     |           |     |
Clus | Lowest    | Run | Mean      | Num | Histogram
-ter | Binding   |     | Binding   | in  |
Rank | Energy    |     | Energy    | Clus|    5    10   15   20   25   30   35
_____|___________|_____|___________|_____|____:____|____:____|____:____|____:___
   1 |     -9.35 |   9 |     -9.35 |   1 |#
   2 |     -9.04 |  11 |     -9.04 |   1 |#
   3 |     -8.98 |   2 |     -8.98 |   1 |#
   4 |     -8.71 |  19 |     -8.47 |   6 |######
   5 |     -8.56 |  12 |     -8.16 |   5 |#####
   6 |     -8.53 |  13 |     -8.53 |   1 |#
   7 |     -8.33 |  15 |     -8.33 |   1 |#
   8 |     -8.29 |   3 |     -8.29 |   1 |#
   9 |     -8.03 |   7 |     -7.95 |   2 |##
  10 |     -7.05 |  14 |     -7.05 |   1 |#
_____|___________|_____|___________|_____|______________________________________


    RMSD TABLE
    __________


_______________________________________________________________________
     |      |      |           |         |                 |
Rank | Sub- | Run  | Binding   | Cluster | Reference       | Grep
     | Rank |      | Energy    | RMSD    | RMSD            | Pattern
_____|______|______|___________|_________|_________________|___________
   1      1      9       -9.35      0.00    273.02           RANKING
   2      1     11       -9.04      0.00    271.09           RANKING
   3      1      2       -8.98      0.00    271.85           RANKING
   4      1     19       -8.71      0.00    270.90           RANKING
   4      2     10       -8.71      0.40    270.87           RANKING
   4      3      1       -8.63      0.32    270.87           RANKING
   4      4      4       -8.61      1.12    270.68           RANKING
   4      5      5       -8.46      1.19    270.56           RANKING
   4      6     17       -7.70      0.98    270.82           RANKING
   5      1     12       -8.56      0.00    271.09           RANKING
   5      2     20       -8.49      1.07    270.94           RANKING
   5      3     18       -8.19      1.12    271.41           RANKING
   5      4     16       -8.08      0.84    271.08           RANKING
   5      5      6       -7.50      1.14    271.01           RANKING
   6      1     13       -8.53      0.00    271.01           RANKING
   7      1     15       -8.33      0.00    271.09           RANKING
   8      1      3       -8.29      0.00    271.07           RANKING
   9      1      7       -8.03      0.00    271.37           RANKING
   9      2      8       -7.87      0.35    271.23           RANKING
  10      1     14       -7.05      0.00    271.12           RANKING

Run time 1.494 sec
Idle time 0.000 sec
