AutoDock-GPU version: v1.6

**********************************************************
**    AutoDock-GPU AUTODOCKTOOLS-COMPATIBLE DLG FILE    **
**********************************************************


    DOCKING PARAMETERS
    ________________________


Ligand file:                               /home/a/REINVENT4/ReinventStudies/pleaseWork/justRnve/graph-dock-t2iv78/graph-DockGPU/node-autodockgpu/inputs/DKNPMFASMDQIKA-ZYMSVLFVNA-N.pdbqt
Grid fld file:                             /home/a/REINVENT4/ReinventStudies/mols/Rad51/maps/rad51_receptor.maps.fld

Random seed:                               42
Number of runs:                            20
Number of energy evaluations:              1613968
Number of generations:                     42000
Size of population:                        150
Rate of crossover:                         80.000000%
Tournament selection probability limit:    60.000000%
Rate of mutation:                          2.000000%
Maximal allowed delta movement:            +/- 6.000000A
Maximal allowed delta angle:               +/- 90.000000

Rate of local search:                      100.000000%
Maximal number of local search iterations: 300
Rho lower bound:                           0.010000
Spread of local search delta movement:     2.000000A
Spread of local search delta angle:        74.999999
Limit of consecutive successes/failures:   4

Handle symmetry during clustering:         YES
RMSD tolerance:                            2.000000A

Program call in command line was:          /home/a/REINVENT4/ReinventStudies/adgpu-v1.6_linux_x64_cuda12_128wi --filelist batch.txt --heuristics 1 --nrun 20 --psize 150 --lsit 300 --seed 42 --heurmax 12000000 


    GRID PARAMETERS
    ________________________


Receptor name:                             rad51_receptor
Number of grid points (x, y, z):           53, 53, 53
Grid center (x, y, z):                     139.950000, 75.640000, 221.970000A
Grid size (x, y, z):                       19.500000, 19.500000, 19.500000A
Grid spacing:                              0.375000A


    LIGAND PARAMETERS
    ________________________


Ligand name:                               /home/a/REINVENT4/ReinventStudies/pleaseWork/justRnve/graph-dock-t2iv78/graph-DockGPU/node-autodockgpu/inputs/DKNPMFASMDQIKA-ZYMSVLFVNA-N
Number of atoms:                           37
Number of rotatable bonds:                 8
Number of atom types:                      6


    DUMMY DATA (only for ADT-compatibility)
    ________________________


DPF> outlev 1
DPF> ga_run 20
DPF> fld /home/a/REINVENT4/ReinventStudies/mols/Rad51/maps/rad51_receptor.maps.fld
DPF> move /home/a/REINVENT4/ReinventStudies/pleaseWork/justRnve/graph-dock-t2iv78/graph-DockGPU/node-autodockgpu/inputs/DKNPMFASMDQIKA-ZYMSVLFVNA-N.pdbqt


    COUNTER STATES
    ________________________


Number of energy evaluations performed:    1002935
Number of generations used:                85


    INPUT LIGAND PDBQT FILE:
    ________________________


INPUT-LIGAND-PDBQT: REMARK SMILES O=C(NCc1cccc(-c2cccc(CNC3CCCC3)c2)c1)c1ccc(-c2ccccc2)cc1
INPUT-LIGAND-PDBQT: REMARK SMILES IDX 5 1 6 2 7 3 8 4 9 5 23 6 4 7 3 8 2 9 1 10 24 12 25 13 35 14
INPUT-LIGAND-PDBQT: REMARK SMILES IDX 26 15 34 16 27 17 28 18 29 19 33 20 30 21 32 22 31 23 10 24
INPUT-LIGAND-PDBQT: REMARK SMILES IDX 11 25 22 26 12 27 14 28 13 29 15 30 16 31 17 33 18 34 21 35
INPUT-LIGAND-PDBQT: REMARK SMILES IDX 19 36 20 37
INPUT-LIGAND-PDBQT: REMARK H PARENT 3 11 16 32
INPUT-LIGAND-PDBQT: ROOT
INPUT-LIGAND-PDBQT: ATOM      1  C   UNL     1       2.161  -0.809   2.677  1.00  0.00    -0.028 A 
INPUT-LIGAND-PDBQT: ATOM      2  C   UNL     1       1.939   0.354   3.430  1.00  0.00     0.005 A 
INPUT-LIGAND-PDBQT: ATOM      3  C   UNL     1       0.658   0.649   3.902  1.00  0.00     0.001 A 
INPUT-LIGAND-PDBQT: ATOM      4  C   UNL     1      -0.409  -0.207   3.623  1.00  0.00     0.009 A 
INPUT-LIGAND-PDBQT: ATOM      5  C   UNL     1      -0.209  -1.373   2.863  1.00  0.00    -0.018 A 
INPUT-LIGAND-PDBQT: ATOM      6  C   UNL     1       1.084  -1.663   2.390  1.00  0.00     0.014 A 
INPUT-LIGAND-PDBQT: ENDROOT
INPUT-LIGAND-PDBQT: BRANCH   1   7
INPUT-LIGAND-PDBQT: ATOM      7  C   UNL     1       3.533  -1.125   2.147  1.00  0.00     0.152 C 
INPUT-LIGAND-PDBQT: BRANCH   7   8
INPUT-LIGAND-PDBQT: ATOM      8  N   UNL     1       3.605  -0.810   0.723  1.00  0.00    -0.348 N 
INPUT-LIGAND-PDBQT: ATOM      9  C   UNL     1       3.888   0.516   0.244  1.00  0.00     0.251 C 
INPUT-LIGAND-PDBQT: ATOM     10  O   UNL     1       3.998   1.465   1.068  1.00  0.00    -0.269 OA
INPUT-LIGAND-PDBQT: ATOM     11  H   UNL     1       3.320  -1.557   0.051  1.00  0.00     0.164 HD
INPUT-LIGAND-PDBQT: BRANCH   9  12
INPUT-LIGAND-PDBQT: ATOM     12  C   UNL     1       4.040   0.793  -1.206  1.00  0.00     0.039 A 
INPUT-LIGAND-PDBQT: ATOM     13  C   UNL     1       3.853   2.099  -1.694  1.00  0.00     0.014 A 
INPUT-LIGAND-PDBQT: ATOM     14  C   UNL     1       4.395  -0.223  -2.111  1.00  0.00     0.014 A 
INPUT-LIGAND-PDBQT: ATOM     15  C   UNL     1       3.996   2.377  -3.056  1.00  0.00     0.009 A 
INPUT-LIGAND-PDBQT: ATOM     16  C   UNL     1       4.539   0.056  -3.473  1.00  0.00     0.009 A 
INPUT-LIGAND-PDBQT: ATOM     17  C   UNL     1       4.338   1.358  -3.962  1.00  0.00    -0.018 A 
INPUT-LIGAND-PDBQT: BRANCH  17  18
INPUT-LIGAND-PDBQT: ATOM     18  C   UNL     1       4.489   1.654  -5.410  1.00  0.00    -0.018 A 
INPUT-LIGAND-PDBQT: ATOM     19  C   UNL     1       5.531   1.070  -6.156  1.00  0.00     0.009 A 
INPUT-LIGAND-PDBQT: ATOM     20  C   UNL     1       3.592   2.524  -6.060  1.00  0.00     0.009 A 
INPUT-LIGAND-PDBQT: ATOM     21  C   UNL     1       5.671   1.352  -7.518  1.00  0.00     0.001 A 
INPUT-LIGAND-PDBQT: ATOM     22  C   UNL     1       3.737   2.801  -7.423  1.00  0.00     0.001 A 
INPUT-LIGAND-PDBQT: ATOM     23  C   UNL     1       4.774   2.215  -8.151  1.00  0.00     0.000 A 
INPUT-LIGAND-PDBQT: ENDBRANCH  17  18
INPUT-LIGAND-PDBQT: ENDBRANCH   9  12
INPUT-LIGAND-PDBQT: ENDBRANCH   7   8
INPUT-LIGAND-PDBQT: ENDBRANCH   1   7
INPUT-LIGAND-PDBQT: BRANCH   5  24
INPUT-LIGAND-PDBQT: ATOM     24  C   UNL     1      -1.344  -2.286   2.569  1.00  0.00    -0.018 A 
INPUT-LIGAND-PDBQT: ATOM     25  C   UNL     1      -1.471  -2.884   1.302  1.00  0.00     0.009 A 
INPUT-LIGAND-PDBQT: ATOM     26  C   UNL     1      -2.307  -2.570   3.555  1.00  0.00     0.013 A 
INPUT-LIGAND-PDBQT: ATOM     27  C   UNL     1      -2.537  -3.743   1.027  1.00  0.00     0.001 A 
INPUT-LIGAND-PDBQT: ATOM     28  C   UNL     1      -3.377  -3.438   3.283  1.00  0.00    -0.034 A 
INPUT-LIGAND-PDBQT: ATOM     29  C   UNL     1      -3.488  -4.019   2.011  1.00  0.00     0.005 A 
INPUT-LIGAND-PDBQT: BRANCH  28  30
INPUT-LIGAND-PDBQT: ATOM     30  C   UNL     1      -4.419  -3.700   4.337  1.00  0.00     0.117 C 
INPUT-LIGAND-PDBQT: BRANCH  30  31
INPUT-LIGAND-PDBQT: ATOM     31  N   UNL     1      -5.314  -2.543   4.497  1.00  0.00    -0.310 NA
INPUT-LIGAND-PDBQT: ATOM     32  H   UNL     1      -5.826  -2.692   5.398  1.00  0.00     0.123 HD
INPUT-LIGAND-PDBQT: BRANCH  31  33
INPUT-LIGAND-PDBQT: ATOM     33  C   UNL     1      -6.276  -2.411   3.376  1.00  0.00     0.054 C 
INPUT-LIGAND-PDBQT: ATOM     34  C   UNL     1      -7.634  -1.890   3.851  1.00  0.00     0.019 C 
INPUT-LIGAND-PDBQT: ATOM     35  C   UNL     1      -5.796  -1.333   2.401  1.00  0.00     0.019 C 
INPUT-LIGAND-PDBQT: ATOM     36  C   UNL     1      -7.498  -0.379   3.887  1.00  0.00     0.002 C 
INPUT-LIGAND-PDBQT: ATOM     37  C   UNL     1      -6.460  -0.025   2.828  1.00  0.00     0.002 C 
INPUT-LIGAND-PDBQT: ENDBRANCH  31  33
INPUT-LIGAND-PDBQT: ENDBRANCH  30  31
INPUT-LIGAND-PDBQT: ENDBRANCH  28  30
INPUT-LIGAND-PDBQT: ENDBRANCH   5  24
INPUT-LIGAND-PDBQT: TORSDOF 8


    FINAL DOCKED STATE:
    ________________________


Run:   1 / 20
Time taken for this run:   0.061s

DOCKED: MODEL        1
DOCKED: USER    Run = 1
DOCKED: USER
DOCKED: USER    Estimated Free Energy of Binding    =  -9.28 kcal/mol  [=(1)+(2)+(3)-(4)]
DOCKED: USER
DOCKED: USER    (1) Final Intermolecular Energy     = -11.67 kcal/mol
DOCKED: USER        vdW + Hbond + desolv Energy     = -11.66 kcal/mol
DOCKED: USER        Electrostatic Energy            =  -0.01 kcal/mol
DOCKED: USER        Moving Ligand-Fixed Receptor    = -11.67 kcal/mol
DOCKED: USER        Moving Ligand-Moving Receptor   =  +0.00 kcal/mol
DOCKED: USER    (2) Final Total Internal Energy     =  -1.67 kcal/mol
DOCKED: USER    (3) Torsional Free Energy           =  +2.39 kcal/mol
DOCKED: USER    (4) Unbound System's Energy         =  -1.67 kcal/mol
DOCKED: USER
DOCKED: USER
DOCKED: REMARK SMILES O=C(NCc1cccc(-c2cccc(CNC3CCCC3)c2)c1)c1ccc(-c2ccccc2)cc1
DOCKED: REMARK SMILES IDX 5 1 6 2 7 3 8 4 9 5 23 6 4 7 3 8 2 9 1 10 24 12 25 13 35 14
DOCKED: REMARK SMILES IDX 26 15 34 16 27 17 28 18 29 19 33 20 30 21 32 22 31 23 10 24
DOCKED: REMARK SMILES IDX 11 25 22 26 12 27 14 28 13 29 15 30 16 31 17 33 18 34 21 35
DOCKED: REMARK SMILES IDX 19 36 20 37
DOCKED: REMARK H PARENT 3 11 16 32
DOCKED: USER                              x       y       z     vdW  Elec       q    Type
DOCKED: USER                           _______ _______ _______ _____ _____    ______ ____
DOCKED: ROOT
DOCKED: ATOM      1  C   UNL     1     140.222  75.690 220.387 -0.16 +0.01    -0.028 A  
DOCKED: ATOM      2  C   UNL     1     141.214  75.368 219.448 -0.14 -0.00    +0.005 A  
DOCKED: ATOM      3  C   UNL     1     142.311  76.215 219.269 -0.28 -0.00    +0.001 A  
DOCKED: ATOM      4  C   UNL     1     142.423  77.388 220.018 -0.27 -0.01    +0.009 A  
DOCKED: ATOM      5  C   UNL     1     141.436  77.732 220.958 -0.32 +0.01    -0.018 A  
DOCKED: ATOM      6  C   UNL     1     140.334  76.875 221.132 -0.26 -0.00    +0.014 A  
DOCKED: ENDROOT
DOCKED: BRANCH   1   7
DOCKED: ATOM      7  C   UNL     1     139.028  74.794 220.573 -0.10 -0.03    +0.152 C  
DOCKED: BRANCH   7   8
DOCKED: ATOM      8  N   UNL     1     139.168  74.020 221.802 -0.13 +0.08    -0.348 N  
DOCKED: ATOM      9  C   UNL     1     139.306  72.588 221.795 -0.15 -0.05    +0.251 C  
DOCKED: ATOM     10  O   UNL     1     139.222  71.960 220.705 -0.04 +0.05    -0.269 OA 
DOCKED: ATOM     11  H   UNL     1     139.040  74.527 222.706 -0.49 -0.05    +0.164 HD 
DOCKED: BRANCH   9  12
DOCKED: ATOM     12  C   UNL     1     139.533  71.832 223.052 -0.31 -0.01    +0.039 A  
DOCKED: ATOM     13  C   UNL     1     138.611  70.849 223.455 -0.27 -0.00    +0.014 A  
DOCKED: ATOM     14  C   UNL     1     140.671  72.059 223.847 -0.19 -0.00    +0.014 A  
DOCKED: ATOM     15  C   UNL     1     138.812  70.126 224.634 -0.35 -0.00    +0.009 A  
DOCKED: ATOM     16  C   UNL     1     140.871  71.334 225.025 -0.50 -0.00    +0.009 A  
DOCKED: ATOM     17  C   UNL     1     139.943  70.362 225.434 -0.47 +0.00    -0.018 A  
DOCKED: BRANCH  17  18
DOCKED: ATOM     18  C   UNL     1     140.155  69.594 226.688 -0.53 +0.00    -0.018 A  
DOCKED: ATOM     19  C   UNL     1     139.420  69.899 227.849 -0.52 -0.00    +0.009 A  
DOCKED: ATOM     20  C   UNL     1     141.097  68.547 226.735 -0.60 -0.00    +0.009 A  
DOCKED: ATOM     21  C   UNL     1     139.623  69.175 229.027 -0.23 -0.00    +0.001 A  
DOCKED: ATOM     22  C   UNL     1     141.295  67.825 227.916 -0.47 -0.00    +0.001 A  
DOCKED: ATOM     23  C   UNL     1     140.558  68.138 229.060 -0.47 -0.00    +0.000 A  
DOCKED: ENDBRANCH  17  18
DOCKED: ENDBRANCH   9  12
DOCKED: ENDBRANCH   7   8
DOCKED: ENDBRANCH   1   7
DOCKED: BRANCH   5  24
DOCKED: ATOM     24  C   UNL     1     141.557  78.979 221.758 -0.41 +0.01    -0.018 A  
DOCKED: ATOM     25  C   UNL     1     142.556  79.103 222.740 -0.50 -0.00    +0.009 A  
DOCKED: ATOM     26  C   UNL     1     140.677  80.055 221.542 -0.29 -0.00    +0.013 A  
DOCKED: ATOM     27  C   UNL     1     142.671  80.276 223.490 -0.67 -0.00    +0.001 A  
DOCKED: ATOM     28  C   UNL     1     140.794  81.238 222.291 -0.37 +0.01    -0.034 A  
DOCKED: ATOM     29  C   UNL     1     141.793  81.339 223.270 -0.57 -0.00    +0.005 A  
DOCKED: BRANCH  28  30
DOCKED: ATOM     30  C   UNL     1     139.820  82.364 222.073 -0.11 -0.01    +0.117 C  
DOCKED: BRANCH  30  31
DOCKED: ATOM     31  N   UNL     1     138.483  82.015 222.581 -0.08 +0.03    -0.310 NA 
DOCKED: ATOM     32  H   UNL     1     138.083  82.897 222.981 +0.03 -0.01    +0.123 HD 
DOCKED: BRANCH  31  33
DOCKED: ATOM     33  C   UNL     1     138.529  80.956 223.618 -0.33 -0.01    +0.054 C  
DOCKED: ATOM     34  C   UNL     1     137.723  81.342 224.860 -0.37 -0.00    +0.019 C  
DOCKED: ATOM     35  C   UNL     1     137.827  79.696 223.108 -0.27 -0.00    +0.019 C  
DOCKED: ATOM     36  C   UNL     1     136.290  80.950 224.551 -0.27 -0.00    +0.002 C  
DOCKED: ATOM     37  C   UNL     1     136.375  79.779 223.578 -0.20 -0.00    +0.002 C  
DOCKED: ENDBRANCH  31  33
DOCKED: ENDBRANCH  30  31
DOCKED: ENDBRANCH  28  30
DOCKED: ENDBRANCH   5  24
DOCKED: TORSDOF 8
DOCKED: TER
DOCKED: ENDMDL
________________________________________________________________________________


    FINAL DOCKED STATE:
    ________________________


Run:   2 / 20
Time taken for this run:   0.061s

DOCKED: MODEL        2
DOCKED: USER    Run = 2
DOCKED: USER
DOCKED: USER    Estimated Free Energy of Binding    =  -8.65 kcal/mol  [=(1)+(2)+(3)-(4)]
DOCKED: USER
DOCKED: USER    (1) Final Intermolecular Energy     = -11.03 kcal/mol
DOCKED: USER        vdW + Hbond + desolv Energy     = -10.96 kcal/mol
DOCKED: USER        Electrostatic Energy            =  -0.07 kcal/mol
DOCKED: USER        Moving Ligand-Fixed Receptor    = -11.03 kcal/mol
DOCKED: USER        Moving Ligand-Moving Receptor   =  +0.00 kcal/mol
DOCKED: USER    (2) Final Total Internal Energy     =  -1.96 kcal/mol
DOCKED: USER    (3) Torsional Free Energy           =  +2.39 kcal/mol
DOCKED: USER    (4) Unbound System's Energy         =  -1.96 kcal/mol
DOCKED: USER
DOCKED: USER
DOCKED: REMARK SMILES O=C(NCc1cccc(-c2cccc(CNC3CCCC3)c2)c1)c1ccc(-c2ccccc2)cc1
DOCKED: REMARK SMILES IDX 5 1 6 2 7 3 8 4 9 5 23 6 4 7 3 8 2 9 1 10 24 12 25 13 35 14
DOCKED: REMARK SMILES IDX 26 15 34 16 27 17 28 18 29 19 33 20 30 21 32 22 31 23 10 24
DOCKED: REMARK SMILES IDX 11 25 22 26 12 27 14 28 13 29 15 30 16 31 17 33 18 34 21 35
DOCKED: REMARK SMILES IDX 19 36 20 37
DOCKED: REMARK H PARENT 3 11 16 32
DOCKED: USER                              x       y       z     vdW  Elec       q    Type
DOCKED: USER                           _______ _______ _______ _____ _____    ______ ____
DOCKED: ROOT
DOCKED: ATOM      1  C   UNL     1     140.967  78.372 222.595 -0.45 +0.01    -0.028 A  
DOCKED: ATOM      2  C   UNL     1     141.819  78.598 223.687 -0.60 -0.00    +0.005 A  
DOCKED: ATOM      3  C   UNL     1     142.514  79.804 223.794 -0.60 -0.00    +0.001 A  
DOCKED: ATOM      4  C   UNL     1     142.371  80.789 222.815 -0.59 -0.00    +0.009 A  
DOCKED: ATOM      5  C   UNL     1     141.528  80.578 221.709 -0.41 +0.01    -0.018 A  
DOCKED: ATOM      6  C   UNL     1     140.832  79.360 221.607 -0.31 -0.00    +0.014 A  
DOCKED: ENDROOT
DOCKED: BRANCH   1   7
DOCKED: ATOM      7  C   UNL     1     140.229  77.067 222.460 -0.28 -0.04    +0.152 C  
DOCKED: BRANCH   7   8
DOCKED: ATOM      8  N   UNL     1     141.139  76.023 221.997 -0.18 +0.12    -0.348 N  
DOCKED: ATOM      9  C   UNL     1     140.707  74.667 221.789 -0.08 -0.03    +0.251 C  
DOCKED: ATOM     10  O   UNL     1     139.528  74.336 222.090 -0.68 +0.04    -0.269 OA 
DOCKED: ATOM     11  H   UNL     1     142.154  76.262 221.939 -0.53 -0.14    +0.164 HD 
DOCKED: BRANCH   9  12
DOCKED: ATOM     12  C   UNL     1     141.630  73.644 221.237 -0.25 -0.01    +0.039 A  
DOCKED: ATOM     13  C   UNL     1     141.220  72.300 221.158 -0.23 -0.00    +0.014 A  
DOCKED: ATOM     14  C   UNL     1     142.907  73.990 220.763 -0.28 -0.00    +0.014 A  
DOCKED: ATOM     15  C   UNL     1     142.075  71.325 220.638 -0.15 -0.00    +0.009 A  
DOCKED: ATOM     16  C   UNL     1     143.761  73.014 220.242 -0.34 -0.00    +0.009 A  
DOCKED: ATOM     17  C   UNL     1     143.357  71.670 220.177 -0.25 +0.00    -0.018 A  
DOCKED: BRANCH  17  18
DOCKED: ATOM     18  C   UNL     1     144.266  70.633 219.625 -0.24 -0.00    -0.018 A  
DOCKED: ATOM     19  C   UNL     1     145.468  70.998 218.987 -0.30 +0.00    +0.009 A  
DOCKED: ATOM     20  C   UNL     1     143.940  69.266 219.730 -0.27 +0.00    +0.009 A  
DOCKED: ATOM     21  C   UNL     1     146.320  70.020 218.468 -0.26 +0.00    +0.001 A  
DOCKED: ATOM     22  C   UNL     1     144.798  68.292 219.209 -0.37 +0.00    +0.001 A  
DOCKED: ATOM     23  C   UNL     1     145.986  68.668 218.580 -0.38 +0.00    +0.000 A  
DOCKED: ENDBRANCH  17  18
DOCKED: ENDBRANCH   9  12
DOCKED: ENDBRANCH   7   8
DOCKED: ENDBRANCH   1   7
DOCKED: BRANCH   5  24
DOCKED: ATOM     24  C   UNL     1     141.373  81.628 220.669 -0.32 +0.01    -0.018 A  
DOCKED: ATOM     25  C   UNL     1     140.960  82.926 221.019 -0.30 -0.00    +0.009 A  
DOCKED: ATOM     26  C   UNL     1     141.640  81.340 219.317 -0.27 -0.01    +0.013 A  
DOCKED: ATOM     27  C   UNL     1     140.816  83.912 220.040 -0.17 -0.00    +0.001 A  
DOCKED: ATOM     28  C   UNL     1     141.501  82.331 218.332 -0.20 +0.01    -0.034 A  
DOCKED: ATOM     29  C   UNL     1     141.082  83.618 218.702 -0.17 -0.00    +0.005 A  
DOCKED: BRANCH  28  30
DOCKED: ATOM     30  C   UNL     1     141.753  81.995 216.887 -0.15 -0.07    +0.117 C  
DOCKED: BRANCH  30  31
DOCKED: ATOM     31  N   UNL     1     142.571  80.778 216.760 -0.07 +0.37    -0.310 NA 
DOCKED: ATOM     32  H   UNL     1     143.340  81.011 216.090 -0.51 -0.26    +0.123 HD 
DOCKED: BRANCH  31  33
DOCKED: ATOM     33  C   UNL     1     141.790  79.620 216.262 -0.14 -0.05    +0.054 C  
DOCKED: ATOM     34  C   UNL     1     142.569  78.309 216.394 -0.16 -0.02    +0.019 C  
DOCKED: ATOM     35  C   UNL     1     140.560  79.400 217.146 -0.08 -0.01    +0.019 C  
DOCKED: ATOM     36  C   UNL     1     142.326  77.836 217.816 -0.28 -0.00    +0.002 C  
DOCKED: ATOM     37  C   UNL     1     140.960  78.383 218.214 -0.13 -0.00    +0.002 C  
DOCKED: ENDBRANCH  31  33
DOCKED: ENDBRANCH  30  31
DOCKED: ENDBRANCH  28  30
DOCKED: ENDBRANCH   5  24
DOCKED: TORSDOF 8
DOCKED: TER
DOCKED: ENDMDL
________________________________________________________________________________


    FINAL DOCKED STATE:
    ________________________


Run:   3 / 20
Time taken for this run:   0.061s

DOCKED: MODEL        3
DOCKED: USER    Run = 3
DOCKED: USER
DOCKED: USER    Estimated Free Energy of Binding    =  -8.96 kcal/mol  [=(1)+(2)+(3)-(4)]
DOCKED: USER
DOCKED: USER    (1) Final Intermolecular Energy     = -11.34 kcal/mol
DOCKED: USER        vdW + Hbond + desolv Energy     = -11.33 kcal/mol
DOCKED: USER        Electrostatic Energy            =  -0.02 kcal/mol
DOCKED: USER        Moving Ligand-Fixed Receptor    = -11.34 kcal/mol
DOCKED: USER        Moving Ligand-Moving Receptor   =  +0.00 kcal/mol
DOCKED: USER    (2) Final Total Internal Energy     =  -1.95 kcal/mol
DOCKED: USER    (3) Torsional Free Energy           =  +2.39 kcal/mol
DOCKED: USER    (4) Unbound System's Energy         =  -1.95 kcal/mol
DOCKED: USER
DOCKED: USER
DOCKED: REMARK SMILES O=C(NCc1cccc(-c2cccc(CNC3CCCC3)c2)c1)c1ccc(-c2ccccc2)cc1
DOCKED: REMARK SMILES IDX 5 1 6 2 7 3 8 4 9 5 23 6 4 7 3 8 2 9 1 10 24 12 25 13 35 14
DOCKED: REMARK SMILES IDX 26 15 34 16 27 17 28 18 29 19 33 20 30 21 32 22 31 23 10 24
DOCKED: REMARK SMILES IDX 11 25 22 26 12 27 14 28 13 29 15 30 16 31 17 33 18 34 21 35
DOCKED: REMARK SMILES IDX 19 36 20 37
DOCKED: REMARK H PARENT 3 11 16 32
DOCKED: USER                              x       y       z     vdW  Elec       q    Type
DOCKED: USER                           _______ _______ _______ _____ _____    ______ ____
DOCKED: ROOT
DOCKED: ATOM      1  C   UNL     1     134.240  73.365 224.554 -0.21 +0.00    -0.028 A  
DOCKED: ATOM      2  C   UNL     1     133.296  72.539 225.183 -0.20 -0.00    +0.005 A  
DOCKED: ATOM      3  C   UNL     1     133.588  71.193 225.419 -0.22 -0.00    +0.001 A  
DOCKED: ATOM      4  C   UNL     1     134.818  70.662 225.025 -0.21 -0.00    +0.009 A  
DOCKED: ATOM      5  C   UNL     1     135.774  71.470 224.386 -0.15 +0.00    -0.018 A  
DOCKED: ATOM      6  C   UNL     1     135.471  72.824 224.151 -0.22 -0.00    +0.014 A  
DOCKED: ENDROOT
DOCKED: BRANCH   1   7
DOCKED: ATOM      7  C   UNL     1     133.926  74.810 224.278 -0.14 -0.02    +0.152 C  
DOCKED: BRANCH   7   8
DOCKED: ATOM      8  N   UNL     1     135.160  75.587 224.212 -0.15 +0.05    -0.348 N  
DOCKED: ATOM      9  C   UNL     1     135.909  75.737 222.994 -0.16 -0.05    +0.251 C  
DOCKED: ATOM     10  O   UNL     1     135.545  75.114 221.959 -0.05 +0.05    -0.269 OA 
DOCKED: ATOM     11  H   UNL     1     135.557  75.935 225.114 +0.04 -0.02    +0.164 HD 
DOCKED: BRANCH   9  12
DOCKED: ATOM     12  C   UNL     1     137.114  76.601 222.934 -0.24 -0.01    +0.039 A  
DOCKED: ATOM     13  C   UNL     1     138.377  76.029 222.700 -0.28 -0.00    +0.014 A  
DOCKED: ATOM     14  C   UNL     1     137.020  77.996 223.081 -0.13 -0.00    +0.014 A  
DOCKED: ATOM     15  C   UNL     1     139.521  76.829 222.637 -0.27 -0.00    +0.009 A  
DOCKED: ATOM     16  C   UNL     1     138.165  78.797 223.017 -0.26 -0.00    +0.009 A  
DOCKED: ATOM     17  C   UNL     1     139.428  78.223 222.798 -0.32 +0.00    -0.018 A  
DOCKED: BRANCH  17  18
DOCKED: ATOM     18  C   UNL     1     140.644  79.073 222.731 -0.42 +0.00    -0.018 A  
DOCKED: ATOM     19  C   UNL     1     141.021  79.693 221.524 -0.33 -0.00    +0.009 A  
DOCKED: ATOM     20  C   UNL     1     141.441  79.274 223.876 -0.59 -0.00    +0.009 A  
DOCKED: ATOM     21  C   UNL     1     142.167  80.491 221.465 -0.43 -0.00    +0.001 A  
DOCKED: ATOM     22  C   UNL     1     142.585  80.074 223.810 -0.64 -0.00    +0.001 A  
DOCKED: ATOM     23  C   UNL     1     142.947  80.683 222.607 -0.51 -0.00    +0.000 A  
DOCKED: ENDBRANCH  17  18
DOCKED: ENDBRANCH   9  12
DOCKED: ENDBRANCH   7   8
DOCKED: ENDBRANCH   1   7
DOCKED: BRANCH   5  24
DOCKED: ATOM     24  C   UNL     1     137.084  70.905 223.970 -0.21 +0.00    -0.018 A  
DOCKED: ATOM     25  C   UNL     1     137.901  71.592 223.054 -0.20 -0.00    +0.009 A  
DOCKED: ATOM     26  C   UNL     1     137.530  69.676 224.491 -0.29 -0.00    +0.013 A  
DOCKED: ATOM     27  C   UNL     1     139.132  71.061 222.665 -0.24 -0.00    +0.001 A  
DOCKED: ATOM     28  C   UNL     1     138.770  69.142 224.106 -0.31 +0.00    -0.034 A  
DOCKED: ATOM     29  C   UNL     1     139.567  69.841 223.186 -0.22 -0.00    +0.005 A  
DOCKED: BRANCH  28  30
DOCKED: ATOM     30  C   UNL     1     139.214  67.808 224.643 -0.20 -0.01    +0.117 C  
DOCKED: BRANCH  30  31
DOCKED: ATOM     31  N   UNL     1     139.021  67.732 226.100 -0.64 +0.01    -0.310 NA 
DOCKED: ATOM     32  H   UNL     1     138.315  68.466 226.340 +0.07 -0.01    +0.123 HD 
DOCKED: BRANCH  31  33
DOCKED: ATOM     33  C   UNL     1     140.279  67.966 226.850 -0.64 -0.01    +0.054 C  
DOCKED: ATOM     34  C   UNL     1     141.174  68.994 226.155 -0.51 -0.00    +0.019 C  
DOCKED: ATOM     35  C   UNL     1     139.967  68.613 228.202 -0.61 -0.00    +0.019 C  
DOCKED: ATOM     36  C   UNL     1     140.669  70.348 226.617 -0.61 -0.00    +0.002 C  
DOCKED: ATOM     37  C   UNL     1     140.071  70.124 228.002 -0.65 -0.00    +0.002 C  
DOCKED: ENDBRANCH  31  33
DOCKED: ENDBRANCH  30  31
DOCKED: ENDBRANCH  28  30
DOCKED: ENDBRANCH   5  24
DOCKED: TORSDOF 8
DOCKED: TER
DOCKED: ENDMDL
________________________________________________________________________________


    FINAL DOCKED STATE:
    ________________________


Run:   4 / 20
Time taken for this run:   0.061s

DOCKED: MODEL        4
DOCKED: USER    Run = 4
DOCKED: USER
DOCKED: USER    Estimated Free Energy of Binding    =  -9.06 kcal/mol  [=(1)+(2)+(3)-(4)]
DOCKED: USER
DOCKED: USER    (1) Final Intermolecular Energy     = -11.44 kcal/mol
DOCKED: USER        vdW + Hbond + desolv Energy     = -11.38 kcal/mol
DOCKED: USER        Electrostatic Energy            =  -0.07 kcal/mol
DOCKED: USER        Moving Ligand-Fixed Receptor    = -11.44 kcal/mol
DOCKED: USER        Moving Ligand-Moving Receptor   =  +0.00 kcal/mol
DOCKED: USER    (2) Final Total Internal Energy     =  -1.56 kcal/mol
DOCKED: USER    (3) Torsional Free Energy           =  +2.39 kcal/mol
DOCKED: USER    (4) Unbound System's Energy         =  -1.56 kcal/mol
DOCKED: USER
DOCKED: USER
DOCKED: REMARK SMILES O=C(NCc1cccc(-c2cccc(CNC3CCCC3)c2)c1)c1ccc(-c2ccccc2)cc1
DOCKED: REMARK SMILES IDX 5 1 6 2 7 3 8 4 9 5 23 6 4 7 3 8 2 9 1 10 24 12 25 13 35 14
DOCKED: REMARK SMILES IDX 26 15 34 16 27 17 28 18 29 19 33 20 30 21 32 22 31 23 10 24
DOCKED: REMARK SMILES IDX 11 25 22 26 12 27 14 28 13 29 15 30 16 31 17 33 18 34 21 35
DOCKED: REMARK SMILES IDX 19 36 20 37
DOCKED: REMARK H PARENT 3 11 16 32
DOCKED: USER                              x       y       z     vdW  Elec       q    Type
DOCKED: USER                           _______ _______ _______ _____ _____    ______ ____
DOCKED: ROOT
DOCKED: ATOM      1  C   UNL     1     135.537  75.364 224.077 -0.30 +0.01    -0.028 A  
DOCKED: ATOM      2  C   UNL     1     134.684  75.965 225.015 -0.32 -0.00    +0.005 A  
DOCKED: ATOM      3  C   UNL     1     133.978  75.176 225.926 -0.38 -0.00    +0.001 A  
DOCKED: ATOM      4  C   UNL     1     134.112  73.787 225.906 -0.31 +0.00    +0.009 A  
DOCKED: ATOM      5  C   UNL     1     134.955  73.165 224.968 -0.24 +0.00    -0.018 A  
DOCKED: ATOM      6  C   UNL     1     135.663  73.966 224.053 -0.20 -0.00    +0.014 A  
DOCKED: ENDROOT
DOCKED: BRANCH   1   7
DOCKED: ATOM      7  C   UNL     1     136.286  76.203 223.078 -0.21 -0.03    +0.152 C  
DOCKED: BRANCH   7   8
DOCKED: ATOM      8  N   UNL     1     137.533  75.543 222.703 -0.11 +0.11    -0.348 N  
DOCKED: ATOM      9  C   UNL     1     138.441  76.107 221.741 -0.17 -0.06    +0.251 C  
DOCKED: ATOM     10  O   UNL     1     138.124  77.165 221.132 -0.06 +0.06    -0.269 OA 
DOCKED: ATOM     11  H   UNL     1     137.692  74.576 223.065 -0.47 -0.10    +0.164 HD 
DOCKED: BRANCH   9  12
DOCKED: ATOM     12  C   UNL     1     139.741  75.459 221.440 -0.27 -0.01    +0.039 A  
DOCKED: ATOM     13  C   UNL     1     139.928  74.094 221.726 -0.28 -0.00    +0.014 A  
DOCKED: ATOM     14  C   UNL     1     140.795  76.176 220.846 -0.27 -0.00    +0.014 A  
DOCKED: ATOM     15  C   UNL     1     141.145  73.468 221.445 -0.28 -0.00    +0.009 A  
DOCKED: ATOM     16  C   UNL     1     142.012  75.549 220.564 -0.27 -0.00    +0.009 A  
DOCKED: ATOM     17  C   UNL     1     142.203  74.189 220.863 -0.27 +0.00    -0.018 A  
DOCKED: BRANCH  17  18
DOCKED: ATOM     18  C   UNL     1     143.497  73.523 220.566 -0.34 +0.00    -0.018 A  
DOCKED: ATOM     19  C   UNL     1     143.528  72.204 220.073 -0.27 -0.00    +0.009 A  
DOCKED: ATOM     20  C   UNL     1     144.714  74.201 220.771 -0.46 -0.00    +0.009 A  
DOCKED: ATOM     21  C   UNL     1     144.748  71.580 219.796 -0.30 +0.00    +0.001 A  
DOCKED: ATOM     22  C   UNL     1     145.931  73.571 220.491 -0.66 -0.00    +0.001 A  
DOCKED: ATOM     23  C   UNL     1     145.948  72.263 220.002 -0.43 +0.00    +0.000 A  
DOCKED: ENDBRANCH  17  18
DOCKED: ENDBRANCH   9  12
DOCKED: ENDBRANCH   7   8
DOCKED: ENDBRANCH   1   7
DOCKED: BRANCH   5  24
DOCKED: ATOM     24  C   UNL     1     135.101  71.686 224.949 -0.15 +0.00    -0.018 A  
DOCKED: ATOM     25  C   UNL     1     134.028  70.857 225.324 -0.22 -0.00    +0.009 A  
DOCKED: ATOM     26  C   UNL     1     136.313  71.092 224.551 -0.01 -0.00    +0.013 A  
DOCKED: ATOM     27  C   UNL     1     134.166  69.467 225.304 -0.25 -0.00    +0.001 A  
DOCKED: ATOM     28  C   UNL     1     136.452  69.695 224.525 -0.23 +0.00    -0.034 A  
DOCKED: ATOM     29  C   UNL     1     135.372  68.887 224.908 -0.20 -0.00    +0.005 A  
DOCKED: BRANCH  28  30
DOCKED: ATOM     30  C   UNL     1     137.768  69.078 224.133 -0.24 -0.01    +0.117 C  
DOCKED: BRANCH  30  31
DOCKED: ATOM     31  N   UNL     1     138.399  68.404 225.279 -0.40 -0.00    -0.310 NA 
DOCKED: ATOM     32  H   UNL     1     137.854  68.693 226.125 +0.08 -0.00    +0.123 HD 
DOCKED: BRANCH  31  33
DOCKED: ATOM     33  C   UNL     1     139.827  68.773 225.438 -0.42 -0.01    +0.054 C  
DOCKED: ATOM     34  C   UNL     1     139.989  70.154 226.076 -0.52 -0.00    +0.019 C  
DOCKED: ATOM     35  C   UNL     1     140.500  67.831 226.439 -0.66 -0.00    +0.019 C  
DOCKED: ATOM     36  C   UNL     1     139.902  69.921 227.573 -0.61 -0.00    +0.002 C  
DOCKED: ATOM     37  C   UNL     1     140.407  68.502 227.808 -0.68 -0.00    +0.002 C  
DOCKED: ENDBRANCH  31  33
DOCKED: ENDBRANCH  30  31
DOCKED: ENDBRANCH  28  30
DOCKED: ENDBRANCH   5  24
DOCKED: TORSDOF 8
DOCKED: TER
DOCKED: ENDMDL
________________________________________________________________________________


    FINAL DOCKED STATE:
    ________________________


Run:   5 / 20
Time taken for this run:   0.061s

DOCKED: MODEL        5
DOCKED: USER    Run = 5
DOCKED: USER
DOCKED: USER    Estimated Free Energy of Binding    =  -9.54 kcal/mol  [=(1)+(2)+(3)-(4)]
DOCKED: USER
DOCKED: USER    (1) Final Intermolecular Energy     = -11.93 kcal/mol
DOCKED: USER        vdW + Hbond + desolv Energy     = -11.90 kcal/mol
DOCKED: USER        Electrostatic Energy            =  -0.03 kcal/mol
DOCKED: USER        Moving Ligand-Fixed Receptor    = -11.93 kcal/mol
DOCKED: USER        Moving Ligand-Moving Receptor   =  +0.00 kcal/mol
DOCKED: USER    (2) Final Total Internal Energy     =  -1.67 kcal/mol
DOCKED: USER    (3) Torsional Free Energy           =  +2.39 kcal/mol
DOCKED: USER    (4) Unbound System's Energy         =  -1.67 kcal/mol
DOCKED: USER
DOCKED: USER
DOCKED: REMARK SMILES O=C(NCc1cccc(-c2cccc(CNC3CCCC3)c2)c1)c1ccc(-c2ccccc2)cc1
DOCKED: REMARK SMILES IDX 5 1 6 2 7 3 8 4 9 5 23 6 4 7 3 8 2 9 1 10 24 12 25 13 35 14
DOCKED: REMARK SMILES IDX 26 15 34 16 27 17 28 18 29 19 33 20 30 21 32 22 31 23 10 24
DOCKED: REMARK SMILES IDX 11 25 22 26 12 27 14 28 13 29 15 30 16 31 17 33 18 34 21 35
DOCKED: REMARK SMILES IDX 19 36 20 37
DOCKED: REMARK H PARENT 3 11 16 32
DOCKED: USER                              x       y       z     vdW  Elec       q    Type
DOCKED: USER                           _______ _______ _______ _____ _____    ______ ____
DOCKED: ROOT
DOCKED: ATOM      1  C   UNL     1     134.500  72.742 224.533 -0.20 +0.00    -0.028 A  
DOCKED: ATOM      2  C   UNL     1     133.657  72.377 225.593 -0.27 -0.00    +0.005 A  
DOCKED: ATOM      3  C   UNL     1     133.857  71.168 226.263 -0.35 -0.00    +0.001 A  
DOCKED: ATOM      4  C   UNL     1     134.892  70.314 225.878 -0.22 -0.00    +0.009 A  
DOCKED: ATOM      5  C   UNL     1     135.743  70.658 224.813 -0.12 +0.00    -0.018 A  
DOCKED: ATOM      6  C   UNL     1     135.535  71.877 224.142 -0.20 -0.00    +0.014 A  
DOCKED: ENDROOT
DOCKED: BRANCH   1   7
DOCKED: ATOM      7  C   UNL     1     134.280  74.033 223.792 -0.12 -0.02    +0.152 C  
DOCKED: BRANCH   7   8
DOCKED: ATOM      8  N   UNL     1     135.534  74.776 223.696 -0.13 +0.08    -0.348 N  
DOCKED: ATOM      9  C   UNL     1     135.718  75.853 222.761 -0.13 -0.05    +0.251 C  
DOCKED: ATOM     10  O   UNL     1     134.804  76.122 221.934 -0.03 +0.04    -0.269 OA 
DOCKED: ATOM     11  H   UNL     1     136.347  74.419 224.246 -0.36 -0.07    +0.164 HD 
DOCKED: BRANCH   9  12
DOCKED: ATOM     12  C   UNL     1     136.971  76.648 222.741 -0.25 -0.01    +0.039 A  
DOCKED: ATOM     13  C   UNL     1     136.926  78.034 222.973 -0.15 -0.00    +0.014 A  
DOCKED: ATOM     14  C   UNL     1     138.219  76.039 222.519 -0.29 -0.00    +0.014 A  
DOCKED: ATOM     15  C   UNL     1     138.098  78.796 222.961 -0.25 -0.00    +0.009 A  
DOCKED: ATOM     16  C   UNL     1     139.391  76.801 222.509 -0.30 -0.00    +0.009 A  
DOCKED: ATOM     17  C   UNL     1     139.343  78.189 222.726 -0.32 +0.00    -0.018 A  
DOCKED: BRANCH  17  18
DOCKED: ATOM     18  C   UNL     1     140.588  78.999 222.713 -0.41 +0.00    -0.018 A  
DOCKED: ATOM     19  C   UNL     1     141.366  79.138 223.879 -0.59 -0.00    +0.009 A  
DOCKED: ATOM     20  C   UNL     1     141.011  79.643 221.533 -0.33 -0.00    +0.009 A  
DOCKED: ATOM     21  C   UNL     1     142.536  79.902 223.863 -0.60 -0.00    +0.001 A  
DOCKED: ATOM     22  C   UNL     1     142.183  80.406 221.524 -0.44 -0.00    +0.001 A  
DOCKED: ATOM     23  C   UNL     1     142.945  80.534 222.687 -0.60 -0.00    +0.000 A  
DOCKED: ENDBRANCH  17  18
DOCKED: ENDBRANCH   9  12
DOCKED: ENDBRANCH   7   8
DOCKED: ENDBRANCH   1   7
DOCKED: BRANCH   5  24
DOCKED: ATOM     24  C   UNL     1     136.847  69.750 224.406 -0.25 +0.00    -0.018 A  
DOCKED: ATOM     25  C   UNL     1     137.006  69.377 223.059 -0.17 -0.00    +0.009 A  
DOCKED: ATOM     26  C   UNL     1     137.754  69.254 225.361 -0.30 -0.00    +0.013 A  
DOCKED: ATOM     27  C   UNL     1     138.045  68.525 222.677 -0.22 -0.00    +0.001 A  
DOCKED: ATOM     28  C   UNL     1     138.803  68.402 224.979 -0.36 +0.00    -0.034 A  
DOCKED: ATOM     29  C   UNL     1     138.939  68.037 223.631 -0.25 -0.00    +0.005 A  
DOCKED: BRANCH  28  30
DOCKED: ATOM     30  C   UNL     1     139.739  67.849 226.020 -0.53 -0.02    +0.117 C  
DOCKED: BRANCH  30  31
DOCKED: ATOM     31  N   UNL     1     139.840  68.754 227.176 -0.29 +0.05    -0.310 NA 
DOCKED: ATOM     32  H   UNL     1     139.045  69.429 227.089 +0.08 -0.01    +0.123 HD 
DOCKED: BRANCH  31  33
DOCKED: ATOM     33  C   UNL     1     141.131  69.483 227.215 -0.49 -0.01    +0.054 C  
DOCKED: ATOM     34  C   UNL     1     141.437  70.168 225.882 -0.52 -0.00    +0.019 C  
DOCKED: ATOM     35  C   UNL     1     141.044  70.645 228.208 -0.58 -0.00    +0.019 C  
DOCKED: ATOM     36  C   UNL     1     140.707  71.497 225.933 -0.63 -0.00    +0.002 C  
DOCKED: ATOM     37  C   UNL     1     140.629  71.878 227.407 -0.76 -0.00    +0.002 C  
DOCKED: ENDBRANCH  31  33
DOCKED: ENDBRANCH  30  31
DOCKED: ENDBRANCH  28  30
DOCKED: ENDBRANCH   5  24
DOCKED: TORSDOF 8
DOCKED: TER
DOCKED: ENDMDL
________________________________________________________________________________


    FINAL DOCKED STATE:
    ________________________


Run:   6 / 20
Time taken for this run:   0.061s

DOCKED: MODEL        6
DOCKED: USER    Run = 6
DOCKED: USER
DOCKED: USER    Estimated Free Energy of Binding    =  -9.19 kcal/mol  [=(1)+(2)+(3)-(4)]
DOCKED: USER
DOCKED: USER    (1) Final Intermolecular Energy     = -11.58 kcal/mol
DOCKED: USER        vdW + Hbond + desolv Energy     = -11.59 kcal/mol
DOCKED: USER        Electrostatic Energy            =  +0.01 kcal/mol
DOCKED: USER        Moving Ligand-Fixed Receptor    = -11.58 kcal/mol
DOCKED: USER        Moving Ligand-Moving Receptor   =  +0.00 kcal/mol
DOCKED: USER    (2) Final Total Internal Energy     =  -1.49 kcal/mol
DOCKED: USER    (3) Torsional Free Energy           =  +2.39 kcal/mol
DOCKED: USER    (4) Unbound System's Energy         =  -1.49 kcal/mol
DOCKED: USER
DOCKED: USER
DOCKED: REMARK SMILES O=C(NCc1cccc(-c2cccc(CNC3CCCC3)c2)c1)c1ccc(-c2ccccc2)cc1
DOCKED: REMARK SMILES IDX 5 1 6 2 7 3 8 4 9 5 23 6 4 7 3 8 2 9 1 10 24 12 25 13 35 14
DOCKED: REMARK SMILES IDX 26 15 34 16 27 17 28 18 29 19 33 20 30 21 32 22 31 23 10 24
DOCKED: REMARK SMILES IDX 11 25 22 26 12 27 14 28 13 29 15 30 16 31 17 33 18 34 21 35
DOCKED: REMARK SMILES IDX 19 36 20 37
DOCKED: REMARK H PARENT 3 11 16 32
DOCKED: USER                              x       y       z     vdW  Elec       q    Type
DOCKED: USER                           _______ _______ _______ _____ _____    ______ ____
DOCKED: ROOT
DOCKED: ATOM      1  C   UNL     1     143.375  74.971 220.080 -0.38 +0.01    -0.028 A  
DOCKED: ATOM      2  C   UNL     1     144.700  74.512 220.124 -0.43 -0.00    +0.005 A  
DOCKED: ATOM      3  C   UNL     1     144.974  73.200 220.517 -0.53 -0.00    +0.001 A  
DOCKED: ATOM      4  C   UNL     1     143.933  72.341 220.875 -0.33 -0.00    +0.009 A  
DOCKED: ATOM      5  C   UNL     1     142.599  72.785 220.846 -0.27 +0.00    -0.018 A  
DOCKED: ATOM      6  C   UNL     1     142.331  74.108 220.449 -0.28 -0.00    +0.014 A  
DOCKED: ENDROOT
DOCKED: BRANCH   1   7
DOCKED: ATOM      7  C   UNL     1     143.071  76.389 219.677 -0.30 -0.10    +0.152 C  
DOCKED: BRANCH   7   8
DOCKED: ATOM      8  N   UNL     1     142.171  77.004 220.649 -0.00 +0.24    -0.348 N  
DOCKED: ATOM      9  C   UNL     1     141.485  78.239 220.383 -0.18 -0.13    +0.251 C  
DOCKED: ATOM     10  O   UNL     1     141.722  78.866 219.314 -0.17 +0.16    -0.269 OA 
DOCKED: ATOM     11  H   UNL     1     142.133  76.581 221.603 -0.51 -0.14    +0.164 HD 
DOCKED: BRANCH   9  12
DOCKED: ATOM     12  C   UNL     1     140.510  78.800 221.352 -0.25 -0.01    +0.039 A  
DOCKED: ATOM     13  C   UNL     1     139.152  78.904 221.000 -0.13 -0.00    +0.014 A  
DOCKED: ATOM     14  C   UNL     1     140.910  79.212 222.636 -0.43 -0.00    +0.014 A  
DOCKED: ATOM     15  C   UNL     1     138.221  79.427 221.902 -0.17 -0.00    +0.009 A  
DOCKED: ATOM     16  C   UNL     1     139.978  79.733 223.538 -0.44 -0.00    +0.009 A  
DOCKED: ATOM     17  C   UNL     1     138.624  79.850 223.180 -0.33 +0.00    -0.018 A  
DOCKED: BRANCH  17  18
DOCKED: ATOM     18  C   UNL     1     137.634  80.406 224.138 -0.33 +0.00    -0.018 A  
DOCKED: ATOM     19  C   UNL     1     136.269  80.079 224.029 -0.20 -0.00    +0.009 A  
DOCKED: ATOM     20  C   UNL     1     138.045  81.270 225.172 -0.28 -0.00    +0.009 A  
DOCKED: ATOM     21  C   UNL     1     135.340  80.605 224.931 -0.20 -0.00    +0.001 A  
DOCKED: ATOM     22  C   UNL     1     137.111  81.793 226.071 -0.45 -0.00    +0.001 A  
DOCKED: ATOM     23  C   UNL     1     135.761  81.460 225.952 -0.32 -0.00    +0.000 A  
DOCKED: ENDBRANCH  17  18
DOCKED: ENDBRANCH   9  12
DOCKED: ENDBRANCH   7   8
DOCKED: ENDBRANCH   1   7
DOCKED: BRANCH   5  24
DOCKED: ATOM     24  C   UNL     1     141.491  71.869 221.222 -0.22 +0.00    -0.018 A  
DOCKED: ATOM     25  C   UNL     1     141.001  70.923 220.304 -0.13 -0.00    +0.009 A  
DOCKED: ATOM     26  C   UNL     1     140.917  71.931 222.506 -0.26 -0.00    +0.013 A  
DOCKED: ATOM     27  C   UNL     1     139.961  70.062 220.659 -0.12 -0.00    +0.001 A  
DOCKED: ATOM     28  C   UNL     1     139.874  71.063 222.868 -0.28 +0.01    -0.034 A  
DOCKED: ATOM     29  C   UNL     1     139.397  70.131 221.934 -0.16 -0.00    +0.005 A  
DOCKED: BRANCH  28  30
DOCKED: ATOM     30  C   UNL     1     139.246  71.170 224.231 -0.31 -0.03    +0.117 C  
DOCKED: BRANCH  30  31
DOCKED: ATOM     31  N   UNL     1     139.583  70.004 225.063 -0.17 +0.05    -0.310 NA 
DOCKED: ATOM     32  H   UNL     1     138.876  69.981 225.835 +0.08 -0.02    +0.123 HD 
DOCKED: BRANCH  31  33
DOCKED: ATOM     33  C   UNL     1     140.953  70.085 225.625 -0.48 -0.01    +0.054 C  
DOCKED: ATOM     34  C   UNL     1     141.282  71.496 226.119 -0.64 -0.00    +0.019 C  
DOCKED: ATOM     35  C   UNL     1     141.050  69.228 226.890 -0.57 -0.00    +0.019 C  
DOCKED: ATOM     36  C   UNL     1     140.720  71.574 227.526 -0.80 -0.00    +0.002 C  
DOCKED: ATOM     37  C   UNL     1     140.753  70.151 228.071 -0.62 -0.00    +0.002 C  
DOCKED: ENDBRANCH  31  33
DOCKED: ENDBRANCH  30  31
DOCKED: ENDBRANCH  28  30
DOCKED: ENDBRANCH   5  24
DOCKED: TORSDOF 8
DOCKED: TER
DOCKED: ENDMDL
________________________________________________________________________________


    FINAL DOCKED STATE:
    ________________________


Run:   7 / 20
Time taken for this run:   0.061s

DOCKED: MODEL        7
DOCKED: USER    Run = 7
DOCKED: USER
DOCKED: USER    Estimated Free Energy of Binding    =  -9.41 kcal/mol  [=(1)+(2)+(3)-(4)]
DOCKED: USER
DOCKED: USER    (1) Final Intermolecular Energy     = -11.80 kcal/mol
DOCKED: USER        vdW + Hbond + desolv Energy     = -11.78 kcal/mol
DOCKED: USER        Electrostatic Energy            =  -0.02 kcal/mol
DOCKED: USER        Moving Ligand-Fixed Receptor    = -11.80 kcal/mol
DOCKED: USER        Moving Ligand-Moving Receptor   =  +0.00 kcal/mol
DOCKED: USER    (2) Final Total Internal Energy     =  -1.71 kcal/mol
DOCKED: USER    (3) Torsional Free Energy           =  +2.39 kcal/mol
DOCKED: USER    (4) Unbound System's Energy         =  -1.71 kcal/mol
DOCKED: USER
DOCKED: USER
DOCKED: REMARK SMILES O=C(NCc1cccc(-c2cccc(CNC3CCCC3)c2)c1)c1ccc(-c2ccccc2)cc1
DOCKED: REMARK SMILES IDX 5 1 6 2 7 3 8 4 9 5 23 6 4 7 3 8 2 9 1 10 24 12 25 13 35 14
DOCKED: REMARK SMILES IDX 26 15 34 16 27 17 28 18 29 19 33 20 30 21 32 22 31 23 10 24
DOCKED: REMARK SMILES IDX 11 25 22 26 12 27 14 28 13 29 15 30 16 31 17 33 18 34 21 35
DOCKED: REMARK SMILES IDX 19 36 20 37
DOCKED: REMARK H PARENT 3 11 16 32
DOCKED: USER                              x       y       z     vdW  Elec       q    Type
DOCKED: USER                           _______ _______ _______ _____ _____    ______ ____
DOCKED: ROOT
DOCKED: ATOM      1  C   UNL     1     134.455  72.807 224.728 -0.22 +0.00    -0.028 A  
DOCKED: ATOM      2  C   UNL     1     133.621  72.303 225.738 -0.28 -0.00    +0.005 A  
DOCKED: ATOM      3  C   UNL     1     133.857  71.035 226.273 -0.35 -0.00    +0.001 A  
DOCKED: ATOM      4  C   UNL     1     134.920  70.260 225.804 -0.23 -0.00    +0.009 A  
DOCKED: ATOM      5  C   UNL     1     135.762  70.744 224.787 -0.10 +0.00    -0.018 A  
DOCKED: ATOM      6  C   UNL     1     135.516  72.022 224.252 -0.20 -0.00    +0.014 A  
DOCKED: ENDROOT
DOCKED: BRANCH   1   7
DOCKED: ATOM      7  C   UNL     1     134.196  74.163 224.131 -0.15 -0.02    +0.152 C  
DOCKED: BRANCH   7   8
DOCKED: ATOM      8  N   UNL     1     135.449  74.902 224.003 -0.15 +0.07    -0.348 N  
DOCKED: ATOM      9  C   UNL     1     135.652  75.897 222.984 -0.14 -0.05    +0.251 C  
DOCKED: ATOM     10  O   UNL     1     134.758  76.089 222.116 -0.03 +0.04    -0.269 OA 
DOCKED: ATOM     11  H   UNL     1     136.249  74.598 224.601 -0.32 -0.06    +0.164 HD 
DOCKED: BRANCH   9  12
DOCKED: ATOM     12  C   UNL     1     136.903  76.693 222.927 -0.23 -0.01    +0.039 A  
DOCKED: ATOM     13  C   UNL     1     138.135  76.050 222.712 -0.29 -0.00    +0.014 A  
DOCKED: ATOM     14  C   UNL     1     136.884  78.093 223.059 -0.14 -0.00    +0.014 A  
DOCKED: ATOM     15  C   UNL     1     139.321  76.786 222.652 -0.27 -0.00    +0.009 A  
DOCKED: ATOM     16  C   UNL     1     138.071  78.829 222.998 -0.25 -0.00    +0.009 A  
DOCKED: ATOM     17  C   UNL     1     139.303  78.185 222.797 -0.31 +0.00    -0.018 A  
DOCKED: BRANCH  17  18
DOCKED: ATOM     18  C   UNL     1     140.565  78.967 222.734 -0.41 +0.00    -0.018 A  
DOCKED: ATOM     19  C   UNL     1     141.361  79.137 223.883 -0.58 -0.00    +0.009 A  
DOCKED: ATOM     20  C   UNL     1     140.985  79.551 221.523 -0.32 -0.00    +0.009 A  
DOCKED: ATOM     21  C   UNL     1     142.546  79.875 223.821 -0.60 -0.00    +0.001 A  
DOCKED: ATOM     22  C   UNL     1     142.173  80.287 221.467 -0.43 -0.00    +0.001 A  
DOCKED: ATOM     23  C   UNL     1     142.953  80.448 222.614 -0.59 -0.00    +0.000 A  
DOCKED: ENDBRANCH  17  18
DOCKED: ENDBRANCH   9  12
DOCKED: ENDBRANCH   7   8
DOCKED: ENDBRANCH   1   7
DOCKED: BRANCH   5  24
DOCKED: ATOM     24  C   UNL     1     136.894  69.920 224.290 -0.24 +0.00    -0.018 A  
DOCKED: ATOM     25  C   UNL     1     137.145  69.808 222.910 -0.16 -0.00    +0.009 A  
DOCKED: ATOM     26  C   UNL     1     137.737  69.244 225.192 -0.31 -0.00    +0.013 A  
DOCKED: ATOM     27  C   UNL     1     138.211  69.035 222.444 -0.18 -0.00    +0.001 A  
DOCKED: ATOM     28  C   UNL     1     138.813  68.471 224.726 -0.37 +0.00    -0.034 A  
DOCKED: ATOM     29  C   UNL     1     139.041  68.368 223.346 -0.21 -0.00    +0.005 A  
DOCKED: BRANCH  28  30
DOCKED: ATOM     30  C   UNL     1     139.680  67.723 225.703 -0.47 -0.01    +0.117 C  
DOCKED: BRANCH  30  31
DOCKED: ATOM     31  N   UNL     1     139.783  68.446 226.981 -0.30 +0.05    -0.310 NA 
DOCKED: ATOM     32  H   UNL     1     138.996  69.137 226.990 +0.08 -0.01    +0.123 HD 
DOCKED: BRANCH  31  33
DOCKED: ATOM     33  C   UNL     1     141.082  69.145 227.133 -0.54 -0.01    +0.054 C  
DOCKED: ATOM     34  C   UNL     1     141.416  69.998 225.907 -0.51 -0.00    +0.019 C  
DOCKED: ATOM     35  C   UNL     1     140.994  70.165 228.271 -0.54 -0.00    +0.019 C  
DOCKED: ATOM     36  C   UNL     1     140.701  71.318 226.126 -0.65 -0.00    +0.002 C  
DOCKED: ATOM     37  C   UNL     1     140.607  71.500 227.637 -0.78 -0.00    +0.002 C  
DOCKED: ENDBRANCH  31  33
DOCKED: ENDBRANCH  30  31
DOCKED: ENDBRANCH  28  30
DOCKED: ENDBRANCH   5  24
DOCKED: TORSDOF 8
DOCKED: TER
DOCKED: ENDMDL
________________________________________________________________________________


    FINAL DOCKED STATE:
    ________________________


Run:   8 / 20
Time taken for this run:   0.061s

DOCKED: MODEL        8
DOCKED: USER    Run = 8
DOCKED: USER
DOCKED: USER    Estimated Free Energy of Binding    =  -9.09 kcal/mol  [=(1)+(2)+(3)-(4)]
DOCKED: USER
DOCKED: USER    (1) Final Intermolecular Energy     = -11.48 kcal/mol
DOCKED: USER        vdW + Hbond + desolv Energy     = -11.43 kcal/mol
DOCKED: USER        Electrostatic Energy            =  -0.05 kcal/mol
DOCKED: USER        Moving Ligand-Fixed Receptor    = -11.48 kcal/mol
DOCKED: USER        Moving Ligand-Moving Receptor   =  +0.00 kcal/mol
DOCKED: USER    (2) Final Total Internal Energy     =  -1.59 kcal/mol
DOCKED: USER    (3) Torsional Free Energy           =  +2.39 kcal/mol
DOCKED: USER    (4) Unbound System's Energy         =  -1.59 kcal/mol
DOCKED: USER
DOCKED: USER
DOCKED: REMARK SMILES O=C(NCc1cccc(-c2cccc(CNC3CCCC3)c2)c1)c1ccc(-c2ccccc2)cc1
DOCKED: REMARK SMILES IDX 5 1 6 2 7 3 8 4 9 5 23 6 4 7 3 8 2 9 1 10 24 12 25 13 35 14
DOCKED: REMARK SMILES IDX 26 15 34 16 27 17 28 18 29 19 33 20 30 21 32 22 31 23 10 24
DOCKED: REMARK SMILES IDX 11 25 22 26 12 27 14 28 13 29 15 30 16 31 17 33 18 34 21 35
DOCKED: REMARK SMILES IDX 19 36 20 37
DOCKED: REMARK H PARENT 3 11 16 32
DOCKED: USER                              x       y       z     vdW  Elec       q    Type
DOCKED: USER                           _______ _______ _______ _____ _____    ______ ____
DOCKED: ROOT
DOCKED: ATOM      1  C   UNL     1     143.365  75.167 220.008 -0.37 +0.01    -0.028 A  
DOCKED: ATOM      2  C   UNL     1     144.588  74.482 220.056 -0.43 -0.00    +0.005 A  
DOCKED: ATOM      3  C   UNL     1     144.630  73.152 220.479 -0.47 -0.00    +0.001 A  
DOCKED: ATOM      4  C   UNL     1     143.457  72.498 220.861 -0.29 -0.00    +0.009 A  
DOCKED: ATOM      5  C   UNL     1     142.222  73.170 220.828 -0.27 +0.00    -0.018 A  
DOCKED: ATOM      6  C   UNL     1     142.188  74.510 220.402 -0.28 -0.00    +0.014 A  
DOCKED: ENDROOT
DOCKED: BRANCH   1   7
DOCKED: ATOM      7  C   UNL     1     143.312  76.606 219.573 -0.26 -0.11    +0.152 C  
DOCKED: BRANCH   7   8
DOCKED: ATOM      8  N   UNL     1     142.455  77.371 220.474 -0.04 +0.28    -0.348 N  
DOCKED: ATOM      9  C   UNL     1     141.043  77.522 220.246 -0.14 -0.11    +0.251 C  
DOCKED: ATOM     10  O   UNL     1     140.529  77.054 219.193 -0.04 +0.10    -0.269 OA 
DOCKED: ATOM     11  H   UNL     1     142.922  77.917 221.233 -0.48 -0.19    +0.164 HD 
DOCKED: BRANCH   9  12
DOCKED: ATOM     12  C   UNL     1     140.179  78.233 221.221 -0.21 -0.01    +0.039 A  
DOCKED: ATOM     13  C   UNL     1     138.801  78.364 220.972 -0.12 -0.00    +0.014 A  
DOCKED: ATOM     14  C   UNL     1     140.704  78.762 222.414 -0.39 -0.00    +0.014 A  
DOCKED: ATOM     15  C   UNL     1     137.973  79.027 221.882 -0.16 -0.00    +0.009 A  
DOCKED: ATOM     16  C   UNL     1     139.876  79.423 223.324 -0.42 -0.00    +0.009 A  
DOCKED: ATOM     17  C   UNL     1     138.502  79.567 223.068 -0.31 +0.00    -0.018 A  
DOCKED: BRANCH  17  18
DOCKED: ATOM     18  C   UNL     1     137.621  80.272 224.034 -0.31 +0.00    -0.018 A  
DOCKED: ATOM     19  C   UNL     1     136.235  80.022 224.056 -0.19 -0.00    +0.009 A  
DOCKED: ATOM     20  C   UNL     1     138.159  81.203 224.944 -0.30 -0.00    +0.009 A  
DOCKED: ATOM     21  C   UNL     1     135.410  80.689 224.966 -0.21 -0.00    +0.001 A  
DOCKED: ATOM     22  C   UNL     1     137.327  81.866 225.853 -0.43 -0.00    +0.001 A  
DOCKED: ATOM     23  C   UNL     1     135.955  81.608 225.864 -0.34 -0.00    +0.000 A  
DOCKED: ENDBRANCH  17  18
DOCKED: ENDBRANCH   9  12
DOCKED: ENDBRANCH   7   8
DOCKED: ENDBRANCH   1   7
DOCKED: BRANCH   5  24
DOCKED: ATOM     24  C   UNL     1     140.973  72.473 221.231 -0.24 +0.00    -0.018 A  
DOCKED: ATOM     25  C   UNL     1     139.870  72.420 220.360 -0.10 -0.00    +0.009 A  
DOCKED: ATOM     26  C   UNL     1     140.875  71.852 222.490 -0.27 -0.00    +0.013 A  
DOCKED: ATOM     27  C   UNL     1     138.697  71.763 220.739 -0.08 -0.00    +0.001 A  
DOCKED: ATOM     28  C   UNL     1     139.699  71.186 222.872 -0.29 +0.01    -0.034 A  
DOCKED: ATOM     29  C   UNL     1     138.609  71.150 221.990 -0.15 -0.00    +0.005 A  
DOCKED: BRANCH  28  30
DOCKED: ATOM     30  C   UNL     1     139.599  70.561 224.238 -0.33 -0.02    +0.117 C  
DOCKED: BRANCH  30  31
DOCKED: ATOM     31  N   UNL     1     139.917  71.536 225.292 -0.21 +0.06    -0.310 NA 
DOCKED: ATOM     32  H   UNL     1     139.995  72.466 224.817 -0.02 -0.03    +0.123 HD 
DOCKED: BRANCH  31  33
DOCKED: ATOM     33  C   UNL     1     141.180  71.214 226.000 -0.60 -0.01    +0.054 C  
DOCKED: ATOM     34  C   UNL     1     141.425  72.154 227.182 -0.75 -0.00    +0.019 C  
DOCKED: ATOM     35  C   UNL     1     141.074  69.833 226.652 -0.56 -0.00    +0.019 C  
DOCKED: ATOM     36  C   UNL     1     140.646  71.559 228.341 -0.74 -0.00    +0.002 C  
DOCKED: ATOM     37  C   UNL     1     140.592  70.057 228.084 -0.62 -0.00    +0.002 C  
DOCKED: ENDBRANCH  31  33
DOCKED: ENDBRANCH  30  31
DOCKED: ENDBRANCH  28  30
DOCKED: ENDBRANCH   5  24
DOCKED: TORSDOF 8
DOCKED: TER
DOCKED: ENDMDL
________________________________________________________________________________


    FINAL DOCKED STATE:
    ________________________


Run:   9 / 20
Time taken for this run:   0.061s

DOCKED: MODEL        9
DOCKED: USER    Run = 9
DOCKED: USER
DOCKED: USER    Estimated Free Energy of Binding    =  -9.41 kcal/mol  [=(1)+(2)+(3)-(4)]
DOCKED: USER
DOCKED: USER    (1) Final Intermolecular Energy     = -11.80 kcal/mol
DOCKED: USER        vdW + Hbond + desolv Energy     = -11.78 kcal/mol
DOCKED: USER        Electrostatic Energy            =  -0.02 kcal/mol
DOCKED: USER        Moving Ligand-Fixed Receptor    = -11.80 kcal/mol
DOCKED: USER        Moving Ligand-Moving Receptor   =  +0.00 kcal/mol
DOCKED: USER    (2) Final Total Internal Energy     =  -1.71 kcal/mol
DOCKED: USER    (3) Torsional Free Energy           =  +2.39 kcal/mol
DOCKED: USER    (4) Unbound System's Energy         =  -1.71 kcal/mol
DOCKED: USER
DOCKED: USER
DOCKED: REMARK SMILES O=C(NCc1cccc(-c2cccc(CNC3CCCC3)c2)c1)c1ccc(-c2ccccc2)cc1
DOCKED: REMARK SMILES IDX 5 1 6 2 7 3 8 4 9 5 23 6 4 7 3 8 2 9 1 10 24 12 25 13 35 14
DOCKED: REMARK SMILES IDX 26 15 34 16 27 17 28 18 29 19 33 20 30 21 32 22 31 23 10 24
DOCKED: REMARK SMILES IDX 11 25 22 26 12 27 14 28 13 29 15 30 16 31 17 33 18 34 21 35
DOCKED: REMARK SMILES IDX 19 36 20 37
DOCKED: REMARK H PARENT 3 11 16 32
DOCKED: USER                              x       y       z     vdW  Elec       q    Type
DOCKED: USER                           _______ _______ _______ _____ _____    ______ ____
DOCKED: ROOT
DOCKED: ATOM      1  C   UNL     1     134.364  72.757 224.568 -0.20 +0.00    -0.028 A  
DOCKED: ATOM      2  C   UNL     1     133.446  72.221 225.484 -0.24 -0.00    +0.005 A  
DOCKED: ATOM      3  C   UNL     1     133.663  70.955 226.034 -0.31 -0.00    +0.001 A  
DOCKED: ATOM      4  C   UNL     1     134.789  70.215 225.672 -0.26 -0.00    +0.009 A  
DOCKED: ATOM      5  C   UNL     1     135.717  70.730 224.750 -0.13 +0.00    -0.018 A  
DOCKED: ATOM      6  C   UNL     1     135.491  72.005 224.199 -0.20 -0.00    +0.014 A  
DOCKED: ENDROOT
DOCKED: BRANCH   1   7
DOCKED: ATOM      7  C   UNL     1     134.129  74.110 223.955 -0.13 -0.02    +0.152 C  
DOCKED: BRANCH   7   8
DOCKED: ATOM      8  N   UNL     1     135.393  74.831 223.831 -0.13 +0.07    -0.348 N  
DOCKED: ATOM      9  C   UNL     1     135.576  75.904 222.892 -0.13 -0.05    +0.251 C  
DOCKED: ATOM     10  O   UNL     1     134.649  76.188 222.084 -0.03 +0.04    -0.269 OA 
DOCKED: ATOM     11  H   UNL     1     136.211  74.460 224.365 -0.33 -0.06    +0.164 HD 
DOCKED: BRANCH   9  12
DOCKED: ATOM     12  C   UNL     1     136.842  76.677 222.845 -0.23 -0.01    +0.039 A  
DOCKED: ATOM     13  C   UNL     1     138.064  76.010 222.645 -0.28 -0.00    +0.014 A  
DOCKED: ATOM     14  C   UNL     1     136.848  78.077 222.971 -0.15 -0.00    +0.014 A  
DOCKED: ATOM     15  C   UNL     1     139.264  76.723 222.594 -0.28 -0.00    +0.009 A  
DOCKED: ATOM     16  C   UNL     1     138.049  78.790 222.919 -0.25 -0.00    +0.009 A  
DOCKED: ATOM     17  C   UNL     1     139.271  78.122 222.734 -0.31 +0.00    -0.018 A  
DOCKED: BRANCH  17  18
DOCKED: ATOM     18  C   UNL     1     140.548  78.880 222.681 -0.41 +0.00    -0.018 A  
DOCKED: ATOM     19  C   UNL     1     141.006  79.429 221.468 -0.32 -0.00    +0.009 A  
DOCKED: ATOM     20  C   UNL     1     141.321  79.061 223.844 -0.59 -0.00    +0.009 A  
DOCKED: ATOM     21  C   UNL     1     142.208  80.140 221.421 -0.42 -0.00    +0.001 A  
DOCKED: ATOM     22  C   UNL     1     142.523  79.775 223.791 -0.59 -0.00    +0.001 A  
DOCKED: ATOM     23  C   UNL     1     142.965  80.314 222.582 -0.58 -0.00    +0.000 A  
DOCKED: ENDBRANCH  17  18
DOCKED: ENDBRANCH   9  12
DOCKED: ENDBRANCH   7   8
DOCKED: ENDBRANCH   1   7
DOCKED: BRANCH   5  24
DOCKED: ATOM     24  C   UNL     1     136.918  69.943 224.368 -0.25 +0.00    -0.018 A  
DOCKED: ATOM     25  C   UNL     1     137.325  69.867 223.023 -0.17 -0.00    +0.009 A  
DOCKED: ATOM     26  C   UNL     1     137.670  69.266 225.345 -0.29 -0.00    +0.013 A  
DOCKED: ATOM     27  C   UNL     1     138.455  69.129 222.665 -0.20 -0.00    +0.001 A  
DOCKED: ATOM     28  C   UNL     1     138.810  68.527 224.989 -0.39 +0.00    -0.034 A  
DOCKED: ATOM     29  C   UNL     1     139.195  68.459 223.641 -0.22 -0.00    +0.005 A  
DOCKED: BRANCH  28  30
DOCKED: ATOM     30  C   UNL     1     139.580  67.777 226.042 -0.53 -0.01    +0.117 C  
DOCKED: BRANCH  30  31
DOCKED: ATOM     31  N   UNL     1     139.751  68.592 227.255 -0.29 +0.05    -0.310 NA 
DOCKED: ATOM     32  H   UNL     1     138.979  69.299 227.244 +0.08 -0.01    +0.123 HD 
DOCKED: BRANCH  31  33
DOCKED: ATOM     33  C   UNL     1     141.069  69.272 227.299 -0.55 -0.01    +0.054 C  
DOCKED: ATOM     34  C   UNL     1     141.401  69.954 225.971 -0.51 -0.00    +0.019 C  
DOCKED: ATOM     35  C   UNL     1     141.024  70.431 228.299 -0.53 -0.00    +0.019 C  
DOCKED: ATOM     36  C   UNL     1     140.721  71.310 226.030 -0.64 -0.00    +0.002 C  
DOCKED: ATOM     37  C   UNL     1     140.657  71.684 227.506 -0.79 -0.00    +0.002 C  
DOCKED: ENDBRANCH  31  33
DOCKED: ENDBRANCH  30  31
DOCKED: ENDBRANCH  28  30
DOCKED: ENDBRANCH   5  24
DOCKED: TORSDOF 8
DOCKED: TER
DOCKED: ENDMDL
________________________________________________________________________________


    FINAL DOCKED STATE:
    ________________________


Run:   10 / 20
Time taken for this run:   0.061s

DOCKED: MODEL        10
DOCKED: USER    Run = 10
DOCKED: USER
DOCKED: USER    Estimated Free Energy of Binding    =  -8.06 kcal/mol  [=(1)+(2)+(3)-(4)]
DOCKED: USER
DOCKED: USER    (1) Final Intermolecular Energy     = -10.45 kcal/mol
DOCKED: USER        vdW + Hbond + desolv Energy     = -10.42 kcal/mol
DOCKED: USER        Electrostatic Energy            =  -0.03 kcal/mol
DOCKED: USER        Moving Ligand-Fixed Receptor    = -10.45 kcal/mol
DOCKED: USER        Moving Ligand-Moving Receptor   =  +0.00 kcal/mol
DOCKED: USER    (2) Final Total Internal Energy     =  -2.53 kcal/mol
DOCKED: USER    (3) Torsional Free Energy           =  +2.39 kcal/mol
DOCKED: USER    (4) Unbound System's Energy         =  -2.53 kcal/mol
DOCKED: USER
DOCKED: USER
DOCKED: REMARK SMILES O=C(NCc1cccc(-c2cccc(CNC3CCCC3)c2)c1)c1ccc(-c2ccccc2)cc1
DOCKED: REMARK SMILES IDX 5 1 6 2 7 3 8 4 9 5 23 6 4 7 3 8 2 9 1 10 24 12 25 13 35 14
DOCKED: REMARK SMILES IDX 26 15 34 16 27 17 28 18 29 19 33 20 30 21 32 22 31 23 10 24
DOCKED: REMARK SMILES IDX 11 25 22 26 12 27 14 28 13 29 15 30 16 31 17 33 18 34 21 35
DOCKED: REMARK SMILES IDX 19 36 20 37
DOCKED: REMARK H PARENT 3 11 16 32
DOCKED: USER                              x       y       z     vdW  Elec       q    Type
DOCKED: USER                           _______ _______ _______ _____ _____    ______ ____
DOCKED: ROOT
DOCKED: ATOM      1  C   UNL     1     139.972  74.391 221.342 -0.26 +0.00    -0.028 A  
DOCKED: ATOM      2  C   UNL     1     140.817  73.277 221.457 -0.28 -0.00    +0.005 A  
DOCKED: ATOM      3  C   UNL     1     142.070  73.282 220.839 -0.27 -0.00    +0.001 A  
DOCKED: ATOM      4  C   UNL     1     142.486  74.390 220.100 -0.27 -0.00    +0.009 A  
DOCKED: ATOM      5  C   UNL     1     141.650  75.513 219.966 -0.23 +0.01    -0.018 A  
DOCKED: ATOM      6  C   UNL     1     140.389  75.501 220.590 -0.20 -0.00    +0.014 A  
DOCKED: ENDROOT
DOCKED: BRANCH   1   7
DOCKED: ATOM      7  C   UNL     1     138.613  74.388 221.986 -0.13 -0.04    +0.152 C  
DOCKED: BRANCH   7   8
DOCKED: ATOM      8  N   UNL     1     138.402  75.634 222.718 -0.11 +0.10    -0.348 N  
DOCKED: ATOM      9  C   UNL     1     137.991  76.847 222.064 -0.17 -0.05    +0.251 C  
DOCKED: ATOM     10  O   UNL     1     137.885  76.872 220.807 -0.04 +0.06    -0.269 OA 
DOCKED: ATOM     11  H   UNL     1     138.680  75.653 223.724 -0.36 -0.05    +0.164 HD 
DOCKED: BRANCH   9  12
DOCKED: ATOM     12  C   UNL     1     137.701  78.078 222.841 -0.19 -0.01    +0.039 A  
DOCKED: ATOM     13  C   UNL     1     136.368  78.464 223.072 -0.17 -0.00    +0.014 A  
DOCKED: ATOM     14  C   UNL     1     138.736  78.863 223.380 -0.26 -0.00    +0.014 A  
DOCKED: ATOM     15  C   UNL     1     136.078  79.618 223.804 -0.17 -0.00    +0.009 A  
DOCKED: ATOM     16  C   UNL     1     138.445  80.017 224.114 -0.35 -0.00    +0.009 A  
DOCKED: ATOM     17  C   UNL     1     137.114  80.410 224.331 -0.28 +0.00    -0.018 A  
DOCKED: BRANCH  17  18
DOCKED: ATOM     18  C   UNL     1     136.805  81.637 225.109 -0.34 +0.00    -0.018 A  
DOCKED: ATOM     19  C   UNL     1     136.689  81.587 226.512 -0.46 -0.00    +0.009 A  
DOCKED: ATOM     20  C   UNL     1     136.623  82.872 224.456 -0.21 -0.00    +0.009 A  
DOCKED: ATOM     21  C   UNL     1     136.397  82.744 227.240 -0.43 -0.00    +0.001 A  
DOCKED: ATOM     22  C   UNL     1     136.332  84.026 225.191 -0.21 -0.00    +0.001 A  
DOCKED: ATOM     23  C   UNL     1     136.220  83.962 226.581 -0.32 -0.00    +0.000 A  
DOCKED: ENDBRANCH  17  18
DOCKED: ENDBRANCH   9  12
DOCKED: ENDBRANCH   7   8
DOCKED: ENDBRANCH   1   7
DOCKED: BRANCH   5  24
DOCKED: ATOM     24  C   UNL     1     142.094  76.695 219.182 -0.26 +0.01    -0.018 A  
DOCKED: ATOM     25  C   UNL     1     142.888  76.533 218.031 -0.28 -0.01    +0.009 A  
DOCKED: ATOM     26  C   UNL     1     141.724  77.994 219.575 -0.27 -0.01    +0.013 A  
DOCKED: ATOM     27  C   UNL     1     143.303  77.643 217.294 -0.17 -0.00    +0.001 A  
DOCKED: ATOM     28  C   UNL     1     142.136  79.113 218.833 -0.29 +0.02    -0.034 A  
DOCKED: ATOM     29  C   UNL     1     142.932  78.929 217.692 -0.25 -0.01    +0.005 A  
DOCKED: BRANCH  28  30
DOCKED: ATOM     30  C   UNL     1     141.764  80.497 219.290 -0.25 -0.06    +0.117 C  
DOCKED: BRANCH  30  31
DOCKED: ATOM     31  N   UNL     1     142.235  80.747 220.662 -0.09 +0.13    -0.310 NA 
DOCKED: ATOM     32  H   UNL     1     143.111  80.185 220.777 -0.30 -0.09    +0.123 HD 
DOCKED: BRANCH  31  33
DOCKED: ATOM     33  C   UNL     1     141.235  80.355 221.685 -0.37 -0.02    +0.054 C  
DOCKED: ATOM     34  C   UNL     1     141.735  79.199 222.554 -0.53 -0.01    +0.019 C  
DOCKED: ATOM     35  C   UNL     1     141.035  81.497 222.683 -0.43 -0.00    +0.019 C  
DOCKED: ATOM     36  C   UNL     1     142.570  79.844 223.645 -0.61 -0.00    +0.002 C  
DOCKED: ATOM     37  C   UNL     1     141.992  81.241 223.846 -0.62 -0.00    +0.002 C  
DOCKED: ENDBRANCH  31  33
DOCKED: ENDBRANCH  30  31
DOCKED: ENDBRANCH  28  30
DOCKED: ENDBRANCH   5  24
DOCKED: TORSDOF 8
DOCKED: TER
DOCKED: ENDMDL
________________________________________________________________________________


    FINAL DOCKED STATE:
    ________________________


Run:   11 / 20
Time taken for this run:   0.061s

DOCKED: MODEL        11
DOCKED: USER    Run = 11
DOCKED: USER
DOCKED: USER    Estimated Free Energy of Binding    =  -8.66 kcal/mol  [=(1)+(2)+(3)-(4)]
DOCKED: USER
DOCKED: USER    (1) Final Intermolecular Energy     = -11.04 kcal/mol
DOCKED: USER        vdW + Hbond + desolv Energy     = -11.01 kcal/mol
DOCKED: USER        Electrostatic Energy            =  -0.03 kcal/mol
DOCKED: USER        Moving Ligand-Fixed Receptor    = -11.04 kcal/mol
DOCKED: USER        Moving Ligand-Moving Receptor   =  +0.00 kcal/mol
DOCKED: USER    (2) Final Total Internal Energy     =  -1.93 kcal/mol
DOCKED: USER    (3) Torsional Free Energy           =  +2.39 kcal/mol
DOCKED: USER    (4) Unbound System's Energy         =  -1.93 kcal/mol
DOCKED: USER
DOCKED: USER
DOCKED: REMARK SMILES O=C(NCc1cccc(-c2cccc(CNC3CCCC3)c2)c1)c1ccc(-c2ccccc2)cc1
DOCKED: REMARK SMILES IDX 5 1 6 2 7 3 8 4 9 5 23 6 4 7 3 8 2 9 1 10 24 12 25 13 35 14
DOCKED: REMARK SMILES IDX 26 15 34 16 27 17 28 18 29 19 33 20 30 21 32 22 31 23 10 24
DOCKED: REMARK SMILES IDX 11 25 22 26 12 27 14 28 13 29 15 30 16 31 17 33 18 34 21 35
DOCKED: REMARK SMILES IDX 19 36 20 37
DOCKED: REMARK H PARENT 3 11 16 32
DOCKED: USER                              x       y       z     vdW  Elec       q    Type
DOCKED: USER                           _______ _______ _______ _____ _____    ______ ____
DOCKED: ROOT
DOCKED: ATOM      1  C   UNL     1     140.517  74.623 221.436 -0.30 +0.00    -0.028 A  
DOCKED: ATOM      2  C   UNL     1     141.809  74.692 220.894 -0.30 -0.00    +0.005 A  
DOCKED: ATOM      3  C   UNL     1     142.526  73.520 220.640 -0.28 -0.00    +0.001 A  
DOCKED: ATOM      4  C   UNL     1     141.964  72.276 220.930 -0.24 -0.00    +0.009 A  
DOCKED: ATOM      5  C   UNL     1     140.674  72.185 221.482 -0.24 +0.00    -0.018 A  
DOCKED: ATOM      6  C   UNL     1     139.959  73.370 221.736 -0.28 -0.00    +0.014 A  
DOCKED: ENDROOT
DOCKED: BRANCH   1   7
DOCKED: ATOM      7  C   UNL     1     139.745  75.880 221.732 -0.27 -0.03    +0.152 C  
DOCKED: BRANCH   7   8
DOCKED: ATOM      8  N   UNL     1     138.676  75.599 222.685 -0.11 +0.09    -0.348 N  
DOCKED: ATOM      9  C   UNL     1     137.352  75.228 222.265 -0.13 -0.07    +0.251 C  
DOCKED: ATOM     10  O   UNL     1     137.068  75.221 221.036 -0.05 +0.06    -0.269 OA 
DOCKED: ATOM     11  H   UNL     1     138.866  75.797 223.693 -0.31 -0.04    +0.164 HD 
DOCKED: BRANCH   9  12
DOCKED: ATOM     12  C   UNL     1     136.306  74.864 223.253 -0.12 -0.01    +0.039 A  
DOCKED: ATOM     13  C   UNL     1     135.843  73.538 223.329 -0.19 -0.00    +0.014 A  
DOCKED: ATOM     14  C   UNL     1     135.778  75.817 224.143 -0.27 -0.00    +0.014 A  
DOCKED: ATOM     15  C   UNL     1     134.861  73.179 224.257 -0.22 -0.00    +0.009 A  
DOCKED: ATOM     16  C   UNL     1     134.797  75.457 225.071 -0.36 -0.00    +0.009 A  
DOCKED: ATOM     17  C   UNL     1     134.324  74.135 225.136 -0.30 +0.00    -0.018 A  
DOCKED: BRANCH  17  18
DOCKED: ATOM     18  C   UNL     1     133.280  73.753 226.122 -0.32 +0.00    -0.018 A  
DOCKED: ATOM     19  C   UNL     1     132.847  72.417 226.225 -0.31 -0.00    +0.009 A  
DOCKED: ATOM     20  C   UNL     1     132.706  74.721 226.968 -0.38 +0.00    +0.009 A  
DOCKED: ATOM     21  C   UNL     1     131.863  72.061 227.152 -0.38 -0.00    +0.001 A  
DOCKED: ATOM     22  C   UNL     1     131.723  74.359 227.894 -0.39 -0.00    +0.001 A  
DOCKED: ATOM     23  C   UNL     1     131.303  73.031 227.987 -0.34 -0.00    +0.000 A  
DOCKED: ENDBRANCH  17  18
DOCKED: ENDBRANCH   9  12
DOCKED: ENDBRANCH   7   8
DOCKED: ENDBRANCH   1   7
DOCKED: BRANCH   5  24
DOCKED: ATOM     24  C   UNL     1     140.075  70.860 221.788 -0.17 +0.00    -0.018 A  
DOCKED: ATOM     25  C   UNL     1     140.126  69.818 220.844 -0.11 -0.00    +0.009 A  
DOCKED: ATOM     26  C   UNL     1     139.452  70.626 223.027 -0.27 -0.00    +0.013 A  
DOCKED: ATOM     27  C   UNL     1     139.564  68.573 221.133 -0.15 -0.00    +0.001 A  
DOCKED: ATOM     28  C   UNL     1     138.891  69.373 223.322 -0.24 +0.01    -0.034 A  
DOCKED: ATOM     29  C   UNL     1     138.947  68.349 222.365 -0.20 -0.00    +0.005 A  
DOCKED: BRANCH  28  30
DOCKED: ATOM     30  C   UNL     1     138.193  69.152 224.638 -0.29 -0.01    +0.117 C  
DOCKED: BRANCH  30  31
DOCKED: ATOM     31  N   UNL     1     138.920  68.178 225.466 -0.56 +0.01    -0.310 NA 
DOCKED: ATOM     32  H   UNL     1     138.356  68.058 226.340 +0.07 -0.00    +0.123 HD 
DOCKED: BRANCH  31  33
DOCKED: ATOM     33  C   UNL     1     140.293  68.629 225.800 -0.47 -0.01    +0.054 C  
DOCKED: ATOM     34  C   UNL     1     140.300  70.043 226.385 -0.55 -0.00    +0.019 C  
DOCKED: ATOM     35  C   UNL     1     140.866  67.767 226.928 -0.66 -0.00    +0.019 C  
DOCKED: ATOM     36  C   UNL     1     140.018  69.869 227.866 -0.64 -0.00    +0.002 C  
DOCKED: ATOM     37  C   UNL     1     140.553  68.490 228.237 -0.67 -0.00    +0.002 C  
DOCKED: ENDBRANCH  31  33
DOCKED: ENDBRANCH  30  31
DOCKED: ENDBRANCH  28  30
DOCKED: ENDBRANCH   5  24
DOCKED: TORSDOF 8
DOCKED: TER
DOCKED: ENDMDL
________________________________________________________________________________


    FINAL DOCKED STATE:
    ________________________


Run:   12 / 20
Time taken for this run:   0.061s

DOCKED: MODEL        12
DOCKED: USER    Run = 12
DOCKED: USER
DOCKED: USER    Estimated Free Energy of Binding    =  -7.95 kcal/mol  [=(1)+(2)+(3)-(4)]
DOCKED: USER
DOCKED: USER    (1) Final Intermolecular Energy     = -10.33 kcal/mol
DOCKED: USER        vdW + Hbond + desolv Energy     = -10.31 kcal/mol
DOCKED: USER        Electrostatic Energy            =  -0.02 kcal/mol
DOCKED: USER        Moving Ligand-Fixed Receptor    = -10.33 kcal/mol
DOCKED: USER        Moving Ligand-Moving Receptor   =  +0.00 kcal/mol
DOCKED: USER    (2) Final Total Internal Energy     =  -2.71 kcal/mol
DOCKED: USER    (3) Torsional Free Energy           =  +2.39 kcal/mol
DOCKED: USER    (4) Unbound System's Energy         =  -2.71 kcal/mol
DOCKED: USER
DOCKED: USER
DOCKED: REMARK SMILES O=C(NCc1cccc(-c2cccc(CNC3CCCC3)c2)c1)c1ccc(-c2ccccc2)cc1
DOCKED: REMARK SMILES IDX 5 1 6 2 7 3 8 4 9 5 23 6 4 7 3 8 2 9 1 10 24 12 25 13 35 14
DOCKED: REMARK SMILES IDX 26 15 34 16 27 17 28 18 29 19 33 20 30 21 32 22 31 23 10 24
DOCKED: REMARK SMILES IDX 11 25 22 26 12 27 14 28 13 29 15 30 16 31 17 33 18 34 21 35
DOCKED: REMARK SMILES IDX 19 36 20 37
DOCKED: REMARK H PARENT 3 11 16 32
DOCKED: USER                              x       y       z     vdW  Elec       q    Type
DOCKED: USER                           _______ _______ _______ _____ _____    ______ ____
DOCKED: ROOT
DOCKED: ATOM      1  C   UNL     1     142.934  76.358 219.084 -0.34 +0.02    -0.028 A  
DOCKED: ATOM      2  C   UNL     1     143.288  75.970 217.783 -0.25 -0.00    +0.005 A  
DOCKED: ATOM      3  C   UNL     1     143.294  76.908 216.748 -0.25 -0.00    +0.001 A  
DOCKED: ATOM      4  C   UNL     1     142.943  78.236 217.001 -0.22 -0.01    +0.009 A  
DOCKED: ATOM      5  C   UNL     1     142.578  78.644 218.296 -0.32 +0.02    -0.018 A  
DOCKED: ATOM      6  C   UNL     1     142.573  77.692 219.332 -0.26 -0.01    +0.014 A  
DOCKED: ENDROOT
DOCKED: BRANCH   1   7
DOCKED: ATOM      7  C   UNL     1     142.905  75.351 220.200 -0.21 -0.08    +0.152 C  
DOCKED: BRANCH   7   8
DOCKED: ATOM      8  N   UNL     1     141.728  75.564 221.037 -0.13 +0.15    -0.348 N  
DOCKED: ATOM      9  C   UNL     1     140.390  75.447 220.524 -0.13 -0.07    +0.251 C  
DOCKED: ATOM     10  O   UNL     1     140.212  75.234 219.293 -0.03 +0.07    -0.269 OA 
DOCKED: ATOM     11  H   UNL     1     141.885  75.931 222.002 -0.51 -0.09    +0.164 HD 
DOCKED: BRANCH   9  12
DOCKED: ATOM     12  C   UNL     1     139.210  75.585 221.414 -0.23 -0.01    +0.039 A  
DOCKED: ATOM     13  C   UNL     1     139.031  76.761 222.164 -0.31 -0.00    +0.014 A  
DOCKED: ATOM     14  C   UNL     1     138.243  74.569 221.508 -0.18 -0.00    +0.014 A  
DOCKED: ATOM     15  C   UNL     1     137.924  76.908 223.004 -0.23 -0.00    +0.009 A  
DOCKED: ATOM     16  C   UNL     1     137.135  74.717 222.348 -0.17 -0.00    +0.009 A  
DOCKED: ATOM     17  C   UNL     1     136.965  75.887 223.108 -0.25 +0.00    -0.018 A  
DOCKED: BRANCH  17  18
DOCKED: ATOM     18  C   UNL     1     135.788  76.043 224.002 -0.23 +0.00    -0.018 A  
DOCKED: ATOM     19  C   UNL     1     135.489  75.065 224.970 -0.37 -0.00    +0.009 A  
DOCKED: ATOM     20  C   UNL     1     134.953  77.173 223.895 -0.17 -0.00    +0.009 A  
DOCKED: ATOM     21  C   UNL     1     134.380  75.215 225.808 -0.41 -0.00    +0.001 A  
DOCKED: ATOM     22  C   UNL     1     133.847  77.317 224.737 -0.18 -0.00    +0.001 A  
DOCKED: ATOM     23  C   UNL     1     133.561  76.341 225.693 -0.28 -0.00    +0.000 A  
DOCKED: ENDBRANCH  17  18
DOCKED: ENDBRANCH   9  12
DOCKED: ENDBRANCH   7   8
DOCKED: ENDBRANCH   1   7
DOCKED: BRANCH   5  24
DOCKED: ATOM     24  C   UNL     1     142.208  80.057 218.565 -0.32 +0.01    -0.018 A  
DOCKED: ATOM     25  C   UNL     1     142.556  81.073 217.656 -0.33 -0.01    +0.009 A  
DOCKED: ATOM     26  C   UNL     1     141.500  80.401 219.732 -0.28 -0.01    +0.013 A  
DOCKED: ATOM     27  C   UNL     1     142.206  82.401 217.910 -0.27 -0.00    +0.001 A  
DOCKED: ATOM     28  C   UNL     1     141.143  81.735 219.987 -0.26 +0.01    -0.034 A  
DOCKED: ATOM     29  C   UNL     1     141.504  82.734 219.070 -0.21 -0.00    +0.005 A  
DOCKED: BRANCH  28  30
DOCKED: ATOM     30  C   UNL     1     140.420  82.090 221.258 -0.25 -0.02    +0.117 C  
DOCKED: BRANCH  30  31
DOCKED: ATOM     31  N   UNL     1     139.995  80.881 221.982 -0.10 +0.06    -0.310 NA 
DOCKED: ATOM     32  H   UNL     1     138.957  80.957 222.093 +0.05 -0.02    +0.123 HD 
DOCKED: BRANCH  31  33
DOCKED: ATOM     33  C   UNL     1     140.646  80.757 223.309 -0.44 -0.01    +0.054 C  
DOCKED: ATOM     34  C   UNL     1     140.625  79.315 223.819 -0.48 -0.00    +0.019 C  
DOCKED: ATOM     35  C   UNL     1     142.138  81.077 223.190 -0.59 -0.00    +0.019 C  
DOCKED: ATOM     36  C   UNL     1     141.830  78.644 223.186 -0.56 -0.00    +0.002 C  
DOCKED: ATOM     37  C   UNL     1     142.857  79.748 222.963 -0.61 -0.00    +0.002 C  
DOCKED: ENDBRANCH  31  33
DOCKED: ENDBRANCH  30  31
DOCKED: ENDBRANCH  28  30
DOCKED: ENDBRANCH   5  24
DOCKED: TORSDOF 8
DOCKED: TER
DOCKED: ENDMDL
________________________________________________________________________________


    FINAL DOCKED STATE:
    ________________________


Run:   13 / 20
Time taken for this run:   0.061s

DOCKED: MODEL        13
DOCKED: USER    Run = 13
DOCKED: USER
DOCKED: USER    Estimated Free Energy of Binding    =  -8.94 kcal/mol  [=(1)+(2)+(3)-(4)]
DOCKED: USER
DOCKED: USER    (1) Final Intermolecular Energy     = -11.32 kcal/mol
DOCKED: USER        vdW + Hbond + desolv Energy     = -11.34 kcal/mol
DOCKED: USER        Electrostatic Energy            =  +0.01 kcal/mol
DOCKED: USER        Moving Ligand-Fixed Receptor    = -11.32 kcal/mol
DOCKED: USER        Moving Ligand-Moving Receptor   =  +0.00 kcal/mol
DOCKED: USER    (2) Final Total Internal Energy     =  -1.86 kcal/mol
DOCKED: USER    (3) Torsional Free Energy           =  +2.39 kcal/mol
DOCKED: USER    (4) Unbound System's Energy         =  -1.86 kcal/mol
DOCKED: USER
DOCKED: USER
DOCKED: REMARK SMILES O=C(NCc1cccc(-c2cccc(CNC3CCCC3)c2)c1)c1ccc(-c2ccccc2)cc1
DOCKED: REMARK SMILES IDX 5 1 6 2 7 3 8 4 9 5 23 6 4 7 3 8 2 9 1 10 24 12 25 13 35 14
DOCKED: REMARK SMILES IDX 26 15 34 16 27 17 28 18 29 19 33 20 30 21 32 22 31 23 10 24
DOCKED: REMARK SMILES IDX 11 25 22 26 12 27 14 28 13 29 15 30 16 31 17 33 18 34 21 35
DOCKED: REMARK SMILES IDX 19 36 20 37
DOCKED: REMARK H PARENT 3 11 16 32
DOCKED: USER                              x       y       z     vdW  Elec       q    Type
DOCKED: USER                           _______ _______ _______ _____ _____    ______ ____
DOCKED: ROOT
DOCKED: ATOM      1  C   UNL     1     134.098  73.375 224.702 -0.21 +0.00    -0.028 A  
DOCKED: ATOM      2  C   UNL     1     133.252  72.816 225.672 -0.26 -0.00    +0.005 A  
DOCKED: ATOM      3  C   UNL     1     133.491  71.525 226.149 -0.33 -0.00    +0.001 A  
DOCKED: ATOM      4  C   UNL     1     134.567  70.782 225.660 -0.24 -0.00    +0.009 A  
DOCKED: ATOM      5  C   UNL     1     135.421  71.322 224.682 -0.14 +0.00    -0.018 A  
DOCKED: ATOM      6  C   UNL     1     135.174  72.622 224.205 -0.21 -0.00    +0.014 A  
DOCKED: ENDROOT
DOCKED: BRANCH   1   7
DOCKED: ATOM      7  C   UNL     1     133.837  74.757 224.167 -0.13 -0.02    +0.152 C  
DOCKED: BRANCH   7   8
DOCKED: ATOM      8  N   UNL     1     135.081  75.519 224.118 -0.14 +0.05    -0.348 N  
DOCKED: ATOM      9  C   UNL     1     135.861  75.637 222.916 -0.15 -0.05    +0.251 C  
DOCKED: ATOM     10  O   UNL     1     135.515  74.999 221.884 -0.04 +0.05    -0.269 OA 
DOCKED: ATOM     11  H   UNL     1     135.460  75.879 225.022 +0.04 -0.02    +0.164 HD 
DOCKED: BRANCH   9  12
DOCKED: ATOM     12  C   UNL     1     137.077  76.487 222.869 -0.25 -0.01    +0.039 A  
DOCKED: ATOM     13  C   UNL     1     138.331  75.903 222.611 -0.26 -0.00    +0.014 A  
DOCKED: ATOM     14  C   UNL     1     137.004  77.879 223.053 -0.13 -0.00    +0.014 A  
DOCKED: ATOM     15  C   UNL     1     139.485  76.690 222.560 -0.29 -0.00    +0.009 A  
DOCKED: ATOM     16  C   UNL     1     138.158  78.665 223.001 -0.25 -0.00    +0.009 A  
DOCKED: ATOM     17  C   UNL     1     139.412  78.080 222.758 -0.31 +0.00    -0.018 A  
DOCKED: BRANCH  17  18
DOCKED: ATOM     18  C   UNL     1     140.640  78.915 222.705 -0.42 +0.00    -0.018 A  
DOCKED: ATOM     19  C   UNL     1     141.043  79.521 221.499 -0.33 -0.00    +0.009 A  
DOCKED: ATOM     20  C   UNL     1     141.420  79.115 223.860 -0.60 -0.00    +0.009 A  
DOCKED: ATOM     21  C   UNL     1     142.199  80.306 221.453 -0.43 -0.00    +0.001 A  
DOCKED: ATOM     22  C   UNL     1     142.575  79.902 223.807 -0.61 -0.00    +0.001 A  
DOCKED: ATOM     23  C   UNL     1     142.963  80.497 222.606 -0.58 -0.00    +0.000 A  
DOCKED: ENDBRANCH  17  18
DOCKED: ENDBRANCH   9  12
DOCKED: ENDBRANCH   7   8
DOCKED: ENDBRANCH   1   7
DOCKED: BRANCH   5  24
DOCKED: ATOM     24  C   UNL     1     136.569  70.533 224.164 -0.22 +0.00    -0.018 A  
DOCKED: ATOM     25  C   UNL     1     136.363  69.273 223.573 -0.19 -0.00    +0.009 A  
DOCKED: ATOM     26  C   UNL     1     137.881  71.036 224.254 -0.21 -0.00    +0.013 A  
DOCKED: ATOM     27  C   UNL     1     137.442  68.533 223.085 -0.20 -0.00    +0.001 A  
DOCKED: ATOM     28  C   UNL     1     138.967  70.296 223.760 -0.29 +0.01    -0.034 A  
DOCKED: ATOM     29  C   UNL     1     138.740  69.040 223.179 -0.25 -0.00    +0.005 A  
DOCKED: BRANCH  28  30
DOCKED: ATOM     30  C   UNL     1     140.367  70.832 223.899 -0.26 -0.02    +0.117 C  
DOCKED: BRANCH  30  31
DOCKED: ATOM     31  N   UNL     1     140.470  71.755 225.040 -0.24 +0.05    -0.310 NA 
DOCKED: ATOM     32  H   UNL     1     140.783  72.673 224.645 +0.06 -0.01    +0.123 HD 
DOCKED: BRANCH  31  33
DOCKED: ATOM     33  C   UNL     1     141.432  71.283 226.066 -0.58 -0.01    +0.054 C  
DOCKED: ATOM     34  C   UNL     1     141.470  72.214 227.280 -0.75 -0.00    +0.019 C  
DOCKED: ATOM     35  C   UNL     1     140.960  69.949 226.648 -0.57 -0.00    +0.019 C  
DOCKED: ATOM     36  C   UNL     1     140.327  71.764 228.171 -0.73 -0.00    +0.002 C  
DOCKED: ATOM     37  C   UNL     1     140.138  70.277 227.893 -0.65 -0.00    +0.002 C  
DOCKED: ENDBRANCH  31  33
DOCKED: ENDBRANCH  30  31
DOCKED: ENDBRANCH  28  30
DOCKED: ENDBRANCH   5  24
DOCKED: TORSDOF 8
DOCKED: TER
DOCKED: ENDMDL
________________________________________________________________________________


    FINAL DOCKED STATE:
    ________________________


Run:   14 / 20
Time taken for this run:   0.061s

DOCKED: MODEL        14
DOCKED: USER    Run = 14
DOCKED: USER
DOCKED: USER    Estimated Free Energy of Binding    =  -9.48 kcal/mol  [=(1)+(2)+(3)-(4)]
DOCKED: USER
DOCKED: USER    (1) Final Intermolecular Energy     = -11.87 kcal/mol
DOCKED: USER        vdW + Hbond + desolv Energy     = -11.85 kcal/mol
DOCKED: USER        Electrostatic Energy            =  -0.02 kcal/mol
DOCKED: USER        Moving Ligand-Fixed Receptor    = -11.87 kcal/mol
DOCKED: USER        Moving Ligand-Moving Receptor   =  +0.00 kcal/mol
DOCKED: USER    (2) Final Total Internal Energy     =  -1.86 kcal/mol
DOCKED: USER    (3) Torsional Free Energy           =  +2.39 kcal/mol
DOCKED: USER    (4) Unbound System's Energy         =  -1.86 kcal/mol
DOCKED: USER
DOCKED: USER
DOCKED: REMARK SMILES O=C(NCc1cccc(-c2cccc(CNC3CCCC3)c2)c1)c1ccc(-c2ccccc2)cc1
DOCKED: REMARK SMILES IDX 5 1 6 2 7 3 8 4 9 5 23 6 4 7 3 8 2 9 1 10 24 12 25 13 35 14
DOCKED: REMARK SMILES IDX 26 15 34 16 27 17 28 18 29 19 33 20 30 21 32 22 31 23 10 24
DOCKED: REMARK SMILES IDX 11 25 22 26 12 27 14 28 13 29 15 30 16 31 17 33 18 34 21 35
DOCKED: REMARK SMILES IDX 19 36 20 37
DOCKED: REMARK H PARENT 3 11 16 32
DOCKED: USER                              x       y       z     vdW  Elec       q    Type
DOCKED: USER                           _______ _______ _______ _____ _____    ______ ____
DOCKED: ROOT
DOCKED: ATOM      1  C   UNL     1     140.365  75.461 220.255 -0.16 +0.01    -0.028 A  
DOCKED: ATOM      2  C   UNL     1     141.500  74.636 220.274 -0.23 -0.00    +0.005 A  
DOCKED: ATOM      3  C   UNL     1     142.749  75.154 219.925 -0.33 -0.00    +0.001 A  
DOCKED: ATOM      4  C   UNL     1     142.875  76.493 219.549 -0.37 -0.01    +0.009 A  
DOCKED: ATOM      5  C   UNL     1     141.749  77.334 219.515 -0.26 +0.01    -0.018 A  
DOCKED: ATOM      6  C   UNL     1     140.494  76.804 219.867 -0.14 -0.00    +0.014 A  
DOCKED: ENDROOT
DOCKED: BRANCH   1   7
DOCKED: ATOM      7  C   UNL     1     139.013  74.907 220.610 -0.10 -0.03    +0.152 C  
DOCKED: BRANCH   7   8
DOCKED: ATOM      8  N   UNL     1     139.105  74.098 221.822 -0.13 +0.08    -0.348 N  
DOCKED: ATOM      9  C   UNL     1     139.315  72.676 221.781 -0.15 -0.05    +0.251 C  
DOCKED: ATOM     10  O   UNL     1     139.341  72.082 220.668 -0.05 +0.05    -0.269 OA 
DOCKED: ATOM     11  H   UNL     1     138.888  74.566 222.730 -0.53 -0.06    +0.164 HD 
DOCKED: BRANCH   9  12
DOCKED: ATOM     12  C   UNL     1     139.491  71.889 223.027 -0.30 -0.01    +0.039 A  
DOCKED: ATOM     13  C   UNL     1     140.715  71.933 223.719 -0.27 -0.00    +0.014 A  
DOCKED: ATOM     14  C   UNL     1     138.444  71.111 223.554 -0.27 -0.00    +0.014 A  
DOCKED: ATOM     15  C   UNL     1     140.894  71.201 224.895 -0.49 -0.00    +0.009 A  
DOCKED: ATOM     16  C   UNL     1     138.624  70.380 224.731 -0.32 -0.00    +0.009 A  
DOCKED: ATOM     17  C   UNL     1     139.852  70.413 225.414 -0.47 +0.00    -0.018 A  
DOCKED: BRANCH  17  18
DOCKED: ATOM     18  C   UNL     1     140.044  69.634 226.664 -0.53 +0.00    -0.018 A  
DOCKED: ATOM     19  C   UNL     1     139.363  69.993 227.844 -0.48 -0.00    +0.009 A  
DOCKED: ATOM     20  C   UNL     1     140.910  68.524 226.690 -0.61 -0.00    +0.009 A  
DOCKED: ATOM     21  C   UNL     1     139.548  69.259 229.019 -0.26 -0.00    +0.001 A  
DOCKED: ATOM     22  C   UNL     1     141.089  67.793 227.868 -0.56 -0.00    +0.001 A  
DOCKED: ATOM     23  C   UNL     1     140.408  68.159 229.031 -0.43 -0.00    +0.000 A  
DOCKED: ENDBRANCH  17  18
DOCKED: ENDBRANCH   9  12
DOCKED: ENDBRANCH   7   8
DOCKED: ENDBRANCH   1   7
DOCKED: BRANCH   5  24
DOCKED: ATOM     24  C   UNL     1     141.883  78.759 219.118 -0.27 +0.01    -0.018 A  
DOCKED: ATOM     25  C   UNL     1     142.391  79.105 217.852 -0.31 -0.01    +0.009 A  
DOCKED: ATOM     26  C   UNL     1     141.501  79.786 220.001 -0.28 -0.01    +0.013 A  
DOCKED: ATOM     27  C   UNL     1     142.516  80.444 217.479 -0.29 -0.00    +0.001 A  
DOCKED: ATOM     28  C   UNL     1     141.620  81.135 219.627 -0.27 +0.01    -0.034 A  
DOCKED: ATOM     29  C   UNL     1     142.134  81.457 218.362 -0.29 -0.00    +0.005 A  
DOCKED: BRANCH  28  30
DOCKED: ATOM     30  C   UNL     1     141.243  82.221 220.598 -0.25 -0.03    +0.117 C  
DOCKED: BRANCH  30  31
DOCKED: ATOM     31  N   UNL     1     140.310  81.718 221.619 -0.13 +0.06    -0.310 NA 
DOCKED: ATOM     32  H   UNL     1     139.523  82.408 221.660 +0.03 -0.02    +0.123 HD 
DOCKED: BRANCH  31  33
DOCKED: ATOM     33  C   UNL     1     140.945  81.585 222.952 -0.33 -0.01    +0.054 C  
DOCKED: ATOM     34  C   UNL     1     140.231  80.547 223.820 -0.37 -0.00    +0.019 C  
DOCKED: ATOM     35  C   UNL     1     142.360  81.019 222.801 -0.52 -0.00    +0.019 C  
DOCKED: ATOM     36  C   UNL     1     140.827  79.208 223.423 -0.53 -0.00    +0.002 C  
DOCKED: ATOM     37  C   UNL     1     142.246  79.503 222.952 -0.62 -0.00    +0.002 C  
DOCKED: ENDBRANCH  31  33
DOCKED: ENDBRANCH  30  31
DOCKED: ENDBRANCH  28  30
DOCKED: ENDBRANCH   5  24
DOCKED: TORSDOF 8
DOCKED: TER
DOCKED: ENDMDL
________________________________________________________________________________


    FINAL DOCKED STATE:
    ________________________


Run:   15 / 20
Time taken for this run:   0.061s

DOCKED: MODEL        15
DOCKED: USER    Run = 15
DOCKED: USER
DOCKED: USER    Estimated Free Energy of Binding    =  -8.75 kcal/mol  [=(1)+(2)+(3)-(4)]
DOCKED: USER
DOCKED: USER    (1) Final Intermolecular Energy     = -11.13 kcal/mol
DOCKED: USER        vdW + Hbond + desolv Energy     = -11.14 kcal/mol
DOCKED: USER        Electrostatic Energy            =  +0.01 kcal/mol
DOCKED: USER        Moving Ligand-Fixed Receptor    = -11.13 kcal/mol
DOCKED: USER        Moving Ligand-Moving Receptor   =  +0.00 kcal/mol
DOCKED: USER    (2) Final Total Internal Energy     =  -1.95 kcal/mol
DOCKED: USER    (3) Torsional Free Energy           =  +2.39 kcal/mol
DOCKED: USER    (4) Unbound System's Energy         =  -1.95 kcal/mol
DOCKED: USER
DOCKED: USER
DOCKED: REMARK SMILES O=C(NCc1cccc(-c2cccc(CNC3CCCC3)c2)c1)c1ccc(-c2ccccc2)cc1
DOCKED: REMARK SMILES IDX 5 1 6 2 7 3 8 4 9 5 23 6 4 7 3 8 2 9 1 10 24 12 25 13 35 14
DOCKED: REMARK SMILES IDX 26 15 34 16 27 17 28 18 29 19 33 20 30 21 32 22 31 23 10 24
DOCKED: REMARK SMILES IDX 11 25 22 26 12 27 14 28 13 29 15 30 16 31 17 33 18 34 21 35
DOCKED: REMARK SMILES IDX 19 36 20 37
DOCKED: REMARK H PARENT 3 11 16 32
DOCKED: USER                              x       y       z     vdW  Elec       q    Type
DOCKED: USER                           _______ _______ _______ _____ _____    ______ ____
DOCKED: ROOT
DOCKED: ATOM      1  C   UNL     1     134.229  73.170 224.615 -0.21 +0.00    -0.028 A  
DOCKED: ATOM      2  C   UNL     1     133.323  72.502 225.453 -0.23 -0.00    +0.005 A  
DOCKED: ATOM      3  C   UNL     1     133.582  71.192 225.862 -0.29 -0.00    +0.001 A  
DOCKED: ATOM      4  C   UNL     1     134.738  70.537 225.434 -0.23 -0.00    +0.009 A  
DOCKED: ATOM      5  C   UNL     1     135.654  71.185 224.587 -0.15 +0.00    -0.018 A  
DOCKED: ATOM      6  C   UNL     1     135.386  72.505 224.179 -0.21 -0.00    +0.014 A  
DOCKED: ENDROOT
DOCKED: BRANCH   1   7
DOCKED: ATOM      7  C   UNL     1     133.949  74.574 224.153 -0.13 -0.02    +0.152 C  
DOCKED: BRANCH   7   8
DOCKED: ATOM      8  N   UNL     1     135.192  75.337 224.090 -0.14 +0.06    -0.348 N  
DOCKED: ATOM      9  C   UNL     1     135.956  75.461 222.878 -0.15 -0.06    +0.251 C  
DOCKED: ATOM     10  O   UNL     1     135.596  74.826 221.849 -0.05 +0.05    -0.269 OA 
DOCKED: ATOM     11  H   UNL     1     135.582  75.695 224.990 +0.03 -0.02    +0.164 HD 
DOCKED: BRANCH   9  12
DOCKED: ATOM     12  C   UNL     1     137.170  76.312 222.818 -0.26 -0.01    +0.039 A  
DOCKED: ATOM     13  C   UNL     1     137.075  77.689 223.089 -0.12 -0.00    +0.014 A  
DOCKED: ATOM     14  C   UNL     1     138.431  75.767 222.518 -0.24 -0.00    +0.014 A  
DOCKED: ATOM     15  C   UNL     1     138.210  78.503 223.041 -0.24 -0.00    +0.009 A  
DOCKED: ATOM     16  C   UNL     1     139.565  76.582 222.470 -0.32 -0.00    +0.009 A  
DOCKED: ATOM     17  C   UNL     1     139.468  77.960 222.728 -0.32 +0.00    -0.018 A  
DOCKED: BRANCH  17  18
DOCKED: ATOM     18  C   UNL     1     140.673  78.826 222.675 -0.42 +0.01    -0.018 A  
DOCKED: ATOM     19  C   UNL     1     141.068  79.432 221.467 -0.33 -0.00    +0.009 A  
DOCKED: ATOM     20  C   UNL     1     141.441  79.056 223.834 -0.61 -0.00    +0.009 A  
DOCKED: ATOM     21  C   UNL     1     142.204  80.246 221.420 -0.42 -0.00    +0.001 A  
DOCKED: ATOM     22  C   UNL     1     142.575  79.872 223.781 -0.61 -0.00    +0.001 A  
DOCKED: ATOM     23  C   UNL     1     142.956  80.467 222.576 -0.58 -0.00    +0.000 A  
DOCKED: ENDBRANCH  17  18
DOCKED: ENDBRANCH   9  12
DOCKED: ENDBRANCH   7   8
DOCKED: ENDBRANCH   1   7
DOCKED: BRANCH   5  24
DOCKED: ATOM     24  C   UNL     1     136.887  70.490 224.135 -0.22 +0.00    -0.018 A  
DOCKED: ATOM     25  C   UNL     1     136.807  69.255 223.466 -0.19 -0.00    +0.009 A  
DOCKED: ATOM     26  C   UNL     1     138.154  71.058 224.365 -0.19 -0.00    +0.013 A  
DOCKED: ATOM     27  C   UNL     1     137.965  68.602 223.040 -0.23 -0.00    +0.001 A  
DOCKED: ATOM     28  C   UNL     1     139.321  70.407 223.933 -0.32 +0.01    -0.034 A  
DOCKED: ATOM     29  C   UNL     1     139.218  69.173 223.273 -0.23 -0.00    +0.005 A  
DOCKED: BRANCH  28  30
DOCKED: ATOM     30  C   UNL     1     140.669  71.010 224.222 -0.30 -0.01    +0.117 C  
DOCKED: BRANCH  30  31
DOCKED: ATOM     31  N   UNL     1     140.680  71.682 225.531 -0.29 +0.05    -0.310 NA 
DOCKED: ATOM     32  H   UNL     1     141.122  72.618 225.375 +0.08 -0.02    +0.123 HD 
DOCKED: BRANCH  31  33
DOCKED: ATOM     33  C   UNL     1     141.437  70.920 226.553 -0.50 -0.01    +0.054 C  
DOCKED: ATOM     34  C   UNL     1     140.967  71.250 227.972 -0.75 -0.00    +0.019 C  
DOCKED: ATOM     35  C   UNL     1     141.142  69.424 226.414 -0.53 -0.00    +0.019 C  
DOCKED: ATOM     36  C   UNL     1     139.768  70.353 228.220 -0.58 -0.00    +0.002 C  
DOCKED: ATOM     37  C   UNL     1     139.987  69.112 227.363 -0.63 -0.00    +0.002 C  
DOCKED: ENDBRANCH  31  33
DOCKED: ENDBRANCH  30  31
DOCKED: ENDBRANCH  28  30
DOCKED: ENDBRANCH   5  24
DOCKED: TORSDOF 8
DOCKED: TER
DOCKED: ENDMDL
________________________________________________________________________________


    FINAL DOCKED STATE:
    ________________________


Run:   16 / 20
Time taken for this run:   0.061s

DOCKED: MODEL        16
DOCKED: USER    Run = 16
DOCKED: USER
DOCKED: USER    Estimated Free Energy of Binding    =  -9.01 kcal/mol  [=(1)+(2)+(3)-(4)]
DOCKED: USER
DOCKED: USER    (1) Final Intermolecular Energy     = -11.40 kcal/mol
DOCKED: USER        vdW + Hbond + desolv Energy     = -11.41 kcal/mol
DOCKED: USER        Electrostatic Energy            =  +0.01 kcal/mol
DOCKED: USER        Moving Ligand-Fixed Receptor    = -11.40 kcal/mol
DOCKED: USER        Moving Ligand-Moving Receptor   =  +0.00 kcal/mol
DOCKED: USER    (2) Final Total Internal Energy     =  -1.80 kcal/mol
DOCKED: USER    (3) Torsional Free Energy           =  +2.39 kcal/mol
DOCKED: USER    (4) Unbound System's Energy         =  -1.80 kcal/mol
DOCKED: USER
DOCKED: USER
DOCKED: REMARK SMILES O=C(NCc1cccc(-c2cccc(CNC3CCCC3)c2)c1)c1ccc(-c2ccccc2)cc1
DOCKED: REMARK SMILES IDX 5 1 6 2 7 3 8 4 9 5 23 6 4 7 3 8 2 9 1 10 24 12 25 13 35 14
DOCKED: REMARK SMILES IDX 26 15 34 16 27 17 28 18 29 19 33 20 30 21 32 22 31 23 10 24
DOCKED: REMARK SMILES IDX 11 25 22 26 12 27 14 28 13 29 15 30 16 31 17 33 18 34 21 35
DOCKED: REMARK SMILES IDX 19 36 20 37
DOCKED: REMARK H PARENT 3 11 16 32
DOCKED: USER                              x       y       z     vdW  Elec       q    Type
DOCKED: USER                           _______ _______ _______ _____ _____    ______ ____
DOCKED: ROOT
DOCKED: ATOM      1  C   UNL     1     134.083  73.395 224.657 -0.21 +0.00    -0.028 A  
DOCKED: ATOM      2  C   UNL     1     133.224  72.858 225.629 -0.26 -0.00    +0.005 A  
DOCKED: ATOM      3  C   UNL     1     133.445  71.570 226.124 -0.33 -0.00    +0.001 A  
DOCKED: ATOM      4  C   UNL     1     134.516  70.809 225.652 -0.25 -0.00    +0.009 A  
DOCKED: ATOM      5  C   UNL     1     135.382  71.326 224.672 -0.15 +0.00    -0.018 A  
DOCKED: ATOM      6  C   UNL     1     135.153  72.623 224.178 -0.21 -0.00    +0.014 A  
DOCKED: ENDROOT
DOCKED: BRANCH   1   7
DOCKED: ATOM      7  C   UNL     1     133.842  74.772 224.103 -0.12 -0.02    +0.152 C  
DOCKED: BRANCH   7   8
DOCKED: ATOM      8  N   UNL     1     135.093  75.524 224.067 -0.13 +0.05    -0.348 N  
DOCKED: ATOM      9  C   UNL     1     135.821  75.744 222.847 -0.14 -0.05    +0.251 C  
DOCKED: ATOM     10  O   UNL     1     135.421  75.205 221.778 -0.04 +0.05    -0.269 OA 
DOCKED: ATOM     11  H   UNL     1     135.515  75.797 224.982 +0.04 -0.02    +0.164 HD 
DOCKED: BRANCH   9  12
DOCKED: ATOM     12  C   UNL     1     137.045  76.583 222.822 -0.25 -0.01    +0.039 A  
DOCKED: ATOM     13  C   UNL     1     138.294  75.994 222.556 -0.28 -0.00    +0.014 A  
DOCKED: ATOM     14  C   UNL     1     136.983  77.971 223.036 -0.14 -0.00    +0.014 A  
DOCKED: ATOM     15  C   UNL     1     139.455  76.770 222.526 -0.30 -0.00    +0.009 A  
DOCKED: ATOM     16  C   UNL     1     138.145  78.748 223.005 -0.25 -0.00    +0.009 A  
DOCKED: ATOM     17  C   UNL     1     139.395  78.156 222.753 -0.32 +0.00    -0.018 A  
DOCKED: BRANCH  17  18
DOCKED: ATOM     18  C   UNL     1     140.630  78.982 222.722 -0.42 +0.00    -0.018 A  
DOCKED: ATOM     19  C   UNL     1     141.415  79.141 223.880 -0.59 -0.00    +0.009 A  
DOCKED: ATOM     20  C   UNL     1     141.035  79.618 221.532 -0.33 -0.00    +0.009 A  
DOCKED: ATOM     21  C   UNL     1     142.575  79.919 223.847 -0.61 -0.00    +0.001 A  
DOCKED: ATOM     22  C   UNL     1     142.198  80.395 221.506 -0.44 -0.00    +0.001 A  
DOCKED: ATOM     23  C   UNL     1     142.967  80.544 222.662 -0.58 -0.00    +0.000 A  
DOCKED: ENDBRANCH  17  18
DOCKED: ENDBRANCH   9  12
DOCKED: ENDBRANCH   7   8
DOCKED: ENDBRANCH   1   7
DOCKED: BRANCH   5  24
DOCKED: ATOM     24  C   UNL     1     136.524  70.517 224.172 -0.21 +0.00    -0.018 A  
DOCKED: ATOM     25  C   UNL     1     136.305  69.257 223.585 -0.19 -0.00    +0.009 A  
DOCKED: ATOM     26  C   UNL     1     137.842  71.000 224.275 -0.20 -0.00    +0.013 A  
DOCKED: ATOM     27  C   UNL     1     137.379  68.498 223.114 -0.19 -0.00    +0.001 A  
DOCKED: ATOM     28  C   UNL     1     138.923  70.242 223.797 -0.29 +0.01    -0.034 A  
DOCKED: ATOM     29  C   UNL     1     138.683  68.985 223.220 -0.25 -0.00    +0.005 A  
DOCKED: BRANCH  28  30
DOCKED: ATOM     30  C   UNL     1     140.328  70.757 223.949 -0.28 -0.02    +0.117 C  
DOCKED: BRANCH  30  31
DOCKED: ATOM     31  N   UNL     1     140.426  71.709 225.067 -0.24 +0.05    -0.310 NA 
DOCKED: ATOM     32  H   UNL     1     140.699  72.628 224.645 +0.03 -0.02    +0.123 HD 
DOCKED: BRANCH  31  33
DOCKED: ATOM     33  C   UNL     1     141.424  71.293 226.081 -0.58 -0.01    +0.054 C  
DOCKED: ATOM     34  C   UNL     1     141.431  72.231 227.290 -0.77 -0.00    +0.019 C  
DOCKED: ATOM     35  C   UNL     1     141.029  69.939 226.677 -0.57 -0.00    +0.019 C  
DOCKED: ATOM     36  C   UNL     1     140.326  71.728 228.199 -0.73 -0.00    +0.002 C  
DOCKED: ATOM     37  C   UNL     1     140.209  70.232 227.932 -0.66 -0.00    +0.002 C  
DOCKED: ENDBRANCH  31  33
DOCKED: ENDBRANCH  30  31
DOCKED: ENDBRANCH  28  30
DOCKED: ENDBRANCH   5  24
DOCKED: TORSDOF 8
DOCKED: TER
DOCKED: ENDMDL
________________________________________________________________________________


    FINAL DOCKED STATE:
    ________________________


Run:   17 / 20
Time taken for this run:   0.061s

DOCKED: MODEL        17
DOCKED: USER    Run = 17
DOCKED: USER
DOCKED: USER    Estimated Free Energy of Binding    =  -8.67 kcal/mol  [=(1)+(2)+(3)-(4)]
DOCKED: USER
DOCKED: USER    (1) Final Intermolecular Energy     = -11.06 kcal/mol
DOCKED: USER        vdW + Hbond + desolv Energy     = -11.01 kcal/mol
DOCKED: USER        Electrostatic Energy            =  -0.04 kcal/mol
DOCKED: USER        Moving Ligand-Fixed Receptor    = -11.06 kcal/mol
DOCKED: USER        Moving Ligand-Moving Receptor   =  +0.00 kcal/mol
DOCKED: USER    (2) Final Total Internal Energy     =  -1.82 kcal/mol
DOCKED: USER    (3) Torsional Free Energy           =  +2.39 kcal/mol
DOCKED: USER    (4) Unbound System's Energy         =  -1.82 kcal/mol
DOCKED: USER
DOCKED: USER
DOCKED: REMARK SMILES O=C(NCc1cccc(-c2cccc(CNC3CCCC3)c2)c1)c1ccc(-c2ccccc2)cc1
DOCKED: REMARK SMILES IDX 5 1 6 2 7 3 8 4 9 5 23 6 4 7 3 8 2 9 1 10 24 12 25 13 35 14
DOCKED: REMARK SMILES IDX 26 15 34 16 27 17 28 18 29 19 33 20 30 21 32 22 31 23 10 24
DOCKED: REMARK SMILES IDX 11 25 22 26 12 27 14 28 13 29 15 30 16 31 17 33 18 34 21 35
DOCKED: REMARK SMILES IDX 19 36 20 37
DOCKED: REMARK H PARENT 3 11 16 32
DOCKED: USER                              x       y       z     vdW  Elec       q    Type
DOCKED: USER                           _______ _______ _______ _____ _____    ______ ____
DOCKED: ROOT
DOCKED: ATOM      1  C   UNL     1     135.279  68.504 223.176 -0.13 +0.00    -0.028 A  
DOCKED: ATOM      2  C   UNL     1     135.539  67.752 222.020 -0.12 -0.00    +0.005 A  
DOCKED: ATOM      3  C   UNL     1     136.807  67.783 221.435 -0.12 -0.00    +0.001 A  
DOCKED: ATOM      4  C   UNL     1     137.821  68.565 221.993 -0.15 -0.00    +0.009 A  
DOCKED: ATOM      5  C   UNL     1     137.578  69.332 223.147 -0.20 +0.00    -0.018 A  
DOCKED: ATOM      6  C   UNL     1     136.297  69.297 223.729 -0.20 -0.00    +0.014 A  
DOCKED: ENDROOT
DOCKED: BRANCH   1   7
DOCKED: ATOM      7  C   UNL     1     133.911  68.493 223.801 -0.11 -0.02    +0.152 C  
DOCKED: BRANCH   7   8
DOCKED: ATOM      8  N   UNL     1     133.562  69.833 224.266 -0.02 +0.04    -0.348 N  
DOCKED: ATOM      9  C   UNL     1     133.628  70.205 225.653 -0.16 -0.02    +0.251 C  
DOCKED: ATOM     10  O   UNL     1     133.915  69.333 226.519 -0.74 -0.01    -0.269 OA 
DOCKED: ATOM     11  H   UNL     1     133.139  70.488 223.571 +0.03 -0.02    +0.164 HD 
DOCKED: BRANCH   9  12
DOCKED: ATOM     12  C   UNL     1     133.350  71.596 226.090 -0.30 -0.00    +0.039 A  
DOCKED: ATOM     13  C   UNL     1     134.155  72.651 225.624 -0.28 -0.00    +0.014 A  
DOCKED: ATOM     14  C   UNL     1     132.275  71.893 226.947 -0.37 -0.00    +0.014 A  
DOCKED: ATOM     15  C   UNL     1     133.905  73.967 226.023 -0.34 +0.00    +0.009 A  
DOCKED: ATOM     16  C   UNL     1     132.024  73.209 227.344 -0.41 -0.00    +0.009 A  
DOCKED: ATOM     17  C   UNL     1     132.838  74.261 226.890 -0.37 -0.00    -0.018 A  
DOCKED: BRANCH  17  18
DOCKED: ATOM     18  C   UNL     1     132.573  75.660 227.314 -0.36 -0.00    -0.018 A  
DOCKED: ATOM     19  C   UNL     1     133.510  76.678 227.053 -0.39 -0.00    +0.009 A  
DOCKED: ATOM     20  C   UNL     1     131.379  75.990 227.985 -0.28 +0.00    +0.009 A  
DOCKED: ATOM     21  C   UNL     1     133.258  77.993 227.455 -0.31 -0.00    +0.001 A  
DOCKED: ATOM     22  C   UNL     1     131.132  77.308 228.383 -0.31 +0.00    +0.001 A  
DOCKED: ATOM     23  C   UNL     1     132.070  78.307 228.118 -0.30 +0.00    +0.000 A  
DOCKED: ENDBRANCH  17  18
DOCKED: ENDBRANCH   9  12
DOCKED: ENDBRANCH   7   8
DOCKED: ENDBRANCH   1   7
DOCKED: BRANCH   5  24
DOCKED: ATOM     24  C   UNL     1     138.657  70.161 223.743 -0.28 +0.00    -0.018 A  
DOCKED: ATOM     25  C   UNL     1     139.381  71.069 222.949 -0.28 -0.00    +0.009 A  
DOCKED: ATOM     26  C   UNL     1     138.968  70.054 225.111 -0.37 -0.00    +0.013 A  
DOCKED: ATOM     27  C   UNL     1     140.395  71.850 223.510 -0.38 -0.00    +0.001 A  
DOCKED: ATOM     28  C   UNL     1     139.983  70.842 225.679 -0.50 +0.01    -0.034 A  
DOCKED: ATOM     29  C   UNL     1     140.697  71.737 224.869 -0.43 -0.00    +0.005 A  
DOCKED: BRANCH  28  30
DOCKED: ATOM     30  C   UNL     1     140.328  70.686 227.136 -0.54 -0.02    +0.117 C  
DOCKED: BRANCH  30  31
DOCKED: ATOM     31  N   UNL     1     139.324  69.869 227.834 -0.23 +0.04    -0.310 NA 
DOCKED: ATOM     32  H   UNL     1     139.093  70.382 228.717 +0.08 -0.02    +0.123 HD 
DOCKED: BRANCH  31  33
DOCKED: ATOM     33  C   UNL     1     139.819  68.507 228.147 -0.50 -0.01    +0.054 C  
DOCKED: ATOM     34  C   UNL     1     139.249  67.461 227.187 -0.13 -0.00    +0.019 C  
DOCKED: ATOM     35  C   UNL     1     141.329  68.433 227.908 -0.47 -0.01    +0.019 C  
DOCKED: ATOM     36  C   UNL     1     140.156  67.490 225.971 -0.58 -0.00    +0.002 C  
DOCKED: ATOM     37  C   UNL     1     141.525  67.931 226.478 -0.48 -0.00    +0.002 C  
DOCKED: ENDBRANCH  31  33
DOCKED: ENDBRANCH  30  31
DOCKED: ENDBRANCH  28  30
DOCKED: ENDBRANCH   5  24
DOCKED: TORSDOF 8
DOCKED: TER
DOCKED: ENDMDL
________________________________________________________________________________


    FINAL DOCKED STATE:
    ________________________


Run:   18 / 20
Time taken for this run:   0.061s

DOCKED: MODEL        18
DOCKED: USER    Run = 18
DOCKED: USER
DOCKED: USER    Estimated Free Energy of Binding    =  -9.41 kcal/mol  [=(1)+(2)+(3)-(4)]
DOCKED: USER
DOCKED: USER    (1) Final Intermolecular Energy     = -11.80 kcal/mol
DOCKED: USER        vdW + Hbond + desolv Energy     = -11.80 kcal/mol
DOCKED: USER        Electrostatic Energy            =  +0.01 kcal/mol
DOCKED: USER        Moving Ligand-Fixed Receptor    = -11.80 kcal/mol
DOCKED: USER        Moving Ligand-Moving Receptor   =  +0.00 kcal/mol
DOCKED: USER    (2) Final Total Internal Energy     =  -1.81 kcal/mol
DOCKED: USER    (3) Torsional Free Energy           =  +2.39 kcal/mol
DOCKED: USER    (4) Unbound System's Energy         =  -1.81 kcal/mol
DOCKED: USER
DOCKED: USER
DOCKED: REMARK SMILES O=C(NCc1cccc(-c2cccc(CNC3CCCC3)c2)c1)c1ccc(-c2ccccc2)cc1
DOCKED: REMARK SMILES IDX 5 1 6 2 7 3 8 4 9 5 23 6 4 7 3 8 2 9 1 10 24 12 25 13 35 14
DOCKED: REMARK SMILES IDX 26 15 34 16 27 17 28 18 29 19 33 20 30 21 32 22 31 23 10 24
DOCKED: REMARK SMILES IDX 11 25 22 26 12 27 14 28 13 29 15 30 16 31 17 33 18 34 21 35
DOCKED: REMARK SMILES IDX 19 36 20 37
DOCKED: REMARK H PARENT 3 11 16 32
DOCKED: USER                              x       y       z     vdW  Elec       q    Type
DOCKED: USER                           _______ _______ _______ _____ _____    ______ ____
DOCKED: ROOT
DOCKED: ATOM      1  C   UNL     1     140.929  75.646 219.350 -0.12 +0.01    -0.028 A  
DOCKED: ATOM      2  C   UNL     1     142.135  74.995 219.048 -0.17 -0.00    +0.005 A  
DOCKED: ATOM      3  C   UNL     1     143.277  75.740 218.747 -0.31 -0.00    +0.001 A  
DOCKED: ATOM      4  C   UNL     1     143.225  77.135 218.738 -0.31 -0.01    +0.009 A  
DOCKED: ATOM      5  C   UNL     1     142.024  77.806 219.029 -0.27 +0.01    -0.018 A  
DOCKED: ATOM      6  C   UNL     1     140.878  77.049 219.331 -0.14 -0.01    +0.014 A  
DOCKED: ENDROOT
DOCKED: BRANCH   1   7
DOCKED: ATOM      7  C   UNL     1     139.688  74.852 219.656 -0.05 -0.04    +0.152 C  
DOCKED: BRANCH   7   8
DOCKED: ATOM      8  N   UNL     1     139.869  74.097 220.893 -0.08 +0.07    -0.348 N  
DOCKED: ATOM      9  C   UNL     1     138.984  73.031 221.277 -0.11 -0.05    +0.251 C  
DOCKED: ATOM     10  O   UNL     1     137.966  72.784 220.574 -0.03 +0.05    -0.269 OA 
DOCKED: ATOM     11  H   UNL     1     140.596  74.437 221.561 +0.05 -0.02    +0.164 HD 
DOCKED: BRANCH   9  12
DOCKED: ATOM     12  C   UNL     1     139.237  72.223 222.495 -0.24 -0.01    +0.039 A  
DOCKED: ATOM     13  C   UNL     1     140.505  72.252 223.105 -0.31 -0.00    +0.014 A  
DOCKED: ATOM     14  C   UNL     1     138.225  71.440 223.077 -0.22 -0.00    +0.014 A  
DOCKED: ATOM     15  C   UNL     1     140.759  71.499 224.255 -0.39 -0.00    +0.009 A  
DOCKED: ATOM     16  C   UNL     1     138.479  70.689 224.228 -0.31 -0.00    +0.009 A  
DOCKED: ATOM     17  C   UNL     1     139.750  70.707 224.828 -0.44 +0.00    -0.018 A  
DOCKED: BRANCH  17  18
DOCKED: ATOM     18  C   UNL     1     140.021  69.906 226.050 -0.49 +0.00    -0.018 A  
DOCKED: ATOM     19  C   UNL     1     140.564  70.514 227.199 -0.62 -0.00    +0.009 A  
DOCKED: ATOM     20  C   UNL     1     139.738  68.527 226.079 -0.55 -0.00    +0.009 A  
DOCKED: ATOM     21  C   UNL     1     140.819  69.757 228.346 -0.58 -0.00    +0.001 A  
DOCKED: ATOM     22  C   UNL     1     139.995  67.776 227.231 -0.63 -0.00    +0.001 A  
DOCKED: ATOM     23  C   UNL     1     140.533  68.390 228.363 -0.66 -0.00    +0.000 A  
DOCKED: ENDBRANCH  17  18
DOCKED: ENDBRANCH   9  12
DOCKED: ENDBRANCH   7   8
DOCKED: ENDBRANCH   1   7
DOCKED: BRANCH   5  24
DOCKED: ATOM     24  C   UNL     1     141.970  79.291 219.023 -0.28 +0.01    -0.018 A  
DOCKED: ATOM     25  C   UNL     1     142.390  80.018 217.893 -0.32 -0.01    +0.009 A  
DOCKED: ATOM     26  C   UNL     1     141.493  79.994 220.145 -0.29 -0.01    +0.013 A  
DOCKED: ATOM     27  C   UNL     1     142.336  81.413 217.888 -0.31 -0.00    +0.001 A  
DOCKED: ATOM     28  C   UNL     1     141.433  81.397 220.140 -0.29 +0.01    -0.034 A  
DOCKED: ATOM     29  C   UNL     1     141.862  82.102 219.006 -0.22 -0.00    +0.005 A  
DOCKED: BRANCH  28  30
DOCKED: ATOM     30  C   UNL     1     140.957  82.133 221.363 -0.29 -0.02    +0.117 C  
DOCKED: BRANCH  30  31
DOCKED: ATOM     31  N   UNL     1     140.084  81.283 222.188 -0.12 +0.05    -0.310 NA 
DOCKED: ATOM     32  H   UNL     1     139.193  81.817 222.318 +0.04 -0.02    +0.123 HD 
DOCKED: BRANCH  31  33
DOCKED: ATOM     33  C   UNL     1     140.686  80.961 223.505 -0.41 -0.01    +0.054 C  
DOCKED: ATOM     34  C   UNL     1     140.595  79.467 223.822 -0.49 -0.00    +0.019 C  
DOCKED: ATOM     35  C   UNL     1     142.192  81.232 223.470 -0.61 -0.00    +0.019 C  
DOCKED: ATOM     36  C   UNL     1     141.795  78.835 223.141 -0.58 -0.00    +0.002 C  
DOCKED: ATOM     37  C   UNL     1     142.869  79.916 223.092 -0.64 -0.00    +0.002 C  
DOCKED: ENDBRANCH  31  33
DOCKED: ENDBRANCH  30  31
DOCKED: ENDBRANCH  28  30
DOCKED: ENDBRANCH   5  24
DOCKED: TORSDOF 8
DOCKED: TER
DOCKED: ENDMDL
________________________________________________________________________________


    FINAL DOCKED STATE:
    ________________________


Run:   19 / 20
Time taken for this run:   0.061s

DOCKED: MODEL        19
DOCKED: USER    Run = 19
DOCKED: USER
DOCKED: USER    Estimated Free Energy of Binding    =  -9.34 kcal/mol  [=(1)+(2)+(3)-(4)]
DOCKED: USER
DOCKED: USER    (1) Final Intermolecular Energy     = -11.73 kcal/mol
DOCKED: USER        vdW + Hbond + desolv Energy     = -11.71 kcal/mol
DOCKED: USER        Electrostatic Energy            =  -0.02 kcal/mol
DOCKED: USER        Moving Ligand-Fixed Receptor    = -11.73 kcal/mol
DOCKED: USER        Moving Ligand-Moving Receptor   =  +0.00 kcal/mol
DOCKED: USER    (2) Final Total Internal Energy     =  -1.71 kcal/mol
DOCKED: USER    (3) Torsional Free Energy           =  +2.39 kcal/mol
DOCKED: USER    (4) Unbound System's Energy         =  -1.71 kcal/mol
DOCKED: USER
DOCKED: USER
DOCKED: REMARK SMILES O=C(NCc1cccc(-c2cccc(CNC3CCCC3)c2)c1)c1ccc(-c2ccccc2)cc1
DOCKED: REMARK SMILES IDX 5 1 6 2 7 3 8 4 9 5 23 6 4 7 3 8 2 9 1 10 24 12 25 13 35 14
DOCKED: REMARK SMILES IDX 26 15 34 16 27 17 28 18 29 19 33 20 30 21 32 22 31 23 10 24
DOCKED: REMARK SMILES IDX 11 25 22 26 12 27 14 28 13 29 15 30 16 31 17 33 18 34 21 35
DOCKED: REMARK SMILES IDX 19 36 20 37
DOCKED: REMARK H PARENT 3 11 16 32
DOCKED: USER                              x       y       z     vdW  Elec       q    Type
DOCKED: USER                           _______ _______ _______ _____ _____    ______ ____
DOCKED: ROOT
DOCKED: ATOM      1  C   UNL     1     134.375  72.840 224.633 -0.21 +0.00    -0.028 A  
DOCKED: ATOM      2  C   UNL     1     133.463  72.250 225.522 -0.24 -0.00    +0.005 A  
DOCKED: ATOM      3  C   UNL     1     133.686  70.956 225.998 -0.31 -0.00    +0.001 A  
DOCKED: ATOM      4  C   UNL     1     134.813  70.240 225.589 -0.25 -0.00    +0.009 A  
DOCKED: ATOM      5  C   UNL     1     135.734  70.810 224.693 -0.13 +0.00    -0.018 A  
DOCKED: ATOM      6  C   UNL     1     135.502  72.113 224.216 -0.21 -0.00    +0.014 A  
DOCKED: ENDROOT
DOCKED: BRANCH   1   7
DOCKED: ATOM      7  C   UNL     1     134.133  74.225 224.098 -0.14 -0.02    +0.152 C  
DOCKED: BRANCH   7   8
DOCKED: ATOM      8  N   UNL     1     135.401  74.934 223.953 -0.15 +0.07    -0.348 N  
DOCKED: ATOM      9  C   UNL     1     135.571  76.017 223.023 -0.14 -0.05    +0.251 C  
DOCKED: ATOM     10  O   UNL     1     134.628  76.321 222.241 -0.03 +0.04    -0.269 OA 
DOCKED: ATOM     11  H   UNL     1     136.228  74.549 224.461 -0.32 -0.06    +0.164 HD 
DOCKED: BRANCH   9  12
DOCKED: ATOM     12  C   UNL     1     136.844  76.778 222.954 -0.22 -0.01    +0.039 A  
DOCKED: ATOM     13  C   UNL     1     138.057  76.099 222.741 -0.28 -0.00    +0.014 A  
DOCKED: ATOM     14  C   UNL     1     136.865  78.179 223.073 -0.14 -0.00    +0.014 A  
DOCKED: ATOM     15  C   UNL     1     139.263  76.801 222.670 -0.27 -0.00    +0.009 A  
DOCKED: ATOM     16  C   UNL     1     138.072  78.881 223.001 -0.25 -0.00    +0.009 A  
DOCKED: ATOM     17  C   UNL     1     139.285  78.200 222.802 -0.31 +0.00    -0.018 A  
DOCKED: BRANCH  17  18
DOCKED: ATOM     18  C   UNL     1     140.568  78.946 222.728 -0.41 +0.00    -0.018 A  
DOCKED: ATOM     19  C   UNL     1     140.999  79.510 221.512 -0.32 -0.00    +0.009 A  
DOCKED: ATOM     20  C   UNL     1     141.373  79.101 223.873 -0.59 -0.00    +0.009 A  
DOCKED: ATOM     21  C   UNL     1     142.208  80.209 221.445 -0.42 -0.00    +0.001 A  
DOCKED: ATOM     22  C   UNL     1     142.580  79.803 223.800 -0.59 -0.00    +0.001 A  
DOCKED: ATOM     23  C   UNL     1     142.996  80.357 222.588 -0.57 -0.00    +0.000 A  
DOCKED: ENDBRANCH  17  18
DOCKED: ENDBRANCH   9  12
DOCKED: ENDBRANCH   7   8
DOCKED: ENDBRANCH   1   7
DOCKED: BRANCH   5  24
DOCKED: ATOM     24  C   UNL     1     136.935  70.049 224.260 -0.24 +0.00    -0.018 A  
DOCKED: ATOM     25  C   UNL     1     137.351  70.073 222.916 -0.16 -0.00    +0.009 A  
DOCKED: ATOM     26  C   UNL     1     137.677  69.297 225.189 -0.30 -0.00    +0.013 A  
DOCKED: ATOM     27  C   UNL     1     138.480  69.360 222.511 -0.19 -0.00    +0.001 A  
DOCKED: ATOM     28  C   UNL     1     138.817  68.583 224.785 -0.37 +0.00    -0.034 A  
DOCKED: ATOM     29  C   UNL     1     139.211  68.615 223.439 -0.19 -0.00    +0.005 A  
DOCKED: BRANCH  28  30
DOCKED: ATOM     30  C   UNL     1     139.577  67.752 225.784 -0.50 -0.01    +0.117 C  
DOCKED: BRANCH  30  31
DOCKED: ATOM     31  N   UNL     1     139.743  68.473 227.056 -0.30 +0.05    -0.310 NA 
DOCKED: ATOM     32  H   UNL     1     138.973  69.182 227.093 +0.08 -0.01    +0.123 HD 
DOCKED: BRANCH  31  33
DOCKED: ATOM     33  C   UNL     1     141.062  69.141 227.161 -0.55 -0.01    +0.054 C  
DOCKED: ATOM     34  C   UNL     1     141.375  69.979 225.919 -0.51 -0.00    +0.019 C  
DOCKED: ATOM     35  C   UNL     1     141.037  70.170 228.294 -0.53 -0.00    +0.019 C  
DOCKED: ATOM     36  C   UNL     1     140.700  71.318 226.153 -0.65 -0.00    +0.002 C  
DOCKED: ATOM     37  C   UNL     1     140.660  71.510 227.664 -0.80 -0.00    +0.002 C  
DOCKED: ENDBRANCH  31  33
DOCKED: ENDBRANCH  30  31
DOCKED: ENDBRANCH  28  30
DOCKED: ENDBRANCH   5  24
DOCKED: TORSDOF 8
DOCKED: TER
DOCKED: ENDMDL
________________________________________________________________________________


    FINAL DOCKED STATE:
    ________________________


Run:   20 / 20
Time taken for this run:   0.061s

DOCKED: MODEL        20
DOCKED: USER    Run = 20
DOCKED: USER
DOCKED: USER    Estimated Free Energy of Binding    =  -8.83 kcal/mol  [=(1)+(2)+(3)-(4)]
DOCKED: USER
DOCKED: USER    (1) Final Intermolecular Energy     = -11.22 kcal/mol
DOCKED: USER        vdW + Hbond + desolv Energy     = -11.23 kcal/mol
DOCKED: USER        Electrostatic Energy            =  +0.01 kcal/mol
DOCKED: USER        Moving Ligand-Fixed Receptor    = -11.22 kcal/mol
DOCKED: USER        Moving Ligand-Moving Receptor   =  +0.00 kcal/mol
DOCKED: USER    (2) Final Total Internal Energy     =  -1.86 kcal/mol
DOCKED: USER    (3) Torsional Free Energy           =  +2.39 kcal/mol
DOCKED: USER    (4) Unbound System's Energy         =  -1.86 kcal/mol
DOCKED: USER
DOCKED: USER
DOCKED: REMARK SMILES O=C(NCc1cccc(-c2cccc(CNC3CCCC3)c2)c1)c1ccc(-c2ccccc2)cc1
DOCKED: REMARK SMILES IDX 5 1 6 2 7 3 8 4 9 5 23 6 4 7 3 8 2 9 1 10 24 12 25 13 35 14
DOCKED: REMARK SMILES IDX 26 15 34 16 27 17 28 18 29 19 33 20 30 21 32 22 31 23 10 24
DOCKED: REMARK SMILES IDX 11 25 22 26 12 27 14 28 13 29 15 30 16 31 17 33 18 34 21 35
DOCKED: REMARK SMILES IDX 19 36 20 37
DOCKED: REMARK H PARENT 3 11 16 32
DOCKED: USER                              x       y       z     vdW  Elec       q    Type
DOCKED: USER                           _______ _______ _______ _____ _____    ______ ____
DOCKED: ROOT
DOCKED: ATOM      1  C   UNL     1     134.132  73.337 224.790 -0.22 +0.00    -0.028 A  
DOCKED: ATOM      2  C   UNL     1     133.230  72.709 225.663 -0.26 -0.00    +0.005 A  
DOCKED: ATOM      3  C   UNL     1     133.436  71.382 226.048 -0.31 -0.00    +0.001 A  
DOCKED: ATOM      4  C   UNL     1     134.535  70.672 225.562 -0.25 -0.00    +0.009 A  
DOCKED: ATOM      5  C   UNL     1     135.446  71.279 224.680 -0.14 +0.00    -0.018 A  
DOCKED: ATOM      6  C   UNL     1     135.231  72.616 224.296 -0.21 -0.00    +0.014 A  
DOCKED: ENDROOT
DOCKED: BRANCH   1   7
DOCKED: ATOM      7  C   UNL     1     133.908  74.759 224.353 -0.15 -0.02    +0.152 C  
DOCKED: BRANCH   7   8
DOCKED: ATOM      8  N   UNL     1     135.186  75.456 224.243 -0.15 +0.06    -0.348 N  
DOCKED: ATOM      9  C   UNL     1     135.691  75.937 222.985 -0.14 -0.05    +0.251 C  
DOCKED: ATOM     10  O   UNL     1     135.060  75.682 221.923 -0.03 +0.04    -0.269 OA 
DOCKED: ATOM     11  H   UNL     1     135.790  75.489 225.094 +0.01 -0.02    +0.164 HD 
DOCKED: BRANCH   9  12
DOCKED: ATOM     12  C   UNL     1     136.951  76.717 222.911 -0.23 -0.01    +0.039 A  
DOCKED: ATOM     13  C   UNL     1     136.922  78.113 223.080 -0.13 -0.00    +0.014 A  
DOCKED: ATOM     14  C   UNL     1     138.190  76.087 222.699 -0.29 -0.00    +0.014 A  
DOCKED: ATOM     15  C   UNL     1     138.101  78.862 223.017 -0.25 -0.00    +0.009 A  
DOCKED: ATOM     16  C   UNL     1     139.368  76.836 222.637 -0.27 -0.00    +0.009 A  
DOCKED: ATOM     17  C   UNL     1     139.337  78.233 222.792 -0.31 +0.00    -0.018 A  
DOCKED: BRANCH  17  18
DOCKED: ATOM     18  C   UNL     1     140.589  79.029 222.724 -0.41 +0.00    -0.018 A  
DOCKED: ATOM     19  C   UNL     1     141.373  79.232 223.876 -0.59 -0.00    +0.009 A  
DOCKED: ATOM     20  C   UNL     1     141.012  79.595 221.505 -0.33 -0.00    +0.009 A  
DOCKED: ATOM     21  C   UNL     1     142.550  79.984 223.808 -0.63 -0.00    +0.001 A  
DOCKED: ATOM     22  C   UNL     1     142.191  80.345 221.444 -0.43 -0.00    +0.001 A  
DOCKED: ATOM     23  C   UNL     1     142.959  80.538 222.594 -0.57 -0.00    +0.000 A  
DOCKED: ENDBRANCH  17  18
DOCKED: ENDBRANCH   9  12
DOCKED: ENDBRANCH   7   8
DOCKED: ENDBRANCH   1   7
DOCKED: BRANCH   5  24
DOCKED: ATOM     24  C   UNL     1     136.617  70.524 224.166 -0.22 +0.00    -0.018 A  
DOCKED: ATOM     25  C   UNL     1     136.451  69.250 223.592 -0.19 -0.00    +0.009 A  
DOCKED: ATOM     26  C   UNL     1     137.911  71.072 224.242 -0.22 -0.00    +0.013 A  
DOCKED: ATOM     27  C   UNL     1     137.553  68.542 223.107 -0.21 -0.00    +0.001 A  
DOCKED: ATOM     28  C   UNL     1     139.020  70.364 223.751 -0.29 +0.01    -0.034 A  
DOCKED: ATOM     29  C   UNL     1     138.833  69.093 223.187 -0.25 -0.00    +0.005 A  
DOCKED: BRANCH  28  30
DOCKED: ATOM     30  C   UNL     1     140.401  70.950 223.875 -0.27 -0.02    +0.117 C  
DOCKED: BRANCH  30  31
DOCKED: ATOM     31  N   UNL     1     140.539  71.722 225.120 -0.25 +0.05    -0.310 NA 
DOCKED: ATOM     32  H   UNL     1     140.949  72.645 224.847 +0.07 -0.01    +0.123 HD 
DOCKED: BRANCH  31  33
DOCKED: ATOM     33  C   UNL     1     141.411  71.047 226.112 -0.57 -0.01    +0.054 C  
DOCKED: ATOM     34  C   UNL     1     141.126  71.525 227.538 -0.75 -0.00    +0.019 C  
DOCKED: ATOM     35  C   UNL     1     141.085  69.552 226.161 -0.53 -0.00    +0.019 C  
DOCKED: ATOM     36  C   UNL     1     139.958  70.685 228.021 -0.63 -0.00    +0.002 C  
DOCKED: ATOM     37  C   UNL     1     140.054  69.361 227.272 -0.61 -0.00    +0.002 C  
DOCKED: ENDBRANCH  31  33
DOCKED: ENDBRANCH  30  31
DOCKED: ENDBRANCH  28  30
DOCKED: ENDBRANCH   5  24
DOCKED: TORSDOF 8
DOCKED: TER
DOCKED: ENDMDL
________________________________________________________________________________


    CLUSTERING HISTOGRAM
    ____________________


________________________________________________________________________________
     |           |     |           |     |
Clus | Lowest    | Run | Mean      | Num | Histogram
-ter | Binding   |     | Binding   | in  |
Rank | Energy    |     | Energy    | Clus|    5    10   15   20   25   30   35
_____|___________|_____|___________|_____|____:____|____:____|____:____|____:___
   1 |     -9.54 |   5 |     -9.13 |   9 |#########
   2 |     -9.48 |  14 |     -9.39 |   3 |###
   3 |     -9.19 |   6 |     -9.14 |   2 |##
   4 |     -9.06 |   4 |     -8.86 |   2 |##
   5 |     -8.67 |  17 |     -8.67 |   1 |#
   6 |     -8.65 |   2 |     -8.65 |   1 |#
   7 |     -8.06 |  10 |     -8.06 |   1 |#
   8 |     -7.95 |  12 |     -7.95 |   1 |#
_____|___________|_____|___________|_____|______________________________________


    RMSD TABLE
    __________


_______________________________________________________________________
     |      |      |           |         |                 |
Rank | Sub- | Run  | Binding   | Cluster | Reference       | Grep
     | Rank |      | Energy    | RMSD    | RMSD            | Pattern
_____|______|______|___________|_________|_________________|___________
   1      1      5       -9.54      0.00    270.16           RANKING
   1      2      7       -9.41      0.27    270.17           RANKING
   1      3      9       -9.41      0.26    270.15           RANKING
   1      4     19       -9.34      0.35    270.17           RANKING
   1      5     16       -9.01      1.28    270.16           RANKING
   1      6      3       -8.96      1.12    270.06           RANKING
   1      7     13       -8.94      1.30    270.16           RANKING
   1      8     20       -8.83      1.27    270.14           RANKING
   1      9     15       -8.75      1.25    270.18           RANKING
   2      1     14       -9.48      0.00    270.46           RANKING
   2      2     18       -9.41      0.95    270.32           RANKING
   2      3      1       -9.28      1.79    270.83           RANKING
   3      1      6       -9.19      0.00    270.55           RANKING
   3      2      8       -9.09      0.98    270.53           RANKING
   4      1      4       -9.06      0.00    269.53           RANKING
   4      2     11       -8.66      1.97    269.39           RANKING
   5      1     17       -8.67      0.00    269.63           RANKING
   6      1      2       -8.65      0.00    269.61           RANKING
   7      1     10       -8.06      0.00    270.59           RANKING
   8      1     12       -7.95      0.00    269.85           RANKING

Run time 1.143 sec
Idle time 0.000 sec
