AutoDock-GPU version: v1.6

**********************************************************
**    AutoDock-GPU AUTODOCKTOOLS-COMPATIBLE DLG FILE    **
**********************************************************


    DOCKING PARAMETERS
    ________________________


Ligand file:                               /home/a/REINVENT4/ReinventStudies/pleaseWork/justRnve/graph-dock-t2iv78/graph-DockGPU/node-autodockgpu/inputs/DKNPMFASMDQIKA-PIXJXPMZNA-O.pdbqt
Grid fld file:                             /home/a/REINVENT4/ReinventStudies/mols/Rad51/maps/rad51_receptor.maps.fld

Random seed:                               42
Number of runs:                            20
Number of energy evaluations:              1613968
Number of generations:                     42000
Size of population:                        150
Rate of crossover:                         80.000000%
Tournament selection probability limit:    60.000000%
Rate of mutation:                          2.000000%
Maximal allowed delta movement:            +/- 6.000000A
Maximal allowed delta angle:               +/- 90.000000

Rate of local search:                      100.000000%
Maximal number of local search iterations: 300
Rho lower bound:                           0.010000
Spread of local search delta movement:     2.000000A
Spread of local search delta angle:        74.999999
Limit of consecutive successes/failures:   4

Handle symmetry during clustering:         YES
RMSD tolerance:                            2.000000A

Program call in command line was:          /home/a/REINVENT4/ReinventStudies/adgpu-v1.6_linux_x64_cuda12_128wi --filelist batch.txt --heuristics 1 --nrun 20 --psize 150 --lsit 300 --seed 42 --heurmax 12000000 


    GRID PARAMETERS
    ________________________


Receptor name:                             rad51_receptor
Number of grid points (x, y, z):           53, 53, 53
Grid center (x, y, z):                     139.950000, 75.640000, 221.970000A
Grid size (x, y, z):                       19.500000, 19.500000, 19.500000A
Grid spacing:                              0.375000A


    LIGAND PARAMETERS
    ________________________


Ligand name:                               /home/a/REINVENT4/ReinventStudies/pleaseWork/justRnve/graph-dock-t2iv78/graph-DockGPU/node-autodockgpu/inputs/DKNPMFASMDQIKA-PIXJXPMZNA-O
Number of atoms:                           38
Number of rotatable bonds:                 8
Number of atom types:                      5


    DUMMY DATA (only for ADT-compatibility)
    ________________________


DPF> outlev 1
DPF> ga_run 20
DPF> fld /home/a/REINVENT4/ReinventStudies/mols/Rad51/maps/rad51_receptor.maps.fld
DPF> move /home/a/REINVENT4/ReinventStudies/pleaseWork/justRnve/graph-dock-t2iv78/graph-DockGPU/node-autodockgpu/inputs/DKNPMFASMDQIKA-PIXJXPMZNA-O.pdbqt


    COUNTER STATES
    ________________________


Number of energy evaluations performed:    532956
Number of generations used:                50


    INPUT LIGAND PDBQT FILE:
    ________________________


INPUT-LIGAND-PDBQT: REMARK SMILES O=C(NCc1cccc(-c2cccc(C[NH2+]C3CCCC3)c2)c1)c1ccc(-c2ccccc2)cc1
INPUT-LIGAND-PDBQT: REMARK SMILES IDX 5 1 6 2 7 3 8 4 9 5 23 6 4 7 3 8 2 9 1 10 24 12 25 13 35 14
INPUT-LIGAND-PDBQT: REMARK SMILES IDX 26 15 34 16 27 17 28 18 29 19 33 20 30 21 32 22 31 23 10 24
INPUT-LIGAND-PDBQT: REMARK SMILES IDX 11 25 22 26 12 27 14 28 13 29 15 30 16 31 17 34 18 35 21 36
INPUT-LIGAND-PDBQT: REMARK SMILES IDX 19 37 20 38
INPUT-LIGAND-PDBQT: REMARK H PARENT 3 11 16 32 16 33
INPUT-LIGAND-PDBQT: ROOT
INPUT-LIGAND-PDBQT: ATOM      1  C   UNL     1      -0.407   2.884   2.061  1.00  0.00    -0.028 A 
INPUT-LIGAND-PDBQT: ATOM      2  C   UNL     1      -1.361   3.855   1.728  1.00  0.00     0.005 A 
INPUT-LIGAND-PDBQT: ATOM      3  C   UNL     1      -1.179   4.665   0.606  1.00  0.00     0.001 A 
INPUT-LIGAND-PDBQT: ATOM      4  C   UNL     1      -0.047   4.506  -0.198  1.00  0.00     0.009 A 
INPUT-LIGAND-PDBQT: ATOM      5  C   UNL     1       0.916   3.528   0.109  1.00  0.00    -0.018 A 
INPUT-LIGAND-PDBQT: ATOM      6  C   UNL     1       0.724   2.717   1.245  1.00  0.00     0.014 A 
INPUT-LIGAND-PDBQT: ENDROOT
INPUT-LIGAND-PDBQT: BRANCH   1   7
INPUT-LIGAND-PDBQT: ATOM      7  C   UNL     1      -0.625   1.996   3.256  1.00  0.00     0.152 C 
INPUT-LIGAND-PDBQT: BRANCH   7   8
INPUT-LIGAND-PDBQT: ATOM      8  N   UNL     1      -1.610   0.963   2.943  1.00  0.00    -0.348 N 
INPUT-LIGAND-PDBQT: ATOM      9  C   UNL     1      -1.292  -0.180   2.132  1.00  0.00     0.251 C 
INPUT-LIGAND-PDBQT: ATOM     10  O   UNL     1      -0.092  -0.405   1.814  1.00  0.00    -0.269 OA
INPUT-LIGAND-PDBQT: ATOM     11  H   UNL     1      -2.555   1.043   3.380  1.00  0.00     0.164 HD
INPUT-LIGAND-PDBQT: BRANCH   9  12
INPUT-LIGAND-PDBQT: ATOM     12  C   UNL     1      -2.349  -1.116   1.682  1.00  0.00     0.039 A 
INPUT-LIGAND-PDBQT: ATOM     13  C   UNL     1      -3.679  -0.690   1.529  1.00  0.00     0.014 A 
INPUT-LIGAND-PDBQT: ATOM     14  C   UNL     1      -2.025  -2.449   1.381  1.00  0.00     0.014 A 
INPUT-LIGAND-PDBQT: ATOM     15  C   UNL     1      -4.666  -1.583   1.100  1.00  0.00     0.009 A 
INPUT-LIGAND-PDBQT: ATOM     16  C   UNL     1      -3.011  -3.343   0.957  1.00  0.00     0.009 A 
INPUT-LIGAND-PDBQT: ATOM     17  C   UNL     1      -4.344  -2.921   0.812  1.00  0.00    -0.018 A 
INPUT-LIGAND-PDBQT: BRANCH  17  18
INPUT-LIGAND-PDBQT: ATOM     18  C   UNL     1      -5.393  -3.875   0.365  1.00  0.00    -0.018 A 
INPUT-LIGAND-PDBQT: ATOM     19  C   UNL     1      -5.116  -4.829  -0.633  1.00  0.00     0.009 A 
INPUT-LIGAND-PDBQT: ATOM     20  C   UNL     1      -6.678  -3.845   0.938  1.00  0.00     0.009 A 
INPUT-LIGAND-PDBQT: ATOM     21  C   UNL     1      -6.102  -5.734  -1.041  1.00  0.00     0.001 A 
INPUT-LIGAND-PDBQT: ATOM     22  C   UNL     1      -7.660  -4.752   0.525  1.00  0.00     0.001 A 
INPUT-LIGAND-PDBQT: ATOM     23  C   UNL     1      -7.372  -5.696  -0.462  1.00  0.00     0.000 A 
INPUT-LIGAND-PDBQT: ENDBRANCH  17  18
INPUT-LIGAND-PDBQT: ENDBRANCH   9  12
INPUT-LIGAND-PDBQT: ENDBRANCH   7   8
INPUT-LIGAND-PDBQT: ENDBRANCH   1   7
INPUT-LIGAND-PDBQT: BRANCH   5  24
INPUT-LIGAND-PDBQT: ATOM     24  C   UNL     1       2.113   3.352  -0.753  1.00  0.00    -0.018 A 
INPUT-LIGAND-PDBQT: ATOM     25  C   UNL     1       2.005   3.444  -2.154  1.00  0.00     0.009 A 
INPUT-LIGAND-PDBQT: ATOM     26  C   UNL     1       3.373   3.083  -0.185  1.00  0.00     0.018 A 
INPUT-LIGAND-PDBQT: ATOM     27  C   UNL     1       3.129   3.269  -2.964  1.00  0.00     0.001 A 
INPUT-LIGAND-PDBQT: ATOM     28  C   UNL     1       4.506   2.919  -0.998  1.00  0.00     0.007 A 
INPUT-LIGAND-PDBQT: ATOM     29  C   UNL     1       4.374   3.002  -2.391  1.00  0.00     0.009 A 
INPUT-LIGAND-PDBQT: BRANCH  28  30
INPUT-LIGAND-PDBQT: ATOM     30  C   UNL     1       5.843   2.589  -0.383  1.00  0.00     0.297 C 
INPUT-LIGAND-PDBQT: BRANCH  30  31
INPUT-LIGAND-PDBQT: ATOM     31  N   UNL     1       6.026   1.129  -0.301  1.00  0.00    -0.340 N 
INPUT-LIGAND-PDBQT: ATOM     32  H   UNL     1       5.917   0.703  -1.254  1.00  0.00     0.346 HD
INPUT-LIGAND-PDBQT: ATOM     33  H   UNL     1       5.266   0.752   0.314  1.00  0.00     0.346 HD
INPUT-LIGAND-PDBQT: BRANCH  31  34
INPUT-LIGAND-PDBQT: ATOM     34  C   UNL     1       7.348   0.773   0.269  1.00  0.00     0.182 C 
INPUT-LIGAND-PDBQT: ATOM     35  C   UNL     1       8.463   0.843  -0.785  1.00  0.00     0.065 C 
INPUT-LIGAND-PDBQT: ATOM     36  C   UNL     1       7.374  -0.685   0.731  1.00  0.00     0.065 C 
INPUT-LIGAND-PDBQT: ATOM     37  C   UNL     1       8.604  -0.562  -1.369  1.00  0.00     0.006 C 
INPUT-LIGAND-PDBQT: ATOM     38  C   UNL     1       7.779  -1.495  -0.488  1.00  0.00     0.006 C 
INPUT-LIGAND-PDBQT: ENDBRANCH  31  34
INPUT-LIGAND-PDBQT: ENDBRANCH  30  31
INPUT-LIGAND-PDBQT: ENDBRANCH  28  30
INPUT-LIGAND-PDBQT: ENDBRANCH   5  24
INPUT-LIGAND-PDBQT: TORSDOF 8


    FINAL DOCKED STATE:
    ________________________


Run:   1 / 20
Time taken for this run:   0.035s

DOCKED: MODEL        1
DOCKED: USER    Run = 1
DOCKED: USER
DOCKED: USER    Estimated Free Energy of Binding    =  -9.20 kcal/mol  [=(1)+(2)+(3)-(4)]
DOCKED: USER
DOCKED: USER    (1) Final Intermolecular Energy     = -11.59 kcal/mol
DOCKED: USER        vdW + Hbond + desolv Energy     = -10.16 kcal/mol
DOCKED: USER        Electrostatic Energy            =  -1.43 kcal/mol
DOCKED: USER        Moving Ligand-Fixed Receptor    = -11.59 kcal/mol
DOCKED: USER        Moving Ligand-Moving Receptor   =  +0.00 kcal/mol
DOCKED: USER    (2) Final Total Internal Energy     =  -2.17 kcal/mol
DOCKED: USER    (3) Torsional Free Energy           =  +2.39 kcal/mol
DOCKED: USER    (4) Unbound System's Energy         =  -2.17 kcal/mol
DOCKED: USER
DOCKED: USER
DOCKED: REMARK SMILES O=C(NCc1cccc(-c2cccc(C[NH2+]C3CCCC3)c2)c1)c1ccc(-c2ccccc2)cc1
DOCKED: REMARK SMILES IDX 5 1 6 2 7 3 8 4 9 5 23 6 4 7 3 8 2 9 1 10 24 12 25 13 35 14
DOCKED: REMARK SMILES IDX 26 15 34 16 27 17 28 18 29 19 33 20 30 21 32 22 31 23 10 24
DOCKED: REMARK SMILES IDX 11 25 22 26 12 27 14 28 13 29 15 30 16 31 17 34 18 35 21 36
DOCKED: REMARK SMILES IDX 19 37 20 38
DOCKED: REMARK H PARENT 3 11 16 32 16 33
DOCKED: USER                              x       y       z     vdW  Elec       q    Type
DOCKED: USER                           _______ _______ _______ _____ _____    ______ ____
DOCKED: ROOT
DOCKED: ATOM      1  C   UNL     1     141.140  78.266 222.523 -0.46 +0.01    -0.028 A  
DOCKED: ATOM      2  C   UNL     1     141.489  79.035 223.642 -0.60 -0.00    +0.005 A  
DOCKED: ATOM      3  C   UNL     1     141.913  80.355 223.484 -0.62 -0.00    +0.001 A  
DOCKED: ATOM      4  C   UNL     1     141.984  80.922 222.209 -0.50 -0.00    +0.009 A  
DOCKED: ATOM      5  C   UNL     1     141.625  80.174 221.073 -0.36 +0.01    -0.018 A  
DOCKED: ATOM      6  C   UNL     1     141.200  78.841 221.243 -0.32 -0.01    +0.014 A  
DOCKED: ENDROOT
DOCKED: BRANCH   1   7
DOCKED: ATOM      7  C   UNL     1     140.657  76.853 222.704 -0.22 -0.04    +0.152 C  
DOCKED: BRANCH   7   8
DOCKED: ATOM      8  N   UNL     1     141.443  75.942 221.876 -0.10 +0.14    -0.348 N  
DOCKED: ATOM      9  C   UNL     1     141.060  74.573 221.663 -0.11 -0.03    +0.251 C  
DOCKED: ATOM     10  O   UNL     1     139.928  74.175 222.053 -0.82 +0.03    -0.269 OA 
DOCKED: ATOM     11  H   UNL     1     142.277  76.330 221.381 -0.49 -0.14    +0.164 HD 
DOCKED: BRANCH   9  12
DOCKED: ATOM     12  C   UNL     1     141.963  73.624 220.970 -0.24 -0.01    +0.039 A  
DOCKED: ATOM     13  C   UNL     1     143.318  73.932 220.763 -0.29 -0.00    +0.014 A  
DOCKED: ATOM     14  C   UNL     1     141.473  72.385 220.526 -0.19 -0.00    +0.014 A  
DOCKED: ATOM     15  C   UNL     1     144.160  73.026 220.111 -0.37 -0.00    +0.009 A  
DOCKED: ATOM     16  C   UNL     1     142.313  71.482 219.871 -0.16 -0.00    +0.009 A  
DOCKED: ATOM     17  C   UNL     1     143.667  71.792 219.654 -0.22 +0.00    -0.018 A  
DOCKED: BRANCH  17  18
DOCKED: ATOM     18  C   UNL     1     144.558  70.831 218.952 -0.22 -0.00    -0.018 A  
DOCKED: ATOM     19  C   UNL     1     144.769  69.539 219.471 -0.25 +0.00    +0.009 A  
DOCKED: ATOM     20  C   UNL     1     145.198  71.194 217.752 -0.17 +0.00    +0.009 A  
DOCKED: ATOM     21  C   UNL     1     145.598  68.633 218.799 -0.38 +0.00    +0.001 A  
DOCKED: ATOM     22  C   UNL     1     146.026  70.284 217.086 -0.16 +0.00    +0.001 A  
DOCKED: ATOM     23  C   UNL     1     146.224  69.005 217.608 -0.24 +0.00    +0.000 A  
DOCKED: ENDBRANCH  17  18
DOCKED: ENDBRANCH   9  12
DOCKED: ENDBRANCH   7   8
DOCKED: ENDBRANCH   1   7
DOCKED: BRANCH   5  24
DOCKED: ATOM     24  C   UNL     1     141.689  80.781 219.719 -0.29 +0.01    -0.018 A  
DOCKED: ATOM     25  C   UNL     1     141.666  82.180 219.561 -0.20 -0.00    +0.009 A  
DOCKED: ATOM     26  C   UNL     1     141.767  79.969 218.572 -0.27 -0.01    +0.018 A  
DOCKED: ATOM     27  C   UNL     1     141.718  82.750 218.287 -0.22 -0.00    +0.001 A  
DOCKED: ATOM     28  C   UNL     1     141.831  80.542 217.291 -0.22 -0.01    +0.007 A  
DOCKED: ATOM     29  C   UNL     1     141.794  81.936 217.155 -0.19 -0.01    +0.009 A  
DOCKED: BRANCH  28  30
DOCKED: ATOM     30  C   UNL     1     141.872  79.663 216.066 -0.07 -0.27    +0.297 C  
DOCKED: BRANCH  30  31
DOCKED: ATOM     31  N   UNL     1     142.926  78.642 216.198 +0.25 +0.49    -0.340 N  
DOCKED: ATOM     32  H   UNL     1     143.506  78.838 217.051 -0.39 -0.62    +0.346 HD 
DOCKED: ATOM     33  H   UNL     1     143.545  78.720 215.357 -0.14 -0.76    +0.346 HD 
DOCKED: BRANCH  31  34
DOCKED: ATOM     34  C   UNL     1     142.358  77.274 216.271 -0.13 -0.12    +0.182 C  
DOCKED: ATOM     35  C   UNL     1     141.243  77.172 217.322 -0.08 -0.03    +0.065 C  
DOCKED: ATOM     36  C   UNL     1     143.406  76.268 216.753 -0.21 -0.04    +0.065 C  
DOCKED: ATOM     37  C   UNL     1     141.903  76.709 218.620 -0.21 -0.00    +0.006 C  
DOCKED: ATOM     38  C   UNL     1     143.327  76.287 218.269 -0.30 -0.00    +0.006 C  
DOCKED: ENDBRANCH  31  34
DOCKED: ENDBRANCH  30  31
DOCKED: ENDBRANCH  28  30
DOCKED: ENDBRANCH   5  24
DOCKED: TORSDOF 8
DOCKED: TER
DOCKED: ENDMDL
________________________________________________________________________________


    FINAL DOCKED STATE:
    ________________________


Run:   2 / 20
Time taken for this run:   0.035s

DOCKED: MODEL        2
DOCKED: USER    Run = 2
DOCKED: USER
DOCKED: USER    Estimated Free Energy of Binding    =  -9.12 kcal/mol  [=(1)+(2)+(3)-(4)]
DOCKED: USER
DOCKED: USER    (1) Final Intermolecular Energy     = -11.50 kcal/mol
DOCKED: USER        vdW + Hbond + desolv Energy     = -10.67 kcal/mol
DOCKED: USER        Electrostatic Energy            =  -0.83 kcal/mol
DOCKED: USER        Moving Ligand-Fixed Receptor    = -11.50 kcal/mol
DOCKED: USER        Moving Ligand-Moving Receptor   =  +0.00 kcal/mol
DOCKED: USER    (2) Final Total Internal Energy     =  -1.51 kcal/mol
DOCKED: USER    (3) Torsional Free Energy           =  +2.39 kcal/mol
DOCKED: USER    (4) Unbound System's Energy         =  -1.51 kcal/mol
DOCKED: USER
DOCKED: USER
DOCKED: REMARK SMILES O=C(NCc1cccc(-c2cccc(C[NH2+]C3CCCC3)c2)c1)c1ccc(-c2ccccc2)cc1
DOCKED: REMARK SMILES IDX 5 1 6 2 7 3 8 4 9 5 23 6 4 7 3 8 2 9 1 10 24 12 25 13 35 14
DOCKED: REMARK SMILES IDX 26 15 34 16 27 17 28 18 29 19 33 20 30 21 32 22 31 23 10 24
DOCKED: REMARK SMILES IDX 11 25 22 26 12 27 14 28 13 29 15 30 16 31 17 34 18 35 21 36
DOCKED: REMARK SMILES IDX 19 37 20 38
DOCKED: REMARK H PARENT 3 11 16 32 16 33
DOCKED: USER                              x       y       z     vdW  Elec       q    Type
DOCKED: USER                           _______ _______ _______ _____ _____    ______ ____
DOCKED: ROOT
DOCKED: ATOM      1  C   UNL     1     136.147  75.851 221.512 -0.09 +0.01    -0.028 A  
DOCKED: ATOM      2  C   UNL     1     134.865  76.404 221.389 -0.05 -0.00    +0.005 A  
DOCKED: ATOM      3  C   UNL     1     134.645  77.748 221.696 -0.05 -0.00    +0.001 A  
DOCKED: ATOM      4  C   UNL     1     135.706  78.553 222.119 -0.09 -0.00    +0.009 A  
DOCKED: ATOM      5  C   UNL     1     137.003  78.023 222.236 -0.17 +0.00    -0.018 A  
DOCKED: ATOM      6  C   UNL     1     137.214  76.665 221.926 -0.18 -0.00    +0.014 A  
DOCKED: ENDROOT
DOCKED: BRANCH   1   7
DOCKED: ATOM      7  C   UNL     1     136.380  74.409 221.152 -0.06 -0.03    +0.152 C  
DOCKED: BRANCH   7   8
DOCKED: ATOM      8  N   UNL     1     137.124  73.739 222.216 -0.06 +0.11    -0.348 N  
DOCKED: ATOM      9  C   UNL     1     138.014  72.640 221.956 -0.10 -0.07    +0.251 C  
DOCKED: ATOM     10  O   UNL     1     138.306  72.342 220.765 -0.04 +0.05    -0.269 OA 
DOCKED: ATOM     11  H   UNL     1     137.041  74.121 223.184 -0.45 -0.09    +0.164 HD 
DOCKED: BRANCH   9  12
DOCKED: ATOM     12  C   UNL     1     138.616  71.864 223.066 -0.19 -0.01    +0.039 A  
DOCKED: ATOM     13  C   UNL     1     139.953  72.062 223.448 -0.31 -0.00    +0.014 A  
DOCKED: ATOM     14  C   UNL     1     137.841  70.927 223.768 -0.25 -0.00    +0.014 A  
DOCKED: ATOM     15  C   UNL     1     140.507  71.325 224.500 -0.47 -0.00    +0.009 A  
DOCKED: ATOM     16  C   UNL     1     138.395  70.187 224.816 -0.30 -0.00    +0.009 A  
DOCKED: ATOM     17  C   UNL     1     139.735  70.377 225.194 -0.44 +0.00    -0.018 A  
DOCKED: BRANCH  17  18
DOCKED: ATOM     18  C   UNL     1     140.325  69.586 226.306 -0.51 +0.00    -0.018 A  
DOCKED: ATOM     19  C   UNL     1     140.679  70.207 227.519 -0.62 -0.00    +0.009 A  
DOCKED: ATOM     20  C   UNL     1     140.531  68.201 226.167 -0.59 -0.00    +0.009 A  
DOCKED: ATOM     21  C   UNL     1     141.221  69.457 228.568 -0.44 -0.00    +0.001 A  
DOCKED: ATOM     22  C   UNL     1     141.074  67.455 227.220 -0.50 -0.00    +0.001 A  
DOCKED: ATOM     23  C   UNL     1     141.417  68.082 228.419 -0.54 -0.00    +0.000 A  
DOCKED: ENDBRANCH  17  18
DOCKED: ENDBRANCH   9  12
DOCKED: ENDBRANCH   7   8
DOCKED: ENDBRANCH   1   7
DOCKED: BRANCH   5  24
DOCKED: ATOM     24  C   UNL     1     138.132  78.883 222.675 -0.24 +0.00    -0.018 A  
DOCKED: ATOM     25  C   UNL     1     137.982  79.756 223.770 -0.28 -0.00    +0.009 A  
DOCKED: ATOM     26  C   UNL     1     139.368  78.846 222.001 -0.24 -0.00    +0.018 A  
DOCKED: ATOM     27  C   UNL     1     139.041  80.571 224.176 -0.36 -0.00    +0.001 A  
DOCKED: ATOM     28  C   UNL     1     140.437  79.656 222.416 -0.35 -0.00    +0.007 A  
DOCKED: ATOM     29  C   UNL     1     140.262  80.527 223.500 -0.45 -0.00    +0.009 A  
DOCKED: BRANCH  28  30
DOCKED: ATOM     30  C   UNL     1     141.742  79.640 221.661 -0.26 -0.13    +0.297 C  
DOCKED: BRANCH  30  31
DOCKED: ATOM     31  N   UNL     1     142.229  78.258 221.503 +0.02 +0.26    -0.340 N  
DOCKED: ATOM     32  H   UNL     1     142.074  77.723 222.392 -0.23 -0.27    +0.346 HD 
DOCKED: ATOM     33  H   UNL     1     143.261  78.307 221.327 -0.35 -0.47    +0.346 HD 
DOCKED: BRANCH  31  34
DOCKED: ATOM     34  C   UNL     1     141.565  77.569 220.370 -0.22 -0.10    +0.182 C  
DOCKED: ATOM     35  C   UNL     1     140.903  76.254 220.809 -0.26 -0.02    +0.065 C  
DOCKED: ATOM     36  C   UNL     1     142.585  77.130 219.318 -0.31 -0.04    +0.065 C  
DOCKED: ATOM     37  C   UNL     1     141.927  75.146 220.571 -0.29 -0.00    +0.006 C  
DOCKED: ATOM     38  C   UNL     1     143.064  75.758 219.758 -0.37 -0.00    +0.006 C  
DOCKED: ENDBRANCH  31  34
DOCKED: ENDBRANCH  30  31
DOCKED: ENDBRANCH  28  30
DOCKED: ENDBRANCH   5  24
DOCKED: TORSDOF 8
DOCKED: TER
DOCKED: ENDMDL
________________________________________________________________________________


    FINAL DOCKED STATE:
    ________________________


Run:   3 / 20
Time taken for this run:   0.035s

DOCKED: MODEL        3
DOCKED: USER    Run = 3
DOCKED: USER
DOCKED: USER    Estimated Free Energy of Binding    =  -8.47 kcal/mol  [=(1)+(2)+(3)-(4)]
DOCKED: USER
DOCKED: USER    (1) Final Intermolecular Energy     = -10.86 kcal/mol
DOCKED: USER        vdW + Hbond + desolv Energy     =  -9.56 kcal/mol
DOCKED: USER        Electrostatic Energy            =  -1.30 kcal/mol
DOCKED: USER        Moving Ligand-Fixed Receptor    = -10.86 kcal/mol
DOCKED: USER        Moving Ligand-Moving Receptor   =  +0.00 kcal/mol
DOCKED: USER    (2) Final Total Internal Energy     =  -2.07 kcal/mol
DOCKED: USER    (3) Torsional Free Energy           =  +2.39 kcal/mol
DOCKED: USER    (4) Unbound System's Energy         =  -2.07 kcal/mol
DOCKED: USER
DOCKED: USER
DOCKED: REMARK SMILES O=C(NCc1cccc(-c2cccc(C[NH2+]C3CCCC3)c2)c1)c1ccc(-c2ccccc2)cc1
DOCKED: REMARK SMILES IDX 5 1 6 2 7 3 8 4 9 5 23 6 4 7 3 8 2 9 1 10 24 12 25 13 35 14
DOCKED: REMARK SMILES IDX 26 15 34 16 27 17 28 18 29 19 33 20 30 21 32 22 31 23 10 24
DOCKED: REMARK SMILES IDX 11 25 22 26 12 27 14 28 13 29 15 30 16 31 17 34 18 35 21 36
DOCKED: REMARK SMILES IDX 19 37 20 38
DOCKED: REMARK H PARENT 3 11 16 32 16 33
DOCKED: USER                              x       y       z     vdW  Elec       q    Type
DOCKED: USER                           _______ _______ _______ _____ _____    ______ ____
DOCKED: ROOT
DOCKED: ATOM      1  C   UNL     1     140.757  79.268 222.328 -0.37 +0.01    -0.028 A  
DOCKED: ATOM      2  C   UNL     1     140.746  80.371 223.193 -0.46 -0.00    +0.005 A  
DOCKED: ATOM      3  C   UNL     1     141.093  81.638 222.723 -0.44 -0.00    +0.001 A  
DOCKED: ATOM      4  C   UNL     1     141.444  81.817 221.382 -0.38 -0.00    +0.009 A  
DOCKED: ATOM      5  C   UNL     1     141.447  80.728 220.492 -0.32 +0.01    -0.018 A  
DOCKED: ATOM      6  C   UNL     1     141.098  79.452 220.978 -0.29 -0.01    +0.014 A  
DOCKED: ENDROOT
DOCKED: BRANCH   1   7
DOCKED: ATOM      7  C   UNL     1     140.354  77.911 222.836 -0.24 -0.04    +0.152 C  
DOCKED: BRANCH   7   8
DOCKED: ATOM      8  N   UNL     1     141.116  76.870 222.149 -0.17 +0.15    -0.348 N  
DOCKED: ATOM      9  C   UNL     1     140.595  75.546 221.946 -0.20 -0.05    +0.251 C  
DOCKED: ATOM     10  O   UNL     1     139.384  75.305 222.208 -0.48 +0.05    -0.269 OA 
DOCKED: ATOM     11  H   UNL     1     142.043  77.130 221.747 -0.47 -0.14    +0.164 HD 
DOCKED: BRANCH   9  12
DOCKED: ATOM     12  C   UNL     1     141.450  74.461 221.410 -0.24 -0.01    +0.039 A  
DOCKED: ATOM     13  C   UNL     1     142.706  74.740 220.844 -0.24 -0.01    +0.014 A  
DOCKED: ATOM     14  C   UNL     1     141.019  73.127 221.479 -0.28 -0.00    +0.014 A  
DOCKED: ATOM     15  C   UNL     1     143.505  73.706 220.345 -0.35 -0.00    +0.009 A  
DOCKED: ATOM     16  C   UNL     1     141.814  72.094 220.976 -0.23 -0.00    +0.009 A  
DOCKED: ATOM     17  C   UNL     1     143.067  72.372 220.402 -0.27 +0.00    -0.018 A  
DOCKED: BRANCH  17  18
DOCKED: ATOM     18  C   UNL     1     143.910  71.272 219.863 -0.25 +0.00    -0.018 A  
DOCKED: ATOM     19  C   UNL     1     143.399  69.965 219.753 -0.19 -0.00    +0.009 A  
DOCKED: ATOM     20  C   UNL     1     145.231  71.522 219.448 -0.31 +0.00    +0.009 A  
DOCKED: ATOM     21  C   UNL     1     144.191  68.936 219.232 -0.28 +0.00    +0.001 A  
DOCKED: ATOM     22  C   UNL     1     146.019  70.488 218.929 -0.28 +0.00    +0.001 A  
DOCKED: ATOM     23  C   UNL     1     145.499  69.198 218.820 -0.34 +0.00    +0.000 A  
DOCKED: ENDBRANCH  17  18
DOCKED: ENDBRANCH   9  12
DOCKED: ENDBRANCH   7   8
DOCKED: ENDBRANCH   1   7
DOCKED: BRANCH   5  24
DOCKED: ATOM     24  C   UNL     1     141.810  80.921 219.065 -0.29 +0.01    -0.018 A  
DOCKED: ATOM     25  C   UNL     1     142.157  82.198 218.582 -0.21 -0.00    +0.009 A  
DOCKED: ATOM     26  C   UNL     1     141.804  79.835 218.169 -0.26 -0.01    +0.018 A  
DOCKED: ATOM     27  C   UNL     1     142.488  82.381 217.238 -0.28 -0.00    +0.001 A  
DOCKED: ATOM     28  C   UNL     1     142.149  80.015 216.820 -0.19 -0.01    +0.007 A  
DOCKED: ATOM     29  C   UNL     1     142.479  81.297 216.358 -0.16 -0.01    +0.009 A  
DOCKED: BRANCH  28  30
DOCKED: ATOM     30  C   UNL     1     142.100  78.853 215.860 -0.06 -0.28    +0.297 C  
DOCKED: BRANCH  30  31
DOCKED: ATOM     31  N   UNL     1     143.289  77.999 216.023 +0.10 +0.45    -0.340 N  
DOCKED: ATOM     32  H   UNL     1     143.945  78.432 216.718 -0.32 -0.70    +0.346 HD 
DOCKED: ATOM     33  H   UNL     1     143.776  77.960 215.096 +0.02 -0.52    +0.346 HD 
DOCKED: BRANCH  31  34
DOCKED: ATOM     34  C   UNL     1     142.925  76.627 216.451 -0.16 -0.12    +0.182 C  
DOCKED: ATOM     35  C   UNL     1     141.403  76.421 216.477 -0.06 -0.03    +0.065 C  
DOCKED: ATOM     36  C   UNL     1     143.352  76.369 217.897 -0.25 -0.04    +0.065 C  
DOCKED: ATOM     37  C   UNL     1     140.942  76.730 217.900 -0.08 -0.00    +0.006 C  
DOCKED: ATOM     38  C   UNL     1     142.198  76.851 218.758 -0.27 -0.00    +0.006 C  
DOCKED: ENDBRANCH  31  34
DOCKED: ENDBRANCH  30  31
DOCKED: ENDBRANCH  28  30
DOCKED: ENDBRANCH   5  24
DOCKED: TORSDOF 8
DOCKED: TER
DOCKED: ENDMDL
________________________________________________________________________________


    FINAL DOCKED STATE:
    ________________________


Run:   4 / 20
Time taken for this run:   0.035s

DOCKED: MODEL        4
DOCKED: USER    Run = 4
DOCKED: USER
DOCKED: USER    Estimated Free Energy of Binding    =  -8.67 kcal/mol  [=(1)+(2)+(3)-(4)]
DOCKED: USER
DOCKED: USER    (1) Final Intermolecular Energy     = -11.06 kcal/mol
DOCKED: USER        vdW + Hbond + desolv Energy     = -10.66 kcal/mol
DOCKED: USER        Electrostatic Energy            =  -0.39 kcal/mol
DOCKED: USER        Moving Ligand-Fixed Receptor    = -11.06 kcal/mol
DOCKED: USER        Moving Ligand-Moving Receptor   =  +0.00 kcal/mol
DOCKED: USER    (2) Final Total Internal Energy     =  -2.23 kcal/mol
DOCKED: USER    (3) Torsional Free Energy           =  +2.39 kcal/mol
DOCKED: USER    (4) Unbound System's Energy         =  -2.23 kcal/mol
DOCKED: USER
DOCKED: USER
DOCKED: REMARK SMILES O=C(NCc1cccc(-c2cccc(C[NH2+]C3CCCC3)c2)c1)c1ccc(-c2ccccc2)cc1
DOCKED: REMARK SMILES IDX 5 1 6 2 7 3 8 4 9 5 23 6 4 7 3 8 2 9 1 10 24 12 25 13 35 14
DOCKED: REMARK SMILES IDX 26 15 34 16 27 17 28 18 29 19 33 20 30 21 32 22 31 23 10 24
DOCKED: REMARK SMILES IDX 11 25 22 26 12 27 14 28 13 29 15 30 16 31 17 34 18 35 21 36
DOCKED: REMARK SMILES IDX 19 37 20 38
DOCKED: REMARK H PARENT 3 11 16 32 16 33
DOCKED: USER                              x       y       z     vdW  Elec       q    Type
DOCKED: USER                           _______ _______ _______ _____ _____    ______ ____
DOCKED: ROOT
DOCKED: ATOM      1  C   UNL     1     132.725  78.371 227.501 -0.27 +0.00    -0.028 A  
DOCKED: ATOM      2  C   UNL     1     131.753  77.797 228.332 -0.32 +0.00    +0.005 A  
DOCKED: ATOM      3  C   UNL     1     131.504  76.424 228.281 -0.29 +0.00    +0.001 A  
DOCKED: ATOM      4  C   UNL     1     132.230  75.612 227.405 -0.37 -0.00    +0.009 A  
DOCKED: ATOM      5  C   UNL     1     133.220  76.164 226.573 -0.35 +0.00    -0.018 A  
DOCKED: ATOM      6  C   UNL     1     133.462  77.551 226.631 -0.24 -0.00    +0.014 A  
DOCKED: ENDROOT
DOCKED: BRANCH   1   7
DOCKED: ATOM      7  C   UNL     1     133.006  79.846 227.584 -0.16 -0.02    +0.152 C  
DOCKED: BRANCH   7   8
DOCKED: ATOM      8  N   UNL     1     134.308  80.145 226.991 -0.01 +0.11    -0.348 N  
DOCKED: ATOM      9  C   UNL     1     134.474  80.387 225.585 -0.07 -0.04    +0.251 C  
DOCKED: ATOM     10  O   UNL     1     133.457  80.519 224.850 -0.04 +0.03    -0.269 OA 
DOCKED: ATOM     11  H   UNL     1     135.126  80.239 227.635 -0.45 -0.12    +0.164 HD 
DOCKED: BRANCH   9  12
DOCKED: ATOM     12  C   UNL     1     135.823  80.508 224.984 -0.17 -0.00    +0.039 A  
DOCKED: ATOM     13  C   UNL     1     136.155  79.829 223.799 -0.19 -0.00    +0.014 A  
DOCKED: ATOM     14  C   UNL     1     136.790  81.329 225.588 -0.40 -0.00    +0.014 A  
DOCKED: ATOM     15  C   UNL     1     137.431  79.956 223.241 -0.25 -0.00    +0.009 A  
DOCKED: ATOM     16  C   UNL     1     138.066  81.453 225.034 -0.25 -0.00    +0.009 A  
DOCKED: ATOM     17  C   UNL     1     138.402  80.767 223.854 -0.38 +0.00    -0.018 A  
DOCKED: BRANCH  17  18
DOCKED: ATOM     18  C   UNL     1     139.763  80.896 223.267 -0.38 +0.00    -0.018 A  
DOCKED: ATOM     19  C   UNL     1     139.985  81.720 222.148 -0.28 -0.00    +0.009 A  
DOCKED: ATOM     20  C   UNL     1     140.851  80.202 223.827 -0.47 -0.00    +0.009 A  
DOCKED: ATOM     21  C   UNL     1     141.270  81.849 221.608 -0.38 -0.00    +0.001 A  
DOCKED: ATOM     22  C   UNL     1     142.133  80.335 223.282 -0.63 -0.00    +0.001 A  
DOCKED: ATOM     23  C   UNL     1     142.342  81.158 222.175 -0.40 -0.00    +0.000 A  
DOCKED: ENDBRANCH  17  18
DOCKED: ENDBRANCH   9  12
DOCKED: ENDBRANCH   7   8
DOCKED: ENDBRANCH   1   7
DOCKED: BRANCH   5  24
DOCKED: ATOM     24  C   UNL     1     133.999  75.298 225.651 -0.34 +0.00    -0.018 A  
DOCKED: ATOM     25  C   UNL     1     134.016  73.901 225.826 -0.33 +0.00    +0.009 A  
DOCKED: ATOM     26  C   UNL     1     134.739  75.859 224.593 -0.29 -0.00    +0.018 A  
DOCKED: ATOM     27  C   UNL     1     134.756  73.088 224.964 -0.27 -0.00    +0.001 A  
DOCKED: ATOM     28  C   UNL     1     135.474  75.042 223.719 -0.26 -0.00    +0.007 A  
DOCKED: ATOM     29  C   UNL     1     135.487  73.655 223.918 -0.23 -0.00    +0.009 A  
DOCKED: BRANCH  28  30
DOCKED: ATOM     30  C   UNL     1     136.298  75.655 222.615 -0.13 -0.07    +0.297 C  
DOCKED: BRANCH  30  31
DOCKED: ATOM     31  N   UNL     1     137.695  75.196 222.698 +0.02 +0.12    -0.340 N  
DOCKED: ATOM     32  H   UNL     1     137.722  74.148 222.764 -0.44 -0.18    +0.346 HD 
DOCKED: ATOM     33  H   UNL     1     138.102  75.589 223.580 -0.24 -0.15    +0.346 HD 
DOCKED: BRANCH  31  34
DOCKED: ATOM     34  C   UNL     1     138.494  75.654 221.535 -0.17 -0.04    +0.182 C  
DOCKED: ATOM     35  C   UNL     1     139.974  75.268 221.671 -0.29 -0.01    +0.065 C  
DOCKED: ATOM     36  C   UNL     1     138.521  77.181 221.453 -0.17 -0.01    +0.065 C  
DOCKED: ATOM     37  C   UNL     1     140.680  76.458 222.320 -0.39 -0.00    +0.006 C  
DOCKED: ATOM     38  C   UNL     1     139.690  77.618 222.318 -0.35 -0.00    +0.006 C  
DOCKED: ENDBRANCH  31  34
DOCKED: ENDBRANCH  30  31
DOCKED: ENDBRANCH  28  30
DOCKED: ENDBRANCH   5  24
DOCKED: TORSDOF 8
DOCKED: TER
DOCKED: ENDMDL
________________________________________________________________________________


    FINAL DOCKED STATE:
    ________________________


Run:   5 / 20
Time taken for this run:   0.035s

DOCKED: MODEL        5
DOCKED: USER    Run = 5
DOCKED: USER
DOCKED: USER    Estimated Free Energy of Binding    =  -9.89 kcal/mol  [=(1)+(2)+(3)-(4)]
DOCKED: USER
DOCKED: USER    (1) Final Intermolecular Energy     = -12.28 kcal/mol
DOCKED: USER        vdW + Hbond + desolv Energy     = -10.83 kcal/mol
DOCKED: USER        Electrostatic Energy            =  -1.45 kcal/mol
DOCKED: USER        Moving Ligand-Fixed Receptor    = -12.28 kcal/mol
DOCKED: USER        Moving Ligand-Moving Receptor   =  +0.00 kcal/mol
DOCKED: USER    (2) Final Total Internal Energy     =  -1.85 kcal/mol
DOCKED: USER    (3) Torsional Free Energy           =  +2.39 kcal/mol
DOCKED: USER    (4) Unbound System's Energy         =  -1.85 kcal/mol
DOCKED: USER
DOCKED: USER
DOCKED: REMARK SMILES O=C(NCc1cccc(-c2cccc(C[NH2+]C3CCCC3)c2)c1)c1ccc(-c2ccccc2)cc1
DOCKED: REMARK SMILES IDX 5 1 6 2 7 3 8 4 9 5 23 6 4 7 3 8 2 9 1 10 24 12 25 13 35 14
DOCKED: REMARK SMILES IDX 26 15 34 16 27 17 28 18 29 19 33 20 30 21 32 22 31 23 10 24
DOCKED: REMARK SMILES IDX 11 25 22 26 12 27 14 28 13 29 15 30 16 31 17 34 18 35 21 36
DOCKED: REMARK SMILES IDX 19 37 20 38
DOCKED: REMARK H PARENT 3 11 16 32 16 33
DOCKED: USER                              x       y       z     vdW  Elec       q    Type
DOCKED: USER                           _______ _______ _______ _____ _____    ______ ____
DOCKED: ROOT
DOCKED: ATOM      1  C   UNL     1     141.162  78.256 222.578 -0.46 +0.01    -0.028 A  
DOCKED: ATOM      2  C   UNL     1     141.851  78.754 223.691 -0.61 -0.00    +0.005 A  
DOCKED: ATOM      3  C   UNL     1     142.451  80.013 223.642 -0.65 -0.00    +0.001 A  
DOCKED: ATOM      4  C   UNL     1     142.361  80.789 222.483 -0.55 -0.00    +0.009 A  
DOCKED: ATOM      5  C   UNL     1     141.662  80.314 221.358 -0.39 +0.01    -0.018 A  
DOCKED: ATOM      6  C   UNL     1     141.062  79.041 221.418 -0.32 -0.01    +0.014 A  
DOCKED: ENDROOT
DOCKED: BRANCH   1   7
DOCKED: ATOM      7  C   UNL     1     140.493  76.910 222.649 -0.22 -0.04    +0.152 C  
DOCKED: BRANCH   7   8
DOCKED: ATOM      8  N   UNL     1     141.302  75.908 221.958 -0.13 +0.12    -0.348 N  
DOCKED: ATOM      9  C   UNL     1     140.837  74.567 221.735 -0.09 -0.03    +0.251 C  
DOCKED: ATOM     10  O   UNL     1     139.635  74.274 221.981 -0.69 +0.04    -0.269 OA 
DOCKED: ATOM     11  H   UNL     1     142.223  76.210 221.568 -0.51 -0.13    +0.164 HD 
DOCKED: BRANCH   9  12
DOCKED: ATOM     12  C   UNL     1     141.741  73.524 221.194 -0.25 -0.01    +0.039 A  
DOCKED: ATOM     13  C   UNL     1     143.057  73.832 220.812 -0.27 -0.00    +0.014 A  
DOCKED: ATOM     14  C   UNL     1     141.293  72.198 221.076 -0.22 -0.00    +0.014 A  
DOCKED: ATOM     15  C   UNL     1     143.901  72.837 220.307 -0.35 -0.00    +0.009 A  
DOCKED: ATOM     16  C   UNL     1     142.133  71.205 220.568 -0.14 -0.00    +0.009 A  
DOCKED: ATOM     17  C   UNL     1     143.447  71.513 220.176 -0.25 +0.00    -0.018 A  
DOCKED: BRANCH  17  18
DOCKED: ATOM     18  C   UNL     1     144.339  70.455 219.630 -0.24 -0.00    -0.018 A  
DOCKED: ATOM     19  C   UNL     1     144.058  69.094 219.856 -0.26 +0.00    +0.009 A  
DOCKED: ATOM     20  C   UNL     1     145.474  70.798 218.873 -0.29 +0.00    +0.009 A  
DOCKED: ATOM     21  C   UNL     1     144.892  68.102 219.329 -0.41 -0.00    +0.001 A  
DOCKED: ATOM     22  C   UNL     1     146.305  69.801 218.349 -0.28 +0.00    +0.001 A  
DOCKED: ATOM     23  C   UNL     1     146.013  68.455 218.576 -0.39 +0.00    +0.000 A  
DOCKED: ENDBRANCH  17  18
DOCKED: ENDBRANCH   9  12
DOCKED: ENDBRANCH   7   8
DOCKED: ENDBRANCH   1   7
DOCKED: BRANCH   5  24
DOCKED: ATOM     24  C   UNL     1     141.557  81.145 220.131 -0.29 +0.01    -0.018 A  
DOCKED: ATOM     25  C   UNL     1     141.379  82.538 220.223 -0.24 -0.00    +0.009 A  
DOCKED: ATOM     26  C   UNL     1     141.626  80.552 218.856 -0.26 -0.01    +0.018 A  
DOCKED: ATOM     27  C   UNL     1     141.271  83.317 219.069 -0.16 -0.00    +0.001 A  
DOCKED: ATOM     28  C   UNL     1     141.529  81.335 217.694 -0.20 -0.00    +0.007 A  
DOCKED: ATOM     29  C   UNL     1     141.340  82.719 217.809 -0.17 -0.00    +0.009 A  
DOCKED: BRANCH  28  30
DOCKED: ATOM     30  C   UNL     1     141.561  80.686 216.333 -0.08 -0.22    +0.297 C  
DOCKED: BRANCH  30  31
DOCKED: ATOM     31  N   UNL     1     142.565  79.607 216.301 +0.19 +0.48    -0.340 N  
DOCKED: ATOM     32  H   UNL     1     143.158  79.647 217.166 -0.39 -0.60    +0.346 HD 
DOCKED: ATOM     33  H   UNL     1     143.183  79.780 215.472 -0.37 -0.84    +0.346 HD 
DOCKED: BRANCH  31  34
DOCKED: ATOM     34  C   UNL     1     141.932  78.272 216.177 -0.12 -0.14    +0.182 C  
DOCKED: ATOM     35  C   UNL     1     140.881  78.034 217.272 -0.08 -0.03    +0.065 C  
DOCKED: ATOM     36  C   UNL     1     142.953  77.155 216.403 -0.20 -0.05    +0.065 C  
DOCKED: ATOM     37  C   UNL     1     141.596  77.324 218.421 -0.19 -0.00    +0.006 C  
DOCKED: ATOM     38  C   UNL     1     142.970  76.912 217.902 -0.30 -0.00    +0.006 C  
DOCKED: ENDBRANCH  31  34
DOCKED: ENDBRANCH  30  31
DOCKED: ENDBRANCH  28  30
DOCKED: ENDBRANCH   5  24
DOCKED: TORSDOF 8
DOCKED: TER
DOCKED: ENDMDL
________________________________________________________________________________


    FINAL DOCKED STATE:
    ________________________


Run:   6 / 20
Time taken for this run:   0.035s

DOCKED: MODEL        6
DOCKED: USER    Run = 6
DOCKED: USER
DOCKED: USER    Estimated Free Energy of Binding    =  -9.25 kcal/mol  [=(1)+(2)+(3)-(4)]
DOCKED: USER
DOCKED: USER    (1) Final Intermolecular Energy     = -11.64 kcal/mol
DOCKED: USER        vdW + Hbond + desolv Energy     = -10.52 kcal/mol
DOCKED: USER        Electrostatic Energy            =  -1.12 kcal/mol
DOCKED: USER        Moving Ligand-Fixed Receptor    = -11.64 kcal/mol
DOCKED: USER        Moving Ligand-Moving Receptor   =  +0.00 kcal/mol
DOCKED: USER    (2) Final Total Internal Energy     =  -1.23 kcal/mol
DOCKED: USER    (3) Torsional Free Energy           =  +2.39 kcal/mol
DOCKED: USER    (4) Unbound System's Energy         =  -1.23 kcal/mol
DOCKED: USER
DOCKED: USER
DOCKED: REMARK SMILES O=C(NCc1cccc(-c2cccc(C[NH2+]C3CCCC3)c2)c1)c1ccc(-c2ccccc2)cc1
DOCKED: REMARK SMILES IDX 5 1 6 2 7 3 8 4 9 5 23 6 4 7 3 8 2 9 1 10 24 12 25 13 35 14
DOCKED: REMARK SMILES IDX 26 15 34 16 27 17 28 18 29 19 33 20 30 21 32 22 31 23 10 24
DOCKED: REMARK SMILES IDX 11 25 22 26 12 27 14 28 13 29 15 30 16 31 17 34 18 35 21 36
DOCKED: REMARK SMILES IDX 19 37 20 38
DOCKED: REMARK H PARENT 3 11 16 32 16 33
DOCKED: USER                              x       y       z     vdW  Elec       q    Type
DOCKED: USER                           _______ _______ _______ _____ _____    ______ ____
DOCKED: ROOT
DOCKED: ATOM      1  C   UNL     1     141.080  74.306 219.073 -0.08 +0.01    -0.028 A  
DOCKED: ATOM      2  C   UNL     1     142.319  73.796 218.664 -0.10 -0.00    +0.005 A  
DOCKED: ATOM      3  C   UNL     1     143.447  74.618 218.644 -0.23 -0.00    +0.001 A  
DOCKED: ATOM      4  C   UNL     1     143.348  75.955 219.039 -0.36 -0.01    +0.009 A  
DOCKED: ATOM      5  C   UNL     1     142.117  76.484 219.467 -0.27 +0.01    -0.018 A  
DOCKED: ATOM      6  C   UNL     1     140.985  75.647 219.482 -0.13 -0.00    +0.014 A  
DOCKED: ENDROOT
DOCKED: BRANCH   1   7
DOCKED: ATOM      7  C   UNL     1     139.875  73.406 219.119 -0.03 -0.03    +0.152 C  
DOCKED: BRANCH   7   8
DOCKED: ATOM      8  N   UNL     1     139.940  72.537 220.292 -0.02 +0.06    -0.348 N  
DOCKED: ATOM      9  C   UNL     1     139.213  72.822 221.499 -0.13 -0.05    +0.251 C  
DOCKED: ATOM     10  O   UNL     1     138.357  73.748 221.507 -0.12 +0.07    -0.269 OA 
DOCKED: ATOM     11  H   UNL     1     140.491  71.654 220.214 +0.03 -0.03    +0.164 HD 
DOCKED: BRANCH   9  12
DOCKED: ATOM     12  C   UNL     1     139.435  72.028 222.730 -0.28 -0.01    +0.039 A  
DOCKED: ATOM     13  C   UNL     1     138.433  71.186 223.241 -0.25 -0.00    +0.014 A  
DOCKED: ATOM     14  C   UNL     1     140.670  72.093 223.395 -0.26 -0.00    +0.014 A  
DOCKED: ATOM     15  C   UNL     1     138.656  70.439 224.402 -0.33 -0.00    +0.009 A  
DOCKED: ATOM     16  C   UNL     1     140.893  71.351 224.558 -0.39 -0.00    +0.009 A  
DOCKED: ATOM     17  C   UNL     1     139.888  70.516 225.076 -0.45 +0.00    -0.018 A  
DOCKED: BRANCH  17  18
DOCKED: ATOM     18  C   UNL     1     140.125  69.730 226.316 -0.50 +0.00    -0.018 A  
DOCKED: ATOM     19  C   UNL     1     139.611  70.169 227.551 -0.50 -0.00    +0.009 A  
DOCKED: ATOM     20  C   UNL     1     140.861  68.532 226.273 -0.57 -0.00    +0.009 A  
DOCKED: ATOM     21  C   UNL     1     139.825  69.419 228.713 -0.51 -0.00    +0.001 A  
DOCKED: ATOM     22  C   UNL     1     141.073  67.787 227.439 -0.64 -0.00    +0.001 A  
DOCKED: ATOM     23  C   UNL     1     140.554  68.230 228.657 -0.61 -0.00    +0.000 A  
DOCKED: ENDBRANCH  17  18
DOCKED: ENDBRANCH   9  12
DOCKED: ENDBRANCH   7   8
DOCKED: ENDBRANCH   1   7
DOCKED: BRANCH   5  24
DOCKED: ATOM     24  C   UNL     1     142.016  77.902 219.899 -0.28 +0.01    -0.018 A  
DOCKED: ATOM     25  C   UNL     1     141.824  78.224 221.256 -0.35 -0.01    +0.009 A  
DOCKED: ATOM     26  C   UNL     1     142.102  78.946 218.959 -0.28 -0.01    +0.018 A  
DOCKED: ATOM     27  C   UNL     1     141.719  79.557 221.660 -0.43 -0.00    +0.001 A  
DOCKED: ATOM     28  C   UNL     1     142.009  80.287 219.365 -0.31 -0.00    +0.007 A  
DOCKED: ATOM     29  C   UNL     1     141.806  80.585 220.719 -0.36 -0.00    +0.009 A  
DOCKED: BRANCH  28  30
DOCKED: ATOM     30  C   UNL     1     142.060  81.397 218.345 -0.17 -0.17    +0.297 C  
DOCKED: BRANCH  30  31
DOCKED: ATOM     31  N   UNL     1     143.223  81.227 217.456 -0.13 +0.42    -0.340 N  
DOCKED: ATOM     32  H   UNL     1     143.263  80.237 217.109 -0.42 -0.65    +0.346 HD 
DOCKED: ATOM     33  H   UNL     1     144.083  81.407 218.027 +0.08 -0.42    +0.346 HD 
DOCKED: BRANCH  31  34
DOCKED: ATOM     34  C   UNL     1     143.180  82.168 216.311 -0.15 -0.20    +0.182 C  
DOCKED: ATOM     35  C   UNL     1     144.431  83.058 216.255 -0.30 -0.06    +0.065 C  
DOCKED: ATOM     36  C   UNL     1     142.030  83.165 216.460 -0.14 -0.03    +0.065 C  
DOCKED: ATOM     37  C   UNL     1     144.091  84.341 217.013 -0.35 -0.00    +0.006 C  
DOCKED: ATOM     38  C   UNL     1     142.588  84.318 217.275 -0.21 -0.00    +0.006 C  
DOCKED: ENDBRANCH  31  34
DOCKED: ENDBRANCH  30  31
DOCKED: ENDBRANCH  28  30
DOCKED: ENDBRANCH   5  24
DOCKED: TORSDOF 8
DOCKED: TER
DOCKED: ENDMDL
________________________________________________________________________________


    FINAL DOCKED STATE:
    ________________________


Run:   7 / 20
Time taken for this run:   0.035s

DOCKED: MODEL        7
DOCKED: USER    Run = 7
DOCKED: USER
DOCKED: USER    Estimated Free Energy of Binding    =  -8.17 kcal/mol  [=(1)+(2)+(3)-(4)]
DOCKED: USER
DOCKED: USER    (1) Final Intermolecular Energy     = -10.56 kcal/mol
DOCKED: USER        vdW + Hbond + desolv Energy     =  -9.86 kcal/mol
DOCKED: USER        Electrostatic Energy            =  -0.69 kcal/mol
DOCKED: USER        Moving Ligand-Fixed Receptor    = -10.56 kcal/mol
DOCKED: USER        Moving Ligand-Moving Receptor   =  +0.00 kcal/mol
DOCKED: USER    (2) Final Total Internal Energy     =  -2.33 kcal/mol
DOCKED: USER    (3) Torsional Free Energy           =  +2.39 kcal/mol
DOCKED: USER    (4) Unbound System's Energy         =  -2.33 kcal/mol
DOCKED: USER
DOCKED: USER
DOCKED: REMARK SMILES O=C(NCc1cccc(-c2cccc(C[NH2+]C3CCCC3)c2)c1)c1ccc(-c2ccccc2)cc1
DOCKED: REMARK SMILES IDX 5 1 6 2 7 3 8 4 9 5 23 6 4 7 3 8 2 9 1 10 24 12 25 13 35 14
DOCKED: REMARK SMILES IDX 26 15 34 16 27 17 28 18 29 19 33 20 30 21 32 22 31 23 10 24
DOCKED: REMARK SMILES IDX 11 25 22 26 12 27 14 28 13 29 15 30 16 31 17 34 18 35 21 36
DOCKED: REMARK SMILES IDX 19 37 20 38
DOCKED: REMARK H PARENT 3 11 16 32 16 33
DOCKED: USER                              x       y       z     vdW  Elec       q    Type
DOCKED: USER                           _______ _______ _______ _____ _____    ______ ____
DOCKED: ROOT
DOCKED: ATOM      1  C   UNL     1     138.374  73.004 222.099 -0.14 +0.01    -0.028 A  
DOCKED: ATOM      2  C   UNL     1     138.807  71.823 222.717 -0.24 -0.00    +0.005 A  
DOCKED: ATOM      3  C   UNL     1     140.162  71.489 222.725 -0.32 -0.00    +0.001 A  
DOCKED: ATOM      4  C   UNL     1     141.097  72.337 222.126 -0.25 -0.00    +0.009 A  
DOCKED: ATOM      5  C   UNL     1     140.687  73.535 221.513 -0.29 +0.00    -0.018 A  
DOCKED: ATOM      6  C   UNL     1     139.316  73.861 221.508 -0.23 -0.00    +0.014 A  
DOCKED: ENDROOT
DOCKED: BRANCH   1   7
DOCKED: ATOM      7  C   UNL     1     136.914  73.370 222.119 -0.10 -0.04    +0.152 C  
DOCKED: BRANCH   7   8
DOCKED: ATOM      8  N   UNL     1     136.733  74.683 222.734 -0.06 +0.12    -0.348 N  
DOCKED: ATOM      9  C   UNL     1     136.658  75.890 221.958 -0.11 -0.05    +0.251 C  
DOCKED: ATOM     10  O   UNL     1     136.573  75.820 220.701 -0.02 +0.05    -0.269 OA 
DOCKED: ATOM     11  H   UNL     1     136.595  74.721 223.769 -0.33 -0.08    +0.164 HD 
DOCKED: BRANCH   9  12
DOCKED: ATOM     12  C   UNL     1     136.654  77.220 222.612 -0.20 -0.01    +0.039 A  
DOCKED: ATOM     13  C   UNL     1     137.805  78.026 222.625 -0.24 -0.00    +0.014 A  
DOCKED: ATOM     14  C   UNL     1     135.481  77.703 223.214 -0.16 -0.00    +0.014 A  
DOCKED: ATOM     15  C   UNL     1     137.786  79.281 223.242 -0.23 -0.00    +0.009 A  
DOCKED: ATOM     16  C   UNL     1     135.463  78.955 223.835 -0.14 -0.00    +0.009 A  
DOCKED: ATOM     17  C   UNL     1     136.616  79.758 223.857 -0.18 +0.00    -0.018 A  
DOCKED: BRANCH  17  18
DOCKED: ATOM     18  C   UNL     1     136.596  81.088 224.522 -0.28 +0.00    -0.018 A  
DOCKED: ATOM     19  C   UNL     1     136.959  81.217 225.877 -0.41 -0.00    +0.009 A  
DOCKED: ATOM     20  C   UNL     1     136.220  82.240 223.807 -0.16 -0.00    +0.009 A  
DOCKED: ATOM     21  C   UNL     1     136.952  82.472 226.495 -0.47 -0.00    +0.001 A  
DOCKED: ATOM     22  C   UNL     1     136.214  83.492 224.431 -0.18 -0.00    +0.001 A  
DOCKED: ATOM     23  C   UNL     1     136.581  83.608 225.773 -0.26 -0.00    +0.000 A  
DOCKED: ENDBRANCH  17  18
DOCKED: ENDBRANCH   9  12
DOCKED: ENDBRANCH   7   8
DOCKED: ENDBRANCH   1   7
DOCKED: BRANCH   5  24
DOCKED: ATOM     24  C   UNL     1     141.683  74.441 220.886 -0.29 +0.00    -0.018 A  
DOCKED: ATOM     25  C   UNL     1     142.989  73.990 220.616 -0.30 -0.00    +0.009 A  
DOCKED: ATOM     26  C   UNL     1     141.341  75.767 220.559 -0.26 -0.01    +0.018 A  
DOCKED: ATOM     27  C   UNL     1     143.928  74.845 220.035 -0.44 -0.00    +0.001 A  
DOCKED: ATOM     28  C   UNL     1     142.281  76.624 219.964 -0.32 -0.00    +0.007 A  
DOCKED: ATOM     29  C   UNL     1     143.579  76.159 219.715 -0.41 -0.01    +0.009 A  
DOCKED: BRANCH  28  30
DOCKED: ATOM     30  C   UNL     1     141.918  78.056 219.657 -0.15 -0.18    +0.297 C  
DOCKED: BRANCH  30  31
DOCKED: ATOM     31  N   UNL     1     142.188  78.917 220.822 -0.02 +0.24    -0.340 N  
DOCKED: ATOM     32  H   UNL     1     142.537  79.852 220.499 -0.07 -0.23    +0.346 HD 
DOCKED: ATOM     33  H   UNL     1     142.947  78.460 221.381 -0.33 -0.38    +0.346 HD 
DOCKED: BRANCH  31  34
DOCKED: ATOM     34  C   UNL     1     140.982  79.087 221.669 -0.26 -0.07    +0.182 C  
DOCKED: ATOM     35  C   UNL     1     140.879  80.511 222.236 -0.37 -0.02    +0.065 C  
DOCKED: ATOM     36  C   UNL     1     141.054  78.202 222.914 -0.46 -0.02    +0.065 C  
DOCKED: ATOM     37  C   UNL     1     141.547  80.485 223.610 -0.57 -0.00    +0.006 C  
DOCKED: ATOM     38  C   UNL     1     141.796  79.020 223.957 -0.60 -0.00    +0.006 C  
DOCKED: ENDBRANCH  31  34
DOCKED: ENDBRANCH  30  31
DOCKED: ENDBRANCH  28  30
DOCKED: ENDBRANCH   5  24
DOCKED: TORSDOF 8
DOCKED: TER
DOCKED: ENDMDL
________________________________________________________________________________


    FINAL DOCKED STATE:
    ________________________


Run:   8 / 20
Time taken for this run:   0.035s

DOCKED: MODEL        8
DOCKED: USER    Run = 8
DOCKED: USER
DOCKED: USER    Estimated Free Energy of Binding    =  -9.79 kcal/mol  [=(1)+(2)+(3)-(4)]
DOCKED: USER
DOCKED: USER    (1) Final Intermolecular Energy     = -12.17 kcal/mol
DOCKED: USER        vdW + Hbond + desolv Energy     = -11.46 kcal/mol
DOCKED: USER        Electrostatic Energy            =  -0.71 kcal/mol
DOCKED: USER        Moving Ligand-Fixed Receptor    = -12.17 kcal/mol
DOCKED: USER        Moving Ligand-Moving Receptor   =  +0.00 kcal/mol
DOCKED: USER    (2) Final Total Internal Energy     =  -1.15 kcal/mol
DOCKED: USER    (3) Torsional Free Energy           =  +2.39 kcal/mol
DOCKED: USER    (4) Unbound System's Energy         =  -1.15 kcal/mol
DOCKED: USER
DOCKED: USER
DOCKED: REMARK SMILES O=C(NCc1cccc(-c2cccc(C[NH2+]C3CCCC3)c2)c1)c1ccc(-c2ccccc2)cc1
DOCKED: REMARK SMILES IDX 5 1 6 2 7 3 8 4 9 5 23 6 4 7 3 8 2 9 1 10 24 12 25 13 35 14
DOCKED: REMARK SMILES IDX 26 15 34 16 27 17 28 18 29 19 33 20 30 21 32 22 31 23 10 24
DOCKED: REMARK SMILES IDX 11 25 22 26 12 27 14 28 13 29 15 30 16 31 17 34 18 35 21 36
DOCKED: REMARK SMILES IDX 19 37 20 38
DOCKED: REMARK H PARENT 3 11 16 32 16 33
DOCKED: USER                              x       y       z     vdW  Elec       q    Type
DOCKED: USER                           _______ _______ _______ _____ _____    ______ ____
DOCKED: ROOT
DOCKED: ATOM      1  C   UNL     1     138.034  71.603 223.090 -0.20 +0.01    -0.028 A  
DOCKED: ATOM      2  C   UNL     1     138.651  70.712 223.978 -0.31 -0.00    +0.005 A  
DOCKED: ATOM      3  C   UNL     1     140.042  70.670 224.080 -0.38 -0.00    +0.001 A  
DOCKED: ATOM      4  C   UNL     1     140.829  71.525 223.303 -0.25 -0.00    +0.009 A  
DOCKED: ATOM      5  C   UNL     1     140.231  72.438 222.416 -0.32 +0.00    -0.018 A  
DOCKED: ATOM      6  C   UNL     1     138.825  72.470 222.318 -0.21 -0.00    +0.014 A  
DOCKED: ENDROOT
DOCKED: BRANCH   1   7
DOCKED: ATOM      7  C   UNL     1     136.533  71.662 223.007 -0.13 -0.03    +0.152 C  
DOCKED: BRANCH   7   8
DOCKED: ATOM      8  N   UNL     1     136.021  72.723 223.871 -0.08 +0.09    -0.348 N  
DOCKED: ATOM      9  C   UNL     1     134.917  72.517 224.768 -0.12 -0.03    +0.251 C  
DOCKED: ATOM     10  O   UNL     1     134.474  71.351 224.954 -0.12 +0.02    -0.269 OA 
DOCKED: ATOM     11  H   UNL     1     136.524  73.638 223.867 -0.49 -0.08    +0.164 HD 
DOCKED: BRANCH   9  12
DOCKED: ATOM     12  C   UNL     1     134.304  73.651 225.498 -0.30 -0.00    +0.039 A  
DOCKED: ATOM     13  C   UNL     1     133.202  73.457 226.347 -0.35 -0.00    +0.014 A  
DOCKED: ATOM     14  C   UNL     1     134.837  74.944 225.364 -0.38 -0.00    +0.014 A  
DOCKED: ATOM     15  C   UNL     1     132.635  74.535 227.034 -0.39 +0.00    +0.009 A  
DOCKED: ATOM     16  C   UNL     1     134.269  76.022 226.046 -0.37 -0.00    +0.009 A  
DOCKED: ATOM     17  C   UNL     1     133.160  75.832 226.889 -0.38 +0.00    -0.018 A  
DOCKED: BRANCH  17  18
DOCKED: ATOM     18  C   UNL     1     132.554  76.982 227.610 -0.34 +0.00    -0.018 A  
DOCKED: ATOM     19  C   UNL     1     131.298  76.855 228.234 -0.31 +0.00    +0.009 A  
DOCKED: ATOM     20  C   UNL     1     133.230  78.214 227.687 -0.30 -0.00    +0.009 A  
DOCKED: ATOM     21  C   UNL     1     130.738  77.936 228.923 -0.29 +0.00    +0.001 A  
DOCKED: ATOM     22  C   UNL     1     132.663  79.291 228.377 -0.29 -0.00    +0.001 A  
DOCKED: ATOM     23  C   UNL     1     131.420  79.152 228.995 -0.24 +0.00    +0.000 A  
DOCKED: ENDBRANCH  17  18
DOCKED: ENDBRANCH   9  12
DOCKED: ENDBRANCH   7   8
DOCKED: ENDBRANCH   1   7
DOCKED: BRANCH   5  24
DOCKED: ATOM     24  C   UNL     1     141.067  73.354 221.599 -0.29 +0.00    -0.018 A  
DOCKED: ATOM     25  C   UNL     1     142.285  72.910 221.048 -0.23 -0.00    +0.009 A  
DOCKED: ATOM     26  C   UNL     1     140.661  74.682 221.368 -0.31 -0.00    +0.018 A  
DOCKED: ATOM     27  C   UNL     1     143.076  73.775 220.288 -0.31 -0.00    +0.001 A  
DOCKED: ATOM     28  C   UNL     1     141.450  75.548 220.593 -0.28 -0.00    +0.007 A  
DOCKED: ATOM     29  C   UNL     1     142.664  75.090 220.065 -0.32 -0.00    +0.009 A  
DOCKED: BRANCH  28  30
DOCKED: ATOM     30  C   UNL     1     141.027  76.982 220.387 -0.13 -0.12    +0.297 C  
DOCKED: BRANCH  30  31
DOCKED: ATOM     31  N   UNL     1     141.844  77.884 221.218 -0.12 +0.22    -0.340 N  
DOCKED: ATOM     32  H   UNL     1     142.682  78.206 220.675 -0.24 -0.34    +0.346 HD 
DOCKED: ATOM     33  H   UNL     1     142.181  77.332 222.042 -0.33 -0.33    +0.346 HD 
DOCKED: BRANCH  31  34
DOCKED: ATOM     34  C   UNL     1     141.062  79.052 221.690 -0.27 -0.07    +0.182 C  
DOCKED: ATOM     35  C   UNL     1     141.810  80.373 221.459 -0.39 -0.02    +0.065 C  
DOCKED: ATOM     36  C   UNL     1     140.864  79.006 223.207 -0.48 -0.02    +0.065 C  
DOCKED: ATOM     37  C   UNL     1     142.581  80.672 222.744 -0.60 -0.00    +0.006 C  
DOCKED: ATOM     38  C   UNL     1     142.082  79.691 223.801 -0.62 -0.00    +0.006 C  
DOCKED: ENDBRANCH  31  34
DOCKED: ENDBRANCH  30  31
DOCKED: ENDBRANCH  28  30
DOCKED: ENDBRANCH   5  24
DOCKED: TORSDOF 8
DOCKED: TER
DOCKED: ENDMDL
________________________________________________________________________________


    FINAL DOCKED STATE:
    ________________________


Run:   9 / 20
Time taken for this run:   0.035s

DOCKED: MODEL        9
DOCKED: USER    Run = 9
DOCKED: USER
DOCKED: USER    Estimated Free Energy of Binding    =  -9.36 kcal/mol  [=(1)+(2)+(3)-(4)]
DOCKED: USER
DOCKED: USER    (1) Final Intermolecular Energy     = -11.74 kcal/mol
DOCKED: USER        vdW + Hbond + desolv Energy     = -11.03 kcal/mol
DOCKED: USER        Electrostatic Energy            =  -0.71 kcal/mol
DOCKED: USER        Moving Ligand-Fixed Receptor    = -11.74 kcal/mol
DOCKED: USER        Moving Ligand-Moving Receptor   =  +0.00 kcal/mol
DOCKED: USER    (2) Final Total Internal Energy     =  -1.32 kcal/mol
DOCKED: USER    (3) Torsional Free Energy           =  +2.39 kcal/mol
DOCKED: USER    (4) Unbound System's Energy         =  -1.32 kcal/mol
DOCKED: USER
DOCKED: USER
DOCKED: REMARK SMILES O=C(NCc1cccc(-c2cccc(C[NH2+]C3CCCC3)c2)c1)c1ccc(-c2ccccc2)cc1
DOCKED: REMARK SMILES IDX 5 1 6 2 7 3 8 4 9 5 23 6 4 7 3 8 2 9 1 10 24 12 25 13 35 14
DOCKED: REMARK SMILES IDX 26 15 34 16 27 17 28 18 29 19 33 20 30 21 32 22 31 23 10 24
DOCKED: REMARK SMILES IDX 11 25 22 26 12 27 14 28 13 29 15 30 16 31 17 34 18 35 21 36
DOCKED: REMARK SMILES IDX 19 37 20 38
DOCKED: REMARK H PARENT 3 11 16 32 16 33
DOCKED: USER                              x       y       z     vdW  Elec       q    Type
DOCKED: USER                           _______ _______ _______ _____ _____    ______ ____
DOCKED: ROOT
DOCKED: ATOM      1  C   UNL     1     141.736  72.890 218.157 -0.04 +0.01    -0.028 A  
DOCKED: ATOM      2  C   UNL     1     143.034  72.367 218.081 -0.07 -0.00    +0.005 A  
DOCKED: ATOM      3  C   UNL     1     144.139  73.219 218.097 -0.16 -0.00    +0.001 A  
DOCKED: ATOM      4  C   UNL     1     143.957  74.601 218.197 -0.17 -0.00    +0.009 A  
DOCKED: ATOM      5  C   UNL     1     142.664  75.147 218.289 -0.17 +0.01    -0.018 A  
DOCKED: ATOM      6  C   UNL     1     141.556  74.278 218.270 -0.06 -0.00    +0.014 A  
DOCKED: ENDROOT
DOCKED: BRANCH   1   7
DOCKED: ATOM      7  C   UNL     1     140.552  71.962 218.167 -0.01 -0.03    +0.152 C  
DOCKED: BRANCH   7   8
DOCKED: ATOM      8  N   UNL     1     140.398  71.357 219.489 -0.01 +0.06    -0.348 N  
DOCKED: ATOM      9  C   UNL     1     140.040  72.128 220.648 -0.08 -0.04    +0.251 C  
DOCKED: ATOM     10  O   UNL     1     139.677  73.328 220.512 -0.06 +0.05    -0.269 OA 
DOCKED: ATOM     11  H   UNL     1     140.496  70.320 219.564 +0.02 -0.03    +0.164 HD 
DOCKED: BRANCH   9  12
DOCKED: ATOM     12  C   UNL     1     140.065  71.527 222.003 -0.23 -0.01    +0.039 A  
DOCKED: ATOM     13  C   UNL     1     140.628  72.215 223.091 -0.30 -0.00    +0.014 A  
DOCKED: ATOM     14  C   UNL     1     139.503  70.259 222.219 -0.18 -0.00    +0.014 A  
DOCKED: ATOM     15  C   UNL     1     140.642  71.638 224.365 -0.41 -0.00    +0.009 A  
DOCKED: ATOM     16  C   UNL     1     139.521  69.680 223.490 -0.24 -0.00    +0.009 A  
DOCKED: ATOM     17  C   UNL     1     140.091  70.362 224.579 -0.40 +0.00    -0.018 A  
DOCKED: BRANCH  17  18
DOCKED: ATOM     18  C   UNL     1     140.113  69.742 225.930 -0.48 +0.00    -0.018 A  
DOCKED: ATOM     19  C   UNL     1     139.918  68.356 226.086 -0.57 -0.00    +0.009 A  
DOCKED: ATOM     20  C   UNL     1     140.338  70.530 227.074 -0.61 -0.00    +0.009 A  
DOCKED: ATOM     21  C   UNL     1     139.953  67.775 227.358 -0.57 -0.00    +0.001 A  
DOCKED: ATOM     22  C   UNL     1     140.371  69.943 228.344 -0.59 -0.00    +0.001 A  
DOCKED: ATOM     23  C   UNL     1     140.180  68.567 228.486 -0.62 -0.00    +0.000 A  
DOCKED: ENDBRANCH  17  18
DOCKED: ENDBRANCH   9  12
DOCKED: ENDBRANCH   7   8
DOCKED: ENDBRANCH   1   7
DOCKED: BRANCH   5  24
DOCKED: ATOM     24  C   UNL     1     142.473  76.616 218.407 -0.26 +0.01    -0.018 A  
DOCKED: ATOM     25  C   UNL     1     142.696  77.457 217.300 -0.27 -0.01    +0.009 A  
DOCKED: ATOM     26  C   UNL     1     142.073  77.191 219.628 -0.30 -0.01    +0.018 A  
DOCKED: ATOM     27  C   UNL     1     142.525  78.839 217.415 -0.28 -0.00    +0.001 A  
DOCKED: ATOM     28  C   UNL     1     141.888  78.579 219.741 -0.27 -0.00    +0.007 A  
DOCKED: ATOM     29  C   UNL     1     142.129  79.400 218.630 -0.31 -0.01    +0.009 A  
DOCKED: BRANCH  28  30
DOCKED: ATOM     30  C   UNL     1     141.501  79.190 221.064 -0.20 -0.14    +0.297 C  
DOCKED: BRANCH  30  31
DOCKED: ATOM     31  N   UNL     1     142.559  78.965 222.065 -0.12 +0.23    -0.340 N  
DOCKED: ATOM     32  H   UNL     1     143.382  79.581 221.856 -0.32 -0.28    +0.346 HD 
DOCKED: ATOM     33  H   UNL     1     142.866  77.967 221.977 -0.32 -0.42    +0.346 HD 
DOCKED: BRANCH  31  34
DOCKED: ATOM     34  C   UNL     1     142.071  79.214 223.444 -0.47 -0.06    +0.182 C  
DOCKED: ATOM     35  C   UNL     1     140.547  79.397 223.487 -0.47 -0.01    +0.065 C  
DOCKED: ATOM     36  C   UNL     1     142.613  80.536 223.989 -0.58 -0.01    +0.065 C  
DOCKED: ATOM     37  C   UNL     1     140.282  80.898 223.379 -0.43 -0.00    +0.006 C  
DOCKED: ATOM     38  C   UNL     1     141.626  81.600 223.541 -0.44 -0.00    +0.006 C  
DOCKED: ENDBRANCH  31  34
DOCKED: ENDBRANCH  30  31
DOCKED: ENDBRANCH  28  30
DOCKED: ENDBRANCH   5  24
DOCKED: TORSDOF 8
DOCKED: TER
DOCKED: ENDMDL
________________________________________________________________________________


    FINAL DOCKED STATE:
    ________________________


Run:   10 / 20
Time taken for this run:   0.035s

DOCKED: MODEL        10
DOCKED: USER    Run = 10
DOCKED: USER
DOCKED: USER    Estimated Free Energy of Binding    = -10.12 kcal/mol  [=(1)+(2)+(3)-(4)]
DOCKED: USER
DOCKED: USER    (1) Final Intermolecular Energy     = -12.50 kcal/mol
DOCKED: USER        vdW + Hbond + desolv Energy     = -11.08 kcal/mol
DOCKED: USER        Electrostatic Energy            =  -1.42 kcal/mol
DOCKED: USER        Moving Ligand-Fixed Receptor    = -12.50 kcal/mol
DOCKED: USER        Moving Ligand-Moving Receptor   =  +0.00 kcal/mol
DOCKED: USER    (2) Final Total Internal Energy     =  -1.56 kcal/mol
DOCKED: USER    (3) Torsional Free Energy           =  +2.39 kcal/mol
DOCKED: USER    (4) Unbound System's Energy         =  -1.56 kcal/mol
DOCKED: USER
DOCKED: USER
DOCKED: REMARK SMILES O=C(NCc1cccc(-c2cccc(C[NH2+]C3CCCC3)c2)c1)c1ccc(-c2ccccc2)cc1
DOCKED: REMARK SMILES IDX 5 1 6 2 7 3 8 4 9 5 23 6 4 7 3 8 2 9 1 10 24 12 25 13 35 14
DOCKED: REMARK SMILES IDX 26 15 34 16 27 17 28 18 29 19 33 20 30 21 32 22 31 23 10 24
DOCKED: REMARK SMILES IDX 11 25 22 26 12 27 14 28 13 29 15 30 16 31 17 34 18 35 21 36
DOCKED: REMARK SMILES IDX 19 37 20 38
DOCKED: REMARK H PARENT 3 11 16 32 16 33
DOCKED: USER                              x       y       z     vdW  Elec       q    Type
DOCKED: USER                           _______ _______ _______ _____ _____    ______ ____
DOCKED: ROOT
DOCKED: ATOM      1  C   UNL     1     141.070  78.349 222.693 -0.47 +0.01    -0.028 A  
DOCKED: ATOM      2  C   UNL     1     141.813  78.739 223.815 -0.62 -0.00    +0.005 A  
DOCKED: ATOM      3  C   UNL     1     142.458  79.976 223.837 -0.63 -0.00    +0.001 A  
DOCKED: ATOM      4  C   UNL     1     142.359  80.839 222.742 -0.58 -0.00    +0.009 A  
DOCKED: ATOM      5  C   UNL     1     141.606  80.474 221.611 -0.41 +0.01    -0.018 A  
DOCKED: ATOM      6  C   UNL     1     140.961  79.222 221.598 -0.33 -0.01    +0.014 A  
DOCKED: ENDROOT
DOCKED: BRANCH   1   7
DOCKED: ATOM      7  C   UNL     1     140.354  77.025 222.689 -0.20 -0.04    +0.152 C  
DOCKED: BRANCH   7   8
DOCKED: ATOM      8  N   UNL     1     141.172  76.012 222.026 -0.16 +0.12    -0.348 N  
DOCKED: ATOM      9  C   UNL     1     140.672  74.699 221.725 -0.14 -0.03    +0.251 C  
DOCKED: ATOM     10  O   UNL     1     139.445  74.449 221.874 -0.51 +0.05    -0.269 OA 
DOCKED: ATOM     11  H   UNL     1     142.130  76.287 221.714 -0.51 -0.13    +0.164 HD 
DOCKED: BRANCH   9  12
DOCKED: ATOM     12  C   UNL     1     141.572  73.636 221.218 -0.26 -0.01    +0.039 A  
DOCKED: ATOM     13  C   UNL     1     141.167  72.291 221.196 -0.23 -0.00    +0.014 A  
DOCKED: ATOM     14  C   UNL     1     142.846  73.969 220.729 -0.28 -0.00    +0.014 A  
DOCKED: ATOM     15  C   UNL     1     142.025  71.299 220.711 -0.14 -0.00    +0.009 A  
DOCKED: ATOM     16  C   UNL     1     143.705  72.978 220.249 -0.33 -0.00    +0.009 A  
DOCKED: ATOM     17  C   UNL     1     143.305  71.630 220.235 -0.25 +0.00    -0.018 A  
DOCKED: BRANCH  17  18
DOCKED: ATOM     18  C   UNL     1     144.223  70.576 219.728 -0.24 -0.00    -0.018 A  
DOCKED: ATOM     19  C   UNL     1     143.819  69.227 219.698 -0.26 +0.00    +0.009 A  
DOCKED: ATOM     20  C   UNL     1     145.508  70.910 219.261 -0.30 +0.00    +0.009 A  
DOCKED: ATOM     21  C   UNL     1     144.681  68.240 219.207 -0.36 -0.00    +0.001 A  
DOCKED: ATOM     22  C   UNL     1     146.365  69.919 218.772 -0.30 +0.00    +0.001 A  
DOCKED: ATOM     23  C   UNL     1     145.952  68.586 218.744 -0.41 +0.00    +0.000 A  
DOCKED: ENDBRANCH  17  18
DOCKED: ENDBRANCH   9  12
DOCKED: ENDBRANCH   7   8
DOCKED: ENDBRANCH   1   7
DOCKED: BRANCH   5  24
DOCKED: ATOM     24  C   UNL     1     141.492  81.396 220.452 -0.31 +0.01    -0.018 A  
DOCKED: ATOM     25  C   UNL     1     141.195  82.759 220.649 -0.27 -0.00    +0.009 A  
DOCKED: ATOM     26  C   UNL     1     141.671  80.923 219.138 -0.27 -0.01    +0.018 A  
DOCKED: ATOM     27  C   UNL     1     141.078  83.623 219.558 -0.15 -0.00    +0.001 A  
DOCKED: ATOM     28  C   UNL     1     141.566  81.794 218.041 -0.21 -0.00    +0.007 A  
DOCKED: ATOM     29  C   UNL     1     141.257  83.144 218.259 -0.18 -0.00    +0.009 A  
DOCKED: BRANCH  28  30
DOCKED: ATOM     30  C   UNL     1     141.718  81.270 216.635 -0.09 -0.21    +0.297 C  
DOCKED: BRANCH  30  31
DOCKED: ATOM     31  N   UNL     1     142.568  80.066 216.623 +0.10 +0.46    -0.340 N  
DOCKED: ATOM     32  H   UNL     1     143.228  80.088 217.439 -0.36 -0.55    +0.346 HD 
DOCKED: ATOM     33  H   UNL     1     143.135  80.092 215.743 -0.41 -0.83    +0.346 HD 
DOCKED: BRANCH  31  34
DOCKED: ATOM     34  C   UNL     1     141.759  78.823 216.656 -0.13 -0.14    +0.182 C  
DOCKED: ATOM     35  C   UNL     1     141.825  78.133 218.026 -0.21 -0.04    +0.065 C  
DOCKED: ATOM     36  C   UNL     1     142.320  77.775 215.692 -0.14 -0.05    +0.065 C  
DOCKED: ATOM     37  C   UNL     1     142.957  77.109 217.948 -0.30 -0.00    +0.006 C  
DOCKED: ATOM     38  C   UNL     1     143.367  77.011 216.482 -0.23 -0.00    +0.006 C  
DOCKED: ENDBRANCH  31  34
DOCKED: ENDBRANCH  30  31
DOCKED: ENDBRANCH  28  30
DOCKED: ENDBRANCH   5  24
DOCKED: TORSDOF 8
DOCKED: TER
DOCKED: ENDMDL
________________________________________________________________________________


    FINAL DOCKED STATE:
    ________________________


Run:   11 / 20
Time taken for this run:   0.035s

DOCKED: MODEL        11
DOCKED: USER    Run = 11
DOCKED: USER
DOCKED: USER    Estimated Free Energy of Binding    =  -9.35 kcal/mol  [=(1)+(2)+(3)-(4)]
DOCKED: USER
DOCKED: USER    (1) Final Intermolecular Energy     = -11.73 kcal/mol
DOCKED: USER        vdW + Hbond + desolv Energy     = -10.30 kcal/mol
DOCKED: USER        Electrostatic Energy            =  -1.44 kcal/mol
DOCKED: USER        Moving Ligand-Fixed Receptor    = -11.73 kcal/mol
DOCKED: USER        Moving Ligand-Moving Receptor   =  +0.00 kcal/mol
DOCKED: USER    (2) Final Total Internal Energy     =  -1.95 kcal/mol
DOCKED: USER    (3) Torsional Free Energy           =  +2.39 kcal/mol
DOCKED: USER    (4) Unbound System's Energy         =  -1.95 kcal/mol
DOCKED: USER
DOCKED: USER
DOCKED: REMARK SMILES O=C(NCc1cccc(-c2cccc(C[NH2+]C3CCCC3)c2)c1)c1ccc(-c2ccccc2)cc1
DOCKED: REMARK SMILES IDX 5 1 6 2 7 3 8 4 9 5 23 6 4 7 3 8 2 9 1 10 24 12 25 13 35 14
DOCKED: REMARK SMILES IDX 26 15 34 16 27 17 28 18 29 19 33 20 30 21 32 22 31 23 10 24
DOCKED: REMARK SMILES IDX 11 25 22 26 12 27 14 28 13 29 15 30 16 31 17 34 18 35 21 36
DOCKED: REMARK SMILES IDX 19 37 20 38
DOCKED: REMARK H PARENT 3 11 16 32 16 33
DOCKED: USER                              x       y       z     vdW  Elec       q    Type
DOCKED: USER                           _______ _______ _______ _____ _____    ______ ____
DOCKED: ROOT
DOCKED: ATOM      1  C   UNL     1     141.113  77.948 222.470 -0.44 +0.01    -0.028 A  
DOCKED: ATOM      2  C   UNL     1     141.806  78.392 223.604 -0.55 -0.00    +0.005 A  
DOCKED: ATOM      3  C   UNL     1     142.415  79.648 223.610 -0.60 -0.00    +0.001 A  
DOCKED: ATOM      4  C   UNL     1     142.329  80.475 222.486 -0.57 -0.00    +0.009 A  
DOCKED: ATOM      5  C   UNL     1     141.625  80.056 221.343 -0.38 +0.01    -0.018 A  
DOCKED: ATOM      6  C   UNL     1     141.016  78.785 221.346 -0.31 -0.01    +0.014 A  
DOCKED: ENDROOT
DOCKED: BRANCH   1   7
DOCKED: ATOM      7  C   UNL     1     140.435  76.605 222.483 -0.23 -0.04    +0.152 C  
DOCKED: BRANCH   7   8
DOCKED: ATOM      8  N   UNL     1     141.344  75.578 221.978 -0.13 +0.10    -0.348 N  
DOCKED: ATOM      9  C   UNL     1     140.918  74.565 221.052 -0.20 -0.05    +0.251 C  
DOCKED: ATOM     10  O   UNL     1     139.779  74.648 220.516 -0.08 +0.06    -0.269 OA 
DOCKED: ATOM     11  H   UNL     1     142.346  75.632 222.263 -0.48 -0.11    +0.164 HD 
DOCKED: BRANCH   9  12
DOCKED: ATOM     12  C   UNL     1     141.805  73.433 220.695 -0.24 -0.01    +0.039 A  
DOCKED: ATOM     13  C   UNL     1     143.202  73.546 220.796 -0.28 -0.00    +0.014 A  
DOCKED: ATOM     14  C   UNL     1     141.253  72.215 220.266 -0.15 -0.00    +0.014 A  
DOCKED: ATOM     15  C   UNL     1     144.028  72.469 220.460 -0.36 -0.00    +0.009 A  
DOCKED: ATOM     16  C   UNL     1     142.077  71.140 219.926 -0.15 -0.00    +0.009 A  
DOCKED: ATOM     17  C   UNL     1     143.475  71.254 220.018 -0.24 +0.00    -0.018 A  
DOCKED: BRANCH  17  18
DOCKED: ATOM     18  C   UNL     1     144.351  70.110 219.650 -0.24 -0.00    -0.018 A  
DOCKED: ATOM     19  C   UNL     1     145.509  70.314 218.875 -0.31 +0.00    +0.009 A  
DOCKED: ATOM     20  C   UNL     1     144.042  68.806 220.079 -0.22 +0.00    +0.009 A  
DOCKED: ATOM     21  C   UNL     1     146.338  69.237 218.543 -0.34 +0.00    +0.001 A  
DOCKED: ATOM     22  C   UNL     1     144.875  67.733 219.742 -0.45 -0.00    +0.001 A  
DOCKED: ATOM     23  C   UNL     1     146.022  67.949 218.977 -0.49 +0.00    +0.000 A  
DOCKED: ENDBRANCH  17  18
DOCKED: ENDBRANCH   9  12
DOCKED: ENDBRANCH   7   8
DOCKED: ENDBRANCH   1   7
DOCKED: BRANCH   5  24
DOCKED: ATOM     24  C   UNL     1     141.524  80.940 220.153 -0.30 +0.01    -0.018 A  
DOCKED: ATOM     25  C   UNL     1     141.408  82.335 220.307 -0.27 -0.00    +0.009 A  
DOCKED: ATOM     26  C   UNL     1     141.536  80.399 218.854 -0.25 -0.01    +0.018 A  
DOCKED: ATOM     27  C   UNL     1     141.303  83.165 219.189 -0.17 -0.00    +0.001 A  
DOCKED: ATOM     28  C   UNL     1     141.444  81.234 217.728 -0.19 -0.00    +0.007 A  
DOCKED: ATOM     29  C   UNL     1     141.315  82.618 217.904 -0.17 -0.00    +0.009 A  
DOCKED: BRANCH  28  30
DOCKED: ATOM     30  C   UNL     1     141.414  80.641 216.341 -0.07 -0.21    +0.297 C  
DOCKED: BRANCH  30  31
DOCKED: ATOM     31  N   UNL     1     142.556  79.730 216.146 +0.25 +0.49    -0.340 N  
DOCKED: ATOM     32  H   UNL     1     143.197  79.780 216.976 -0.44 -0.68    +0.346 HD 
DOCKED: ATOM     33  H   UNL     1     143.083  80.064 215.305 -0.42 -0.73    +0.346 HD 
DOCKED: BRANCH  31  34
DOCKED: ATOM     34  C   UNL     1     142.111  78.332 215.929 -0.12 -0.15    +0.182 C  
DOCKED: ATOM     35  C   UNL     1     140.899  77.975 216.803 -0.07 -0.03    +0.065 C  
DOCKED: ATOM     36  C   UNL     1     143.185  77.337 216.372 -0.19 -0.06    +0.065 C  
DOCKED: ATOM     37  C   UNL     1     141.450  77.348 218.083 -0.15 -0.00    +0.006 C  
DOCKED: ATOM     38  C   UNL     1     142.936  77.095 217.850 -0.30 -0.00    +0.006 C  
DOCKED: ENDBRANCH  31  34
DOCKED: ENDBRANCH  30  31
DOCKED: ENDBRANCH  28  30
DOCKED: ENDBRANCH   5  24
DOCKED: TORSDOF 8
DOCKED: TER
DOCKED: ENDMDL
________________________________________________________________________________


    FINAL DOCKED STATE:
    ________________________


Run:   12 / 20
Time taken for this run:   0.035s

DOCKED: MODEL        12
DOCKED: USER    Run = 12
DOCKED: USER
DOCKED: USER    Estimated Free Energy of Binding    =  -9.23 kcal/mol  [=(1)+(2)+(3)-(4)]
DOCKED: USER
DOCKED: USER    (1) Final Intermolecular Energy     = -11.61 kcal/mol
DOCKED: USER        vdW + Hbond + desolv Energy     = -10.37 kcal/mol
DOCKED: USER        Electrostatic Energy            =  -1.24 kcal/mol
DOCKED: USER        Moving Ligand-Fixed Receptor    = -11.61 kcal/mol
DOCKED: USER        Moving Ligand-Moving Receptor   =  +0.00 kcal/mol
DOCKED: USER    (2) Final Total Internal Energy     =  -2.19 kcal/mol
DOCKED: USER    (3) Torsional Free Energy           =  +2.39 kcal/mol
DOCKED: USER    (4) Unbound System's Energy         =  -2.19 kcal/mol
DOCKED: USER
DOCKED: USER
DOCKED: REMARK SMILES O=C(NCc1cccc(-c2cccc(C[NH2+]C3CCCC3)c2)c1)c1ccc(-c2ccccc2)cc1
DOCKED: REMARK SMILES IDX 5 1 6 2 7 3 8 4 9 5 23 6 4 7 3 8 2 9 1 10 24 12 25 13 35 14
DOCKED: REMARK SMILES IDX 26 15 34 16 27 17 28 18 29 19 33 20 30 21 32 22 31 23 10 24
DOCKED: REMARK SMILES IDX 11 25 22 26 12 27 14 28 13 29 15 30 16 31 17 34 18 35 21 36
DOCKED: REMARK SMILES IDX 19 37 20 38
DOCKED: REMARK H PARENT 3 11 16 32 16 33
DOCKED: USER                              x       y       z     vdW  Elec       q    Type
DOCKED: USER                           _______ _______ _______ _____ _____    ______ ____
DOCKED: ROOT
DOCKED: ATOM      1  C   UNL     1     141.153  78.167 222.382 -0.44 +0.01    -0.028 A  
DOCKED: ATOM      2  C   UNL     1     141.463  79.039 223.434 -0.59 -0.00    +0.005 A  
DOCKED: ATOM      3  C   UNL     1     141.915  80.333 223.166 -0.60 -0.00    +0.001 A  
DOCKED: ATOM      4  C   UNL     1     142.053  80.769 221.846 -0.47 -0.00    +0.009 A  
DOCKED: ATOM      5  C   UNL     1     141.733  79.915 220.774 -0.34 +0.01    -0.018 A  
DOCKED: ATOM      6  C   UNL     1     141.280  78.611 221.055 -0.32 -0.01    +0.014 A  
DOCKED: ENDROOT
DOCKED: BRANCH   1   7
DOCKED: ATOM      7  C   UNL     1     140.639  76.785 222.679 -0.21 -0.04    +0.152 C  
DOCKED: BRANCH   7   8
DOCKED: ATOM      8  N   UNL     1     141.434  75.788 221.966 -0.10 +0.13    -0.348 N  
DOCKED: ATOM      9  C   UNL     1     140.958  74.453 221.728 -0.06 -0.02    +0.251 C  
DOCKED: ATOM     10  O   UNL     1     139.756  74.165 221.982 -0.74 +0.04    -0.269 OA 
DOCKED: ATOM     11  H   UNL     1     142.353  76.089 221.572 -0.50 -0.14    +0.164 HD 
DOCKED: BRANCH   9  12
DOCKED: ATOM     12  C   UNL     1     141.849  73.412 221.165 -0.24 -0.01    +0.039 A  
DOCKED: ATOM     13  C   UNL     1     143.182  73.702 220.827 -0.28 -0.00    +0.014 A  
DOCKED: ATOM     14  C   UNL     1     141.372  72.104 220.979 -0.21 -0.00    +0.014 A  
DOCKED: ATOM     15  C   UNL     1     144.013  72.709 220.300 -0.35 -0.00    +0.009 A  
DOCKED: ATOM     16  C   UNL     1     142.200  71.113 220.448 -0.15 -0.00    +0.009 A  
DOCKED: ATOM     17  C   UNL     1     143.531  71.403 220.101 -0.25 +0.00    -0.018 A  
DOCKED: BRANCH  17  18
DOCKED: ATOM     18  C   UNL     1     144.410  70.348 219.532 -0.24 -0.00    -0.018 A  
DOCKED: ATOM     19  C   UNL     1     144.159  68.988 219.795 -0.28 +0.00    +0.009 A  
DOCKED: ATOM     20  C   UNL     1     145.502  70.692 218.714 -0.28 +0.00    +0.009 A  
DOCKED: ATOM     21  C   UNL     1     144.981  67.997 219.246 -0.42 -0.00    +0.001 A  
DOCKED: ATOM     22  C   UNL     1     146.320  69.696 218.168 -0.28 +0.00    +0.001 A  
DOCKED: ATOM     23  C   UNL     1     146.059  68.351 218.433 -0.37 +0.00    +0.000 A  
DOCKED: ENDBRANCH  17  18
DOCKED: ENDBRANCH   9  12
DOCKED: ENDBRANCH   7   8
DOCKED: ENDBRANCH   1   7
DOCKED: BRANCH   5  24
DOCKED: ATOM     24  C   UNL     1     141.869  80.384 219.371 -0.30 +0.01    -0.018 A  
DOCKED: ATOM     25  C   UNL     1     141.874  81.760 219.074 -0.23 -0.00    +0.009 A  
DOCKED: ATOM     26  C   UNL     1     141.987  79.461 218.315 -0.28 -0.01    +0.018 A  
DOCKED: ATOM     27  C   UNL     1     141.992  82.200 217.754 -0.24 -0.00    +0.001 A  
DOCKED: ATOM     28  C   UNL     1     142.118  79.902 216.988 -0.22 -0.01    +0.007 A  
DOCKED: ATOM     29  C   UNL     1     142.108  81.276 216.713 -0.21 -0.01    +0.009 A  
DOCKED: BRANCH  28  30
DOCKED: ATOM     30  C   UNL     1     142.201  78.905 215.859 -0.05 -0.30    +0.297 C  
DOCKED: BRANCH  30  31
DOCKED: ATOM     31  N   UNL     1     143.309  77.961 216.086 +0.06 +0.44    -0.340 N  
DOCKED: ATOM     32  H   UNL     1     143.862  78.258 216.927 -0.29 -0.55    +0.346 HD 
DOCKED: ATOM     33  H   UNL     1     143.937  78.008 215.249 -0.00 -0.58    +0.346 HD 
DOCKED: BRANCH  31  34
DOCKED: ATOM     34  C   UNL     1     142.820  76.572 216.262 -0.14 -0.11    +0.182 C  
DOCKED: ATOM     35  C   UNL     1     141.497  76.526 217.042 -0.08 -0.03    +0.065 C  
DOCKED: ATOM     36  C   UNL     1     143.781  75.754 217.125 -0.17 -0.04    +0.065 C  
DOCKED: ATOM     37  C   UNL     1     141.862  76.328 218.513 -0.18 -0.00    +0.006 C  
DOCKED: ATOM     38  C   UNL     1     143.350  75.995 218.561 -0.31 -0.00    +0.006 C  
DOCKED: ENDBRANCH  31  34
DOCKED: ENDBRANCH  30  31
DOCKED: ENDBRANCH  28  30
DOCKED: ENDBRANCH   5  24
DOCKED: TORSDOF 8
DOCKED: TER
DOCKED: ENDMDL
________________________________________________________________________________


    FINAL DOCKED STATE:
    ________________________


Run:   13 / 20
Time taken for this run:   0.035s

DOCKED: MODEL        13
DOCKED: USER    Run = 13
DOCKED: USER
DOCKED: USER    Estimated Free Energy of Binding    =  -9.06 kcal/mol  [=(1)+(2)+(3)-(4)]
DOCKED: USER
DOCKED: USER    (1) Final Intermolecular Energy     = -11.44 kcal/mol
DOCKED: USER        vdW + Hbond + desolv Energy     = -10.19 kcal/mol
DOCKED: USER        Electrostatic Energy            =  -1.25 kcal/mol
DOCKED: USER        Moving Ligand-Fixed Receptor    = -11.44 kcal/mol
DOCKED: USER        Moving Ligand-Moving Receptor   =  +0.00 kcal/mol
DOCKED: USER    (2) Final Total Internal Energy     =  -1.95 kcal/mol
DOCKED: USER    (3) Torsional Free Energy           =  +2.39 kcal/mol
DOCKED: USER    (4) Unbound System's Energy         =  -1.95 kcal/mol
DOCKED: USER
DOCKED: USER
DOCKED: REMARK SMILES O=C(NCc1cccc(-c2cccc(C[NH2+]C3CCCC3)c2)c1)c1ccc(-c2ccccc2)cc1
DOCKED: REMARK SMILES IDX 5 1 6 2 7 3 8 4 9 5 23 6 4 7 3 8 2 9 1 10 24 12 25 13 35 14
DOCKED: REMARK SMILES IDX 26 15 34 16 27 17 28 18 29 19 33 20 30 21 32 22 31 23 10 24
DOCKED: REMARK SMILES IDX 11 25 22 26 12 27 14 28 13 29 15 30 16 31 17 34 18 35 21 36
DOCKED: REMARK SMILES IDX 19 37 20 38
DOCKED: REMARK H PARENT 3 11 16 32 16 33
DOCKED: USER                              x       y       z     vdW  Elec       q    Type
DOCKED: USER                           _______ _______ _______ _____ _____    ______ ____
DOCKED: ROOT
DOCKED: ATOM      1  C   UNL     1     140.833  78.517 222.486 -0.42 +0.01    -0.028 A  
DOCKED: ATOM      2  C   UNL     1     141.145  79.323 223.589 -0.56 -0.00    +0.005 A  
DOCKED: ATOM      3  C   UNL     1     141.658  80.608 223.400 -0.58 -0.00    +0.001 A  
DOCKED: ATOM      4  C   UNL     1     141.855  81.101 222.107 -0.48 -0.00    +0.009 A  
DOCKED: ATOM      5  C   UNL     1     141.535  80.315 220.985 -0.35 +0.01    -0.018 A  
DOCKED: ATOM      6  C   UNL     1     141.020  79.019 221.187 -0.30 -0.01    +0.014 A  
DOCKED: ENDROOT
DOCKED: BRANCH   1   7
DOCKED: ATOM      7  C   UNL     1     140.255  77.145 222.699 -0.20 -0.04    +0.152 C  
DOCKED: BRANCH   7   8
DOCKED: ATOM      8  N   UNL     1     141.114  76.135 222.086 -0.18 +0.12    -0.348 N  
DOCKED: ATOM      9  C   UNL     1     140.600  74.889 221.587 -0.23 -0.04    +0.251 C  
DOCKED: ATOM     10  O   UNL     1     139.353  74.715 221.510 -0.25 +0.05    -0.269 OA 
DOCKED: ATOM     11  H   UNL     1     142.125  76.367 221.960 -0.53 -0.14    +0.164 HD 
DOCKED: BRANCH   9  12
DOCKED: ATOM     12  C   UNL     1     141.511  73.811 221.135 -0.26 -0.01    +0.039 A  
DOCKED: ATOM     13  C   UNL     1     141.070  72.481 221.039 -0.22 -0.00    +0.014 A  
DOCKED: ATOM     14  C   UNL     1     142.834  74.115 220.776 -0.28 -0.00    +0.014 A  
DOCKED: ATOM     15  C   UNL     1     141.940  71.474 220.608 -0.18 -0.00    +0.009 A  
DOCKED: ATOM     16  C   UNL     1     143.705  73.109 220.350 -0.35 -0.00    +0.009 A  
DOCKED: ATOM     17  C   UNL     1     143.269  71.776 220.261 -0.25 +0.00    -0.018 A  
DOCKED: BRANCH  17  18
DOCKED: ATOM     18  C   UNL     1     144.198  70.706 219.812 -0.23 -0.00    -0.018 A  
DOCKED: ATOM     19  C   UNL     1     143.809  69.354 219.855 -0.21 +0.00    +0.009 A  
DOCKED: ATOM     20  C   UNL     1     145.480  71.029 219.328 -0.31 +0.00    +0.009 A  
DOCKED: ATOM     21  C   UNL     1     144.682  68.351 219.418 -0.37 +0.00    +0.001 A  
DOCKED: ATOM     22  C   UNL     1     146.348  70.022 218.894 -0.31 +0.00    +0.001 A  
DOCKED: ATOM     23  C   UNL     1     145.949  68.685 218.938 -0.43 +0.00    +0.000 A  
DOCKED: ENDBRANCH  17  18
DOCKED: ENDBRANCH   9  12
DOCKED: ENDBRANCH   7   8
DOCKED: ENDBRANCH   1   7
DOCKED: BRANCH   5  24
DOCKED: ATOM     24  C   UNL     1     141.734  80.845 219.612 -0.29 +0.01    -0.018 A  
DOCKED: ATOM     25  C   UNL     1     141.828  82.232 219.387 -0.18 -0.00    +0.009 A  
DOCKED: ATOM     26  C   UNL     1     141.824  79.971 218.512 -0.27 -0.01    +0.018 A  
DOCKED: ATOM     27  C   UNL     1     142.005  82.729 218.095 -0.23 -0.00    +0.001 A  
DOCKED: ATOM     28  C   UNL     1     142.014  80.470 217.213 -0.23 -0.01    +0.007 A  
DOCKED: ATOM     29  C   UNL     1     142.093  81.854 217.010 -0.22 -0.01    +0.009 A  
DOCKED: BRANCH  28  30
DOCKED: ATOM     30  C   UNL     1     142.067  79.528 216.036 -0.02 -0.31    +0.297 C  
DOCKED: BRANCH  30  31
DOCKED: ATOM     31  N   UNL     1     142.933  78.374 216.337 +0.04 +0.44    -0.340 N  
DOCKED: ATOM     32  H   UNL     1     143.689  78.663 217.006 -0.39 -0.63    +0.346 HD 
DOCKED: ATOM     33  H   UNL     1     143.386  78.080 215.439 -0.05 -0.49    +0.346 HD 
DOCKED: BRANCH  31  34
DOCKED: ATOM     34  C   UNL     1     142.160  77.240 216.899 -0.14 -0.11    +0.182 C  
DOCKED: ATOM     35  C   UNL     1     142.612  76.890 218.324 -0.27 -0.04    +0.065 C  
DOCKED: ATOM     36  C   UNL     1     142.416  75.955 216.109 -0.09 -0.03    +0.065 C  
DOCKED: ATOM     37  C   UNL     1     143.668  75.794 218.193 -0.19 -0.00    +0.006 C  
DOCKED: ATOM     38  C   UNL     1     143.641  75.320 216.743 -0.18 -0.00    +0.006 C  
DOCKED: ENDBRANCH  31  34
DOCKED: ENDBRANCH  30  31
DOCKED: ENDBRANCH  28  30
DOCKED: ENDBRANCH   5  24
DOCKED: TORSDOF 8
DOCKED: TER
DOCKED: ENDMDL
________________________________________________________________________________


    FINAL DOCKED STATE:
    ________________________


Run:   14 / 20
Time taken for this run:   0.035s

DOCKED: MODEL        14
DOCKED: USER    Run = 14
DOCKED: USER
DOCKED: USER    Estimated Free Energy of Binding    =  -7.66 kcal/mol  [=(1)+(2)+(3)-(4)]
DOCKED: USER
DOCKED: USER    (1) Final Intermolecular Energy     = -10.04 kcal/mol
DOCKED: USER        vdW + Hbond + desolv Energy     =  -9.42 kcal/mol
DOCKED: USER        Electrostatic Energy            =  -0.62 kcal/mol
DOCKED: USER        Moving Ligand-Fixed Receptor    = -10.04 kcal/mol
DOCKED: USER        Moving Ligand-Moving Receptor   =  +0.00 kcal/mol
DOCKED: USER    (2) Final Total Internal Energy     =  -2.69 kcal/mol
DOCKED: USER    (3) Torsional Free Energy           =  +2.39 kcal/mol
DOCKED: USER    (4) Unbound System's Energy         =  -2.69 kcal/mol
DOCKED: USER
DOCKED: USER
DOCKED: REMARK SMILES O=C(NCc1cccc(-c2cccc(C[NH2+]C3CCCC3)c2)c1)c1ccc(-c2ccccc2)cc1
DOCKED: REMARK SMILES IDX 5 1 6 2 7 3 8 4 9 5 23 6 4 7 3 8 2 9 1 10 24 12 25 13 35 14
DOCKED: REMARK SMILES IDX 26 15 34 16 27 17 28 18 29 19 33 20 30 21 32 22 31 23 10 24
DOCKED: REMARK SMILES IDX 11 25 22 26 12 27 14 28 13 29 15 30 16 31 17 34 18 35 21 36
DOCKED: REMARK SMILES IDX 19 37 20 38
DOCKED: REMARK H PARENT 3 11 16 32 16 33
DOCKED: USER                              x       y       z     vdW  Elec       q    Type
DOCKED: USER                           _______ _______ _______ _____ _____    ______ ____
DOCKED: ROOT
DOCKED: ATOM      1  C   UNL     1     139.239  70.676 221.135 -0.11 +0.00    -0.028 A  
DOCKED: ATOM      2  C   UNL     1     139.029  69.412 220.568 -0.10 -0.00    +0.005 A  
DOCKED: ATOM      3  C   UNL     1     140.038  68.798 219.824 -0.11 -0.00    +0.001 A  
DOCKED: ATOM      4  C   UNL     1     141.268  69.437 219.647 -0.12 -0.00    +0.009 A  
DOCKED: ATOM      5  C   UNL     1     141.505  70.700 220.220 -0.11 +0.00    -0.018 A  
DOCKED: ATOM      6  C   UNL     1     140.480  71.312 220.967 -0.15 -0.00    +0.014 A  
DOCKED: ENDROOT
DOCKED: BRANCH   1   7
DOCKED: ATOM      7  C   UNL     1     138.156  71.319 221.959 -0.11 -0.03    +0.152 C  
DOCKED: BRANCH   7   8
DOCKED: ATOM      8  N   UNL     1     138.558  72.666 222.356 -0.08 +0.11    -0.348 N  
DOCKED: ATOM      9  C   UNL     1     138.573  73.766 221.431 -0.12 -0.06    +0.251 C  
DOCKED: ATOM     10  O   UNL     1     138.066  73.624 220.285 -0.03 +0.05    -0.269 OA 
DOCKED: ATOM     11  H   UNL     1     138.781  72.831 223.363 -0.40 -0.10    +0.164 HD 
DOCKED: BRANCH   9  12
DOCKED: ATOM     12  C   UNL     1     139.153  75.076 221.811 -0.27 -0.01    +0.039 A  
DOCKED: ATOM     13  C   UNL     1     140.540  75.240 221.960 -0.30 -0.00    +0.014 A  
DOCKED: ATOM     14  C   UNL     1     138.313  76.185 222.009 -0.26 -0.00    +0.014 A  
DOCKED: ATOM     15  C   UNL     1     141.074  76.483 222.315 -0.36 -0.00    +0.009 A  
DOCKED: ATOM     16  C   UNL     1     138.845  77.425 222.368 -0.30 -0.00    +0.009 A  
DOCKED: ATOM     17  C   UNL     1     140.232  77.590 222.526 -0.38 +0.00    -0.018 A  
DOCKED: BRANCH  17  18
DOCKED: ATOM     18  C   UNL     1     140.796  78.910 222.913 -0.46 +0.00    -0.018 A  
DOCKED: ATOM     19  C   UNL     1     139.950  80.010 223.146 -0.40 -0.00    +0.009 A  
DOCKED: ATOM     20  C   UNL     1     142.186  79.078 223.060 -0.58 -0.00    +0.009 A  
DOCKED: ATOM     21  C   UNL     1     140.484  81.247 223.523 -0.34 -0.00    +0.001 A  
DOCKED: ATOM     22  C   UNL     1     142.714  80.318 223.437 -0.67 -0.00    +0.001 A  
DOCKED: ATOM     23  C   UNL     1     141.864  81.401 223.670 -0.58 -0.00    +0.000 A  
DOCKED: ENDBRANCH  17  18
DOCKED: ENDBRANCH   9  12
DOCKED: ENDBRANCH   7   8
DOCKED: ENDBRANCH   1   7
DOCKED: BRANCH   5  24
DOCKED: ATOM     24  C   UNL     1     142.818  71.373 220.042 -0.20 +0.00    -0.018 A  
DOCKED: ATOM     25  C   UNL     1     143.963  70.628 219.703 -0.24 +0.00    +0.009 A  
DOCKED: ATOM     26  C   UNL     1     142.939  72.765 220.216 -0.25 -0.00    +0.018 A  
DOCKED: ATOM     27  C   UNL     1     145.198  71.261 219.545 -0.28 +0.00    +0.001 A  
DOCKED: ATOM     28  C   UNL     1     144.178  73.404 220.045 -0.39 -0.00    +0.007 A  
DOCKED: ATOM     29  C   UNL     1     145.309  72.642 219.721 -0.41 +0.00    +0.009 A  
DOCKED: BRANCH  28  30
DOCKED: ATOM     30  C   UNL     1     144.307  74.889 220.276 -0.16 -0.15    +0.297 C  
DOCKED: BRANCH  30  31
DOCKED: ATOM     31  N   UNL     1     142.988  75.540 220.190 -0.14 +0.19    -0.340 N  
DOCKED: ATOM     32  H   UNL     1     142.955  76.364 220.840 -0.26 -0.33    +0.346 HD 
DOCKED: ATOM     33  H   UNL     1     142.273  74.843 220.510 +0.12 -0.12    +0.346 HD 
DOCKED: BRANCH  31  34
DOCKED: ATOM     34  C   UNL     1     142.677  75.970 218.805 -0.21 -0.09    +0.182 C  
DOCKED: ATOM     35  C   UNL     1     142.802  77.491 218.637 -0.29 -0.05    +0.065 C  
DOCKED: ATOM     36  C   UNL     1     141.216  75.682 218.454 -0.08 -0.02    +0.065 C  
DOCKED: ATOM     37  C   UNL     1     141.410  78.075 218.875 -0.20 -0.00    +0.006 C  
DOCKED: ATOM     38  C   UNL     1     140.436  76.901 218.914 -0.09 -0.00    +0.006 C  
DOCKED: ENDBRANCH  31  34
DOCKED: ENDBRANCH  30  31
DOCKED: ENDBRANCH  28  30
DOCKED: ENDBRANCH   5  24
DOCKED: TORSDOF 8
DOCKED: TER
DOCKED: ENDMDL
________________________________________________________________________________


    FINAL DOCKED STATE:
    ________________________


Run:   15 / 20
Time taken for this run:   0.035s

DOCKED: MODEL        15
DOCKED: USER    Run = 15
DOCKED: USER
DOCKED: USER    Estimated Free Energy of Binding    =  -9.84 kcal/mol  [=(1)+(2)+(3)-(4)]
DOCKED: USER
DOCKED: USER    (1) Final Intermolecular Energy     = -12.22 kcal/mol
DOCKED: USER        vdW + Hbond + desolv Energy     = -10.80 kcal/mol
DOCKED: USER        Electrostatic Energy            =  -1.43 kcal/mol
DOCKED: USER        Moving Ligand-Fixed Receptor    = -12.22 kcal/mol
DOCKED: USER        Moving Ligand-Moving Receptor   =  +0.00 kcal/mol
DOCKED: USER    (2) Final Total Internal Energy     =  -1.90 kcal/mol
DOCKED: USER    (3) Torsional Free Energy           =  +2.39 kcal/mol
DOCKED: USER    (4) Unbound System's Energy         =  -1.90 kcal/mol
DOCKED: USER
DOCKED: USER
DOCKED: REMARK SMILES O=C(NCc1cccc(-c2cccc(C[NH2+]C3CCCC3)c2)c1)c1ccc(-c2ccccc2)cc1
DOCKED: REMARK SMILES IDX 5 1 6 2 7 3 8 4 9 5 23 6 4 7 3 8 2 9 1 10 24 12 25 13 35 14
DOCKED: REMARK SMILES IDX 26 15 34 16 27 17 28 18 29 19 33 20 30 21 32 22 31 23 10 24
DOCKED: REMARK SMILES IDX 11 25 22 26 12 27 14 28 13 29 15 30 16 31 17 34 18 35 21 36
DOCKED: REMARK SMILES IDX 19 37 20 38
DOCKED: REMARK H PARENT 3 11 16 32 16 33
DOCKED: USER                              x       y       z     vdW  Elec       q    Type
DOCKED: USER                           _______ _______ _______ _____ _____    ______ ____
DOCKED: ROOT
DOCKED: ATOM      1  C   UNL     1     141.171  78.160 222.597 -0.46 +0.01    -0.028 A  
DOCKED: ATOM      2  C   UNL     1     141.806  78.710 223.719 -0.61 -0.00    +0.005 A  
DOCKED: ATOM      3  C   UNL     1     142.371  79.985 223.654 -0.64 -0.00    +0.001 A  
DOCKED: ATOM      4  C   UNL     1     142.300  80.724 222.470 -0.55 -0.00    +0.009 A  
DOCKED: ATOM      5  C   UNL     1     141.655  80.198 221.336 -0.39 +0.01    -0.018 A  
DOCKED: ATOM      6  C   UNL     1     141.089  78.909 221.412 -0.33 -0.01    +0.014 A  
DOCKED: ENDROOT
DOCKED: BRANCH   1   7
DOCKED: ATOM      7  C   UNL     1     140.539  76.797 222.685 -0.20 -0.04    +0.152 C  
DOCKED: BRANCH   7   8
DOCKED: ATOM      8  N   UNL     1     141.353  75.818 221.969 -0.12 +0.12    -0.348 N  
DOCKED: ATOM      9  C   UNL     1     140.900  74.476 221.723 -0.08 -0.02    +0.251 C  
DOCKED: ATOM     10  O   UNL     1     139.703  74.167 221.973 -0.72 +0.04    -0.269 OA 
DOCKED: ATOM     11  H   UNL     1     142.267  76.137 221.578 -0.51 -0.14    +0.164 HD 
DOCKED: BRANCH   9  12
DOCKED: ATOM     12  C   UNL     1     141.810  73.454 221.156 -0.25 -0.01    +0.039 A  
DOCKED: ATOM     13  C   UNL     1     143.136  73.770 220.815 -0.28 -0.00    +0.014 A  
DOCKED: ATOM     14  C   UNL     1     141.358  72.137 220.969 -0.21 -0.00    +0.014 A  
DOCKED: ATOM     15  C   UNL     1     143.985  72.795 220.284 -0.35 -0.00    +0.009 A  
DOCKED: ATOM     16  C   UNL     1     142.204  71.163 220.434 -0.17 -0.00    +0.009 A  
DOCKED: ATOM     17  C   UNL     1     143.528  71.480 220.084 -0.25 +0.00    -0.018 A  
DOCKED: BRANCH  17  18
DOCKED: ATOM     18  C   UNL     1     144.426  70.443 219.511 -0.24 -0.00    -0.018 A  
DOCKED: ATOM     19  C   UNL     1     145.476  70.803 218.644 -0.27 +0.01    +0.009 A  
DOCKED: ATOM     20  C   UNL     1     144.246  69.085 219.832 -0.27 +0.00    +0.009 A  
DOCKED: ATOM     21  C   UNL     1     146.327  69.826 218.118 -0.25 +0.00    +0.001 A  
DOCKED: ATOM     22  C   UNL     1     145.100  68.112 219.301 -0.43 +0.00    +0.001 A  
DOCKED: ATOM     23  C   UNL     1     146.140  68.482 218.447 -0.35 +0.00    +0.000 A  
DOCKED: ENDBRANCH  17  18
DOCKED: ENDBRANCH   9  12
DOCKED: ENDBRANCH   7   8
DOCKED: ENDBRANCH   1   7
DOCKED: BRANCH   5  24
DOCKED: ATOM     24  C   UNL     1     141.569  80.989 220.082 -0.29 +0.01    -0.018 A  
DOCKED: ATOM     25  C   UNL     1     141.490  82.394 220.127 -0.23 -0.00    +0.009 A  
DOCKED: ATOM     26  C   UNL     1     141.559  80.348 218.828 -0.25 -0.01    +0.018 A  
DOCKED: ATOM     27  C   UNL     1     141.400  83.137 218.948 -0.19 -0.00    +0.001 A  
DOCKED: ATOM     28  C   UNL     1     141.481  81.095 217.642 -0.19 -0.00    +0.007 A  
DOCKED: ATOM     29  C   UNL     1     141.390  82.492 217.710 -0.17 -0.00    +0.009 A  
DOCKED: BRANCH  28  30
DOCKED: ATOM     30  C   UNL     1     141.427  80.397 216.305 -0.07 -0.21    +0.297 C  
DOCKED: BRANCH  30  31
DOCKED: ATOM     31  N   UNL     1     142.575  79.486 216.153 +0.20 +0.48    -0.340 N  
DOCKED: ATOM     32  H   UNL     1     143.236  79.609 216.960 -0.44 -0.68    +0.346 HD 
DOCKED: ATOM     33  H   UNL     1     143.078  79.760 215.275 -0.38 -0.73    +0.346 HD 
DOCKED: BRANCH  31  34
DOCKED: ATOM     34  C   UNL     1     142.144  78.071 216.058 -0.12 -0.15    +0.182 C  
DOCKED: ATOM     35  C   UNL     1     140.933  77.780 216.957 -0.07 -0.03    +0.065 C  
DOCKED: ATOM     36  C   UNL     1     143.226  77.128 216.588 -0.22 -0.05    +0.065 C  
DOCKED: ATOM     37  C   UNL     1     141.486  77.272 218.288 -0.16 -0.00    +0.006 C  
DOCKED: ATOM     38  C   UNL     1     142.975  77.013 218.081 -0.30 -0.00    +0.006 C  
DOCKED: ENDBRANCH  31  34
DOCKED: ENDBRANCH  30  31
DOCKED: ENDBRANCH  28  30
DOCKED: ENDBRANCH   5  24
DOCKED: TORSDOF 8
DOCKED: TER
DOCKED: ENDMDL
________________________________________________________________________________


    FINAL DOCKED STATE:
    ________________________


Run:   16 / 20
Time taken for this run:   0.035s

DOCKED: MODEL        16
DOCKED: USER    Run = 16
DOCKED: USER
DOCKED: USER    Estimated Free Energy of Binding    =  -8.60 kcal/mol  [=(1)+(2)+(3)-(4)]
DOCKED: USER
DOCKED: USER    (1) Final Intermolecular Energy     = -10.98 kcal/mol
DOCKED: USER        vdW + Hbond + desolv Energy     = -10.61 kcal/mol
DOCKED: USER        Electrostatic Energy            =  -0.37 kcal/mol
DOCKED: USER        Moving Ligand-Fixed Receptor    = -10.98 kcal/mol
DOCKED: USER        Moving Ligand-Moving Receptor   =  +0.00 kcal/mol
DOCKED: USER    (2) Final Total Internal Energy     =  -1.81 kcal/mol
DOCKED: USER    (3) Torsional Free Energy           =  +2.39 kcal/mol
DOCKED: USER    (4) Unbound System's Energy         =  -1.81 kcal/mol
DOCKED: USER
DOCKED: USER
DOCKED: REMARK SMILES O=C(NCc1cccc(-c2cccc(C[NH2+]C3CCCC3)c2)c1)c1ccc(-c2ccccc2)cc1
DOCKED: REMARK SMILES IDX 5 1 6 2 7 3 8 4 9 5 23 6 4 7 3 8 2 9 1 10 24 12 25 13 35 14
DOCKED: REMARK SMILES IDX 26 15 34 16 27 17 28 18 29 19 33 20 30 21 32 22 31 23 10 24
DOCKED: REMARK SMILES IDX 11 25 22 26 12 27 14 28 13 29 15 30 16 31 17 34 18 35 21 36
DOCKED: REMARK SMILES IDX 19 37 20 38
DOCKED: REMARK H PARENT 3 11 16 32 16 33
DOCKED: USER                              x       y       z     vdW  Elec       q    Type
DOCKED: USER                           _______ _______ _______ _____ _____    ______ ____
DOCKED: ROOT
DOCKED: ATOM      1  C   UNL     1     141.158  74.414 218.900 -0.07 +0.01    -0.028 A  
DOCKED: ATOM      2  C   UNL     1     142.408  73.872 219.230 -0.15 -0.00    +0.005 A  
DOCKED: ATOM      3  C   UNL     1     143.519  74.703 219.378 -0.33 -0.00    +0.001 A  
DOCKED: ATOM      4  C   UNL     1     143.391  76.084 219.205 -0.38 -0.01    +0.009 A  
DOCKED: ATOM      5  C   UNL     1     142.143  76.651 218.888 -0.25 +0.01    -0.018 A  
DOCKED: ATOM      6  C   UNL     1     141.028  75.803 218.739 -0.09 -0.00    +0.014 A  
DOCKED: ENDROOT
DOCKED: BRANCH   1   7
DOCKED: ATOM      7  C   UNL     1     139.960  73.514 218.771 -0.02 -0.03    +0.152 C  
DOCKED: BRANCH   7   8
DOCKED: ATOM      8  N   UNL     1     139.852  72.647 219.942 -0.01 +0.06    -0.348 N  
DOCKED: ATOM      9  C   UNL     1     139.472  73.147 221.235 -0.13 -0.05    +0.251 C  
DOCKED: ATOM     10  O   UNL     1     139.049  74.330 221.346 -0.17 +0.06    -0.269 OA 
DOCKED: ATOM     11  H   UNL     1     140.002  71.623 219.805 +0.03 -0.03    +0.164 HD 
DOCKED: BRANCH   9  12
DOCKED: ATOM     12  C   UNL     1     139.544  72.286 222.439 -0.27 -0.01    +0.039 A  
DOCKED: ATOM     13  C   UNL     1     138.407  71.617 222.922 -0.21 -0.00    +0.014 A  
DOCKED: ATOM     14  C   UNL     1     140.768  72.113 223.106 -0.23 -0.00    +0.014 A  
DOCKED: ATOM     15  C   UNL     1     138.490  70.805 224.058 -0.30 -0.00    +0.009 A  
DOCKED: ATOM     16  C   UNL     1     140.851  71.305 224.243 -0.34 -0.00    +0.009 A  
DOCKED: ATOM     17  C   UNL     1     139.712  70.642 224.733 -0.43 +0.00    -0.018 A  
DOCKED: BRANCH  17  18
DOCKED: ATOM     18  C   UNL     1     139.801  69.787 225.946 -0.46 +0.00    -0.018 A  
DOCKED: ATOM     19  C   UNL     1     139.569  68.401 225.865 -0.53 -0.00    +0.009 A  
DOCKED: ATOM     20  C   UNL     1     140.128  70.349 227.195 -0.58 -0.00    +0.009 A  
DOCKED: ATOM     21  C   UNL     1     139.667  67.598 227.006 -0.56 -0.00    +0.001 A  
DOCKED: ATOM     22  C   UNL     1     140.224  69.541 228.333 -0.62 -0.00    +0.001 A  
DOCKED: ATOM     23  C   UNL     1     139.995  68.167 228.238 -0.53 -0.00    +0.000 A  
DOCKED: ENDBRANCH  17  18
DOCKED: ENDBRANCH   9  12
DOCKED: ENDBRANCH   7   8
DOCKED: ENDBRANCH   1   7
DOCKED: BRANCH   5  24
DOCKED: ATOM     24  C   UNL     1     142.005  78.120 218.716 -0.27 +0.01    -0.018 A  
DOCKED: ATOM     25  C   UNL     1     141.934  78.686 217.429 -0.23 -0.01    +0.009 A  
DOCKED: ATOM     26  C   UNL     1     141.952  78.972 219.836 -0.22 -0.01    +0.018 A  
DOCKED: ATOM     27  C   UNL     1     141.814  80.068 217.268 -0.22 -0.00    +0.001 A  
DOCKED: ATOM     28  C   UNL     1     141.818  80.360 219.676 -0.31 -0.00    +0.007 A  
DOCKED: ATOM     29  C   UNL     1     141.762  80.904 218.385 -0.27 -0.01    +0.009 A  
DOCKED: BRANCH  28  30
DOCKED: ATOM     30  C   UNL     1     141.804  81.268 220.881 -0.15 -0.09    +0.297 C  
DOCKED: BRANCH  30  31
DOCKED: ATOM     31  N   UNL     1     142.505  80.633 222.012 -0.23 +0.12    -0.340 N  
DOCKED: ATOM     32  H   UNL     1     143.260  81.271 222.364 +0.25 -0.08    +0.346 HD 
DOCKED: ATOM     33  H   UNL     1     142.957  79.760 221.650 -0.27 -0.23    +0.346 HD 
DOCKED: BRANCH  31  34
DOCKED: ATOM     34  C   UNL     1     141.572  80.290 223.112 -0.44 -0.04    +0.182 C  
DOCKED: ATOM     35  C   UNL     1     141.953  78.968 223.794 -0.53 -0.02    +0.065 C  
DOCKED: ATOM     36  C   UNL     1     140.162  80.032 222.578 -0.33 -0.01    +0.065 C  
DOCKED: ATOM     37  C   UNL     1     141.155  77.868 223.096 -0.42 -0.00    +0.006 C  
DOCKED: ATOM     38  C   UNL     1     140.127  78.559 222.207 -0.34 -0.00    +0.006 C  
DOCKED: ENDBRANCH  31  34
DOCKED: ENDBRANCH  30  31
DOCKED: ENDBRANCH  28  30
DOCKED: ENDBRANCH   5  24
DOCKED: TORSDOF 8
DOCKED: TER
DOCKED: ENDMDL
________________________________________________________________________________


    FINAL DOCKED STATE:
    ________________________


Run:   17 / 20
Time taken for this run:   0.035s

DOCKED: MODEL        17
DOCKED: USER    Run = 17
DOCKED: USER
DOCKED: USER    Estimated Free Energy of Binding    =  -9.19 kcal/mol  [=(1)+(2)+(3)-(4)]
DOCKED: USER
DOCKED: USER    (1) Final Intermolecular Energy     = -11.58 kcal/mol
DOCKED: USER        vdW + Hbond + desolv Energy     = -10.84 kcal/mol
DOCKED: USER        Electrostatic Energy            =  -0.74 kcal/mol
DOCKED: USER        Moving Ligand-Fixed Receptor    = -11.58 kcal/mol
DOCKED: USER        Moving Ligand-Moving Receptor   =  +0.00 kcal/mol
DOCKED: USER    (2) Final Total Internal Energy     =  -1.16 kcal/mol
DOCKED: USER    (3) Torsional Free Energy           =  +2.39 kcal/mol
DOCKED: USER    (4) Unbound System's Energy         =  -1.16 kcal/mol
DOCKED: USER
DOCKED: USER
DOCKED: REMARK SMILES O=C(NCc1cccc(-c2cccc(C[NH2+]C3CCCC3)c2)c1)c1ccc(-c2ccccc2)cc1
DOCKED: REMARK SMILES IDX 5 1 6 2 7 3 8 4 9 5 23 6 4 7 3 8 2 9 1 10 24 12 25 13 35 14
DOCKED: REMARK SMILES IDX 26 15 34 16 27 17 28 18 29 19 33 20 30 21 32 22 31 23 10 24
DOCKED: REMARK SMILES IDX 11 25 22 26 12 27 14 28 13 29 15 30 16 31 17 34 18 35 21 36
DOCKED: REMARK SMILES IDX 19 37 20 38
DOCKED: REMARK H PARENT 3 11 16 32 16 33
DOCKED: USER                              x       y       z     vdW  Elec       q    Type
DOCKED: USER                           _______ _______ _______ _____ _____    ______ ____
DOCKED: ROOT
DOCKED: ATOM      1  C   UNL     1     136.196  75.961 221.674 -0.11 +0.01    -0.028 A  
DOCKED: ATOM      2  C   UNL     1     134.876  76.432 221.664 -0.06 -0.00    +0.005 A  
DOCKED: ATOM      3  C   UNL     1     134.590  77.735 222.073 -0.06 -0.00    +0.001 A  
DOCKED: ATOM      4  C   UNL     1     135.621  78.583 222.487 -0.11 -0.00    +0.009 A  
DOCKED: ATOM      5  C   UNL     1     136.955  78.136 222.491 -0.18 +0.00    -0.018 A  
DOCKED: ATOM      6  C   UNL     1     137.233  76.818 222.078 -0.20 -0.00    +0.014 A  
DOCKED: ENDROOT
DOCKED: BRANCH   1   7
DOCKED: ATOM      7  C   UNL     1     136.498  74.564 221.204 -0.07 -0.03    +0.152 C  
DOCKED: BRANCH   7   8
DOCKED: ATOM      8  N   UNL     1     137.249  73.840 222.228 -0.05 +0.12    -0.348 N  
DOCKED: ATOM      9  C   UNL     1     137.821  72.544 221.987 -0.10 -0.07    +0.251 C  
DOCKED: ATOM     10  O   UNL     1     137.834  72.075 220.816 -0.03 +0.05    -0.269 OA 
DOCKED: ATOM     11  H   UNL     1     137.417  74.320 223.140 -0.45 -0.10    +0.164 HD 
DOCKED: BRANCH   9  12
DOCKED: ATOM     12  C   UNL     1     138.420  71.756 223.090 -0.18 -0.01    +0.039 A  
DOCKED: ATOM     13  C   UNL     1     137.660  70.819 223.809 -0.24 -0.00    +0.014 A  
DOCKED: ATOM     14  C   UNL     1     139.775  71.924 223.417 -0.32 -0.00    +0.014 A  
DOCKED: ATOM     15  C   UNL     1     138.239  70.079 224.845 -0.29 -0.00    +0.009 A  
DOCKED: ATOM     16  C   UNL     1     140.353  71.189 224.455 -0.47 -0.00    +0.009 A  
DOCKED: ATOM     17  C   UNL     1     139.592  70.258 225.182 -0.43 +0.00    -0.018 A  
DOCKED: BRANCH  17  18
DOCKED: ATOM     18  C   UNL     1     140.208  69.480 226.289 -0.51 +0.00    -0.018 A  
DOCKED: ATOM     19  C   UNL     1     140.528  70.103 227.511 -0.61 -0.00    +0.009 A  
DOCKED: ATOM     20  C   UNL     1     140.474  68.107 226.137 -0.60 -0.00    +0.009 A  
DOCKED: ATOM     21  C   UNL     1     141.094  69.364 228.556 -0.49 -0.00    +0.001 A  
DOCKED: ATOM     22  C   UNL     1     141.041  67.373 227.184 -0.44 -0.00    +0.001 A  
DOCKED: ATOM     23  C   UNL     1     141.350  68.001 228.392 -0.51 -0.00    +0.000 A  
DOCKED: ENDBRANCH  17  18
DOCKED: ENDBRANCH   9  12
DOCKED: ENDBRANCH   7   8
DOCKED: ENDBRANCH   1   7
DOCKED: BRANCH   5  24
DOCKED: ATOM     24  C   UNL     1     138.052  79.041 222.920 -0.25 +0.00    -0.018 A  
DOCKED: ATOM     25  C   UNL     1     137.767  80.340 223.385 -0.29 -0.00    +0.009 A  
DOCKED: ATOM     26  C   UNL     1     139.394  78.620 222.863 -0.33 -0.00    +0.018 A  
DOCKED: ATOM     27  C   UNL     1     138.799  81.194 223.779 -0.30 -0.00    +0.001 A  
DOCKED: ATOM     28  C   UNL     1     140.432  79.474 223.270 -0.46 -0.00    +0.007 A  
DOCKED: ATOM     29  C   UNL     1     140.127  80.767 223.717 -0.39 -0.00    +0.009 A  
DOCKED: BRANCH  28  30
DOCKED: ATOM     30  C   UNL     1     141.869  79.029 223.165 -0.37 -0.11    +0.297 C  
DOCKED: BRANCH  30  31
DOCKED: ATOM     31  N   UNL     1     142.214  78.727 221.764 -0.16 +0.22    -0.340 N  
DOCKED: ATOM     32  H   UNL     1     142.266  77.687 221.627 -0.32 -0.31    +0.346 HD 
DOCKED: ATOM     33  H   UNL     1     143.164  79.128 221.581 -0.33 -0.35    +0.346 HD 
DOCKED: BRANCH  31  34
DOCKED: ATOM     34  C   UNL     1     141.235  79.317 220.819 -0.23 -0.08    +0.182 C  
DOCKED: ATOM     35  C   UNL     1     140.979  78.401 219.613 -0.18 -0.03    +0.065 C  
DOCKED: ATOM     36  C   UNL     1     141.781  80.601 220.192 -0.29 -0.03    +0.065 C  
DOCKED: ATOM     37  C   UNL     1     141.945  78.841 218.514 -0.28 -0.00    +0.006 C  
DOCKED: ATOM     38  C   UNL     1     142.565  80.159 218.968 -0.16 -0.00    +0.006 C  
DOCKED: ENDBRANCH  31  34
DOCKED: ENDBRANCH  30  31
DOCKED: ENDBRANCH  28  30
DOCKED: ENDBRANCH   5  24
DOCKED: TORSDOF 8
DOCKED: TER
DOCKED: ENDMDL
________________________________________________________________________________


    FINAL DOCKED STATE:
    ________________________


Run:   18 / 20
Time taken for this run:   0.035s

DOCKED: MODEL        18
DOCKED: USER    Run = 18
DOCKED: USER
DOCKED: USER    Estimated Free Energy of Binding    =  -9.81 kcal/mol  [=(1)+(2)+(3)-(4)]
DOCKED: USER
DOCKED: USER    (1) Final Intermolecular Energy     = -12.20 kcal/mol
DOCKED: USER        vdW + Hbond + desolv Energy     = -11.44 kcal/mol
DOCKED: USER        Electrostatic Energy            =  -0.76 kcal/mol
DOCKED: USER        Moving Ligand-Fixed Receptor    = -12.20 kcal/mol
DOCKED: USER        Moving Ligand-Moving Receptor   =  +0.00 kcal/mol
DOCKED: USER    (2) Final Total Internal Energy     =  -1.15 kcal/mol
DOCKED: USER    (3) Torsional Free Energy           =  +2.39 kcal/mol
DOCKED: USER    (4) Unbound System's Energy         =  -1.15 kcal/mol
DOCKED: USER
DOCKED: USER
DOCKED: REMARK SMILES O=C(NCc1cccc(-c2cccc(C[NH2+]C3CCCC3)c2)c1)c1ccc(-c2ccccc2)cc1
DOCKED: REMARK SMILES IDX 5 1 6 2 7 3 8 4 9 5 23 6 4 7 3 8 2 9 1 10 24 12 25 13 35 14
DOCKED: REMARK SMILES IDX 26 15 34 16 27 17 28 18 29 19 33 20 30 21 32 22 31 23 10 24
DOCKED: REMARK SMILES IDX 11 25 22 26 12 27 14 28 13 29 15 30 16 31 17 34 18 35 21 36
DOCKED: REMARK SMILES IDX 19 37 20 38
DOCKED: REMARK H PARENT 3 11 16 32 16 33
DOCKED: USER                              x       y       z     vdW  Elec       q    Type
DOCKED: USER                           _______ _______ _______ _____ _____    ______ ____
DOCKED: ROOT
DOCKED: ATOM      1  C   UNL     1     138.130  71.784 222.948 -0.18 +0.01    -0.028 A  
DOCKED: ATOM      2  C   UNL     1     138.773  70.871 223.795 -0.31 -0.00    +0.005 A  
DOCKED: ATOM      3  C   UNL     1     140.165  70.857 223.889 -0.38 -0.00    +0.001 A  
DOCKED: ATOM      4  C   UNL     1     140.928  71.762 223.145 -0.17 -0.00    +0.009 A  
DOCKED: ATOM      5  C   UNL     1     140.304  72.696 222.299 -0.32 +0.00    -0.018 A  
DOCKED: ATOM      6  C   UNL     1     138.897  72.700 222.210 -0.20 -0.00    +0.014 A  
DOCKED: ENDROOT
DOCKED: BRANCH   1   7
DOCKED: ATOM      7  C   UNL     1     136.628  71.811 222.874 -0.13 -0.04    +0.152 C  
DOCKED: BRANCH   7   8
DOCKED: ATOM      8  N   UNL     1     136.097  72.832 223.775 -0.07 +0.10    -0.348 N  
DOCKED: ATOM      9  C   UNL     1     134.960  72.594 224.620 -0.14 -0.03    +0.251 C  
DOCKED: ATOM     10  O   UNL     1     134.497  71.425 224.729 -0.11 +0.03    -0.269 OA 
DOCKED: ATOM     11  H   UNL     1     136.610  73.740 223.837 -0.51 -0.09    +0.164 HD 
DOCKED: BRANCH   9  12
DOCKED: ATOM     12  C   UNL     1     134.333  73.696 225.387 -0.30 -0.00    +0.039 A  
DOCKED: ATOM     13  C   UNL     1     134.818  75.012 225.296 -0.38 -0.00    +0.014 A  
DOCKED: ATOM     14  C   UNL     1     133.223  73.438 226.208 -0.33 -0.00    +0.014 A  
DOCKED: ATOM     15  C   UNL     1     134.216  76.043 226.023 -0.36 -0.00    +0.009 A  
DOCKED: ATOM     16  C   UNL     1     132.623  74.467 226.938 -0.38 -0.00    +0.009 A  
DOCKED: ATOM     17  C   UNL     1     133.113  75.782 226.856 -0.38 +0.00    -0.018 A  
DOCKED: BRANCH  17  18
DOCKED: ATOM     18  C   UNL     1     132.476  76.874 227.637 -0.34 +0.00    -0.018 A  
DOCKED: ATOM     19  C   UNL     1     133.198  78.040 227.959 -0.33 -0.00    +0.009 A  
DOCKED: ATOM     20  C   UNL     1     131.139  76.765 228.061 -0.29 +0.00    +0.009 A  
DOCKED: ATOM     21  C   UNL     1     132.590  79.072 228.683 -0.31 +0.00    +0.001 A  
DOCKED: ATOM     22  C   UNL     1     130.537  77.800 228.786 -0.28 +0.00    +0.001 A  
DOCKED: ATOM     23  C   UNL     1     131.262  78.952 229.095 -0.24 +0.00    +0.000 A  
DOCKED: ENDBRANCH  17  18
DOCKED: ENDBRANCH   9  12
DOCKED: ENDBRANCH   7   8
DOCKED: ENDBRANCH   1   7
DOCKED: BRANCH   5  24
DOCKED: ATOM     24  C   UNL     1     141.114  73.665 221.517 -0.28 +0.00    -0.018 A  
DOCKED: ATOM     25  C   UNL     1     142.300  73.253 220.878 -0.26 -0.00    +0.009 A  
DOCKED: ATOM     26  C   UNL     1     140.716  75.011 221.408 -0.32 -0.00    +0.018 A  
DOCKED: ATOM     27  C   UNL     1     143.066  74.166 220.151 -0.32 -0.00    +0.001 A  
DOCKED: ATOM     28  C   UNL     1     141.480  75.927 220.667 -0.29 -0.00    +0.007 A  
DOCKED: ATOM     29  C   UNL     1     142.663  75.499 220.050 -0.33 -0.00    +0.009 A  
DOCKED: BRANCH  28  30
DOCKED: ATOM     30  C   UNL     1     141.068  77.376 220.592 -0.15 -0.13    +0.297 C  
DOCKED: BRANCH  30  31
DOCKED: ATOM     31  N   UNL     1     141.922  78.200 221.465 -0.10 +0.22    -0.340 N  
DOCKED: ATOM     32  H   UNL     1     142.504  78.851 220.882 -0.20 -0.29    +0.346 HD 
DOCKED: ATOM     33  H   UNL     1     142.569  77.552 221.974 -0.29 -0.42    +0.346 HD 
DOCKED: BRANCH  31  34
DOCKED: ATOM     34  C   UNL     1     141.121  78.972 222.446 -0.35 -0.06    +0.182 C  
DOCKED: ATOM     35  C   UNL     1     140.993  80.449 222.044 -0.37 -0.02    +0.065 C  
DOCKED: ATOM     36  C   UNL     1     141.817  79.023 223.807 -0.58 -0.02    +0.065 C  
DOCKED: ATOM     37  C   UNL     1     142.128  81.195 222.745 -0.53 -0.00    +0.006 C  
DOCKED: ATOM     38  C   UNL     1     142.743  80.225 223.750 -0.63 -0.00    +0.006 C  
DOCKED: ENDBRANCH  31  34
DOCKED: ENDBRANCH  30  31
DOCKED: ENDBRANCH  28  30
DOCKED: ENDBRANCH   5  24
DOCKED: TORSDOF 8
DOCKED: TER
DOCKED: ENDMDL
________________________________________________________________________________


    FINAL DOCKED STATE:
    ________________________


Run:   19 / 20
Time taken for this run:   0.035s

DOCKED: MODEL        19
DOCKED: USER    Run = 19
DOCKED: USER
DOCKED: USER    Estimated Free Energy of Binding    =  -8.69 kcal/mol  [=(1)+(2)+(3)-(4)]
DOCKED: USER
DOCKED: USER    (1) Final Intermolecular Energy     = -11.08 kcal/mol
DOCKED: USER        vdW + Hbond + desolv Energy     = -10.60 kcal/mol
DOCKED: USER        Electrostatic Energy            =  -0.48 kcal/mol
DOCKED: USER        Moving Ligand-Fixed Receptor    = -11.08 kcal/mol
DOCKED: USER        Moving Ligand-Moving Receptor   =  +0.00 kcal/mol
DOCKED: USER    (2) Final Total Internal Energy     =  -1.28 kcal/mol
DOCKED: USER    (3) Torsional Free Energy           =  +2.39 kcal/mol
DOCKED: USER    (4) Unbound System's Energy         =  -1.28 kcal/mol
DOCKED: USER
DOCKED: USER
DOCKED: REMARK SMILES O=C(NCc1cccc(-c2cccc(C[NH2+]C3CCCC3)c2)c1)c1ccc(-c2ccccc2)cc1
DOCKED: REMARK SMILES IDX 5 1 6 2 7 3 8 4 9 5 23 6 4 7 3 8 2 9 1 10 24 12 25 13 35 14
DOCKED: REMARK SMILES IDX 26 15 34 16 27 17 28 18 29 19 33 20 30 21 32 22 31 23 10 24
DOCKED: REMARK SMILES IDX 11 25 22 26 12 27 14 28 13 29 15 30 16 31 17 34 18 35 21 36
DOCKED: REMARK SMILES IDX 19 37 20 38
DOCKED: REMARK H PARENT 3 11 16 32 16 33
DOCKED: USER                              x       y       z     vdW  Elec       q    Type
DOCKED: USER                           _______ _______ _______ _____ _____    ______ ____
DOCKED: ROOT
DOCKED: ATOM      1  C   UNL     1     135.266  80.717 224.641 -0.18 +0.00    -0.028 A  
DOCKED: ATOM      2  C   UNL     1     135.370  81.729 225.605 -0.23 -0.00    +0.005 A  
DOCKED: ATOM      3  C   UNL     1     136.624  82.195 226.004 -0.41 -0.00    +0.001 A  
DOCKED: ATOM      4  C   UNL     1     137.784  81.660 225.437 -0.29 -0.00    +0.009 A  
DOCKED: ATOM      5  C   UNL     1     137.703  80.654 224.458 -0.37 +0.00    -0.018 A  
DOCKED: ATOM      6  C   UNL     1     136.433  80.189 224.064 -0.22 -0.00    +0.014 A  
DOCKED: ENDROOT
DOCKED: BRANCH   1   7
DOCKED: ATOM      7  C   UNL     1     133.910  80.240 224.196 -0.07 -0.02    +0.152 C  
DOCKED: BRANCH   7   8
DOCKED: ATOM      8  N   UNL     1     133.811  78.790 224.349 -0.04 +0.04    -0.348 N  
DOCKED: ATOM      9  C   UNL     1     133.605  78.166 225.627 -0.05 -0.03    +0.251 C  
DOCKED: ATOM     10  O   UNL     1     133.328  78.877 226.632 -0.14 +0.05    -0.269 OA 
DOCKED: ATOM     11  H   UNL     1     133.833  78.207 223.483 +0.03 -0.02    +0.164 HD 
DOCKED: BRANCH   9  12
DOCKED: ATOM     12  C   UNL     1     133.687  76.694 225.781 -0.26 -0.00    +0.039 A  
DOCKED: ATOM     13  C   UNL     1     132.833  76.008 226.660 -0.33 -0.00    +0.014 A  
DOCKED: ATOM     14  C   UNL     1     134.615  75.960 225.025 -0.31 -0.00    +0.014 A  
DOCKED: ATOM     15  C   UNL     1     132.919  74.618 226.793 -0.37 +0.00    +0.009 A  
DOCKED: ATOM     16  C   UNL     1     134.705  74.572 225.161 -0.35 -0.00    +0.009 A  
DOCKED: ATOM     17  C   UNL     1     133.858  73.885 226.047 -0.33 -0.00    -0.018 A  
DOCKED: BRANCH  17  18
DOCKED: ATOM     18  C   UNL     1     133.957  72.408 226.193 -0.34 +0.00    -0.018 A  
DOCKED: ATOM     19  C   UNL     1     133.849  71.568 225.068 -0.19 -0.00    +0.009 A  
DOCKED: ATOM     20  C   UNL     1     134.169  71.828 227.457 -0.31 -0.00    +0.009 A  
DOCKED: ATOM     21  C   UNL     1     133.958  70.180 225.209 -0.22 -0.00    +0.001 A  
DOCKED: ATOM     22  C   UNL     1     134.275  70.439 227.591 -0.36 -0.00    +0.001 A  
DOCKED: ATOM     23  C   UNL     1     134.171  69.616 226.468 -0.29 -0.00    +0.000 A  
DOCKED: ENDBRANCH  17  18
DOCKED: ENDBRANCH   9  12
DOCKED: ENDBRANCH   7   8
DOCKED: ENDBRANCH   1   7
DOCKED: BRANCH   5  24
DOCKED: ATOM     24  C   UNL     1     138.937  80.095 223.848 -0.41 +0.00    -0.018 A  
DOCKED: ATOM     25  C   UNL     1     140.126  80.848 223.823 -0.37 -0.00    +0.009 A  
DOCKED: ATOM     26  C   UNL     1     138.935  78.807 223.278 -0.29 -0.00    +0.018 A  
DOCKED: ATOM     27  C   UNL     1     141.283  80.325 223.241 -0.53 -0.00    +0.001 A  
DOCKED: ATOM     28  C   UNL     1     140.101  78.276 222.703 -0.39 -0.00    +0.007 A  
DOCKED: ATOM     29  C   UNL     1     141.271  79.047 222.678 -0.48 -0.00    +0.009 A  
DOCKED: BRANCH  28  30
DOCKED: ATOM     30  C   UNL     1     140.078  76.913 222.057 -0.23 -0.08    +0.297 C  
DOCKED: BRANCH  30  31
DOCKED: ATOM     31  N   UNL     1     141.445  76.483 221.714 -0.07 +0.17    -0.340 N  
DOCKED: ATOM     32  H   UNL     1     141.836  75.891 222.488 -0.37 -0.17    +0.346 HD 
DOCKED: ATOM     33  H   UNL     1     142.035  77.346 221.635 -0.31 -0.28    +0.346 HD 
DOCKED: BRANCH  31  34
DOCKED: ATOM     34  C   UNL     1     141.481  75.737 220.433 -0.20 -0.07    +0.182 C  
DOCKED: ATOM     35  C   UNL     1     142.349  74.475 220.530 -0.27 -0.02    +0.065 C  
DOCKED: ATOM     36  C   UNL     1     142.156  76.561 219.335 -0.26 -0.03    +0.065 C  
DOCKED: ATOM     37  C   UNL     1     143.750  74.868 220.063 -0.42 -0.00    +0.006 C  
DOCKED: ATOM     38  C   UNL     1     143.640  76.261 219.450 -0.34 -0.00    +0.006 C  
DOCKED: ENDBRANCH  31  34
DOCKED: ENDBRANCH  30  31
DOCKED: ENDBRANCH  28  30
DOCKED: ENDBRANCH   5  24
DOCKED: TORSDOF 8
DOCKED: TER
DOCKED: ENDMDL
________________________________________________________________________________


    FINAL DOCKED STATE:
    ________________________


Run:   20 / 20
Time taken for this run:   0.035s

DOCKED: MODEL        20
DOCKED: USER    Run = 20
DOCKED: USER
DOCKED: USER    Estimated Free Energy of Binding    =  -9.46 kcal/mol  [=(1)+(2)+(3)-(4)]
DOCKED: USER
DOCKED: USER    (1) Final Intermolecular Energy     = -11.85 kcal/mol
DOCKED: USER        vdW + Hbond + desolv Energy     = -10.41 kcal/mol
DOCKED: USER        Electrostatic Energy            =  -1.44 kcal/mol
DOCKED: USER        Moving Ligand-Fixed Receptor    = -11.85 kcal/mol
DOCKED: USER        Moving Ligand-Moving Receptor   =  +0.00 kcal/mol
DOCKED: USER    (2) Final Total Internal Energy     =  -2.11 kcal/mol
DOCKED: USER    (3) Torsional Free Energy           =  +2.39 kcal/mol
DOCKED: USER    (4) Unbound System's Energy         =  -2.11 kcal/mol
DOCKED: USER
DOCKED: USER
DOCKED: REMARK SMILES O=C(NCc1cccc(-c2cccc(C[NH2+]C3CCCC3)c2)c1)c1ccc(-c2ccccc2)cc1
DOCKED: REMARK SMILES IDX 5 1 6 2 7 3 8 4 9 5 23 6 4 7 3 8 2 9 1 10 24 12 25 13 35 14
DOCKED: REMARK SMILES IDX 26 15 34 16 27 17 28 18 29 19 33 20 30 21 32 22 31 23 10 24
DOCKED: REMARK SMILES IDX 11 25 22 26 12 27 14 28 13 29 15 30 16 31 17 34 18 35 21 36
DOCKED: REMARK SMILES IDX 19 37 20 38
DOCKED: REMARK H PARENT 3 11 16 32 16 33
DOCKED: USER                              x       y       z     vdW  Elec       q    Type
DOCKED: USER                           _______ _______ _______ _____ _____    ______ ____
DOCKED: ROOT
DOCKED: ATOM      1  C   UNL     1     141.160  78.207 222.516 -0.45 +0.01    -0.028 A  
DOCKED: ATOM      2  C   UNL     1     141.550  78.972 223.624 -0.60 -0.00    +0.005 A  
DOCKED: ATOM      3  C   UNL     1     142.019  80.274 223.450 -0.63 -0.00    +0.001 A  
DOCKED: ATOM      4  C   UNL     1     142.096  80.827 222.169 -0.51 -0.00    +0.009 A  
DOCKED: ATOM      5  C   UNL     1     141.697  80.083 221.044 -0.36 +0.01    -0.018 A  
DOCKED: ATOM      6  C   UNL     1     141.226  78.768 221.231 -0.32 -0.01    +0.014 A  
DOCKED: ENDROOT
DOCKED: BRANCH   1   7
DOCKED: ATOM      7  C   UNL     1     140.628  76.813 222.716 -0.20 -0.04    +0.152 C  
DOCKED: BRANCH   7   8
DOCKED: ATOM      8  N   UNL     1     141.435  75.854 221.965 -0.10 +0.13    -0.348 N  
DOCKED: ATOM      9  C   UNL     1     140.992  74.510 221.713 -0.07 -0.03    +0.251 C  
DOCKED: ATOM     10  O   UNL     1     139.806  74.182 221.990 -0.77 +0.03    -0.269 OA 
DOCKED: ATOM     11  H   UNL     1     142.334  76.190 221.554 -0.50 -0.15    +0.164 HD 
DOCKED: BRANCH   9  12
DOCKED: ATOM     12  C   UNL     1     141.899  73.507 221.107 -0.23 -0.01    +0.039 A  
DOCKED: ATOM     13  C   UNL     1     143.172  73.869 220.638 -0.31 -0.00    +0.014 A  
DOCKED: ATOM     14  C   UNL     1     141.498  72.164 221.014 -0.22 -0.00    +0.014 A  
DOCKED: ATOM     15  C   UNL     1     144.020  72.912 220.072 -0.34 -0.00    +0.009 A  
DOCKED: ATOM     16  C   UNL     1     142.342  71.208 220.444 -0.17 -0.00    +0.009 A  
DOCKED: ATOM     17  C   UNL     1     143.614  71.570 219.966 -0.24 +0.00    -0.018 A  
DOCKED: BRANCH  17  18
DOCKED: ATOM     18  C   UNL     1     144.509  70.551 219.356 -0.25 -0.00    -0.018 A  
DOCKED: ATOM     19  C   UNL     1     145.464  70.923 218.390 -0.24 +0.01    +0.009 A  
DOCKED: ATOM     20  C   UNL     1     144.421  69.201 219.741 -0.29 +0.00    +0.009 A  
DOCKED: ATOM     21  C   UNL     1     146.313  69.963 217.829 -0.20 +0.00    +0.001 A  
DOCKED: ATOM     22  C   UNL     1     145.273  68.246 219.175 -0.43 +0.00    +0.001 A  
DOCKED: ATOM     23  C   UNL     1     146.219  68.627 218.222 -0.31 +0.00    +0.000 A  
DOCKED: ENDBRANCH  17  18
DOCKED: ENDBRANCH   9  12
DOCKED: ENDBRANCH   7   8
DOCKED: ENDBRANCH   1   7
DOCKED: BRANCH   5  24
DOCKED: ATOM     24  C   UNL     1     141.768  80.675 219.684 -0.30 +0.01    -0.018 A  
DOCKED: ATOM     25  C   UNL     1     141.821  82.072 219.514 -0.18 -0.00    +0.009 A  
DOCKED: ATOM     26  C   UNL     1     141.774  79.852 218.542 -0.27 -0.01    +0.018 A  
DOCKED: ATOM     27  C   UNL     1     141.878  82.629 218.235 -0.23 -0.00    +0.001 A  
DOCKED: ATOM     28  C   UNL     1     141.844  80.410 217.255 -0.22 -0.01    +0.007 A  
DOCKED: ATOM     29  C   UNL     1     141.884  81.804 217.109 -0.20 -0.01    +0.009 A  
DOCKED: BRANCH  28  30
DOCKED: ATOM     30  C   UNL     1     141.808  79.522 216.037 -0.08 -0.26    +0.297 C  
DOCKED: BRANCH  30  31
DOCKED: ATOM     31  N   UNL     1     142.948  78.588 216.046 +0.26 +0.49    -0.340 N  
DOCKED: ATOM     32  H   UNL     1     143.589  78.818 216.844 -0.39 -0.71    +0.346 HD 
DOCKED: ATOM     33  H   UNL     1     143.475  78.728 215.152 -0.14 -0.69    +0.346 HD 
DOCKED: BRANCH  31  34
DOCKED: ATOM     34  C   UNL     1     142.500  77.177 216.143 -0.13 -0.13    +0.182 C  
DOCKED: ATOM     35  C   UNL     1     141.285  77.025 217.070 -0.08 -0.03    +0.065 C  
DOCKED: ATOM     36  C   UNL     1     143.571  76.303 216.797 -0.21 -0.04    +0.065 C  
DOCKED: ATOM     37  C   UNL     1     141.832  76.695 218.459 -0.19 -0.00    +0.006 C  
DOCKED: ATOM     38  C   UNL     1     143.318  76.394 218.292 -0.31 -0.00    +0.006 C  
DOCKED: ENDBRANCH  31  34
DOCKED: ENDBRANCH  30  31
DOCKED: ENDBRANCH  28  30
DOCKED: ENDBRANCH   5  24
DOCKED: TORSDOF 8
DOCKED: TER
DOCKED: ENDMDL
________________________________________________________________________________


    CLUSTERING HISTOGRAM
    ____________________


________________________________________________________________________________
     |           |     |           |     |
Clus | Lowest    | Run | Mean      | Num | Histogram
-ter | Binding   |     | Binding   | in  |
Rank | Energy    |     | Energy    | Clus|    5    10   15   20   25   30   35
_____|___________|_____|___________|_____|____:____|____:____|____:____|____:___
   1 |    -10.12 |  10 |     -9.40 |   9 |#########
   2 |     -9.81 |  18 |     -9.80 |   2 |##
   3 |     -9.36 |   9 |     -8.98 |   2 |##
   4 |     -9.25 |   6 |     -9.25 |   1 |#
   5 |     -9.19 |  17 |     -9.15 |   2 |##
   6 |     -8.69 |  19 |     -8.69 |   1 |#
   7 |     -8.67 |   4 |     -8.67 |   1 |#
   8 |     -8.17 |   7 |     -8.17 |   1 |#
   9 |     -7.66 |  14 |     -7.66 |   1 |#
_____|___________|_____|___________|_____|______________________________________


    RMSD TABLE
    __________


_______________________________________________________________________
     |      |      |           |         |                 |
Rank | Sub- | Run  | Binding   | Cluster | Reference       | Grep
     | Rank |      | Energy    | RMSD    | RMSD            | Pattern
_____|______|______|___________|_________|_________________|___________
   1      1     10      -10.12      0.00    270.07           RANKING
   1      2      5       -9.89      0.45    269.93           RANKING
   1      3     15       -9.84      0.55    269.88           RANKING
   1      4     20       -9.46      0.86    269.78           RANKING
   1      5     11       -9.35      0.67    269.81           RANKING
   1      6     12       -9.23      1.07    269.71           RANKING
   1      7      1       -9.20      0.94    269.73           RANKING
   1      8     13       -9.06      0.92    269.81           RANKING
   1      9      3       -8.47      1.21    269.75           RANKING
   2      1     18       -9.81      0.00    270.83           RANKING
   2      2      8       -9.79      0.41    270.77           RANKING
   3      1      9       -9.36      0.00    270.50           RANKING
   3      2     16       -8.60      1.22    270.63           RANKING
   4      1      6       -9.25      0.00    270.32           RANKING
   5      1     17       -9.19      0.00    270.80           RANKING
   5      2      2       -9.12      1.06    270.69           RANKING
   6      1     19       -8.69      0.00    271.02           RANKING
   7      1      4       -8.67      0.00    271.32           RANKING
   8      1      7       -8.17      0.00    270.82           RANKING
   9      1     14       -7.66      0.00    269.91           RANKING

Run time 0.634 sec
Idle time 0.000 sec
