AutoDock-GPU version: v1.6

**********************************************************
**    AutoDock-GPU AUTODOCKTOOLS-COMPATIBLE DLG FILE    **
**********************************************************


    DOCKING PARAMETERS
    ________________________


Ligand file:                               /home/a/REINVENT4/ReinventStudies/pleaseWork/justRnve/graph-dock-t2iv78/graph-DockGPU/node-autodockgpu/inputs/FFIHZXZAEAKPJS-GLZULJSUNA-M.pdbqt
Grid fld file:                             /home/a/REINVENT4/ReinventStudies/mols/Rad51/maps/rad51_receptor.maps.fld

Random seed:                               42
Number of runs:                            20
Number of energy evaluations:              1132076
Number of generations:                     42000
Size of population:                        150
Rate of crossover:                         80.000000%
Tournament selection probability limit:    60.000000%
Rate of mutation:                          2.000000%
Maximal allowed delta movement:            +/- 6.000000A
Maximal allowed delta angle:               +/- 90.000000

Rate of local search:                      100.000000%
Maximal number of local search iterations: 300
Rho lower bound:                           0.010000
Spread of local search delta movement:     2.000000A
Spread of local search delta angle:        74.999999
Limit of consecutive successes/failures:   4

Handle symmetry during clustering:         YES
RMSD tolerance:                            2.000000A

Program call in command line was:          /home/a/REINVENT4/ReinventStudies/adgpu-v1.6_linux_x64_cuda12_128wi --filelist batch.txt --heuristics 1 --nrun 20 --psize 150 --lsit 300 --seed 42 --heurmax 12000000 


    GRID PARAMETERS
    ________________________


Receptor name:                             rad51_receptor
Number of grid points (x, y, z):           53, 53, 53
Grid center (x, y, z):                     139.950000, 75.640000, 221.970000A
Grid size (x, y, z):                       19.500000, 19.500000, 19.500000A
Grid spacing:                              0.375000A


    LIGAND PARAMETERS
    ________________________


Ligand name:                               /home/a/REINVENT4/ReinventStudies/pleaseWork/justRnve/graph-dock-t2iv78/graph-DockGPU/node-autodockgpu/inputs/FFIHZXZAEAKPJS-GLZULJSUNA-M
Number of atoms:                           23
Number of rotatable bonds:                 2
Number of atom types:                      4


    DUMMY DATA (only for ADT-compatibility)
    ________________________


DPF> outlev 1
DPF> ga_run 20
DPF> fld /home/a/REINVENT4/ReinventStudies/mols/Rad51/maps/rad51_receptor.maps.fld
DPF> move /home/a/REINVENT4/ReinventStudies/pleaseWork/justRnve/graph-dock-t2iv78/graph-DockGPU/node-autodockgpu/inputs/FFIHZXZAEAKPJS-GLZULJSUNA-M.pdbqt


    COUNTER STATES
    ________________________


Number of energy evaluations performed:    805007
Number of generations used:                35


    INPUT LIGAND PDBQT FILE:
    ________________________


INPUT-LIGAND-PDBQT: REMARK SMILES Cc1ccc2nc(C)c(/C=C3\C(=O)[N-]c4ccccc43)cc2c1
INPUT-LIGAND-PDBQT: REMARK SMILES IDX 10 1 11 2 12 3 20 4 14 5 19 6 15 7 18 8 16 9 17 10 13 11
INPUT-LIGAND-PDBQT: REMARK SMILES IDX 9 12 7 13 21 14 6 15 22 16 5 17 23 18 4 19 2 20 3 21 8 22
INPUT-LIGAND-PDBQT: REMARK SMILES IDX 1 23
INPUT-LIGAND-PDBQT: REMARK H PARENT
INPUT-LIGAND-PDBQT: ROOT
INPUT-LIGAND-PDBQT: ATOM      1  C   UNL     1       0.363  -0.254  -0.132  1.00  0.00     0.020 C 
INPUT-LIGAND-PDBQT: ENDROOT
INPUT-LIGAND-PDBQT: BRANCH   1   2
INPUT-LIGAND-PDBQT: ATOM      2  C   UNL     1       0.682   1.046  -0.075  1.00  0.00     0.006 C 
INPUT-LIGAND-PDBQT: ATOM      3  C   UNL     1      -0.012   2.143   0.614  1.00  0.00     0.086 C 
INPUT-LIGAND-PDBQT: ATOM      4  C   UNL     1       1.808   1.705  -0.725  1.00  0.00    -0.031 A 
INPUT-LIGAND-PDBQT: ATOM      5  N   UNL     1       0.646   3.394   0.412  1.00  0.00    -0.622 NA
INPUT-LIGAND-PDBQT: ATOM      6  C   UNL     1       2.825   1.181  -1.527  1.00  0.00     0.007 A 
INPUT-LIGAND-PDBQT: ATOM      7  C   UNL     1       1.754   3.052  -0.418  1.00  0.00    -0.126 A 
INPUT-LIGAND-PDBQT: ATOM      8  C   UNL     1       3.800   2.063  -2.023  1.00  0.00     0.001 A 
INPUT-LIGAND-PDBQT: ATOM      9  C   UNL     1       2.714   3.941  -0.901  1.00  0.00    -0.015 A 
INPUT-LIGAND-PDBQT: ATOM     10  C   UNL     1       3.745   3.436  -1.711  1.00  0.00    -0.001 A 
INPUT-LIGAND-PDBQT: ATOM     11  O   UNL     1      -1.069   2.029   1.288  1.00  0.00    -0.315 OA
INPUT-LIGAND-PDBQT: ENDBRANCH   1   2
INPUT-LIGAND-PDBQT: BRANCH   1  12
INPUT-LIGAND-PDBQT: ATOM     12  C   UNL     1      -0.799  -0.819   0.576  1.00  0.00    -0.003 A 
INPUT-LIGAND-PDBQT: ATOM     13  C   UNL     1      -0.775  -1.073   1.965  1.00  0.00     0.045 A 
INPUT-LIGAND-PDBQT: ATOM     14  C   UNL     1      -1.948  -1.141  -0.157  1.00  0.00     0.020 A 
INPUT-LIGAND-PDBQT: ATOM     15  N   UNL     1      -1.878  -1.591   2.572  1.00  0.00    -0.253 NA
INPUT-LIGAND-PDBQT: ATOM     16  C   UNL     1      -3.067  -1.675   0.491  1.00  0.00     0.001 A 
INPUT-LIGAND-PDBQT: ATOM     17  C   UNL     1      -3.010  -1.893   1.884  1.00  0.00     0.071 A 
INPUT-LIGAND-PDBQT: ATOM     18  C   UNL     1      -4.236  -1.994  -0.217  1.00  0.00     0.013 A 
INPUT-LIGAND-PDBQT: ATOM     19  C   UNL     1      -4.116  -2.428   2.552  1.00  0.00     0.029 A 
INPUT-LIGAND-PDBQT: ATOM     20  C   UNL     1      -5.351  -2.515   0.459  1.00  0.00    -0.050 A 
INPUT-LIGAND-PDBQT: ATOM     21  C   UNL     1      -5.279  -2.744   1.842  1.00  0.00     0.005 A 
INPUT-LIGAND-PDBQT: ATOM     22  C   UNL     1       0.438  -0.783   2.799  1.00  0.00     0.067 C 
INPUT-LIGAND-PDBQT: ATOM     23  C   UNL     1      -6.586  -2.892  -0.304  1.00  0.00     0.044 C 
INPUT-LIGAND-PDBQT: ENDBRANCH   1  12
INPUT-LIGAND-PDBQT: TORSDOF 2


    FINAL DOCKED STATE:
    ________________________


Run:   1 / 20
Time taken for this run:   0.023s

DOCKED: MODEL        1
DOCKED: USER    Run = 1
DOCKED: USER
DOCKED: USER    Estimated Free Energy of Binding    =  -7.41 kcal/mol  [=(1)+(2)+(3)-(4)]
DOCKED: USER
DOCKED: USER    (1) Final Intermolecular Energy     =  -8.00 kcal/mol
DOCKED: USER        vdW + Hbond + desolv Energy     =  -8.07 kcal/mol
DOCKED: USER        Electrostatic Energy            =  +0.07 kcal/mol
DOCKED: USER        Moving Ligand-Fixed Receptor    =  -8.00 kcal/mol
DOCKED: USER        Moving Ligand-Moving Receptor   =  +0.00 kcal/mol
DOCKED: USER    (2) Final Total Internal Energy     =  -0.76 kcal/mol
DOCKED: USER    (3) Torsional Free Energy           =  +0.60 kcal/mol
DOCKED: USER    (4) Unbound System's Energy         =  -0.76 kcal/mol
DOCKED: USER
DOCKED: USER
DOCKED: REMARK SMILES Cc1ccc2nc(C)c(/C=C3\C(=O)[N-]c4ccccc43)cc2c1
DOCKED: REMARK SMILES IDX 10 1 11 2 12 3 20 4 14 5 19 6 15 7 18 8 16 9 17 10 13 11
DOCKED: REMARK SMILES IDX 9 12 7 13 21 14 6 15 22 16 5 17 23 18 4 19 2 20 3 21 8 22
DOCKED: REMARK SMILES IDX 1 23
DOCKED: REMARK H PARENT
DOCKED: USER                              x       y       z     vdW  Elec       q    Type
DOCKED: USER                           _______ _______ _______ _____ _____    ______ ____
DOCKED: ROOT
DOCKED: ATOM      1  C   UNL     1     139.848  69.734 223.614 -0.07 -0.00    +0.020 C  
DOCKED: ENDROOT
DOCKED: BRANCH   1   2
DOCKED: ATOM      2  C   UNL     1     139.882  69.567 224.943 -0.40 -0.00    +0.006 C  
DOCKED: ATOM      3  C   UNL     1     139.389  68.442 225.750 -0.46 -0.01    +0.086 C  
DOCKED: ATOM      4  C   UNL     1     140.402  70.500 225.934 -0.53 +0.00    -0.031 A  
DOCKED: ATOM      5  N   UNL     1     139.600  68.660 227.145 -0.02 +0.10    -0.622 NA 
DOCKED: ATOM      6  C   UNL     1     141.000  71.753 225.774 -0.56 -0.00    +0.007 A  
DOCKED: ATOM      7  C   UNL     1     140.226  69.941 227.186 -0.48 +0.02    -0.126 A  
DOCKED: ATOM      8  C   UNL     1     141.419  72.440 226.925 -0.63 -0.00    +0.001 A  
DOCKED: ATOM      9  C   UNL     1     140.636  70.609 228.339 -0.58 +0.00    -0.015 A  
DOCKED: ATOM     10  C   UNL     1     141.239  71.871 228.201 -0.77 +0.00    -0.001 A  
DOCKED: ATOM     11  O   UNL     1     138.827  67.410 225.298 -0.72 -0.06    -0.315 OA 
DOCKED: ENDBRANCH   1   2
DOCKED: BRANCH   1  12
DOCKED: ATOM     12  C   UNL     1     139.840  71.064 222.980 -0.31 +0.00    -0.003 A  
DOCKED: ATOM     13  C   UNL     1     138.677  71.865 222.940 -0.20 -0.01    +0.045 A  
DOCKED: ATOM     14  C   UNL     1     141.012  71.533 222.374 -0.18 -0.00    +0.020 A  
DOCKED: ATOM     15  N   UNL     1     138.725  73.089 222.346 -0.14 +0.08    -0.253 NA 
DOCKED: ATOM     16  C   UNL     1     141.034  72.794 221.769 -0.29 -0.00    +0.001 A  
DOCKED: ATOM     17  C   UNL     1     139.856  73.572 221.769 -0.25 -0.01    +0.071 A  
DOCKED: ATOM     18  C   UNL     1     142.198  73.294 221.166 -0.19 -0.00    +0.013 A  
DOCKED: ATOM     19  C   UNL     1     139.854  74.835 221.168 -0.24 -0.01    +0.029 A  
DOCKED: ATOM     20  C   UNL     1     142.198  74.569 220.578 -0.28 +0.02    -0.050 A  
DOCKED: ATOM     21  C   UNL     1     141.017  75.328 220.569 -0.24 -0.00    +0.005 A  
DOCKED: ATOM     22  C   UNL     1     137.381  71.404 223.539 -0.19 -0.02    +0.067 C  
DOCKED: ATOM     23  C   UNL     1     143.432  75.087 219.901 -0.36 -0.02    +0.044 C  
DOCKED: ENDBRANCH   1  12
DOCKED: TORSDOF 2
DOCKED: TER
DOCKED: ENDMDL
________________________________________________________________________________


    FINAL DOCKED STATE:
    ________________________


Run:   2 / 20
Time taken for this run:   0.023s

DOCKED: MODEL        2
DOCKED: USER    Run = 2
DOCKED: USER
DOCKED: USER    Estimated Free Energy of Binding    =  -7.29 kcal/mol  [=(1)+(2)+(3)-(4)]
DOCKED: USER
DOCKED: USER    (1) Final Intermolecular Energy     =  -7.89 kcal/mol
DOCKED: USER        vdW + Hbond + desolv Energy     =  -7.97 kcal/mol
DOCKED: USER        Electrostatic Energy            =  +0.08 kcal/mol
DOCKED: USER        Moving Ligand-Fixed Receptor    =  -7.89 kcal/mol
DOCKED: USER        Moving Ligand-Moving Receptor   =  +0.00 kcal/mol
DOCKED: USER    (2) Final Total Internal Energy     =  -0.78 kcal/mol
DOCKED: USER    (3) Torsional Free Energy           =  +0.60 kcal/mol
DOCKED: USER    (4) Unbound System's Energy         =  -0.78 kcal/mol
DOCKED: USER
DOCKED: USER
DOCKED: REMARK SMILES Cc1ccc2nc(C)c(/C=C3\C(=O)[N-]c4ccccc43)cc2c1
DOCKED: REMARK SMILES IDX 10 1 11 2 12 3 20 4 14 5 19 6 15 7 18 8 16 9 17 10 13 11
DOCKED: REMARK SMILES IDX 9 12 7 13 21 14 6 15 22 16 5 17 23 18 4 19 2 20 3 21 8 22
DOCKED: REMARK SMILES IDX 1 23
DOCKED: REMARK H PARENT
DOCKED: USER                              x       y       z     vdW  Elec       q    Type
DOCKED: USER                           _______ _______ _______ _____ _____    ______ ____
DOCKED: ROOT
DOCKED: ATOM      1  C   UNL     1     139.927  69.997 223.495 -0.12 -0.00    +0.020 C  
DOCKED: ENDROOT
DOCKED: BRANCH   1   2
DOCKED: ATOM      2  C   UNL     1     139.911  69.685 224.798 -0.38 -0.00    +0.006 C  
DOCKED: ATOM      3  C   UNL     1     139.414  68.468 225.455 -0.43 -0.01    +0.086 C  
DOCKED: ATOM      4  C   UNL     1     140.368  70.513 225.907 -0.53 +0.00    -0.031 A  
DOCKED: ATOM      5  N   UNL     1     139.563  68.535 226.874 -0.03 +0.09    -0.622 NA 
DOCKED: ATOM      6  C   UNL     1     140.941  71.787 225.910 -0.58 -0.00    +0.007 A  
DOCKED: ATOM      7  C   UNL     1     140.154  69.816 227.081 -0.47 +0.02    -0.126 A  
DOCKED: ATOM      8  C   UNL     1     141.296  72.352 227.147 -0.76 -0.00    +0.001 A  
DOCKED: ATOM      9  C   UNL     1     140.501  70.361 228.317 -0.57 +0.00    -0.015 A  
DOCKED: ATOM     10  C   UNL     1     141.077  71.643 228.344 -0.76 +0.00    -0.001 A  
DOCKED: ATOM     11  O   UNL     1     138.896  67.481 224.869 -0.66 -0.05    -0.315 OA 
DOCKED: ENDBRANCH   1   2
DOCKED: BRANCH   1  12
DOCKED: ATOM     12  C   UNL     1     139.445  71.290 222.981 -0.30 +0.00    -0.003 A  
DOCKED: ATOM     13  C   UNL     1     138.067  71.591 222.895 -0.19 -0.01    +0.045 A  
DOCKED: ATOM     14  C   UNL     1     140.379  72.235 222.539 -0.33 -0.00    +0.020 A  
DOCKED: ATOM     15  N   UNL     1     137.674  72.804 222.417 -0.06 +0.09    -0.253 NA 
DOCKED: ATOM     16  C   UNL     1     139.948  73.473 222.050 -0.27 -0.00    +0.001 A  
DOCKED: ATOM     17  C   UNL     1     138.564  73.743 222.001 -0.14 -0.02    +0.071 A  
DOCKED: ATOM     18  C   UNL     1     140.863  74.443 221.613 -0.31 -0.00    +0.013 A  
DOCKED: ATOM     19  C   UNL     1     138.110  74.973 221.514 -0.18 -0.01    +0.029 A  
DOCKED: ATOM     20  C   UNL     1     140.405  75.683 221.141 -0.27 +0.01    -0.050 A  
DOCKED: ATOM     21  C   UNL     1     139.026  75.936 221.079 -0.18 -0.00    +0.005 A  
DOCKED: ATOM     22  C   UNL     1     137.017  70.608 223.319 -0.17 -0.01    +0.067 C  
DOCKED: ATOM     23  C   UNL     1     141.382  76.704 220.637 -0.27 -0.02    +0.044 C  
DOCKED: ENDBRANCH   1  12
DOCKED: TORSDOF 2
DOCKED: TER
DOCKED: ENDMDL
________________________________________________________________________________


    FINAL DOCKED STATE:
    ________________________


Run:   3 / 20
Time taken for this run:   0.023s

DOCKED: MODEL        3
DOCKED: USER    Run = 3
DOCKED: USER
DOCKED: USER    Estimated Free Energy of Binding    =  -7.22 kcal/mol  [=(1)+(2)+(3)-(4)]
DOCKED: USER
DOCKED: USER    (1) Final Intermolecular Energy     =  -7.82 kcal/mol
DOCKED: USER        vdW + Hbond + desolv Energy     =  -7.86 kcal/mol
DOCKED: USER        Electrostatic Energy            =  +0.04 kcal/mol
DOCKED: USER        Moving Ligand-Fixed Receptor    =  -7.82 kcal/mol
DOCKED: USER        Moving Ligand-Moving Receptor   =  +0.00 kcal/mol
DOCKED: USER    (2) Final Total Internal Energy     =  -0.70 kcal/mol
DOCKED: USER    (3) Torsional Free Energy           =  +0.60 kcal/mol
DOCKED: USER    (4) Unbound System's Energy         =  -0.70 kcal/mol
DOCKED: USER
DOCKED: USER
DOCKED: REMARK SMILES Cc1ccc2nc(C)c(/C=C3\C(=O)[N-]c4ccccc43)cc2c1
DOCKED: REMARK SMILES IDX 10 1 11 2 12 3 20 4 14 5 19 6 15 7 18 8 16 9 17 10 13 11
DOCKED: REMARK SMILES IDX 9 12 7 13 21 14 6 15 22 16 5 17 23 18 4 19 2 20 3 21 8 22
DOCKED: REMARK SMILES IDX 1 23
DOCKED: REMARK H PARENT
DOCKED: USER                              x       y       z     vdW  Elec       q    Type
DOCKED: USER                           _______ _______ _______ _____ _____    ______ ____
DOCKED: ROOT
DOCKED: ATOM      1  C   UNL     1     135.614  70.111 223.836 -0.17 -0.00    +0.020 C  
DOCKED: ENDROOT
DOCKED: BRANCH   1   2
DOCKED: ATOM      2  C   UNL     1     134.604  70.058 224.715 -0.20 -0.00    +0.006 C  
DOCKED: ATOM      3  C   UNL     1     133.829  68.894 225.168 -0.22 -0.01    +0.086 C  
DOCKED: ATOM      4  C   UNL     1     133.998  71.175 225.428 -0.23 +0.00    -0.031 A  
DOCKED: ATOM      5  N   UNL     1     132.819  69.266 226.107 -0.40 -0.00    -0.622 NA 
DOCKED: ATOM      6  C   UNL     1     134.306  72.538 225.408 -0.27 -0.00    +0.007 A  
DOCKED: ATOM      7  C   UNL     1     132.979  70.678 226.220 -0.23 +0.01    -0.126 A  
DOCKED: ATOM      8  C   UNL     1     133.547  73.402 226.215 -0.34 +0.00    +0.001 A  
DOCKED: ATOM      9  C   UNL     1     132.216  71.522 227.027 -0.32 +0.00    -0.015 A  
DOCKED: ATOM     10  C   UNL     1     132.508  72.896 227.021 -0.41 +0.00    -0.001 A  
DOCKED: ATOM     11  O   UNL     1     133.997  67.709 224.780 -0.64 +0.02    -0.315 OA 
DOCKED: ENDBRANCH   1   2
DOCKED: BRANCH   1  12
DOCKED: ATOM     12  C   UNL     1     137.020  70.259 224.249 -0.25 +0.00    -0.003 A  
DOCKED: ATOM     13  C   UNL     1     137.908  71.128 223.576 -0.23 -0.01    +0.045 A  
DOCKED: ATOM     14  C   UNL     1     137.496  69.492 225.319 -0.22 -0.00    +0.020 A  
DOCKED: ATOM     15  N   UNL     1     139.197  71.232 224.002 -0.21 +0.06    -0.253 NA 
DOCKED: ATOM     16  C   UNL     1     138.826  69.616 225.735 -0.39 -0.00    +0.001 A  
DOCKED: ATOM     17  C   UNL     1     139.675  70.512 225.050 -0.40 -0.01    +0.071 A  
DOCKED: ATOM     18  C   UNL     1     139.325  68.869 226.813 -0.50 -0.00    +0.013 A  
DOCKED: ATOM     19  C   UNL     1     141.009  70.650 225.447 -0.53 -0.00    +0.029 A  
DOCKED: ATOM     20  C   UNL     1     140.661  69.023 227.220 -0.58 +0.01    -0.050 A  
DOCKED: ATOM     21  C   UNL     1     141.502  69.904 226.523 -0.42 -0.00    +0.005 A  
DOCKED: ATOM     22  C   UNL     1     137.468  71.950 222.401 -0.14 -0.02    +0.067 C  
DOCKED: ATOM     23  C   UNL     1     141.204  68.196 228.348 -0.55 -0.01    +0.044 C  
DOCKED: ENDBRANCH   1  12
DOCKED: TORSDOF 2
DOCKED: TER
DOCKED: ENDMDL
________________________________________________________________________________


    FINAL DOCKED STATE:
    ________________________


Run:   4 / 20
Time taken for this run:   0.023s

DOCKED: MODEL        4
DOCKED: USER    Run = 4
DOCKED: USER
DOCKED: USER    Estimated Free Energy of Binding    =  -7.42 kcal/mol  [=(1)+(2)+(3)-(4)]
DOCKED: USER
DOCKED: USER    (1) Final Intermolecular Energy     =  -8.01 kcal/mol
DOCKED: USER        vdW + Hbond + desolv Energy     =  -8.14 kcal/mol
DOCKED: USER        Electrostatic Energy            =  +0.13 kcal/mol
DOCKED: USER        Moving Ligand-Fixed Receptor    =  -8.01 kcal/mol
DOCKED: USER        Moving Ligand-Moving Receptor   =  +0.00 kcal/mol
DOCKED: USER    (2) Final Total Internal Energy     =  -0.73 kcal/mol
DOCKED: USER    (3) Torsional Free Energy           =  +0.60 kcal/mol
DOCKED: USER    (4) Unbound System's Energy         =  -0.73 kcal/mol
DOCKED: USER
DOCKED: USER
DOCKED: REMARK SMILES Cc1ccc2nc(C)c(/C=C3\C(=O)[N-]c4ccccc43)cc2c1
DOCKED: REMARK SMILES IDX 10 1 11 2 12 3 20 4 14 5 19 6 15 7 18 8 16 9 17 10 13 11
DOCKED: REMARK SMILES IDX 9 12 7 13 21 14 6 15 22 16 5 17 23 18 4 19 2 20 3 21 8 22
DOCKED: REMARK SMILES IDX 1 23
DOCKED: REMARK H PARENT
DOCKED: USER                              x       y       z     vdW  Elec       q    Type
DOCKED: USER                           _______ _______ _______ _____ _____    ______ ____
DOCKED: ROOT
DOCKED: ATOM      1  C   UNL     1     139.558  69.478 223.801 -0.22 -0.00    +0.020 C  
DOCKED: ENDROOT
DOCKED: BRANCH   1   2
DOCKED: ATOM      2  C   UNL     1     139.846  69.312 225.099 -0.40 -0.00    +0.006 C  
DOCKED: ATOM      3  C   UNL     1     139.675  68.122 225.943 -0.52 -0.01    +0.086 C  
DOCKED: ATOM      4  C   UNL     1     140.384  70.310 226.015 -0.52 +0.01    -0.031 A  
DOCKED: ATOM      5  N   UNL     1     140.088  68.364 227.288 -0.05 +0.12    -0.622 NA 
DOCKED: ATOM      6  C   UNL     1     140.750  71.640 225.794 -0.58 -0.00    +0.007 A  
DOCKED: ATOM      7  C   UNL     1     140.512  69.725 227.262 -0.48 +0.02    -0.126 A  
DOCKED: ATOM      8  C   UNL     1     141.254  72.379 226.878 -0.63 -0.00    +0.001 A  
DOCKED: ATOM      9  C   UNL     1     141.011  70.444 228.348 -0.55 +0.00    -0.015 A  
DOCKED: ATOM     10  C   UNL     1     141.384  71.784 228.148 -0.74 +0.00    -0.001 A  
DOCKED: ATOM     11  O   UNL     1     139.204  67.018 225.563 -0.72 -0.04    -0.315 OA 
DOCKED: ENDBRANCH   1   2
DOCKED: BRANCH   1  12
DOCKED: ATOM     12  C   UNL     1     139.322  70.803 223.202 -0.29 +0.00    -0.003 A  
DOCKED: ATOM     13  C   UNL     1     138.037  71.386 223.164 -0.21 -0.01    +0.045 A  
DOCKED: ATOM     14  C   UNL     1     140.400  71.489 222.628 -0.30 -0.00    +0.020 A  
DOCKED: ATOM     15  N   UNL     1     137.874  72.616 222.604 -0.04 +0.09    -0.253 NA 
DOCKED: ATOM     16  C   UNL     1     140.205  72.750 222.056 -0.31 -0.00    +0.001 A  
DOCKED: ATOM     17  C   UNL     1     138.908  73.308 222.058 -0.16 -0.02    +0.071 A  
DOCKED: ATOM     18  C   UNL     1     141.269  73.465 221.485 -0.26 -0.00    +0.013 A  
DOCKED: ATOM     19  C   UNL     1     138.689  74.567 221.489 -0.20 -0.01    +0.029 A  
DOCKED: ATOM     20  C   UNL     1     141.050  74.736 220.931 -0.27 +0.01    -0.050 A  
DOCKED: ATOM     21  C   UNL     1     139.754  75.275 220.922 -0.21 -0.00    +0.005 A  
DOCKED: ATOM     22  C   UNL     1     136.836  70.687 223.730 -0.19 -0.01    +0.067 C  
DOCKED: ATOM     23  C   UNL     1     142.181  75.482 220.287 -0.28 -0.02    +0.044 C  
DOCKED: ENDBRANCH   1  12
DOCKED: TORSDOF 2
DOCKED: TER
DOCKED: ENDMDL
________________________________________________________________________________


    FINAL DOCKED STATE:
    ________________________


Run:   5 / 20
Time taken for this run:   0.023s

DOCKED: MODEL        5
DOCKED: USER    Run = 5
DOCKED: USER
DOCKED: USER    Estimated Free Energy of Binding    =  -7.29 kcal/mol  [=(1)+(2)+(3)-(4)]
DOCKED: USER
DOCKED: USER    (1) Final Intermolecular Energy     =  -7.89 kcal/mol
DOCKED: USER        vdW + Hbond + desolv Energy     =  -7.96 kcal/mol
DOCKED: USER        Electrostatic Energy            =  +0.07 kcal/mol
DOCKED: USER        Moving Ligand-Fixed Receptor    =  -7.89 kcal/mol
DOCKED: USER        Moving Ligand-Moving Receptor   =  +0.00 kcal/mol
DOCKED: USER    (2) Final Total Internal Energy     =  -0.78 kcal/mol
DOCKED: USER    (3) Torsional Free Energy           =  +0.60 kcal/mol
DOCKED: USER    (4) Unbound System's Energy         =  -0.78 kcal/mol
DOCKED: USER
DOCKED: USER
DOCKED: REMARK SMILES Cc1ccc2nc(C)c(/C=C3\C(=O)[N-]c4ccccc43)cc2c1
DOCKED: REMARK SMILES IDX 10 1 11 2 12 3 20 4 14 5 19 6 15 7 18 8 16 9 17 10 13 11
DOCKED: REMARK SMILES IDX 9 12 7 13 21 14 6 15 22 16 5 17 23 18 4 19 2 20 3 21 8 22
DOCKED: REMARK SMILES IDX 1 23
DOCKED: REMARK H PARENT
DOCKED: USER                              x       y       z     vdW  Elec       q    Type
DOCKED: USER                           _______ _______ _______ _____ _____    ______ ____
DOCKED: ROOT
DOCKED: ATOM      1  C   UNL     1     139.941  69.944 223.441 -0.07 -0.00    +0.020 C  
DOCKED: ENDROOT
DOCKED: BRANCH   1   2
DOCKED: ATOM      2  C   UNL     1     139.915  69.619 224.740 -0.36 -0.00    +0.006 C  
DOCKED: ATOM      3  C   UNL     1     139.414  68.396 225.382 -0.42 -0.01    +0.086 C  
DOCKED: ATOM      4  C   UNL     1     140.363  70.437 225.861 -0.52 +0.00    -0.031 A  
DOCKED: ATOM      5  N   UNL     1     139.552  68.449 226.802 -0.04 +0.09    -0.622 NA 
DOCKED: ATOM      6  C   UNL     1     140.935  71.712 225.881 -0.59 -0.00    +0.007 A  
DOCKED: ATOM      7  C   UNL     1     140.140  69.728 227.027 -0.47 +0.02    -0.126 A  
DOCKED: ATOM      8  C   UNL     1     141.279  72.265 227.126 -0.80 -0.00    +0.001 A  
DOCKED: ATOM      9  C   UNL     1     140.477  70.262 228.271 -0.58 +0.00    -0.015 A  
DOCKED: ATOM     10  C   UNL     1     141.052  71.543 228.315 -0.77 +0.00    -0.001 A  
DOCKED: ATOM     11  O   UNL     1     138.902  67.414 224.782 -0.64 -0.05    -0.315 OA 
DOCKED: ENDBRANCH   1   2
DOCKED: BRANCH   1  12
DOCKED: ATOM     12  C   UNL     1     139.433  71.230 222.933 -0.29 +0.00    -0.003 A  
DOCKED: ATOM     13  C   UNL     1     138.050  71.502 222.840 -0.19 -0.01    +0.045 A  
DOCKED: ATOM     14  C   UNL     1     140.349  72.198 222.501 -0.32 -0.00    +0.020 A  
DOCKED: ATOM     15  N   UNL     1     137.633  72.709 222.368 -0.08 +0.08    -0.253 NA 
DOCKED: ATOM     16  C   UNL     1     139.893  73.429 222.018 -0.28 -0.00    +0.001 A  
DOCKED: ATOM     17  C   UNL     1     138.504  73.669 221.962 -0.16 -0.02    +0.071 A  
DOCKED: ATOM     18  C   UNL     1     140.790  74.422 221.593 -0.32 -0.00    +0.013 A  
DOCKED: ATOM     19  C   UNL     1     138.026  74.892 221.481 -0.17 -0.01    +0.029 A  
DOCKED: ATOM     20  C   UNL     1     140.308  75.655 221.126 -0.26 +0.01    -0.050 A  
DOCKED: ATOM     21  C   UNL     1     138.924  75.878 221.058 -0.18 -0.00    +0.005 A  
DOCKED: ATOM     22  C   UNL     1     137.019  70.493 223.252 -0.17 -0.01    +0.067 C  
DOCKED: ATOM     23  C   UNL     1     141.264  76.701 220.634 -0.27 -0.02    +0.044 C  
DOCKED: ENDBRANCH   1  12
DOCKED: TORSDOF 2
DOCKED: TER
DOCKED: ENDMDL
________________________________________________________________________________


    FINAL DOCKED STATE:
    ________________________


Run:   6 / 20
Time taken for this run:   0.023s

DOCKED: MODEL        6
DOCKED: USER    Run = 6
DOCKED: USER
DOCKED: USER    Estimated Free Energy of Binding    =  -7.38 kcal/mol  [=(1)+(2)+(3)-(4)]
DOCKED: USER
DOCKED: USER    (1) Final Intermolecular Energy     =  -7.98 kcal/mol
DOCKED: USER        vdW + Hbond + desolv Energy     =  -8.11 kcal/mol
DOCKED: USER        Electrostatic Energy            =  +0.13 kcal/mol
DOCKED: USER        Moving Ligand-Fixed Receptor    =  -7.98 kcal/mol
DOCKED: USER        Moving Ligand-Moving Receptor   =  +0.00 kcal/mol
DOCKED: USER    (2) Final Total Internal Energy     =  -0.72 kcal/mol
DOCKED: USER    (3) Torsional Free Energy           =  +0.60 kcal/mol
DOCKED: USER    (4) Unbound System's Energy         =  -0.72 kcal/mol
DOCKED: USER
DOCKED: USER
DOCKED: REMARK SMILES Cc1ccc2nc(C)c(/C=C3\C(=O)[N-]c4ccccc43)cc2c1
DOCKED: REMARK SMILES IDX 10 1 11 2 12 3 20 4 14 5 19 6 15 7 18 8 16 9 17 10 13 11
DOCKED: REMARK SMILES IDX 9 12 7 13 21 14 6 15 22 16 5 17 23 18 4 19 2 20 3 21 8 22
DOCKED: REMARK SMILES IDX 1 23
DOCKED: REMARK H PARENT
DOCKED: USER                              x       y       z     vdW  Elec       q    Type
DOCKED: USER                           _______ _______ _______ _____ _____    ______ ____
DOCKED: ROOT
DOCKED: ATOM      1  C   UNL     1     139.590  69.481 223.829 -0.21 -0.00    +0.020 C  
DOCKED: ENDROOT
DOCKED: BRANCH   1   2
DOCKED: ATOM      2  C   UNL     1     139.870  69.326 225.130 -0.41 -0.00    +0.006 C  
DOCKED: ATOM      3  C   UNL     1     139.682  68.147 225.987 -0.53 -0.01    +0.086 C  
DOCKED: ATOM      4  C   UNL     1     140.416  70.328 226.038 -0.52 +0.00    -0.031 A  
DOCKED: ATOM      5  N   UNL     1     140.093  68.399 227.331 -0.05 +0.12    -0.622 NA 
DOCKED: ATOM      6  C   UNL     1     140.798  71.651 225.803 -0.58 -0.00    +0.007 A  
DOCKED: ATOM      7  C   UNL     1     140.532  69.755 227.291 -0.49 +0.02    -0.126 A  
DOCKED: ATOM      8  C   UNL     1     141.305  72.396 226.881 -0.63 -0.00    +0.001 A  
DOCKED: ATOM      9  C   UNL     1     141.034  70.480 228.371 -0.51 +0.00    -0.015 A  
DOCKED: ATOM     10  C   UNL     1     141.423  71.814 228.158 -0.73 +0.00    -0.001 A  
DOCKED: ATOM     11  O   UNL     1     139.201  67.044 225.616 -0.74 -0.03    -0.315 OA 
DOCKED: ENDBRANCH   1   2
DOCKED: BRANCH   1  12
DOCKED: ATOM     12  C   UNL     1     139.264  70.789 223.236 -0.29 +0.00    -0.003 A  
DOCKED: ATOM     13  C   UNL     1     137.939  71.273 223.178 -0.20 -0.01    +0.045 A  
DOCKED: ATOM     14  C   UNL     1     140.297  71.560 222.688 -0.32 -0.00    +0.020 A  
DOCKED: ATOM     15  N   UNL     1     137.693  72.492 222.624 -0.06 +0.09    -0.253 NA 
DOCKED: ATOM     16  C   UNL     1     140.016  72.809 222.122 -0.30 -0.00    +0.001 A  
DOCKED: ATOM     17  C   UNL     1     138.681  73.265 222.104 -0.12 -0.02    +0.071 A  
DOCKED: ATOM     18  C   UNL     1     141.034  73.608 221.578 -0.30 -0.00    +0.013 A  
DOCKED: ATOM     19  C   UNL     1     138.378  74.509 221.541 -0.19 -0.01    +0.029 A  
DOCKED: ATOM     20  C   UNL     1     140.728  74.864 221.030 -0.26 +0.01    -0.050 A  
DOCKED: ATOM     21  C   UNL     1     139.395  75.302 221.000 -0.20 -0.00    +0.005 A  
DOCKED: ATOM     22  C   UNL     1     136.785  70.479 223.715 -0.19 -0.01    +0.067 C  
DOCKED: ATOM     23  C   UNL     1     141.810  75.700 220.414 -0.27 -0.02    +0.044 C  
DOCKED: ENDBRANCH   1  12
DOCKED: TORSDOF 2
DOCKED: TER
DOCKED: ENDMDL
________________________________________________________________________________


    FINAL DOCKED STATE:
    ________________________


Run:   7 / 20
Time taken for this run:   0.023s

DOCKED: MODEL        7
DOCKED: USER    Run = 7
DOCKED: USER
DOCKED: USER    Estimated Free Energy of Binding    =  -7.14 kcal/mol  [=(1)+(2)+(3)-(4)]
DOCKED: USER
DOCKED: USER    (1) Final Intermolecular Energy     =  -7.74 kcal/mol
DOCKED: USER        vdW + Hbond + desolv Energy     =  -7.79 kcal/mol
DOCKED: USER        Electrostatic Energy            =  +0.06 kcal/mol
DOCKED: USER        Moving Ligand-Fixed Receptor    =  -7.74 kcal/mol
DOCKED: USER        Moving Ligand-Moving Receptor   =  +0.00 kcal/mol
DOCKED: USER    (2) Final Total Internal Energy     =  -0.74 kcal/mol
DOCKED: USER    (3) Torsional Free Energy           =  +0.60 kcal/mol
DOCKED: USER    (4) Unbound System's Energy         =  -0.74 kcal/mol
DOCKED: USER
DOCKED: USER
DOCKED: REMARK SMILES Cc1ccc2nc(C)c(/C=C3\C(=O)[N-]c4ccccc43)cc2c1
DOCKED: REMARK SMILES IDX 10 1 11 2 12 3 20 4 14 5 19 6 15 7 18 8 16 9 17 10 13 11
DOCKED: REMARK SMILES IDX 9 12 7 13 21 14 6 15 22 16 5 17 23 18 4 19 2 20 3 21 8 22
DOCKED: REMARK SMILES IDX 1 23
DOCKED: REMARK H PARENT
DOCKED: USER                              x       y       z     vdW  Elec       q    Type
DOCKED: USER                           _______ _______ _______ _____ _____    ______ ____
DOCKED: ROOT
DOCKED: ATOM      1  C   UNL     1     138.955  70.299 222.357 -0.18 -0.00    +0.020 C  
DOCKED: ENDROOT
DOCKED: BRANCH   1   2
DOCKED: ATOM      2  C   UNL     1     139.164  69.641 223.506 -0.27 -0.00    +0.006 C  
DOCKED: ATOM      3  C   UNL     1     138.824  68.255 223.857 -0.26 -0.01    +0.086 C  
DOCKED: ATOM      4  C   UNL     1     139.767  70.167 224.724 -0.39 +0.01    -0.031 A  
DOCKED: ATOM      5  N   UNL     1     139.201  67.942 225.198 -0.44 +0.02    -0.622 NA 
DOCKED: ATOM      6  C   UNL     1     140.287  71.433 225.004 -0.50 -0.00    +0.007 A  
DOCKED: ATOM      7  C   UNL     1     139.773  69.160 225.671 -0.38 +0.02    -0.126 A  
DOCKED: ATOM      8  C   UNL     1     140.819  71.664 226.284 -0.66 -0.00    +0.001 A  
DOCKED: ATOM      9  C   UNL     1     140.298  69.371 226.946 -0.56 +0.00    -0.015 A  
DOCKED: ATOM     10  C   UNL     1     140.825  70.638 227.250 -0.65 +0.00    -0.001 A  
DOCKED: ATOM     11  O   UNL     1     138.253  67.429 223.098 -0.18 +0.03    -0.315 OA 
DOCKED: ENDBRANCH   1   2
DOCKED: BRANCH   1  12
DOCKED: ATOM     12  C   UNL     1     139.729  71.492 221.973 -0.23 +0.00    -0.003 A  
DOCKED: ATOM     13  C   UNL     1     139.152  72.781 221.956 -0.22 -0.01    +0.045 A  
DOCKED: ATOM     14  C   UNL     1     141.066  71.338 221.585 -0.13 -0.00    +0.020 A  
DOCKED: ATOM     15  N   UNL     1     139.913  73.852 221.598 -0.38 +0.04    -0.253 NA 
DOCKED: ATOM     16  C   UNL     1     141.824  72.455 221.220 -0.26 -0.00    +0.001 A  
DOCKED: ATOM     17  C   UNL     1     141.217  73.728 221.237 -0.26 -0.01    +0.071 A  
DOCKED: ATOM     18  C   UNL     1     143.170  72.330 220.840 -0.28 -0.00    +0.013 A  
DOCKED: ATOM     19  C   UNL     1     141.955  74.859 220.873 -0.29 -0.01    +0.029 A  
DOCKED: ATOM     20  C   UNL     1     143.914  73.469 220.492 -0.37 +0.01    -0.050 A  
DOCKED: ATOM     21  C   UNL     1     143.296  74.729 220.496 -0.34 -0.00    +0.005 A  
DOCKED: ATOM     22  C   UNL     1     137.716  73.008 222.326 -0.05 -0.02    +0.067 C  
DOCKED: ATOM     23  C   UNL     1     145.340  73.330 220.049 -0.51 -0.00    +0.044 C  
DOCKED: ENDBRANCH   1  12
DOCKED: TORSDOF 2
DOCKED: TER
DOCKED: ENDMDL
________________________________________________________________________________


    FINAL DOCKED STATE:
    ________________________


Run:   8 / 20
Time taken for this run:   0.023s

DOCKED: MODEL        8
DOCKED: USER    Run = 8
DOCKED: USER
DOCKED: USER    Estimated Free Energy of Binding    =  -7.32 kcal/mol  [=(1)+(2)+(3)-(4)]
DOCKED: USER
DOCKED: USER    (1) Final Intermolecular Energy     =  -7.92 kcal/mol
DOCKED: USER        vdW + Hbond + desolv Energy     =  -8.01 kcal/mol
DOCKED: USER        Electrostatic Energy            =  +0.09 kcal/mol
DOCKED: USER        Moving Ligand-Fixed Receptor    =  -7.92 kcal/mol
DOCKED: USER        Moving Ligand-Moving Receptor   =  +0.00 kcal/mol
DOCKED: USER    (2) Final Total Internal Energy     =  -0.78 kcal/mol
DOCKED: USER    (3) Torsional Free Energy           =  +0.60 kcal/mol
DOCKED: USER    (4) Unbound System's Energy         =  -0.78 kcal/mol
DOCKED: USER
DOCKED: USER
DOCKED: REMARK SMILES Cc1ccc2nc(C)c(/C=C3\C(=O)[N-]c4ccccc43)cc2c1
DOCKED: REMARK SMILES IDX 10 1 11 2 12 3 20 4 14 5 19 6 15 7 18 8 16 9 17 10 13 11
DOCKED: REMARK SMILES IDX 9 12 7 13 21 14 6 15 22 16 5 17 23 18 4 19 2 20 3 21 8 22
DOCKED: REMARK SMILES IDX 1 23
DOCKED: REMARK H PARENT
DOCKED: USER                              x       y       z     vdW  Elec       q    Type
DOCKED: USER                           _______ _______ _______ _____ _____    ______ ____
DOCKED: ROOT
DOCKED: ATOM      1  C   UNL     1     139.950  70.015 223.516 -0.13 -0.00    +0.020 C  
DOCKED: ENDROOT
DOCKED: BRANCH   1   2
DOCKED: ATOM      2  C   UNL     1     139.939  69.720 224.823 -0.39 -0.00    +0.006 C  
DOCKED: ATOM      3  C   UNL     1     139.453  68.508 225.497 -0.43 -0.01    +0.086 C  
DOCKED: ATOM      4  C   UNL     1     140.393  70.566 225.919 -0.54 +0.00    -0.031 A  
DOCKED: ATOM      5  N   UNL     1     139.605  68.595 226.914 -0.03 +0.09    -0.622 NA 
DOCKED: ATOM      6  C   UNL     1     140.956  71.845 225.905 -0.57 -0.00    +0.007 A  
DOCKED: ATOM      7  C   UNL     1     140.187  69.883 227.104 -0.47 +0.02    -0.126 A  
DOCKED: ATOM      8  C   UNL     1     141.310  72.428 227.133 -0.72 -0.00    +0.001 A  
DOCKED: ATOM      9  C   UNL     1     140.533  70.447 228.331 -0.57 +0.00    -0.015 A  
DOCKED: ATOM     10  C   UNL     1     141.100  71.733 228.340 -0.76 +0.00    -0.001 A  
DOCKED: ATOM     11  O   UNL     1     138.941  67.510 224.926 -0.69 -0.04    -0.315 OA 
DOCKED: ENDBRANCH   1   2
DOCKED: BRANCH   1  12
DOCKED: ATOM     12  C   UNL     1     139.474  71.306 222.989 -0.30 +0.00    -0.003 A  
DOCKED: ATOM     13  C   UNL     1     138.098  71.611 222.893 -0.19 -0.01    +0.045 A  
DOCKED: ATOM     14  C   UNL     1     140.414  72.243 222.541 -0.33 -0.00    +0.020 A  
DOCKED: ATOM     15  N   UNL     1     137.712  72.821 222.404 -0.06 +0.09    -0.253 NA 
DOCKED: ATOM     16  C   UNL     1     139.989  73.478 222.039 -0.27 -0.00    +0.001 A  
DOCKED: ATOM     17  C   UNL     1     138.606  73.753 221.982 -0.16 -0.02    +0.071 A  
DOCKED: ATOM     18  C   UNL     1     140.910  74.440 221.597 -0.32 -0.00    +0.013 A  
DOCKED: ATOM     19  C   UNL     1     138.160  74.980 221.482 -0.18 -0.01    +0.029 A  
DOCKED: ATOM     20  C   UNL     1     140.459  75.678 221.111 -0.27 +0.01    -0.050 A  
DOCKED: ATOM     21  C   UNL     1     139.081  75.936 221.042 -0.18 -0.00    +0.005 A  
DOCKED: ATOM     22  C   UNL     1     137.042  70.636 223.323 -0.17 -0.01    +0.067 C  
DOCKED: ATOM     23  C   UNL     1     141.442  76.690 220.602 -0.28 -0.02    +0.044 C  
DOCKED: ENDBRANCH   1  12
DOCKED: TORSDOF 2
DOCKED: TER
DOCKED: ENDMDL
________________________________________________________________________________


    FINAL DOCKED STATE:
    ________________________


Run:   9 / 20
Time taken for this run:   0.023s

DOCKED: MODEL        9
DOCKED: USER    Run = 9
DOCKED: USER
DOCKED: USER    Estimated Free Energy of Binding    =  -7.24 kcal/mol  [=(1)+(2)+(3)-(4)]
DOCKED: USER
DOCKED: USER    (1) Final Intermolecular Energy     =  -7.84 kcal/mol
DOCKED: USER        vdW + Hbond + desolv Energy     =  -7.88 kcal/mol
DOCKED: USER        Electrostatic Energy            =  +0.03 kcal/mol
DOCKED: USER        Moving Ligand-Fixed Receptor    =  -7.84 kcal/mol
DOCKED: USER        Moving Ligand-Moving Receptor   =  +0.00 kcal/mol
DOCKED: USER    (2) Final Total Internal Energy     =  -0.69 kcal/mol
DOCKED: USER    (3) Torsional Free Energy           =  +0.60 kcal/mol
DOCKED: USER    (4) Unbound System's Energy         =  -0.69 kcal/mol
DOCKED: USER
DOCKED: USER
DOCKED: REMARK SMILES Cc1ccc2nc(C)c(/C=C3\C(=O)[N-]c4ccccc43)cc2c1
DOCKED: REMARK SMILES IDX 10 1 11 2 12 3 20 4 14 5 19 6 15 7 18 8 16 9 17 10 13 11
DOCKED: REMARK SMILES IDX 9 12 7 13 21 14 6 15 22 16 5 17 23 18 4 19 2 20 3 21 8 22
DOCKED: REMARK SMILES IDX 1 23
DOCKED: REMARK H PARENT
DOCKED: USER                              x       y       z     vdW  Elec       q    Type
DOCKED: USER                           _______ _______ _______ _____ _____    ______ ____
DOCKED: ROOT
DOCKED: ATOM      1  C   UNL     1     135.621  70.181 223.821 -0.17 -0.00    +0.020 C  
DOCKED: ENDROOT
DOCKED: BRANCH   1   2
DOCKED: ATOM      2  C   UNL     1     134.621  70.100 224.709 -0.20 -0.00    +0.006 C  
DOCKED: ATOM      3  C   UNL     1     133.854  68.923 225.140 -0.22 -0.01    +0.086 C  
DOCKED: ATOM      4  C   UNL     1     134.020  71.197 225.458 -0.23 +0.00    -0.031 A  
DOCKED: ATOM      5  N   UNL     1     132.853  69.267 226.098 -0.41 +0.00    -0.622 NA 
DOCKED: ATOM      6  C   UNL     1     134.323  72.560 225.470 -0.27 -0.00    +0.007 A  
DOCKED: ATOM      7  C   UNL     1     133.010  70.676 226.247 -0.24 +0.01    -0.126 A  
DOCKED: ATOM      8  C   UNL     1     133.570  73.401 226.307 -0.34 +0.00    +0.001 A  
DOCKED: ATOM      9  C   UNL     1     132.254  71.496 227.084 -0.31 +0.00    -0.015 A  
DOCKED: ATOM     10  C   UNL     1     132.541  72.871 227.111 -0.42 +0.00    -0.001 A  
DOCKED: ATOM     11  O   UNL     1     134.022  67.749 224.719 -0.66 +0.02    -0.315 OA 
DOCKED: ENDBRANCH   1   2
DOCKED: BRANCH   1  12
DOCKED: ATOM     12  C   UNL     1     137.035  70.289 224.223 -0.25 +0.00    -0.003 A  
DOCKED: ATOM     13  C   UNL     1     137.945  71.121 223.535 -0.23 -0.01    +0.045 A  
DOCKED: ATOM     14  C   UNL     1     137.493  69.521 225.301 -0.22 -0.00    +0.020 A  
DOCKED: ATOM     15  N   UNL     1     139.239  71.189 223.951 -0.21 +0.06    -0.253 NA 
DOCKED: ATOM     16  C   UNL     1     138.829  69.607 225.706 -0.40 -0.00    +0.001 A  
DOCKED: ATOM     17  C   UNL     1     139.701  70.467 225.005 -0.40 -0.01    +0.071 A  
DOCKED: ATOM     18  C   UNL     1     139.312  68.859 226.791 -0.50 -0.00    +0.013 A  
DOCKED: ATOM     19  C   UNL     1     141.041  70.568 225.391 -0.52 -0.00    +0.029 A  
DOCKED: ATOM     20  C   UNL     1     140.654  68.975 227.187 -0.58 +0.01    -0.050 A  
DOCKED: ATOM     21  C   UNL     1     141.518  69.820 226.473 -0.41 -0.00    +0.005 A  
DOCKED: ATOM     22  C   UNL     1     137.523  71.941 222.351 -0.14 -0.02    +0.067 C  
DOCKED: ATOM     23  C   UNL     1     141.178  68.146 228.322 -0.56 -0.01    +0.044 C  
DOCKED: ENDBRANCH   1  12
DOCKED: TORSDOF 2
DOCKED: TER
DOCKED: ENDMDL
________________________________________________________________________________


    FINAL DOCKED STATE:
    ________________________


Run:   10 / 20
Time taken for this run:   0.023s

DOCKED: MODEL        10
DOCKED: USER    Run = 10
DOCKED: USER
DOCKED: USER    Estimated Free Energy of Binding    =  -7.32 kcal/mol  [=(1)+(2)+(3)-(4)]
DOCKED: USER
DOCKED: USER    (1) Final Intermolecular Energy     =  -7.92 kcal/mol
DOCKED: USER        vdW + Hbond + desolv Energy     =  -8.00 kcal/mol
DOCKED: USER        Electrostatic Energy            =  +0.08 kcal/mol
DOCKED: USER        Moving Ligand-Fixed Receptor    =  -7.92 kcal/mol
DOCKED: USER        Moving Ligand-Moving Receptor   =  +0.00 kcal/mol
DOCKED: USER    (2) Final Total Internal Energy     =  -0.78 kcal/mol
DOCKED: USER    (3) Torsional Free Energy           =  +0.60 kcal/mol
DOCKED: USER    (4) Unbound System's Energy         =  -0.78 kcal/mol
DOCKED: USER
DOCKED: USER
DOCKED: REMARK SMILES Cc1ccc2nc(C)c(/C=C3\C(=O)[N-]c4ccccc43)cc2c1
DOCKED: REMARK SMILES IDX 10 1 11 2 12 3 20 4 14 5 19 6 15 7 18 8 16 9 17 10 13 11
DOCKED: REMARK SMILES IDX 9 12 7 13 21 14 6 15 22 16 5 17 23 18 4 19 2 20 3 21 8 22
DOCKED: REMARK SMILES IDX 1 23
DOCKED: REMARK H PARENT
DOCKED: USER                              x       y       z     vdW  Elec       q    Type
DOCKED: USER                           _______ _______ _______ _____ _____    ______ ____
DOCKED: ROOT
DOCKED: ATOM      1  C   UNL     1     139.932  69.977 223.527 -0.12 -0.00    +0.020 C  
DOCKED: ENDROOT
DOCKED: BRANCH   1   2
DOCKED: ATOM      2  C   UNL     1     139.919  69.695 224.837 -0.39 -0.00    +0.006 C  
DOCKED: ATOM      3  C   UNL     1     139.431  68.491 225.523 -0.44 -0.01    +0.086 C  
DOCKED: ATOM      4  C   UNL     1     140.371  70.552 225.926 -0.53 +0.00    -0.031 A  
DOCKED: ATOM      5  N   UNL     1     139.580  68.592 226.939 -0.03 +0.09    -0.622 NA 
DOCKED: ATOM      6  C   UNL     1     140.934  71.830 225.899 -0.57 -0.00    +0.007 A  
DOCKED: ATOM      7  C   UNL     1     140.163  69.881 227.117 -0.47 +0.02    -0.126 A  
DOCKED: ATOM      8  C   UNL     1     141.286  72.426 227.123 -0.72 -0.00    +0.001 A  
DOCKED: ATOM      9  C   UNL     1     140.507  70.457 228.339 -0.57 +0.00    -0.015 A  
DOCKED: ATOM     10  C   UNL     1     141.074  71.743 228.336 -0.77 +0.00    -0.001 A  
DOCKED: ATOM     11  O   UNL     1     138.920  67.487 224.960 -0.68 -0.05    -0.315 OA 
DOCKED: ENDBRANCH   1   2
DOCKED: BRANCH   1  12
DOCKED: ATOM     12  C   UNL     1     139.473  71.269 222.988 -0.30 +0.00    -0.003 A  
DOCKED: ATOM     13  C   UNL     1     138.102  71.590 222.884 -0.19 -0.01    +0.045 A  
DOCKED: ATOM     14  C   UNL     1     140.426  72.192 222.537 -0.32 -0.00    +0.020 A  
DOCKED: ATOM     15  N   UNL     1     137.731  72.801 222.384 -0.07 +0.08    -0.253 NA 
DOCKED: ATOM     16  C   UNL     1     140.018  73.428 222.024 -0.28 -0.00    +0.001 A  
DOCKED: ATOM     17  C   UNL     1     138.639  73.718 221.958 -0.17 -0.02    +0.071 A  
DOCKED: ATOM     18  C   UNL     1     140.952  74.376 221.578 -0.31 -0.00    +0.013 A  
DOCKED: ATOM     19  C   UNL     1     138.208  74.947 221.447 -0.18 -0.01    +0.029 A  
DOCKED: ATOM     20  C   UNL     1     140.518  75.615 221.081 -0.27 +0.01    -0.050 A  
DOCKED: ATOM     21  C   UNL     1     139.143  75.888 221.004 -0.18 -0.00    +0.005 A  
DOCKED: ATOM     22  C   UNL     1     137.032  70.631 223.317 -0.17 -0.01    +0.067 C  
DOCKED: ATOM     23  C   UNL     1     141.514  76.612 220.569 -0.27 -0.02    +0.044 C  
DOCKED: ENDBRANCH   1  12
DOCKED: TORSDOF 2
DOCKED: TER
DOCKED: ENDMDL
________________________________________________________________________________


    FINAL DOCKED STATE:
    ________________________


Run:   11 / 20
Time taken for this run:   0.023s

DOCKED: MODEL        11
DOCKED: USER    Run = 11
DOCKED: USER
DOCKED: USER    Estimated Free Energy of Binding    =  -7.33 kcal/mol  [=(1)+(2)+(3)-(4)]
DOCKED: USER
DOCKED: USER    (1) Final Intermolecular Energy     =  -7.92 kcal/mol
DOCKED: USER        vdW + Hbond + desolv Energy     =  -8.01 kcal/mol
DOCKED: USER        Electrostatic Energy            =  +0.08 kcal/mol
DOCKED: USER        Moving Ligand-Fixed Receptor    =  -7.92 kcal/mol
DOCKED: USER        Moving Ligand-Moving Receptor   =  +0.00 kcal/mol
DOCKED: USER    (2) Final Total Internal Energy     =  -0.78 kcal/mol
DOCKED: USER    (3) Torsional Free Energy           =  +0.60 kcal/mol
DOCKED: USER    (4) Unbound System's Energy         =  -0.78 kcal/mol
DOCKED: USER
DOCKED: USER
DOCKED: REMARK SMILES Cc1ccc2nc(C)c(/C=C3\C(=O)[N-]c4ccccc43)cc2c1
DOCKED: REMARK SMILES IDX 10 1 11 2 12 3 20 4 14 5 19 6 15 7 18 8 16 9 17 10 13 11
DOCKED: REMARK SMILES IDX 9 12 7 13 21 14 6 15 22 16 5 17 23 18 4 19 2 20 3 21 8 22
DOCKED: REMARK SMILES IDX 1 23
DOCKED: REMARK H PARENT
DOCKED: USER                              x       y       z     vdW  Elec       q    Type
DOCKED: USER                           _______ _______ _______ _____ _____    ______ ____
DOCKED: ROOT
DOCKED: ATOM      1  C   UNL     1     139.940  69.996 223.514 -0.12 -0.00    +0.020 C  
DOCKED: ENDROOT
DOCKED: BRANCH   1   2
DOCKED: ATOM      2  C   UNL     1     139.920  69.702 224.821 -0.38 -0.00    +0.006 C  
DOCKED: ATOM      3  C   UNL     1     139.415  68.497 225.493 -0.43 -0.01    +0.086 C  
DOCKED: ATOM      4  C   UNL     1     140.381  70.542 225.919 -0.53 +0.00    -0.031 A  
DOCKED: ATOM      5  N   UNL     1     139.563  68.582 226.911 -0.03 +0.09    -0.622 NA 
DOCKED: ATOM      6  C   UNL     1     140.962  71.812 225.906 -0.57 -0.00    +0.007 A  
DOCKED: ATOM      7  C   UNL     1     140.162  69.862 227.103 -0.47 +0.02    -0.126 A  
DOCKED: ATOM      8  C   UNL     1     141.319  72.391 227.136 -0.74 -0.00    +0.001 A  
DOCKED: ATOM      9  C   UNL     1     140.511  70.421 228.331 -0.57 +0.00    -0.015 A  
DOCKED: ATOM     10  C   UNL     1     141.095  71.699 228.342 -0.76 +0.00    -0.001 A  
DOCKED: ATOM     11  O   UNL     1     138.892  67.506 224.920 -0.66 -0.05    -0.315 OA 
DOCKED: ENDBRANCH   1   2
DOCKED: BRANCH   1  12
DOCKED: ATOM     12  C   UNL     1     139.471  71.288 222.983 -0.30 +0.00    -0.003 A  
DOCKED: ATOM     13  C   UNL     1     138.096  71.597 222.879 -0.19 -0.01    +0.045 A  
DOCKED: ATOM     14  C   UNL     1     140.415  72.222 222.541 -0.33 -0.00    +0.020 A  
DOCKED: ATOM     15  N   UNL     1     137.716  72.807 222.387 -0.07 +0.08    -0.253 NA 
DOCKED: ATOM     16  C   UNL     1     139.997  73.458 222.036 -0.28 -0.00    +0.001 A  
DOCKED: ATOM     17  C   UNL     1     138.615  73.736 221.970 -0.17 -0.02    +0.071 A  
DOCKED: ATOM     18  C   UNL     1     140.923  74.418 221.599 -0.31 -0.00    +0.013 A  
DOCKED: ATOM     19  C   UNL     1     138.175  74.965 221.467 -0.18 -0.01    +0.029 A  
DOCKED: ATOM     20  C   UNL     1     140.478  75.657 221.110 -0.27 +0.01    -0.050 A  
DOCKED: ATOM     21  C   UNL     1     139.101  75.918 221.033 -0.18 -0.00    +0.005 A  
DOCKED: ATOM     22  C   UNL     1     137.035  70.624 223.303 -0.17 -0.01    +0.067 C  
DOCKED: ATOM     23  C   UNL     1     141.466  76.667 220.607 -0.27 -0.02    +0.044 C  
DOCKED: ENDBRANCH   1  12
DOCKED: TORSDOF 2
DOCKED: TER
DOCKED: ENDMDL
________________________________________________________________________________


    FINAL DOCKED STATE:
    ________________________


Run:   12 / 20
Time taken for this run:   0.023s

DOCKED: MODEL        12
DOCKED: USER    Run = 12
DOCKED: USER
DOCKED: USER    Estimated Free Energy of Binding    =  -7.17 kcal/mol  [=(1)+(2)+(3)-(4)]
DOCKED: USER
DOCKED: USER    (1) Final Intermolecular Energy     =  -7.77 kcal/mol
DOCKED: USER        vdW + Hbond + desolv Energy     =  -8.05 kcal/mol
DOCKED: USER        Electrostatic Energy            =  +0.29 kcal/mol
DOCKED: USER        Moving Ligand-Fixed Receptor    =  -7.77 kcal/mol
DOCKED: USER        Moving Ligand-Moving Receptor   =  +0.00 kcal/mol
DOCKED: USER    (2) Final Total Internal Energy     =  -0.64 kcal/mol
DOCKED: USER    (3) Torsional Free Energy           =  +0.60 kcal/mol
DOCKED: USER    (4) Unbound System's Energy         =  -0.64 kcal/mol
DOCKED: USER
DOCKED: USER
DOCKED: REMARK SMILES Cc1ccc2nc(C)c(/C=C3\C(=O)[N-]c4ccccc43)cc2c1
DOCKED: REMARK SMILES IDX 10 1 11 2 12 3 20 4 14 5 19 6 15 7 18 8 16 9 17 10 13 11
DOCKED: REMARK SMILES IDX 9 12 7 13 21 14 6 15 22 16 5 17 23 18 4 19 2 20 3 21 8 22
DOCKED: REMARK SMILES IDX 1 23
DOCKED: REMARK H PARENT
DOCKED: USER                              x       y       z     vdW  Elec       q    Type
DOCKED: USER                           _______ _______ _______ _____ _____    ______ ____
DOCKED: ROOT
DOCKED: ATOM      1  C   UNL     1     140.365  71.700 221.359 -0.20 -0.00    +0.020 C  
DOCKED: ENDROOT
DOCKED: BRANCH   1   2
DOCKED: ATOM      2  C   UNL     1     141.209  72.730 221.212 -0.26 -0.00    +0.006 C  
DOCKED: ATOM      3  C   UNL     1     140.999  74.153 221.513 -0.25 -0.01    +0.086 C  
DOCKED: ATOM      4  C   UNL     1     142.564  72.687 220.677 -0.25 +0.00    -0.031 A  
DOCKED: ATOM      5  N   UNL     1     142.151  74.935 221.195 +0.05 +0.22    -0.622 NA 
DOCKED: ATOM      6  C   UNL     1     143.323  71.608 220.215 -0.25 -0.00    +0.007 A  
DOCKED: ATOM      7  C   UNL     1     143.072  73.973 220.687 -0.23 +0.03    -0.126 A  
DOCKED: ATOM      8  C   UNL     1     144.625  71.862 219.753 -0.32 +0.00    +0.001 A  
DOCKED: ATOM      9  C   UNL     1     144.363  74.242 220.233 -0.46 +0.01    -0.015 A  
DOCKED: ATOM     10  C   UNL     1     145.143  73.173 219.762 -0.45 -0.00    -0.001 A  
DOCKED: ATOM     11  O   UNL     1     139.940  74.653 221.974 -0.75 +0.04    -0.315 OA 
DOCKED: ENDBRANCH   1   2
DOCKED: BRANCH   1  12
DOCKED: ATOM     12  C   UNL     1     140.117  71.055 222.660 -0.26 +0.00    -0.003 A  
DOCKED: ATOM     13  C   UNL     1     139.301  69.908 222.781 -0.19 -0.01    +0.045 A  
DOCKED: ATOM     14  C   UNL     1     140.683  71.614 223.813 -0.36 -0.00    +0.020 A  
DOCKED: ATOM     15  N   UNL     1     139.108  69.347 224.006 -0.16 +0.04    -0.253 NA 
DOCKED: ATOM     16  C   UNL     1     140.466  71.019 225.060 -0.53 -0.00    +0.001 A  
DOCKED: ATOM     17  C   UNL     1     139.663  69.862 225.135 -0.37 -0.01    +0.071 A  
DOCKED: ATOM     18  C   UNL     1     141.032  71.551 226.229 -0.67 -0.00    +0.013 A  
DOCKED: ATOM     19  C   UNL     1     139.431  69.252 226.372 -0.48 -0.00    +0.029 A  
DOCKED: ATOM     20  C   UNL     1     140.813  70.926 227.468 -0.65 +0.01    -0.050 A  
DOCKED: ATOM     21  C   UNL     1     139.998  69.785 227.534 -0.60 -0.00    +0.005 A  
DOCKED: ATOM     22  C   UNL     1     138.638  69.283 221.589 -0.12 -0.01    +0.067 C  
DOCKED: ATOM     23  C   UNL     1     141.386  71.517 228.721 -0.28 -0.01    +0.044 C  
DOCKED: ENDBRANCH   1  12
DOCKED: TORSDOF 2
DOCKED: TER
DOCKED: ENDMDL
________________________________________________________________________________


    FINAL DOCKED STATE:
    ________________________


Run:   13 / 20
Time taken for this run:   0.023s

DOCKED: MODEL        13
DOCKED: USER    Run = 13
DOCKED: USER
DOCKED: USER    Estimated Free Energy of Binding    =  -7.18 kcal/mol  [=(1)+(2)+(3)-(4)]
DOCKED: USER
DOCKED: USER    (1) Final Intermolecular Energy     =  -7.78 kcal/mol
DOCKED: USER        vdW + Hbond + desolv Energy     =  -8.06 kcal/mol
DOCKED: USER        Electrostatic Energy            =  +0.28 kcal/mol
DOCKED: USER        Moving Ligand-Fixed Receptor    =  -7.78 kcal/mol
DOCKED: USER        Moving Ligand-Moving Receptor   =  +0.00 kcal/mol
DOCKED: USER    (2) Final Total Internal Energy     =  -0.64 kcal/mol
DOCKED: USER    (3) Torsional Free Energy           =  +0.60 kcal/mol
DOCKED: USER    (4) Unbound System's Energy         =  -0.64 kcal/mol
DOCKED: USER
DOCKED: USER
DOCKED: REMARK SMILES Cc1ccc2nc(C)c(/C=C3\C(=O)[N-]c4ccccc43)cc2c1
DOCKED: REMARK SMILES IDX 10 1 11 2 12 3 20 4 14 5 19 6 15 7 18 8 16 9 17 10 13 11
DOCKED: REMARK SMILES IDX 9 12 7 13 21 14 6 15 22 16 5 17 23 18 4 19 2 20 3 21 8 22
DOCKED: REMARK SMILES IDX 1 23
DOCKED: REMARK H PARENT
DOCKED: USER                              x       y       z     vdW  Elec       q    Type
DOCKED: USER                           _______ _______ _______ _____ _____    ______ ____
DOCKED: ROOT
DOCKED: ATOM      1  C   UNL     1     140.407  71.639 221.350 -0.20 -0.00    +0.020 C  
DOCKED: ENDROOT
DOCKED: BRANCH   1   2
DOCKED: ATOM      2  C   UNL     1     141.232  72.685 221.209 -0.26 -0.00    +0.006 C  
DOCKED: ATOM      3  C   UNL     1     140.994  74.103 221.515 -0.25 -0.01    +0.086 C  
DOCKED: ATOM      4  C   UNL     1     142.588  72.670 220.675 -0.25 +0.00    -0.031 A  
DOCKED: ATOM      5  N   UNL     1     142.131  74.908 221.202 +0.04 +0.22    -0.622 NA 
DOCKED: ATOM      6  C   UNL     1     143.367  71.608 220.209 -0.26 -0.00    +0.007 A  
DOCKED: ATOM      7  C   UNL     1     143.071  73.966 220.691 -0.23 +0.03    -0.126 A  
DOCKED: ATOM      8  C   UNL     1     144.665  71.889 219.749 -0.32 +0.00    +0.001 A  
DOCKED: ATOM      9  C   UNL     1     144.357  74.262 220.239 -0.46 +0.01    -0.015 A  
DOCKED: ATOM     10  C   UNL     1     145.157  73.209 219.765 -0.45 +0.00    -0.001 A  
DOCKED: ATOM     11  O   UNL     1     139.925  74.581 221.977 -0.76 +0.04    -0.315 OA 
DOCKED: ENDBRANCH   1   2
DOCKED: BRANCH   1  12
DOCKED: ATOM     12  C   UNL     1     140.122  71.022 222.657 -0.25 +0.00    -0.003 A  
DOCKED: ATOM     13  C   UNL     1     139.257  69.914 222.787 -0.19 -0.01    +0.045 A  
DOCKED: ATOM     14  C   UNL     1     140.705  71.571 223.807 -0.36 -0.00    +0.020 A  
DOCKED: ATOM     15  N   UNL     1     139.032  69.377 224.018 -0.16 +0.04    -0.253 NA 
DOCKED: ATOM     16  C   UNL     1     140.455  71.002 225.060 -0.53 -0.00    +0.001 A  
DOCKED: ATOM     17  C   UNL     1     139.601  69.882 225.144 -0.37 -0.01    +0.071 A  
DOCKED: ATOM     18  C   UNL     1     141.036  71.524 226.226 -0.68 -0.00    +0.013 A  
DOCKED: ATOM     19  C   UNL     1     139.336  69.298 226.386 -0.47 -0.00    +0.029 A  
DOCKED: ATOM     20  C   UNL     1     140.781  70.926 227.471 -0.66 +0.01    -0.050 A  
DOCKED: ATOM     21  C   UNL     1     139.917  69.822 227.546 -0.60 -0.00    +0.005 A  
DOCKED: ATOM     22  C   UNL     1     138.575  69.303 221.598 -0.12 -0.01    +0.067 C  
DOCKED: ATOM     23  C   UNL     1     141.371  71.507 228.721 -0.28 -0.01    +0.044 C  
DOCKED: ENDBRANCH   1  12
DOCKED: TORSDOF 2
DOCKED: TER
DOCKED: ENDMDL
________________________________________________________________________________


    FINAL DOCKED STATE:
    ________________________


Run:   14 / 20
Time taken for this run:   0.023s

DOCKED: MODEL        14
DOCKED: USER    Run = 14
DOCKED: USER
DOCKED: USER    Estimated Free Energy of Binding    =  -7.43 kcal/mol  [=(1)+(2)+(3)-(4)]
DOCKED: USER
DOCKED: USER    (1) Final Intermolecular Energy     =  -8.02 kcal/mol
DOCKED: USER        vdW + Hbond + desolv Energy     =  -8.16 kcal/mol
DOCKED: USER        Electrostatic Energy            =  +0.13 kcal/mol
DOCKED: USER        Moving Ligand-Fixed Receptor    =  -8.02 kcal/mol
DOCKED: USER        Moving Ligand-Moving Receptor   =  +0.00 kcal/mol
DOCKED: USER    (2) Final Total Internal Energy     =  -0.72 kcal/mol
DOCKED: USER    (3) Torsional Free Energy           =  +0.60 kcal/mol
DOCKED: USER    (4) Unbound System's Energy         =  -0.72 kcal/mol
DOCKED: USER
DOCKED: USER
DOCKED: REMARK SMILES Cc1ccc2nc(C)c(/C=C3\C(=O)[N-]c4ccccc43)cc2c1
DOCKED: REMARK SMILES IDX 10 1 11 2 12 3 20 4 14 5 19 6 15 7 18 8 16 9 17 10 13 11
DOCKED: REMARK SMILES IDX 9 12 7 13 21 14 6 15 22 16 5 17 23 18 4 19 2 20 3 21 8 22
DOCKED: REMARK SMILES IDX 1 23
DOCKED: REMARK H PARENT
DOCKED: USER                              x       y       z     vdW  Elec       q    Type
DOCKED: USER                           _______ _______ _______ _____ _____    ______ ____
DOCKED: ROOT
DOCKED: ATOM      1  C   UNL     1     139.579  69.441 223.823 -0.21 -0.00    +0.020 C  
DOCKED: ENDROOT
DOCKED: BRANCH   1   2
DOCKED: ATOM      2  C   UNL     1     139.871  69.299 225.122 -0.40 -0.00    +0.006 C  
DOCKED: ATOM      3  C   UNL     1     139.698  68.125 225.990 -0.53 -0.01    +0.086 C  
DOCKED: ATOM      4  C   UNL     1     140.419  70.311 226.017 -0.52 +0.01    -0.031 A  
DOCKED: ATOM      5  N   UNL     1     140.119  68.391 227.328 -0.05 +0.13    -0.622 NA 
DOCKED: ATOM      6  C   UNL     1     140.792  71.634 225.768 -0.58 -0.00    +0.007 A  
DOCKED: ATOM      7  C   UNL     1     140.550  69.749 227.273 -0.48 +0.02    -0.126 A  
DOCKED: ATOM      8  C   UNL     1     141.304  72.391 226.835 -0.61 -0.00    +0.001 A  
DOCKED: ATOM      9  C   UNL     1     141.057  70.486 228.343 -0.56 +0.00    -0.015 A  
DOCKED: ATOM     10  C   UNL     1     141.437  71.819 228.116 -0.74 +0.00    -0.001 A  
DOCKED: ATOM     11  O   UNL     1     139.219  67.017 225.632 -0.73 -0.03    -0.315 OA 
DOCKED: ENDBRANCH   1   2
DOCKED: BRANCH   1  12
DOCKED: ATOM     12  C   UNL     1     139.383  70.758 223.192 -0.29 +0.00    -0.003 A  
DOCKED: ATOM     13  C   UNL     1     138.114  71.376 223.134 -0.21 -0.01    +0.045 A  
DOCKED: ATOM     14  C   UNL     1     140.482  71.399 222.606 -0.27 -0.00    +0.020 A  
DOCKED: ATOM     15  N   UNL     1     137.988  72.596 222.544 -0.05 +0.09    -0.253 NA 
DOCKED: ATOM     16  C   UNL     1     140.324  72.652 222.004 -0.31 -0.00    +0.001 A  
DOCKED: ATOM     17  C   UNL     1     139.044  73.245 221.987 -0.20 -0.02    +0.071 A  
DOCKED: ATOM     18  C   UNL     1     141.411  73.322 221.422 -0.26 -0.00    +0.013 A  
DOCKED: ATOM     19  C   UNL     1     138.863  74.496 221.388 -0.20 -0.01    +0.029 A  
DOCKED: ATOM     20  C   UNL     1     141.230  74.586 220.836 -0.26 +0.01    -0.050 A  
DOCKED: ATOM     21  C   UNL     1     139.949  75.160 220.809 -0.20 -0.00    +0.005 A  
DOCKED: ATOM     22  C   UNL     1     136.892  70.724 223.711 -0.19 -0.01    +0.067 C  
DOCKED: ATOM     23  C   UNL     1     142.383  75.284 220.180 -0.29 -0.02    +0.044 C  
DOCKED: ENDBRANCH   1  12
DOCKED: TORSDOF 2
DOCKED: TER
DOCKED: ENDMDL
________________________________________________________________________________


    FINAL DOCKED STATE:
    ________________________


Run:   15 / 20
Time taken for this run:   0.023s

DOCKED: MODEL        15
DOCKED: USER    Run = 15
DOCKED: USER
DOCKED: USER    Estimated Free Energy of Binding    =  -7.01 kcal/mol  [=(1)+(2)+(3)-(4)]
DOCKED: USER
DOCKED: USER    (1) Final Intermolecular Energy     =  -7.61 kcal/mol
DOCKED: USER        vdW + Hbond + desolv Energy     =  -7.71 kcal/mol
DOCKED: USER        Electrostatic Energy            =  +0.10 kcal/mol
DOCKED: USER        Moving Ligand-Fixed Receptor    =  -7.61 kcal/mol
DOCKED: USER        Moving Ligand-Moving Receptor   =  +0.00 kcal/mol
DOCKED: USER    (2) Final Total Internal Energy     =  -0.75 kcal/mol
DOCKED: USER    (3) Torsional Free Energy           =  +0.60 kcal/mol
DOCKED: USER    (4) Unbound System's Energy         =  -0.75 kcal/mol
DOCKED: USER
DOCKED: USER
DOCKED: REMARK SMILES Cc1ccc2nc(C)c(/C=C3\C(=O)[N-]c4ccccc43)cc2c1
DOCKED: REMARK SMILES IDX 10 1 11 2 12 3 20 4 14 5 19 6 15 7 18 8 16 9 17 10 13 11
DOCKED: REMARK SMILES IDX 9 12 7 13 21 14 6 15 22 16 5 17 23 18 4 19 2 20 3 21 8 22
DOCKED: REMARK SMILES IDX 1 23
DOCKED: REMARK H PARENT
DOCKED: USER                              x       y       z     vdW  Elec       q    Type
DOCKED: USER                           _______ _______ _______ _____ _____    ______ ____
DOCKED: ROOT
DOCKED: ATOM      1  C   UNL     1     139.451  78.164 221.208 -0.18 -0.01    +0.020 C  
DOCKED: ENDROOT
DOCKED: BRANCH   1   2
DOCKED: ATOM      2  C   UNL     1     139.667  79.084 222.157 -0.29 -0.00    +0.006 C  
DOCKED: ATOM      3  C   UNL     1     138.693  79.833 222.962 -0.28 -0.01    +0.086 C  
DOCKED: ATOM      4  C   UNL     1     140.955  79.598 222.608 -0.42 +0.01    -0.031 A  
DOCKED: ATOM      5  N   UNL     1     139.335  80.741 223.858 -0.01 +0.07    -0.622 NA 
DOCKED: ATOM      6  C   UNL     1     142.253  79.268 222.208 -0.50 -0.00    +0.007 A  
DOCKED: ATOM      7  C   UNL     1     140.721  80.545 223.588 -0.38 +0.02    -0.126 A  
DOCKED: ATOM      8  C   UNL     1     143.326  79.930 222.828 -0.55 -0.00    +0.001 A  
DOCKED: ATOM      9  C   UNL     1     141.775  81.210 224.214 -0.43 +0.00    -0.015 A  
DOCKED: ATOM     10  C   UNL     1     143.088  80.895 223.826 -0.64 +0.00    -0.001 A  
DOCKED: ATOM     11  O   UNL     1     137.442  79.726 222.881 -0.11 +0.04    -0.315 OA 
DOCKED: ENDBRANCH   1   2
DOCKED: BRANCH   1  12
DOCKED: ATOM     12  C   UNL     1     140.020  76.806 221.274 -0.26 +0.00    -0.003 A  
DOCKED: ATOM     13  C   UNL     1     139.363  75.755 221.951 -0.30 -0.01    +0.045 A  
DOCKED: ATOM     14  C   UNL     1     141.261  76.561 220.673 -0.28 -0.01    +0.020 A  
DOCKED: ATOM     15  N   UNL     1     139.929  74.517 221.977 -0.75 +0.03    -0.253 NA 
DOCKED: ATOM     16  C   UNL     1     141.821  75.280 220.717 -0.31 -0.00    +0.001 A  
DOCKED: ATOM     17  C   UNL     1     141.123  74.252 221.385 -0.27 -0.01    +0.071 A  
DOCKED: ATOM     18  C   UNL     1     143.057  75.004 220.112 -0.35 -0.01    +0.013 A  
DOCKED: ATOM     19  C   UNL     1     141.665  72.964 221.444 -0.20 -0.00    +0.029 A  
DOCKED: ATOM     20  C   UNL     1     143.591  73.706 220.157 -0.32 +0.01    -0.050 A  
DOCKED: ATOM     21  C   UNL     1     142.897  72.694 220.839 -0.28 -0.00    +0.005 A  
DOCKED: ATOM     22  C   UNL     1     138.049  75.962 222.645 -0.23 -0.02    +0.067 C  
DOCKED: ATOM     23  C   UNL     1     144.930  73.420 219.544 -0.38 -0.00    +0.044 C  
DOCKED: ENDBRANCH   1  12
DOCKED: TORSDOF 2
DOCKED: TER
DOCKED: ENDMDL
________________________________________________________________________________


    FINAL DOCKED STATE:
    ________________________


Run:   16 / 20
Time taken for this run:   0.023s

DOCKED: MODEL        16
DOCKED: USER    Run = 16
DOCKED: USER
DOCKED: USER    Estimated Free Energy of Binding    =  -7.42 kcal/mol  [=(1)+(2)+(3)-(4)]
DOCKED: USER
DOCKED: USER    (1) Final Intermolecular Energy     =  -8.02 kcal/mol
DOCKED: USER        vdW + Hbond + desolv Energy     =  -8.15 kcal/mol
DOCKED: USER        Electrostatic Energy            =  +0.14 kcal/mol
DOCKED: USER        Moving Ligand-Fixed Receptor    =  -8.02 kcal/mol
DOCKED: USER        Moving Ligand-Moving Receptor   =  +0.00 kcal/mol
DOCKED: USER    (2) Final Total Internal Energy     =  -0.71 kcal/mol
DOCKED: USER    (3) Torsional Free Energy           =  +0.60 kcal/mol
DOCKED: USER    (4) Unbound System's Energy         =  -0.71 kcal/mol
DOCKED: USER
DOCKED: USER
DOCKED: REMARK SMILES Cc1ccc2nc(C)c(/C=C3\C(=O)[N-]c4ccccc43)cc2c1
DOCKED: REMARK SMILES IDX 10 1 11 2 12 3 20 4 14 5 19 6 15 7 18 8 16 9 17 10 13 11
DOCKED: REMARK SMILES IDX 9 12 7 13 21 14 6 15 22 16 5 17 23 18 4 19 2 20 3 21 8 22
DOCKED: REMARK SMILES IDX 1 23
DOCKED: REMARK H PARENT
DOCKED: USER                              x       y       z     vdW  Elec       q    Type
DOCKED: USER                           _______ _______ _______ _____ _____    ______ ____
DOCKED: ROOT
DOCKED: ATOM      1  C   UNL     1     139.541  69.453 223.871 -0.23 -0.00    +0.020 C  
DOCKED: ENDROOT
DOCKED: BRANCH   1   2
DOCKED: ATOM      2  C   UNL     1     139.853  69.314 225.166 -0.41 -0.00    +0.006 C  
DOCKED: ATOM      3  C   UNL     1     139.692  68.143 226.040 -0.54 -0.01    +0.086 C  
DOCKED: ATOM      4  C   UNL     1     140.414  70.328 226.050 -0.53 +0.00    -0.031 A  
DOCKED: ATOM      5  N   UNL     1     140.133  68.412 227.371 -0.05 +0.13    -0.622 NA 
DOCKED: ATOM      6  C   UNL     1     140.783  71.651 225.793 -0.58 -0.00    +0.007 A  
DOCKED: ATOM      7  C   UNL     1     140.563  69.770 227.306 -0.49 +0.02    -0.126 A  
DOCKED: ATOM      8  C   UNL     1     141.311  72.410 226.850 -0.60 -0.00    +0.001 A  
DOCKED: ATOM      9  C   UNL     1     141.086  70.509 228.367 -0.52 +0.00    -0.015 A  
DOCKED: ATOM     10  C   UNL     1     141.462  71.842 228.131 -0.72 +0.00    -0.001 A  
DOCKED: ATOM     11  O   UNL     1     139.208  67.034 225.692 -0.75 -0.03    -0.315 OA 
DOCKED: ENDBRANCH   1   2
DOCKED: BRANCH   1  12
DOCKED: ATOM     12  C   UNL     1     139.372  70.769 223.231 -0.30 +0.00    -0.003 A  
DOCKED: ATOM     13  C   UNL     1     138.115  71.409 223.161 -0.21 -0.01    +0.045 A  
DOCKED: ATOM     14  C   UNL     1     140.486  71.387 222.649 -0.27 -0.00    +0.020 A  
DOCKED: ATOM     15  N   UNL     1     138.015  72.628 222.563 -0.04 +0.09    -0.253 NA 
DOCKED: ATOM     16  C   UNL     1     140.355  72.639 222.038 -0.31 -0.00    +0.001 A  
DOCKED: ATOM     17  C   UNL     1     139.085  73.254 222.009 -0.20 -0.02    +0.071 A  
DOCKED: ATOM     18  C   UNL     1     141.457  73.286 221.459 -0.25 -0.00    +0.013 A  
DOCKED: ATOM     19  C   UNL     1     138.931  74.504 221.401 -0.21 -0.01    +0.029 A  
DOCKED: ATOM     20  C   UNL     1     141.302  74.549 220.865 -0.27 +0.01    -0.050 A  
DOCKED: ATOM     21  C   UNL     1     140.032  75.146 220.826 -0.21 -0.00    +0.005 A  
DOCKED: ATOM     22  C   UNL     1     136.878  70.782 223.733 -0.19 -0.01    +0.067 C  
DOCKED: ATOM     23  C   UNL     1     142.472  75.224 220.213 -0.29 -0.02    +0.044 C  
DOCKED: ENDBRANCH   1  12
DOCKED: TORSDOF 2
DOCKED: TER
DOCKED: ENDMDL
________________________________________________________________________________


    FINAL DOCKED STATE:
    ________________________


Run:   17 / 20
Time taken for this run:   0.023s

DOCKED: MODEL        17
DOCKED: USER    Run = 17
DOCKED: USER
DOCKED: USER    Estimated Free Energy of Binding    =  -7.34 kcal/mol  [=(1)+(2)+(3)-(4)]
DOCKED: USER
DOCKED: USER    (1) Final Intermolecular Energy     =  -7.93 kcal/mol
DOCKED: USER        vdW + Hbond + desolv Energy     =  -8.01 kcal/mol
DOCKED: USER        Electrostatic Energy            =  +0.08 kcal/mol
DOCKED: USER        Moving Ligand-Fixed Receptor    =  -7.93 kcal/mol
DOCKED: USER        Moving Ligand-Moving Receptor   =  +0.00 kcal/mol
DOCKED: USER    (2) Final Total Internal Energy     =  -0.77 kcal/mol
DOCKED: USER    (3) Torsional Free Energy           =  +0.60 kcal/mol
DOCKED: USER    (4) Unbound System's Energy         =  -0.77 kcal/mol
DOCKED: USER
DOCKED: USER
DOCKED: REMARK SMILES Cc1ccc2nc(C)c(/C=C3\C(=O)[N-]c4ccccc43)cc2c1
DOCKED: REMARK SMILES IDX 10 1 11 2 12 3 20 4 14 5 19 6 15 7 18 8 16 9 17 10 13 11
DOCKED: REMARK SMILES IDX 9 12 7 13 21 14 6 15 22 16 5 17 23 18 4 19 2 20 3 21 8 22
DOCKED: REMARK SMILES IDX 1 23
DOCKED: REMARK H PARENT
DOCKED: USER                              x       y       z     vdW  Elec       q    Type
DOCKED: USER                           _______ _______ _______ _____ _____    ______ ____
DOCKED: ROOT
DOCKED: ATOM      1  C   UNL     1     139.774  69.804 223.640 -0.15 -0.00    +0.020 C  
DOCKED: ENDROOT
DOCKED: BRANCH   1   2
DOCKED: ATOM      2  C   UNL     1     139.871  69.595 224.960 -0.40 -0.00    +0.006 C  
DOCKED: ATOM      3  C   UNL     1     139.442  68.433 225.751 -0.47 -0.01    +0.086 C  
DOCKED: ATOM      4  C   UNL     1     140.415  70.509 225.957 -0.53 +0.00    -0.031 A  
DOCKED: ATOM      5  N   UNL     1     139.711  68.612 227.142 -0.02 +0.10    -0.622 NA 
DOCKED: ATOM      6  C   UNL     1     140.976  71.780 225.812 -0.56 -0.00    +0.007 A  
DOCKED: ATOM      7  C   UNL     1     140.307  69.906 227.197 -0.48 +0.02    -0.126 A  
DOCKED: ATOM      8  C   UNL     1     141.430  72.441 226.965 -0.65 -0.00    +0.001 A  
DOCKED: ATOM      9  C   UNL     1     140.754  70.548 228.352 -0.56 +0.00    -0.015 A  
DOCKED: ATOM     10  C   UNL     1     141.320  71.828 228.229 -0.75 +0.00    -0.001 A  
DOCKED: ATOM     11  O   UNL     1     138.884  67.403 225.291 -0.74 -0.06    -0.315 OA 
DOCKED: ENDBRANCH   1   2
DOCKED: BRANCH   1  12
DOCKED: ATOM     12  C   UNL     1     139.348  71.093 223.068 -0.29 +0.00    -0.003 A  
DOCKED: ATOM     13  C   UNL     1     137.985  71.446 222.956 -0.20 -0.01    +0.045 A  
DOCKED: ATOM     14  C   UNL     1     140.324  71.979 222.595 -0.33 -0.00    +0.020 A  
DOCKED: ATOM     15  N   UNL     1     137.645  72.653 222.425 -0.08 +0.08    -0.253 NA 
DOCKED: ATOM     16  C   UNL     1     139.947  73.212 222.051 -0.29 -0.00    +0.001 A  
DOCKED: ATOM     17  C   UNL     1     138.576  73.536 221.978 -0.16 -0.02    +0.071 A  
DOCKED: ATOM     18  C   UNL     1     140.905  74.124 221.582 -0.30 -0.00    +0.013 A  
DOCKED: ATOM     19  C   UNL     1     138.177  74.761 221.435 -0.17 -0.01    +0.029 A  
DOCKED: ATOM     20  C   UNL     1     140.502  75.362 221.054 -0.26 +0.01    -0.050 A  
DOCKED: ATOM     21  C   UNL     1     139.135  75.668 220.969 -0.18 -0.00    +0.005 A  
DOCKED: ATOM     22  C   UNL     1     136.892  70.525 223.413 -0.17 -0.01    +0.067 C  
DOCKED: ATOM     23  C   UNL     1     141.523  76.320 220.517 -0.27 -0.02    +0.044 C  
DOCKED: ENDBRANCH   1  12
DOCKED: TORSDOF 2
DOCKED: TER
DOCKED: ENDMDL
________________________________________________________________________________


    FINAL DOCKED STATE:
    ________________________


Run:   18 / 20
Time taken for this run:   0.023s

DOCKED: MODEL        18
DOCKED: USER    Run = 18
DOCKED: USER
DOCKED: USER    Estimated Free Energy of Binding    =  -7.16 kcal/mol  [=(1)+(2)+(3)-(4)]
DOCKED: USER
DOCKED: USER    (1) Final Intermolecular Energy     =  -7.75 kcal/mol
DOCKED: USER        vdW + Hbond + desolv Energy     =  -8.04 kcal/mol
DOCKED: USER        Electrostatic Energy            =  +0.29 kcal/mol
DOCKED: USER        Moving Ligand-Fixed Receptor    =  -7.75 kcal/mol
DOCKED: USER        Moving Ligand-Moving Receptor   =  +0.00 kcal/mol
DOCKED: USER    (2) Final Total Internal Energy     =  -0.64 kcal/mol
DOCKED: USER    (3) Torsional Free Energy           =  +0.60 kcal/mol
DOCKED: USER    (4) Unbound System's Energy         =  -0.64 kcal/mol
DOCKED: USER
DOCKED: USER
DOCKED: REMARK SMILES Cc1ccc2nc(C)c(/C=C3\C(=O)[N-]c4ccccc43)cc2c1
DOCKED: REMARK SMILES IDX 10 1 11 2 12 3 20 4 14 5 19 6 15 7 18 8 16 9 17 10 13 11
DOCKED: REMARK SMILES IDX 9 12 7 13 21 14 6 15 22 16 5 17 23 18 4 19 2 20 3 21 8 22
DOCKED: REMARK SMILES IDX 1 23
DOCKED: REMARK H PARENT
DOCKED: USER                              x       y       z     vdW  Elec       q    Type
DOCKED: USER                           _______ _______ _______ _____ _____    ______ ____
DOCKED: ROOT
DOCKED: ATOM      1  C   UNL     1     140.380  71.667 221.362 -0.20 -0.00    +0.020 C  
DOCKED: ENDROOT
DOCKED: BRANCH   1   2
DOCKED: ATOM      2  C   UNL     1     141.127  72.772 221.231 -0.26 -0.00    +0.006 C  
DOCKED: ATOM      3  C   UNL     1     140.771  74.171 221.504 -0.27 -0.01    +0.086 C  
DOCKED: ATOM      4  C   UNL     1     142.499  72.854 220.745 -0.26 +0.00    -0.031 A  
DOCKED: ATOM      5  N   UNL     1     141.853  75.057 221.216 -0.01 +0.21    -0.622 NA 
DOCKED: ATOM      6  C   UNL     1     143.373  71.848 220.325 -0.27 -0.00    +0.007 A  
DOCKED: ATOM      7  C   UNL     1     142.880  74.183 220.755 -0.22 +0.04    -0.126 A  
DOCKED: ATOM      8  C   UNL     1     144.661  72.221 219.906 -0.36 +0.00    +0.001 A  
DOCKED: ATOM      9  C   UNL     1     144.155  74.570 220.343 -0.44 +0.01    -0.015 A  
DOCKED: ATOM     10  C   UNL     1     145.050  73.576 219.915 -0.48 +0.00    -0.001 A  
DOCKED: ATOM     11  O   UNL     1     139.652  74.572 221.920 -0.62 +0.05    -0.315 OA 
DOCKED: ENDBRANCH   1   2
DOCKED: BRANCH   1  12
DOCKED: ATOM     12  C   UNL     1     140.113  71.038 222.667 -0.25 +0.00    -0.003 A  
DOCKED: ATOM     13  C   UNL     1     139.248  69.930 222.798 -0.20 -0.01    +0.045 A  
DOCKED: ATOM     14  C   UNL     1     140.710  71.577 223.814 -0.35 -0.00    +0.020 A  
DOCKED: ATOM     15  N   UNL     1     139.039  69.382 224.027 -0.16 +0.04    -0.253 NA 
DOCKED: ATOM     16  C   UNL     1     140.477  70.997 225.065 -0.53 -0.00    +0.001 A  
DOCKED: ATOM     17  C   UNL     1     139.623  69.876 225.150 -0.37 -0.01    +0.071 A  
DOCKED: ATOM     18  C   UNL     1     141.074  71.508 226.228 -0.68 -0.00    +0.013 A  
DOCKED: ATOM     19  C   UNL     1     139.374  69.282 226.391 -0.47 -0.00    +0.029 A  
DOCKED: ATOM     20  C   UNL     1     140.835  70.899 227.470 -0.65 +0.01    -0.050 A  
DOCKED: ATOM     21  C   UNL     1     139.972  69.795 227.547 -0.60 -0.00    +0.005 A  
DOCKED: ATOM     22  C   UNL     1     138.550  69.330 221.614 -0.12 -0.01    +0.067 C  
DOCKED: ATOM     23  C   UNL     1     141.442  71.468 228.718 -0.27 -0.01    +0.044 C  
DOCKED: ENDBRANCH   1  12
DOCKED: TORSDOF 2
DOCKED: TER
DOCKED: ENDMDL
________________________________________________________________________________


    FINAL DOCKED STATE:
    ________________________


Run:   19 / 20
Time taken for this run:   0.023s

DOCKED: MODEL        19
DOCKED: USER    Run = 19
DOCKED: USER
DOCKED: USER    Estimated Free Energy of Binding    =  -7.33 kcal/mol  [=(1)+(2)+(3)-(4)]
DOCKED: USER
DOCKED: USER    (1) Final Intermolecular Energy     =  -7.93 kcal/mol
DOCKED: USER        vdW + Hbond + desolv Energy     =  -8.01 kcal/mol
DOCKED: USER        Electrostatic Energy            =  +0.08 kcal/mol
DOCKED: USER        Moving Ligand-Fixed Receptor    =  -7.93 kcal/mol
DOCKED: USER        Moving Ligand-Moving Receptor   =  +0.00 kcal/mol
DOCKED: USER    (2) Final Total Internal Energy     =  -0.78 kcal/mol
DOCKED: USER    (3) Torsional Free Energy           =  +0.60 kcal/mol
DOCKED: USER    (4) Unbound System's Energy         =  -0.78 kcal/mol
DOCKED: USER
DOCKED: USER
DOCKED: REMARK SMILES Cc1ccc2nc(C)c(/C=C3\C(=O)[N-]c4ccccc43)cc2c1
DOCKED: REMARK SMILES IDX 10 1 11 2 12 3 20 4 14 5 19 6 15 7 18 8 16 9 17 10 13 11
DOCKED: REMARK SMILES IDX 9 12 7 13 21 14 6 15 22 16 5 17 23 18 4 19 2 20 3 21 8 22
DOCKED: REMARK SMILES IDX 1 23
DOCKED: REMARK H PARENT
DOCKED: USER                              x       y       z     vdW  Elec       q    Type
DOCKED: USER                           _______ _______ _______ _____ _____    ______ ____
DOCKED: ROOT
DOCKED: ATOM      1  C   UNL     1     139.953  69.980 223.526 -0.11 -0.00    +0.020 C  
DOCKED: ENDROOT
DOCKED: BRANCH   1   2
DOCKED: ATOM      2  C   UNL     1     139.938  69.690 224.834 -0.39 -0.00    +0.006 C  
DOCKED: ATOM      3  C   UNL     1     139.453  68.479 225.512 -0.44 -0.01    +0.086 C  
DOCKED: ATOM      4  C   UNL     1     140.384  70.542 225.930 -0.53 +0.00    -0.031 A  
DOCKED: ATOM      5  N   UNL     1     139.598  68.572 226.929 -0.03 +0.09    -0.622 NA 
DOCKED: ATOM      6  C   UNL     1     140.943  71.822 225.912 -0.57 -0.00    +0.007 A  
DOCKED: ATOM      7  C   UNL     1     140.175  69.863 227.116 -0.47 +0.02    -0.126 A  
DOCKED: ATOM      8  C   UNL     1     141.289  72.412 227.140 -0.73 -0.00    +0.001 A  
DOCKED: ATOM      9  C   UNL     1     140.514  70.433 228.343 -0.57 +0.00    -0.015 A  
DOCKED: ATOM     10  C   UNL     1     141.076  71.720 228.349 -0.76 +0.00    -0.001 A  
DOCKED: ATOM     11  O   UNL     1     138.947  67.477 224.942 -0.69 -0.04    -0.315 OA 
DOCKED: ENDBRANCH   1   2
DOCKED: BRANCH   1  12
DOCKED: ATOM     12  C   UNL     1     139.481  71.269 222.992 -0.30 +0.00    -0.003 A  
DOCKED: ATOM     13  C   UNL     1     138.107  71.574 222.887 -0.19 -0.01    +0.045 A  
DOCKED: ATOM     14  C   UNL     1     140.424  72.205 222.549 -0.33 -0.00    +0.020 A  
DOCKED: ATOM     15  N   UNL     1     137.724  72.783 222.391 -0.07 +0.08    -0.253 NA 
DOCKED: ATOM     16  C   UNL     1     140.004  73.439 222.042 -0.28 -0.00    +0.001 A  
DOCKED: ATOM     17  C   UNL     1     138.621  73.713 221.973 -0.17 -0.02    +0.071 A  
DOCKED: ATOM     18  C   UNL     1     140.928  74.400 221.604 -0.31 -0.00    +0.013 A  
DOCKED: ATOM     19  C   UNL     1     138.178  74.939 221.467 -0.18 -0.01    +0.029 A  
DOCKED: ATOM     20  C   UNL     1     140.481  75.637 221.112 -0.27 +0.01    -0.050 A  
DOCKED: ATOM     21  C   UNL     1     139.103  75.894 221.032 -0.18 -0.00    +0.005 A  
DOCKED: ATOM     22  C   UNL     1     137.047  70.600 223.311 -0.17 -0.01    +0.067 C  
DOCKED: ATOM     23  C   UNL     1     141.467  76.648 220.608 -0.27 -0.02    +0.044 C  
DOCKED: ENDBRANCH   1  12
DOCKED: TORSDOF 2
DOCKED: TER
DOCKED: ENDMDL
________________________________________________________________________________


    FINAL DOCKED STATE:
    ________________________


Run:   20 / 20
Time taken for this run:   0.023s

DOCKED: MODEL        20
DOCKED: USER    Run = 20
DOCKED: USER
DOCKED: USER    Estimated Free Energy of Binding    =  -7.32 kcal/mol  [=(1)+(2)+(3)-(4)]
DOCKED: USER
DOCKED: USER    (1) Final Intermolecular Energy     =  -7.92 kcal/mol
DOCKED: USER        vdW + Hbond + desolv Energy     =  -8.01 kcal/mol
DOCKED: USER        Electrostatic Energy            =  +0.09 kcal/mol
DOCKED: USER        Moving Ligand-Fixed Receptor    =  -7.92 kcal/mol
DOCKED: USER        Moving Ligand-Moving Receptor   =  +0.00 kcal/mol
DOCKED: USER    (2) Final Total Internal Energy     =  -0.78 kcal/mol
DOCKED: USER    (3) Torsional Free Energy           =  +0.60 kcal/mol
DOCKED: USER    (4) Unbound System's Energy         =  -0.78 kcal/mol
DOCKED: USER
DOCKED: USER
DOCKED: REMARK SMILES Cc1ccc2nc(C)c(/C=C3\C(=O)[N-]c4ccccc43)cc2c1
DOCKED: REMARK SMILES IDX 10 1 11 2 12 3 20 4 14 5 19 6 15 7 18 8 16 9 17 10 13 11
DOCKED: REMARK SMILES IDX 9 12 7 13 21 14 6 15 22 16 5 17 23 18 4 19 2 20 3 21 8 22
DOCKED: REMARK SMILES IDX 1 23
DOCKED: REMARK H PARENT
DOCKED: USER                              x       y       z     vdW  Elec       q    Type
DOCKED: USER                           _______ _______ _______ _____ _____    ______ ____
DOCKED: ROOT
DOCKED: ATOM      1  C   UNL     1     139.958  69.992 223.520 -0.10 -0.00    +0.020 C  
DOCKED: ENDROOT
DOCKED: BRANCH   1   2
DOCKED: ATOM      2  C   UNL     1     139.943  69.698 224.827 -0.39 -0.00    +0.006 C  
DOCKED: ATOM      3  C   UNL     1     139.471  68.480 225.499 -0.43 -0.01    +0.086 C  
DOCKED: ATOM      4  C   UNL     1     140.376  70.552 225.926 -0.53 +0.00    -0.031 A  
DOCKED: ATOM      5  N   UNL     1     139.612  68.570 226.917 -0.03 +0.09    -0.622 NA 
DOCKED: ATOM      6  C   UNL     1     140.921  71.839 225.913 -0.57 -0.00    +0.007 A  
DOCKED: ATOM      7  C   UNL     1     140.173  69.867 227.109 -0.47 +0.02    -0.126 A  
DOCKED: ATOM      8  C   UNL     1     141.257  72.429 227.144 -0.72 -0.00    +0.001 A  
DOCKED: ATOM      9  C   UNL     1     140.503  70.437 228.339 -0.57 +0.00    -0.015 A  
DOCKED: ATOM     10  C   UNL     1     141.050  71.731 228.350 -0.76 +0.00    -0.001 A  
DOCKED: ATOM     11  O   UNL     1     138.978  67.474 224.925 -0.71 -0.04    -0.315 OA 
DOCKED: ENDBRANCH   1   2
DOCKED: BRANCH   1  12
DOCKED: ATOM     12  C   UNL     1     139.481  71.282 222.990 -0.30 +0.00    -0.003 A  
DOCKED: ATOM     13  C   UNL     1     138.106  71.585 222.891 -0.19 -0.01    +0.045 A  
DOCKED: ATOM     14  C   UNL     1     140.421  72.219 222.543 -0.33 -0.00    +0.020 A  
DOCKED: ATOM     15  N   UNL     1     137.718  72.794 222.399 -0.07 +0.08    -0.253 NA 
DOCKED: ATOM     16  C   UNL     1     139.996  73.453 222.038 -0.28 -0.00    +0.001 A  
DOCKED: ATOM     17  C   UNL     1     138.613  73.726 221.978 -0.17 -0.02    +0.071 A  
DOCKED: ATOM     18  C   UNL     1     140.916  74.416 221.596 -0.31 -0.00    +0.013 A  
DOCKED: ATOM     19  C   UNL     1     138.165  74.952 221.475 -0.18 -0.01    +0.029 A  
DOCKED: ATOM     20  C   UNL     1     140.465  75.653 221.108 -0.27 +0.01    -0.050 A  
DOCKED: ATOM     21  C   UNL     1     139.086  75.908 221.036 -0.18 -0.00    +0.005 A  
DOCKED: ATOM     22  C   UNL     1     137.050  70.609 223.320 -0.17 -0.01    +0.067 C  
DOCKED: ATOM     23  C   UNL     1     141.447  76.666 220.600 -0.28 -0.02    +0.044 C  
DOCKED: ENDBRANCH   1  12
DOCKED: TORSDOF 2
DOCKED: TER
DOCKED: ENDMDL
________________________________________________________________________________


    CLUSTERING HISTOGRAM
    ____________________


________________________________________________________________________________
     |           |     |           |     |
Clus | Lowest    | Run | Mean      | Num | Histogram
-ter | Binding   |     | Binding   | in  |
Rank | Energy    |     | Energy    | Clus|    5    10   15   20   25   30   35
_____|___________|_____|___________|_____|____:____|____:____|____:____|____:___
   1 |     -7.43 |  14 |     -7.34 |  14 |##############
   2 |     -7.24 |   9 |     -7.23 |   2 |##
   3 |     -7.18 |  13 |     -7.17 |   3 |###
   4 |     -7.01 |  15 |     -7.01 |   1 |#
_____|___________|_____|___________|_____|______________________________________


    RMSD TABLE
    __________


_______________________________________________________________________
     |      |      |           |         |                 |
Rank | Sub- | Run  | Binding   | Cluster | Reference       | Grep
     | Rank |      | Energy    | RMSD    | RMSD            | Pattern
_____|______|______|___________|_________|_________________|___________
   1      1     14       -7.43      0.00    272.00           RANKING
   1      2     16       -7.42      0.06    272.03           RANKING
   1      3      4       -7.42      0.14    271.99           RANKING
   1      4      1       -7.41      0.66    272.08           RANKING
   1      5      6       -7.38      0.32    271.98           RANKING
   1      6     17       -7.34      0.58    271.91           RANKING
   1      7     19       -7.33      0.72    271.91           RANKING
   1      8     11       -7.33      0.73    271.91           RANKING
   1      9      8       -7.32      0.74    271.92           RANKING
   1     10     10       -7.32      0.71    271.91           RANKING
   1     11     20       -7.32      0.73    271.91           RANKING
   1     12      2       -7.29      0.76    271.89           RANKING
   1     13      5       -7.29      0.77    271.82           RANKING
   1     14      7       -7.14      1.77    271.39           RANKING
   2      1      9       -7.24      0.00    271.19           RANKING
   2      2      3       -7.22      0.07    271.19           RANKING
   3      1     13       -7.18      0.00    271.84           RANKING
   3      2     12       -7.17      0.05    271.84           RANKING
   3      3     18       -7.16      0.20    271.86           RANKING
   4      1     15       -7.01      0.00    272.30           RANKING

Run time 0.430 sec
Idle time 0.000 sec
