AutoDock-GPU version: v1.6

**********************************************************
**    AutoDock-GPU AUTODOCKTOOLS-COMPATIBLE DLG FILE    **
**********************************************************


    DOCKING PARAMETERS
    ________________________


Ligand file:                               /home/a/REINVENT4/ReinventStudies/pleaseWork/justRnve/graph-dock-t2iv78/graph-DockGPU/node-autodockgpu/inputs/FZPFRAHWZGGZMO-UHFFFAOYNA-N.pdbqt
Grid fld file:                             /home/a/REINVENT4/ReinventStudies/mols/Rad51/maps/rad51_receptor.maps.fld

Random seed:                               42
Number of runs:                            20
Number of energy evaluations:              1132076
Number of generations:                     42000
Size of population:                        150
Rate of crossover:                         80.000000%
Tournament selection probability limit:    60.000000%
Rate of mutation:                          2.000000%
Maximal allowed delta movement:            +/- 6.000000A
Maximal allowed delta angle:               +/- 90.000000

Rate of local search:                      100.000000%
Maximal number of local search iterations: 300
Rho lower bound:                           0.010000
Spread of local search delta movement:     2.000000A
Spread of local search delta angle:        74.999999
Limit of consecutive successes/failures:   4

Handle symmetry during clustering:         YES
RMSD tolerance:                            2.000000A

Program call in command line was:          /home/a/REINVENT4/ReinventStudies/adgpu-v1.6_linux_x64_cuda12_128wi --filelist batch.txt --heuristics 1 --nrun 20 --psize 150 --lsit 300 --seed 42 --heurmax 12000000 


    GRID PARAMETERS
    ________________________


Receptor name:                             rad51_receptor
Number of grid points (x, y, z):           53, 53, 53
Grid center (x, y, z):                     139.950000, 75.640000, 221.970000A
Grid size (x, y, z):                       19.500000, 19.500000, 19.500000A
Grid spacing:                              0.375000A


    LIGAND PARAMETERS
    ________________________


Ligand name:                               /home/a/REINVENT4/ReinventStudies/pleaseWork/justRnve/graph-dock-t2iv78/graph-DockGPU/node-autodockgpu/inputs/FZPFRAHWZGGZMO-UHFFFAOYNA-N
Number of atoms:                           14
Number of rotatable bonds:                 1
Number of atom types:                      3


    DUMMY DATA (only for ADT-compatibility)
    ________________________


DPF> outlev 1
DPF> ga_run 20
DPF> fld /home/a/REINVENT4/ReinventStudies/mols/Rad51/maps/rad51_receptor.maps.fld
DPF> move /home/a/REINVENT4/ReinventStudies/pleaseWork/justRnve/graph-dock-t2iv78/graph-DockGPU/node-autodockgpu/inputs/FZPFRAHWZGGZMO-UHFFFAOYNA-N.pdbqt


    COUNTER STATES
    ________________________


Number of energy evaluations performed:    561515
Number of generations used:                25


    INPUT LIGAND PDBQT FILE:
    ________________________


INPUT-LIGAND-PDBQT: REMARK SMILES COC1=CC(=O)C(=O)c2ccccc21
INPUT-LIGAND-PDBQT: REMARK SMILES IDX 3 1 4 2 5 3 6 4 7 5 8 6 9 7 10 8 11 9 12 10 13 11 14 12 2 13
INPUT-LIGAND-PDBQT: REMARK SMILES IDX 1 14
INPUT-LIGAND-PDBQT: REMARK H PARENT
INPUT-LIGAND-PDBQT: ROOT
INPUT-LIGAND-PDBQT: ATOM      1  C   UNL     1       0.239  -0.520   0.151  1.00  0.00     0.130 C 
INPUT-LIGAND-PDBQT: ATOM      2  C   UNL     1       0.268  -1.858  -0.022  1.00  0.00     0.103 C 
INPUT-LIGAND-PDBQT: ATOM      3  C   UNL     1       1.086  -2.726   0.839  1.00  0.00     0.230 C 
INPUT-LIGAND-PDBQT: ATOM      4  O   UNL     1       1.093  -3.973   0.654  1.00  0.00    -0.285 OA
INPUT-LIGAND-PDBQT: ATOM      5  C   UNL     1       1.890  -2.129   1.911  1.00  0.00     0.233 C 
INPUT-LIGAND-PDBQT: ATOM      6  O   UNL     1       2.597  -2.860   2.657  1.00  0.00    -0.285 OA
INPUT-LIGAND-PDBQT: ATOM      7  C   UNL     1       1.852  -0.664   2.092  1.00  0.00     0.037 A 
INPUT-LIGAND-PDBQT: ATOM      8  C   UNL     1       2.604  -0.043   3.104  1.00  0.00     0.013 A 
INPUT-LIGAND-PDBQT: ATOM      9  C   UNL     1       2.558   1.344   3.264  1.00  0.00     0.001 A 
INPUT-LIGAND-PDBQT: ATOM     10  C   UNL     1       1.764   2.120   2.418  1.00  0.00     0.001 A 
INPUT-LIGAND-PDBQT: ATOM     11  C   UNL     1       1.012   1.515   1.409  1.00  0.00     0.013 A 
INPUT-LIGAND-PDBQT: ATOM     12  C   UNL     1       1.046   0.119   1.232  1.00  0.00     0.028 A 
INPUT-LIGAND-PDBQT: ENDROOT
INPUT-LIGAND-PDBQT: BRANCH   1  13
INPUT-LIGAND-PDBQT: ATOM     13  O   UNL     1      -0.544   0.311  -0.672  1.00  0.00    -0.496 OA
INPUT-LIGAND-PDBQT: ATOM     14  C   UNL     1      -1.368  -0.137  -1.744  1.00  0.00     0.278 C 
INPUT-LIGAND-PDBQT: ENDBRANCH   1  13
INPUT-LIGAND-PDBQT: TORSDOF 1


    FINAL DOCKED STATE:
    ________________________


Run:   1 / 20
Time taken for this run:   0.015s

DOCKED: MODEL        1
DOCKED: USER    Run = 1
DOCKED: USER
DOCKED: USER    Estimated Free Energy of Binding    =  -6.21 kcal/mol  [=(1)+(2)+(3)-(4)]
DOCKED: USER
DOCKED: USER    (1) Final Intermolecular Energy     =  -6.51 kcal/mol
DOCKED: USER        vdW + Hbond + desolv Energy     =  -6.44 kcal/mol
DOCKED: USER        Electrostatic Energy            =  -0.07 kcal/mol
DOCKED: USER        Moving Ligand-Fixed Receptor    =  -6.51 kcal/mol
DOCKED: USER        Moving Ligand-Moving Receptor   =  +0.00 kcal/mol
DOCKED: USER    (2) Final Total Internal Energy     =  -0.06 kcal/mol
DOCKED: USER    (3) Torsional Free Energy           =  +0.30 kcal/mol
DOCKED: USER    (4) Unbound System's Energy         =  -0.06 kcal/mol
DOCKED: USER
DOCKED: USER
DOCKED: REMARK SMILES COC1=CC(=O)C(=O)c2ccccc21
DOCKED: REMARK SMILES IDX 3 1 4 2 5 3 6 4 7 5 8 6 9 7 10 8 11 9 12 10 13 11 14 12 2 13
DOCKED: REMARK SMILES IDX 1 14
DOCKED: REMARK H PARENT
DOCKED: USER                              x       y       z     vdW  Elec       q    Type
DOCKED: USER                           _______ _______ _______ _____ _____    ______ ____
DOCKED: ROOT
DOCKED: ATOM      1  C   UNL     1     140.013  70.987 224.169 -0.35 -0.02    +0.130 C  
DOCKED: ATOM      2  C   UNL     1     139.443  69.974 223.483 -0.23 -0.02    +0.103 C  
DOCKED: ATOM      3  C   UNL     1     139.137  68.688 224.127 -0.19 -0.03    +0.230 C  
DOCKED: ATOM      4  O   UNL     1     138.604  67.759 223.461 -0.32 +0.03    -0.285 OA 
DOCKED: ATOM      5  C   UNL     1     139.456  68.496 225.546 -0.34 -0.03    +0.233 C  
DOCKED: ATOM      6  O   UNL     1     139.200  67.398 226.112 -0.90 +0.00    -0.285 OA 
DOCKED: ATOM      7  C   UNL     1     140.080  69.610 226.287 -0.48 -0.01    +0.037 A  
DOCKED: ATOM      8  C   UNL     1     140.405  69.477 227.648 -0.61 -0.00    +0.013 A  
DOCKED: ATOM      9  C   UNL     1     140.995  70.540 228.337 -0.58 -0.00    +0.001 A  
DOCKED: ATOM     10  C   UNL     1     141.263  71.740 227.676 -0.78 -0.00    +0.001 A  
DOCKED: ATOM     11  C   UNL     1     140.944  71.884 226.325 -0.65 -0.00    +0.013 A  
DOCKED: ATOM     12  C   UNL     1     140.351  70.825 225.613 -0.54 -0.00    +0.028 A  
DOCKED: ENDROOT
DOCKED: BRANCH   1  13
DOCKED: ATOM     13  O   UNL     1     140.305  72.219 223.553 -0.27 +0.06    -0.496 OA 
DOCKED: ATOM     14  C   UNL     1     139.845  72.624 222.267 -0.19 -0.05    +0.278 C  
DOCKED: ENDBRANCH   1  13
DOCKED: TORSDOF 1
DOCKED: TER
DOCKED: ENDMDL
________________________________________________________________________________


    FINAL DOCKED STATE:
    ________________________


Run:   2 / 20
Time taken for this run:   0.015s

DOCKED: MODEL        2
DOCKED: USER    Run = 2
DOCKED: USER
DOCKED: USER    Estimated Free Energy of Binding    =  -6.21 kcal/mol  [=(1)+(2)+(3)-(4)]
DOCKED: USER
DOCKED: USER    (1) Final Intermolecular Energy     =  -6.51 kcal/mol
DOCKED: USER        vdW + Hbond + desolv Energy     =  -6.44 kcal/mol
DOCKED: USER        Electrostatic Energy            =  -0.07 kcal/mol
DOCKED: USER        Moving Ligand-Fixed Receptor    =  -6.51 kcal/mol
DOCKED: USER        Moving Ligand-Moving Receptor   =  +0.00 kcal/mol
DOCKED: USER    (2) Final Total Internal Energy     =  -0.06 kcal/mol
DOCKED: USER    (3) Torsional Free Energy           =  +0.30 kcal/mol
DOCKED: USER    (4) Unbound System's Energy         =  -0.06 kcal/mol
DOCKED: USER
DOCKED: USER
DOCKED: REMARK SMILES COC1=CC(=O)C(=O)c2ccccc21
DOCKED: REMARK SMILES IDX 3 1 4 2 5 3 6 4 7 5 8 6 9 7 10 8 11 9 12 10 13 11 14 12 2 13
DOCKED: REMARK SMILES IDX 1 14
DOCKED: REMARK H PARENT
DOCKED: USER                              x       y       z     vdW  Elec       q    Type
DOCKED: USER                           _______ _______ _______ _____ _____    ______ ____
DOCKED: ROOT
DOCKED: ATOM      1  C   UNL     1     139.983  71.014 224.185 -0.36 -0.02    +0.130 C  
DOCKED: ATOM      2  C   UNL     1     139.420  70.009 223.484 -0.23 -0.02    +0.103 C  
DOCKED: ATOM      3  C   UNL     1     139.124  68.709 224.107 -0.19 -0.03    +0.230 C  
DOCKED: ATOM      4  O   UNL     1     138.597  67.788 223.427 -0.31 +0.03    -0.285 OA 
DOCKED: ATOM      5  C   UNL     1     139.447  68.497 225.522 -0.33 -0.03    +0.233 C  
DOCKED: ATOM      6  O   UNL     1     139.200  67.389 226.071 -0.91 +0.00    -0.285 OA 
DOCKED: ATOM      7  C   UNL     1     140.063  69.604 226.281 -0.48 -0.01    +0.037 A  
DOCKED: ATOM      8  C   UNL     1     140.392  69.452 227.639 -0.61 -0.00    +0.013 A  
DOCKED: ATOM      9  C   UNL     1     140.974  70.507 228.345 -0.57 -0.00    +0.001 A  
DOCKED: ATOM     10  C   UNL     1     141.233  71.719 227.703 -0.78 -0.00    +0.001 A  
DOCKED: ATOM     11  C   UNL     1     140.911  71.883 226.354 -0.66 -0.00    +0.013 A  
DOCKED: ATOM     12  C   UNL     1     140.324  70.831 225.627 -0.54 -0.00    +0.028 A  
DOCKED: ENDROOT
DOCKED: BRANCH   1  13
DOCKED: ATOM     13  O   UNL     1     140.266  72.258 223.589 -0.27 +0.07    -0.496 OA 
DOCKED: ATOM     14  C   UNL     1     139.883  72.643 222.273 -0.20 -0.04    +0.278 C  
DOCKED: ENDBRANCH   1  13
DOCKED: TORSDOF 1
DOCKED: TER
DOCKED: ENDMDL
________________________________________________________________________________


    FINAL DOCKED STATE:
    ________________________


Run:   3 / 20
Time taken for this run:   0.015s

DOCKED: MODEL        3
DOCKED: USER    Run = 3
DOCKED: USER
DOCKED: USER    Estimated Free Energy of Binding    =  -6.21 kcal/mol  [=(1)+(2)+(3)-(4)]
DOCKED: USER
DOCKED: USER    (1) Final Intermolecular Energy     =  -6.51 kcal/mol
DOCKED: USER        vdW + Hbond + desolv Energy     =  -6.44 kcal/mol
DOCKED: USER        Electrostatic Energy            =  -0.07 kcal/mol
DOCKED: USER        Moving Ligand-Fixed Receptor    =  -6.51 kcal/mol
DOCKED: USER        Moving Ligand-Moving Receptor   =  +0.00 kcal/mol
DOCKED: USER    (2) Final Total Internal Energy     =  -0.06 kcal/mol
DOCKED: USER    (3) Torsional Free Energy           =  +0.30 kcal/mol
DOCKED: USER    (4) Unbound System's Energy         =  -0.06 kcal/mol
DOCKED: USER
DOCKED: USER
DOCKED: REMARK SMILES COC1=CC(=O)C(=O)c2ccccc21
DOCKED: REMARK SMILES IDX 3 1 4 2 5 3 6 4 7 5 8 6 9 7 10 8 11 9 12 10 13 11 14 12 2 13
DOCKED: REMARK SMILES IDX 1 14
DOCKED: REMARK H PARENT
DOCKED: USER                              x       y       z     vdW  Elec       q    Type
DOCKED: USER                           _______ _______ _______ _____ _____    ______ ____
DOCKED: ROOT
DOCKED: ATOM      1  C   UNL     1     140.005  71.008 224.185 -0.36 -0.02    +0.130 C  
DOCKED: ATOM      2  C   UNL     1     139.434  70.000 223.493 -0.23 -0.02    +0.103 C  
DOCKED: ATOM      3  C   UNL     1     139.133  68.707 224.128 -0.19 -0.03    +0.230 C  
DOCKED: ATOM      4  O   UNL     1     138.599  67.783 223.457 -0.32 +0.03    -0.285 OA 
DOCKED: ATOM      5  C   UNL     1     139.460  68.505 225.544 -0.34 -0.03    +0.233 C  
DOCKED: ATOM      6  O   UNL     1     139.209  67.402 226.102 -0.90 +0.00    -0.285 OA 
DOCKED: ATOM      7  C   UNL     1     140.085  69.614 226.291 -0.48 -0.01    +0.037 A  
DOCKED: ATOM      8  C   UNL     1     140.418  69.470 227.650 -0.61 -0.00    +0.013 A  
DOCKED: ATOM      9  C   UNL     1     141.009  70.528 228.345 -0.58 -0.00    +0.001 A  
DOCKED: ATOM     10  C   UNL     1     141.272  71.734 227.692 -0.77 -0.00    +0.001 A  
DOCKED: ATOM     11  C   UNL     1     140.946  71.889 226.343 -0.66 -0.00    +0.013 A  
DOCKED: ATOM     12  C   UNL     1     140.351  70.834 225.626 -0.54 -0.00    +0.028 A  
DOCKED: ENDROOT
DOCKED: BRANCH   1  13
DOCKED: ATOM     13  O   UNL     1     140.293  72.245 223.578 -0.27 +0.06    -0.496 OA 
DOCKED: ATOM     14  C   UNL     1     139.943  72.607 222.246 -0.20 -0.04    +0.278 C  
DOCKED: ENDBRANCH   1  13
DOCKED: TORSDOF 1
DOCKED: TER
DOCKED: ENDMDL
________________________________________________________________________________


    FINAL DOCKED STATE:
    ________________________


Run:   4 / 20
Time taken for this run:   0.015s

DOCKED: MODEL        4
DOCKED: USER    Run = 4
DOCKED: USER
DOCKED: USER    Estimated Free Energy of Binding    =  -6.21 kcal/mol  [=(1)+(2)+(3)-(4)]
DOCKED: USER
DOCKED: USER    (1) Final Intermolecular Energy     =  -6.51 kcal/mol
DOCKED: USER        vdW + Hbond + desolv Energy     =  -6.44 kcal/mol
DOCKED: USER        Electrostatic Energy            =  -0.07 kcal/mol
DOCKED: USER        Moving Ligand-Fixed Receptor    =  -6.51 kcal/mol
DOCKED: USER        Moving Ligand-Moving Receptor   =  +0.00 kcal/mol
DOCKED: USER    (2) Final Total Internal Energy     =  -0.06 kcal/mol
DOCKED: USER    (3) Torsional Free Energy           =  +0.30 kcal/mol
DOCKED: USER    (4) Unbound System's Energy         =  -0.06 kcal/mol
DOCKED: USER
DOCKED: USER
DOCKED: REMARK SMILES COC1=CC(=O)C(=O)c2ccccc21
DOCKED: REMARK SMILES IDX 3 1 4 2 5 3 6 4 7 5 8 6 9 7 10 8 11 9 12 10 13 11 14 12 2 13
DOCKED: REMARK SMILES IDX 1 14
DOCKED: REMARK H PARENT
DOCKED: USER                              x       y       z     vdW  Elec       q    Type
DOCKED: USER                           _______ _______ _______ _____ _____    ______ ____
DOCKED: ROOT
DOCKED: ATOM      1  C   UNL     1     139.991  71.000 224.182 -0.36 -0.02    +0.130 C  
DOCKED: ATOM      2  C   UNL     1     139.419  69.992 223.492 -0.23 -0.02    +0.103 C  
DOCKED: ATOM      3  C   UNL     1     139.123  68.698 224.126 -0.19 -0.03    +0.230 C  
DOCKED: ATOM      4  O   UNL     1     138.588  67.774 223.456 -0.32 +0.03    -0.285 OA 
DOCKED: ATOM      5  C   UNL     1     139.456  68.494 225.540 -0.34 -0.03    +0.233 C  
DOCKED: ATOM      6  O   UNL     1     139.209  67.390 226.098 -0.91 +0.00    -0.285 OA 
DOCKED: ATOM      7  C   UNL     1     140.082  69.603 226.287 -0.48 -0.01    +0.037 A  
DOCKED: ATOM      8  C   UNL     1     140.420  69.458 227.643 -0.61 -0.00    +0.013 A  
DOCKED: ATOM      9  C   UNL     1     141.012  70.517 228.337 -0.58 -0.00    +0.001 A  
DOCKED: ATOM     10  C   UNL     1     141.270  71.724 227.686 -0.77 -0.00    +0.001 A  
DOCKED: ATOM     11  C   UNL     1     140.938  71.880 226.338 -0.66 -0.00    +0.013 A  
DOCKED: ATOM     12  C   UNL     1     140.342  70.825 225.622 -0.54 -0.00    +0.028 A  
DOCKED: ENDROOT
DOCKED: BRANCH   1  13
DOCKED: ATOM     13  O   UNL     1     140.273  72.239 223.576 -0.27 +0.07    -0.496 OA 
DOCKED: ATOM     14  C   UNL     1     139.855  72.628 222.271 -0.19 -0.04    +0.278 C  
DOCKED: ENDBRANCH   1  13
DOCKED: TORSDOF 1
DOCKED: TER
DOCKED: ENDMDL
________________________________________________________________________________


    FINAL DOCKED STATE:
    ________________________


Run:   5 / 20
Time taken for this run:   0.015s

DOCKED: MODEL        5
DOCKED: USER    Run = 5
DOCKED: USER
DOCKED: USER    Estimated Free Energy of Binding    =  -6.21 kcal/mol  [=(1)+(2)+(3)-(4)]
DOCKED: USER
DOCKED: USER    (1) Final Intermolecular Energy     =  -6.51 kcal/mol
DOCKED: USER        vdW + Hbond + desolv Energy     =  -6.44 kcal/mol
DOCKED: USER        Electrostatic Energy            =  -0.07 kcal/mol
DOCKED: USER        Moving Ligand-Fixed Receptor    =  -6.51 kcal/mol
DOCKED: USER        Moving Ligand-Moving Receptor   =  +0.00 kcal/mol
DOCKED: USER    (2) Final Total Internal Energy     =  -0.06 kcal/mol
DOCKED: USER    (3) Torsional Free Energy           =  +0.30 kcal/mol
DOCKED: USER    (4) Unbound System's Energy         =  -0.06 kcal/mol
DOCKED: USER
DOCKED: USER
DOCKED: REMARK SMILES COC1=CC(=O)C(=O)c2ccccc21
DOCKED: REMARK SMILES IDX 3 1 4 2 5 3 6 4 7 5 8 6 9 7 10 8 11 9 12 10 13 11 14 12 2 13
DOCKED: REMARK SMILES IDX 1 14
DOCKED: REMARK H PARENT
DOCKED: USER                              x       y       z     vdW  Elec       q    Type
DOCKED: USER                           _______ _______ _______ _____ _____    ______ ____
DOCKED: ROOT
DOCKED: ATOM      1  C   UNL     1     139.995  70.986 224.181 -0.36 -0.02    +0.130 C  
DOCKED: ATOM      2  C   UNL     1     139.419  69.977 223.496 -0.23 -0.02    +0.103 C  
DOCKED: ATOM      3  C   UNL     1     139.117  68.688 224.136 -0.19 -0.03    +0.230 C  
DOCKED: ATOM      4  O   UNL     1     138.578  67.763 223.470 -0.32 +0.02    -0.285 OA 
DOCKED: ATOM      5  C   UNL     1     139.446  68.490 225.552 -0.34 -0.03    +0.233 C  
DOCKED: ATOM      6  O   UNL     1     139.194  67.390 226.115 -0.90 +0.00    -0.285 OA 
DOCKED: ATOM      7  C   UNL     1     140.077  69.600 226.294 -0.48 -0.01    +0.037 A  
DOCKED: ATOM      8  C   UNL     1     140.412  69.461 227.651 -0.61 -0.00    +0.013 A  
DOCKED: ATOM      9  C   UNL     1     141.008  70.520 228.341 -0.58 -0.00    +0.001 A  
DOCKED: ATOM     10  C   UNL     1     141.272  71.722 227.683 -0.77 -0.00    +0.001 A  
DOCKED: ATOM     11  C   UNL     1     140.943  71.873 226.334 -0.66 -0.00    +0.013 A  
DOCKED: ATOM     12  C   UNL     1     140.344  70.817 225.623 -0.54 -0.00    +0.028 A  
DOCKED: ENDROOT
DOCKED: BRANCH   1  13
DOCKED: ATOM     13  O   UNL     1     140.284  72.220 223.569 -0.27 +0.07    -0.496 OA 
DOCKED: ATOM     14  C   UNL     1     139.907  72.589 222.246 -0.20 -0.04    +0.278 C  
DOCKED: ENDBRANCH   1  13
DOCKED: TORSDOF 1
DOCKED: TER
DOCKED: ENDMDL
________________________________________________________________________________


    FINAL DOCKED STATE:
    ________________________


Run:   6 / 20
Time taken for this run:   0.015s

DOCKED: MODEL        6
DOCKED: USER    Run = 6
DOCKED: USER
DOCKED: USER    Estimated Free Energy of Binding    =  -6.21 kcal/mol  [=(1)+(2)+(3)-(4)]
DOCKED: USER
DOCKED: USER    (1) Final Intermolecular Energy     =  -6.51 kcal/mol
DOCKED: USER        vdW + Hbond + desolv Energy     =  -6.44 kcal/mol
DOCKED: USER        Electrostatic Energy            =  -0.07 kcal/mol
DOCKED: USER        Moving Ligand-Fixed Receptor    =  -6.51 kcal/mol
DOCKED: USER        Moving Ligand-Moving Receptor   =  +0.00 kcal/mol
DOCKED: USER    (2) Final Total Internal Energy     =  -0.06 kcal/mol
DOCKED: USER    (3) Torsional Free Energy           =  +0.30 kcal/mol
DOCKED: USER    (4) Unbound System's Energy         =  -0.06 kcal/mol
DOCKED: USER
DOCKED: USER
DOCKED: REMARK SMILES COC1=CC(=O)C(=O)c2ccccc21
DOCKED: REMARK SMILES IDX 3 1 4 2 5 3 6 4 7 5 8 6 9 7 10 8 11 9 12 10 13 11 14 12 2 13
DOCKED: REMARK SMILES IDX 1 14
DOCKED: REMARK H PARENT
DOCKED: USER                              x       y       z     vdW  Elec       q    Type
DOCKED: USER                           _______ _______ _______ _____ _____    ______ ____
DOCKED: ROOT
DOCKED: ATOM      1  C   UNL     1     140.013  71.009 224.181 -0.36 -0.02    +0.130 C  
DOCKED: ATOM      2  C   UNL     1     139.439  70.002 223.489 -0.23 -0.02    +0.103 C  
DOCKED: ATOM      3  C   UNL     1     139.132  68.712 224.123 -0.19 -0.03    +0.230 C  
DOCKED: ATOM      4  O   UNL     1     138.596  67.789 223.452 -0.31 +0.03    -0.285 OA 
DOCKED: ATOM      5  C   UNL     1     139.454  68.509 225.540 -0.33 -0.03    +0.233 C  
DOCKED: ATOM      6  O   UNL     1     139.197  67.407 226.098 -0.90 +0.00    -0.285 OA 
DOCKED: ATOM      7  C   UNL     1     140.081  69.616 226.289 -0.48 -0.01    +0.037 A  
DOCKED: ATOM      8  C   UNL     1     140.410  69.472 227.648 -0.61 -0.00    +0.013 A  
DOCKED: ATOM      9  C   UNL     1     141.003  70.528 228.344 -0.58 -0.00    +0.001 A  
DOCKED: ATOM     10  C   UNL     1     141.272  71.732 227.691 -0.77 -0.00    +0.001 A  
DOCKED: ATOM     11  C   UNL     1     140.951  71.888 226.342 -0.66 -0.00    +0.013 A  
DOCKED: ATOM     12  C   UNL     1     140.353  70.835 225.624 -0.54 -0.00    +0.028 A  
DOCKED: ENDROOT
DOCKED: BRANCH   1  13
DOCKED: ATOM     13  O   UNL     1     140.306  72.245 223.574 -0.28 +0.06    -0.496 OA 
DOCKED: ATOM     14  C   UNL     1     139.925  72.622 222.255 -0.20 -0.04    +0.278 C  
DOCKED: ENDBRANCH   1  13
DOCKED: TORSDOF 1
DOCKED: TER
DOCKED: ENDMDL
________________________________________________________________________________


    FINAL DOCKED STATE:
    ________________________


Run:   7 / 20
Time taken for this run:   0.015s

DOCKED: MODEL        7
DOCKED: USER    Run = 7
DOCKED: USER
DOCKED: USER    Estimated Free Energy of Binding    =  -6.21 kcal/mol  [=(1)+(2)+(3)-(4)]
DOCKED: USER
DOCKED: USER    (1) Final Intermolecular Energy     =  -6.51 kcal/mol
DOCKED: USER        vdW + Hbond + desolv Energy     =  -6.44 kcal/mol
DOCKED: USER        Electrostatic Energy            =  -0.06 kcal/mol
DOCKED: USER        Moving Ligand-Fixed Receptor    =  -6.51 kcal/mol
DOCKED: USER        Moving Ligand-Moving Receptor   =  +0.00 kcal/mol
DOCKED: USER    (2) Final Total Internal Energy     =  -0.06 kcal/mol
DOCKED: USER    (3) Torsional Free Energy           =  +0.30 kcal/mol
DOCKED: USER    (4) Unbound System's Energy         =  -0.06 kcal/mol
DOCKED: USER
DOCKED: USER
DOCKED: REMARK SMILES COC1=CC(=O)C(=O)c2ccccc21
DOCKED: REMARK SMILES IDX 3 1 4 2 5 3 6 4 7 5 8 6 9 7 10 8 11 9 12 10 13 11 14 12 2 13
DOCKED: REMARK SMILES IDX 1 14
DOCKED: REMARK H PARENT
DOCKED: USER                              x       y       z     vdW  Elec       q    Type
DOCKED: USER                           _______ _______ _______ _____ _____    ______ ____
DOCKED: ROOT
DOCKED: ATOM      1  C   UNL     1     139.996  70.983 224.176 -0.36 -0.02    +0.130 C  
DOCKED: ATOM      2  C   UNL     1     139.428  69.968 223.492 -0.23 -0.02    +0.103 C  
DOCKED: ATOM      3  C   UNL     1     139.127  68.681 224.137 -0.19 -0.03    +0.230 C  
DOCKED: ATOM      4  O   UNL     1     138.596  67.751 223.472 -0.32 +0.02    -0.285 OA 
DOCKED: ATOM      5  C   UNL     1     139.450  68.491 225.555 -0.34 -0.03    +0.233 C  
DOCKED: ATOM      6  O   UNL     1     139.199  67.393 226.122 -0.90 +0.00    -0.285 OA 
DOCKED: ATOM      7  C   UNL     1     140.072  69.607 226.295 -0.48 -0.01    +0.037 A  
DOCKED: ATOM      8  C   UNL     1     140.400  69.476 227.655 -0.61 -0.00    +0.013 A  
DOCKED: ATOM      9  C   UNL     1     140.988  70.541 228.343 -0.58 -0.00    +0.001 A  
DOCKED: ATOM     10  C   UNL     1     141.252  71.741 227.681 -0.78 -0.00    +0.001 A  
DOCKED: ATOM     11  C   UNL     1     140.930  71.884 226.330 -0.65 -0.00    +0.013 A  
DOCKED: ATOM     12  C   UNL     1     140.338  70.822 225.620 -0.54 -0.00    +0.028 A  
DOCKED: ENDROOT
DOCKED: BRANCH   1  13
DOCKED: ATOM     13  O   UNL     1     140.284  72.215 223.559 -0.27 +0.06    -0.496 OA 
DOCKED: ATOM     14  C   UNL     1     140.045  72.523 222.189 -0.20 -0.04    +0.278 C  
DOCKED: ENDBRANCH   1  13
DOCKED: TORSDOF 1
DOCKED: TER
DOCKED: ENDMDL
________________________________________________________________________________


    FINAL DOCKED STATE:
    ________________________


Run:   8 / 20
Time taken for this run:   0.015s

DOCKED: MODEL        8
DOCKED: USER    Run = 8
DOCKED: USER
DOCKED: USER    Estimated Free Energy of Binding    =  -6.21 kcal/mol  [=(1)+(2)+(3)-(4)]
DOCKED: USER
DOCKED: USER    (1) Final Intermolecular Energy     =  -6.51 kcal/mol
DOCKED: USER        vdW + Hbond + desolv Energy     =  -6.44 kcal/mol
DOCKED: USER        Electrostatic Energy            =  -0.06 kcal/mol
DOCKED: USER        Moving Ligand-Fixed Receptor    =  -6.51 kcal/mol
DOCKED: USER        Moving Ligand-Moving Receptor   =  +0.00 kcal/mol
DOCKED: USER    (2) Final Total Internal Energy     =  -0.06 kcal/mol
DOCKED: USER    (3) Torsional Free Energy           =  +0.30 kcal/mol
DOCKED: USER    (4) Unbound System's Energy         =  -0.06 kcal/mol
DOCKED: USER
DOCKED: USER
DOCKED: REMARK SMILES COC1=CC(=O)C(=O)c2ccccc21
DOCKED: REMARK SMILES IDX 3 1 4 2 5 3 6 4 7 5 8 6 9 7 10 8 11 9 12 10 13 11 14 12 2 13
DOCKED: REMARK SMILES IDX 1 14
DOCKED: REMARK H PARENT
DOCKED: USER                              x       y       z     vdW  Elec       q    Type
DOCKED: USER                           _______ _______ _______ _____ _____    ______ ____
DOCKED: ROOT
DOCKED: ATOM      1  C   UNL     1     139.991  70.989 224.183 -0.36 -0.02    +0.130 C  
DOCKED: ATOM      2  C   UNL     1     139.415  69.979 223.499 -0.23 -0.02    +0.103 C  
DOCKED: ATOM      3  C   UNL     1     139.115  68.690 224.140 -0.19 -0.03    +0.230 C  
DOCKED: ATOM      4  O   UNL     1     138.575  67.764 223.476 -0.32 +0.02    -0.285 OA 
DOCKED: ATOM      5  C   UNL     1     139.448  68.492 225.555 -0.34 -0.03    +0.233 C  
DOCKED: ATOM      6  O   UNL     1     139.198  67.392 226.119 -0.90 +0.00    -0.285 OA 
DOCKED: ATOM      7  C   UNL     1     140.080  69.603 226.295 -0.48 -0.01    +0.037 A  
DOCKED: ATOM      8  C   UNL     1     140.419  69.465 227.652 -0.61 -0.00    +0.013 A  
DOCKED: ATOM      9  C   UNL     1     141.015  70.525 228.340 -0.58 -0.00    +0.001 A  
DOCKED: ATOM     10  C   UNL     1     141.277  71.727 227.681 -0.77 -0.00    +0.001 A  
DOCKED: ATOM     11  C   UNL     1     140.945  71.877 226.333 -0.66 -0.00    +0.013 A  
DOCKED: ATOM     12  C   UNL     1     140.344  70.820 225.623 -0.54 -0.00    +0.028 A  
DOCKED: ENDROOT
DOCKED: BRANCH   1  13
DOCKED: ATOM     13  O   UNL     1     140.278  72.223 223.569 -0.27 +0.07    -0.496 OA 
DOCKED: ATOM     14  C   UNL     1     140.060  72.527 222.195 -0.20 -0.04    +0.278 C  
DOCKED: ENDBRANCH   1  13
DOCKED: TORSDOF 1
DOCKED: TER
DOCKED: ENDMDL
________________________________________________________________________________


    FINAL DOCKED STATE:
    ________________________


Run:   9 / 20
Time taken for this run:   0.015s

DOCKED: MODEL        9
DOCKED: USER    Run = 9
DOCKED: USER
DOCKED: USER    Estimated Free Energy of Binding    =  -6.21 kcal/mol  [=(1)+(2)+(3)-(4)]
DOCKED: USER
DOCKED: USER    (1) Final Intermolecular Energy     =  -6.51 kcal/mol
DOCKED: USER        vdW + Hbond + desolv Energy     =  -6.44 kcal/mol
DOCKED: USER        Electrostatic Energy            =  -0.07 kcal/mol
DOCKED: USER        Moving Ligand-Fixed Receptor    =  -6.51 kcal/mol
DOCKED: USER        Moving Ligand-Moving Receptor   =  +0.00 kcal/mol
DOCKED: USER    (2) Final Total Internal Energy     =  -0.06 kcal/mol
DOCKED: USER    (3) Torsional Free Energy           =  +0.30 kcal/mol
DOCKED: USER    (4) Unbound System's Energy         =  -0.06 kcal/mol
DOCKED: USER
DOCKED: USER
DOCKED: REMARK SMILES COC1=CC(=O)C(=O)c2ccccc21
DOCKED: REMARK SMILES IDX 3 1 4 2 5 3 6 4 7 5 8 6 9 7 10 8 11 9 12 10 13 11 14 12 2 13
DOCKED: REMARK SMILES IDX 1 14
DOCKED: REMARK H PARENT
DOCKED: USER                              x       y       z     vdW  Elec       q    Type
DOCKED: USER                           _______ _______ _______ _____ _____    ______ ____
DOCKED: ROOT
DOCKED: ATOM      1  C   UNL     1     140.005  70.995 224.184 -0.36 -0.02    +0.130 C  
DOCKED: ATOM      2  C   UNL     1     139.426  69.987 223.498 -0.23 -0.02    +0.103 C  
DOCKED: ATOM      3  C   UNL     1     139.123  68.698 224.138 -0.19 -0.03    +0.230 C  
DOCKED: ATOM      4  O   UNL     1     138.582  67.774 223.472 -0.32 +0.02    -0.285 OA 
DOCKED: ATOM      5  C   UNL     1     139.454  68.497 225.553 -0.34 -0.03    +0.233 C  
DOCKED: ATOM      6  O   UNL     1     139.201  67.397 226.115 -0.90 +0.00    -0.285 OA 
DOCKED: ATOM      7  C   UNL     1     140.087  69.606 226.295 -0.49 -0.01    +0.037 A  
DOCKED: ATOM      8  C   UNL     1     140.424  69.465 227.652 -0.61 -0.00    +0.013 A  
DOCKED: ATOM      9  C   UNL     1     141.023  70.522 228.342 -0.58 -0.00    +0.001 A  
DOCKED: ATOM     10  C   UNL     1     141.288  71.725 227.685 -0.77 -0.00    +0.001 A  
DOCKED: ATOM     11  C   UNL     1     140.957  71.878 226.337 -0.66 -0.00    +0.013 A  
DOCKED: ATOM     12  C   UNL     1     140.355  70.823 225.625 -0.54 -0.00    +0.028 A  
DOCKED: ENDROOT
DOCKED: BRANCH   1  13
DOCKED: ATOM     13  O   UNL     1     140.294  72.229 223.573 -0.27 +0.06    -0.496 OA 
DOCKED: ATOM     14  C   UNL     1     139.859  72.625 222.276 -0.20 -0.04    +0.278 C  
DOCKED: ENDBRANCH   1  13
DOCKED: TORSDOF 1
DOCKED: TER
DOCKED: ENDMDL
________________________________________________________________________________


    FINAL DOCKED STATE:
    ________________________


Run:   10 / 20
Time taken for this run:   0.015s

DOCKED: MODEL        10
DOCKED: USER    Run = 10
DOCKED: USER
DOCKED: USER    Estimated Free Energy of Binding    =  -6.21 kcal/mol  [=(1)+(2)+(3)-(4)]
DOCKED: USER
DOCKED: USER    (1) Final Intermolecular Energy     =  -6.51 kcal/mol
DOCKED: USER        vdW + Hbond + desolv Energy     =  -6.44 kcal/mol
DOCKED: USER        Electrostatic Energy            =  -0.07 kcal/mol
DOCKED: USER        Moving Ligand-Fixed Receptor    =  -6.51 kcal/mol
DOCKED: USER        Moving Ligand-Moving Receptor   =  +0.00 kcal/mol
DOCKED: USER    (2) Final Total Internal Energy     =  -0.06 kcal/mol
DOCKED: USER    (3) Torsional Free Energy           =  +0.30 kcal/mol
DOCKED: USER    (4) Unbound System's Energy         =  -0.06 kcal/mol
DOCKED: USER
DOCKED: USER
DOCKED: REMARK SMILES COC1=CC(=O)C(=O)c2ccccc21
DOCKED: REMARK SMILES IDX 3 1 4 2 5 3 6 4 7 5 8 6 9 7 10 8 11 9 12 10 13 11 14 12 2 13
DOCKED: REMARK SMILES IDX 1 14
DOCKED: REMARK H PARENT
DOCKED: USER                              x       y       z     vdW  Elec       q    Type
DOCKED: USER                           _______ _______ _______ _____ _____    ______ ____
DOCKED: ROOT
DOCKED: ATOM      1  C   UNL     1     139.999  70.987 224.185 -0.36 -0.02    +0.130 C  
DOCKED: ATOM      2  C   UNL     1     139.426  69.979 223.497 -0.23 -0.02    +0.103 C  
DOCKED: ATOM      3  C   UNL     1     139.121  68.689 224.135 -0.19 -0.03    +0.230 C  
DOCKED: ATOM      4  O   UNL     1     138.584  67.765 223.466 -0.32 +0.02    -0.285 OA 
DOCKED: ATOM      5  C   UNL     1     139.446  68.489 225.551 -0.34 -0.03    +0.233 C  
DOCKED: ATOM      6  O   UNL     1     139.192  67.389 226.113 -0.90 +0.00    -0.285 OA 
DOCKED: ATOM      7  C   UNL     1     140.074  69.599 226.296 -0.48 -0.01    +0.037 A  
DOCKED: ATOM      8  C   UNL     1     140.406  69.458 227.655 -0.61 -0.00    +0.013 A  
DOCKED: ATOM      9  C   UNL     1     140.999  70.516 228.347 -0.57 -0.00    +0.001 A  
DOCKED: ATOM     10  C   UNL     1     141.266  71.719 227.692 -0.77 -0.00    +0.001 A  
DOCKED: ATOM     11  C   UNL     1     140.941  71.872 226.342 -0.66 -0.00    +0.013 A  
DOCKED: ATOM     12  C   UNL     1     140.344  70.816 225.628 -0.54 -0.00    +0.028 A  
DOCKED: ENDROOT
DOCKED: BRANCH   1  13
DOCKED: ATOM     13  O   UNL     1     140.290  72.222 223.575 -0.27 +0.06    -0.496 OA 
DOCKED: ATOM     14  C   UNL     1     139.906  72.596 222.256 -0.20 -0.04    +0.278 C  
DOCKED: ENDBRANCH   1  13
DOCKED: TORSDOF 1
DOCKED: TER
DOCKED: ENDMDL
________________________________________________________________________________


    FINAL DOCKED STATE:
    ________________________


Run:   11 / 20
Time taken for this run:   0.015s

DOCKED: MODEL        11
DOCKED: USER    Run = 11
DOCKED: USER
DOCKED: USER    Estimated Free Energy of Binding    =  -6.22 kcal/mol  [=(1)+(2)+(3)-(4)]
DOCKED: USER
DOCKED: USER    (1) Final Intermolecular Energy     =  -6.52 kcal/mol
DOCKED: USER        vdW + Hbond + desolv Energy     =  -6.45 kcal/mol
DOCKED: USER        Electrostatic Energy            =  -0.07 kcal/mol
DOCKED: USER        Moving Ligand-Fixed Receptor    =  -6.52 kcal/mol
DOCKED: USER        Moving Ligand-Moving Receptor   =  +0.00 kcal/mol
DOCKED: USER    (2) Final Total Internal Energy     =  -0.06 kcal/mol
DOCKED: USER    (3) Torsional Free Energy           =  +0.30 kcal/mol
DOCKED: USER    (4) Unbound System's Energy         =  -0.06 kcal/mol
DOCKED: USER
DOCKED: USER
DOCKED: REMARK SMILES COC1=CC(=O)C(=O)c2ccccc21
DOCKED: REMARK SMILES IDX 3 1 4 2 5 3 6 4 7 5 8 6 9 7 10 8 11 9 12 10 13 11 14 12 2 13
DOCKED: REMARK SMILES IDX 1 14
DOCKED: REMARK H PARENT
DOCKED: USER                              x       y       z     vdW  Elec       q    Type
DOCKED: USER                           _______ _______ _______ _____ _____    ______ ____
DOCKED: ROOT
DOCKED: ATOM      1  C   UNL     1     140.008  71.001 224.174 -0.36 -0.02    +0.130 C  
DOCKED: ATOM      2  C   UNL     1     139.447  69.991 223.476 -0.23 -0.02    +0.103 C  
DOCKED: ATOM      3  C   UNL     1     139.142  68.698 224.108 -0.19 -0.03    +0.230 C  
DOCKED: ATOM      4  O   UNL     1     138.618  67.772 223.432 -0.31 +0.03    -0.285 OA 
DOCKED: ATOM      5  C   UNL     1     139.454  68.496 225.528 -0.33 -0.03    +0.233 C  
DOCKED: ATOM      6  O   UNL     1     139.200  67.393 226.083 -0.91 +0.00    -0.285 OA 
DOCKED: ATOM      7  C   UNL     1     140.068  69.607 226.282 -0.48 -0.01    +0.037 A  
DOCKED: ATOM      8  C   UNL     1     140.386  69.465 227.643 -0.61 -0.00    +0.013 A  
DOCKED: ATOM      9  C   UNL     1     140.967  70.525 228.345 -0.58 -0.00    +0.001 A  
DOCKED: ATOM     10  C   UNL     1     141.234  71.731 227.695 -0.78 -0.00    +0.001 A  
DOCKED: ATOM     11  C   UNL     1     140.923  71.885 226.342 -0.65 -0.00    +0.013 A  
DOCKED: ATOM     12  C   UNL     1     140.338  70.828 225.619 -0.54 -0.00    +0.028 A  
DOCKED: ENDROOT
DOCKED: BRANCH   1  13
DOCKED: ATOM     13  O   UNL     1     140.299  72.238 223.570 -0.27 +0.06    -0.496 OA 
DOCKED: ATOM     14  C   UNL     1     139.912  72.620 222.253 -0.20 -0.04    +0.278 C  
DOCKED: ENDBRANCH   1  13
DOCKED: TORSDOF 1
DOCKED: TER
DOCKED: ENDMDL
________________________________________________________________________________


    FINAL DOCKED STATE:
    ________________________


Run:   12 / 20
Time taken for this run:   0.015s

DOCKED: MODEL        12
DOCKED: USER    Run = 12
DOCKED: USER
DOCKED: USER    Estimated Free Energy of Binding    =  -6.21 kcal/mol  [=(1)+(2)+(3)-(4)]
DOCKED: USER
DOCKED: USER    (1) Final Intermolecular Energy     =  -6.51 kcal/mol
DOCKED: USER        vdW + Hbond + desolv Energy     =  -6.44 kcal/mol
DOCKED: USER        Electrostatic Energy            =  -0.07 kcal/mol
DOCKED: USER        Moving Ligand-Fixed Receptor    =  -6.51 kcal/mol
DOCKED: USER        Moving Ligand-Moving Receptor   =  +0.00 kcal/mol
DOCKED: USER    (2) Final Total Internal Energy     =  -0.06 kcal/mol
DOCKED: USER    (3) Torsional Free Energy           =  +0.30 kcal/mol
DOCKED: USER    (4) Unbound System's Energy         =  -0.06 kcal/mol
DOCKED: USER
DOCKED: USER
DOCKED: REMARK SMILES COC1=CC(=O)C(=O)c2ccccc21
DOCKED: REMARK SMILES IDX 3 1 4 2 5 3 6 4 7 5 8 6 9 7 10 8 11 9 12 10 13 11 14 12 2 13
DOCKED: REMARK SMILES IDX 1 14
DOCKED: REMARK H PARENT
DOCKED: USER                              x       y       z     vdW  Elec       q    Type
DOCKED: USER                           _______ _______ _______ _____ _____    ______ ____
DOCKED: ROOT
DOCKED: ATOM      1  C   UNL     1     140.003  70.992 224.174 -0.36 -0.02    +0.130 C  
DOCKED: ATOM      2  C   UNL     1     139.429  69.982 223.487 -0.23 -0.02    +0.103 C  
DOCKED: ATOM      3  C   UNL     1     139.126  68.693 224.127 -0.19 -0.03    +0.230 C  
DOCKED: ATOM      4  O   UNL     1     138.589  67.767 223.459 -0.32 +0.02    -0.285 OA 
DOCKED: ATOM      5  C   UNL     1     139.453  68.494 225.543 -0.34 -0.03    +0.233 C  
DOCKED: ATOM      6  O   UNL     1     139.199  67.394 226.105 -0.91 +0.00    -0.285 OA 
DOCKED: ATOM      7  C   UNL     1     140.081  69.605 226.286 -0.48 -0.01    +0.037 A  
DOCKED: ATOM      8  C   UNL     1     140.414  69.466 227.645 -0.61 -0.00    +0.013 A  
DOCKED: ATOM      9  C   UNL     1     141.007  70.525 228.335 -0.58 -0.00    +0.001 A  
DOCKED: ATOM     10  C   UNL     1     141.273  71.728 227.678 -0.77 -0.00    +0.001 A  
DOCKED: ATOM     11  C   UNL     1     140.947  71.879 226.329 -0.66 -0.00    +0.013 A  
DOCKED: ATOM     12  C   UNL     1     140.349  70.822 225.616 -0.54 -0.00    +0.028 A  
DOCKED: ENDROOT
DOCKED: BRANCH   1  13
DOCKED: ATOM     13  O   UNL     1     140.293  72.226 223.563 -0.27 +0.06    -0.496 OA 
DOCKED: ATOM     14  C   UNL     1     139.883  72.609 222.253 -0.20 -0.04    +0.278 C  
DOCKED: ENDBRANCH   1  13
DOCKED: TORSDOF 1
DOCKED: TER
DOCKED: ENDMDL
________________________________________________________________________________


    FINAL DOCKED STATE:
    ________________________


Run:   13 / 20
Time taken for this run:   0.015s

DOCKED: MODEL        13
DOCKED: USER    Run = 13
DOCKED: USER
DOCKED: USER    Estimated Free Energy of Binding    =  -6.20 kcal/mol  [=(1)+(2)+(3)-(4)]
DOCKED: USER
DOCKED: USER    (1) Final Intermolecular Energy     =  -6.50 kcal/mol
DOCKED: USER        vdW + Hbond + desolv Energy     =  -6.44 kcal/mol
DOCKED: USER        Electrostatic Energy            =  -0.06 kcal/mol
DOCKED: USER        Moving Ligand-Fixed Receptor    =  -6.50 kcal/mol
DOCKED: USER        Moving Ligand-Moving Receptor   =  +0.00 kcal/mol
DOCKED: USER    (2) Final Total Internal Energy     =  -0.06 kcal/mol
DOCKED: USER    (3) Torsional Free Energy           =  +0.30 kcal/mol
DOCKED: USER    (4) Unbound System's Energy         =  -0.06 kcal/mol
DOCKED: USER
DOCKED: USER
DOCKED: REMARK SMILES COC1=CC(=O)C(=O)c2ccccc21
DOCKED: REMARK SMILES IDX 3 1 4 2 5 3 6 4 7 5 8 6 9 7 10 8 11 9 12 10 13 11 14 12 2 13
DOCKED: REMARK SMILES IDX 1 14
DOCKED: REMARK H PARENT
DOCKED: USER                              x       y       z     vdW  Elec       q    Type
DOCKED: USER                           _______ _______ _______ _____ _____    ______ ____
DOCKED: ROOT
DOCKED: ATOM      1  C   UNL     1     139.987  70.993 224.192 -0.36 -0.02    +0.130 C  
DOCKED: ATOM      2  C   UNL     1     139.405  69.986 223.507 -0.23 -0.02    +0.103 C  
DOCKED: ATOM      3  C   UNL     1     139.105  68.696 224.147 -0.19 -0.03    +0.230 C  
DOCKED: ATOM      4  O   UNL     1     138.561  67.773 223.482 -0.32 +0.02    -0.285 OA 
DOCKED: ATOM      5  C   UNL     1     139.444  68.494 225.560 -0.34 -0.03    +0.233 C  
DOCKED: ATOM      6  O   UNL     1     139.193  67.393 226.122 -0.90 +0.00    -0.285 OA 
DOCKED: ATOM      7  C   UNL     1     140.080  69.602 226.300 -0.49 -0.01    +0.037 A  
DOCKED: ATOM      8  C   UNL     1     140.424  69.459 227.655 -0.61 -0.00    +0.013 A  
DOCKED: ATOM      9  C   UNL     1     141.026  70.516 228.343 -0.58 -0.00    +0.001 A  
DOCKED: ATOM     10  C   UNL     1     141.288  71.719 227.687 -0.77 -0.00    +0.001 A  
DOCKED: ATOM     11  C   UNL     1     140.950  71.874 226.341 -0.66 -0.00    +0.013 A  
DOCKED: ATOM     12  C   UNL     1     140.344  70.820 225.631 -0.54 -0.00    +0.028 A  
DOCKED: ENDROOT
DOCKED: BRANCH   1  13
DOCKED: ATOM     13  O   UNL     1     140.273  72.228 223.581 -0.27 +0.07    -0.496 OA 
DOCKED: ATOM     14  C   UNL     1     140.083  72.525 222.201 -0.20 -0.04    +0.278 C  
DOCKED: ENDBRANCH   1  13
DOCKED: TORSDOF 1
DOCKED: TER
DOCKED: ENDMDL
________________________________________________________________________________


    FINAL DOCKED STATE:
    ________________________


Run:   14 / 20
Time taken for this run:   0.015s

DOCKED: MODEL        14
DOCKED: USER    Run = 14
DOCKED: USER
DOCKED: USER    Estimated Free Energy of Binding    =  -6.21 kcal/mol  [=(1)+(2)+(3)-(4)]
DOCKED: USER
DOCKED: USER    (1) Final Intermolecular Energy     =  -6.51 kcal/mol
DOCKED: USER        vdW + Hbond + desolv Energy     =  -6.44 kcal/mol
DOCKED: USER        Electrostatic Energy            =  -0.07 kcal/mol
DOCKED: USER        Moving Ligand-Fixed Receptor    =  -6.51 kcal/mol
DOCKED: USER        Moving Ligand-Moving Receptor   =  +0.00 kcal/mol
DOCKED: USER    (2) Final Total Internal Energy     =  -0.06 kcal/mol
DOCKED: USER    (3) Torsional Free Energy           =  +0.30 kcal/mol
DOCKED: USER    (4) Unbound System's Energy         =  -0.06 kcal/mol
DOCKED: USER
DOCKED: USER
DOCKED: REMARK SMILES COC1=CC(=O)C(=O)c2ccccc21
DOCKED: REMARK SMILES IDX 3 1 4 2 5 3 6 4 7 5 8 6 9 7 10 8 11 9 12 10 13 11 14 12 2 13
DOCKED: REMARK SMILES IDX 1 14
DOCKED: REMARK H PARENT
DOCKED: USER                              x       y       z     vdW  Elec       q    Type
DOCKED: USER                           _______ _______ _______ _____ _____    ______ ____
DOCKED: ROOT
DOCKED: ATOM      1  C   UNL     1     139.986  70.998 224.171 -0.36 -0.02    +0.130 C  
DOCKED: ATOM      2  C   UNL     1     139.421  69.984 223.483 -0.23 -0.02    +0.103 C  
DOCKED: ATOM      3  C   UNL     1     139.120  68.694 224.123 -0.19 -0.03    +0.230 C  
DOCKED: ATOM      4  O   UNL     1     138.592  67.765 223.454 -0.32 +0.03    -0.285 OA 
DOCKED: ATOM      5  C   UNL     1     139.440  68.500 225.541 -0.34 -0.03    +0.233 C  
DOCKED: ATOM      6  O   UNL     1     139.189  67.400 226.104 -0.90 +0.00    -0.285 OA 
DOCKED: ATOM      7  C   UNL     1     140.058  69.615 226.286 -0.48 -0.01    +0.037 A  
DOCKED: ATOM      8  C   UNL     1     140.384  69.480 227.647 -0.61 -0.00    +0.013 A  
DOCKED: ATOM      9  C   UNL     1     140.968  70.544 228.339 -0.58 -0.00    +0.001 A  
DOCKED: ATOM     10  C   UNL     1     141.231  71.746 227.682 -0.79 -0.00    +0.001 A  
DOCKED: ATOM     11  C   UNL     1     140.912  71.893 226.330 -0.65 -0.00    +0.013 A  
DOCKED: ATOM     12  C   UNL     1     140.324  70.833 225.616 -0.54 -0.00    +0.028 A  
DOCKED: ENDROOT
DOCKED: BRANCH   1  13
DOCKED: ATOM     13  O   UNL     1     140.273  72.232 223.559 -0.27 +0.07    -0.496 OA 
DOCKED: ATOM     14  C   UNL     1     139.921  72.589 222.226 -0.20 -0.04    +0.278 C  
DOCKED: ENDBRANCH   1  13
DOCKED: TORSDOF 1
DOCKED: TER
DOCKED: ENDMDL
________________________________________________________________________________


    FINAL DOCKED STATE:
    ________________________


Run:   15 / 20
Time taken for this run:   0.015s

DOCKED: MODEL        15
DOCKED: USER    Run = 15
DOCKED: USER
DOCKED: USER    Estimated Free Energy of Binding    =  -6.21 kcal/mol  [=(1)+(2)+(3)-(4)]
DOCKED: USER
DOCKED: USER    (1) Final Intermolecular Energy     =  -6.51 kcal/mol
DOCKED: USER        vdW + Hbond + desolv Energy     =  -6.44 kcal/mol
DOCKED: USER        Electrostatic Energy            =  -0.07 kcal/mol
DOCKED: USER        Moving Ligand-Fixed Receptor    =  -6.51 kcal/mol
DOCKED: USER        Moving Ligand-Moving Receptor   =  +0.00 kcal/mol
DOCKED: USER    (2) Final Total Internal Energy     =  -0.06 kcal/mol
DOCKED: USER    (3) Torsional Free Energy           =  +0.30 kcal/mol
DOCKED: USER    (4) Unbound System's Energy         =  -0.06 kcal/mol
DOCKED: USER
DOCKED: USER
DOCKED: REMARK SMILES COC1=CC(=O)C(=O)c2ccccc21
DOCKED: REMARK SMILES IDX 3 1 4 2 5 3 6 4 7 5 8 6 9 7 10 8 11 9 12 10 13 11 14 12 2 13
DOCKED: REMARK SMILES IDX 1 14
DOCKED: REMARK H PARENT
DOCKED: USER                              x       y       z     vdW  Elec       q    Type
DOCKED: USER                           _______ _______ _______ _____ _____    ______ ____
DOCKED: ROOT
DOCKED: ATOM      1  C   UNL     1     139.995  70.999 224.171 -0.36 -0.02    +0.130 C  
DOCKED: ATOM      2  C   UNL     1     139.437  69.983 223.480 -0.23 -0.02    +0.103 C  
DOCKED: ATOM      3  C   UNL     1     139.137  68.692 224.120 -0.19 -0.03    +0.230 C  
DOCKED: ATOM      4  O   UNL     1     138.615  67.761 223.449 -0.32 +0.03    -0.285 OA 
DOCKED: ATOM      5  C   UNL     1     139.450  68.501 225.540 -0.34 -0.03    +0.233 C  
DOCKED: ATOM      6  O   UNL     1     139.200  67.400 226.103 -0.90 +0.00    -0.285 OA 
DOCKED: ATOM      7  C   UNL     1     140.061  69.618 226.287 -0.48 -0.01    +0.037 A  
DOCKED: ATOM      8  C   UNL     1     140.381  69.485 227.650 -0.61 -0.00    +0.013 A  
DOCKED: ATOM      9  C   UNL     1     140.958  70.551 228.344 -0.58 -0.00    +0.001 A  
DOCKED: ATOM     10  C   UNL     1     141.220  71.754 227.687 -0.79 -0.00    +0.001 A  
DOCKED: ATOM     11  C   UNL     1     140.907  71.899 226.334 -0.64 -0.00    +0.013 A  
DOCKED: ATOM     12  C   UNL     1     140.326  70.836 225.617 -0.54 -0.00    +0.028 A  
DOCKED: ENDROOT
DOCKED: BRANCH   1  13
DOCKED: ATOM     13  O   UNL     1     140.280  72.234 223.560 -0.27 +0.06    -0.496 OA 
DOCKED: ATOM     14  C   UNL     1     139.888  72.608 222.243 -0.20 -0.04    +0.278 C  
DOCKED: ENDBRANCH   1  13
DOCKED: TORSDOF 1
DOCKED: TER
DOCKED: ENDMDL
________________________________________________________________________________


    FINAL DOCKED STATE:
    ________________________


Run:   16 / 20
Time taken for this run:   0.015s

DOCKED: MODEL        16
DOCKED: USER    Run = 16
DOCKED: USER
DOCKED: USER    Estimated Free Energy of Binding    =  -6.21 kcal/mol  [=(1)+(2)+(3)-(4)]
DOCKED: USER
DOCKED: USER    (1) Final Intermolecular Energy     =  -6.51 kcal/mol
DOCKED: USER        vdW + Hbond + desolv Energy     =  -6.44 kcal/mol
DOCKED: USER        Electrostatic Energy            =  -0.07 kcal/mol
DOCKED: USER        Moving Ligand-Fixed Receptor    =  -6.51 kcal/mol
DOCKED: USER        Moving Ligand-Moving Receptor   =  +0.00 kcal/mol
DOCKED: USER    (2) Final Total Internal Energy     =  -0.06 kcal/mol
DOCKED: USER    (3) Torsional Free Energy           =  +0.30 kcal/mol
DOCKED: USER    (4) Unbound System's Energy         =  -0.06 kcal/mol
DOCKED: USER
DOCKED: USER
DOCKED: REMARK SMILES COC1=CC(=O)C(=O)c2ccccc21
DOCKED: REMARK SMILES IDX 3 1 4 2 5 3 6 4 7 5 8 6 9 7 10 8 11 9 12 10 13 11 14 12 2 13
DOCKED: REMARK SMILES IDX 1 14
DOCKED: REMARK H PARENT
DOCKED: USER                              x       y       z     vdW  Elec       q    Type
DOCKED: USER                           _______ _______ _______ _____ _____    ______ ____
DOCKED: ROOT
DOCKED: ATOM      1  C   UNL     1     140.001  70.995 224.186 -0.36 -0.02    +0.130 C  
DOCKED: ATOM      2  C   UNL     1     139.426  69.987 223.496 -0.23 -0.02    +0.103 C  
DOCKED: ATOM      3  C   UNL     1     139.121  68.697 224.133 -0.19 -0.03    +0.230 C  
DOCKED: ATOM      4  O   UNL     1     138.583  67.774 223.464 -0.32 +0.02    -0.285 OA 
DOCKED: ATOM      5  C   UNL     1     139.446  68.496 225.550 -0.34 -0.03    +0.233 C  
DOCKED: ATOM      6  O   UNL     1     139.191  67.395 226.110 -0.90 +0.00    -0.285 OA 
DOCKED: ATOM      7  C   UNL     1     140.075  69.604 226.295 -0.48 -0.01    +0.037 A  
DOCKED: ATOM      8  C   UNL     1     140.407  69.462 227.654 -0.61 -0.00    +0.013 A  
DOCKED: ATOM      9  C   UNL     1     141.001  70.520 228.347 -0.57 -0.00    +0.001 A  
DOCKED: ATOM     10  C   UNL     1     141.269  71.723 227.692 -0.77 -0.00    +0.001 A  
DOCKED: ATOM     11  C   UNL     1     140.944  71.877 226.343 -0.66 -0.00    +0.013 A  
DOCKED: ATOM     12  C   UNL     1     140.345  70.823 225.628 -0.54 -0.00    +0.028 A  
DOCKED: ENDROOT
DOCKED: BRANCH   1  13
DOCKED: ATOM     13  O   UNL     1     140.292  72.230 223.577 -0.27 +0.06    -0.496 OA 
DOCKED: ATOM     14  C   UNL     1     139.899  72.610 222.262 -0.20 -0.04    +0.278 C  
DOCKED: ENDBRANCH   1  13
DOCKED: TORSDOF 1
DOCKED: TER
DOCKED: ENDMDL
________________________________________________________________________________


    FINAL DOCKED STATE:
    ________________________


Run:   17 / 20
Time taken for this run:   0.015s

DOCKED: MODEL        17
DOCKED: USER    Run = 17
DOCKED: USER
DOCKED: USER    Estimated Free Energy of Binding    =  -6.21 kcal/mol  [=(1)+(2)+(3)-(4)]
DOCKED: USER
DOCKED: USER    (1) Final Intermolecular Energy     =  -6.51 kcal/mol
DOCKED: USER        vdW + Hbond + desolv Energy     =  -6.44 kcal/mol
DOCKED: USER        Electrostatic Energy            =  -0.07 kcal/mol
DOCKED: USER        Moving Ligand-Fixed Receptor    =  -6.51 kcal/mol
DOCKED: USER        Moving Ligand-Moving Receptor   =  +0.00 kcal/mol
DOCKED: USER    (2) Final Total Internal Energy     =  -0.06 kcal/mol
DOCKED: USER    (3) Torsional Free Energy           =  +0.30 kcal/mol
DOCKED: USER    (4) Unbound System's Energy         =  -0.06 kcal/mol
DOCKED: USER
DOCKED: USER
DOCKED: REMARK SMILES COC1=CC(=O)C(=O)c2ccccc21
DOCKED: REMARK SMILES IDX 3 1 4 2 5 3 6 4 7 5 8 6 9 7 10 8 11 9 12 10 13 11 14 12 2 13
DOCKED: REMARK SMILES IDX 1 14
DOCKED: REMARK H PARENT
DOCKED: USER                              x       y       z     vdW  Elec       q    Type
DOCKED: USER                           _______ _______ _______ _____ _____    ______ ____
DOCKED: ROOT
DOCKED: ATOM      1  C   UNL     1     140.010  70.998 224.179 -0.36 -0.02    +0.130 C  
DOCKED: ATOM      2  C   UNL     1     139.437  69.988 223.491 -0.23 -0.02    +0.103 C  
DOCKED: ATOM      3  C   UNL     1     139.131  68.700 224.131 -0.19 -0.03    +0.230 C  
DOCKED: ATOM      4  O   UNL     1     138.595  67.774 223.463 -0.32 +0.03    -0.285 OA 
DOCKED: ATOM      5  C   UNL     1     139.454  68.502 225.548 -0.34 -0.03    +0.233 C  
DOCKED: ATOM      6  O   UNL     1     139.199  67.403 226.111 -0.90 +0.00    -0.285 OA 
DOCKED: ATOM      7  C   UNL     1     140.081  69.613 226.292 -0.48 -0.01    +0.037 A  
DOCKED: ATOM      8  C   UNL     1     140.411  69.475 227.652 -0.61 -0.00    +0.013 A  
DOCKED: ATOM      9  C   UNL     1     141.003  70.534 228.343 -0.58 -0.00    +0.001 A  
DOCKED: ATOM     10  C   UNL     1     141.271  71.736 227.686 -0.77 -0.00    +0.001 A  
DOCKED: ATOM     11  C   UNL     1     140.949  71.886 226.336 -0.66 -0.00    +0.013 A  
DOCKED: ATOM     12  C   UNL     1     140.352  70.830 225.622 -0.54 -0.00    +0.028 A  
DOCKED: ENDROOT
DOCKED: BRANCH   1  13
DOCKED: ATOM     13  O   UNL     1     140.302  72.232 223.567 -0.27 +0.06    -0.496 OA 
DOCKED: ATOM     14  C   UNL     1     139.908  72.609 222.251 -0.20 -0.04    +0.278 C  
DOCKED: ENDBRANCH   1  13
DOCKED: TORSDOF 1
DOCKED: TER
DOCKED: ENDMDL
________________________________________________________________________________


    FINAL DOCKED STATE:
    ________________________


Run:   18 / 20
Time taken for this run:   0.015s

DOCKED: MODEL        18
DOCKED: USER    Run = 18
DOCKED: USER
DOCKED: USER    Estimated Free Energy of Binding    =  -6.21 kcal/mol  [=(1)+(2)+(3)-(4)]
DOCKED: USER
DOCKED: USER    (1) Final Intermolecular Energy     =  -6.50 kcal/mol
DOCKED: USER        vdW + Hbond + desolv Energy     =  -6.44 kcal/mol
DOCKED: USER        Electrostatic Energy            =  -0.06 kcal/mol
DOCKED: USER        Moving Ligand-Fixed Receptor    =  -6.50 kcal/mol
DOCKED: USER        Moving Ligand-Moving Receptor   =  +0.00 kcal/mol
DOCKED: USER    (2) Final Total Internal Energy     =  -0.06 kcal/mol
DOCKED: USER    (3) Torsional Free Energy           =  +0.30 kcal/mol
DOCKED: USER    (4) Unbound System's Energy         =  -0.06 kcal/mol
DOCKED: USER
DOCKED: USER
DOCKED: REMARK SMILES COC1=CC(=O)C(=O)c2ccccc21
DOCKED: REMARK SMILES IDX 3 1 4 2 5 3 6 4 7 5 8 6 9 7 10 8 11 9 12 10 13 11 14 12 2 13
DOCKED: REMARK SMILES IDX 1 14
DOCKED: REMARK H PARENT
DOCKED: USER                              x       y       z     vdW  Elec       q    Type
DOCKED: USER                           _______ _______ _______ _____ _____    ______ ____
DOCKED: ROOT
DOCKED: ATOM      1  C   UNL     1     140.002  71.005 224.183 -0.36 -0.02    +0.130 C  
DOCKED: ATOM      2  C   UNL     1     139.425  69.998 223.494 -0.23 -0.02    +0.103 C  
DOCKED: ATOM      3  C   UNL     1     139.122  68.707 224.130 -0.19 -0.03    +0.230 C  
DOCKED: ATOM      4  O   UNL     1     138.583  67.785 223.461 -0.31 +0.03    -0.285 OA 
DOCKED: ATOM      5  C   UNL     1     139.453  68.504 225.545 -0.34 -0.03    +0.233 C  
DOCKED: ATOM      6  O   UNL     1     139.200  67.403 226.105 -0.90 +0.00    -0.285 OA 
DOCKED: ATOM      7  C   UNL     1     140.084  69.612 226.290 -0.48 -0.01    +0.037 A  
DOCKED: ATOM      8  C   UNL     1     140.420  69.468 227.647 -0.61 -0.00    +0.013 A  
DOCKED: ATOM      9  C   UNL     1     141.017  70.525 228.340 -0.58 -0.00    +0.001 A  
DOCKED: ATOM     10  C   UNL     1     141.282  71.729 227.686 -0.77 -0.00    +0.001 A  
DOCKED: ATOM     11  C   UNL     1     140.952  71.884 226.338 -0.66 -0.00    +0.013 A  
DOCKED: ATOM     12  C   UNL     1     140.351  70.831 225.623 -0.54 -0.00    +0.028 A  
DOCKED: ENDROOT
DOCKED: BRANCH   1  13
DOCKED: ATOM     13  O   UNL     1     140.291  72.241 223.575 -0.27 +0.06    -0.496 OA 
DOCKED: ATOM     14  C   UNL     1     140.210  72.507 222.178 -0.20 -0.03    +0.278 C  
DOCKED: ENDBRANCH   1  13
DOCKED: TORSDOF 1
DOCKED: TER
DOCKED: ENDMDL
________________________________________________________________________________


    FINAL DOCKED STATE:
    ________________________


Run:   19 / 20
Time taken for this run:   0.015s

DOCKED: MODEL        19
DOCKED: USER    Run = 19
DOCKED: USER
DOCKED: USER    Estimated Free Energy of Binding    =  -6.21 kcal/mol  [=(1)+(2)+(3)-(4)]
DOCKED: USER
DOCKED: USER    (1) Final Intermolecular Energy     =  -6.51 kcal/mol
DOCKED: USER        vdW + Hbond + desolv Energy     =  -6.44 kcal/mol
DOCKED: USER        Electrostatic Energy            =  -0.06 kcal/mol
DOCKED: USER        Moving Ligand-Fixed Receptor    =  -6.51 kcal/mol
DOCKED: USER        Moving Ligand-Moving Receptor   =  +0.00 kcal/mol
DOCKED: USER    (2) Final Total Internal Energy     =  -0.06 kcal/mol
DOCKED: USER    (3) Torsional Free Energy           =  +0.30 kcal/mol
DOCKED: USER    (4) Unbound System's Energy         =  -0.06 kcal/mol
DOCKED: USER
DOCKED: USER
DOCKED: REMARK SMILES COC1=CC(=O)C(=O)c2ccccc21
DOCKED: REMARK SMILES IDX 3 1 4 2 5 3 6 4 7 5 8 6 9 7 10 8 11 9 12 10 13 11 14 12 2 13
DOCKED: REMARK SMILES IDX 1 14
DOCKED: REMARK H PARENT
DOCKED: USER                              x       y       z     vdW  Elec       q    Type
DOCKED: USER                           _______ _______ _______ _____ _____    ______ ____
DOCKED: ROOT
DOCKED: ATOM      1  C   UNL     1     139.964  71.007 224.196 -0.36 -0.02    +0.130 C  
DOCKED: ATOM      2  C   UNL     1     139.391  69.998 223.508 -0.23 -0.02    +0.103 C  
DOCKED: ATOM      3  C   UNL     1     139.099  68.704 224.143 -0.20 -0.03    +0.230 C  
DOCKED: ATOM      4  O   UNL     1     138.563  67.779 223.475 -0.32 +0.02    -0.285 OA 
DOCKED: ATOM      5  C   UNL     1     139.438  68.500 225.556 -0.34 -0.03    +0.233 C  
DOCKED: ATOM      6  O   UNL     1     139.195  67.396 226.115 -0.90 +0.00    -0.285 OA 
DOCKED: ATOM      7  C   UNL     1     140.065  69.611 226.300 -0.48 -0.01    +0.037 A  
DOCKED: ATOM      8  C   UNL     1     140.408  69.467 227.656 -0.61 -0.00    +0.013 A  
DOCKED: ATOM      9  C   UNL     1     141.000  70.527 228.347 -0.57 -0.00    +0.001 A  
DOCKED: ATOM     10  C   UNL     1     141.254  71.734 227.694 -0.78 -0.00    +0.001 A  
DOCKED: ATOM     11  C   UNL     1     140.918  71.889 226.348 -0.65 -0.00    +0.013 A  
DOCKED: ATOM     12  C   UNL     1     140.321  70.833 225.635 -0.54 -0.00    +0.028 A  
DOCKED: ENDROOT
DOCKED: BRANCH   1  13
DOCKED: ATOM     13  O   UNL     1     140.242  72.246 223.588 -0.27 +0.07    -0.496 OA 
DOCKED: ATOM     14  C   UNL     1     139.901  72.600 222.251 -0.20 -0.04    +0.278 C  
DOCKED: ENDBRANCH   1  13
DOCKED: TORSDOF 1
DOCKED: TER
DOCKED: ENDMDL
________________________________________________________________________________


    FINAL DOCKED STATE:
    ________________________


Run:   20 / 20
Time taken for this run:   0.015s

DOCKED: MODEL        20
DOCKED: USER    Run = 20
DOCKED: USER
DOCKED: USER    Estimated Free Energy of Binding    =  -6.21 kcal/mol  [=(1)+(2)+(3)-(4)]
DOCKED: USER
DOCKED: USER    (1) Final Intermolecular Energy     =  -6.51 kcal/mol
DOCKED: USER        vdW + Hbond + desolv Energy     =  -6.44 kcal/mol
DOCKED: USER        Electrostatic Energy            =  -0.07 kcal/mol
DOCKED: USER        Moving Ligand-Fixed Receptor    =  -6.51 kcal/mol
DOCKED: USER        Moving Ligand-Moving Receptor   =  +0.00 kcal/mol
DOCKED: USER    (2) Final Total Internal Energy     =  -0.06 kcal/mol
DOCKED: USER    (3) Torsional Free Energy           =  +0.30 kcal/mol
DOCKED: USER    (4) Unbound System's Energy         =  -0.06 kcal/mol
DOCKED: USER
DOCKED: USER
DOCKED: REMARK SMILES COC1=CC(=O)C(=O)c2ccccc21
DOCKED: REMARK SMILES IDX 3 1 4 2 5 3 6 4 7 5 8 6 9 7 10 8 11 9 12 10 13 11 14 12 2 13
DOCKED: REMARK SMILES IDX 1 14
DOCKED: REMARK H PARENT
DOCKED: USER                              x       y       z     vdW  Elec       q    Type
DOCKED: USER                           _______ _______ _______ _____ _____    ______ ____
DOCKED: ROOT
DOCKED: ATOM      1  C   UNL     1     140.007  71.005 224.185 -0.36 -0.02    +0.130 C  
DOCKED: ATOM      2  C   UNL     1     139.431  69.997 223.496 -0.23 -0.02    +0.103 C  
DOCKED: ATOM      3  C   UNL     1     139.125  68.708 224.134 -0.19 -0.03    +0.230 C  
DOCKED: ATOM      4  O   UNL     1     138.586  67.785 223.465 -0.32 +0.03    -0.285 OA 
DOCKED: ATOM      5  C   UNL     1     139.451  68.507 225.550 -0.34 -0.03    +0.233 C  
DOCKED: ATOM      6  O   UNL     1     139.195  67.407 226.111 -0.90 +0.00    -0.285 OA 
DOCKED: ATOM      7  C   UNL     1     140.081  69.615 226.295 -0.48 -0.01    +0.037 A  
DOCKED: ATOM      8  C   UNL     1     140.413  69.474 227.654 -0.61 -0.00    +0.013 A  
DOCKED: ATOM      9  C   UNL     1     141.008  70.530 228.346 -0.57 -0.00    +0.001 A  
DOCKED: ATOM     10  C   UNL     1     141.277  71.733 227.691 -0.77 -0.00    +0.001 A  
DOCKED: ATOM     11  C   UNL     1     140.952  71.887 226.342 -0.66 -0.00    +0.013 A  
DOCKED: ATOM     12  C   UNL     1     140.352  70.833 225.627 -0.54 -0.00    +0.028 A  
DOCKED: ENDROOT
DOCKED: BRANCH   1  13
DOCKED: ATOM     13  O   UNL     1     140.300  72.239 223.575 -0.27 +0.06    -0.496 OA 
DOCKED: ATOM     14  C   UNL     1     139.901  72.621 222.263 -0.20 -0.04    +0.278 C  
DOCKED: ENDBRANCH   1  13
DOCKED: TORSDOF 1
DOCKED: TER
DOCKED: ENDMDL
________________________________________________________________________________


    CLUSTERING HISTOGRAM
    ____________________


________________________________________________________________________________
     |           |     |           |     |
Clus | Lowest    | Run | Mean      | Num | Histogram
-ter | Binding   |     | Binding   | in  |
Rank | Energy    |     | Energy    | Clus|    5    10   15   20   25   30   35
_____|___________|_____|___________|_____|____:____|____:____|____:____|____:___
   1 |     -6.22 |  11 |     -6.21 |  20 |####################
_____|___________|_____|___________|_____|______________________________________


    RMSD TABLE
    __________


_______________________________________________________________________
     |      |      |           |         |                 |
Rank | Sub- | Run  | Binding   | Cluster | Reference       | Grep
     | Rank |      | Energy    | RMSD    | RMSD            | Pattern
_____|______|______|___________|_________|_________________|___________
   1      1     11       -6.22      0.00    271.25           RANKING
   1      2      6       -6.21      0.02    271.27           RANKING
   1      3     17       -6.21      0.03    271.27           RANKING
   1      4      2       -6.21      0.02    271.25           RANKING
   1      5      3       -6.21      0.03    271.27           RANKING
   1      6     12       -6.21      0.03    271.26           RANKING
   1      7     15       -6.21      0.02    271.25           RANKING
   1      8      5       -6.21      0.03    271.26           RANKING
   1      9     14       -6.21      0.02    271.25           RANKING
   1     10      4       -6.21      0.03    271.26           RANKING
   1     11      1       -6.21      0.03    271.26           RANKING
   1     12      9       -6.21      0.04    271.27           RANKING
   1     13     16       -6.21      0.03    271.26           RANKING
   1     14     19       -6.21      0.04    271.26           RANKING
   1     15     20       -6.21      0.03    271.27           RANKING
   1     16     10       -6.21      0.03    271.26           RANKING
   1     17      7       -6.21      0.05    271.26           RANKING
   1     18      8       -6.21      0.06    271.26           RANKING
   1     19     18       -6.21      0.09    271.27           RANKING
   1     20     13       -6.20      0.07    271.27           RANKING

Run time 0.255 sec
Idle time 0.000 sec
