AutoDock-GPU version: v1.6

**********************************************************
**    AutoDock-GPU AUTODOCKTOOLS-COMPATIBLE DLG FILE    **
**********************************************************


    DOCKING PARAMETERS
    ________________________


Ligand file:                               /home/a/REINVENT4/ReinventStudies/pleaseWork/justRnve/graph-dock-t2iv78/graph-DockGPU/node-autodockgpu/inputs/HWLDPPPPOIDHJG-FQEVSTJZNA-N.pdbqt
Grid fld file:                             /home/a/REINVENT4/ReinventStudies/mols/Rad51/maps/rad51_receptor.maps.fld

Random seed:                               42
Number of runs:                            20
Number of energy evaluations:              2542121
Number of generations:                     42000
Size of population:                        150
Rate of crossover:                         80.000000%
Tournament selection probability limit:    60.000000%
Rate of mutation:                          2.000000%
Maximal allowed delta movement:            +/- 6.000000A
Maximal allowed delta angle:               +/- 90.000000

Rate of local search:                      100.000000%
Maximal number of local search iterations: 300
Rho lower bound:                           0.010000
Spread of local search delta movement:     2.000000A
Spread of local search delta angle:        74.999999
Limit of consecutive successes/failures:   4

Handle symmetry during clustering:         YES
RMSD tolerance:                            2.000000A

Program call in command line was:          /home/a/REINVENT4/ReinventStudies/adgpu-v1.6_linux_x64_cuda12_128wi --filelist batch.txt --heuristics 1 --nrun 20 --psize 150 --lsit 300 --seed 42 --heurmax 12000000 


    GRID PARAMETERS
    ________________________


Receptor name:                             rad51_receptor
Number of grid points (x, y, z):           53, 53, 53
Grid center (x, y, z):                     139.950000, 75.640000, 221.970000A
Grid size (x, y, z):                       19.500000, 19.500000, 19.500000A
Grid spacing:                              0.375000A


    LIGAND PARAMETERS
    ________________________


Ligand name:                               /home/a/REINVENT4/ReinventStudies/pleaseWork/justRnve/graph-dock-t2iv78/graph-DockGPU/node-autodockgpu/inputs/HWLDPPPPOIDHJG-FQEVSTJZNA-N
Number of atoms:                           30
Number of rotatable bonds:                 10
Number of atom types:                      5


    DUMMY DATA (only for ADT-compatibility)
    ________________________


DPF> outlev 1
DPF> ga_run 20
DPF> fld /home/a/REINVENT4/ReinventStudies/mols/Rad51/maps/rad51_receptor.maps.fld
DPF> move /home/a/REINVENT4/ReinventStudies/pleaseWork/justRnve/graph-dock-t2iv78/graph-DockGPU/node-autodockgpu/inputs/HWLDPPPPOIDHJG-FQEVSTJZNA-N.pdbqt


    COUNTER STATES
    ________________________


Number of energy evaluations performed:    813321
Number of generations used:                50


    INPUT LIGAND PDBQT FILE:
    ________________________


INPUT-LIGAND-PDBQT: REMARK SMILES CCCCc1cc([C@@H](C)c2ccc(-c3cccc(CNCC(C)C)c3)cc2)on1
INPUT-LIGAND-PDBQT: REMARK SMILES IDX 10 1 11 2 12 3 13 4 26 5 27 6 8 7 9 8 7 9 5 10 6 11 29 12
INPUT-LIGAND-PDBQT: REMARK SMILES IDX 28 13 4 14 3 15 2 16 1 17 14 18 15 19 25 20 16 21 18 22
INPUT-LIGAND-PDBQT: REMARK SMILES IDX 17 23 19 24 20 25 21 27 22 28 23 29 24 30
INPUT-LIGAND-PDBQT: REMARK H PARENT 20 26
INPUT-LIGAND-PDBQT: ROOT
INPUT-LIGAND-PDBQT: ATOM      1  C   UNL     1      -1.658   0.501  -0.659  1.00  0.00    -0.037 A 
INPUT-LIGAND-PDBQT: ATOM      2  C   UNL     1      -0.970  -0.719  -0.796  1.00  0.00     0.005 A 
INPUT-LIGAND-PDBQT: ATOM      3  C   UNL     1       0.063  -1.055   0.083  1.00  0.00     0.009 A 
INPUT-LIGAND-PDBQT: ATOM      4  C   UNL     1       0.438  -0.176   1.114  1.00  0.00    -0.018 A 
INPUT-LIGAND-PDBQT: ATOM      5  C   UNL     1      -0.244   1.046   1.246  1.00  0.00     0.009 A 
INPUT-LIGAND-PDBQT: ATOM      6  C   UNL     1      -1.278   1.381   0.368  1.00  0.00     0.005 A 
INPUT-LIGAND-PDBQT: ENDROOT
INPUT-LIGAND-PDBQT: BRANCH   1   7
INPUT-LIGAND-PDBQT: ATOM      7  C   UNL     1      -2.768   0.886  -1.616  1.00  0.00     0.085 C 
INPUT-LIGAND-PDBQT: ATOM      8  C   UNL     1      -3.899  -0.148  -1.621  1.00  0.00     0.021 C 
INPUT-LIGAND-PDBQT: BRANCH   7   9
INPUT-LIGAND-PDBQT: ATOM      9  C   UNL     1      -2.217   1.085  -3.000  1.00  0.00     0.144 A 
INPUT-LIGAND-PDBQT: ATOM     10  C   UNL     1      -1.476   1.935  -4.847  1.00  0.00     0.084 A 
INPUT-LIGAND-PDBQT: ATOM     11  C   UNL     1      -2.020   2.295  -3.632  1.00  0.00     0.073 A 
INPUT-LIGAND-PDBQT: ATOM     12  N   UNL     1      -1.355   0.595  -4.916  1.00  0.00    -0.085 NA
INPUT-LIGAND-PDBQT: ATOM     13  O   UNL     1      -1.810   0.120  -3.793  1.00  0.00    -0.361 OA
INPUT-LIGAND-PDBQT: BRANCH  10  14
INPUT-LIGAND-PDBQT: ATOM     14  C   UNL     1      -1.024   2.875  -5.923  1.00  0.00     0.060 C 
INPUT-LIGAND-PDBQT: BRANCH  14  15
INPUT-LIGAND-PDBQT: ATOM     15  C   UNL     1       0.247   3.641  -5.524  1.00  0.00     0.006 C 
INPUT-LIGAND-PDBQT: BRANCH  15  16
INPUT-LIGAND-PDBQT: ATOM     16  C   UNL     1       1.473   2.742  -5.286  1.00  0.00    -0.003 C 
INPUT-LIGAND-PDBQT: ATOM     17  C   UNL     1       1.982   2.085  -6.568  1.00  0.00     0.004 C 
INPUT-LIGAND-PDBQT: ENDBRANCH  15  16
INPUT-LIGAND-PDBQT: ENDBRANCH  14  15
INPUT-LIGAND-PDBQT: ENDBRANCH  10  14
INPUT-LIGAND-PDBQT: ENDBRANCH   7   9
INPUT-LIGAND-PDBQT: ENDBRANCH   1   7
INPUT-LIGAND-PDBQT: BRANCH   4  18
INPUT-LIGAND-PDBQT: ATOM     18  C   UNL     1       1.539  -0.533   2.046  1.00  0.00    -0.018 A 
INPUT-LIGAND-PDBQT: ATOM     19  C   UNL     1       2.697  -1.176   1.572  1.00  0.00     0.009 A 
INPUT-LIGAND-PDBQT: ATOM     20  C   UNL     1       1.438  -0.239   3.419  1.00  0.00     0.013 A 
INPUT-LIGAND-PDBQT: ATOM     21  C   UNL     1       3.726  -1.521   2.451  1.00  0.00     0.001 A 
INPUT-LIGAND-PDBQT: ATOM     22  C   UNL     1       2.470  -0.587   4.305  1.00  0.00    -0.034 A 
INPUT-LIGAND-PDBQT: ATOM     23  C   UNL     1       3.614  -1.233   3.812  1.00  0.00     0.005 A 
INPUT-LIGAND-PDBQT: BRANCH  22  24
INPUT-LIGAND-PDBQT: ATOM     24  C   UNL     1       2.327  -0.304   5.776  1.00  0.00     0.116 C 
INPUT-LIGAND-PDBQT: BRANCH  24  25
INPUT-LIGAND-PDBQT: ATOM     25  N   UNL     1       1.240  -1.101   6.364  1.00  0.00    -0.312 NA
INPUT-LIGAND-PDBQT: ATOM     26  H   UNL     1       1.065  -0.719   7.322  1.00  0.00     0.123 HD
INPUT-LIGAND-PDBQT: BRANCH  25  27
INPUT-LIGAND-PDBQT: ATOM     27  C   UNL     1       1.586  -2.529   6.499  1.00  0.00     0.084 C 
INPUT-LIGAND-PDBQT: BRANCH  27  28
INPUT-LIGAND-PDBQT: ATOM     28  C   UNL     1       0.901  -3.369   5.402  1.00  0.00    -0.004 C 
INPUT-LIGAND-PDBQT: ATOM     29  C   UNL     1      -0.627  -3.228   5.461  1.00  0.00     0.009 C 
INPUT-LIGAND-PDBQT: ATOM     30  C   UNL     1       1.302  -4.843   5.532  1.00  0.00     0.009 C 
INPUT-LIGAND-PDBQT: ENDBRANCH  27  28
INPUT-LIGAND-PDBQT: ENDBRANCH  25  27
INPUT-LIGAND-PDBQT: ENDBRANCH  24  25
INPUT-LIGAND-PDBQT: ENDBRANCH  22  24
INPUT-LIGAND-PDBQT: ENDBRANCH   4  18
INPUT-LIGAND-PDBQT: TORSDOF 10


    FINAL DOCKED STATE:
    ________________________


Run:   1 / 20
Time taken for this run:   0.037s

DOCKED: MODEL        1
DOCKED: USER    Run = 1
DOCKED: USER
DOCKED: USER    Estimated Free Energy of Binding    =  -7.98 kcal/mol  [=(1)+(2)+(3)-(4)]
DOCKED: USER
DOCKED: USER    (1) Final Intermolecular Energy     = -10.97 kcal/mol
DOCKED: USER        vdW + Hbond + desolv Energy     = -10.89 kcal/mol
DOCKED: USER        Electrostatic Energy            =  -0.08 kcal/mol
DOCKED: USER        Moving Ligand-Fixed Receptor    = -10.97 kcal/mol
DOCKED: USER        Moving Ligand-Moving Receptor   =  +0.00 kcal/mol
DOCKED: USER    (2) Final Total Internal Energy     =  -1.53 kcal/mol
DOCKED: USER    (3) Torsional Free Energy           =  +2.98 kcal/mol
DOCKED: USER    (4) Unbound System's Energy         =  -1.53 kcal/mol
DOCKED: USER
DOCKED: USER
DOCKED: REMARK SMILES CCCCc1cc([C@@H](C)c2ccc(-c3cccc(CNCC(C)C)c3)cc2)on1
DOCKED: REMARK SMILES IDX 10 1 11 2 12 3 13 4 26 5 27 6 8 7 9 8 7 9 5 10 6 11 29 12
DOCKED: REMARK SMILES IDX 28 13 4 14 3 15 2 16 1 17 14 18 15 19 25 20 16 21 18 22
DOCKED: REMARK SMILES IDX 17 23 19 24 20 25 21 27 22 28 23 29 24 30
DOCKED: REMARK H PARENT 20 26
DOCKED: USER                              x       y       z     vdW  Elec       q    Type
DOCKED: USER                           _______ _______ _______ _____ _____    ______ ____
DOCKED: ROOT
DOCKED: ATOM      1  C   UNL     1     139.791  72.131 222.235 -0.27 +0.01    -0.037 A  
DOCKED: ATOM      2  C   UNL     1     139.120  73.363 222.121 -0.19 -0.00    +0.005 A  
DOCKED: ATOM      3  C   UNL     1     139.729  74.448 221.485 -0.27 -0.00    +0.009 A  
DOCKED: ATOM      4  C   UNL     1     141.026  74.330 220.955 -0.27 +0.00    -0.018 A  
DOCKED: ATOM      5  C   UNL     1     141.699  73.102 221.075 -0.26 -0.00    +0.009 A  
DOCKED: ATOM      6  C   UNL     1     141.089  72.017 221.710 -0.26 -0.00    +0.005 A  
DOCKED: ENDROOT
DOCKED: BRANCH   1   7
DOCKED: ATOM      7  C   UNL     1     139.150  70.952 222.938 -0.24 -0.02    +0.085 C  
DOCKED: ATOM      8  C   UNL     1     137.702  71.249 223.342 -0.21 -0.01    +0.021 C  
DOCKED: BRANCH   7   9
DOCKED: ATOM      9  C   UNL     1     139.969  70.549 224.132 -0.30 -0.02    +0.144 A  
DOCKED: ATOM     10  C   UNL     1     140.763  69.529 225.868 -0.44 -0.02    +0.084 A  
DOCKED: ATOM     11  C   UNL     1     139.720  69.480 224.967 -0.35 -0.01    +0.073 A  
DOCKED: ATOM     12  N   UNL     1     141.577  70.561 225.570 -0.44 +0.01    -0.085 NA 
DOCKED: ATOM     13  O   UNL     1     141.069  71.150 224.526 -0.26 +0.03    -0.361 OA 
DOCKED: BRANCH  10  14
DOCKED: ATOM     14  C   UNL     1     141.011  68.560 226.983 -0.58 -0.01    +0.060 C  
DOCKED: BRANCH  14  15
DOCKED: ATOM     15  C   UNL     1     140.810  69.204 228.363 -0.62 -0.00    +0.006 C  
DOCKED: BRANCH  15  16
DOCKED: ATOM     16  C   UNL     1     139.950  70.480 228.341 -0.60 +0.00    -0.003 C  
DOCKED: ATOM     17  C   UNL     1     140.788  71.757 228.330 -0.74 -0.00    +0.004 C  
DOCKED: ENDBRANCH  15  16
DOCKED: ENDBRANCH  14  15
DOCKED: ENDBRANCH  10  14
DOCKED: ENDBRANCH   7   9
DOCKED: ENDBRANCH   1   7
DOCKED: BRANCH   4  18
DOCKED: ATOM     18  C   UNL     1     141.673  75.486 220.282 -0.26 +0.01    -0.018 A  
DOCKED: ATOM     19  C   UNL     1     142.715  75.284 219.359 -0.28 -0.00    +0.009 A  
DOCKED: ATOM     20  C   UNL     1     141.259  76.802 220.563 -0.27 -0.01    +0.013 A  
DOCKED: ATOM     21  C   UNL     1     143.330  76.372 218.735 -0.36 -0.00    +0.001 A  
DOCKED: ATOM     22  C   UNL     1     141.877  77.897 219.939 -0.28 +0.02    -0.034 A  
DOCKED: ATOM     23  C   UNL     1     142.918  77.673 219.026 -0.18 -0.00    +0.005 A  
DOCKED: BRANCH  22  24
DOCKED: ATOM     24  C   UNL     1     141.451  79.299 220.283 -0.25 -0.06    +0.116 C  
DOCKED: BRANCH  24  25
DOCKED: ATOM     25  N   UNL     1     142.200  79.809 221.441 -0.20 +0.16    -0.312 NA 
DOCKED: ATOM     26  H   UNL     1     143.214  79.772 221.190 -0.41 -0.11    +0.123 HD 
DOCKED: BRANCH  25  27
DOCKED: ATOM     27  C   UNL     1     142.001  78.995 222.656 -0.47 -0.04    +0.084 C  
DOCKED: BRANCH  27  28
DOCKED: ATOM     28  C   UNL     1     141.483  79.860 223.822 -0.58 +0.00    -0.004 C  
DOCKED: ATOM     29  C   UNL     1     139.961  80.048 223.748 -0.42 -0.00    +0.009 C  
DOCKED: ATOM     30  C   UNL     1     142.185  81.224 223.826 -0.64 -0.00    +0.009 C  
DOCKED: ENDBRANCH  27  28
DOCKED: ENDBRANCH  25  27
DOCKED: ENDBRANCH  24  25
DOCKED: ENDBRANCH  22  24
DOCKED: ENDBRANCH   4  18
DOCKED: TORSDOF 10
DOCKED: TER
DOCKED: ENDMDL
________________________________________________________________________________


    FINAL DOCKED STATE:
    ________________________


Run:   2 / 20
Time taken for this run:   0.037s

DOCKED: MODEL        2
DOCKED: USER    Run = 2
DOCKED: USER
DOCKED: USER    Estimated Free Energy of Binding    =  -9.00 kcal/mol  [=(1)+(2)+(3)-(4)]
DOCKED: USER
DOCKED: USER    (1) Final Intermolecular Energy     = -11.98 kcal/mol
DOCKED: USER        vdW + Hbond + desolv Energy     = -11.90 kcal/mol
DOCKED: USER        Electrostatic Energy            =  -0.08 kcal/mol
DOCKED: USER        Moving Ligand-Fixed Receptor    = -11.98 kcal/mol
DOCKED: USER        Moving Ligand-Moving Receptor   =  +0.00 kcal/mol
DOCKED: USER    (2) Final Total Internal Energy     =  -1.45 kcal/mol
DOCKED: USER    (3) Torsional Free Energy           =  +2.98 kcal/mol
DOCKED: USER    (4) Unbound System's Energy         =  -1.45 kcal/mol
DOCKED: USER
DOCKED: USER
DOCKED: REMARK SMILES CCCCc1cc([C@@H](C)c2ccc(-c3cccc(CNCC(C)C)c3)cc2)on1
DOCKED: REMARK SMILES IDX 10 1 11 2 12 3 13 4 26 5 27 6 8 7 9 8 7 9 5 10 6 11 29 12
DOCKED: REMARK SMILES IDX 28 13 4 14 3 15 2 16 1 17 14 18 15 19 25 20 16 21 18 22
DOCKED: REMARK SMILES IDX 17 23 19 24 20 25 21 27 22 28 23 29 24 30
DOCKED: REMARK H PARENT 20 26
DOCKED: USER                              x       y       z     vdW  Elec       q    Type
DOCKED: USER                           _______ _______ _______ _____ _____    ______ ____
DOCKED: ROOT
DOCKED: ATOM      1  C   UNL     1     138.496  70.738 223.002 -0.22 +0.01    -0.037 A  
DOCKED: ATOM      2  C   UNL     1     139.754  71.095 223.523 -0.36 -0.00    +0.005 A  
DOCKED: ATOM      3  C   UNL     1     140.473  72.161 222.977 -0.33 -0.00    +0.009 A  
DOCKED: ATOM      4  C   UNL     1     139.956  72.890 221.892 -0.28 +0.00    -0.018 A  
DOCKED: ATOM      5  C   UNL     1     138.704  72.529 221.366 -0.14 -0.00    +0.009 A  
DOCKED: ATOM      6  C   UNL     1     137.984  71.464 221.914 -0.13 -0.00    +0.005 A  
DOCKED: ENDROOT
DOCKED: BRANCH   1   7
DOCKED: ATOM      7  C   UNL     1     137.714  69.573 223.573 -0.22 -0.01    +0.085 C  
DOCKED: ATOM      8  C   UNL     1     136.327  70.004 224.062 -0.21 -0.00    +0.021 C  
DOCKED: BRANCH   7   9
DOCKED: ATOM      9  C   UNL     1     138.491  68.915 224.678 -0.29 -0.01    +0.144 A  
DOCKED: ATOM     10  C   UNL     1     139.476  68.461 226.551 -0.50 -0.01    +0.084 A  
DOCKED: ATOM     11  C   UNL     1     138.783  69.466 225.909 -0.34 -0.01    +0.073 A  
DOCKED: ATOM     12  N   UNL     1     139.575  67.386 225.746 -0.89 +0.01    -0.085 NA 
DOCKED: ATOM     13  O   UNL     1     138.976  67.695 224.633 -0.64 -0.01    -0.361 OA 
DOCKED: BRANCH  10  14
DOCKED: ATOM     14  C   UNL     1     139.999  68.510 227.955 -0.60 -0.01    +0.060 C  
DOCKED: BRANCH  14  15
DOCKED: ATOM     15  C   UNL     1     141.047  69.618 228.141 -0.59 -0.00    +0.006 C  
DOCKED: BRANCH  15  16
DOCKED: ATOM     16  C   UNL     1     140.474  71.044 228.063 -0.71 +0.00    -0.003 C  
DOCKED: ATOM     17  C   UNL     1     141.072  71.859 226.917 -0.78 -0.00    +0.004 C  
DOCKED: ENDBRANCH  15  16
DOCKED: ENDBRANCH  14  15
DOCKED: ENDBRANCH  10  14
DOCKED: ENDBRANCH   7   9
DOCKED: ENDBRANCH   1   7
DOCKED: BRANCH   4  18
DOCKED: ATOM     18  C   UNL     1     140.724  74.021 221.309 -0.28 +0.00    -0.018 A  
DOCKED: ATOM     19  C   UNL     1     141.686  73.793 220.308 -0.21 -0.00    +0.009 A  
DOCKED: ATOM     20  C   UNL     1     140.505  75.339 221.754 -0.33 -0.00    +0.013 A  
DOCKED: ATOM     21  C   UNL     1     142.414  74.856 219.770 -0.26 -0.00    +0.001 A  
DOCKED: ATOM     22  C   UNL     1     141.238  76.409 221.216 -0.29 +0.01    -0.034 A  
DOCKED: ATOM     23  C   UNL     1     142.196  76.158 220.223 -0.29 -0.00    +0.005 A  
DOCKED: BRANCH  22  24
DOCKED: ATOM     24  C   UNL     1     141.022  77.805 221.734 -0.32 -0.05    +0.116 C  
DOCKED: BRANCH  24  25
DOCKED: ATOM     25  N   UNL     1     141.812  78.781 220.968 -0.16 +0.18    -0.312 NA 
DOCKED: ATOM     26  H   UNL     1     142.799  78.434 220.960 -0.42 -0.13    +0.123 HD 
DOCKED: BRANCH  25  27
DOCKED: ATOM     27  C   UNL     1     141.806  80.125 221.575 -0.40 -0.03    +0.084 C  
DOCKED: BRANCH  27  28
DOCKED: ATOM     28  C   UNL     1     141.573  80.042 223.098 -0.58 +0.00    -0.004 C  
DOCKED: ATOM     29  C   UNL     1     140.176  80.553 223.480 -0.45 -0.00    +0.009 C  
DOCKED: ATOM     30  C   UNL     1     142.650  80.837 223.845 -0.67 -0.00    +0.009 C  
DOCKED: ENDBRANCH  27  28
DOCKED: ENDBRANCH  25  27
DOCKED: ENDBRANCH  24  25
DOCKED: ENDBRANCH  22  24
DOCKED: ENDBRANCH   4  18
DOCKED: TORSDOF 10
DOCKED: TER
DOCKED: ENDMDL
________________________________________________________________________________


    FINAL DOCKED STATE:
    ________________________


Run:   3 / 20
Time taken for this run:   0.037s

DOCKED: MODEL        3
DOCKED: USER    Run = 3
DOCKED: USER
DOCKED: USER    Estimated Free Energy of Binding    =  -8.46 kcal/mol  [=(1)+(2)+(3)-(4)]
DOCKED: USER
DOCKED: USER    (1) Final Intermolecular Energy     = -11.44 kcal/mol
DOCKED: USER        vdW + Hbond + desolv Energy     = -11.37 kcal/mol
DOCKED: USER        Electrostatic Energy            =  -0.07 kcal/mol
DOCKED: USER        Moving Ligand-Fixed Receptor    = -11.44 kcal/mol
DOCKED: USER        Moving Ligand-Moving Receptor   =  +0.00 kcal/mol
DOCKED: USER    (2) Final Total Internal Energy     =  -1.62 kcal/mol
DOCKED: USER    (3) Torsional Free Energy           =  +2.98 kcal/mol
DOCKED: USER    (4) Unbound System's Energy         =  -1.62 kcal/mol
DOCKED: USER
DOCKED: USER
DOCKED: REMARK SMILES CCCCc1cc([C@@H](C)c2ccc(-c3cccc(CNCC(C)C)c3)cc2)on1
DOCKED: REMARK SMILES IDX 10 1 11 2 12 3 13 4 26 5 27 6 8 7 9 8 7 9 5 10 6 11 29 12
DOCKED: REMARK SMILES IDX 28 13 4 14 3 15 2 16 1 17 14 18 15 19 25 20 16 21 18 22
DOCKED: REMARK SMILES IDX 17 23 19 24 20 25 21 27 22 28 23 29 24 30
DOCKED: REMARK H PARENT 20 26
DOCKED: USER                              x       y       z     vdW  Elec       q    Type
DOCKED: USER                           _______ _______ _______ _____ _____    ______ ____
DOCKED: ROOT
DOCKED: ATOM      1  C   UNL     1     138.621  70.829 222.825 -0.21 +0.01    -0.037 A  
DOCKED: ATOM      2  C   UNL     1     140.023  70.820 222.700 -0.23 -0.00    +0.005 A  
DOCKED: ATOM      3  C   UNL     1     140.702  71.947 222.233 -0.30 -0.00    +0.009 A  
DOCKED: ATOM      4  C   UNL     1     139.997  73.108 221.871 -0.28 +0.00    -0.018 A  
DOCKED: ATOM      5  C   UNL     1     138.596  73.115 221.988 -0.19 -0.00    +0.009 A  
DOCKED: ATOM      6  C   UNL     1     137.917  71.988 222.457 -0.17 -0.00    +0.005 A  
DOCKED: ENDROOT
DOCKED: BRANCH   1   7
DOCKED: ATOM      7  C   UNL     1     137.870  69.607 223.313 -0.20 -0.01    +0.085 C  
DOCKED: ATOM      8  C   UNL     1     136.439  69.953 223.742 -0.20 -0.00    +0.021 C  
DOCKED: BRANCH   7   9
DOCKED: ATOM      9  C   UNL     1     138.621  68.948 224.435 -0.28 -0.02    +0.144 A  
DOCKED: ATOM     10  C   UNL     1     139.661  68.530 226.286 -0.50 -0.01    +0.084 A  
DOCKED: ATOM     11  C   UNL     1     139.076  69.562 225.583 -0.37 -0.01    +0.073 A  
DOCKED: ATOM     12  N   UNL     1     139.546  67.381 225.594 -0.92 +0.00    -0.085 NA 
DOCKED: ATOM     13  O   UNL     1     138.919  67.669 224.490 -0.60 -0.01    -0.361 OA 
DOCKED: BRANCH  10  14
DOCKED: ATOM     14  C   UNL     1     140.286  68.633 227.644 -0.62 -0.01    +0.060 C  
DOCKED: BRANCH  14  15
DOCKED: ATOM     15  C   UNL     1     139.977  69.978 228.322 -0.60 -0.00    +0.006 C  
DOCKED: BRANCH  15  16
DOCKED: ATOM     16  C   UNL     1     141.101  71.020 228.189 -0.65 +0.00    -0.003 C  
DOCKED: ATOM     17  C   UNL     1     141.039  71.792 226.872 -0.77 -0.00    +0.004 C  
DOCKED: ENDBRANCH  15  16
DOCKED: ENDBRANCH  14  15
DOCKED: ENDBRANCH  10  14
DOCKED: ENDBRANCH   7   9
DOCKED: ENDBRANCH   1   7
DOCKED: BRANCH   4  18
DOCKED: ATOM     18  C   UNL     1     140.720  74.306 221.371 -0.30 +0.00    -0.018 A  
DOCKED: ATOM     19  C   UNL     1     141.878  74.165 220.584 -0.27 -0.00    +0.009 A  
DOCKED: ATOM     20  C   UNL     1     140.263  75.600 221.682 -0.34 -0.00    +0.013 A  
DOCKED: ATOM     21  C   UNL     1     142.564  75.291 220.124 -0.32 -0.00    +0.001 A  
DOCKED: ATOM     22  C   UNL     1     140.952  76.734 221.223 -0.31 +0.01    -0.034 A  
DOCKED: ATOM     23  C   UNL     1     142.107  76.571 220.444 -0.24 -0.00    +0.005 A  
DOCKED: BRANCH  22  24
DOCKED: ATOM     24  C   UNL     1     140.473  78.110 221.600 -0.26 -0.04    +0.116 C  
DOCKED: BRANCH  24  25
DOCKED: ATOM     25  N   UNL     1     140.267  78.218 223.052 -0.18 +0.07    -0.312 NA 
DOCKED: ATOM     26  H   UNL     1     139.238  78.331 223.207 +0.05 -0.02    +0.123 HD 
DOCKED: BRANCH  25  27
DOCKED: ATOM     27  C   UNL     1     140.948  79.386 223.642 -0.49 -0.02    +0.084 C  
DOCKED: BRANCH  27  28
DOCKED: ATOM     28  C   UNL     1     141.860  80.074 222.607 -0.57 +0.00    -0.004 C  
DOCKED: ATOM     29  C   UNL     1     143.313  80.143 223.099 -0.60 -0.00    +0.009 C  
DOCKED: ATOM     30  C   UNL     1     141.341  81.481 222.291 -0.46 -0.00    +0.009 C  
DOCKED: ENDBRANCH  27  28
DOCKED: ENDBRANCH  25  27
DOCKED: ENDBRANCH  24  25
DOCKED: ENDBRANCH  22  24
DOCKED: ENDBRANCH   4  18
DOCKED: TORSDOF 10
DOCKED: TER
DOCKED: ENDMDL
________________________________________________________________________________


    FINAL DOCKED STATE:
    ________________________


Run:   4 / 20
Time taken for this run:   0.037s

DOCKED: MODEL        4
DOCKED: USER    Run = 4
DOCKED: USER
DOCKED: USER    Estimated Free Energy of Binding    =  -8.99 kcal/mol  [=(1)+(2)+(3)-(4)]
DOCKED: USER
DOCKED: USER    (1) Final Intermolecular Energy     = -11.97 kcal/mol
DOCKED: USER        vdW + Hbond + desolv Energy     = -11.90 kcal/mol
DOCKED: USER        Electrostatic Energy            =  -0.08 kcal/mol
DOCKED: USER        Moving Ligand-Fixed Receptor    = -11.97 kcal/mol
DOCKED: USER        Moving Ligand-Moving Receptor   =  +0.00 kcal/mol
DOCKED: USER    (2) Final Total Internal Energy     =  -1.57 kcal/mol
DOCKED: USER    (3) Torsional Free Energy           =  +2.98 kcal/mol
DOCKED: USER    (4) Unbound System's Energy         =  -1.57 kcal/mol
DOCKED: USER
DOCKED: USER
DOCKED: REMARK SMILES CCCCc1cc([C@@H](C)c2ccc(-c3cccc(CNCC(C)C)c3)cc2)on1
DOCKED: REMARK SMILES IDX 10 1 11 2 12 3 13 4 26 5 27 6 8 7 9 8 7 9 5 10 6 11 29 12
DOCKED: REMARK SMILES IDX 28 13 4 14 3 15 2 16 1 17 14 18 15 19 25 20 16 21 18 22
DOCKED: REMARK SMILES IDX 17 23 19 24 20 25 21 27 22 28 23 29 24 30
DOCKED: REMARK H PARENT 20 26
DOCKED: USER                              x       y       z     vdW  Elec       q    Type
DOCKED: USER                           _______ _______ _______ _____ _____    ______ ____
DOCKED: ROOT
DOCKED: ATOM      1  C   UNL     1     138.922  70.397 222.733 -0.20 +0.01    -0.037 A  
DOCKED: ATOM      2  C   UNL     1     139.270  71.510 223.521 -0.33 -0.00    +0.005 A  
DOCKED: ATOM      3  C   UNL     1     140.050  72.541 222.989 -0.24 -0.00    +0.009 A  
DOCKED: ATOM      4  C   UNL     1     140.508  72.479 221.662 -0.27 +0.00    -0.018 A  
DOCKED: ATOM      5  C   UNL     1     140.167  71.363 220.877 -0.14 -0.00    +0.009 A  
DOCKED: ATOM      6  C   UNL     1     139.385  70.334 221.408 -0.14 -0.00    +0.005 A  
DOCKED: ENDROOT
DOCKED: BRANCH   1   7
DOCKED: ATOM      7  C   UNL     1     138.092  69.264 223.301 -0.22 -0.01    +0.085 C  
DOCKED: ATOM      8  C   UNL     1     136.650  69.699 223.580 -0.19 -0.00    +0.021 C  
DOCKED: BRANCH   7   9
DOCKED: ATOM      9  C   UNL     1     138.737  68.718 224.544 -0.29 -0.01    +0.144 A  
DOCKED: ATOM     10  C   UNL     1     139.510  68.453 226.548 -0.51 -0.01    +0.084 A  
DOCKED: ATOM     11  C   UNL     1     138.906  69.390 225.737 -0.38 -0.01    +0.073 A  
DOCKED: ATOM     12  N   UNL     1     139.677  67.300 225.872 -0.78 +0.01    -0.085 NA 
DOCKED: ATOM     13  O   UNL     1     139.204  67.497 224.675 -0.74 -0.00    -0.361 OA 
DOCKED: BRANCH  10  14
DOCKED: ATOM     14  C   UNL     1     139.883  68.643 227.987 -0.57 -0.01    +0.060 C  
DOCKED: BRANCH  14  15
DOCKED: ATOM     15  C   UNL     1     141.012  69.671 228.161 -0.59 -0.00    +0.006 C  
DOCKED: BRANCH  15  16
DOCKED: ATOM     16  C   UNL     1     140.573  71.129 227.940 -0.75 +0.00    -0.003 C  
DOCKED: ATOM     17  C   UNL     1     141.142  71.730 226.656 -0.73 -0.00    +0.004 C  
DOCKED: ENDBRANCH  15  16
DOCKED: ENDBRANCH  14  15
DOCKED: ENDBRANCH  10  14
DOCKED: ENDBRANCH   7   9
DOCKED: ENDBRANCH   1   7
DOCKED: BRANCH   4  18
DOCKED: ATOM     18  C   UNL     1     141.340  73.574 221.099 -0.27 +0.00    -0.018 A  
DOCKED: ATOM     19  C   UNL     1     142.649  73.319 220.650 -0.28 -0.00    +0.009 A  
DOCKED: ATOM     20  C   UNL     1     140.834  74.885 221.012 -0.28 -0.00    +0.013 A  
DOCKED: ATOM     21  C   UNL     1     143.433  74.351 220.132 -0.37 -0.00    +0.001 A  
DOCKED: ATOM     22  C   UNL     1     141.622  75.925 220.494 -0.27 +0.01    -0.034 A  
DOCKED: ATOM     23  C   UNL     1     142.927  75.650 220.057 -0.34 -0.00    +0.005 A  
DOCKED: BRANCH  22  24
DOCKED: ATOM     24  C   UNL     1     141.081  77.328 220.448 -0.21 -0.05    +0.116 C  
DOCKED: BRANCH  24  25
DOCKED: ATOM     25  N   UNL     1     141.829  78.212 221.355 -0.16 +0.19    -0.312 NA 
DOCKED: ATOM     26  H   UNL     1     142.823  77.886 221.348 -0.51 -0.14    +0.123 HD 
DOCKED: BRANCH  25  27
DOCKED: ATOM     27  C   UNL     1     141.339  78.153 222.745 -0.42 -0.03    +0.084 C  
DOCKED: BRANCH  27  28
DOCKED: ATOM     28  C   UNL     1     141.614  79.478 223.484 -0.61 +0.00    -0.004 C  
DOCKED: ATOM     29  C   UNL     1     140.445  80.461 223.326 -0.46 -0.00    +0.009 C  
DOCKED: ATOM     30  C   UNL     1     142.913  80.113 222.973 -0.65 -0.00    +0.009 C  
DOCKED: ENDBRANCH  27  28
DOCKED: ENDBRANCH  25  27
DOCKED: ENDBRANCH  24  25
DOCKED: ENDBRANCH  22  24
DOCKED: ENDBRANCH   4  18
DOCKED: TORSDOF 10
DOCKED: TER
DOCKED: ENDMDL
________________________________________________________________________________


    FINAL DOCKED STATE:
    ________________________


Run:   5 / 20
Time taken for this run:   0.037s

DOCKED: MODEL        5
DOCKED: USER    Run = 5
DOCKED: USER
DOCKED: USER    Estimated Free Energy of Binding    =  -9.22 kcal/mol  [=(1)+(2)+(3)-(4)]
DOCKED: USER
DOCKED: USER    (1) Final Intermolecular Energy     = -12.20 kcal/mol
DOCKED: USER        vdW + Hbond + desolv Energy     = -12.11 kcal/mol
DOCKED: USER        Electrostatic Energy            =  -0.09 kcal/mol
DOCKED: USER        Moving Ligand-Fixed Receptor    = -12.20 kcal/mol
DOCKED: USER        Moving Ligand-Moving Receptor   =  +0.00 kcal/mol
DOCKED: USER    (2) Final Total Internal Energy     =  -1.46 kcal/mol
DOCKED: USER    (3) Torsional Free Energy           =  +2.98 kcal/mol
DOCKED: USER    (4) Unbound System's Energy         =  -1.46 kcal/mol
DOCKED: USER
DOCKED: USER
DOCKED: REMARK SMILES CCCCc1cc([C@@H](C)c2ccc(-c3cccc(CNCC(C)C)c3)cc2)on1
DOCKED: REMARK SMILES IDX 10 1 11 2 12 3 13 4 26 5 27 6 8 7 9 8 7 9 5 10 6 11 29 12
DOCKED: REMARK SMILES IDX 28 13 4 14 3 15 2 16 1 17 14 18 15 19 25 20 16 21 18 22
DOCKED: REMARK SMILES IDX 17 23 19 24 20 25 21 27 22 28 23 29 24 30
DOCKED: REMARK H PARENT 20 26
DOCKED: USER                              x       y       z     vdW  Elec       q    Type
DOCKED: USER                           _______ _______ _______ _____ _____    ______ ____
DOCKED: ROOT
DOCKED: ATOM      1  C   UNL     1     138.821  70.673 222.900 -0.22 +0.01    -0.037 A  
DOCKED: ATOM      2  C   UNL     1     139.832  71.279 223.668 -0.39 -0.00    +0.005 A  
DOCKED: ATOM      3  C   UNL     1     140.657  72.259 223.109 -0.28 -0.00    +0.009 A  
DOCKED: ATOM      4  C   UNL     1     140.496  72.649 221.768 -0.28 +0.00    -0.018 A  
DOCKED: ATOM      5  C   UNL     1     139.490  72.038 220.999 -0.13 -0.00    +0.009 A  
DOCKED: ATOM      6  C   UNL     1     138.664  71.059 221.559 -0.12 -0.00    +0.005 A  
DOCKED: ENDROOT
DOCKED: BRANCH   1   7
DOCKED: ATOM      7  C   UNL     1     137.931  69.596 223.488 -0.22 -0.01    +0.085 C  
DOCKED: ATOM      8  C   UNL     1     136.576  70.158 223.932 -0.22 -0.00    +0.021 C  
DOCKED: BRANCH   7   9
DOCKED: ATOM      9  C   UNL     1     138.627  68.910 224.630 -0.29 -0.01    +0.144 A  
DOCKED: ATOM     10  C   UNL     1     139.516  68.428 226.543 -0.51 -0.01    +0.084 A  
DOCKED: ATOM     11  C   UNL     1     138.909  69.462 225.862 -0.36 -0.01    +0.073 A  
DOCKED: ATOM     12  N   UNL     1     139.577  67.336 225.758 -0.88 +0.00    -0.085 NA 
DOCKED: ATOM     13  O   UNL     1     139.037  67.662 224.620 -0.66 -0.01    -0.361 OA 
DOCKED: BRANCH  10  14
DOCKED: ATOM     14  C   UNL     1     139.992  68.469 227.963 -0.58 -0.01    +0.060 C  
DOCKED: BRANCH  14  15
DOCKED: ATOM     15  C   UNL     1     141.026  69.582 228.194 -0.59 -0.00    +0.006 C  
DOCKED: BRANCH  15  16
DOCKED: ATOM     16  C   UNL     1     140.445  71.004 228.122 -0.69 +0.00    -0.003 C  
DOCKED: ATOM     17  C   UNL     1     141.091  71.853 227.028 -0.79 -0.00    +0.004 C  
DOCKED: ENDBRANCH  15  16
DOCKED: ENDBRANCH  14  15
DOCKED: ENDBRANCH  10  14
DOCKED: ENDBRANCH   7   9
DOCKED: ENDBRANCH   1   7
DOCKED: BRANCH   4  18
DOCKED: ATOM     18  C   UNL     1     141.376  73.689 221.174 -0.28 +0.00    -0.018 A  
DOCKED: ATOM     19  C   UNL     1     142.671  73.362 220.732 -0.28 -0.00    +0.009 A  
DOCKED: ATOM     20  C   UNL     1     140.930  75.019 221.050 -0.29 -0.00    +0.013 A  
DOCKED: ATOM     21  C   UNL     1     143.501  74.343 220.185 -0.38 -0.00    +0.001 A  
DOCKED: ATOM     22  C   UNL     1     141.764  76.007 220.503 -0.27 +0.02    -0.034 A  
DOCKED: ATOM     23  C   UNL     1     143.054  75.660 220.073 -0.34 -0.00    +0.005 A  
DOCKED: BRANCH  22  24
DOCKED: ATOM     24  C   UNL     1     141.287  77.431 220.417 -0.23 -0.06    +0.116 C  
DOCKED: BRANCH  24  25
DOCKED: ATOM     25  N   UNL     1     141.958  78.274 221.419 -0.14 +0.21    -0.312 NA 
DOCKED: ATOM     26  H   UNL     1     142.933  77.908 221.521 -0.52 -0.15    +0.123 HD 
DOCKED: BRANCH  25  27
DOCKED: ATOM     27  C   UNL     1     141.308  78.217 222.742 -0.43 -0.03    +0.084 C  
DOCKED: BRANCH  27  28
DOCKED: ATOM     28  C   UNL     1     141.638  79.473 223.573 -0.61 +0.00    -0.004 C  
DOCKED: ATOM     29  C   UNL     1     140.507  80.508 223.496 -0.47 -0.00    +0.009 C  
DOCKED: ATOM     30  C   UNL     1     142.957  80.094 223.099 -0.66 -0.00    +0.009 C  
DOCKED: ENDBRANCH  27  28
DOCKED: ENDBRANCH  25  27
DOCKED: ENDBRANCH  24  25
DOCKED: ENDBRANCH  22  24
DOCKED: ENDBRANCH   4  18
DOCKED: TORSDOF 10
DOCKED: TER
DOCKED: ENDMDL
________________________________________________________________________________


    FINAL DOCKED STATE:
    ________________________


Run:   6 / 20
Time taken for this run:   0.037s

DOCKED: MODEL        6
DOCKED: USER    Run = 6
DOCKED: USER
DOCKED: USER    Estimated Free Energy of Binding    =  -8.66 kcal/mol  [=(1)+(2)+(3)-(4)]
DOCKED: USER
DOCKED: USER    (1) Final Intermolecular Energy     = -11.64 kcal/mol
DOCKED: USER        vdW + Hbond + desolv Energy     = -11.35 kcal/mol
DOCKED: USER        Electrostatic Energy            =  -0.29 kcal/mol
DOCKED: USER        Moving Ligand-Fixed Receptor    = -11.64 kcal/mol
DOCKED: USER        Moving Ligand-Moving Receptor   =  +0.00 kcal/mol
DOCKED: USER    (2) Final Total Internal Energy     =  -1.72 kcal/mol
DOCKED: USER    (3) Torsional Free Energy           =  +2.98 kcal/mol
DOCKED: USER    (4) Unbound System's Energy         =  -1.72 kcal/mol
DOCKED: USER
DOCKED: USER
DOCKED: REMARK SMILES CCCCc1cc([C@@H](C)c2ccc(-c3cccc(CNCC(C)C)c3)cc2)on1
DOCKED: REMARK SMILES IDX 10 1 11 2 12 3 13 4 26 5 27 6 8 7 9 8 7 9 5 10 6 11 29 12
DOCKED: REMARK SMILES IDX 28 13 4 14 3 15 2 16 1 17 14 18 15 19 25 20 16 21 18 22
DOCKED: REMARK SMILES IDX 17 23 19 24 20 25 21 27 22 28 23 29 24 30
DOCKED: REMARK H PARENT 20 26
DOCKED: USER                              x       y       z     vdW  Elec       q    Type
DOCKED: USER                           _______ _______ _______ _____ _____    ______ ____
DOCKED: ROOT
DOCKED: ATOM      1  C   UNL     1     139.307  70.521 222.580 -0.21 +0.01    -0.037 A  
DOCKED: ATOM      2  C   UNL     1     139.975  70.235 221.375 -0.14 -0.00    +0.005 A  
DOCKED: ATOM      3  C   UNL     1     140.915  71.128 220.853 -0.15 -0.00    +0.009 A  
DOCKED: ATOM      4  C   UNL     1     141.203  72.332 221.520 -0.26 +0.00    -0.018 A  
DOCKED: ATOM      5  C   UNL     1     140.530  72.621 222.720 -0.28 -0.00    +0.009 A  
DOCKED: ATOM      6  C   UNL     1     139.592  71.727 223.242 -0.33 -0.00    +0.005 A  
DOCKED: ENDROOT
DOCKED: BRANCH   1   7
DOCKED: ATOM      7  C   UNL     1     138.272  69.571 223.147 -0.20 -0.01    +0.085 C  
DOCKED: ATOM      8  C   UNL     1     136.939  70.276 223.417 -0.19 -0.00    +0.021 C  
DOCKED: BRANCH   7   9
DOCKED: ATOM      9  C   UNL     1     138.795  68.916 224.395 -0.28 -0.02    +0.144 A  
DOCKED: ATOM     10  C   UNL     1     139.414  68.492 226.425 -0.49 -0.01    +0.084 A  
DOCKED: ATOM     11  C   UNL     1     138.929  69.511 225.632 -0.37 -0.01    +0.073 A  
DOCKED: ATOM     12  N   UNL     1     139.546  67.367 225.695 -0.90 +0.00    -0.085 NA 
DOCKED: ATOM     13  O   UNL     1     139.168  67.659 224.485 -0.66 +0.01    -0.361 OA 
DOCKED: BRANCH  10  14
DOCKED: ATOM     14  C   UNL     1     139.702  68.579 227.893 -0.51 -0.01    +0.060 C  
DOCKED: BRANCH  14  15
DOCKED: ATOM     15  C   UNL     1     140.001  70.019 228.338 -0.60 -0.00    +0.006 C  
DOCKED: BRANCH  15  16
DOCKED: ATOM     16  C   UNL     1     141.081  70.724 227.498 -0.66 +0.00    -0.003 C  
DOCKED: ATOM     17  C   UNL     1     140.995  72.247 227.584 -0.80 -0.00    +0.004 C  
DOCKED: ENDBRANCH  15  16
DOCKED: ENDBRANCH  14  15
DOCKED: ENDBRANCH  10  14
DOCKED: ENDBRANCH   7   9
DOCKED: ENDBRANCH   1   7
DOCKED: BRANCH   4  18
DOCKED: ATOM     18  C   UNL     1     142.200  73.282 220.963 -0.24 +0.00    -0.018 A  
DOCKED: ATOM     19  C   UNL     1     141.803  74.556 220.517 -0.27 -0.00    +0.009 A  
DOCKED: ATOM     20  C   UNL     1     143.557  72.921 220.867 -0.29 -0.00    +0.013 A  
DOCKED: ATOM     21  C   UNL     1     142.740  75.444 219.984 -0.34 -0.00    +0.001 A  
DOCKED: ATOM     22  C   UNL     1     144.500  73.810 220.328 -0.46 +0.01    -0.034 A  
DOCKED: ATOM     23  C   UNL     1     144.082  75.074 219.884 -0.41 -0.00    +0.005 A  
DOCKED: BRANCH  22  24
DOCKED: ATOM     24  C   UNL     1     145.939  73.392 220.193 -0.51 +0.01    +0.116 C  
DOCKED: BRANCH  24  25
DOCKED: ATOM     25  N   UNL     1     146.298  73.183 218.782 -0.61 -0.29    -0.312 NA 
DOCKED: ATOM     26  H   UNL     1     146.518  74.124 218.381 -0.53 -0.00    +0.123 HD 
DOCKED: BRANCH  25  27
DOCKED: ATOM     27  C   UNL     1     145.199  72.596 217.993 -0.18 +0.03    +0.084 C  
DOCKED: BRANCH  27  28
DOCKED: ATOM     28  C   UNL     1     145.092  73.269 216.609 -0.14 -0.00    -0.004 C  
DOCKED: ATOM     29  C   UNL     1     146.465  73.735 216.105 -0.19 +0.00    +0.009 C  
DOCKED: ATOM     30  C   UNL     1     144.120  74.453 216.668 -0.14 -0.00    +0.009 C  
DOCKED: ENDBRANCH  27  28
DOCKED: ENDBRANCH  25  27
DOCKED: ENDBRANCH  24  25
DOCKED: ENDBRANCH  22  24
DOCKED: ENDBRANCH   4  18
DOCKED: TORSDOF 10
DOCKED: TER
DOCKED: ENDMDL
________________________________________________________________________________


    FINAL DOCKED STATE:
    ________________________


Run:   7 / 20
Time taken for this run:   0.037s

DOCKED: MODEL        7
DOCKED: USER    Run = 7
DOCKED: USER
DOCKED: USER    Estimated Free Energy of Binding    =  -8.72 kcal/mol  [=(1)+(2)+(3)-(4)]
DOCKED: USER
DOCKED: USER    (1) Final Intermolecular Energy     = -11.70 kcal/mol
DOCKED: USER        vdW + Hbond + desolv Energy     = -11.58 kcal/mol
DOCKED: USER        Electrostatic Energy            =  -0.12 kcal/mol
DOCKED: USER        Moving Ligand-Fixed Receptor    = -11.70 kcal/mol
DOCKED: USER        Moving Ligand-Moving Receptor   =  +0.00 kcal/mol
DOCKED: USER    (2) Final Total Internal Energy     =  -1.49 kcal/mol
DOCKED: USER    (3) Torsional Free Energy           =  +2.98 kcal/mol
DOCKED: USER    (4) Unbound System's Energy         =  -1.49 kcal/mol
DOCKED: USER
DOCKED: USER
DOCKED: REMARK SMILES CCCCc1cc([C@@H](C)c2ccc(-c3cccc(CNCC(C)C)c3)cc2)on1
DOCKED: REMARK SMILES IDX 10 1 11 2 12 3 13 4 26 5 27 6 8 7 9 8 7 9 5 10 6 11 29 12
DOCKED: REMARK SMILES IDX 28 13 4 14 3 15 2 16 1 17 14 18 15 19 25 20 16 21 18 22
DOCKED: REMARK SMILES IDX 17 23 19 24 20 25 21 27 22 28 23 29 24 30
DOCKED: REMARK H PARENT 20 26
DOCKED: USER                              x       y       z     vdW  Elec       q    Type
DOCKED: USER                           _______ _______ _______ _____ _____    ______ ____
DOCKED: ROOT
DOCKED: ATOM      1  C   UNL     1     139.220  70.320 222.319 -0.18 +0.01    -0.037 A  
DOCKED: ATOM      2  C   UNL     1     140.280  70.264 221.395 -0.07 -0.00    +0.005 A  
DOCKED: ATOM      3  C   UNL     1     140.906  71.434 220.959 -0.17 -0.00    +0.009 A  
DOCKED: ATOM      4  C   UNL     1     140.481  72.689 221.429 -0.25 +0.00    -0.018 A  
DOCKED: ATOM      5  C   UNL     1     139.417  72.746 222.346 -0.26 -0.00    +0.009 A  
DOCKED: ATOM      6  C   UNL     1     138.793  71.575 222.784 -0.24 -0.00    +0.005 A  
DOCKED: ENDROOT
DOCKED: BRANCH   1   7
DOCKED: ATOM      7  C   UNL     1     138.522  69.059 222.788 -0.19 -0.01    +0.085 C  
DOCKED: ATOM      8  C   UNL     1     136.999  69.228 222.810 -0.16 -0.00    +0.021 C  
DOCKED: BRANCH   7   9
DOCKED: ATOM      9  C   UNL     1     139.036  68.650 224.139 -0.25 -0.02    +0.144 A  
DOCKED: ATOM     10  C   UNL     1     139.948  68.618 226.101 -0.49 -0.01    +0.084 A  
DOCKED: ATOM     11  C   UNL     1     139.749  69.443 225.014 -0.35 -0.01    +0.073 A  
DOCKED: ATOM     12  N   UNL     1     139.378  67.418 225.877 -0.91 +0.00    -0.085 NA 
DOCKED: ATOM     13  O   UNL     1     138.843  67.474 224.692 -0.58 -0.05    -0.361 OA 
DOCKED: BRANCH  10  14
DOCKED: ATOM     14  C   UNL     1     140.640  68.994 227.376 -0.60 -0.01    +0.060 C  
DOCKED: BRANCH  14  15
DOCKED: ATOM     15  C   UNL     1     140.003  70.226 228.037 -0.64 -0.00    +0.006 C  
DOCKED: BRANCH  15  16
DOCKED: ATOM     16  C   UNL     1     140.873  71.494 227.971 -0.81 +0.00    -0.003 C  
DOCKED: ATOM     17  C   UNL     1     141.237  71.887 226.540 -0.71 -0.00    +0.004 C  
DOCKED: ENDBRANCH  15  16
DOCKED: ENDBRANCH  14  15
DOCKED: ENDBRANCH  10  14
DOCKED: ENDBRANCH   7   9
DOCKED: ENDBRANCH   1   7
DOCKED: BRANCH   4  18
DOCKED: ATOM     18  C   UNL     1     141.144  73.934 220.962 -0.26 +0.00    -0.018 A  
DOCKED: ATOM     19  C   UNL     1     142.295  73.871 220.155 -0.24 -0.00    +0.009 A  
DOCKED: ATOM     20  C   UNL     1     140.635  75.196 221.324 -0.31 -0.00    +0.013 A  
DOCKED: ATOM     21  C   UNL     1     142.924  75.042 219.726 -0.33 -0.00    +0.001 A  
DOCKED: ATOM     22  C   UNL     1     141.267  76.374 220.895 -0.29 +0.01    -0.034 A  
DOCKED: ATOM     23  C   UNL     1     142.417  76.289 220.096 -0.31 -0.00    +0.005 A  
DOCKED: BRANCH  22  24
DOCKED: ATOM     24  C   UNL     1     140.735  77.714 221.327 -0.26 -0.04    +0.116 C  
DOCKED: BRANCH  24  25
DOCKED: ATOM     25  N   UNL     1     141.636  78.352 222.298 -0.20 +0.16    -0.312 NA 
DOCKED: ATOM     26  H   UNL     1     142.168  77.586 222.771 -0.37 -0.10    +0.123 HD 
DOCKED: BRANCH  25  27
DOCKED: ATOM     27  C   UNL     1     140.913  79.112 223.335 -0.48 -0.02    +0.084 C  
DOCKED: BRANCH  27  28
DOCKED: ATOM     28  C   UNL     1     141.446  80.556 223.435 -0.57 +0.00    -0.004 C  
DOCKED: ATOM     29  C   UNL     1     141.118  81.362 222.169 -0.43 -0.00    +0.009 C  
DOCKED: ATOM     30  C   UNL     1     142.959  80.549 223.680 -0.67 -0.00    +0.009 C  
DOCKED: ENDBRANCH  27  28
DOCKED: ENDBRANCH  25  27
DOCKED: ENDBRANCH  24  25
DOCKED: ENDBRANCH  22  24
DOCKED: ENDBRANCH   4  18
DOCKED: TORSDOF 10
DOCKED: TER
DOCKED: ENDMDL
________________________________________________________________________________


    FINAL DOCKED STATE:
    ________________________


Run:   8 / 20
Time taken for this run:   0.037s

DOCKED: MODEL        8
DOCKED: USER    Run = 8
DOCKED: USER
DOCKED: USER    Estimated Free Energy of Binding    =  -8.63 kcal/mol  [=(1)+(2)+(3)-(4)]
DOCKED: USER
DOCKED: USER    (1) Final Intermolecular Energy     = -11.61 kcal/mol
DOCKED: USER        vdW + Hbond + desolv Energy     = -11.55 kcal/mol
DOCKED: USER        Electrostatic Energy            =  -0.06 kcal/mol
DOCKED: USER        Moving Ligand-Fixed Receptor    = -11.61 kcal/mol
DOCKED: USER        Moving Ligand-Moving Receptor   =  +0.00 kcal/mol
DOCKED: USER    (2) Final Total Internal Energy     =  -1.65 kcal/mol
DOCKED: USER    (3) Torsional Free Energy           =  +2.98 kcal/mol
DOCKED: USER    (4) Unbound System's Energy         =  -1.65 kcal/mol
DOCKED: USER
DOCKED: USER
DOCKED: REMARK SMILES CCCCc1cc([C@@H](C)c2ccc(-c3cccc(CNCC(C)C)c3)cc2)on1
DOCKED: REMARK SMILES IDX 10 1 11 2 12 3 13 4 26 5 27 6 8 7 9 8 7 9 5 10 6 11 29 12
DOCKED: REMARK SMILES IDX 28 13 4 14 3 15 2 16 1 17 14 18 15 19 25 20 16 21 18 22
DOCKED: REMARK SMILES IDX 17 23 19 24 20 25 21 27 22 28 23 29 24 30
DOCKED: REMARK H PARENT 20 26
DOCKED: USER                              x       y       z     vdW  Elec       q    Type
DOCKED: USER                           _______ _______ _______ _____ _____    ______ ____
DOCKED: ROOT
DOCKED: ATOM      1  C   UNL     1     138.575  70.509 222.924 -0.21 +0.01    -0.037 A  
DOCKED: ATOM      2  C   UNL     1     139.952  70.690 222.698 -0.23 -0.00    +0.005 A  
DOCKED: ATOM      3  C   UNL     1     140.451  71.935 222.306 -0.31 -0.00    +0.009 A  
DOCKED: ATOM      4  C   UNL     1     139.584  73.026 222.122 -0.27 +0.00    -0.018 A  
DOCKED: ATOM      5  C   UNL     1     138.207  72.843 222.340 -0.11 -0.00    +0.009 A  
DOCKED: ATOM      6  C   UNL     1     137.709  71.599 222.734 -0.18 -0.00    +0.005 A  
DOCKED: ENDROOT
DOCKED: BRANCH   1   7
DOCKED: ATOM      7  C   UNL     1     138.019  69.160 223.333 -0.22 -0.01    +0.085 C  
DOCKED: ATOM      8  C   UNL     1     136.496  69.200 223.503 -0.18 -0.00    +0.021 C  
DOCKED: BRANCH   7   9
DOCKED: ATOM      9  C   UNL     1     138.686  68.680 224.591 -0.29 -0.01    +0.144 A  
DOCKED: ATOM     10  C   UNL     1     139.518  68.530 226.583 -0.51 -0.01    +0.084 A  
DOCKED: ATOM     11  C   UNL     1     138.920  69.429 225.725 -0.37 -0.01    +0.073 A  
DOCKED: ATOM     12  N   UNL     1     139.619  67.326 225.987 -0.78 +0.01    -0.085 NA 
DOCKED: ATOM     13  O   UNL     1     139.112  67.454 224.795 -0.73 -0.02    -0.361 OA 
DOCKED: BRANCH  10  14
DOCKED: ATOM     14  C   UNL     1     139.947  68.808 227.992 -0.59 -0.01    +0.060 C  
DOCKED: BRANCH  14  15
DOCKED: ATOM     15  C   UNL     1     139.802  70.293 228.357 -0.57 -0.00    +0.006 C  
DOCKED: BRANCH  15  16
DOCKED: ATOM     16  C   UNL     1     141.045  71.142 228.040 -0.73 +0.00    -0.003 C  
DOCKED: ATOM     17  C   UNL     1     140.961  71.830 226.679 -0.72 -0.00    +0.004 C  
DOCKED: ENDBRANCH  15  16
DOCKED: ENDBRANCH  14  15
DOCKED: ENDBRANCH  10  14
DOCKED: ENDBRANCH   7   9
DOCKED: ENDBRANCH   1   7
DOCKED: BRANCH   4  18
DOCKED: ATOM     18  C   UNL     1     140.115  74.348 221.701 -0.28 +0.00    -0.018 A  
DOCKED: ATOM     19  C   UNL     1     139.566  75.536 222.217 -0.31 -0.00    +0.009 A  
DOCKED: ATOM     20  C   UNL     1     141.172  74.433 220.775 -0.26 -0.00    +0.013 A  
DOCKED: ATOM     21  C   UNL     1     140.058  76.779 221.812 -0.34 -0.00    +0.001 A  
DOCKED: ATOM     22  C   UNL     1     141.667  75.681 220.365 -0.26 +0.01    -0.034 A  
DOCKED: ATOM     23  C   UNL     1     141.101  76.854 220.888 -0.29 -0.00    +0.005 A  
DOCKED: BRANCH  22  24
DOCKED: ATOM     24  C   UNL     1     142.768  75.755 219.342 -0.27 -0.06    +0.116 C  
DOCKED: BRANCH  24  25
DOCKED: ATOM     25  N   UNL     1     144.080  75.509 219.959 -0.23 +0.20    -0.312 NA 
DOCKED: ATOM     26  H   UNL     1     144.796  75.595 219.201 -0.22 -0.11    +0.123 HD 
DOCKED: BRANCH  25  27
DOCKED: ATOM     27  C   UNL     1     144.194  74.158 220.542 -0.38 -0.03    +0.084 C  
DOCKED: BRANCH  27  28
DOCKED: ATOM     28  C   UNL     1     145.608  73.582 220.329 -0.59 +0.00    -0.004 C  
DOCKED: ATOM     29  C   UNL     1     145.562  72.251 219.564 -0.38 +0.00    +0.009 C  
DOCKED: ATOM     30  C   UNL     1     146.315  73.394 221.676 -0.73 -0.00    +0.009 C  
DOCKED: ENDBRANCH  27  28
DOCKED: ENDBRANCH  25  27
DOCKED: ENDBRANCH  24  25
DOCKED: ENDBRANCH  22  24
DOCKED: ENDBRANCH   4  18
DOCKED: TORSDOF 10
DOCKED: TER
DOCKED: ENDMDL
________________________________________________________________________________


    FINAL DOCKED STATE:
    ________________________


Run:   9 / 20
Time taken for this run:   0.037s

DOCKED: MODEL        9
DOCKED: USER    Run = 9
DOCKED: USER
DOCKED: USER    Estimated Free Energy of Binding    =  -8.74 kcal/mol  [=(1)+(2)+(3)-(4)]
DOCKED: USER
DOCKED: USER    (1) Final Intermolecular Energy     = -11.72 kcal/mol
DOCKED: USER        vdW + Hbond + desolv Energy     = -11.61 kcal/mol
DOCKED: USER        Electrostatic Energy            =  -0.11 kcal/mol
DOCKED: USER        Moving Ligand-Fixed Receptor    = -11.72 kcal/mol
DOCKED: USER        Moving Ligand-Moving Receptor   =  +0.00 kcal/mol
DOCKED: USER    (2) Final Total Internal Energy     =  -1.67 kcal/mol
DOCKED: USER    (3) Torsional Free Energy           =  +2.98 kcal/mol
DOCKED: USER    (4) Unbound System's Energy         =  -1.67 kcal/mol
DOCKED: USER
DOCKED: USER
DOCKED: REMARK SMILES CCCCc1cc([C@@H](C)c2ccc(-c3cccc(CNCC(C)C)c3)cc2)on1
DOCKED: REMARK SMILES IDX 10 1 11 2 12 3 13 4 26 5 27 6 8 7 9 8 7 9 5 10 6 11 29 12
DOCKED: REMARK SMILES IDX 28 13 4 14 3 15 2 16 1 17 14 18 15 19 25 20 16 21 18 22
DOCKED: REMARK SMILES IDX 17 23 19 24 20 25 21 27 22 28 23 29 24 30
DOCKED: REMARK H PARENT 20 26
DOCKED: USER                              x       y       z     vdW  Elec       q    Type
DOCKED: USER                           _______ _______ _______ _____ _____    ______ ____
DOCKED: ROOT
DOCKED: ATOM      1  C   UNL     1     139.106  70.470 222.590 -0.20 +0.01    -0.037 A  
DOCKED: ATOM      2  C   UNL     1     137.909  71.202 222.486 -0.16 -0.00    +0.005 A  
DOCKED: ATOM      3  C   UNL     1     137.937  72.588 222.308 -0.16 -0.00    +0.009 A  
DOCKED: ATOM      4  C   UNL     1     139.161  73.275 222.240 -0.17 +0.00    -0.018 A  
DOCKED: ATOM      5  C   UNL     1     140.357  72.544 222.352 -0.33 -0.00    +0.009 A  
DOCKED: ATOM      6  C   UNL     1     140.329  71.159 222.527 -0.26 -0.00    +0.005 A  
DOCKED: ENDROOT
DOCKED: BRANCH   1   7
DOCKED: ATOM      7  C   UNL     1     139.090  68.969 222.800 -0.17 -0.02    +0.085 C  
DOCKED: ATOM      8  C   UNL     1     137.830  68.325 222.212 -0.18 -0.00    +0.021 C  
DOCKED: BRANCH   7   9
DOCKED: ATOM      9  C   UNL     1     139.226  68.647 224.262 -0.24 -0.02    +0.144 A  
DOCKED: ATOM     10  C   UNL     1     139.437  68.764 226.412 -0.47 -0.01    +0.084 A  
DOCKED: ATOM     11  C   UNL     1     139.406  69.556 225.283 -0.37 -0.01    +0.073 A  
DOCKED: ATOM     12  N   UNL     1     139.276  67.471 226.070 -0.90 +0.00    -0.085 NA 
DOCKED: ATOM     13  O   UNL     1     139.154  67.439 224.775 -0.75 -0.02    -0.361 OA 
DOCKED: BRANCH  10  14
DOCKED: ATOM     14  C   UNL     1     139.570  69.249 227.824 -0.55 -0.01    +0.060 C  
DOCKED: BRANCH  14  15
DOCKED: ATOM     15  C   UNL     1     140.945  69.882 228.090 -0.60 -0.00    +0.006 C  
DOCKED: BRANCH  15  16
DOCKED: ATOM     16  C   UNL     1     140.969  71.414 227.944 -0.79 +0.00    -0.003 C  
DOCKED: ATOM     17  C   UNL     1     141.407  71.868 226.552 -0.69 -0.00    +0.004 C  
DOCKED: ENDBRANCH  15  16
DOCKED: ENDBRANCH  14  15
DOCKED: ENDBRANCH  10  14
DOCKED: ENDBRANCH   7   9
DOCKED: ENDBRANCH   1   7
DOCKED: BRANCH   4  18
DOCKED: ATOM     18  C   UNL     1     139.189  74.749 222.054 -0.25 +0.00    -0.018 A  
DOCKED: ATOM     19  C   UNL     1     138.045  75.525 222.316 -0.25 -0.00    +0.009 A  
DOCKED: ATOM     20  C   UNL     1     140.360  75.392 221.608 -0.34 -0.00    +0.013 A  
DOCKED: ATOM     21  C   UNL     1     138.070  76.909 222.131 -0.25 -0.00    +0.001 A  
DOCKED: ATOM     22  C   UNL     1     140.386  76.783 221.419 -0.29 +0.01    -0.034 A  
DOCKED: ATOM     23  C   UNL     1     139.232  77.537 221.680 -0.23 -0.00    +0.005 A  
DOCKED: BRANCH  22  24
DOCKED: ATOM     24  C   UNL     1     141.632  77.449 220.900 -0.21 -0.07    +0.116 C  
DOCKED: BRANCH  24  25
DOCKED: ATOM     25  N   UNL     1     141.959  78.646 221.688 -0.19 +0.19    -0.312 NA 
DOCKED: ATOM     26  H   UNL     1     142.973  78.847 221.533 -0.49 -0.12    +0.123 HD 
DOCKED: BRANCH  25  27
DOCKED: ATOM     27  C   UNL     1     141.749  78.453 223.136 -0.42 -0.04    +0.084 C  
DOCKED: BRANCH  27  28
DOCKED: ATOM     28  C   UNL     1     141.515  79.802 223.845 -0.58 +0.00    -0.004 C  
DOCKED: ATOM     29  C   UNL     1     140.162  80.414 223.453 -0.45 -0.00    +0.009 C  
DOCKED: ATOM     30  C   UNL     1     142.652  80.778 223.519 -0.65 -0.00    +0.009 C  
DOCKED: ENDBRANCH  27  28
DOCKED: ENDBRANCH  25  27
DOCKED: ENDBRANCH  24  25
DOCKED: ENDBRANCH  22  24
DOCKED: ENDBRANCH   4  18
DOCKED: TORSDOF 10
DOCKED: TER
DOCKED: ENDMDL
________________________________________________________________________________


    FINAL DOCKED STATE:
    ________________________


Run:   10 / 20
Time taken for this run:   0.037s

DOCKED: MODEL        10
DOCKED: USER    Run = 10
DOCKED: USER
DOCKED: USER    Estimated Free Energy of Binding    =  -8.90 kcal/mol  [=(1)+(2)+(3)-(4)]
DOCKED: USER
DOCKED: USER    (1) Final Intermolecular Energy     = -11.89 kcal/mol
DOCKED: USER        vdW + Hbond + desolv Energy     = -11.55 kcal/mol
DOCKED: USER        Electrostatic Energy            =  -0.34 kcal/mol
DOCKED: USER        Moving Ligand-Fixed Receptor    = -11.89 kcal/mol
DOCKED: USER        Moving Ligand-Moving Receptor   =  +0.00 kcal/mol
DOCKED: USER    (2) Final Total Internal Energy     =  -1.74 kcal/mol
DOCKED: USER    (3) Torsional Free Energy           =  +2.98 kcal/mol
DOCKED: USER    (4) Unbound System's Energy         =  -1.74 kcal/mol
DOCKED: USER
DOCKED: USER
DOCKED: REMARK SMILES CCCCc1cc([C@@H](C)c2ccc(-c3cccc(CNCC(C)C)c3)cc2)on1
DOCKED: REMARK SMILES IDX 10 1 11 2 12 3 13 4 26 5 27 6 8 7 9 8 7 9 5 10 6 11 29 12
DOCKED: REMARK SMILES IDX 28 13 4 14 3 15 2 16 1 17 14 18 15 19 25 20 16 21 18 22
DOCKED: REMARK SMILES IDX 17 23 19 24 20 25 21 27 22 28 23 29 24 30
DOCKED: REMARK H PARENT 20 26
DOCKED: USER                              x       y       z     vdW  Elec       q    Type
DOCKED: USER                           _______ _______ _______ _____ _____    ______ ____
DOCKED: ROOT
DOCKED: ATOM      1  C   UNL     1     139.388  70.470 222.683 -0.21 +0.01    -0.037 A  
DOCKED: ATOM      2  C   UNL     1     140.031  70.170 221.468 -0.11 -0.00    +0.005 A  
DOCKED: ATOM      3  C   UNL     1     140.922  71.079 220.892 -0.14 -0.00    +0.009 A  
DOCKED: ATOM      4  C   UNL     1     141.185  72.313 221.513 -0.26 +0.00    -0.018 A  
DOCKED: ATOM      5  C   UNL     1     140.536  72.616 222.723 -0.28 -0.00    +0.009 A  
DOCKED: ATOM      6  C   UNL     1     139.646  71.706 223.299 -0.34 -0.00    +0.005 A  
DOCKED: ENDROOT
DOCKED: BRANCH   1   7
DOCKED: ATOM      7  C   UNL     1     138.405  69.501 223.309 -0.22 -0.01    +0.085 C  
DOCKED: ATOM      8  C   UNL     1     137.143  70.213 223.808 -0.23 -0.00    +0.021 C  
DOCKED: BRANCH   7   9
DOCKED: ATOM      9  C   UNL     1     139.065  68.737 224.422 -0.28 -0.02    +0.144 A  
DOCKED: ATOM     10  C   UNL     1     140.205  68.169 226.172 -0.55 -0.02    +0.084 A  
DOCKED: ATOM     11  C   UNL     1     139.903  69.260 225.385 -0.39 -0.01    +0.073 A  
DOCKED: ATOM     12  N   UNL     1     139.574  67.075 225.701 -0.82 +0.00    -0.085 NA 
DOCKED: ATOM     13  O   UNL     1     138.902  67.454 224.653 -0.61 -0.05    -0.361 OA 
DOCKED: BRANCH  10  14
DOCKED: ATOM     14  C   UNL     1     141.057  68.181 227.405 -0.61 -0.02    +0.060 C  
DOCKED: BRANCH  14  15
DOCKED: ATOM     15  C   UNL     1     140.350  68.859 228.589 -0.59 -0.00    +0.006 C  
DOCKED: BRANCH  15  16
DOCKED: ATOM     16  C   UNL     1     139.898  70.302 228.307 -0.60 +0.00    -0.003 C  
DOCKED: ATOM     17  C   UNL     1     141.062  71.229 227.959 -0.76 -0.00    +0.004 C  
DOCKED: ENDBRANCH  15  16
DOCKED: ENDBRANCH  14  15
DOCKED: ENDBRANCH  10  14
DOCKED: ENDBRANCH   7   9
DOCKED: ENDBRANCH   1   7
DOCKED: BRANCH   4  18
DOCKED: ATOM     18  C   UNL     1     142.130  73.280 220.898 -0.26 +0.00    -0.018 A  
DOCKED: ATOM     19  C   UNL     1     141.658  74.471 220.317 -0.24 -0.00    +0.009 A  
DOCKED: ATOM     20  C   UNL     1     143.513  73.018 220.882 -0.28 -0.00    +0.013 A  
DOCKED: ATOM     21  C   UNL     1     142.546  75.374 219.729 -0.30 -0.00    +0.001 A  
DOCKED: ATOM     22  C   UNL     1     144.408  73.923 220.290 -0.45 +0.01    -0.034 A  
DOCKED: ATOM     23  C   UNL     1     143.915  75.102 219.710 -0.39 -0.00    +0.005 A  
DOCKED: BRANCH  22  24
DOCKED: ATOM     24  C   UNL     1     145.879  73.606 220.243 -0.49 -0.00    +0.116 C  
DOCKED: BRANCH  24  25
DOCKED: ATOM     25  N   UNL     1     146.249  73.006 218.953 -0.66 -0.31    -0.312 NA 
DOCKED: ATOM     26  H   UNL     1     146.314  73.787 218.260 -0.47 +0.04    +0.123 HD 
DOCKED: BRANCH  25  27
DOCKED: ATOM     27  C   UNL     1     145.246  72.042 218.462 -0.19 +0.04    +0.084 C  
DOCKED: BRANCH  27  28
DOCKED: ATOM     28  C   UNL     1     145.274  70.744 219.294 -0.28 -0.00    -0.004 C  
DOCKED: ATOM     29  C   UNL     1     146.295  69.742 218.736 -0.32 +0.01    +0.009 C  
DOCKED: ATOM     30  C   UNL     1     143.879  70.109 219.338 -0.22 +0.00    +0.009 C  
DOCKED: ENDBRANCH  27  28
DOCKED: ENDBRANCH  25  27
DOCKED: ENDBRANCH  24  25
DOCKED: ENDBRANCH  22  24
DOCKED: ENDBRANCH   4  18
DOCKED: TORSDOF 10
DOCKED: TER
DOCKED: ENDMDL
________________________________________________________________________________


    FINAL DOCKED STATE:
    ________________________


Run:   11 / 20
Time taken for this run:   0.037s

DOCKED: MODEL        11
DOCKED: USER    Run = 11
DOCKED: USER
DOCKED: USER    Estimated Free Energy of Binding    =  -8.47 kcal/mol  [=(1)+(2)+(3)-(4)]
DOCKED: USER
DOCKED: USER    (1) Final Intermolecular Energy     = -11.46 kcal/mol
DOCKED: USER        vdW + Hbond + desolv Energy     = -11.41 kcal/mol
DOCKED: USER        Electrostatic Energy            =  -0.04 kcal/mol
DOCKED: USER        Moving Ligand-Fixed Receptor    = -11.46 kcal/mol
DOCKED: USER        Moving Ligand-Moving Receptor   =  +0.00 kcal/mol
DOCKED: USER    (2) Final Total Internal Energy     =  -1.66 kcal/mol
DOCKED: USER    (3) Torsional Free Energy           =  +2.98 kcal/mol
DOCKED: USER    (4) Unbound System's Energy         =  -1.66 kcal/mol
DOCKED: USER
DOCKED: USER
DOCKED: REMARK SMILES CCCCc1cc([C@@H](C)c2ccc(-c3cccc(CNCC(C)C)c3)cc2)on1
DOCKED: REMARK SMILES IDX 10 1 11 2 12 3 13 4 26 5 27 6 8 7 9 8 7 9 5 10 6 11 29 12
DOCKED: REMARK SMILES IDX 28 13 4 14 3 15 2 16 1 17 14 18 15 19 25 20 16 21 18 22
DOCKED: REMARK SMILES IDX 17 23 19 24 20 25 21 27 22 28 23 29 24 30
DOCKED: REMARK H PARENT 20 26
DOCKED: USER                              x       y       z     vdW  Elec       q    Type
DOCKED: USER                           _______ _______ _______ _____ _____    ______ ____
DOCKED: ROOT
DOCKED: ATOM      1  C   UNL     1     138.551  70.587 222.900 -0.21 +0.01    -0.037 A  
DOCKED: ATOM      2  C   UNL     1     137.730  71.612 222.393 -0.16 -0.00    +0.005 A  
DOCKED: ATOM      3  C   UNL     1     138.277  72.845 222.029 -0.17 -0.00    +0.009 A  
DOCKED: ATOM      4  C   UNL     1     139.655  73.086 222.169 -0.27 +0.00    -0.018 A  
DOCKED: ATOM      5  C   UNL     1     140.473  72.065 222.682 -0.33 -0.00    +0.009 A  
DOCKED: ATOM      6  C   UNL     1     139.927  70.831 223.045 -0.29 -0.00    +0.005 A  
DOCKED: ENDROOT
DOCKED: BRANCH   1   7
DOCKED: ATOM      7  C   UNL     1     137.969  69.251 223.316 -0.21 -0.01    +0.085 C  
DOCKED: ATOM      8  C   UNL     1     136.457  69.338 223.550 -0.19 -0.00    +0.021 C  
DOCKED: BRANCH   7   9
DOCKED: ATOM      9  C   UNL     1     138.673  68.734 224.539 -0.28 -0.01    +0.144 A  
DOCKED: ATOM     10  C   UNL     1     139.526  68.509 226.515 -0.51 -0.01    +0.084 A  
DOCKED: ATOM     11  C   UNL     1     138.869  69.423 225.718 -0.37 -0.01    +0.073 A  
DOCKED: ATOM     12  N   UNL     1     139.695  67.354 225.844 -0.79 +0.01    -0.085 NA 
DOCKED: ATOM     13  O   UNL     1     139.173  67.526 224.664 -0.73 -0.01    -0.361 OA 
DOCKED: BRANCH  10  14
DOCKED: ATOM     14  C   UNL     1     139.947  68.723 227.937 -0.59 -0.01    +0.060 C  
DOCKED: BRANCH  14  15
DOCKED: ATOM     15  C   UNL     1     141.071  69.765 228.056 -0.59 -0.00    +0.006 C  
DOCKED: BRANCH  15  16
DOCKED: ATOM     16  C   UNL     1     140.596  71.221 227.910 -0.76 +0.00    -0.003 C  
DOCKED: ATOM     17  C   UNL     1     141.134  71.895 226.650 -0.73 -0.00    +0.004 C  
DOCKED: ENDBRANCH  15  16
DOCKED: ENDBRANCH  14  15
DOCKED: ENDBRANCH  10  14
DOCKED: ENDBRANCH   7   9
DOCKED: ENDBRANCH   1   7
DOCKED: BRANCH   4  18
DOCKED: ATOM     18  C   UNL     1     140.234  74.399 221.785 -0.26 +0.00    -0.018 A  
DOCKED: ATOM     19  C   UNL     1     139.693  75.595 222.291 -0.30 -0.00    +0.009 A  
DOCKED: ATOM     20  C   UNL     1     141.329  74.467 220.903 -0.28 -0.00    +0.013 A  
DOCKED: ATOM     21  C   UNL     1     140.232  76.829 221.919 -0.36 -0.00    +0.001 A  
DOCKED: ATOM     22  C   UNL     1     141.871  75.706 220.526 -0.27 +0.02    -0.034 A  
DOCKED: ATOM     23  C   UNL     1     141.313  76.888 221.038 -0.30 -0.00    +0.005 A  
DOCKED: BRANCH  22  24
DOCKED: ATOM     24  C   UNL     1     143.014  75.763 219.549 -0.31 -0.06    +0.116 C  
DOCKED: BRANCH  24  25
DOCKED: ATOM     25  N   UNL     1     143.722  74.475 219.490 -0.16 +0.12    -0.312 NA 
DOCKED: ATOM     26  H   UNL     1     143.001  73.738 219.317 +0.05 -0.03    +0.123 HD 
DOCKED: BRANCH  25  27
DOCKED: ATOM     27  C   UNL     1     144.418  74.147 220.749 -0.35 -0.03    +0.084 C  
DOCKED: BRANCH  27  28
DOCKED: ATOM     28  C   UNL     1     145.808  73.540 220.469 -0.64 +0.00    -0.004 C  
DOCKED: ATOM     29  C   UNL     1     145.696  72.205 219.720 -0.39 +0.00    +0.009 C  
DOCKED: ATOM     30  C   UNL     1     146.578  73.349 221.781 -0.66 -0.00    +0.009 C  
DOCKED: ENDBRANCH  27  28
DOCKED: ENDBRANCH  25  27
DOCKED: ENDBRANCH  24  25
DOCKED: ENDBRANCH  22  24
DOCKED: ENDBRANCH   4  18
DOCKED: TORSDOF 10
DOCKED: TER
DOCKED: ENDMDL
________________________________________________________________________________


    FINAL DOCKED STATE:
    ________________________


Run:   12 / 20
Time taken for this run:   0.037s

DOCKED: MODEL        12
DOCKED: USER    Run = 12
DOCKED: USER
DOCKED: USER    Estimated Free Energy of Binding    =  -9.16 kcal/mol  [=(1)+(2)+(3)-(4)]
DOCKED: USER
DOCKED: USER    (1) Final Intermolecular Energy     = -12.15 kcal/mol
DOCKED: USER        vdW + Hbond + desolv Energy     = -12.05 kcal/mol
DOCKED: USER        Electrostatic Energy            =  -0.09 kcal/mol
DOCKED: USER        Moving Ligand-Fixed Receptor    = -12.15 kcal/mol
DOCKED: USER        Moving Ligand-Moving Receptor   =  +0.00 kcal/mol
DOCKED: USER    (2) Final Total Internal Energy     =  -1.53 kcal/mol
DOCKED: USER    (3) Torsional Free Energy           =  +2.98 kcal/mol
DOCKED: USER    (4) Unbound System's Energy         =  -1.53 kcal/mol
DOCKED: USER
DOCKED: USER
DOCKED: REMARK SMILES CCCCc1cc([C@@H](C)c2ccc(-c3cccc(CNCC(C)C)c3)cc2)on1
DOCKED: REMARK SMILES IDX 10 1 11 2 12 3 13 4 26 5 27 6 8 7 9 8 7 9 5 10 6 11 29 12
DOCKED: REMARK SMILES IDX 28 13 4 14 3 15 2 16 1 17 14 18 15 19 25 20 16 21 18 22
DOCKED: REMARK SMILES IDX 17 23 19 24 20 25 21 27 22 28 23 29 24 30
DOCKED: REMARK H PARENT 20 26
DOCKED: USER                              x       y       z     vdW  Elec       q    Type
DOCKED: USER                           _______ _______ _______ _____ _____    ______ ____
DOCKED: ROOT
DOCKED: ATOM      1  C   UNL     1     139.075  70.244 222.868 -0.21 +0.01    -0.037 A  
DOCKED: ATOM      2  C   UNL     1     139.489  71.343 223.644 -0.36 -0.00    +0.005 A  
DOCKED: ATOM      3  C   UNL     1     140.285  72.347 223.086 -0.31 -0.00    +0.009 A  
DOCKED: ATOM      4  C   UNL     1     140.692  72.273 221.743 -0.27 +0.00    -0.018 A  
DOCKED: ATOM      5  C   UNL     1     140.285  71.171 220.970 -0.15 -0.00    +0.009 A  
DOCKED: ATOM      6  C   UNL     1     139.488  70.168 221.527 -0.15 -0.00    +0.005 A  
DOCKED: ENDROOT
DOCKED: BRANCH   1   7
DOCKED: ATOM      7  C   UNL     1     138.227  69.139 223.464 -0.23 -0.01    +0.085 C  
DOCKED: ATOM      8  C   UNL     1     136.783  69.594 223.699 -0.21 -0.00    +0.021 C  
DOCKED: BRANCH   7   9
DOCKED: ATOM      9  C   UNL     1     138.846  68.637 224.738 -0.31 -0.01    +0.144 A  
DOCKED: ATOM     10  C   UNL     1     139.618  68.459 226.752 -0.53 -0.01    +0.084 A  
DOCKED: ATOM     11  C   UNL     1     139.070  69.377 225.881 -0.39 -0.01    +0.073 A  
DOCKED: ATOM     12  N   UNL     1     139.700  67.254 226.156 -0.71 +0.01    -0.085 NA 
DOCKED: ATOM     13  O   UNL     1     139.230  67.399 224.951 -0.81 -0.02    -0.361 OA 
DOCKED: BRANCH  10  14
DOCKED: ATOM     14  C   UNL     1     140.016  68.722 228.173 -0.58 -0.01    +0.060 C  
DOCKED: BRANCH  14  15
DOCKED: ATOM     15  C   UNL     1     141.083  69.823 228.279 -0.55 -0.00    +0.006 C  
DOCKED: BRANCH  15  16
DOCKED: ATOM     16  C   UNL     1     140.548  71.243 228.025 -0.75 +0.00    -0.003 C  
DOCKED: ATOM     17  C   UNL     1     141.178  71.902 226.799 -0.75 -0.00    +0.004 C  
DOCKED: ENDBRANCH  15  16
DOCKED: ENDBRANCH  14  15
DOCKED: ENDBRANCH  10  14
DOCKED: ENDBRANCH   7   9
DOCKED: ENDBRANCH   1   7
DOCKED: BRANCH   4  18
DOCKED: ATOM     18  C   UNL     1     141.541  73.340 221.153 -0.27 +0.00    -0.018 A  
DOCKED: ATOM     19  C   UNL     1     142.880  73.079 220.806 -0.28 -0.00    +0.009 A  
DOCKED: ATOM     20  C   UNL     1     141.022  74.630 220.936 -0.28 -0.00    +0.013 A  
DOCKED: ATOM     21  C   UNL     1     143.680  74.086 220.262 -0.38 -0.00    +0.001 A  
DOCKED: ATOM     22  C   UNL     1     141.825  75.644 220.391 -0.27 +0.01    -0.034 A  
DOCKED: ATOM     23  C   UNL     1     143.159  75.365 220.058 -0.37 -0.00    +0.005 A  
DOCKED: BRANCH  22  24
DOCKED: ATOM     24  C   UNL     1     141.266  77.029 220.206 -0.21 -0.05    +0.116 C  
DOCKED: BRANCH  24  25
DOCKED: ATOM     25  N   UNL     1     141.800  77.954 221.217 -0.15 +0.20    -0.312 NA 
DOCKED: ATOM     26  H   UNL     1     142.804  77.699 221.364 -0.48 -0.14    +0.123 HD 
DOCKED: BRANCH  25  27
DOCKED: ATOM     27  C   UNL     1     141.108  77.845 222.515 -0.40 -0.03    +0.084 C  
DOCKED: BRANCH  27  28
DOCKED: ATOM     28  C   UNL     1     141.431  79.055 223.416 -0.60 +0.00    -0.004 C  
DOCKED: ATOM     29  C   UNL     1     140.248  80.032 223.487 -0.47 -0.00    +0.009 C  
DOCKED: ATOM     30  C   UNL     1     142.684  79.777 222.908 -0.63 -0.00    +0.009 C  
DOCKED: ENDBRANCH  27  28
DOCKED: ENDBRANCH  25  27
DOCKED: ENDBRANCH  24  25
DOCKED: ENDBRANCH  22  24
DOCKED: ENDBRANCH   4  18
DOCKED: TORSDOF 10
DOCKED: TER
DOCKED: ENDMDL
________________________________________________________________________________


    FINAL DOCKED STATE:
    ________________________


Run:   13 / 20
Time taken for this run:   0.037s

DOCKED: MODEL        13
DOCKED: USER    Run = 13
DOCKED: USER
DOCKED: USER    Estimated Free Energy of Binding    =  -8.92 kcal/mol  [=(1)+(2)+(3)-(4)]
DOCKED: USER
DOCKED: USER    (1) Final Intermolecular Energy     = -11.90 kcal/mol
DOCKED: USER        vdW + Hbond + desolv Energy     = -11.82 kcal/mol
DOCKED: USER        Electrostatic Energy            =  -0.09 kcal/mol
DOCKED: USER        Moving Ligand-Fixed Receptor    = -11.90 kcal/mol
DOCKED: USER        Moving Ligand-Moving Receptor   =  +0.00 kcal/mol
DOCKED: USER    (2) Final Total Internal Energy     =  -1.51 kcal/mol
DOCKED: USER    (3) Torsional Free Energy           =  +2.98 kcal/mol
DOCKED: USER    (4) Unbound System's Energy         =  -1.51 kcal/mol
DOCKED: USER
DOCKED: USER
DOCKED: REMARK SMILES CCCCc1cc([C@@H](C)c2ccc(-c3cccc(CNCC(C)C)c3)cc2)on1
DOCKED: REMARK SMILES IDX 10 1 11 2 12 3 13 4 26 5 27 6 8 7 9 8 7 9 5 10 6 11 29 12
DOCKED: REMARK SMILES IDX 28 13 4 14 3 15 2 16 1 17 14 18 15 19 25 20 16 21 18 22
DOCKED: REMARK SMILES IDX 17 23 19 24 20 25 21 27 22 28 23 29 24 30
DOCKED: REMARK H PARENT 20 26
DOCKED: USER                              x       y       z     vdW  Elec       q    Type
DOCKED: USER                           _______ _______ _______ _____ _____    ______ ____
DOCKED: ROOT
DOCKED: ATOM      1  C   UNL     1     139.109  70.527 222.754 -0.21 +0.01    -0.037 A  
DOCKED: ATOM      2  C   UNL     1     139.762  71.476 223.563 -0.38 -0.00    +0.005 A  
DOCKED: ATOM      3  C   UNL     1     140.657  72.392 223.003 -0.22 -0.00    +0.009 A  
DOCKED: ATOM      4  C   UNL     1     140.926  72.376 221.623 -0.27 +0.00    -0.018 A  
DOCKED: ATOM      5  C   UNL     1     140.280  71.423 220.817 -0.14 -0.00    +0.009 A  
DOCKED: ATOM      6  C   UNL     1     139.384  70.508 221.377 -0.14 -0.00    +0.005 A  
DOCKED: ENDROOT
DOCKED: BRANCH   1   7
DOCKED: ATOM      7  C   UNL     1     138.151  69.517 223.351 -0.22 -0.01    +0.085 C  
DOCKED: ATOM      8  C   UNL     1     136.807  70.155 223.718 -0.21 -0.00    +0.021 C  
DOCKED: BRANCH   7   9
DOCKED: ATOM      9  C   UNL     1     138.773  68.851 224.546 -0.29 -0.02    +0.144 A  
DOCKED: ATOM     10  C   UNL     1     139.580  68.417 226.506 -0.53 -0.01    +0.084 A  
DOCKED: ATOM     11  C   UNL     1     139.058  69.449 225.755 -0.38 -0.01    +0.073 A  
DOCKED: ATOM     12  N   UNL     1     139.591  67.282 225.781 -0.85 +0.00    -0.085 NA 
DOCKED: ATOM     13  O   UNL     1     139.102  67.581 224.612 -0.69 -0.01    -0.361 OA 
DOCKED: BRANCH  10  14
DOCKED: ATOM     14  C   UNL     1     140.022  68.504 227.935 -0.60 -0.01    +0.060 C  
DOCKED: BRANCH  14  15
DOCKED: ATOM     15  C   UNL     1     141.022  69.649 228.162 -0.59 -0.00    +0.006 C  
DOCKED: BRANCH  15  16
DOCKED: ATOM     16  C   UNL     1     140.388  71.051 228.128 -0.69 +0.00    -0.003 C  
DOCKED: ATOM     17  C   UNL     1     141.164  72.029 227.246 -0.80 -0.00    +0.004 C  
DOCKED: ENDBRANCH  15  16
DOCKED: ENDBRANCH  14  15
DOCKED: ENDBRANCH  10  14
DOCKED: ENDBRANCH   7   9
DOCKED: ENDBRANCH   1   7
DOCKED: BRANCH   4  18
DOCKED: ATOM     18  C   UNL     1     141.880  73.348 221.030 -0.25 +0.00    -0.018 A  
DOCKED: ATOM     19  C   UNL     1     143.235  73.009 220.862 -0.28 -0.00    +0.009 A  
DOCKED: ATOM     20  C   UNL     1     141.444  74.626 220.632 -0.26 -0.00    +0.013 A  
DOCKED: ATOM     21  C   UNL     1     144.133  73.928 220.314 -0.44 -0.00    +0.001 A  
DOCKED: ATOM     22  C   UNL     1     142.345  75.552 220.083 -0.30 +0.02    -0.034 A  
DOCKED: ATOM     23  C   UNL     1     143.694  75.196 219.930 -0.41 -0.00    +0.005 A  
DOCKED: BRANCH  22  24
DOCKED: ATOM     24  C   UNL     1     141.872  76.929 219.703 -0.24 -0.06    +0.116 C  
DOCKED: BRANCH  24  25
DOCKED: ATOM     25  N   UNL     1     142.112  77.890 220.790 -0.12 +0.23    -0.312 NA 
DOCKED: ATOM     26  H   UNL     1     143.052  77.667 221.191 -0.50 -0.16    +0.123 HD 
DOCKED: BRANCH  25  27
DOCKED: ATOM     27  C   UNL     1     141.118  77.787 221.874 -0.35 -0.04    +0.084 C  
DOCKED: BRANCH  27  28
DOCKED: ATOM     28  C   UNL     1     140.994  79.122 222.637 -0.47 +0.00    -0.004 C  
DOCKED: ATOM     29  C   UNL     1     142.210  79.364 223.543 -0.61 -0.00    +0.009 C  
DOCKED: ATOM     30  C   UNL     1     139.704  79.143 223.466 -0.40 -0.00    +0.009 C  
DOCKED: ENDBRANCH  27  28
DOCKED: ENDBRANCH  25  27
DOCKED: ENDBRANCH  24  25
DOCKED: ENDBRANCH  22  24
DOCKED: ENDBRANCH   4  18
DOCKED: TORSDOF 10
DOCKED: TER
DOCKED: ENDMDL
________________________________________________________________________________


    FINAL DOCKED STATE:
    ________________________


Run:   14 / 20
Time taken for this run:   0.037s

DOCKED: MODEL        14
DOCKED: USER    Run = 14
DOCKED: USER
DOCKED: USER    Estimated Free Energy of Binding    =  -8.70 kcal/mol  [=(1)+(2)+(3)-(4)]
DOCKED: USER
DOCKED: USER    (1) Final Intermolecular Energy     = -11.68 kcal/mol
DOCKED: USER        vdW + Hbond + desolv Energy     = -11.64 kcal/mol
DOCKED: USER        Electrostatic Energy            =  -0.04 kcal/mol
DOCKED: USER        Moving Ligand-Fixed Receptor    = -11.68 kcal/mol
DOCKED: USER        Moving Ligand-Moving Receptor   =  +0.00 kcal/mol
DOCKED: USER    (2) Final Total Internal Energy     =  -1.68 kcal/mol
DOCKED: USER    (3) Torsional Free Energy           =  +2.98 kcal/mol
DOCKED: USER    (4) Unbound System's Energy         =  -1.68 kcal/mol
DOCKED: USER
DOCKED: USER
DOCKED: REMARK SMILES CCCCc1cc([C@@H](C)c2ccc(-c3cccc(CNCC(C)C)c3)cc2)on1
DOCKED: REMARK SMILES IDX 10 1 11 2 12 3 13 4 26 5 27 6 8 7 9 8 7 9 5 10 6 11 29 12
DOCKED: REMARK SMILES IDX 28 13 4 14 3 15 2 16 1 17 14 18 15 19 25 20 16 21 18 22
DOCKED: REMARK SMILES IDX 17 23 19 24 20 25 21 27 22 28 23 29 24 30
DOCKED: REMARK H PARENT 20 26
DOCKED: USER                              x       y       z     vdW  Elec       q    Type
DOCKED: USER                           _______ _______ _______ _____ _____    ______ ____
DOCKED: ROOT
DOCKED: ATOM      1  C   UNL     1     138.570  70.476 223.039 -0.22 +0.01    -0.037 A  
DOCKED: ATOM      2  C   UNL     1     137.720  71.513 222.611 -0.17 -0.00    +0.005 A  
DOCKED: ATOM      3  C   UNL     1     138.247  72.736 222.190 -0.15 -0.00    +0.009 A  
DOCKED: ATOM      4  C   UNL     1     139.636  72.956 222.195 -0.27 +0.00    -0.018 A  
DOCKED: ATOM      5  C   UNL     1     140.484  71.923 222.630 -0.33 -0.00    +0.009 A  
DOCKED: ATOM      6  C   UNL     1     139.957  70.699 223.050 -0.26 -0.00    +0.005 A  
DOCKED: ENDROOT
DOCKED: BRANCH   1   7
DOCKED: ATOM      7  C   UNL     1     138.011  69.151 223.515 -0.23 -0.01    +0.085 C  
DOCKED: ATOM      8  C   UNL     1     136.495  69.217 223.730 -0.20 -0.00    +0.021 C  
DOCKED: BRANCH   7   9
DOCKED: ATOM      9  C   UNL     1     138.712  68.710 224.770 -0.30 -0.01    +0.144 A  
DOCKED: ATOM     10  C   UNL     1     139.577  68.615 226.751 -0.51 -0.01    +0.084 A  
DOCKED: ATOM     11  C   UNL     1     138.940  69.483 225.889 -0.36 -0.01    +0.073 A  
DOCKED: ATOM     12  N   UNL     1     139.706  67.406 226.171 -0.71 +0.01    -0.085 NA 
DOCKED: ATOM     13  O   UNL     1     139.177  67.501 224.985 -0.79 -0.02    -0.361 OA 
DOCKED: BRANCH  10  14
DOCKED: ATOM     14  C   UNL     1     140.019  68.927 228.148 -0.59 -0.01    +0.060 C  
DOCKED: BRANCH  14  15
DOCKED: ATOM     15  C   UNL     1     141.226  69.877 228.174 -0.47 -0.00    +0.006 C  
DOCKED: BRANCH  15  16
DOCKED: ATOM     16  C   UNL     1     140.863  71.358 227.966 -0.79 +0.00    -0.003 C  
DOCKED: ATOM     17  C   UNL     1     141.076  71.823 226.527 -0.72 -0.00    +0.004 C  
DOCKED: ENDBRANCH  15  16
DOCKED: ENDBRANCH  14  15
DOCKED: ENDBRANCH  10  14
DOCKED: ENDBRANCH   7   9
DOCKED: ENDBRANCH   1   7
DOCKED: BRANCH   4  18
DOCKED: ATOM     18  C   UNL     1     140.195  74.259 221.750 -0.27 +0.00    -0.018 A  
DOCKED: ATOM     19  C   UNL     1     139.756  75.462 222.333 -0.25 -0.00    +0.009 A  
DOCKED: ATOM     20  C   UNL     1     141.168  74.310 220.734 -0.25 -0.00    +0.013 A  
DOCKED: ATOM     21  C   UNL     1     140.275  76.686 221.906 -0.37 -0.00    +0.001 A  
DOCKED: ATOM     22  C   UNL     1     141.689  75.540 220.302 -0.25 +0.01    -0.034 A  
DOCKED: ATOM     23  C   UNL     1     141.233  76.729 220.893 -0.30 -0.00    +0.005 A  
DOCKED: BRANCH  22  24
DOCKED: ATOM     24  C   UNL     1     142.697  75.580 219.185 -0.25 -0.05    +0.116 C  
DOCKED: BRANCH  24  25
DOCKED: ATOM     25  N   UNL     1     144.065  75.427 219.702 -0.21 +0.19    -0.312 NA 
DOCKED: ATOM     26  H   UNL     1     144.698  75.352 218.873 -0.33 -0.10    +0.123 HD 
DOCKED: BRANCH  25  27
DOCKED: ATOM     27  C   UNL     1     144.235  74.209 220.517 -0.39 -0.03    +0.084 C  
DOCKED: BRANCH  27  28
DOCKED: ATOM     28  C   UNL     1     145.629  73.587 220.296 -0.59 +0.00    -0.004 C  
DOCKED: ATOM     29  C   UNL     1     145.532  72.244 219.557 -0.38 +0.00    +0.009 C  
DOCKED: ATOM     30  C   UNL     1     146.349  73.403 221.637 -0.72 -0.00    +0.009 C  
DOCKED: ENDBRANCH  27  28
DOCKED: ENDBRANCH  25  27
DOCKED: ENDBRANCH  24  25
DOCKED: ENDBRANCH  22  24
DOCKED: ENDBRANCH   4  18
DOCKED: TORSDOF 10
DOCKED: TER
DOCKED: ENDMDL
________________________________________________________________________________


    FINAL DOCKED STATE:
    ________________________


Run:   15 / 20
Time taken for this run:   0.037s

DOCKED: MODEL        15
DOCKED: USER    Run = 15
DOCKED: USER
DOCKED: USER    Estimated Free Energy of Binding    =  -8.95 kcal/mol  [=(1)+(2)+(3)-(4)]
DOCKED: USER
DOCKED: USER    (1) Final Intermolecular Energy     = -11.93 kcal/mol
DOCKED: USER        vdW + Hbond + desolv Energy     = -11.86 kcal/mol
DOCKED: USER        Electrostatic Energy            =  -0.07 kcal/mol
DOCKED: USER        Moving Ligand-Fixed Receptor    = -11.93 kcal/mol
DOCKED: USER        Moving Ligand-Moving Receptor   =  +0.00 kcal/mol
DOCKED: USER    (2) Final Total Internal Energy     =  -1.57 kcal/mol
DOCKED: USER    (3) Torsional Free Energy           =  +2.98 kcal/mol
DOCKED: USER    (4) Unbound System's Energy         =  -1.57 kcal/mol
DOCKED: USER
DOCKED: USER
DOCKED: REMARK SMILES CCCCc1cc([C@@H](C)c2ccc(-c3cccc(CNCC(C)C)c3)cc2)on1
DOCKED: REMARK SMILES IDX 10 1 11 2 12 3 13 4 26 5 27 6 8 7 9 8 7 9 5 10 6 11 29 12
DOCKED: REMARK SMILES IDX 28 13 4 14 3 15 2 16 1 17 14 18 15 19 25 20 16 21 18 22
DOCKED: REMARK SMILES IDX 17 23 19 24 20 25 21 27 22 28 23 29 24 30
DOCKED: REMARK H PARENT 20 26
DOCKED: USER                              x       y       z     vdW  Elec       q    Type
DOCKED: USER                           _______ _______ _______ _____ _____    ______ ____
DOCKED: ROOT
DOCKED: ATOM      1  C   UNL     1     139.135  70.415 222.683 -0.20 +0.01    -0.037 A  
DOCKED: ATOM      2  C   UNL     1     139.514  71.541 223.438 -0.35 -0.00    +0.005 A  
DOCKED: ATOM      3  C   UNL     1     140.376  72.500 222.900 -0.28 -0.00    +0.009 A  
DOCKED: ATOM      4  C   UNL     1     140.887  72.352 221.599 -0.27 +0.00    -0.018 A  
DOCKED: ATOM      5  C   UNL     1     140.515  71.223 220.848 -0.15 -0.00    +0.009 A  
DOCKED: ATOM      6  C   UNL     1     139.651  70.266 221.385 -0.14 -0.00    +0.005 A  
DOCKED: ENDROOT
DOCKED: BRANCH   1   7
DOCKED: ATOM      7  C   UNL     1     138.214  69.359 223.260 -0.22 -0.01    +0.085 C  
DOCKED: ATOM      8  C   UNL     1     136.810  69.911 223.525 -0.19 -0.00    +0.021 C  
DOCKED: BRANCH   7   9
DOCKED: ATOM      9  C   UNL     1     138.808  68.778 224.513 -0.29 -0.01    +0.144 A  
DOCKED: ATOM     10  C   UNL     1     139.552  68.478 226.522 -0.52 -0.01    +0.084 A  
DOCKED: ATOM     11  C   UNL     1     139.033  69.452 225.695 -0.38 -0.01    +0.073 A  
DOCKED: ATOM     12  N   UNL     1     139.618  67.305 225.864 -0.81 +0.01    -0.085 NA 
DOCKED: ATOM     13  O   UNL     1     139.165  67.523 224.664 -0.72 -0.01    -0.361 OA 
DOCKED: BRANCH  10  14
DOCKED: ATOM     14  C   UNL     1     139.939  68.658 227.959 -0.59 -0.01    +0.060 C  
DOCKED: BRANCH  14  15
DOCKED: ATOM     15  C   UNL     1     141.055  69.700 228.131 -0.59 -0.00    +0.006 C  
DOCKED: BRANCH  15  16
DOCKED: ATOM     16  C   UNL     1     140.575  71.158 228.019 -0.74 +0.00    -0.003 C  
DOCKED: ATOM     17  C   UNL     1     141.149  71.877 226.799 -0.76 -0.00    +0.004 C  
DOCKED: ENDBRANCH  15  16
DOCKED: ENDBRANCH  14  15
DOCKED: ENDBRANCH  10  14
DOCKED: ENDBRANCH   7   9
DOCKED: ENDBRANCH   1   7
DOCKED: BRANCH   4  18
DOCKED: ATOM     18  C   UNL     1     141.807  73.370 221.030 -0.26 +0.00    -0.018 A  
DOCKED: ATOM     19  C   UNL     1     143.170  73.077 220.842 -0.29 -0.00    +0.009 A  
DOCKED: ATOM     20  C   UNL     1     141.331  74.646 220.675 -0.26 -0.00    +0.013 A  
DOCKED: ATOM     21  C   UNL     1     144.036  74.040 220.318 -0.43 -0.00    +0.001 A  
DOCKED: ATOM     22  C   UNL     1     142.199  75.616 220.150 -0.29 +0.02    -0.034 A  
DOCKED: ATOM     23  C   UNL     1     143.557  75.305 219.976 -0.40 -0.00    +0.005 A  
DOCKED: BRANCH  22  24
DOCKED: ATOM     24  C   UNL     1     141.682  76.989 219.816 -0.22 -0.06    +0.116 C  
DOCKED: BRANCH  24  25
DOCKED: ATOM     25  N   UNL     1     141.995  77.947 220.887 -0.13 +0.21    -0.312 NA 
DOCKED: ATOM     26  H   UNL     1     142.567  77.434 221.597 -0.49 -0.14    +0.123 HD 
DOCKED: BRANCH  25  27
DOCKED: ATOM     27  C   UNL     1     140.790  78.466 221.560 -0.29 -0.03    +0.084 C  
DOCKED: BRANCH  27  28
DOCKED: ATOM     28  C   UNL     1     141.168  79.437 222.698 -0.49 +0.00    -0.004 C  
DOCKED: ATOM     29  C   UNL     1     142.112  80.541 222.200 -0.53 -0.00    +0.009 C  
DOCKED: ATOM     30  C   UNL     1     141.813  78.671 223.858 -0.59 -0.00    +0.009 C  
DOCKED: ENDBRANCH  27  28
DOCKED: ENDBRANCH  25  27
DOCKED: ENDBRANCH  24  25
DOCKED: ENDBRANCH  22  24
DOCKED: ENDBRANCH   4  18
DOCKED: TORSDOF 10
DOCKED: TER
DOCKED: ENDMDL
________________________________________________________________________________


    FINAL DOCKED STATE:
    ________________________


Run:   16 / 20
Time taken for this run:   0.037s

DOCKED: MODEL        16
DOCKED: USER    Run = 16
DOCKED: USER
DOCKED: USER    Estimated Free Energy of Binding    =  -8.87 kcal/mol  [=(1)+(2)+(3)-(4)]
DOCKED: USER
DOCKED: USER    (1) Final Intermolecular Energy     = -11.85 kcal/mol
DOCKED: USER        vdW + Hbond + desolv Energy     = -11.77 kcal/mol
DOCKED: USER        Electrostatic Energy            =  -0.08 kcal/mol
DOCKED: USER        Moving Ligand-Fixed Receptor    = -11.85 kcal/mol
DOCKED: USER        Moving Ligand-Moving Receptor   =  +0.00 kcal/mol
DOCKED: USER    (2) Final Total Internal Energy     =  -1.41 kcal/mol
DOCKED: USER    (3) Torsional Free Energy           =  +2.98 kcal/mol
DOCKED: USER    (4) Unbound System's Energy         =  -1.41 kcal/mol
DOCKED: USER
DOCKED: USER
DOCKED: REMARK SMILES CCCCc1cc([C@@H](C)c2ccc(-c3cccc(CNCC(C)C)c3)cc2)on1
DOCKED: REMARK SMILES IDX 10 1 11 2 12 3 13 4 26 5 27 6 8 7 9 8 7 9 5 10 6 11 29 12
DOCKED: REMARK SMILES IDX 28 13 4 14 3 15 2 16 1 17 14 18 15 19 25 20 16 21 18 22
DOCKED: REMARK SMILES IDX 17 23 19 24 20 25 21 27 22 28 23 29 24 30
DOCKED: REMARK H PARENT 20 26
DOCKED: USER                              x       y       z     vdW  Elec       q    Type
DOCKED: USER                           _______ _______ _______ _____ _____    ______ ____
DOCKED: ROOT
DOCKED: ATOM      1  C   UNL     1     139.037  70.328 222.645 -0.20 +0.01    -0.037 A  
DOCKED: ATOM      2  C   UNL     1     139.731  70.159 221.433 -0.14 -0.00    +0.005 A  
DOCKED: ATOM      3  C   UNL     1     140.543  71.179 220.931 -0.15 -0.00    +0.009 A  
DOCKED: ATOM      4  C   UNL     1     140.673  72.395 221.624 -0.26 +0.00    -0.018 A  
DOCKED: ATOM      5  C   UNL     1     139.973  72.567 222.830 -0.28 -0.00    +0.009 A  
DOCKED: ATOM      6  C   UNL     1     139.163  71.546 223.333 -0.30 -0.00    +0.005 A  
DOCKED: ENDROOT
DOCKED: BRANCH   1   7
DOCKED: ATOM      7  C   UNL     1     138.139  69.237 223.193 -0.21 -0.01    +0.085 C  
DOCKED: ATOM      8  C   UNL     1     136.706  69.735 223.411 -0.18 -0.00    +0.021 C  
DOCKED: BRANCH   7   9
DOCKED: ATOM      9  C   UNL     1     138.713  68.679 224.465 -0.28 -0.01    +0.144 A  
DOCKED: ATOM     10  C   UNL     1     139.361  68.391 226.509 -0.49 -0.01    +0.084 A  
DOCKED: ATOM     11  C   UNL     1     138.795  69.333 225.677 -0.37 -0.01    +0.073 A  
DOCKED: ATOM     12  N   UNL     1     139.589  67.253 225.825 -0.83 +0.00    -0.085 NA 
DOCKED: ATOM     13  O   UNL     1     139.189  67.463 224.605 -0.73 -0.01    -0.361 OA 
DOCKED: BRANCH  10  14
DOCKED: ATOM     14  C   UNL     1     139.639  68.561 227.972 -0.48 -0.01    +0.060 C  
DOCKED: BRANCH  14  15
DOCKED: ATOM     15  C   UNL     1     140.724  69.617 228.235 -0.60 -0.00    +0.006 C  
DOCKED: BRANCH  15  16
DOCKED: ATOM     16  C   UNL     1     141.081  70.470 227.004 -0.61 +0.00    -0.003 C  
DOCKED: ATOM     17  C   UNL     1     141.049  71.969 227.295 -0.81 -0.00    +0.004 C  
DOCKED: ENDBRANCH  15  16
DOCKED: ENDBRANCH  14  15
DOCKED: ENDBRANCH  10  14
DOCKED: ENDBRANCH   7   9
DOCKED: ENDBRANCH   1   7
DOCKED: BRANCH   4  18
DOCKED: ATOM     18  C   UNL     1     141.534  73.481 221.086 -0.27 +0.00    -0.018 A  
DOCKED: ATOM     19  C   UNL     1     142.881  73.232 220.766 -0.28 -0.00    +0.009 A  
DOCKED: ATOM     20  C   UNL     1     141.017  74.776 220.896 -0.28 -0.00    +0.013 A  
DOCKED: ATOM     21  C   UNL     1     143.692  74.256 220.271 -0.39 -0.00    +0.001 A  
DOCKED: ATOM     22  C   UNL     1     141.831  75.808 220.401 -0.27 +0.02    -0.034 A  
DOCKED: ATOM     23  C   UNL     1     143.174  75.540 220.093 -0.35 -0.00    +0.005 A  
DOCKED: BRANCH  22  24
DOCKED: ATOM     24  C   UNL     1     141.274  77.197 220.244 -0.22 -0.05    +0.116 C  
DOCKED: BRANCH  24  25
DOCKED: ATOM     25  N   UNL     1     141.787  78.093 221.291 -0.15 +0.19    -0.312 NA 
DOCKED: ATOM     26  H   UNL     1     142.795  77.850 221.434 -0.50 -0.14    +0.123 HD 
DOCKED: BRANCH  25  27
DOCKED: ATOM     27  C   UNL     1     141.090  77.925 222.581 -0.42 -0.03    +0.084 C  
DOCKED: BRANCH  27  28
DOCKED: ATOM     28  C   UNL     1     141.336  79.135 223.503 -0.59 +0.00    -0.004 C  
DOCKED: ATOM     29  C   UNL     1     140.148  80.108 223.479 -0.46 -0.00    +0.009 C  
DOCKED: ATOM     30  C   UNL     1     142.623  79.862 223.097 -0.65 -0.00    +0.009 C  
DOCKED: ENDBRANCH  27  28
DOCKED: ENDBRANCH  25  27
DOCKED: ENDBRANCH  24  25
DOCKED: ENDBRANCH  22  24
DOCKED: ENDBRANCH   4  18
DOCKED: TORSDOF 10
DOCKED: TER
DOCKED: ENDMDL
________________________________________________________________________________


    FINAL DOCKED STATE:
    ________________________


Run:   17 / 20
Time taken for this run:   0.037s

DOCKED: MODEL        17
DOCKED: USER    Run = 17
DOCKED: USER
DOCKED: USER    Estimated Free Energy of Binding    =  -8.43 kcal/mol  [=(1)+(2)+(3)-(4)]
DOCKED: USER
DOCKED: USER    (1) Final Intermolecular Energy     = -11.41 kcal/mol
DOCKED: USER        vdW + Hbond + desolv Energy     = -11.35 kcal/mol
DOCKED: USER        Electrostatic Energy            =  -0.06 kcal/mol
DOCKED: USER        Moving Ligand-Fixed Receptor    = -11.41 kcal/mol
DOCKED: USER        Moving Ligand-Moving Receptor   =  +0.00 kcal/mol
DOCKED: USER    (2) Final Total Internal Energy     =  -1.51 kcal/mol
DOCKED: USER    (3) Torsional Free Energy           =  +2.98 kcal/mol
DOCKED: USER    (4) Unbound System's Energy         =  -1.51 kcal/mol
DOCKED: USER
DOCKED: USER
DOCKED: REMARK SMILES CCCCc1cc([C@@H](C)c2ccc(-c3cccc(CNCC(C)C)c3)cc2)on1
DOCKED: REMARK SMILES IDX 10 1 11 2 12 3 13 4 26 5 27 6 8 7 9 8 7 9 5 10 6 11 29 12
DOCKED: REMARK SMILES IDX 28 13 4 14 3 15 2 16 1 17 14 18 15 19 25 20 16 21 18 22
DOCKED: REMARK SMILES IDX 17 23 19 24 20 25 21 27 22 28 23 29 24 30
DOCKED: REMARK H PARENT 20 26
DOCKED: USER                              x       y       z     vdW  Elec       q    Type
DOCKED: USER                           _______ _______ _______ _____ _____    ______ ____
DOCKED: ROOT
DOCKED: ATOM      1  C   UNL     1     138.474  70.947 222.959 -0.22 +0.01    -0.037 A  
DOCKED: ATOM      2  C   UNL     1     137.873  72.120 222.466 -0.17 -0.00    +0.005 A  
DOCKED: ATOM      3  C   UNL     1     138.652  73.138 221.911 -0.19 -0.00    +0.009 A  
DOCKED: ATOM      4  C   UNL     1     140.050  73.012 221.844 -0.28 +0.00    -0.018 A  
DOCKED: ATOM      5  C   UNL     1     140.651  71.844 222.344 -0.31 -0.00    +0.009 A  
DOCKED: ATOM      6  C   UNL     1     139.872  70.825 222.897 -0.27 -0.00    +0.005 A  
DOCKED: ENDROOT
DOCKED: BRANCH   1   7
DOCKED: ATOM      7  C   UNL     1     137.643  69.842 223.580 -0.21 -0.01    +0.085 C  
DOCKED: ATOM      8  C   UNL     1     136.415  70.396 224.311 -0.21 -0.00    +0.021 C  
DOCKED: BRANCH   7   9
DOCKED: ATOM      9  C   UNL     1     138.488  69.011 224.504 -0.28 -0.01    +0.144 A  
DOCKED: ATOM     10  C   UNL     1     139.652  68.284 226.177 -0.52 -0.01    +0.084 A  
DOCKED: ATOM     11  C   UNL     1     138.982  69.404 225.730 -0.38 -0.01    +0.073 A  
DOCKED: ATOM     12  N   UNL     1     139.549  67.295 225.269 -0.90 +0.00    -0.085 NA 
DOCKED: ATOM     13  O   UNL     1     138.846  67.767 224.280 -0.54 +0.00    -0.361 OA 
DOCKED: BRANCH  10  14
DOCKED: ATOM     14  C   UNL     1     140.350  68.143 227.496 -0.62 -0.01    +0.060 C  
DOCKED: BRANCH  14  15
DOCKED: ATOM     15  C   UNL     1     140.225  69.412 228.353 -0.62 -0.00    +0.006 C  
DOCKED: BRANCH  15  16
DOCKED: ATOM     16  C   UNL     1     141.102  70.583 227.874 -0.63 +0.00    -0.003 C  
DOCKED: ATOM     17  C   UNL     1     140.396  71.933 227.986 -0.72 -0.00    +0.004 C  
DOCKED: ENDBRANCH  15  16
DOCKED: ENDBRANCH  14  15
DOCKED: ENDBRANCH  10  14
DOCKED: ENDBRANCH   7   9
DOCKED: ENDBRANCH   1   7
DOCKED: BRANCH   4  18
DOCKED: ATOM     18  C   UNL     1     140.878  74.097 221.257 -0.29 +0.00    -0.018 A  
DOCKED: ATOM     19  C   UNL     1     141.926  73.796 220.367 -0.23 -0.00    +0.009 A  
DOCKED: ATOM     20  C   UNL     1     140.631  75.444 221.586 -0.35 -0.00    +0.013 A  
DOCKED: ATOM     21  C   UNL     1     142.710  74.817 219.825 -0.30 -0.00    +0.001 A  
DOCKED: ATOM     22  C   UNL     1     141.420  76.471 221.044 -0.28 +0.02    -0.034 A  
DOCKED: ATOM     23  C   UNL     1     142.463  76.148 220.163 -0.27 -0.00    +0.005 A  
DOCKED: BRANCH  22  24
DOCKED: ATOM     24  C   UNL     1     141.170  77.901 221.440 -0.30 -0.05    +0.116 C  
DOCKED: BRANCH  24  25
DOCKED: ATOM     25  N   UNL     1     140.449  77.976 222.720 -0.21 +0.08    -0.312 NA 
DOCKED: ATOM     26  H   UNL     1     139.427  77.980 222.495 +0.05 -0.03    +0.123 HD 
DOCKED: BRANCH  25  27
DOCKED: ATOM     27  C   UNL     1     140.753  79.206 223.476 -0.47 -0.02    +0.084 C  
DOCKED: BRANCH  27  28
DOCKED: ATOM     28  C   UNL     1     141.712  80.118 222.685 -0.56 +0.00    -0.004 C  
DOCKED: ATOM     29  C   UNL     1     142.954  80.478 223.513 -0.68 -0.00    +0.009 C  
DOCKED: ATOM     30  C   UNL     1     140.987  81.392 222.236 -0.42 -0.00    +0.009 C  
DOCKED: ENDBRANCH  27  28
DOCKED: ENDBRANCH  25  27
DOCKED: ENDBRANCH  24  25
DOCKED: ENDBRANCH  22  24
DOCKED: ENDBRANCH   4  18
DOCKED: TORSDOF 10
DOCKED: TER
DOCKED: ENDMDL
________________________________________________________________________________


    FINAL DOCKED STATE:
    ________________________


Run:   18 / 20
Time taken for this run:   0.037s

DOCKED: MODEL        18
DOCKED: USER    Run = 18
DOCKED: USER
DOCKED: USER    Estimated Free Energy of Binding    =  -9.08 kcal/mol  [=(1)+(2)+(3)-(4)]
DOCKED: USER
DOCKED: USER    (1) Final Intermolecular Energy     = -12.07 kcal/mol
DOCKED: USER        vdW + Hbond + desolv Energy     = -11.97 kcal/mol
DOCKED: USER        Electrostatic Energy            =  -0.09 kcal/mol
DOCKED: USER        Moving Ligand-Fixed Receptor    = -12.07 kcal/mol
DOCKED: USER        Moving Ligand-Moving Receptor   =  +0.00 kcal/mol
DOCKED: USER    (2) Final Total Internal Energy     =  -1.47 kcal/mol
DOCKED: USER    (3) Torsional Free Energy           =  +2.98 kcal/mol
DOCKED: USER    (4) Unbound System's Energy         =  -1.47 kcal/mol
DOCKED: USER
DOCKED: USER
DOCKED: REMARK SMILES CCCCc1cc([C@@H](C)c2ccc(-c3cccc(CNCC(C)C)c3)cc2)on1
DOCKED: REMARK SMILES IDX 10 1 11 2 12 3 13 4 26 5 27 6 8 7 9 8 7 9 5 10 6 11 29 12
DOCKED: REMARK SMILES IDX 28 13 4 14 3 15 2 16 1 17 14 18 15 19 25 20 16 21 18 22
DOCKED: REMARK SMILES IDX 17 23 19 24 20 25 21 27 22 28 23 29 24 30
DOCKED: REMARK H PARENT 20 26
DOCKED: USER                              x       y       z     vdW  Elec       q    Type
DOCKED: USER                           _______ _______ _______ _____ _____    ______ ____
DOCKED: ROOT
DOCKED: ATOM      1  C   UNL     1     138.769  71.000 222.822 -0.22 +0.01    -0.037 A  
DOCKED: ATOM      2  C   UNL     1     140.171  70.879 222.789 -0.21 -0.00    +0.005 A  
DOCKED: ATOM      3  C   UNL     1     140.960  71.898 222.248 -0.27 -0.00    +0.009 A  
DOCKED: ATOM      4  C   UNL     1     140.365  73.057 221.719 -0.28 +0.00    -0.018 A  
DOCKED: ATOM      5  C   UNL     1     138.965  73.174 221.745 -0.21 -0.00    +0.009 A  
DOCKED: ATOM      6  C   UNL     1     138.177  72.156 222.287 -0.18 -0.00    +0.005 A  
DOCKED: ENDROOT
DOCKED: BRANCH   1   7
DOCKED: ATOM      7  C   UNL     1     137.901  69.895 223.390 -0.21 -0.01    +0.085 C  
DOCKED: ATOM      8  C   UNL     1     136.606  70.444 223.997 -0.22 -0.00    +0.021 C  
DOCKED: BRANCH   7   9
DOCKED: ATOM      9  C   UNL     1     138.672  69.096 224.403 -0.27 -0.02    +0.144 A  
DOCKED: ATOM     10  C   UNL     1     139.828  68.466 226.120 -0.50 -0.01    +0.084 A  
DOCKED: ATOM     11  C   UNL     1     139.308  69.594 225.520 -0.38 -0.01    +0.073 A  
DOCKED: ATOM     12  N   UNL     1     139.506  67.374 225.400 -0.95 +0.00    -0.085 NA 
DOCKED: ATOM     13  O   UNL     1     138.815  67.790 224.379 -0.55 -0.01    -0.361 OA 
DOCKED: BRANCH  10  14
DOCKED: ATOM     14  C   UNL     1     140.589  68.427 227.411 -0.63 -0.01    +0.060 C  
DOCKED: BRANCH  14  15
DOCKED: ATOM     15  C   UNL     1     140.180  69.566 228.357 -0.60 -0.00    +0.006 C  
DOCKED: BRANCH  15  16
DOCKED: ATOM     16  C   UNL     1     141.118  70.785 228.313 -0.55 +0.00    -0.003 C  
DOCKED: ATOM     17  C   UNL     1     140.700  71.815 227.264 -0.78 -0.00    +0.004 C  
DOCKED: ENDBRANCH  15  16
DOCKED: ENDBRANCH  14  15
DOCKED: ENDBRANCH  10  14
DOCKED: ENDBRANCH   7   9
DOCKED: ENDBRANCH   1   7
DOCKED: BRANCH   4  18
DOCKED: ATOM     18  C   UNL     1     141.205  74.138 221.141 -0.28 +0.00    -0.018 A  
DOCKED: ATOM     19  C   UNL     1     142.437  73.839 220.532 -0.28 -0.00    +0.009 A  
DOCKED: ATOM     20  C   UNL     1     140.783  75.480 221.198 -0.31 -0.00    +0.013 A  
DOCKED: ATOM     21  C   UNL     1     143.230  74.857 219.999 -0.37 -0.00    +0.001 A  
DOCKED: ATOM     22  C   UNL     1     141.579  76.506 220.665 -0.26 +0.02    -0.034 A  
DOCKED: ATOM     23  C   UNL     1     142.808  76.186 220.067 -0.30 -0.00    +0.005 A  
DOCKED: BRANCH  22  24
DOCKED: ATOM     24  C   UNL     1     141.133  77.939 220.773 -0.24 -0.05    +0.116 C  
DOCKED: BRANCH  24  25
DOCKED: ATOM     25  N   UNL     1     141.990  78.690 221.703 -0.19 +0.19    -0.312 NA 
DOCKED: ATOM     26  H   UNL     1     142.949  78.277 221.636 -0.52 -0.14    +0.123 HD 
DOCKED: BRANCH  25  27
DOCKED: ATOM     27  C   UNL     1     141.544  78.582 223.105 -0.50 -0.03    +0.084 C  
DOCKED: BRANCH  27  28
DOCKED: ATOM     28  C   UNL     1     141.543  79.963 223.792 -0.58 +0.00    -0.004 C  
DOCKED: ATOM     29  C   UNL     1     140.587  80.938 223.087 -0.44 -0.00    +0.009 C  
DOCKED: ATOM     30  C   UNL     1     142.962  80.544 223.823 -0.67 -0.00    +0.009 C  
DOCKED: ENDBRANCH  27  28
DOCKED: ENDBRANCH  25  27
DOCKED: ENDBRANCH  24  25
DOCKED: ENDBRANCH  22  24
DOCKED: ENDBRANCH   4  18
DOCKED: TORSDOF 10
DOCKED: TER
DOCKED: ENDMDL
________________________________________________________________________________


    FINAL DOCKED STATE:
    ________________________


Run:   19 / 20
Time taken for this run:   0.037s

DOCKED: MODEL        19
DOCKED: USER    Run = 19
DOCKED: USER
DOCKED: USER    Estimated Free Energy of Binding    =  -8.89 kcal/mol  [=(1)+(2)+(3)-(4)]
DOCKED: USER
DOCKED: USER    (1) Final Intermolecular Energy     = -11.87 kcal/mol
DOCKED: USER        vdW + Hbond + desolv Energy     = -11.81 kcal/mol
DOCKED: USER        Electrostatic Energy            =  -0.06 kcal/mol
DOCKED: USER        Moving Ligand-Fixed Receptor    = -11.87 kcal/mol
DOCKED: USER        Moving Ligand-Moving Receptor   =  +0.00 kcal/mol
DOCKED: USER    (2) Final Total Internal Energy     =  -1.32 kcal/mol
DOCKED: USER    (3) Torsional Free Energy           =  +2.98 kcal/mol
DOCKED: USER    (4) Unbound System's Energy         =  -1.32 kcal/mol
DOCKED: USER
DOCKED: USER
DOCKED: REMARK SMILES CCCCc1cc([C@@H](C)c2ccc(-c3cccc(CNCC(C)C)c3)cc2)on1
DOCKED: REMARK SMILES IDX 10 1 11 2 12 3 13 4 26 5 27 6 8 7 9 8 7 9 5 10 6 11 29 12
DOCKED: REMARK SMILES IDX 28 13 4 14 3 15 2 16 1 17 14 18 15 19 25 20 16 21 18 22
DOCKED: REMARK SMILES IDX 17 23 19 24 20 25 21 27 22 28 23 29 24 30
DOCKED: REMARK H PARENT 20 26
DOCKED: USER                              x       y       z     vdW  Elec       q    Type
DOCKED: USER                           _______ _______ _______ _____ _____    ______ ____
DOCKED: ROOT
DOCKED: ATOM      1  C   UNL     1     138.512  70.682 223.003 -0.22 +0.01    -0.037 A  
DOCKED: ATOM      2  C   UNL     1     139.642  71.189 223.673 -0.37 -0.00    +0.005 A  
DOCKED: ATOM      3  C   UNL     1     140.330  72.295 223.167 -0.32 -0.00    +0.009 A  
DOCKED: ATOM      4  C   UNL     1     139.911  72.914 221.977 -0.28 +0.00    -0.018 A  
DOCKED: ATOM      5  C   UNL     1     138.788  72.403 221.304 -0.14 -0.00    +0.009 A  
DOCKED: ATOM      6  C   UNL     1     138.099  71.298 221.811 -0.12 -0.00    +0.005 A  
DOCKED: ENDROOT
DOCKED: BRANCH   1   7
DOCKED: ATOM      7  C   UNL     1     137.767  69.472 223.531 -0.22 -0.01    +0.085 C  
DOCKED: ATOM      8  C   UNL     1     136.353  69.834 223.996 -0.21 -0.00    +0.021 C  
DOCKED: BRANCH   7   9
DOCKED: ATOM      9  C   UNL     1     138.547  68.822 224.639 -0.29 -0.01    +0.144 A  
DOCKED: ATOM     10  C   UNL     1     139.472  68.347 226.537 -0.51 -0.01    +0.084 A  
DOCKED: ATOM     11  C   UNL     1     138.718  69.320 225.914 -0.35 -0.01    +0.073 A  
DOCKED: ATOM     12  N   UNL     1     139.717  67.338 225.678 -0.80 +0.01    -0.085 NA 
DOCKED: ATOM     13  O   UNL     1     139.149  67.658 224.552 -0.68 +0.01    -0.361 OA 
DOCKED: BRANCH  10  14
DOCKED: ATOM     14  C   UNL     1     139.914  68.357 227.969 -0.54 -0.01    +0.060 C  
DOCKED: BRANCH  14  15
DOCKED: ATOM     15  C   UNL     1     141.062  69.350 228.211 -0.60 -0.00    +0.006 C  
DOCKED: BRANCH  15  16
DOCKED: ATOM     16  C   UNL     1     141.060  70.557 227.256 -0.63 +0.00    -0.003 C  
DOCKED: ATOM     17  C   UNL     1     140.758  71.874 227.969 -0.82 -0.00    +0.004 C  
DOCKED: ENDBRANCH  15  16
DOCKED: ENDBRANCH  14  15
DOCKED: ENDBRANCH  10  14
DOCKED: ENDBRANCH   7   9
DOCKED: ENDBRANCH   1   7
DOCKED: BRANCH   4  18
DOCKED: ATOM     18  C   UNL     1     140.647  74.088 221.438 -0.29 +0.00    -0.018 A  
DOCKED: ATOM     19  C   UNL     1     141.627  73.923 220.443 -0.23 -0.00    +0.009 A  
DOCKED: ATOM     20  C   UNL     1     140.378  75.383 221.920 -0.32 -0.00    +0.013 A  
DOCKED: ATOM     21  C   UNL     1     142.325  75.026 219.946 -0.28 -0.00    +0.001 A  
DOCKED: ATOM     22  C   UNL     1     141.080  76.493 221.424 -0.33 +0.01    -0.034 A  
DOCKED: ATOM     23  C   UNL     1     142.058  76.305 220.435 -0.25 -0.00    +0.005 A  
DOCKED: BRANCH  22  24
DOCKED: ATOM     24  C   UNL     1     140.811  77.865 221.981 -0.34 -0.04    +0.116 C  
DOCKED: BRANCH  24  25
DOCKED: ATOM     25  N   UNL     1     142.031  78.685 221.978 -0.20 +0.19    -0.312 NA 
DOCKED: ATOM     26  H   UNL     1     142.838  78.032 221.849 -0.49 -0.14    +0.123 HD 
DOCKED: BRANCH  25  27
DOCKED: ATOM     27  C   UNL     1     142.233  79.415 223.244 -0.56 -0.03    +0.084 C  
DOCKED: BRANCH  27  28
DOCKED: ATOM     28  C   UNL     1     141.600  80.819 223.180 -0.57 +0.00    -0.004 C  
DOCKED: ATOM     29  C   UNL     1     140.111  80.780 223.556 -0.41 -0.00    +0.009 C  
DOCKED: ATOM     30  C   UNL     1     141.775  81.419 221.780 -0.43 -0.00    +0.009 C  
DOCKED: ENDBRANCH  27  28
DOCKED: ENDBRANCH  25  27
DOCKED: ENDBRANCH  24  25
DOCKED: ENDBRANCH  22  24
DOCKED: ENDBRANCH   4  18
DOCKED: TORSDOF 10
DOCKED: TER
DOCKED: ENDMDL
________________________________________________________________________________


    FINAL DOCKED STATE:
    ________________________


Run:   20 / 20
Time taken for this run:   0.037s

DOCKED: MODEL        20
DOCKED: USER    Run = 20
DOCKED: USER
DOCKED: USER    Estimated Free Energy of Binding    =  -8.90 kcal/mol  [=(1)+(2)+(3)-(4)]
DOCKED: USER
DOCKED: USER    (1) Final Intermolecular Energy     = -11.88 kcal/mol
DOCKED: USER        vdW + Hbond + desolv Energy     = -11.82 kcal/mol
DOCKED: USER        Electrostatic Energy            =  -0.06 kcal/mol
DOCKED: USER        Moving Ligand-Fixed Receptor    = -11.88 kcal/mol
DOCKED: USER        Moving Ligand-Moving Receptor   =  +0.00 kcal/mol
DOCKED: USER    (2) Final Total Internal Energy     =  -1.48 kcal/mol
DOCKED: USER    (3) Torsional Free Energy           =  +2.98 kcal/mol
DOCKED: USER    (4) Unbound System's Energy         =  -1.48 kcal/mol
DOCKED: USER
DOCKED: USER
DOCKED: REMARK SMILES CCCCc1cc([C@@H](C)c2ccc(-c3cccc(CNCC(C)C)c3)cc2)on1
DOCKED: REMARK SMILES IDX 10 1 11 2 12 3 13 4 26 5 27 6 8 7 9 8 7 9 5 10 6 11 29 12
DOCKED: REMARK SMILES IDX 28 13 4 14 3 15 2 16 1 17 14 18 15 19 25 20 16 21 18 22
DOCKED: REMARK SMILES IDX 17 23 19 24 20 25 21 27 22 28 23 29 24 30
DOCKED: REMARK H PARENT 20 26
DOCKED: USER                              x       y       z     vdW  Elec       q    Type
DOCKED: USER                           _______ _______ _______ _____ _____    ______ ____
DOCKED: ROOT
DOCKED: ATOM      1  C   UNL     1     138.707  70.641 222.810 -0.21 +0.01    -0.037 A  
DOCKED: ATOM      2  C   UNL     1     138.242  71.382 221.708 -0.12 -0.00    +0.005 A  
DOCKED: ATOM      3  C   UNL     1     139.000  72.434 221.188 -0.14 -0.00    +0.009 A  
DOCKED: ATOM      4  C   UNL     1     140.237  72.775 221.762 -0.28 +0.00    -0.018 A  
DOCKED: ATOM      5  C   UNL     1     140.698  72.040 222.868 -0.32 -0.00    +0.009 A  
DOCKED: ATOM      6  C   UNL     1     139.940  70.987 223.387 -0.34 -0.00    +0.005 A  
DOCKED: ENDROOT
DOCKED: BRANCH   1   7
DOCKED: ATOM      7  C   UNL     1     137.887  69.509 223.395 -0.21 -0.01    +0.085 C  
DOCKED: ATOM      8  C   UNL     1     136.480  69.971 223.789 -0.20 -0.00    +0.021 C  
DOCKED: BRANCH   7   9
DOCKED: ATOM      9  C   UNL     1     138.600  68.901 224.570 -0.29 -0.01    +0.144 A  
DOCKED: ATOM     10  C   UNL     1     139.452  68.519 226.522 -0.50 -0.01    +0.084 A  
DOCKED: ATOM     11  C   UNL     1     138.773  69.484 225.808 -0.34 -0.01    +0.073 A  
DOCKED: ATOM     12  N   UNL     1     139.657  67.435 225.748 -0.82 +0.01    -0.085 NA 
DOCKED: ATOM     13  O   UNL     1     139.134  67.701 224.586 -0.68 +0.01    -0.361 OA 
DOCKED: BRANCH  10  14
DOCKED: ATOM     14  C   UNL     1     139.862  68.613 227.960 -0.56 -0.01    +0.060 C  
DOCKED: BRANCH  14  15
DOCKED: ATOM     15  C   UNL     1     141.081  69.528 228.155 -0.59 -0.00    +0.006 C  
DOCKED: BRANCH  15  16
DOCKED: ATOM     16  C   UNL     1     140.761  71.029 228.056 -0.72 +0.00    -0.003 C  
DOCKED: ATOM     17  C   UNL     1     141.093  71.616 226.685 -0.74 -0.00    +0.004 C  
DOCKED: ENDBRANCH  15  16
DOCKED: ENDBRANCH  14  15
DOCKED: ENDBRANCH  10  14
DOCKED: ENDBRANCH   7   9
DOCKED: ENDBRANCH   1   7
DOCKED: BRANCH   4  18
DOCKED: ATOM     18  C   UNL     1     141.041  73.896 221.210 -0.28 +0.00    -0.018 A  
DOCKED: ATOM     19  C   UNL     1     142.237  73.644 220.514 -0.26 -0.00    +0.009 A  
DOCKED: ATOM     20  C   UNL     1     140.622  75.230 221.382 -0.32 -0.00    +0.013 A  
DOCKED: ATOM     21  C   UNL     1     142.997  74.699 220.005 -0.34 -0.00    +0.001 A  
DOCKED: ATOM     22  C   UNL     1     141.386  76.292 220.874 -0.29 +0.02    -0.034 A  
DOCKED: ATOM     23  C   UNL     1     142.578  76.018 220.187 -0.26 -0.00    +0.005 A  
DOCKED: BRANCH  22  24
DOCKED: ATOM     24  C   UNL     1     140.946  77.713 221.103 -0.26 -0.05    +0.116 C  
DOCKED: BRANCH  24  25
DOCKED: ATOM     25  N   UNL     1     142.055  78.534 221.611 -0.15 +0.20    -0.312 NA 
DOCKED: ATOM     26  H   UNL     1     142.913  77.937 221.586 -0.52 -0.15    +0.123 HD 
DOCKED: BRANCH  25  27
DOCKED: ATOM     27  C   UNL     1     141.848  78.977 223.003 -0.52 -0.03    +0.084 C  
DOCKED: BRANCH  27  28
DOCKED: ATOM     28  C   UNL     1     141.382  80.446 223.052 -0.54 +0.00    -0.004 C  
DOCKED: ATOM     29  C   UNL     1     142.304  81.297 223.937 -0.61 -0.00    +0.009 C  
DOCKED: ATOM     30  C   UNL     1     139.937  80.530 223.559 -0.43 -0.00    +0.009 C  
DOCKED: ENDBRANCH  27  28
DOCKED: ENDBRANCH  25  27
DOCKED: ENDBRANCH  24  25
DOCKED: ENDBRANCH  22  24
DOCKED: ENDBRANCH   4  18
DOCKED: TORSDOF 10
DOCKED: TER
DOCKED: ENDMDL
________________________________________________________________________________


    CLUSTERING HISTOGRAM
    ____________________


________________________________________________________________________________
     |           |     |           |     |
Clus | Lowest    | Run | Mean      | Num | Histogram
-ter | Binding   |     | Binding   | in  |
Rank | Energy    |     | Energy    | Clus|    5    10   15   20   25   30   35
_____|___________|_____|___________|_____|____:____|____:____|____:____|____:___
   1 |     -9.22 |   5 |     -8.82 |  15 |###############
   2 |     -8.90 |  10 |     -8.67 |   5 |#####
_____|___________|_____|___________|_____|______________________________________


    RMSD TABLE
    __________


_______________________________________________________________________
     |      |      |           |         |                 |
Rank | Sub- | Run  | Binding   | Cluster | Reference       | Grep
     | Rank |      | Energy    | RMSD    | RMSD            | Pattern
_____|______|______|___________|_________|_________________|___________
   1      1      5       -9.22      0.00    268.98           RANKING
   1      2     12       -9.16      0.50    268.93           RANKING
   1      3     18       -9.08      0.68    269.03           RANKING
   1      4      2       -9.00      0.71    268.93           RANKING
   1      5      4       -8.99      0.38    268.87           RANKING
   1      6     15       -8.95      0.68    268.83           RANKING
   1      7     13       -8.92      0.65    268.85           RANKING
   1      8     20       -8.90      0.54    268.97           RANKING
   1      9     19       -8.89      0.78    269.01           RANKING
   1     10     16       -8.87      0.58    268.82           RANKING
   1     11      9       -8.74      1.44    268.95           RANKING
   1     12      7       -8.72      0.97    268.87           RANKING
   1     13      3       -8.46      1.22    268.96           RANKING
   1     14     17       -8.43      1.14    268.91           RANKING
   1     15      1       -7.98      1.64    269.25           RANKING
   2      1     10       -8.90      0.00    268.39           RANKING
   2      2     14       -8.70      1.70    268.62           RANKING
   2      3      6       -8.66      1.02    268.26           RANKING
   2      4      8       -8.63      1.73    268.56           RANKING
   2      5     11       -8.47      1.76    268.57           RANKING

Run time 0.707 sec
Idle time 0.000 sec
