AutoDock-GPU version: v1.6

**********************************************************
**    AutoDock-GPU AUTODOCKTOOLS-COMPATIBLE DLG FILE    **
**********************************************************


    DOCKING PARAMETERS
    ________________________


Ligand file:                               /home/a/REINVENT4/ReinventStudies/pleaseWork/justRnve/graph-dock-t2iv78/graph-DockGPU/node-autodockgpu/inputs/HWLDPPPPOIDHJG-LNXLDVRFNA-O.pdbqt
Grid fld file:                             /home/a/REINVENT4/ReinventStudies/mols/Rad51/maps/rad51_receptor.maps.fld

Random seed:                               42
Number of runs:                            20
Number of energy evaluations:              2542121
Number of generations:                     42000
Size of population:                        150
Rate of crossover:                         80.000000%
Tournament selection probability limit:    60.000000%
Rate of mutation:                          2.000000%
Maximal allowed delta movement:            +/- 6.000000A
Maximal allowed delta angle:               +/- 90.000000

Rate of local search:                      100.000000%
Maximal number of local search iterations: 300
Rho lower bound:                           0.010000
Spread of local search delta movement:     2.000000A
Spread of local search delta angle:        74.999999
Limit of consecutive successes/failures:   4

Handle symmetry during clustering:         YES
RMSD tolerance:                            2.000000A

Program call in command line was:          /home/a/REINVENT4/ReinventStudies/adgpu-v1.6_linux_x64_cuda12_128wi --filelist batch.txt --heuristics 1 --nrun 20 --psize 150 --lsit 300 --seed 42 --heurmax 12000000 


    GRID PARAMETERS
    ________________________


Receptor name:                             rad51_receptor
Number of grid points (x, y, z):           53, 53, 53
Grid center (x, y, z):                     139.950000, 75.640000, 221.970000A
Grid size (x, y, z):                       19.500000, 19.500000, 19.500000A
Grid spacing:                              0.375000A


    LIGAND PARAMETERS
    ________________________


Ligand name:                               /home/a/REINVENT4/ReinventStudies/pleaseWork/justRnve/graph-dock-t2iv78/graph-DockGPU/node-autodockgpu/inputs/HWLDPPPPOIDHJG-LNXLDVRFNA-O
Number of atoms:                           31
Number of rotatable bonds:                 10
Number of atom types:                      6


    DUMMY DATA (only for ADT-compatibility)
    ________________________


DPF> outlev 1
DPF> ga_run 20
DPF> fld /home/a/REINVENT4/ReinventStudies/mols/Rad51/maps/rad51_receptor.maps.fld
DPF> move /home/a/REINVENT4/ReinventStudies/pleaseWork/justRnve/graph-dock-t2iv78/graph-DockGPU/node-autodockgpu/inputs/HWLDPPPPOIDHJG-LNXLDVRFNA-O.pdbqt


    COUNTER STATES
    ________________________


Number of energy evaluations performed:    712779
Number of generations used:                45


    INPUT LIGAND PDBQT FILE:
    ________________________


INPUT-LIGAND-PDBQT: REMARK SMILES CCCCc1cc([C@@H](C)c2ccc(-c3cccc(C[NH2+]CC(C)C)c3)cc2)on1
INPUT-LIGAND-PDBQT: REMARK SMILES IDX 10 1 11 2 12 3 13 4 26 5 27 6 8 7 9 8 7 9 5 10 6 11 29 12
INPUT-LIGAND-PDBQT: REMARK SMILES IDX 28 13 4 14 3 15 2 16 1 17 14 18 15 19 25 20 16 21 18 22
INPUT-LIGAND-PDBQT: REMARK SMILES IDX 17 23 19 24 20 25 21 28 22 29 23 30 24 31
INPUT-LIGAND-PDBQT: REMARK H PARENT 20 26 20 27
INPUT-LIGAND-PDBQT: ROOT
INPUT-LIGAND-PDBQT: ATOM      1  C   UNL     1       2.615   1.339  -0.503  1.00  0.00    -0.037 A 
INPUT-LIGAND-PDBQT: ATOM      2  C   UNL     1       1.831   2.497  -0.352  1.00  0.00     0.005 A 
INPUT-LIGAND-PDBQT: ATOM      3  C   UNL     1       0.556   2.422   0.216  1.00  0.00     0.009 A 
INPUT-LIGAND-PDBQT: ATOM      4  C   UNL     1       0.045   1.190   0.658  1.00  0.00    -0.018 A 
INPUT-LIGAND-PDBQT: ATOM      5  C   UNL     1       0.832   0.034   0.515  1.00  0.00     0.009 A 
INPUT-LIGAND-PDBQT: ATOM      6  C   UNL     1       2.105   0.108  -0.058  1.00  0.00     0.005 A 
INPUT-LIGAND-PDBQT: ENDROOT
INPUT-LIGAND-PDBQT: BRANCH   1   7
INPUT-LIGAND-PDBQT: ATOM      7  C   UNL     1       4.008   1.411  -1.095  1.00  0.00     0.085 C 
INPUT-LIGAND-PDBQT: ATOM      8  C   UNL     1       4.980   2.058  -0.102  1.00  0.00     0.021 C 
INPUT-LIGAND-PDBQT: BRANCH   7   9
INPUT-LIGAND-PDBQT: ATOM      9  C   UNL     1       3.997   2.138  -2.414  1.00  0.00     0.144 A 
INPUT-LIGAND-PDBQT: ATOM     10  C   UNL     1       3.669   2.709  -4.476  1.00  0.00     0.084 A 
INPUT-LIGAND-PDBQT: ATOM     11  C   UNL     1       3.425   1.684  -3.584  1.00  0.00     0.073 A 
INPUT-LIGAND-PDBQT: ATOM     12  N   UNL     1       4.332   3.705  -3.858  1.00  0.00    -0.085 NA
INPUT-LIGAND-PDBQT: ATOM     13  O   UNL     1       4.513   3.327  -2.625  1.00  0.00    -0.361 OA
INPUT-LIGAND-PDBQT: BRANCH  10  14
INPUT-LIGAND-PDBQT: ATOM     14  C   UNL     1       3.203   2.770  -5.898  1.00  0.00     0.060 C 
INPUT-LIGAND-PDBQT: BRANCH  14  15
INPUT-LIGAND-PDBQT: ATOM     15  C   UNL     1       2.039   3.757  -6.078  1.00  0.00     0.006 C 
INPUT-LIGAND-PDBQT: BRANCH  15  16
INPUT-LIGAND-PDBQT: ATOM     16  C   UNL     1       0.772   3.394  -5.282  1.00  0.00    -0.003 C 
INPUT-LIGAND-PDBQT: ATOM     17  C   UNL     1       0.128   2.090  -5.752  1.00  0.00     0.004 C 
INPUT-LIGAND-PDBQT: ENDBRANCH  15  16
INPUT-LIGAND-PDBQT: ENDBRANCH  14  15
INPUT-LIGAND-PDBQT: ENDBRANCH  10  14
INPUT-LIGAND-PDBQT: ENDBRANCH   7   9
INPUT-LIGAND-PDBQT: ENDBRANCH   1   7
INPUT-LIGAND-PDBQT: BRANCH   4  18
INPUT-LIGAND-PDBQT: ATOM     18  C   UNL     1      -1.310   1.105   1.256  1.00  0.00    -0.018 A 
INPUT-LIGAND-PDBQT: ATOM     19  C   UNL     1      -2.389   1.794   0.678  1.00  0.00     0.009 A 
INPUT-LIGAND-PDBQT: ATOM     20  C   UNL     1      -1.540   0.300   2.387  1.00  0.00     0.018 A 
INPUT-LIGAND-PDBQT: ATOM     21  C   UNL     1      -3.674   1.673   1.212  1.00  0.00     0.001 A 
INPUT-LIGAND-PDBQT: ATOM     22  C   UNL     1      -2.831   0.176   2.926  1.00  0.00     0.007 A 
INPUT-LIGAND-PDBQT: ATOM     23  C   UNL     1      -3.897   0.864   2.329  1.00  0.00     0.009 A 
INPUT-LIGAND-PDBQT: BRANCH  22  24
INPUT-LIGAND-PDBQT: ATOM     24  C   UNL     1      -3.082  -0.738   4.103  1.00  0.00     0.297 C 
INPUT-LIGAND-PDBQT: BRANCH  24  25
INPUT-LIGAND-PDBQT: ATOM     25  N   UNL     1      -3.632  -2.045   3.691  1.00  0.00    -0.342 N 
INPUT-LIGAND-PDBQT: ATOM     26  H   UNL     1      -4.489  -1.873   3.112  1.00  0.00     0.346 HD
INPUT-LIGAND-PDBQT: ATOM     27  H   UNL     1      -3.943  -2.567   4.542  1.00  0.00     0.346 HD
INPUT-LIGAND-PDBQT: BRANCH  25  28
INPUT-LIGAND-PDBQT: ATOM     28  C   UNL     1      -2.701  -2.873   2.893  1.00  0.00     0.263 C 
INPUT-LIGAND-PDBQT: BRANCH  28  29
INPUT-LIGAND-PDBQT: ATOM     29  C   UNL     1      -1.553  -3.506   3.723  1.00  0.00     0.038 C 
INPUT-LIGAND-PDBQT: ATOM     30  C   UNL     1      -2.052  -4.678   4.582  1.00  0.00     0.013 C 
INPUT-LIGAND-PDBQT: ATOM     31  C   UNL     1      -0.437  -3.987   2.786  1.00  0.00     0.013 C 
INPUT-LIGAND-PDBQT: ENDBRANCH  28  29
INPUT-LIGAND-PDBQT: ENDBRANCH  25  28
INPUT-LIGAND-PDBQT: ENDBRANCH  24  25
INPUT-LIGAND-PDBQT: ENDBRANCH  22  24
INPUT-LIGAND-PDBQT: ENDBRANCH   4  18
INPUT-LIGAND-PDBQT: TORSDOF 10


    FINAL DOCKED STATE:
    ________________________


Run:   1 / 20
Time taken for this run:   0.033s

DOCKED: MODEL        1
DOCKED: USER    Run = 1
DOCKED: USER
DOCKED: USER    Estimated Free Energy of Binding    =  -9.17 kcal/mol  [=(1)+(2)+(3)-(4)]
DOCKED: USER
DOCKED: USER    (1) Final Intermolecular Energy     = -12.15 kcal/mol
DOCKED: USER        vdW + Hbond + desolv Energy     = -11.34 kcal/mol
DOCKED: USER        Electrostatic Energy            =  -0.81 kcal/mol
DOCKED: USER        Moving Ligand-Fixed Receptor    = -12.15 kcal/mol
DOCKED: USER        Moving Ligand-Moving Receptor   =  +0.00 kcal/mol
DOCKED: USER    (2) Final Total Internal Energy     =  -1.39 kcal/mol
DOCKED: USER    (3) Torsional Free Energy           =  +2.98 kcal/mol
DOCKED: USER    (4) Unbound System's Energy         =  -1.39 kcal/mol
DOCKED: USER
DOCKED: USER
DOCKED: REMARK SMILES CCCCc1cc([C@@H](C)c2ccc(-c3cccc(C[NH2+]CC(C)C)c3)cc2)on1
DOCKED: REMARK SMILES IDX 10 1 11 2 12 3 13 4 26 5 27 6 8 7 9 8 7 9 5 10 6 11 29 12
DOCKED: REMARK SMILES IDX 28 13 4 14 3 15 2 16 1 17 14 18 15 19 25 20 16 21 18 22
DOCKED: REMARK SMILES IDX 17 23 19 24 20 25 21 28 22 29 23 30 24 31
DOCKED: REMARK H PARENT 20 26 20 27
DOCKED: USER                              x       y       z     vdW  Elec       q    Type
DOCKED: USER                           _______ _______ _______ _____ _____    ______ ____
DOCKED: ROOT
DOCKED: ATOM      1  C   UNL     1     138.879  70.817 222.669 -0.21 +0.01    -0.037 A  
DOCKED: ATOM      2  C   UNL     1     140.177  70.515 222.220 -0.05 -0.00    +0.005 A  
DOCKED: ATOM      3  C   UNL     1     141.004  71.521 221.711 -0.21 -0.00    +0.009 A  
DOCKED: ATOM      4  C   UNL     1     140.556  72.851 221.655 -0.28 +0.00    -0.018 A  
DOCKED: ATOM      5  C   UNL     1     139.261  73.154 222.112 -0.22 -0.00    +0.009 A  
DOCKED: ATOM      6  C   UNL     1     138.432  72.148 222.616 -0.17 -0.00    +0.005 A  
DOCKED: ENDROOT
DOCKED: BRANCH   1   7
DOCKED: ATOM      7  C   UNL     1     137.982  69.740 223.245 -0.20 -0.01    +0.085 C  
DOCKED: ATOM      8  C   UNL     1     136.633  70.334 223.665 -0.20 -0.00    +0.021 C  
DOCKED: BRANCH   7   9
DOCKED: ATOM      9  C   UNL     1     138.657  69.032 224.391 -0.27 -0.02    +0.144 A  
DOCKED: ATOM     10  C   UNL     1     139.640  68.560 226.260 -0.50 -0.01    +0.084 A  
DOCKED: ATOM     11  C   UNL     1     139.147  69.626 225.535 -0.37 -0.01    +0.073 A  
DOCKED: ATOM     12  N   UNL     1     139.438  67.414 225.584 -0.93 +0.00    -0.085 NA 
DOCKED: ATOM     13  O   UNL     1     138.849  67.735 224.468 -0.58 -0.01    -0.361 OA 
DOCKED: BRANCH  10  14
DOCKED: ATOM     14  C   UNL     1     140.237  68.629 227.632 -0.62 -0.01    +0.060 C  
DOCKED: BRANCH  14  15
DOCKED: ATOM     15  C   UNL     1     139.928  69.965 228.326 -0.61 -0.00    +0.006 C  
DOCKED: BRANCH  15  16
DOCKED: ATOM     16  C   UNL     1     141.064  71.000 228.240 -0.64 +0.00    -0.003 C  
DOCKED: ATOM     17  C   UNL     1     140.982  71.871 226.986 -0.77 -0.00    +0.004 C  
DOCKED: ENDBRANCH  15  16
DOCKED: ENDBRANCH  14  15
DOCKED: ENDBRANCH  10  14
DOCKED: ENDBRANCH   7   9
DOCKED: ENDBRANCH   1   7
DOCKED: BRANCH   4  18
DOCKED: ATOM     18  C   UNL     1     141.428  73.920 221.110 -0.28 +0.00    -0.018 A  
DOCKED: ATOM     19  C   UNL     1     142.708  73.615 220.618 -0.28 -0.00    +0.009 A  
DOCKED: ATOM     20  C   UNL     1     140.968  75.248 221.041 -0.29 -0.00    +0.018 A  
DOCKED: ATOM     21  C   UNL     1     143.508  74.614 220.059 -0.39 -0.00    +0.001 A  
DOCKED: ATOM     22  C   UNL     1     141.770  76.255 220.479 -0.29 -0.00    +0.007 A  
DOCKED: ATOM     23  C   UNL     1     143.041  75.928 219.985 -0.33 -0.01    +0.009 A  
DOCKED: BRANCH  22  24
DOCKED: ATOM     24  C   UNL     1     141.247  77.666 220.352 -0.15 -0.14    +0.297 C  
DOCKED: BRANCH  24  25
DOCKED: ATOM     25  N   UNL     1     142.192  78.666 220.889 -0.05 +0.25    -0.342 N  
DOCKED: ATOM     26  H   UNL     1     142.589  79.208 220.085 -0.09 -0.29    +0.346 HD 
DOCKED: ATOM     27  H   UNL     1     142.993  78.168 221.342 -0.34 -0.41    +0.346 HD 
DOCKED: BRANCH  25  28
DOCKED: ATOM     28  C   UNL     1     141.587  79.630 221.835 -0.29 -0.10    +0.263 C  
DOCKED: BRANCH  28  29
DOCKED: ATOM     29  C   UNL     1     142.339  79.740 223.187 -0.61 -0.01    +0.038 C  
DOCKED: ATOM     30  C   UNL     1     142.221  81.149 223.790 -0.63 -0.00    +0.013 C  
DOCKED: ATOM     31  C   UNL     1     141.787  78.705 224.176 -0.48 -0.00    +0.013 C  
DOCKED: ENDBRANCH  28  29
DOCKED: ENDBRANCH  25  28
DOCKED: ENDBRANCH  24  25
DOCKED: ENDBRANCH  22  24
DOCKED: ENDBRANCH   4  18
DOCKED: TORSDOF 10
DOCKED: TER
DOCKED: ENDMDL
________________________________________________________________________________


    FINAL DOCKED STATE:
    ________________________


Run:   2 / 20
Time taken for this run:   0.033s

DOCKED: MODEL        2
DOCKED: USER    Run = 2
DOCKED: USER
DOCKED: USER    Estimated Free Energy of Binding    =  -8.85 kcal/mol  [=(1)+(2)+(3)-(4)]
DOCKED: USER
DOCKED: USER    (1) Final Intermolecular Energy     = -11.83 kcal/mol
DOCKED: USER        vdW + Hbond + desolv Energy     = -10.96 kcal/mol
DOCKED: USER        Electrostatic Energy            =  -0.87 kcal/mol
DOCKED: USER        Moving Ligand-Fixed Receptor    = -11.83 kcal/mol
DOCKED: USER        Moving Ligand-Moving Receptor   =  +0.00 kcal/mol
DOCKED: USER    (2) Final Total Internal Energy     =  -1.44 kcal/mol
DOCKED: USER    (3) Torsional Free Energy           =  +2.98 kcal/mol
DOCKED: USER    (4) Unbound System's Energy         =  -1.44 kcal/mol
DOCKED: USER
DOCKED: USER
DOCKED: REMARK SMILES CCCCc1cc([C@@H](C)c2ccc(-c3cccc(C[NH2+]CC(C)C)c3)cc2)on1
DOCKED: REMARK SMILES IDX 10 1 11 2 12 3 13 4 26 5 27 6 8 7 9 8 7 9 5 10 6 11 29 12
DOCKED: REMARK SMILES IDX 28 13 4 14 3 15 2 16 1 17 14 18 15 19 25 20 16 21 18 22
DOCKED: REMARK SMILES IDX 17 23 19 24 20 25 21 28 22 29 23 30 24 31
DOCKED: REMARK H PARENT 20 26 20 27
DOCKED: USER                              x       y       z     vdW  Elec       q    Type
DOCKED: USER                           _______ _______ _______ _____ _____    ______ ____
DOCKED: ROOT
DOCKED: ATOM      1  C   UNL     1     138.432  70.519 223.195 -0.22 +0.01    -0.037 A  
DOCKED: ATOM      2  C   UNL     1     137.594  71.460 222.569 -0.16 -0.00    +0.005 A  
DOCKED: ATOM      3  C   UNL     1     138.100  72.694 222.150 -0.16 -0.00    +0.009 A  
DOCKED: ATOM      4  C   UNL     1     139.458  73.006 222.335 -0.24 +0.00    -0.018 A  
DOCKED: ATOM      5  C   UNL     1     140.297  72.062 222.953 -0.35 -0.00    +0.009 A  
DOCKED: ATOM      6  C   UNL     1     139.790  70.830 223.377 -0.33 -0.00    +0.005 A  
DOCKED: ENDROOT
DOCKED: BRANCH   1   7
DOCKED: ATOM      7  C   UNL     1     137.900  69.169 223.631 -0.23 -0.01    +0.085 C  
DOCKED: ATOM      8  C   UNL     1     136.395  69.248 223.906 -0.20 -0.00    +0.021 C  
DOCKED: BRANCH   7   9
DOCKED: ATOM      9  C   UNL     1     138.656  68.652 224.827 -0.30 -0.01    +0.144 A  
DOCKED: ATOM     10  C   UNL     1     139.587  68.435 226.769 -0.53 -0.01    +0.084 A  
DOCKED: ATOM     11  C   UNL     1     138.873  69.336 226.005 -0.37 -0.01    +0.073 A  
DOCKED: ATOM     12  N   UNL     1     139.763  67.291 226.082 -0.70 +0.01    -0.085 NA 
DOCKED: ATOM     13  O   UNL     1     139.194  67.458 224.922 -0.80 -0.02    -0.361 OA 
DOCKED: BRANCH  10  14
DOCKED: ATOM     14  C   UNL     1     140.035  68.639 228.184 -0.58 -0.01    +0.060 C  
DOCKED: BRANCH  14  15
DOCKED: ATOM     15  C   UNL     1     141.055  69.782 228.303 -0.56 -0.00    +0.006 C  
DOCKED: BRANCH  15  16
DOCKED: ATOM     16  C   UNL     1     140.474  71.181 228.028 -0.73 +0.00    -0.003 C  
DOCKED: ATOM     17  C   UNL     1     141.115  71.864 226.821 -0.76 -0.00    +0.004 C  
DOCKED: ENDBRANCH  15  16
DOCKED: ENDBRANCH  14  15
DOCKED: ENDBRANCH  10  14
DOCKED: ENDBRANCH   7   9
DOCKED: ENDBRANCH   1   7
DOCKED: BRANCH   4  18
DOCKED: ATOM     18  C   UNL     1     139.998  74.317 221.898 -0.26 +0.00    -0.018 A  
DOCKED: ATOM     19  C   UNL     1     139.386  75.513 222.308 -0.31 -0.00    +0.009 A  
DOCKED: ATOM     20  C   UNL     1     141.154  74.379 221.099 -0.29 -0.00    +0.018 A  
DOCKED: ATOM     21  C   UNL     1     139.925  76.747 221.937 -0.35 -0.00    +0.001 A  
DOCKED: ATOM     22  C   UNL     1     141.699  75.619 220.725 -0.29 -0.00    +0.007 A  
DOCKED: ATOM     23  C   UNL     1     141.079  76.802 221.152 -0.32 -0.00    +0.009 A  
DOCKED: BRANCH  22  24
DOCKED: ATOM     24  C   UNL     1     142.975  75.679 219.918 -0.18 -0.16    +0.297 C  
DOCKED: BRANCH  24  25
DOCKED: ATOM     25  N   UNL     1     143.326  77.059 219.526 -0.10 +0.28    -0.342 N  
DOCKED: ATOM     26  H   UNL     1     144.363  77.105 219.377 -0.30 -0.31    +0.346 HD 
DOCKED: ATOM     27  H   UNL     1     143.106  77.704 220.319 -0.32 -0.38    +0.346 HD 
DOCKED: BRANCH  25  28
DOCKED: ATOM     28  C   UNL     1     142.666  77.526 218.286 -0.21 -0.18    +0.263 C  
DOCKED: BRANCH  28  29
DOCKED: ATOM     29  C   UNL     1     142.587  79.070 218.160 -0.31 -0.03    +0.038 C  
DOCKED: ATOM     30  C   UNL     1     141.889  79.499 216.860 -0.19 -0.01    +0.013 C  
DOCKED: ATOM     31  C   UNL     1     141.842  79.654 219.367 -0.29 -0.01    +0.013 C  
DOCKED: ENDBRANCH  28  29
DOCKED: ENDBRANCH  25  28
DOCKED: ENDBRANCH  24  25
DOCKED: ENDBRANCH  22  24
DOCKED: ENDBRANCH   4  18
DOCKED: TORSDOF 10
DOCKED: TER
DOCKED: ENDMDL
________________________________________________________________________________


    FINAL DOCKED STATE:
    ________________________


Run:   3 / 20
Time taken for this run:   0.033s

DOCKED: MODEL        3
DOCKED: USER    Run = 3
DOCKED: USER
DOCKED: USER    Estimated Free Energy of Binding    =  -9.50 kcal/mol  [=(1)+(2)+(3)-(4)]
DOCKED: USER
DOCKED: USER    (1) Final Intermolecular Energy     = -12.48 kcal/mol
DOCKED: USER        vdW + Hbond + desolv Energy     = -11.61 kcal/mol
DOCKED: USER        Electrostatic Energy            =  -0.87 kcal/mol
DOCKED: USER        Moving Ligand-Fixed Receptor    = -12.48 kcal/mol
DOCKED: USER        Moving Ligand-Moving Receptor   =  +0.00 kcal/mol
DOCKED: USER    (2) Final Total Internal Energy     =  -1.17 kcal/mol
DOCKED: USER    (3) Torsional Free Energy           =  +2.98 kcal/mol
DOCKED: USER    (4) Unbound System's Energy         =  -1.17 kcal/mol
DOCKED: USER
DOCKED: USER
DOCKED: REMARK SMILES CCCCc1cc([C@@H](C)c2ccc(-c3cccc(C[NH2+]CC(C)C)c3)cc2)on1
DOCKED: REMARK SMILES IDX 10 1 11 2 12 3 13 4 26 5 27 6 8 7 9 8 7 9 5 10 6 11 29 12
DOCKED: REMARK SMILES IDX 28 13 4 14 3 15 2 16 1 17 14 18 15 19 25 20 16 21 18 22
DOCKED: REMARK SMILES IDX 17 23 19 24 20 25 21 28 22 29 23 30 24 31
DOCKED: REMARK H PARENT 20 26 20 27
DOCKED: USER                              x       y       z     vdW  Elec       q    Type
DOCKED: USER                           _______ _______ _______ _____ _____    ______ ____
DOCKED: ROOT
DOCKED: ATOM      1  C   UNL     1     138.852  70.691 222.879 -0.22 +0.01    -0.037 A  
DOCKED: ATOM      2  C   UNL     1     138.715  71.016 221.517 -0.12 -0.00    +0.005 A  
DOCKED: ATOM      3  C   UNL     1     139.583  71.930 220.914 -0.13 -0.00    +0.009 A  
DOCKED: ATOM      4  C   UNL     1     140.616  72.527 221.656 -0.27 +0.00    -0.018 A  
DOCKED: ATOM      5  C   UNL     1     140.759  72.196 223.015 -0.24 -0.00    +0.009 A  
DOCKED: ATOM      6  C   UNL     1     139.887  71.286 223.619 -0.39 -0.00    +0.005 A  
DOCKED: ENDROOT
DOCKED: BRANCH   1   7
DOCKED: ATOM      7  C   UNL     1     137.932  69.684 223.538 -0.22 -0.01    +0.085 C  
DOCKED: ATOM      8  C   UNL     1     136.647  70.366 224.020 -0.22 -0.00    +0.021 C  
DOCKED: BRANCH   7   9
DOCKED: ATOM      9  C   UNL     1     138.634  68.966 224.661 -0.29 -0.01    +0.144 A  
DOCKED: ATOM     10  C   UNL     1     139.554  68.450 226.551 -0.52 -0.01    +0.084 A  
DOCKED: ATOM     11  C   UNL     1     138.945  69.500 225.894 -0.36 -0.01    +0.073 A  
DOCKED: ATOM     12  N   UNL     1     139.584  67.366 225.752 -0.88 +0.01    -0.085 NA 
DOCKED: ATOM     13  O   UNL     1     139.027  67.713 224.627 -0.66 -0.01    -0.361 OA 
DOCKED: BRANCH  10  14
DOCKED: ATOM     14  C   UNL     1     140.039  68.458 227.968 -0.59 -0.01    +0.060 C  
DOCKED: BRANCH  14  15
DOCKED: ATOM     15  C   UNL     1     141.064  69.576 228.216 -0.58 -0.00    +0.006 C  
DOCKED: BRANCH  15  16
DOCKED: ATOM     16  C   UNL     1     140.473  70.997 228.179 -0.67 +0.00    -0.003 C  
DOCKED: ATOM     17  C   UNL     1     141.103  71.875 227.098 -0.80 -0.00    +0.004 C  
DOCKED: ENDBRANCH  15  16
DOCKED: ENDBRANCH  14  15
DOCKED: ENDBRANCH  10  14
DOCKED: ENDBRANCH   7   9
DOCKED: ENDBRANCH   1   7
DOCKED: BRANCH   4  18
DOCKED: ATOM     18  C   UNL     1     141.536  73.502 221.021 -0.26 +0.00    -0.018 A  
DOCKED: ATOM     19  C   UNL     1     142.751  73.075 220.460 -0.27 -0.00    +0.009 A  
DOCKED: ATOM     20  C   UNL     1     141.185  74.862 220.936 -0.29 -0.00    +0.018 A  
DOCKED: ATOM     21  C   UNL     1     143.594  73.986 219.818 -0.33 -0.00    +0.001 A  
DOCKED: ATOM     22  C   UNL     1     142.030  75.780 220.291 -0.28 -0.00    +0.007 A  
DOCKED: ATOM     23  C   UNL     1     143.234  75.333 219.729 -0.38 -0.00    +0.009 A  
DOCKED: BRANCH  22  24
DOCKED: ATOM     24  C   UNL     1     141.618  77.227 220.150 -0.16 -0.16    +0.297 C  
DOCKED: BRANCH  24  25
DOCKED: ATOM     25  N   UNL     1     142.183  78.078 221.217 -0.02 +0.26    -0.342 N  
DOCKED: ATOM     26  H   UNL     1     143.207  78.203 221.029 -0.30 -0.47    +0.346 HD 
DOCKED: ATOM     27  H   UNL     1     142.104  77.575 222.131 -0.29 -0.29    +0.346 HD 
DOCKED: BRANCH  25  28
DOCKED: ATOM     28  C   UNL     1     141.569  79.420 221.315 -0.24 -0.12    +0.263 C  
DOCKED: BRANCH  28  29
DOCKED: ATOM     29  C   UNL     1     142.072  80.256 222.522 -0.55 -0.01    +0.038 C  
DOCKED: ATOM     30  C   UNL     1     141.356  81.612 222.612 -0.47 -0.00    +0.013 C  
DOCKED: ATOM     31  C   UNL     1     141.862  79.470 223.823 -0.62 -0.00    +0.013 C  
DOCKED: ENDBRANCH  28  29
DOCKED: ENDBRANCH  25  28
DOCKED: ENDBRANCH  24  25
DOCKED: ENDBRANCH  22  24
DOCKED: ENDBRANCH   4  18
DOCKED: TORSDOF 10
DOCKED: TER
DOCKED: ENDMDL
________________________________________________________________________________


    FINAL DOCKED STATE:
    ________________________


Run:   4 / 20
Time taken for this run:   0.033s

DOCKED: MODEL        4
DOCKED: USER    Run = 4
DOCKED: USER
DOCKED: USER    Estimated Free Energy of Binding    =  -8.97 kcal/mol  [=(1)+(2)+(3)-(4)]
DOCKED: USER
DOCKED: USER    (1) Final Intermolecular Energy     = -11.95 kcal/mol
DOCKED: USER        vdW + Hbond + desolv Energy     = -11.19 kcal/mol
DOCKED: USER        Electrostatic Energy            =  -0.76 kcal/mol
DOCKED: USER        Moving Ligand-Fixed Receptor    = -11.95 kcal/mol
DOCKED: USER        Moving Ligand-Moving Receptor   =  +0.00 kcal/mol
DOCKED: USER    (2) Final Total Internal Energy     =  -1.20 kcal/mol
DOCKED: USER    (3) Torsional Free Energy           =  +2.98 kcal/mol
DOCKED: USER    (4) Unbound System's Energy         =  -1.20 kcal/mol
DOCKED: USER
DOCKED: USER
DOCKED: REMARK SMILES CCCCc1cc([C@@H](C)c2ccc(-c3cccc(C[NH2+]CC(C)C)c3)cc2)on1
DOCKED: REMARK SMILES IDX 10 1 11 2 12 3 13 4 26 5 27 6 8 7 9 8 7 9 5 10 6 11 29 12
DOCKED: REMARK SMILES IDX 28 13 4 14 3 15 2 16 1 17 14 18 15 19 25 20 16 21 18 22
DOCKED: REMARK SMILES IDX 17 23 19 24 20 25 21 28 22 29 23 30 24 31
DOCKED: REMARK H PARENT 20 26 20 27
DOCKED: USER                              x       y       z     vdW  Elec       q    Type
DOCKED: USER                           _______ _______ _______ _____ _____    ______ ____
DOCKED: ROOT
DOCKED: ATOM      1  C   UNL     1     139.032  71.042 222.402 -0.20 +0.01    -0.037 A  
DOCKED: ATOM      2  C   UNL     1     138.550  72.362 222.350 -0.20 -0.00    +0.005 A  
DOCKED: ATOM      3  C   UNL     1     139.347  73.390 221.839 -0.24 -0.00    +0.009 A  
DOCKED: ATOM      4  C   UNL     1     140.638  73.117 221.355 -0.26 +0.00    -0.018 A  
DOCKED: ATOM      5  C   UNL     1     141.116  71.796 221.398 -0.22 -0.00    +0.009 A  
DOCKED: ATOM      6  C   UNL     1     140.321  70.768 221.914 -0.14 -0.00    +0.005 A  
DOCKED: ENDROOT
DOCKED: BRANCH   1   7
DOCKED: ATOM      7  C   UNL     1     138.169  69.915 222.931 -0.18 -0.01    +0.085 C  
DOCKED: ATOM      8  C   UNL     1     136.758  70.424 223.246 -0.17 -0.00    +0.021 C  
DOCKED: BRANCH   7   9
DOCKED: ATOM      9  C   UNL     1     138.805  69.266 224.132 -0.25 -0.02    +0.144 A  
DOCKED: ATOM     10  C   UNL     1     140.017  68.844 225.876 -0.45 -0.01    +0.084 A  
DOCKED: ATOM     11  C   UNL     1     139.803  69.811 224.914 -0.35 -0.01    +0.073 A  
DOCKED: ATOM     12  N   UNL     1     139.185  67.805 225.673 -0.89 +0.00    -0.085 NA 
DOCKED: ATOM     13  O   UNL     1     138.476  68.092 224.619 -0.44 -0.01    -0.361 OA 
DOCKED: BRANCH  10  14
DOCKED: ATOM     14  C   UNL     1     140.963  68.946 227.032 -0.56 -0.01    +0.060 C  
DOCKED: BRANCH  14  15
DOCKED: ATOM     15  C   UNL     1     140.365  69.758 228.192 -0.61 -0.00    +0.006 C  
DOCKED: BRANCH  15  16
DOCKED: ATOM     16  C   UNL     1     140.903  71.197 228.300 -0.67 +0.00    -0.003 C  
DOCKED: ATOM     17  C   UNL     1     141.069  71.874 226.940 -0.78 -0.00    +0.004 C  
DOCKED: ENDBRANCH  15  16
DOCKED: ENDBRANCH  14  15
DOCKED: ENDBRANCH  10  14
DOCKED: ENDBRANCH   7   9
DOCKED: ENDBRANCH   1   7
DOCKED: BRANCH   4  18
DOCKED: ATOM     18  C   UNL     1     141.489  74.205 220.817 -0.27 +0.00    -0.018 A  
DOCKED: ATOM     19  C   UNL     1     142.658  73.907 220.097 -0.26 -0.00    +0.009 A  
DOCKED: ATOM     20  C   UNL     1     141.115  75.552 220.985 -0.30 -0.01    +0.018 A  
DOCKED: ATOM     21  C   UNL     1     143.432  74.932 219.548 -0.35 -0.00    +0.001 A  
DOCKED: ATOM     22  C   UNL     1     141.891  76.584 220.434 -0.28 -0.00    +0.007 A  
DOCKED: ATOM     23  C   UNL     1     143.050  76.265 219.710 -0.39 -0.01    +0.009 A  
DOCKED: BRANCH  22  24
DOCKED: ATOM     24  C   UNL     1     141.451  78.024 220.566 -0.17 -0.16    +0.297 C  
DOCKED: BRANCH  24  25
DOCKED: ATOM     25  N   UNL     1     142.194  78.742 221.620 -0.16 +0.23    -0.342 N  
DOCKED: ATOM     26  H   UNL     1     142.406  79.709 221.273 -0.03 -0.21    +0.346 HD 
DOCKED: ATOM     27  H   UNL     1     143.114  78.268 221.773 -0.35 -0.41    +0.346 HD 
DOCKED: BRANCH  25  28
DOCKED: ATOM     28  C   UNL     1     141.464  78.869 222.901 -0.37 -0.09    +0.263 C  
DOCKED: BRANCH  28  29
DOCKED: ATOM     29  C   UNL     1     141.506  80.295 223.511 -0.56 -0.01    +0.038 C  
DOCKED: ATOM     30  C   UNL     1     142.944  80.737 223.823 -0.66 -0.00    +0.013 C  
DOCKED: ATOM     31  C   UNL     1     140.852  81.293 222.547 -0.42 -0.00    +0.013 C  
DOCKED: ENDBRANCH  28  29
DOCKED: ENDBRANCH  25  28
DOCKED: ENDBRANCH  24  25
DOCKED: ENDBRANCH  22  24
DOCKED: ENDBRANCH   4  18
DOCKED: TORSDOF 10
DOCKED: TER
DOCKED: ENDMDL
________________________________________________________________________________


    FINAL DOCKED STATE:
    ________________________


Run:   5 / 20
Time taken for this run:   0.033s

DOCKED: MODEL        5
DOCKED: USER    Run = 5
DOCKED: USER
DOCKED: USER    Estimated Free Energy of Binding    =  -8.91 kcal/mol  [=(1)+(2)+(3)-(4)]
DOCKED: USER
DOCKED: USER    (1) Final Intermolecular Energy     = -11.90 kcal/mol
DOCKED: USER        vdW + Hbond + desolv Energy     = -11.15 kcal/mol
DOCKED: USER        Electrostatic Energy            =  -0.75 kcal/mol
DOCKED: USER        Moving Ligand-Fixed Receptor    = -11.90 kcal/mol
DOCKED: USER        Moving Ligand-Moving Receptor   =  +0.00 kcal/mol
DOCKED: USER    (2) Final Total Internal Energy     =  -1.51 kcal/mol
DOCKED: USER    (3) Torsional Free Energy           =  +2.98 kcal/mol
DOCKED: USER    (4) Unbound System's Energy         =  -1.51 kcal/mol
DOCKED: USER
DOCKED: USER
DOCKED: REMARK SMILES CCCCc1cc([C@@H](C)c2ccc(-c3cccc(C[NH2+]CC(C)C)c3)cc2)on1
DOCKED: REMARK SMILES IDX 10 1 11 2 12 3 13 4 26 5 27 6 8 7 9 8 7 9 5 10 6 11 29 12
DOCKED: REMARK SMILES IDX 28 13 4 14 3 15 2 16 1 17 14 18 15 19 25 20 16 21 18 22
DOCKED: REMARK SMILES IDX 17 23 19 24 20 25 21 28 22 29 23 30 24 31
DOCKED: REMARK H PARENT 20 26 20 27
DOCKED: USER                              x       y       z     vdW  Elec       q    Type
DOCKED: USER                           _______ _______ _______ _____ _____    ______ ____
DOCKED: ROOT
DOCKED: ATOM      1  C   UNL     1     138.742  70.553 222.600 -0.19 +0.01    -0.037 A  
DOCKED: ATOM      2  C   UNL     1     140.119  70.836 222.552 -0.20 -0.00    +0.005 A  
DOCKED: ATOM      3  C   UNL     1     140.569  72.117 222.223 -0.31 -0.00    +0.009 A  
DOCKED: ATOM      4  C   UNL     1     139.651  73.146 221.950 -0.27 +0.00    -0.018 A  
DOCKED: ATOM      5  C   UNL     1     138.275  72.865 222.007 -0.17 -0.00    +0.009 A  
DOCKED: ATOM      6  C   UNL     1     137.825  71.582 222.330 -0.16 -0.00    +0.005 A  
DOCKED: ENDROOT
DOCKED: BRANCH   1   7
DOCKED: ATOM      7  C   UNL     1     138.241  69.174 222.979 -0.20 -0.01    +0.085 C  
DOCKED: ATOM      8  C   UNL     1     136.708  69.138 222.969 -0.16 -0.00    +0.021 C  
DOCKED: BRANCH   7   9
DOCKED: ATOM      9  C   UNL     1     138.796  68.745 224.312 -0.28 -0.02    +0.144 A  
DOCKED: ATOM     10  C   UNL     1     139.473  68.691 226.368 -0.48 -0.01    +0.084 A  
DOCKED: ATOM     11  C   UNL     1     138.952  69.550 225.421 -0.36 -0.01    +0.073 A  
DOCKED: ATOM     12  N   UNL     1     139.600  67.456 225.844 -0.82 +0.01    -0.085 NA 
DOCKED: ATOM     13  O   UNL     1     139.187  67.528 224.611 -0.72 -0.00    -0.361 OA 
DOCKED: BRANCH  10  14
DOCKED: ATOM     14  C   UNL     1     139.778  69.030 227.794 -0.57 -0.01    +0.060 C  
DOCKED: BRANCH  14  15
DOCKED: ATOM     15  C   UNL     1     141.050  69.883 227.921 -0.61 -0.00    +0.006 C  
DOCKED: BRANCH  15  16
DOCKED: ATOM     16  C   UNL     1     140.819  71.394 227.739 -0.79 +0.00    -0.003 C  
DOCKED: ATOM     17  C   UNL     1     141.171  71.884 226.335 -0.66 -0.00    +0.004 C  
DOCKED: ENDBRANCH  15  16
DOCKED: ENDBRANCH  14  15
DOCKED: ENDBRANCH  10  14
DOCKED: ENDBRANCH   7   9
DOCKED: ENDBRANCH   1   7
DOCKED: BRANCH   4  18
DOCKED: ATOM     18  C   UNL     1     140.125  74.506 221.595 -0.30 +0.00    -0.018 A  
DOCKED: ATOM     19  C   UNL     1     139.668  75.629 222.305 -0.31 -0.00    +0.009 A  
DOCKED: ATOM     20  C   UNL     1     141.070  74.685 220.568 -0.23 -0.00    +0.018 A  
DOCKED: ATOM     21  C   UNL     1     140.153  76.903 222.003 -0.37 -0.00    +0.001 A  
DOCKED: ATOM     22  C   UNL     1     141.560  75.966 220.262 -0.26 -0.00    +0.007 A  
DOCKED: ATOM     23  C   UNL     1     141.099  77.073 220.989 -0.30 -0.00    +0.009 A  
DOCKED: BRANCH  22  24
DOCKED: ATOM     24  C   UNL     1     142.620  76.143 219.199 -0.19 -0.16    +0.297 C  
DOCKED: BRANCH  24  25
DOCKED: ATOM     25  N   UNL     1     143.975  75.843 219.703 -0.19 +0.23    -0.342 N  
DOCKED: ATOM     26  H   UNL     1     144.267  76.621 220.343 -0.15 -0.33    +0.346 HD 
DOCKED: ATOM     27  H   UNL     1     144.645  75.846 218.900 -0.13 -0.31    +0.346 HD 
DOCKED: BRANCH  25  28
DOCKED: ATOM     28  C   UNL     1     144.078  74.572 220.453 -0.24 -0.11    +0.263 C  
DOCKED: BRANCH  28  29
DOCKED: ATOM     29  C   UNL     1     145.343  73.741 220.111 -0.51 -0.01    +0.038 C  
DOCKED: ATOM     30  C   UNL     1     146.302  73.646 221.307 -0.68 -0.00    +0.013 C  
DOCKED: ATOM     31  C   UNL     1     144.933  72.332 219.661 -0.36 +0.00    +0.013 C  
DOCKED: ENDBRANCH  28  29
DOCKED: ENDBRANCH  25  28
DOCKED: ENDBRANCH  24  25
DOCKED: ENDBRANCH  22  24
DOCKED: ENDBRANCH   4  18
DOCKED: TORSDOF 10
DOCKED: TER
DOCKED: ENDMDL
________________________________________________________________________________


    FINAL DOCKED STATE:
    ________________________


Run:   6 / 20
Time taken for this run:   0.033s

DOCKED: MODEL        6
DOCKED: USER    Run = 6
DOCKED: USER
DOCKED: USER    Estimated Free Energy of Binding    =  -8.47 kcal/mol  [=(1)+(2)+(3)-(4)]
DOCKED: USER
DOCKED: USER    (1) Final Intermolecular Energy     = -11.46 kcal/mol
DOCKED: USER        vdW + Hbond + desolv Energy     = -10.56 kcal/mol
DOCKED: USER        Electrostatic Energy            =  -0.90 kcal/mol
DOCKED: USER        Moving Ligand-Fixed Receptor    = -11.46 kcal/mol
DOCKED: USER        Moving Ligand-Moving Receptor   =  +0.00 kcal/mol
DOCKED: USER    (2) Final Total Internal Energy     =  -1.46 kcal/mol
DOCKED: USER    (3) Torsional Free Energy           =  +2.98 kcal/mol
DOCKED: USER    (4) Unbound System's Energy         =  -1.46 kcal/mol
DOCKED: USER
DOCKED: USER
DOCKED: REMARK SMILES CCCCc1cc([C@@H](C)c2ccc(-c3cccc(C[NH2+]CC(C)C)c3)cc2)on1
DOCKED: REMARK SMILES IDX 10 1 11 2 12 3 13 4 26 5 27 6 8 7 9 8 7 9 5 10 6 11 29 12
DOCKED: REMARK SMILES IDX 28 13 4 14 3 15 2 16 1 17 14 18 15 19 25 20 16 21 18 22
DOCKED: REMARK SMILES IDX 17 23 19 24 20 25 21 28 22 29 23 30 24 31
DOCKED: REMARK H PARENT 20 26 20 27
DOCKED: USER                              x       y       z     vdW  Elec       q    Type
DOCKED: USER                           _______ _______ _______ _____ _____    ______ ____
DOCKED: ROOT
DOCKED: ATOM      1  C   UNL     1     138.689  70.501 222.919 -0.21 +0.01    -0.037 A  
DOCKED: ATOM      2  C   UNL     1     137.770  71.495 222.536 -0.17 -0.00    +0.005 A  
DOCKED: ATOM      3  C   UNL     1     138.214  72.771 222.177 -0.15 -0.00    +0.009 A  
DOCKED: ATOM      4  C   UNL     1     139.586  73.074 222.179 -0.26 +0.00    -0.018 A  
DOCKED: ATOM      5  C   UNL     1     140.505  72.078 222.553 -0.33 -0.00    +0.009 A  
DOCKED: ATOM      6  C   UNL     1     140.060  70.803 222.917 -0.24 -0.00    +0.005 A  
DOCKED: ENDROOT
DOCKED: BRANCH   1   7
DOCKED: ATOM      7  C   UNL     1     138.222  69.107 223.287 -0.22 -0.01    +0.085 C  
DOCKED: ATOM      8  C   UNL     1     136.691  69.046 223.324 -0.18 -0.00    +0.021 C  
DOCKED: BRANCH   7   9
DOCKED: ATOM      9  C   UNL     1     138.826  68.663 224.593 -0.30 -0.01    +0.144 A  
DOCKED: ATOM     10  C   UNL     1     139.634  68.598 226.600 -0.51 -0.01    +0.084 A  
DOCKED: ATOM     11  C   UNL     1     139.129  69.478 225.663 -0.38 -0.01    +0.073 A  
DOCKED: ATOM     12  N   UNL     1     139.613  67.345 226.109 -0.75 +0.01    -0.085 NA 
DOCKED: ATOM     13  O   UNL     1     139.125  67.422 224.904 -0.76 -0.03    -0.361 OA 
DOCKED: BRANCH  10  14
DOCKED: ATOM     14  C   UNL     1     140.065  68.944 227.992 -0.60 -0.01    +0.060 C  
DOCKED: BRANCH  14  15
DOCKED: ATOM     15  C   UNL     1     139.805  70.422 228.322 -0.58 -0.00    +0.006 C  
DOCKED: BRANCH  15  16
DOCKED: ATOM     16  C   UNL     1     141.004  71.351 228.057 -0.76 +0.00    -0.003 C  
DOCKED: ATOM     17  C   UNL     1     141.049  71.866 226.618 -0.73 -0.00    +0.004 C  
DOCKED: ENDBRANCH  15  16
DOCKED: ENDBRANCH  14  15
DOCKED: ENDBRANCH  10  14
DOCKED: ENDBRANCH   7   9
DOCKED: ENDBRANCH   1   7
DOCKED: BRANCH   4  18
DOCKED: ATOM     18  C   UNL     1     140.061  74.429 221.804 -0.27 +0.00    -0.018 A  
DOCKED: ATOM     19  C   UNL     1     139.432  75.573 222.320 -0.32 -0.00    +0.009 A  
DOCKED: ATOM     20  C   UNL     1     141.175  74.584 220.958 -0.28 -0.00    +0.018 A  
DOCKED: ATOM     21  C   UNL     1     139.911  76.847 222.007 -0.35 -0.00    +0.001 A  
DOCKED: ATOM     22  C   UNL     1     141.659  75.863 220.641 -0.28 -0.00    +0.007 A  
DOCKED: ATOM     23  C   UNL     1     141.023  76.994 221.174 -0.32 -0.00    +0.009 A  
DOCKED: BRANCH  22  24
DOCKED: ATOM     24  C   UNL     1     142.892  76.021 219.782 -0.20 -0.17    +0.297 C  
DOCKED: BRANCH  24  25
DOCKED: ATOM     25  N   UNL     1     143.102  77.419 219.353 +0.01 +0.28    -0.342 N  
DOCKED: ATOM     26  H   UNL     1     144.078  77.505 218.980 -0.31 -0.32    +0.346 HD 
DOCKED: ATOM     27  H   UNL     1     143.042  78.044 220.188 -0.28 -0.39    +0.346 HD 
DOCKED: BRANCH  25  28
DOCKED: ATOM     28  C   UNL     1     142.169  77.878 218.300 -0.18 -0.17    +0.263 C  
DOCKED: BRANCH  28  29
DOCKED: ATOM     29  C   UNL     1     141.604  79.303 218.539 -0.23 -0.02    +0.038 C  
DOCKED: ATOM     30  C   UNL     1     142.519  80.385 217.945 -0.33 -0.01    +0.013 C  
DOCKED: ATOM     31  C   UNL     1     140.201  79.416 217.926 -0.07 -0.01    +0.013 C  
DOCKED: ENDBRANCH  28  29
DOCKED: ENDBRANCH  25  28
DOCKED: ENDBRANCH  24  25
DOCKED: ENDBRANCH  22  24
DOCKED: ENDBRANCH   4  18
DOCKED: TORSDOF 10
DOCKED: TER
DOCKED: ENDMDL
________________________________________________________________________________


    FINAL DOCKED STATE:
    ________________________


Run:   7 / 20
Time taken for this run:   0.033s

DOCKED: MODEL        7
DOCKED: USER    Run = 7
DOCKED: USER
DOCKED: USER    Estimated Free Energy of Binding    =  -8.68 kcal/mol  [=(1)+(2)+(3)-(4)]
DOCKED: USER
DOCKED: USER    (1) Final Intermolecular Energy     = -11.66 kcal/mol
DOCKED: USER        vdW + Hbond + desolv Energy     = -10.84 kcal/mol
DOCKED: USER        Electrostatic Energy            =  -0.82 kcal/mol
DOCKED: USER        Moving Ligand-Fixed Receptor    = -11.66 kcal/mol
DOCKED: USER        Moving Ligand-Moving Receptor   =  +0.00 kcal/mol
DOCKED: USER    (2) Final Total Internal Energy     =  -1.56 kcal/mol
DOCKED: USER    (3) Torsional Free Energy           =  +2.98 kcal/mol
DOCKED: USER    (4) Unbound System's Energy         =  -1.56 kcal/mol
DOCKED: USER
DOCKED: USER
DOCKED: REMARK SMILES CCCCc1cc([C@@H](C)c2ccc(-c3cccc(C[NH2+]CC(C)C)c3)cc2)on1
DOCKED: REMARK SMILES IDX 10 1 11 2 12 3 13 4 26 5 27 6 8 7 9 8 7 9 5 10 6 11 29 12
DOCKED: REMARK SMILES IDX 28 13 4 14 3 15 2 16 1 17 14 18 15 19 25 20 16 21 18 22
DOCKED: REMARK SMILES IDX 17 23 19 24 20 25 21 28 22 29 23 30 24 31
DOCKED: REMARK H PARENT 20 26 20 27
DOCKED: USER                              x       y       z     vdW  Elec       q    Type
DOCKED: USER                           _______ _______ _______ _____ _____    ______ ____
DOCKED: ROOT
DOCKED: ATOM      1  C   UNL     1     138.473  70.498 222.727 -0.19 +0.01    -0.037 A  
DOCKED: ATOM      2  C   UNL     1     139.831  70.847 222.613 -0.25 -0.00    +0.005 A  
DOCKED: ATOM      3  C   UNL     1     140.204  72.158 222.301 -0.31 -0.00    +0.009 A  
DOCKED: ATOM      4  C   UNL     1     139.226  73.149 222.112 -0.22 +0.00    -0.018 A  
DOCKED: ATOM      5  C   UNL     1     137.870  72.803 222.234 -0.14 -0.00    +0.009 A  
DOCKED: ATOM      6  C   UNL     1     137.497  71.491 222.541 -0.16 -0.00    +0.005 A  
DOCKED: ENDROOT
DOCKED: BRANCH   1   7
DOCKED: ATOM      7  C   UNL     1     138.057  69.087 223.088 -0.20 -0.01    +0.085 C  
DOCKED: ATOM      8  C   UNL     1     136.529  68.972 223.131 -0.16 -0.00    +0.021 C  
DOCKED: BRANCH   7   9
DOCKED: ATOM      9  C   UNL     1     138.682  68.656 224.389 -0.28 -0.01    +0.144 A  
DOCKED: ATOM     10  C   UNL     1     139.409  68.578 226.427 -0.48 -0.01    +0.084 A  
DOCKED: ATOM     11  C   UNL     1     138.787  69.424 225.530 -0.36 -0.01    +0.073 A  
DOCKED: ATOM     12  N   UNL     1     139.640  67.385 225.846 -0.82 +0.01    -0.085 NA 
DOCKED: ATOM     13  O   UNL     1     139.194  67.470 224.625 -0.74 -0.01    -0.361 OA 
DOCKED: BRANCH  10  14
DOCKED: ATOM     14  C   UNL     1     139.714  68.883 227.861 -0.55 -0.01    +0.060 C  
DOCKED: BRANCH  14  15
DOCKED: ATOM     15  C   UNL     1     140.981  69.742 228.007 -0.61 -0.00    +0.006 C  
DOCKED: BRANCH  15  16
DOCKED: ATOM     16  C   UNL     1     141.094  70.883 226.981 -0.66 +0.00    -0.003 C  
DOCKED: ATOM     17  C   UNL     1     141.063  72.268 227.626 -0.80 -0.00    +0.004 C  
DOCKED: ENDBRANCH  15  16
DOCKED: ENDBRANCH  14  15
DOCKED: ENDBRANCH  10  14
DOCKED: ENDBRANCH   7   9
DOCKED: ENDBRANCH   1   7
DOCKED: BRANCH   4  18
DOCKED: ATOM     18  C   UNL     1     139.617  74.540 221.775 -0.28 +0.00    -0.018 A  
DOCKED: ATOM     19  C   UNL     1     139.041  75.627 222.453 -0.28 -0.00    +0.009 A  
DOCKED: ATOM     20  C   UNL     1     140.601  74.787 220.799 -0.24 -0.00    +0.018 A  
DOCKED: ATOM     21  C   UNL     1     139.446  76.934 222.171 -0.33 -0.00    +0.001 A  
DOCKED: ATOM     22  C   UNL     1     141.011  76.100 220.513 -0.24 -0.00    +0.007 A  
DOCKED: ATOM     23  C   UNL     1     140.431  77.171 221.208 -0.27 -0.00    +0.009 A  
DOCKED: BRANCH  22  24
DOCKED: ATOM     24  C   UNL     1     142.111  76.354 219.509 -0.17 -0.15    +0.297 C  
DOCKED: BRANCH  24  25
DOCKED: ATOM     25  N   UNL     1     143.452  76.082 220.064 -0.15 +0.24    -0.342 N  
DOCKED: ATOM     26  H   UNL     1     143.364  75.994 221.105 -0.09 -0.39    +0.346 HD 
DOCKED: ATOM     27  H   UNL     1     144.069  76.905 219.881 -0.25 -0.33    +0.346 HD 
DOCKED: BRANCH  25  28
DOCKED: ATOM     28  C   UNL     1     144.082  74.844 219.553 -0.18 -0.12    +0.263 C  
DOCKED: BRANCH  28  29
DOCKED: ATOM     29  C   UNL     1     144.446  73.821 220.661 -0.45 -0.01    +0.038 C  
DOCKED: ATOM     30  C   UNL     1     143.811  72.447 220.397 -0.34 -0.00    +0.013 C  
DOCKED: ATOM     31  C   UNL     1     145.971  73.678 220.757 -0.68 -0.00    +0.013 C  
DOCKED: ENDBRANCH  28  29
DOCKED: ENDBRANCH  25  28
DOCKED: ENDBRANCH  24  25
DOCKED: ENDBRANCH  22  24
DOCKED: ENDBRANCH   4  18
DOCKED: TORSDOF 10
DOCKED: TER
DOCKED: ENDMDL
________________________________________________________________________________


    FINAL DOCKED STATE:
    ________________________


Run:   8 / 20
Time taken for this run:   0.033s

DOCKED: MODEL        8
DOCKED: USER    Run = 8
DOCKED: USER
DOCKED: USER    Estimated Free Energy of Binding    =  -9.17 kcal/mol  [=(1)+(2)+(3)-(4)]
DOCKED: USER
DOCKED: USER    (1) Final Intermolecular Energy     = -12.15 kcal/mol
DOCKED: USER        vdW + Hbond + desolv Energy     = -11.37 kcal/mol
DOCKED: USER        Electrostatic Energy            =  -0.78 kcal/mol
DOCKED: USER        Moving Ligand-Fixed Receptor    = -12.15 kcal/mol
DOCKED: USER        Moving Ligand-Moving Receptor   =  +0.00 kcal/mol
DOCKED: USER    (2) Final Total Internal Energy     =  -1.40 kcal/mol
DOCKED: USER    (3) Torsional Free Energy           =  +2.98 kcal/mol
DOCKED: USER    (4) Unbound System's Energy         =  -1.40 kcal/mol
DOCKED: USER
DOCKED: USER
DOCKED: REMARK SMILES CCCCc1cc([C@@H](C)c2ccc(-c3cccc(C[NH2+]CC(C)C)c3)cc2)on1
DOCKED: REMARK SMILES IDX 10 1 11 2 12 3 13 4 26 5 27 6 8 7 9 8 7 9 5 10 6 11 29 12
DOCKED: REMARK SMILES IDX 28 13 4 14 3 15 2 16 1 17 14 18 15 19 25 20 16 21 18 22
DOCKED: REMARK SMILES IDX 17 23 19 24 20 25 21 28 22 29 23 30 24 31
DOCKED: REMARK H PARENT 20 26 20 27
DOCKED: USER                              x       y       z     vdW  Elec       q    Type
DOCKED: USER                           _______ _______ _______ _____ _____    ______ ____
DOCKED: ROOT
DOCKED: ATOM      1  C   UNL     1     138.714  70.882 222.784 -0.21 +0.01    -0.037 A  
DOCKED: ATOM      2  C   UNL     1     140.083  70.661 222.548 -0.15 -0.00    +0.005 A  
DOCKED: ATOM      3  C   UNL     1     140.888  71.680 222.031 -0.24 -0.00    +0.009 A  
DOCKED: ATOM      4  C   UNL     1     140.344  72.945 221.753 -0.28 +0.00    -0.018 A  
DOCKED: ATOM      5  C   UNL     1     138.978  73.169 221.997 -0.21 -0.00    +0.009 A  
DOCKED: ATOM      6  C   UNL     1     138.172  72.149 222.509 -0.17 -0.00    +0.005 A  
DOCKED: ENDROOT
DOCKED: BRANCH   1   7
DOCKED: ATOM      7  C   UNL     1     137.836  69.794 223.367 -0.20 -0.01    +0.085 C  
DOCKED: ATOM      8  C   UNL     1     136.503  70.379 223.846 -0.21 -0.00    +0.021 C  
DOCKED: BRANCH   7   9
DOCKED: ATOM      9  C   UNL     1     138.549  69.059 224.472 -0.27 -0.02    +0.144 A  
DOCKED: ATOM     10  C   UNL     1     139.519  68.526 226.332 -0.50 -0.01    +0.084 A  
DOCKED: ATOM     11  C   UNL     1     138.932  69.594 225.684 -0.36 -0.01    +0.073 A  
DOCKED: ATOM     12  N   UNL     1     139.468  67.432 225.549 -0.92 +0.00    -0.085 NA 
DOCKED: ATOM     13  O   UNL     1     138.883  67.789 224.442 -0.58 -0.00    -0.361 OA 
DOCKED: BRANCH  10  14
DOCKED: ATOM     14  C   UNL     1     140.060  68.531 227.729 -0.61 -0.01    +0.060 C  
DOCKED: BRANCH  14  15
DOCKED: ATOM     15  C   UNL     1     139.955  69.919 228.379 -0.57 -0.00    +0.006 C  
DOCKED: BRANCH  15  16
DOCKED: ATOM     16  C   UNL     1     141.143  70.851 228.077 -0.61 +0.00    -0.003 C  
DOCKED: ATOM     17  C   UNL     1     140.837  71.866 226.976 -0.75 -0.00    +0.004 C  
DOCKED: ENDBRANCH  15  16
DOCKED: ENDBRANCH  14  15
DOCKED: ENDBRANCH  10  14
DOCKED: ENDBRANCH   7   9
DOCKED: ENDBRANCH   1   7
DOCKED: BRANCH   4  18
DOCKED: ATOM     18  C   UNL     1     141.194  74.027 221.199 -0.29 +0.00    -0.018 A  
DOCKED: ATOM     19  C   UNL     1     142.398  73.723 220.542 -0.27 -0.00    +0.009 A  
DOCKED: ATOM     20  C   UNL     1     140.784  75.371 221.288 -0.32 -0.00    +0.018 A  
DOCKED: ATOM     21  C   UNL     1     143.172  74.739 219.976 -0.35 -0.00    +0.001 A  
DOCKED: ATOM     22  C   UNL     1     141.560  76.394 220.719 -0.28 -0.00    +0.007 A  
DOCKED: ATOM     23  C   UNL     1     142.754  76.070 220.060 -0.31 -0.01    +0.009 A  
DOCKED: BRANCH  22  24
DOCKED: ATOM     24  C   UNL     1     141.084  77.828 220.765 -0.16 -0.13    +0.297 C  
DOCKED: BRANCH  24  25
DOCKED: ATOM     25  N   UNL     1     142.200  78.786 220.896 -0.04 +0.24    -0.342 N  
DOCKED: ATOM     26  H   UNL     1     142.510  79.062 219.933 -0.06 -0.29    +0.346 HD 
DOCKED: ATOM     27  H   UNL     1     143.012  78.304 221.346 -0.34 -0.41    +0.346 HD 
DOCKED: BRANCH  25  28
DOCKED: ATOM     28  C   UNL     1     141.860  80.020 221.637 -0.29 -0.11    +0.263 C  
DOCKED: BRANCH  28  29
DOCKED: ATOM     29  C   UNL     1     142.380  80.038 223.099 -0.62 -0.01    +0.038 C  
DOCKED: ATOM     30  C   UNL     1     141.980  81.331 223.828 -0.59 -0.00    +0.013 C  
DOCKED: ATOM     31  C   UNL     1     141.835  78.823 223.861 -0.59 -0.00    +0.013 C  
DOCKED: ENDBRANCH  28  29
DOCKED: ENDBRANCH  25  28
DOCKED: ENDBRANCH  24  25
DOCKED: ENDBRANCH  22  24
DOCKED: ENDBRANCH   4  18
DOCKED: TORSDOF 10
DOCKED: TER
DOCKED: ENDMDL
________________________________________________________________________________


    FINAL DOCKED STATE:
    ________________________


Run:   9 / 20
Time taken for this run:   0.033s

DOCKED: MODEL        9
DOCKED: USER    Run = 9
DOCKED: USER
DOCKED: USER    Estimated Free Energy of Binding    =  -9.55 kcal/mol  [=(1)+(2)+(3)-(4)]
DOCKED: USER
DOCKED: USER    (1) Final Intermolecular Energy     = -12.53 kcal/mol
DOCKED: USER        vdW + Hbond + desolv Energy     = -11.69 kcal/mol
DOCKED: USER        Electrostatic Energy            =  -0.84 kcal/mol
DOCKED: USER        Moving Ligand-Fixed Receptor    = -12.53 kcal/mol
DOCKED: USER        Moving Ligand-Moving Receptor   =  +0.00 kcal/mol
DOCKED: USER    (2) Final Total Internal Energy     =  -1.30 kcal/mol
DOCKED: USER    (3) Torsional Free Energy           =  +2.98 kcal/mol
DOCKED: USER    (4) Unbound System's Energy         =  -1.30 kcal/mol
DOCKED: USER
DOCKED: USER
DOCKED: REMARK SMILES CCCCc1cc([C@@H](C)c2ccc(-c3cccc(C[NH2+]CC(C)C)c3)cc2)on1
DOCKED: REMARK SMILES IDX 10 1 11 2 12 3 13 4 26 5 27 6 8 7 9 8 7 9 5 10 6 11 29 12
DOCKED: REMARK SMILES IDX 28 13 4 14 3 15 2 16 1 17 14 18 15 19 25 20 16 21 18 22
DOCKED: REMARK SMILES IDX 17 23 19 24 20 25 21 28 22 29 23 30 24 31
DOCKED: REMARK H PARENT 20 26 20 27
DOCKED: USER                              x       y       z     vdW  Elec       q    Type
DOCKED: USER                           _______ _______ _______ _____ _____    ______ ____
DOCKED: ROOT
DOCKED: ATOM      1  C   UNL     1     138.587  70.774 223.175 -0.24 +0.01    -0.037 A  
DOCKED: ATOM      2  C   UNL     1     137.987  71.863 222.518 -0.18 -0.00    +0.005 A  
DOCKED: ATOM      3  C   UNL     1     138.772  72.864 221.938 -0.20 -0.00    +0.009 A  
DOCKED: ATOM      4  C   UNL     1     140.174  72.788 221.991 -0.29 +0.00    -0.018 A  
DOCKED: ATOM      5  C   UNL     1     140.775  71.695 222.640 -0.28 -0.00    +0.009 A  
DOCKED: ATOM      6  C   UNL     1     139.989  70.697 223.224 -0.27 -0.00    +0.005 A  
DOCKED: ENDROOT
DOCKED: BRANCH   1   7
DOCKED: ATOM      7  C   UNL     1     137.747  69.671 223.786 -0.23 -0.01    +0.085 C  
DOCKED: ATOM      8  C   UNL     1     136.409  70.229 224.283 -0.22 -0.00    +0.021 C  
DOCKED: BRANCH   7   9
DOCKED: ATOM      9  C   UNL     1     138.497  68.967 224.885 -0.30 -0.01    +0.144 A  
DOCKED: ATOM     10  C   UNL     1     139.501  68.475 226.739 -0.50 -0.01    +0.084 A  
DOCKED: ATOM     11  C   UNL     1     138.865  69.517 226.096 -0.34 -0.01    +0.073 A  
DOCKED: ATOM     12  N   UNL     1     139.492  67.380 225.955 -0.85 +0.00    -0.085 NA 
DOCKED: ATOM     13  O   UNL     1     138.885  67.713 224.852 -0.66 -0.03    -0.361 OA 
DOCKED: BRANCH  10  14
DOCKED: ATOM     14  C   UNL     1     140.049  68.502 228.132 -0.58 -0.01    +0.060 C  
DOCKED: BRANCH  14  15
DOCKED: ATOM     15  C   UNL     1     141.077  69.628 228.322 -0.56 -0.00    +0.006 C  
DOCKED: BRANCH  15  16
DOCKED: ATOM     16  C   UNL     1     140.482  71.047 228.255 -0.65 +0.00    -0.003 C  
DOCKED: ATOM     17  C   UNL     1     141.086  71.893 227.135 -0.80 -0.00    +0.004 C  
DOCKED: ENDBRANCH  15  16
DOCKED: ENDBRANCH  14  15
DOCKED: ENDBRANCH  10  14
DOCKED: ENDBRANCH   7   9
DOCKED: ENDBRANCH   1   7
DOCKED: BRANCH   4  18
DOCKED: ATOM     18  C   UNL     1     141.012  73.851 221.383 -0.29 +0.00    -0.018 A  
DOCKED: ATOM     19  C   UNL     1     142.121  73.517 220.588 -0.26 -0.00    +0.009 A  
DOCKED: ATOM     20  C   UNL     1     140.682  75.207 221.560 -0.34 -0.00    +0.018 A  
DOCKED: ATOM     21  C   UNL     1     142.879  74.517 219.974 -0.31 -0.00    +0.001 A  
DOCKED: ATOM     22  C   UNL     1     141.441  76.215 220.944 -0.30 -0.00    +0.007 A  
DOCKED: ATOM     23  C   UNL     1     142.539  75.861 220.147 -0.30 -0.00    +0.009 A  
DOCKED: BRANCH  22  24
DOCKED: ATOM     24  C   UNL     1     141.045  77.666 221.089 -0.18 -0.13    +0.297 C  
DOCKED: BRANCH  24  25
DOCKED: ATOM     25  N   UNL     1     142.213  78.552 221.263 -0.08 +0.25    -0.342 N  
DOCKED: ATOM     26  H   UNL     1     142.698  78.642 220.338 -0.20 -0.34    +0.346 HD 
DOCKED: ATOM     27  H   UNL     1     142.891  78.097 221.916 -0.33 -0.40    +0.346 HD 
DOCKED: BRANCH  25  28
DOCKED: ATOM     28  C   UNL     1     141.879  79.913 221.737 -0.30 -0.11    +0.263 C  
DOCKED: BRANCH  28  29
DOCKED: ATOM     29  C   UNL     1     141.640  80.005 223.267 -0.57 -0.01    +0.038 C  
DOCKED: ATOM     30  C   UNL     1     142.661  80.931 223.948 -0.63 -0.00    +0.013 C  
DOCKED: ATOM     31  C   UNL     1     140.217  80.510 223.543 -0.44 -0.00    +0.013 C  
DOCKED: ENDBRANCH  28  29
DOCKED: ENDBRANCH  25  28
DOCKED: ENDBRANCH  24  25
DOCKED: ENDBRANCH  22  24
DOCKED: ENDBRANCH   4  18
DOCKED: TORSDOF 10
DOCKED: TER
DOCKED: ENDMDL
________________________________________________________________________________


    FINAL DOCKED STATE:
    ________________________


Run:   10 / 20
Time taken for this run:   0.033s

DOCKED: MODEL        10
DOCKED: USER    Run = 10
DOCKED: USER
DOCKED: USER    Estimated Free Energy of Binding    =  -9.04 kcal/mol  [=(1)+(2)+(3)-(4)]
DOCKED: USER
DOCKED: USER    (1) Final Intermolecular Energy     = -12.02 kcal/mol
DOCKED: USER        vdW + Hbond + desolv Energy     = -11.13 kcal/mol
DOCKED: USER        Electrostatic Energy            =  -0.88 kcal/mol
DOCKED: USER        Moving Ligand-Fixed Receptor    = -12.02 kcal/mol
DOCKED: USER        Moving Ligand-Moving Receptor   =  +0.00 kcal/mol
DOCKED: USER    (2) Final Total Internal Energy     =  -1.26 kcal/mol
DOCKED: USER    (3) Torsional Free Energy           =  +2.98 kcal/mol
DOCKED: USER    (4) Unbound System's Energy         =  -1.26 kcal/mol
DOCKED: USER
DOCKED: USER
DOCKED: REMARK SMILES CCCCc1cc([C@@H](C)c2ccc(-c3cccc(C[NH2+]CC(C)C)c3)cc2)on1
DOCKED: REMARK SMILES IDX 10 1 11 2 12 3 13 4 26 5 27 6 8 7 9 8 7 9 5 10 6 11 29 12
DOCKED: REMARK SMILES IDX 28 13 4 14 3 15 2 16 1 17 14 18 15 19 25 20 16 21 18 22
DOCKED: REMARK SMILES IDX 17 23 19 24 20 25 21 28 22 29 23 30 24 31
DOCKED: REMARK H PARENT 20 26 20 27
DOCKED: USER                              x       y       z     vdW  Elec       q    Type
DOCKED: USER                           _______ _______ _______ _____ _____    ______ ____
DOCKED: ROOT
DOCKED: ATOM      1  C   UNL     1     138.747  70.889 222.811 -0.22 +0.01    -0.037 A  
DOCKED: ATOM      2  C   UNL     1     140.099  70.571 222.590 -0.11 -0.00    +0.005 A  
DOCKED: ATOM      3  C   UNL     1     140.975  71.521 222.058 -0.21 -0.00    +0.009 A  
DOCKED: ATOM      4  C   UNL     1     140.519  72.814 221.749 -0.29 +0.00    -0.018 A  
DOCKED: ATOM      5  C   UNL     1     139.170  73.135 221.977 -0.24 -0.00    +0.009 A  
DOCKED: ATOM      6  C   UNL     1     138.293  72.183 222.505 -0.17 -0.00    +0.005 A  
DOCKED: ENDROOT
DOCKED: BRANCH   1   7
DOCKED: ATOM      7  C   UNL     1     137.793  69.875 223.410 -0.20 -0.01    +0.085 C  
DOCKED: ATOM      8  C   UNL     1     136.499  70.559 223.864 -0.21 -0.00    +0.021 C  
DOCKED: BRANCH   7   9
DOCKED: ATOM      9  C   UNL     1     138.447  69.120 224.537 -0.27 -0.01    +0.144 A  
DOCKED: ATOM     10  C   UNL     1     139.319  68.552 226.435 -0.47 -0.01    +0.084 A  
DOCKED: ATOM     11  C   UNL     1     138.769  69.633 225.776 -0.32 -0.01    +0.073 A  
DOCKED: ATOM     12  N   UNL     1     139.306  67.472 225.631 -0.94 -0.00    -0.085 NA 
DOCKED: ATOM     13  O   UNL     1     138.779  67.850 224.502 -0.54 -0.01    -0.361 OA 
DOCKED: BRANCH  10  14
DOCKED: ATOM     14  C   UNL     1     139.788  68.531 227.857 -0.54 -0.01    +0.060 C  
DOCKED: BRANCH  14  15
DOCKED: ATOM     15  C   UNL     1     141.113  69.289 228.035 -0.58 -0.00    +0.006 C  
DOCKED: BRANCH  15  16
DOCKED: ATOM     16  C   UNL     1     141.100  70.726 227.482 -0.64 +0.00    -0.003 C  
DOCKED: ATOM     17  C   UNL     1     140.220  71.670 228.301 -0.68 -0.00    +0.004 C  
DOCKED: ENDBRANCH  15  16
DOCKED: ENDBRANCH  14  15
DOCKED: ENDBRANCH  10  14
DOCKED: ENDBRANCH   7   9
DOCKED: ENDBRANCH   1   7
DOCKED: BRANCH   4  18
DOCKED: ATOM     18  C   UNL     1     141.444  73.824 221.178 -0.28 +0.00    -0.018 A  
DOCKED: ATOM     19  C   UNL     1     142.715  73.446 220.714 -0.28 -0.00    +0.009 A  
DOCKED: ATOM     20  C   UNL     1     141.044  75.168 221.058 -0.30 -0.00    +0.018 A  
DOCKED: ATOM     21  C   UNL     1     143.565  74.389 220.131 -0.38 -0.00    +0.001 A  
DOCKED: ATOM     22  C   UNL     1     141.896  76.118 220.471 -0.28 -0.00    +0.007 A  
DOCKED: ATOM     23  C   UNL     1     143.157  75.719 220.005 -0.34 -0.01    +0.009 A  
DOCKED: BRANCH  22  24
DOCKED: ATOM     24  C   UNL     1     141.437  77.546 220.289 -0.16 -0.15    +0.297 C  
DOCKED: BRANCH  24  25
DOCKED: ATOM     25  N   UNL     1     142.209  78.494 221.117 -0.07 +0.25    -0.342 N  
DOCKED: ATOM     26  H   UNL     1     142.938  78.942 220.511 -0.18 -0.40    +0.346 HD 
DOCKED: ATOM     27  H   UNL     1     142.719  77.961 221.858 -0.33 -0.38    +0.346 HD 
DOCKED: BRANCH  25  28
DOCKED: ATOM     28  C   UNL     1     141.397  79.571 221.727 -0.26 -0.10    +0.263 C  
DOCKED: BRANCH  28  29
DOCKED: ATOM     29  C   UNL     1     141.456  79.601 223.277 -0.55 -0.01    +0.038 C  
DOCKED: ATOM     30  C   UNL     1     142.564  80.536 223.786 -0.68 -0.00    +0.013 C  
DOCKED: ATOM     31  C   UNL     1     140.100  80.048 223.840 -0.41 -0.00    +0.013 C  
DOCKED: ENDBRANCH  28  29
DOCKED: ENDBRANCH  25  28
DOCKED: ENDBRANCH  24  25
DOCKED: ENDBRANCH  22  24
DOCKED: ENDBRANCH   4  18
DOCKED: TORSDOF 10
DOCKED: TER
DOCKED: ENDMDL
________________________________________________________________________________


    FINAL DOCKED STATE:
    ________________________


Run:   11 / 20
Time taken for this run:   0.033s

DOCKED: MODEL        11
DOCKED: USER    Run = 11
DOCKED: USER
DOCKED: USER    Estimated Free Energy of Binding    =  -9.23 kcal/mol  [=(1)+(2)+(3)-(4)]
DOCKED: USER
DOCKED: USER    (1) Final Intermolecular Energy     = -12.22 kcal/mol
DOCKED: USER        vdW + Hbond + desolv Energy     = -11.44 kcal/mol
DOCKED: USER        Electrostatic Energy            =  -0.78 kcal/mol
DOCKED: USER        Moving Ligand-Fixed Receptor    = -12.22 kcal/mol
DOCKED: USER        Moving Ligand-Moving Receptor   =  +0.00 kcal/mol
DOCKED: USER    (2) Final Total Internal Energy     =  -1.39 kcal/mol
DOCKED: USER    (3) Torsional Free Energy           =  +2.98 kcal/mol
DOCKED: USER    (4) Unbound System's Energy         =  -1.39 kcal/mol
DOCKED: USER
DOCKED: USER
DOCKED: REMARK SMILES CCCCc1cc([C@@H](C)c2ccc(-c3cccc(C[NH2+]CC(C)C)c3)cc2)on1
DOCKED: REMARK SMILES IDX 10 1 11 2 12 3 13 4 26 5 27 6 8 7 9 8 7 9 5 10 6 11 29 12
DOCKED: REMARK SMILES IDX 28 13 4 14 3 15 2 16 1 17 14 18 15 19 25 20 16 21 18 22
DOCKED: REMARK SMILES IDX 17 23 19 24 20 25 21 28 22 29 23 30 24 31
DOCKED: REMARK H PARENT 20 26 20 27
DOCKED: USER                              x       y       z     vdW  Elec       q    Type
DOCKED: USER                           _______ _______ _______ _____ _____    ______ ____
DOCKED: ROOT
DOCKED: ATOM      1  C   UNL     1     138.673  70.944 222.861 -0.22 +0.01    -0.037 A  
DOCKED: ATOM      2  C   UNL     1     140.062  70.745 222.764 -0.21 -0.00    +0.005 A  
DOCKED: ATOM      3  C   UNL     1     140.886  71.739 222.228 -0.26 -0.00    +0.009 A  
DOCKED: ATOM      4  C   UNL     1     140.340  72.958 221.792 -0.29 +0.00    -0.018 A  
DOCKED: ATOM      5  C   UNL     1     138.953  73.160 221.897 -0.22 -0.00    +0.009 A  
DOCKED: ATOM      6  C   UNL     1     138.128  72.165 222.427 -0.17 -0.00    +0.005 A  
DOCKED: ENDROOT
DOCKED: BRANCH   1   7
DOCKED: ATOM      7  C   UNL     1     137.772  69.885 223.462 -0.21 -0.01    +0.085 C  
DOCKED: ATOM      8  C   UNL     1     136.513  70.525 224.055 -0.21 -0.00    +0.021 C  
DOCKED: BRANCH   7   9
DOCKED: ATOM      9  C   UNL     1     138.512  69.064 224.486 -0.27 -0.02    +0.144 A  
DOCKED: ATOM     10  C   UNL     1     139.472  68.361 226.294 -0.50 -0.01    +0.084 A  
DOCKED: ATOM     11  C   UNL     1     138.818  69.458 225.772 -0.36 -0.01    +0.073 A  
DOCKED: ATOM     12  N   UNL     1     139.532  67.382 225.371 -0.96 +0.00    -0.085 NA 
DOCKED: ATOM     13  O   UNL     1     138.949  67.840 224.300 -0.54 +0.01    -0.361 OA 
DOCKED: BRANCH  10  14
DOCKED: ATOM     14  C   UNL     1     139.973  68.218 227.698 -0.58 -0.01    +0.060 C  
DOCKED: BRANCH  14  15
DOCKED: ATOM     15  C   UNL     1     139.965  69.559 228.448 -0.55 -0.00    +0.006 C  
DOCKED: BRANCH  15  16
DOCKED: ATOM     16  C   UNL     1     141.132  70.495 228.083 -0.56 +0.00    -0.003 C  
DOCKED: ATOM     17  C   UNL     1     140.674  71.760 227.356 -0.78 -0.00    +0.004 C  
DOCKED: ENDBRANCH  15  16
DOCKED: ENDBRANCH  14  15
DOCKED: ENDBRANCH  10  14
DOCKED: ENDBRANCH   7   9
DOCKED: ENDBRANCH   1   7
DOCKED: BRANCH   4  18
DOCKED: ATOM     18  C   UNL     1     141.211  74.013 221.218 -0.29 +0.00    -0.018 A  
DOCKED: ATOM     19  C   UNL     1     142.428  73.676 220.602 -0.27 -0.00    +0.009 A  
DOCKED: ATOM     20  C   UNL     1     140.809  75.361 221.246 -0.31 -0.00    +0.018 A  
DOCKED: ATOM     21  C   UNL     1     143.222  74.665 220.017 -0.36 -0.00    +0.001 A  
DOCKED: ATOM     22  C   UNL     1     141.605  76.357 220.658 -0.27 -0.00    +0.007 A  
DOCKED: ATOM     23  C   UNL     1     142.812  76.000 220.040 -0.32 -0.01    +0.009 A  
DOCKED: BRANCH  22  24
DOCKED: ATOM     24  C   UNL     1     141.138  77.795 220.637 -0.15 -0.14    +0.297 C  
DOCKED: BRANCH  24  25
DOCKED: ATOM     25  N   UNL     1     142.194  78.733 221.068 -0.08 +0.24    -0.342 N  
DOCKED: ATOM     26  H   UNL     1     142.656  79.123 220.211 -0.12 -0.32    +0.346 HD 
DOCKED: ATOM     27  H   UNL     1     142.928  78.204 221.591 -0.36 -0.39    +0.346 HD 
DOCKED: BRANCH  25  28
DOCKED: ATOM     28  C   UNL     1     141.704  79.870 221.879 -0.30 -0.10    +0.263 C  
DOCKED: BRANCH  28  29
DOCKED: ATOM     29  C   UNL     1     142.375  79.981 223.274 -0.63 -0.01    +0.038 C  
DOCKED: ATOM     30  C   UNL     1     142.186  81.378 223.885 -0.60 -0.00    +0.013 C  
DOCKED: ATOM     31  C   UNL     1     141.794  78.919 224.217 -0.51 -0.00    +0.013 C  
DOCKED: ENDBRANCH  28  29
DOCKED: ENDBRANCH  25  28
DOCKED: ENDBRANCH  24  25
DOCKED: ENDBRANCH  22  24
DOCKED: ENDBRANCH   4  18
DOCKED: TORSDOF 10
DOCKED: TER
DOCKED: ENDMDL
________________________________________________________________________________


    FINAL DOCKED STATE:
    ________________________


Run:   12 / 20
Time taken for this run:   0.033s

DOCKED: MODEL        12
DOCKED: USER    Run = 12
DOCKED: USER
DOCKED: USER    Estimated Free Energy of Binding    =  -8.12 kcal/mol  [=(1)+(2)+(3)-(4)]
DOCKED: USER
DOCKED: USER    (1) Final Intermolecular Energy     = -11.11 kcal/mol
DOCKED: USER        vdW + Hbond + desolv Energy     = -10.63 kcal/mol
DOCKED: USER        Electrostatic Energy            =  -0.48 kcal/mol
DOCKED: USER        Moving Ligand-Fixed Receptor    = -11.11 kcal/mol
DOCKED: USER        Moving Ligand-Moving Receptor   =  +0.00 kcal/mol
DOCKED: USER    (2) Final Total Internal Energy     =  -1.72 kcal/mol
DOCKED: USER    (3) Torsional Free Energy           =  +2.98 kcal/mol
DOCKED: USER    (4) Unbound System's Energy         =  -1.72 kcal/mol
DOCKED: USER
DOCKED: USER
DOCKED: REMARK SMILES CCCCc1cc([C@@H](C)c2ccc(-c3cccc(C[NH2+]CC(C)C)c3)cc2)on1
DOCKED: REMARK SMILES IDX 10 1 11 2 12 3 13 4 26 5 27 6 8 7 9 8 7 9 5 10 6 11 29 12
DOCKED: REMARK SMILES IDX 28 13 4 14 3 15 2 16 1 17 14 18 15 19 25 20 16 21 18 22
DOCKED: REMARK SMILES IDX 17 23 19 24 20 25 21 28 22 29 23 30 24 31
DOCKED: REMARK H PARENT 20 26 20 27
DOCKED: USER                              x       y       z     vdW  Elec       q    Type
DOCKED: USER                           _______ _______ _______ _____ _____    ______ ____
DOCKED: ROOT
DOCKED: ATOM      1  C   UNL     1     138.820  70.627 222.701 -0.20 +0.01    -0.037 A  
DOCKED: ATOM      2  C   UNL     1     137.953  71.719 222.520 -0.18 -0.00    +0.005 A  
DOCKED: ATOM      3  C   UNL     1     138.457  72.975 222.169 -0.14 -0.00    +0.009 A  
DOCKED: ATOM      4  C   UNL     1     139.837  73.160 221.977 -0.28 +0.00    -0.018 A  
DOCKED: ATOM      5  C   UNL     1     140.702  72.065 222.149 -0.30 -0.00    +0.009 A  
DOCKED: ATOM      6  C   UNL     1     140.198  70.811 222.505 -0.17 -0.00    +0.005 A  
DOCKED: ENDROOT
DOCKED: BRANCH   1   7
DOCKED: ATOM      7  C   UNL     1     138.283  69.255 223.057 -0.20 -0.01    +0.085 C  
DOCKED: ATOM      8  C   UNL     1     136.752  69.279 223.122 -0.17 -0.00    +0.021 C  
DOCKED: BRANCH   7   9
DOCKED: ATOM      9  C   UNL     1     138.885  68.758 224.345 -0.28 -0.02    +0.144 A  
DOCKED: ATOM     10  C   UNL     1     139.729  68.619 226.334 -0.50 -0.01    +0.084 A  
DOCKED: ATOM     11  C   UNL     1     139.261  69.540 225.418 -0.37 -0.01    +0.073 A  
DOCKED: ATOM     12  N   UNL     1     139.619  67.375 225.829 -0.84 +0.01    -0.085 NA 
DOCKED: ATOM     13  O   UNL     1     139.112  67.498 224.636 -0.70 -0.01    -0.361 OA 
DOCKED: BRANCH  10  14
DOCKED: ATOM     14  C   UNL     1     140.209  68.920 227.720 -0.60 -0.01    +0.060 C  
DOCKED: BRANCH  14  15
DOCKED: ATOM     15  C   UNL     1     139.881  70.361 228.140 -0.61 -0.00    +0.006 C  
DOCKED: BRANCH  15  16
DOCKED: ATOM     16  C   UNL     1     141.050  71.350 227.980 -0.78 +0.00    -0.003 C  
DOCKED: ATOM     17  C   UNL     1     141.208  71.857 226.547 -0.71 -0.00    +0.004 C  
DOCKED: ENDBRANCH  15  16
DOCKED: ENDBRANCH  14  15
DOCKED: ENDBRANCH  10  14
DOCKED: ENDBRANCH   7   9
DOCKED: ENDBRANCH   1   7
DOCKED: BRANCH   4  18
DOCKED: ATOM     18  C   UNL     1     140.377  74.492 221.610 -0.31 +0.00    -0.018 A  
DOCKED: ATOM     19  C   UNL     1     139.765  75.664 222.084 -0.33 -0.00    +0.009 A  
DOCKED: ATOM     20  C   UNL     1     141.533  74.597 220.816 -0.29 -0.00    +0.018 A  
DOCKED: ATOM     21  C   UNL     1     140.304  76.917 221.779 -0.35 -0.00    +0.001 A  
DOCKED: ATOM     22  C   UNL     1     142.078  75.855 220.508 -0.26 -0.00    +0.007 A  
DOCKED: ATOM     23  C   UNL     1     141.458  77.013 220.999 -0.29 -0.00    +0.009 A  
DOCKED: BRANCH  22  24
DOCKED: ATOM     24  C   UNL     1     143.354  75.959 219.706 -0.24 -0.19    +0.297 C  
DOCKED: BRANCH  24  25
DOCKED: ATOM     25  N   UNL     1     143.477  74.880 218.705 -0.10 +0.14    -0.342 N  
DOCKED: ATOM     26  H   UNL     1     143.746  75.312 217.788 +0.05 -0.17    +0.346 HD 
DOCKED: ATOM     27  H   UNL     1     142.540  74.437 218.566 +0.11 -0.11    +0.346 HD 
DOCKED: BRANCH  25  28
DOCKED: ATOM     28  C   UNL     1     144.486  73.851 219.039 -0.14 -0.06    +0.263 C  
DOCKED: BRANCH  28  29
DOCKED: ATOM     29  C   UNL     1     144.547  73.496 220.548 -0.47 -0.01    +0.038 C  
DOCKED: ATOM     30  C   UNL     1     143.999  72.087 220.823 -0.31 -0.00    +0.013 C  
DOCKED: ATOM     31  C   UNL     1     145.994  73.598 221.049 -0.69 -0.00    +0.013 C  
DOCKED: ENDBRANCH  28  29
DOCKED: ENDBRANCH  25  28
DOCKED: ENDBRANCH  24  25
DOCKED: ENDBRANCH  22  24
DOCKED: ENDBRANCH   4  18
DOCKED: TORSDOF 10
DOCKED: TER
DOCKED: ENDMDL
________________________________________________________________________________


    FINAL DOCKED STATE:
    ________________________


Run:   13 / 20
Time taken for this run:   0.033s

DOCKED: MODEL        13
DOCKED: USER    Run = 13
DOCKED: USER
DOCKED: USER    Estimated Free Energy of Binding    =  -9.51 kcal/mol  [=(1)+(2)+(3)-(4)]
DOCKED: USER
DOCKED: USER    (1) Final Intermolecular Energy     = -12.50 kcal/mol
DOCKED: USER        vdW + Hbond + desolv Energy     = -11.64 kcal/mol
DOCKED: USER        Electrostatic Energy            =  -0.85 kcal/mol
DOCKED: USER        Moving Ligand-Fixed Receptor    = -12.50 kcal/mol
DOCKED: USER        Moving Ligand-Moving Receptor   =  +0.00 kcal/mol
DOCKED: USER    (2) Final Total Internal Energy     =  -1.30 kcal/mol
DOCKED: USER    (3) Torsional Free Energy           =  +2.98 kcal/mol
DOCKED: USER    (4) Unbound System's Energy         =  -1.30 kcal/mol
DOCKED: USER
DOCKED: USER
DOCKED: REMARK SMILES CCCCc1cc([C@@H](C)c2ccc(-c3cccc(C[NH2+]CC(C)C)c3)cc2)on1
DOCKED: REMARK SMILES IDX 10 1 11 2 12 3 13 4 26 5 27 6 8 7 9 8 7 9 5 10 6 11 29 12
DOCKED: REMARK SMILES IDX 28 13 4 14 3 15 2 16 1 17 14 18 15 19 25 20 16 21 18 22
DOCKED: REMARK SMILES IDX 17 23 19 24 20 25 21 28 22 29 23 30 24 31
DOCKED: REMARK H PARENT 20 26 20 27
DOCKED: USER                              x       y       z     vdW  Elec       q    Type
DOCKED: USER                           _______ _______ _______ _____ _____    ______ ____
DOCKED: ROOT
DOCKED: ATOM      1  C   UNL     1     139.332  70.419 222.610 -0.20 +0.01    -0.037 A  
DOCKED: ATOM      2  C   UNL     1     139.540  71.637 223.281 -0.33 -0.00    +0.005 A  
DOCKED: ATOM      3  C   UNL     1     140.406  72.599 222.753 -0.29 -0.00    +0.009 A  
DOCKED: ATOM      4  C   UNL     1     141.071  72.368 221.537 -0.27 +0.00    -0.018 A  
DOCKED: ATOM      5  C   UNL     1     140.857  71.153 220.863 -0.15 -0.00    +0.009 A  
DOCKED: ATOM      6  C   UNL     1     139.994  70.189 221.393 -0.13 -0.00    +0.005 A  
DOCKED: ENDROOT
DOCKED: BRANCH   1   7
DOCKED: ATOM      7  C   UNL     1     138.377  69.378 223.159 -0.21 -0.01    +0.085 C  
DOCKED: ATOM      8  C   UNL     1     136.988  69.989 223.380 -0.19 -0.00    +0.021 C  
DOCKED: BRANCH   7   9
DOCKED: ATOM      9  C   UNL     1     138.918  68.761 224.422 -0.28 -0.02    +0.144 A  
DOCKED: ATOM     10  C   UNL     1     139.662  68.433 226.428 -0.52 -0.01    +0.084 A  
DOCKED: ATOM     11  C   UNL     1     139.232  69.436 225.583 -0.39 -0.01    +0.073 A  
DOCKED: ATOM     12  N   UNL     1     139.590  67.244 225.800 -0.84 +0.00    -0.085 NA 
DOCKED: ATOM     13  O   UNL     1     139.143  67.480 224.600 -0.71 -0.01    -0.361 OA 
DOCKED: BRANCH  10  14
DOCKED: ATOM     14  C   UNL     1     140.069  68.600 227.859 -0.60 -0.01    +0.060 C  
DOCKED: BRANCH  14  15
DOCKED: ATOM     15  C   UNL     1     141.072  69.750 228.040 -0.59 -0.00    +0.006 C  
DOCKED: BRANCH  15  16
DOCKED: ATOM     16  C   UNL     1     140.439  71.153 228.011 -0.73 +0.00    -0.003 C  
DOCKED: ATOM     17  C   UNL     1     141.270  72.165 227.222 -0.79 -0.00    +0.004 C  
DOCKED: ENDBRANCH  15  16
DOCKED: ENDBRANCH  14  15
DOCKED: ENDBRANCH  10  14
DOCKED: ENDBRANCH   7   9
DOCKED: ENDBRANCH   1   7
DOCKED: BRANCH   4  18
DOCKED: ATOM     18  C   UNL     1     141.996  73.383 220.977 -0.25 +0.00    -0.018 A  
DOCKED: ATOM     19  C   UNL     1     143.326  73.047 220.676 -0.31 -0.00    +0.009 A  
DOCKED: ATOM     20  C   UNL     1     141.542  74.686 220.702 -0.28 -0.00    +0.018 A  
DOCKED: ATOM     21  C   UNL     1     144.182  73.990 220.101 -0.43 -0.00    +0.001 A  
DOCKED: ATOM     22  C   UNL     1     142.400  75.636 220.125 -0.31 -0.00    +0.007 A  
DOCKED: ATOM     23  C   UNL     1     143.721  75.278 219.822 -0.41 -0.00    +0.009 A  
DOCKED: BRANCH  22  24
DOCKED: ATOM     24  C   UNL     1     141.888  77.015 219.776 -0.17 -0.16    +0.297 C  
DOCKED: BRANCH  24  25
DOCKED: ATOM     25  N   UNL     1     142.241  78.019 220.798 -0.04 +0.26    -0.342 N  
DOCKED: ATOM     26  H   UNL     1     142.362  78.945 220.321 -0.06 -0.27    +0.346 HD 
DOCKED: ATOM     27  H   UNL     1     143.168  77.771 221.214 -0.35 -0.46    +0.346 HD 
DOCKED: BRANCH  25  28
DOCKED: ATOM     28  C   UNL     1     141.229  78.185 221.865 -0.25 -0.12    +0.263 C  
DOCKED: BRANCH  28  29
DOCKED: ATOM     29  C   UNL     1     141.268  79.572 222.559 -0.47 -0.01    +0.038 C  
DOCKED: ATOM     30  C   UNL     1     140.236  79.669 223.694 -0.46 -0.00    +0.013 C  
DOCKED: ATOM     31  C   UNL     1     142.674  79.838 223.112 -0.64 -0.00    +0.013 C  
DOCKED: ENDBRANCH  28  29
DOCKED: ENDBRANCH  25  28
DOCKED: ENDBRANCH  24  25
DOCKED: ENDBRANCH  22  24
DOCKED: ENDBRANCH   4  18
DOCKED: TORSDOF 10
DOCKED: TER
DOCKED: ENDMDL
________________________________________________________________________________


    FINAL DOCKED STATE:
    ________________________


Run:   14 / 20
Time taken for this run:   0.033s

DOCKED: MODEL        14
DOCKED: USER    Run = 14
DOCKED: USER
DOCKED: USER    Estimated Free Energy of Binding    =  -9.61 kcal/mol  [=(1)+(2)+(3)-(4)]
DOCKED: USER
DOCKED: USER    (1) Final Intermolecular Energy     = -12.59 kcal/mol
DOCKED: USER        vdW + Hbond + desolv Energy     = -11.77 kcal/mol
DOCKED: USER        Electrostatic Energy            =  -0.82 kcal/mol
DOCKED: USER        Moving Ligand-Fixed Receptor    = -12.59 kcal/mol
DOCKED: USER        Moving Ligand-Moving Receptor   =  +0.00 kcal/mol
DOCKED: USER    (2) Final Total Internal Energy     =  -1.21 kcal/mol
DOCKED: USER    (3) Torsional Free Energy           =  +2.98 kcal/mol
DOCKED: USER    (4) Unbound System's Energy         =  -1.21 kcal/mol
DOCKED: USER
DOCKED: USER
DOCKED: REMARK SMILES CCCCc1cc([C@@H](C)c2ccc(-c3cccc(C[NH2+]CC(C)C)c3)cc2)on1
DOCKED: REMARK SMILES IDX 10 1 11 2 12 3 13 4 26 5 27 6 8 7 9 8 7 9 5 10 6 11 29 12
DOCKED: REMARK SMILES IDX 28 13 4 14 3 15 2 16 1 17 14 18 15 19 25 20 16 21 18 22
DOCKED: REMARK SMILES IDX 17 23 19 24 20 25 21 28 22 29 23 30 24 31
DOCKED: REMARK H PARENT 20 26 20 27
DOCKED: USER                              x       y       z     vdW  Elec       q    Type
DOCKED: USER                           _______ _______ _______ _____ _____    ______ ____
DOCKED: ROOT
DOCKED: ATOM      1  C   UNL     1     138.739  70.956 222.993 -0.23 +0.01    -0.037 A  
DOCKED: ATOM      2  C   UNL     1     140.114  70.958 223.287 -0.31 -0.00    +0.005 A  
DOCKED: ATOM      3  C   UNL     1     140.962  71.909 222.712 -0.23 -0.00    +0.009 A  
DOCKED: ATOM      4  C   UNL     1     140.450  72.887 221.843 -0.29 +0.00    -0.018 A  
DOCKED: ATOM      5  C   UNL     1     139.074  72.891 221.556 -0.19 -0.00    +0.009 A  
DOCKED: ATOM      6  C   UNL     1     138.227  71.936 222.126 -0.17 -0.00    +0.005 A  
DOCKED: ENDROOT
DOCKED: BRANCH   1   7
DOCKED: ATOM      7  C   UNL     1     137.806  69.946 223.628 -0.22 -0.01    +0.085 C  
DOCKED: ATOM      8  C   UNL     1     136.585  70.649 224.232 -0.20 -0.00    +0.021 C  
DOCKED: BRANCH   7   9
DOCKED: ATOM      9  C   UNL     1     138.529  69.112 224.653 -0.28 -0.01    +0.144 A  
DOCKED: ATOM     10  C   UNL     1     139.527  68.413 226.441 -0.52 -0.01    +0.084 A  
DOCKED: ATOM     11  C   UNL     1     138.944  69.539 225.897 -0.36 -0.01    +0.073 A  
DOCKED: ATOM     12  N   UNL     1     139.446  67.389 225.571 -0.94 +0.00    -0.085 NA 
DOCKED: ATOM     13  O   UNL     1     138.844  67.846 224.510 -0.58 -0.01    -0.361 OA 
DOCKED: BRANCH  10  14
DOCKED: ATOM     14  C   UNL     1     140.095  68.294 227.822 -0.58 -0.01    +0.060 C  
DOCKED: BRANCH  14  15
DOCKED: ATOM     15  C   UNL     1     141.072  69.437 228.141 -0.60 -0.00    +0.006 C  
DOCKED: BRANCH  15  16
DOCKED: ATOM     16  C   UNL     1     140.408  70.820 228.270 -0.62 +0.00    -0.003 C  
DOCKED: ATOM     17  C   UNL     1     141.080  71.885 227.404 -0.83 -0.00    +0.004 C  
DOCKED: ENDBRANCH  15  16
DOCKED: ENDBRANCH  14  15
DOCKED: ENDBRANCH  10  14
DOCKED: ENDBRANCH   7   9
DOCKED: ENDBRANCH   1   7
DOCKED: BRANCH   4  18
DOCKED: ATOM     18  C   UNL     1     141.347  73.894 221.227 -0.28 +0.00    -0.018 A  
DOCKED: ATOM     19  C   UNL     1     142.529  73.496 220.580 -0.28 -0.00    +0.009 A  
DOCKED: ATOM     20  C   UNL     1     141.006  75.259 221.246 -0.32 -0.00    +0.018 A  
DOCKED: ATOM     21  C   UNL     1     143.348  74.440 219.956 -0.35 -0.00    +0.001 A  
DOCKED: ATOM     22  C   UNL     1     141.826  76.211 220.619 -0.26 -0.00    +0.007 A  
DOCKED: ATOM     23  C   UNL     1     142.997  75.793 219.971 -0.34 -0.01    +0.009 A  
DOCKED: BRANCH  22  24
DOCKED: ATOM     24  C   UNL     1     141.422  77.667 220.591 -0.17 -0.15    +0.297 C  
DOCKED: BRANCH  24  25
DOCKED: ATOM     25  N   UNL     1     142.151  78.471 221.593 -0.10 +0.24    -0.342 N  
DOCKED: ATOM     26  H   UNL     1     142.580  79.294 221.105 -0.23 -0.27    +0.346 HD 
DOCKED: ATOM     27  H   UNL     1     142.941  77.903 221.976 -0.31 -0.46    +0.346 HD 
DOCKED: BRANCH  25  28
DOCKED: ATOM     28  C   UNL     1     141.306  78.983 222.694 -0.34 -0.09    +0.263 C  
DOCKED: BRANCH  28  29
DOCKED: ATOM     29  C   UNL     1     141.645  80.434 223.124 -0.56 -0.01    +0.038 C  
DOCKED: ATOM     30  C   UNL     1     143.017  80.518 223.810 -0.66 -0.00    +0.013 C  
DOCKED: ATOM     31  C   UNL     1     141.618  81.360 221.901 -0.44 -0.00    +0.013 C  
DOCKED: ENDBRANCH  28  29
DOCKED: ENDBRANCH  25  28
DOCKED: ENDBRANCH  24  25
DOCKED: ENDBRANCH  22  24
DOCKED: ENDBRANCH   4  18
DOCKED: TORSDOF 10
DOCKED: TER
DOCKED: ENDMDL
________________________________________________________________________________


    FINAL DOCKED STATE:
    ________________________


Run:   15 / 20
Time taken for this run:   0.033s

DOCKED: MODEL        15
DOCKED: USER    Run = 15
DOCKED: USER
DOCKED: USER    Estimated Free Energy of Binding    =  -8.26 kcal/mol  [=(1)+(2)+(3)-(4)]
DOCKED: USER
DOCKED: USER    (1) Final Intermolecular Energy     = -11.24 kcal/mol
DOCKED: USER        vdW + Hbond + desolv Energy     = -10.07 kcal/mol
DOCKED: USER        Electrostatic Energy            =  -1.17 kcal/mol
DOCKED: USER        Moving Ligand-Fixed Receptor    = -11.24 kcal/mol
DOCKED: USER        Moving Ligand-Moving Receptor   =  +0.00 kcal/mol
DOCKED: USER    (2) Final Total Internal Energy     =  -1.56 kcal/mol
DOCKED: USER    (3) Torsional Free Energy           =  +2.98 kcal/mol
DOCKED: USER    (4) Unbound System's Energy         =  -1.56 kcal/mol
DOCKED: USER
DOCKED: USER
DOCKED: REMARK SMILES CCCCc1cc([C@@H](C)c2ccc(-c3cccc(C[NH2+]CC(C)C)c3)cc2)on1
DOCKED: REMARK SMILES IDX 10 1 11 2 12 3 13 4 26 5 27 6 8 7 9 8 7 9 5 10 6 11 29 12
DOCKED: REMARK SMILES IDX 28 13 4 14 3 15 2 16 1 17 14 18 15 19 25 20 16 21 18 22
DOCKED: REMARK SMILES IDX 17 23 19 24 20 25 21 28 22 29 23 30 24 31
DOCKED: REMARK H PARENT 20 26 20 27
DOCKED: USER                              x       y       z     vdW  Elec       q    Type
DOCKED: USER                           _______ _______ _______ _____ _____    ______ ____
DOCKED: ROOT
DOCKED: ATOM      1  C   UNL     1     139.684  73.327 221.838 -0.26 +0.01    -0.037 A  
DOCKED: ATOM      2  C   UNL     1     141.042  73.609 221.606 -0.30 -0.00    +0.005 A  
DOCKED: ATOM      3  C   UNL     1     141.483  74.930 221.492 -0.27 -0.00    +0.009 A  
DOCKED: ATOM      4  C   UNL     1     140.578  75.997 221.622 -0.35 +0.00    -0.018 A  
DOCKED: ATOM      5  C   UNL     1     139.222  75.716 221.862 -0.30 -0.00    +0.009 A  
DOCKED: ATOM      6  C   UNL     1     138.779  74.394 221.971 -0.23 -0.00    +0.005 A  
DOCKED: ENDROOT
DOCKED: BRANCH   1   7
DOCKED: ATOM      7  C   UNL     1     139.197  71.900 221.988 -0.19 -0.02    +0.085 C  
DOCKED: ATOM      8  C   UNL     1     137.731  71.785 221.554 -0.11 -0.00    +0.021 C  
DOCKED: BRANCH   7   9
DOCKED: ATOM      9  C   UNL     1     139.399  71.406 223.396 -0.27 -0.03    +0.144 A  
DOCKED: ATOM     10  C   UNL     1     140.189  71.009 225.372 -0.47 -0.01    +0.084 A  
DOCKED: ATOM     11  C   UNL     1     140.497  71.657 224.193 -0.37 -0.01    +0.073 A  
DOCKED: ATOM     12  N   UNL     1     138.979  70.426 225.272 -0.27 +0.01    -0.085 NA 
DOCKED: ATOM     13  O   UNL     1     138.537  70.683 224.074 -0.15 +0.07    -0.361 OA 
DOCKED: BRANCH  10  14
DOCKED: ATOM     14  C   UNL     1     141.017  71.009 226.620 -0.62 -0.01    +0.060 C  
DOCKED: BRANCH  14  15
DOCKED: ATOM     15  C   UNL     1     140.663  69.832 227.543 -0.63 -0.00    +0.006 C  
DOCKED: BRANCH  15  16
DOCKED: ATOM     16  C   UNL     1     141.061  68.451 226.989 -0.64 +0.00    -0.003 C  
DOCKED: ATOM     17  C   UNL     1     139.866  67.651 226.472 -0.66 -0.00    +0.004 C  
DOCKED: ENDBRANCH  15  16
DOCKED: ENDBRANCH  14  15
DOCKED: ENDBRANCH  10  14
DOCKED: ENDBRANCH   7   9
DOCKED: ENDBRANCH   1   7
DOCKED: BRANCH   4  18
DOCKED: ATOM     18  C   UNL     1     141.041  77.401 221.495 -0.35 +0.01    -0.018 A  
DOCKED: ATOM     19  C   UNL     1     141.337  78.160 222.639 -0.47 -0.00    +0.009 A  
DOCKED: ATOM     20  C   UNL     1     141.229  77.977 220.225 -0.25 -0.01    +0.018 A  
DOCKED: ATOM     21  C   UNL     1     141.821  79.464 222.518 -0.53 -0.00    +0.001 A  
DOCKED: ATOM     22  C   UNL     1     141.716  79.288 220.100 -0.29 -0.00    +0.007 A  
DOCKED: ATOM     23  C   UNL     1     142.014  80.027 221.253 -0.38 -0.00    +0.009 A  
DOCKED: BRANCH  22  24
DOCKED: ATOM     24  C   UNL     1     141.973  79.879 218.733 -0.18 -0.19    +0.297 C  
DOCKED: BRANCH  24  25
DOCKED: ATOM     25  N   UNL     1     142.981  79.114 217.972 -0.16 +0.37    -0.342 N  
DOCKED: ATOM     26  H   UNL     1     143.690  78.741 218.648 -0.15 -0.40    +0.346 HD 
DOCKED: ATOM     27  H   UNL     1     143.490  79.765 217.331 -0.45 -0.69    +0.346 HD 
DOCKED: BRANCH  25  28
DOCKED: ATOM     28  C   UNL     1     142.430  77.971 217.210 -0.17 -0.21    +0.263 C  
DOCKED: BRANCH  28  29
DOCKED: ATOM     29  C   UNL     1     143.145  76.624 217.495 -0.25 -0.02    +0.038 C  
DOCKED: ATOM     30  C   UNL     1     142.183  75.585 218.092 -0.14 -0.01    +0.013 C  
DOCKED: ATOM     31  C   UNL     1     143.761  76.077 216.200 -0.21 -0.01    +0.013 C  
DOCKED: ENDBRANCH  28  29
DOCKED: ENDBRANCH  25  28
DOCKED: ENDBRANCH  24  25
DOCKED: ENDBRANCH  22  24
DOCKED: ENDBRANCH   4  18
DOCKED: TORSDOF 10
DOCKED: TER
DOCKED: ENDMDL
________________________________________________________________________________


    FINAL DOCKED STATE:
    ________________________


Run:   16 / 20
Time taken for this run:   0.033s

DOCKED: MODEL        16
DOCKED: USER    Run = 16
DOCKED: USER
DOCKED: USER    Estimated Free Energy of Binding    =  -8.48 kcal/mol  [=(1)+(2)+(3)-(4)]
DOCKED: USER
DOCKED: USER    (1) Final Intermolecular Energy     = -11.46 kcal/mol
DOCKED: USER        vdW + Hbond + desolv Energy     = -10.64 kcal/mol
DOCKED: USER        Electrostatic Energy            =  -0.82 kcal/mol
DOCKED: USER        Moving Ligand-Fixed Receptor    = -11.46 kcal/mol
DOCKED: USER        Moving Ligand-Moving Receptor   =  +0.00 kcal/mol
DOCKED: USER    (2) Final Total Internal Energy     =  -1.35 kcal/mol
DOCKED: USER    (3) Torsional Free Energy           =  +2.98 kcal/mol
DOCKED: USER    (4) Unbound System's Energy         =  -1.35 kcal/mol
DOCKED: USER
DOCKED: USER
DOCKED: REMARK SMILES CCCCc1cc([C@@H](C)c2ccc(-c3cccc(C[NH2+]CC(C)C)c3)cc2)on1
DOCKED: REMARK SMILES IDX 10 1 11 2 12 3 13 4 26 5 27 6 8 7 9 8 7 9 5 10 6 11 29 12
DOCKED: REMARK SMILES IDX 28 13 4 14 3 15 2 16 1 17 14 18 15 19 25 20 16 21 18 22
DOCKED: REMARK SMILES IDX 17 23 19 24 20 25 21 28 22 29 23 30 24 31
DOCKED: REMARK H PARENT 20 26 20 27
DOCKED: USER                              x       y       z     vdW  Elec       q    Type
DOCKED: USER                           _______ _______ _______ _____ _____    ______ ____
DOCKED: ROOT
DOCKED: ATOM      1  C   UNL     1     138.570  70.840 223.055 -0.23 +0.01    -0.037 A  
DOCKED: ATOM      2  C   UNL     1     137.980  71.986 222.491 -0.18 -0.00    +0.005 A  
DOCKED: ATOM      3  C   UNL     1     138.774  72.982 221.915 -0.20 -0.00    +0.009 A  
DOCKED: ATOM      4  C   UNL     1     140.172  72.846 221.877 -0.29 +0.00    -0.018 A  
DOCKED: ATOM      5  C   UNL     1     140.760  71.696 222.433 -0.28 -0.00    +0.009 A  
DOCKED: ATOM      6  C   UNL     1     139.967  70.703 223.014 -0.26 -0.00    +0.005 A  
DOCKED: ENDROOT
DOCKED: BRANCH   1   7
DOCKED: ATOM      7  C   UNL     1     137.719  69.742 223.661 -0.22 -0.01    +0.085 C  
DOCKED: ATOM      8  C   UNL     1     136.396  70.315 224.182 -0.22 -0.00    +0.021 C  
DOCKED: BRANCH   7   9
DOCKED: ATOM      9  C   UNL     1     138.471  69.011 224.741 -0.29 -0.01    +0.144 A  
DOCKED: ATOM     10  C   UNL     1     139.481  68.473 226.579 -0.50 -0.01    +0.084 A  
DOCKED: ATOM     11  C   UNL     1     138.848  69.533 225.961 -0.34 -0.01    +0.073 A  
DOCKED: ATOM     12  N   UNL     1     139.463  67.396 225.772 -0.91 +0.00    -0.085 NA 
DOCKED: ATOM     13  O   UNL     1     138.852  67.756 224.679 -0.62 -0.02    -0.361 OA 
DOCKED: BRANCH  10  14
DOCKED: ATOM     14  C   UNL     1     140.037  68.468 227.970 -0.59 -0.01    +0.060 C  
DOCKED: BRANCH  14  15
DOCKED: ATOM     15  C   UNL     1     141.056  69.598 228.184 -0.58 -0.00    +0.006 C  
DOCKED: BRANCH  15  16
DOCKED: ATOM     16  C   UNL     1     140.451  71.013 228.145 -0.68 +0.00    -0.003 C  
DOCKED: ATOM     17  C   UNL     1     141.034  71.878 227.027 -0.79 -0.00    +0.004 C  
DOCKED: ENDBRANCH  15  16
DOCKED: ENDBRANCH  14  15
DOCKED: ENDBRANCH  10  14
DOCKED: ENDBRANCH   7   9
DOCKED: ENDBRANCH   1   7
DOCKED: BRANCH   4  18
DOCKED: ATOM     18  C   UNL     1     141.018  73.903 221.272 -0.29 +0.00    -0.018 A  
DOCKED: ATOM     19  C   UNL     1     142.046  73.568 220.375 -0.23 -0.00    +0.009 A  
DOCKED: ATOM     20  C   UNL     1     140.776  75.259 221.557 -0.35 -0.00    +0.018 A  
DOCKED: ATOM     21  C   UNL     1     142.809  74.567 219.767 -0.29 -0.00    +0.001 A  
DOCKED: ATOM     22  C   UNL     1     141.541  76.267 220.947 -0.25 -0.00    +0.007 A  
DOCKED: ATOM     23  C   UNL     1     142.556  75.912 220.047 -0.32 -0.00    +0.009 A  
DOCKED: BRANCH  22  24
DOCKED: ATOM     24  C   UNL     1     141.236  77.723 221.211 -0.18 -0.14    +0.297 C  
DOCKED: BRANCH  24  25
DOCKED: ATOM     25  N   UNL     1     142.189  78.627 220.537 -0.02 +0.25    -0.342 N  
DOCKED: ATOM     26  H   UNL     1     142.994  78.054 220.186 -0.29 -0.38    +0.346 HD 
DOCKED: ATOM     27  H   UNL     1     142.580  79.295 221.241 -0.23 -0.26    +0.346 HD 
DOCKED: BRANCH  25  28
DOCKED: ATOM     28  C   UNL     1     141.620  79.366 219.389 -0.17 -0.15    +0.263 C  
DOCKED: BRANCH  28  29
DOCKED: ATOM     29  C   UNL     1     142.601  79.530 218.198 -0.31 -0.03    +0.038 C  
DOCKED: ATOM     30  C   UNL     1     142.570  78.310 217.264 -0.27 -0.01    +0.013 C  
DOCKED: ATOM     31  C   UNL     1     142.254  80.799 217.408 -0.28 -0.01    +0.013 C  
DOCKED: ENDBRANCH  28  29
DOCKED: ENDBRANCH  25  28
DOCKED: ENDBRANCH  24  25
DOCKED: ENDBRANCH  22  24
DOCKED: ENDBRANCH   4  18
DOCKED: TORSDOF 10
DOCKED: TER
DOCKED: ENDMDL
________________________________________________________________________________


    FINAL DOCKED STATE:
    ________________________


Run:   17 / 20
Time taken for this run:   0.033s

DOCKED: MODEL        17
DOCKED: USER    Run = 17
DOCKED: USER
DOCKED: USER    Estimated Free Energy of Binding    =  -9.50 kcal/mol  [=(1)+(2)+(3)-(4)]
DOCKED: USER
DOCKED: USER    (1) Final Intermolecular Energy     = -12.48 kcal/mol
DOCKED: USER        vdW + Hbond + desolv Energy     = -11.63 kcal/mol
DOCKED: USER        Electrostatic Energy            =  -0.86 kcal/mol
DOCKED: USER        Moving Ligand-Fixed Receptor    = -12.48 kcal/mol
DOCKED: USER        Moving Ligand-Moving Receptor   =  +0.00 kcal/mol
DOCKED: USER    (2) Final Total Internal Energy     =  -1.29 kcal/mol
DOCKED: USER    (3) Torsional Free Energy           =  +2.98 kcal/mol
DOCKED: USER    (4) Unbound System's Energy         =  -1.29 kcal/mol
DOCKED: USER
DOCKED: USER
DOCKED: REMARK SMILES CCCCc1cc([C@@H](C)c2ccc(-c3cccc(C[NH2+]CC(C)C)c3)cc2)on1
DOCKED: REMARK SMILES IDX 10 1 11 2 12 3 13 4 26 5 27 6 8 7 9 8 7 9 5 10 6 11 29 12
DOCKED: REMARK SMILES IDX 28 13 4 14 3 15 2 16 1 17 14 18 15 19 25 20 16 21 18 22
DOCKED: REMARK SMILES IDX 17 23 19 24 20 25 21 28 22 29 23 30 24 31
DOCKED: REMARK H PARENT 20 26 20 27
DOCKED: USER                              x       y       z     vdW  Elec       q    Type
DOCKED: USER                           _______ _______ _______ _____ _____    ______ ____
DOCKED: ROOT
DOCKED: ATOM      1  C   UNL     1     138.805  70.913 222.987 -0.24 +0.01    -0.037 A  
DOCKED: ATOM      2  C   UNL     1     140.170  70.915 223.324 -0.30 -0.00    +0.005 A  
DOCKED: ATOM      3  C   UNL     1     141.042  71.844 222.749 -0.19 -0.00    +0.009 A  
DOCKED: ATOM      4  C   UNL     1     140.564  72.799 221.836 -0.30 +0.00    -0.018 A  
DOCKED: ATOM      5  C   UNL     1     139.197  72.803 221.506 -0.19 -0.00    +0.009 A  
DOCKED: ATOM      6  C   UNL     1     138.326  71.870 222.077 -0.17 -0.00    +0.005 A  
DOCKED: ENDROOT
DOCKED: BRANCH   1   7
DOCKED: ATOM      7  C   UNL     1     137.845  69.927 223.621 -0.22 -0.01    +0.085 C  
DOCKED: ATOM      8  C   UNL     1     136.612  70.655 224.169 -0.20 -0.00    +0.021 C  
DOCKED: BRANCH   7   9
DOCKED: ATOM      9  C   UNL     1     138.531  69.118 224.690 -0.28 -0.01    +0.144 A  
DOCKED: ATOM     10  C   UNL     1     139.494  68.469 226.517 -0.51 -0.01    +0.084 A  
DOCKED: ATOM     11  C   UNL     1     138.956  69.589 225.915 -0.35 -0.01    +0.073 A  
DOCKED: ATOM     12  N   UNL     1     139.377  67.408 225.697 -0.94 +0.00    -0.085 NA 
DOCKED: ATOM     13  O   UNL     1     138.798  67.834 224.611 -0.58 -0.02    -0.361 OA 
DOCKED: BRANCH  10  14
DOCKED: ATOM     14  C   UNL     1     140.051  68.396 227.906 -0.58 -0.01    +0.060 C  
DOCKED: BRANCH  14  15
DOCKED: ATOM     15  C   UNL     1     141.070  69.514 228.174 -0.59 -0.00    +0.006 C  
DOCKED: BRANCH  15  16
DOCKED: ATOM     16  C   UNL     1     140.456  70.923 228.262 -0.63 +0.00    -0.003 C  
DOCKED: ATOM     17  C   UNL     1     141.086  71.908 227.278 -0.82 -0.00    +0.004 C  
DOCKED: ENDBRANCH  15  16
DOCKED: ENDBRANCH  14  15
DOCKED: ENDBRANCH  10  14
DOCKED: ENDBRANCH   7   9
DOCKED: ENDBRANCH   1   7
DOCKED: BRANCH   4  18
DOCKED: ATOM     18  C   UNL     1     141.487  73.783 221.219 -0.28 +0.00    -0.018 A  
DOCKED: ATOM     19  C   UNL     1     142.739  73.376 220.729 -0.28 -0.00    +0.009 A  
DOCKED: ATOM     20  C   UNL     1     141.103  75.130 221.080 -0.30 -0.00    +0.018 A  
DOCKED: ATOM     21  C   UNL     1     143.586  74.293 220.102 -0.38 -0.00    +0.001 A  
DOCKED: ATOM     22  C   UNL     1     141.952  76.054 220.450 -0.28 -0.00    +0.007 A  
DOCKED: ATOM     23  C   UNL     1     143.194  75.627 219.959 -0.36 -0.01    +0.009 A  
DOCKED: BRANCH  22  24
DOCKED: ATOM     24  C   UNL     1     141.508  77.485 220.249 -0.16 -0.16    +0.297 C  
DOCKED: BRANCH  24  25
DOCKED: ATOM     25  N   UNL     1     142.099  78.400 221.246 -0.11 +0.24    -0.342 N  
DOCKED: ATOM     26  H   UNL     1     142.857  78.952 220.777 -0.23 -0.37    +0.346 HD 
DOCKED: ATOM     27  H   UNL     1     142.557  77.836 221.998 -0.30 -0.37    +0.346 HD 
DOCKED: BRANCH  25  28
DOCKED: ATOM     28  C   UNL     1     141.138  79.357 221.838 -0.24 -0.10    +0.263 C  
DOCKED: BRANCH  28  29
DOCKED: ATOM     29  C   UNL     1     141.518  79.828 223.267 -0.56 -0.01    +0.038 C  
DOCKED: ATOM     30  C   UNL     1     141.816  78.641 224.196 -0.47 -0.00    +0.013 C  
DOCKED: ATOM     31  C   UNL     1     142.738  80.756 223.202 -0.60 -0.00    +0.013 C  
DOCKED: ENDBRANCH  28  29
DOCKED: ENDBRANCH  25  28
DOCKED: ENDBRANCH  24  25
DOCKED: ENDBRANCH  22  24
DOCKED: ENDBRANCH   4  18
DOCKED: TORSDOF 10
DOCKED: TER
DOCKED: ENDMDL
________________________________________________________________________________


    FINAL DOCKED STATE:
    ________________________


Run:   18 / 20
Time taken for this run:   0.033s

DOCKED: MODEL        18
DOCKED: USER    Run = 18
DOCKED: USER
DOCKED: USER    Estimated Free Energy of Binding    =  -8.91 kcal/mol  [=(1)+(2)+(3)-(4)]
DOCKED: USER
DOCKED: USER    (1) Final Intermolecular Energy     = -11.89 kcal/mol
DOCKED: USER        vdW + Hbond + desolv Energy     = -11.14 kcal/mol
DOCKED: USER        Electrostatic Energy            =  -0.75 kcal/mol
DOCKED: USER        Moving Ligand-Fixed Receptor    = -11.89 kcal/mol
DOCKED: USER        Moving Ligand-Moving Receptor   =  +0.00 kcal/mol
DOCKED: USER    (2) Final Total Internal Energy     =  -1.55 kcal/mol
DOCKED: USER    (3) Torsional Free Energy           =  +2.98 kcal/mol
DOCKED: USER    (4) Unbound System's Energy         =  -1.55 kcal/mol
DOCKED: USER
DOCKED: USER
DOCKED: REMARK SMILES CCCCc1cc([C@@H](C)c2ccc(-c3cccc(C[NH2+]CC(C)C)c3)cc2)on1
DOCKED: REMARK SMILES IDX 10 1 11 2 12 3 13 4 26 5 27 6 8 7 9 8 7 9 5 10 6 11 29 12
DOCKED: REMARK SMILES IDX 28 13 4 14 3 15 2 16 1 17 14 18 15 19 25 20 16 21 18 22
DOCKED: REMARK SMILES IDX 17 23 19 24 20 25 21 28 22 29 23 30 24 31
DOCKED: REMARK H PARENT 20 26 20 27
DOCKED: USER                              x       y       z     vdW  Elec       q    Type
DOCKED: USER                           _______ _______ _______ _____ _____    ______ ____
DOCKED: ROOT
DOCKED: ATOM      1  C   UNL     1     138.657  70.557 222.719 -0.20 +0.01    -0.037 A  
DOCKED: ATOM      2  C   UNL     1     140.024  70.753 222.451 -0.20 -0.00    +0.005 A  
DOCKED: ATOM      3  C   UNL     1     140.505  72.018 222.102 -0.29 -0.00    +0.009 A  
DOCKED: ATOM      4  C   UNL     1     139.632  73.116 222.029 -0.27 +0.00    -0.018 A  
DOCKED: ATOM      5  C   UNL     1     138.267  72.923 222.306 -0.11 -0.00    +0.009 A  
DOCKED: ATOM      6  C   UNL     1     137.785  71.656 222.649 -0.18 -0.00    +0.005 A  
DOCKED: ENDROOT
DOCKED: BRANCH   1   7
DOCKED: ATOM      7  C   UNL     1     138.127  69.196 223.122 -0.21 -0.01    +0.085 C  
DOCKED: ATOM      8  C   UNL     1     136.597  69.219 223.206 -0.17 -0.00    +0.021 C  
DOCKED: BRANCH   7   9
DOCKED: ATOM      9  C   UNL     1     138.746  68.736 224.415 -0.28 -0.01    +0.144 A  
DOCKED: ATOM     10  C   UNL     1     139.501  68.627 226.441 -0.49 -0.01    +0.084 A  
DOCKED: ATOM     11  C   UNL     1     138.916  69.503 225.549 -0.36 -0.01    +0.073 A  
DOCKED: ATOM     12  N   UNL     1     139.651  67.420 225.864 -0.80 +0.01    -0.085 NA 
DOCKED: ATOM     13  O   UNL     1     139.190  67.523 224.651 -0.73 -0.00    -0.361 OA 
DOCKED: BRANCH  10  14
DOCKED: ATOM     14  C   UNL     1     139.847  68.922 227.868 -0.58 -0.01    +0.060 C  
DOCKED: BRANCH  14  15
DOCKED: ATOM     15  C   UNL     1     141.069  69.847 227.982 -0.60 -0.00    +0.006 C  
DOCKED: BRANCH  15  16
DOCKED: ATOM     16  C   UNL     1     140.750  71.343 227.802 -0.79 +0.00    -0.003 C  
DOCKED: ATOM     17  C   UNL     1     141.171  71.880 226.434 -0.69 -0.00    +0.004 C  
DOCKED: ENDBRANCH  15  16
DOCKED: ENDBRANCH  14  15
DOCKED: ENDBRANCH  10  14
DOCKED: ENDBRANCH   7   9
DOCKED: ENDBRANCH   1   7
DOCKED: BRANCH   4  18
DOCKED: ATOM     18  C   UNL     1     140.137  74.459 221.654 -0.29 +0.00    -0.018 A  
DOCKED: ATOM     19  C   UNL     1     139.708  75.603 222.348 -0.29 -0.00    +0.009 A  
DOCKED: ATOM     20  C   UNL     1     141.085  74.601 220.623 -0.24 -0.00    +0.018 A  
DOCKED: ATOM     21  C   UNL     1     140.223  76.861 222.027 -0.38 -0.00    +0.001 A  
DOCKED: ATOM     22  C   UNL     1     141.605  75.865 220.298 -0.26 -0.00    +0.007 A  
DOCKED: ATOM     23  C   UNL     1     141.171  76.993 221.009 -0.30 -0.00    +0.009 A  
DOCKED: BRANCH  22  24
DOCKED: ATOM     24  C   UNL     1     142.667  76.002 219.233 -0.19 -0.15    +0.297 C  
DOCKED: BRANCH  24  25
DOCKED: ATOM     25  N   UNL     1     144.027  75.777 219.764 -0.20 +0.23    -0.342 N  
DOCKED: ATOM     26  H   UNL     1     144.266  76.573 220.403 -0.13 -0.33    +0.346 HD 
DOCKED: ATOM     27  H   UNL     1     144.711  75.809 218.973 -0.11 -0.32    +0.346 HD 
DOCKED: BRANCH  25  28
DOCKED: ATOM     28  C   UNL     1     144.182  74.518 220.525 -0.21 -0.11    +0.263 C  
DOCKED: BRANCH  28  29
DOCKED: ATOM     29  C   UNL     1     145.508  73.766 220.234 -0.53 -0.01    +0.038 C  
DOCKED: ATOM     30  C   UNL     1     146.305  73.501 221.521 -0.70 -0.00    +0.013 C  
DOCKED: ATOM     31  C   UNL     1     145.209  72.439 219.525 -0.37 +0.00    +0.013 C  
DOCKED: ENDBRANCH  28  29
DOCKED: ENDBRANCH  25  28
DOCKED: ENDBRANCH  24  25
DOCKED: ENDBRANCH  22  24
DOCKED: ENDBRANCH   4  18
DOCKED: TORSDOF 10
DOCKED: TER
DOCKED: ENDMDL
________________________________________________________________________________


    FINAL DOCKED STATE:
    ________________________


Run:   19 / 20
Time taken for this run:   0.033s

DOCKED: MODEL        19
DOCKED: USER    Run = 19
DOCKED: USER
DOCKED: USER    Estimated Free Energy of Binding    =  -8.98 kcal/mol  [=(1)+(2)+(3)-(4)]
DOCKED: USER
DOCKED: USER    (1) Final Intermolecular Energy     = -11.96 kcal/mol
DOCKED: USER        vdW + Hbond + desolv Energy     = -11.35 kcal/mol
DOCKED: USER        Electrostatic Energy            =  -0.61 kcal/mol
DOCKED: USER        Moving Ligand-Fixed Receptor    = -11.96 kcal/mol
DOCKED: USER        Moving Ligand-Moving Receptor   =  +0.00 kcal/mol
DOCKED: USER    (2) Final Total Internal Energy     =  -1.12 kcal/mol
DOCKED: USER    (3) Torsional Free Energy           =  +2.98 kcal/mol
DOCKED: USER    (4) Unbound System's Energy         =  -1.12 kcal/mol
DOCKED: USER
DOCKED: USER
DOCKED: REMARK SMILES CCCCc1cc([C@@H](C)c2ccc(-c3cccc(C[NH2+]CC(C)C)c3)cc2)on1
DOCKED: REMARK SMILES IDX 10 1 11 2 12 3 13 4 26 5 27 6 8 7 9 8 7 9 5 10 6 11 29 12
DOCKED: REMARK SMILES IDX 28 13 4 14 3 15 2 16 1 17 14 18 15 19 25 20 16 21 18 22
DOCKED: REMARK SMILES IDX 17 23 19 24 20 25 21 28 22 29 23 30 24 31
DOCKED: REMARK H PARENT 20 26 20 27
DOCKED: USER                              x       y       z     vdW  Elec       q    Type
DOCKED: USER                           _______ _______ _______ _____ _____    ______ ____
DOCKED: ROOT
DOCKED: ATOM      1  C   UNL     1     139.224  70.230 222.598 -0.19 +0.01    -0.037 A  
DOCKED: ATOM      2  C   UNL     1     139.501  70.295 221.221 -0.13 -0.00    +0.005 A  
DOCKED: ATOM      3  C   UNL     1     140.369  71.267 220.716 -0.13 -0.00    +0.009 A  
DOCKED: ATOM      4  C   UNL     1     140.990  72.185 221.580 -0.26 +0.00    -0.018 A  
DOCKED: ATOM      5  C   UNL     1     140.720  72.114 222.958 -0.29 -0.00    +0.009 A  
DOCKED: ATOM      6  C   UNL     1     139.847  71.145 223.462 -0.36 -0.00    +0.005 A  
DOCKED: ENDROOT
DOCKED: BRANCH   1   7
DOCKED: ATOM      7  C   UNL     1     138.304  69.165 223.160 -0.21 -0.01    +0.085 C  
DOCKED: ATOM      8  C   UNL     1     136.878  69.710 223.302 -0.18 -0.00    +0.021 C  
DOCKED: BRANCH   7   9
DOCKED: ATOM      9  C   UNL     1     138.828  68.634 224.469 -0.29 -0.01    +0.144 A  
DOCKED: ATOM     10  C   UNL     1     139.442  68.416 226.533 -0.50 -0.01    +0.084 A  
DOCKED: ATOM     11  C   UNL     1     138.930  69.343 225.647 -0.38 -0.01    +0.073 A  
DOCKED: ATOM     12  N   UNL     1     139.615  67.235 225.909 -0.79 +0.01    -0.085 NA 
DOCKED: ATOM     13  O   UNL     1     139.239  67.404 224.674 -0.75 -0.01    -0.361 OA 
DOCKED: BRANCH  10  14
DOCKED: ATOM     14  C   UNL     1     139.695  68.637 227.992 -0.50 -0.01    +0.060 C  
DOCKED: BRANCH  14  15
DOCKED: ATOM     15  C   UNL     1     139.997  70.111 228.305 -0.60 -0.00    +0.006 C  
DOCKED: BRANCH  15  16
DOCKED: ATOM     16  C   UNL     1     141.079  70.740 227.408 -0.66 +0.00    -0.003 C  
DOCKED: ATOM     17  C   UNL     1     141.120  72.264 227.506 -0.81 -0.00    +0.004 C  
DOCKED: ENDBRANCH  15  16
DOCKED: ENDBRANCH  14  15
DOCKED: ENDBRANCH  10  14
DOCKED: ENDBRANCH   7   9
DOCKED: ENDBRANCH   1   7
DOCKED: BRANCH   4  18
DOCKED: ATOM     18  C   UNL     1     141.907  73.222 221.048 -0.25 +0.00    -0.018 A  
DOCKED: ATOM     19  C   UNL     1     143.219  72.889 220.673 -0.30 -0.00    +0.009 A  
DOCKED: ATOM     20  C   UNL     1     141.462  74.546 220.875 -0.29 -0.00    +0.018 A  
DOCKED: ATOM     21  C   UNL     1     144.066  73.855 220.125 -0.41 -0.00    +0.001 A  
DOCKED: ATOM     22  C   UNL     1     142.311  75.519 220.324 -0.29 -0.00    +0.007 A  
DOCKED: ATOM     23  C   UNL     1     143.614  75.165 219.946 -0.40 -0.00    +0.009 A  
DOCKED: BRANCH  22  24
DOCKED: ATOM     24  C   UNL     1     141.807  76.924 220.085 -0.17 -0.16    +0.297 C  
DOCKED: BRANCH  24  25
DOCKED: ATOM     25  N   UNL     1     141.457  77.616 221.341 -0.14 +0.18    -0.342 N  
DOCKED: ATOM     26  H   UNL     1     141.987  77.164 222.124 -0.34 -0.29    +0.346 HD 
DOCKED: ATOM     27  H   UNL     1     140.441  77.468 221.540 +0.15 -0.12    +0.346 HD 
DOCKED: BRANCH  25  28
DOCKED: ATOM     28  C   UNL     1     141.775  79.061 221.349 -0.24 -0.14    +0.263 C  
DOCKED: BRANCH  28  29
DOCKED: ATOM     29  C   UNL     1     141.355  79.791 222.652 -0.49 -0.01    +0.038 C  
DOCKED: ATOM     30  C   UNL     1     141.737  78.984 223.903 -0.60 -0.00    +0.013 C  
DOCKED: ATOM     31  C   UNL     1     142.011  81.177 222.707 -0.53 -0.00    +0.013 C  
DOCKED: ENDBRANCH  28  29
DOCKED: ENDBRANCH  25  28
DOCKED: ENDBRANCH  24  25
DOCKED: ENDBRANCH  22  24
DOCKED: ENDBRANCH   4  18
DOCKED: TORSDOF 10
DOCKED: TER
DOCKED: ENDMDL
________________________________________________________________________________


    FINAL DOCKED STATE:
    ________________________


Run:   20 / 20
Time taken for this run:   0.033s

DOCKED: MODEL        20
DOCKED: USER    Run = 20
DOCKED: USER
DOCKED: USER    Estimated Free Energy of Binding    =  -8.59 kcal/mol  [=(1)+(2)+(3)-(4)]
DOCKED: USER
DOCKED: USER    (1) Final Intermolecular Energy     = -11.57 kcal/mol
DOCKED: USER        vdW + Hbond + desolv Energy     = -10.73 kcal/mol
DOCKED: USER        Electrostatic Energy            =  -0.84 kcal/mol
DOCKED: USER        Moving Ligand-Fixed Receptor    = -11.57 kcal/mol
DOCKED: USER        Moving Ligand-Moving Receptor   =  +0.00 kcal/mol
DOCKED: USER    (2) Final Total Internal Energy     =  -1.12 kcal/mol
DOCKED: USER    (3) Torsional Free Energy           =  +2.98 kcal/mol
DOCKED: USER    (4) Unbound System's Energy         =  -1.12 kcal/mol
DOCKED: USER
DOCKED: USER
DOCKED: REMARK SMILES CCCCc1cc([C@@H](C)c2ccc(-c3cccc(C[NH2+]CC(C)C)c3)cc2)on1
DOCKED: REMARK SMILES IDX 10 1 11 2 12 3 13 4 26 5 27 6 8 7 9 8 7 9 5 10 6 11 29 12
DOCKED: REMARK SMILES IDX 28 13 4 14 3 15 2 16 1 17 14 18 15 19 25 20 16 21 18 22
DOCKED: REMARK SMILES IDX 17 23 19 24 20 25 21 28 22 29 23 30 24 31
DOCKED: REMARK H PARENT 20 26 20 27
DOCKED: USER                              x       y       z     vdW  Elec       q    Type
DOCKED: USER                           _______ _______ _______ _____ _____    ______ ____
DOCKED: ROOT
DOCKED: ATOM      1  C   UNL     1     138.972  70.920 222.490 -0.20 +0.01    -0.037 A  
DOCKED: ATOM      2  C   UNL     1     138.519  72.251 222.437 -0.19 -0.00    +0.005 A  
DOCKED: ATOM      3  C   UNL     1     139.341  73.261 221.929 -0.25 -0.00    +0.009 A  
DOCKED: ATOM      4  C   UNL     1     140.626  72.959 221.449 -0.27 +0.00    -0.018 A  
DOCKED: ATOM      5  C   UNL     1     141.076  71.627 221.493 -0.21 -0.00    +0.009 A  
DOCKED: ATOM      6  C   UNL     1     140.256  70.618 222.007 -0.09 -0.00    +0.005 A  
DOCKED: ENDROOT
DOCKED: BRANCH   1   7
DOCKED: ATOM      7  C   UNL     1     138.082  69.813 223.017 -0.19 -0.01    +0.085 C  
DOCKED: ATOM      8  C   UNL     1     136.676  70.348 223.310 -0.17 -0.00    +0.021 C  
DOCKED: BRANCH   7   9
DOCKED: ATOM      9  C   UNL     1     138.692  69.162 224.231 -0.26 -0.02    +0.144 A  
DOCKED: ATOM     10  C   UNL     1     140.026  68.571 225.830 -0.46 -0.01    +0.084 A  
DOCKED: ATOM     11  C   UNL     1     139.967  69.377 224.710 -0.27 -0.01    +0.073 A  
DOCKED: ATOM     12  N   UNL     1     138.851  67.935 225.998 -0.75 +0.00    -0.085 NA 
DOCKED: ATOM     13  O   UNL     1     138.077  68.312 225.020 -0.29 -0.02    -0.361 OA 
DOCKED: BRANCH  10  14
DOCKED: ATOM     14  C   UNL     1     141.178  68.467 226.781 -0.54 -0.01    +0.060 C  
DOCKED: BRANCH  14  15
DOCKED: ATOM     15  C   UNL     1     141.069  69.484 227.928 -0.60 -0.00    +0.006 C  
DOCKED: BRANCH  15  16
DOCKED: ATOM     16  C   UNL     1     141.069  70.955 227.471 -0.70 +0.00    -0.003 C  
DOCKED: ATOM     17  C   UNL     1     140.270  71.866 228.401 -0.65 -0.00    +0.004 C  
DOCKED: ENDBRANCH  15  16
DOCKED: ENDBRANCH  14  15
DOCKED: ENDBRANCH  10  14
DOCKED: ENDBRANCH   7   9
DOCKED: ENDBRANCH   1   7
DOCKED: BRANCH   4  18
DOCKED: ATOM     18  C   UNL     1     141.504  74.028 220.913 -0.27 +0.00    -0.018 A  
DOCKED: ATOM     19  C   UNL     1     142.701  73.705 220.253 -0.27 -0.00    +0.009 A  
DOCKED: ATOM     20  C   UNL     1     141.128  75.380 221.025 -0.30 -0.01    +0.018 A  
DOCKED: ATOM     21  C   UNL     1     143.501  74.710 219.705 -0.36 -0.00    +0.001 A  
DOCKED: ATOM     22  C   UNL     1     141.930  76.393 220.474 -0.27 -0.00    +0.007 A  
DOCKED: ATOM     23  C   UNL     1     143.116  76.050 219.810 -0.36 -0.01    +0.009 A  
DOCKED: BRANCH  22  24
DOCKED: ATOM     24  C   UNL     1     141.490  77.837 220.544 -0.17 -0.16    +0.297 C  
DOCKED: BRANCH  24  25
DOCKED: ATOM     25  N   UNL     1     142.190  78.586 221.607 -0.13 +0.24    -0.342 N  
DOCKED: ATOM     26  H   UNL     1     142.658  79.416 221.170 -0.22 -0.27    +0.346 HD 
DOCKED: ATOM     27  H   UNL     1     142.949  77.986 222.003 -0.30 -0.44    +0.346 HD 
DOCKED: BRANCH  25  28
DOCKED: ATOM     28  C   UNL     1     141.307  79.077 222.688 -0.34 -0.09    +0.263 C  
DOCKED: BRANCH  28  29
DOCKED: ATOM     29  C   UNL     1     141.657  80.504 223.187 -0.56 -0.01    +0.038 C  
DOCKED: ATOM     30  C   UNL     1     143.048  80.553 223.838 -0.64 -0.00    +0.013 C  
DOCKED: ATOM     31  C   UNL     1     141.596  81.494 222.017 -0.44 -0.00    +0.013 C  
DOCKED: ENDBRANCH  28  29
DOCKED: ENDBRANCH  25  28
DOCKED: ENDBRANCH  24  25
DOCKED: ENDBRANCH  22  24
DOCKED: ENDBRANCH   4  18
DOCKED: TORSDOF 10
DOCKED: TER
DOCKED: ENDMDL
________________________________________________________________________________


    CLUSTERING HISTOGRAM
    ____________________


________________________________________________________________________________
     |           |     |           |     |
Clus | Lowest    | Run | Mean      | Num | Histogram
-ter | Binding   |     | Binding   | in  |
Rank | Energy    |     | Energy    | Clus|    5    10   15   20   25   30   35
_____|___________|_____|___________|_____|____:____|____:____|____:____|____:___
   1 |     -9.61 |  14 |     -9.11 |  15 |###############
   2 |     -8.91 |   5 |     -8.66 |   4 |####
   3 |     -8.26 |  15 |     -8.26 |   1 |#
_____|___________|_____|___________|_____|______________________________________


    RMSD TABLE
    __________


_______________________________________________________________________
     |      |      |           |         |                 |
Rank | Sub- | Run  | Binding   | Cluster | Reference       | Grep
     | Rank |      | Energy    | RMSD    | RMSD            | Pattern
_____|______|______|___________|_________|_________________|___________
   1      1     14       -9.61      0.00    272.19           RANKING
   1      2      9       -9.55      0.56    272.20           RANKING
   1      3     13       -9.51      0.94    271.98           RANKING
   1      4     17       -9.50      0.43    272.17           RANKING
   1      5      3       -9.50      0.66    272.04           RANKING
   1      6     11       -9.23      0.61    272.10           RANKING
   1      7      1       -9.17      0.68    272.06           RANKING
   1      8      8       -9.17      0.65    272.06           RANKING
   1      9     10       -9.04      0.59    272.07           RANKING
   1     10     19       -8.98      1.07    271.95           RANKING
   1     11      4       -8.97      0.73    272.07           RANKING
   1     12      2       -8.85      1.66    271.55           RANKING
   1     13     20       -8.59      0.72    272.07           RANKING
   1     14     16       -8.48      1.34    271.58           RANKING
   1     15      6       -8.47      1.67    271.45           RANKING
   2      1      5       -8.91      0.00    271.58           RANKING
   2      2     18       -8.91      0.16    271.64           RANKING
   2      3      7       -8.68      0.63    271.55           RANKING
   2      4     12       -8.12      0.81    271.46           RANKING
   3      1     15       -8.26      0.00    271.46           RANKING

Run time 0.633 sec
Idle time 0.000 sec
