AutoDock-GPU version: v1.6

**********************************************************
**    AutoDock-GPU AUTODOCKTOOLS-COMPATIBLE DLG FILE    **
**********************************************************


    DOCKING PARAMETERS
    ________________________


Ligand file:                               /home/a/REINVENT4/ReinventStudies/pleaseWork/justRnve/graph-dock-t2iv78/graph-DockGPU/node-autodockgpu/inputs/HWLDPPPPOIDHJG-BTTBJMRQNA-O.pdbqt
Grid fld file:                             /home/a/REINVENT4/ReinventStudies/mols/Rad51/maps/rad51_receptor.maps.fld

Random seed:                               42
Number of runs:                            20
Number of energy evaluations:              2542121
Number of generations:                     42000
Size of population:                        150
Rate of crossover:                         80.000000%
Tournament selection probability limit:    60.000000%
Rate of mutation:                          2.000000%
Maximal allowed delta movement:            +/- 6.000000A
Maximal allowed delta angle:               +/- 90.000000

Rate of local search:                      100.000000%
Maximal number of local search iterations: 300
Rho lower bound:                           0.010000
Spread of local search delta movement:     2.000000A
Spread of local search delta angle:        74.999999
Limit of consecutive successes/failures:   4

Handle symmetry during clustering:         YES
RMSD tolerance:                            2.000000A

Program call in command line was:          /home/a/REINVENT4/ReinventStudies/adgpu-v1.6_linux_x64_cuda12_128wi --filelist batch.txt --heuristics 1 --nrun 20 --psize 150 --lsit 300 --seed 42 --heurmax 12000000 


    GRID PARAMETERS
    ________________________


Receptor name:                             rad51_receptor
Number of grid points (x, y, z):           53, 53, 53
Grid center (x, y, z):                     139.950000, 75.640000, 221.970000A
Grid size (x, y, z):                       19.500000, 19.500000, 19.500000A
Grid spacing:                              0.375000A


    LIGAND PARAMETERS
    ________________________


Ligand name:                               /home/a/REINVENT4/ReinventStudies/pleaseWork/justRnve/graph-dock-t2iv78/graph-DockGPU/node-autodockgpu/inputs/HWLDPPPPOIDHJG-BTTBJMRQNA-O
Number of atoms:                           31
Number of rotatable bonds:                 10
Number of atom types:                      6


    DUMMY DATA (only for ADT-compatibility)
    ________________________


DPF> outlev 1
DPF> ga_run 20
DPF> fld /home/a/REINVENT4/ReinventStudies/mols/Rad51/maps/rad51_receptor.maps.fld
DPF> move /home/a/REINVENT4/ReinventStudies/pleaseWork/justRnve/graph-dock-t2iv78/graph-DockGPU/node-autodockgpu/inputs/HWLDPPPPOIDHJG-BTTBJMRQNA-O.pdbqt


    COUNTER STATES
    ________________________


Number of energy evaluations performed:    1695786
Number of generations used:                95


    INPUT LIGAND PDBQT FILE:
    ________________________


INPUT-LIGAND-PDBQT: REMARK SMILES CCCCc1cc([C@H](C)c2ccc(-c3cccc(C[NH2+]CC(C)C)c3)cc2)on1
INPUT-LIGAND-PDBQT: REMARK SMILES IDX 10 1 11 2 12 3 13 4 26 5 27 6 8 7 9 8 7 9 5 10 6 11 29 12
INPUT-LIGAND-PDBQT: REMARK SMILES IDX 28 13 4 14 3 15 2 16 1 17 14 18 15 19 25 20 16 21 18 22
INPUT-LIGAND-PDBQT: REMARK SMILES IDX 17 23 19 24 20 25 21 28 22 29 23 30 24 31
INPUT-LIGAND-PDBQT: REMARK H PARENT 20 26 20 27
INPUT-LIGAND-PDBQT: ROOT
INPUT-LIGAND-PDBQT: ATOM      1  C   UNL     1      -1.058  -2.375  -2.378  1.00  0.00    -0.037 A 
INPUT-LIGAND-PDBQT: ATOM      2  C   UNL     1       0.331  -2.256  -2.581  1.00  0.00     0.005 A 
INPUT-LIGAND-PDBQT: ATOM      3  C   UNL     1       0.923  -0.998  -2.711  1.00  0.00     0.009 A 
INPUT-LIGAND-PDBQT: ATOM      4  C   UNL     1       0.148   0.171  -2.619  1.00  0.00    -0.018 A 
INPUT-LIGAND-PDBQT: ATOM      5  C   UNL     1      -1.234   0.054  -2.403  1.00  0.00     0.009 A 
INPUT-LIGAND-PDBQT: ATOM      6  C   UNL     1      -1.830  -1.205  -2.282  1.00  0.00     0.005 A 
INPUT-LIGAND-PDBQT: ENDROOT
INPUT-LIGAND-PDBQT: BRANCH   1   7
INPUT-LIGAND-PDBQT: ATOM      7  C   UNL     1      -1.724  -3.728  -2.176  1.00  0.00     0.085 C 
INPUT-LIGAND-PDBQT: ATOM      8  C   UNL     1      -1.172  -4.818  -3.104  1.00  0.00     0.021 C 
INPUT-LIGAND-PDBQT: BRANCH   7   9
INPUT-LIGAND-PDBQT: ATOM      9  C   UNL     1      -1.641  -4.172  -0.740  1.00  0.00     0.144 A 
INPUT-LIGAND-PDBQT: ATOM     10  C   UNL     1      -1.015  -4.610   1.288  1.00  0.00     0.084 A 
INPUT-LIGAND-PDBQT: ATOM     11  C   UNL     1      -0.580  -4.000   0.131  1.00  0.00     0.073 A 
INPUT-LIGAND-PDBQT: ATOM     12  N   UNL     1      -2.248  -5.122   1.102  1.00  0.00    -0.085 NA
INPUT-LIGAND-PDBQT: ATOM     13  O   UNL     1      -2.590  -4.843  -0.122  1.00  0.00    -0.361 OA
INPUT-LIGAND-PDBQT: BRANCH  10  14
INPUT-LIGAND-PDBQT: ATOM     14  C   UNL     1      -0.247  -4.714   2.570  1.00  0.00     0.060 C 
INPUT-LIGAND-PDBQT: BRANCH  14  15
INPUT-LIGAND-PDBQT: ATOM     15  C   UNL     1       0.940  -5.672   2.421  1.00  0.00     0.006 C 
INPUT-LIGAND-PDBQT: BRANCH  15  16
INPUT-LIGAND-PDBQT: ATOM     16  C   UNL     1       1.688  -5.826   3.747  1.00  0.00    -0.003 C 
INPUT-LIGAND-PDBQT: ATOM     17  C   UNL     1       2.889  -6.757   3.597  1.00  0.00     0.004 C 
INPUT-LIGAND-PDBQT: ENDBRANCH  15  16
INPUT-LIGAND-PDBQT: ENDBRANCH  14  15
INPUT-LIGAND-PDBQT: ENDBRANCH  10  14
INPUT-LIGAND-PDBQT: ENDBRANCH   7   9
INPUT-LIGAND-PDBQT: ENDBRANCH   1   7
INPUT-LIGAND-PDBQT: BRANCH   4  18
INPUT-LIGAND-PDBQT: ATOM     18  C   UNL     1       0.785   1.506  -2.740  1.00  0.00    -0.018 A 
INPUT-LIGAND-PDBQT: ATOM     19  C   UNL     1       1.763   1.746  -3.721  1.00  0.00     0.009 A 
INPUT-LIGAND-PDBQT: ATOM     20  C   UNL     1       0.433   2.544  -1.859  1.00  0.00     0.018 A 
INPUT-LIGAND-PDBQT: ATOM     21  C   UNL     1       2.371   2.999  -3.824  1.00  0.00     0.001 A 
INPUT-LIGAND-PDBQT: ATOM     22  C   UNL     1       1.044   3.804  -1.960  1.00  0.00     0.007 A 
INPUT-LIGAND-PDBQT: ATOM     23  C   UNL     1       2.020   4.022  -2.944  1.00  0.00     0.009 A 
INPUT-LIGAND-PDBQT: BRANCH  22  24
INPUT-LIGAND-PDBQT: ATOM     24  C   UNL     1       0.725   4.884  -0.956  1.00  0.00     0.297 C 
INPUT-LIGAND-PDBQT: BRANCH  24  25
INPUT-LIGAND-PDBQT: ATOM     25  N   UNL     1       1.628   4.784   0.202  1.00  0.00    -0.342 N 
INPUT-LIGAND-PDBQT: ATOM     26  H   UNL     1       2.607   4.941  -0.134  1.00  0.00     0.346 HD
INPUT-LIGAND-PDBQT: ATOM     27  H   UNL     1       1.578   3.822   0.607  1.00  0.00     0.346 HD
INPUT-LIGAND-PDBQT: BRANCH  25  28
INPUT-LIGAND-PDBQT: ATOM     28  C   UNL     1       1.332   5.803   1.230  1.00  0.00     0.263 C 
INPUT-LIGAND-PDBQT: BRANCH  28  29
INPUT-LIGAND-PDBQT: ATOM     29  C   UNL     1       0.182   5.388   2.185  1.00  0.00     0.038 C 
INPUT-LIGAND-PDBQT: ATOM     30  C   UNL     1      -0.360   6.620   2.922  1.00  0.00     0.013 C 
INPUT-LIGAND-PDBQT: ATOM     31  C   UNL     1       0.642   4.336   3.208  1.00  0.00     0.013 C 
INPUT-LIGAND-PDBQT: ENDBRANCH  28  29
INPUT-LIGAND-PDBQT: ENDBRANCH  25  28
INPUT-LIGAND-PDBQT: ENDBRANCH  24  25
INPUT-LIGAND-PDBQT: ENDBRANCH  22  24
INPUT-LIGAND-PDBQT: ENDBRANCH   4  18
INPUT-LIGAND-PDBQT: TORSDOF 10


    FINAL DOCKED STATE:
    ________________________


Run:   1 / 20
Time taken for this run:   0.076s

DOCKED: MODEL        1
DOCKED: USER    Run = 1
DOCKED: USER
DOCKED: USER    Estimated Free Energy of Binding    =  -8.94 kcal/mol  [=(1)+(2)+(3)-(4)]
DOCKED: USER
DOCKED: USER    (1) Final Intermolecular Energy     = -11.92 kcal/mol
DOCKED: USER        vdW + Hbond + desolv Energy     = -11.09 kcal/mol
DOCKED: USER        Electrostatic Energy            =  -0.83 kcal/mol
DOCKED: USER        Moving Ligand-Fixed Receptor    = -11.92 kcal/mol
DOCKED: USER        Moving Ligand-Moving Receptor   =  +0.00 kcal/mol
DOCKED: USER    (2) Final Total Internal Energy     =  -1.77 kcal/mol
DOCKED: USER    (3) Torsional Free Energy           =  +2.98 kcal/mol
DOCKED: USER    (4) Unbound System's Energy         =  -1.77 kcal/mol
DOCKED: USER
DOCKED: USER
DOCKED: REMARK SMILES CCCCc1cc([C@H](C)c2ccc(-c3cccc(C[NH2+]CC(C)C)c3)cc2)on1
DOCKED: REMARK SMILES IDX 10 1 11 2 12 3 13 4 26 5 27 6 8 7 9 8 7 9 5 10 6 11 29 12
DOCKED: REMARK SMILES IDX 28 13 4 14 3 15 2 16 1 17 14 18 15 19 25 20 16 21 18 22
DOCKED: REMARK SMILES IDX 17 23 19 24 20 25 21 28 22 29 23 30 24 31
DOCKED: REMARK H PARENT 20 26 20 27
DOCKED: USER                              x       y       z     vdW  Elec       q    Type
DOCKED: USER                           _______ _______ _______ _____ _____    ______ ____
DOCKED: ROOT
DOCKED: ATOM      1  C   UNL     1     138.729  70.660 222.803 -0.21 +0.01    -0.037 A  
DOCKED: ATOM      2  C   UNL     1     137.778  71.603 222.366 -0.16 -0.00    +0.005 A  
DOCKED: ATOM      3  C   UNL     1     138.159  72.917 222.088 -0.15 -0.00    +0.009 A  
DOCKED: ATOM      4  C   UNL     1     139.501  73.316 222.217 -0.23 +0.00    -0.018 A  
DOCKED: ATOM      5  C   UNL     1     140.452  72.374 222.639 -0.33 -0.00    +0.009 A  
DOCKED: ATOM      6  C   UNL     1     140.070  71.060 222.927 -0.29 -0.00    +0.005 A  
DOCKED: ENDROOT
DOCKED: BRANCH   1   7
DOCKED: ATOM      7  C   UNL     1     138.356  69.207 223.059 -0.21 -0.01    +0.085 C  
DOCKED: ATOM      8  C   UNL     1     138.856  68.253 221.967 -0.19 -0.00    +0.021 C  
DOCKED: BRANCH   7   9
DOCKED: ATOM      9  C   UNL     1     138.830  68.749 224.412 -0.28 -0.02    +0.144 A  
DOCKED: ATOM     10  C   UNL     1     139.466  68.620 226.480 -0.49 -0.01    +0.084 A  
DOCKED: ATOM     11  C   UNL     1     138.987  69.519 225.551 -0.37 -0.01    +0.073 A  
DOCKED: ATOM     12  N   UNL     1     139.597  67.403 225.917 -0.82 +0.01    -0.085 NA 
DOCKED: ATOM     13  O   UNL     1     139.209  67.517 224.680 -0.74 -0.00    -0.361 OA 
DOCKED: BRANCH  10  14
DOCKED: ATOM     14  C   UNL     1     139.810  68.928 227.905 -0.57 -0.01    +0.060 C  
DOCKED: BRANCH  14  15
DOCKED: ATOM     15  C   UNL     1     141.070  69.796 227.989 -0.60 -0.00    +0.006 C  
DOCKED: BRANCH  15  16
DOCKED: ATOM     16  C   UNL     1     140.718  71.282 227.889 -0.78 +0.00    -0.003 C  
DOCKED: ATOM     17  C   UNL     1     141.188  71.871 226.561 -0.71 -0.00    +0.004 C  
DOCKED: ENDBRANCH  15  16
DOCKED: ENDBRANCH  14  15
DOCKED: ENDBRANCH  10  14
DOCKED: ENDBRANCH   7   9
DOCKED: ENDBRANCH   1   7
DOCKED: BRANCH   4  18
DOCKED: ATOM     18  C   UNL     1     139.904  74.710 221.903 -0.28 +0.00    -0.018 A  
DOCKED: ATOM     19  C   UNL     1     139.359  75.790 222.618 -0.22 -0.00    +0.009 A  
DOCKED: ATOM     20  C   UNL     1     140.821  74.968 220.869 -0.26 -0.00    +0.018 A  
DOCKED: ATOM     21  C   UNL     1     139.729  77.102 222.312 -0.36 -0.00    +0.001 A  
DOCKED: ATOM     22  C   UNL     1     141.194  76.286 220.558 -0.26 -0.00    +0.007 A  
DOCKED: ATOM     23  C   UNL     1     140.636  77.351 221.282 -0.29 -0.00    +0.009 A  
DOCKED: BRANCH  22  24
DOCKED: ATOM     24  C   UNL     1     142.109  76.560 219.391 -0.17 -0.15    +0.297 C  
DOCKED: BRANCH  24  25
DOCKED: ATOM     25  N   UNL     1     143.514  76.390 219.797 -0.20 +0.25    -0.342 N  
DOCKED: ATOM     26  H   UNL     1     143.564  76.473 220.839 -0.13 -0.40    +0.346 HD 
DOCKED: ATOM     27  H   UNL     1     144.095  77.155 219.386 -0.32 -0.31    +0.346 HD 
DOCKED: BRANCH  25  28
DOCKED: ATOM     28  C   UNL     1     144.048  75.065 219.421 -0.09 -0.14    +0.263 C  
DOCKED: BRANCH  28  29
DOCKED: ATOM     29  C   UNL     1     144.262  74.128 220.638 -0.39 -0.01    +0.038 C  
DOCKED: ATOM     30  C   UNL     1     145.758  73.837 220.821 -0.65 -0.00    +0.013 C  
DOCKED: ATOM     31  C   UNL     1     143.495  72.804 220.481 -0.33 -0.00    +0.013 C  
DOCKED: ENDBRANCH  28  29
DOCKED: ENDBRANCH  25  28
DOCKED: ENDBRANCH  24  25
DOCKED: ENDBRANCH  22  24
DOCKED: ENDBRANCH   4  18
DOCKED: TORSDOF 10
DOCKED: TER
DOCKED: ENDMDL
________________________________________________________________________________


    FINAL DOCKED STATE:
    ________________________


Run:   2 / 20
Time taken for this run:   0.076s

DOCKED: MODEL        2
DOCKED: USER    Run = 2
DOCKED: USER
DOCKED: USER    Estimated Free Energy of Binding    =  -8.66 kcal/mol  [=(1)+(2)+(3)-(4)]
DOCKED: USER
DOCKED: USER    (1) Final Intermolecular Energy     = -11.65 kcal/mol
DOCKED: USER        vdW + Hbond + desolv Energy     = -10.39 kcal/mol
DOCKED: USER        Electrostatic Energy            =  -1.26 kcal/mol
DOCKED: USER        Moving Ligand-Fixed Receptor    = -11.65 kcal/mol
DOCKED: USER        Moving Ligand-Moving Receptor   =  +0.00 kcal/mol
DOCKED: USER    (2) Final Total Internal Energy     =  -1.42 kcal/mol
DOCKED: USER    (3) Torsional Free Energy           =  +2.98 kcal/mol
DOCKED: USER    (4) Unbound System's Energy         =  -1.42 kcal/mol
DOCKED: USER
DOCKED: USER
DOCKED: REMARK SMILES CCCCc1cc([C@H](C)c2ccc(-c3cccc(C[NH2+]CC(C)C)c3)cc2)on1
DOCKED: REMARK SMILES IDX 10 1 11 2 12 3 13 4 26 5 27 6 8 7 9 8 7 9 5 10 6 11 29 12
DOCKED: REMARK SMILES IDX 28 13 4 14 3 15 2 16 1 17 14 18 15 19 25 20 16 21 18 22
DOCKED: REMARK SMILES IDX 17 23 19 24 20 25 21 28 22 29 23 30 24 31
DOCKED: REMARK H PARENT 20 26 20 27
DOCKED: USER                              x       y       z     vdW  Elec       q    Type
DOCKED: USER                           _______ _______ _______ _____ _____    ______ ____
DOCKED: ROOT
DOCKED: ATOM      1  C   UNL     1     139.597  73.838 221.989 -0.26 +0.01    -0.037 A  
DOCKED: ATOM      2  C   UNL     1     138.796  74.957 222.291 -0.17 -0.00    +0.005 A  
DOCKED: ATOM      3  C   UNL     1     139.309  76.250 222.166 -0.33 -0.00    +0.009 A  
DOCKED: ATOM      4  C   UNL     1     140.624  76.458 221.715 -0.36 +0.01    -0.018 A  
DOCKED: ATOM      5  C   UNL     1     141.418  75.344 221.401 -0.32 -0.00    +0.009 A  
DOCKED: ATOM      6  C   UNL     1     140.910  74.048 221.535 -0.30 -0.00    +0.005 A  
DOCKED: ENDROOT
DOCKED: BRANCH   1   7
DOCKED: ATOM      7  C   UNL     1     139.050  72.420 222.061 -0.20 -0.02    +0.085 C  
DOCKED: ATOM      8  C   UNL     1     139.316  71.604 220.790 -0.10 -0.00    +0.021 C  
DOCKED: BRANCH   7   9
DOCKED: ATOM      9  C   UNL     1     139.573  71.690 223.270 -0.27 -0.03    +0.144 A  
DOCKED: ATOM     10  C   UNL     1     139.850  70.374 224.969 -0.39 -0.01    +0.084 A  
DOCKED: ATOM     11  C   UNL     1     138.974  70.636 223.937 -0.30 -0.01    +0.073 A  
DOCKED: ATOM     12  N   UNL     1     140.889  71.231 224.920 -0.43 +0.01    -0.085 NA 
DOCKED: ATOM     13  O   UNL     1     140.689  72.005 223.892 -0.26 +0.03    -0.361 OA 
DOCKED: BRANCH  10  14
DOCKED: ATOM     14  C   UNL     1     139.688  69.310 226.011 -0.46 -0.01    +0.060 C  
DOCKED: BRANCH  14  15
DOCKED: ATOM     15  C   UNL     1     140.668  69.524 227.169 -0.61 -0.00    +0.006 C  
DOCKED: BRANCH  15  16
DOCKED: ATOM     16  C   UNL     1     140.191  70.651 228.088 -0.65 +0.00    -0.003 C  
DOCKED: ATOM     17  C   UNL     1     141.056  71.898 227.925 -0.83 -0.00    +0.004 C  
DOCKED: ENDBRANCH  15  16
DOCKED: ENDBRANCH  14  15
DOCKED: ENDBRANCH  10  14
DOCKED: ENDBRANCH   7   9
DOCKED: ENDBRANCH   1   7
DOCKED: BRANCH   4  18
DOCKED: ATOM     18  C   UNL     1     141.158  77.835 221.566 -0.35 +0.01    -0.018 A  
DOCKED: ATOM     19  C   UNL     1     141.346  78.655 222.692 -0.50 -0.00    +0.009 A  
DOCKED: ATOM     20  C   UNL     1     141.462  78.345 220.292 -0.28 -0.01    +0.018 A  
DOCKED: ATOM     21  C   UNL     1     141.835  79.955 222.549 -0.54 -0.00    +0.001 A  
DOCKED: ATOM     22  C   UNL     1     141.953  79.652 220.145 -0.24 -0.00    +0.007 A  
DOCKED: ATOM     23  C   UNL     1     142.131  80.455 221.282 -0.40 -0.00    +0.009 A  
DOCKED: BRANCH  22  24
DOCKED: ATOM     24  C   UNL     1     142.194  80.222 218.769 -0.20 -0.20    +0.297 C  
DOCKED: BRANCH  24  25
DOCKED: ATOM     25  N   UNL     1     142.950  79.263 217.947 -0.17 +0.38    -0.342 N  
DOCKED: ATOM     26  H   UNL     1     143.566  78.704 218.583 -0.13 -0.39    +0.346 HD 
DOCKED: ATOM     27  H   UNL     1     143.564  79.779 217.277 -0.45 -0.75    +0.346 HD 
DOCKED: BRANCH  25  28
DOCKED: ATOM     28  C   UNL     1     142.065  78.322 217.231 -0.15 -0.20    +0.263 C  
DOCKED: BRANCH  28  29
DOCKED: ATOM     29  C   UNL     1     142.653  76.890 217.129 -0.22 -0.02    +0.038 C  
DOCKED: ATOM     30  C   UNL     1     143.282  76.484 218.469 -0.32 -0.01    +0.013 C  
DOCKED: ATOM     31  C   UNL     1     143.706  76.784 216.013 -0.21 -0.01    +0.013 C  
DOCKED: ENDBRANCH  28  29
DOCKED: ENDBRANCH  25  28
DOCKED: ENDBRANCH  24  25
DOCKED: ENDBRANCH  22  24
DOCKED: ENDBRANCH   4  18
DOCKED: TORSDOF 10
DOCKED: TER
DOCKED: ENDMDL
________________________________________________________________________________


    FINAL DOCKED STATE:
    ________________________


Run:   3 / 20
Time taken for this run:   0.076s

DOCKED: MODEL        3
DOCKED: USER    Run = 3
DOCKED: USER
DOCKED: USER    Estimated Free Energy of Binding    =  -9.40 kcal/mol  [=(1)+(2)+(3)-(4)]
DOCKED: USER
DOCKED: USER    (1) Final Intermolecular Energy     = -12.39 kcal/mol
DOCKED: USER        vdW + Hbond + desolv Energy     = -11.54 kcal/mol
DOCKED: USER        Electrostatic Energy            =  -0.85 kcal/mol
DOCKED: USER        Moving Ligand-Fixed Receptor    = -12.39 kcal/mol
DOCKED: USER        Moving Ligand-Moving Receptor   =  +0.00 kcal/mol
DOCKED: USER    (2) Final Total Internal Energy     =  -1.18 kcal/mol
DOCKED: USER    (3) Torsional Free Energy           =  +2.98 kcal/mol
DOCKED: USER    (4) Unbound System's Energy         =  -1.18 kcal/mol
DOCKED: USER
DOCKED: USER
DOCKED: REMARK SMILES CCCCc1cc([C@H](C)c2ccc(-c3cccc(C[NH2+]CC(C)C)c3)cc2)on1
DOCKED: REMARK SMILES IDX 10 1 11 2 12 3 13 4 26 5 27 6 8 7 9 8 7 9 5 10 6 11 29 12
DOCKED: REMARK SMILES IDX 28 13 4 14 3 15 2 16 1 17 14 18 15 19 25 20 16 21 18 22
DOCKED: REMARK SMILES IDX 17 23 19 24 20 25 21 28 22 29 23 30 24 31
DOCKED: REMARK H PARENT 20 26 20 27
DOCKED: USER                              x       y       z     vdW  Elec       q    Type
DOCKED: USER                           _______ _______ _______ _____ _____    ______ ____
DOCKED: ROOT
DOCKED: ATOM      1  C   UNL     1     138.891  70.716 222.872 -0.22 +0.01    -0.037 A  
DOCKED: ATOM      2  C   UNL     1     138.590  71.353 221.652 -0.13 -0.00    +0.005 A  
DOCKED: ATOM      3  C   UNL     1     139.483  72.270 221.092 -0.14 -0.00    +0.009 A  
DOCKED: ATOM      4  C   UNL     1     140.706  72.555 221.723 -0.28 +0.00    -0.018 A  
DOCKED: ATOM      5  C   UNL     1     141.013  71.910 222.931 -0.15 -0.00    +0.009 A  
DOCKED: ATOM      6  C   UNL     1     140.117  70.999 223.498 -0.34 -0.00    +0.005 A  
DOCKED: ENDROOT
DOCKED: BRANCH   1   7
DOCKED: ATOM      7  C   UNL     1     137.966  69.672 223.478 -0.22 -0.01    +0.085 C  
DOCKED: ATOM      8  C   UNL     1     137.464  68.643 222.457 -0.17 -0.00    +0.021 C  
DOCKED: BRANCH   7   9
DOCKED: ATOM      9  C   UNL     1     138.613  68.977 224.646 -0.29 -0.01    +0.144 A  
DOCKED: ATOM     10  C   UNL     1     139.511  68.473 226.553 -0.51 -0.01    +0.084 A  
DOCKED: ATOM     11  C   UNL     1     138.912  69.518 225.884 -0.36 -0.01    +0.073 A  
DOCKED: ATOM     12  N   UNL     1     139.574  67.390 225.753 -0.89 +0.01    -0.085 NA 
DOCKED: ATOM     13  O   UNL     1     139.030  67.728 224.620 -0.66 -0.00    -0.361 OA 
DOCKED: BRANCH  10  14
DOCKED: ATOM     14  C   UNL     1     140.035  68.511 227.956 -0.60 -0.01    +0.060 C  
DOCKED: BRANCH  14  15
DOCKED: ATOM     15  C   UNL     1     141.102  69.600 228.113 -0.57 -0.00    +0.006 C  
DOCKED: BRANCH  15  16
DOCKED: ATOM     16  C   UNL     1     140.463  70.989 228.165 -0.67 +0.00    -0.003 C  
DOCKED: ATOM     17  C   UNL     1     141.172  71.957 227.220 -0.79 -0.00    +0.004 C  
DOCKED: ENDBRANCH  15  16
DOCKED: ENDBRANCH  14  15
DOCKED: ENDBRANCH  10  14
DOCKED: ENDBRANCH   7   9
DOCKED: ENDBRANCH   1   7
DOCKED: BRANCH   4  18
DOCKED: ATOM     18  C   UNL     1     141.659  73.516 221.114 -0.26 +0.00    -0.018 A  
DOCKED: ATOM     19  C   UNL     1     142.978  73.127 220.820 -0.28 -0.00    +0.009 A  
DOCKED: ATOM     20  C   UNL     1     141.261  74.837 220.843 -0.28 -0.00    +0.018 A  
DOCKED: ATOM     21  C   UNL     1     143.877  74.037 220.260 -0.40 -0.00    +0.001 A  
DOCKED: ATOM     22  C   UNL     1     142.163  75.754 220.281 -0.29 -0.00    +0.007 A  
DOCKED: ATOM     23  C   UNL     1     143.476  75.347 219.998 -0.38 -0.00    +0.009 A  
DOCKED: BRANCH  22  24
DOCKED: ATOM     24  C   UNL     1     141.754  77.191 220.075 -0.17 -0.16    +0.297 C  
DOCKED: BRANCH  24  25
DOCKED: ATOM     25  N   UNL     1     142.172  78.008 221.226 +0.01 +0.26    -0.342 N  
DOCKED: ATOM     26  H   UNL     1     143.203  78.176 221.149 -0.34 -0.47    +0.346 HD 
DOCKED: ATOM     27  H   UNL     1     141.998  77.484 222.113 -0.30 -0.28    +0.346 HD 
DOCKED: BRANCH  25  28
DOCKED: ATOM     28  C   UNL     1     141.499  79.323 221.251 -0.23 -0.12    +0.263 C  
DOCKED: BRANCH  28  29
DOCKED: ATOM     29  C   UNL     1     142.126  80.309 222.271 -0.53 -0.01    +0.038 C  
DOCKED: ATOM     30  C   UNL     1     142.161  79.670 223.666 -0.62 -0.00    +0.013 C  
DOCKED: ATOM     31  C   UNL     1     141.352  81.636 222.331 -0.45 -0.00    +0.013 C  
DOCKED: ENDBRANCH  28  29
DOCKED: ENDBRANCH  25  28
DOCKED: ENDBRANCH  24  25
DOCKED: ENDBRANCH  22  24
DOCKED: ENDBRANCH   4  18
DOCKED: TORSDOF 10
DOCKED: TER
DOCKED: ENDMDL
________________________________________________________________________________


    FINAL DOCKED STATE:
    ________________________


Run:   4 / 20
Time taken for this run:   0.076s

DOCKED: MODEL        4
DOCKED: USER    Run = 4
DOCKED: USER
DOCKED: USER    Estimated Free Energy of Binding    =  -9.40 kcal/mol  [=(1)+(2)+(3)-(4)]
DOCKED: USER
DOCKED: USER    (1) Final Intermolecular Energy     = -12.39 kcal/mol
DOCKED: USER        vdW + Hbond + desolv Energy     = -11.57 kcal/mol
DOCKED: USER        Electrostatic Energy            =  -0.82 kcal/mol
DOCKED: USER        Moving Ligand-Fixed Receptor    = -12.39 kcal/mol
DOCKED: USER        Moving Ligand-Moving Receptor   =  +0.00 kcal/mol
DOCKED: USER    (2) Final Total Internal Energy     =  -1.26 kcal/mol
DOCKED: USER    (3) Torsional Free Energy           =  +2.98 kcal/mol
DOCKED: USER    (4) Unbound System's Energy         =  -1.26 kcal/mol
DOCKED: USER
DOCKED: USER
DOCKED: REMARK SMILES CCCCc1cc([C@H](C)c2ccc(-c3cccc(C[NH2+]CC(C)C)c3)cc2)on1
DOCKED: REMARK SMILES IDX 10 1 11 2 12 3 13 4 26 5 27 6 8 7 9 8 7 9 5 10 6 11 29 12
DOCKED: REMARK SMILES IDX 28 13 4 14 3 15 2 16 1 17 14 18 15 19 25 20 16 21 18 22
DOCKED: REMARK SMILES IDX 17 23 19 24 20 25 21 28 22 29 23 30 24 31
DOCKED: REMARK H PARENT 20 26 20 27
DOCKED: USER                              x       y       z     vdW  Elec       q    Type
DOCKED: USER                           _______ _______ _______ _____ _____    ______ ____
DOCKED: ROOT
DOCKED: ATOM      1  C   UNL     1     138.641  70.992 223.019 -0.23 +0.01    -0.037 A  
DOCKED: ATOM      2  C   UNL     1     138.136  72.089 222.295 -0.18 -0.00    +0.005 A  
DOCKED: ATOM      3  C   UNL     1     139.004  73.023 221.725 -0.20 -0.00    +0.009 A  
DOCKED: ATOM      4  C   UNL     1     140.396  72.871 221.844 -0.29 +0.00    -0.018 A  
DOCKED: ATOM      5  C   UNL     1     140.901  71.770 222.554 -0.25 -0.00    +0.009 A  
DOCKED: ATOM      6  C   UNL     1     140.033  70.840 223.133 -0.28 -0.00    +0.005 A  
DOCKED: ENDROOT
DOCKED: BRANCH   1   7
DOCKED: ATOM      7  C   UNL     1     137.723  69.928 223.603 -0.22 -0.01    +0.085 C  
DOCKED: ATOM      8  C   UNL     1     137.137  68.986 222.542 -0.15 -0.00    +0.021 C  
DOCKED: BRANCH   7   9
DOCKED: ATOM      9  C   UNL     1     138.416  69.136 224.680 -0.28 -0.01    +0.144 A  
DOCKED: ATOM     10  C   UNL     1     139.415  68.478 226.487 -0.49 -0.01    +0.084 A  
DOCKED: ATOM     11  C   UNL     1     138.816  69.585 225.925 -0.33 -0.01    +0.073 A  
DOCKED: ATOM     12  N   UNL     1     139.381  67.447 225.619 -0.93 +0.00    -0.085 NA 
DOCKED: ATOM     13  O   UNL     1     138.779  67.877 224.549 -0.55 -0.01    -0.361 OA 
DOCKED: BRANCH  10  14
DOCKED: ATOM     14  C   UNL     1     140.029  68.407 227.851 -0.59 -0.01    +0.060 C  
DOCKED: BRANCH  14  15
DOCKED: ATOM     15  C   UNL     1     141.072  69.514 228.040 -0.60 -0.00    +0.006 C  
DOCKED: BRANCH  15  16
DOCKED: ATOM     16  C   UNL     1     140.399  70.879 228.192 -0.65 +0.00    -0.003 C  
DOCKED: ATOM     17  C   UNL     1     141.020  71.907 227.247 -0.81 -0.00    +0.004 C  
DOCKED: ENDBRANCH  15  16
DOCKED: ENDBRANCH  14  15
DOCKED: ENDBRANCH  10  14
DOCKED: ENDBRANCH   7   9
DOCKED: ENDBRANCH   1   7
DOCKED: BRANCH   4  18
DOCKED: ATOM     18  C   UNL     1     141.315  73.857 221.221 -0.28 +0.00    -0.018 A  
DOCKED: ATOM     19  C   UNL     1     142.607  73.475 220.819 -0.28 -0.00    +0.009 A  
DOCKED: ATOM     20  C   UNL     1     140.911  75.192 221.045 -0.29 -0.00    +0.018 A  
DOCKED: ATOM     21  C   UNL     1     143.474  74.407 220.246 -0.38 -0.00    +0.001 A  
DOCKED: ATOM     22  C   UNL     1     141.783  76.131 220.470 -0.29 -0.00    +0.007 A  
DOCKED: ATOM     23  C   UNL     1     143.069  75.731 220.078 -0.33 -0.01    +0.009 A  
DOCKED: BRANCH  22  24
DOCKED: ATOM     24  C   UNL     1     141.374  77.580 220.366 -0.16 -0.15    +0.297 C  
DOCKED: BRANCH  24  25
DOCKED: ATOM     25  N   UNL     1     142.176  78.401 221.287 -0.09 +0.25    -0.342 N  
DOCKED: ATOM     26  H   UNL     1     142.433  79.288 220.793 -0.13 -0.26    +0.346 HD 
DOCKED: ATOM     27  H   UNL     1     143.061  77.900 221.529 -0.36 -0.46    +0.346 HD 
DOCKED: BRANCH  25  28
DOCKED: ATOM     28  C   UNL     1     141.427  78.763 222.508 -0.33 -0.11    +0.263 C  
DOCKED: BRANCH  28  29
DOCKED: ATOM     29  C   UNL     1     141.531  80.270 222.862 -0.53 -0.01    +0.038 C  
DOCKED: ATOM     30  C   UNL     1     142.694  80.503 223.835 -0.68 -0.00    +0.013 C  
DOCKED: ATOM     31  C   UNL     1     140.227  80.802 223.480 -0.43 -0.00    +0.013 C  
DOCKED: ENDBRANCH  28  29
DOCKED: ENDBRANCH  25  28
DOCKED: ENDBRANCH  24  25
DOCKED: ENDBRANCH  22  24
DOCKED: ENDBRANCH   4  18
DOCKED: TORSDOF 10
DOCKED: TER
DOCKED: ENDMDL
________________________________________________________________________________


    FINAL DOCKED STATE:
    ________________________


Run:   5 / 20
Time taken for this run:   0.076s

DOCKED: MODEL        5
DOCKED: USER    Run = 5
DOCKED: USER
DOCKED: USER    Estimated Free Energy of Binding    =  -8.91 kcal/mol  [=(1)+(2)+(3)-(4)]
DOCKED: USER
DOCKED: USER    (1) Final Intermolecular Energy     = -11.89 kcal/mol
DOCKED: USER        vdW + Hbond + desolv Energy     = -11.05 kcal/mol
DOCKED: USER        Electrostatic Energy            =  -0.84 kcal/mol
DOCKED: USER        Moving Ligand-Fixed Receptor    = -11.89 kcal/mol
DOCKED: USER        Moving Ligand-Moving Receptor   =  +0.00 kcal/mol
DOCKED: USER    (2) Final Total Internal Energy     =  -1.75 kcal/mol
DOCKED: USER    (3) Torsional Free Energy           =  +2.98 kcal/mol
DOCKED: USER    (4) Unbound System's Energy         =  -1.75 kcal/mol
DOCKED: USER
DOCKED: USER
DOCKED: REMARK SMILES CCCCc1cc([C@H](C)c2ccc(-c3cccc(C[NH2+]CC(C)C)c3)cc2)on1
DOCKED: REMARK SMILES IDX 10 1 11 2 12 3 13 4 26 5 27 6 8 7 9 8 7 9 5 10 6 11 29 12
DOCKED: REMARK SMILES IDX 28 13 4 14 3 15 2 16 1 17 14 18 15 19 25 20 16 21 18 22
DOCKED: REMARK SMILES IDX 17 23 19 24 20 25 21 28 22 29 23 30 24 31
DOCKED: REMARK H PARENT 20 26 20 27
DOCKED: USER                              x       y       z     vdW  Elec       q    Type
DOCKED: USER                           _______ _______ _______ _____ _____    ______ ____
DOCKED: ROOT
DOCKED: ATOM      1  C   UNL     1     138.822  70.611 222.809 -0.21 +0.01    -0.037 A  
DOCKED: ATOM      2  C   UNL     1     137.834  71.588 222.579 -0.18 -0.00    +0.005 A  
DOCKED: ATOM      3  C   UNL     1     138.193  72.909 222.305 -0.11 -0.00    +0.009 A  
DOCKED: ATOM      4  C   UNL     1     139.546  73.283 222.231 -0.24 +0.00    -0.018 A  
DOCKED: ATOM      5  C   UNL     1     140.532  72.307 222.446 -0.32 -0.00    +0.009 A  
DOCKED: ATOM      6  C   UNL     1     140.174  70.985 222.730 -0.24 -0.00    +0.005 A  
DOCKED: ENDROOT
DOCKED: BRANCH   1   7
DOCKED: ATOM      7  C   UNL     1     138.464  69.153 223.053 -0.21 -0.01    +0.085 C  
DOCKED: ATOM      8  C   UNL     1     139.019  68.206 221.981 -0.17 -0.00    +0.021 C  
DOCKED: BRANCH   7   9
DOCKED: ATOM      9  C   UNL     1     138.897  68.703 224.423 -0.28 -0.02    +0.144 A  
DOCKED: ATOM     10  C   UNL     1     139.509  68.593 226.499 -0.50 -0.01    +0.084 A  
DOCKED: ATOM     11  C   UNL     1     139.100  69.494 225.540 -0.37 -0.01    +0.073 A  
DOCKED: ATOM     12  N   UNL     1     139.558  67.352 225.973 -0.82 +0.01    -0.085 NA 
DOCKED: ATOM     13  O   UNL     1     139.187  67.457 224.730 -0.76 -0.01    -0.361 OA 
DOCKED: BRANCH  10  14
DOCKED: ATOM     14  C   UNL     1     139.865  68.918 227.917 -0.58 -0.01    +0.060 C  
DOCKED: BRANCH  14  15
DOCKED: ATOM     15  C   UNL     1     141.072  69.861 227.976 -0.60 -0.00    +0.006 C  
DOCKED: BRANCH  15  16
DOCKED: ATOM     16  C   UNL     1     140.623  71.324 227.981 -0.78 +0.00    -0.003 C  
DOCKED: ATOM     17  C   UNL     1     141.388  72.138 226.940 -0.72 -0.00    +0.004 C  
DOCKED: ENDBRANCH  15  16
DOCKED: ENDBRANCH  14  15
DOCKED: ENDBRANCH  10  14
DOCKED: ENDBRANCH   7   9
DOCKED: ENDBRANCH   1   7
DOCKED: BRANCH   4  18
DOCKED: ATOM     18  C   UNL     1     139.923  74.684 221.922 -0.28 +0.00    -0.018 A  
DOCKED: ATOM     19  C   UNL     1     139.362  75.752 222.644 -0.20 -0.00    +0.009 A  
DOCKED: ATOM     20  C   UNL     1     140.833  74.964 220.887 -0.26 -0.00    +0.018 A  
DOCKED: ATOM     21  C   UNL     1     139.707  77.071 222.342 -0.37 -0.00    +0.001 A  
DOCKED: ATOM     22  C   UNL     1     141.181  76.289 220.580 -0.27 -0.00    +0.007 A  
DOCKED: ATOM     23  C   UNL     1     140.606  77.341 221.311 -0.29 -0.00    +0.009 A  
DOCKED: BRANCH  22  24
DOCKED: ATOM     24  C   UNL     1     142.088  76.584 219.412 -0.17 -0.15    +0.297 C  
DOCKED: BRANCH  24  25
DOCKED: ATOM     25  N   UNL     1     143.495  76.396 219.801 -0.20 +0.25    -0.342 N  
DOCKED: ATOM     26  H   UNL     1     143.556  76.464 220.844 -0.13 -0.40    +0.346 HD 
DOCKED: ATOM     27  H   UNL     1     144.079  77.161 219.394 -0.33 -0.32    +0.346 HD 
DOCKED: BRANCH  25  28
DOCKED: ATOM     28  C   UNL     1     144.012  75.071 219.401 -0.10 -0.14    +0.263 C  
DOCKED: BRANCH  28  29
DOCKED: ATOM     29  C   UNL     1     144.251  74.123 220.606 -0.40 -0.01    +0.038 C  
DOCKED: ATOM     30  C   UNL     1     145.744  73.789 220.724 -0.65 -0.00    +0.013 C  
DOCKED: ATOM     31  C   UNL     1     143.440  72.822 220.477 -0.32 -0.00    +0.013 C  
DOCKED: ENDBRANCH  28  29
DOCKED: ENDBRANCH  25  28
DOCKED: ENDBRANCH  24  25
DOCKED: ENDBRANCH  22  24
DOCKED: ENDBRANCH   4  18
DOCKED: TORSDOF 10
DOCKED: TER
DOCKED: ENDMDL
________________________________________________________________________________


    FINAL DOCKED STATE:
    ________________________


Run:   6 / 20
Time taken for this run:   0.076s

DOCKED: MODEL        6
DOCKED: USER    Run = 6
DOCKED: USER
DOCKED: USER    Estimated Free Energy of Binding    =  -9.44 kcal/mol  [=(1)+(2)+(3)-(4)]
DOCKED: USER
DOCKED: USER    (1) Final Intermolecular Energy     = -12.43 kcal/mol
DOCKED: USER        vdW + Hbond + desolv Energy     = -11.63 kcal/mol
DOCKED: USER        Electrostatic Energy            =  -0.80 kcal/mol
DOCKED: USER        Moving Ligand-Fixed Receptor    = -12.43 kcal/mol
DOCKED: USER        Moving Ligand-Moving Receptor   =  +0.00 kcal/mol
DOCKED: USER    (2) Final Total Internal Energy     =  -1.26 kcal/mol
DOCKED: USER    (3) Torsional Free Energy           =  +2.98 kcal/mol
DOCKED: USER    (4) Unbound System's Energy         =  -1.26 kcal/mol
DOCKED: USER
DOCKED: USER
DOCKED: REMARK SMILES CCCCc1cc([C@H](C)c2ccc(-c3cccc(C[NH2+]CC(C)C)c3)cc2)on1
DOCKED: REMARK SMILES IDX 10 1 11 2 12 3 13 4 26 5 27 6 8 7 9 8 7 9 5 10 6 11 29 12
DOCKED: REMARK SMILES IDX 28 13 4 14 3 15 2 16 1 17 14 18 15 19 25 20 16 21 18 22
DOCKED: REMARK SMILES IDX 17 23 19 24 20 25 21 28 22 29 23 30 24 31
DOCKED: REMARK H PARENT 20 26 20 27
DOCKED: USER                              x       y       z     vdW  Elec       q    Type
DOCKED: USER                           _______ _______ _______ _____ _____    ______ ____
DOCKED: ROOT
DOCKED: ATOM      1  C   UNL     1     138.553  71.029 223.097 -0.23 +0.01    -0.037 A  
DOCKED: ATOM      2  C   UNL     1     139.959  70.974 223.169 -0.31 -0.00    +0.005 A  
DOCKED: ATOM      3  C   UNL     1     140.739  71.955 222.554 -0.31 -0.00    +0.009 A  
DOCKED: ATOM      4  C   UNL     1     140.137  73.026 221.873 -0.29 +0.00    -0.018 A  
DOCKED: ATOM      5  C   UNL     1     138.736  73.090 221.812 -0.19 -0.00    +0.009 A  
DOCKED: ATOM      6  C   UNL     1     137.953  72.104 222.419 -0.17 -0.00    +0.005 A  
DOCKED: ENDROOT
DOCKED: BRANCH   1   7
DOCKED: ATOM      7  C   UNL     1     137.674  70.008 223.804 -0.23 -0.01    +0.085 C  
DOCKED: ATOM      8  C   UNL     1     136.857  69.141 222.837 -0.16 -0.00    +0.021 C  
DOCKED: BRANCH   7   9
DOCKED: ATOM      9  C   UNL     1     138.481  69.139 224.732 -0.28 -0.01    +0.144 A  
DOCKED: ATOM     10  C   UNL     1     139.673  68.348 226.360 -0.53 -0.01    +0.084 A  
DOCKED: ATOM     11  C   UNL     1     139.019  69.493 225.956 -0.37 -0.01    +0.073 A  
DOCKED: ATOM     12  N   UNL     1     139.539  67.388 225.423 -0.95 +0.00    -0.085 NA 
DOCKED: ATOM     13  O   UNL     1     138.823  67.896 224.464 -0.55 -0.00    -0.361 OA 
DOCKED: BRANCH  10  14
DOCKED: ATOM     14  C   UNL     1     140.436  68.175 227.637 -0.62 -0.01    +0.060 C  
DOCKED: BRANCH  14  15
DOCKED: ATOM     15  C   UNL     1     140.295  69.412 228.531 -0.49 -0.00    +0.006 C  
DOCKED: BRANCH  15  16
DOCKED: ATOM     16  C   UNL     1     141.128  70.576 227.990 -0.60 +0.00    -0.003 C  
DOCKED: ATOM     17  C   UNL     1     140.337  71.882 228.022 -0.74 -0.00    +0.004 C  
DOCKED: ENDBRANCH  15  16
DOCKED: ENDBRANCH  14  15
DOCKED: ENDBRANCH  10  14
DOCKED: ENDBRANCH   7   9
DOCKED: ENDBRANCH   1   7
DOCKED: BRANCH   4  18
DOCKED: ATOM     18  C   UNL     1     140.971  74.076 221.236 -0.29 +0.00    -0.018 A  
DOCKED: ATOM     19  C   UNL     1     142.166  73.739 220.578 -0.26 -0.00    +0.009 A  
DOCKED: ATOM     20  C   UNL     1     140.586  75.427 221.302 -0.31 -0.00    +0.018 A  
DOCKED: ATOM     21  C   UNL     1     142.956  74.730 219.992 -0.33 -0.00    +0.001 A  
DOCKED: ATOM     22  C   UNL     1     141.379  76.425 220.714 -0.29 -0.00    +0.007 A  
DOCKED: ATOM     23  C   UNL     1     142.570  76.067 220.065 -0.32 -0.01    +0.009 A  
DOCKED: BRANCH  22  24
DOCKED: ATOM     24  C   UNL     1     141.005  77.878 220.866 -0.16 -0.13    +0.297 C  
DOCKED: BRANCH  24  25
DOCKED: ATOM     25  N   UNL     1     142.203  78.685 221.148 -0.09 +0.24    -0.342 N  
DOCKED: ATOM     26  H   UNL     1     142.671  78.903 220.237 -0.15 -0.33    +0.346 HD 
DOCKED: ATOM     27  H   UNL     1     142.873  78.132 221.728 -0.34 -0.39    +0.346 HD 
DOCKED: BRANCH  25  28
DOCKED: ATOM     28  C   UNL     1     141.871  79.966 221.806 -0.30 -0.10    +0.263 C  
DOCKED: BRANCH  28  29
DOCKED: ATOM     29  C   UNL     1     142.444  80.078 223.243 -0.63 -0.01    +0.038 C  
DOCKED: ATOM     30  C   UNL     1     141.802  79.018 224.149 -0.54 -0.00    +0.013 C  
DOCKED: ATOM     31  C   UNL     1     142.213  81.475 223.842 -0.58 -0.00    +0.013 C  
DOCKED: ENDBRANCH  28  29
DOCKED: ENDBRANCH  25  28
DOCKED: ENDBRANCH  24  25
DOCKED: ENDBRANCH  22  24
DOCKED: ENDBRANCH   4  18
DOCKED: TORSDOF 10
DOCKED: TER
DOCKED: ENDMDL
________________________________________________________________________________


    FINAL DOCKED STATE:
    ________________________


Run:   7 / 20
Time taken for this run:   0.076s

DOCKED: MODEL        7
DOCKED: USER    Run = 7
DOCKED: USER
DOCKED: USER    Estimated Free Energy of Binding    =  -8.77 kcal/mol  [=(1)+(2)+(3)-(4)]
DOCKED: USER
DOCKED: USER    (1) Final Intermolecular Energy     = -11.75 kcal/mol
DOCKED: USER        vdW + Hbond + desolv Energy     = -10.97 kcal/mol
DOCKED: USER        Electrostatic Energy            =  -0.78 kcal/mol
DOCKED: USER        Moving Ligand-Fixed Receptor    = -11.75 kcal/mol
DOCKED: USER        Moving Ligand-Moving Receptor   =  +0.00 kcal/mol
DOCKED: USER    (2) Final Total Internal Energy     =  -1.71 kcal/mol
DOCKED: USER    (3) Torsional Free Energy           =  +2.98 kcal/mol
DOCKED: USER    (4) Unbound System's Energy         =  -1.71 kcal/mol
DOCKED: USER
DOCKED: USER
DOCKED: REMARK SMILES CCCCc1cc([C@H](C)c2ccc(-c3cccc(C[NH2+]CC(C)C)c3)cc2)on1
DOCKED: REMARK SMILES IDX 10 1 11 2 12 3 13 4 26 5 27 6 8 7 9 8 7 9 5 10 6 11 29 12
DOCKED: REMARK SMILES IDX 28 13 4 14 3 15 2 16 1 17 14 18 15 19 25 20 16 21 18 22
DOCKED: REMARK SMILES IDX 17 23 19 24 20 25 21 28 22 29 23 30 24 31
DOCKED: REMARK H PARENT 20 26 20 27
DOCKED: USER                              x       y       z     vdW  Elec       q    Type
DOCKED: USER                           _______ _______ _______ _____ _____    ______ ____
DOCKED: ROOT
DOCKED: ATOM      1  C   UNL     1     138.792  70.680 222.682 -0.20 +0.01    -0.037 A  
DOCKED: ATOM      2  C   UNL     1     137.808  71.603 222.275 -0.15 -0.00    +0.005 A  
DOCKED: ATOM      3  C   UNL     1     138.141  72.940 222.049 -0.16 -0.00    +0.009 A  
DOCKED: ATOM      4  C   UNL     1     139.466  73.384 222.203 -0.22 +0.00    -0.018 A  
DOCKED: ATOM      5  C   UNL     1     140.450  72.463 222.595 -0.32 -0.00    +0.009 A  
DOCKED: ATOM      6  C   UNL     1     140.117  71.125 222.830 -0.29 -0.00    +0.005 A  
DOCKED: ENDROOT
DOCKED: BRANCH   1   7
DOCKED: ATOM      7  C   UNL     1     138.473  69.206 222.880 -0.20 -0.01    +0.085 C  
DOCKED: ATOM      8  C   UNL     1     139.136  68.298 221.837 -0.16 -0.00    +0.021 C  
DOCKED: BRANCH   7   9
DOCKED: ATOM      9  C   UNL     1     138.826  68.750 224.271 -0.28 -0.02    +0.144 A  
DOCKED: ATOM     10  C   UNL     1     139.323  68.630 226.377 -0.47 -0.01    +0.084 A  
DOCKED: ATOM     11  C   UNL     1     138.974  69.537 225.399 -0.36 -0.01    +0.073 A  
DOCKED: ATOM     12  N   UNL     1     139.390  67.390 225.851 -0.92 +0.00    -0.085 NA 
DOCKED: ATOM     13  O   UNL     1     139.089  67.500 224.590 -0.68 -0.02    -0.361 OA 
DOCKED: BRANCH  10  14
DOCKED: ATOM     14  C   UNL     1     139.603  68.949 227.813 -0.53 -0.01    +0.060 C  
DOCKED: BRANCH  14  15
DOCKED: ATOM     15  C   UNL     1     140.908  69.740 227.954 -0.62 -0.00    +0.006 C  
DOCKED: BRANCH  15  16
DOCKED: ATOM     16  C   UNL     1     140.640  71.246 227.919 -0.77 +0.00    -0.003 C  
DOCKED: ATOM     17  C   UNL     1     141.071  71.851 226.585 -0.73 -0.00    +0.004 C  
DOCKED: ENDBRANCH  15  16
DOCKED: ENDBRANCH  14  15
DOCKED: ENDBRANCH  10  14
DOCKED: ENDBRANCH   7   9
DOCKED: ENDBRANCH   1   7
DOCKED: BRANCH   4  18
DOCKED: ATOM     18  C   UNL     1     139.817  74.803 221.944 -0.29 +0.00    -0.018 A  
DOCKED: ATOM     19  C   UNL     1     139.110  75.842 222.574 -0.27 -0.00    +0.009 A  
DOCKED: ATOM     20  C   UNL     1     140.851  75.127 221.048 -0.29 -0.00    +0.018 A  
DOCKED: ATOM     21  C   UNL     1     139.433  77.176 222.319 -0.34 -0.00    +0.001 A  
DOCKED: ATOM     22  C   UNL     1     141.177  76.468 220.789 -0.29 -0.00    +0.007 A  
DOCKED: ATOM     23  C   UNL     1     140.457  77.490 221.426 -0.29 -0.00    +0.009 A  
DOCKED: BRANCH  22  24
DOCKED: ATOM     24  C   UNL     1     142.227  76.808 219.761 -0.19 -0.17    +0.297 C  
DOCKED: BRANCH  24  25
DOCKED: ATOM     25  N   UNL     1     143.480  76.096 220.059 -0.15 +0.25    -0.342 N  
DOCKED: ATOM     26  H   UNL     1     143.402  75.688 221.020 -0.14 -0.31    +0.346 HD 
DOCKED: ATOM     27  H   UNL     1     144.278  76.770 220.061 -0.24 -0.32    +0.346 HD 
DOCKED: BRANCH  25  28
DOCKED: ATOM     28  C   UNL     1     143.731  74.988 219.114 -0.17 -0.12    +0.263 C  
DOCKED: BRANCH  28  29
DOCKED: ATOM     29  C   UNL     1     144.349  73.737 219.793 -0.38 -0.01    +0.038 C  
DOCKED: ATOM     30  C   UNL     1     143.251  72.915 220.480 -0.31 -0.00    +0.013 C  
DOCKED: ATOM     31  C   UNL     1     145.426  74.121 220.822 -0.57 -0.00    +0.013 C  
DOCKED: ENDBRANCH  28  29
DOCKED: ENDBRANCH  25  28
DOCKED: ENDBRANCH  24  25
DOCKED: ENDBRANCH  22  24
DOCKED: ENDBRANCH   4  18
DOCKED: TORSDOF 10
DOCKED: TER
DOCKED: ENDMDL
________________________________________________________________________________


    FINAL DOCKED STATE:
    ________________________


Run:   8 / 20
Time taken for this run:   0.076s

DOCKED: MODEL        8
DOCKED: USER    Run = 8
DOCKED: USER
DOCKED: USER    Estimated Free Energy of Binding    =  -8.96 kcal/mol  [=(1)+(2)+(3)-(4)]
DOCKED: USER
DOCKED: USER    (1) Final Intermolecular Energy     = -11.94 kcal/mol
DOCKED: USER        vdW + Hbond + desolv Energy     = -11.08 kcal/mol
DOCKED: USER        Electrostatic Energy            =  -0.86 kcal/mol
DOCKED: USER        Moving Ligand-Fixed Receptor    = -11.94 kcal/mol
DOCKED: USER        Moving Ligand-Moving Receptor   =  +0.00 kcal/mol
DOCKED: USER    (2) Final Total Internal Energy     =  -1.72 kcal/mol
DOCKED: USER    (3) Torsional Free Energy           =  +2.98 kcal/mol
DOCKED: USER    (4) Unbound System's Energy         =  -1.72 kcal/mol
DOCKED: USER
DOCKED: USER
DOCKED: REMARK SMILES CCCCc1cc([C@H](C)c2ccc(-c3cccc(C[NH2+]CC(C)C)c3)cc2)on1
DOCKED: REMARK SMILES IDX 10 1 11 2 12 3 13 4 26 5 27 6 8 7 9 8 7 9 5 10 6 11 29 12
DOCKED: REMARK SMILES IDX 28 13 4 14 3 15 2 16 1 17 14 18 15 19 25 20 16 21 18 22
DOCKED: REMARK SMILES IDX 17 23 19 24 20 25 21 28 22 29 23 30 24 31
DOCKED: REMARK H PARENT 20 26 20 27
DOCKED: USER                              x       y       z     vdW  Elec       q    Type
DOCKED: USER                           _______ _______ _______ _____ _____    ______ ____
DOCKED: ROOT
DOCKED: ATOM      1  C   UNL     1     138.846  70.743 222.671 -0.21 +0.01    -0.037 A  
DOCKED: ATOM      2  C   UNL     1     137.857  71.722 222.449 -0.17 -0.00    +0.005 A  
DOCKED: ATOM      3  C   UNL     1     138.217  73.046 222.189 -0.11 -0.00    +0.009 A  
DOCKED: ATOM      4  C   UNL     1     139.570  73.420 222.121 -0.25 +0.00    -0.018 A  
DOCKED: ATOM      5  C   UNL     1     140.556  72.443 222.329 -0.32 -0.00    +0.009 A  
DOCKED: ATOM      6  C   UNL     1     140.198  71.119 222.599 -0.26 -0.00    +0.005 A  
DOCKED: ENDROOT
DOCKED: BRANCH   1   7
DOCKED: ATOM      7  C   UNL     1     138.488  69.282 222.900 -0.19 -0.01    +0.085 C  
DOCKED: ATOM      8  C   UNL     1     138.985  68.355 221.783 -0.17 -0.00    +0.021 C  
DOCKED: BRANCH   7   9
DOCKED: ATOM      9  C   UNL     1     138.981  68.800 224.239 -0.26 -0.02    +0.144 A  
DOCKED: ATOM     10  C   UNL     1     139.768  68.639 226.251 -0.49 -0.01    +0.084 A  
DOCKED: ATOM     11  C   UNL     1     139.405  69.573 225.305 -0.37 -0.01    +0.073 A  
DOCKED: ATOM     12  N   UNL     1     139.584  67.396 225.764 -0.88 +0.01    -0.085 NA 
DOCKED: ATOM     13  O   UNL     1     139.114  67.530 224.559 -0.68 -0.01    -0.361 OA 
DOCKED: BRANCH  10  14
DOCKED: ATOM     14  C   UNL     1     140.303  68.935 227.619 -0.61 -0.01    +0.060 C  
DOCKED: BRANCH  14  15
DOCKED: ATOM     15  C   UNL     1     139.886  70.336 228.079 -0.61 -0.00    +0.006 C  
DOCKED: BRANCH  15  16
DOCKED: ATOM     16  C   UNL     1     141.061  71.312 227.993 -0.77 +0.00    -0.003 C  
DOCKED: ATOM     17  C   UNL     1     141.203  71.882 226.583 -0.72 -0.00    +0.004 C  
DOCKED: ENDBRANCH  15  16
DOCKED: ENDBRANCH  14  15
DOCKED: ENDBRANCH  10  14
DOCKED: ENDBRANCH   7   9
DOCKED: ENDBRANCH   1   7
DOCKED: BRANCH   4  18
DOCKED: ATOM     18  C   UNL     1     139.947  74.825 221.827 -0.29 +0.00    -0.018 A  
DOCKED: ATOM     19  C   UNL     1     139.349  75.888 222.526 -0.28 -0.00    +0.009 A  
DOCKED: ATOM     20  C   UNL     1     140.893  75.113 220.827 -0.26 -0.00    +0.018 A  
DOCKED: ATOM     21  C   UNL     1     139.695  77.210 222.238 -0.35 -0.00    +0.001 A  
DOCKED: ATOM     22  C   UNL     1     141.241  76.441 220.534 -0.27 -0.00    +0.007 A  
DOCKED: ATOM     23  C   UNL     1     140.631  77.488 221.242 -0.28 -0.00    +0.009 A  
DOCKED: BRANCH  22  24
DOCKED: ATOM     24  C   UNL     1     142.190  76.744 219.401 -0.18 -0.16    +0.297 C  
DOCKED: BRANCH  24  25
DOCKED: ATOM     25  N   UNL     1     143.574  76.444 219.803 -0.19 +0.26    -0.342 N  
DOCKED: ATOM     26  H   UNL     1     143.633  76.515 220.846 -0.11 -0.41    +0.346 HD 
DOCKED: ATOM     27  H   UNL     1     144.222  77.155 219.396 -0.33 -0.31    +0.346 HD 
DOCKED: BRANCH  25  28
DOCKED: ATOM     28  C   UNL     1     143.983  75.078 219.418 -0.11 -0.13    +0.263 C  
DOCKED: BRANCH  28  29
DOCKED: ATOM     29  C   UNL     1     144.228  74.149 220.637 -0.39 -0.01    +0.038 C  
DOCKED: ATOM     30  C   UNL     1     145.734  73.926 220.833 -0.63 -0.00    +0.013 C  
DOCKED: ATOM     31  C   UNL     1     143.523  72.793 220.472 -0.33 -0.00    +0.013 C  
DOCKED: ENDBRANCH  28  29
DOCKED: ENDBRANCH  25  28
DOCKED: ENDBRANCH  24  25
DOCKED: ENDBRANCH  22  24
DOCKED: ENDBRANCH   4  18
DOCKED: TORSDOF 10
DOCKED: TER
DOCKED: ENDMDL
________________________________________________________________________________


    FINAL DOCKED STATE:
    ________________________


Run:   9 / 20
Time taken for this run:   0.076s

DOCKED: MODEL        9
DOCKED: USER    Run = 9
DOCKED: USER
DOCKED: USER    Estimated Free Energy of Binding    =  -9.36 kcal/mol  [=(1)+(2)+(3)-(4)]
DOCKED: USER
DOCKED: USER    (1) Final Intermolecular Energy     = -12.35 kcal/mol
DOCKED: USER        vdW + Hbond + desolv Energy     = -11.54 kcal/mol
DOCKED: USER        Electrostatic Energy            =  -0.81 kcal/mol
DOCKED: USER        Moving Ligand-Fixed Receptor    = -12.35 kcal/mol
DOCKED: USER        Moving Ligand-Moving Receptor   =  +0.00 kcal/mol
DOCKED: USER    (2) Final Total Internal Energy     =  -1.26 kcal/mol
DOCKED: USER    (3) Torsional Free Energy           =  +2.98 kcal/mol
DOCKED: USER    (4) Unbound System's Energy         =  -1.26 kcal/mol
DOCKED: USER
DOCKED: USER
DOCKED: REMARK SMILES CCCCc1cc([C@H](C)c2ccc(-c3cccc(C[NH2+]CC(C)C)c3)cc2)on1
DOCKED: REMARK SMILES IDX 10 1 11 2 12 3 13 4 26 5 27 6 8 7 9 8 7 9 5 10 6 11 29 12
DOCKED: REMARK SMILES IDX 28 13 4 14 3 15 2 16 1 17 14 18 15 19 25 20 16 21 18 22
DOCKED: REMARK SMILES IDX 17 23 19 24 20 25 21 28 22 29 23 30 24 31
DOCKED: REMARK H PARENT 20 26 20 27
DOCKED: USER                              x       y       z     vdW  Elec       q    Type
DOCKED: USER                           _______ _______ _______ _____ _____    ______ ____
DOCKED: ROOT
DOCKED: ATOM      1  C   UNL     1     138.672  71.070 223.025 -0.24 +0.01    -0.037 A  
DOCKED: ATOM      2  C   UNL     1     138.166  72.251 222.449 -0.17 -0.00    +0.005 A  
DOCKED: ATOM      3  C   UNL     1     139.028  73.180 221.863 -0.22 -0.00    +0.009 A  
DOCKED: ATOM      4  C   UNL     1     140.413  72.942 221.817 -0.29 +0.00    -0.018 A  
DOCKED: ATOM      5  C   UNL     1     140.917  71.759 222.379 -0.25 -0.00    +0.009 A  
DOCKED: ATOM      6  C   UNL     1     140.056  70.832 222.974 -0.25 -0.00    +0.005 A  
DOCKED: ENDROOT
DOCKED: BRANCH   1   7
DOCKED: ATOM      7  C   UNL     1     137.754  70.012 223.620 -0.22 -0.01    +0.085 C  
DOCKED: ATOM      8  C   UNL     1     137.047  69.160 222.559 -0.14 -0.00    +0.021 C  
DOCKED: BRANCH   7   9
DOCKED: ATOM      9  C   UNL     1     138.490  69.132 224.594 -0.28 -0.02    +0.144 A  
DOCKED: ATOM     10  C   UNL     1     139.567  68.323 226.292 -0.52 -0.01    +0.084 A  
DOCKED: ATOM     11  C   UNL     1     138.954  69.476 225.851 -0.37 -0.01    +0.073 A  
DOCKED: ATOM     12  N   UNL     1     139.482  67.367 225.346 -0.95 +0.00    -0.085 NA 
DOCKED: ATOM     13  O   UNL     1     138.833  67.886 224.345 -0.53 +0.00    -0.361 OA 
DOCKED: BRANCH  10  14
DOCKED: ATOM     14  C   UNL     1     140.246  68.138 227.615 -0.61 -0.01    +0.060 C  
DOCKED: BRANCH  14  15
DOCKED: ATOM     15  C   UNL     1     140.125  69.401 228.474 -0.55 -0.00    +0.006 C  
DOCKED: BRANCH  15  16
DOCKED: ATOM     16  C   UNL     1     141.061  70.500 227.965 -0.64 +0.00    -0.003 C  
DOCKED: ATOM     17  C   UNL     1     140.370  71.861 227.974 -0.75 -0.00    +0.004 C  
DOCKED: ENDBRANCH  15  16
DOCKED: ENDBRANCH  14  15
DOCKED: ENDBRANCH  10  14
DOCKED: ENDBRANCH   7   9
DOCKED: ENDBRANCH   1   7
DOCKED: BRANCH   4  18
DOCKED: ATOM     18  C   UNL     1     141.323  73.924 221.177 -0.28 +0.00    -0.018 A  
DOCKED: ATOM     19  C   UNL     1     142.600  73.535 220.736 -0.28 -0.00    +0.009 A  
DOCKED: ATOM     20  C   UNL     1     140.927  75.265 221.023 -0.29 -0.00    +0.018 A  
DOCKED: ATOM     21  C   UNL     1     143.460  74.464 220.147 -0.38 -0.00    +0.001 A  
DOCKED: ATOM     22  C   UNL     1     141.791  76.201 220.432 -0.29 -0.00    +0.007 A  
DOCKED: ATOM     23  C   UNL     1     143.062  75.792 220.001 -0.33 -0.01    +0.009 A  
DOCKED: BRANCH  22  24
DOCKED: ATOM     24  C   UNL     1     141.393  77.654 220.351 -0.16 -0.15    +0.297 C  
DOCKED: BRANCH  24  25
DOCKED: ATOM     25  N   UNL     1     142.209  78.456 221.277 -0.08 +0.25    -0.342 N  
DOCKED: ATOM     26  H   UNL     1     142.484  79.340 220.788 -0.15 -0.26    +0.346 HD 
DOCKED: ATOM     27  H   UNL     1     143.083  77.937 221.519 -0.36 -0.46    +0.346 HD 
DOCKED: BRANCH  25  28
DOCKED: ATOM     28  C   UNL     1     141.464  78.827 222.498 -0.33 -0.11    +0.263 C  
DOCKED: BRANCH  28  29
DOCKED: ATOM     29  C   UNL     1     141.598  80.330 222.860 -0.53 -0.01    +0.038 C  
DOCKED: ATOM     30  C   UNL     1     142.765  80.534 223.835 -0.68 -0.00    +0.013 C  
DOCKED: ATOM     31  C   UNL     1     140.305  80.885 223.480 -0.43 -0.00    +0.013 C  
DOCKED: ENDBRANCH  28  29
DOCKED: ENDBRANCH  25  28
DOCKED: ENDBRANCH  24  25
DOCKED: ENDBRANCH  22  24
DOCKED: ENDBRANCH   4  18
DOCKED: TORSDOF 10
DOCKED: TER
DOCKED: ENDMDL
________________________________________________________________________________


    FINAL DOCKED STATE:
    ________________________


Run:   10 / 20
Time taken for this run:   0.076s

DOCKED: MODEL        10
DOCKED: USER    Run = 10
DOCKED: USER
DOCKED: USER    Estimated Free Energy of Binding    =  -9.44 kcal/mol  [=(1)+(2)+(3)-(4)]
DOCKED: USER
DOCKED: USER    (1) Final Intermolecular Energy     = -12.43 kcal/mol
DOCKED: USER        vdW + Hbond + desolv Energy     = -11.52 kcal/mol
DOCKED: USER        Electrostatic Energy            =  -0.90 kcal/mol
DOCKED: USER        Moving Ligand-Fixed Receptor    = -12.43 kcal/mol
DOCKED: USER        Moving Ligand-Moving Receptor   =  +0.00 kcal/mol
DOCKED: USER    (2) Final Total Internal Energy     =  -1.29 kcal/mol
DOCKED: USER    (3) Torsional Free Energy           =  +2.98 kcal/mol
DOCKED: USER    (4) Unbound System's Energy         =  -1.29 kcal/mol
DOCKED: USER
DOCKED: USER
DOCKED: REMARK SMILES CCCCc1cc([C@H](C)c2ccc(-c3cccc(C[NH2+]CC(C)C)c3)cc2)on1
DOCKED: REMARK SMILES IDX 10 1 11 2 12 3 13 4 26 5 27 6 8 7 9 8 7 9 5 10 6 11 29 12
DOCKED: REMARK SMILES IDX 28 13 4 14 3 15 2 16 1 17 14 18 15 19 25 20 16 21 18 22
DOCKED: REMARK SMILES IDX 17 23 19 24 20 25 21 28 22 29 23 30 24 31
DOCKED: REMARK H PARENT 20 26 20 27
DOCKED: USER                              x       y       z     vdW  Elec       q    Type
DOCKED: USER                           _______ _______ _______ _____ _____    ______ ____
DOCKED: ROOT
DOCKED: ATOM      1  C   UNL     1     139.055  70.252 222.613 -0.19 +0.01    -0.037 A  
DOCKED: ATOM      2  C   UNL     1     139.685  70.015 221.375 -0.14 -0.00    +0.005 A  
DOCKED: ATOM      3  C   UNL     1     140.568  70.955 220.838 -0.14 -0.00    +0.009 A  
DOCKED: ATOM      4  C   UNL     1     140.860  72.141 221.533 -0.25 +0.00    -0.018 A  
DOCKED: ATOM      5  C   UNL     1     140.243  72.372 222.773 -0.33 -0.00    +0.009 A  
DOCKED: ATOM      6  C   UNL     1     139.352  71.436 223.307 -0.33 -0.00    +0.005 A  
DOCKED: ENDROOT
DOCKED: BRANCH   1   7
DOCKED: ATOM      7  C   UNL     1     138.133  69.223 223.251 -0.22 -0.01    +0.085 C  
DOCKED: ATOM      8  C   UNL     1     137.728  68.097 222.291 -0.19 -0.00    +0.021 C  
DOCKED: BRANCH   7   9
DOCKED: ATOM      9  C   UNL     1     138.735  68.650 224.506 -0.29 -0.01    +0.144 A  
DOCKED: ATOM     10  C   UNL     1     139.534  68.335 226.495 -0.53 -0.01    +0.084 A  
DOCKED: ATOM     11  C   UNL     1     138.935  69.298 225.711 -0.38 -0.01    +0.073 A  
DOCKED: ATOM     12  N   UNL     1     139.689  67.198 225.788 -0.77 +0.01    -0.085 NA 
DOCKED: ATOM     13  O   UNL     1     139.202  67.423 224.603 -0.74 -0.01    -0.361 OA 
DOCKED: BRANCH  10  14
DOCKED: ATOM     14  C   UNL     1     139.968  68.504 227.919 -0.59 -0.01    +0.060 C  
DOCKED: BRANCH  14  15
DOCKED: ATOM     15  C   UNL     1     139.988  69.985 228.313 -0.60 -0.00    +0.006 C  
DOCKED: BRANCH  15  16
DOCKED: ATOM     16  C   UNL     1     141.081  70.739 227.551 -0.66 +0.00    -0.003 C  
DOCKED: ATOM     17  C   UNL     1     140.837  72.246 227.586 -0.76 -0.00    +0.004 C  
DOCKED: ENDBRANCH  15  16
DOCKED: ENDBRANCH  14  15
DOCKED: ENDBRANCH  10  14
DOCKED: ENDBRANCH   7   9
DOCKED: ENDBRANCH   1   7
DOCKED: BRANCH   4  18
DOCKED: ATOM     18  C   UNL     1     141.813  73.129 220.966 -0.26 +0.00    -0.018 A  
DOCKED: ATOM     19  C   UNL     1     143.178  72.816 220.841 -0.29 -0.00    +0.009 A  
DOCKED: ATOM     20  C   UNL     1     141.364  74.400 220.566 -0.24 -0.00    +0.018 A  
DOCKED: ATOM     21  C   UNL     1     144.074  73.751 220.321 -0.42 -0.00    +0.001 A  
DOCKED: ATOM     22  C   UNL     1     142.265  75.342 220.044 -0.29 -0.00    +0.007 A  
DOCKED: ATOM     23  C   UNL     1     143.623  75.011 219.930 -0.40 -0.00    +0.009 A  
DOCKED: BRANCH  22  24
DOCKED: ATOM     24  C   UNL     1     141.792  76.733 219.700 -0.15 -0.15    +0.297 C  
DOCKED: BRANCH  24  25
DOCKED: ATOM     25  N   UNL     1     142.179  77.678 220.760 -0.08 +0.25    -0.342 N  
DOCKED: ATOM     26  H   UNL     1     142.945  78.288 220.388 -0.26 -0.39    +0.346 HD 
DOCKED: ATOM     27  H   UNL     1     142.556  77.153 221.581 -0.35 -0.42    +0.346 HD 
DOCKED: BRANCH  25  28
DOCKED: ATOM     28  C   UNL     1     141.058  78.552 221.164 -0.19 -0.11    +0.263 C  
DOCKED: BRANCH  28  29
DOCKED: ATOM     29  C   UNL     1     141.110  78.955 222.662 -0.47 -0.01    +0.038 C  
DOCKED: ATOM     30  C   UNL     1     140.051  80.025 222.956 -0.40 -0.00    +0.013 C  
DOCKED: ATOM     31  C   UNL     1     142.499  79.479 223.063 -0.61 -0.01    +0.013 C  
DOCKED: ENDBRANCH  28  29
DOCKED: ENDBRANCH  25  28
DOCKED: ENDBRANCH  24  25
DOCKED: ENDBRANCH  22  24
DOCKED: ENDBRANCH   4  18
DOCKED: TORSDOF 10
DOCKED: TER
DOCKED: ENDMDL
________________________________________________________________________________


    FINAL DOCKED STATE:
    ________________________


Run:   11 / 20
Time taken for this run:   0.076s

DOCKED: MODEL        11
DOCKED: USER    Run = 11
DOCKED: USER
DOCKED: USER    Estimated Free Energy of Binding    =  -8.87 kcal/mol  [=(1)+(2)+(3)-(4)]
DOCKED: USER
DOCKED: USER    (1) Final Intermolecular Energy     = -11.86 kcal/mol
DOCKED: USER        vdW + Hbond + desolv Energy     = -11.02 kcal/mol
DOCKED: USER        Electrostatic Energy            =  -0.84 kcal/mol
DOCKED: USER        Moving Ligand-Fixed Receptor    = -11.86 kcal/mol
DOCKED: USER        Moving Ligand-Moving Receptor   =  +0.00 kcal/mol
DOCKED: USER    (2) Final Total Internal Energy     =  -1.76 kcal/mol
DOCKED: USER    (3) Torsional Free Energy           =  +2.98 kcal/mol
DOCKED: USER    (4) Unbound System's Energy         =  -1.76 kcal/mol
DOCKED: USER
DOCKED: USER
DOCKED: REMARK SMILES CCCCc1cc([C@H](C)c2ccc(-c3cccc(C[NH2+]CC(C)C)c3)cc2)on1
DOCKED: REMARK SMILES IDX 10 1 11 2 12 3 13 4 26 5 27 6 8 7 9 8 7 9 5 10 6 11 29 12
DOCKED: REMARK SMILES IDX 28 13 4 14 3 15 2 16 1 17 14 18 15 19 25 20 16 21 18 22
DOCKED: REMARK SMILES IDX 17 23 19 24 20 25 21 28 22 29 23 30 24 31
DOCKED: REMARK H PARENT 20 26 20 27
DOCKED: USER                              x       y       z     vdW  Elec       q    Type
DOCKED: USER                           _______ _______ _______ _____ _____    ______ ____
DOCKED: ROOT
DOCKED: ATOM      1  C   UNL     1     138.886  70.502 222.628 -0.20 +0.01    -0.037 A  
DOCKED: ATOM      2  C   UNL     1     140.183  70.968 222.921 -0.25 -0.00    +0.005 A  
DOCKED: ATOM      3  C   UNL     1     140.535  72.295 222.663 -0.33 -0.00    +0.009 A  
DOCKED: ATOM      4  C   UNL     1     139.596  73.194 222.128 -0.26 +0.00    -0.018 A  
DOCKED: ATOM      5  C   UNL     1     138.299  72.734 221.849 -0.17 -0.00    +0.009 A  
DOCKED: ATOM      6  C   UNL     1     137.948  71.404 222.098 -0.14 -0.00    +0.005 A  
DOCKED: ENDROOT
DOCKED: BRANCH   1   7
DOCKED: ATOM      7  C   UNL     1     138.456  69.079 222.949 -0.20 -0.01    +0.085 C  
DOCKED: ATOM      8  C   UNL     1     138.978  68.047 221.941 -0.18 -0.00    +0.021 C  
DOCKED: BRANCH   7   9
DOCKED: ATOM      9  C   UNL     1     138.850  68.689 224.349 -0.28 -0.02    +0.144 A  
DOCKED: ATOM     10  C   UNL     1     139.372  68.665 226.452 -0.47 -0.01    +0.084 A  
DOCKED: ATOM     11  C   UNL     1     138.959  69.518 225.451 -0.36 -0.01    +0.073 A  
DOCKED: ATOM     12  N   UNL     1     139.512  67.417 225.963 -0.83 +0.01    -0.085 NA 
DOCKED: ATOM     13  O   UNL     1     139.193  67.469 224.703 -0.75 -0.01    -0.361 OA 
DOCKED: BRANCH  10  14
DOCKED: ATOM     14  C   UNL     1     139.645  69.046 227.875 -0.55 -0.01    +0.060 C  
DOCKED: BRANCH  14  15
DOCKED: ATOM     15  C   UNL     1     140.969  69.809 227.993 -0.61 -0.00    +0.006 C  
DOCKED: BRANCH  15  16
DOCKED: ATOM     16  C   UNL     1     140.735  71.320 227.944 -0.79 +0.00    -0.003 C  
DOCKED: ATOM     17  C   UNL     1     141.115  71.892 226.579 -0.72 -0.00    +0.004 C  
DOCKED: ENDBRANCH  15  16
DOCKED: ENDBRANCH  14  15
DOCKED: ENDBRANCH  10  14
DOCKED: ENDBRANCH   7   9
DOCKED: ENDBRANCH   1   7
DOCKED: BRANCH   4  18
DOCKED: ATOM     18  C   UNL     1     139.969  74.607 221.873 -0.27 +0.00    -0.018 A  
DOCKED: ATOM     19  C   UNL     1     139.408  75.645 222.637 -0.17 -0.00    +0.009 A  
DOCKED: ATOM     20  C   UNL     1     140.876  74.928 220.847 -0.26 -0.00    +0.018 A  
DOCKED: ATOM     21  C   UNL     1     139.751  76.975 222.386 -0.36 -0.00    +0.001 A  
DOCKED: ATOM     22  C   UNL     1     141.221  76.265 220.592 -0.27 -0.00    +0.007 A  
DOCKED: ATOM     23  C   UNL     1     140.647  77.286 221.364 -0.31 -0.00    +0.009 A  
DOCKED: BRANCH  22  24
DOCKED: ATOM     24  C   UNL     1     142.124  76.607 219.434 -0.17 -0.16    +0.297 C  
DOCKED: BRANCH  24  25
DOCKED: ATOM     25  N   UNL     1     143.532  76.385 219.804 -0.20 +0.25    -0.342 N  
DOCKED: ATOM     26  H   UNL     1     143.609  76.456 220.846 -0.11 -0.40    +0.346 HD 
DOCKED: ATOM     27  H   UNL     1     144.129  77.133 219.386 -0.32 -0.31    +0.346 HD 
DOCKED: BRANCH  25  28
DOCKED: ATOM     28  C   UNL     1     144.009  75.046 219.403 -0.11 -0.13    +0.263 C  
DOCKED: BRANCH  28  29
DOCKED: ATOM     29  C   UNL     1     144.238  74.095 220.608 -0.40 -0.01    +0.038 C  
DOCKED: ATOM     30  C   UNL     1     145.734  73.791 220.760 -0.65 -0.00    +0.013 C  
DOCKED: ATOM     31  C   UNL     1     143.457  72.780 220.452 -0.32 -0.00    +0.013 C  
DOCKED: ENDBRANCH  28  29
DOCKED: ENDBRANCH  25  28
DOCKED: ENDBRANCH  24  25
DOCKED: ENDBRANCH  22  24
DOCKED: ENDBRANCH   4  18
DOCKED: TORSDOF 10
DOCKED: TER
DOCKED: ENDMDL
________________________________________________________________________________


    FINAL DOCKED STATE:
    ________________________


Run:   12 / 20
Time taken for this run:   0.076s

DOCKED: MODEL        12
DOCKED: USER    Run = 12
DOCKED: USER
DOCKED: USER    Estimated Free Energy of Binding    =  -8.80 kcal/mol  [=(1)+(2)+(3)-(4)]
DOCKED: USER
DOCKED: USER    (1) Final Intermolecular Energy     = -11.79 kcal/mol
DOCKED: USER        vdW + Hbond + desolv Energy     = -10.96 kcal/mol
DOCKED: USER        Electrostatic Energy            =  -0.83 kcal/mol
DOCKED: USER        Moving Ligand-Fixed Receptor    = -11.79 kcal/mol
DOCKED: USER        Moving Ligand-Moving Receptor   =  +0.00 kcal/mol
DOCKED: USER    (2) Final Total Internal Energy     =  -1.81 kcal/mol
DOCKED: USER    (3) Torsional Free Energy           =  +2.98 kcal/mol
DOCKED: USER    (4) Unbound System's Energy         =  -1.81 kcal/mol
DOCKED: USER
DOCKED: USER
DOCKED: REMARK SMILES CCCCc1cc([C@H](C)c2ccc(-c3cccc(C[NH2+]CC(C)C)c3)cc2)on1
DOCKED: REMARK SMILES IDX 10 1 11 2 12 3 13 4 26 5 27 6 8 7 9 8 7 9 5 10 6 11 29 12
DOCKED: REMARK SMILES IDX 28 13 4 14 3 15 2 16 1 17 14 18 15 19 25 20 16 21 18 22
DOCKED: REMARK SMILES IDX 17 23 19 24 20 25 21 28 22 29 23 30 24 31
DOCKED: REMARK H PARENT 20 26 20 27
DOCKED: USER                              x       y       z     vdW  Elec       q    Type
DOCKED: USER                           _______ _______ _______ _____ _____    ______ ____
DOCKED: ROOT
DOCKED: ATOM      1  C   UNL     1     138.803  70.518 222.604 -0.19 +0.01    -0.037 A  
DOCKED: ATOM      2  C   UNL     1     140.159  70.900 222.567 -0.20 -0.00    +0.005 A  
DOCKED: ATOM      3  C   UNL     1     140.516  72.224 222.303 -0.32 -0.00    +0.009 A  
DOCKED: ATOM      4  C   UNL     1     139.529  73.203 222.092 -0.25 +0.00    -0.018 A  
DOCKED: ATOM      5  C   UNL     1     138.178  72.826 222.141 -0.15 -0.00    +0.009 A  
DOCKED: ATOM      6  C   UNL     1     137.819  71.499 222.396 -0.16 -0.00    +0.005 A  
DOCKED: ENDROOT
DOCKED: BRANCH   1   7
DOCKED: ATOM      7  C   UNL     1     138.381  69.097 222.944 -0.20 -0.01    +0.085 C  
DOCKED: ATOM      8  C   UNL     1     138.880  68.059 221.931 -0.19 -0.00    +0.021 C  
DOCKED: BRANCH   7   9
DOCKED: ATOM      9  C   UNL     1     138.809  68.716 224.337 -0.28 -0.02    +0.144 A  
DOCKED: ATOM     10  C   UNL     1     139.365  68.704 226.431 -0.47 -0.01    +0.084 A  
DOCKED: ATOM     11  C   UNL     1     138.911  69.546 225.439 -0.36 -0.01    +0.073 A  
DOCKED: ATOM     12  N   UNL     1     139.534  67.461 225.937 -0.81 +0.01    -0.085 NA 
DOCKED: ATOM     13  O   UNL     1     139.194  67.506 224.682 -0.74 -0.00    -0.361 OA 
DOCKED: BRANCH  10  14
DOCKED: ATOM     14  C   UNL     1     139.649  69.089 227.851 -0.55 -0.01    +0.060 C  
DOCKED: BRANCH  14  15
DOCKED: ATOM     15  C   UNL     1     140.981  69.839 227.958 -0.61 -0.00    +0.006 C  
DOCKED: BRANCH  15  16
DOCKED: ATOM     16  C   UNL     1     140.765  71.352 227.879 -0.79 +0.00    -0.003 C  
DOCKED: ATOM     17  C   UNL     1     141.108  71.886 226.490 -0.71 -0.00    +0.004 C  
DOCKED: ENDBRANCH  15  16
DOCKED: ENDBRANCH  14  15
DOCKED: ENDBRANCH  10  14
DOCKED: ENDBRANCH   7   9
DOCKED: ENDBRANCH   1   7
DOCKED: BRANCH   4  18
DOCKED: ATOM     18  C   UNL     1     139.913  74.612 221.829 -0.28 +0.00    -0.018 A  
DOCKED: ATOM     19  C   UNL     1     139.346  75.659 222.576 -0.22 -0.00    +0.009 A  
DOCKED: ATOM     20  C   UNL     1     140.835  74.920 220.813 -0.25 -0.00    +0.018 A  
DOCKED: ATOM     21  C   UNL     1     139.699  76.986 222.318 -0.36 -0.00    +0.001 A  
DOCKED: ATOM     22  C   UNL     1     141.190  76.253 220.551 -0.26 -0.00    +0.007 A  
DOCKED: ATOM     23  C   UNL     1     140.610  77.284 221.306 -0.29 -0.00    +0.009 A  
DOCKED: BRANCH  22  24
DOCKED: ATOM     24  C   UNL     1     142.112  76.580 219.402 -0.17 -0.16    +0.297 C  
DOCKED: BRANCH  24  25
DOCKED: ATOM     25  N   UNL     1     143.513  76.370 219.799 -0.20 +0.25    -0.342 N  
DOCKED: ATOM     26  H   UNL     1     143.569  76.435 220.843 -0.12 -0.40    +0.346 HD 
DOCKED: ATOM     27  H   UNL     1     144.112  77.127 219.398 -0.31 -0.31    +0.346 HD 
DOCKED: BRANCH  25  28
DOCKED: ATOM     28  C   UNL     1     144.012  75.038 219.400 -0.11 -0.13    +0.263 C  
DOCKED: BRANCH  28  29
DOCKED: ATOM     29  C   UNL     1     144.261  74.094 220.606 -0.41 -0.01    +0.038 C  
DOCKED: ATOM     30  C   UNL     1     145.763  73.812 220.751 -0.65 -0.00    +0.013 C  
DOCKED: ATOM     31  C   UNL     1     143.499  72.767 220.458 -0.33 -0.00    +0.013 C  
DOCKED: ENDBRANCH  28  29
DOCKED: ENDBRANCH  25  28
DOCKED: ENDBRANCH  24  25
DOCKED: ENDBRANCH  22  24
DOCKED: ENDBRANCH   4  18
DOCKED: TORSDOF 10
DOCKED: TER
DOCKED: ENDMDL
________________________________________________________________________________


    FINAL DOCKED STATE:
    ________________________


Run:   13 / 20
Time taken for this run:   0.076s

DOCKED: MODEL        13
DOCKED: USER    Run = 13
DOCKED: USER
DOCKED: USER    Estimated Free Energy of Binding    =  -9.61 kcal/mol  [=(1)+(2)+(3)-(4)]
DOCKED: USER
DOCKED: USER    (1) Final Intermolecular Energy     = -12.59 kcal/mol
DOCKED: USER        vdW + Hbond + desolv Energy     = -11.76 kcal/mol
DOCKED: USER        Electrostatic Energy            =  -0.84 kcal/mol
DOCKED: USER        Moving Ligand-Fixed Receptor    = -12.59 kcal/mol
DOCKED: USER        Moving Ligand-Moving Receptor   =  +0.00 kcal/mol
DOCKED: USER    (2) Final Total Internal Energy     =  -1.28 kcal/mol
DOCKED: USER    (3) Torsional Free Energy           =  +2.98 kcal/mol
DOCKED: USER    (4) Unbound System's Energy         =  -1.28 kcal/mol
DOCKED: USER
DOCKED: USER
DOCKED: REMARK SMILES CCCCc1cc([C@H](C)c2ccc(-c3cccc(C[NH2+]CC(C)C)c3)cc2)on1
DOCKED: REMARK SMILES IDX 10 1 11 2 12 3 13 4 26 5 27 6 8 7 9 8 7 9 5 10 6 11 29 12
DOCKED: REMARK SMILES IDX 28 13 4 14 3 15 2 16 1 17 14 18 15 19 25 20 16 21 18 22
DOCKED: REMARK SMILES IDX 17 23 19 24 20 25 21 28 22 29 23 30 24 31
DOCKED: REMARK H PARENT 20 26 20 27
DOCKED: USER                              x       y       z     vdW  Elec       q    Type
DOCKED: USER                           _______ _______ _______ _____ _____    ______ ____
DOCKED: ROOT
DOCKED: ATOM      1  C   UNL     1     138.696  70.650 222.942 -0.22 +0.01    -0.037 A  
DOCKED: ATOM      2  C   UNL     1     139.969  70.961 223.457 -0.35 -0.00    +0.005 A  
DOCKED: ATOM      3  C   UNL     1     140.738  71.975 222.882 -0.30 -0.00    +0.009 A  
DOCKED: ATOM      4  C   UNL     1     140.246  72.717 221.794 -0.28 +0.00    -0.018 A  
DOCKED: ATOM      5  C   UNL     1     138.972  72.416 221.288 -0.14 -0.00    +0.009 A  
DOCKED: ATOM      6  C   UNL     1     138.204  71.395 221.857 -0.13 -0.00    +0.005 A  
DOCKED: ENDROOT
DOCKED: BRANCH   1   7
DOCKED: ATOM      7  C   UNL     1     137.811  69.590 223.581 -0.22 -0.01    +0.085 C  
DOCKED: ATOM      8  C   UNL     1     137.293  68.550 222.580 -0.17 -0.00    +0.021 C  
DOCKED: BRANCH   7   9
DOCKED: ATOM      9  C   UNL     1     138.510  68.910 224.728 -0.29 -0.01    +0.144 A  
DOCKED: ATOM     10  C   UNL     1     139.476  68.425 226.606 -0.50 -0.01    +0.084 A  
DOCKED: ATOM     11  C   UNL     1     138.830  69.455 225.958 -0.35 -0.01    +0.073 A  
DOCKED: ATOM     12  N   UNL     1     139.545  67.347 225.800 -0.87 +0.00    -0.085 NA 
DOCKED: ATOM     13  O   UNL     1     138.959  67.673 224.685 -0.65 -0.02    -0.361 OA 
DOCKED: BRANCH  10  14
DOCKED: ATOM     14  C   UNL     1     140.039  68.473 227.993 -0.59 -0.01    +0.060 C  
DOCKED: BRANCH  14  15
DOCKED: ATOM     15  C   UNL     1     141.097  69.575 228.117 -0.57 -0.00    +0.006 C  
DOCKED: BRANCH  15  16
DOCKED: ATOM     16  C   UNL     1     140.446  70.959 228.133 -0.68 +0.00    -0.003 C  
DOCKED: ATOM     17  C   UNL     1     141.078  71.877 227.088 -0.80 -0.00    +0.004 C  
DOCKED: ENDBRANCH  15  16
DOCKED: ENDBRANCH  14  15
DOCKED: ENDBRANCH  10  14
DOCKED: ENDBRANCH   7   9
DOCKED: ENDBRANCH   1   7
DOCKED: BRANCH   4  18
DOCKED: ATOM     18  C   UNL     1     141.060  73.805 221.198 -0.28 +0.00    -0.018 A  
DOCKED: ATOM     19  C   UNL     1     142.269  73.517 220.540 -0.26 -0.00    +0.009 A  
DOCKED: ATOM     20  C   UNL     1     140.643  75.144 221.302 -0.31 -0.00    +0.018 A  
DOCKED: ATOM     21  C   UNL     1     143.040  74.544 219.992 -0.33 -0.00    +0.001 A  
DOCKED: ATOM     22  C   UNL     1     141.417  76.178 220.753 -0.29 -0.00    +0.007 A  
DOCKED: ATOM     23  C   UNL     1     142.622  75.869 220.103 -0.32 -0.01    +0.009 A  
DOCKED: BRANCH  22  24
DOCKED: ATOM     24  C   UNL     1     141.007  77.617 220.946 -0.17 -0.13    +0.297 C  
DOCKED: BRANCH  24  25
DOCKED: ATOM     25  N   UNL     1     142.193  78.456 221.181 -0.09 +0.25    -0.342 N  
DOCKED: ATOM     26  H   UNL     1     142.641  78.654 220.256 -0.19 -0.33    +0.346 HD 
DOCKED: ATOM     27  H   UNL     1     142.884  77.935 221.767 -0.34 -0.42    +0.346 HD 
DOCKED: BRANCH  25  28
DOCKED: ATOM     28  C   UNL     1     141.847  79.751 221.803 -0.30 -0.11    +0.263 C  
DOCKED: BRANCH  28  29
DOCKED: ATOM     29  C   UNL     1     142.412  79.906 223.239 -0.62 -0.01    +0.038 C  
DOCKED: ATOM     30  C   UNL     1     141.785  78.858 224.168 -0.51 -0.00    +0.013 C  
DOCKED: ATOM     31  C   UNL     1     142.157  81.314 223.803 -0.62 -0.00    +0.013 C  
DOCKED: ENDBRANCH  28  29
DOCKED: ENDBRANCH  25  28
DOCKED: ENDBRANCH  24  25
DOCKED: ENDBRANCH  22  24
DOCKED: ENDBRANCH   4  18
DOCKED: TORSDOF 10
DOCKED: TER
DOCKED: ENDMDL
________________________________________________________________________________


    FINAL DOCKED STATE:
    ________________________


Run:   14 / 20
Time taken for this run:   0.076s

DOCKED: MODEL        14
DOCKED: USER    Run = 14
DOCKED: USER
DOCKED: USER    Estimated Free Energy of Binding    =  -9.42 kcal/mol  [=(1)+(2)+(3)-(4)]
DOCKED: USER
DOCKED: USER    (1) Final Intermolecular Energy     = -12.41 kcal/mol
DOCKED: USER        vdW + Hbond + desolv Energy     = -11.55 kcal/mol
DOCKED: USER        Electrostatic Energy            =  -0.85 kcal/mol
DOCKED: USER        Moving Ligand-Fixed Receptor    = -12.41 kcal/mol
DOCKED: USER        Moving Ligand-Moving Receptor   =  +0.00 kcal/mol
DOCKED: USER    (2) Final Total Internal Energy     =  -1.29 kcal/mol
DOCKED: USER    (3) Torsional Free Energy           =  +2.98 kcal/mol
DOCKED: USER    (4) Unbound System's Energy         =  -1.29 kcal/mol
DOCKED: USER
DOCKED: USER
DOCKED: REMARK SMILES CCCCc1cc([C@H](C)c2ccc(-c3cccc(C[NH2+]CC(C)C)c3)cc2)on1
DOCKED: REMARK SMILES IDX 10 1 11 2 12 3 13 4 26 5 27 6 8 7 9 8 7 9 5 10 6 11 29 12
DOCKED: REMARK SMILES IDX 28 13 4 14 3 15 2 16 1 17 14 18 15 19 25 20 16 21 18 22
DOCKED: REMARK SMILES IDX 17 23 19 24 20 25 21 28 22 29 23 30 24 31
DOCKED: REMARK H PARENT 20 26 20 27
DOCKED: USER                              x       y       z     vdW  Elec       q    Type
DOCKED: USER                           _______ _______ _______ _____ _____    ______ ____
DOCKED: ROOT
DOCKED: ATOM      1  C   UNL     1     138.638  70.564 222.974 -0.22 +0.01    -0.037 A  
DOCKED: ATOM      2  C   UNL     1     139.991  70.739 223.326 -0.30 -0.00    +0.005 A  
DOCKED: ATOM      3  C   UNL     1     140.744  71.767 222.755 -0.30 -0.00    +0.009 A  
DOCKED: ATOM      4  C   UNL     1     140.161  72.658 221.838 -0.28 +0.00    -0.018 A  
DOCKED: ATOM      5  C   UNL     1     138.809  72.493 221.497 -0.16 -0.00    +0.009 A  
DOCKED: ATOM      6  C   UNL     1     138.056  71.459 222.061 -0.14 -0.00    +0.005 A  
DOCKED: ENDROOT
DOCKED: BRANCH   1   7
DOCKED: ATOM      7  C   UNL     1     137.776  69.490 223.621 -0.22 -0.01    +0.085 C  
DOCKED: ATOM      8  C   UNL     1     137.340  68.393 222.640 -0.17 -0.00    +0.021 C  
DOCKED: BRANCH   7   9
DOCKED: ATOM      9  C   UNL     1     138.461  68.881 224.815 -0.29 -0.01    +0.144 A  
DOCKED: ATOM     10  C   UNL     1     139.419  68.517 226.725 -0.48 -0.01    +0.084 A  
DOCKED: ATOM     11  C   UNL     1     138.797  69.511 226.001 -0.33 -0.01    +0.073 A  
DOCKED: ATOM     12  N   UNL     1     139.461  67.379 226.003 -0.86 +0.00    -0.085 NA 
DOCKED: ATOM     13  O   UNL     1     138.880  67.635 224.866 -0.64 -0.04    -0.361 OA 
DOCKED: BRANCH  10  14
DOCKED: ATOM     14  C   UNL     1     139.986  68.657 228.105 -0.58 -0.01    +0.060 C  
DOCKED: BRANCH  14  15
DOCKED: ATOM     15  C   UNL     1     141.110  69.698 228.132 -0.56 -0.00    +0.006 C  
DOCKED: BRANCH  15  16
DOCKED: ATOM     16  C   UNL     1     140.543  71.117 228.051 -0.73 +0.00    -0.003 C  
DOCKED: ATOM     17  C   UNL     1     141.107  71.868 226.847 -0.77 -0.00    +0.004 C  
DOCKED: ENDBRANCH  15  16
DOCKED: ENDBRANCH  14  15
DOCKED: ENDBRANCH  10  14
DOCKED: ENDBRANCH   7   9
DOCKED: ENDBRANCH   1   7
DOCKED: BRANCH   4  18
DOCKED: ATOM     18  C   UNL     1     140.961  73.760 221.247 -0.28 +0.00    -0.018 A  
DOCKED: ATOM     19  C   UNL     1     142.118  73.482 220.498 -0.25 -0.00    +0.009 A  
DOCKED: ATOM     20  C   UNL     1     140.583  75.099 221.448 -0.32 -0.00    +0.018 A  
DOCKED: ATOM     21  C   UNL     1     142.877  74.521 219.955 -0.31 -0.00    +0.001 A  
DOCKED: ATOM     22  C   UNL     1     141.346  76.145 220.905 -0.30 -0.00    +0.007 A  
DOCKED: ATOM     23  C   UNL     1     142.498  75.847 220.163 -0.29 -0.00    +0.009 A  
DOCKED: BRANCH  22  24
DOCKED: ATOM     24  C   UNL     1     140.983  77.580 221.199 -0.19 -0.13    +0.297 C  
DOCKED: BRANCH  24  25
DOCKED: ATOM     25  N   UNL     1     142.199  78.406 221.271 -0.09 +0.25    -0.342 N  
DOCKED: ATOM     26  H   UNL     1     142.633  78.432 220.318 -0.21 -0.32    +0.346 HD 
DOCKED: ATOM     27  H   UNL     1     142.886  77.968 221.924 -0.32 -0.43    +0.346 HD 
DOCKED: BRANCH  25  28
DOCKED: ATOM     28  C   UNL     1     141.905  79.797 221.673 -0.28 -0.11    +0.263 C  
DOCKED: BRANCH  28  29
DOCKED: ATOM     29  C   UNL     1     141.717  79.961 223.204 -0.57 -0.01    +0.038 C  
DOCKED: ATOM     30  C   UNL     1     140.404  80.699 223.496 -0.45 -0.00    +0.013 C  
DOCKED: ATOM     31  C   UNL     1     142.890  80.723 223.845 -0.66 -0.00    +0.013 C  
DOCKED: ENDBRANCH  28  29
DOCKED: ENDBRANCH  25  28
DOCKED: ENDBRANCH  24  25
DOCKED: ENDBRANCH  22  24
DOCKED: ENDBRANCH   4  18
DOCKED: TORSDOF 10
DOCKED: TER
DOCKED: ENDMDL
________________________________________________________________________________


    FINAL DOCKED STATE:
    ________________________


Run:   15 / 20
Time taken for this run:   0.076s

DOCKED: MODEL        15
DOCKED: USER    Run = 15
DOCKED: USER
DOCKED: USER    Estimated Free Energy of Binding    =  -9.40 kcal/mol  [=(1)+(2)+(3)-(4)]
DOCKED: USER
DOCKED: USER    (1) Final Intermolecular Energy     = -12.38 kcal/mol
DOCKED: USER        vdW + Hbond + desolv Energy     = -11.54 kcal/mol
DOCKED: USER        Electrostatic Energy            =  -0.84 kcal/mol
DOCKED: USER        Moving Ligand-Fixed Receptor    = -12.38 kcal/mol
DOCKED: USER        Moving Ligand-Moving Receptor   =  +0.00 kcal/mol
DOCKED: USER    (2) Final Total Internal Energy     =  -1.29 kcal/mol
DOCKED: USER    (3) Torsional Free Energy           =  +2.98 kcal/mol
DOCKED: USER    (4) Unbound System's Energy         =  -1.29 kcal/mol
DOCKED: USER
DOCKED: USER
DOCKED: REMARK SMILES CCCCc1cc([C@H](C)c2ccc(-c3cccc(C[NH2+]CC(C)C)c3)cc2)on1
DOCKED: REMARK SMILES IDX 10 1 11 2 12 3 13 4 26 5 27 6 8 7 9 8 7 9 5 10 6 11 29 12
DOCKED: REMARK SMILES IDX 28 13 4 14 3 15 2 16 1 17 14 18 15 19 25 20 16 21 18 22
DOCKED: REMARK SMILES IDX 17 23 19 24 20 25 21 28 22 29 23 30 24 31
DOCKED: REMARK H PARENT 20 26 20 27
DOCKED: USER                              x       y       z     vdW  Elec       q    Type
DOCKED: USER                           _______ _______ _______ _____ _____    ______ ____
DOCKED: ROOT
DOCKED: ATOM      1  C   UNL     1     138.849  70.464 222.706 -0.20 +0.01    -0.037 A  
DOCKED: ATOM      2  C   UNL     1     139.994  70.928 223.383 -0.33 -0.00    +0.005 A  
DOCKED: ATOM      3  C   UNL     1     140.764  71.962 222.847 -0.29 -0.00    +0.009 A  
DOCKED: ATOM      4  C   UNL     1     140.398  72.573 221.635 -0.26 +0.00    -0.018 A  
DOCKED: ATOM      5  C   UNL     1     139.250  72.121 220.966 -0.12 -0.00    +0.009 A  
DOCKED: ATOM      6  C   UNL     1     138.483  71.079 221.497 -0.11 -0.00    +0.005 A  
DOCKED: ENDROOT
DOCKED: BRANCH   1   7
DOCKED: ATOM      7  C   UNL     1     137.957  69.379 223.292 -0.21 -0.01    +0.085 C  
DOCKED: ATOM      8  C   UNL     1     137.567  68.301 222.272 -0.18 -0.00    +0.021 C  
DOCKED: BRANCH   7   9
DOCKED: ATOM      9  C   UNL     1     138.586  68.748 224.506 -0.28 -0.01    +0.144 A  
DOCKED: ATOM     10  C   UNL     1     139.434  68.342 226.458 -0.51 -0.01    +0.084 A  
DOCKED: ATOM     11  C   UNL     1     138.825  69.343 225.731 -0.38 -0.01    +0.073 A  
DOCKED: ATOM     12  N   UNL     1     139.558  67.234 225.701 -0.86 +0.00    -0.085 NA 
DOCKED: ATOM     13  O   UNL     1     139.042  67.514 224.539 -0.65 -0.02    -0.361 OA 
DOCKED: BRANCH  10  14
DOCKED: ATOM     14  C   UNL     1     139.908  68.448 227.875 -0.57 -0.01    +0.060 C  
DOCKED: BRANCH  14  15
DOCKED: ATOM     15  C   UNL     1     139.819  69.894 228.376 -0.58 -0.00    +0.006 C  
DOCKED: BRANCH  15  16
DOCKED: ATOM     16  C   UNL     1     141.069  70.685 227.985 -0.67 +0.00    -0.003 C  
DOCKED: ATOM     17  C   UNL     1     140.709  71.891 227.119 -0.75 -0.00    +0.004 C  
DOCKED: ENDBRANCH  15  16
DOCKED: ENDBRANCH  14  15
DOCKED: ENDBRANCH  10  14
DOCKED: ENDBRANCH   7   9
DOCKED: ENDBRANCH   1   7
DOCKED: BRANCH   4  18
DOCKED: ATOM     18  C   UNL     1     141.211  73.683 221.078 -0.27 +0.00    -0.018 A  
DOCKED: ATOM     19  C   UNL     1     142.472  73.432 220.510 -0.27 -0.00    +0.009 A  
DOCKED: ATOM     20  C   UNL     1     140.737  75.006 221.132 -0.29 -0.00    +0.018 A  
DOCKED: ATOM     21  C   UNL     1     143.240  74.480 219.999 -0.35 -0.00    +0.001 A  
DOCKED: ATOM     22  C   UNL     1     141.509  76.062 220.621 -0.28 -0.00    +0.007 A  
DOCKED: ATOM     23  C   UNL     1     142.766  75.790 220.060 -0.33 -0.01    +0.009 A  
DOCKED: BRANCH  22  24
DOCKED: ATOM     24  C   UNL     1     141.033  77.486 220.762 -0.16 -0.13    +0.297 C  
DOCKED: BRANCH  24  25
DOCKED: ATOM     25  N   UNL     1     142.153  78.360 221.150 -0.10 +0.25    -0.342 N  
DOCKED: ATOM     26  H   UNL     1     142.830  78.395 220.352 -0.23 -0.37    +0.346 HD 
DOCKED: ATOM     27  H   UNL     1     142.649  77.953 221.974 -0.31 -0.37    +0.346 HD 
DOCKED: BRANCH  25  28
DOCKED: ATOM     28  C   UNL     1     141.711  79.741 221.431 -0.26 -0.11    +0.263 C  
DOCKED: BRANCH  28  29
DOCKED: ATOM     29  C   UNL     1     141.844  80.130 222.927 -0.57 -0.01    +0.038 C  
DOCKED: ATOM     30  C   UNL     1     143.301  80.485 223.251 -0.60 -0.00    +0.013 C  
DOCKED: ATOM     31  C   UNL     1     141.371  78.998 223.854 -0.59 -0.00    +0.013 C  
DOCKED: ENDBRANCH  28  29
DOCKED: ENDBRANCH  25  28
DOCKED: ENDBRANCH  24  25
DOCKED: ENDBRANCH  22  24
DOCKED: ENDBRANCH   4  18
DOCKED: TORSDOF 10
DOCKED: TER
DOCKED: ENDMDL
________________________________________________________________________________


    FINAL DOCKED STATE:
    ________________________


Run:   16 / 20
Time taken for this run:   0.076s

DOCKED: MODEL        16
DOCKED: USER    Run = 16
DOCKED: USER
DOCKED: USER    Estimated Free Energy of Binding    =  -9.45 kcal/mol  [=(1)+(2)+(3)-(4)]
DOCKED: USER
DOCKED: USER    (1) Final Intermolecular Energy     = -12.43 kcal/mol
DOCKED: USER        vdW + Hbond + desolv Energy     = -11.59 kcal/mol
DOCKED: USER        Electrostatic Energy            =  -0.84 kcal/mol
DOCKED: USER        Moving Ligand-Fixed Receptor    = -12.43 kcal/mol
DOCKED: USER        Moving Ligand-Moving Receptor   =  +0.00 kcal/mol
DOCKED: USER    (2) Final Total Internal Energy     =  -1.27 kcal/mol
DOCKED: USER    (3) Torsional Free Energy           =  +2.98 kcal/mol
DOCKED: USER    (4) Unbound System's Energy         =  -1.27 kcal/mol
DOCKED: USER
DOCKED: USER
DOCKED: REMARK SMILES CCCCc1cc([C@H](C)c2ccc(-c3cccc(C[NH2+]CC(C)C)c3)cc2)on1
DOCKED: REMARK SMILES IDX 10 1 11 2 12 3 13 4 26 5 27 6 8 7 9 8 7 9 5 10 6 11 29 12
DOCKED: REMARK SMILES IDX 28 13 4 14 3 15 2 16 1 17 14 18 15 19 25 20 16 21 18 22
DOCKED: REMARK SMILES IDX 17 23 19 24 20 25 21 28 22 29 23 30 24 31
DOCKED: REMARK H PARENT 20 26 20 27
DOCKED: USER                              x       y       z     vdW  Elec       q    Type
DOCKED: USER                           _______ _______ _______ _____ _____    ______ ____
DOCKED: ROOT
DOCKED: ATOM      1  C   UNL     1     138.890  70.445 222.713 -0.20 +0.01    -0.037 A  
DOCKED: ATOM      2  C   UNL     1     139.989  70.968 223.423 -0.34 -0.00    +0.005 A  
DOCKED: ATOM      3  C   UNL     1     140.745  72.014 222.889 -0.29 -0.00    +0.009 A  
DOCKED: ATOM      4  C   UNL     1     140.409  72.577 221.646 -0.26 +0.00    -0.018 A  
DOCKED: ATOM      5  C   UNL     1     139.306  72.066 220.944 -0.12 -0.00    +0.009 A  
DOCKED: ATOM      6  C   UNL     1     138.554  71.013 221.473 -0.11 -0.00    +0.005 A  
DOCKED: ENDROOT
DOCKED: BRANCH   1   7
DOCKED: ATOM      7  C   UNL     1     138.014  69.345 223.294 -0.21 -0.01    +0.085 C  
DOCKED: ATOM      8  C   UNL     1     137.666  68.250 222.277 -0.18 -0.00    +0.021 C  
DOCKED: BRANCH   7   9
DOCKED: ATOM      9  C   UNL     1     138.635  68.738 224.523 -0.28 -0.01    +0.144 A  
DOCKED: ATOM     10  C   UNL     1     139.482  68.375 226.485 -0.51 -0.01    +0.084 A  
DOCKED: ATOM     11  C   UNL     1     138.889  69.365 225.731 -0.38 -0.01    +0.073 A  
DOCKED: ATOM     12  N   UNL     1     139.585  67.244 225.759 -0.85 +0.00    -0.085 NA 
DOCKED: ATOM     13  O   UNL     1     139.071  67.498 224.592 -0.67 -0.02    -0.361 OA 
DOCKED: BRANCH  10  14
DOCKED: ATOM     14  C   UNL     1     139.962  68.514 227.897 -0.60 -0.01    +0.060 C  
DOCKED: BRANCH  14  15
DOCKED: ATOM     15  C   UNL     1     139.825  69.961 228.382 -0.57 -0.00    +0.006 C  
DOCKED: BRANCH  15  16
DOCKED: ATOM     16  C   UNL     1     141.073  70.775 228.035 -0.66 +0.00    -0.003 C  
DOCKED: ATOM     17  C   UNL     1     140.742  71.899 227.055 -0.74 -0.00    +0.004 C  
DOCKED: ENDBRANCH  15  16
DOCKED: ENDBRANCH  14  15
DOCKED: ENDBRANCH  10  14
DOCKED: ENDBRANCH   7   9
DOCKED: ENDBRANCH   1   7
DOCKED: BRANCH   4  18
DOCKED: ATOM     18  C   UNL     1     141.205  73.701 221.091 -0.27 +0.00    -0.018 A  
DOCKED: ATOM     19  C   UNL     1     142.449  73.464 220.481 -0.27 -0.00    +0.009 A  
DOCKED: ATOM     20  C   UNL     1     140.733  75.022 221.187 -0.30 -0.00    +0.018 A  
DOCKED: ATOM     21  C   UNL     1     143.203  74.524 219.972 -0.34 -0.00    +0.001 A  
DOCKED: ATOM     22  C   UNL     1     141.489  76.089 220.677 -0.29 -0.00    +0.007 A  
DOCKED: ATOM     23  C   UNL     1     142.730  75.831 220.076 -0.32 -0.01    +0.009 A  
DOCKED: BRANCH  22  24
DOCKED: ATOM     24  C   UNL     1     141.017  77.510 220.864 -0.16 -0.13    +0.297 C  
DOCKED: BRANCH  24  25
DOCKED: ATOM     25  N   UNL     1     142.160  78.391 221.153 -0.10 +0.25    -0.342 N  
DOCKED: ATOM     26  H   UNL     1     142.734  78.478 220.282 -0.21 -0.35    +0.346 HD 
DOCKED: ATOM     27  H   UNL     1     142.761  77.959 221.891 -0.32 -0.40    +0.346 HD 
DOCKED: BRANCH  25  28
DOCKED: ATOM     28  C   UNL     1     141.732  79.748 221.551 -0.27 -0.11    +0.263 C  
DOCKED: BRANCH  28  29
DOCKED: ATOM     29  C   UNL     1     141.856  80.002 223.077 -0.58 -0.01    +0.038 C  
DOCKED: ATOM     30  C   UNL     1     143.259  80.528 223.409 -0.62 -0.00    +0.013 C  
DOCKED: ATOM     31  C   UNL     1     141.576  78.729 223.892 -0.55 -0.00    +0.013 C  
DOCKED: ENDBRANCH  28  29
DOCKED: ENDBRANCH  25  28
DOCKED: ENDBRANCH  24  25
DOCKED: ENDBRANCH  22  24
DOCKED: ENDBRANCH   4  18
DOCKED: TORSDOF 10
DOCKED: TER
DOCKED: ENDMDL
________________________________________________________________________________


    FINAL DOCKED STATE:
    ________________________


Run:   17 / 20
Time taken for this run:   0.076s

DOCKED: MODEL        17
DOCKED: USER    Run = 17
DOCKED: USER
DOCKED: USER    Estimated Free Energy of Binding    =  -9.61 kcal/mol  [=(1)+(2)+(3)-(4)]
DOCKED: USER
DOCKED: USER    (1) Final Intermolecular Energy     = -12.59 kcal/mol
DOCKED: USER        vdW + Hbond + desolv Energy     = -11.75 kcal/mol
DOCKED: USER        Electrostatic Energy            =  -0.84 kcal/mol
DOCKED: USER        Moving Ligand-Fixed Receptor    = -12.59 kcal/mol
DOCKED: USER        Moving Ligand-Moving Receptor   =  +0.00 kcal/mol
DOCKED: USER    (2) Final Total Internal Energy     =  -1.29 kcal/mol
DOCKED: USER    (3) Torsional Free Energy           =  +2.98 kcal/mol
DOCKED: USER    (4) Unbound System's Energy         =  -1.29 kcal/mol
DOCKED: USER
DOCKED: USER
DOCKED: REMARK SMILES CCCCc1cc([C@H](C)c2ccc(-c3cccc(C[NH2+]CC(C)C)c3)cc2)on1
DOCKED: REMARK SMILES IDX 10 1 11 2 12 3 13 4 26 5 27 6 8 7 9 8 7 9 5 10 6 11 29 12
DOCKED: REMARK SMILES IDX 28 13 4 14 3 15 2 16 1 17 14 18 15 19 25 20 16 21 18 22
DOCKED: REMARK SMILES IDX 17 23 19 24 20 25 21 28 22 29 23 30 24 31
DOCKED: REMARK H PARENT 20 26 20 27
DOCKED: USER                              x       y       z     vdW  Elec       q    Type
DOCKED: USER                           _______ _______ _______ _____ _____    ______ ____
DOCKED: ROOT
DOCKED: ATOM      1  C   UNL     1     138.684  70.674 222.956 -0.22 +0.01    -0.037 A  
DOCKED: ATOM      2  C   UNL     1     139.966  70.967 223.460 -0.35 -0.00    +0.005 A  
DOCKED: ATOM      3  C   UNL     1     140.744  71.971 222.879 -0.30 -0.00    +0.009 A  
DOCKED: ATOM      4  C   UNL     1     140.253  72.721 221.796 -0.28 +0.00    -0.018 A  
DOCKED: ATOM      5  C   UNL     1     138.970  72.439 221.302 -0.15 -0.00    +0.009 A  
DOCKED: ATOM      6  C   UNL     1     138.194  71.428 221.876 -0.13 -0.00    +0.005 A  
DOCKED: ENDROOT
DOCKED: BRANCH   1   7
DOCKED: ATOM      7  C   UNL     1     137.790  69.626 223.602 -0.22 -0.01    +0.085 C  
DOCKED: ATOM      8  C   UNL     1     137.249  68.594 222.604 -0.17 -0.00    +0.021 C  
DOCKED: BRANCH   7   9
DOCKED: ATOM      9  C   UNL     1     138.490  68.935 224.742 -0.29 -0.01    +0.144 A  
DOCKED: ATOM     10  C   UNL     1     139.456  68.432 226.615 -0.50 -0.01    +0.084 A  
DOCKED: ATOM     11  C   UNL     1     138.808  69.468 225.978 -0.34 -0.01    +0.073 A  
DOCKED: ATOM     12  N   UNL     1     139.528  67.363 225.798 -0.88 +0.00    -0.085 NA 
DOCKED: ATOM     13  O   UNL     1     138.942  67.700 224.686 -0.64 -0.02    -0.361 OA 
DOCKED: BRANCH  10  14
DOCKED: ATOM     14  C   UNL     1     140.017  68.467 228.004 -0.58 -0.01    +0.060 C  
DOCKED: BRANCH  14  15
DOCKED: ATOM     15  C   UNL     1     141.063  69.578 228.144 -0.59 -0.00    +0.006 C  
DOCKED: BRANCH  15  16
DOCKED: ATOM     16  C   UNL     1     140.396  70.955 228.183 -0.66 +0.00    -0.003 C  
DOCKED: ATOM     17  C   UNL     1     141.033  71.905 227.172 -0.80 -0.00    +0.004 C  
DOCKED: ENDBRANCH  15  16
DOCKED: ENDBRANCH  14  15
DOCKED: ENDBRANCH  10  14
DOCKED: ENDBRANCH   7   9
DOCKED: ENDBRANCH   1   7
DOCKED: BRANCH   4  18
DOCKED: ATOM     18  C   UNL     1     141.077  73.798 221.194 -0.28 +0.00    -0.018 A  
DOCKED: ATOM     19  C   UNL     1     142.299  73.499 220.566 -0.26 -0.00    +0.009 A  
DOCKED: ATOM     20  C   UNL     1     140.655  75.138 221.263 -0.30 -0.00    +0.018 A  
DOCKED: ATOM     21  C   UNL     1     143.079  74.516 220.012 -0.33 -0.00    +0.001 A  
DOCKED: ATOM     22  C   UNL     1     141.439  76.162 220.708 -0.29 -0.00    +0.007 A  
DOCKED: ATOM     23  C   UNL     1     142.657  75.843 220.088 -0.32 -0.01    +0.009 A  
DOCKED: BRANCH  22  24
DOCKED: ATOM     24  C   UNL     1     141.023  77.604 220.863 -0.16 -0.13    +0.297 C  
DOCKED: BRANCH  24  25
DOCKED: ATOM     25  N   UNL     1     142.198  78.445 221.140 -0.09 +0.25    -0.342 N  
DOCKED: ATOM     26  H   UNL     1     142.662  78.668 220.228 -0.18 -0.33    +0.346 HD 
DOCKED: ATOM     27  H   UNL     1     142.882  77.915 221.726 -0.34 -0.42    +0.346 HD 
DOCKED: BRANCH  25  28
DOCKED: ATOM     28  C   UNL     1     141.831  79.722 221.786 -0.30 -0.11    +0.263 C  
DOCKED: BRANCH  28  29
DOCKED: ATOM     29  C   UNL     1     142.430  79.879 223.209 -0.62 -0.01    +0.038 C  
DOCKED: ATOM     30  C   UNL     1     141.814  78.840 224.156 -0.52 -0.00    +0.013 C  
DOCKED: ATOM     31  C   UNL     1     142.199  81.291 223.772 -0.62 -0.00    +0.013 C  
DOCKED: ENDBRANCH  28  29
DOCKED: ENDBRANCH  25  28
DOCKED: ENDBRANCH  24  25
DOCKED: ENDBRANCH  22  24
DOCKED: ENDBRANCH   4  18
DOCKED: TORSDOF 10
DOCKED: TER
DOCKED: ENDMDL
________________________________________________________________________________


    FINAL DOCKED STATE:
    ________________________


Run:   18 / 20
Time taken for this run:   0.076s

DOCKED: MODEL        18
DOCKED: USER    Run = 18
DOCKED: USER
DOCKED: USER    Estimated Free Energy of Binding    =  -9.52 kcal/mol  [=(1)+(2)+(3)-(4)]
DOCKED: USER
DOCKED: USER    (1) Final Intermolecular Energy     = -12.51 kcal/mol
DOCKED: USER        vdW + Hbond + desolv Energy     = -11.64 kcal/mol
DOCKED: USER        Electrostatic Energy            =  -0.87 kcal/mol
DOCKED: USER        Moving Ligand-Fixed Receptor    = -12.51 kcal/mol
DOCKED: USER        Moving Ligand-Moving Receptor   =  +0.00 kcal/mol
DOCKED: USER    (2) Final Total Internal Energy     =  -1.32 kcal/mol
DOCKED: USER    (3) Torsional Free Energy           =  +2.98 kcal/mol
DOCKED: USER    (4) Unbound System's Energy         =  -1.32 kcal/mol
DOCKED: USER
DOCKED: USER
DOCKED: REMARK SMILES CCCCc1cc([C@H](C)c2ccc(-c3cccc(C[NH2+]CC(C)C)c3)cc2)on1
DOCKED: REMARK SMILES IDX 10 1 11 2 12 3 13 4 26 5 27 6 8 7 9 8 7 9 5 10 6 11 29 12
DOCKED: REMARK SMILES IDX 28 13 4 14 3 15 2 16 1 17 14 18 15 19 25 20 16 21 18 22
DOCKED: REMARK SMILES IDX 17 23 19 24 20 25 21 28 22 29 23 30 24 31
DOCKED: REMARK H PARENT 20 26 20 27
DOCKED: USER                              x       y       z     vdW  Elec       q    Type
DOCKED: USER                           _______ _______ _______ _____ _____    ______ ____
DOCKED: ROOT
DOCKED: ATOM      1  C   UNL     1     139.074  70.366 222.596 -0.19 +0.01    -0.037 A  
DOCKED: ATOM      2  C   UNL     1     139.903  70.082 221.492 -0.13 -0.00    +0.005 A  
DOCKED: ATOM      3  C   UNL     1     140.769  71.054 220.988 -0.15 -0.00    +0.009 A  
DOCKED: ATOM      4  C   UNL     1     140.847  72.323 221.586 -0.26 +0.00    -0.018 A  
DOCKED: ATOM      5  C   UNL     1     140.032  72.603 222.694 -0.31 -0.00    +0.009 A  
DOCKED: ATOM      6  C   UNL     1     139.157  71.634 223.195 -0.28 -0.00    +0.005 A  
DOCKED: ENDROOT
DOCKED: BRANCH   1   7
DOCKED: ATOM      7  C   UNL     1     138.161  69.311 223.203 -0.21 -0.01    +0.085 C  
DOCKED: ATOM      8  C   UNL     1     137.840  68.162 222.239 -0.19 -0.00    +0.021 C  
DOCKED: BRANCH   7   9
DOCKED: ATOM      9  C   UNL     1     138.726  68.772 224.490 -0.28 -0.01    +0.144 A  
DOCKED: ATOM     10  C   UNL     1     139.479  68.513 226.506 -0.50 -0.01    +0.084 A  
DOCKED: ATOM     11  C   UNL     1     138.917  69.459 225.675 -0.37 -0.01    +0.073 A  
DOCKED: ATOM     12  N   UNL     1     139.622  67.347 225.844 -0.83 +0.01    -0.085 NA 
DOCKED: ATOM     13  O   UNL     1     139.163  67.539 224.641 -0.72 -0.00    -0.361 OA 
DOCKED: BRANCH  10  14
DOCKED: ATOM     14  C   UNL     1     139.889  68.726 227.931 -0.58 -0.01    +0.060 C  
DOCKED: BRANCH  14  15
DOCKED: ATOM     15  C   UNL     1     141.063  69.707 228.022 -0.60 -0.00    +0.006 C  
DOCKED: BRANCH  15  16
DOCKED: ATOM     16  C   UNL     1     140.569  71.155 227.975 -0.75 +0.00    -0.003 C  
DOCKED: ATOM     17  C   UNL     1     141.115  71.884 226.750 -0.75 -0.00    +0.004 C  
DOCKED: ENDBRANCH  15  16
DOCKED: ENDBRANCH  14  15
DOCKED: ENDBRANCH  10  14
DOCKED: ENDBRANCH   7   9
DOCKED: ENDBRANCH   1   7
DOCKED: BRANCH   4  18
DOCKED: ATOM     18  C   UNL     1     141.783  73.347 221.058 -0.26 +0.00    -0.018 A  
DOCKED: ATOM     19  C   UNL     1     143.137  73.034 220.840 -0.29 -0.00    +0.009 A  
DOCKED: ATOM     20  C   UNL     1     141.332  74.651 220.787 -0.28 -0.00    +0.018 A  
DOCKED: ATOM     21  C   UNL     1     144.019  74.003 220.356 -0.43 -0.00    +0.001 A  
DOCKED: ATOM     22  C   UNL     1     142.217  75.626 220.302 -0.29 -0.00    +0.007 A  
DOCKED: ATOM     23  C   UNL     1     143.565  75.295 220.094 -0.39 -0.00    +0.009 A  
DOCKED: BRANCH  22  24
DOCKED: ATOM     24  C   UNL     1     141.745  77.045 220.098 -0.17 -0.16    +0.297 C  
DOCKED: BRANCH  24  25
DOCKED: ATOM     25  N   UNL     1     142.193  77.894 221.214 +0.05 +0.27    -0.342 N  
DOCKED: ATOM     26  H   UNL     1     143.213  78.090 221.085 -0.33 -0.47    +0.346 HD 
DOCKED: ATOM     27  H   UNL     1     142.076  77.382 222.117 -0.31 -0.30    +0.346 HD 
DOCKED: BRANCH  25  28
DOCKED: ATOM     28  C   UNL     1     141.483  79.189 221.248 -0.23 -0.12    +0.263 C  
DOCKED: BRANCH  28  29
DOCKED: ATOM     29  C   UNL     1     141.977  80.124 222.384 -0.53 -0.01    +0.038 C  
DOCKED: ATOM     30  C   UNL     1     141.821  79.428 223.743 -0.62 -0.00    +0.013 C  
DOCKED: ATOM     31  C   UNL     1     141.213  81.458 222.397 -0.45 -0.00    +0.013 C  
DOCKED: ENDBRANCH  28  29
DOCKED: ENDBRANCH  25  28
DOCKED: ENDBRANCH  24  25
DOCKED: ENDBRANCH  22  24
DOCKED: ENDBRANCH   4  18
DOCKED: TORSDOF 10
DOCKED: TER
DOCKED: ENDMDL
________________________________________________________________________________


    FINAL DOCKED STATE:
    ________________________


Run:   19 / 20
Time taken for this run:   0.076s

DOCKED: MODEL        19
DOCKED: USER    Run = 19
DOCKED: USER
DOCKED: USER    Estimated Free Energy of Binding    =  -8.95 kcal/mol  [=(1)+(2)+(3)-(4)]
DOCKED: USER
DOCKED: USER    (1) Final Intermolecular Energy     = -11.93 kcal/mol
DOCKED: USER        vdW + Hbond + desolv Energy     = -11.07 kcal/mol
DOCKED: USER        Electrostatic Energy            =  -0.86 kcal/mol
DOCKED: USER        Moving Ligand-Fixed Receptor    = -11.93 kcal/mol
DOCKED: USER        Moving Ligand-Moving Receptor   =  +0.00 kcal/mol
DOCKED: USER    (2) Final Total Internal Energy     =  -1.69 kcal/mol
DOCKED: USER    (3) Torsional Free Energy           =  +2.98 kcal/mol
DOCKED: USER    (4) Unbound System's Energy         =  -1.69 kcal/mol
DOCKED: USER
DOCKED: USER
DOCKED: REMARK SMILES CCCCc1cc([C@H](C)c2ccc(-c3cccc(C[NH2+]CC(C)C)c3)cc2)on1
DOCKED: REMARK SMILES IDX 10 1 11 2 12 3 13 4 26 5 27 6 8 7 9 8 7 9 5 10 6 11 29 12
DOCKED: REMARK SMILES IDX 28 13 4 14 3 15 2 16 1 17 14 18 15 19 25 20 16 21 18 22
DOCKED: REMARK SMILES IDX 17 23 19 24 20 25 21 28 22 29 23 30 24 31
DOCKED: REMARK H PARENT 20 26 20 27
DOCKED: USER                              x       y       z     vdW  Elec       q    Type
DOCKED: USER                           _______ _______ _______ _____ _____    ______ ____
DOCKED: ROOT
DOCKED: ATOM      1  C   UNL     1     138.909  70.694 222.546 -0.20 +0.01    -0.037 A  
DOCKED: ATOM      2  C   UNL     1     140.267  71.071 222.561 -0.24 -0.00    +0.005 A  
DOCKED: ATOM      3  C   UNL     1     140.637  72.394 222.311 -0.32 -0.00    +0.009 A  
DOCKED: ATOM      4  C   UNL     1     139.663  73.376 222.062 -0.26 +0.00    -0.018 A  
DOCKED: ATOM      5  C   UNL     1     138.309  73.004 222.060 -0.16 -0.00    +0.009 A  
DOCKED: ATOM      6  C   UNL     1     137.937  71.678 222.301 -0.16 -0.00    +0.005 A  
DOCKED: ENDROOT
DOCKED: BRANCH   1   7
DOCKED: ATOM      7  C   UNL     1     138.470  69.274 222.871 -0.19 -0.01    +0.085 C  
DOCKED: ATOM      8  C   UNL     1     138.851  68.260 221.784 -0.18 -0.00    +0.021 C  
DOCKED: BRANCH   7   9
DOCKED: ATOM      9  C   UNL     1     138.996  68.829 224.209 -0.26 -0.02    +0.144 A  
DOCKED: ATOM     10  C   UNL     1     139.858  68.722 226.195 -0.48 -0.01    +0.084 A  
DOCKED: ATOM     11  C   UNL     1     139.496  69.628 225.222 -0.37 -0.01    +0.073 A  
DOCKED: ATOM     12  N   UNL     1     139.601  67.467 225.773 -0.83 +0.01    -0.085 NA 
DOCKED: ATOM     13  O   UNL     1     139.088  67.570 224.581 -0.67 -0.01    -0.361 OA 
DOCKED: BRANCH  10  14
DOCKED: ATOM     14  C   UNL     1     140.460  69.053 227.526 -0.60 -0.01    +0.060 C  
DOCKED: BRANCH  14  15
DOCKED: ATOM     15  C   UNL     1     139.951  70.406 228.036 -0.64 -0.00    +0.006 C  
DOCKED: BRANCH  15  16
DOCKED: ATOM     16  C   UNL     1     141.062  71.457 227.996 -0.80 +0.00    -0.003 C  
DOCKED: ATOM     17  C   UNL     1     141.365  71.886 226.562 -0.70 -0.00    +0.004 C  
DOCKED: ENDBRANCH  15  16
DOCKED: ENDBRANCH  14  15
DOCKED: ENDBRANCH  10  14
DOCKED: ENDBRANCH   7   9
DOCKED: ENDBRANCH   1   7
DOCKED: BRANCH   4  18
DOCKED: ATOM     18  C   UNL     1     140.061  74.784 221.814 -0.28 +0.00    -0.018 A  
DOCKED: ATOM     19  C   UNL     1     139.496  75.830 222.564 -0.23 -0.00    +0.009 A  
DOCKED: ATOM     20  C   UNL     1     140.995  75.092 220.809 -0.27 -0.00    +0.018 A  
DOCKED: ATOM     21  C   UNL     1     139.862  77.156 222.320 -0.38 -0.00    +0.001 A  
DOCKED: ATOM     22  C   UNL     1     141.363  76.424 220.561 -0.28 -0.00    +0.007 A  
DOCKED: ATOM     23  C   UNL     1     140.786  77.454 221.318 -0.31 -0.00    +0.009 A  
DOCKED: BRANCH  22  24
DOCKED: ATOM     24  C   UNL     1     142.298  76.752 219.423 -0.19 -0.17    +0.297 C  
DOCKED: BRANCH  24  25
DOCKED: ATOM     25  N   UNL     1     143.686  76.436 219.798 -0.19 +0.26    -0.342 N  
DOCKED: ATOM     26  H   UNL     1     143.766  76.504 220.840 -0.09 -0.41    +0.346 HD 
DOCKED: ATOM     27  H   UNL     1     144.335  77.140 219.379 -0.33 -0.31    +0.346 HD 
DOCKED: BRANCH  25  28
DOCKED: ATOM     28  C   UNL     1     144.072  75.065 219.403 -0.08 -0.14    +0.263 C  
DOCKED: BRANCH  28  29
DOCKED: ATOM     29  C   UNL     1     144.324  74.130 220.615 -0.41 -0.01    +0.038 C  
DOCKED: ATOM     30  C   UNL     1     145.828  73.881 220.783 -0.64 -0.00    +0.013 C  
DOCKED: ATOM     31  C   UNL     1     143.592  72.787 220.460 -0.34 -0.00    +0.013 C  
DOCKED: ENDBRANCH  28  29
DOCKED: ENDBRANCH  25  28
DOCKED: ENDBRANCH  24  25
DOCKED: ENDBRANCH  22  24
DOCKED: ENDBRANCH   4  18
DOCKED: TORSDOF 10
DOCKED: TER
DOCKED: ENDMDL
________________________________________________________________________________


    FINAL DOCKED STATE:
    ________________________


Run:   20 / 20
Time taken for this run:   0.076s

DOCKED: MODEL        20
DOCKED: USER    Run = 20
DOCKED: USER
DOCKED: USER    Estimated Free Energy of Binding    =  -8.73 kcal/mol  [=(1)+(2)+(3)-(4)]
DOCKED: USER
DOCKED: USER    (1) Final Intermolecular Energy     = -11.71 kcal/mol
DOCKED: USER        vdW + Hbond + desolv Energy     = -10.90 kcal/mol
DOCKED: USER        Electrostatic Energy            =  -0.80 kcal/mol
DOCKED: USER        Moving Ligand-Fixed Receptor    = -11.71 kcal/mol
DOCKED: USER        Moving Ligand-Moving Receptor   =  +0.00 kcal/mol
DOCKED: USER    (2) Final Total Internal Energy     =  -1.71 kcal/mol
DOCKED: USER    (3) Torsional Free Energy           =  +2.98 kcal/mol
DOCKED: USER    (4) Unbound System's Energy         =  -1.71 kcal/mol
DOCKED: USER
DOCKED: USER
DOCKED: REMARK SMILES CCCCc1cc([C@H](C)c2ccc(-c3cccc(C[NH2+]CC(C)C)c3)cc2)on1
DOCKED: REMARK SMILES IDX 10 1 11 2 12 3 13 4 26 5 27 6 8 7 9 8 7 9 5 10 6 11 29 12
DOCKED: REMARK SMILES IDX 28 13 4 14 3 15 2 16 1 17 14 18 15 19 25 20 16 21 18 22
DOCKED: REMARK SMILES IDX 17 23 19 24 20 25 21 28 22 29 23 30 24 31
DOCKED: REMARK H PARENT 20 26 20 27
DOCKED: USER                              x       y       z     vdW  Elec       q    Type
DOCKED: USER                           _______ _______ _______ _____ _____    ______ ____
DOCKED: ROOT
DOCKED: ATOM      1  C   UNL     1     138.852  70.733 222.721 -0.21 +0.01    -0.037 A  
DOCKED: ATOM      2  C   UNL     1     137.836  71.673 222.460 -0.17 -0.00    +0.005 A  
DOCKED: ATOM      3  C   UNL     1     138.152  73.013 222.229 -0.11 -0.00    +0.009 A  
DOCKED: ATOM      4  C   UNL     1     139.490  73.443 222.231 -0.21 +0.00    -0.018 A  
DOCKED: ATOM      5  C   UNL     1     140.505  72.505 222.477 -0.32 -0.00    +0.009 A  
DOCKED: ATOM      6  C   UNL     1     140.189  71.164 222.718 -0.28 -0.00    +0.005 A  
DOCKED: ENDROOT
DOCKED: BRANCH   1   7
DOCKED: ATOM      7  C   UNL     1     138.544  69.256 222.920 -0.20 -0.01    +0.085 C  
DOCKED: ATOM      8  C   UNL     1     139.207  68.354 221.871 -0.15 -0.00    +0.021 C  
DOCKED: BRANCH   7   9
DOCKED: ATOM      9  C   UNL     1     138.910  68.801 224.307 -0.27 -0.02    +0.144 A  
DOCKED: ATOM     10  C   UNL     1     139.437  68.682 226.406 -0.48 -0.01    +0.084 A  
DOCKED: ATOM     11  C   UNL     1     139.091  69.591 225.429 -0.37 -0.01    +0.073 A  
DOCKED: ATOM     12  N   UNL     1     139.473  67.439 225.886 -0.86 +0.00    -0.085 NA 
DOCKED: ATOM     13  O   UNL     1     139.154  67.548 224.630 -0.71 -0.00    -0.361 OA 
DOCKED: BRANCH  10  14
DOCKED: ATOM     14  C   UNL     1     139.745  69.004 227.836 -0.56 -0.01    +0.060 C  
DOCKED: BRANCH  14  15
DOCKED: ATOM     15  C   UNL     1     141.060  69.782 227.952 -0.60 -0.00    +0.006 C  
DOCKED: BRANCH  15  16
DOCKED: ATOM     16  C   UNL     1     140.808  71.291 227.914 -0.78 +0.00    -0.003 C  
DOCKED: ATOM     17  C   UNL     1     141.246  71.889 226.579 -0.71 -0.00    +0.004 C  
DOCKED: ENDBRANCH  15  16
DOCKED: ENDBRANCH  14  15
DOCKED: ENDBRANCH  10  14
DOCKED: ENDBRANCH   7   9
DOCKED: ENDBRANCH   1   7
DOCKED: BRANCH   4  18
DOCKED: ATOM     18  C   UNL     1     139.822  74.865 221.967 -0.29 +0.00    -0.018 A  
DOCKED: ATOM     19  C   UNL     1     139.098  75.897 222.590 -0.27 -0.00    +0.009 A  
DOCKED: ATOM     20  C   UNL     1     140.854  75.200 221.072 -0.29 -0.00    +0.018 A  
DOCKED: ATOM     21  C   UNL     1     139.403  77.234 222.330 -0.34 -0.00    +0.001 A  
DOCKED: ATOM     22  C   UNL     1     141.161  76.545 220.808 -0.29 -0.00    +0.007 A  
DOCKED: ATOM     23  C   UNL     1     140.425  77.559 221.438 -0.29 -0.00    +0.009 A  
DOCKED: BRANCH  22  24
DOCKED: ATOM     24  C   UNL     1     142.209  76.895 219.781 -0.19 -0.18    +0.297 C  
DOCKED: BRANCH  24  25
DOCKED: ATOM     25  N   UNL     1     143.466  76.188 220.075 -0.14 +0.25    -0.342 N  
DOCKED: ATOM     26  H   UNL     1     143.384  75.761 221.027 -0.13 -0.33    +0.346 HD 
DOCKED: ATOM     27  H   UNL     1     144.258  76.869 220.096 -0.28 -0.34    +0.346 HD 
DOCKED: BRANCH  25  28
DOCKED: ATOM     28  C   UNL     1     143.733  75.100 219.111 -0.16 -0.13    +0.263 C  
DOCKED: BRANCH  28  29
DOCKED: ATOM     29  C   UNL     1     144.324  73.829 219.776 -0.38 -0.01    +0.038 C  
DOCKED: ATOM     30  C   UNL     1     143.207  73.022 220.452 -0.31 -0.00    +0.013 C  
DOCKED: ATOM     31  C   UNL     1     145.407  74.178 220.811 -0.54 -0.00    +0.013 C  
DOCKED: ENDBRANCH  28  29
DOCKED: ENDBRANCH  25  28
DOCKED: ENDBRANCH  24  25
DOCKED: ENDBRANCH  22  24
DOCKED: ENDBRANCH   4  18
DOCKED: TORSDOF 10
DOCKED: TER
DOCKED: ENDMDL
________________________________________________________________________________


    CLUSTERING HISTOGRAM
    ____________________


________________________________________________________________________________
     |           |     |           |     |
Clus | Lowest    | Run | Mean      | Num | Histogram
-ter | Binding   |     | Binding   | in  |
Rank | Energy    |     | Energy    | Clus|    5    10   15   20   25   30   35
_____|___________|_____|___________|_____|____:____|____:____|____:____|____:___
   1 |     -9.61 |  13 |     -9.46 |  11 |###########
   2 |     -8.96 |   8 |     -8.87 |   8 |########
   3 |     -8.66 |   2 |     -8.66 |   1 |#
_____|___________|_____|___________|_____|______________________________________


    RMSD TABLE
    __________


_______________________________________________________________________
     |      |      |           |         |                 |
Rank | Sub- | Run  | Binding   | Cluster | Reference       | Grep
     | Rank |      | Energy    | RMSD    | RMSD            | Pattern
_____|______|______|___________|_________|_________________|___________
   1      1     13       -9.61      0.00    272.34           RANKING
   1      2     17       -9.61      0.05    272.34           RANKING
   1      3     18       -9.52      0.90    272.23           RANKING
   1      4     16       -9.45      0.43    272.24           RANKING
   1      5      6       -9.44      0.47    272.39           RANKING
   1      6     10       -9.44      1.01    272.08           RANKING
   1      7     14       -9.42      0.44    272.33           RANKING
   1      8      3       -9.40      0.64    272.31           RANKING
   1      9      4       -9.40      0.63    272.34           RANKING
   1     10     15       -9.40      0.45    272.21           RANKING
   1     11      9       -9.36      0.73    272.34           RANKING
   2      1      8       -8.96      0.00    271.91           RANKING
   2      2     19       -8.95      0.13    271.93           RANKING
   2      3      1       -8.94      0.32    271.92           RANKING
   2      4      5       -8.91      0.33    271.95           RANKING
   2      5     11       -8.87      0.36    271.90           RANKING
   2      6     12       -8.80      0.33    271.86           RANKING
   2      7      7       -8.77      0.44    271.87           RANKING
   2      8     20       -8.73      0.43    271.93           RANKING
   3      1      2       -8.66      0.00    271.92           RANKING

Run time 1.482 sec
Idle time 0.000 sec
