AutoDock-GPU version: v1.6

**********************************************************
**    AutoDock-GPU AUTODOCKTOOLS-COMPATIBLE DLG FILE    **
**********************************************************


    DOCKING PARAMETERS
    ________________________


Ligand file:                               /home/a/REINVENT4/ReinventStudies/pleaseWork/justRnve/graph-dock-t2iv78/graph-DockGPU/node-autodockgpu/inputs/HWLDPPPPOIDHJG-HXUWFJFHNA-N.pdbqt
Grid fld file:                             /home/a/REINVENT4/ReinventStudies/mols/Rad51/maps/rad51_receptor.maps.fld

Random seed:                               42
Number of runs:                            20
Number of energy evaluations:              2542121
Number of generations:                     42000
Size of population:                        150
Rate of crossover:                         80.000000%
Tournament selection probability limit:    60.000000%
Rate of mutation:                          2.000000%
Maximal allowed delta movement:            +/- 6.000000A
Maximal allowed delta angle:               +/- 90.000000

Rate of local search:                      100.000000%
Maximal number of local search iterations: 300
Rho lower bound:                           0.010000
Spread of local search delta movement:     2.000000A
Spread of local search delta angle:        74.999999
Limit of consecutive successes/failures:   4

Handle symmetry during clustering:         YES
RMSD tolerance:                            2.000000A

Program call in command line was:          /home/a/REINVENT4/ReinventStudies/adgpu-v1.6_linux_x64_cuda12_128wi --filelist batch.txt --heuristics 1 --nrun 20 --psize 150 --lsit 300 --seed 42 --heurmax 12000000 


    GRID PARAMETERS
    ________________________


Receptor name:                             rad51_receptor
Number of grid points (x, y, z):           53, 53, 53
Grid center (x, y, z):                     139.950000, 75.640000, 221.970000A
Grid size (x, y, z):                       19.500000, 19.500000, 19.500000A
Grid spacing:                              0.375000A


    LIGAND PARAMETERS
    ________________________


Ligand name:                               /home/a/REINVENT4/ReinventStudies/pleaseWork/justRnve/graph-dock-t2iv78/graph-DockGPU/node-autodockgpu/inputs/HWLDPPPPOIDHJG-HXUWFJFHNA-N
Number of atoms:                           30
Number of rotatable bonds:                 10
Number of atom types:                      5


    DUMMY DATA (only for ADT-compatibility)
    ________________________


DPF> outlev 1
DPF> ga_run 20
DPF> fld /home/a/REINVENT4/ReinventStudies/mols/Rad51/maps/rad51_receptor.maps.fld
DPF> move /home/a/REINVENT4/ReinventStudies/pleaseWork/justRnve/graph-dock-t2iv78/graph-DockGPU/node-autodockgpu/inputs/HWLDPPPPOIDHJG-HXUWFJFHNA-N.pdbqt


    COUNTER STATES
    ________________________


Number of energy evaluations performed:    1202930
Number of generations used:                70


    INPUT LIGAND PDBQT FILE:
    ________________________


INPUT-LIGAND-PDBQT: REMARK SMILES CCCCc1cc([C@H](C)c2ccc(-c3cccc(CNCC(C)C)c3)cc2)on1
INPUT-LIGAND-PDBQT: REMARK SMILES IDX 10 1 11 2 12 3 13 4 26 5 27 6 8 7 9 8 7 9 5 10 6 11 29 12
INPUT-LIGAND-PDBQT: REMARK SMILES IDX 28 13 4 14 3 15 2 16 1 17 14 18 15 19 25 20 16 21 18 22
INPUT-LIGAND-PDBQT: REMARK SMILES IDX 17 23 19 24 20 25 21 27 22 28 23 29 24 30
INPUT-LIGAND-PDBQT: REMARK H PARENT 20 26
INPUT-LIGAND-PDBQT: ROOT
INPUT-LIGAND-PDBQT: ATOM      1  C   UNL     1      -1.593  -1.446  -1.307  1.00  0.00    -0.037 A 
INPUT-LIGAND-PDBQT: ATOM      2  C   UNL     1      -0.244  -1.228  -0.970  1.00  0.00     0.005 A 
INPUT-LIGAND-PDBQT: ATOM      3  C   UNL     1       0.180   0.021  -0.510  1.00  0.00     0.009 A 
INPUT-LIGAND-PDBQT: ATOM      4  C   UNL     1      -0.731   1.085  -0.388  1.00  0.00    -0.018 A 
INPUT-LIGAND-PDBQT: ATOM      5  C   UNL     1      -2.074   0.872  -0.745  1.00  0.00     0.009 A 
INPUT-LIGAND-PDBQT: ATOM      6  C   UNL     1      -2.500  -0.379  -1.200  1.00  0.00     0.005 A 
INPUT-LIGAND-PDBQT: ENDROOT
INPUT-LIGAND-PDBQT: BRANCH   1   7
INPUT-LIGAND-PDBQT: ATOM      7  C   UNL     1      -2.067  -2.802  -1.788  1.00  0.00     0.085 C 
INPUT-LIGAND-PDBQT: ATOM      8  C   UNL     1      -1.533  -3.099  -3.195  1.00  0.00     0.021 C 
INPUT-LIGAND-PDBQT: BRANCH   7   9
INPUT-LIGAND-PDBQT: ATOM      9  C   UNL     1      -1.703  -3.868  -0.787  1.00  0.00     0.144 A 
INPUT-LIGAND-PDBQT: ATOM     10  C   UNL     1      -0.729  -5.431   0.358  1.00  0.00     0.084 A 
INPUT-LIGAND-PDBQT: ATOM     11  C   UNL     1      -0.627  -4.736  -0.828  1.00  0.00     0.073 A 
INPUT-LIGAND-PDBQT: ATOM     12  N   UNL     1      -1.796  -4.992   1.054  1.00  0.00    -0.085 NA
INPUT-LIGAND-PDBQT: ATOM     13  O   UNL     1      -2.355  -4.060   0.338  1.00  0.00    -0.361 OA
INPUT-LIGAND-PDBQT: BRANCH  10  14
INPUT-LIGAND-PDBQT: ATOM     14  C   UNL     1       0.244  -6.452   0.868  1.00  0.00     0.060 C 
INPUT-LIGAND-PDBQT: BRANCH  14  15
INPUT-LIGAND-PDBQT: ATOM     15  C   UNL     1       1.598  -5.822   1.226  1.00  0.00     0.006 C 
INPUT-LIGAND-PDBQT: BRANCH  15  16
INPUT-LIGAND-PDBQT: ATOM     16  C   UNL     1       1.492  -4.837   2.399  1.00  0.00    -0.003 C 
INPUT-LIGAND-PDBQT: ATOM     17  C   UNL     1       2.856  -4.246   2.747  1.00  0.00     0.004 C 
INPUT-LIGAND-PDBQT: ENDBRANCH  15  16
INPUT-LIGAND-PDBQT: ENDBRANCH  14  15
INPUT-LIGAND-PDBQT: ENDBRANCH  10  14
INPUT-LIGAND-PDBQT: ENDBRANCH   7   9
INPUT-LIGAND-PDBQT: ENDBRANCH   1   7
INPUT-LIGAND-PDBQT: BRANCH   4  18
INPUT-LIGAND-PDBQT: ATOM     18  C   UNL     1      -0.285   2.406   0.126  1.00  0.00    -0.018 A 
INPUT-LIGAND-PDBQT: ATOM     19  C   UNL     1      -1.097   3.138   1.012  1.00  0.00     0.009 A 
INPUT-LIGAND-PDBQT: ATOM     20  C   UNL     1       0.968   2.933  -0.241  1.00  0.00     0.013 A 
INPUT-LIGAND-PDBQT: ATOM     21  C   UNL     1      -0.665   4.365   1.520  1.00  0.00     0.001 A 
INPUT-LIGAND-PDBQT: ATOM     22  C   UNL     1       1.407   4.163   0.275  1.00  0.00    -0.034 A 
INPUT-LIGAND-PDBQT: ATOM     23  C   UNL     1       0.581   4.876   1.157  1.00  0.00     0.005 A 
INPUT-LIGAND-PDBQT: BRANCH  22  24
INPUT-LIGAND-PDBQT: ATOM     24  C   UNL     1       2.783   4.683  -0.049  1.00  0.00     0.116 C 
INPUT-LIGAND-PDBQT: BRANCH  24  25
INPUT-LIGAND-PDBQT: ATOM     25  N   UNL     1       3.644   4.588   1.137  1.00  0.00    -0.312 NA
INPUT-LIGAND-PDBQT: ATOM     26  H   UNL     1       4.439   5.259   1.015  1.00  0.00     0.123 HD
INPUT-LIGAND-PDBQT: BRANCH  25  27
INPUT-LIGAND-PDBQT: ATOM     27  C   UNL     1       4.207   3.238   1.294  1.00  0.00     0.084 C 
INPUT-LIGAND-PDBQT: BRANCH  27  28
INPUT-LIGAND-PDBQT: ATOM     28  C   UNL     1       4.616   3.003   2.759  1.00  0.00    -0.004 C 
INPUT-LIGAND-PDBQT: ATOM     29  C   UNL     1       3.381   2.966   3.672  1.00  0.00     0.009 C 
INPUT-LIGAND-PDBQT: ATOM     30  C   UNL     1       5.410   1.697   2.890  1.00  0.00     0.009 C 
INPUT-LIGAND-PDBQT: ENDBRANCH  27  28
INPUT-LIGAND-PDBQT: ENDBRANCH  25  27
INPUT-LIGAND-PDBQT: ENDBRANCH  24  25
INPUT-LIGAND-PDBQT: ENDBRANCH  22  24
INPUT-LIGAND-PDBQT: ENDBRANCH   4  18
INPUT-LIGAND-PDBQT: TORSDOF 10


    FINAL DOCKED STATE:
    ________________________


Run:   1 / 20
Time taken for this run:   0.053s

DOCKED: MODEL        1
DOCKED: USER    Run = 1
DOCKED: USER
DOCKED: USER    Estimated Free Energy of Binding    =  -9.26 kcal/mol  [=(1)+(2)+(3)-(4)]
DOCKED: USER
DOCKED: USER    (1) Final Intermolecular Energy     = -12.24 kcal/mol
DOCKED: USER        vdW + Hbond + desolv Energy     = -12.14 kcal/mol
DOCKED: USER        Electrostatic Energy            =  -0.10 kcal/mol
DOCKED: USER        Moving Ligand-Fixed Receptor    = -12.24 kcal/mol
DOCKED: USER        Moving Ligand-Moving Receptor   =  +0.00 kcal/mol
DOCKED: USER    (2) Final Total Internal Energy     =  -1.50 kcal/mol
DOCKED: USER    (3) Torsional Free Energy           =  +2.98 kcal/mol
DOCKED: USER    (4) Unbound System's Energy         =  -1.50 kcal/mol
DOCKED: USER
DOCKED: USER
DOCKED: REMARK SMILES CCCCc1cc([C@H](C)c2ccc(-c3cccc(CNCC(C)C)c3)cc2)on1
DOCKED: REMARK SMILES IDX 10 1 11 2 12 3 13 4 26 5 27 6 8 7 9 8 7 9 5 10 6 11 29 12
DOCKED: REMARK SMILES IDX 28 13 4 14 3 15 2 16 1 17 14 18 15 19 25 20 16 21 18 22
DOCKED: REMARK SMILES IDX 17 23 19 24 20 25 21 27 22 28 23 29 24 30
DOCKED: REMARK H PARENT 20 26
DOCKED: USER                              x       y       z     vdW  Elec       q    Type
DOCKED: USER                           _______ _______ _______ _____ _____    ______ ____
DOCKED: ROOT
DOCKED: ATOM      1  C   UNL     1     139.247  70.310 222.663 -0.20 +0.01    -0.037 A  
DOCKED: ATOM      2  C   UNL     1     139.332  71.513 223.388 -0.33 -0.00    +0.005 A  
DOCKED: ATOM      3  C   UNL     1     140.082  72.586 222.898 -0.26 -0.00    +0.009 A  
DOCKED: ATOM      4  C   UNL     1     140.775  72.477 221.680 -0.27 +0.00    -0.018 A  
DOCKED: ATOM      5  C   UNL     1     140.706  71.267 220.967 -0.16 -0.00    +0.009 A  
DOCKED: ATOM      6  C   UNL     1     139.952  70.195 221.453 -0.14 -0.00    +0.005 A  
DOCKED: ENDROOT
DOCKED: BRANCH   1   7
DOCKED: ATOM      7  C   UNL     1     138.421  69.148 223.175 -0.22 -0.01    +0.085 C  
DOCKED: ATOM      8  C   UNL     1     138.353  68.026 222.131 -0.21 -0.00    +0.021 C  
DOCKED: BRANCH   7   9
DOCKED: ATOM      9  C   UNL     1     138.949  68.678 224.506 -0.29 -0.02    +0.144 A  
DOCKED: ATOM     10  C   UNL     1     139.589  68.506 226.570 -0.52 -0.01    +0.084 A  
DOCKED: ATOM     11  C   UNL     1     139.204  69.439 225.632 -0.39 -0.01    +0.073 A  
DOCKED: ATOM     12  N   UNL     1     139.555  67.273 226.028 -0.79 +0.01    -0.085 NA 
DOCKED: ATOM     13  O   UNL     1     139.171  67.415 224.793 -0.76 -0.02    -0.361 OA 
DOCKED: BRANCH  10  14
DOCKED: ATOM     14  C   UNL     1     139.902  68.782 228.011 -0.58 -0.01    +0.060 C  
DOCKED: BRANCH  14  15
DOCKED: ATOM     15  C   UNL     1     141.056  69.784 228.163 -0.58 -0.00    +0.006 C  
DOCKED: BRANCH  15  16
DOCKED: ATOM     16  C   UNL     1     140.594  71.237 227.987 -0.76 +0.00    -0.003 C  
DOCKED: ATOM     17  C   UNL     1     141.206  71.862 226.735 -0.74 -0.00    +0.004 C  
DOCKED: ENDBRANCH  15  16
DOCKED: ENDBRANCH  14  15
DOCKED: ENDBRANCH  10  14
DOCKED: ENDBRANCH   7   9
DOCKED: ENDBRANCH   1   7
DOCKED: BRANCH   4  18
DOCKED: ATOM     18  C   UNL     1     141.551  73.626 221.147 -0.27 +0.00    -0.018 A  
DOCKED: ATOM     19  C   UNL     1     142.818  73.425 220.568 -0.29 -0.00    +0.009 A  
DOCKED: ATOM     20  C   UNL     1     141.021  74.930 221.186 -0.31 -0.00    +0.013 A  
DOCKED: ATOM     21  C   UNL     1     143.534  74.500 220.039 -0.38 -0.00    +0.001 A  
DOCKED: ATOM     22  C   UNL     1     141.737  76.011 220.647 -0.26 +0.02    -0.034 A  
DOCKED: ATOM     23  C   UNL     1     142.998  75.787 220.074 -0.33 -0.00    +0.005 A  
DOCKED: BRANCH  22  24
DOCKED: ATOM     24  C   UNL     1     141.131  77.390 220.610 -0.23 -0.05    +0.116 C  
DOCKED: BRANCH  24  25
DOCKED: ATOM     25  N   UNL     1     141.861  78.280 221.521 -0.16 +0.19    -0.312 NA 
DOCKED: ATOM     26  H   UNL     1     142.855  77.952 221.568 -0.51 -0.14    +0.123 HD 
DOCKED: BRANCH  25  27
DOCKED: ATOM     27  C   UNL     1     141.304  78.241 222.882 -0.45 -0.03    +0.084 C  
DOCKED: BRANCH  27  28
DOCKED: ATOM     28  C   UNL     1     141.642  79.544 223.629 -0.61 +0.00    -0.004 C  
DOCKED: ATOM     29  C   UNL     1     142.952  80.151 223.104 -0.66 -0.00    +0.009 C  
DOCKED: ATOM     30  C   UNL     1     140.496  80.554 223.488 -0.47 -0.00    +0.009 C  
DOCKED: ENDBRANCH  27  28
DOCKED: ENDBRANCH  25  27
DOCKED: ENDBRANCH  24  25
DOCKED: ENDBRANCH  22  24
DOCKED: ENDBRANCH   4  18
DOCKED: TORSDOF 10
DOCKED: TER
DOCKED: ENDMDL
________________________________________________________________________________


    FINAL DOCKED STATE:
    ________________________


Run:   2 / 20
Time taken for this run:   0.053s

DOCKED: MODEL        2
DOCKED: USER    Run = 2
DOCKED: USER
DOCKED: USER    Estimated Free Energy of Binding    =  -8.68 kcal/mol  [=(1)+(2)+(3)-(4)]
DOCKED: USER
DOCKED: USER    (1) Final Intermolecular Energy     = -11.66 kcal/mol
DOCKED: USER        vdW + Hbond + desolv Energy     = -11.58 kcal/mol
DOCKED: USER        Electrostatic Energy            =  -0.08 kcal/mol
DOCKED: USER        Moving Ligand-Fixed Receptor    = -11.66 kcal/mol
DOCKED: USER        Moving Ligand-Moving Receptor   =  +0.00 kcal/mol
DOCKED: USER    (2) Final Total Internal Energy     =  -1.61 kcal/mol
DOCKED: USER    (3) Torsional Free Energy           =  +2.98 kcal/mol
DOCKED: USER    (4) Unbound System's Energy         =  -1.61 kcal/mol
DOCKED: USER
DOCKED: USER
DOCKED: REMARK SMILES CCCCc1cc([C@H](C)c2ccc(-c3cccc(CNCC(C)C)c3)cc2)on1
DOCKED: REMARK SMILES IDX 10 1 11 2 12 3 13 4 26 5 27 6 8 7 9 8 7 9 5 10 6 11 29 12
DOCKED: REMARK SMILES IDX 28 13 4 14 3 15 2 16 1 17 14 18 15 19 25 20 16 21 18 22
DOCKED: REMARK SMILES IDX 17 23 19 24 20 25 21 27 22 28 23 29 24 30
DOCKED: REMARK H PARENT 20 26
DOCKED: USER                              x       y       z     vdW  Elec       q    Type
DOCKED: USER                           _______ _______ _______ _____ _____    ______ ____
DOCKED: ROOT
DOCKED: ATOM      1  C   UNL     1     138.917  71.006 222.644 -0.21 +0.01    -0.037 A  
DOCKED: ATOM      2  C   UNL     1     138.344  72.279 222.466 -0.17 -0.00    +0.005 A  
DOCKED: ATOM      3  C   UNL     1     139.109  73.339 221.973 -0.23 -0.00    +0.009 A  
DOCKED: ATOM      4  C   UNL     1     140.467  73.156 221.659 -0.28 +0.00    -0.018 A  
DOCKED: ATOM      5  C   UNL     1     141.044  71.889 221.858 -0.26 -0.00    +0.009 A  
DOCKED: ATOM      6  C   UNL     1     140.278  70.827 222.346 -0.15 -0.00    +0.005 A  
DOCKED: ENDROOT
DOCKED: BRANCH   1   7
DOCKED: ATOM      7  C   UNL     1     138.092  69.845 223.160 -0.20 -0.01    +0.085 C  
DOCKED: ATOM      8  C   UNL     1     137.829  68.826 222.044 -0.15 -0.00    +0.021 C  
DOCKED: BRANCH   7   9
DOCKED: ATOM      9  C   UNL     1     138.750  69.232 224.369 -0.27 -0.02    +0.144 A  
DOCKED: ATOM     10  C   UNL     1     139.668  68.855 226.297 -0.47 -0.01    +0.084 A  
DOCKED: ATOM     11  C   UNL     1     139.269  69.885 225.472 -0.37 -0.01    +0.073 A  
DOCKED: ATOM     12  N   UNL     1     139.393  67.672 225.715 -0.84 +0.00    -0.085 NA 
DOCKED: ATOM     13  O   UNL     1     138.848  67.936 224.563 -0.57 -0.00    -0.361 OA 
DOCKED: BRANCH  10  14
DOCKED: ATOM     14  C   UNL     1     140.229  69.000 227.680 -0.60 -0.01    +0.060 C  
DOCKED: BRANCH  14  15
DOCKED: ATOM     15  C   UNL     1     139.912  70.376 228.284 -0.60 -0.00    +0.006 C  
DOCKED: BRANCH  15  16
DOCKED: ATOM     16  C   UNL     1     141.113  71.331 228.227 -0.70 +0.00    -0.003 C  
DOCKED: ATOM     17  C   UNL     1     141.233  71.984 226.853 -0.74 -0.00    +0.004 C  
DOCKED: ENDBRANCH  15  16
DOCKED: ENDBRANCH  14  15
DOCKED: ENDBRANCH  10  14
DOCKED: ENDBRANCH   7   9
DOCKED: ENDBRANCH   1   7
DOCKED: BRANCH   4  18
DOCKED: ATOM     18  C   UNL     1     141.273  74.277 221.110 -0.29 +0.00    -0.018 A  
DOCKED: ATOM     19  C   UNL     1     142.579  74.052 220.636 -0.29 -0.00    +0.009 A  
DOCKED: ATOM     20  C   UNL     1     140.735  75.575 221.028 -0.29 -0.00    +0.013 A  
DOCKED: ATOM     21  C   UNL     1     143.326  75.098 220.092 -0.39 -0.00    +0.001 A  
DOCKED: ATOM     22  C   UNL     1     141.482  76.627 220.474 -0.27 +0.02    -0.034 A  
DOCKED: ATOM     23  C   UNL     1     142.782  76.380 220.007 -0.31 -0.00    +0.005 A  
DOCKED: BRANCH  22  24
DOCKED: ATOM     24  C   UNL     1     140.873  77.995 220.306 -0.19 -0.05    +0.116 C  
DOCKED: BRANCH  24  25
DOCKED: ATOM     25  N   UNL     1     141.862  79.026 220.648 -0.14 +0.18    -0.312 NA 
DOCKED: ATOM     26  H   UNL     1     142.744  78.544 220.944 -0.41 -0.12    +0.123 HD 
DOCKED: BRANCH  25  27
DOCKED: ATOM     27  C   UNL     1     141.406  79.868 221.765 -0.37 -0.03    +0.084 C  
DOCKED: BRANCH  27  28
DOCKED: ATOM     28  C   UNL     1     142.352  79.708 222.968 -0.63 +0.00    -0.004 C  
DOCKED: ATOM     29  C   UNL     1     142.552  81.050 223.689 -0.63 -0.00    +0.009 C  
DOCKED: ATOM     30  C   UNL     1     141.803  78.660 223.945 -0.56 -0.00    +0.009 C  
DOCKED: ENDBRANCH  27  28
DOCKED: ENDBRANCH  25  27
DOCKED: ENDBRANCH  24  25
DOCKED: ENDBRANCH  22  24
DOCKED: ENDBRANCH   4  18
DOCKED: TORSDOF 10
DOCKED: TER
DOCKED: ENDMDL
________________________________________________________________________________


    FINAL DOCKED STATE:
    ________________________


Run:   3 / 20
Time taken for this run:   0.053s

DOCKED: MODEL        3
DOCKED: USER    Run = 3
DOCKED: USER
DOCKED: USER    Estimated Free Energy of Binding    =  -6.87 kcal/mol  [=(1)+(2)+(3)-(4)]
DOCKED: USER
DOCKED: USER    (1) Final Intermolecular Energy     =  -9.85 kcal/mol
DOCKED: USER        vdW + Hbond + desolv Energy     =  -9.80 kcal/mol
DOCKED: USER        Electrostatic Energy            =  -0.05 kcal/mol
DOCKED: USER        Moving Ligand-Fixed Receptor    =  -9.85 kcal/mol
DOCKED: USER        Moving Ligand-Moving Receptor   =  +0.00 kcal/mol
DOCKED: USER    (2) Final Total Internal Energy     =  -1.74 kcal/mol
DOCKED: USER    (3) Torsional Free Energy           =  +2.98 kcal/mol
DOCKED: USER    (4) Unbound System's Energy         =  -1.74 kcal/mol
DOCKED: USER
DOCKED: USER
DOCKED: REMARK SMILES CCCCc1cc([C@H](C)c2ccc(-c3cccc(CNCC(C)C)c3)cc2)on1
DOCKED: REMARK SMILES IDX 10 1 11 2 12 3 13 4 26 5 27 6 8 7 9 8 7 9 5 10 6 11 29 12
DOCKED: REMARK SMILES IDX 28 13 4 14 3 15 2 16 1 17 14 18 15 19 25 20 16 21 18 22
DOCKED: REMARK SMILES IDX 17 23 19 24 20 25 21 27 22 28 23 29 24 30
DOCKED: REMARK H PARENT 20 26
DOCKED: USER                              x       y       z     vdW  Elec       q    Type
DOCKED: USER                           _______ _______ _______ _____ _____    ______ ____
DOCKED: ROOT
DOCKED: ATOM      1  C   UNL     1     140.741  74.847 221.256 -0.30 +0.01    -0.037 A  
DOCKED: ATOM      2  C   UNL     1     141.393  73.648 221.599 -0.22 -0.00    +0.005 A  
DOCKED: ATOM      3  C   UNL     1     140.677  72.580 222.143 -0.31 -0.00    +0.009 A  
DOCKED: ATOM      4  C   UNL     1     139.293  72.689 222.370 -0.24 +0.00    -0.018 A  
DOCKED: ATOM      5  C   UNL     1     138.646  73.894 222.047 -0.13 -0.00    +0.009 A  
DOCKED: ATOM      6  C   UNL     1     139.362  74.961 221.497 -0.26 -0.00    +0.005 A  
DOCKED: ENDROOT
DOCKED: BRANCH   1   7
DOCKED: ATOM      7  C   UNL     1     141.505  76.004 220.647 -0.25 -0.04    +0.085 C  
DOCKED: ATOM      8  C   UNL     1     141.226  76.111 219.143 -0.14 -0.01    +0.021 C  
DOCKED: BRANCH   7   9
DOCKED: ATOM      9  C   UNL     1     141.202  77.280 221.390 -0.25 -0.07    +0.144 A  
DOCKED: ATOM     10  C   UNL     1     140.689  79.308 221.962 -0.29 -0.03    +0.084 A  
DOCKED: ATOM     11  C   UNL     1     141.010  78.543 220.861 -0.25 -0.03    +0.073 A  
DOCKED: ATOM     12  N   UNL     1     140.687  78.538 223.068 -0.38 +0.02    -0.085 NA 
DOCKED: ATOM     13  O   UNL     1     141.000  77.333 222.688 -0.28 +0.13    -0.361 OA 
DOCKED: BRANCH  10  14
DOCKED: ATOM     14  C   UNL     1     140.296  80.755 221.946 -0.28 -0.01    +0.060 C  
DOCKED: BRANCH  14  15
DOCKED: ATOM     15  C   UNL     1     141.460  81.667 222.360 -0.46 -0.00    +0.006 C  
DOCKED: BRANCH  15  16
DOCKED: ATOM     16  C   UNL     1     142.058  81.271 223.717 -0.62 +0.00    -0.003 C  
DOCKED: ATOM     17  C   UNL     1     143.370  80.510 223.539 -0.59 -0.00    +0.004 C  
DOCKED: ENDBRANCH  15  16
DOCKED: ENDBRANCH  14  15
DOCKED: ENDBRANCH  10  14
DOCKED: ENDBRANCH   7   9
DOCKED: ENDBRANCH   1   7
DOCKED: BRANCH   4  18
DOCKED: ATOM     18  C   UNL     1     138.526  71.543 222.925 -0.23 +0.00    -0.018 A  
DOCKED: ATOM     19  C   UNL     1     137.129  71.624 223.071 -0.18 -0.00    +0.009 A  
DOCKED: ATOM     20  C   UNL     1     139.180  70.349 223.285 -0.27 -0.00    +0.013 A  
DOCKED: ATOM     21  C   UNL     1     136.404  70.536 223.563 -0.18 -0.00    +0.001 A  
DOCKED: ATOM     22  C   UNL     1     138.451  69.252 223.773 -0.27 +0.00    -0.034 A  
DOCKED: ATOM     23  C   UNL     1     137.059  69.355 223.910 -0.23 -0.00    +0.005 A  
DOCKED: BRANCH  22  24
DOCKED: ATOM     24  C   UNL     1     139.140  67.947 224.074 -0.12 -0.01    +0.116 C  
DOCKED: BRANCH  24  25
DOCKED: ATOM     25  N   UNL     1     139.139  67.706 225.523 -0.76 -0.00    -0.312 NA 
DOCKED: ATOM     26  H   UNL     1     138.378  68.287 225.948 +0.06 -0.00    +0.123 HD 
DOCKED: BRANCH  25  27
DOCKED: ATOM     27  C   UNL     1     140.413  68.103 226.142 -0.55 -0.02    +0.084 C  
DOCKED: BRANCH  27  28
DOCKED: ATOM     28  C   UNL     1     140.254  69.455 226.860 -0.59 +0.00    -0.004 C  
DOCKED: ATOM     29  C   UNL     1     140.698  69.350 228.327 -0.62 -0.00    +0.009 C  
DOCKED: ATOM     30  C   UNL     1     141.061  70.542 226.140 -0.60 -0.00    +0.009 C  
DOCKED: ENDBRANCH  27  28
DOCKED: ENDBRANCH  25  27
DOCKED: ENDBRANCH  24  25
DOCKED: ENDBRANCH  22  24
DOCKED: ENDBRANCH   4  18
DOCKED: TORSDOF 10
DOCKED: TER
DOCKED: ENDMDL
________________________________________________________________________________


    FINAL DOCKED STATE:
    ________________________


Run:   4 / 20
Time taken for this run:   0.053s

DOCKED: MODEL        4
DOCKED: USER    Run = 4
DOCKED: USER
DOCKED: USER    Estimated Free Energy of Binding    =  -7.57 kcal/mol  [=(1)+(2)+(3)-(4)]
DOCKED: USER
DOCKED: USER    (1) Final Intermolecular Energy     = -10.55 kcal/mol
DOCKED: USER        vdW + Hbond + desolv Energy     = -10.47 kcal/mol
DOCKED: USER        Electrostatic Energy            =  -0.09 kcal/mol
DOCKED: USER        Moving Ligand-Fixed Receptor    = -10.55 kcal/mol
DOCKED: USER        Moving Ligand-Moving Receptor   =  +0.00 kcal/mol
DOCKED: USER    (2) Final Total Internal Energy     =  -1.92 kcal/mol
DOCKED: USER    (3) Torsional Free Energy           =  +2.98 kcal/mol
DOCKED: USER    (4) Unbound System's Energy         =  -1.92 kcal/mol
DOCKED: USER
DOCKED: USER
DOCKED: REMARK SMILES CCCCc1cc([C@H](C)c2ccc(-c3cccc(CNCC(C)C)c3)cc2)on1
DOCKED: REMARK SMILES IDX 10 1 11 2 12 3 13 4 26 5 27 6 8 7 9 8 7 9 5 10 6 11 29 12
DOCKED: REMARK SMILES IDX 28 13 4 14 3 15 2 16 1 17 14 18 15 19 25 20 16 21 18 22
DOCKED: REMARK SMILES IDX 17 23 19 24 20 25 21 27 22 28 23 29 24 30
DOCKED: REMARK H PARENT 20 26
DOCKED: USER                              x       y       z     vdW  Elec       q    Type
DOCKED: USER                           _______ _______ _______ _____ _____    ______ ____
DOCKED: ROOT
DOCKED: ATOM      1  C   UNL     1     139.545  74.016 221.957 -0.27 +0.01    -0.037 A  
DOCKED: ATOM      2  C   UNL     1     138.748  75.121 222.312 -0.20 -0.00    +0.005 A  
DOCKED: ATOM      3  C   UNL     1     139.262  76.418 222.243 -0.33 -0.00    +0.009 A  
DOCKED: ATOM      4  C   UNL     1     140.588  76.641 221.831 -0.37 +0.01    -0.018 A  
DOCKED: ATOM      5  C   UNL     1     141.389  75.535 221.497 -0.31 -0.00    +0.009 A  
DOCKED: ATOM      6  C   UNL     1     140.874  74.237 221.560 -0.31 -0.00    +0.005 A  
DOCKED: ENDROOT
DOCKED: BRANCH   1   7
DOCKED: ATOM      7  C   UNL     1     138.991  72.607 222.009 -0.20 -0.02    +0.085 C  
DOCKED: ATOM      8  C   UNL     1     139.281  71.859 220.701 -0.10 -0.00    +0.021 C  
DOCKED: BRANCH   7   9
DOCKED: ATOM      9  C   UNL     1     139.513  71.885 223.224 -0.25 -0.03    +0.144 A  
DOCKED: ATOM     10  C   UNL     1     139.853  70.512 224.868 -0.39 -0.01    +0.084 A  
DOCKED: ATOM     11  C   UNL     1     138.925  70.832 223.901 -0.30 -0.02    +0.073 A  
DOCKED: ATOM     12  N   UNL     1     140.923  71.324 224.760 -0.40 +0.01    -0.085 NA 
DOCKED: ATOM     13  O   UNL     1     140.683  72.133 223.769 -0.27 +0.03    -0.361 OA 
DOCKED: BRANCH  10  14
DOCKED: ATOM     14  C   UNL     1     139.759  69.373 225.839 -0.45 -0.01    +0.060 C  
DOCKED: BRANCH  14  15
DOCKED: ATOM     15  C   UNL     1     140.721  69.549 227.022 -0.60 -0.00    +0.006 C  
DOCKED: BRANCH  15  16
DOCKED: ATOM     16  C   UNL     1     140.251  70.636 228.000 -0.68 +0.00    -0.003 C  
DOCKED: ATOM     17  C   UNL     1     141.068  71.916 227.835 -0.83 -0.00    +0.004 C  
DOCKED: ENDBRANCH  15  16
DOCKED: ENDBRANCH  14  15
DOCKED: ENDBRANCH  10  14
DOCKED: ENDBRANCH   7   9
DOCKED: ENDBRANCH   1   7
DOCKED: BRANCH   4  18
DOCKED: ATOM     18  C   UNL     1     141.126  78.023 221.733 -0.37 +0.01    -0.018 A  
DOCKED: ATOM     19  C   UNL     1     141.463  78.741 222.896 -0.53 -0.00    +0.009 A  
DOCKED: ATOM     20  C   UNL     1     141.335  78.624 220.478 -0.28 -0.01    +0.013 A  
DOCKED: ATOM     21  C   UNL     1     141.998  80.027 222.804 -0.58 -0.00    +0.001 A  
DOCKED: ATOM     22  C   UNL     1     141.881  79.915 220.383 -0.29 +0.02    -0.034 A  
DOCKED: ATOM     23  C   UNL     1     142.209  80.613 221.555 -0.43 -0.00    +0.005 A  
DOCKED: BRANCH  22  24
DOCKED: ATOM     24  C   UNL     1     142.185  80.522 219.039 -0.26 -0.07    +0.116 C  
DOCKED: BRANCH  24  25
DOCKED: ATOM     25  N   UNL     1     142.947  79.568 218.222 -0.18 +0.32    -0.312 NA 
DOCKED: ATOM     26  H   UNL     1     143.646  80.108 217.660 -0.50 -0.22    +0.123 HD 
DOCKED: BRANCH  25  27
DOCKED: ATOM     27  C   UNL     1     142.077  78.837 217.287 -0.22 -0.07    +0.084 C  
DOCKED: BRANCH  27  28
DOCKED: ATOM     28  C   UNL     1     142.279  77.320 217.453 -0.23 +0.00    -0.004 C  
DOCKED: ATOM     29  C   UNL     1     143.289  77.023 218.572 -0.27 -0.01    +0.009 C  
DOCKED: ATOM     30  C   UNL     1     140.940  76.633 217.753 -0.07 -0.00    +0.009 C  
DOCKED: ENDBRANCH  27  28
DOCKED: ENDBRANCH  25  27
DOCKED: ENDBRANCH  24  25
DOCKED: ENDBRANCH  22  24
DOCKED: ENDBRANCH   4  18
DOCKED: TORSDOF 10
DOCKED: TER
DOCKED: ENDMDL
________________________________________________________________________________


    FINAL DOCKED STATE:
    ________________________


Run:   5 / 20
Time taken for this run:   0.053s

DOCKED: MODEL        5
DOCKED: USER    Run = 5
DOCKED: USER
DOCKED: USER    Estimated Free Energy of Binding    =  -9.07 kcal/mol  [=(1)+(2)+(3)-(4)]
DOCKED: USER
DOCKED: USER    (1) Final Intermolecular Energy     = -12.05 kcal/mol
DOCKED: USER        vdW + Hbond + desolv Energy     = -11.96 kcal/mol
DOCKED: USER        Electrostatic Energy            =  -0.09 kcal/mol
DOCKED: USER        Moving Ligand-Fixed Receptor    = -12.05 kcal/mol
DOCKED: USER        Moving Ligand-Moving Receptor   =  +0.00 kcal/mol
DOCKED: USER    (2) Final Total Internal Energy     =  -1.40 kcal/mol
DOCKED: USER    (3) Torsional Free Energy           =  +2.98 kcal/mol
DOCKED: USER    (4) Unbound System's Energy         =  -1.40 kcal/mol
DOCKED: USER
DOCKED: USER
DOCKED: REMARK SMILES CCCCc1cc([C@H](C)c2ccc(-c3cccc(CNCC(C)C)c3)cc2)on1
DOCKED: REMARK SMILES IDX 10 1 11 2 12 3 13 4 26 5 27 6 8 7 9 8 7 9 5 10 6 11 29 12
DOCKED: REMARK SMILES IDX 28 13 4 14 3 15 2 16 1 17 14 18 15 19 25 20 16 21 18 22
DOCKED: REMARK SMILES IDX 17 23 19 24 20 25 21 27 22 28 23 29 24 30
DOCKED: REMARK H PARENT 20 26
DOCKED: USER                              x       y       z     vdW  Elec       q    Type
DOCKED: USER                           _______ _______ _______ _____ _____    ______ ____
DOCKED: ROOT
DOCKED: ATOM      1  C   UNL     1     138.595  70.738 223.098 -0.23 +0.01    -0.037 A  
DOCKED: ATOM      2  C   UNL     1     139.986  70.808 223.303 -0.31 -0.00    +0.005 A  
DOCKED: ATOM      3  C   UNL     1     140.737  71.837 222.730 -0.31 -0.00    +0.009 A  
DOCKED: ATOM      4  C   UNL     1     140.119  72.813 221.929 -0.29 +0.00    -0.018 A  
DOCKED: ATOM      5  C   UNL     1     138.733  72.730 221.708 -0.18 -0.00    +0.009 A  
DOCKED: ATOM      6  C   UNL     1     137.980  71.704 222.285 -0.16 -0.00    +0.005 A  
DOCKED: ENDROOT
DOCKED: BRANCH   1   7
DOCKED: ATOM      7  C   UNL     1     137.768  69.638 223.730 -0.23 -0.01    +0.085 C  
DOCKED: ATOM      8  C   UNL     1     137.296  68.633 222.672 -0.18 -0.00    +0.021 C  
DOCKED: BRANCH   7   9
DOCKED: ATOM      9  C   UNL     1     138.535  68.987 224.853 -0.30 -0.01    +0.144 A  
DOCKED: ATOM     10  C   UNL     1     139.517  68.508 226.726 -0.51 -0.01    +0.084 A  
DOCKED: ATOM     11  C   UNL     1     138.929  69.556 226.050 -0.35 -0.01    +0.073 A  
DOCKED: ATOM     12  N   UNL     1     139.464  67.392 225.973 -0.86 +0.00    -0.085 NA 
DOCKED: ATOM     13  O   UNL     1     138.873  67.717 224.860 -0.66 -0.03    -0.361 OA 
DOCKED: BRANCH  10  14
DOCKED: ATOM     14  C   UNL     1     140.049  68.551 228.128 -0.58 -0.01    +0.060 C  
DOCKED: BRANCH  14  15
DOCKED: ATOM     15  C   UNL     1     141.100  69.657 228.306 -0.55 -0.00    +0.006 C  
DOCKED: BRANCH  15  16
DOCKED: ATOM     16  C   UNL     1     140.479  71.061 228.283 -0.65 +0.00    -0.003 C  
DOCKED: ATOM     17  C   UNL     1     141.085  71.912 227.169 -0.81 -0.00    +0.004 C  
DOCKED: ENDBRANCH  15  16
DOCKED: ENDBRANCH  14  15
DOCKED: ENDBRANCH  10  14
DOCKED: ENDBRANCH   7   9
DOCKED: ENDBRANCH   1   7
DOCKED: BRANCH   4  18
DOCKED: ATOM     18  C   UNL     1     140.915  73.922 221.341 -0.29 +0.00    -0.018 A  
DOCKED: ATOM     19  C   UNL     1     142.041  73.648 220.544 -0.25 -0.00    +0.009 A  
DOCKED: ATOM     20  C   UNL     1     140.538  75.263 221.548 -0.34 -0.00    +0.013 A  
DOCKED: ATOM     21  C   UNL     1     142.771  74.689 219.966 -0.31 -0.00    +0.001 A  
DOCKED: ATOM     22  C   UNL     1     141.266  76.310 220.961 -0.29 +0.01    -0.034 A  
DOCKED: ATOM     23  C   UNL     1     142.386  76.014 220.169 -0.29 -0.00    +0.005 A  
DOCKED: BRANCH  22  24
DOCKED: ATOM     24  C   UNL     1     140.811  77.738 221.110 -0.25 -0.05    +0.116 C  
DOCKED: BRANCH  24  25
DOCKED: ATOM     25  N   UNL     1     141.955  78.593 221.453 -0.17 +0.19    -0.312 NA 
DOCKED: ATOM     26  H   UNL     1     142.820  78.004 221.424 -0.50 -0.14    +0.123 HD 
DOCKED: BRANCH  25  27
DOCKED: ATOM     27  C   UNL     1     141.829  79.152 222.809 -0.51 -0.03    +0.084 C  
DOCKED: BRANCH  27  28
DOCKED: ATOM     28  C   UNL     1     142.383  80.587 222.842 -0.62 +0.00    -0.004 C  
DOCKED: ATOM     29  C   UNL     1     141.284  81.605 222.498 -0.46 -0.00    +0.009 C  
DOCKED: ATOM     30  C   UNL     1     142.979  80.899 224.220 -0.56 -0.00    +0.009 C  
DOCKED: ENDBRANCH  27  28
DOCKED: ENDBRANCH  25  27
DOCKED: ENDBRANCH  24  25
DOCKED: ENDBRANCH  22  24
DOCKED: ENDBRANCH   4  18
DOCKED: TORSDOF 10
DOCKED: TER
DOCKED: ENDMDL
________________________________________________________________________________


    FINAL DOCKED STATE:
    ________________________


Run:   6 / 20
Time taken for this run:   0.053s

DOCKED: MODEL        6
DOCKED: USER    Run = 6
DOCKED: USER
DOCKED: USER    Estimated Free Energy of Binding    =  -9.23 kcal/mol  [=(1)+(2)+(3)-(4)]
DOCKED: USER
DOCKED: USER    (1) Final Intermolecular Energy     = -12.21 kcal/mol
DOCKED: USER        vdW + Hbond + desolv Energy     = -12.11 kcal/mol
DOCKED: USER        Electrostatic Energy            =  -0.10 kcal/mol
DOCKED: USER        Moving Ligand-Fixed Receptor    = -12.21 kcal/mol
DOCKED: USER        Moving Ligand-Moving Receptor   =  +0.00 kcal/mol
DOCKED: USER    (2) Final Total Internal Energy     =  -1.51 kcal/mol
DOCKED: USER    (3) Torsional Free Energy           =  +2.98 kcal/mol
DOCKED: USER    (4) Unbound System's Energy         =  -1.51 kcal/mol
DOCKED: USER
DOCKED: USER
DOCKED: REMARK SMILES CCCCc1cc([C@H](C)c2ccc(-c3cccc(CNCC(C)C)c3)cc2)on1
DOCKED: REMARK SMILES IDX 10 1 11 2 12 3 13 4 26 5 27 6 8 7 9 8 7 9 5 10 6 11 29 12
DOCKED: REMARK SMILES IDX 28 13 4 14 3 15 2 16 1 17 14 18 15 19 25 20 16 21 18 22
DOCKED: REMARK SMILES IDX 17 23 19 24 20 25 21 27 22 28 23 29 24 30
DOCKED: REMARK H PARENT 20 26
DOCKED: USER                              x       y       z     vdW  Elec       q    Type
DOCKED: USER                           _______ _______ _______ _____ _____    ______ ____
DOCKED: ROOT
DOCKED: ATOM      1  C   UNL     1     138.622  70.885 223.008 -0.23 +0.01    -0.037 A  
DOCKED: ATOM      2  C   UNL     1     138.026  72.018 222.422 -0.18 -0.00    +0.005 A  
DOCKED: ATOM      3  C   UNL     1     138.816  73.032 221.874 -0.20 -0.00    +0.009 A  
DOCKED: ATOM      4  C   UNL     1     140.219  72.944 221.911 -0.29 +0.00    -0.018 A  
DOCKED: ATOM      5  C   UNL     1     140.812  71.823 222.516 -0.28 -0.00    +0.009 A  
DOCKED: ATOM      6  C   UNL     1     140.023  70.805 223.059 -0.26 -0.00    +0.005 A  
DOCKED: ENDROOT
DOCKED: BRANCH   1   7
DOCKED: ATOM      7  C   UNL     1     137.775  69.771 223.587 -0.22 -0.01    +0.085 C  
DOCKED: ATOM      8  C   UNL     1     137.294  68.821 222.482 -0.16 -0.00    +0.021 C  
DOCKED: BRANCH   7   9
DOCKED: ATOM      9  C   UNL     1     138.524  69.060 224.684 -0.28 -0.01    +0.144 A  
DOCKED: ATOM     10  C   UNL     1     139.495  68.490 226.537 -0.51 -0.01    +0.084 A  
DOCKED: ATOM     11  C   UNL     1     138.936  69.576 225.900 -0.35 -0.01    +0.073 A  
DOCKED: ATOM     12  N   UNL     1     139.410  67.402 225.746 -0.93 +0.00    -0.085 NA 
DOCKED: ATOM     13  O   UNL     1     138.827  67.782 224.646 -0.61 -0.02    -0.361 OA 
DOCKED: BRANCH  10  14
DOCKED: ATOM     14  C   UNL     1     140.030  68.469 227.938 -0.59 -0.01    +0.060 C  
DOCKED: BRANCH  14  15
DOCKED: ATOM     15  C   UNL     1     141.063  69.581 228.173 -0.59 -0.00    +0.006 C  
DOCKED: BRANCH  15  16
DOCKED: ATOM     16  C   UNL     1     140.417  70.972 228.246 -0.65 +0.00    -0.003 C  
DOCKED: ATOM     17  C   UNL     1     141.069  71.935 227.257 -0.82 -0.00    +0.004 C  
DOCKED: ENDBRANCH  15  16
DOCKED: ENDBRANCH  14  15
DOCKED: ENDBRANCH  10  14
DOCKED: ENDBRANCH   7   9
DOCKED: ENDBRANCH   1   7
DOCKED: BRANCH   4  18
DOCKED: ATOM     18  C   UNL     1     141.058  74.011 221.305 -0.29 +0.00    -0.018 A  
DOCKED: ATOM     19  C   UNL     1     142.237  73.682 220.611 -0.27 -0.00    +0.009 A  
DOCKED: ATOM     20  C   UNL     1     140.673  75.362 221.391 -0.33 -0.00    +0.013 A  
DOCKED: ATOM     21  C   UNL     1     143.010  74.681 220.015 -0.34 -0.00    +0.001 A  
DOCKED: ATOM     22  C   UNL     1     141.445  76.367 220.785 -0.29 +0.02    -0.034 A  
DOCKED: ATOM     23  C   UNL     1     142.617  76.017 220.098 -0.32 -0.00    +0.005 A  
DOCKED: BRANCH  22  24
DOCKED: ATOM     24  C   UNL     1     140.986  77.801 220.802 -0.23 -0.05    +0.116 C  
DOCKED: BRANCH  24  25
DOCKED: ATOM     25  N   UNL     1     141.848  78.590 221.691 -0.20 +0.18    -0.312 NA 
DOCKED: ATOM     26  H   UNL     1     142.822  78.214 221.616 -0.50 -0.13    +0.123 HD 
DOCKED: BRANCH  25  27
DOCKED: ATOM     27  C   UNL     1     141.425  78.482 223.096 -0.50 -0.03    +0.084 C  
DOCKED: BRANCH  27  28
DOCKED: ATOM     28  C   UNL     1     141.569  79.844 223.798 -0.59 +0.00    -0.004 C  
DOCKED: ATOM     29  C   UNL     1     142.917  80.495 223.455 -0.68 -0.00    +0.009 C  
DOCKED: ATOM     30  C   UNL     1     140.416  80.775 223.403 -0.45 -0.00    +0.009 C  
DOCKED: ENDBRANCH  27  28
DOCKED: ENDBRANCH  25  27
DOCKED: ENDBRANCH  24  25
DOCKED: ENDBRANCH  22  24
DOCKED: ENDBRANCH   4  18
DOCKED: TORSDOF 10
DOCKED: TER
DOCKED: ENDMDL
________________________________________________________________________________


    FINAL DOCKED STATE:
    ________________________


Run:   7 / 20
Time taken for this run:   0.053s

DOCKED: MODEL        7
DOCKED: USER    Run = 7
DOCKED: USER
DOCKED: USER    Estimated Free Energy of Binding    =  -9.13 kcal/mol  [=(1)+(2)+(3)-(4)]
DOCKED: USER
DOCKED: USER    (1) Final Intermolecular Energy     = -12.12 kcal/mol
DOCKED: USER        vdW + Hbond + desolv Energy     = -12.01 kcal/mol
DOCKED: USER        Electrostatic Energy            =  -0.10 kcal/mol
DOCKED: USER        Moving Ligand-Fixed Receptor    = -12.12 kcal/mol
DOCKED: USER        Moving Ligand-Moving Receptor   =  +0.00 kcal/mol
DOCKED: USER    (2) Final Total Internal Energy     =  -1.49 kcal/mol
DOCKED: USER    (3) Torsional Free Energy           =  +2.98 kcal/mol
DOCKED: USER    (4) Unbound System's Energy         =  -1.49 kcal/mol
DOCKED: USER
DOCKED: USER
DOCKED: REMARK SMILES CCCCc1cc([C@H](C)c2ccc(-c3cccc(CNCC(C)C)c3)cc2)on1
DOCKED: REMARK SMILES IDX 10 1 11 2 12 3 13 4 26 5 27 6 8 7 9 8 7 9 5 10 6 11 29 12
DOCKED: REMARK SMILES IDX 28 13 4 14 3 15 2 16 1 17 14 18 15 19 25 20 16 21 18 22
DOCKED: REMARK SMILES IDX 17 23 19 24 20 25 21 27 22 28 23 29 24 30
DOCKED: REMARK H PARENT 20 26
DOCKED: USER                              x       y       z     vdW  Elec       q    Type
DOCKED: USER                           _______ _______ _______ _____ _____    ______ ____
DOCKED: ROOT
DOCKED: ATOM      1  C   UNL     1     138.669  70.555 223.087 -0.23 +0.01    -0.037 A  
DOCKED: ATOM      2  C   UNL     1     137.957  71.533 222.368 -0.16 -0.00    +0.005 A  
DOCKED: ATOM      3  C   UNL     1     138.608  72.668 221.879 -0.19 -0.00    +0.009 A  
DOCKED: ATOM      4  C   UNL     1     139.982  72.860 222.108 -0.29 +0.00    -0.018 A  
DOCKED: ATOM      5  C   UNL     1     140.687  71.892 222.845 -0.33 -0.00    +0.009 A  
DOCKED: ATOM      6  C   UNL     1     140.038  70.753 223.329 -0.29 -0.00    +0.005 A  
DOCKED: ENDROOT
DOCKED: BRANCH   1   7
DOCKED: ATOM      7  C   UNL     1     137.977  69.310 223.604 -0.23 -0.01    +0.085 C  
DOCKED: ATOM      8  C   UNL     1     137.875  68.246 222.504 -0.20 -0.00    +0.021 C  
DOCKED: BRANCH   7   9
DOCKED: ATOM      9  C   UNL     1     138.668  68.806 224.844 -0.30 -0.01    +0.144 A  
DOCKED: ATOM     10  C   UNL     1     139.530  68.566 226.820 -0.51 -0.01    +0.084 A  
DOCKED: ATOM     11  C   UNL     1     138.995  69.521 225.982 -0.36 -0.01    +0.073 A  
DOCKED: ATOM     12  N   UNL     1     139.512  67.364 226.212 -0.77 +0.01    -0.085 NA 
DOCKED: ATOM     13  O   UNL     1     138.993  67.546 225.033 -0.71 -0.04    -0.361 OA 
DOCKED: BRANCH  10  14
DOCKED: ATOM     14  C   UNL     1     139.977  68.785 228.235 -0.58 -0.01    +0.060 C  
DOCKED: BRANCH  14  15
DOCKED: ATOM     15  C   UNL     1     141.083  69.846 228.327 -0.55 -0.00    +0.006 C  
DOCKED: BRANCH  15  16
DOCKED: ATOM     16  C   UNL     1     140.545  71.271 228.132 -0.73 +0.00    -0.003 C  
DOCKED: ATOM     17  C   UNL     1     141.120  71.909 226.870 -0.77 -0.00    +0.004 C  
DOCKED: ENDBRANCH  15  16
DOCKED: ENDBRANCH  14  15
DOCKED: ENDBRANCH  10  14
DOCKED: ENDBRANCH   7   9
DOCKED: ENDBRANCH   1   7
DOCKED: BRANCH   4  18
DOCKED: ATOM     18  C   UNL     1     140.679  74.055 221.566 -0.31 +0.00    -0.018 A  
DOCKED: ATOM     19  C   UNL     1     141.728  73.909 220.640 -0.26 -0.00    +0.009 A  
DOCKED: ATOM     20  C   UNL     1     140.283  75.351 221.947 -0.32 -0.00    +0.013 A  
DOCKED: ATOM     21  C   UNL     1     142.363  75.033 220.106 -0.29 -0.00    +0.001 A  
DOCKED: ATOM     22  C   UNL     1     140.915  76.482 221.405 -0.33 +0.01    -0.034 A  
DOCKED: ATOM     23  C   UNL     1     141.959  76.313 220.483 -0.26 -0.00    +0.005 A  
DOCKED: BRANCH  22  24
DOCKED: ATOM     24  C   UNL     1     140.432  77.867 221.746 -0.28 -0.04    +0.116 C  
DOCKED: BRANCH  24  25
DOCKED: ATOM     25  N   UNL     1     141.551  78.675 222.250 -0.22 +0.14    -0.312 NA 
DOCKED: ATOM     26  H   UNL     1     142.414  78.083 222.228 -0.41 -0.11    +0.123 HD 
DOCKED: BRANCH  25  27
DOCKED: ATOM     27  C   UNL     1     141.329  79.106 223.639 -0.53 -0.02    +0.084 C  
DOCKED: BRANCH  27  28
DOCKED: ATOM     28  C   UNL     1     141.808  80.556 223.826 -0.60 +0.00    -0.004 C  
DOCKED: ATOM     29  C   UNL     1     143.342  80.627 223.838 -0.55 -0.00    +0.009 C  
DOCKED: ATOM     30  C   UNL     1     141.245  81.453 222.715 -0.47 -0.00    +0.009 C  
DOCKED: ENDBRANCH  27  28
DOCKED: ENDBRANCH  25  27
DOCKED: ENDBRANCH  24  25
DOCKED: ENDBRANCH  22  24
DOCKED: ENDBRANCH   4  18
DOCKED: TORSDOF 10
DOCKED: TER
DOCKED: ENDMDL
________________________________________________________________________________


    FINAL DOCKED STATE:
    ________________________


Run:   8 / 20
Time taken for this run:   0.053s

DOCKED: MODEL        8
DOCKED: USER    Run = 8
DOCKED: USER
DOCKED: USER    Estimated Free Energy of Binding    =  -8.37 kcal/mol  [=(1)+(2)+(3)-(4)]
DOCKED: USER
DOCKED: USER    (1) Final Intermolecular Energy     = -11.35 kcal/mol
DOCKED: USER        vdW + Hbond + desolv Energy     = -11.24 kcal/mol
DOCKED: USER        Electrostatic Energy            =  -0.11 kcal/mol
DOCKED: USER        Moving Ligand-Fixed Receptor    = -11.35 kcal/mol
DOCKED: USER        Moving Ligand-Moving Receptor   =  +0.00 kcal/mol
DOCKED: USER    (2) Final Total Internal Energy     =  -1.90 kcal/mol
DOCKED: USER    (3) Torsional Free Energy           =  +2.98 kcal/mol
DOCKED: USER    (4) Unbound System's Energy         =  -1.90 kcal/mol
DOCKED: USER
DOCKED: USER
DOCKED: REMARK SMILES CCCCc1cc([C@H](C)c2ccc(-c3cccc(CNCC(C)C)c3)cc2)on1
DOCKED: REMARK SMILES IDX 10 1 11 2 12 3 13 4 26 5 27 6 8 7 9 8 7 9 5 10 6 11 29 12
DOCKED: REMARK SMILES IDX 28 13 4 14 3 15 2 16 1 17 14 18 15 19 25 20 16 21 18 22
DOCKED: REMARK SMILES IDX 17 23 19 24 20 25 21 27 22 28 23 29 24 30
DOCKED: REMARK H PARENT 20 26
DOCKED: USER                              x       y       z     vdW  Elec       q    Type
DOCKED: USER                           _______ _______ _______ _____ _____    ______ ____
DOCKED: ROOT
DOCKED: ATOM      1  C   UNL     1     138.904  70.549 222.663 -0.20 +0.01    -0.037 A  
DOCKED: ATOM      2  C   UNL     1     138.035  71.653 222.571 -0.18 -0.00    +0.005 A  
DOCKED: ATOM      3  C   UNL     1     138.527  72.919 222.247 -0.13 -0.00    +0.009 A  
DOCKED: ATOM      4  C   UNL     1     139.900  73.115 222.019 -0.28 +0.00    -0.018 A  
DOCKED: ATOM      5  C   UNL     1     140.770  72.017 222.131 -0.29 -0.00    +0.009 A  
DOCKED: ATOM      6  C   UNL     1     140.278  70.748 222.450 -0.12 -0.00    +0.005 A  
DOCKED: ENDROOT
DOCKED: BRANCH   1   7
DOCKED: ATOM      7  C   UNL     1     138.378  69.168 222.995 -0.20 -0.01    +0.085 C  
DOCKED: ATOM      8  C   UNL     1     138.755  68.163 221.899 -0.19 -0.00    +0.021 C  
DOCKED: BRANCH   7   9
DOCKED: ATOM      9  C   UNL     1     138.846  68.745 224.363 -0.28 -0.02    +0.144 A  
DOCKED: ATOM     10  C   UNL     1     139.452  68.660 226.444 -0.48 -0.01    +0.084 A  
DOCKED: ATOM     11  C   UNL     1     139.168  69.556 225.436 -0.37 -0.01    +0.073 A  
DOCKED: ATOM     12  N   UNL     1     139.299  67.400 225.990 -0.93 +0.00    -0.085 NA 
DOCKED: ATOM     13  O   UNL     1     138.939  67.490 224.743 -0.64 -0.04    -0.361 OA 
DOCKED: BRANCH  10  14
DOCKED: ATOM     14  C   UNL     1     139.781  69.006 227.865 -0.57 -0.01    +0.060 C  
DOCKED: BRANCH  14  15
DOCKED: ATOM     15  C   UNL     1     140.987  69.953 227.958 -0.61 -0.00    +0.006 C  
DOCKED: BRANCH  15  16
DOCKED: ATOM     16  C   UNL     1     140.567  71.427 228.049 -0.77 +0.00    -0.003 C  
DOCKED: ATOM     17  C   UNL     1     141.442  72.305 227.158 -0.75 -0.00    +0.004 C  
DOCKED: ENDBRANCH  15  16
DOCKED: ENDBRANCH  14  15
DOCKED: ENDBRANCH  10  14
DOCKED: ENDBRANCH   7   9
DOCKED: ENDBRANCH   1   7
DOCKED: BRANCH   4  18
DOCKED: ATOM     18  C   UNL     1     140.420  74.457 221.648 -0.30 +0.00    -0.018 A  
DOCKED: ATOM     19  C   UNL     1     139.834  75.621 222.179 -0.31 -0.00    +0.009 A  
DOCKED: ATOM     20  C   UNL     1     141.524  74.585 220.783 -0.28 -0.00    +0.013 A  
DOCKED: ATOM     21  C   UNL     1     140.342  76.881 221.856 -0.36 -0.00    +0.001 A  
DOCKED: ATOM     22  C   UNL     1     142.040  75.851 220.463 -0.27 +0.02    -0.034 A  
DOCKED: ATOM     23  C   UNL     1     141.441  76.999 221.005 -0.30 -0.00    +0.005 A  
DOCKED: BRANCH  22  24
DOCKED: ATOM     24  C   UNL     1     143.274  75.983 219.609 -0.34 -0.07    +0.116 C  
DOCKED: BRANCH  24  25
DOCKED: ATOM     25  N   UNL     1     144.320  75.077 220.102 -0.24 +0.17    -0.312 NA 
DOCKED: ATOM     26  H   UNL     1     145.243  75.561 219.998 -0.11 -0.10    +0.123 HD 
DOCKED: BRANCH  25  27
DOCKED: ATOM     27  C   UNL     1     144.369  73.829 219.324 -0.28 -0.02    +0.084 C  
DOCKED: BRANCH  27  28
DOCKED: ATOM     28  C   UNL     1     145.030  72.714 220.155 -0.47 +0.00    -0.004 C  
DOCKED: ATOM     29  C   UNL     1     145.939  73.308 221.241 -0.71 -0.00    +0.009 C  
DOCKED: ATOM     30  C   UNL     1     143.961  71.818 220.793 -0.27 -0.00    +0.009 C  
DOCKED: ENDBRANCH  27  28
DOCKED: ENDBRANCH  25  27
DOCKED: ENDBRANCH  24  25
DOCKED: ENDBRANCH  22  24
DOCKED: ENDBRANCH   4  18
DOCKED: TORSDOF 10
DOCKED: TER
DOCKED: ENDMDL
________________________________________________________________________________


    FINAL DOCKED STATE:
    ________________________


Run:   9 / 20
Time taken for this run:   0.053s

DOCKED: MODEL        9
DOCKED: USER    Run = 9
DOCKED: USER
DOCKED: USER    Estimated Free Energy of Binding    =  -8.28 kcal/mol  [=(1)+(2)+(3)-(4)]
DOCKED: USER
DOCKED: USER    (1) Final Intermolecular Energy     = -11.26 kcal/mol
DOCKED: USER        vdW + Hbond + desolv Energy     = -11.20 kcal/mol
DOCKED: USER        Electrostatic Energy            =  -0.06 kcal/mol
DOCKED: USER        Moving Ligand-Fixed Receptor    = -11.26 kcal/mol
DOCKED: USER        Moving Ligand-Moving Receptor   =  +0.00 kcal/mol
DOCKED: USER    (2) Final Total Internal Energy     =  -1.70 kcal/mol
DOCKED: USER    (3) Torsional Free Energy           =  +2.98 kcal/mol
DOCKED: USER    (4) Unbound System's Energy         =  -1.70 kcal/mol
DOCKED: USER
DOCKED: USER
DOCKED: REMARK SMILES CCCCc1cc([C@H](C)c2ccc(-c3cccc(CNCC(C)C)c3)cc2)on1
DOCKED: REMARK SMILES IDX 10 1 11 2 12 3 13 4 26 5 27 6 8 7 9 8 7 9 5 10 6 11 29 12
DOCKED: REMARK SMILES IDX 28 13 4 14 3 15 2 16 1 17 14 18 15 19 25 20 16 21 18 22
DOCKED: REMARK SMILES IDX 17 23 19 24 20 25 21 27 22 28 23 29 24 30
DOCKED: REMARK H PARENT 20 26
DOCKED: USER                              x       y       z     vdW  Elec       q    Type
DOCKED: USER                           _______ _______ _______ _____ _____    ______ ____
DOCKED: ROOT
DOCKED: ATOM      1  C   UNL     1     139.249  70.476 222.611 -0.20 +0.01    -0.037 A  
DOCKED: ATOM      2  C   UNL     1     139.627  70.347 221.261 -0.14 -0.00    +0.005 A  
DOCKED: ATOM      3  C   UNL     1     140.571  71.211 220.702 -0.14 -0.00    +0.009 A  
DOCKED: ATOM      4  C   UNL     1     141.151  72.233 221.475 -0.25 +0.00    -0.018 A  
DOCKED: ATOM      5  C   UNL     1     140.757  72.374 222.817 -0.23 -0.00    +0.009 A  
DOCKED: ATOM      6  C   UNL     1     139.817  71.506 223.379 -0.37 -0.00    +0.005 A  
DOCKED: ENDROOT
DOCKED: BRANCH   1   7
DOCKED: ATOM      7  C   UNL     1     138.241  69.532 223.233 -0.21 -0.01    +0.085 C  
DOCKED: ATOM      8  C   UNL     1     137.781  68.479 222.216 -0.17 -0.00    +0.021 C  
DOCKED: BRANCH   7   9
DOCKED: ATOM      9  C   UNL     1     138.803  68.923 224.492 -0.28 -0.02    +0.144 A  
DOCKED: ATOM     10  C   UNL     1     139.441  68.509 226.522 -0.49 -0.01    +0.084 A  
DOCKED: ATOM     11  C   UNL     1     138.973  69.530 225.723 -0.37 -0.01    +0.073 A  
DOCKED: ATOM     12  N   UNL     1     139.533  67.372 225.805 -0.88 +0.00    -0.085 NA 
DOCKED: ATOM     13  O   UNL     1     139.145  67.658 224.596 -0.69 +0.00    -0.361 OA 
DOCKED: BRANCH  10  14
DOCKED: ATOM     14  C   UNL     1     139.715  68.597 227.994 -0.50 -0.01    +0.060 C  
DOCKED: BRANCH  14  15
DOCKED: ATOM     15  C   UNL     1     141.015  69.360 228.288 -0.60 -0.00    +0.006 C  
DOCKED: BRANCH  15  16
DOCKED: ATOM     16  C   UNL     1     141.090  70.698 227.538 -0.64 +0.00    -0.003 C  
DOCKED: ATOM     17  C   UNL     1     140.414  71.813 228.331 -0.72 -0.00    +0.004 C  
DOCKED: ENDBRANCH  15  16
DOCKED: ENDBRANCH  14  15
DOCKED: ENDBRANCH  10  14
DOCKED: ENDBRANCH   7   9
DOCKED: ENDBRANCH   1   7
DOCKED: BRANCH   4  18
DOCKED: ATOM     18  C   UNL     1     142.174  73.136 220.887 -0.26 +0.00    -0.018 A  
DOCKED: ATOM     19  C   UNL     1     143.524  72.741 220.827 -0.31 -0.00    +0.009 A  
DOCKED: ATOM     20  C   UNL     1     141.807  74.387 220.355 -0.25 -0.00    +0.013 A  
DOCKED: ATOM     21  C   UNL     1     144.481  73.576 220.246 -0.46 -0.00    +0.001 A  
DOCKED: ATOM     22  C   UNL     1     142.768  75.224 219.764 -0.31 +0.01    -0.034 A  
DOCKED: ATOM     23  C   UNL     1     144.107  74.810 219.715 -0.39 -0.00    +0.005 A  
DOCKED: BRANCH  22  24
DOCKED: ATOM     24  C   UNL     1     142.359  76.521 219.117 -0.25 -0.06    +0.116 C  
DOCKED: BRANCH  24  25
DOCKED: ATOM     25  N   UNL     1     142.222  77.566 220.139 -0.15 +0.22    -0.312 NA 
DOCKED: ATOM     26  H   UNL     1     142.842  77.316 220.945 -0.46 -0.13    +0.123 HD 
DOCKED: BRANCH  25  27
DOCKED: ATOM     27  C   UNL     1     140.841  77.660 220.639 -0.22 -0.03    +0.084 C  
DOCKED: BRANCH  27  28
DOCKED: ATOM     28  C   UNL     1     140.772  77.169 222.096 -0.41 +0.00    -0.004 C  
DOCKED: ATOM     29  C   UNL     1     141.002  78.330 223.075 -0.50 -0.00    +0.009 C  
DOCKED: ATOM     30  C   UNL     1     139.418  76.504 222.372 -0.33 -0.00    +0.009 C  
DOCKED: ENDBRANCH  27  28
DOCKED: ENDBRANCH  25  27
DOCKED: ENDBRANCH  24  25
DOCKED: ENDBRANCH  22  24
DOCKED: ENDBRANCH   4  18
DOCKED: TORSDOF 10
DOCKED: TER
DOCKED: ENDMDL
________________________________________________________________________________


    FINAL DOCKED STATE:
    ________________________


Run:   10 / 20
Time taken for this run:   0.053s

DOCKED: MODEL        10
DOCKED: USER    Run = 10
DOCKED: USER
DOCKED: USER    Estimated Free Energy of Binding    =  -9.06 kcal/mol  [=(1)+(2)+(3)-(4)]
DOCKED: USER
DOCKED: USER    (1) Final Intermolecular Energy     = -12.04 kcal/mol
DOCKED: USER        vdW + Hbond + desolv Energy     = -11.96 kcal/mol
DOCKED: USER        Electrostatic Energy            =  -0.08 kcal/mol
DOCKED: USER        Moving Ligand-Fixed Receptor    = -12.04 kcal/mol
DOCKED: USER        Moving Ligand-Moving Receptor   =  +0.00 kcal/mol
DOCKED: USER    (2) Final Total Internal Energy     =  -1.52 kcal/mol
DOCKED: USER    (3) Torsional Free Energy           =  +2.98 kcal/mol
DOCKED: USER    (4) Unbound System's Energy         =  -1.52 kcal/mol
DOCKED: USER
DOCKED: USER
DOCKED: REMARK SMILES CCCCc1cc([C@H](C)c2ccc(-c3cccc(CNCC(C)C)c3)cc2)on1
DOCKED: REMARK SMILES IDX 10 1 11 2 12 3 13 4 26 5 27 6 8 7 9 8 7 9 5 10 6 11 29 12
DOCKED: REMARK SMILES IDX 28 13 4 14 3 15 2 16 1 17 14 18 15 19 25 20 16 21 18 22
DOCKED: REMARK SMILES IDX 17 23 19 24 20 25 21 27 22 28 23 29 24 30
DOCKED: REMARK H PARENT 20 26
DOCKED: USER                              x       y       z     vdW  Elec       q    Type
DOCKED: USER                           _______ _______ _______ _____ _____    ______ ____
DOCKED: ROOT
DOCKED: ATOM      1  C   UNL     1     138.628  70.813 223.079 -0.23 +0.01    -0.037 A  
DOCKED: ATOM      2  C   UNL     1     138.017  71.911 222.444 -0.18 -0.00    +0.005 A  
DOCKED: ATOM      3  C   UNL     1     138.793  72.927 221.882 -0.20 -0.00    +0.009 A  
DOCKED: ATOM      4  C   UNL     1     140.196  72.878 221.952 -0.29 +0.00    -0.018 A  
DOCKED: ATOM      5  C   UNL     1     140.804  71.792 222.606 -0.28 -0.00    +0.009 A  
DOCKED: ATOM      6  C   UNL     1     140.029  70.772 223.164 -0.27 -0.00    +0.005 A  
DOCKED: ENDROOT
DOCKED: BRANCH   1   7
DOCKED: ATOM      7  C   UNL     1     137.796  69.696 223.675 -0.23 -0.01    +0.085 C  
DOCKED: ATOM      8  C   UNL     1     137.339  68.716 222.587 -0.17 -0.00    +0.021 C  
DOCKED: BRANCH   7   9
DOCKED: ATOM      9  C   UNL     1     138.551  69.021 224.791 -0.29 -0.01    +0.144 A  
DOCKED: ATOM     10  C   UNL     1     139.525  68.506 226.659 -0.51 -0.01    +0.084 A  
DOCKED: ATOM     11  C   UNL     1     138.956  69.571 225.993 -0.35 -0.01    +0.073 A  
DOCKED: ATOM     12  N   UNL     1     139.451  67.398 225.895 -0.88 +0.00    -0.085 NA 
DOCKED: ATOM     13  O   UNL     1     138.865  67.744 224.786 -0.64 -0.02    -0.361 OA 
DOCKED: BRANCH  10  14
DOCKED: ATOM     14  C   UNL     1     140.058  68.525 228.060 -0.59 -0.01    +0.060 C  
DOCKED: BRANCH  14  15
DOCKED: ATOM     15  C   UNL     1     141.119  69.619 228.253 -0.55 -0.00    +0.006 C  
DOCKED: BRANCH  15  16
DOCKED: ATOM     16  C   UNL     1     140.508  71.027 228.285 -0.64 +0.00    -0.003 C  
DOCKED: ATOM     17  C   UNL     1     141.073  71.898 227.166 -0.81 -0.00    +0.004 C  
DOCKED: ENDBRANCH  15  16
DOCKED: ENDBRANCH  14  15
DOCKED: ENDBRANCH  10  14
DOCKED: ENDBRANCH   7   9
DOCKED: ENDBRANCH   1   7
DOCKED: BRANCH   4  18
DOCKED: ATOM     18  C   UNL     1     141.022  73.946 221.331 -0.29 +0.00    -0.018 A  
DOCKED: ATOM     19  C   UNL     1     142.156  73.618 220.566 -0.26 -0.00    +0.009 A  
DOCKED: ATOM     20  C   UNL     1     140.667  75.301 221.474 -0.33 -0.00    +0.013 A  
DOCKED: ATOM     21  C   UNL     1     142.914  74.619 219.956 -0.32 -0.00    +0.001 A  
DOCKED: ATOM     22  C   UNL     1     141.424  76.309 220.855 -0.29 +0.02    -0.034 A  
DOCKED: ATOM     23  C   UNL     1     142.551  75.959 220.096 -0.32 -0.00    +0.005 A  
DOCKED: BRANCH  22  24
DOCKED: ATOM     24  C   UNL     1     140.993  77.750 220.935 -0.25 -0.05    +0.116 C  
DOCKED: BRANCH  24  25
DOCKED: ATOM     25  N   UNL     1     142.171  78.626 220.889 -0.07 +0.22    -0.312 NA 
DOCKED: ATOM     26  H   UNL     1     142.974  78.112 221.323 -0.50 -0.15    +0.123 HD 
DOCKED: BRANCH  25  27
DOCKED: ATOM     27  C   UNL     1     141.958  79.866 221.652 -0.39 -0.04    +0.084 C  
DOCKED: BRANCH  27  28
DOCKED: ATOM     28  C   UNL     1     142.100  79.590 223.159 -0.63 +0.00    -0.004 C  
DOCKED: ATOM     29  C   UNL     1     142.888  80.715 223.848 -0.67 -0.00    +0.009 C  
DOCKED: ATOM     30  C   UNL     1     140.719  79.438 223.809 -0.51 -0.00    +0.009 C  
DOCKED: ENDBRANCH  27  28
DOCKED: ENDBRANCH  25  27
DOCKED: ENDBRANCH  24  25
DOCKED: ENDBRANCH  22  24
DOCKED: ENDBRANCH   4  18
DOCKED: TORSDOF 10
DOCKED: TER
DOCKED: ENDMDL
________________________________________________________________________________


    FINAL DOCKED STATE:
    ________________________


Run:   11 / 20
Time taken for this run:   0.053s

DOCKED: MODEL        11
DOCKED: USER    Run = 11
DOCKED: USER
DOCKED: USER    Estimated Free Energy of Binding    =  -9.10 kcal/mol  [=(1)+(2)+(3)-(4)]
DOCKED: USER
DOCKED: USER    (1) Final Intermolecular Energy     = -12.08 kcal/mol
DOCKED: USER        vdW + Hbond + desolv Energy     = -11.99 kcal/mol
DOCKED: USER        Electrostatic Energy            =  -0.09 kcal/mol
DOCKED: USER        Moving Ligand-Fixed Receptor    = -12.08 kcal/mol
DOCKED: USER        Moving Ligand-Moving Receptor   =  +0.00 kcal/mol
DOCKED: USER    (2) Final Total Internal Energy     =  -1.45 kcal/mol
DOCKED: USER    (3) Torsional Free Energy           =  +2.98 kcal/mol
DOCKED: USER    (4) Unbound System's Energy         =  -1.45 kcal/mol
DOCKED: USER
DOCKED: USER
DOCKED: REMARK SMILES CCCCc1cc([C@H](C)c2ccc(-c3cccc(CNCC(C)C)c3)cc2)on1
DOCKED: REMARK SMILES IDX 10 1 11 2 12 3 13 4 26 5 27 6 8 7 9 8 7 9 5 10 6 11 29 12
DOCKED: REMARK SMILES IDX 28 13 4 14 3 15 2 16 1 17 14 18 15 19 25 20 16 21 18 22
DOCKED: REMARK SMILES IDX 17 23 19 24 20 25 21 27 22 28 23 29 24 30
DOCKED: REMARK H PARENT 20 26
DOCKED: USER                              x       y       z     vdW  Elec       q    Type
DOCKED: USER                           _______ _______ _______ _____ _____    ______ ____
DOCKED: ROOT
DOCKED: ATOM      1  C   UNL     1     138.541  70.864 223.115 -0.23 +0.01    -0.037 A  
DOCKED: ATOM      2  C   UNL     1     137.877  71.932 222.485 -0.17 -0.00    +0.005 A  
DOCKED: ATOM      3  C   UNL     1     138.599  73.003 221.953 -0.20 -0.00    +0.009 A  
DOCKED: ATOM      4  C   UNL     1     140.001  73.037 222.048 -0.29 +0.00    -0.018 A  
DOCKED: ATOM      5  C   UNL     1     140.663  71.979 222.696 -0.33 -0.00    +0.009 A  
DOCKED: ATOM      6  C   UNL     1     139.941  70.905 223.224 -0.32 -0.00    +0.005 A  
DOCKED: ENDROOT
DOCKED: BRANCH   1   7
DOCKED: ATOM      7  C   UNL     1     137.769  69.689 223.679 -0.22 -0.01    +0.085 C  
DOCKED: ATOM      8  C   UNL     1     137.342  68.730 222.560 -0.17 -0.00    +0.021 C  
DOCKED: BRANCH   7   9
DOCKED: ATOM      9  C   UNL     1     138.568  69.008 224.759 -0.29 -0.01    +0.144 A  
DOCKED: ATOM     10  C   UNL     1     139.593  68.472 226.594 -0.52 -0.01    +0.084 A  
DOCKED: ATOM     11  C   UNL     1     138.973  69.534 225.973 -0.36 -0.01    +0.073 A  
DOCKED: ATOM     12  N   UNL     1     139.549  67.387 225.796 -0.88 +0.00    -0.085 NA 
DOCKED: ATOM     13  O   UNL     1     138.931  67.745 224.708 -0.65 -0.01    -0.361 OA 
DOCKED: BRANCH  10  14
DOCKED: ATOM     14  C   UNL     1     140.149  68.467 227.987 -0.60 -0.01    +0.060 C  
DOCKED: BRANCH  14  15
DOCKED: ATOM     15  C   UNL     1     141.121  69.633 228.218 -0.55 -0.00    +0.006 C  
DOCKED: BRANCH  15  16
DOCKED: ATOM     16  C   UNL     1     140.406  70.992 228.243 -0.65 +0.00    -0.003 C  
DOCKED: ATOM     17  C   UNL     1     141.090  71.991 227.313 -0.81 -0.00    +0.004 C  
DOCKED: ENDBRANCH  15  16
DOCKED: ENDBRANCH  14  15
DOCKED: ENDBRANCH  10  14
DOCKED: ENDBRANCH   7   9
DOCKED: ENDBRANCH   1   7
DOCKED: BRANCH   4  18
DOCKED: ATOM     18  C   UNL     1     140.771  74.163 221.458 -0.30 +0.00    -0.018 A  
DOCKED: ATOM     19  C   UNL     1     141.790  73.916 220.519 -0.25 -0.00    +0.009 A  
DOCKED: ATOM     20  C   UNL     1     140.475  75.494 221.806 -0.34 -0.00    +0.013 A  
DOCKED: ATOM     21  C   UNL     1     142.493  74.975 219.941 -0.29 -0.00    +0.001 A  
DOCKED: ATOM     22  C   UNL     1     141.176  76.561 221.220 -0.30 +0.01    -0.034 A  
DOCKED: ATOM     23  C   UNL     1     142.188  76.292 220.286 -0.27 -0.00    +0.005 A  
DOCKED: BRANCH  22  24
DOCKED: ATOM     24  C   UNL     1     140.799  77.986 221.527 -0.28 -0.05    +0.116 C  
DOCKED: BRANCH  24  25
DOCKED: ATOM     25  N   UNL     1     141.978  78.723 222.001 -0.21 +0.18    -0.312 NA 
DOCKED: ATOM     26  H   UNL     1     142.812  78.097 221.903 -0.49 -0.14    +0.123 HD 
DOCKED: BRANCH  25  27
DOCKED: ATOM     27  C   UNL     1     141.853  79.096 223.419 -0.56 -0.03    +0.084 C  
DOCKED: BRANCH  27  28
DOCKED: ATOM     28  C   UNL     1     141.277  80.518 223.541 -0.55 +0.00    -0.004 C  
DOCKED: ATOM     29  C   UNL     1     141.791  81.416 222.405 -0.49 -0.00    +0.009 C  
DOCKED: ATOM     30  C   UNL     1     139.744  80.478 223.531 -0.43 -0.00    +0.009 C  
DOCKED: ENDBRANCH  27  28
DOCKED: ENDBRANCH  25  27
DOCKED: ENDBRANCH  24  25
DOCKED: ENDBRANCH  22  24
DOCKED: ENDBRANCH   4  18
DOCKED: TORSDOF 10
DOCKED: TER
DOCKED: ENDMDL
________________________________________________________________________________


    FINAL DOCKED STATE:
    ________________________


Run:   12 / 20
Time taken for this run:   0.053s

DOCKED: MODEL        12
DOCKED: USER    Run = 12
DOCKED: USER
DOCKED: USER    Estimated Free Energy of Binding    =  -8.39 kcal/mol  [=(1)+(2)+(3)-(4)]
DOCKED: USER
DOCKED: USER    (1) Final Intermolecular Energy     = -11.38 kcal/mol
DOCKED: USER        vdW + Hbond + desolv Energy     = -11.34 kcal/mol
DOCKED: USER        Electrostatic Energy            =  -0.04 kcal/mol
DOCKED: USER        Moving Ligand-Fixed Receptor    = -11.38 kcal/mol
DOCKED: USER        Moving Ligand-Moving Receptor   =  +0.00 kcal/mol
DOCKED: USER    (2) Final Total Internal Energy     =  -1.96 kcal/mol
DOCKED: USER    (3) Torsional Free Energy           =  +2.98 kcal/mol
DOCKED: USER    (4) Unbound System's Energy         =  -1.96 kcal/mol
DOCKED: USER
DOCKED: USER
DOCKED: REMARK SMILES CCCCc1cc([C@H](C)c2ccc(-c3cccc(CNCC(C)C)c3)cc2)on1
DOCKED: REMARK SMILES IDX 10 1 11 2 12 3 13 4 26 5 27 6 8 7 9 8 7 9 5 10 6 11 29 12
DOCKED: REMARK SMILES IDX 28 13 4 14 3 15 2 16 1 17 14 18 15 19 25 20 16 21 18 22
DOCKED: REMARK SMILES IDX 17 23 19 24 20 25 21 27 22 28 23 29 24 30
DOCKED: REMARK H PARENT 20 26
DOCKED: USER                              x       y       z     vdW  Elec       q    Type
DOCKED: USER                           _______ _______ _______ _____ _____    ______ ____
DOCKED: ROOT
DOCKED: ATOM      1  C   UNL     1     138.879  70.631 222.699 -0.21 +0.01    -0.037 A  
DOCKED: ATOM      2  C   UNL     1     137.895  71.614 222.483 -0.17 -0.00    +0.005 A  
DOCKED: ATOM      3  C   UNL     1     138.259  72.937 222.219 -0.12 -0.00    +0.009 A  
DOCKED: ATOM      4  C   UNL     1     139.614  73.311 222.177 -0.25 +0.00    -0.018 A  
DOCKED: ATOM      5  C   UNL     1     140.595  72.333 222.414 -0.32 -0.00    +0.009 A  
DOCKED: ATOM      6  C   UNL     1     140.232  71.008 222.673 -0.23 -0.00    +0.005 A  
DOCKED: ENDROOT
DOCKED: BRANCH   1   7
DOCKED: ATOM      7  C   UNL     1     138.496  69.190 222.967 -0.20 -0.01    +0.085 C  
DOCKED: ATOM      8  C   UNL     1     139.003  68.274 221.846 -0.17 -0.00    +0.021 C  
DOCKED: BRANCH   7   9
DOCKED: ATOM      9  C   UNL     1     138.977  68.767 224.331 -0.27 -0.02    +0.144 A  
DOCKED: ATOM     10  C   UNL     1     139.551  68.669 226.420 -0.49 -0.01    +0.084 A  
DOCKED: ATOM     11  C   UNL     1     139.209  69.569 225.434 -0.37 -0.01    +0.073 A  
DOCKED: ATOM     12  N   UNL     1     139.516  67.416 225.926 -0.84 +0.01    -0.085 NA 
DOCKED: ATOM     13  O   UNL     1     139.171  67.513 224.675 -0.73 -0.01    -0.361 OA 
DOCKED: BRANCH  10  14
DOCKED: ATOM     14  C   UNL     1     139.825  68.998 227.857 -0.57 -0.01    +0.060 C  
DOCKED: BRANCH  14  15
DOCKED: ATOM     15  C   UNL     1     141.068  69.886 228.013 -0.60 -0.00    +0.006 C  
DOCKED: BRANCH  15  16
DOCKED: ATOM     16  C   UNL     1     140.749  71.376 227.828 -0.79 +0.00    -0.003 C  
DOCKED: ATOM     17  C   UNL     1     141.356  71.913 226.534 -0.68 -0.00    +0.004 C  
DOCKED: ENDBRANCH  15  16
DOCKED: ENDBRANCH  14  15
DOCKED: ENDBRANCH  10  14
DOCKED: ENDBRANCH   7   9
DOCKED: ENDBRANCH   1   7
DOCKED: BRANCH   4  18
DOCKED: ATOM     18  C   UNL     1     140.001  74.713 221.871 -0.28 +0.00    -0.018 A  
DOCKED: ATOM     19  C   UNL     1     139.453  75.781 222.605 -0.21 -0.00    +0.009 A  
DOCKED: ATOM     20  C   UNL     1     140.942  74.993 220.862 -0.27 -0.00    +0.013 A  
DOCKED: ATOM     21  C   UNL     1     139.840  77.096 222.338 -0.38 -0.00    +0.001 A  
DOCKED: ATOM     22  C   UNL     1     141.337  76.314 220.597 -0.27 +0.01    -0.034 A  
DOCKED: ATOM     23  C   UNL     1     140.779  77.364 221.342 -0.31 -0.00    +0.005 A  
DOCKED: BRANCH  22  24
DOCKED: ATOM     24  C   UNL     1     142.408  76.605 219.579 -0.28 -0.07    +0.116 C  
DOCKED: BRANCH  24  25
DOCKED: ATOM     25  N   UNL     1     143.713  76.160 220.086 -0.14 +0.24    -0.312 NA 
DOCKED: ATOM     26  H   UNL     1     144.436  76.846 219.765 -0.39 -0.11    +0.123 HD 
DOCKED: BRANCH  25  27
DOCKED: ATOM     27  C   UNL     1     144.077  74.834 219.562 -0.29 -0.04    +0.084 C  
DOCKED: BRANCH  27  28
DOCKED: ATOM     28  C   UNL     1     144.434  73.887 220.722 -0.45 +0.00    -0.004 C  
DOCKED: ATOM     29  C   UNL     1     143.825  72.495 220.498 -0.35 -0.00    +0.009 C  
DOCKED: ATOM     30  C   UNL     1     145.957  73.780 220.876 -0.69 -0.00    +0.009 C  
DOCKED: ENDBRANCH  27  28
DOCKED: ENDBRANCH  25  27
DOCKED: ENDBRANCH  24  25
DOCKED: ENDBRANCH  22  24
DOCKED: ENDBRANCH   4  18
DOCKED: TORSDOF 10
DOCKED: TER
DOCKED: ENDMDL
________________________________________________________________________________


    FINAL DOCKED STATE:
    ________________________


Run:   13 / 20
Time taken for this run:   0.053s

DOCKED: MODEL        13
DOCKED: USER    Run = 13
DOCKED: USER
DOCKED: USER    Estimated Free Energy of Binding    =  -8.83 kcal/mol  [=(1)+(2)+(3)-(4)]
DOCKED: USER
DOCKED: USER    (1) Final Intermolecular Energy     = -11.82 kcal/mol
DOCKED: USER        vdW + Hbond + desolv Energy     = -11.75 kcal/mol
DOCKED: USER        Electrostatic Energy            =  -0.06 kcal/mol
DOCKED: USER        Moving Ligand-Fixed Receptor    = -11.82 kcal/mol
DOCKED: USER        Moving Ligand-Moving Receptor   =  +0.00 kcal/mol
DOCKED: USER    (2) Final Total Internal Energy     =  -1.36 kcal/mol
DOCKED: USER    (3) Torsional Free Energy           =  +2.98 kcal/mol
DOCKED: USER    (4) Unbound System's Energy         =  -1.36 kcal/mol
DOCKED: USER
DOCKED: USER
DOCKED: REMARK SMILES CCCCc1cc([C@H](C)c2ccc(-c3cccc(CNCC(C)C)c3)cc2)on1
DOCKED: REMARK SMILES IDX 10 1 11 2 12 3 13 4 26 5 27 6 8 7 9 8 7 9 5 10 6 11 29 12
DOCKED: REMARK SMILES IDX 28 13 4 14 3 15 2 16 1 17 14 18 15 19 25 20 16 21 18 22
DOCKED: REMARK SMILES IDX 17 23 19 24 20 25 21 27 22 28 23 29 24 30
DOCKED: REMARK H PARENT 20 26
DOCKED: USER                              x       y       z     vdW  Elec       q    Type
DOCKED: USER                           _______ _______ _______ _____ _____    ______ ____
DOCKED: ROOT
DOCKED: ATOM      1  C   UNL     1     138.406  70.952 222.960 -0.21 +0.01    -0.037 A  
DOCKED: ATOM      2  C   UNL     1     137.712  72.025 222.371 -0.16 -0.00    +0.005 A  
DOCKED: ATOM      3  C   UNL     1     138.403  73.141 221.891 -0.18 -0.00    +0.009 A  
DOCKED: ATOM      4  C   UNL     1     139.802  73.216 222.000 -0.28 +0.00    -0.018 A  
DOCKED: ATOM      5  C   UNL     1     140.493  72.153 222.607 -0.33 -0.00    +0.009 A  
DOCKED: ATOM      6  C   UNL     1     139.803  71.034 223.083 -0.31 -0.00    +0.005 A  
DOCKED: ENDROOT
DOCKED: BRANCH   1   7
DOCKED: ATOM      7  C   UNL     1     137.669  69.730 223.466 -0.21 -0.01    +0.085 C  
DOCKED: ATOM      8  C   UNL     1     137.277  68.809 222.303 -0.15 -0.00    +0.021 C  
DOCKED: BRANCH   7   9
DOCKED: ATOM      9  C   UNL     1     138.484  69.026 224.519 -0.28 -0.01    +0.144 A  
DOCKED: ATOM     10  C   UNL     1     139.483  68.419 226.346 -0.50 -0.01    +0.084 A  
DOCKED: ATOM     11  C   UNL     1     138.795  69.476 225.790 -0.35 -0.01    +0.073 A  
DOCKED: ATOM     12  N   UNL     1     139.564  67.409 225.457 -0.94 +0.00    -0.085 NA 
DOCKED: ATOM     13  O   UNL     1     138.959  67.809 224.377 -0.57 +0.01    -0.361 OA 
DOCKED: BRANCH  10  14
DOCKED: ATOM     14  C   UNL     1     139.985  68.338 227.757 -0.58 -0.01    +0.060 C  
DOCKED: BRANCH  14  15
DOCKED: ATOM     15  C   UNL     1     140.287  69.728 228.336 -0.59 -0.00    +0.006 C  
DOCKED: BRANCH  15  16
DOCKED: ATOM     16  C   UNL     1     141.079  70.608 227.359 -0.64 +0.00    -0.003 C  
DOCKED: ATOM     17  C   UNL     1     140.814  72.090 227.613 -0.78 -0.00    +0.004 C  
DOCKED: ENDBRANCH  15  16
DOCKED: ENDBRANCH  14  15
DOCKED: ENDBRANCH  10  14
DOCKED: ENDBRANCH   7   9
DOCKED: ENDBRANCH   1   7
DOCKED: BRANCH   4  18
DOCKED: ATOM     18  C   UNL     1     140.539  74.390 221.466 -0.30 +0.00    -0.018 A  
DOCKED: ATOM     19  C   UNL     1     141.348  74.265 220.321 -0.21 -0.00    +0.009 A  
DOCKED: ATOM     20  C   UNL     1     140.418  75.653 222.078 -0.30 -0.00    +0.013 A  
DOCKED: ATOM     21  C   UNL     1     142.016  75.376 219.800 -0.25 -0.00    +0.001 A  
DOCKED: ATOM     22  C   UNL     1     141.083  76.771 221.551 -0.34 +0.01    -0.034 A  
DOCKED: ATOM     23  C   UNL     1     141.884  76.624 220.408 -0.28 -0.00    +0.005 A  
DOCKED: BRANCH  22  24
DOCKED: ATOM     24  C   UNL     1     140.883  78.137 222.154 -0.36 -0.04    +0.116 C  
DOCKED: BRANCH  24  25
DOCKED: ATOM     25  N   UNL     1     142.100  78.941 221.984 -0.23 +0.18    -0.312 NA 
DOCKED: ATOM     26  H   UNL     1     142.911  78.285 221.887 -0.50 -0.13    +0.123 HD 
DOCKED: BRANCH  25  27
DOCKED: ATOM     27  C   UNL     1     142.349  79.804 223.149 -0.58 -0.03    +0.084 C  
DOCKED: BRANCH  27  28
DOCKED: ATOM     28  C   UNL     1     141.532  81.102 223.030 -0.55 +0.00    -0.004 C  
DOCKED: ATOM     29  C   UNL     1     141.510  81.602 221.577 -0.40 -0.00    +0.009 C  
DOCKED: ATOM     30  C   UNL     1     140.101  80.882 223.536 -0.40 -0.00    +0.009 C  
DOCKED: ENDBRANCH  27  28
DOCKED: ENDBRANCH  25  27
DOCKED: ENDBRANCH  24  25
DOCKED: ENDBRANCH  22  24
DOCKED: ENDBRANCH   4  18
DOCKED: TORSDOF 10
DOCKED: TER
DOCKED: ENDMDL
________________________________________________________________________________


    FINAL DOCKED STATE:
    ________________________


Run:   14 / 20
Time taken for this run:   0.053s

DOCKED: MODEL        14
DOCKED: USER    Run = 14
DOCKED: USER
DOCKED: USER    Estimated Free Energy of Binding    =  -8.58 kcal/mol  [=(1)+(2)+(3)-(4)]
DOCKED: USER
DOCKED: USER    (1) Final Intermolecular Energy     = -11.56 kcal/mol
DOCKED: USER        vdW + Hbond + desolv Energy     = -11.49 kcal/mol
DOCKED: USER        Electrostatic Energy            =  -0.07 kcal/mol
DOCKED: USER        Moving Ligand-Fixed Receptor    = -11.56 kcal/mol
DOCKED: USER        Moving Ligand-Moving Receptor   =  +0.00 kcal/mol
DOCKED: USER    (2) Final Total Internal Energy     =  -1.85 kcal/mol
DOCKED: USER    (3) Torsional Free Energy           =  +2.98 kcal/mol
DOCKED: USER    (4) Unbound System's Energy         =  -1.85 kcal/mol
DOCKED: USER
DOCKED: USER
DOCKED: REMARK SMILES CCCCc1cc([C@H](C)c2ccc(-c3cccc(CNCC(C)C)c3)cc2)on1
DOCKED: REMARK SMILES IDX 10 1 11 2 12 3 13 4 26 5 27 6 8 7 9 8 7 9 5 10 6 11 29 12
DOCKED: REMARK SMILES IDX 28 13 4 14 3 15 2 16 1 17 14 18 15 19 25 20 16 21 18 22
DOCKED: REMARK SMILES IDX 17 23 19 24 20 25 21 27 22 28 23 29 24 30
DOCKED: REMARK H PARENT 20 26
DOCKED: USER                              x       y       z     vdW  Elec       q    Type
DOCKED: USER                           _______ _______ _______ _____ _____    ______ ____
DOCKED: ROOT
DOCKED: ATOM      1  C   UNL     1     139.305  70.512 222.540 -0.20 +0.01    -0.037 A  
DOCKED: ATOM      2  C   UNL     1     139.906  70.250 221.295 -0.14 -0.00    +0.005 A  
DOCKED: ATOM      3  C   UNL     1     140.834  71.143 220.752 -0.15 -0.00    +0.009 A  
DOCKED: ATOM      4  C   UNL     1     141.173  72.324 221.435 -0.25 +0.00    -0.018 A  
DOCKED: ATOM      5  C   UNL     1     140.557  72.595 222.669 -0.29 -0.00    +0.009 A  
DOCKED: ATOM      6  C   UNL     1     139.633  71.700 223.215 -0.34 -0.00    +0.005 A  
DOCKED: ENDROOT
DOCKED: BRANCH   1   7
DOCKED: ATOM      7  C   UNL     1     138.313  69.541 223.147 -0.21 -0.01    +0.085 C  
DOCKED: ATOM      8  C   UNL     1     137.889  68.483 222.121 -0.17 -0.00    +0.021 C  
DOCKED: BRANCH   7   9
DOCKED: ATOM      9  C   UNL     1     138.875  68.940 224.409 -0.28 -0.02    +0.144 A  
DOCKED: ATOM     10  C   UNL     1     139.593  68.568 226.421 -0.51 -0.01    +0.084 A  
DOCKED: ATOM     11  C   UNL     1     139.209  69.592 225.582 -0.38 -0.01    +0.073 A  
DOCKED: ATOM     12  N   UNL     1     139.485  67.388 225.781 -0.90 +0.00    -0.085 NA 
DOCKED: ATOM     13  O   UNL     1     139.055  67.649 224.580 -0.66 -0.01    -0.361 OA 
DOCKED: BRANCH  10  14
DOCKED: ATOM     14  C   UNL     1     139.977  68.708 227.864 -0.60 -0.01    +0.060 C  
DOCKED: BRANCH  14  15
DOCKED: ATOM     15  C   UNL     1     141.056  69.783 228.066 -0.59 -0.00    +0.006 C  
DOCKED: BRANCH  15  16
DOCKED: ATOM     16  C   UNL     1     140.480  71.205 228.012 -0.74 +0.00    -0.003 C  
DOCKED: ATOM     17  C   UNL     1     141.147  72.028 226.912 -0.74 -0.00    +0.004 C  
DOCKED: ENDBRANCH  15  16
DOCKED: ENDBRANCH  14  15
DOCKED: ENDBRANCH  10  14
DOCKED: ENDBRANCH   7   9
DOCKED: ENDBRANCH   1   7
DOCKED: BRANCH   4  18
DOCKED: ATOM     18  C   UNL     1     142.179  73.261 220.870 -0.26 +0.00    -0.018 A  
DOCKED: ATOM     19  C   UNL     1     143.543  72.913 220.845 -0.32 -0.00    +0.009 A  
DOCKED: ATOM     20  C   UNL     1     141.783  74.497 220.325 -0.25 -0.00    +0.013 A  
DOCKED: ATOM     21  C   UNL     1     144.485  73.779 220.286 -0.47 -0.00    +0.001 A  
DOCKED: ATOM     22  C   UNL     1     142.728  75.365 219.756 -0.31 +0.02    -0.034 A  
DOCKED: ATOM     23  C   UNL     1     144.082  74.998 219.741 -0.39 -0.00    +0.005 A  
DOCKED: BRANCH  22  24
DOCKED: ATOM     24  C   UNL     1     142.291  76.647 219.095 -0.25 -0.06    +0.116 C  
DOCKED: BRANCH  24  25
DOCKED: ATOM     25  N   UNL     1     142.210  77.720 220.094 -0.15 +0.22    -0.312 NA 
DOCKED: ATOM     26  H   UNL     1     142.870  77.488 220.874 -0.46 -0.13    +0.123 HD 
DOCKED: BRANCH  25  27
DOCKED: ATOM     27  C   UNL     1     140.857  77.835 220.661 -0.22 -0.03    +0.084 C  
DOCKED: BRANCH  27  28
DOCKED: ATOM     28  C   UNL     1     140.833  77.266 222.090 -0.40 +0.00    -0.004 C  
DOCKED: ATOM     29  C   UNL     1     141.075  78.375 223.125 -0.51 -0.00    +0.009 C  
DOCKED: ATOM     30  C   UNL     1     139.494  76.568 222.366 -0.34 -0.00    +0.009 C  
DOCKED: ENDBRANCH  27  28
DOCKED: ENDBRANCH  25  27
DOCKED: ENDBRANCH  24  25
DOCKED: ENDBRANCH  22  24
DOCKED: ENDBRANCH   4  18
DOCKED: TORSDOF 10
DOCKED: TER
DOCKED: ENDMDL
________________________________________________________________________________


    FINAL DOCKED STATE:
    ________________________


Run:   15 / 20
Time taken for this run:   0.053s

DOCKED: MODEL        15
DOCKED: USER    Run = 15
DOCKED: USER
DOCKED: USER    Estimated Free Energy of Binding    =  -7.62 kcal/mol  [=(1)+(2)+(3)-(4)]
DOCKED: USER
DOCKED: USER    (1) Final Intermolecular Energy     = -10.60 kcal/mol
DOCKED: USER        vdW + Hbond + desolv Energy     = -10.51 kcal/mol
DOCKED: USER        Electrostatic Energy            =  -0.09 kcal/mol
DOCKED: USER        Moving Ligand-Fixed Receptor    = -10.60 kcal/mol
DOCKED: USER        Moving Ligand-Moving Receptor   =  +0.00 kcal/mol
DOCKED: USER    (2) Final Total Internal Energy     =  -1.74 kcal/mol
DOCKED: USER    (3) Torsional Free Energy           =  +2.98 kcal/mol
DOCKED: USER    (4) Unbound System's Energy         =  -1.74 kcal/mol
DOCKED: USER
DOCKED: USER
DOCKED: REMARK SMILES CCCCc1cc([C@H](C)c2ccc(-c3cccc(CNCC(C)C)c3)cc2)on1
DOCKED: REMARK SMILES IDX 10 1 11 2 12 3 13 4 26 5 27 6 8 7 9 8 7 9 5 10 6 11 29 12
DOCKED: REMARK SMILES IDX 28 13 4 14 3 15 2 16 1 17 14 18 15 19 25 20 16 21 18 22
DOCKED: REMARK SMILES IDX 17 23 19 24 20 25 21 27 22 28 23 29 24 30
DOCKED: REMARK H PARENT 20 26
DOCKED: USER                              x       y       z     vdW  Elec       q    Type
DOCKED: USER                           _______ _______ _______ _____ _____    ______ ____
DOCKED: ROOT
DOCKED: ATOM      1  C   UNL     1     136.363  69.834 224.373 -0.22 +0.00    -0.037 A  
DOCKED: ATOM      2  C   UNL     1     136.220  71.207 224.099 -0.20 -0.00    +0.005 A  
DOCKED: ATOM      3  C   UNL     1     135.223  71.957 224.728 -0.15 -0.00    +0.009 A  
DOCKED: ATOM      4  C   UNL     1     134.338  71.351 225.636 -0.25 +0.00    -0.018 A  
DOCKED: ATOM      5  C   UNL     1     134.468  69.975 225.894 -0.30 -0.00    +0.009 A  
DOCKED: ATOM      6  C   UNL     1     135.469  69.225 225.269 -0.21 -0.00    +0.005 A  
DOCKED: ENDROOT
DOCKED: BRANCH   1   7
DOCKED: ATOM      7  C   UNL     1     137.452  69.016 223.712 -0.21 -0.01    +0.085 C  
DOCKED: ATOM      8  C   UNL     1     138.099  69.798 222.561 -0.17 -0.00    +0.021 C  
DOCKED: BRANCH   7   9
DOCKED: ATOM      9  C   UNL     1     138.453  68.552 224.738 -0.27 -0.01    +0.144 A  
DOCKED: ATOM     10  C   UNL     1     139.693  68.295 226.499 -0.54 -0.01    +0.084 A  
DOCKED: ATOM     11  C   UNL     1     138.814  69.182 225.915 -0.38 -0.01    +0.073 A  
DOCKED: ATOM     12  N   UNL     1     139.833  67.209 225.715 -0.70 +0.01    -0.085 NA 
DOCKED: ATOM     13  O   UNL     1     139.080  67.398 224.670 -0.69 -0.03    -0.361 OA 
DOCKED: BRANCH  10  14
DOCKED: ATOM     14  C   UNL     1     140.330  68.445 227.848 -0.62 -0.01    +0.060 C  
DOCKED: BRANCH  14  15
DOCKED: ATOM     15  C   UNL     1     140.432  69.918 228.272 -0.58 -0.00    +0.006 C  
DOCKED: BRANCH  15  16
DOCKED: ATOM     16  C   UNL     1     141.079  70.793 227.189 -0.66 +0.00    -0.003 C  
DOCKED: ATOM     17  C   UNL     1     141.114  72.259 227.614 -0.80 -0.00    +0.004 C  
DOCKED: ENDBRANCH  15  16
DOCKED: ENDBRANCH  14  15
DOCKED: ENDBRANCH  10  14
DOCKED: ENDBRANCH   7   9
DOCKED: ENDBRANCH   1   7
DOCKED: BRANCH   4  18
DOCKED: ATOM     18  C   UNL     1     133.295  72.154 226.325 -0.35 +0.00    -0.018 A  
DOCKED: ATOM     19  C   UNL     1     132.185  71.524 226.918 -0.32 -0.00    +0.009 A  
DOCKED: ATOM     20  C   UNL     1     133.414  73.554 226.421 -0.34 +0.00    +0.013 A  
DOCKED: ATOM     21  C   UNL     1     131.220  72.275 227.592 -0.41 -0.00    +0.001 A  
DOCKED: ATOM     22  C   UNL     1     132.448  74.310 227.106 -0.39 +0.00    -0.034 A  
DOCKED: ATOM     23  C   UNL     1     131.350  73.661 227.689 -0.35 -0.00    +0.005 A  
DOCKED: BRANCH  22  24
DOCKED: ATOM     24  C   UNL     1     132.623  75.795 227.284 -0.30 +0.00    +0.116 C  
DOCKED: BRANCH  24  25
DOCKED: ATOM     25  N   UNL     1     133.915  76.216 226.727 -0.27 +0.01    -0.312 NA 
DOCKED: ATOM     26  H   UNL     1     134.285  76.995 227.320 -0.02 -0.02    +0.123 HD 
DOCKED: BRANCH  25  27
DOCKED: ATOM     27  C   UNL     1     133.777  76.717 225.351 -0.21 -0.01    +0.084 C  
DOCKED: BRANCH  27  28
DOCKED: ATOM     28  C   UNL     1     134.868  76.105 224.454 -0.27 +0.00    -0.004 C  
DOCKED: ATOM     29  C   UNL     1     134.301  74.952 223.612 -0.15 -0.00    +0.009 C  
DOCKED: ATOM     30  C   UNL     1     135.474  77.178 223.540 -0.16 -0.00    +0.009 C  
DOCKED: ENDBRANCH  27  28
DOCKED: ENDBRANCH  25  27
DOCKED: ENDBRANCH  24  25
DOCKED: ENDBRANCH  22  24
DOCKED: ENDBRANCH   4  18
DOCKED: TORSDOF 10
DOCKED: TER
DOCKED: ENDMDL
________________________________________________________________________________


    FINAL DOCKED STATE:
    ________________________


Run:   16 / 20
Time taken for this run:   0.053s

DOCKED: MODEL        16
DOCKED: USER    Run = 16
DOCKED: USER
DOCKED: USER    Estimated Free Energy of Binding    =  -8.81 kcal/mol  [=(1)+(2)+(3)-(4)]
DOCKED: USER
DOCKED: USER    (1) Final Intermolecular Energy     = -11.79 kcal/mol
DOCKED: USER        vdW + Hbond + desolv Energy     = -11.67 kcal/mol
DOCKED: USER        Electrostatic Energy            =  -0.12 kcal/mol
DOCKED: USER        Moving Ligand-Fixed Receptor    = -11.79 kcal/mol
DOCKED: USER        Moving Ligand-Moving Receptor   =  +0.00 kcal/mol
DOCKED: USER    (2) Final Total Internal Energy     =  -1.47 kcal/mol
DOCKED: USER    (3) Torsional Free Energy           =  +2.98 kcal/mol
DOCKED: USER    (4) Unbound System's Energy         =  -1.47 kcal/mol
DOCKED: USER
DOCKED: USER
DOCKED: REMARK SMILES CCCCc1cc([C@H](C)c2ccc(-c3cccc(CNCC(C)C)c3)cc2)on1
DOCKED: REMARK SMILES IDX 10 1 11 2 12 3 13 4 26 5 27 6 8 7 9 8 7 9 5 10 6 11 29 12
DOCKED: REMARK SMILES IDX 28 13 4 14 3 15 2 16 1 17 14 18 15 19 25 20 16 21 18 22
DOCKED: REMARK SMILES IDX 17 23 19 24 20 25 21 27 22 28 23 29 24 30
DOCKED: REMARK H PARENT 20 26
DOCKED: USER                              x       y       z     vdW  Elec       q    Type
DOCKED: USER                           _______ _______ _______ _____ _____    ______ ____
DOCKED: ROOT
DOCKED: ATOM      1  C   UNL     1     139.180  70.286 222.551 -0.19 +0.01    -0.037 A  
DOCKED: ATOM      2  C   UNL     1     139.954  70.104 221.390 -0.13 -0.00    +0.005 A  
DOCKED: ATOM      3  C   UNL     1     140.772  71.132 220.914 -0.15 -0.00    +0.009 A  
DOCKED: ATOM      4  C   UNL     1     140.826  72.369 221.579 -0.26 +0.00    -0.018 A  
DOCKED: ATOM      5  C   UNL     1     140.037  72.556 222.727 -0.31 -0.00    +0.009 A  
DOCKED: ATOM      6  C   UNL     1     139.222  71.527 223.207 -0.31 -0.00    +0.005 A  
DOCKED: ENDROOT
DOCKED: BRANCH   1   7
DOCKED: ATOM      7  C   UNL     1     138.305  69.172 223.087 -0.21 -0.01    +0.085 C  
DOCKED: ATOM      8  C   UNL     1     138.232  68.008 222.090 -0.20 -0.00    +0.021 C  
DOCKED: BRANCH   7   9
DOCKED: ATOM      9  C   UNL     1     138.781  68.744 224.451 -0.29 -0.01    +0.144 A  
DOCKED: ATOM     10  C   UNL     1     139.358  68.641 226.539 -0.47 -0.01    +0.084 A  
DOCKED: ATOM     11  C   UNL     1     139.028  69.545 225.551 -0.37 -0.01    +0.073 A  
DOCKED: ATOM     12  N   UNL     1     139.300  67.388 226.049 -0.93 +0.00    -0.085 NA 
DOCKED: ATOM     13  O   UNL     1     138.954  67.488 224.798 -0.65 -0.04    -0.361 OA 
DOCKED: BRANCH  10  14
DOCKED: ATOM     14  C   UNL     1     139.640  68.970 227.975 -0.54 -0.01    +0.060 C  
DOCKED: BRANCH  14  15
DOCKED: ATOM     15  C   UNL     1     141.058  69.526 228.166 -0.59 -0.00    +0.006 C  
DOCKED: BRANCH  15  16
DOCKED: ATOM     16  C   UNL     1     141.261  70.868 227.447 -0.52 +0.00    -0.003 C  
DOCKED: ATOM     17  C   UNL     1     140.335  71.941 228.013 -0.70 -0.00    +0.004 C  
DOCKED: ENDBRANCH  15  16
DOCKED: ENDBRANCH  14  15
DOCKED: ENDBRANCH  10  14
DOCKED: ENDBRANCH   7   9
DOCKED: ENDBRANCH   1   7
DOCKED: BRANCH   4  18
DOCKED: ATOM     18  C   UNL     1     141.716  73.453 221.088 -0.26 +0.00    -0.018 A  
DOCKED: ATOM     19  C   UNL     1     143.063  73.186 220.782 -0.28 -0.00    +0.009 A  
DOCKED: ATOM     20  C   UNL     1     141.220  74.756 220.892 -0.29 -0.00    +0.013 A  
DOCKED: ATOM     21  C   UNL     1     143.892  74.196 220.290 -0.41 -0.00    +0.001 A  
DOCKED: ATOM     22  C   UNL     1     142.050  75.771 220.390 -0.27 +0.02    -0.034 A  
DOCKED: ATOM     23  C   UNL     1     143.390  75.483 220.092 -0.36 -0.00    +0.005 A  
DOCKED: BRANCH  22  24
DOCKED: ATOM     24  C   UNL     1     141.495  77.141 220.099 -0.23 -0.06    +0.116 C  
DOCKED: BRANCH  24  25
DOCKED: ATOM     25  N   UNL     1     141.874  78.070 221.171 -0.14 +0.20    -0.312 NA 
DOCKED: ATOM     26  H   UNL     1     142.876  77.892 221.416 -0.51 -0.14    +0.123 HD 
DOCKED: BRANCH  25  27
DOCKED: ATOM     27  C   UNL     1     141.064  77.863 222.382 -0.41 -0.03    +0.084 C  
DOCKED: BRANCH  27  28
DOCKED: ATOM     28  C   UNL     1     141.421  78.920 223.443 -0.60 +0.00    -0.004 C  
DOCKED: ATOM     29  C   UNL     1     142.605  79.782 222.980 -0.64 -0.00    +0.009 C  
DOCKED: ATOM     30  C   UNL     1     140.206  79.808 223.743 -0.45 -0.00    +0.009 C  
DOCKED: ENDBRANCH  27  28
DOCKED: ENDBRANCH  25  27
DOCKED: ENDBRANCH  24  25
DOCKED: ENDBRANCH  22  24
DOCKED: ENDBRANCH   4  18
DOCKED: TORSDOF 10
DOCKED: TER
DOCKED: ENDMDL
________________________________________________________________________________


    FINAL DOCKED STATE:
    ________________________


Run:   17 / 20
Time taken for this run:   0.053s

DOCKED: MODEL        17
DOCKED: USER    Run = 17
DOCKED: USER
DOCKED: USER    Estimated Free Energy of Binding    =  -9.08 kcal/mol  [=(1)+(2)+(3)-(4)]
DOCKED: USER
DOCKED: USER    (1) Final Intermolecular Energy     = -12.06 kcal/mol
DOCKED: USER        vdW + Hbond + desolv Energy     = -11.97 kcal/mol
DOCKED: USER        Electrostatic Energy            =  -0.09 kcal/mol
DOCKED: USER        Moving Ligand-Fixed Receptor    = -12.06 kcal/mol
DOCKED: USER        Moving Ligand-Moving Receptor   =  +0.00 kcal/mol
DOCKED: USER    (2) Final Total Internal Energy     =  -1.50 kcal/mol
DOCKED: USER    (3) Torsional Free Energy           =  +2.98 kcal/mol
DOCKED: USER    (4) Unbound System's Energy         =  -1.50 kcal/mol
DOCKED: USER
DOCKED: USER
DOCKED: REMARK SMILES CCCCc1cc([C@H](C)c2ccc(-c3cccc(CNCC(C)C)c3)cc2)on1
DOCKED: REMARK SMILES IDX 10 1 11 2 12 3 13 4 26 5 27 6 8 7 9 8 7 9 5 10 6 11 29 12
DOCKED: REMARK SMILES IDX 28 13 4 14 3 15 2 16 1 17 14 18 15 19 25 20 16 21 18 22
DOCKED: REMARK SMILES IDX 17 23 19 24 20 25 21 27 22 28 23 29 24 30
DOCKED: REMARK H PARENT 20 26
DOCKED: USER                              x       y       z     vdW  Elec       q    Type
DOCKED: USER                           _______ _______ _______ _____ _____    ______ ____
DOCKED: ROOT
DOCKED: ATOM      1  C   UNL     1     139.361  70.379 222.526 -0.20 +0.01    -0.037 A  
DOCKED: ATOM      2  C   UNL     1     139.495  71.587 223.236 -0.33 -0.00    +0.005 A  
DOCKED: ATOM      3  C   UNL     1     140.307  72.612 222.746 -0.31 -0.00    +0.009 A  
DOCKED: ATOM      4  C   UNL     1     141.015  72.450 221.542 -0.27 +0.00    -0.018 A  
DOCKED: ATOM      5  C   UNL     1     140.897  71.235 220.844 -0.16 -0.00    +0.009 A  
DOCKED: ATOM      6  C   UNL     1     140.080  70.211 221.331 -0.11 -0.00    +0.005 A  
DOCKED: ENDROOT
DOCKED: BRANCH   1   7
DOCKED: ATOM      7  C   UNL     1     138.467  69.268 223.039 -0.20 -0.01    +0.085 C  
DOCKED: ATOM      8  C   UNL     1     138.311  68.164 221.985 -0.19 -0.00    +0.021 C  
DOCKED: BRANCH   7   9
DOCKED: ATOM      9  C   UNL     1     138.981  68.751 224.357 -0.27 -0.02    +0.144 A  
DOCKED: ATOM     10  C   UNL     1     139.609  68.507 226.419 -0.52 -0.01    +0.084 A  
DOCKED: ATOM     11  C   UNL     1     139.244  69.474 225.506 -0.38 -0.01    +0.073 A  
DOCKED: ATOM     12  N   UNL     1     139.556  67.291 225.841 -0.85 +0.00    -0.085 NA 
DOCKED: ATOM     13  O   UNL     1     139.180  67.476 224.609 -0.73 -0.01    -0.361 OA 
DOCKED: BRANCH  10  14
DOCKED: ATOM     14  C   UNL     1     139.922  68.736 227.868 -0.59 -0.01    +0.060 C  
DOCKED: BRANCH  14  15
DOCKED: ATOM     15  C   UNL     1     141.063  69.746 228.054 -0.59 -0.00    +0.006 C  
DOCKED: BRANCH  15  16
DOCKED: ATOM     16  C   UNL     1     140.581  71.199 227.936 -0.76 +0.00    -0.003 C  
DOCKED: ATOM     17  C   UNL     1     141.244  71.906 226.757 -0.73 -0.00    +0.004 C  
DOCKED: ENDBRANCH  15  16
DOCKED: ENDBRANCH  14  15
DOCKED: ENDBRANCH  10  14
DOCKED: ENDBRANCH   7   9
DOCKED: ENDBRANCH   1   7
DOCKED: BRANCH   4  18
DOCKED: ATOM     18  C   UNL     1     141.858  73.551 221.008 -0.26 +0.00    -0.018 A  
DOCKED: ATOM     19  C   UNL     1     143.187  73.305 220.614 -0.30 -0.00    +0.009 A  
DOCKED: ATOM     20  C   UNL     1     141.334  74.849 220.859 -0.29 -0.00    +0.013 A  
DOCKED: ATOM     21  C   UNL     1     143.970  74.332 220.083 -0.42 -0.00    +0.001 A  
DOCKED: ATOM     22  C   UNL     1     142.118  75.881 220.318 -0.27 +0.02    -0.034 A  
DOCKED: ATOM     23  C   UNL     1     143.440  75.613 219.932 -0.37 -0.00    +0.005 A  
DOCKED: BRANCH  22  24
DOCKED: ATOM     24  C   UNL     1     141.529  77.246 220.079 -0.23 -0.06    +0.116 C  
DOCKED: BRANCH  24  25
DOCKED: ATOM     25  N   UNL     1     142.117  78.214 221.014 -0.11 +0.23    -0.312 NA 
DOCKED: ATOM     26  H   UNL     1     143.099  77.912 221.219 -0.52 -0.16    +0.123 HD 
DOCKED: BRANCH  25  27
DOCKED: ATOM     27  C   UNL     1     141.380  78.260 222.286 -0.39 -0.04    +0.084 C  
DOCKED: BRANCH  27  28
DOCKED: ATOM     28  C   UNL     1     141.276  79.712 222.785 -0.51 +0.00    -0.004 C  
DOCKED: ATOM     29  C   UNL     1     140.107  79.869 223.769 -0.44 -0.00    +0.009 C  
DOCKED: ATOM     30  C   UNL     1     142.589  80.143 223.451 -0.68 -0.00    +0.009 C  
DOCKED: ENDBRANCH  27  28
DOCKED: ENDBRANCH  25  27
DOCKED: ENDBRANCH  24  25
DOCKED: ENDBRANCH  22  24
DOCKED: ENDBRANCH   4  18
DOCKED: TORSDOF 10
DOCKED: TER
DOCKED: ENDMDL
________________________________________________________________________________


    FINAL DOCKED STATE:
    ________________________


Run:   18 / 20
Time taken for this run:   0.053s

DOCKED: MODEL        18
DOCKED: USER    Run = 18
DOCKED: USER
DOCKED: USER    Estimated Free Energy of Binding    =  -9.19 kcal/mol  [=(1)+(2)+(3)-(4)]
DOCKED: USER
DOCKED: USER    (1) Final Intermolecular Energy     = -12.17 kcal/mol
DOCKED: USER        vdW + Hbond + desolv Energy     = -12.07 kcal/mol
DOCKED: USER        Electrostatic Energy            =  -0.11 kcal/mol
DOCKED: USER        Moving Ligand-Fixed Receptor    = -12.17 kcal/mol
DOCKED: USER        Moving Ligand-Moving Receptor   =  +0.00 kcal/mol
DOCKED: USER    (2) Final Total Internal Energy     =  -1.44 kcal/mol
DOCKED: USER    (3) Torsional Free Energy           =  +2.98 kcal/mol
DOCKED: USER    (4) Unbound System's Energy         =  -1.44 kcal/mol
DOCKED: USER
DOCKED: USER
DOCKED: REMARK SMILES CCCCc1cc([C@H](C)c2ccc(-c3cccc(CNCC(C)C)c3)cc2)on1
DOCKED: REMARK SMILES IDX 10 1 11 2 12 3 13 4 26 5 27 6 8 7 9 8 7 9 5 10 6 11 29 12
DOCKED: REMARK SMILES IDX 28 13 4 14 3 15 2 16 1 17 14 18 15 19 25 20 16 21 18 22
DOCKED: REMARK SMILES IDX 17 23 19 24 20 25 21 27 22 28 23 29 24 30
DOCKED: REMARK H PARENT 20 26
DOCKED: USER                              x       y       z     vdW  Elec       q    Type
DOCKED: USER                           _______ _______ _______ _____ _____    ______ ____
DOCKED: ROOT
DOCKED: ATOM      1  C   UNL     1     138.588  70.781 223.104 -0.23 +0.01    -0.037 A  
DOCKED: ATOM      2  C   UNL     1     139.993  70.717 223.061 -0.25 -0.00    +0.005 A  
DOCKED: ATOM      3  C   UNL     1     140.735  71.758 222.498 -0.30 -0.00    +0.009 A  
DOCKED: ATOM      4  C   UNL     1     140.090  72.882 221.952 -0.29 +0.00    -0.018 A  
DOCKED: ATOM      5  C   UNL     1     138.685  72.935 221.976 -0.20 -0.00    +0.009 A  
DOCKED: ATOM      6  C   UNL     1     137.943  71.896 222.544 -0.18 -0.00    +0.005 A  
DOCKED: ENDROOT
DOCKED: BRANCH   1   7
DOCKED: ATOM      7  C   UNL     1     137.775  69.666 223.730 -0.23 -0.01    +0.085 C  
DOCKED: ATOM      8  C   UNL     1     137.290  68.679 222.662 -0.17 -0.00    +0.021 C  
DOCKED: BRANCH   7   9
DOCKED: ATOM      9  C   UNL     1     138.562  69.000 224.829 -0.29 -0.01    +0.144 A  
DOCKED: ATOM     10  C   UNL     1     139.594  68.502 226.670 -0.52 -0.01    +0.084 A  
DOCKED: ATOM     11  C   UNL     1     139.012  69.563 226.009 -0.36 -0.01    +0.073 A  
DOCKED: ATOM     12  N   UNL     1     139.487  67.385 225.924 -0.87 +0.00    -0.085 NA 
DOCKED: ATOM     13  O   UNL     1     138.867  67.721 224.830 -0.65 -0.03    -0.361 OA 
DOCKED: BRANCH  10  14
DOCKED: ATOM     14  C   UNL     1     140.174  68.536 228.052 -0.60 -0.01    +0.060 C  
DOCKED: BRANCH  14  15
DOCKED: ATOM     15  C   UNL     1     141.120  69.731 228.246 -0.54 -0.00    +0.006 C  
DOCKED: BRANCH  15  16
DOCKED: ATOM     16  C   UNL     1     140.368  71.069 228.286 -0.65 +0.00    -0.003 C  
DOCKED: ATOM     17  C   UNL     1     141.078  72.124 227.441 -0.82 -0.00    +0.004 C  
DOCKED: ENDBRANCH  15  16
DOCKED: ENDBRANCH  14  15
DOCKED: ENDBRANCH  10  14
DOCKED: ENDBRANCH   7   9
DOCKED: ENDBRANCH   1   7
DOCKED: BRANCH   4  18
DOCKED: ATOM     18  C   UNL     1     140.879  74.001 221.376 -0.29 +0.00    -0.018 A  
DOCKED: ATOM     19  C   UNL     1     141.991  73.740 220.554 -0.25 -0.00    +0.009 A  
DOCKED: ATOM     20  C   UNL     1     140.512  75.338 221.619 -0.34 -0.00    +0.013 A  
DOCKED: ATOM     21  C   UNL     1     142.715  74.791 219.987 -0.31 -0.00    +0.001 A  
DOCKED: ATOM     22  C   UNL     1     141.235  76.396 221.044 -0.29 +0.01    -0.034 A  
DOCKED: ATOM     23  C   UNL     1     142.340  76.113 220.227 -0.26 -0.00    +0.005 A  
DOCKED: BRANCH  22  24
DOCKED: ATOM     24  C   UNL     1     140.788  77.822 221.233 -0.26 -0.05    +0.116 C  
DOCKED: BRANCH  24  25
DOCKED: ATOM     25  N   UNL     1     141.831  78.581 221.935 -0.21 +0.17    -0.312 NA 
DOCKED: ATOM     26  H   UNL     1     142.731  78.054 221.847 -0.49 -0.13    +0.123 HD 
DOCKED: BRANCH  25  27
DOCKED: ATOM     27  C   UNL     1     141.527  78.728 223.367 -0.53 -0.03    +0.084 C  
DOCKED: BRANCH  27  28
DOCKED: ATOM     28  C   UNL     1     141.837  80.162 223.830 -0.61 +0.00    -0.004 C  
DOCKED: ATOM     29  C   UNL     1     143.311  80.512 223.574 -0.61 -0.00    +0.009 C  
DOCKED: ATOM     30  C   UNL     1     140.923  81.165 223.113 -0.46 -0.00    +0.009 C  
DOCKED: ENDBRANCH  27  28
DOCKED: ENDBRANCH  25  27
DOCKED: ENDBRANCH  24  25
DOCKED: ENDBRANCH  22  24
DOCKED: ENDBRANCH   4  18
DOCKED: TORSDOF 10
DOCKED: TER
DOCKED: ENDMDL
________________________________________________________________________________


    FINAL DOCKED STATE:
    ________________________


Run:   19 / 20
Time taken for this run:   0.053s

DOCKED: MODEL        19
DOCKED: USER    Run = 19
DOCKED: USER
DOCKED: USER    Estimated Free Energy of Binding    =  -6.97 kcal/mol  [=(1)+(2)+(3)-(4)]
DOCKED: USER
DOCKED: USER    (1) Final Intermolecular Energy     =  -9.96 kcal/mol
DOCKED: USER        vdW + Hbond + desolv Energy     =  -9.89 kcal/mol
DOCKED: USER        Electrostatic Energy            =  -0.07 kcal/mol
DOCKED: USER        Moving Ligand-Fixed Receptor    =  -9.96 kcal/mol
DOCKED: USER        Moving Ligand-Moving Receptor   =  +0.00 kcal/mol
DOCKED: USER    (2) Final Total Internal Energy     =  -1.83 kcal/mol
DOCKED: USER    (3) Torsional Free Energy           =  +2.98 kcal/mol
DOCKED: USER    (4) Unbound System's Energy         =  -1.83 kcal/mol
DOCKED: USER
DOCKED: USER
DOCKED: REMARK SMILES CCCCc1cc([C@H](C)c2ccc(-c3cccc(CNCC(C)C)c3)cc2)on1
DOCKED: REMARK SMILES IDX 10 1 11 2 12 3 13 4 26 5 27 6 8 7 9 8 7 9 5 10 6 11 29 12
DOCKED: REMARK SMILES IDX 28 13 4 14 3 15 2 16 1 17 14 18 15 19 25 20 16 21 18 22
DOCKED: REMARK SMILES IDX 17 23 19 24 20 25 21 27 22 28 23 29 24 30
DOCKED: REMARK H PARENT 20 26
DOCKED: USER                              x       y       z     vdW  Elec       q    Type
DOCKED: USER                           _______ _______ _______ _____ _____    ______ ____
DOCKED: ROOT
DOCKED: ATOM      1  C   UNL     1     140.373  74.920 221.153 -0.26 +0.01    -0.037 A  
DOCKED: ATOM      2  C   UNL     1     138.980  74.932 221.354 -0.22 -0.00    +0.005 A  
DOCKED: ATOM      3  C   UNL     1     138.341  73.850 221.963 -0.18 -0.00    +0.009 A  
DOCKED: ATOM      4  C   UNL     1     139.076  72.724 222.374 -0.20 +0.00    -0.018 A  
DOCKED: ATOM      5  C   UNL     1     140.464  72.703 222.153 -0.31 -0.00    +0.009 A  
DOCKED: ATOM      6  C   UNL     1     141.105  73.788 221.550 -0.29 -0.00    +0.005 A  
DOCKED: ENDROOT
DOCKED: BRANCH   1   7
DOCKED: ATOM      7  C   UNL     1     141.079  76.097 220.512 -0.23 -0.03    +0.085 C  
DOCKED: ATOM      8  C   UNL     1     140.283  76.621 219.310 -0.09 -0.01    +0.021 C  
DOCKED: BRANCH   7   9
DOCKED: ATOM      9  C   UNL     1     141.356  77.163 221.541 -0.19 -0.07    +0.144 A  
DOCKED: ATOM     10  C   UNL     1     141.834  79.003 222.583 -0.47 -0.04    +0.084 A  
DOCKED: ATOM     11  C   UNL     1     141.856  78.435 221.328 -0.31 -0.04    +0.073 A  
DOCKED: ATOM     12  N   UNL     1     141.346  78.120 223.476 -0.43 +0.03    -0.085 NA 
DOCKED: ATOM     13  O   UNL     1     141.073  77.031 222.817 -0.28 +0.13    -0.361 OA 
DOCKED: BRANCH  10  14
DOCKED: ATOM     14  C   UNL     1     142.196  80.420 222.916 -0.58 -0.02    +0.060 C  
DOCKED: BRANCH  14  15
DOCKED: ATOM     15  C   UNL     1     141.084  81.402 222.517 -0.45 -0.00    +0.006 C  
DOCKED: BRANCH  15  16
DOCKED: ATOM     16  C   UNL     1     139.710  80.723 222.426 -0.31 +0.00    -0.003 C  
DOCKED: ATOM     17  C   UNL     1     139.110  80.507 223.813 -0.42 -0.00    +0.004 C  
DOCKED: ENDBRANCH  15  16
DOCKED: ENDBRANCH  14  15
DOCKED: ENDBRANCH  10  14
DOCKED: ENDBRANCH   7   9
DOCKED: ENDBRANCH   1   7
DOCKED: BRANCH   4  18
DOCKED: ATOM     18  C   UNL     1     138.399  71.583 223.045 -0.22 +0.00    -0.018 A  
DOCKED: ATOM     19  C   UNL     1     137.031  71.655 223.366 -0.19 -0.00    +0.009 A  
DOCKED: ATOM     20  C   UNL     1     139.107  70.404 223.343 -0.27 -0.00    +0.013 A  
DOCKED: ATOM     21  C   UNL     1     136.387  70.572 223.968 -0.21 -0.00    +0.001 A  
DOCKED: ATOM     22  C   UNL     1     138.460  69.311 223.942 -0.28 +0.00    -0.034 A  
DOCKED: ATOM     23  C   UNL     1     137.095  69.404 224.254 -0.26 -0.00    +0.005 A  
DOCKED: BRANCH  22  24
DOCKED: ATOM     24  C   UNL     1     139.197  68.019 224.180 -0.16 -0.01    +0.116 C  
DOCKED: BRANCH  24  25
DOCKED: ATOM     25  N   UNL     1     139.201  67.705 225.615 -0.77 +0.00    -0.312 NA 
DOCKED: ATOM     26  H   UNL     1     138.325  68.096 226.035 +0.06 +0.00    +0.123 HD 
DOCKED: BRANCH  25  27
DOCKED: ATOM     27  C   UNL     1     140.349  68.318 226.302 -0.56 -0.02    +0.084 C  
DOCKED: BRANCH  27  28
DOCKED: ATOM     28  C   UNL     1     139.981  69.731 226.789 -0.57 +0.00    -0.004 C  
DOCKED: ATOM     29  C   UNL     1     139.868  69.769 228.320 -0.61 -0.00    +0.009 C  
DOCKED: ATOM     30  C   UNL     1     141.022  70.750 226.309 -0.63 -0.00    +0.009 C  
DOCKED: ENDBRANCH  27  28
DOCKED: ENDBRANCH  25  27
DOCKED: ENDBRANCH  24  25
DOCKED: ENDBRANCH  22  24
DOCKED: ENDBRANCH   4  18
DOCKED: TORSDOF 10
DOCKED: TER
DOCKED: ENDMDL
________________________________________________________________________________


    FINAL DOCKED STATE:
    ________________________


Run:   20 / 20
Time taken for this run:   0.053s

DOCKED: MODEL        20
DOCKED: USER    Run = 20
DOCKED: USER
DOCKED: USER    Estimated Free Energy of Binding    =  -8.54 kcal/mol  [=(1)+(2)+(3)-(4)]
DOCKED: USER
DOCKED: USER    (1) Final Intermolecular Energy     = -11.52 kcal/mol
DOCKED: USER        vdW + Hbond + desolv Energy     = -11.46 kcal/mol
DOCKED: USER        Electrostatic Energy            =  -0.06 kcal/mol
DOCKED: USER        Moving Ligand-Fixed Receptor    = -11.52 kcal/mol
DOCKED: USER        Moving Ligand-Moving Receptor   =  +0.00 kcal/mol
DOCKED: USER    (2) Final Total Internal Energy     =  -1.70 kcal/mol
DOCKED: USER    (3) Torsional Free Energy           =  +2.98 kcal/mol
DOCKED: USER    (4) Unbound System's Energy         =  -1.70 kcal/mol
DOCKED: USER
DOCKED: USER
DOCKED: REMARK SMILES CCCCc1cc([C@H](C)c2ccc(-c3cccc(CNCC(C)C)c3)cc2)on1
DOCKED: REMARK SMILES IDX 10 1 11 2 12 3 13 4 26 5 27 6 8 7 9 8 7 9 5 10 6 11 29 12
DOCKED: REMARK SMILES IDX 28 13 4 14 3 15 2 16 1 17 14 18 15 19 25 20 16 21 18 22
DOCKED: REMARK SMILES IDX 17 23 19 24 20 25 21 27 22 28 23 29 24 30
DOCKED: REMARK H PARENT 20 26
DOCKED: USER                              x       y       z     vdW  Elec       q    Type
DOCKED: USER                           _______ _______ _______ _____ _____    ______ ____
DOCKED: ROOT
DOCKED: ATOM      1  C   UNL     1     138.622  70.683 222.772 -0.20 +0.01    -0.037 A  
DOCKED: ATOM      2  C   UNL     1     140.014  70.888 222.796 -0.25 -0.00    +0.005 A  
DOCKED: ATOM      3  C   UNL     1     140.557  72.121 222.425 -0.32 -0.00    +0.009 A  
DOCKED: ATOM      4  C   UNL     1     139.722  73.173 222.008 -0.27 +0.00    -0.018 A  
DOCKED: ATOM      5  C   UNL     1     138.333  72.960 221.965 -0.18 -0.00    +0.009 A  
DOCKED: ATOM      6  C   UNL     1     137.789  71.728 222.342 -0.16 -0.00    +0.005 A  
DOCKED: ENDROOT
DOCKED: BRANCH   1   7
DOCKED: ATOM      7  C   UNL     1     138.023  69.356 223.192 -0.20 -0.01    +0.085 C  
DOCKED: ATOM      8  C   UNL     1     138.047  68.355 222.030 -0.18 -0.00    +0.021 C  
DOCKED: BRANCH   7   9
DOCKED: ATOM      9  C   UNL     1     138.714  68.837 224.426 -0.28 -0.02    +0.144 A  
DOCKED: ATOM     10  C   UNL     1     139.530  68.552 226.415 -0.50 -0.01    +0.084 A  
DOCKED: ATOM     11  C   UNL     1     138.941  69.507 225.615 -0.37 -0.01    +0.073 A  
DOCKED: ATOM     12  N   UNL     1     139.636  67.392 225.739 -0.85 +0.01    -0.085 NA 
DOCKED: ATOM     13  O   UNL     1     139.141  67.601 224.553 -0.68 +0.00    -0.361 OA 
DOCKED: BRANCH  10  14
DOCKED: ATOM     14  C   UNL     1     139.909  68.721 227.856 -0.59 -0.01    +0.060 C  
DOCKED: BRANCH  14  15
DOCKED: ATOM     15  C   UNL     1     141.070  69.712 228.029 -0.60 -0.00    +0.006 C  
DOCKED: BRANCH  15  16
DOCKED: ATOM     16  C   UNL     1     140.607  71.174 227.945 -0.76 +0.00    -0.003 C  
DOCKED: ATOM     17  C   UNL     1     141.154  71.854 226.692 -0.74 -0.00    +0.004 C  
DOCKED: ENDBRANCH  15  16
DOCKED: ENDBRANCH  14  15
DOCKED: ENDBRANCH  10  14
DOCKED: ENDBRANCH   7   9
DOCKED: ENDBRANCH   1   7
DOCKED: BRANCH   4  18
DOCKED: ATOM     18  C   UNL     1     140.297  74.492 221.638 -0.30 +0.00    -0.018 A  
DOCKED: ATOM     19  C   UNL     1     139.761  75.679 222.172 -0.32 -0.00    +0.009 A  
DOCKED: ATOM     20  C   UNL     1     141.404  74.575 220.772 -0.28 -0.00    +0.013 A  
DOCKED: ATOM     21  C   UNL     1     140.321  76.917 221.849 -0.36 -0.00    +0.001 A  
DOCKED: ATOM     22  C   UNL     1     141.973  75.818 220.453 -0.27 +0.02    -0.034 A  
DOCKED: ATOM     23  C   UNL     1     141.422  76.989 220.996 -0.30 -0.00    +0.005 A  
DOCKED: BRANCH  22  24
DOCKED: ATOM     24  C   UNL     1     143.210  75.899 219.598 -0.33 -0.07    +0.116 C  
DOCKED: BRANCH  24  25
DOCKED: ATOM     25  N   UNL     1     144.241  74.998 220.127 -0.24 +0.16    -0.312 NA 
DOCKED: ATOM     26  H   UNL     1     145.178  75.384 219.860 -0.15 -0.10    +0.123 HD 
DOCKED: BRANCH  25  27
DOCKED: ATOM     27  C   UNL     1     144.127  73.646 219.559 -0.30 -0.02    +0.084 C  
DOCKED: BRANCH  27  28
DOCKED: ATOM     28  C   UNL     1     144.961  72.652 220.387 -0.47 +0.00    -0.004 C  
DOCKED: ATOM     29  C   UNL     1     145.616  71.599 219.479 -0.29 +0.00    +0.009 C  
DOCKED: ATOM     30  C   UNL     1     146.033  73.395 221.194 -0.72 -0.00    +0.009 C  
DOCKED: ENDBRANCH  27  28
DOCKED: ENDBRANCH  25  27
DOCKED: ENDBRANCH  24  25
DOCKED: ENDBRANCH  22  24
DOCKED: ENDBRANCH   4  18
DOCKED: TORSDOF 10
DOCKED: TER
DOCKED: ENDMDL
________________________________________________________________________________


    CLUSTERING HISTOGRAM
    ____________________


________________________________________________________________________________
     |           |     |           |     |
Clus | Lowest    | Run | Mean      | Num | Histogram
-ter | Binding   |     | Binding   | in  |
Rank | Energy    |     | Energy    | Clus|    5    10   15   20   25   30   35
_____|___________|_____|___________|_____|____:____|____:____|____:____|____:___
   1 |     -9.26 |   1 |     -8.95 |  13 |#############
   2 |     -8.54 |  20 |     -8.43 |   3 |###
   3 |     -7.62 |  15 |     -7.62 |   1 |#
   4 |     -7.57 |   4 |     -7.57 |   1 |#
   5 |     -6.97 |  19 |     -6.92 |   2 |##
_____|___________|_____|___________|_____|______________________________________


    RMSD TABLE
    __________


_______________________________________________________________________
     |      |      |           |         |                 |
Rank | Sub- | Run  | Binding   | Cluster | Reference       | Grep
     | Rank |      | Energy    | RMSD    | RMSD            | Pattern
_____|______|______|___________|_________|_________________|___________
   1      1      1       -9.26      0.00    270.20           RANKING
   1      2      6       -9.23      0.74    270.24           RANKING
   1      3     18       -9.19      0.83    270.34           RANKING
   1      4      7       -9.13      0.89    270.40           RANKING
   1      5     11       -9.10      0.92    270.28           RANKING
   1      6     17       -9.08      0.41    270.11           RANKING
   1      7      5       -9.07      0.88    270.29           RANKING
   1      8     10       -9.06      0.85    270.24           RANKING
   1      9     13       -8.83      1.08    270.18           RANKING
   1     10     16       -8.81      0.44    270.10           RANKING
   1     11      2       -8.68      0.90    270.16           RANKING
   1     12     14       -8.58      0.88    269.81           RANKING
   1     13      9       -8.28      0.94    269.82           RANKING
   2      1     20       -8.54      0.00    269.74           RANKING
   2      2     12       -8.39      0.70    269.81           RANKING
   2      3      8       -8.37      0.40    269.81           RANKING
   3      1     15       -7.62      0.00    269.66           RANKING
   4      1      4       -7.57      0.00    269.88           RANKING
   5      1     19       -6.97      0.00    270.00           RANKING
   5      2      3       -6.87      0.62    270.02           RANKING

Run time 1.031 sec
Idle time 0.000 sec
