AutoDock-GPU version: v1.6

**********************************************************
**    AutoDock-GPU AUTODOCKTOOLS-COMPATIBLE DLG FILE    **
**********************************************************


    DOCKING PARAMETERS
    ________________________


Ligand file:                               /home/a/REINVENT4/ReinventStudies/pleaseWork/justRnve/graph-dock-t2iv78/graph-DockGPU/node-autodockgpu/inputs/KRFOITBJSQQRSJ-KRWDZBQONA-N.pdbqt
Grid fld file:                             /home/a/REINVENT4/ReinventStudies/mols/Rad51/maps/rad51_receptor.maps.fld

Random seed:                               42
Number of runs:                            20
Number of energy evaluations:              1132076
Number of generations:                     42000
Size of population:                        150
Rate of crossover:                         80.000000%
Tournament selection probability limit:    60.000000%
Rate of mutation:                          2.000000%
Maximal allowed delta movement:            +/- 6.000000A
Maximal allowed delta angle:               +/- 90.000000

Rate of local search:                      100.000000%
Maximal number of local search iterations: 300
Rho lower bound:                           0.010000
Spread of local search delta movement:     2.000000A
Spread of local search delta angle:        74.999999
Limit of consecutive successes/failures:   4

Handle symmetry during clustering:         YES
RMSD tolerance:                            2.000000A

Program call in command line was:          /home/a/REINVENT4/ReinventStudies/adgpu-v1.6_linux_x64_cuda12_128wi --filelist batch.txt --heuristics 1 --nrun 20 --psize 150 --lsit 300 --seed 42 --heurmax 12000000 


    GRID PARAMETERS
    ________________________


Receptor name:                             rad51_receptor
Number of grid points (x, y, z):           53, 53, 53
Grid center (x, y, z):                     139.950000, 75.640000, 221.970000A
Grid size (x, y, z):                       19.500000, 19.500000, 19.500000A
Grid spacing:                              0.375000A


    LIGAND PARAMETERS
    ________________________


Ligand name:                               /home/a/REINVENT4/ReinventStudies/pleaseWork/justRnve/graph-dock-t2iv78/graph-DockGPU/node-autodockgpu/inputs/KRFOITBJSQQRSJ-KRWDZBQONA-N
Number of atoms:                           21
Number of rotatable bonds:                 4
Number of atom types:                      5


    DUMMY DATA (only for ADT-compatibility)
    ________________________


DPF> outlev 1
DPF> ga_run 20
DPF> fld /home/a/REINVENT4/ReinventStudies/mols/Rad51/maps/rad51_receptor.maps.fld
DPF> move /home/a/REINVENT4/ReinventStudies/pleaseWork/justRnve/graph-dock-t2iv78/graph-DockGPU/node-autodockgpu/inputs/KRFOITBJSQQRSJ-KRWDZBQONA-N.pdbqt


    COUNTER STATES
    ________________________


Number of energy evaluations performed:    883265
Number of generations used:                35


    INPUT LIGAND PDBQT FILE:
    ________________________


INPUT-LIGAND-PDBQT: REMARK SMILES O=S(=O)(Cc1ccccc1)N1CCC[C@H]1c1ccccc1
INPUT-LIGAND-PDBQT: REMARK SMILES IDX 1 1 2 2 3 3 4 4 5 5 6 6 10 7 7 8 9 9 8 10 11 11 12 12 15 13
INPUT-LIGAND-PDBQT: REMARK SMILES IDX 13 14 14 15 16 16 17 17 21 18 18 19 20 20 19 21
INPUT-LIGAND-PDBQT: REMARK H PARENT
INPUT-LIGAND-PDBQT: ROOT
INPUT-LIGAND-PDBQT: ATOM      1  O   UNL     1       0.802  -1.414   0.830  1.00  0.00    -0.212 OA
INPUT-LIGAND-PDBQT: ATOM      2  S   UNL     1       0.489  -0.366  -0.203  1.00  0.00     0.218 S 
INPUT-LIGAND-PDBQT: ATOM      3  O   UNL     1       0.090   0.905   0.492  1.00  0.00    -0.212 OA
INPUT-LIGAND-PDBQT: ENDROOT
INPUT-LIGAND-PDBQT: BRANCH   2   4
INPUT-LIGAND-PDBQT: ATOM      4  C   UNL     1       1.967  -0.024  -1.152  1.00  0.00     0.189 C 
INPUT-LIGAND-PDBQT: BRANCH   4   5
INPUT-LIGAND-PDBQT: ATOM      5  C   UNL     1       2.995   0.659  -0.294  1.00  0.00    -0.032 A 
INPUT-LIGAND-PDBQT: ATOM      6  C   UNL     1       3.046   2.062  -0.227  1.00  0.00     0.005 A 
INPUT-LIGAND-PDBQT: ATOM      7  C   UNL     1       3.880  -0.100   0.489  1.00  0.00     0.005 A 
INPUT-LIGAND-PDBQT: ATOM      8  C   UNL     1       3.981   2.694   0.597  1.00  0.00     0.000 A 
INPUT-LIGAND-PDBQT: ATOM      9  C   UNL     1       4.814   0.536   1.313  1.00  0.00     0.000 A 
INPUT-LIGAND-PDBQT: ATOM     10  C   UNL     1       4.866   1.932   1.365  1.00  0.00     0.000 A 
INPUT-LIGAND-PDBQT: ENDBRANCH   4   5
INPUT-LIGAND-PDBQT: ENDBRANCH   2   4
INPUT-LIGAND-PDBQT: BRANCH   2  11
INPUT-LIGAND-PDBQT: ATOM     11  N   UNL     1      -0.789  -0.917  -1.284  1.00  0.00    -0.194 NA
INPUT-LIGAND-PDBQT: ATOM     12  C   UNL     1      -0.445  -2.248  -1.812  1.00  0.00     0.103 C 
INPUT-LIGAND-PDBQT: ATOM     13  C   UNL     1      -2.084  -1.140  -0.613  1.00  0.00     0.103 C 
INPUT-LIGAND-PDBQT: ATOM     14  C   UNL     1      -1.133  -3.303  -0.942  1.00  0.00     0.019 C 
INPUT-LIGAND-PDBQT: ATOM     15  C   UNL     1      -2.016  -2.526   0.018  1.00  0.00     0.026 C 
INPUT-LIGAND-PDBQT: BRANCH  13  16
INPUT-LIGAND-PDBQT: ATOM     16  C   UNL     1      -2.557   0.018   0.256  1.00  0.00    -0.030 A 
INPUT-LIGAND-PDBQT: ATOM     17  C   UNL     1      -2.767   1.267  -0.359  1.00  0.00     0.005 A 
INPUT-LIGAND-PDBQT: ATOM     18  C   UNL     1      -2.831  -0.112   1.635  1.00  0.00     0.005 A 
INPUT-LIGAND-PDBQT: ATOM     19  C   UNL     1      -3.208   2.364   0.387  1.00  0.00     0.000 A 
INPUT-LIGAND-PDBQT: ATOM     20  C   UNL     1      -3.272   0.990   2.375  1.00  0.00     0.000 A 
INPUT-LIGAND-PDBQT: ATOM     21  C   UNL     1      -3.457   2.226   1.753  1.00  0.00     0.000 A 
INPUT-LIGAND-PDBQT: ENDBRANCH  13  16
INPUT-LIGAND-PDBQT: ENDBRANCH   2  11
INPUT-LIGAND-PDBQT: TORSDOF 4


    FINAL DOCKED STATE:
    ________________________


Run:   1 / 20
Time taken for this run:   0.025s

DOCKED: MODEL        1
DOCKED: USER    Run = 1
DOCKED: USER
DOCKED: USER    Estimated Free Energy of Binding    =  -6.24 kcal/mol  [=(1)+(2)+(3)-(4)]
DOCKED: USER
DOCKED: USER    (1) Final Intermolecular Energy     =  -7.43 kcal/mol
DOCKED: USER        vdW + Hbond + desolv Energy     =  -7.40 kcal/mol
DOCKED: USER        Electrostatic Energy            =  -0.03 kcal/mol
DOCKED: USER        Moving Ligand-Fixed Receptor    =  -7.43 kcal/mol
DOCKED: USER        Moving Ligand-Moving Receptor   =  +0.00 kcal/mol
DOCKED: USER    (2) Final Total Internal Energy     =  -1.05 kcal/mol
DOCKED: USER    (3) Torsional Free Energy           =  +1.19 kcal/mol
DOCKED: USER    (4) Unbound System's Energy         =  -1.05 kcal/mol
DOCKED: USER
DOCKED: USER
DOCKED: REMARK SMILES O=S(=O)(Cc1ccccc1)N1CCC[C@H]1c1ccccc1
DOCKED: REMARK SMILES IDX 1 1 2 2 3 3 4 4 5 5 6 6 10 7 7 8 9 9 8 10 11 11 12 12 15 13
DOCKED: REMARK SMILES IDX 13 14 14 15 16 16 17 17 21 18 18 19 20 20 19 21
DOCKED: REMARK H PARENT
DOCKED: USER                              x       y       z     vdW  Elec       q    Type
DOCKED: USER                           _______ _______ _______ _____ _____    ______ ____
DOCKED: ROOT
DOCKED: ATOM      1  O   UNL     1     140.364  74.329 221.926 -0.80 +0.01    -0.212 OA 
DOCKED: ATOM      2  S   UNL     1     140.753  75.732 221.547 -0.34 -0.06    +0.218 S  
DOCKED: ATOM      3  O   UNL     1     141.425  76.389 222.720 -0.21 +0.09    -0.212 OA 
DOCKED: ENDROOT
DOCKED: BRANCH   2   4
DOCKED: ATOM      4  C   UNL     1     141.940  75.666 220.210 -0.21 -0.08    +0.189 C  
DOCKED: BRANCH   4   5
DOCKED: ATOM      5  C   UNL     1     142.955  74.586 220.462 -0.33 +0.01    -0.032 A  
DOCKED: ATOM      6  C   UNL     1     142.545  73.255 220.648 -0.27 -0.00    +0.005 A  
DOCKED: ATOM      7  C   UNL     1     144.326  74.890 220.462 -0.38 -0.00    +0.005 A  
DOCKED: ATOM      8  C   UNL     1     143.492  72.248 220.849 -0.31 -0.00    +0.000 A  
DOCKED: ATOM      9  C   UNL     1     145.272  73.880 220.663 -0.60 -0.00    +0.000 A  
DOCKED: ATOM     10  C   UNL     1     144.855  72.560 220.858 -0.44 -0.00    +0.000 A  
DOCKED: ENDBRANCH   4   5
DOCKED: ENDBRANCH   2   4
DOCKED: BRANCH   2  11
DOCKED: ATOM     11  N   UNL     1     139.343  76.656 221.036 -0.10 +0.05    -0.194 NA 
DOCKED: ATOM     12  C   UNL     1     138.138  75.817 221.153 -0.13 -0.02    +0.103 C  
DOCKED: ATOM     13  C   UNL     1     139.039  77.812 221.901 -0.21 -0.02    +0.103 C  
DOCKED: ATOM     14  C   UNL     1     137.475  76.113 222.500 -0.26 -0.00    +0.019 C  
DOCKED: ATOM     15  C   UNL     1     138.257  77.271 223.093 -0.08 -0.00    +0.026 C  
DOCKED: BRANCH  13  16
DOCKED: ATOM     16  C   UNL     1     140.226  78.725 222.181 -0.31 +0.01    -0.030 A  
DOCKED: ATOM     17  C   UNL     1     140.472  79.104 223.514 -0.47 -0.00    +0.005 A  
DOCKED: ATOM     18  C   UNL     1     141.108  79.175 221.175 -0.31 -0.00    +0.005 A  
DOCKED: ATOM     19  C   UNL     1     141.551  79.935 223.831 -0.58 -0.00    +0.000 A  
DOCKED: ATOM     20  C   UNL     1     142.185  80.006 221.499 -0.42 -0.00    +0.000 A  
DOCKED: ATOM     21  C   UNL     1     142.405  80.388 222.824 -0.62 -0.00    +0.000 A  
DOCKED: ENDBRANCH  13  16
DOCKED: ENDBRANCH   2  11
DOCKED: TORSDOF 4
DOCKED: TER
DOCKED: ENDMDL
________________________________________________________________________________


    FINAL DOCKED STATE:
    ________________________


Run:   2 / 20
Time taken for this run:   0.025s

DOCKED: MODEL        2
DOCKED: USER    Run = 2
DOCKED: USER
DOCKED: USER    Estimated Free Energy of Binding    =  -6.15 kcal/mol  [=(1)+(2)+(3)-(4)]
DOCKED: USER
DOCKED: USER    (1) Final Intermolecular Energy     =  -7.34 kcal/mol
DOCKED: USER        vdW + Hbond + desolv Energy     =  -7.33 kcal/mol
DOCKED: USER        Electrostatic Energy            =  -0.01 kcal/mol
DOCKED: USER        Moving Ligand-Fixed Receptor    =  -7.34 kcal/mol
DOCKED: USER        Moving Ligand-Moving Receptor   =  +0.00 kcal/mol
DOCKED: USER    (2) Final Total Internal Energy     =  -1.08 kcal/mol
DOCKED: USER    (3) Torsional Free Energy           =  +1.19 kcal/mol
DOCKED: USER    (4) Unbound System's Energy         =  -1.08 kcal/mol
DOCKED: USER
DOCKED: USER
DOCKED: REMARK SMILES O=S(=O)(Cc1ccccc1)N1CCC[C@H]1c1ccccc1
DOCKED: REMARK SMILES IDX 1 1 2 2 3 3 4 4 5 5 6 6 10 7 7 8 9 9 8 10 11 11 12 12 15 13
DOCKED: REMARK SMILES IDX 13 14 14 15 16 16 17 17 21 18 18 19 20 20 19 21
DOCKED: REMARK H PARENT
DOCKED: USER                              x       y       z     vdW  Elec       q    Type
DOCKED: USER                           _______ _______ _______ _____ _____    ______ ____
DOCKED: ROOT
DOCKED: ATOM      1  O   UNL     1     140.220  73.981 221.962 -0.83 +0.02    -0.212 OA 
DOCKED: ATOM      2  S   UNL     1     140.603  75.315 221.383 -0.32 -0.05    +0.218 S  
DOCKED: ATOM      3  O   UNL     1     141.448  76.058 222.379 -0.27 +0.08    -0.212 OA 
DOCKED: ENDROOT
DOCKED: BRANCH   2   4
DOCKED: ATOM      4  C   UNL     1     141.598  75.051 219.919 -0.15 -0.06    +0.189 C  
DOCKED: BRANCH   4   5
DOCKED: ATOM      5  C   UNL     1     142.833  74.264 220.259 -0.30 +0.01    -0.032 A  
DOCKED: ATOM      6  C   UNL     1     142.742  72.895 220.562 -0.27 -0.00    +0.005 A  
DOCKED: ATOM      7  C   UNL     1     144.095  74.879 220.225 -0.42 -0.00    +0.005 A  
DOCKED: ATOM      8  C   UNL     1     143.895  72.158 220.845 -0.34 -0.00    +0.000 A  
DOCKED: ATOM      9  C   UNL     1     145.247  74.139 220.508 -0.58 -0.00    +0.000 A  
DOCKED: ATOM     10  C   UNL     1     145.147  72.780 220.820 -0.52 -0.00    +0.000 A  
DOCKED: ENDBRANCH   4   5
DOCKED: ENDBRANCH   2   4
DOCKED: BRANCH   2  11
DOCKED: ATOM     11  N   UNL     1     139.169  76.247 220.959 -0.09 +0.05    -0.194 NA 
DOCKED: ATOM     12  C   UNL     1     137.975  75.395 221.087 -0.12 -0.02    +0.103 C  
DOCKED: ATOM     13  C   UNL     1     138.890  77.366 221.879 -0.22 -0.02    +0.103 C  
DOCKED: ATOM     14  C   UNL     1     137.359  75.634 222.467 -0.23 -0.01    +0.019 C  
DOCKED: ATOM     15  C   UNL     1     138.155  76.774 223.076 -0.14 -0.00    +0.026 C  
DOCKED: BRANCH  13  16
DOCKED: ATOM     16  C   UNL     1     140.080  78.277 222.150 -0.32 +0.01    -0.030 A  
DOCKED: ATOM     17  C   UNL     1     140.783  78.798 221.047 -0.27 -0.00    +0.005 A  
DOCKED: ATOM     18  C   UNL     1     140.485  78.653 223.450 -0.39 -0.00    +0.005 A  
DOCKED: ATOM     19  C   UNL     1     141.878  79.646 221.235 -0.38 -0.00    +0.000 A  
DOCKED: ATOM     20  C   UNL     1     141.583  79.502 223.630 -0.60 -0.00    +0.000 A  
DOCKED: ATOM     21  C   UNL     1     142.280  79.994 222.525 -0.58 -0.00    +0.000 A  
DOCKED: ENDBRANCH  13  16
DOCKED: ENDBRANCH   2  11
DOCKED: TORSDOF 4
DOCKED: TER
DOCKED: ENDMDL
________________________________________________________________________________


    FINAL DOCKED STATE:
    ________________________


Run:   3 / 20
Time taken for this run:   0.025s

DOCKED: MODEL        3
DOCKED: USER    Run = 3
DOCKED: USER
DOCKED: USER    Estimated Free Energy of Binding    =  -6.23 kcal/mol  [=(1)+(2)+(3)-(4)]
DOCKED: USER
DOCKED: USER    (1) Final Intermolecular Energy     =  -7.43 kcal/mol
DOCKED: USER        vdW + Hbond + desolv Energy     =  -7.40 kcal/mol
DOCKED: USER        Electrostatic Energy            =  -0.03 kcal/mol
DOCKED: USER        Moving Ligand-Fixed Receptor    =  -7.43 kcal/mol
DOCKED: USER        Moving Ligand-Moving Receptor   =  +0.00 kcal/mol
DOCKED: USER    (2) Final Total Internal Energy     =  -1.05 kcal/mol
DOCKED: USER    (3) Torsional Free Energy           =  +1.19 kcal/mol
DOCKED: USER    (4) Unbound System's Energy         =  -1.05 kcal/mol
DOCKED: USER
DOCKED: USER
DOCKED: REMARK SMILES O=S(=O)(Cc1ccccc1)N1CCC[C@H]1c1ccccc1
DOCKED: REMARK SMILES IDX 1 1 2 2 3 3 4 4 5 5 6 6 10 7 7 8 9 9 8 10 11 11 12 12 15 13
DOCKED: REMARK SMILES IDX 13 14 14 15 16 16 17 17 21 18 18 19 20 20 19 21
DOCKED: REMARK H PARENT
DOCKED: USER                              x       y       z     vdW  Elec       q    Type
DOCKED: USER                           _______ _______ _______ _____ _____    ______ ____
DOCKED: ROOT
DOCKED: ATOM      1  O   UNL     1     140.380  74.317 221.896 -0.77 +0.02    -0.212 OA 
DOCKED: ATOM      2  S   UNL     1     140.779  75.721 221.530 -0.34 -0.06    +0.218 S  
DOCKED: ATOM      3  O   UNL     1     141.448  76.365 222.712 -0.19 +0.09    -0.212 OA 
DOCKED: ENDROOT
DOCKED: BRANCH   2   4
DOCKED: ATOM      4  C   UNL     1     141.972  75.659 220.198 -0.21 -0.08    +0.189 C  
DOCKED: BRANCH   4   5
DOCKED: ATOM      5  C   UNL     1     142.987  74.580 220.453 -0.33 +0.01    -0.032 A  
DOCKED: ATOM      6  C   UNL     1     142.577  73.248 220.638 -0.28 -0.00    +0.005 A  
DOCKED: ATOM      7  C   UNL     1     144.358  74.884 220.456 -0.39 -0.00    +0.005 A  
DOCKED: ATOM      8  C   UNL     1     143.525  72.242 220.842 -0.31 -0.00    +0.000 A  
DOCKED: ATOM      9  C   UNL     1     145.304  73.874 220.659 -0.61 -0.00    +0.000 A  
DOCKED: ATOM     10  C   UNL     1     144.887  72.554 220.854 -0.44 -0.00    +0.000 A  
DOCKED: ENDBRANCH   4   5
DOCKED: ENDBRANCH   2   4
DOCKED: BRANCH   2  11
DOCKED: ATOM     11  N   UNL     1     139.375  76.655 221.019 -0.10 +0.05    -0.194 NA 
DOCKED: ATOM     12  C   UNL     1     138.165  75.825 221.132 -0.13 -0.02    +0.103 C  
DOCKED: ATOM     13  C   UNL     1     139.079  77.811 221.887 -0.21 -0.02    +0.103 C  
DOCKED: ATOM     14  C   UNL     1     137.501  76.122 222.479 -0.26 -0.00    +0.019 C  
DOCKED: ATOM     15  C   UNL     1     138.291  77.273 223.076 -0.08 -0.00    +0.026 C  
DOCKED: BRANCH  13  16
DOCKED: ATOM     16  C   UNL     1     140.271  78.716 222.170 -0.32 +0.01    -0.030 A  
DOCKED: ATOM     17  C   UNL     1     140.552  79.044 223.510 -0.48 -0.00    +0.005 A  
DOCKED: ATOM     18  C   UNL     1     141.127  79.206 221.159 -0.31 -0.00    +0.005 A  
DOCKED: ATOM     19  C   UNL     1     141.638  79.864 223.831 -0.59 -0.00    +0.000 A  
DOCKED: ATOM     20  C   UNL     1     142.211  80.026 221.488 -0.42 -0.00    +0.000 A  
DOCKED: ATOM     21  C   UNL     1     142.464  80.357 222.820 -0.62 -0.00    +0.000 A  
DOCKED: ENDBRANCH  13  16
DOCKED: ENDBRANCH   2  11
DOCKED: TORSDOF 4
DOCKED: TER
DOCKED: ENDMDL
________________________________________________________________________________


    FINAL DOCKED STATE:
    ________________________


Run:   4 / 20
Time taken for this run:   0.025s

DOCKED: MODEL        4
DOCKED: USER    Run = 4
DOCKED: USER
DOCKED: USER    Estimated Free Energy of Binding    =  -6.23 kcal/mol  [=(1)+(2)+(3)-(4)]
DOCKED: USER
DOCKED: USER    (1) Final Intermolecular Energy     =  -7.43 kcal/mol
DOCKED: USER        vdW + Hbond + desolv Energy     =  -7.40 kcal/mol
DOCKED: USER        Electrostatic Energy            =  -0.03 kcal/mol
DOCKED: USER        Moving Ligand-Fixed Receptor    =  -7.43 kcal/mol
DOCKED: USER        Moving Ligand-Moving Receptor   =  +0.00 kcal/mol
DOCKED: USER    (2) Final Total Internal Energy     =  -1.07 kcal/mol
DOCKED: USER    (3) Torsional Free Energy           =  +1.19 kcal/mol
DOCKED: USER    (4) Unbound System's Energy         =  -1.07 kcal/mol
DOCKED: USER
DOCKED: USER
DOCKED: REMARK SMILES O=S(=O)(Cc1ccccc1)N1CCC[C@H]1c1ccccc1
DOCKED: REMARK SMILES IDX 1 1 2 2 3 3 4 4 5 5 6 6 10 7 7 8 9 9 8 10 11 11 12 12 15 13
DOCKED: REMARK SMILES IDX 13 14 14 15 16 16 17 17 21 18 18 19 20 20 19 21
DOCKED: REMARK H PARENT
DOCKED: USER                              x       y       z     vdW  Elec       q    Type
DOCKED: USER                           _______ _______ _______ _____ _____    ______ ____
DOCKED: ROOT
DOCKED: ATOM      1  O   UNL     1     140.351  74.321 221.906 -0.78 +0.02    -0.212 OA 
DOCKED: ATOM      2  S   UNL     1     140.754  75.720 221.528 -0.34 -0.06    +0.218 S  
DOCKED: ATOM      3  O   UNL     1     141.441  76.366 222.698 -0.20 +0.09    -0.212 OA 
DOCKED: ENDROOT
DOCKED: BRANCH   2   4
DOCKED: ATOM      4  C   UNL     1     141.931  75.644 220.182 -0.21 -0.08    +0.189 C  
DOCKED: BRANCH   4   5
DOCKED: ATOM      5  C   UNL     1     142.956  74.575 220.441 -0.33 +0.01    -0.032 A  
DOCKED: ATOM      6  C   UNL     1     142.560  73.237 220.610 -0.27 -0.00    +0.005 A  
DOCKED: ATOM      7  C   UNL     1     144.322  74.897 220.465 -0.38 -0.00    +0.005 A  
DOCKED: ATOM      8  C   UNL     1     143.517  72.241 220.817 -0.31 -0.00    +0.000 A  
DOCKED: ATOM      9  C   UNL     1     145.278  73.897 220.673 -0.60 -0.00    +0.000 A  
DOCKED: ATOM     10  C   UNL     1     144.875  72.570 220.851 -0.45 -0.00    +0.000 A  
DOCKED: ENDBRANCH   4   5
DOCKED: ENDBRANCH   2   4
DOCKED: BRANCH   2  11
DOCKED: ATOM     11  N   UNL     1     139.350  76.661 221.029 -0.10 +0.05    -0.194 NA 
DOCKED: ATOM     12  C   UNL     1     138.137  75.834 221.147 -0.13 -0.02    +0.103 C  
DOCKED: ATOM     13  C   UNL     1     139.063  77.815 221.902 -0.22 -0.02    +0.103 C  
DOCKED: ATOM     14  C   UNL     1     137.484  76.129 222.500 -0.26 -0.00    +0.019 C  
DOCKED: ATOM     15  C   UNL     1     138.281  77.276 223.095 -0.07 -0.00    +0.026 C  
DOCKED: BRANCH  13  16
DOCKED: ATOM     16  C   UNL     1     140.260  78.714 222.180 -0.32 +0.01    -0.030 A  
DOCKED: ATOM     17  C   UNL     1     140.549  79.040 223.519 -0.48 -0.00    +0.005 A  
DOCKED: ATOM     18  C   UNL     1     141.112  79.203 221.166 -0.31 -0.00    +0.005 A  
DOCKED: ATOM     19  C   UNL     1     141.640  79.855 223.835 -0.59 -0.00    +0.000 A  
DOCKED: ATOM     20  C   UNL     1     142.201  80.018 221.490 -0.42 -0.00    +0.000 A  
DOCKED: ATOM     21  C   UNL     1     142.463  80.347 222.821 -0.62 -0.00    +0.000 A  
DOCKED: ENDBRANCH  13  16
DOCKED: ENDBRANCH   2  11
DOCKED: TORSDOF 4
DOCKED: TER
DOCKED: ENDMDL
________________________________________________________________________________


    FINAL DOCKED STATE:
    ________________________


Run:   5 / 20
Time taken for this run:   0.025s

DOCKED: MODEL        5
DOCKED: USER    Run = 5
DOCKED: USER
DOCKED: USER    Estimated Free Energy of Binding    =  -6.23 kcal/mol  [=(1)+(2)+(3)-(4)]
DOCKED: USER
DOCKED: USER    (1) Final Intermolecular Energy     =  -7.42 kcal/mol
DOCKED: USER        vdW + Hbond + desolv Energy     =  -7.39 kcal/mol
DOCKED: USER        Electrostatic Energy            =  -0.02 kcal/mol
DOCKED: USER        Moving Ligand-Fixed Receptor    =  -7.42 kcal/mol
DOCKED: USER        Moving Ligand-Moving Receptor   =  +0.00 kcal/mol
DOCKED: USER    (2) Final Total Internal Energy     =  -1.05 kcal/mol
DOCKED: USER    (3) Torsional Free Energy           =  +1.19 kcal/mol
DOCKED: USER    (4) Unbound System's Energy         =  -1.05 kcal/mol
DOCKED: USER
DOCKED: USER
DOCKED: REMARK SMILES O=S(=O)(Cc1ccccc1)N1CCC[C@H]1c1ccccc1
DOCKED: REMARK SMILES IDX 1 1 2 2 3 3 4 4 5 5 6 6 10 7 7 8 9 9 8 10 11 11 12 12 15 13
DOCKED: REMARK SMILES IDX 13 14 14 15 16 16 17 17 21 18 18 19 20 20 19 21
DOCKED: REMARK H PARENT
DOCKED: USER                              x       y       z     vdW  Elec       q    Type
DOCKED: USER                           _______ _______ _______ _____ _____    ______ ____
DOCKED: ROOT
DOCKED: ATOM      1  O   UNL     1     140.311  74.390 221.876 -0.76 +0.02    -0.212 OA 
DOCKED: ATOM      2  S   UNL     1     140.751  75.785 221.522 -0.34 -0.06    +0.218 S  
DOCKED: ATOM      3  O   UNL     1     141.442  76.398 222.707 -0.20 +0.09    -0.212 OA 
DOCKED: ENDROOT
DOCKED: BRANCH   2   4
DOCKED: ATOM      4  C   UNL     1     141.939  75.699 220.186 -0.21 -0.08    +0.189 C  
DOCKED: BRANCH   4   5
DOCKED: ATOM      5  C   UNL     1     142.943  74.611 220.446 -0.33 +0.01    -0.032 A  
DOCKED: ATOM      6  C   UNL     1     142.520  73.283 220.627 -0.27 -0.00    +0.005 A  
DOCKED: ATOM      7  C   UNL     1     144.316  74.904 220.458 -0.37 -0.00    +0.005 A  
DOCKED: ATOM      8  C   UNL     1     143.458  72.268 220.835 -0.31 -0.00    +0.000 A  
DOCKED: ATOM      9  C   UNL     1     145.252  73.886 220.666 -0.60 -0.00    +0.000 A  
DOCKED: ATOM     10  C   UNL     1     144.823  72.569 220.857 -0.44 -0.00    +0.000 A  
DOCKED: ENDBRANCH   4   5
DOCKED: ENDBRANCH   2   4
DOCKED: BRANCH   2  11
DOCKED: ATOM     11  N   UNL     1     139.374  76.765 221.022 -0.10 +0.05    -0.194 NA 
DOCKED: ATOM     12  C   UNL     1     138.147  75.954 221.080 -0.12 -0.02    +0.103 C  
DOCKED: ATOM     13  C   UNL     1     139.083  77.891 221.930 -0.22 -0.02    +0.103 C  
DOCKED: ATOM     14  C   UNL     1     137.464  76.211 222.426 -0.26 -0.00    +0.019 C  
DOCKED: ATOM     15  C   UNL     1     138.263  77.323 223.082 -0.09 -0.00    +0.026 C  
DOCKED: BRANCH  13  16
DOCKED: ATOM     16  C   UNL     1     140.286  78.761 222.270 -0.33 +0.01    -0.030 A  
DOCKED: ATOM     17  C   UNL     1     141.057  79.273 221.209 -0.31 -0.00    +0.005 A  
DOCKED: ATOM     18  C   UNL     1     140.639  79.108 223.592 -0.49 -0.00    +0.005 A  
DOCKED: ATOM     19  C   UNL     1     142.168  80.083 221.461 -0.42 -0.00    +0.000 A  
DOCKED: ATOM     20  C   UNL     1     141.752  79.920 223.836 -0.61 -0.00    +0.000 A  
DOCKED: ATOM     21  C   UNL     1     142.517  80.403 222.773 -0.62 -0.00    +0.000 A  
DOCKED: ENDBRANCH  13  16
DOCKED: ENDBRANCH   2  11
DOCKED: TORSDOF 4
DOCKED: TER
DOCKED: ENDMDL
________________________________________________________________________________


    FINAL DOCKED STATE:
    ________________________


Run:   6 / 20
Time taken for this run:   0.025s

DOCKED: MODEL        6
DOCKED: USER    Run = 6
DOCKED: USER
DOCKED: USER    Estimated Free Energy of Binding    =  -5.85 kcal/mol  [=(1)+(2)+(3)-(4)]
DOCKED: USER
DOCKED: USER    (1) Final Intermolecular Energy     =  -7.05 kcal/mol
DOCKED: USER        vdW + Hbond + desolv Energy     =  -7.06 kcal/mol
DOCKED: USER        Electrostatic Energy            =  +0.02 kcal/mol
DOCKED: USER        Moving Ligand-Fixed Receptor    =  -7.05 kcal/mol
DOCKED: USER        Moving Ligand-Moving Receptor   =  +0.00 kcal/mol
DOCKED: USER    (2) Final Total Internal Energy     =  -1.32 kcal/mol
DOCKED: USER    (3) Torsional Free Energy           =  +1.19 kcal/mol
DOCKED: USER    (4) Unbound System's Energy         =  -1.32 kcal/mol
DOCKED: USER
DOCKED: USER
DOCKED: REMARK SMILES O=S(=O)(Cc1ccccc1)N1CCC[C@H]1c1ccccc1
DOCKED: REMARK SMILES IDX 1 1 2 2 3 3 4 4 5 5 6 6 10 7 7 8 9 9 8 10 11 11 12 12 15 13
DOCKED: REMARK SMILES IDX 13 14 14 15 16 16 17 17 21 18 18 19 20 20 19 21
DOCKED: REMARK H PARENT
DOCKED: USER                              x       y       z     vdW  Elec       q    Type
DOCKED: USER                           _______ _______ _______ _____ _____    ______ ____
DOCKED: ROOT
DOCKED: ATOM      1  O   UNL     1     141.450  76.264 222.514 -0.21 +0.09    -0.212 OA 
DOCKED: ATOM      2  S   UNL     1     140.050  76.361 221.972 -0.36 -0.05    +0.218 S  
DOCKED: ATOM      3  O   UNL     1     139.287  75.127 222.360 -0.58 +0.04    -0.212 OA 
DOCKED: ENDROOT
DOCKED: BRANCH   2   4
DOCKED: ATOM      4  C   UNL     1     139.231  77.763 222.724 -0.21 -0.03    +0.189 C  
DOCKED: BRANCH   4   5
DOCKED: ATOM      5  C   UNL     1     140.209  78.882 222.951 -0.40 +0.01    -0.032 A  
DOCKED: ATOM      6  C   UNL     1     141.401  78.651 223.659 -0.57 -0.00    +0.005 A  
DOCKED: ATOM      7  C   UNL     1     139.965  80.156 222.412 -0.31 -0.00    +0.005 A  
DOCKED: ATOM      8  C   UNL     1     142.324  79.685 223.840 -0.60 -0.00    +0.000 A  
DOCKED: ATOM      9  C   UNL     1     140.891  81.188 222.595 -0.43 -0.00    +0.000 A  
DOCKED: ATOM     10  C   UNL     1     142.069  80.953 223.311 -0.62 -0.00    +0.000 A  
DOCKED: ENDBRANCH   4   5
DOCKED: ENDBRANCH   2   4
DOCKED: BRANCH   2  11
DOCKED: ATOM     11  N   UNL     1     140.070  76.561 220.222 -0.07 +0.06    -0.194 NA 
DOCKED: ATOM     12  C   UNL     1     139.657  77.933 219.880 -0.08 -0.03    +0.103 C  
DOCKED: ATOM     13  C   UNL     1     141.414  76.451 219.623 -0.18 -0.04    +0.103 C  
DOCKED: ATOM     14  C   UNL     1     140.917  78.783 219.695 -0.20 -0.01    +0.019 C  
DOCKED: ATOM     15  C   UNL     1     142.080  77.812 219.789 -0.27 -0.02    +0.026 C  
DOCKED: BRANCH  13  16
DOCKED: ATOM     16  C   UNL     1     142.198  75.215 220.046 -0.27 +0.01    -0.030 A  
DOCKED: ATOM     17  C   UNL     1     143.603  75.300 220.080 -0.40 -0.00    +0.005 A  
DOCKED: ATOM     18  C   UNL     1     141.583  74.007 220.442 -0.23 -0.00    +0.005 A  
DOCKED: ATOM     19  C   UNL     1     144.375  74.201 220.468 -0.49 -0.00    +0.000 A  
DOCKED: ATOM     20  C   UNL     1     142.362  72.912 220.829 -0.27 -0.00    +0.000 A  
DOCKED: ATOM     21  C   UNL     1     143.754  73.007 220.839 -0.34 -0.00    +0.000 A  
DOCKED: ENDBRANCH  13  16
DOCKED: ENDBRANCH   2  11
DOCKED: TORSDOF 4
DOCKED: TER
DOCKED: ENDMDL
________________________________________________________________________________


    FINAL DOCKED STATE:
    ________________________


Run:   7 / 20
Time taken for this run:   0.025s

DOCKED: MODEL        7
DOCKED: USER    Run = 7
DOCKED: USER
DOCKED: USER    Estimated Free Energy of Binding    =  -6.18 kcal/mol  [=(1)+(2)+(3)-(4)]
DOCKED: USER
DOCKED: USER    (1) Final Intermolecular Energy     =  -7.37 kcal/mol
DOCKED: USER        vdW + Hbond + desolv Energy     =  -7.35 kcal/mol
DOCKED: USER        Electrostatic Energy            =  -0.02 kcal/mol
DOCKED: USER        Moving Ligand-Fixed Receptor    =  -7.37 kcal/mol
DOCKED: USER        Moving Ligand-Moving Receptor   =  +0.00 kcal/mol
DOCKED: USER    (2) Final Total Internal Energy     =  -1.08 kcal/mol
DOCKED: USER    (3) Torsional Free Energy           =  +1.19 kcal/mol
DOCKED: USER    (4) Unbound System's Energy         =  -1.08 kcal/mol
DOCKED: USER
DOCKED: USER
DOCKED: REMARK SMILES O=S(=O)(Cc1ccccc1)N1CCC[C@H]1c1ccccc1
DOCKED: REMARK SMILES IDX 1 1 2 2 3 3 4 4 5 5 6 6 10 7 7 8 9 9 8 10 11 11 12 12 15 13
DOCKED: REMARK SMILES IDX 13 14 14 15 16 16 17 17 21 18 18 19 20 20 19 21
DOCKED: REMARK H PARENT
DOCKED: USER                              x       y       z     vdW  Elec       q    Type
DOCKED: USER                           _______ _______ _______ _____ _____    ______ ____
DOCKED: ROOT
DOCKED: ATOM      1  O   UNL     1     140.317  74.207 221.942 -0.82 +0.01    -0.212 OA 
DOCKED: ATOM      2  S   UNL     1     140.696  75.593 221.496 -0.34 -0.05    +0.218 S  
DOCKED: ATOM      3  O   UNL     1     141.422  76.287 222.613 -0.20 +0.09    -0.212 OA 
DOCKED: ENDROOT
DOCKED: BRANCH   2   4
DOCKED: ATOM      4  C   UNL     1     141.821  75.472 220.110 -0.19 -0.07    +0.189 C  
DOCKED: BRANCH   4   5
DOCKED: ATOM      5  C   UNL     1     142.913  74.481 220.406 -0.32 +0.01    -0.032 A  
DOCKED: ATOM      6  C   UNL     1     142.609  73.120 220.580 -0.27 -0.00    +0.005 A  
DOCKED: ATOM      7  C   UNL     1     144.252  74.899 220.458 -0.37 -0.00    +0.005 A  
DOCKED: ATOM      8  C   UNL     1     143.629  72.196 220.822 -0.32 -0.00    +0.000 A  
DOCKED: ATOM      9  C   UNL     1     145.271  73.972 220.700 -0.60 -0.00    +0.000 A  
DOCKED: ATOM     10  C   UNL     1     144.959  72.622 220.885 -0.46 -0.00    +0.000 A  
DOCKED: ENDBRANCH   4   5
DOCKED: ENDBRANCH   2   4
DOCKED: BRANCH   2  11
DOCKED: ATOM     11  N   UNL     1     139.267  76.506 221.014 -0.10 +0.05    -0.194 NA 
DOCKED: ATOM     12  C   UNL     1     138.075  75.649 221.130 -0.13 -0.02    +0.103 C  
DOCKED: ATOM     13  C   UNL     1     138.958  77.643 221.901 -0.22 -0.02    +0.103 C  
DOCKED: ATOM     14  C   UNL     1     137.423  75.915 222.489 -0.25 -0.00    +0.019 C  
DOCKED: ATOM     15  C   UNL     1     138.196  77.074 223.092 -0.09 -0.00    +0.026 C  
DOCKED: BRANCH  13  16
DOCKED: ATOM     16  C   UNL     1     140.135  78.568 222.183 -0.31 +0.01    -0.030 A  
DOCKED: ATOM     17  C   UNL     1     140.326  79.017 223.504 -0.45 -0.00    +0.005 A  
DOCKED: ATOM     18  C   UNL     1     141.062  78.963 221.193 -0.31 -0.00    +0.005 A  
DOCKED: ATOM     19  C   UNL     1     141.394  79.861 223.823 -0.57 -0.00    +0.000 A  
DOCKED: ATOM     20  C   UNL     1     142.128  79.808 221.520 -0.41 -0.00    +0.000 A  
DOCKED: ATOM     21  C   UNL     1     142.292  80.258 222.831 -0.61 -0.00    +0.000 A  
DOCKED: ENDBRANCH  13  16
DOCKED: ENDBRANCH   2  11
DOCKED: TORSDOF 4
DOCKED: TER
DOCKED: ENDMDL
________________________________________________________________________________


    FINAL DOCKED STATE:
    ________________________


Run:   8 / 20
Time taken for this run:   0.025s

DOCKED: MODEL        8
DOCKED: USER    Run = 8
DOCKED: USER
DOCKED: USER    Estimated Free Energy of Binding    =  -6.15 kcal/mol  [=(1)+(2)+(3)-(4)]
DOCKED: USER
DOCKED: USER    (1) Final Intermolecular Energy     =  -7.34 kcal/mol
DOCKED: USER        vdW + Hbond + desolv Energy     =  -7.33 kcal/mol
DOCKED: USER        Electrostatic Energy            =  -0.01 kcal/mol
DOCKED: USER        Moving Ligand-Fixed Receptor    =  -7.34 kcal/mol
DOCKED: USER        Moving Ligand-Moving Receptor   =  +0.00 kcal/mol
DOCKED: USER    (2) Final Total Internal Energy     =  -1.08 kcal/mol
DOCKED: USER    (3) Torsional Free Energy           =  +1.19 kcal/mol
DOCKED: USER    (4) Unbound System's Energy         =  -1.08 kcal/mol
DOCKED: USER
DOCKED: USER
DOCKED: REMARK SMILES O=S(=O)(Cc1ccccc1)N1CCC[C@H]1c1ccccc1
DOCKED: REMARK SMILES IDX 1 1 2 2 3 3 4 4 5 5 6 6 10 7 7 8 9 9 8 10 11 11 12 12 15 13
DOCKED: REMARK SMILES IDX 13 14 14 15 16 16 17 17 21 18 18 19 20 20 19 21
DOCKED: REMARK H PARENT
DOCKED: USER                              x       y       z     vdW  Elec       q    Type
DOCKED: USER                           _______ _______ _______ _____ _____    ______ ____
DOCKED: ROOT
DOCKED: ATOM      1  O   UNL     1     140.183  73.983 221.964 -0.83 +0.02    -0.212 OA 
DOCKED: ATOM      2  S   UNL     1     140.581  75.306 221.369 -0.31 -0.05    +0.218 S  
DOCKED: ATOM      3  O   UNL     1     141.451  76.043 222.348 -0.28 +0.08    -0.212 OA 
DOCKED: ENDROOT
DOCKED: BRANCH   2   4
DOCKED: ATOM      4  C   UNL     1     141.552  75.012 219.895 -0.15 -0.06    +0.189 C  
DOCKED: BRANCH   4   5
DOCKED: ATOM      5  C   UNL     1     142.820  74.281 220.238 -0.30 +0.01    -0.032 A  
DOCKED: ATOM      6  C   UNL     1     142.788  72.911 220.549 -0.28 -0.00    +0.005 A  
DOCKED: ATOM      7  C   UNL     1     144.054  74.950 220.201 -0.41 -0.00    +0.005 A  
DOCKED: ATOM      8  C   UNL     1     143.972  72.226 220.836 -0.35 -0.00    +0.000 A  
DOCKED: ATOM      9  C   UNL     1     145.237  74.261 220.487 -0.54 -0.00    +0.000 A  
DOCKED: ATOM     10  C   UNL     1     145.196  72.900 220.807 -0.55 -0.00    +0.000 A  
DOCKED: ENDBRANCH   4   5
DOCKED: ENDBRANCH   2   4
DOCKED: BRANCH   2  11
DOCKED: ATOM     11  N   UNL     1     139.158  76.258 220.955 -0.09 +0.05    -0.194 NA 
DOCKED: ATOM     12  C   UNL     1     137.953  75.421 221.081 -0.12 -0.02    +0.103 C  
DOCKED: ATOM     13  C   UNL     1     138.896  77.375 221.883 -0.22 -0.02    +0.103 C  
DOCKED: ATOM     14  C   UNL     1     137.345  75.658 222.465 -0.23 -0.01    +0.019 C  
DOCKED: ATOM     15  C   UNL     1     138.157  76.785 223.079 -0.13 -0.00    +0.026 C  
DOCKED: BRANCH  13  16
DOCKED: ATOM     16  C   UNL     1     140.098  78.269 222.157 -0.32 +0.01    -0.030 A  
DOCKED: ATOM     17  C   UNL     1     140.815  78.774 221.055 -0.27 -0.00    +0.005 A  
DOCKED: ATOM     18  C   UNL     1     140.501  78.646 223.456 -0.39 -0.00    +0.005 A  
DOCKED: ATOM     19  C   UNL     1     141.922  79.605 221.245 -0.37 -0.00    +0.000 A  
DOCKED: ATOM     20  C   UNL     1     141.610  79.479 223.639 -0.60 -0.00    +0.000 A  
DOCKED: ATOM     21  C   UNL     1     142.321  79.955 222.536 -0.58 -0.00    +0.000 A  
DOCKED: ENDBRANCH  13  16
DOCKED: ENDBRANCH   2  11
DOCKED: TORSDOF 4
DOCKED: TER
DOCKED: ENDMDL
________________________________________________________________________________


    FINAL DOCKED STATE:
    ________________________


Run:   9 / 20
Time taken for this run:   0.025s

DOCKED: MODEL        9
DOCKED: USER    Run = 9
DOCKED: USER
DOCKED: USER    Estimated Free Energy of Binding    =  -6.21 kcal/mol  [=(1)+(2)+(3)-(4)]
DOCKED: USER
DOCKED: USER    (1) Final Intermolecular Energy     =  -7.40 kcal/mol
DOCKED: USER        vdW + Hbond + desolv Energy     =  -7.38 kcal/mol
DOCKED: USER        Electrostatic Energy            =  -0.02 kcal/mol
DOCKED: USER        Moving Ligand-Fixed Receptor    =  -7.40 kcal/mol
DOCKED: USER        Moving Ligand-Moving Receptor   =  +0.00 kcal/mol
DOCKED: USER    (2) Final Total Internal Energy     =  -1.08 kcal/mol
DOCKED: USER    (3) Torsional Free Energy           =  +1.19 kcal/mol
DOCKED: USER    (4) Unbound System's Energy         =  -1.08 kcal/mol
DOCKED: USER
DOCKED: USER
DOCKED: REMARK SMILES O=S(=O)(Cc1ccccc1)N1CCC[C@H]1c1ccccc1
DOCKED: REMARK SMILES IDX 1 1 2 2 3 3 4 4 5 5 6 6 10 7 7 8 9 9 8 10 11 11 12 12 15 13
DOCKED: REMARK SMILES IDX 13 14 14 15 16 16 17 17 21 18 18 19 20 20 19 21
DOCKED: REMARK H PARENT
DOCKED: USER                              x       y       z     vdW  Elec       q    Type
DOCKED: USER                           _______ _______ _______ _____ _____    ______ ____
DOCKED: ROOT
DOCKED: ATOM      1  O   UNL     1     140.338  74.292 221.913 -0.79 +0.01    -0.212 OA 
DOCKED: ATOM      2  S   UNL     1     140.738  75.685 221.509 -0.34 -0.06    +0.218 S  
DOCKED: ATOM      3  O   UNL     1     141.440  76.348 222.660 -0.20 +0.09    -0.212 OA 
DOCKED: ENDROOT
DOCKED: BRANCH   2   4
DOCKED: ATOM      4  C   UNL     1     141.899  75.587 220.150 -0.20 -0.08    +0.189 C  
DOCKED: BRANCH   4   5
DOCKED: ATOM      5  C   UNL     1     142.945  74.544 220.428 -0.33 +0.01    -0.032 A  
DOCKED: ATOM      6  C   UNL     1     142.577  73.201 220.616 -0.27 -0.00    +0.005 A  
DOCKED: ATOM      7  C   UNL     1     144.305  74.895 220.451 -0.38 -0.00    +0.005 A  
DOCKED: ATOM      8  C   UNL     1     143.554  72.228 220.841 -0.31 -0.00    +0.000 A  
DOCKED: ATOM      9  C   UNL     1     145.280  73.918 220.676 -0.60 -0.00    +0.000 A  
DOCKED: ATOM     10  C   UNL     1     144.905  72.586 220.873 -0.45 -0.00    +0.000 A  
DOCKED: ENDBRANCH   4   5
DOCKED: ENDBRANCH   2   4
DOCKED: BRANCH   2  11
DOCKED: ATOM     11  N   UNL     1     139.329  76.620 221.012 -0.10 +0.05    -0.194 NA 
DOCKED: ATOM     12  C   UNL     1     138.121  75.785 221.127 -0.13 -0.02    +0.103 C  
DOCKED: ATOM     13  C   UNL     1     139.035  77.769 221.889 -0.21 -0.02    +0.103 C  
DOCKED: ATOM     14  C   UNL     1     137.466  76.073 222.480 -0.26 -0.00    +0.019 C  
DOCKED: ATOM     15  C   UNL     1     138.256  77.222 223.080 -0.08 -0.00    +0.026 C  
DOCKED: BRANCH  13  16
DOCKED: ATOM     16  C   UNL     1     140.227  78.675 222.171 -0.31 +0.01    -0.030 A  
DOCKED: ATOM     17  C   UNL     1     140.472  79.055 223.504 -0.47 -0.00    +0.005 A  
DOCKED: ATOM     18  C   UNL     1     141.117  79.117 221.167 -0.31 -0.00    +0.005 A  
DOCKED: ATOM     19  C   UNL     1     141.556  79.878 223.824 -0.58 -0.00    +0.000 A  
DOCKED: ATOM     20  C   UNL     1     142.199  79.941 221.494 -0.42 -0.00    +0.000 A  
DOCKED: ATOM     21  C   UNL     1     142.416  80.323 222.819 -0.62 -0.00    +0.000 A  
DOCKED: ENDBRANCH  13  16
DOCKED: ENDBRANCH   2  11
DOCKED: TORSDOF 4
DOCKED: TER
DOCKED: ENDMDL
________________________________________________________________________________


    FINAL DOCKED STATE:
    ________________________


Run:   10 / 20
Time taken for this run:   0.025s

DOCKED: MODEL        10
DOCKED: USER    Run = 10
DOCKED: USER
DOCKED: USER    Estimated Free Energy of Binding    =  -5.72 kcal/mol  [=(1)+(2)+(3)-(4)]
DOCKED: USER
DOCKED: USER    (1) Final Intermolecular Energy     =  -6.92 kcal/mol
DOCKED: USER        vdW + Hbond + desolv Energy     =  -6.92 kcal/mol
DOCKED: USER        Electrostatic Energy            =  +0.00 kcal/mol
DOCKED: USER        Moving Ligand-Fixed Receptor    =  -6.92 kcal/mol
DOCKED: USER        Moving Ligand-Moving Receptor   =  +0.00 kcal/mol
DOCKED: USER    (2) Final Total Internal Energy     =  -1.41 kcal/mol
DOCKED: USER    (3) Torsional Free Energy           =  +1.19 kcal/mol
DOCKED: USER    (4) Unbound System's Energy         =  -1.41 kcal/mol
DOCKED: USER
DOCKED: USER
DOCKED: REMARK SMILES O=S(=O)(Cc1ccccc1)N1CCC[C@H]1c1ccccc1
DOCKED: REMARK SMILES IDX 1 1 2 2 3 3 4 4 5 5 6 6 10 7 7 8 9 9 8 10 11 11 12 12 15 13
DOCKED: REMARK SMILES IDX 13 14 14 15 16 16 17 17 21 18 18 19 20 20 19 21
DOCKED: REMARK H PARENT
DOCKED: USER                              x       y       z     vdW  Elec       q    Type
DOCKED: USER                           _______ _______ _______ _____ _____    ______ ____
DOCKED: ROOT
DOCKED: ATOM      1  O   UNL     1     141.822  75.643 221.955 -0.05 +0.09    -0.212 OA 
DOCKED: ATOM      2  S   UNL     1     140.403  75.601 221.455 -0.32 -0.05    +0.218 S  
DOCKED: ATOM      3  O   UNL     1     139.656  74.524 222.189 -0.77 +0.03    -0.212 OA 
DOCKED: ENDROOT
DOCKED: BRANCH   2   4
DOCKED: ATOM      4  C   UNL     1     139.609  77.161 221.827 -0.23 -0.05    +0.189 C  
DOCKED: BRANCH   4   5
DOCKED: ATOM      5  C   UNL     1     140.635  78.202 222.177 -0.37 +0.01    -0.032 A  
DOCKED: ATOM      6  C   UNL     1     141.190  78.247 223.468 -0.45 -0.00    +0.005 A  
DOCKED: ATOM      7  C   UNL     1     141.087  79.107 221.203 -0.31 -0.00    +0.005 A  
DOCKED: ATOM      8  C   UNL     1     142.168  79.194 223.782 -0.58 -0.00    +0.000 A  
DOCKED: ATOM      9  C   UNL     1     142.066  80.053 221.520 -0.43 -0.00    +0.000 A  
DOCKED: ATOM     10  C   UNL     1     142.604  80.098 222.810 -0.63 -0.00    +0.000 A  
DOCKED: ENDBRANCH   4   5
DOCKED: ENDBRANCH   2   4
DOCKED: BRANCH   2  11
DOCKED: ATOM     11  N   UNL     1     140.362  75.320 219.716 -0.05 +0.05    -0.194 NA 
DOCKED: ATOM     12  C   UNL     1     139.623  76.412 219.060 -0.04 -0.03    +0.103 C  
DOCKED: ATOM     13  C   UNL     1     141.688  75.369 219.072 -0.13 -0.04    +0.103 C  
DOCKED: ATOM     14  C   UNL     1     140.635  77.450 218.569 -0.09 -0.01    +0.019 C  
DOCKED: ATOM     15  C   UNL     1     142.001  76.841 218.829 -0.24 -0.01    +0.026 C  
DOCKED: BRANCH  13  16
DOCKED: ATOM     16  C   UNL     1     142.754  74.514 219.744 -0.27 +0.01    -0.030 A  
DOCKED: ATOM     17  C   UNL     1     144.023  75.084 219.962 -0.42 -0.00    +0.005 A  
DOCKED: ATOM     18  C   UNL     1     142.518  73.196 220.192 -0.23 -0.00    +0.005 A  
DOCKED: ATOM     19  C   UNL     1     145.038  74.349 220.582 -0.51 -0.00    +0.000 A  
DOCKED: ATOM     20  C   UNL     1     143.538  72.466 220.811 -0.32 -0.00    +0.000 A  
DOCKED: ATOM     21  C   UNL     1     144.796  73.041 221.003 -0.48 -0.00    +0.000 A  
DOCKED: ENDBRANCH  13  16
DOCKED: ENDBRANCH   2  11
DOCKED: TORSDOF 4
DOCKED: TER
DOCKED: ENDMDL
________________________________________________________________________________


    FINAL DOCKED STATE:
    ________________________


Run:   11 / 20
Time taken for this run:   0.025s

DOCKED: MODEL        11
DOCKED: USER    Run = 11
DOCKED: USER
DOCKED: USER    Estimated Free Energy of Binding    =  -5.74 kcal/mol  [=(1)+(2)+(3)-(4)]
DOCKED: USER
DOCKED: USER    (1) Final Intermolecular Energy     =  -6.93 kcal/mol
DOCKED: USER        vdW + Hbond + desolv Energy     =  -6.88 kcal/mol
DOCKED: USER        Electrostatic Energy            =  -0.05 kcal/mol
DOCKED: USER        Moving Ligand-Fixed Receptor    =  -6.93 kcal/mol
DOCKED: USER        Moving Ligand-Moving Receptor   =  +0.00 kcal/mol
DOCKED: USER    (2) Final Total Internal Energy     =  -1.49 kcal/mol
DOCKED: USER    (3) Torsional Free Energy           =  +1.19 kcal/mol
DOCKED: USER    (4) Unbound System's Energy         =  -1.49 kcal/mol
DOCKED: USER
DOCKED: USER
DOCKED: REMARK SMILES O=S(=O)(Cc1ccccc1)N1CCC[C@H]1c1ccccc1
DOCKED: REMARK SMILES IDX 1 1 2 2 3 3 4 4 5 5 6 6 10 7 7 8 9 9 8 10 11 11 12 12 15 13
DOCKED: REMARK SMILES IDX 13 14 14 15 16 16 17 17 21 18 18 19 20 20 19 21
DOCKED: REMARK H PARENT
DOCKED: USER                              x       y       z     vdW  Elec       q    Type
DOCKED: USER                           _______ _______ _______ _____ _____    ______ ____
DOCKED: ROOT
DOCKED: ATOM      1  O   UNL     1     138.837  68.019 223.415 -0.30 +0.03    -0.212 OA 
DOCKED: ATOM      2  S   UNL     1     138.814  68.850 224.669 -0.36 -0.02    +0.218 S  
DOCKED: ATOM      3  O   UNL     1     137.895  68.204 225.668 -0.18 -0.01    -0.212 OA 
DOCKED: ENDROOT
DOCKED: BRANCH   2   4
DOCKED: ATOM      4  C   UNL     1     140.455  68.877 225.381 -0.13 -0.04    +0.189 C  
DOCKED: BRANCH   4   5
DOCKED: ATOM      5  C   UNL     1     140.603  70.046 226.314 -0.52 +0.01    -0.032 A  
DOCKED: ATOM      6  C   UNL     1     141.413  71.139 225.962 -0.62 -0.00    +0.005 A  
DOCKED: ATOM      7  C   UNL     1     139.891  70.079 227.525 -0.59 -0.00    +0.005 A  
DOCKED: ATOM      8  C   UNL     1     141.523  72.239 226.817 -0.70 -0.00    +0.000 A  
DOCKED: ATOM      9  C   UNL     1     140.003  71.181 228.377 -0.62 -0.00    +0.000 A  
DOCKED: ATOM     10  C   UNL     1     140.820  72.259 228.025 -0.70 -0.00    +0.000 A  
DOCKED: ENDBRANCH   4   5
DOCKED: ENDBRANCH   2   4
DOCKED: BRANCH   2  11
DOCKED: ATOM     11  N   UNL     1     138.298  70.498 224.317 -0.19 +0.04    -0.194 NA 
DOCKED: ATOM     12  C   UNL     1     139.299  71.151 223.457 -0.30 -0.02    +0.103 C  
DOCKED: ATOM     13  C   UNL     1     137.059  70.579 223.521 -0.17 -0.02    +0.103 C  
DOCKED: ATOM     14  C   UNL     1     138.845  71.014 222.002 -0.17 -0.00    +0.019 C  
DOCKED: ATOM     15  C   UNL     1     137.463  70.390 222.064 -0.10 -0.00    +0.026 C  
DOCKED: BRANCH  13  16
DOCKED: ATOM     16  C   UNL     1     135.904  69.742 224.057 -0.19 +0.00    -0.030 A  
DOCKED: ATOM     17  C   UNL     1     135.426  70.021 225.351 -0.23 -0.00    +0.005 A  
DOCKED: ATOM     18  C   UNL     1     135.269  68.730 223.304 -0.14 -0.00    +0.005 A  
DOCKED: ATOM     19  C   UNL     1     134.363  69.291 225.891 -0.29 -0.00    +0.000 A  
DOCKED: ATOM     20  C   UNL     1     134.207  68.003 223.852 -0.13 -0.00    +0.000 A  
DOCKED: ATOM     21  C   UNL     1     133.757  68.281 225.144 -0.27 -0.00    +0.000 A  
DOCKED: ENDBRANCH  13  16
DOCKED: ENDBRANCH   2  11
DOCKED: TORSDOF 4
DOCKED: TER
DOCKED: ENDMDL
________________________________________________________________________________


    FINAL DOCKED STATE:
    ________________________


Run:   12 / 20
Time taken for this run:   0.025s

DOCKED: MODEL        12
DOCKED: USER    Run = 12
DOCKED: USER
DOCKED: USER    Estimated Free Energy of Binding    =  -5.74 kcal/mol  [=(1)+(2)+(3)-(4)]
DOCKED: USER
DOCKED: USER    (1) Final Intermolecular Energy     =  -6.93 kcal/mol
DOCKED: USER        vdW + Hbond + desolv Energy     =  -6.93 kcal/mol
DOCKED: USER        Electrostatic Energy            =  +0.00 kcal/mol
DOCKED: USER        Moving Ligand-Fixed Receptor    =  -6.93 kcal/mol
DOCKED: USER        Moving Ligand-Moving Receptor   =  +0.00 kcal/mol
DOCKED: USER    (2) Final Total Internal Energy     =  -1.41 kcal/mol
DOCKED: USER    (3) Torsional Free Energy           =  +1.19 kcal/mol
DOCKED: USER    (4) Unbound System's Energy         =  -1.41 kcal/mol
DOCKED: USER
DOCKED: USER
DOCKED: REMARK SMILES O=S(=O)(Cc1ccccc1)N1CCC[C@H]1c1ccccc1
DOCKED: REMARK SMILES IDX 1 1 2 2 3 3 4 4 5 5 6 6 10 7 7 8 9 9 8 10 11 11 12 12 15 13
DOCKED: REMARK SMILES IDX 13 14 14 15 16 16 17 17 21 18 18 19 20 20 19 21
DOCKED: REMARK H PARENT
DOCKED: USER                              x       y       z     vdW  Elec       q    Type
DOCKED: USER                           _______ _______ _______ _____ _____    ______ ____
DOCKED: ROOT
DOCKED: ATOM      1  O   UNL     1     141.820  75.637 221.960 -0.05 +0.09    -0.212 OA 
DOCKED: ATOM      2  S   UNL     1     140.440  75.635 221.361 -0.31 -0.05    +0.218 S  
DOCKED: ATOM      3  O   UNL     1     139.634  74.533 221.988 -0.71 +0.03    -0.212 OA 
DOCKED: ENDROOT
DOCKED: BRANCH   2   4
DOCKED: ATOM      4  C   UNL     1     139.634  77.184 221.748 -0.22 -0.05    +0.189 C  
DOCKED: BRANCH   4   5
DOCKED: ATOM      5  C   UNL     1     140.648  78.215 222.160 -0.37 +0.01    -0.032 A  
DOCKED: ATOM      6  C   UNL     1     141.219  78.176 223.443 -0.43 -0.00    +0.005 A  
DOCKED: ATOM      7  C   UNL     1     141.071  79.195 221.248 -0.31 -0.00    +0.005 A  
DOCKED: ATOM      8  C   UNL     1     142.186  79.115 223.813 -0.57 -0.00    +0.000 A  
DOCKED: ATOM      9  C   UNL     1     142.039  80.132 221.620 -0.45 -0.00    +0.000 A  
DOCKED: ATOM     10  C   UNL     1     142.595  80.094 222.903 -0.64 -0.00    +0.000 A  
DOCKED: ENDBRANCH   4   5
DOCKED: ENDBRANCH   2   4
DOCKED: BRANCH   2  11
DOCKED: ATOM     11  N   UNL     1     140.519  75.435 219.612 -0.05 +0.06    -0.194 NA 
DOCKED: ATOM     12  C   UNL     1     139.891  76.594 218.956 -0.05 -0.03    +0.103 C  
DOCKED: ATOM     13  C   UNL     1     141.892  75.441 219.072 -0.15 -0.04    +0.103 C  
DOCKED: ATOM     14  C   UNL     1     140.990  77.597 218.594 -0.13 -0.01    +0.019 C  
DOCKED: ATOM     15  C   UNL     1     142.299  76.903 218.926 -0.29 -0.01    +0.026 C  
DOCKED: BRANCH  13  16
DOCKED: ATOM     16  C   UNL     1     142.857  74.498 219.779 -0.28 +0.01    -0.030 A  
DOCKED: ATOM     17  C   UNL     1     144.147  74.974 220.084 -0.44 -0.00    +0.005 A  
DOCKED: ATOM     18  C   UNL     1     142.508  73.189 220.177 -0.23 -0.00    +0.005 A  
DOCKED: ATOM     19  C   UNL     1     145.072  74.157 220.740 -0.55 -0.00    +0.000 A  
DOCKED: ATOM     20  C   UNL     1     143.439  72.377 220.832 -0.31 -0.00    +0.000 A  
DOCKED: ATOM     21  C   UNL     1     144.719  72.859 221.110 -0.41 -0.00    +0.000 A  
DOCKED: ENDBRANCH  13  16
DOCKED: ENDBRANCH   2  11
DOCKED: TORSDOF 4
DOCKED: TER
DOCKED: ENDMDL
________________________________________________________________________________


    FINAL DOCKED STATE:
    ________________________


Run:   13 / 20
Time taken for this run:   0.025s

DOCKED: MODEL        13
DOCKED: USER    Run = 13
DOCKED: USER
DOCKED: USER    Estimated Free Energy of Binding    =  -6.24 kcal/mol  [=(1)+(2)+(3)-(4)]
DOCKED: USER
DOCKED: USER    (1) Final Intermolecular Energy     =  -7.43 kcal/mol
DOCKED: USER        vdW + Hbond + desolv Energy     =  -7.41 kcal/mol
DOCKED: USER        Electrostatic Energy            =  -0.03 kcal/mol
DOCKED: USER        Moving Ligand-Fixed Receptor    =  -7.43 kcal/mol
DOCKED: USER        Moving Ligand-Moving Receptor   =  +0.00 kcal/mol
DOCKED: USER    (2) Final Total Internal Energy     =  -1.06 kcal/mol
DOCKED: USER    (3) Torsional Free Energy           =  +1.19 kcal/mol
DOCKED: USER    (4) Unbound System's Energy         =  -1.06 kcal/mol
DOCKED: USER
DOCKED: USER
DOCKED: REMARK SMILES O=S(=O)(Cc1ccccc1)N1CCC[C@H]1c1ccccc1
DOCKED: REMARK SMILES IDX 1 1 2 2 3 3 4 4 5 5 6 6 10 7 7 8 9 9 8 10 11 11 12 12 15 13
DOCKED: REMARK SMILES IDX 13 14 14 15 16 16 17 17 21 18 18 19 20 20 19 21
DOCKED: REMARK H PARENT
DOCKED: USER                              x       y       z     vdW  Elec       q    Type
DOCKED: USER                           _______ _______ _______ _____ _____    ______ ____
DOCKED: ROOT
DOCKED: ATOM      1  O   UNL     1     140.352  74.334 221.917 -0.79 +0.01    -0.212 OA 
DOCKED: ATOM      2  S   UNL     1     140.752  75.732 221.531 -0.34 -0.06    +0.218 S  
DOCKED: ATOM      3  O   UNL     1     141.441  76.385 222.696 -0.20 +0.09    -0.212 OA 
DOCKED: ENDROOT
DOCKED: BRANCH   2   4
DOCKED: ATOM      4  C   UNL     1     141.926  75.651 220.183 -0.21 -0.08    +0.189 C  
DOCKED: BRANCH   4   5
DOCKED: ATOM      5  C   UNL     1     142.949  74.581 220.442 -0.33 +0.01    -0.032 A  
DOCKED: ATOM      6  C   UNL     1     142.551  73.244 220.616 -0.27 -0.00    +0.005 A  
DOCKED: ATOM      7  C   UNL     1     144.317  74.900 220.461 -0.38 -0.00    +0.005 A  
DOCKED: ATOM      8  C   UNL     1     143.507  72.246 220.823 -0.31 -0.00    +0.000 A  
DOCKED: ATOM      9  C   UNL     1     145.270  73.898 220.668 -0.60 -0.00    +0.000 A  
DOCKED: ATOM     10  C   UNL     1     144.866  72.573 220.852 -0.45 -0.00    +0.000 A  
DOCKED: ENDBRANCH   4   5
DOCKED: ENDBRANCH   2   4
DOCKED: BRANCH   2  11
DOCKED: ATOM     11  N   UNL     1     139.345  76.668 221.029 -0.10 +0.05    -0.194 NA 
DOCKED: ATOM     12  C   UNL     1     138.136  75.835 221.144 -0.13 -0.02    +0.103 C  
DOCKED: ATOM     13  C   UNL     1     139.051  77.819 221.904 -0.21 -0.02    +0.103 C  
DOCKED: ATOM     14  C   UNL     1     137.478  76.126 222.496 -0.26 -0.00    +0.019 C  
DOCKED: ATOM     15  C   UNL     1     138.269  77.276 223.094 -0.08 -0.00    +0.026 C  
DOCKED: BRANCH  13  16
DOCKED: ATOM     16  C   UNL     1     140.244  78.724 222.186 -0.32 +0.01    -0.030 A  
DOCKED: ATOM     17  C   UNL     1     140.527  79.051 223.526 -0.47 -0.00    +0.005 A  
DOCKED: ATOM     18  C   UNL     1     141.098  79.214 221.174 -0.31 -0.00    +0.005 A  
DOCKED: ATOM     19  C   UNL     1     141.613  79.871 223.845 -0.59 -0.00    +0.000 A  
DOCKED: ATOM     20  C   UNL     1     142.184  80.034 221.502 -0.43 -0.00    +0.000 A  
DOCKED: ATOM     21  C   UNL     1     142.438  80.364 222.834 -0.62 -0.00    +0.000 A  
DOCKED: ENDBRANCH  13  16
DOCKED: ENDBRANCH   2  11
DOCKED: TORSDOF 4
DOCKED: TER
DOCKED: ENDMDL
________________________________________________________________________________


    FINAL DOCKED STATE:
    ________________________


Run:   14 / 20
Time taken for this run:   0.025s

DOCKED: MODEL        14
DOCKED: USER    Run = 14
DOCKED: USER
DOCKED: USER    Estimated Free Energy of Binding    =  -6.15 kcal/mol  [=(1)+(2)+(3)-(4)]
DOCKED: USER
DOCKED: USER    (1) Final Intermolecular Energy     =  -7.34 kcal/mol
DOCKED: USER        vdW + Hbond + desolv Energy     =  -7.32 kcal/mol
DOCKED: USER        Electrostatic Energy            =  -0.02 kcal/mol
DOCKED: USER        Moving Ligand-Fixed Receptor    =  -7.34 kcal/mol
DOCKED: USER        Moving Ligand-Moving Receptor   =  +0.00 kcal/mol
DOCKED: USER    (2) Final Total Internal Energy     =  -1.08 kcal/mol
DOCKED: USER    (3) Torsional Free Energy           =  +1.19 kcal/mol
DOCKED: USER    (4) Unbound System's Energy         =  -1.08 kcal/mol
DOCKED: USER
DOCKED: USER
DOCKED: REMARK SMILES O=S(=O)(Cc1ccccc1)N1CCC[C@H]1c1ccccc1
DOCKED: REMARK SMILES IDX 1 1 2 2 3 3 4 4 5 5 6 6 10 7 7 8 9 9 8 10 11 11 12 12 15 13
DOCKED: REMARK SMILES IDX 13 14 14 15 16 16 17 17 21 18 18 19 20 20 19 21
DOCKED: REMARK H PARENT
DOCKED: USER                              x       y       z     vdW  Elec       q    Type
DOCKED: USER                           _______ _______ _______ _____ _____    ______ ____
DOCKED: ROOT
DOCKED: ATOM      1  O   UNL     1     140.353  74.139 221.961 -0.84 +0.01    -0.212 OA 
DOCKED: ATOM      2  S   UNL     1     140.710  75.520 221.480 -0.34 -0.05    +0.218 S  
DOCKED: ATOM      3  O   UNL     1     141.443  76.246 222.572 -0.20 +0.09    -0.212 OA 
DOCKED: ENDROOT
DOCKED: BRANCH   2   4
DOCKED: ATOM      4  C   UNL     1     141.818  75.381 220.082 -0.19 -0.07    +0.189 C  
DOCKED: BRANCH   4   5
DOCKED: ATOM      5  C   UNL     1     142.942  74.434 220.395 -0.32 +0.01    -0.032 A  
DOCKED: ATOM      6  C   UNL     1     142.687  73.065 220.581 -0.27 -0.00    +0.005 A  
DOCKED: ATOM      7  C   UNL     1     144.265  74.902 220.453 -0.37 -0.00    +0.005 A  
DOCKED: ATOM      8  C   UNL     1     143.738  72.181 220.840 -0.33 -0.00    +0.000 A  
DOCKED: ATOM      9  C   UNL     1     145.315  74.015 220.711 -0.60 -0.00    +0.000 A  
DOCKED: ATOM     10  C   UNL     1     145.051  72.656 220.907 -0.48 -0.00    +0.000 A  
DOCKED: ENDBRANCH   4   5
DOCKED: ENDBRANCH   2   4
DOCKED: BRANCH   2  11
DOCKED: ATOM     11  N   UNL     1     139.264  76.406 220.999 -0.10 +0.05    -0.194 NA 
DOCKED: ATOM     12  C   UNL     1     138.091  75.521 221.098 -0.13 -0.02    +0.103 C  
DOCKED: ATOM     13  C   UNL     1     138.924  77.526 221.897 -0.22 -0.02    +0.103 C  
DOCKED: ATOM     14  C   UNL     1     137.424  75.757 222.456 -0.24 -0.00    +0.019 C  
DOCKED: ATOM     15  C   UNL     1     138.168  76.926 223.077 -0.12 -0.00    +0.026 C  
DOCKED: BRANCH  13  16
DOCKED: ATOM     16  C   UNL     1     140.078  78.473 222.196 -0.31 +0.01    -0.030 A  
DOCKED: ATOM     17  C   UNL     1     140.886  78.896 221.123 -0.28 -0.00    +0.005 A  
DOCKED: ATOM     18  C   UNL     1     140.351  78.977 223.487 -0.44 -0.00    +0.005 A  
DOCKED: ATOM     19  C   UNL     1     141.955  79.771 221.336 -0.39 -0.00    +0.000 A  
DOCKED: ATOM     20  C   UNL     1     141.422  79.852 223.693 -0.57 -0.00    +0.000 A  
DOCKED: ATOM     21  C   UNL     1     142.225  80.246 222.620 -0.59 -0.00    +0.000 A  
DOCKED: ENDBRANCH  13  16
DOCKED: ENDBRANCH   2  11
DOCKED: TORSDOF 4
DOCKED: TER
DOCKED: ENDMDL
________________________________________________________________________________


    FINAL DOCKED STATE:
    ________________________


Run:   15 / 20
Time taken for this run:   0.025s

DOCKED: MODEL        15
DOCKED: USER    Run = 15
DOCKED: USER
DOCKED: USER    Estimated Free Energy of Binding    =  -6.22 kcal/mol  [=(1)+(2)+(3)-(4)]
DOCKED: USER
DOCKED: USER    (1) Final Intermolecular Energy     =  -7.42 kcal/mol
DOCKED: USER        vdW + Hbond + desolv Energy     =  -7.39 kcal/mol
DOCKED: USER        Electrostatic Energy            =  -0.02 kcal/mol
DOCKED: USER        Moving Ligand-Fixed Receptor    =  -7.42 kcal/mol
DOCKED: USER        Moving Ligand-Moving Receptor   =  +0.00 kcal/mol
DOCKED: USER    (2) Final Total Internal Energy     =  -1.07 kcal/mol
DOCKED: USER    (3) Torsional Free Energy           =  +1.19 kcal/mol
DOCKED: USER    (4) Unbound System's Energy         =  -1.07 kcal/mol
DOCKED: USER
DOCKED: USER
DOCKED: REMARK SMILES O=S(=O)(Cc1ccccc1)N1CCC[C@H]1c1ccccc1
DOCKED: REMARK SMILES IDX 1 1 2 2 3 3 4 4 5 5 6 6 10 7 7 8 9 9 8 10 11 11 12 12 15 13
DOCKED: REMARK SMILES IDX 13 14 14 15 16 16 17 17 21 18 18 19 20 20 19 21
DOCKED: REMARK H PARENT
DOCKED: USER                              x       y       z     vdW  Elec       q    Type
DOCKED: USER                           _______ _______ _______ _____ _____    ______ ____
DOCKED: ROOT
DOCKED: ATOM      1  O   UNL     1     140.334  74.310 221.924 -0.80 +0.01    -0.212 OA 
DOCKED: ATOM      2  S   UNL     1     140.742  75.701 221.523 -0.34 -0.06    +0.218 S  
DOCKED: ATOM      3  O   UNL     1     141.446  76.358 222.677 -0.20 +0.09    -0.212 OA 
DOCKED: ENDROOT
DOCKED: BRANCH   2   4
DOCKED: ATOM      4  C   UNL     1     141.905  75.599 220.167 -0.20 -0.08    +0.189 C  
DOCKED: BRANCH   4   5
DOCKED: ATOM      5  C   UNL     1     142.944  74.549 220.444 -0.33 +0.01    -0.032 A  
DOCKED: ATOM      6  C   UNL     1     142.567  73.207 220.626 -0.27 -0.00    +0.005 A  
DOCKED: ATOM      7  C   UNL     1     144.305  74.891 220.472 -0.38 -0.00    +0.005 A  
DOCKED: ATOM      8  C   UNL     1     143.538  72.227 220.850 -0.31 -0.00    +0.000 A  
DOCKED: ATOM      9  C   UNL     1     145.274  73.908 220.696 -0.60 -0.00    +0.000 A  
DOCKED: ATOM     10  C   UNL     1     144.890  72.577 220.888 -0.44 -0.00    +0.000 A  
DOCKED: ENDBRANCH   4   5
DOCKED: ENDBRANCH   2   4
DOCKED: BRANCH   2  11
DOCKED: ATOM     11  N   UNL     1     139.339  76.644 221.026 -0.10 +0.05    -0.194 NA 
DOCKED: ATOM     12  C   UNL     1     138.127  75.817 221.138 -0.13 -0.02    +0.103 C  
DOCKED: ATOM     13  C   UNL     1     139.051  77.794 221.904 -0.22 -0.02    +0.103 C  
DOCKED: ATOM     14  C   UNL     1     137.471  76.106 222.491 -0.26 -0.00    +0.019 C  
DOCKED: ATOM     15  C   UNL     1     138.267  77.250 223.092 -0.08 -0.00    +0.026 C  
DOCKED: BRANCH  13  16
DOCKED: ATOM     16  C   UNL     1     140.247  78.693 222.188 -0.32 +0.01    -0.030 A  
DOCKED: ATOM     17  C   UNL     1     140.523  79.027 223.528 -0.47 -0.00    +0.005 A  
DOCKED: ATOM     18  C   UNL     1     141.111  79.172 221.179 -0.31 -0.00    +0.005 A  
DOCKED: ATOM     19  C   UNL     1     141.613  79.842 223.849 -0.59 -0.00    +0.000 A  
DOCKED: ATOM     20  C   UNL     1     142.199  79.987 221.509 -0.43 -0.00    +0.000 A  
DOCKED: ATOM     21  C   UNL     1     142.448  80.324 222.841 -0.62 -0.00    +0.000 A  
DOCKED: ENDBRANCH  13  16
DOCKED: ENDBRANCH   2  11
DOCKED: TORSDOF 4
DOCKED: TER
DOCKED: ENDMDL
________________________________________________________________________________


    FINAL DOCKED STATE:
    ________________________


Run:   16 / 20
Time taken for this run:   0.025s

DOCKED: MODEL        16
DOCKED: USER    Run = 16
DOCKED: USER
DOCKED: USER    Estimated Free Energy of Binding    =  -6.18 kcal/mol  [=(1)+(2)+(3)-(4)]
DOCKED: USER
DOCKED: USER    (1) Final Intermolecular Energy     =  -7.37 kcal/mol
DOCKED: USER        vdW + Hbond + desolv Energy     =  -7.35 kcal/mol
DOCKED: USER        Electrostatic Energy            =  -0.02 kcal/mol
DOCKED: USER        Moving Ligand-Fixed Receptor    =  -7.37 kcal/mol
DOCKED: USER        Moving Ligand-Moving Receptor   =  +0.00 kcal/mol
DOCKED: USER    (2) Final Total Internal Energy     =  -1.07 kcal/mol
DOCKED: USER    (3) Torsional Free Energy           =  +1.19 kcal/mol
DOCKED: USER    (4) Unbound System's Energy         =  -1.07 kcal/mol
DOCKED: USER
DOCKED: USER
DOCKED: REMARK SMILES O=S(=O)(Cc1ccccc1)N1CCC[C@H]1c1ccccc1
DOCKED: REMARK SMILES IDX 1 1 2 2 3 3 4 4 5 5 6 6 10 7 7 8 9 9 8 10 11 11 12 12 15 13
DOCKED: REMARK SMILES IDX 13 14 14 15 16 16 17 17 21 18 18 19 20 20 19 21
DOCKED: REMARK H PARENT
DOCKED: USER                              x       y       z     vdW  Elec       q    Type
DOCKED: USER                           _______ _______ _______ _____ _____    ______ ____
DOCKED: ROOT
DOCKED: ATOM      1  O   UNL     1     140.346  74.210 221.932 -0.81 +0.01    -0.212 OA 
DOCKED: ATOM      2  S   UNL     1     140.714  75.596 221.480 -0.34 -0.06    +0.218 S  
DOCKED: ATOM      3  O   UNL     1     141.437  76.300 222.594 -0.20 +0.09    -0.212 OA 
DOCKED: ENDROOT
DOCKED: BRANCH   2   4
DOCKED: ATOM      4  C   UNL     1     141.839  75.477 220.094 -0.19 -0.07    +0.189 C  
DOCKED: BRANCH   4   5
DOCKED: ATOM      5  C   UNL     1     142.933  74.490 220.389 -0.32 +0.01    -0.032 A  
DOCKED: ATOM      6  C   UNL     1     142.632  73.129 220.573 -0.27 -0.00    +0.005 A  
DOCKED: ATOM      7  C   UNL     1     144.273  74.910 220.433 -0.37 -0.00    +0.005 A  
DOCKED: ATOM      8  C   UNL     1     143.655  72.208 220.814 -0.32 -0.00    +0.000 A  
DOCKED: ATOM      9  C   UNL     1     145.294  73.985 220.674 -0.60 -0.00    +0.000 A  
DOCKED: ATOM     10  C   UNL     1     144.985  72.636 220.868 -0.48 -0.00    +0.000 A  
DOCKED: ENDBRANCH   4   5
DOCKED: ENDBRANCH   2   4
DOCKED: BRANCH   2  11
DOCKED: ATOM     11  N   UNL     1     139.279  76.497 220.997 -0.10 +0.05    -0.194 NA 
DOCKED: ATOM     12  C   UNL     1     138.095  75.628 221.103 -0.13 -0.02    +0.103 C  
DOCKED: ATOM     13  C   UNL     1     138.955  77.627 221.888 -0.22 -0.02    +0.103 C  
DOCKED: ATOM     14  C   UNL     1     137.434  75.881 222.461 -0.25 -0.00    +0.019 C  
DOCKED: ATOM     15  C   UNL     1     138.193  77.044 223.073 -0.10 -0.00    +0.026 C  
DOCKED: BRANCH  13  16
DOCKED: ATOM     16  C   UNL     1     140.122  78.562 222.179 -0.31 +0.01    -0.030 A  
DOCKED: ATOM     17  C   UNL     1     140.299  79.011 223.502 -0.44 -0.00    +0.005 A  
DOCKED: ATOM     18  C   UNL     1     141.052  78.966 221.197 -0.31 -0.00    +0.005 A  
DOCKED: ATOM     19  C   UNL     1     141.356  79.864 223.830 -0.56 -0.00    +0.000 A  
DOCKED: ATOM     20  C   UNL     1     142.108  79.820 221.533 -0.42 -0.00    +0.000 A  
DOCKED: ATOM     21  C   UNL     1     142.258  80.271 222.845 -0.61 -0.00    +0.000 A  
DOCKED: ENDBRANCH  13  16
DOCKED: ENDBRANCH   2  11
DOCKED: TORSDOF 4
DOCKED: TER
DOCKED: ENDMDL
________________________________________________________________________________


    FINAL DOCKED STATE:
    ________________________


Run:   17 / 20
Time taken for this run:   0.025s

DOCKED: MODEL        17
DOCKED: USER    Run = 17
DOCKED: USER
DOCKED: USER    Estimated Free Energy of Binding    =  -6.14 kcal/mol  [=(1)+(2)+(3)-(4)]
DOCKED: USER
DOCKED: USER    (1) Final Intermolecular Energy     =  -7.33 kcal/mol
DOCKED: USER        vdW + Hbond + desolv Energy     =  -7.33 kcal/mol
DOCKED: USER        Electrostatic Energy            =  -0.00 kcal/mol
DOCKED: USER        Moving Ligand-Fixed Receptor    =  -7.33 kcal/mol
DOCKED: USER        Moving Ligand-Moving Receptor   =  +0.00 kcal/mol
DOCKED: USER    (2) Final Total Internal Energy     =  -1.08 kcal/mol
DOCKED: USER    (3) Torsional Free Energy           =  +1.19 kcal/mol
DOCKED: USER    (4) Unbound System's Energy         =  -1.08 kcal/mol
DOCKED: USER
DOCKED: USER
DOCKED: REMARK SMILES O=S(=O)(Cc1ccccc1)N1CCC[C@H]1c1ccccc1
DOCKED: REMARK SMILES IDX 1 1 2 2 3 3 4 4 5 5 6 6 10 7 7 8 9 9 8 10 11 11 12 12 15 13
DOCKED: REMARK SMILES IDX 13 14 14 15 16 16 17 17 21 18 18 19 20 20 19 21
DOCKED: REMARK H PARENT
DOCKED: USER                              x       y       z     vdW  Elec       q    Type
DOCKED: USER                           _______ _______ _______ _____ _____    ______ ____
DOCKED: ROOT
DOCKED: ATOM      1  O   UNL     1     140.096  74.106 221.940 -0.82 +0.02    -0.212 OA 
DOCKED: ATOM      2  S   UNL     1     140.562  75.414 221.361 -0.31 -0.05    +0.218 S  
DOCKED: ATOM      3  O   UNL     1     141.452  76.102 222.356 -0.27 +0.09    -0.212 OA 
DOCKED: ENDROOT
DOCKED: BRANCH   2   4
DOCKED: ATOM      4  C   UNL     1     141.536  75.088 219.896 -0.15 -0.06    +0.189 C  
DOCKED: BRANCH   4   5
DOCKED: ATOM      5  C   UNL     1     142.767  74.302 220.249 -0.29 +0.01    -0.032 A  
DOCKED: ATOM      6  C   UNL     1     142.672  72.935 220.565 -0.27 -0.00    +0.005 A  
DOCKED: ATOM      7  C   UNL     1     144.031  74.913 220.215 -0.42 -0.00    +0.005 A  
DOCKED: ATOM      8  C   UNL     1     143.822  72.199 220.860 -0.33 -0.00    +0.000 A  
DOCKED: ATOM      9  C   UNL     1     145.180  74.173 220.510 -0.56 -0.00    +0.000 A  
DOCKED: ATOM     10  C   UNL     1     145.075  72.817 220.835 -0.52 -0.00    +0.000 A  
DOCKED: ENDBRANCH   4   5
DOCKED: ENDBRANCH   2   4
DOCKED: BRANCH   2  11
DOCKED: ATOM     11  N   UNL     1     139.188  76.434 220.938 -0.09 +0.05    -0.194 NA 
DOCKED: ATOM     12  C   UNL     1     137.945  75.650 221.039 -0.12 -0.02    +0.103 C  
DOCKED: ATOM     13  C   UNL     1     138.964  77.552 221.875 -0.22 -0.02    +0.103 C  
DOCKED: ATOM     14  C   UNL     1     137.329  75.901 222.418 -0.25 -0.00    +0.019 C  
DOCKED: ATOM     15  C   UNL     1     138.183  76.983 223.054 -0.12 -0.00    +0.026 C  
DOCKED: BRANCH  13  16
DOCKED: ATOM     16  C   UNL     1     140.201  78.388 222.174 -0.32 +0.01    -0.030 A  
DOCKED: ATOM     17  C   UNL     1     140.925  78.915 221.088 -0.28 -0.00    +0.005 A  
DOCKED: ATOM     18  C   UNL     1     140.631  78.690 223.485 -0.42 -0.00    +0.005 A  
DOCKED: ATOM     19  C   UNL     1     142.064  79.696 221.302 -0.36 -0.00    +0.000 A  
DOCKED: ATOM     20  C   UNL     1     141.773  79.472 223.691 -0.62 -0.00    +0.000 A  
DOCKED: ATOM     21  C   UNL     1     142.489  79.971 222.602 -0.60 -0.00    +0.000 A  
DOCKED: ENDBRANCH  13  16
DOCKED: ENDBRANCH   2  11
DOCKED: TORSDOF 4
DOCKED: TER
DOCKED: ENDMDL
________________________________________________________________________________


    FINAL DOCKED STATE:
    ________________________


Run:   18 / 20
Time taken for this run:   0.025s

DOCKED: MODEL        18
DOCKED: USER    Run = 18
DOCKED: USER
DOCKED: USER    Estimated Free Energy of Binding    =  -6.15 kcal/mol  [=(1)+(2)+(3)-(4)]
DOCKED: USER
DOCKED: USER    (1) Final Intermolecular Energy     =  -7.35 kcal/mol
DOCKED: USER        vdW + Hbond + desolv Energy     =  -7.32 kcal/mol
DOCKED: USER        Electrostatic Energy            =  -0.02 kcal/mol
DOCKED: USER        Moving Ligand-Fixed Receptor    =  -7.35 kcal/mol
DOCKED: USER        Moving Ligand-Moving Receptor   =  +0.00 kcal/mol
DOCKED: USER    (2) Final Total Internal Energy     =  -1.05 kcal/mol
DOCKED: USER    (3) Torsional Free Energy           =  +1.19 kcal/mol
DOCKED: USER    (4) Unbound System's Energy         =  -1.05 kcal/mol
DOCKED: USER
DOCKED: USER
DOCKED: REMARK SMILES O=S(=O)(Cc1ccccc1)N1CCC[C@H]1c1ccccc1
DOCKED: REMARK SMILES IDX 1 1 2 2 3 3 4 4 5 5 6 6 10 7 7 8 9 9 8 10 11 11 12 12 15 13
DOCKED: REMARK SMILES IDX 13 14 14 15 16 16 17 17 21 18 18 19 20 20 19 21
DOCKED: REMARK H PARENT
DOCKED: USER                              x       y       z     vdW  Elec       q    Type
DOCKED: USER                           _______ _______ _______ _____ _____    ______ ____
DOCKED: ROOT
DOCKED: ATOM      1  O   UNL     1     140.309  74.345 221.817 -0.72 +0.02    -0.212 OA 
DOCKED: ATOM      2  S   UNL     1     140.750  75.744 221.486 -0.34 -0.06    +0.218 S  
DOCKED: ATOM      3  O   UNL     1     141.451  76.333 222.678 -0.18 +0.09    -0.212 OA 
DOCKED: ENDROOT
DOCKED: BRANCH   2   4
DOCKED: ATOM      4  C   UNL     1     141.930  75.680 220.142 -0.21 -0.08    +0.189 C  
DOCKED: BRANCH   4   5
DOCKED: ATOM      5  C   UNL     1     142.942  74.595 220.383 -0.33 +0.01    -0.032 A  
DOCKED: ATOM      6  C   UNL     1     144.311  74.904 220.459 -0.37 -0.00    +0.005 A  
DOCKED: ATOM      7  C   UNL     1     142.524  73.270 220.587 -0.27 -0.00    +0.005 A  
DOCKED: ATOM      8  C   UNL     1     145.247  73.899 220.716 -0.60 -0.00    +0.000 A  
DOCKED: ATOM      9  C   UNL     1     143.463  72.267 220.845 -0.31 -0.00    +0.000 A  
DOCKED: ATOM     10  C   UNL     1     144.824  72.581 220.907 -0.43 -0.00    +0.000 A  
DOCKED: ENDBRANCH   4   5
DOCKED: ENDBRANCH   2   4
DOCKED: BRANCH   2  11
DOCKED: ATOM     11  N   UNL     1     139.374  76.738 221.014 -0.10 +0.05    -0.194 NA 
DOCKED: ATOM     12  C   UNL     1     138.143  75.932 221.076 -0.12 -0.02    +0.103 C  
DOCKED: ATOM     13  C   UNL     1     139.099  77.855 221.938 -0.22 -0.02    +0.103 C  
DOCKED: ATOM     14  C   UNL     1     137.476  76.177 222.432 -0.26 -0.00    +0.019 C  
DOCKED: ATOM     15  C   UNL     1     138.289  77.277 223.092 -0.08 -0.00    +0.026 C  
DOCKED: BRANCH  13  16
DOCKED: ATOM     16  C   UNL     1     140.310  78.714 222.275 -0.33 +0.01    -0.030 A  
DOCKED: ATOM     17  C   UNL     1     141.068  79.240 221.211 -0.31 -0.00    +0.005 A  
DOCKED: ATOM     18  C   UNL     1     140.684  79.038 223.597 -0.49 -0.00    +0.005 A  
DOCKED: ATOM     19  C   UNL     1     142.186  80.041 221.460 -0.42 -0.00    +0.000 A  
DOCKED: ATOM     20  C   UNL     1     141.804  79.841 223.838 -0.61 -0.00    +0.000 A  
DOCKED: ATOM     21  C   UNL     1     142.555  80.339 222.772 -0.62 -0.00    +0.000 A  
DOCKED: ENDBRANCH  13  16
DOCKED: ENDBRANCH   2  11
DOCKED: TORSDOF 4
DOCKED: TER
DOCKED: ENDMDL
________________________________________________________________________________


    FINAL DOCKED STATE:
    ________________________


Run:   19 / 20
Time taken for this run:   0.025s

DOCKED: MODEL        19
DOCKED: USER    Run = 19
DOCKED: USER
DOCKED: USER    Estimated Free Energy of Binding    =  -6.21 kcal/mol  [=(1)+(2)+(3)-(4)]
DOCKED: USER
DOCKED: USER    (1) Final Intermolecular Energy     =  -7.40 kcal/mol
DOCKED: USER        vdW + Hbond + desolv Energy     =  -7.38 kcal/mol
DOCKED: USER        Electrostatic Energy            =  -0.03 kcal/mol
DOCKED: USER        Moving Ligand-Fixed Receptor    =  -7.40 kcal/mol
DOCKED: USER        Moving Ligand-Moving Receptor   =  +0.00 kcal/mol
DOCKED: USER    (2) Final Total Internal Energy     =  -1.04 kcal/mol
DOCKED: USER    (3) Torsional Free Energy           =  +1.19 kcal/mol
DOCKED: USER    (4) Unbound System's Energy         =  -1.04 kcal/mol
DOCKED: USER
DOCKED: USER
DOCKED: REMARK SMILES O=S(=O)(Cc1ccccc1)N1CCC[C@H]1c1ccccc1
DOCKED: REMARK SMILES IDX 1 1 2 2 3 3 4 4 5 5 6 6 10 7 7 8 9 9 8 10 11 11 12 12 15 13
DOCKED: REMARK SMILES IDX 13 14 14 15 16 16 17 17 21 18 18 19 20 20 19 21
DOCKED: REMARK H PARENT
DOCKED: USER                              x       y       z     vdW  Elec       q    Type
DOCKED: USER                           _______ _______ _______ _____ _____    ______ ____
DOCKED: ROOT
DOCKED: ATOM      1  O   UNL     1     140.323  74.347 221.893 -0.78 +0.02    -0.212 OA 
DOCKED: ATOM      2  S   UNL     1     140.745  75.745 221.531 -0.34 -0.06    +0.218 S  
DOCKED: ATOM      3  O   UNL     1     141.433  76.372 222.710 -0.20 +0.09    -0.212 OA 
DOCKED: ENDROOT
DOCKED: BRANCH   2   4
DOCKED: ATOM      4  C   UNL     1     141.928  75.668 220.191 -0.21 -0.08    +0.189 C  
DOCKED: BRANCH   4   5
DOCKED: ATOM      5  C   UNL     1     142.943  74.589 220.448 -0.33 +0.01    -0.032 A  
DOCKED: ATOM      6  C   UNL     1     142.533  73.256 220.626 -0.27 -0.00    +0.005 A  
DOCKED: ATOM      7  C   UNL     1     144.313  74.896 220.461 -0.38 -0.00    +0.005 A  
DOCKED: ATOM      8  C   UNL     1     143.481  72.250 220.832 -0.31 -0.00    +0.000 A  
DOCKED: ATOM      9  C   UNL     1     145.259  73.886 220.668 -0.60 -0.00    +0.000 A  
DOCKED: ATOM     10  C   UNL     1     144.843  72.565 220.855 -0.44 -0.00    +0.000 A  
DOCKED: ENDBRANCH   4   5
DOCKED: ENDBRANCH   2   4
DOCKED: BRANCH   2  11
DOCKED: ATOM     11  N   UNL     1     139.355  76.707 221.032 -0.10 +0.05    -0.194 NA 
DOCKED: ATOM     12  C   UNL     1     138.139  75.879 221.091 -0.13 -0.02    +0.103 C  
DOCKED: ATOM     13  C   UNL     1     139.049  77.829 221.940 -0.22 -0.02    +0.103 C  
DOCKED: ATOM     14  C   UNL     1     137.453  76.126 222.437 -0.26 -0.00    +0.019 C  
DOCKED: ATOM     15  C   UNL     1     138.237  77.249 223.093 -0.08 -0.00    +0.026 C  
DOCKED: BRANCH  13  16
DOCKED: ATOM     16  C   UNL     1     140.240  78.715 222.280 -0.33 +0.01    -0.030 A  
DOCKED: ATOM     17  C   UNL     1     141.046  79.177 221.223 -0.31 -0.00    +0.005 A  
DOCKED: ATOM     18  C   UNL     1     140.549  79.124 223.596 -0.47 -0.00    +0.005 A  
DOCKED: ATOM     19  C   UNL     1     142.149  80.000 221.474 -0.42 -0.00    +0.000 A  
DOCKED: ATOM     20  C   UNL     1     141.653  79.947 223.839 -0.59 -0.00    +0.000 A  
DOCKED: ATOM     21  C   UNL     1     142.453  80.381 222.781 -0.62 -0.00    +0.000 A  
DOCKED: ENDBRANCH  13  16
DOCKED: ENDBRANCH   2  11
DOCKED: TORSDOF 4
DOCKED: TER
DOCKED: ENDMDL
________________________________________________________________________________


    FINAL DOCKED STATE:
    ________________________


Run:   20 / 20
Time taken for this run:   0.025s

DOCKED: MODEL        20
DOCKED: USER    Run = 20
DOCKED: USER
DOCKED: USER    Estimated Free Energy of Binding    =  -5.86 kcal/mol  [=(1)+(2)+(3)-(4)]
DOCKED: USER
DOCKED: USER    (1) Final Intermolecular Energy     =  -7.05 kcal/mol
DOCKED: USER        vdW + Hbond + desolv Energy     =  -7.02 kcal/mol
DOCKED: USER        Electrostatic Energy            =  -0.03 kcal/mol
DOCKED: USER        Moving Ligand-Fixed Receptor    =  -7.05 kcal/mol
DOCKED: USER        Moving Ligand-Moving Receptor   =  +0.00 kcal/mol
DOCKED: USER    (2) Final Total Internal Energy     =  -1.43 kcal/mol
DOCKED: USER    (3) Torsional Free Energy           =  +1.19 kcal/mol
DOCKED: USER    (4) Unbound System's Energy         =  -1.43 kcal/mol
DOCKED: USER
DOCKED: USER
DOCKED: REMARK SMILES O=S(=O)(Cc1ccccc1)N1CCC[C@H]1c1ccccc1
DOCKED: REMARK SMILES IDX 1 1 2 2 3 3 4 4 5 5 6 6 10 7 7 8 9 9 8 10 11 11 12 12 15 13
DOCKED: REMARK SMILES IDX 13 14 14 15 16 16 17 17 21 18 18 19 20 20 19 21
DOCKED: REMARK H PARENT
DOCKED: USER                              x       y       z     vdW  Elec       q    Type
DOCKED: USER                           _______ _______ _______ _____ _____    ______ ____
DOCKED: ROOT
DOCKED: ATOM      1  O   UNL     1     139.202  67.815 225.317 -0.87 +0.00    -0.212 OA 
DOCKED: ATOM      2  S   UNL     1     139.179  68.973 224.356 -0.32 -0.03    +0.218 S  
DOCKED: ATOM      3  O   UNL     1     137.960  69.809 224.624 -0.21 +0.03    -0.212 OA 
DOCKED: ENDROOT
DOCKED: BRANCH   2   4
DOCKED: ATOM      4  C   UNL     1     140.616  69.999 224.647 -0.03 -0.03    +0.189 C  
DOCKED: BRANCH   4   5
DOCKED: ATOM      5  C   UNL     1     140.566  70.594 226.026 -0.55 +0.01    -0.032 A  
DOCKED: ATOM      6  C   UNL     1     141.174  71.834 226.288 -0.67 -0.00    +0.005 A  
DOCKED: ATOM      7  C   UNL     1     139.866  69.940 227.053 -0.55 -0.00    +0.005 A  
DOCKED: ATOM      8  C   UNL     1     141.097  72.400 227.564 -0.78 -0.00    +0.000 A  
DOCKED: ATOM      9  C   UNL     1     139.791  70.510 228.328 -0.60 -0.00    +0.000 A  
DOCKED: ATOM     10  C   UNL     1     140.408  71.738 228.584 -0.58 -0.00    +0.000 A  
DOCKED: ENDBRANCH   4   5
DOCKED: ENDBRANCH   2   4
DOCKED: BRANCH   2  11
DOCKED: ATOM     11  N   UNL     1     139.193  68.401 222.689 -0.12 +0.04    -0.194 NA 
DOCKED: ATOM     12  C   UNL     1     138.257  67.273 222.550 -0.17 -0.02    +0.103 C  
DOCKED: ATOM     13  C   UNL     1     138.686  69.387 221.716 -0.12 -0.02    +0.103 C  
DOCKED: ATOM     14  C   UNL     1     136.920  67.817 222.041 -0.14 -0.00    +0.019 C  
DOCKED: ATOM     15  C   UNL     1     137.166  69.285 221.742 -0.09 -0.00    +0.026 C  
DOCKED: BRANCH  13  16
DOCKED: ATOM     16  C   UNL     1     139.311  70.771 221.830 -0.16 +0.01    -0.030 A  
DOCKED: ATOM     17  C   UNL     1     140.655  70.927 221.440 -0.11 -0.00    +0.005 A  
DOCKED: ATOM     18  C   UNL     1     138.598  71.908 222.268 -0.20 -0.00    +0.005 A  
DOCKED: ATOM     19  C   UNL     1     141.279  72.176 221.516 -0.26 -0.00    +0.000 A  
DOCKED: ATOM     20  C   UNL     1     139.229  73.154 222.341 -0.19 -0.00    +0.000 A  
DOCKED: ATOM     21  C   UNL     1     140.567  73.287 221.969 -0.31 -0.00    +0.000 A  
DOCKED: ENDBRANCH  13  16
DOCKED: ENDBRANCH   2  11
DOCKED: TORSDOF 4
DOCKED: TER
DOCKED: ENDMDL
________________________________________________________________________________


    CLUSTERING HISTOGRAM
    ____________________


________________________________________________________________________________
     |           |     |           |     |
Clus | Lowest    | Run | Mean      | Num | Histogram
-ter | Binding   |     | Binding   | in  |
Rank | Energy    |     | Energy    | Clus|    5    10   15   20   25   30   35
_____|___________|_____|___________|_____|____:____|____:____|____:____|____:___
   1 |     -6.24 |  13 |     -6.12 |  18 |##################
   2 |     -5.86 |  20 |     -5.86 |   1 |#
   3 |     -5.74 |  11 |     -5.74 |   1 |#
_____|___________|_____|___________|_____|______________________________________


    RMSD TABLE
    __________


_______________________________________________________________________
     |      |      |           |         |                 |
Rank | Sub- | Run  | Binding   | Cluster | Reference       | Grep
     | Rank |      | Energy    | RMSD    | RMSD            | Pattern
_____|______|______|___________|_________|_________________|___________
   1      1     13       -6.24      0.00    271.43           RANKING
   1      2      1       -6.24      0.03    271.43           RANKING
   1      3      3       -6.23      0.03    271.44           RANKING
   1      4      4       -6.23      0.02    271.43           RANKING
   1      5      5       -6.23      0.08    271.44           RANKING
   1      6     15       -6.22      0.04    271.43           RANKING
   1      7     19       -6.21      0.05    271.43           RANKING
   1      8      9       -6.21      0.06    271.41           RANKING
   1      9     16       -6.18      0.19    271.35           RANKING
   1     10      7       -6.18      0.18    271.36           RANKING
   1     11     18       -6.15      0.09    271.44           RANKING
   1     12      2       -6.15      0.46    271.20           RANKING
   1     13      8       -6.15      0.48    271.20           RANKING
   1     14     14       -6.15      0.27    271.31           RANKING
   1     15     17       -6.14      0.39    271.23           RANKING
   1     16      6       -5.85      1.34    271.43           RANKING
   1     17     12       -5.74      1.19    271.09           RANKING
   1     18     10       -5.72      1.20    271.05           RANKING
   2      1     20       -5.86      0.00    270.83           RANKING
   3      1     11       -5.74      0.00    270.82           RANKING

Run time 0.487 sec
Idle time 0.000 sec
