AutoDock-GPU version: v1.6

**********************************************************
**    AutoDock-GPU AUTODOCKTOOLS-COMPATIBLE DLG FILE    **
**********************************************************


    DOCKING PARAMETERS
    ________________________


Ligand file:                               /home/a/REINVENT4/ReinventStudies/pleaseWork/justRnve/graph-dock-t2iv78/graph-DockGPU/node-autodockgpu/inputs/KRFOITBJSQQRSJ-QGZVFWFLNA-N.pdbqt
Grid fld file:                             /home/a/REINVENT4/ReinventStudies/mols/Rad51/maps/rad51_receptor.maps.fld

Random seed:                               42
Number of runs:                            20
Number of energy evaluations:              1132076
Number of generations:                     42000
Size of population:                        150
Rate of crossover:                         80.000000%
Tournament selection probability limit:    60.000000%
Rate of mutation:                          2.000000%
Maximal allowed delta movement:            +/- 6.000000A
Maximal allowed delta angle:               +/- 90.000000

Rate of local search:                      100.000000%
Maximal number of local search iterations: 300
Rho lower bound:                           0.010000
Spread of local search delta movement:     2.000000A
Spread of local search delta angle:        74.999999
Limit of consecutive successes/failures:   4

Handle symmetry during clustering:         YES
RMSD tolerance:                            2.000000A

Program call in command line was:          /home/a/REINVENT4/ReinventStudies/adgpu-v1.6_linux_x64_cuda12_128wi --filelist batch.txt --heuristics 1 --nrun 20 --psize 150 --lsit 300 --seed 42 --heurmax 12000000 


    GRID PARAMETERS
    ________________________


Receptor name:                             rad51_receptor
Number of grid points (x, y, z):           53, 53, 53
Grid center (x, y, z):                     139.950000, 75.640000, 221.970000A
Grid size (x, y, z):                       19.500000, 19.500000, 19.500000A
Grid spacing:                              0.375000A


    LIGAND PARAMETERS
    ________________________


Ligand name:                               /home/a/REINVENT4/ReinventStudies/pleaseWork/justRnve/graph-dock-t2iv78/graph-DockGPU/node-autodockgpu/inputs/KRFOITBJSQQRSJ-QGZVFWFLNA-N
Number of atoms:                           21
Number of rotatable bonds:                 4
Number of atom types:                      5


    DUMMY DATA (only for ADT-compatibility)
    ________________________


DPF> outlev 1
DPF> ga_run 20
DPF> fld /home/a/REINVENT4/ReinventStudies/mols/Rad51/maps/rad51_receptor.maps.fld
DPF> move /home/a/REINVENT4/ReinventStudies/pleaseWork/justRnve/graph-dock-t2iv78/graph-DockGPU/node-autodockgpu/inputs/KRFOITBJSQQRSJ-QGZVFWFLNA-N.pdbqt


    COUNTER STATES
    ________________________


Number of energy evaluations performed:    732098
Number of generations used:                30


    INPUT LIGAND PDBQT FILE:
    ________________________


INPUT-LIGAND-PDBQT: REMARK SMILES O=S(=O)(Cc1ccccc1)N1CCC[C@@H]1c1ccccc1
INPUT-LIGAND-PDBQT: REMARK SMILES IDX 1 1 2 2 3 3 4 4 5 5 6 6 10 7 7 8 9 9 8 10 11 11 12 12 15 13
INPUT-LIGAND-PDBQT: REMARK SMILES IDX 13 14 14 15 16 16 17 17 21 18 18 19 20 20 19 21
INPUT-LIGAND-PDBQT: REMARK H PARENT
INPUT-LIGAND-PDBQT: ROOT
INPUT-LIGAND-PDBQT: ATOM      1  O   UNL     1       0.805   0.100   2.784  1.00  0.00    -0.212 OA
INPUT-LIGAND-PDBQT: ATOM      2  S   UNL     1      -0.066  -0.260   1.613  1.00  0.00     0.218 S 
INPUT-LIGAND-PDBQT: ATOM      3  O   UNL     1       0.112  -1.722   1.307  1.00  0.00    -0.212 OA
INPUT-LIGAND-PDBQT: ENDROOT
INPUT-LIGAND-PDBQT: BRANCH   2   4
INPUT-LIGAND-PDBQT: ATOM      4  C   UNL     1      -1.760   0.049   2.102  1.00  0.00     0.189 C 
INPUT-LIGAND-PDBQT: BRANCH   4   5
INPUT-LIGAND-PDBQT: ATOM      5  C   UNL     1      -2.736  -0.278   1.004  1.00  0.00    -0.032 A 
INPUT-LIGAND-PDBQT: ATOM      6  C   UNL     1      -2.989  -1.616   0.655  1.00  0.00     0.005 A 
INPUT-LIGAND-PDBQT: ATOM      7  C   UNL     1      -3.414   0.749   0.326  1.00  0.00     0.005 A 
INPUT-LIGAND-PDBQT: ATOM      8  C   UNL     1      -3.890  -1.918  -0.370  1.00  0.00     0.000 A 
INPUT-LIGAND-PDBQT: ATOM      9  C   UNL     1      -4.315   0.442  -0.699  1.00  0.00     0.000 A 
INPUT-LIGAND-PDBQT: ATOM     10  C   UNL     1      -4.551  -0.891  -1.048  1.00  0.00     0.000 A 
INPUT-LIGAND-PDBQT: ENDBRANCH   4   5
INPUT-LIGAND-PDBQT: ENDBRANCH   2   4
INPUT-LIGAND-PDBQT: BRANCH   2  11
INPUT-LIGAND-PDBQT: ATOM     11  N   UNL     1       0.381   0.725   0.232  1.00  0.00    -0.194 NA
INPUT-LIGAND-PDBQT: ATOM     12  C   UNL     1      -0.160   0.239  -1.038  1.00  0.00     0.103 C 
INPUT-LIGAND-PDBQT: ATOM     13  C   UNL     1       1.826   0.940   0.034  1.00  0.00     0.103 C 
INPUT-LIGAND-PDBQT: ATOM     14  C   UNL     1       0.765   0.741  -2.142  1.00  0.00     0.019 C 
INPUT-LIGAND-PDBQT: ATOM     15  C   UNL     1       1.990   1.310  -1.440  1.00  0.00     0.026 C 
INPUT-LIGAND-PDBQT: BRANCH  13  16
INPUT-LIGAND-PDBQT: ATOM     16  C   UNL     1       2.712  -0.249   0.414  1.00  0.00    -0.030 A 
INPUT-LIGAND-PDBQT: ATOM     17  C   UNL     1       2.688  -1.459  -0.309  1.00  0.00     0.005 A 
INPUT-LIGAND-PDBQT: ATOM     18  C   UNL     1       3.589  -0.135   1.511  1.00  0.00     0.005 A 
INPUT-LIGAND-PDBQT: ATOM     19  C   UNL     1       3.508  -2.527   0.068  1.00  0.00     0.000 A 
INPUT-LIGAND-PDBQT: ATOM     20  C   UNL     1       4.405  -1.207   1.883  1.00  0.00     0.000 A 
INPUT-LIGAND-PDBQT: ATOM     21  C   UNL     1       4.364  -2.402   1.163  1.00  0.00     0.000 A 
INPUT-LIGAND-PDBQT: ENDBRANCH  13  16
INPUT-LIGAND-PDBQT: ENDBRANCH   2  11
INPUT-LIGAND-PDBQT: TORSDOF 4


    FINAL DOCKED STATE:
    ________________________


Run:   1 / 20
Time taken for this run:   0.021s

DOCKED: MODEL        1
DOCKED: USER    Run = 1
DOCKED: USER
DOCKED: USER    Estimated Free Energy of Binding    =  -6.38 kcal/mol  [=(1)+(2)+(3)-(4)]
DOCKED: USER
DOCKED: USER    (1) Final Intermolecular Energy     =  -7.57 kcal/mol
DOCKED: USER        vdW + Hbond + desolv Energy     =  -7.50 kcal/mol
DOCKED: USER        Electrostatic Energy            =  -0.07 kcal/mol
DOCKED: USER        Moving Ligand-Fixed Receptor    =  -7.57 kcal/mol
DOCKED: USER        Moving Ligand-Moving Receptor   =  +0.00 kcal/mol
DOCKED: USER    (2) Final Total Internal Energy     =  -1.36 kcal/mol
DOCKED: USER    (3) Torsional Free Energy           =  +1.19 kcal/mol
DOCKED: USER    (4) Unbound System's Energy         =  -1.36 kcal/mol
DOCKED: USER
DOCKED: USER
DOCKED: REMARK SMILES O=S(=O)(Cc1ccccc1)N1CCC[C@@H]1c1ccccc1
DOCKED: REMARK SMILES IDX 1 1 2 2 3 3 4 4 5 5 6 6 10 7 7 8 9 9 8 10 11 11 12 12 15 13
DOCKED: REMARK SMILES IDX 13 14 14 15 16 16 17 17 21 18 18 19 20 20 19 21
DOCKED: REMARK H PARENT
DOCKED: USER                              x       y       z     vdW  Elec       q    Type
DOCKED: USER                           _______ _______ _______ _____ _____    ______ ____
DOCKED: ROOT
DOCKED: ATOM      1  O   UNL     1     139.497  67.024 224.568 -0.74 +0.00    -0.212 OA 
DOCKED: ATOM      2  S   UNL     1     139.194  68.361 225.183 -0.42 -0.02    +0.218 S  
DOCKED: ATOM      3  O   UNL     1     137.725  68.429 225.499 -0.17 -0.01    -0.212 OA 
DOCKED: ENDROOT
DOCKED: BRANCH   2   4
DOCKED: ATOM      4  C   UNL     1     140.140  68.471 226.699 -0.49 -0.04    +0.189 C  
DOCKED: BRANCH   4   5
DOCKED: ATOM      5  C   UNL     1     140.543  69.886 227.015 -0.55 +0.01    -0.032 A  
DOCKED: ATOM      6  C   UNL     1     141.444  70.570 226.181 -0.56 -0.00    +0.005 A  
DOCKED: ATOM      7  C   UNL     1     140.014  70.542 228.139 -0.63 -0.00    +0.005 A  
DOCKED: ATOM      8  C   UNL     1     141.824  71.881 226.480 -0.52 -0.00    +0.000 A  
DOCKED: ATOM      9  C   UNL     1     140.396  71.855 228.434 -0.71 -0.00    +0.000 A  
DOCKED: ATOM     10  C   UNL     1     141.303  72.523 227.606 -0.72 -0.00    +0.000 A  
DOCKED: ENDBRANCH   4   5
DOCKED: ENDBRANCH   2   4
DOCKED: BRANCH   2  11
DOCKED: ATOM     11  N   UNL     1     139.650  69.632 224.063 -0.17 +0.03    -0.194 NA 
DOCKED: ATOM     12  C   UNL     1     138.915  70.882 224.260 -0.30 -0.02    +0.103 C  
DOCKED: ATOM     13  C   UNL     1     139.555  69.294 222.631 -0.04 -0.02    +0.103 C  
DOCKED: ATOM     14  C   UNL     1     138.916  71.619 222.924 -0.25 -0.00    +0.019 C  
DOCKED: ATOM     15  C   UNL     1     139.451  70.631 221.897 -0.17 -0.00    +0.026 C  
DOCKED: BRANCH  13  16
DOCKED: ATOM     16  C   UNL     1     138.396  68.363 222.264 -0.20 +0.01    -0.030 A  
DOCKED: ATOM     17  C   UNL     1     137.050  68.758 222.401 -0.15 -0.00    +0.005 A  
DOCKED: ATOM     18  C   UNL     1     138.675  67.076 221.764 -0.24 -0.00    +0.005 A  
DOCKED: ATOM     19  C   UNL     1     136.015  67.881 222.060 -0.13 -0.00    +0.000 A  
DOCKED: ATOM     20  C   UNL     1     137.636  66.204 221.426 -0.19 -0.00    +0.000 A  
DOCKED: ATOM     21  C   UNL     1     136.308  66.606 221.575 -0.15 -0.00    +0.000 A  
DOCKED: ENDBRANCH  13  16
DOCKED: ENDBRANCH   2  11
DOCKED: TORSDOF 4
DOCKED: TER
DOCKED: ENDMDL
________________________________________________________________________________


    FINAL DOCKED STATE:
    ________________________


Run:   2 / 20
Time taken for this run:   0.021s

DOCKED: MODEL        2
DOCKED: USER    Run = 2
DOCKED: USER
DOCKED: USER    Estimated Free Energy of Binding    =  -6.11 kcal/mol  [=(1)+(2)+(3)-(4)]
DOCKED: USER
DOCKED: USER    (1) Final Intermolecular Energy     =  -7.31 kcal/mol
DOCKED: USER        vdW + Hbond + desolv Energy     =  -7.26 kcal/mol
DOCKED: USER        Electrostatic Energy            =  -0.04 kcal/mol
DOCKED: USER        Moving Ligand-Fixed Receptor    =  -7.31 kcal/mol
DOCKED: USER        Moving Ligand-Moving Receptor   =  +0.00 kcal/mol
DOCKED: USER    (2) Final Total Internal Energy     =  -1.28 kcal/mol
DOCKED: USER    (3) Torsional Free Energy           =  +1.19 kcal/mol
DOCKED: USER    (4) Unbound System's Energy         =  -1.28 kcal/mol
DOCKED: USER
DOCKED: USER
DOCKED: REMARK SMILES O=S(=O)(Cc1ccccc1)N1CCC[C@@H]1c1ccccc1
DOCKED: REMARK SMILES IDX 1 1 2 2 3 3 4 4 5 5 6 6 10 7 7 8 9 9 8 10 11 11 12 12 15 13
DOCKED: REMARK SMILES IDX 13 14 14 15 16 16 17 17 21 18 18 19 20 20 19 21
DOCKED: REMARK H PARENT
DOCKED: USER                              x       y       z     vdW  Elec       q    Type
DOCKED: USER                           _______ _______ _______ _____ _____    ______ ____
DOCKED: ROOT
DOCKED: ATOM      1  O   UNL     1     139.565  67.400 225.346 -0.96 +0.01    -0.212 OA 
DOCKED: ATOM      2  S   UNL     1     138.802  68.508 224.675 -0.35 -0.02    +0.218 S  
DOCKED: ATOM      3  O   UNL     1     137.643  68.898 225.551 -0.19 +0.01    -0.212 OA 
DOCKED: ENDROOT
DOCKED: BRANCH   2   4
DOCKED: ATOM      4  C   UNL     1     139.922  69.894 224.509 -0.24 -0.03    +0.189 C  
DOCKED: BRANCH   4   5
DOCKED: ATOM      5  C   UNL     1     140.285  70.493 225.841 -0.52 +0.01    -0.032 A  
DOCKED: ATOM      6  C   UNL     1     139.900  69.856 227.034 -0.55 -0.00    +0.005 A  
DOCKED: ATOM      7  C   UNL     1     141.022  71.687 225.906 -0.61 -0.00    +0.005 A  
DOCKED: ATOM      8  C   UNL     1     140.231  70.418 228.270 -0.61 -0.00    +0.000 A  
DOCKED: ATOM      9  C   UNL     1     141.351  72.246 227.146 -0.80 -0.00    +0.000 A  
DOCKED: ATOM     10  C   UNL     1     140.954  71.612 228.327 -0.77 -0.00    +0.000 A  
DOCKED: ENDBRANCH   4   5
DOCKED: ENDBRANCH   2   4
DOCKED: BRANCH   2  11
DOCKED: ATOM     11  N   UNL     1     138.240  67.959 223.107 -0.18 +0.02    -0.194 NA 
DOCKED: ATOM     12  C   UNL     1     139.153  68.281 222.009 -0.13 -0.02    +0.103 C  
DOCKED: ATOM     13  C   UNL     1     136.899  68.420 222.705 -0.13 -0.01    +0.103 C  
DOCKED: ATOM     14  C   UNL     1     138.318  68.346 220.734 -0.10 -0.00    +0.019 C  
DOCKED: ATOM     15  C   UNL     1     136.863  68.306 221.181 -0.08 -0.00    +0.026 C  
DOCKED: BRANCH  13  16
DOCKED: ATOM     16  C   UNL     1     136.538  69.833 223.168 -0.15 +0.00    -0.030 A  
DOCKED: ATOM     17  C   UNL     1     135.489  70.075 224.079 -0.18 -0.00    +0.005 A  
DOCKED: ATOM     18  C   UNL     1     137.277  70.930 222.684 -0.15 -0.00    +0.005 A  
DOCKED: ATOM     19  C   UNL     1     135.183  71.379 224.479 -0.19 -0.00    +0.000 A  
DOCKED: ATOM     20  C   UNL     1     136.965  72.232 223.086 -0.16 -0.00    +0.000 A  
DOCKED: ATOM     21  C   UNL     1     135.919  72.456 223.982 -0.20 -0.00    +0.000 A  
DOCKED: ENDBRANCH  13  16
DOCKED: ENDBRANCH   2  11
DOCKED: TORSDOF 4
DOCKED: TER
DOCKED: ENDMDL
________________________________________________________________________________


    FINAL DOCKED STATE:
    ________________________


Run:   3 / 20
Time taken for this run:   0.021s

DOCKED: MODEL        3
DOCKED: USER    Run = 3
DOCKED: USER
DOCKED: USER    Estimated Free Energy of Binding    =  -6.36 kcal/mol  [=(1)+(2)+(3)-(4)]
DOCKED: USER
DOCKED: USER    (1) Final Intermolecular Energy     =  -7.56 kcal/mol
DOCKED: USER        vdW + Hbond + desolv Energy     =  -7.49 kcal/mol
DOCKED: USER        Electrostatic Energy            =  -0.07 kcal/mol
DOCKED: USER        Moving Ligand-Fixed Receptor    =  -7.56 kcal/mol
DOCKED: USER        Moving Ligand-Moving Receptor   =  +0.00 kcal/mol
DOCKED: USER    (2) Final Total Internal Energy     =  -1.40 kcal/mol
DOCKED: USER    (3) Torsional Free Energy           =  +1.19 kcal/mol
DOCKED: USER    (4) Unbound System's Energy         =  -1.40 kcal/mol
DOCKED: USER
DOCKED: USER
DOCKED: REMARK SMILES O=S(=O)(Cc1ccccc1)N1CCC[C@@H]1c1ccccc1
DOCKED: REMARK SMILES IDX 1 1 2 2 3 3 4 4 5 5 6 6 10 7 7 8 9 9 8 10 11 11 12 12 15 13
DOCKED: REMARK SMILES IDX 13 14 14 15 16 16 17 17 21 18 18 19 20 20 19 21
DOCKED: REMARK H PARENT
DOCKED: USER                              x       y       z     vdW  Elec       q    Type
DOCKED: USER                           _______ _______ _______ _____ _____    ______ ____
DOCKED: ROOT
DOCKED: ATOM      1  O   UNL     1     139.334  67.045 224.468 -0.71 -0.01    -0.212 OA 
DOCKED: ATOM      2  S   UNL     1     139.136  68.400 225.090 -0.40 -0.02    +0.218 S  
DOCKED: ATOM      3  O   UNL     1     137.699  68.535 225.512 -0.21 -0.00    -0.212 OA 
DOCKED: ENDROOT
DOCKED: BRANCH   2   4
DOCKED: ATOM      4  C   UNL     1     140.195  68.477 226.531 -0.48 -0.04    +0.189 C  
DOCKED: BRANCH   4   5
DOCKED: ATOM      5  C   UNL     1     140.543  69.894 226.903 -0.55 +0.01    -0.032 A  
DOCKED: ATOM      6  C   UNL     1     141.447  70.631 226.119 -0.57 -0.00    +0.005 A  
DOCKED: ATOM      7  C   UNL     1     139.959  70.497 228.029 -0.64 -0.00    +0.005 A  
DOCKED: ATOM      8  C   UNL     1     141.776  71.944 226.470 -0.52 -0.00    +0.000 A  
DOCKED: ATOM      9  C   UNL     1     140.291  71.811 228.377 -0.73 -0.00    +0.000 A  
DOCKED: ATOM     10  C   UNL     1     141.200  72.533 227.598 -0.72 -0.00    +0.000 A  
DOCKED: ENDBRANCH   4   5
DOCKED: ENDBRANCH   2   4
DOCKED: BRANCH   2  11
DOCKED: ATOM     11  N   UNL     1     139.563  69.641 223.926 -0.17 +0.03    -0.194 NA 
DOCKED: ATOM     12  C   UNL     1     138.960  70.944 224.206 -0.30 -0.02    +0.103 C  
DOCKED: ATOM     13  C   UNL     1     139.279  69.326 222.514 -0.13 -0.02    +0.103 C  
DOCKED: ATOM     14  C   UNL     1     138.869  71.692 222.880 -0.24 -0.00    +0.019 C  
DOCKED: ATOM     15  C   UNL     1     139.202  70.674 221.798 -0.16 -0.00    +0.026 C  
DOCKED: BRANCH  13  16
DOCKED: ATOM     16  C   UNL     1     138.015  68.496 222.281 -0.18 +0.00    -0.030 A  
DOCKED: ATOM     17  C   UNL     1     136.729  68.998 222.567 -0.14 -0.00    +0.005 A  
DOCKED: ATOM     18  C   UNL     1     138.129  67.194 221.755 -0.21 -0.00    +0.005 A  
DOCKED: ATOM     19  C   UNL     1     135.594  68.211 222.346 -0.13 -0.00    +0.000 A  
DOCKED: ATOM     20  C   UNL     1     136.991  66.412 221.537 -0.17 -0.00    +0.000 A  
DOCKED: ATOM     21  C   UNL     1     135.725  66.919 221.834 -0.13 -0.00    +0.000 A  
DOCKED: ENDBRANCH  13  16
DOCKED: ENDBRANCH   2  11
DOCKED: TORSDOF 4
DOCKED: TER
DOCKED: ENDMDL
________________________________________________________________________________


    FINAL DOCKED STATE:
    ________________________


Run:   4 / 20
Time taken for this run:   0.021s

DOCKED: MODEL        4
DOCKED: USER    Run = 4
DOCKED: USER
DOCKED: USER    Estimated Free Energy of Binding    =  -5.65 kcal/mol  [=(1)+(2)+(3)-(4)]
DOCKED: USER
DOCKED: USER    (1) Final Intermolecular Energy     =  -6.84 kcal/mol
DOCKED: USER        vdW + Hbond + desolv Energy     =  -6.85 kcal/mol
DOCKED: USER        Electrostatic Energy            =  +0.01 kcal/mol
DOCKED: USER        Moving Ligand-Fixed Receptor    =  -6.84 kcal/mol
DOCKED: USER        Moving Ligand-Moving Receptor   =  +0.00 kcal/mol
DOCKED: USER    (2) Final Total Internal Energy     =  -1.39 kcal/mol
DOCKED: USER    (3) Torsional Free Energy           =  +1.19 kcal/mol
DOCKED: USER    (4) Unbound System's Energy         =  -1.39 kcal/mol
DOCKED: USER
DOCKED: USER
DOCKED: REMARK SMILES O=S(=O)(Cc1ccccc1)N1CCC[C@@H]1c1ccccc1
DOCKED: REMARK SMILES IDX 1 1 2 2 3 3 4 4 5 5 6 6 10 7 7 8 9 9 8 10 11 11 12 12 15 13
DOCKED: REMARK SMILES IDX 13 14 14 15 16 16 17 17 21 18 18 19 20 20 19 21
DOCKED: REMARK H PARENT
DOCKED: USER                              x       y       z     vdW  Elec       q    Type
DOCKED: USER                           _______ _______ _______ _____ _____    ______ ____
DOCKED: ROOT
DOCKED: ATOM      1  O   UNL     1     138.042  78.264 223.104 -0.20 +0.03    -0.212 OA 
DOCKED: ATOM      2  S   UNL     1     138.537  79.537 222.475 -0.23 -0.04    +0.218 S  
DOCKED: ATOM      3  O   UNL     1     138.866  79.269 221.032 -0.06 +0.05    -0.212 OA 
DOCKED: ENDROOT
DOCKED: BRANCH   2   4
DOCKED: ATOM      4  C   UNL     1     137.203  80.727 222.576 -0.12 -0.03    +0.189 C  
DOCKED: BRANCH   4   5
DOCKED: ATOM      5  C   UNL     1     136.796  81.004 223.998 -0.25 +0.00    -0.032 A  
DOCKED: ATOM      6  C   UNL     1     137.687  81.641 224.879 -0.35 -0.00    +0.005 A  
DOCKED: ATOM      7  C   UNL     1     135.519  80.641 224.456 -0.20 -0.00    +0.005 A  
DOCKED: ATOM      8  C   UNL     1     137.311  81.891 226.202 -0.41 -0.00    +0.000 A  
DOCKED: ATOM      9  C   UNL     1     135.146  80.894 225.780 -0.23 -0.00    +0.000 A  
DOCKED: ATOM     10  C   UNL     1     136.043  81.516 226.653 -0.41 -0.00    +0.000 A  
DOCKED: ENDBRANCH   4   5
DOCKED: ENDBRANCH   2   4
DOCKED: BRANCH   2  11
DOCKED: ATOM     11  N   UNL     1     139.952  80.102 223.343 -0.27 +0.03    -0.194 NA 
DOCKED: ATOM     12  C   UNL     1     140.585  81.275 222.739 -0.35 -0.02    +0.103 C  
DOCKED: ATOM     13  C   UNL     1     141.014  79.103 223.566 -0.47 -0.02    +0.103 C  
DOCKED: ATOM     14  C   UNL     1     142.051  81.261 223.159 -0.57 -0.00    +0.019 C  
DOCKED: ATOM     15  C   UNL     1     142.292  79.906 223.808 -0.61 -0.01    +0.026 C  
DOCKED: BRANCH  13  16
DOCKED: ATOM     16  C   UNL     1     141.195  78.092 222.430 -0.43 +0.01    -0.030 A  
DOCKED: ATOM     17  C   UNL     1     141.826  78.438 221.217 -0.37 -0.00    +0.005 A  
DOCKED: ATOM     18  C   UNL     1     140.731  76.773 222.598 -0.38 -0.00    +0.005 A  
DOCKED: ATOM     19  C   UNL     1     141.972  77.491 220.199 -0.31 -0.00    +0.000 A  
DOCKED: ATOM     20  C   UNL     1     140.879  75.832 221.575 -0.36 -0.00    +0.000 A  
DOCKED: ATOM     21  C   UNL     1     141.497  76.190 220.377 -0.27 -0.00    +0.000 A  
DOCKED: ENDBRANCH  13  16
DOCKED: ENDBRANCH   2  11
DOCKED: TORSDOF 4
DOCKED: TER
DOCKED: ENDMDL
________________________________________________________________________________


    FINAL DOCKED STATE:
    ________________________


Run:   5 / 20
Time taken for this run:   0.021s

DOCKED: MODEL        5
DOCKED: USER    Run = 5
DOCKED: USER
DOCKED: USER    Estimated Free Energy of Binding    =  -5.88 kcal/mol  [=(1)+(2)+(3)-(4)]
DOCKED: USER
DOCKED: USER    (1) Final Intermolecular Energy     =  -7.07 kcal/mol
DOCKED: USER        vdW + Hbond + desolv Energy     =  -7.08 kcal/mol
DOCKED: USER        Electrostatic Energy            =  +0.01 kcal/mol
DOCKED: USER        Moving Ligand-Fixed Receptor    =  -7.07 kcal/mol
DOCKED: USER        Moving Ligand-Moving Receptor   =  +0.00 kcal/mol
DOCKED: USER    (2) Final Total Internal Energy     =  -1.38 kcal/mol
DOCKED: USER    (3) Torsional Free Energy           =  +1.19 kcal/mol
DOCKED: USER    (4) Unbound System's Energy         =  -1.38 kcal/mol
DOCKED: USER
DOCKED: USER
DOCKED: REMARK SMILES O=S(=O)(Cc1ccccc1)N1CCC[C@@H]1c1ccccc1
DOCKED: REMARK SMILES IDX 1 1 2 2 3 3 4 4 5 5 6 6 10 7 7 8 9 9 8 10 11 11 12 12 15 13
DOCKED: REMARK SMILES IDX 13 14 14 15 16 16 17 17 21 18 18 19 20 20 19 21
DOCKED: REMARK H PARENT
DOCKED: USER                              x       y       z     vdW  Elec       q    Type
DOCKED: USER                           _______ _______ _______ _____ _____    ______ ____
DOCKED: ROOT
DOCKED: ATOM      1  O   UNL     1     139.309  75.329 222.663 -0.53 +0.04    -0.212 OA 
DOCKED: ATOM      2  S   UNL     1     139.797  76.710 222.326 -0.35 -0.05    +0.218 S  
DOCKED: ATOM      3  O   UNL     1     141.060  76.980 223.099 -0.33 +0.07    -0.212 OA 
DOCKED: ENDROOT
DOCKED: BRANCH   2   4
DOCKED: ATOM      4  C   UNL     1     140.151  76.730 220.572 -0.13 -0.06    +0.189 C  
DOCKED: BRANCH   4   5
DOCKED: ATOM      5  C   UNL     1     141.516  76.177 220.262 -0.25 +0.01    -0.032 A  
DOCKED: ATOM      6  C   UNL     1     142.434  76.933 219.513 -0.33 -0.00    +0.005 A  
DOCKED: ATOM      7  C   UNL     1     141.891  74.906 220.729 -0.30 -0.00    +0.005 A  
DOCKED: ATOM      8  C   UNL     1     143.699  76.414 219.219 -0.34 -0.00    +0.000 A  
DOCKED: ATOM      9  C   UNL     1     143.157  74.391 220.432 -0.36 -0.00    +0.000 A  
DOCKED: ATOM     10  C   UNL     1     144.060  75.144 219.676 -0.37 -0.00    +0.000 A  
DOCKED: ENDBRANCH   4   5
DOCKED: ENDBRANCH   2   4
DOCKED: BRANCH   2  11
DOCKED: ATOM     11  N   UNL     1     138.555  77.880 222.733 -0.19 +0.03    -0.194 NA 
DOCKED: ATOM     12  C   UNL     1     137.793  78.355 221.578 -0.12 -0.02    +0.103 C  
DOCKED: ATOM     13  C   UNL     1     139.010  79.072 223.472 -0.27 -0.01    +0.103 C  
DOCKED: ATOM     14  C   UNL     1     137.252  79.736 221.933 -0.12 -0.00    +0.019 C  
DOCKED: ATOM     15  C   UNL     1     137.945  80.141 223.227 -0.29 -0.00    +0.026 C  
DOCKED: BRANCH  13  16
DOCKED: ATOM     16  C   UNL     1     140.404  79.574 223.090 -0.42 +0.01    -0.030 A  
DOCKED: ATOM     17  C   UNL     1     141.449  79.664 224.032 -0.49 -0.00    +0.005 A  
DOCKED: ATOM     18  C   UNL     1     140.663  79.948 221.757 -0.30 -0.00    +0.005 A  
DOCKED: ATOM     19  C   UNL     1     142.711  80.131 223.650 -0.65 -0.00    +0.000 A  
DOCKED: ATOM     20  C   UNL     1     141.926  80.415 221.382 -0.42 -0.00    +0.000 A  
DOCKED: ATOM     21  C   UNL     1     142.949  80.507 222.327 -0.51 -0.00    +0.000 A  
DOCKED: ENDBRANCH  13  16
DOCKED: ENDBRANCH   2  11
DOCKED: TORSDOF 4
DOCKED: TER
DOCKED: ENDMDL
________________________________________________________________________________


    FINAL DOCKED STATE:
    ________________________


Run:   6 / 20
Time taken for this run:   0.021s

DOCKED: MODEL        6
DOCKED: USER    Run = 6
DOCKED: USER
DOCKED: USER    Estimated Free Energy of Binding    =  -6.23 kcal/mol  [=(1)+(2)+(3)-(4)]
DOCKED: USER
DOCKED: USER    (1) Final Intermolecular Energy     =  -7.43 kcal/mol
DOCKED: USER        vdW + Hbond + desolv Energy     =  -7.37 kcal/mol
DOCKED: USER        Electrostatic Energy            =  -0.05 kcal/mol
DOCKED: USER        Moving Ligand-Fixed Receptor    =  -7.43 kcal/mol
DOCKED: USER        Moving Ligand-Moving Receptor   =  +0.00 kcal/mol
DOCKED: USER    (2) Final Total Internal Energy     =  -1.56 kcal/mol
DOCKED: USER    (3) Torsional Free Energy           =  +1.19 kcal/mol
DOCKED: USER    (4) Unbound System's Energy         =  -1.56 kcal/mol
DOCKED: USER
DOCKED: USER
DOCKED: REMARK SMILES O=S(=O)(Cc1ccccc1)N1CCC[C@@H]1c1ccccc1
DOCKED: REMARK SMILES IDX 1 1 2 2 3 3 4 4 5 5 6 6 10 7 7 8 9 9 8 10 11 11 12 12 15 13
DOCKED: REMARK SMILES IDX 13 14 14 15 16 16 17 17 21 18 18 19 20 20 19 21
DOCKED: REMARK H PARENT
DOCKED: USER                              x       y       z     vdW  Elec       q    Type
DOCKED: USER                           _______ _______ _______ _____ _____    ______ ____
DOCKED: ROOT
DOCKED: ATOM      1  O   UNL     1     139.192  67.950 223.426 -0.25 +0.04    -0.212 OA 
DOCKED: ATOM      2  S   UNL     1     139.054  68.547 224.798 -0.37 -0.02    +0.218 S  
DOCKED: ATOM      3  O   UNL     1     138.851  67.436 225.792 -0.87 -0.02    -0.212 OA 
DOCKED: ENDROOT
DOCKED: BRANCH   2   4
DOCKED: ATOM      4  C   UNL     1     140.586  69.401 225.157 -0.09 -0.04    +0.189 C  
DOCKED: BRANCH   4   5
DOCKED: ATOM      5  C   UNL     1     140.478  70.270 226.381 -0.54 +0.01    -0.032 A  
DOCKED: ATOM      6  C   UNL     1     139.683  69.867 227.469 -0.56 -0.00    +0.005 A  
DOCKED: ATOM      7  C   UNL     1     141.179  71.485 226.455 -0.70 -0.00    +0.005 A  
DOCKED: ATOM      8  C   UNL     1     139.577  70.678 228.602 -0.45 -0.00    +0.000 A  
DOCKED: ATOM      9  C   UNL     1     141.070  72.294 227.592 -0.83 -0.00    +0.000 A  
DOCKED: ATOM     10  C   UNL     1     140.268  71.891 228.663 -0.58 -0.00    +0.000 A  
DOCKED: ENDBRANCH   4   5
DOCKED: ENDBRANCH   2   4
DOCKED: BRANCH   2  11
DOCKED: ATOM     11  N   UNL     1     137.695  69.656 224.816 -0.18 +0.02    -0.194 NA 
DOCKED: ATOM     12  C   UNL     1     136.509  69.144 224.129 -0.15 -0.01    +0.103 C  
DOCKED: ATOM     13  C   UNL     1     137.957  71.005 224.284 -0.13 -0.02    +0.103 C  
DOCKED: ATOM     14  C   UNL     1     135.699  70.353 223.671 -0.16 -0.00    +0.019 C  
DOCKED: ATOM     15  C   UNL     1     136.590  71.567 223.892 -0.18 -0.01    +0.026 C  
DOCKED: BRANCH  13  16
DOCKED: ATOM     16  C   UNL     1     138.939  71.055 223.110 -0.26 +0.01    -0.030 A  
DOCKED: ATOM     17  C   UNL     1     138.722  70.325 221.924 -0.14 -0.00    +0.005 A  
DOCKED: ATOM     18  C   UNL     1     140.091  71.861 223.206 -0.36 -0.00    +0.005 A  
DOCKED: ATOM     19  C   UNL     1     139.641  70.391 220.873 -0.12 -0.00    +0.000 A  
DOCKED: ATOM     20  C   UNL     1     141.006  71.921 222.152 -0.27 -0.00    +0.000 A  
DOCKED: ATOM     21  C   UNL     1     140.783  71.186 220.987 -0.16 -0.00    +0.000 A  
DOCKED: ENDBRANCH  13  16
DOCKED: ENDBRANCH   2  11
DOCKED: TORSDOF 4
DOCKED: TER
DOCKED: ENDMDL
________________________________________________________________________________


    FINAL DOCKED STATE:
    ________________________


Run:   7 / 20
Time taken for this run:   0.021s

DOCKED: MODEL        7
DOCKED: USER    Run = 7
DOCKED: USER
DOCKED: USER    Estimated Free Energy of Binding    =  -5.88 kcal/mol  [=(1)+(2)+(3)-(4)]
DOCKED: USER
DOCKED: USER    (1) Final Intermolecular Energy     =  -7.07 kcal/mol
DOCKED: USER        vdW + Hbond + desolv Energy     =  -7.08 kcal/mol
DOCKED: USER        Electrostatic Energy            =  +0.01 kcal/mol
DOCKED: USER        Moving Ligand-Fixed Receptor    =  -7.07 kcal/mol
DOCKED: USER        Moving Ligand-Moving Receptor   =  +0.00 kcal/mol
DOCKED: USER    (2) Final Total Internal Energy     =  -1.37 kcal/mol
DOCKED: USER    (3) Torsional Free Energy           =  +1.19 kcal/mol
DOCKED: USER    (4) Unbound System's Energy         =  -1.37 kcal/mol
DOCKED: USER
DOCKED: USER
DOCKED: REMARK SMILES O=S(=O)(Cc1ccccc1)N1CCC[C@@H]1c1ccccc1
DOCKED: REMARK SMILES IDX 1 1 2 2 3 3 4 4 5 5 6 6 10 7 7 8 9 9 8 10 11 11 12 12 15 13
DOCKED: REMARK SMILES IDX 13 14 14 15 16 16 17 17 21 18 18 19 20 20 19 21
DOCKED: REMARK H PARENT
DOCKED: USER                              x       y       z     vdW  Elec       q    Type
DOCKED: USER                           _______ _______ _______ _____ _____    ______ ____
DOCKED: ROOT
DOCKED: ATOM      1  O   UNL     1     139.329  75.317 222.669 -0.54 +0.04    -0.212 OA 
DOCKED: ATOM      2  S   UNL     1     139.816  76.699 222.333 -0.35 -0.05    +0.218 S  
DOCKED: ATOM      3  O   UNL     1     141.080  76.969 223.102 -0.33 +0.07    -0.212 OA 
DOCKED: ENDROOT
DOCKED: BRANCH   2   4
DOCKED: ATOM      4  C   UNL     1     140.164  76.721 220.577 -0.13 -0.06    +0.189 C  
DOCKED: BRANCH   4   5
DOCKED: ATOM      5  C   UNL     1     141.523  76.157 220.261 -0.25 +0.01    -0.032 A  
DOCKED: ATOM      6  C   UNL     1     141.891  74.886 220.737 -0.31 -0.00    +0.005 A  
DOCKED: ATOM      7  C   UNL     1     142.432  76.887 219.478 -0.33 -0.00    +0.005 A  
DOCKED: ATOM      8  C   UNL     1     143.156  74.366 220.449 -0.36 -0.00    +0.000 A  
DOCKED: ATOM      9  C   UNL     1     143.697  76.362 219.192 -0.34 -0.00    +0.000 A  
DOCKED: ATOM     10  C   UNL     1     144.059  75.103 219.680 -0.38 -0.00    +0.000 A  
DOCKED: ENDBRANCH   4   5
DOCKED: ENDBRANCH   2   4
DOCKED: BRANCH   2  11
DOCKED: ATOM     11  N   UNL     1     138.574  77.868 222.744 -0.19 +0.03    -0.194 NA 
DOCKED: ATOM     12  C   UNL     1     137.800  78.335 221.593 -0.12 -0.02    +0.103 C  
DOCKED: ATOM     13  C   UNL     1     139.031  79.064 223.473 -0.27 -0.01    +0.103 C  
DOCKED: ATOM     14  C   UNL     1     137.259  79.716 221.946 -0.12 -0.00    +0.019 C  
DOCKED: ATOM     15  C   UNL     1     137.962  80.129 223.231 -0.29 -0.00    +0.026 C  
DOCKED: BRANCH  13  16
DOCKED: ATOM     16  C   UNL     1     140.421  79.568 223.077 -0.42 +0.01    -0.030 A  
DOCKED: ATOM     17  C   UNL     1     141.472  79.672 224.012 -0.50 -0.00    +0.005 A  
DOCKED: ATOM     18  C   UNL     1     140.670  79.930 221.738 -0.30 -0.00    +0.005 A  
DOCKED: ATOM     19  C   UNL     1     142.729  80.140 223.617 -0.65 -0.00    +0.000 A  
DOCKED: ATOM     20  C   UNL     1     141.929  80.398 221.351 -0.41 -0.00    +0.000 A  
DOCKED: ATOM     21  C   UNL     1     142.957  80.504 222.289 -0.47 -0.00    +0.000 A  
DOCKED: ENDBRANCH  13  16
DOCKED: ENDBRANCH   2  11
DOCKED: TORSDOF 4
DOCKED: TER
DOCKED: ENDMDL
________________________________________________________________________________


    FINAL DOCKED STATE:
    ________________________


Run:   8 / 20
Time taken for this run:   0.021s

DOCKED: MODEL        8
DOCKED: USER    Run = 8
DOCKED: USER
DOCKED: USER    Estimated Free Energy of Binding    =  -6.31 kcal/mol  [=(1)+(2)+(3)-(4)]
DOCKED: USER
DOCKED: USER    (1) Final Intermolecular Energy     =  -7.50 kcal/mol
DOCKED: USER        vdW + Hbond + desolv Energy     =  -7.45 kcal/mol
DOCKED: USER        Electrostatic Energy            =  -0.05 kcal/mol
DOCKED: USER        Moving Ligand-Fixed Receptor    =  -7.50 kcal/mol
DOCKED: USER        Moving Ligand-Moving Receptor   =  +0.00 kcal/mol
DOCKED: USER    (2) Final Total Internal Energy     =  -1.51 kcal/mol
DOCKED: USER    (3) Torsional Free Energy           =  +1.19 kcal/mol
DOCKED: USER    (4) Unbound System's Energy         =  -1.51 kcal/mol
DOCKED: USER
DOCKED: USER
DOCKED: REMARK SMILES O=S(=O)(Cc1ccccc1)N1CCC[C@@H]1c1ccccc1
DOCKED: REMARK SMILES IDX 1 1 2 2 3 3 4 4 5 5 6 6 10 7 7 8 9 9 8 10 11 11 12 12 15 13
DOCKED: REMARK SMILES IDX 13 14 14 15 16 16 17 17 21 18 18 19 20 20 19 21
DOCKED: REMARK H PARENT
DOCKED: USER                              x       y       z     vdW  Elec       q    Type
DOCKED: USER                           _______ _______ _______ _____ _____    ______ ____
DOCKED: ROOT
DOCKED: ATOM      1  O   UNL     1     139.118  67.682 223.652 -0.40 +0.03    -0.212 OA 
DOCKED: ATOM      2  S   UNL     1     138.993  68.400 224.967 -0.37 -0.02    +0.218 S  
DOCKED: ATOM      3  O   UNL     1     138.828  67.382 226.062 -0.87 -0.02    -0.212 OA 
DOCKED: ENDROOT
DOCKED: BRANCH   2   4
DOCKED: ATOM      4  C   UNL     1     140.515  69.309 225.217 -0.14 -0.04    +0.189 C  
DOCKED: BRANCH   4   5
DOCKED: ATOM      5  C   UNL     1     140.446  70.210 226.421 -0.54 +0.01    -0.032 A  
DOCKED: ATOM      6  C   UNL     1     139.662  69.851 227.531 -0.57 -0.00    +0.005 A  
DOCKED: ATOM      7  C   UNL     1     141.175  71.410 226.453 -0.69 -0.00    +0.005 A  
DOCKED: ATOM      8  C   UNL     1     139.593  70.692 228.646 -0.43 -0.00    +0.000 A  
DOCKED: ATOM      9  C   UNL     1     141.103  72.249 227.571 -0.84 -0.00    +0.000 A  
DOCKED: ATOM     10  C   UNL     1     140.311  71.891 228.665 -0.58 -0.00    +0.000 A  
DOCKED: ENDBRANCH   4   5
DOCKED: ENDBRANCH   2   4
DOCKED: BRANCH   2  11
DOCKED: ATOM     11  N   UNL     1     137.614  69.483 224.909 -0.19 +0.02    -0.194 NA 
DOCKED: ATOM     12  C   UNL     1     136.444  68.911 224.243 -0.07 -0.00    +0.103 C  
DOCKED: ATOM     13  C   UNL     1     137.857  70.804 224.302 -0.16 -0.02    +0.103 C  
DOCKED: ATOM     14  C   UNL     1     135.617  70.076 223.709 -0.16 -0.00    +0.019 C  
DOCKED: ATOM     15  C   UNL     1     136.484  71.317 223.868 -0.20 -0.00    +0.026 C  
DOCKED: BRANCH  13  16
DOCKED: ATOM     16  C   UNL     1     138.849  70.805 223.136 -0.25 +0.01    -0.030 A  
DOCKED: ATOM     17  C   UNL     1     138.691  69.957 222.021 -0.15 -0.00    +0.005 A  
DOCKED: ATOM     18  C   UNL     1     139.950  71.684 223.165 -0.36 -0.00    +0.005 A  
DOCKED: ATOM     19  C   UNL     1     139.618  69.980 220.975 -0.13 -0.00    +0.000 A  
DOCKED: ATOM     20  C   UNL     1     140.873  71.701 222.117 -0.25 -0.00    +0.000 A  
DOCKED: ATOM     21  C   UNL     1     140.709  70.850 221.023 -0.13 -0.00    +0.000 A  
DOCKED: ENDBRANCH  13  16
DOCKED: ENDBRANCH   2  11
DOCKED: TORSDOF 4
DOCKED: TER
DOCKED: ENDMDL
________________________________________________________________________________


    FINAL DOCKED STATE:
    ________________________


Run:   9 / 20
Time taken for this run:   0.021s

DOCKED: MODEL        9
DOCKED: USER    Run = 9
DOCKED: USER
DOCKED: USER    Estimated Free Energy of Binding    =  -6.14 kcal/mol  [=(1)+(2)+(3)-(4)]
DOCKED: USER
DOCKED: USER    (1) Final Intermolecular Energy     =  -7.34 kcal/mol
DOCKED: USER        vdW + Hbond + desolv Energy     =  -7.29 kcal/mol
DOCKED: USER        Electrostatic Energy            =  -0.04 kcal/mol
DOCKED: USER        Moving Ligand-Fixed Receptor    =  -7.34 kcal/mol
DOCKED: USER        Moving Ligand-Moving Receptor   =  +0.00 kcal/mol
DOCKED: USER    (2) Final Total Internal Energy     =  -1.25 kcal/mol
DOCKED: USER    (3) Torsional Free Energy           =  +1.19 kcal/mol
DOCKED: USER    (4) Unbound System's Energy         =  -1.25 kcal/mol
DOCKED: USER
DOCKED: USER
DOCKED: REMARK SMILES O=S(=O)(Cc1ccccc1)N1CCC[C@@H]1c1ccccc1
DOCKED: REMARK SMILES IDX 1 1 2 2 3 3 4 4 5 5 6 6 10 7 7 8 9 9 8 10 11 11 12 12 15 13
DOCKED: REMARK SMILES IDX 13 14 14 15 16 16 17 17 21 18 18 19 20 20 19 21
DOCKED: REMARK H PARENT
DOCKED: USER                              x       y       z     vdW  Elec       q    Type
DOCKED: USER                           _______ _______ _______ _____ _____    ______ ____
DOCKED: ROOT
DOCKED: ATOM      1  O   UNL     1     139.570  67.389 225.348 -0.97 +0.01    -0.212 OA 
DOCKED: ATOM      2  S   UNL     1     138.832  68.511 224.674 -0.36 -0.02    +0.218 S  
DOCKED: ATOM      3  O   UNL     1     137.673  68.920 225.541 -0.21 +0.01    -0.212 OA 
DOCKED: ENDROOT
DOCKED: BRANCH   2   4
DOCKED: ATOM      4  C   UNL     1     139.978  69.878 224.520 -0.23 -0.03    +0.189 C  
DOCKED: BRANCH   4   5
DOCKED: ATOM      5  C   UNL     1     140.318  70.486 225.854 -0.52 +0.01    -0.032 A  
DOCKED: ATOM      6  C   UNL     1     141.025  71.698 225.922 -0.61 -0.00    +0.005 A  
DOCKED: ATOM      7  C   UNL     1     139.920  69.856 227.045 -0.56 -0.00    +0.005 A  
DOCKED: ATOM      8  C   UNL     1     141.347  72.258 227.161 -0.81 -0.00    +0.000 A  
DOCKED: ATOM      9  C   UNL     1     140.244  70.420 228.284 -0.61 -0.00    +0.000 A  
DOCKED: ATOM     10  C   UNL     1     140.959  71.619 228.341 -0.77 -0.00    +0.000 A  
DOCKED: ENDBRANCH   4   5
DOCKED: ENDBRANCH   2   4
DOCKED: BRANCH   2  11
DOCKED: ATOM     11  N   UNL     1     138.274  67.976 223.099 -0.18 +0.02    -0.194 NA 
DOCKED: ATOM     12  C   UNL     1     139.174  68.335 222.003 -0.13 -0.02    +0.103 C  
DOCKED: ATOM     13  C   UNL     1     136.921  68.416 222.711 -0.13 -0.01    +0.103 C  
DOCKED: ATOM     14  C   UNL     1     138.331  68.403 220.733 -0.10 -0.00    +0.019 C  
DOCKED: ATOM     15  C   UNL     1     136.880  68.325 221.186 -0.08 -0.00    +0.026 C  
DOCKED: BRANCH  13  16
DOCKED: ATOM     16  C   UNL     1     136.533  69.814 223.199 -0.15 +0.00    -0.030 A  
DOCKED: ATOM     17  C   UNL     1     135.469  70.021 224.100 -0.18 -0.00    +0.005 A  
DOCKED: ATOM     18  C   UNL     1     137.264  70.931 222.748 -0.15 -0.00    +0.005 A  
DOCKED: ATOM     19  C   UNL     1     135.138  71.313 224.523 -0.19 -0.00    +0.000 A  
DOCKED: ATOM     20  C   UNL     1     136.927  72.219 223.174 -0.15 -0.00    +0.000 A  
DOCKED: ATOM     21  C   UNL     1     135.865  72.410 224.059 -0.21 -0.00    +0.000 A  
DOCKED: ENDBRANCH  13  16
DOCKED: ENDBRANCH   2  11
DOCKED: TORSDOF 4
DOCKED: TER
DOCKED: ENDMDL
________________________________________________________________________________


    FINAL DOCKED STATE:
    ________________________


Run:   10 / 20
Time taken for this run:   0.021s

DOCKED: MODEL        10
DOCKED: USER    Run = 10
DOCKED: USER
DOCKED: USER    Estimated Free Energy of Binding    =  -6.31 kcal/mol  [=(1)+(2)+(3)-(4)]
DOCKED: USER
DOCKED: USER    (1) Final Intermolecular Energy     =  -7.50 kcal/mol
DOCKED: USER        vdW + Hbond + desolv Energy     =  -7.43 kcal/mol
DOCKED: USER        Electrostatic Energy            =  -0.07 kcal/mol
DOCKED: USER        Moving Ligand-Fixed Receptor    =  -7.50 kcal/mol
DOCKED: USER        Moving Ligand-Moving Receptor   =  +0.00 kcal/mol
DOCKED: USER    (2) Final Total Internal Energy     =  -1.40 kcal/mol
DOCKED: USER    (3) Torsional Free Energy           =  +1.19 kcal/mol
DOCKED: USER    (4) Unbound System's Energy         =  -1.40 kcal/mol
DOCKED: USER
DOCKED: USER
DOCKED: REMARK SMILES O=S(=O)(Cc1ccccc1)N1CCC[C@@H]1c1ccccc1
DOCKED: REMARK SMILES IDX 1 1 2 2 3 3 4 4 5 5 6 6 10 7 7 8 9 9 8 10 11 11 12 12 15 13
DOCKED: REMARK SMILES IDX 13 14 14 15 16 16 17 17 21 18 18 19 20 20 19 21
DOCKED: REMARK H PARENT
DOCKED: USER                              x       y       z     vdW  Elec       q    Type
DOCKED: USER                           _______ _______ _______ _____ _____    ______ ____
DOCKED: ROOT
DOCKED: ATOM      1  O   UNL     1     139.272  66.966 224.331 -0.61 -0.01    -0.212 OA 
DOCKED: ATOM      2  S   UNL     1     139.161  68.330 224.953 -0.38 -0.02    +0.218 S  
DOCKED: ATOM      3  O   UNL     1     137.758  68.520 225.461 -0.27 -0.00    -0.212 OA 
DOCKED: ENDROOT
DOCKED: BRANCH   2   4
DOCKED: ATOM      4  C   UNL     1     140.308  68.377 226.326 -0.47 -0.04    +0.189 C  
DOCKED: BRANCH   4   5
DOCKED: ATOM      5  C   UNL     1     140.608  69.785 226.767 -0.54 +0.01    -0.032 A  
DOCKED: ATOM      6  C   UNL     1     140.030  70.299 227.941 -0.64 -0.00    +0.005 A  
DOCKED: ATOM      7  C   UNL     1     141.479  70.594 226.019 -0.56 -0.00    +0.005 A  
DOCKED: ATOM      8  C   UNL     1     140.303  71.608 228.345 -0.74 -0.00    +0.000 A  
DOCKED: ATOM      9  C   UNL     1     141.750  71.904 226.427 -0.53 -0.00    +0.000 A  
DOCKED: ATOM     10  C   UNL     1     141.160  72.412 227.589 -0.77 -0.00    +0.000 A  
DOCKED: ENDBRANCH   4   5
DOCKED: ENDBRANCH   2   4
DOCKED: BRANCH   2  11
DOCKED: ATOM     11  N   UNL     1     139.562  69.549 223.756 -0.16 +0.04    -0.194 NA 
DOCKED: ATOM     12  C   UNL     1     138.991  70.866 224.042 -0.30 -0.02    +0.103 C  
DOCKED: ATOM     13  C   UNL     1     139.216  69.220 222.361 -0.14 -0.02    +0.103 C  
DOCKED: ATOM     14  C   UNL     1     138.859  71.597 222.710 -0.24 -0.00    +0.019 C  
DOCKED: ATOM     15  C   UNL     1     139.132  70.560 221.630 -0.14 -0.00    +0.026 C  
DOCKED: BRANCH  13  16
DOCKED: ATOM     16  C   UNL     1     137.930  68.408 222.190 -0.17 +0.00    -0.030 A  
DOCKED: ATOM     17  C   UNL     1     136.667  68.927 222.542 -0.14 -0.00    +0.005 A  
DOCKED: ATOM     18  C   UNL     1     138.000  67.106 221.656 -0.20 -0.00    +0.005 A  
DOCKED: ATOM     19  C   UNL     1     135.512  68.156 222.377 -0.13 -0.00    +0.000 A  
DOCKED: ATOM     20  C   UNL     1     136.841  66.341 221.495 -0.16 -0.00    +0.000 A  
DOCKED: ATOM     21  C   UNL     1     135.599  66.865 221.855 -0.13 -0.00    +0.000 A  
DOCKED: ENDBRANCH  13  16
DOCKED: ENDBRANCH   2  11
DOCKED: TORSDOF 4
DOCKED: TER
DOCKED: ENDMDL
________________________________________________________________________________


    FINAL DOCKED STATE:
    ________________________


Run:   11 / 20
Time taken for this run:   0.021s

DOCKED: MODEL        11
DOCKED: USER    Run = 11
DOCKED: USER
DOCKED: USER    Estimated Free Energy of Binding    =  -6.27 kcal/mol  [=(1)+(2)+(3)-(4)]
DOCKED: USER
DOCKED: USER    (1) Final Intermolecular Energy     =  -7.46 kcal/mol
DOCKED: USER        vdW + Hbond + desolv Energy     =  -7.41 kcal/mol
DOCKED: USER        Electrostatic Energy            =  -0.05 kcal/mol
DOCKED: USER        Moving Ligand-Fixed Receptor    =  -7.46 kcal/mol
DOCKED: USER        Moving Ligand-Moving Receptor   =  +0.00 kcal/mol
DOCKED: USER    (2) Final Total Internal Energy     =  -1.52 kcal/mol
DOCKED: USER    (3) Torsional Free Energy           =  +1.19 kcal/mol
DOCKED: USER    (4) Unbound System's Energy         =  -1.52 kcal/mol
DOCKED: USER
DOCKED: USER
DOCKED: REMARK SMILES O=S(=O)(Cc1ccccc1)N1CCC[C@@H]1c1ccccc1
DOCKED: REMARK SMILES IDX 1 1 2 2 3 3 4 4 5 5 6 6 10 7 7 8 9 9 8 10 11 11 12 12 15 13
DOCKED: REMARK SMILES IDX 13 14 14 15 16 16 17 17 21 18 18 19 20 20 19 21
DOCKED: REMARK H PARENT
DOCKED: USER                              x       y       z     vdW  Elec       q    Type
DOCKED: USER                           _______ _______ _______ _____ _____    ______ ____
DOCKED: ROOT
DOCKED: ATOM      1  O   UNL     1     139.125  67.758 223.549 -0.34 +0.03    -0.212 OA 
DOCKED: ATOM      2  S   UNL     1     139.002  68.443 224.881 -0.37 -0.02    +0.218 S  
DOCKED: ATOM      3  O   UNL     1     138.818  67.400 225.949 -0.86 -0.02    -0.212 OA 
DOCKED: ENDROOT
DOCKED: BRANCH   2   4
DOCKED: ATOM      4  C   UNL     1     140.532  69.327 225.163 -0.09 -0.04    +0.189 C  
DOCKED: BRANCH   4   5
DOCKED: ATOM      5  C   UNL     1     140.454  70.229 226.365 -0.53 +0.01    -0.032 A  
DOCKED: ATOM      6  C   UNL     1     139.666  69.869 227.472 -0.56 -0.00    +0.005 A  
DOCKED: ATOM      7  C   UNL     1     141.178  71.432 226.400 -0.69 -0.00    +0.005 A  
DOCKED: ATOM      8  C   UNL     1     139.588  70.710 228.585 -0.45 -0.00    +0.000 A  
DOCKED: ATOM      9  C   UNL     1     141.097  72.272 227.516 -0.84 -0.00    +0.000 A  
DOCKED: ATOM     10  C   UNL     1     140.301  71.911 228.607 -0.59 -0.00    +0.000 A  
DOCKED: ENDBRANCH   4   5
DOCKED: ENDBRANCH   2   4
DOCKED: BRANCH   2  11
DOCKED: ATOM     11  N   UNL     1     137.636  69.544 224.844 -0.19 +0.02    -0.194 NA 
DOCKED: ATOM     12  C   UNL     1     136.460  69.000 224.163 -0.11 -0.00    +0.103 C  
DOCKED: ATOM     13  C   UNL     1     137.896  70.875 224.265 -0.17 -0.02    +0.103 C  
DOCKED: ATOM     14  C   UNL     1     135.649  70.186 223.652 -0.15 -0.00    +0.019 C  
DOCKED: ATOM     15  C   UNL     1     136.531  71.413 223.839 -0.20 -0.01    +0.026 C  
DOCKED: BRANCH  13  16
DOCKED: ATOM     16  C   UNL     1     138.891  70.888 223.102 -0.25 +0.01    -0.030 A  
DOCKED: ATOM     17  C   UNL     1     138.721  70.071 221.966 -0.15 -0.00    +0.005 A  
DOCKED: ATOM     18  C   UNL     1     140.005  71.748 223.155 -0.36 -0.00    +0.005 A  
DOCKED: ATOM     19  C   UNL     1     139.651  70.105 220.922 -0.12 -0.00    +0.000 A  
DOCKED: ATOM     20  C   UNL     1     140.932  71.776 222.109 -0.26 -0.00    +0.000 A  
DOCKED: ATOM     21  C   UNL     1     140.756  70.955 220.994 -0.14 -0.00    +0.000 A  
DOCKED: ENDBRANCH  13  16
DOCKED: ENDBRANCH   2  11
DOCKED: TORSDOF 4
DOCKED: TER
DOCKED: ENDMDL
________________________________________________________________________________


    FINAL DOCKED STATE:
    ________________________


Run:   12 / 20
Time taken for this run:   0.021s

DOCKED: MODEL        12
DOCKED: USER    Run = 12
DOCKED: USER
DOCKED: USER    Estimated Free Energy of Binding    =  -5.87 kcal/mol  [=(1)+(2)+(3)-(4)]
DOCKED: USER
DOCKED: USER    (1) Final Intermolecular Energy     =  -7.06 kcal/mol
DOCKED: USER        vdW + Hbond + desolv Energy     =  -7.07 kcal/mol
DOCKED: USER        Electrostatic Energy            =  +0.01 kcal/mol
DOCKED: USER        Moving Ligand-Fixed Receptor    =  -7.06 kcal/mol
DOCKED: USER        Moving Ligand-Moving Receptor   =  +0.00 kcal/mol
DOCKED: USER    (2) Final Total Internal Energy     =  -1.41 kcal/mol
DOCKED: USER    (3) Torsional Free Energy           =  +1.19 kcal/mol
DOCKED: USER    (4) Unbound System's Energy         =  -1.41 kcal/mol
DOCKED: USER
DOCKED: USER
DOCKED: REMARK SMILES O=S(=O)(Cc1ccccc1)N1CCC[C@@H]1c1ccccc1
DOCKED: REMARK SMILES IDX 1 1 2 2 3 3 4 4 5 5 6 6 10 7 7 8 9 9 8 10 11 11 12 12 15 13
DOCKED: REMARK SMILES IDX 13 14 14 15 16 16 17 17 21 18 18 19 20 20 19 21
DOCKED: REMARK H PARENT
DOCKED: USER                              x       y       z     vdW  Elec       q    Type
DOCKED: USER                           _______ _______ _______ _____ _____    ______ ____
DOCKED: ROOT
DOCKED: ATOM      1  O   UNL     1     139.309  75.295 222.650 -0.54 +0.04    -0.212 OA 
DOCKED: ATOM      2  S   UNL     1     139.796  76.679 222.321 -0.35 -0.05    +0.218 S  
DOCKED: ATOM      3  O   UNL     1     141.058  76.946 223.094 -0.33 +0.07    -0.212 OA 
DOCKED: ENDROOT
DOCKED: BRANCH   2   4
DOCKED: ATOM      4  C   UNL     1     140.149  76.710 220.566 -0.13 -0.06    +0.189 C  
DOCKED: BRANCH   4   5
DOCKED: ATOM      5  C   UNL     1     141.515  76.161 220.253 -0.25 +0.01    -0.032 A  
DOCKED: ATOM      6  C   UNL     1     141.903  74.902 220.743 -0.31 -0.00    +0.005 A  
DOCKED: ATOM      7  C   UNL     1     142.410  76.895 219.457 -0.33 -0.00    +0.005 A  
DOCKED: ATOM      8  C   UNL     1     143.175  74.397 220.457 -0.36 -0.00    +0.000 A  
DOCKED: ATOM      9  C   UNL     1     143.682  76.386 219.174 -0.34 -0.00    +0.000 A  
DOCKED: ATOM     10  C   UNL     1     144.065  75.138 219.676 -0.37 -0.00    +0.000 A  
DOCKED: ENDBRANCH   4   5
DOCKED: ENDBRANCH   2   4
DOCKED: BRANCH   2  11
DOCKED: ATOM     11  N   UNL     1     138.552  77.845 222.734 -0.19 +0.03    -0.194 NA 
DOCKED: ATOM     12  C   UNL     1     137.765  78.298 221.587 -0.12 -0.02    +0.103 C  
DOCKED: ATOM     13  C   UNL     1     139.011  79.050 223.449 -0.27 -0.01    +0.103 C  
DOCKED: ATOM     14  C   UNL     1     137.220  79.680 221.934 -0.12 -0.00    +0.019 C  
DOCKED: ATOM     15  C   UNL     1     137.933  80.107 223.209 -0.29 -0.00    +0.026 C  
DOCKED: BRANCH  13  16
DOCKED: ATOM     16  C   UNL     1     140.394  79.557 223.035 -0.41 +0.01    -0.030 A  
DOCKED: ATOM     17  C   UNL     1     140.687  79.928 221.707 -0.30 -0.00    +0.005 A  
DOCKED: ATOM     18  C   UNL     1     141.408  79.671 224.007 -0.50 -0.00    +0.005 A  
DOCKED: ATOM     19  C   UNL     1     141.963  80.383 221.362 -0.41 -0.00    +0.000 A  
DOCKED: ATOM     20  C   UNL     1     142.682  80.127 223.656 -0.65 -0.00    +0.000 A  
DOCKED: ATOM     21  C   UNL     1     142.959  80.481 222.335 -0.50 -0.00    +0.000 A  
DOCKED: ENDBRANCH  13  16
DOCKED: ENDBRANCH   2  11
DOCKED: TORSDOF 4
DOCKED: TER
DOCKED: ENDMDL
________________________________________________________________________________


    FINAL DOCKED STATE:
    ________________________


Run:   13 / 20
Time taken for this run:   0.021s

DOCKED: MODEL        13
DOCKED: USER    Run = 13
DOCKED: USER
DOCKED: USER    Estimated Free Energy of Binding    =  -6.33 kcal/mol  [=(1)+(2)+(3)-(4)]
DOCKED: USER
DOCKED: USER    (1) Final Intermolecular Energy     =  -7.52 kcal/mol
DOCKED: USER        vdW + Hbond + desolv Energy     =  -7.47 kcal/mol
DOCKED: USER        Electrostatic Energy            =  -0.05 kcal/mol
DOCKED: USER        Moving Ligand-Fixed Receptor    =  -7.52 kcal/mol
DOCKED: USER        Moving Ligand-Moving Receptor   =  +0.00 kcal/mol
DOCKED: USER    (2) Final Total Internal Energy     =  -1.48 kcal/mol
DOCKED: USER    (3) Torsional Free Energy           =  +1.19 kcal/mol
DOCKED: USER    (4) Unbound System's Energy         =  -1.48 kcal/mol
DOCKED: USER
DOCKED: USER
DOCKED: REMARK SMILES O=S(=O)(Cc1ccccc1)N1CCC[C@@H]1c1ccccc1
DOCKED: REMARK SMILES IDX 1 1 2 2 3 3 4 4 5 5 6 6 10 7 7 8 9 9 8 10 11 11 12 12 15 13
DOCKED: REMARK SMILES IDX 13 14 14 15 16 16 17 17 21 18 18 19 20 20 19 21
DOCKED: REMARK H PARENT
DOCKED: USER                              x       y       z     vdW  Elec       q    Type
DOCKED: USER                           _______ _______ _______ _____ _____    ______ ____
DOCKED: ROOT
DOCKED: ATOM      1  O   UNL     1     139.123  67.710 223.620 -0.38 +0.03    -0.212 OA 
DOCKED: ATOM      2  S   UNL     1     138.991  68.426 224.935 -0.37 -0.02    +0.218 S  
DOCKED: ATOM      3  O   UNL     1     138.832  67.406 226.029 -0.87 -0.02    -0.212 OA 
DOCKED: ENDROOT
DOCKED: BRANCH   2   4
DOCKED: ATOM      4  C   UNL     1     140.504  69.347 225.188 -0.14 -0.04    +0.189 C  
DOCKED: BRANCH   4   5
DOCKED: ATOM      5  C   UNL     1     140.432  70.236 226.401 -0.54 +0.01    -0.032 A  
DOCKED: ATOM      6  C   UNL     1     139.640  69.869 227.503 -0.56 -0.00    +0.005 A  
DOCKED: ATOM      7  C   UNL     1     141.165  71.433 226.450 -0.69 -0.00    +0.005 A  
DOCKED: ATOM      8  C   UNL     1     139.567  70.698 228.625 -0.44 -0.00    +0.000 A  
DOCKED: ATOM      9  C   UNL     1     141.090  72.260 227.576 -0.84 -0.00    +0.000 A  
DOCKED: ATOM     10  C   UNL     1     140.289  71.893 228.662 -0.58 -0.00    +0.000 A  
DOCKED: ENDBRANCH   4   5
DOCKED: ENDBRANCH   2   4
DOCKED: BRANCH   2  11
DOCKED: ATOM     11  N   UNL     1     137.603  69.498 224.876 -0.19 +0.02    -0.194 NA 
DOCKED: ATOM     12  C   UNL     1     136.453  68.934 224.168 -0.08 -0.00    +0.103 C  
DOCKED: ATOM     13  C   UNL     1     137.846  70.837 224.310 -0.14 -0.02    +0.103 C  
DOCKED: ATOM     14  C   UNL     1     135.627  70.106 223.648 -0.15 -0.00    +0.019 C  
DOCKED: ATOM     15  C   UNL     1     136.479  71.349 223.859 -0.20 -0.01    +0.026 C  
DOCKED: BRANCH  13  16
DOCKED: ATOM     16  C   UNL     1     138.864  70.878 223.167 -0.26 +0.01    -0.030 A  
DOCKED: ATOM     17  C   UNL     1     138.752  70.042 222.038 -0.15 -0.00    +0.005 A  
DOCKED: ATOM     18  C   UNL     1     139.941  71.785 223.232 -0.36 -0.00    +0.005 A  
DOCKED: ATOM     19  C   UNL     1     139.701  70.102 221.014 -0.13 -0.00    +0.000 A  
DOCKED: ATOM     20  C   UNL     1     140.887  71.839 222.205 -0.28 -0.00    +0.000 A  
DOCKED: ATOM     21  C   UNL     1     140.768  70.998 221.097 -0.14 -0.00    +0.000 A  
DOCKED: ENDBRANCH  13  16
DOCKED: ENDBRANCH   2  11
DOCKED: TORSDOF 4
DOCKED: TER
DOCKED: ENDMDL
________________________________________________________________________________


    FINAL DOCKED STATE:
    ________________________


Run:   14 / 20
Time taken for this run:   0.021s

DOCKED: MODEL        14
DOCKED: USER    Run = 14
DOCKED: USER
DOCKED: USER    Estimated Free Energy of Binding    =  -5.89 kcal/mol  [=(1)+(2)+(3)-(4)]
DOCKED: USER
DOCKED: USER    (1) Final Intermolecular Energy     =  -7.08 kcal/mol
DOCKED: USER        vdW + Hbond + desolv Energy     =  -7.08 kcal/mol
DOCKED: USER        Electrostatic Energy            =  +0.01 kcal/mol
DOCKED: USER        Moving Ligand-Fixed Receptor    =  -7.08 kcal/mol
DOCKED: USER        Moving Ligand-Moving Receptor   =  +0.00 kcal/mol
DOCKED: USER    (2) Final Total Internal Energy     =  -1.40 kcal/mol
DOCKED: USER    (3) Torsional Free Energy           =  +1.19 kcal/mol
DOCKED: USER    (4) Unbound System's Energy         =  -1.40 kcal/mol
DOCKED: USER
DOCKED: USER
DOCKED: REMARK SMILES O=S(=O)(Cc1ccccc1)N1CCC[C@@H]1c1ccccc1
DOCKED: REMARK SMILES IDX 1 1 2 2 3 3 4 4 5 5 6 6 10 7 7 8 9 9 8 10 11 11 12 12 15 13
DOCKED: REMARK SMILES IDX 13 14 14 15 16 16 17 17 21 18 18 19 20 20 19 21
DOCKED: REMARK H PARENT
DOCKED: USER                              x       y       z     vdW  Elec       q    Type
DOCKED: USER                           _______ _______ _______ _____ _____    ______ ____
DOCKED: ROOT
DOCKED: ATOM      1  O   UNL     1     139.338  75.300 222.652 -0.54 +0.04    -0.212 OA 
DOCKED: ATOM      2  S   UNL     1     139.817  76.688 222.331 -0.35 -0.05    +0.218 S  
DOCKED: ATOM      3  O   UNL     1     141.076  76.959 223.107 -0.32 +0.07    -0.212 OA 
DOCKED: ENDROOT
DOCKED: BRANCH   2   4
DOCKED: ATOM      4  C   UNL     1     140.172  76.730 220.577 -0.13 -0.06    +0.189 C  
DOCKED: BRANCH   4   5
DOCKED: ATOM      5  C   UNL     1     141.529  76.163 220.259 -0.25 +0.01    -0.032 A  
DOCKED: ATOM      6  C   UNL     1     141.898  74.895 220.740 -0.31 -0.00    +0.005 A  
DOCKED: ATOM      7  C   UNL     1     142.435  76.889 219.468 -0.33 -0.00    +0.005 A  
DOCKED: ATOM      8  C   UNL     1     143.162  74.373 220.450 -0.36 -0.00    +0.000 A  
DOCKED: ATOM      9  C   UNL     1     143.699  76.363 219.181 -0.34 -0.00    +0.000 A  
DOCKED: ATOM     10  C   UNL     1     144.063  75.106 219.674 -0.37 -0.00    +0.000 A  
DOCKED: ENDBRANCH   4   5
DOCKED: ENDBRANCH   2   4
DOCKED: BRANCH   2  11
DOCKED: ATOM     11  N   UNL     1     138.566  77.845 222.749 -0.19 +0.03    -0.194 NA 
DOCKED: ATOM     12  C   UNL     1     137.771  78.293 221.604 -0.12 -0.02    +0.103 C  
DOCKED: ATOM     13  C   UNL     1     139.018  79.054 223.462 -0.27 -0.01    +0.103 C  
DOCKED: ATOM     14  C   UNL     1     137.217  79.670 221.953 -0.12 -0.00    +0.019 C  
DOCKED: ATOM     15  C   UNL     1     137.932  80.103 223.226 -0.29 -0.00    +0.026 C  
DOCKED: BRANCH  13  16
DOCKED: ATOM     16  C   UNL     1     140.396  79.571 223.044 -0.41 +0.01    -0.030 A  
DOCKED: ATOM     17  C   UNL     1     140.678  79.955 221.717 -0.30 -0.00    +0.005 A  
DOCKED: ATOM     18  C   UNL     1     141.416  79.682 224.009 -0.50 -0.00    +0.005 A  
DOCKED: ATOM     19  C   UNL     1     141.949  80.420 221.367 -0.42 -0.00    +0.000 A  
DOCKED: ATOM     20  C   UNL     1     142.685  80.146 223.653 -0.65 -0.00    +0.000 A  
DOCKED: ATOM     21  C   UNL     1     142.952  80.514 222.333 -0.51 -0.00    +0.000 A  
DOCKED: ENDBRANCH  13  16
DOCKED: ENDBRANCH   2  11
DOCKED: TORSDOF 4
DOCKED: TER
DOCKED: ENDMDL
________________________________________________________________________________


    FINAL DOCKED STATE:
    ________________________


Run:   15 / 20
Time taken for this run:   0.021s

DOCKED: MODEL        15
DOCKED: USER    Run = 15
DOCKED: USER
DOCKED: USER    Estimated Free Energy of Binding    =  -5.88 kcal/mol  [=(1)+(2)+(3)-(4)]
DOCKED: USER
DOCKED: USER    (1) Final Intermolecular Energy     =  -7.07 kcal/mol
DOCKED: USER        vdW + Hbond + desolv Energy     =  -7.08 kcal/mol
DOCKED: USER        Electrostatic Energy            =  +0.01 kcal/mol
DOCKED: USER        Moving Ligand-Fixed Receptor    =  -7.07 kcal/mol
DOCKED: USER        Moving Ligand-Moving Receptor   =  +0.00 kcal/mol
DOCKED: USER    (2) Final Total Internal Energy     =  -1.40 kcal/mol
DOCKED: USER    (3) Torsional Free Energy           =  +1.19 kcal/mol
DOCKED: USER    (4) Unbound System's Energy         =  -1.40 kcal/mol
DOCKED: USER
DOCKED: USER
DOCKED: REMARK SMILES O=S(=O)(Cc1ccccc1)N1CCC[C@@H]1c1ccccc1
DOCKED: REMARK SMILES IDX 1 1 2 2 3 3 4 4 5 5 6 6 10 7 7 8 9 9 8 10 11 11 12 12 15 13
DOCKED: REMARK SMILES IDX 13 14 14 15 16 16 17 17 21 18 18 19 20 20 19 21
DOCKED: REMARK H PARENT
DOCKED: USER                              x       y       z     vdW  Elec       q    Type
DOCKED: USER                           _______ _______ _______ _____ _____    ______ ____
DOCKED: ROOT
DOCKED: ATOM      1  O   UNL     1     139.328  75.282 222.656 -0.54 +0.04    -0.212 OA 
DOCKED: ATOM      2  S   UNL     1     139.812  76.666 222.323 -0.35 -0.05    +0.218 S  
DOCKED: ATOM      3  O   UNL     1     141.070  76.940 223.101 -0.32 +0.07    -0.212 OA 
DOCKED: ENDROOT
DOCKED: BRANCH   2   4
DOCKED: ATOM      4  C   UNL     1     140.172  76.690 220.570 -0.13 -0.06    +0.189 C  
DOCKED: BRANCH   4   5
DOCKED: ATOM      5  C   UNL     1     141.530  76.118 220.262 -0.25 +0.01    -0.032 A  
DOCKED: ATOM      6  C   UNL     1     142.444  76.844 219.479 -0.33 -0.00    +0.005 A  
DOCKED: ATOM      7  C   UNL     1     141.902  74.860 220.764 -0.31 -0.00    +0.005 A  
DOCKED: ATOM      8  C   UNL     1     143.702  76.308 219.187 -0.34 -0.00    +0.000 A  
DOCKED: ATOM      9  C   UNL     1     143.162  74.328 220.470 -0.36 -0.00    +0.000 A  
DOCKED: ATOM     10  C   UNL     1     144.060  75.051 219.680 -0.38 -0.00    +0.000 A  
DOCKED: ENDBRANCH   4   5
DOCKED: ENDBRANCH   2   4
DOCKED: BRANCH   2  11
DOCKED: ATOM     11  N   UNL     1     138.564  77.831 222.727 -0.20 +0.03    -0.194 NA 
DOCKED: ATOM     12  C   UNL     1     137.778  78.275 221.574 -0.12 -0.02    +0.103 C  
DOCKED: ATOM     13  C   UNL     1     139.016  79.041 223.436 -0.27 -0.01    +0.103 C  
DOCKED: ATOM     14  C   UNL     1     137.228  79.657 221.912 -0.12 -0.00    +0.019 C  
DOCKED: ATOM     15  C   UNL     1     137.937  80.094 223.187 -0.28 -0.00    +0.026 C  
DOCKED: BRANCH  13  16
DOCKED: ATOM     16  C   UNL     1     140.400  79.550 223.023 -0.41 +0.01    -0.030 A  
DOCKED: ATOM     17  C   UNL     1     140.692  79.922 221.695 -0.30 -0.00    +0.005 A  
DOCKED: ATOM     18  C   UNL     1     141.413  79.664 223.995 -0.51 -0.00    +0.005 A  
DOCKED: ATOM     19  C   UNL     1     141.968  80.380 221.352 -0.41 -0.00    +0.000 A  
DOCKED: ATOM     20  C   UNL     1     142.687  80.121 223.645 -0.65 -0.00    +0.000 A  
DOCKED: ATOM     21  C   UNL     1     142.964  80.477 222.324 -0.49 -0.00    +0.000 A  
DOCKED: ENDBRANCH  13  16
DOCKED: ENDBRANCH   2  11
DOCKED: TORSDOF 4
DOCKED: TER
DOCKED: ENDMDL
________________________________________________________________________________


    FINAL DOCKED STATE:
    ________________________


Run:   16 / 20
Time taken for this run:   0.021s

DOCKED: MODEL        16
DOCKED: USER    Run = 16
DOCKED: USER
DOCKED: USER    Estimated Free Energy of Binding    =  -6.23 kcal/mol  [=(1)+(2)+(3)-(4)]
DOCKED: USER
DOCKED: USER    (1) Final Intermolecular Energy     =  -7.43 kcal/mol
DOCKED: USER        vdW + Hbond + desolv Energy     =  -7.37 kcal/mol
DOCKED: USER        Electrostatic Energy            =  -0.05 kcal/mol
DOCKED: USER        Moving Ligand-Fixed Receptor    =  -7.43 kcal/mol
DOCKED: USER        Moving Ligand-Moving Receptor   =  +0.00 kcal/mol
DOCKED: USER    (2) Final Total Internal Energy     =  -1.53 kcal/mol
DOCKED: USER    (3) Torsional Free Energy           =  +1.19 kcal/mol
DOCKED: USER    (4) Unbound System's Energy         =  -1.53 kcal/mol
DOCKED: USER
DOCKED: USER
DOCKED: REMARK SMILES O=S(=O)(Cc1ccccc1)N1CCC[C@@H]1c1ccccc1
DOCKED: REMARK SMILES IDX 1 1 2 2 3 3 4 4 5 5 6 6 10 7 7 8 9 9 8 10 11 11 12 12 15 13
DOCKED: REMARK SMILES IDX 13 14 14 15 16 16 17 17 21 18 18 19 20 20 19 21
DOCKED: REMARK H PARENT
DOCKED: USER                              x       y       z     vdW  Elec       q    Type
DOCKED: USER                           _______ _______ _______ _____ _____    ______ ____
DOCKED: ROOT
DOCKED: ATOM      1  O   UNL     1     139.150  67.918 223.390 -0.26 +0.04    -0.212 OA 
DOCKED: ATOM      2  S   UNL     1     139.027  68.544 224.751 -0.36 -0.02    +0.218 S  
DOCKED: ATOM      3  O   UNL     1     138.867  67.453 225.774 -0.87 -0.02    -0.212 OA 
DOCKED: ENDROOT
DOCKED: BRANCH   2   4
DOCKED: ATOM      4  C   UNL     1     140.547  69.437 225.059 -0.06 -0.04    +0.189 C  
DOCKED: BRANCH   4   5
DOCKED: ATOM      5  C   UNL     1     140.468  70.280 226.304 -0.54 +0.01    -0.032 A  
DOCKED: ATOM      6  C   UNL     1     141.191  71.482 226.394 -0.69 -0.00    +0.005 A  
DOCKED: ATOM      7  C   UNL     1     139.660  69.882 227.382 -0.55 -0.00    +0.005 A  
DOCKED: ATOM      8  C   UNL     1     141.122  72.260 227.553 -0.84 -0.00    +0.000 A  
DOCKED: ATOM      9  C   UNL     1     139.594  70.664 228.540 -0.47 -0.00    +0.000 A  
DOCKED: ATOM     10  C   UNL     1     140.327  71.851 228.626 -0.59 -0.00    +0.000 A  
DOCKED: ENDBRANCH   4   5
DOCKED: ENDBRANCH   2   4
DOCKED: BRANCH   2  11
DOCKED: ATOM     11  N   UNL     1     137.646  69.625 224.772 -0.18 +0.02    -0.194 NA 
DOCKED: ATOM     12  C   UNL     1     136.471  69.093 224.080 -0.14 -0.01    +0.103 C  
DOCKED: ATOM     13  C   UNL     1     137.881  70.982 224.246 -0.15 -0.02    +0.103 C  
DOCKED: ATOM     14  C   UNL     1     135.638  70.287 223.625 -0.15 -0.00    +0.019 C  
DOCKED: ATOM     15  C   UNL     1     136.504  71.518 223.855 -0.20 -0.01    +0.026 C  
DOCKED: BRANCH  13  16
DOCKED: ATOM     16  C   UNL     1     138.864  71.057 223.075 -0.25 +0.01    -0.030 A  
DOCKED: ATOM     17  C   UNL     1     138.673  70.316 221.891 -0.14 -0.00    +0.005 A  
DOCKED: ATOM     18  C   UNL     1     139.990  71.900 223.170 -0.36 -0.00    +0.005 A  
DOCKED: ATOM     19  C   UNL     1     139.593  70.405 220.842 -0.12 -0.00    +0.000 A  
DOCKED: ATOM     20  C   UNL     1     140.906  71.983 222.118 -0.28 -0.00    +0.000 A  
DOCKED: ATOM     21  C   UNL     1     140.709  71.236 220.956 -0.16 -0.00    +0.000 A  
DOCKED: ENDBRANCH  13  16
DOCKED: ENDBRANCH   2  11
DOCKED: TORSDOF 4
DOCKED: TER
DOCKED: ENDMDL
________________________________________________________________________________


    FINAL DOCKED STATE:
    ________________________


Run:   17 / 20
Time taken for this run:   0.021s

DOCKED: MODEL        17
DOCKED: USER    Run = 17
DOCKED: USER
DOCKED: USER    Estimated Free Energy of Binding    =  -5.87 kcal/mol  [=(1)+(2)+(3)-(4)]
DOCKED: USER
DOCKED: USER    (1) Final Intermolecular Energy     =  -7.06 kcal/mol
DOCKED: USER        vdW + Hbond + desolv Energy     =  -7.07 kcal/mol
DOCKED: USER        Electrostatic Energy            =  +0.01 kcal/mol
DOCKED: USER        Moving Ligand-Fixed Receptor    =  -7.06 kcal/mol
DOCKED: USER        Moving Ligand-Moving Receptor   =  +0.00 kcal/mol
DOCKED: USER    (2) Final Total Internal Energy     =  -1.41 kcal/mol
DOCKED: USER    (3) Torsional Free Energy           =  +1.19 kcal/mol
DOCKED: USER    (4) Unbound System's Energy         =  -1.41 kcal/mol
DOCKED: USER
DOCKED: USER
DOCKED: REMARK SMILES O=S(=O)(Cc1ccccc1)N1CCC[C@@H]1c1ccccc1
DOCKED: REMARK SMILES IDX 1 1 2 2 3 3 4 4 5 5 6 6 10 7 7 8 9 9 8 10 11 11 12 12 15 13
DOCKED: REMARK SMILES IDX 13 14 14 15 16 16 17 17 21 18 18 19 20 20 19 21
DOCKED: REMARK H PARENT
DOCKED: USER                              x       y       z     vdW  Elec       q    Type
DOCKED: USER                           _______ _______ _______ _____ _____    ______ ____
DOCKED: ROOT
DOCKED: ATOM      1  O   UNL     1     139.344  75.288 222.673 -0.54 +0.04    -0.212 OA 
DOCKED: ATOM      2  S   UNL     1     139.819  76.677 222.349 -0.35 -0.05    +0.218 S  
DOCKED: ATOM      3  O   UNL     1     141.078  76.952 223.124 -0.29 +0.07    -0.212 OA 
DOCKED: ENDROOT
DOCKED: BRANCH   2   4
DOCKED: ATOM      4  C   UNL     1     140.173  76.716 220.595 -0.13 -0.06    +0.189 C  
DOCKED: BRANCH   4   5
DOCKED: ATOM      5  C   UNL     1     141.534  76.158 220.278 -0.25 +0.01    -0.032 A  
DOCKED: ATOM      6  C   UNL     1     142.440  76.896 219.496 -0.33 -0.00    +0.005 A  
DOCKED: ATOM      7  C   UNL     1     141.919  74.900 220.772 -0.31 -0.00    +0.005 A  
DOCKED: ATOM      8  C   UNL     1     143.701  76.372 219.196 -0.34 -0.00    +0.000 A  
DOCKED: ATOM      9  C   UNL     1     143.183  74.380 220.470 -0.36 -0.00    +0.000 A  
DOCKED: ATOM     10  C   UNL     1     144.072  75.116 219.681 -0.37 -0.00    +0.000 A  
DOCKED: ENDBRANCH   4   5
DOCKED: ENDBRANCH   2   4
DOCKED: BRANCH   2  11
DOCKED: ATOM     11  N   UNL     1     138.566  77.831 222.765 -0.19 +0.03    -0.194 NA 
DOCKED: ATOM     12  C   UNL     1     137.769  78.274 221.620 -0.12 -0.02    +0.103 C  
DOCKED: ATOM     13  C   UNL     1     139.015  79.043 223.475 -0.27 -0.01    +0.103 C  
DOCKED: ATOM     14  C   UNL     1     137.211  79.651 221.966 -0.12 -0.00    +0.019 C  
DOCKED: ATOM     15  C   UNL     1     137.926  80.088 223.237 -0.29 -0.00    +0.026 C  
DOCKED: BRANCH  13  16
DOCKED: ATOM     16  C   UNL     1     140.392  79.563 223.053 -0.42 +0.01    -0.030 A  
DOCKED: ATOM     17  C   UNL     1     140.673  79.937 221.723 -0.30 -0.00    +0.005 A  
DOCKED: ATOM     18  C   UNL     1     141.410  79.686 224.019 -0.49 -0.00    +0.005 A  
DOCKED: ATOM     19  C   UNL     1     141.943  80.404 221.372 -0.42 -0.00    +0.000 A  
DOCKED: ATOM     20  C   UNL     1     142.677  80.153 223.661 -0.65 -0.00    +0.000 A  
DOCKED: ATOM     21  C   UNL     1     142.944  80.511 222.338 -0.51 -0.00    +0.000 A  
DOCKED: ENDBRANCH  13  16
DOCKED: ENDBRANCH   2  11
DOCKED: TORSDOF 4
DOCKED: TER
DOCKED: ENDMDL
________________________________________________________________________________


    FINAL DOCKED STATE:
    ________________________


Run:   18 / 20
Time taken for this run:   0.021s

DOCKED: MODEL        18
DOCKED: USER    Run = 18
DOCKED: USER
DOCKED: USER    Estimated Free Energy of Binding    =  -6.07 kcal/mol  [=(1)+(2)+(3)-(4)]
DOCKED: USER
DOCKED: USER    (1) Final Intermolecular Energy     =  -7.26 kcal/mol
DOCKED: USER        vdW + Hbond + desolv Energy     =  -7.19 kcal/mol
DOCKED: USER        Electrostatic Energy            =  -0.07 kcal/mol
DOCKED: USER        Moving Ligand-Fixed Receptor    =  -7.26 kcal/mol
DOCKED: USER        Moving Ligand-Moving Receptor   =  +0.00 kcal/mol
DOCKED: USER    (2) Final Total Internal Energy     =  -1.32 kcal/mol
DOCKED: USER    (3) Torsional Free Energy           =  +1.19 kcal/mol
DOCKED: USER    (4) Unbound System's Energy         =  -1.32 kcal/mol
DOCKED: USER
DOCKED: USER
DOCKED: REMARK SMILES O=S(=O)(Cc1ccccc1)N1CCC[C@@H]1c1ccccc1
DOCKED: REMARK SMILES IDX 1 1 2 2 3 3 4 4 5 5 6 6 10 7 7 8 9 9 8 10 11 11 12 12 15 13
DOCKED: REMARK SMILES IDX 13 14 14 15 16 16 17 17 21 18 18 19 20 20 19 21
DOCKED: REMARK H PARENT
DOCKED: USER                              x       y       z     vdW  Elec       q    Type
DOCKED: USER                           _______ _______ _______ _____ _____    ______ ____
DOCKED: ROOT
DOCKED: ATOM      1  O   UNL     1     138.827  67.500 225.916 -0.86 -0.02    -0.212 OA 
DOCKED: ATOM      2  S   UNL     1     138.594  68.557 224.873 -0.33 -0.01    +0.218 S  
DOCKED: ATOM      3  O   UNL     1     137.487  69.462 225.338 -0.22 +0.01    -0.212 OA 
DOCKED: ENDROOT
DOCKED: BRANCH   2   4
DOCKED: ATOM      4  C   UNL     1     140.112  69.493 224.724 -0.13 -0.04    +0.189 C  
DOCKED: BRANCH   4   5
DOCKED: ATOM      5  C   UNL     1     140.390  70.322 225.949 -0.52 +0.01    -0.032 A  
DOCKED: ATOM      6  C   UNL     1     139.906  69.916 227.205 -0.57 -0.00    +0.005 A  
DOCKED: ATOM      7  C   UNL     1     141.148  71.501 225.854 -0.63 -0.00    +0.005 A  
DOCKED: ATOM      8  C   UNL     1     140.158  70.690 228.341 -0.62 -0.00    +0.000 A  
DOCKED: ATOM      9  C   UNL     1     141.398  72.273 226.993 -0.77 -0.00    +0.000 A  
DOCKED: ATOM     10  C   UNL     1     140.902  71.868 228.236 -0.79 -0.00    +0.000 A  
DOCKED: ENDBRANCH   4   5
DOCKED: ENDBRANCH   2   4
DOCKED: BRANCH   2  11
DOCKED: ATOM     11  N   UNL     1     138.175  67.789 223.352 -0.14 +0.01    -0.194 NA 
DOCKED: ATOM     12  C   UNL     1     139.190  66.854 222.865 -0.05 -0.02    +0.103 C  
DOCKED: ATOM     13  C   UNL     1     137.854  68.699 222.238 -0.15 -0.02    +0.103 C  
DOCKED: ATOM     14  C   UNL     1     139.035  66.771 221.350 -0.22 -0.00    +0.019 C  
DOCKED: ATOM     15  C   UNL     1     138.071  67.884 220.963 -0.12 -0.00    +0.026 C  
DOCKED: BRANCH  13  16
DOCKED: ATOM     16  C   UNL     1     138.663  69.999 222.214 -0.16 +0.01    -0.030 A  
DOCKED: ATOM     17  C   UNL     1     138.173  71.193 222.780 -0.20 -0.00    +0.005 A  
DOCKED: ATOM     18  C   UNL     1     139.941  70.007 221.620 -0.12 -0.00    +0.005 A  
DOCKED: ATOM     19  C   UNL     1     138.936  72.364 222.738 -0.13 -0.00    +0.000 A  
DOCKED: ATOM     20  C   UNL     1     140.698  71.181 221.580 -0.17 -0.00    +0.000 A  
DOCKED: ATOM     21  C   UNL     1     140.196  72.359 222.137 -0.30 -0.00    +0.000 A  
DOCKED: ENDBRANCH  13  16
DOCKED: ENDBRANCH   2  11
DOCKED: TORSDOF 4
DOCKED: TER
DOCKED: ENDMDL
________________________________________________________________________________


    FINAL DOCKED STATE:
    ________________________


Run:   19 / 20
Time taken for this run:   0.021s

DOCKED: MODEL        19
DOCKED: USER    Run = 19
DOCKED: USER
DOCKED: USER    Estimated Free Energy of Binding    =  -5.87 kcal/mol  [=(1)+(2)+(3)-(4)]
DOCKED: USER
DOCKED: USER    (1) Final Intermolecular Energy     =  -7.07 kcal/mol
DOCKED: USER        vdW + Hbond + desolv Energy     =  -7.07 kcal/mol
DOCKED: USER        Electrostatic Energy            =  +0.01 kcal/mol
DOCKED: USER        Moving Ligand-Fixed Receptor    =  -7.07 kcal/mol
DOCKED: USER        Moving Ligand-Moving Receptor   =  +0.00 kcal/mol
DOCKED: USER    (2) Final Total Internal Energy     =  -1.40 kcal/mol
DOCKED: USER    (3) Torsional Free Energy           =  +1.19 kcal/mol
DOCKED: USER    (4) Unbound System's Energy         =  -1.40 kcal/mol
DOCKED: USER
DOCKED: USER
DOCKED: REMARK SMILES O=S(=O)(Cc1ccccc1)N1CCC[C@@H]1c1ccccc1
DOCKED: REMARK SMILES IDX 1 1 2 2 3 3 4 4 5 5 6 6 10 7 7 8 9 9 8 10 11 11 12 12 15 13
DOCKED: REMARK SMILES IDX 13 14 14 15 16 16 17 17 21 18 18 19 20 20 19 21
DOCKED: REMARK H PARENT
DOCKED: USER                              x       y       z     vdW  Elec       q    Type
DOCKED: USER                           _______ _______ _______ _____ _____    ______ ____
DOCKED: ROOT
DOCKED: ATOM      1  O   UNL     1     139.354  75.290 222.628 -0.55 +0.04    -0.212 OA 
DOCKED: ATOM      2  S   UNL     1     139.830  76.680 222.309 -0.35 -0.05    +0.218 S  
DOCKED: ATOM      3  O   UNL     1     141.088  76.953 223.088 -0.33 +0.07    -0.212 OA 
DOCKED: ENDROOT
DOCKED: BRANCH   2   4
DOCKED: ATOM      4  C   UNL     1     140.189  76.725 220.556 -0.13 -0.06    +0.189 C  
DOCKED: BRANCH   4   5
DOCKED: ATOM      5  C   UNL     1     141.543  76.150 220.239 -0.25 +0.01    -0.032 A  
DOCKED: ATOM      6  C   UNL     1     142.445  76.864 219.431 -0.33 -0.00    +0.005 A  
DOCKED: ATOM      7  C   UNL     1     141.925  74.902 220.758 -0.31 -0.00    +0.005 A  
DOCKED: ATOM      8  C   UNL     1     143.700  76.326 219.131 -0.33 -0.00    +0.000 A  
DOCKED: ATOM      9  C   UNL     1     143.182  74.367 220.455 -0.36 -0.00    +0.000 A  
DOCKED: ATOM     10  C   UNL     1     144.068  75.079 219.640 -0.36 -0.00    +0.000 A  
DOCKED: ENDBRANCH   4   5
DOCKED: ENDBRANCH   2   4
DOCKED: BRANCH   2  11
DOCKED: ATOM     11  N   UNL     1     138.576  77.834 222.726 -0.20 +0.03    -0.194 NA 
DOCKED: ATOM     12  C   UNL     1     137.779  78.276 221.581 -0.12 -0.02    +0.103 C  
DOCKED: ATOM     13  C   UNL     1     139.025  79.045 223.436 -0.28 -0.01    +0.103 C  
DOCKED: ATOM     14  C   UNL     1     137.220  79.652 221.928 -0.12 -0.00    +0.019 C  
DOCKED: ATOM     15  C   UNL     1     137.935  80.090 223.198 -0.29 -0.00    +0.026 C  
DOCKED: BRANCH  13  16
DOCKED: ATOM     16  C   UNL     1     140.401  79.566 223.015 -0.41 +0.01    -0.030 A  
DOCKED: ATOM     17  C   UNL     1     140.679  79.950 221.687 -0.30 -0.00    +0.005 A  
DOCKED: ATOM     18  C   UNL     1     141.422  79.681 223.979 -0.51 -0.00    +0.005 A  
DOCKED: ATOM     19  C   UNL     1     141.949  80.418 221.335 -0.41 -0.00    +0.000 A  
DOCKED: ATOM     20  C   UNL     1     142.689  80.149 223.620 -0.66 -0.00    +0.000 A  
DOCKED: ATOM     21  C   UNL     1     142.953  80.516 222.300 -0.48 -0.00    +0.000 A  
DOCKED: ENDBRANCH  13  16
DOCKED: ENDBRANCH   2  11
DOCKED: TORSDOF 4
DOCKED: TER
DOCKED: ENDMDL
________________________________________________________________________________


    FINAL DOCKED STATE:
    ________________________


Run:   20 / 20
Time taken for this run:   0.021s

DOCKED: MODEL        20
DOCKED: USER    Run = 20
DOCKED: USER
DOCKED: USER    Estimated Free Energy of Binding    =  -5.88 kcal/mol  [=(1)+(2)+(3)-(4)]
DOCKED: USER
DOCKED: USER    (1) Final Intermolecular Energy     =  -7.07 kcal/mol
DOCKED: USER        vdW + Hbond + desolv Energy     =  -7.08 kcal/mol
DOCKED: USER        Electrostatic Energy            =  +0.01 kcal/mol
DOCKED: USER        Moving Ligand-Fixed Receptor    =  -7.07 kcal/mol
DOCKED: USER        Moving Ligand-Moving Receptor   =  +0.00 kcal/mol
DOCKED: USER    (2) Final Total Internal Energy     =  -1.40 kcal/mol
DOCKED: USER    (3) Torsional Free Energy           =  +1.19 kcal/mol
DOCKED: USER    (4) Unbound System's Energy         =  -1.40 kcal/mol
DOCKED: USER
DOCKED: USER
DOCKED: REMARK SMILES O=S(=O)(Cc1ccccc1)N1CCC[C@@H]1c1ccccc1
DOCKED: REMARK SMILES IDX 1 1 2 2 3 3 4 4 5 5 6 6 10 7 7 8 9 9 8 10 11 11 12 12 15 13
DOCKED: REMARK SMILES IDX 13 14 14 15 16 16 17 17 21 18 18 19 20 20 19 21
DOCKED: REMARK H PARENT
DOCKED: USER                              x       y       z     vdW  Elec       q    Type
DOCKED: USER                           _______ _______ _______ _____ _____    ______ ____
DOCKED: ROOT
DOCKED: ATOM      1  O   UNL     1     139.343  75.299 222.668 -0.54 +0.04    -0.212 OA 
DOCKED: ATOM      2  S   UNL     1     139.818  76.685 222.333 -0.35 -0.05    +0.218 S  
DOCKED: ATOM      3  O   UNL     1     141.082  76.964 223.100 -0.33 +0.07    -0.212 OA 
DOCKED: ENDROOT
DOCKED: BRANCH   2   4
DOCKED: ATOM      4  C   UNL     1     140.164  76.712 220.577 -0.13 -0.06    +0.189 C  
DOCKED: BRANCH   4   5
DOCKED: ATOM      5  C   UNL     1     141.528  76.161 220.258 -0.25 +0.01    -0.032 A  
DOCKED: ATOM      6  C   UNL     1     142.432  76.908 219.484 -0.33 -0.00    +0.005 A  
DOCKED: ATOM      7  C   UNL     1     141.916  74.900 220.742 -0.31 -0.00    +0.005 A  
DOCKED: ATOM      8  C   UNL     1     143.695  76.391 219.182 -0.34 -0.00    +0.000 A  
DOCKED: ATOM      9  C   UNL     1     143.181  74.387 220.438 -0.36 -0.00    +0.000 A  
DOCKED: ATOM     10  C   UNL     1     144.069  75.132 219.657 -0.36 -0.00    +0.000 A  
DOCKED: ENDBRANCH   4   5
DOCKED: ENDBRANCH   2   4
DOCKED: BRANCH   2  11
DOCKED: ATOM     11  N   UNL     1     138.569  77.844 222.747 -0.19 +0.03    -0.194 NA 
DOCKED: ATOM     12  C   UNL     1     137.775  78.290 221.601 -0.12 -0.02    +0.103 C  
DOCKED: ATOM     13  C   UNL     1     139.021  79.053 223.459 -0.27 -0.01    +0.103 C  
DOCKED: ATOM     14  C   UNL     1     137.222  79.669 221.947 -0.12 -0.00    +0.019 C  
DOCKED: ATOM     15  C   UNL     1     137.936  80.103 223.219 -0.29 -0.00    +0.026 C  
DOCKED: BRANCH  13  16
DOCKED: ATOM     16  C   UNL     1     140.400  79.569 223.040 -0.41 +0.01    -0.030 A  
DOCKED: ATOM     17  C   UNL     1     140.684  79.947 221.711 -0.30 -0.00    +0.005 A  
DOCKED: ATOM     18  C   UNL     1     141.419  79.683 224.007 -0.50 -0.00    +0.005 A  
DOCKED: ATOM     19  C   UNL     1     141.956  80.410 221.362 -0.41 -0.00    +0.000 A  
DOCKED: ATOM     20  C   UNL     1     142.689  80.145 223.650 -0.65 -0.00    +0.000 A  
DOCKED: ATOM     21  C   UNL     1     142.958  80.507 222.329 -0.50 -0.00    +0.000 A  
DOCKED: ENDBRANCH  13  16
DOCKED: ENDBRANCH   2  11
DOCKED: TORSDOF 4
DOCKED: TER
DOCKED: ENDMDL
________________________________________________________________________________


    CLUSTERING HISTOGRAM
    ____________________


________________________________________________________________________________
     |           |     |           |     |
Clus | Lowest    | Run | Mean      | Num | Histogram
-ter | Binding   |     | Binding   | in  |
Rank | Energy    |     | Energy    | Clus|    5    10   15   20   25   30   35
_____|___________|_____|___________|_____|____:____|____:____|____:____|____:___
   1 |     -6.38 |   1 |     -6.35 |   3 |###
   2 |     -6.33 |  13 |     -6.24 |   6 |######
   3 |     -6.14 |   9 |     -6.13 |   2 |##
   4 |     -5.89 |  14 |     -5.88 |   8 |########
   5 |     -5.65 |   4 |     -5.65 |   1 |#
_____|___________|_____|___________|_____|______________________________________


    RMSD TABLE
    __________


_______________________________________________________________________
     |      |      |           |         |                 |
Rank | Sub- | Run  | Binding   | Cluster | Reference       | Grep
     | Rank |      | Energy    | RMSD    | RMSD            | Pattern
_____|______|______|___________|_________|_________________|___________
   1      1      1       -6.38      0.00    270.45           RANKING
   1      2      3       -6.36      0.34    270.36           RANKING
   1      3     10       -6.31      0.41    270.25           RANKING
   2      1     13       -6.33      0.00    270.90           RANKING
   2      2      8       -6.31      0.08    270.88           RANKING
   2      3     11       -6.27      0.08    270.86           RANKING
   2      4      6       -6.23      0.20    270.91           RANKING
   2      5     16       -6.23      0.20    270.85           RANKING
   2      6     18       -6.07      1.84    270.47           RANKING
   3      1      9       -6.14      0.00    270.27           RANKING
   3      2      2       -6.11      0.05    270.25           RANKING
   4      1     14       -5.89      0.00    271.44           RANKING
   4      2     20       -5.88      0.02    271.44           RANKING
   4      3      5       -5.88      0.04    271.45           RANKING
   4      4      7       -5.88      0.03    271.45           RANKING
   4      5     15       -5.88      0.04    271.43           RANKING
   4      6     19       -5.87      0.03    271.42           RANKING
   4      7     17       -5.87      0.02    271.45           RANKING
   4      8     12       -5.87      0.03    271.43           RANKING
   5      1      4       -5.65      0.00    272.27           RANKING

Run time 0.410 sec
Idle time 0.000 sec
