AutoDock-GPU version: v1.6

**********************************************************
**    AutoDock-GPU AUTODOCKTOOLS-COMPATIBLE DLG FILE    **
**********************************************************


    DOCKING PARAMETERS
    ________________________


Ligand file:                               /home/a/REINVENT4/ReinventStudies/pleaseWork/justRnve/graph-dock-t2iv78/graph-DockGPU/node-autodockgpu/inputs/NQSBUKBJQGHAOK-ALGICJAMNA-N.pdbqt
Grid fld file:                             /home/a/REINVENT4/ReinventStudies/mols/Rad51/maps/rad51_receptor.maps.fld

Random seed:                               42
Number of runs:                            20
Number of energy evaluations:              1132076
Number of generations:                     42000
Size of population:                        150
Rate of crossover:                         80.000000%
Tournament selection probability limit:    60.000000%
Rate of mutation:                          2.000000%
Maximal allowed delta movement:            +/- 6.000000A
Maximal allowed delta angle:               +/- 90.000000

Rate of local search:                      100.000000%
Maximal number of local search iterations: 300
Rho lower bound:                           0.010000
Spread of local search delta movement:     2.000000A
Spread of local search delta angle:        74.999999
Limit of consecutive successes/failures:   4

Handle symmetry during clustering:         YES
RMSD tolerance:                            2.000000A

Program call in command line was:          /home/a/REINVENT4/ReinventStudies/adgpu-v1.6_linux_x64_cuda12_128wi --filelist batch.txt --heuristics 1 --nrun 20 --psize 150 --lsit 300 --seed 42 --heurmax 12000000 


    GRID PARAMETERS
    ________________________


Receptor name:                             rad51_receptor
Number of grid points (x, y, z):           53, 53, 53
Grid center (x, y, z):                     139.950000, 75.640000, 221.970000A
Grid size (x, y, z):                       19.500000, 19.500000, 19.500000A
Grid spacing:                              0.375000A


    LIGAND PARAMETERS
    ________________________


Ligand name:                               /home/a/REINVENT4/ReinventStudies/pleaseWork/justRnve/graph-dock-t2iv78/graph-DockGPU/node-autodockgpu/inputs/NQSBUKBJQGHAOK-ALGICJAMNA-N
Number of atoms:                           25
Number of rotatable bonds:                 6
Number of atom types:                      5


    DUMMY DATA (only for ADT-compatibility)
    ________________________


DPF> outlev 1
DPF> ga_run 20
DPF> fld /home/a/REINVENT4/ReinventStudies/mols/Rad51/maps/rad51_receptor.maps.fld
DPF> move /home/a/REINVENT4/ReinventStudies/pleaseWork/justRnve/graph-dock-t2iv78/graph-DockGPU/node-autodockgpu/inputs/NQSBUKBJQGHAOK-ALGICJAMNA-N.pdbqt


    COUNTER STATES
    ________________________


Number of energy evaluations performed:    535604
Number of generations used:                30


    INPUT LIGAND PDBQT FILE:
    ________________________


INPUT-LIGAND-PDBQT: REMARK SMILES C[C@@H](CCNC(=S)c1ccc2[nH]ccc2c1)Cc1ccccc1
INPUT-LIGAND-PDBQT: REMARK SMILES IDX 3 1 2 2 1 3 17 4 18 5 19 6 23 7 20 8 22 9 21 10 4 11 5 12
INPUT-LIGAND-PDBQT: REMARK SMILES IDX 6 13 7 15 8 16 9 17 16 18 10 19 15 20 11 21 14 22 12 23
INPUT-LIGAND-PDBQT: REMARK SMILES IDX 13 24
INPUT-LIGAND-PDBQT: REMARK H PARENT 5 14 12 25
INPUT-LIGAND-PDBQT: ROOT
INPUT-LIGAND-PDBQT: ATOM      1  C   UNL     1      -0.313   3.733   2.175  1.00  0.00     0.025 C 
INPUT-LIGAND-PDBQT: ENDROOT
INPUT-LIGAND-PDBQT: BRANCH   1   2
INPUT-LIGAND-PDBQT: ATOM      2  C   UNL     1       0.615   2.878   3.083  1.00  0.00    -0.008 C 
INPUT-LIGAND-PDBQT: ATOM      3  C   UNL     1       2.054   3.415   3.136  1.00  0.00     0.008 C 
INPUT-LIGAND-PDBQT: BRANCH   2   4
INPUT-LIGAND-PDBQT: ATOM      4  C   UNL     1       0.616   1.366   2.748  1.00  0.00     0.039 C 
INPUT-LIGAND-PDBQT: BRANCH   4   5
INPUT-LIGAND-PDBQT: ATOM      5  C   UNL     1      -0.732   0.709   2.953  1.00  0.00    -0.048 A 
INPUT-LIGAND-PDBQT: ATOM      6  C   UNL     1      -1.379   0.057   1.888  1.00  0.00     0.004 A 
INPUT-LIGAND-PDBQT: ATOM      7  C   UNL     1      -1.327   0.688   4.228  1.00  0.00     0.004 A 
INPUT-LIGAND-PDBQT: ATOM      8  C   UNL     1      -2.618  -0.561   2.086  1.00  0.00     0.000 A 
INPUT-LIGAND-PDBQT: ATOM      9  C   UNL     1      -2.566   0.068   4.420  1.00  0.00     0.000 A 
INPUT-LIGAND-PDBQT: ATOM     10  C   UNL     1      -3.214  -0.550   3.349  1.00  0.00     0.000 A 
INPUT-LIGAND-PDBQT: ENDBRANCH   4   5
INPUT-LIGAND-PDBQT: ENDBRANCH   2   4
INPUT-LIGAND-PDBQT: ENDBRANCH   1   2
INPUT-LIGAND-PDBQT: BRANCH   1  11
INPUT-LIGAND-PDBQT: ATOM     11  C   UNL     1       0.219   4.071   0.766  1.00  0.00     0.114 C 
INPUT-LIGAND-PDBQT: BRANCH  11  12
INPUT-LIGAND-PDBQT: ATOM     12  N   UNL     1       0.116   2.937  -0.154  1.00  0.00    -0.376 N 
INPUT-LIGAND-PDBQT: ATOM     13  C   UNL     1       0.691   2.943  -1.473  1.00  0.00     0.106 C 
INPUT-LIGAND-PDBQT: ATOM     14  H   UNL     1      -0.495   2.135   0.108  1.00  0.00     0.161 HD
INPUT-LIGAND-PDBQT: ATOM     15  S   UNL     1       1.375   4.312  -2.082  1.00  0.00    -0.060 S 
INPUT-LIGAND-PDBQT: BRANCH  13  16
INPUT-LIGAND-PDBQT: ATOM     16  C   UNL     1       0.668   1.707  -2.291  1.00  0.00     0.010 A 
INPUT-LIGAND-PDBQT: ATOM     17  C   UNL     1       0.481   1.766  -3.699  1.00  0.00     0.013 A 
INPUT-LIGAND-PDBQT: ATOM     18  C   UNL     1       0.828   0.448  -1.666  1.00  0.00     0.021 A 
INPUT-LIGAND-PDBQT: ATOM     19  C   UNL     1       0.447   0.591  -4.472  1.00  0.00     0.027 A 
INPUT-LIGAND-PDBQT: ATOM     20  C   UNL     1       0.787  -0.693  -2.461  1.00  0.00     0.000 A 
INPUT-LIGAND-PDBQT: ATOM     21  C   UNL     1       0.602  -0.626  -3.815  1.00  0.00     0.045 A 
INPUT-LIGAND-PDBQT: ATOM     22  C   UNL     1       0.911  -2.024  -2.127  1.00  0.00     0.028 A 
INPUT-LIGAND-PDBQT: ATOM     23  N   UNL     1       0.602  -1.854  -4.358  1.00  0.00    -0.361 N 
INPUT-LIGAND-PDBQT: ATOM     24  C   UNL     1       0.790  -2.712  -3.330  1.00  0.00     0.083 A 
INPUT-LIGAND-PDBQT: ATOM     25  H   UNL     1       0.482  -2.099  -5.366  1.00  0.00     0.166 HD
INPUT-LIGAND-PDBQT: ENDBRANCH  13  16
INPUT-LIGAND-PDBQT: ENDBRANCH  11  12
INPUT-LIGAND-PDBQT: ENDBRANCH   1  11
INPUT-LIGAND-PDBQT: TORSDOF 6


    FINAL DOCKED STATE:
    ________________________


Run:   1 / 20
Time taken for this run:   0.021s

DOCKED: MODEL        1
DOCKED: USER    Run = 1
DOCKED: USER
DOCKED: USER    Estimated Free Energy of Binding    =  -7.49 kcal/mol  [=(1)+(2)+(3)-(4)]
DOCKED: USER
DOCKED: USER    (1) Final Intermolecular Energy     =  -9.28 kcal/mol
DOCKED: USER        vdW + Hbond + desolv Energy     =  -9.25 kcal/mol
DOCKED: USER        Electrostatic Energy            =  -0.03 kcal/mol
DOCKED: USER        Moving Ligand-Fixed Receptor    =  -9.28 kcal/mol
DOCKED: USER        Moving Ligand-Moving Receptor   =  +0.00 kcal/mol
DOCKED: USER    (2) Final Total Internal Energy     =  -0.70 kcal/mol
DOCKED: USER    (3) Torsional Free Energy           =  +1.79 kcal/mol
DOCKED: USER    (4) Unbound System's Energy         =  -0.70 kcal/mol
DOCKED: USER
DOCKED: USER
DOCKED: REMARK SMILES C[C@@H](CCNC(=S)c1ccc2[nH]ccc2c1)Cc1ccccc1
DOCKED: REMARK SMILES IDX 3 1 2 2 1 3 17 4 18 5 19 6 23 7 20 8 22 9 21 10 4 11 5 12
DOCKED: REMARK SMILES IDX 6 13 7 15 8 16 9 17 16 18 10 19 15 20 11 21 14 22 12 23
DOCKED: REMARK SMILES IDX 13 24
DOCKED: REMARK H PARENT 5 14 12 25
DOCKED: USER                              x       y       z     vdW  Elec       q    Type
DOCKED: USER                           _______ _______ _______ _____ _____    ______ ____
DOCKED: ROOT
DOCKED: ATOM      1  C   UNL     1     139.162  75.399 222.323 -0.27 -0.01    +0.025 C  
DOCKED: ENDROOT
DOCKED: BRANCH   1   2
DOCKED: ATOM      2  C   UNL     1     139.546  76.587 221.398 -0.26 +0.00    -0.008 C  
DOCKED: ATOM      3  C   UNL     1     138.961  76.452 219.983 -0.07 -0.00    +0.008 C  
DOCKED: BRANCH   2   4
DOCKED: ATOM      4  C   UNL     1     141.067  76.874 221.327 -0.32 -0.02    +0.039 C  
DOCKED: BRANCH   4   5
DOCKED: ATOM      5  C   UNL     1     141.462  78.166 222.007 -0.37 +0.02    -0.048 A  
DOCKED: ATOM      6  C   UNL     1     141.771  79.309 221.248 -0.38 -0.00    +0.004 A  
DOCKED: ATOM      7  C   UNL     1     141.465  78.260 223.411 -0.54 -0.00    +0.004 A  
DOCKED: ATOM      8  C   UNL     1     142.122  80.505 221.882 -0.49 -0.00    +0.000 A  
DOCKED: ATOM      9  C   UNL     1     141.817  79.459 224.040 -0.57 -0.00    +0.000 A  
DOCKED: ATOM     10  C   UNL     1     142.152  80.578 223.276 -0.63 -0.00    +0.000 A  
DOCKED: ENDBRANCH   4   5
DOCKED: ENDBRANCH   2   4
DOCKED: ENDBRANCH   1   2
DOCKED: BRANCH   1  11
DOCKED: ATOM     11  C   UNL     1     139.219  73.989 221.697 -0.21 -0.02    +0.114 C  
DOCKED: BRANCH  11  12
DOCKED: ATOM     12  N   UNL     1     139.179  72.930 222.708 +0.06 +0.12    -0.376 N  
DOCKED: ATOM     13  C   UNL     1     140.228  71.957 222.865 -0.30 -0.01    +0.106 C  
DOCKED: ATOM     14  H   UNL     1     138.307  72.801 223.262 -0.44 -0.10    +0.161 HD 
DOCKED: ATOM     15  S   UNL     1     141.477  71.892 221.793 -0.21 +0.00    -0.060 S  
DOCKED: BRANCH  13  16
DOCKED: ATOM     16  C   UNL     1     140.184  71.006 224.000 -0.40 -0.00    +0.010 A  
DOCKED: ATOM     17  C   UNL     1     139.609  69.714 223.849 -0.27 -0.00    +0.013 A  
DOCKED: ATOM     18  C   UNL     1     140.714  71.385 225.256 -0.55 -0.00    +0.021 A  
DOCKED: ATOM     19  C   UNL     1     139.557  68.817 224.932 -0.38 -0.00    +0.027 A  
DOCKED: ATOM     20  C   UNL     1     140.644  70.473 226.304 -0.58 -0.00    +0.000 A  
DOCKED: ATOM     21  C   UNL     1     140.085  69.234 226.150 -0.48 -0.01    +0.045 A  
DOCKED: ATOM     22  C   UNL     1     141.072  70.573 227.610 -0.61 -0.00    +0.028 A  
DOCKED: ATOM     23  N   UNL     1     140.137  68.541 227.299 -0.27 +0.07    -0.361 N  
DOCKED: ATOM     24  C   UNL     1     140.739  69.356 228.194 -0.55 -0.02    +0.083 A  
DOCKED: ATOM     25  H   UNL     1     139.786  67.572 227.468 -0.16 -0.04    +0.166 HD 
DOCKED: ENDBRANCH  13  16
DOCKED: ENDBRANCH  11  12
DOCKED: ENDBRANCH   1  11
DOCKED: TORSDOF 6
DOCKED: TER
DOCKED: ENDMDL
________________________________________________________________________________


    FINAL DOCKED STATE:
    ________________________


Run:   2 / 20
Time taken for this run:   0.021s

DOCKED: MODEL        2
DOCKED: USER    Run = 2
DOCKED: USER
DOCKED: USER    Estimated Free Energy of Binding    =  -7.53 kcal/mol  [=(1)+(2)+(3)-(4)]
DOCKED: USER
DOCKED: USER    (1) Final Intermolecular Energy     =  -9.32 kcal/mol
DOCKED: USER        vdW + Hbond + desolv Energy     =  -9.32 kcal/mol
DOCKED: USER        Electrostatic Energy            =  -0.01 kcal/mol
DOCKED: USER        Moving Ligand-Fixed Receptor    =  -9.32 kcal/mol
DOCKED: USER        Moving Ligand-Moving Receptor   =  +0.00 kcal/mol
DOCKED: USER    (2) Final Total Internal Energy     =  -0.90 kcal/mol
DOCKED: USER    (3) Torsional Free Energy           =  +1.79 kcal/mol
DOCKED: USER    (4) Unbound System's Energy         =  -0.90 kcal/mol
DOCKED: USER
DOCKED: USER
DOCKED: REMARK SMILES C[C@@H](CCNC(=S)c1ccc2[nH]ccc2c1)Cc1ccccc1
DOCKED: REMARK SMILES IDX 3 1 2 2 1 3 17 4 18 5 19 6 23 7 20 8 22 9 21 10 4 11 5 12
DOCKED: REMARK SMILES IDX 6 13 7 15 8 16 9 17 16 18 10 19 15 20 11 21 14 22 12 23
DOCKED: REMARK SMILES IDX 13 24
DOCKED: REMARK H PARENT 5 14 12 25
DOCKED: USER                              x       y       z     vdW  Elec       q    Type
DOCKED: USER                           _______ _______ _______ _____ _____    ______ ____
DOCKED: ROOT
DOCKED: ATOM      1  C   UNL     1     138.517  72.093 221.997 -0.17 -0.01    +0.025 C  
DOCKED: ENDROOT
DOCKED: BRANCH   1   2
DOCKED: ATOM      2  C   UNL     1     139.688  71.910 223.003 -0.32 +0.00    -0.008 C  
DOCKED: ATOM      3  C   UNL     1     141.068  72.059 222.344 -0.22 -0.00    +0.008 C  
DOCKED: BRANCH   2   4
DOCKED: ATOM      4  C   UNL     1     139.621  70.599 223.825 -0.34 -0.01    +0.039 C  
DOCKED: BRANCH   4   5
DOCKED: ATOM      5  C   UNL     1     139.999  70.786 225.278 -0.47 +0.01    -0.048 A  
DOCKED: ATOM      6  C   UNL     1     139.609  69.842 226.246 -0.47 -0.00    +0.004 A  
DOCKED: ATOM      7  C   UNL     1     140.800  71.874 225.671 -0.50 -0.00    +0.004 A  
DOCKED: ATOM      8  C   UNL     1     139.973  70.012 227.585 -0.61 -0.00    +0.000 A  
DOCKED: ATOM      9  C   UNL     1     141.161  72.039 227.012 -0.78 -0.00    +0.000 A  
DOCKED: ATOM     10  C   UNL     1     140.743  71.113 227.969 -0.75 -0.00    +0.000 A  
DOCKED: ENDBRANCH   4   5
DOCKED: ENDBRANCH   2   4
DOCKED: ENDBRANCH   1   2
DOCKED: BRANCH   1  11
DOCKED: ATOM     11  C   UNL     1     137.818  73.469 221.993 -0.11 -0.03    +0.114 C  
DOCKED: BRANCH  11  12
DOCKED: ATOM     12  N   UNL     1     138.762  74.574 222.168 -0.07 +0.11    -0.376 N  
DOCKED: ATOM     13  C   UNL     1     139.552  75.108 221.090 -0.20 -0.02    +0.106 C  
DOCKED: ATOM     14  H   UNL     1     138.960  74.914 223.133 -0.53 -0.06    +0.161 HD 
DOCKED: ATOM     15  S   UNL     1     139.544  74.388 219.609 -0.08 +0.01    -0.060 S  
DOCKED: BRANCH  13  16
DOCKED: ATOM     16  C   UNL     1     140.379  76.318 221.315 -0.30 -0.00    +0.010 A  
DOCKED: ATOM     17  C   UNL     1     141.303  76.764 220.331 -0.26 -0.01    +0.013 A  
DOCKED: ATOM     18  C   UNL     1     140.255  77.039 222.525 -0.36 -0.01    +0.021 A  
DOCKED: ATOM     19  C   UNL     1     142.096  77.905 220.550 -0.25 -0.02    +0.027 A  
DOCKED: ATOM     20  C   UNL     1     141.057  78.161 222.710 -0.49 -0.00    +0.000 A  
DOCKED: ATOM     21  C   UNL     1     141.947  78.580 221.758 -0.33 -0.03    +0.045 A  
DOCKED: ATOM     22  C   UNL     1     141.146  79.036 223.771 -0.54 -0.01    +0.028 A  
DOCKED: ATOM     23  N   UNL     1     142.598  79.681 222.166 -0.22 +0.18    -0.361 N  
DOCKED: ATOM     24  C   UNL     1     142.113  79.963 223.396 -0.57 -0.02    +0.083 A  
DOCKED: ATOM     25  H   UNL     1     143.330  80.212 221.643 -0.39 -0.10    +0.166 HD 
DOCKED: ENDBRANCH  13  16
DOCKED: ENDBRANCH  11  12
DOCKED: ENDBRANCH   1  11
DOCKED: TORSDOF 6
DOCKED: TER
DOCKED: ENDMDL
________________________________________________________________________________


    FINAL DOCKED STATE:
    ________________________


Run:   3 / 20
Time taken for this run:   0.021s

DOCKED: MODEL        3
DOCKED: USER    Run = 3
DOCKED: USER
DOCKED: USER    Estimated Free Energy of Binding    =  -7.71 kcal/mol  [=(1)+(2)+(3)-(4)]
DOCKED: USER
DOCKED: USER    (1) Final Intermolecular Energy     =  -9.50 kcal/mol
DOCKED: USER        vdW + Hbond + desolv Energy     =  -9.46 kcal/mol
DOCKED: USER        Electrostatic Energy            =  -0.04 kcal/mol
DOCKED: USER        Moving Ligand-Fixed Receptor    =  -9.50 kcal/mol
DOCKED: USER        Moving Ligand-Moving Receptor   =  +0.00 kcal/mol
DOCKED: USER    (2) Final Total Internal Energy     =  -0.89 kcal/mol
DOCKED: USER    (3) Torsional Free Energy           =  +1.79 kcal/mol
DOCKED: USER    (4) Unbound System's Energy         =  -0.89 kcal/mol
DOCKED: USER
DOCKED: USER
DOCKED: REMARK SMILES C[C@@H](CCNC(=S)c1ccc2[nH]ccc2c1)Cc1ccccc1
DOCKED: REMARK SMILES IDX 3 1 2 2 1 3 17 4 18 5 19 6 23 7 20 8 22 9 21 10 4 11 5 12
DOCKED: REMARK SMILES IDX 6 13 7 15 8 16 9 17 16 18 10 19 15 20 11 21 14 22 12 23
DOCKED: REMARK SMILES IDX 13 24
DOCKED: REMARK H PARENT 5 14 12 25
DOCKED: USER                              x       y       z     vdW  Elec       q    Type
DOCKED: USER                           _______ _______ _______ _____ _____    ______ ____
DOCKED: ROOT
DOCKED: ATOM      1  C   UNL     1     139.929  71.360 222.098 -0.24 -0.00    +0.025 C  
DOCKED: ENDROOT
DOCKED: BRANCH   1   2
DOCKED: ATOM      2  C   UNL     1     139.578  71.056 223.581 -0.36 +0.00    -0.008 C  
DOCKED: ATOM      3  C   UNL     1     138.072  71.161 223.869 -0.25 -0.00    +0.008 C  
DOCKED: BRANCH   2   4
DOCKED: ATOM      4  C   UNL     1     140.382  71.889 224.609 -0.27 -0.01    +0.039 C  
DOCKED: BRANCH   4   5
DOCKED: ATOM      5  C   UNL     1     140.615  71.162 225.916 -0.57 +0.01    -0.048 A  
DOCKED: ATOM      6  C   UNL     1     140.857  71.879 227.101 -0.78 -0.00    +0.004 A  
DOCKED: ATOM      7  C   UNL     1     140.529  69.758 225.974 -0.51 -0.00    +0.004 A  
DOCKED: ATOM      8  C   UNL     1     141.057  71.202 228.308 -0.70 -0.00    +0.000 A  
DOCKED: ATOM      9  C   UNL     1     140.730  69.087 227.184 -0.61 -0.00    +0.000 A  
DOCKED: ATOM     10  C   UNL     1     141.000  69.808 228.349 -0.57 -0.00    +0.000 A  
DOCKED: ENDBRANCH   4   5
DOCKED: ENDBRANCH   2   4
DOCKED: ENDBRANCH   1   2
DOCKED: BRANCH   1  11
DOCKED: ATOM     11  C   UNL     1     139.002  72.346 221.356 -0.13 -0.02    +0.114 C  
DOCKED: BRANCH  11  12
DOCKED: ATOM     12  N   UNL     1     139.037  73.688 221.939 -0.11 +0.09    -0.376 N  
DOCKED: ATOM     13  C   UNL     1     140.028  74.670 221.588 -0.27 -0.02    +0.106 C  
DOCKED: ATOM     14  H   UNL     1     138.391  73.908 222.726 -0.55 -0.08    +0.161 HD 
DOCKED: ATOM     15  S   UNL     1     141.289  74.273 220.605 -0.29 +0.01    -0.060 S  
DOCKED: BRANCH  13  16
DOCKED: ATOM     16  C   UNL     1     139.914  76.051 222.114 -0.36 -0.00    +0.010 A  
DOCKED: ATOM     17  C   UNL     1     138.642  76.646 222.334 -0.31 -0.00    +0.013 A  
DOCKED: ATOM     18  C   UNL     1     141.084  76.795 222.396 -0.35 -0.01    +0.021 A  
DOCKED: ATOM     19  C   UNL     1     138.535  77.962 222.821 -0.26 -0.00    +0.027 A  
DOCKED: ATOM     20  C   UNL     1     140.941  78.093 222.875 -0.47 -0.00    +0.000 A  
DOCKED: ATOM     21  C   UNL     1     139.712  78.658 223.079 -0.35 -0.01    +0.045 A  
DOCKED: ATOM     22  C   UNL     1     141.889  79.029 223.227 -0.57 -0.01    +0.028 A  
DOCKED: ATOM     23  N   UNL     1     139.835  79.912 223.545 -0.18 +0.06    -0.361 N  
DOCKED: ATOM     24  C   UNL     1     141.164  80.143 223.636 -0.47 -0.02    +0.083 A  
DOCKED: ATOM     25  H   UNL     1     139.065  80.574 223.787 +0.08 -0.02    +0.166 HD 
DOCKED: ENDBRANCH  13  16
DOCKED: ENDBRANCH  11  12
DOCKED: ENDBRANCH   1  11
DOCKED: TORSDOF 6
DOCKED: TER
DOCKED: ENDMDL
________________________________________________________________________________


    FINAL DOCKED STATE:
    ________________________


Run:   4 / 20
Time taken for this run:   0.021s

DOCKED: MODEL        4
DOCKED: USER    Run = 4
DOCKED: USER
DOCKED: USER    Estimated Free Energy of Binding    =  -7.97 kcal/mol  [=(1)+(2)+(3)-(4)]
DOCKED: USER
DOCKED: USER    (1) Final Intermolecular Energy     =  -9.76 kcal/mol
DOCKED: USER        vdW + Hbond + desolv Energy     =  -9.74 kcal/mol
DOCKED: USER        Electrostatic Energy            =  -0.02 kcal/mol
DOCKED: USER        Moving Ligand-Fixed Receptor    =  -9.76 kcal/mol
DOCKED: USER        Moving Ligand-Moving Receptor   =  +0.00 kcal/mol
DOCKED: USER    (2) Final Total Internal Energy     =  -0.65 kcal/mol
DOCKED: USER    (3) Torsional Free Energy           =  +1.79 kcal/mol
DOCKED: USER    (4) Unbound System's Energy         =  -0.65 kcal/mol
DOCKED: USER
DOCKED: USER
DOCKED: REMARK SMILES C[C@@H](CCNC(=S)c1ccc2[nH]ccc2c1)Cc1ccccc1
DOCKED: REMARK SMILES IDX 3 1 2 2 1 3 17 4 18 5 19 6 23 7 20 8 22 9 21 10 4 11 5 12
DOCKED: REMARK SMILES IDX 6 13 7 15 8 16 9 17 16 18 10 19 15 20 11 21 14 22 12 23
DOCKED: REMARK SMILES IDX 13 24
DOCKED: REMARK H PARENT 5 14 12 25
DOCKED: USER                              x       y       z     vdW  Elec       q    Type
DOCKED: USER                           _______ _______ _______ _____ _____    ______ ____
DOCKED: ROOT
DOCKED: ATOM      1  C   UNL     1     139.146  74.694 221.824 -0.26 -0.01    +0.025 C  
DOCKED: ENDROOT
DOCKED: BRANCH   1   2
DOCKED: ATOM      2  C   UNL     1     139.654  76.065 222.351 -0.34 +0.00    -0.008 C  
DOCKED: ATOM      3  C   UNL     1     138.557  77.141 222.363 -0.30 -0.00    +0.008 C  
DOCKED: BRANCH   2   4
DOCKED: ATOM      4  C   UNL     1     140.920  76.594 221.633 -0.34 -0.01    +0.039 C  
DOCKED: BRANCH   4   5
DOCKED: ATOM      5  C   UNL     1     141.338  77.972 222.099 -0.37 +0.02    -0.048 A  
DOCKED: ATOM      6  C   UNL     1     141.557  79.005 221.169 -0.36 -0.00    +0.004 A  
DOCKED: ATOM      7  C   UNL     1     141.452  78.255 223.472 -0.54 -0.00    +0.004 A  
DOCKED: ATOM      8  C   UNL     1     141.929  80.280 221.606 -0.44 -0.00    +0.000 A  
DOCKED: ATOM      9  C   UNL     1     141.824  79.533 223.903 -0.61 -0.00    +0.000 A  
DOCKED: ATOM     10  C   UNL     1     142.069  80.543 222.970 -0.60 -0.00    +0.000 A  
DOCKED: ENDBRANCH   4   5
DOCKED: ENDBRANCH   2   4
DOCKED: ENDBRANCH   1   2
DOCKED: BRANCH   1  11
DOCKED: ATOM     11  C   UNL     1     140.164  73.533 221.822 -0.24 -0.01    +0.114 C  
DOCKED: BRANCH  11  12
DOCKED: ATOM     12  N   UNL     1     140.020  72.665 222.992 -0.10 +0.05    -0.376 N  
DOCKED: ATOM     13  C   UNL     1     139.868  71.238 222.895 -0.27 -0.02    +0.106 C  
DOCKED: ATOM     14  H   UNL     1     139.907  73.105 223.929 -0.27 -0.04    +0.161 HD 
DOCKED: ATOM     15  S   UNL     1     139.691  70.513 221.426 -0.18 +0.01    -0.060 S  
DOCKED: BRANCH  13  16
DOCKED: ATOM     16  C   UNL     1     139.871  70.412 224.126 -0.37 -0.00    +0.010 A  
DOCKED: ATOM     17  C   UNL     1     139.207  69.156 224.165 -0.32 -0.00    +0.013 A  
DOCKED: ATOM     18  C   UNL     1     140.538  70.879 225.283 -0.53 -0.00    +0.021 A  
DOCKED: ATOM     19  C   UNL     1     139.201  68.380 225.338 -0.45 -0.00    +0.027 A  
DOCKED: ATOM     20  C   UNL     1     140.509  70.087 226.426 -0.55 -0.00    +0.000 A  
DOCKED: ATOM     21  C   UNL     1     139.863  68.881 226.455 -0.52 -0.01    +0.045 A  
DOCKED: ATOM     22  C   UNL     1     141.062  70.289 227.672 -0.59 -0.01    +0.028 A  
DOCKED: ATOM     23  N   UNL     1     139.979  68.306 227.663 -0.28 +0.07    -0.361 N  
DOCKED: ATOM     24  C   UNL     1     140.710  69.163 228.410 -0.53 -0.02    +0.083 A  
DOCKED: ATOM     25  H   UNL     1     139.587  67.387 227.965 -0.40 -0.05    +0.166 HD 
DOCKED: ENDBRANCH  13  16
DOCKED: ENDBRANCH  11  12
DOCKED: ENDBRANCH   1  11
DOCKED: TORSDOF 6
DOCKED: TER
DOCKED: ENDMDL
________________________________________________________________________________


    FINAL DOCKED STATE:
    ________________________


Run:   5 / 20
Time taken for this run:   0.021s

DOCKED: MODEL        5
DOCKED: USER    Run = 5
DOCKED: USER
DOCKED: USER    Estimated Free Energy of Binding    =  -7.85 kcal/mol  [=(1)+(2)+(3)-(4)]
DOCKED: USER
DOCKED: USER    (1) Final Intermolecular Energy     =  -9.64 kcal/mol
DOCKED: USER        vdW + Hbond + desolv Energy     =  -9.61 kcal/mol
DOCKED: USER        Electrostatic Energy            =  -0.03 kcal/mol
DOCKED: USER        Moving Ligand-Fixed Receptor    =  -9.64 kcal/mol
DOCKED: USER        Moving Ligand-Moving Receptor   =  +0.00 kcal/mol
DOCKED: USER    (2) Final Total Internal Energy     =  -0.81 kcal/mol
DOCKED: USER    (3) Torsional Free Energy           =  +1.79 kcal/mol
DOCKED: USER    (4) Unbound System's Energy         =  -0.81 kcal/mol
DOCKED: USER
DOCKED: USER
DOCKED: REMARK SMILES C[C@@H](CCNC(=S)c1ccc2[nH]ccc2c1)Cc1ccccc1
DOCKED: REMARK SMILES IDX 3 1 2 2 1 3 17 4 18 5 19 6 23 7 20 8 22 9 21 10 4 11 5 12
DOCKED: REMARK SMILES IDX 6 13 7 15 8 16 9 17 16 18 10 19 15 20 11 21 14 22 12 23
DOCKED: REMARK SMILES IDX 13 24
DOCKED: REMARK H PARENT 5 14 12 25
DOCKED: USER                              x       y       z     vdW  Elec       q    Type
DOCKED: USER                           _______ _______ _______ _____ _____    ______ ____
DOCKED: ROOT
DOCKED: ATOM      1  C   UNL     1     138.703  72.308 222.715 -0.09 -0.01    +0.025 C  
DOCKED: ENDROOT
DOCKED: BRANCH   1   2
DOCKED: ATOM      2  C   UNL     1     140.075  71.780 223.221 -0.36 +0.00    -0.008 C  
DOCKED: ATOM      3  C   UNL     1     141.085  71.562 222.084 -0.16 -0.00    +0.008 C  
DOCKED: BRANCH   2   4
DOCKED: ATOM      4  C   UNL     1     139.982  70.514 224.108 -0.35 -0.01    +0.039 C  
DOCKED: BRANCH   4   5
DOCKED: ATOM      5  C   UNL     1     140.294  70.781 225.565 -0.51 +0.01    -0.048 A  
DOCKED: ATOM      6  C   UNL     1     139.873  69.885 226.563 -0.52 -0.00    +0.004 A  
DOCKED: ATOM      7  C   UNL     1     141.066  71.899 225.933 -0.57 -0.00    +0.004 A  
DOCKED: ATOM      8  C   UNL     1     140.177  70.130 227.907 -0.64 -0.00    +0.000 A  
DOCKED: ATOM      9  C   UNL     1     141.367  72.139 227.278 -0.81 -0.00    +0.000 A  
DOCKED: ATOM     10  C   UNL     1     140.917  71.259 228.264 -0.72 -0.00    +0.000 A  
DOCKED: ENDBRANCH   4   5
DOCKED: ENDBRANCH   2   4
DOCKED: ENDBRANCH   1   2
DOCKED: BRANCH   1  11
DOCKED: ATOM     11  C   UNL     1     138.743  73.424 221.650 -0.17 -0.03    +0.114 C  
DOCKED: BRANCH  11  12
DOCKED: ATOM     12  N   UNL     1     138.961  74.747 222.238 -0.09 +0.10    -0.376 N  
DOCKED: ATOM     13  C   UNL     1     140.023  75.624 221.823 -0.29 -0.02    +0.106 C  
DOCKED: ATOM     14  H   UNL     1     138.398  75.022 223.070 -0.49 -0.08    +0.161 HD 
DOCKED: ATOM     15  S   UNL     1     141.163  75.109 220.751 -0.33 +0.02    -0.060 S  
DOCKED: BRANCH  13  16
DOCKED: ATOM     16  C   UNL     1     140.093  77.002 222.365 -0.39 -0.00    +0.010 A  
DOCKED: ATOM     17  C   UNL     1     138.910  77.717 222.696 -0.30 -0.00    +0.013 A  
DOCKED: ATOM     18  C   UNL     1     141.352  77.621 222.551 -0.30 -0.01    +0.021 A  
DOCKED: ATOM     19  C   UNL     1     138.978  79.030 223.198 -0.33 -0.00    +0.027 A  
DOCKED: ATOM     20  C   UNL     1     141.381  78.920 223.047 -0.55 -0.00    +0.000 A  
DOCKED: ATOM     21  C   UNL     1     140.236  79.602 223.359 -0.43 -0.01    +0.045 A  
DOCKED: ATOM     22  C   UNL     1     142.445  79.752 223.322 -0.62 -0.01    +0.028 A  
DOCKED: ATOM     23  N   UNL     1     140.523  80.830 223.819 -0.17 +0.04    -0.361 N  
DOCKED: ATOM     24  C   UNL     1     141.872  80.927 223.798 -0.54 -0.01    +0.083 A  
DOCKED: ATOM     25  H   UNL     1     139.847  81.562 224.130 +0.09 -0.01    +0.166 HD 
DOCKED: ENDBRANCH  13  16
DOCKED: ENDBRANCH  11  12
DOCKED: ENDBRANCH   1  11
DOCKED: TORSDOF 6
DOCKED: TER
DOCKED: ENDMDL
________________________________________________________________________________


    FINAL DOCKED STATE:
    ________________________


Run:   6 / 20
Time taken for this run:   0.021s

DOCKED: MODEL        6
DOCKED: USER    Run = 6
DOCKED: USER
DOCKED: USER    Estimated Free Energy of Binding    =  -7.82 kcal/mol  [=(1)+(2)+(3)-(4)]
DOCKED: USER
DOCKED: USER    (1) Final Intermolecular Energy     =  -9.61 kcal/mol
DOCKED: USER        vdW + Hbond + desolv Energy     =  -9.58 kcal/mol
DOCKED: USER        Electrostatic Energy            =  -0.03 kcal/mol
DOCKED: USER        Moving Ligand-Fixed Receptor    =  -9.61 kcal/mol
DOCKED: USER        Moving Ligand-Moving Receptor   =  +0.00 kcal/mol
DOCKED: USER    (2) Final Total Internal Energy     =  -0.62 kcal/mol
DOCKED: USER    (3) Torsional Free Energy           =  +1.79 kcal/mol
DOCKED: USER    (4) Unbound System's Energy         =  -0.62 kcal/mol
DOCKED: USER
DOCKED: USER
DOCKED: REMARK SMILES C[C@@H](CCNC(=S)c1ccc2[nH]ccc2c1)Cc1ccccc1
DOCKED: REMARK SMILES IDX 3 1 2 2 1 3 17 4 18 5 19 6 23 7 20 8 22 9 21 10 4 11 5 12
DOCKED: REMARK SMILES IDX 6 13 7 15 8 16 9 17 16 18 10 19 15 20 11 21 14 22 12 23
DOCKED: REMARK SMILES IDX 13 24
DOCKED: REMARK H PARENT 5 14 12 25
DOCKED: USER                              x       y       z     vdW  Elec       q    Type
DOCKED: USER                           _______ _______ _______ _____ _____    ______ ____
DOCKED: ROOT
DOCKED: ATOM      1  C   UNL     1     139.200  74.745 221.973 -0.27 -0.01    +0.025 C  
DOCKED: ENDROOT
DOCKED: BRANCH   1   2
DOCKED: ATOM      2  C   UNL     1     139.868  76.067 221.503 -0.31 +0.00    -0.008 C  
DOCKED: ATOM      3  C   UNL     1     141.392  75.943 221.352 -0.26 -0.00    +0.008 C  
DOCKED: BRANCH   2   4
DOCKED: ATOM      4  C   UNL     1     139.510  77.303 222.365 -0.32 -0.01    +0.039 C  
DOCKED: BRANCH   4   5
DOCKED: ATOM      5  C   UNL     1     140.596  78.358 222.374 -0.37 +0.01    -0.048 A  
DOCKED: ATOM      6  C   UNL     1     141.447  78.499 223.484 -0.57 -0.00    +0.004 A  
DOCKED: ATOM      7  C   UNL     1     140.807  79.171 221.245 -0.28 -0.00    +0.004 A  
DOCKED: ATOM      8  C   UNL     1     142.458  79.466 223.482 -0.60 -0.00    +0.000 A  
DOCKED: ATOM      9  C   UNL     1     141.819  80.136 221.248 -0.41 -0.00    +0.000 A  
DOCKED: ATOM     10  C   UNL     1     142.639  80.288 222.367 -0.57 -0.00    +0.000 A  
DOCKED: ENDBRANCH   4   5
DOCKED: ENDBRANCH   2   4
DOCKED: ENDBRANCH   1   2
DOCKED: BRANCH   1  11
DOCKED: ATOM     11  C   UNL     1     140.035  73.456 221.821 -0.24 -0.01    +0.114 C  
DOCKED: BRANCH  11  12
DOCKED: ATOM     12  N   UNL     1     139.936  72.587 222.995 -0.12 +0.06    -0.376 N  
DOCKED: ATOM     13  C   UNL     1     139.736  71.165 222.903 -0.26 -0.02    +0.106 C  
DOCKED: ATOM     14  H   UNL     1     139.892  73.025 223.939 -0.28 -0.04    +0.161 HD 
DOCKED: ATOM     15  S   UNL     1     139.450  70.452 221.445 -0.17 +0.01    -0.060 S  
DOCKED: BRANCH  13  16
DOCKED: ATOM     16  C   UNL     1     139.788  70.333 224.129 -0.36 -0.00    +0.010 A  
DOCKED: ATOM     17  C   UNL     1     139.198  69.040 224.161 -0.32 -0.00    +0.013 A  
DOCKED: ATOM     18  C   UNL     1     140.427  70.832 225.288 -0.52 -0.00    +0.021 A  
DOCKED: ATOM     19  C   UNL     1     139.238  68.258 225.329 -0.46 -0.00    +0.027 A  
DOCKED: ATOM     20  C   UNL     1     140.445  70.032 226.427 -0.55 -0.00    +0.000 A  
DOCKED: ATOM     21  C   UNL     1     139.871  68.790 226.449 -0.53 -0.01    +0.045 A  
DOCKED: ATOM     22  C   UNL     1     140.986  70.258 227.674 -0.59 -0.01    +0.028 A  
DOCKED: ATOM     23  N   UNL     1     140.021  68.216 227.653 -0.29 +0.08    -0.361 N  
DOCKED: ATOM     24  C   UNL     1     140.701  69.110 228.406 -0.54 -0.02    +0.083 A  
DOCKED: ATOM     25  H   UNL     1     139.683  67.274 227.950 -0.40 -0.06    +0.166 HD 
DOCKED: ENDBRANCH  13  16
DOCKED: ENDBRANCH  11  12
DOCKED: ENDBRANCH   1  11
DOCKED: TORSDOF 6
DOCKED: TER
DOCKED: ENDMDL
________________________________________________________________________________


    FINAL DOCKED STATE:
    ________________________


Run:   7 / 20
Time taken for this run:   0.021s

DOCKED: MODEL        7
DOCKED: USER    Run = 7
DOCKED: USER
DOCKED: USER    Estimated Free Energy of Binding    =  -7.86 kcal/mol  [=(1)+(2)+(3)-(4)]
DOCKED: USER
DOCKED: USER    (1) Final Intermolecular Energy     =  -9.65 kcal/mol
DOCKED: USER        vdW + Hbond + desolv Energy     =  -9.59 kcal/mol
DOCKED: USER        Electrostatic Energy            =  -0.07 kcal/mol
DOCKED: USER        Moving Ligand-Fixed Receptor    =  -9.65 kcal/mol
DOCKED: USER        Moving Ligand-Moving Receptor   =  +0.00 kcal/mol
DOCKED: USER    (2) Final Total Internal Energy     =  -0.69 kcal/mol
DOCKED: USER    (3) Torsional Free Energy           =  +1.79 kcal/mol
DOCKED: USER    (4) Unbound System's Energy         =  -0.69 kcal/mol
DOCKED: USER
DOCKED: USER
DOCKED: REMARK SMILES C[C@@H](CCNC(=S)c1ccc2[nH]ccc2c1)Cc1ccccc1
DOCKED: REMARK SMILES IDX 3 1 2 2 1 3 17 4 18 5 19 6 23 7 20 8 22 9 21 10 4 11 5 12
DOCKED: REMARK SMILES IDX 6 13 7 15 8 16 9 17 16 18 10 19 15 20 11 21 14 22 12 23
DOCKED: REMARK SMILES IDX 13 24
DOCKED: REMARK H PARENT 5 14 12 25
DOCKED: USER                              x       y       z     vdW  Elec       q    Type
DOCKED: USER                           _______ _______ _______ _____ _____    ______ ____
DOCKED: ROOT
DOCKED: ATOM      1  C   UNL     1     139.348  75.747 221.376 -0.25 -0.01    +0.025 C  
DOCKED: ENDROOT
DOCKED: BRANCH   1   2
DOCKED: ATOM      2  C   UNL     1     140.350  76.936 221.367 -0.30 +0.00    -0.008 C  
DOCKED: ATOM      3  C   UNL     1     141.382  76.835 220.233 -0.27 -0.00    +0.008 C  
DOCKED: BRANCH   2   4
DOCKED: ATOM      4  C   UNL     1     141.059  77.181 222.721 -0.34 -0.01    +0.039 C  
DOCKED: BRANCH   4   5
DOCKED: ATOM      5  C   UNL     1     141.328  78.645 222.998 -0.51 +0.02    -0.048 A  
DOCKED: ATOM      6  C   UNL     1     142.617  79.180 222.827 -0.51 -0.00    +0.004 A  
DOCKED: ATOM      7  C   UNL     1     140.276  79.504 223.369 -0.46 -0.00    +0.004 A  
DOCKED: ATOM      8  C   UNL     1     142.857  80.536 223.070 -0.65 -0.00    +0.000 A  
DOCKED: ATOM      9  C   UNL     1     140.522  80.859 223.610 -0.44 -0.00    +0.000 A  
DOCKED: ATOM     10  C   UNL     1     141.812  81.374 223.467 -0.58 -0.00    +0.000 A  
DOCKED: ENDBRANCH   4   5
DOCKED: ENDBRANCH   2   4
DOCKED: ENDBRANCH   1   2
DOCKED: BRANCH   1  11
DOCKED: ATOM     11  C   UNL     1     139.946  74.338 221.176 -0.22 -0.02    +0.114 C  
DOCKED: BRANCH  11  12
DOCKED: ATOM     12  N   UNL     1     139.708  73.465 222.327 -0.12 +0.06    -0.376 N  
DOCKED: ATOM     13  C   UNL     1     140.296  72.158 222.454 -0.28 -0.01    +0.106 C  
DOCKED: ATOM     14  H   UNL     1     138.994  73.749 223.030 -0.54 -0.08    +0.161 HD 
DOCKED: ATOM     15  S   UNL     1     141.161  71.505 221.213 -0.22 +0.01    -0.060 S  
DOCKED: BRANCH  13  16
DOCKED: ATOM     16  C   UNL     1     140.122  71.392 223.711 -0.40 -0.00    +0.010 A  
DOCKED: ATOM     17  C   UNL     1     139.376  70.183 223.733 -0.30 -0.00    +0.013 A  
DOCKED: ATOM     18  C   UNL     1     140.701  71.871 224.910 -0.38 -0.00    +0.021 A  
DOCKED: ATOM     19  C   UNL     1     139.202  69.464 224.930 -0.37 -0.00    +0.027 A  
DOCKED: ATOM     20  C   UNL     1     140.507  71.135 226.075 -0.61 -0.00    +0.000 A  
DOCKED: ATOM     21  C   UNL     1     139.782  69.975 226.087 -0.45 -0.01    +0.045 A  
DOCKED: ATOM     22  C   UNL     1     140.945  71.361 227.362 -0.73 -0.00    +0.028 A  
DOCKED: ATOM     23  N   UNL     1     139.740  69.451 227.323 -0.22 +0.06    -0.361 N  
DOCKED: ATOM     24  C   UNL     1     140.449  70.295 228.106 -0.55 -0.01    +0.083 A  
DOCKED: ATOM     25  H   UNL     1     139.259  68.573 227.620 +0.11 -0.02    +0.166 HD 
DOCKED: ENDBRANCH  13  16
DOCKED: ENDBRANCH  11  12
DOCKED: ENDBRANCH   1  11
DOCKED: TORSDOF 6
DOCKED: TER
DOCKED: ENDMDL
________________________________________________________________________________


    FINAL DOCKED STATE:
    ________________________


Run:   8 / 20
Time taken for this run:   0.021s

DOCKED: MODEL        8
DOCKED: USER    Run = 8
DOCKED: USER
DOCKED: USER    Estimated Free Energy of Binding    =  -7.81 kcal/mol  [=(1)+(2)+(3)-(4)]
DOCKED: USER
DOCKED: USER    (1) Final Intermolecular Energy     =  -9.60 kcal/mol
DOCKED: USER        vdW + Hbond + desolv Energy     =  -9.55 kcal/mol
DOCKED: USER        Electrostatic Energy            =  -0.05 kcal/mol
DOCKED: USER        Moving Ligand-Fixed Receptor    =  -9.60 kcal/mol
DOCKED: USER        Moving Ligand-Moving Receptor   =  +0.00 kcal/mol
DOCKED: USER    (2) Final Total Internal Energy     =  -0.73 kcal/mol
DOCKED: USER    (3) Torsional Free Energy           =  +1.79 kcal/mol
DOCKED: USER    (4) Unbound System's Energy         =  -0.73 kcal/mol
DOCKED: USER
DOCKED: USER
DOCKED: REMARK SMILES C[C@@H](CCNC(=S)c1ccc2[nH]ccc2c1)Cc1ccccc1
DOCKED: REMARK SMILES IDX 3 1 2 2 1 3 17 4 18 5 19 6 23 7 20 8 22 9 21 10 4 11 5 12
DOCKED: REMARK SMILES IDX 6 13 7 15 8 16 9 17 16 18 10 19 15 20 11 21 14 22 12 23
DOCKED: REMARK SMILES IDX 13 24
DOCKED: REMARK H PARENT 5 14 12 25
DOCKED: USER                              x       y       z     vdW  Elec       q    Type
DOCKED: USER                           _______ _______ _______ _____ _____    ______ ____
DOCKED: ROOT
DOCKED: ATOM      1  C   UNL     1     138.785  75.613 221.470 -0.23 -0.01    +0.025 C  
DOCKED: ENDROOT
DOCKED: BRANCH   1   2
DOCKED: ATOM      2  C   UNL     1     139.425  76.719 222.356 -0.34 +0.00    -0.008 C  
DOCKED: ATOM      3  C   UNL     1     138.730  78.080 222.201 -0.26 -0.00    +0.008 C  
DOCKED: BRANCH   2   4
DOCKED: ATOM      4  C   UNL     1     140.956  76.872 222.176 -0.35 -0.01    +0.039 C  
DOCKED: BRANCH   4   5
DOCKED: ATOM      5  C   UNL     1     141.449  78.278 222.439 -0.43 +0.02    -0.048 A  
DOCKED: ATOM      6  C   UNL     1     141.738  78.702 223.748 -0.61 -0.00    +0.004 A  
DOCKED: ATOM      7  C   UNL     1     141.685  79.161 221.368 -0.39 -0.00    +0.004 A  
DOCKED: ATOM      8  C   UNL     1     142.207  79.998 223.984 -0.59 -0.00    +0.000 A  
DOCKED: ATOM      9  C   UNL     1     142.155  80.456 221.610 -0.45 -0.00    +0.000 A  
DOCKED: ATOM     10  C   UNL     1     142.409  80.877 222.917 -0.60 -0.00    +0.000 A  
DOCKED: ENDBRANCH   4   5
DOCKED: ENDBRANCH   2   4
DOCKED: ENDBRANCH   1   2
DOCKED: BRANCH   1  11
DOCKED: ATOM     11  C   UNL     1     139.617  74.329 221.258 -0.21 -0.02    +0.114 C  
DOCKED: BRANCH  11  12
DOCKED: ATOM     12  N   UNL     1     139.453  73.374 222.356 -0.11 +0.08    -0.376 N  
DOCKED: ATOM     13  C   UNL     1     140.335  72.255 222.559 -0.29 -0.01    +0.106 C  
DOCKED: ATOM     14  H   UNL     1     138.599  73.436 222.949 -0.52 -0.09    +0.161 HD 
DOCKED: ATOM     15  S   UNL     1     141.504  71.900 221.454 -0.26 +0.01    -0.060 S  
DOCKED: BRANCH  13  16
DOCKED: ATOM     16  C   UNL     1     140.191  71.416 223.772 -0.41 -0.00    +0.010 A  
DOCKED: ATOM     17  C   UNL     1     139.536  70.156 223.715 -0.30 -0.00    +0.013 A  
DOCKED: ATOM     18  C   UNL     1     140.706  71.873 225.008 -0.38 -0.00    +0.021 A  
DOCKED: ATOM     19  C   UNL     1     139.389  69.366 224.870 -0.37 -0.00    +0.027 A  
DOCKED: ATOM     20  C   UNL     1     140.541  71.067 226.129 -0.62 -0.00    +0.000 A  
DOCKED: ATOM     21  C   UNL     1     139.905  69.858 226.065 -0.46 -0.01    +0.045 A  
DOCKED: ATOM     22  C   UNL     1     140.933  71.258 227.436 -0.72 -0.00    +0.028 A  
DOCKED: ATOM     23  N   UNL     1     139.873  69.270 227.272 -0.22 +0.06    -0.361 N  
DOCKED: ATOM     24  C   UNL     1     140.501  70.122 228.114 -0.54 -0.01    +0.083 A  
DOCKED: ATOM     25  H   UNL     1     139.453  68.345 227.514 +0.10 -0.03    +0.166 HD 
DOCKED: ENDBRANCH  13  16
DOCKED: ENDBRANCH  11  12
DOCKED: ENDBRANCH   1  11
DOCKED: TORSDOF 6
DOCKED: TER
DOCKED: ENDMDL
________________________________________________________________________________


    FINAL DOCKED STATE:
    ________________________


Run:   9 / 20
Time taken for this run:   0.021s

DOCKED: MODEL        9
DOCKED: USER    Run = 9
DOCKED: USER
DOCKED: USER    Estimated Free Energy of Binding    =  -8.00 kcal/mol  [=(1)+(2)+(3)-(4)]
DOCKED: USER
DOCKED: USER    (1) Final Intermolecular Energy     =  -9.79 kcal/mol
DOCKED: USER        vdW + Hbond + desolv Energy     =  -9.74 kcal/mol
DOCKED: USER        Electrostatic Energy            =  -0.06 kcal/mol
DOCKED: USER        Moving Ligand-Fixed Receptor    =  -9.79 kcal/mol
DOCKED: USER        Moving Ligand-Moving Receptor   =  +0.00 kcal/mol
DOCKED: USER    (2) Final Total Internal Energy     =  -0.75 kcal/mol
DOCKED: USER    (3) Torsional Free Energy           =  +1.79 kcal/mol
DOCKED: USER    (4) Unbound System's Energy         =  -0.75 kcal/mol
DOCKED: USER
DOCKED: USER
DOCKED: REMARK SMILES C[C@@H](CCNC(=S)c1ccc2[nH]ccc2c1)Cc1ccccc1
DOCKED: REMARK SMILES IDX 3 1 2 2 1 3 17 4 18 5 19 6 23 7 20 8 22 9 21 10 4 11 5 12
DOCKED: REMARK SMILES IDX 6 13 7 15 8 16 9 17 16 18 10 19 15 20 11 21 14 22 12 23
DOCKED: REMARK SMILES IDX 13 24
DOCKED: REMARK H PARENT 5 14 12 25
DOCKED: USER                              x       y       z     vdW  Elec       q    Type
DOCKED: USER                           _______ _______ _______ _____ _____    ______ ____
DOCKED: ROOT
DOCKED: ATOM      1  C   UNL     1     140.438  72.106 222.335 -0.31 -0.00    +0.025 C  
DOCKED: ENDROOT
DOCKED: BRANCH   1   2
DOCKED: ATOM      2  C   UNL     1     140.050  71.229 223.558 -0.38 +0.00    -0.008 C  
DOCKED: ATOM      3  C   UNL     1     138.529  71.107 223.744 -0.29 -0.00    +0.008 C  
DOCKED: BRANCH   2   4
DOCKED: ATOM      4  C   UNL     1     140.722  71.656 224.887 -0.38 -0.01    +0.039 C  
DOCKED: BRANCH   4   5
DOCKED: ATOM      5  C   UNL     1     140.560  70.634 225.992 -0.54 +0.01    -0.048 A  
DOCKED: ATOM      6  C   UNL     1     140.623  69.258 225.708 -0.48 -0.00    +0.004 A  
DOCKED: ATOM      7  C   UNL     1     140.408  71.049 227.328 -0.67 -0.00    +0.004 A  
DOCKED: ATOM      8  C   UNL     1     140.488  68.318 226.735 -0.65 -0.00    +0.000 A  
DOCKED: ATOM      9  C   UNL     1     140.273  70.104 228.350 -0.58 -0.00    +0.000 A  
DOCKED: ATOM     10  C   UNL     1     140.306  68.740 228.054 -0.66 -0.00    +0.000 A  
DOCKED: ENDBRANCH   4   5
DOCKED: ENDBRANCH   2   4
DOCKED: ENDBRANCH   1   2
DOCKED: BRANCH   1  11
DOCKED: ATOM     11  C   UNL     1     139.328  73.005 221.749 -0.20 -0.02    +0.114 C  
DOCKED: BRANCH  11  12
DOCKED: ATOM     12  N   UNL     1     139.365  74.362 222.295 -0.08 +0.07    -0.376 N  
DOCKED: ATOM     13  C   UNL     1     140.332  75.346 221.885 -0.26 -0.02    +0.106 C  
DOCKED: ATOM     14  H   UNL     1     138.741  74.596 223.096 -0.55 -0.09    +0.161 HD 
DOCKED: ATOM     15  S   UNL     1     141.565  74.937 220.873 -0.36 +0.02    -0.060 S  
DOCKED: BRANCH  13  16
DOCKED: ATOM     16  C   UNL     1     140.217  76.740 222.377 -0.39 -0.00    +0.010 A  
DOCKED: ATOM     17  C   UNL     1     138.945  77.343 222.571 -0.30 -0.00    +0.013 A  
DOCKED: ATOM     18  C   UNL     1     141.387  77.486 222.653 -0.23 -0.01    +0.021 A  
DOCKED: ATOM     19  C   UNL     1     138.838  78.670 223.027 -0.31 -0.00    +0.027 A  
DOCKED: ATOM     20  C   UNL     1     141.244  78.795 223.100 -0.54 -0.00    +0.000 A  
DOCKED: ATOM     21  C   UNL     1     140.015  79.369 223.279 -0.40 -0.01    +0.045 A  
DOCKED: ATOM     22  C   UNL     1     142.191  79.736 223.438 -0.62 -0.01    +0.028 A  
DOCKED: ATOM     23  N   UNL     1     140.137  80.633 223.716 -0.17 +0.05    -0.361 N  
DOCKED: ATOM     24  C   UNL     1     141.466  80.862 223.814 -0.48 -0.01    +0.083 A  
DOCKED: ATOM     25  H   UNL     1     139.367  81.303 223.936 +0.08 -0.01    +0.166 HD 
DOCKED: ENDBRANCH  13  16
DOCKED: ENDBRANCH  11  12
DOCKED: ENDBRANCH   1  11
DOCKED: TORSDOF 6
DOCKED: TER
DOCKED: ENDMDL
________________________________________________________________________________


    FINAL DOCKED STATE:
    ________________________


Run:   10 / 20
Time taken for this run:   0.021s

DOCKED: MODEL        10
DOCKED: USER    Run = 10
DOCKED: USER
DOCKED: USER    Estimated Free Energy of Binding    =  -7.66 kcal/mol  [=(1)+(2)+(3)-(4)]
DOCKED: USER
DOCKED: USER    (1) Final Intermolecular Energy     =  -9.45 kcal/mol
DOCKED: USER        vdW + Hbond + desolv Energy     =  -9.43 kcal/mol
DOCKED: USER        Electrostatic Energy            =  -0.03 kcal/mol
DOCKED: USER        Moving Ligand-Fixed Receptor    =  -9.45 kcal/mol
DOCKED: USER        Moving Ligand-Moving Receptor   =  +0.00 kcal/mol
DOCKED: USER    (2) Final Total Internal Energy     =  -0.83 kcal/mol
DOCKED: USER    (3) Torsional Free Energy           =  +1.79 kcal/mol
DOCKED: USER    (4) Unbound System's Energy         =  -0.83 kcal/mol
DOCKED: USER
DOCKED: USER
DOCKED: REMARK SMILES C[C@@H](CCNC(=S)c1ccc2[nH]ccc2c1)Cc1ccccc1
DOCKED: REMARK SMILES IDX 3 1 2 2 1 3 17 4 18 5 19 6 23 7 20 8 22 9 21 10 4 11 5 12
DOCKED: REMARK SMILES IDX 6 13 7 15 8 16 9 17 16 18 10 19 15 20 11 21 14 22 12 23
DOCKED: REMARK SMILES IDX 13 24
DOCKED: REMARK H PARENT 5 14 12 25
DOCKED: USER                              x       y       z     vdW  Elec       q    Type
DOCKED: USER                           _______ _______ _______ _____ _____    ______ ____
DOCKED: ROOT
DOCKED: ATOM      1  C   UNL     1     138.711  71.529 223.664 -0.18 -0.01    +0.025 C  
DOCKED: ENDROOT
DOCKED: BRANCH   1   2
DOCKED: ATOM      2  C   UNL     1     138.660  70.011 223.992 -0.31 +0.00    -0.008 C  
DOCKED: ATOM      3  C   UNL     1     137.373  69.605 224.728 -0.28 -0.00    +0.008 C  
DOCKED: BRANCH   2   4
DOCKED: ATOM      4  C   UNL     1     139.903  69.481 224.749 -0.32 -0.01    +0.039 C  
DOCKED: BRANCH   4   5
DOCKED: ATOM      5  C   UNL     1     140.263  70.313 225.961 -0.50 +0.01    -0.048 A  
DOCKED: ATOM      6  C   UNL     1     141.073  71.455 225.829 -0.63 -0.00    +0.004 A  
DOCKED: ATOM      7  C   UNL     1     139.741  69.989 227.227 -0.54 -0.00    +0.004 A  
DOCKED: ATOM      8  C   UNL     1     141.391  72.228 226.950 -0.76 -0.00    +0.000 A  
DOCKED: ATOM      9  C   UNL     1     140.062  70.766 228.344 -0.63 -0.00    +0.000 A  
DOCKED: ATOM     10  C   UNL     1     140.892  71.881 228.208 -0.80 -0.00    +0.000 A  
DOCKED: ENDBRANCH   4   5
DOCKED: ENDBRANCH   2   4
DOCKED: ENDBRANCH   1   2
DOCKED: BRANCH   1  11
DOCKED: ATOM     11  C   UNL     1     139.242  71.917 222.267 -0.21 -0.02    +0.114 C  
DOCKED: BRANCH  11  12
DOCKED: ATOM     12  N   UNL     1     139.684  73.311 222.208 -0.13 +0.06    -0.376 N  
DOCKED: ATOM     13  C   UNL     1     140.873  73.728 221.513 -0.25 -0.01    +0.106 C  
DOCKED: ATOM     14  H   UNL     1     139.184  74.019 222.786 -0.53 -0.05    +0.161 HD 
DOCKED: ATOM     15  S   UNL     1     141.900  72.613 220.867 -0.29 +0.01    -0.060 S  
DOCKED: BRANCH  13  16
DOCKED: ATOM     16  C   UNL     1     141.178  75.172 221.377 -0.33 -0.00    +0.010 A  
DOCKED: ATOM     17  C   UNL     1     141.959  75.655 220.291 -0.28 -0.01    +0.013 A  
DOCKED: ATOM     18  C   UNL     1     140.692  76.086 222.340 -0.33 -0.00    +0.021 A  
DOCKED: ATOM     19  C   UNL     1     142.257  77.025 220.171 -0.29 -0.02    +0.027 A  
DOCKED: ATOM     20  C   UNL     1     141.008  77.433 222.191 -0.42 -0.00    +0.000 A  
DOCKED: ATOM     21  C   UNL     1     141.764  77.887 221.145 -0.28 -0.03    +0.045 A  
DOCKED: ATOM     22  C   UNL     1     140.676  78.524 222.964 -0.44 -0.01    +0.028 A  
DOCKED: ATOM     23  N   UNL     1     141.929  79.218 221.218 -0.14 +0.20    -0.361 N  
DOCKED: ATOM     24  C   UNL     1     141.266  79.611 222.329 -0.39 -0.03    +0.083 A  
DOCKED: ATOM     25  H   UNL     1     142.460  79.826 220.555 -0.16 -0.11    +0.166 HD 
DOCKED: ENDBRANCH  13  16
DOCKED: ENDBRANCH  11  12
DOCKED: ENDBRANCH   1  11
DOCKED: TORSDOF 6
DOCKED: TER
DOCKED: ENDMDL
________________________________________________________________________________


    FINAL DOCKED STATE:
    ________________________


Run:   11 / 20
Time taken for this run:   0.021s

DOCKED: MODEL        11
DOCKED: USER    Run = 11
DOCKED: USER
DOCKED: USER    Estimated Free Energy of Binding    =  -7.99 kcal/mol  [=(1)+(2)+(3)-(4)]
DOCKED: USER
DOCKED: USER    (1) Final Intermolecular Energy     =  -9.78 kcal/mol
DOCKED: USER        vdW + Hbond + desolv Energy     =  -9.75 kcal/mol
DOCKED: USER        Electrostatic Energy            =  -0.03 kcal/mol
DOCKED: USER        Moving Ligand-Fixed Receptor    =  -9.78 kcal/mol
DOCKED: USER        Moving Ligand-Moving Receptor   =  +0.00 kcal/mol
DOCKED: USER    (2) Final Total Internal Energy     =  -0.65 kcal/mol
DOCKED: USER    (3) Torsional Free Energy           =  +1.79 kcal/mol
DOCKED: USER    (4) Unbound System's Energy         =  -0.65 kcal/mol
DOCKED: USER
DOCKED: USER
DOCKED: REMARK SMILES C[C@@H](CCNC(=S)c1ccc2[nH]ccc2c1)Cc1ccccc1
DOCKED: REMARK SMILES IDX 3 1 2 2 1 3 17 4 18 5 19 6 23 7 20 8 22 9 21 10 4 11 5 12
DOCKED: REMARK SMILES IDX 6 13 7 15 8 16 9 17 16 18 10 19 15 20 11 21 14 22 12 23
DOCKED: REMARK SMILES IDX 13 24
DOCKED: REMARK H PARENT 5 14 12 25
DOCKED: USER                              x       y       z     vdW  Elec       q    Type
DOCKED: USER                           _______ _______ _______ _____ _____    ______ ____
DOCKED: ROOT
DOCKED: ATOM      1  C   UNL     1     139.115  74.679 221.769 -0.25 -0.01    +0.025 C  
DOCKED: ENDROOT
DOCKED: BRANCH   1   2
DOCKED: ATOM      2  C   UNL     1     139.618  76.043 222.320 -0.34 +0.00    -0.008 C  
DOCKED: ATOM      3  C   UNL     1     138.522  77.121 222.329 -0.30 -0.00    +0.008 C  
DOCKED: BRANCH   2   4
DOCKED: ATOM      4  C   UNL     1     140.895  76.578 221.627 -0.34 -0.01    +0.039 C  
DOCKED: BRANCH   4   5
DOCKED: ATOM      5  C   UNL     1     141.291  77.962 222.093 -0.37 +0.02    -0.048 A  
DOCKED: ATOM      6  C   UNL     1     141.451  78.236 223.463 -0.53 -0.00    +0.004 A  
DOCKED: ATOM      7  C   UNL     1     141.565  78.977 221.158 -0.36 -0.00    +0.004 A  
DOCKED: ATOM      8  C   UNL     1     141.832  79.513 223.889 -0.61 -0.00    +0.000 A  
DOCKED: ATOM      9  C   UNL     1     141.946  80.252 221.589 -0.44 -0.00    +0.000 A  
DOCKED: ATOM     10  C   UNL     1     142.072  80.522 222.953 -0.60 -0.00    +0.000 A  
DOCKED: ENDBRANCH   4   5
DOCKED: ENDBRANCH   2   4
DOCKED: ENDBRANCH   1   2
DOCKED: BRANCH   1  11
DOCKED: ATOM     11  C   UNL     1     140.132  73.517 221.766 -0.24 -0.01    +0.114 C  
DOCKED: BRANCH  11  12
DOCKED: ATOM     12  N   UNL     1     139.986  72.648 222.935 -0.13 +0.05    -0.376 N  
DOCKED: ATOM     13  C   UNL     1     139.928  71.213 222.843 -0.27 -0.02    +0.106 C  
DOCKED: ATOM     14  H   UNL     1     139.801  73.085 223.863 -0.30 -0.05    +0.161 HD 
DOCKED: ATOM     15  S   UNL     1     139.866  70.471 221.374 -0.17 +0.01    -0.060 S  
DOCKED: BRANCH  13  16
DOCKED: ATOM     16  C   UNL     1     139.923  70.396 224.080 -0.36 -0.00    +0.010 A  
DOCKED: ATOM     17  C   UNL     1     139.269  69.135 224.119 -0.30 -0.00    +0.013 A  
DOCKED: ATOM     18  C   UNL     1     140.571  70.877 225.241 -0.53 -0.00    +0.021 A  
DOCKED: ATOM     19  C   UNL     1     139.255  68.366 225.298 -0.45 -0.00    +0.027 A  
DOCKED: ATOM     20  C   UNL     1     140.536  70.091 226.389 -0.55 -0.00    +0.000 A  
DOCKED: ATOM     21  C   UNL     1     139.900  68.880 226.419 -0.52 -0.01    +0.045 A  
DOCKED: ATOM     22  C   UNL     1     141.071  70.307 227.640 -0.59 -0.01    +0.028 A  
DOCKED: ATOM     23  N   UNL     1     140.006  68.315 227.632 -0.28 +0.07    -0.361 N  
DOCKED: ATOM     24  C   UNL     1     140.721  69.183 228.382 -0.54 -0.02    +0.083 A  
DOCKED: ATOM     25  H   UNL     1     139.618  67.394 227.936 -0.39 -0.05    +0.166 HD 
DOCKED: ENDBRANCH  13  16
DOCKED: ENDBRANCH  11  12
DOCKED: ENDBRANCH   1  11
DOCKED: TORSDOF 6
DOCKED: TER
DOCKED: ENDMDL
________________________________________________________________________________


    FINAL DOCKED STATE:
    ________________________


Run:   12 / 20
Time taken for this run:   0.021s

DOCKED: MODEL        12
DOCKED: USER    Run = 12
DOCKED: USER
DOCKED: USER    Estimated Free Energy of Binding    =  -7.85 kcal/mol  [=(1)+(2)+(3)-(4)]
DOCKED: USER
DOCKED: USER    (1) Final Intermolecular Energy     =  -9.64 kcal/mol
DOCKED: USER        vdW + Hbond + desolv Energy     =  -9.59 kcal/mol
DOCKED: USER        Electrostatic Energy            =  -0.05 kcal/mol
DOCKED: USER        Moving Ligand-Fixed Receptor    =  -9.64 kcal/mol
DOCKED: USER        Moving Ligand-Moving Receptor   =  +0.00 kcal/mol
DOCKED: USER    (2) Final Total Internal Energy     =  -0.73 kcal/mol
DOCKED: USER    (3) Torsional Free Energy           =  +1.79 kcal/mol
DOCKED: USER    (4) Unbound System's Energy         =  -0.73 kcal/mol
DOCKED: USER
DOCKED: USER
DOCKED: REMARK SMILES C[C@@H](CCNC(=S)c1ccc2[nH]ccc2c1)Cc1ccccc1
DOCKED: REMARK SMILES IDX 3 1 2 2 1 3 17 4 18 5 19 6 23 7 20 8 22 9 21 10 4 11 5 12
DOCKED: REMARK SMILES IDX 6 13 7 15 8 16 9 17 16 18 10 19 15 20 11 21 14 22 12 23
DOCKED: REMARK SMILES IDX 13 24
DOCKED: REMARK H PARENT 5 14 12 25
DOCKED: USER                              x       y       z     vdW  Elec       q    Type
DOCKED: USER                           _______ _______ _______ _____ _____    ______ ____
DOCKED: ROOT
DOCKED: ATOM      1  C   UNL     1     139.175  75.754 221.608 -0.27 -0.01    +0.025 C  
DOCKED: ENDROOT
DOCKED: BRANCH   1   2
DOCKED: ATOM      2  C   UNL     1     140.255  76.861 221.452 -0.31 +0.00    -0.008 C  
DOCKED: ATOM      3  C   UNL     1     141.196  76.611 220.263 -0.25 -0.00    +0.008 C  
DOCKED: BRANCH   2   4
DOCKED: ATOM      4  C   UNL     1     141.073  77.137 222.738 -0.32 -0.01    +0.039 C  
DOCKED: BRANCH   4   5
DOCKED: ATOM      5  C   UNL     1     141.317  78.610 222.985 -0.51 +0.02    -0.048 A  
DOCKED: ATOM      6  C   UNL     1     142.612  79.148 222.879 -0.51 -0.00    +0.004 A  
DOCKED: ATOM      7  C   UNL     1     140.241  79.473 223.262 -0.44 -0.00    +0.004 A  
DOCKED: ATOM      8  C   UNL     1     142.830  80.513 223.094 -0.66 -0.00    +0.000 A  
DOCKED: ATOM      9  C   UNL     1     140.465  80.837 223.476 -0.45 -0.00    +0.000 A  
DOCKED: ATOM     10  C   UNL     1     141.758  81.355 223.398 -0.57 -0.00    +0.000 A  
DOCKED: ENDBRANCH   4   5
DOCKED: ENDBRANCH   2   4
DOCKED: ENDBRANCH   1   2
DOCKED: BRANCH   1  11
DOCKED: ATOM     11  C   UNL     1     139.598  74.317 221.234 -0.20 -0.02    +0.114 C  
DOCKED: BRANCH  11  12
DOCKED: ATOM     12  N   UNL     1     139.409  73.377 222.340 -0.11 +0.08    -0.376 N  
DOCKED: ATOM     13  C   UNL     1     140.299  72.275 222.593 -0.29 -0.01    +0.106 C  
DOCKED: ATOM     14  H   UNL     1     138.533  73.434 222.900 -0.52 -0.09    +0.161 HD 
DOCKED: ATOM     15  S   UNL     1     141.513  71.919 221.537 -0.26 +0.01    -0.060 S  
DOCKED: BRANCH  13  16
DOCKED: ATOM     16  C   UNL     1     140.122  71.452 223.813 -0.41 -0.00    +0.010 A  
DOCKED: ATOM     17  C   UNL     1     139.396  70.230 223.772 -0.31 -0.00    +0.013 A  
DOCKED: ATOM     18  C   UNL     1     140.677  71.886 225.039 -0.38 -0.00    +0.021 A  
DOCKED: ATOM     19  C   UNL     1     139.219  69.457 224.934 -0.37 -0.00    +0.027 A  
DOCKED: ATOM     20  C   UNL     1     140.481  71.097 226.168 -0.61 -0.00    +0.000 A  
DOCKED: ATOM     21  C   UNL     1     139.776  69.925 226.119 -0.45 -0.01    +0.045 A  
DOCKED: ATOM     22  C   UNL     1     140.899  71.273 227.469 -0.72 -0.01    +0.028 A  
DOCKED: ATOM     23  N   UNL     1     139.727  69.347 227.330 -0.22 +0.06    -0.361 N  
DOCKED: ATOM     24  C   UNL     1     140.411  70.168 228.159 -0.54 -0.01    +0.083 A  
DOCKED: ATOM     25  H   UNL     1     139.257  68.450 227.583 +0.10 -0.02    +0.166 HD 
DOCKED: ENDBRANCH  13  16
DOCKED: ENDBRANCH  11  12
DOCKED: ENDBRANCH   1  11
DOCKED: TORSDOF 6
DOCKED: TER
DOCKED: ENDMDL
________________________________________________________________________________


    FINAL DOCKED STATE:
    ________________________


Run:   13 / 20
Time taken for this run:   0.021s

DOCKED: MODEL        13
DOCKED: USER    Run = 13
DOCKED: USER
DOCKED: USER    Estimated Free Energy of Binding    =  -8.05 kcal/mol  [=(1)+(2)+(3)-(4)]
DOCKED: USER
DOCKED: USER    (1) Final Intermolecular Energy     =  -9.84 kcal/mol
DOCKED: USER        vdW + Hbond + desolv Energy     =  -9.77 kcal/mol
DOCKED: USER        Electrostatic Energy            =  -0.07 kcal/mol
DOCKED: USER        Moving Ligand-Fixed Receptor    =  -9.84 kcal/mol
DOCKED: USER        Moving Ligand-Moving Receptor   =  +0.00 kcal/mol
DOCKED: USER    (2) Final Total Internal Energy     =  -0.67 kcal/mol
DOCKED: USER    (3) Torsional Free Energy           =  +1.79 kcal/mol
DOCKED: USER    (4) Unbound System's Energy         =  -0.67 kcal/mol
DOCKED: USER
DOCKED: USER
DOCKED: REMARK SMILES C[C@@H](CCNC(=S)c1ccc2[nH]ccc2c1)Cc1ccccc1
DOCKED: REMARK SMILES IDX 3 1 2 2 1 3 17 4 18 5 19 6 23 7 20 8 22 9 21 10 4 11 5 12
DOCKED: REMARK SMILES IDX 6 13 7 15 8 16 9 17 16 18 10 19 15 20 11 21 14 22 12 23
DOCKED: REMARK SMILES IDX 13 24
DOCKED: REMARK H PARENT 5 14 12 25
DOCKED: USER                              x       y       z     vdW  Elec       q    Type
DOCKED: USER                           _______ _______ _______ _____ _____    ______ ____
DOCKED: ROOT
DOCKED: ATOM      1  C   UNL     1     140.952  75.394 221.573 -0.34 -0.01    +0.025 C  
DOCKED: ENDROOT
DOCKED: BRANCH   1   2
DOCKED: ATOM      2  C   UNL     1     140.584  76.793 222.144 -0.40 +0.00    -0.008 C  
DOCKED: ATOM      3  C   UNL     1     139.067  77.036 222.191 -0.31 -0.00    +0.008 C  
DOCKED: BRANCH   2   4
DOCKED: ATOM      4  C   UNL     1     141.297  77.974 221.441 -0.34 -0.02    +0.039 C  
DOCKED: BRANCH   4   5
DOCKED: ATOM      5  C   UNL     1     141.614  79.121 222.377 -0.46 +0.02    -0.048 A  
DOCKED: ATOM      6  C   UNL     1     142.947  79.455 222.673 -0.53 -0.00    +0.004 A  
DOCKED: ATOM      7  C   UNL     1     140.578  79.908 222.914 -0.43 -0.00    +0.004 A  
DOCKED: ATOM      8  C   UNL     1     143.235  80.525 223.527 -0.66 -0.00    +0.000 A  
DOCKED: ATOM      9  C   UNL     1     140.871  80.977 223.767 -0.43 -0.00    +0.000 A  
DOCKED: ATOM     10  C   UNL     1     142.198  81.281 224.079 -0.61 -0.00    +0.000 A  
DOCKED: ENDBRANCH   4   5
DOCKED: ENDBRANCH   2   4
DOCKED: ENDBRANCH   1   2
DOCKED: BRANCH   1  11
DOCKED: ATOM     11  C   UNL     1     139.779  74.426 221.308 -0.22 -0.02    +0.114 C  
DOCKED: BRANCH  11  12
DOCKED: ATOM     12  N   UNL     1     139.592  73.467 222.399 -0.08 +0.07    -0.376 N  
DOCKED: ATOM     13  C   UNL     1     140.393  72.281 222.545 -0.28 -0.01    +0.106 C  
DOCKED: ATOM     14  H   UNL     1     138.773  73.584 223.031 -0.53 -0.10    +0.161 HD 
DOCKED: ATOM     15  S   UNL     1     141.480  71.856 221.383 -0.26 +0.01    -0.060 S  
DOCKED: BRANCH  13  16
DOCKED: ATOM     16  C   UNL     1     140.240  71.434 223.752 -0.41 -0.00    +0.010 A  
DOCKED: ATOM     17  C   UNL     1     139.585  70.174 223.682 -0.30 -0.00    +0.013 A  
DOCKED: ATOM     18  C   UNL     1     140.744  71.884 224.995 -0.35 -0.00    +0.021 A  
DOCKED: ATOM     19  C   UNL     1     139.429  69.377 224.831 -0.37 -0.00    +0.027 A  
DOCKED: ATOM     20  C   UNL     1     140.571  71.072 226.111 -0.62 -0.00    +0.000 A  
DOCKED: ATOM     21  C   UNL     1     139.935  69.862 226.034 -0.46 -0.01    +0.045 A  
DOCKED: ATOM     22  C   UNL     1     140.952  71.255 227.422 -0.72 -0.00    +0.028 A  
DOCKED: ATOM     23  N   UNL     1     139.895  69.267 227.237 -0.22 +0.06    -0.361 N  
DOCKED: ATOM     24  C   UNL     1     140.514  70.115 228.089 -0.54 -0.01    +0.083 A  
DOCKED: ATOM     25  H   UNL     1     139.472  68.341 227.470 +0.10 -0.03    +0.166 HD 
DOCKED: ENDBRANCH  13  16
DOCKED: ENDBRANCH  11  12
DOCKED: ENDBRANCH   1  11
DOCKED: TORSDOF 6
DOCKED: TER
DOCKED: ENDMDL
________________________________________________________________________________


    FINAL DOCKED STATE:
    ________________________


Run:   14 / 20
Time taken for this run:   0.021s

DOCKED: MODEL        14
DOCKED: USER    Run = 14
DOCKED: USER
DOCKED: USER    Estimated Free Energy of Binding    =  -7.42 kcal/mol  [=(1)+(2)+(3)-(4)]
DOCKED: USER
DOCKED: USER    (1) Final Intermolecular Energy     =  -9.21 kcal/mol
DOCKED: USER        vdW + Hbond + desolv Energy     =  -9.16 kcal/mol
DOCKED: USER        Electrostatic Energy            =  -0.04 kcal/mol
DOCKED: USER        Moving Ligand-Fixed Receptor    =  -9.21 kcal/mol
DOCKED: USER        Moving Ligand-Moving Receptor   =  +0.00 kcal/mol
DOCKED: USER    (2) Final Total Internal Energy     =  -1.02 kcal/mol
DOCKED: USER    (3) Torsional Free Energy           =  +1.79 kcal/mol
DOCKED: USER    (4) Unbound System's Energy         =  -1.02 kcal/mol
DOCKED: USER
DOCKED: USER
DOCKED: REMARK SMILES C[C@@H](CCNC(=S)c1ccc2[nH]ccc2c1)Cc1ccccc1
DOCKED: REMARK SMILES IDX 3 1 2 2 1 3 17 4 18 5 19 6 23 7 20 8 22 9 21 10 4 11 5 12
DOCKED: REMARK SMILES IDX 6 13 7 15 8 16 9 17 16 18 10 19 15 20 11 21 14 22 12 23
DOCKED: REMARK SMILES IDX 13 24
DOCKED: REMARK H PARENT 5 14 12 25
DOCKED: USER                              x       y       z     vdW  Elec       q    Type
DOCKED: USER                           _______ _______ _______ _____ _____    ______ ____
DOCKED: ROOT
DOCKED: ATOM      1  C   UNL     1     139.378  71.419 223.115 -0.31 -0.01    +0.025 C  
DOCKED: ENDROOT
DOCKED: BRANCH   1   2
DOCKED: ATOM      2  C   UNL     1     139.493  71.176 224.647 -0.40 +0.00    -0.008 C  
DOCKED: ATOM      3  C   UNL     1     140.937  71.287 225.160 -0.51 -0.00    +0.008 C  
DOCKED: BRANCH   2   4
DOCKED: ATOM      4  C   UNL     1     138.849  69.853 225.131 -0.36 -0.01    +0.039 C  
DOCKED: BRANCH   4   5
DOCKED: ATOM      5  C   UNL     1     139.569  69.236 226.310 -0.47 +0.01    -0.048 A  
DOCKED: ATOM      6  C   UNL     1     140.406  68.120 226.133 -0.61 -0.00    +0.004 A  
DOCKED: ATOM      7  C   UNL     1     139.461  69.810 227.591 -0.52 -0.00    +0.004 A  
DOCKED: ATOM      8  C   UNL     1     141.081  67.562 227.224 -0.55 -0.00    +0.000 A  
DOCKED: ATOM      9  C   UNL     1     140.138  69.248 228.677 -0.53 -0.00    +0.000 A  
DOCKED: ATOM     10  C   UNL     1     140.942  68.122 228.496 -0.64 -0.00    +0.000 A  
DOCKED: ENDBRANCH   4   5
DOCKED: ENDBRANCH   2   4
DOCKED: ENDBRANCH   1   2
DOCKED: BRANCH   1  11
DOCKED: ATOM     11  C   UNL     1     137.960  71.355 222.510 -0.15 -0.03    +0.114 C  
DOCKED: BRANCH  11  12
DOCKED: ATOM     12  N   UNL     1     136.949  71.930 223.398 -0.07 +0.11    -0.376 N  
DOCKED: ATOM     13  C   UNL     1     135.843  71.173 223.921 -0.16 -0.02    +0.106 C  
DOCKED: ATOM     14  H   UNL     1     136.962  72.958 223.571 -0.51 -0.08    +0.161 HD 
DOCKED: ATOM     15  S   UNL     1     135.568  69.631 223.412 -0.17 +0.01    -0.060 S  
DOCKED: BRANCH  13  16
DOCKED: ATOM     16  C   UNL     1     134.942  71.786 224.927 -0.18 -0.00    +0.010 A  
DOCKED: ATOM     17  C   UNL     1     134.304  70.990 225.917 -0.29 -0.00    +0.013 A  
DOCKED: ATOM     18  C   UNL     1     134.707  73.181 224.902 -0.27 -0.00    +0.021 A  
DOCKED: ATOM     19  C   UNL     1     133.440  71.572 226.863 -0.42 -0.00    +0.027 A  
DOCKED: ATOM     20  C   UNL     1     133.845  73.721 225.851 -0.33 +0.00    +0.000 A  
DOCKED: ATOM     21  C   UNL     1     133.232  72.946 226.797 -0.37 -0.00    +0.045 A  
DOCKED: ATOM     22  C   UNL     1     133.441  75.022 226.058 -0.33 -0.00    +0.028 A  
DOCKED: ATOM     23  N   UNL     1     132.455  73.694 227.597 -0.19 +0.04    -0.361 N  
DOCKED: ATOM     24  C   UNL     1     132.578  74.964 227.148 -0.35 +0.00    +0.083 A  
DOCKED: ATOM     25  H   UNL     1     131.873  73.366 228.400 -0.48 -0.06    +0.166 HD 
DOCKED: ENDBRANCH  13  16
DOCKED: ENDBRANCH  11  12
DOCKED: ENDBRANCH   1  11
DOCKED: TORSDOF 6
DOCKED: TER
DOCKED: ENDMDL
________________________________________________________________________________


    FINAL DOCKED STATE:
    ________________________


Run:   15 / 20
Time taken for this run:   0.021s

DOCKED: MODEL        15
DOCKED: USER    Run = 15
DOCKED: USER
DOCKED: USER    Estimated Free Energy of Binding    =  -7.71 kcal/mol  [=(1)+(2)+(3)-(4)]
DOCKED: USER
DOCKED: USER    (1) Final Intermolecular Energy     =  -9.50 kcal/mol
DOCKED: USER        vdW + Hbond + desolv Energy     =  -9.48 kcal/mol
DOCKED: USER        Electrostatic Energy            =  -0.02 kcal/mol
DOCKED: USER        Moving Ligand-Fixed Receptor    =  -9.50 kcal/mol
DOCKED: USER        Moving Ligand-Moving Receptor   =  +0.00 kcal/mol
DOCKED: USER    (2) Final Total Internal Energy     =  -0.72 kcal/mol
DOCKED: USER    (3) Torsional Free Energy           =  +1.79 kcal/mol
DOCKED: USER    (4) Unbound System's Energy         =  -0.72 kcal/mol
DOCKED: USER
DOCKED: USER
DOCKED: REMARK SMILES C[C@@H](CCNC(=S)c1ccc2[nH]ccc2c1)Cc1ccccc1
DOCKED: REMARK SMILES IDX 3 1 2 2 1 3 17 4 18 5 19 6 23 7 20 8 22 9 21 10 4 11 5 12
DOCKED: REMARK SMILES IDX 6 13 7 15 8 16 9 17 16 18 10 19 15 20 11 21 14 22 12 23
DOCKED: REMARK SMILES IDX 13 24
DOCKED: REMARK H PARENT 5 14 12 25
DOCKED: USER                              x       y       z     vdW  Elec       q    Type
DOCKED: USER                           _______ _______ _______ _____ _____    ______ ____
DOCKED: ROOT
DOCKED: ATOM      1  C   UNL     1     138.660  75.251 222.266 -0.20 -0.01    +0.025 C  
DOCKED: ENDROOT
DOCKED: BRANCH   1   2
DOCKED: ATOM      2  C   UNL     1     139.592  76.439 221.898 -0.33 +0.00    -0.008 C  
DOCKED: ATOM      3  C   UNL     1     141.082  76.069 221.970 -0.33 -0.00    +0.008 C  
DOCKED: BRANCH   2   4
DOCKED: ATOM      4  C   UNL     1     139.318  77.735 222.700 -0.28 -0.01    +0.039 C  
DOCKED: BRANCH   4   5
DOCKED: ATOM      5  C   UNL     1     140.488  78.695 222.698 -0.39 +0.01    -0.048 A  
DOCKED: ATOM      6  C   UNL     1     141.248  78.899 223.864 -0.54 -0.00    +0.004 A  
DOCKED: ATOM      7  C   UNL     1     140.869  79.350 221.512 -0.31 -0.00    +0.004 A  
DOCKED: ATOM      8  C   UNL     1     142.336  79.777 223.853 -0.61 -0.00    +0.000 A  
DOCKED: ATOM      9  C   UNL     1     141.959  80.227 221.508 -0.43 -0.00    +0.000 A  
DOCKED: ATOM     10  C   UNL     1     142.688  80.445 222.678 -0.61 -0.00    +0.000 A  
DOCKED: ENDBRANCH   4   5
DOCKED: ENDBRANCH   2   4
DOCKED: ENDBRANCH   1   2
DOCKED: BRANCH   1  11
DOCKED: ATOM     11  C   UNL     1     139.042  73.869 221.693 -0.19 -0.03    +0.114 C  
DOCKED: BRANCH  11  12
DOCKED: ATOM     12  N   UNL     1     139.027  72.821 222.715 +0.07 +0.12    -0.376 N  
DOCKED: ATOM     13  C   UNL     1     140.118  71.904 222.913 -0.30 -0.02    +0.106 C  
DOCKED: ATOM     14  H   UNL     1     138.147  72.653 223.247 -0.43 -0.09    +0.161 HD 
DOCKED: ATOM     15  S   UNL     1     141.399  71.890 221.877 -0.22 +0.00    -0.060 S  
DOCKED: BRANCH  13  16
DOCKED: ATOM     16  C   UNL     1     140.090  70.963 224.059 -0.41 -0.00    +0.010 A  
DOCKED: ATOM     17  C   UNL     1     139.549  69.656 223.918 -0.28 -0.00    +0.013 A  
DOCKED: ATOM     18  C   UNL     1     140.602  71.370 225.314 -0.55 -0.00    +0.021 A  
DOCKED: ATOM     19  C   UNL     1     139.512  68.770 225.010 -0.39 -0.00    +0.027 A  
DOCKED: ATOM     20  C   UNL     1     140.547  70.468 226.372 -0.58 -0.00    +0.000 A  
DOCKED: ATOM     21  C   UNL     1     140.020  69.213 226.227 -0.48 -0.01    +0.045 A  
DOCKED: ATOM     22  C   UNL     1     140.963  70.592 227.679 -0.63 -0.00    +0.028 A  
DOCKED: ATOM     23  N   UNL     1     140.082  68.534 227.384 -0.28 +0.07    -0.361 N  
DOCKED: ATOM     24  C   UNL     1     140.657  69.373 228.274 -0.55 -0.02    +0.083 A  
DOCKED: ATOM     25  H   UNL     1     139.754  67.558 227.562 -0.21 -0.04    +0.166 HD 
DOCKED: ENDBRANCH  13  16
DOCKED: ENDBRANCH  11  12
DOCKED: ENDBRANCH   1  11
DOCKED: TORSDOF 6
DOCKED: TER
DOCKED: ENDMDL
________________________________________________________________________________


    FINAL DOCKED STATE:
    ________________________


Run:   16 / 20
Time taken for this run:   0.021s

DOCKED: MODEL        16
DOCKED: USER    Run = 16
DOCKED: USER
DOCKED: USER    Estimated Free Energy of Binding    =  -7.75 kcal/mol  [=(1)+(2)+(3)-(4)]
DOCKED: USER
DOCKED: USER    (1) Final Intermolecular Energy     =  -9.54 kcal/mol
DOCKED: USER        vdW + Hbond + desolv Energy     =  -9.50 kcal/mol
DOCKED: USER        Electrostatic Energy            =  -0.04 kcal/mol
DOCKED: USER        Moving Ligand-Fixed Receptor    =  -9.54 kcal/mol
DOCKED: USER        Moving Ligand-Moving Receptor   =  +0.00 kcal/mol
DOCKED: USER    (2) Final Total Internal Energy     =  -0.79 kcal/mol
DOCKED: USER    (3) Torsional Free Energy           =  +1.79 kcal/mol
DOCKED: USER    (4) Unbound System's Energy         =  -0.79 kcal/mol
DOCKED: USER
DOCKED: USER
DOCKED: REMARK SMILES C[C@@H](CCNC(=S)c1ccc2[nH]ccc2c1)Cc1ccccc1
DOCKED: REMARK SMILES IDX 3 1 2 2 1 3 17 4 18 5 19 6 23 7 20 8 22 9 21 10 4 11 5 12
DOCKED: REMARK SMILES IDX 6 13 7 15 8 16 9 17 16 18 10 19 15 20 11 21 14 22 12 23
DOCKED: REMARK SMILES IDX 13 24
DOCKED: REMARK H PARENT 5 14 12 25
DOCKED: USER                              x       y       z     vdW  Elec       q    Type
DOCKED: USER                           _______ _______ _______ _____ _____    ______ ____
DOCKED: ROOT
DOCKED: ATOM      1  C   UNL     1     140.482  71.705 222.112 -0.27 -0.00    +0.025 C  
DOCKED: ENDROOT
DOCKED: BRANCH   1   2
DOCKED: ATOM      2  C   UNL     1     139.948  71.082 223.432 -0.36 +0.00    -0.008 C  
DOCKED: ATOM      3  C   UNL     1     138.434  70.821 223.398 -0.26 -0.00    +0.008 C  
DOCKED: BRANCH   2   4
DOCKED: ATOM      4  C   UNL     1     140.330  71.873 224.708 -0.26 -0.01    +0.039 C  
DOCKED: BRANCH   4   5
DOCKED: ATOM      5  C   UNL     1     140.556  70.986 225.914 -0.56 +0.01    -0.048 A  
DOCKED: ATOM      6  C   UNL     1     140.851  71.547 227.169 -0.76 -0.00    +0.004 A  
DOCKED: ATOM      7  C   UNL     1     140.411  69.590 225.808 -0.49 -0.00    +0.004 A  
DOCKED: ATOM      8  C   UNL     1     141.045  70.724 228.283 -0.61 -0.00    +0.000 A  
DOCKED: ATOM      9  C   UNL     1     140.606  68.772 226.926 -0.62 -0.00    +0.000 A  
DOCKED: ATOM     10  C   UNL     1     140.929  69.337 228.160 -0.62 -0.00    +0.000 A  
DOCKED: ENDBRANCH   4   5
DOCKED: ENDBRANCH   2   4
DOCKED: ENDBRANCH   1   2
DOCKED: BRANCH   1  11
DOCKED: ATOM     11  C   UNL     1     139.515  72.633 221.345 -0.16 -0.02    +0.114 C  
DOCKED: BRANCH  11  12
DOCKED: ATOM     12  N   UNL     1     139.411  73.957 221.961 -0.14 +0.07    -0.376 N  
DOCKED: ATOM     13  C   UNL     1     140.246  75.066 221.582 -0.29 -0.02    +0.106 C  
DOCKED: ATOM     14  H   UNL     1     138.787  74.076 222.787 -0.56 -0.07    +0.161 HD 
DOCKED: ATOM     15  S   UNL     1     141.489  74.854 220.522 -0.31 +0.02    -0.060 S  
DOCKED: BRANCH  13  16
DOCKED: ATOM     16  C   UNL     1     139.985  76.411 222.149 -0.37 -0.00    +0.010 A  
DOCKED: ATOM     17  C   UNL     1     138.657  76.869 222.361 -0.30 -0.00    +0.013 A  
DOCKED: ATOM     18  C   UNL     1     141.071  77.256 222.479 -0.41 -0.01    +0.021 A  
DOCKED: ATOM     19  C   UNL     1     138.411  78.150 222.888 -0.25 -0.00    +0.027 A  
DOCKED: ATOM     20  C   UNL     1     140.791  78.517 222.996 -0.48 -0.00    +0.000 A  
DOCKED: ATOM     21  C   UNL     1     139.508  78.951 223.192 -0.35 -0.01    +0.045 A  
DOCKED: ATOM     22  C   UNL     1     141.635  79.529 223.397 -0.57 -0.01    +0.028 A  
DOCKED: ATOM     23  N   UNL     1     139.497  80.194 223.700 -0.18 +0.05    -0.361 N  
DOCKED: ATOM     24  C   UNL     1     140.795  80.552 223.826 -0.39 -0.01    +0.083 A  
DOCKED: ATOM     25  H   UNL     1     138.661  80.768 223.947 +0.07 -0.02    +0.166 HD 
DOCKED: ENDBRANCH  13  16
DOCKED: ENDBRANCH  11  12
DOCKED: ENDBRANCH   1  11
DOCKED: TORSDOF 6
DOCKED: TER
DOCKED: ENDMDL
________________________________________________________________________________


    FINAL DOCKED STATE:
    ________________________


Run:   17 / 20
Time taken for this run:   0.021s

DOCKED: MODEL        17
DOCKED: USER    Run = 17
DOCKED: USER
DOCKED: USER    Estimated Free Energy of Binding    =  -7.90 kcal/mol  [=(1)+(2)+(3)-(4)]
DOCKED: USER
DOCKED: USER    (1) Final Intermolecular Energy     =  -9.69 kcal/mol
DOCKED: USER        vdW + Hbond + desolv Energy     =  -9.66 kcal/mol
DOCKED: USER        Electrostatic Energy            =  -0.04 kcal/mol
DOCKED: USER        Moving Ligand-Fixed Receptor    =  -9.69 kcal/mol
DOCKED: USER        Moving Ligand-Moving Receptor   =  +0.00 kcal/mol
DOCKED: USER    (2) Final Total Internal Energy     =  -0.66 kcal/mol
DOCKED: USER    (3) Torsional Free Energy           =  +1.79 kcal/mol
DOCKED: USER    (4) Unbound System's Energy         =  -0.66 kcal/mol
DOCKED: USER
DOCKED: USER
DOCKED: REMARK SMILES C[C@@H](CCNC(=S)c1ccc2[nH]ccc2c1)Cc1ccccc1
DOCKED: REMARK SMILES IDX 3 1 2 2 1 3 17 4 18 5 19 6 23 7 20 8 22 9 21 10 4 11 5 12
DOCKED: REMARK SMILES IDX 6 13 7 15 8 16 9 17 16 18 10 19 15 20 11 21 14 22 12 23
DOCKED: REMARK SMILES IDX 13 24
DOCKED: REMARK H PARENT 5 14 12 25
DOCKED: USER                              x       y       z     vdW  Elec       q    Type
DOCKED: USER                           _______ _______ _______ _____ _____    ______ ____
DOCKED: ROOT
DOCKED: ATOM      1  C   UNL     1     139.037  74.711 221.685 -0.25 -0.01    +0.025 C  
DOCKED: ENDROOT
DOCKED: BRANCH   1   2
DOCKED: ATOM      2  C   UNL     1     139.600  76.001 222.345 -0.34 +0.00    -0.008 C  
DOCKED: ATOM      3  C   UNL     1     138.598  77.167 222.323 -0.30 -0.00    +0.008 C  
DOCKED: BRANCH   2   4
DOCKED: ATOM      4  C   UNL     1     140.970  76.458 221.784 -0.34 -0.01    +0.039 C  
DOCKED: BRANCH   4   5
DOCKED: ATOM      5  C   UNL     1     141.309  77.891 222.133 -0.36 +0.02    -0.048 A  
DOCKED: ATOM      6  C   UNL     1     141.513  78.272 223.471 -0.54 -0.00    +0.004 A  
DOCKED: ATOM      7  C   UNL     1     141.487  78.847 221.117 -0.35 -0.00    +0.004 A  
DOCKED: ATOM      8  C   UNL     1     141.840  79.595 223.787 -0.62 -0.00    +0.000 A  
DOCKED: ATOM      9  C   UNL     1     141.815  80.168 221.438 -0.42 -0.00    +0.000 A  
DOCKED: ATOM     10  C   UNL     1     141.985  80.543 222.772 -0.57 -0.00    +0.000 A  
DOCKED: ENDBRANCH   4   5
DOCKED: ENDBRANCH   2   4
DOCKED: ENDBRANCH   1   2
DOCKED: BRANCH   1  11
DOCKED: ATOM     11  C   UNL     1     139.982  73.492 221.634 -0.24 -0.02    +0.114 C  
DOCKED: BRANCH  11  12
DOCKED: ATOM     12  N   UNL     1     139.841  72.630 222.808 -0.13 +0.06    -0.376 N  
DOCKED: ATOM     13  C   UNL     1     139.836  71.193 222.729 -0.25 -0.02    +0.106 C  
DOCKED: ATOM     14  H   UNL     1     139.620  73.068 223.726 -0.33 -0.06    +0.161 HD 
DOCKED: ATOM     15  S   UNL     1     139.834  70.434 221.267 -0.17 +0.01    -0.060 S  
DOCKED: BRANCH  13  16
DOCKED: ATOM     16  C   UNL     1     139.832  70.388 223.974 -0.34 -0.00    +0.010 A  
DOCKED: ATOM     17  C   UNL     1     139.227  69.103 224.011 -0.29 -0.00    +0.013 A  
DOCKED: ATOM     18  C   UNL     1     140.434  70.904 225.146 -0.52 -0.00    +0.021 A  
DOCKED: ATOM     19  C   UNL     1     139.213  68.345 225.197 -0.44 -0.00    +0.027 A  
DOCKED: ATOM     20  C   UNL     1     140.400  70.129 226.301 -0.55 -0.00    +0.000 A  
DOCKED: ATOM     21  C   UNL     1     139.811  68.895 226.327 -0.51 -0.01    +0.045 A  
DOCKED: ATOM     22  C   UNL     1     140.897  70.377 227.562 -0.60 -0.00    +0.028 A  
DOCKED: ATOM     23  N   UNL     1     139.909  68.345 227.549 -0.28 +0.07    -0.361 N  
DOCKED: ATOM     24  C   UNL     1     140.571  69.248 228.307 -0.56 -0.02    +0.083 A  
DOCKED: ATOM     25  H   UNL     1     139.549  67.414 227.853 -0.36 -0.05    +0.166 HD 
DOCKED: ENDBRANCH  13  16
DOCKED: ENDBRANCH  11  12
DOCKED: ENDBRANCH   1  11
DOCKED: TORSDOF 6
DOCKED: TER
DOCKED: ENDMDL
________________________________________________________________________________


    FINAL DOCKED STATE:
    ________________________


Run:   18 / 20
Time taken for this run:   0.021s

DOCKED: MODEL        18
DOCKED: USER    Run = 18
DOCKED: USER
DOCKED: USER    Estimated Free Energy of Binding    =  -6.99 kcal/mol  [=(1)+(2)+(3)-(4)]
DOCKED: USER
DOCKED: USER    (1) Final Intermolecular Energy     =  -8.78 kcal/mol
DOCKED: USER        vdW + Hbond + desolv Energy     =  -8.73 kcal/mol
DOCKED: USER        Electrostatic Energy            =  -0.05 kcal/mol
DOCKED: USER        Moving Ligand-Fixed Receptor    =  -8.78 kcal/mol
DOCKED: USER        Moving Ligand-Moving Receptor   =  +0.00 kcal/mol
DOCKED: USER    (2) Final Total Internal Energy     =  -1.34 kcal/mol
DOCKED: USER    (3) Torsional Free Energy           =  +1.79 kcal/mol
DOCKED: USER    (4) Unbound System's Energy         =  -1.34 kcal/mol
DOCKED: USER
DOCKED: USER
DOCKED: REMARK SMILES C[C@@H](CCNC(=S)c1ccc2[nH]ccc2c1)Cc1ccccc1
DOCKED: REMARK SMILES IDX 3 1 2 2 1 3 17 4 18 5 19 6 23 7 20 8 22 9 21 10 4 11 5 12
DOCKED: REMARK SMILES IDX 6 13 7 15 8 16 9 17 16 18 10 19 15 20 11 21 14 22 12 23
DOCKED: REMARK SMILES IDX 13 24
DOCKED: REMARK H PARENT 5 14 12 25
DOCKED: USER                              x       y       z     vdW  Elec       q    Type
DOCKED: USER                           _______ _______ _______ _____ _____    ______ ____
DOCKED: ROOT
DOCKED: ATOM      1  C   UNL     1     137.235  69.371 224.730 -0.27 -0.00    +0.025 C  
DOCKED: ENDROOT
DOCKED: BRANCH   1   2
DOCKED: ATOM      2  C   UNL     1     138.713  68.972 224.460 -0.36 +0.00    -0.008 C  
DOCKED: ATOM      3  C   UNL     1     138.845  67.831 223.438 -0.24 -0.00    +0.008 C  
DOCKED: BRANCH   2   4
DOCKED: ATOM      4  C   UNL     1     139.529  68.649 225.736 -0.49 -0.01    +0.039 C  
DOCKED: BRANCH   4   5
DOCKED: ATOM      5  C   UNL     1     140.128  69.877 226.387 -0.49 +0.01    -0.048 A  
DOCKED: ATOM      6  C   UNL     1     140.912  70.773 225.638 -0.58 -0.00    +0.004 A  
DOCKED: ATOM      7  C   UNL     1     139.857  70.171 227.737 -0.59 -0.00    +0.004 A  
DOCKED: ATOM      8  C   UNL     1     141.451  71.914 226.241 -0.62 -0.00    +0.000 A  
DOCKED: ATOM      9  C   UNL     1     140.400  71.313 228.334 -0.71 -0.00    +0.000 A  
DOCKED: ATOM     10  C   UNL     1     141.201  72.180 227.589 -0.84 -0.00    +0.000 A  
DOCKED: ENDBRANCH   4   5
DOCKED: ENDBRANCH   2   4
DOCKED: ENDBRANCH   1   2
DOCKED: BRANCH   1  11
DOCKED: ATOM     11  C   UNL     1     136.648  70.489 223.843 -0.18 -0.02    +0.114 C  
DOCKED: BRANCH  11  12
DOCKED: ATOM     12  N   UNL     1     137.623  71.543 223.559 -0.08 +0.11    -0.376 N  
DOCKED: ATOM     13  C   UNL     1     138.359  71.619 222.325 -0.16 -0.02    +0.106 C  
DOCKED: ATOM     14  H   UNL     1     137.883  72.202 224.323 -0.39 -0.09    +0.161 HD 
DOCKED: ATOM     15  S   UNL     1     138.250  70.411 221.210 -0.10 +0.01    -0.060 S  
DOCKED: BRANCH  13  16
DOCKED: ATOM     16  C   UNL     1     139.222  72.793 222.054 -0.23 -0.00    +0.010 A  
DOCKED: ATOM     17  C   UNL     1     140.619  72.639 221.839 -0.30 -0.00    +0.013 A  
DOCKED: ATOM     18  C   UNL     1     138.654  74.088 222.012 -0.16 -0.01    +0.021 A  
DOCKED: ATOM     19  C   UNL     1     141.438  73.756 221.594 -0.20 -0.00    +0.027 A  
DOCKED: ATOM     20  C   UNL     1     139.494  75.170 221.769 -0.30 -0.00    +0.000 A  
DOCKED: ATOM     21  C   UNL     1     140.838  75.012 221.569 -0.33 -0.01    +0.045 A  
DOCKED: ATOM     22  C   UNL     1     139.219  76.516 221.677 -0.26 -0.01    +0.028 A  
DOCKED: ATOM     23  N   UNL     1     141.431  76.197 221.353 -0.13 +0.16    -0.361 N  
DOCKED: ATOM     24  C   UNL     1     140.445  77.120 221.419 -0.27 -0.03    +0.083 A  
DOCKED: ATOM     25  H   UNL     1     142.444  76.373 221.172 -0.46 -0.14    +0.166 HD 
DOCKED: ENDBRANCH  13  16
DOCKED: ENDBRANCH  11  12
DOCKED: ENDBRANCH   1  11
DOCKED: TORSDOF 6
DOCKED: TER
DOCKED: ENDMDL
________________________________________________________________________________


    FINAL DOCKED STATE:
    ________________________


Run:   19 / 20
Time taken for this run:   0.021s

DOCKED: MODEL        19
DOCKED: USER    Run = 19
DOCKED: USER
DOCKED: USER    Estimated Free Energy of Binding    =  -7.59 kcal/mol  [=(1)+(2)+(3)-(4)]
DOCKED: USER
DOCKED: USER    (1) Final Intermolecular Energy     =  -9.38 kcal/mol
DOCKED: USER        vdW + Hbond + desolv Energy     =  -9.32 kcal/mol
DOCKED: USER        Electrostatic Energy            =  -0.06 kcal/mol
DOCKED: USER        Moving Ligand-Fixed Receptor    =  -9.38 kcal/mol
DOCKED: USER        Moving Ligand-Moving Receptor   =  +0.00 kcal/mol
DOCKED: USER    (2) Final Total Internal Energy     =  -0.69 kcal/mol
DOCKED: USER    (3) Torsional Free Energy           =  +1.79 kcal/mol
DOCKED: USER    (4) Unbound System's Energy         =  -0.69 kcal/mol
DOCKED: USER
DOCKED: USER
DOCKED: REMARK SMILES C[C@@H](CCNC(=S)c1ccc2[nH]ccc2c1)Cc1ccccc1
DOCKED: REMARK SMILES IDX 3 1 2 2 1 3 17 4 18 5 19 6 23 7 20 8 22 9 21 10 4 11 5 12
DOCKED: REMARK SMILES IDX 6 13 7 15 8 16 9 17 16 18 10 19 15 20 11 21 14 22 12 23
DOCKED: REMARK SMILES IDX 13 24
DOCKED: REMARK H PARENT 5 14 12 25
DOCKED: USER                              x       y       z     vdW  Elec       q    Type
DOCKED: USER                           _______ _______ _______ _____ _____    ______ ____
DOCKED: ROOT
DOCKED: ATOM      1  C   UNL     1     140.470  75.675 221.639 -0.34 -0.01    +0.025 C  
DOCKED: ENDROOT
DOCKED: BRANCH   1   2
DOCKED: ATOM      2  C   UNL     1     139.660  76.987 221.439 -0.26 +0.00    -0.008 C  
DOCKED: ATOM      3  C   UNL     1     140.261  77.898 220.358 -0.17 -0.00    +0.008 C  
DOCKED: BRANCH   2   4
DOCKED: ATOM      4  C   UNL     1     139.413  77.787 222.742 -0.27 -0.01    +0.039 C  
DOCKED: BRANCH   4   5
DOCKED: ATOM      5  C   UNL     1     140.401  78.915 222.945 -0.41 +0.01    -0.048 A  
DOCKED: ATOM      6  C   UNL     1     139.969  80.254 222.944 -0.38 -0.00    +0.004 A  
DOCKED: ATOM      7  C   UNL     1     141.757  78.637 223.201 -0.57 -0.00    +0.004 A  
DOCKED: ATOM      8  C   UNL     1     140.884  81.292 223.146 -0.44 -0.00    +0.000 A  
DOCKED: ATOM      9  C   UNL     1     142.667  79.679 223.403 -0.60 -0.00    +0.000 A  
DOCKED: ATOM     10  C   UNL     1     142.232  81.006 223.369 -0.63 -0.00    +0.000 A  
DOCKED: ENDBRANCH   4   5
DOCKED: ENDBRANCH   2   4
DOCKED: ENDBRANCH   1   2
DOCKED: BRANCH   1  11
DOCKED: ATOM     11  C   UNL     1     139.783  74.365 221.200 -0.21 -0.02    +0.114 C  
DOCKED: BRANCH  11  12
DOCKED: ATOM     12  N   UNL     1     139.548  73.457 222.324 -0.12 +0.07    -0.376 N  
DOCKED: ATOM     13  C   UNL     1     140.353  72.291 222.572 -0.28 -0.01    +0.106 C  
DOCKED: ATOM     14  H   UNL     1     138.693  73.592 222.904 -0.53 -0.09    +0.161 HD 
DOCKED: ATOM     15  S   UNL     1     141.508  71.826 221.493 -0.24 +0.01    -0.060 S  
DOCKED: BRANCH  13  16
DOCKED: ATOM     16  C   UNL     1     140.143  71.501 223.808 -0.41 -0.00    +0.010 A  
DOCKED: ATOM     17  C   UNL     1     139.303  70.354 223.808 -0.32 -0.00    +0.013 A  
DOCKED: ATOM     18  C   UNL     1     140.779  71.893 225.009 -0.33 -0.00    +0.021 A  
DOCKED: ATOM     19  C   UNL     1     139.094  69.613 224.986 -0.37 -0.00    +0.027 A  
DOCKED: ATOM     20  C   UNL     1     140.549  71.138 226.155 -0.62 -0.00    +0.000 A  
DOCKED: ATOM     21  C   UNL     1     139.735  70.038 226.146 -0.45 -0.01    +0.045 A  
DOCKED: ATOM     22  C   UNL     1     141.028  71.286 227.438 -0.72 -0.00    +0.028 A  
DOCKED: ATOM     23  N   UNL     1     139.674  69.480 227.365 -0.22 +0.05    -0.361 N  
DOCKED: ATOM     24  C   UNL     1     140.462  70.239 228.159 -0.54 -0.01    +0.083 A  
DOCKED: ATOM     25  H   UNL     1     139.131  68.633 227.646 +0.11 -0.02    +0.166 HD 
DOCKED: ENDBRANCH  13  16
DOCKED: ENDBRANCH  11  12
DOCKED: ENDBRANCH   1  11
DOCKED: TORSDOF 6
DOCKED: TER
DOCKED: ENDMDL
________________________________________________________________________________


    FINAL DOCKED STATE:
    ________________________


Run:   20 / 20
Time taken for this run:   0.021s

DOCKED: MODEL        20
DOCKED: USER    Run = 20
DOCKED: USER
DOCKED: USER    Estimated Free Energy of Binding    =  -7.49 kcal/mol  [=(1)+(2)+(3)-(4)]
DOCKED: USER
DOCKED: USER    (1) Final Intermolecular Energy     =  -9.28 kcal/mol
DOCKED: USER        vdW + Hbond + desolv Energy     =  -9.26 kcal/mol
DOCKED: USER        Electrostatic Energy            =  -0.02 kcal/mol
DOCKED: USER        Moving Ligand-Fixed Receptor    =  -9.28 kcal/mol
DOCKED: USER        Moving Ligand-Moving Receptor   =  +0.00 kcal/mol
DOCKED: USER    (2) Final Total Internal Energy     =  -0.69 kcal/mol
DOCKED: USER    (3) Torsional Free Energy           =  +1.79 kcal/mol
DOCKED: USER    (4) Unbound System's Energy         =  -0.69 kcal/mol
DOCKED: USER
DOCKED: USER
DOCKED: REMARK SMILES C[C@@H](CCNC(=S)c1ccc2[nH]ccc2c1)Cc1ccccc1
DOCKED: REMARK SMILES IDX 3 1 2 2 1 3 17 4 18 5 19 6 23 7 20 8 22 9 21 10 4 11 5 12
DOCKED: REMARK SMILES IDX 6 13 7 15 8 16 9 17 16 18 10 19 15 20 11 21 14 22 12 23
DOCKED: REMARK SMILES IDX 13 24
DOCKED: REMARK H PARENT 5 14 12 25
DOCKED: USER                              x       y       z     vdW  Elec       q    Type
DOCKED: USER                           _______ _______ _______ _____ _____    ______ ____
DOCKED: ROOT
DOCKED: ATOM      1  C   UNL     1     140.294  74.879 221.967 -0.19 -0.00    +0.025 C  
DOCKED: ENDROOT
DOCKED: BRANCH   1   2
DOCKED: ATOM      2  C   UNL     1     139.089  75.821 222.245 -0.31 +0.00    -0.008 C  
DOCKED: ATOM      3  C   UNL     1     137.735  75.158 221.944 -0.21 -0.00    +0.008 C  
DOCKED: BRANCH   2   4
DOCKED: ATOM      4  C   UNL     1     139.183  77.198 221.544 -0.22 -0.01    +0.039 C  
DOCKED: BRANCH   4   5
DOCKED: ATOM      5  C   UNL     1     140.038  78.194 222.297 -0.33 +0.01    -0.048 A  
DOCKED: ATOM      6  C   UNL     1     141.430  78.237 222.096 -0.42 -0.00    +0.004 A  
DOCKED: ATOM      7  C   UNL     1     139.445  79.132 223.162 -0.37 -0.00    +0.004 A  
DOCKED: ATOM      8  C   UNL     1     142.214  79.169 222.784 -0.57 -0.00    +0.000 A  
DOCKED: ATOM      9  C   UNL     1     140.234  80.061 223.846 -0.44 -0.00    +0.000 A  
DOCKED: ATOM     10  C   UNL     1     141.618  80.075 223.663 -0.59 -0.00    +0.000 A  
DOCKED: ENDBRANCH   4   5
DOCKED: ENDBRANCH   2   4
DOCKED: ENDBRANCH   1   2
DOCKED: BRANCH   1  11
DOCKED: ATOM     11  C   UNL     1     139.960  73.411 221.627 -0.24 -0.02    +0.114 C  
DOCKED: BRANCH  11  12
DOCKED: ATOM     12  N   UNL     1     139.867  72.571 222.823 -0.14 +0.06    -0.376 N  
DOCKED: ATOM     13  C   UNL     1     139.679  71.145 222.766 -0.25 -0.02    +0.106 C  
DOCKED: ATOM     14  H   UNL     1     139.818  73.032 223.755 -0.31 -0.04    +0.161 HD 
DOCKED: ATOM     15  S   UNL     1     139.400  70.394 221.327 -0.16 +0.01    -0.060 S  
DOCKED: BRANCH  13  16
DOCKED: ATOM     16  C   UNL     1     139.736  70.346 224.013 -0.34 -0.00    +0.010 A  
DOCKED: ATOM     17  C   UNL     1     139.176  69.040 224.070 -0.31 -0.00    +0.013 A  
DOCKED: ATOM     18  C   UNL     1     140.351  70.887 225.167 -0.51 -0.00    +0.021 A  
DOCKED: ATOM     19  C   UNL     1     139.221  68.288 225.258 -0.45 -0.00    +0.027 A  
DOCKED: ATOM     20  C   UNL     1     140.375  70.116 226.324 -0.55 -0.00    +0.000 A  
DOCKED: ATOM     21  C   UNL     1     139.829  68.862 226.371 -0.51 -0.01    +0.045 A  
DOCKED: ATOM     22  C   UNL     1     140.896  70.385 227.571 -0.60 -0.00    +0.028 A  
DOCKED: ATOM     23  N   UNL     1     139.979  68.321 227.591 -0.28 +0.07    -0.361 N  
DOCKED: ATOM     24  C   UNL     1     140.630  69.249 228.328 -0.56 -0.02    +0.083 A  
DOCKED: ATOM     25  H   UNL     1     139.659  67.379 227.908 -0.39 -0.05    +0.166 HD 
DOCKED: ENDBRANCH  13  16
DOCKED: ENDBRANCH  11  12
DOCKED: ENDBRANCH   1  11
DOCKED: TORSDOF 6
DOCKED: TER
DOCKED: ENDMDL
________________________________________________________________________________


    CLUSTERING HISTOGRAM
    ____________________


________________________________________________________________________________
     |           |     |           |     |
Clus | Lowest    | Run | Mean      | Num | Histogram
-ter | Binding   |     | Binding   | in  |
Rank | Energy    |     | Energy    | Clus|    5    10   15   20   25   30   35
_____|___________|_____|___________|_____|____:____|____:____|____:____|____:___
   1 |     -8.05 |  13 |     -7.80 |  12 |############
   2 |     -8.00 |   9 |     -7.75 |   6 |######
   3 |     -7.42 |  14 |     -7.42 |   1 |#
   4 |     -6.99 |  18 |     -6.99 |   1 |#
_____|___________|_____|___________|_____|______________________________________


    RMSD TABLE
    __________


_______________________________________________________________________
     |      |      |           |         |                 |
Rank | Sub- | Run  | Binding   | Cluster | Reference       | Grep
     | Rank |      | Energy    | RMSD    | RMSD            | Pattern
_____|______|______|___________|_________|_________________|___________
   1      1     13       -8.05      0.00    271.82           RANKING
   1      2     11       -7.99      1.14    271.53           RANKING
   1      3      4       -7.97      1.16    271.55           RANKING
   1      4     17       -7.90      1.13    271.43           RANKING
   1      5      7       -7.86      0.61    271.68           RANKING
   1      6     12       -7.85      0.63    271.68           RANKING
   1      7      6       -7.82      1.17    271.49           RANKING
   1      8      8       -7.81      0.73    271.61           RANKING
   1      9     15       -7.71      0.97    271.60           RANKING
   1     10     19       -7.59      0.62    271.65           RANKING
   1     11     20       -7.49      1.23    271.36           RANKING
   1     12      1       -7.49      1.04    271.49           RANKING
   2      1      9       -8.00      0.00    271.79           RANKING
   2      2      5       -7.85      0.74    271.83           RANKING
   2      3     16       -7.75      0.60    271.57           RANKING
   2      4      3       -7.71      0.79    271.51           RANKING
   2      5     10       -7.66      1.89    271.30           RANKING
   2      6      2       -7.53      1.65    271.30           RANKING
   3      1     14       -7.42      0.00    270.59           RANKING
   4      1     18       -6.99      0.00    270.63           RANKING

Run time 0.372 sec
Idle time 0.000 sec
