AutoDock-GPU version: v1.6

**********************************************************
**    AutoDock-GPU AUTODOCKTOOLS-COMPATIBLE DLG FILE    **
**********************************************************


    DOCKING PARAMETERS
    ________________________


Ligand file:                               /home/a/REINVENT4/ReinventStudies/pleaseWork/justRnve/graph-dock-t2iv78/graph-DockGPU/node-autodockgpu/inputs/NQSBUKBJQGHAOK-KACWNNEJNA-O.pdbqt
Grid fld file:                             /home/a/REINVENT4/ReinventStudies/mols/Rad51/maps/rad51_receptor.maps.fld

Random seed:                               42
Number of runs:                            20
Number of energy evaluations:              1613968
Number of generations:                     42000
Size of population:                        150
Rate of crossover:                         80.000000%
Tournament selection probability limit:    60.000000%
Rate of mutation:                          2.000000%
Maximal allowed delta movement:            +/- 6.000000A
Maximal allowed delta angle:               +/- 90.000000

Rate of local search:                      100.000000%
Maximal number of local search iterations: 300
Rho lower bound:                           0.010000
Spread of local search delta movement:     2.000000A
Spread of local search delta angle:        74.999999
Limit of consecutive successes/failures:   4

Handle symmetry during clustering:         YES
RMSD tolerance:                            2.000000A

Program call in command line was:          /home/a/REINVENT4/ReinventStudies/adgpu-v1.6_linux_x64_cuda12_128wi --filelist batch.txt --heuristics 1 --nrun 20 --psize 150 --lsit 300 --seed 42 --heurmax 12000000 


    GRID PARAMETERS
    ________________________


Receptor name:                             rad51_receptor
Number of grid points (x, y, z):           53, 53, 53
Grid center (x, y, z):                     139.950000, 75.640000, 221.970000A
Grid size (x, y, z):                       19.500000, 19.500000, 19.500000A
Grid spacing:                              0.375000A


    LIGAND PARAMETERS
    ________________________


Ligand name:                               /home/a/REINVENT4/ReinventStudies/pleaseWork/justRnve/graph-dock-t2iv78/graph-DockGPU/node-autodockgpu/inputs/NQSBUKBJQGHAOK-KACWNNEJNA-O
Number of atoms:                           26
Number of rotatable bonds:                 8
Number of atom types:                      5


    DUMMY DATA (only for ADT-compatibility)
    ________________________


DPF> outlev 1
DPF> ga_run 20
DPF> fld /home/a/REINVENT4/ReinventStudies/mols/Rad51/maps/rad51_receptor.maps.fld
DPF> move /home/a/REINVENT4/ReinventStudies/pleaseWork/justRnve/graph-dock-t2iv78/graph-DockGPU/node-autodockgpu/inputs/NQSBUKBJQGHAOK-KACWNNEJNA-O.pdbqt


    COUNTER STATES
    ________________________


Number of energy evaluations performed:    1030137
Number of generations used:                45


    INPUT LIGAND PDBQT FILE:
    ________________________


INPUT-LIGAND-PDBQT: REMARK SMILES C[C@H](CC/[NH+]=C(\S)c1ccc2[nH]ccc2c1)Cc1ccccc1
INPUT-LIGAND-PDBQT: REMARK SMILES IDX 4 1 5 2 6 4 7 5 8 7 9 8 16 9 10 10 15 11 11 12 14 13 12 14
INPUT-LIGAND-PDBQT: REMARK SMILES IDX 13 15 3 17 2 18 1 19 17 20 18 21 19 22 23 23 20 24 22 25
INPUT-LIGAND-PDBQT: REMARK SMILES IDX 21 26
INPUT-LIGAND-PDBQT: REMARK H PARENT 5 3 7 6 12 16
INPUT-LIGAND-PDBQT: ROOT
INPUT-LIGAND-PDBQT: ATOM      1  C   UNL     1      -0.554  -0.024  -2.466  1.00  0.00     0.349 C 
INPUT-LIGAND-PDBQT: ENDROOT
INPUT-LIGAND-PDBQT: BRANCH   1   2
INPUT-LIGAND-PDBQT: ATOM      2  N   UNL     1       0.732   0.364  -1.877  1.00  0.00    -0.236 N 
INPUT-LIGAND-PDBQT: ATOM      3  H   UNL     1       1.510  -0.333  -1.896  1.00  0.00     0.446 HD
INPUT-LIGAND-PDBQT: BRANCH   2   4
INPUT-LIGAND-PDBQT: ATOM      4  C   UNL     1       0.946   1.543  -1.353  1.00  0.00     0.237 C 
INPUT-LIGAND-PDBQT: BRANCH   4   5
INPUT-LIGAND-PDBQT: ATOM      5  S   UNL     1      -0.347   2.804  -1.344  1.00  0.00    -0.074 SA
INPUT-LIGAND-PDBQT: ATOM      6  H   UNL     1       0.041   3.292  -2.606  1.00  0.00     0.114 HD
INPUT-LIGAND-PDBQT: ENDBRANCH   4   5
INPUT-LIGAND-PDBQT: BRANCH   4   7
INPUT-LIGAND-PDBQT: ATOM      7  C   UNL     1       2.258   1.870  -0.741  1.00  0.00     0.053 A 
INPUT-LIGAND-PDBQT: ATOM      8  C   UNL     1       2.809   3.172  -0.884  1.00  0.00     0.018 A 
INPUT-LIGAND-PDBQT: ATOM      9  C   UNL     1       2.963   0.896   0.007  1.00  0.00     0.026 A 
INPUT-LIGAND-PDBQT: ATOM     10  C   UNL     1       4.047   3.499  -0.302  1.00  0.00     0.027 A 
INPUT-LIGAND-PDBQT: ATOM     11  C   UNL     1       4.185   1.256   0.569  1.00  0.00     0.000 A 
INPUT-LIGAND-PDBQT: ATOM     12  C   UNL     1       4.710   2.510   0.420  1.00  0.00     0.045 A 
INPUT-LIGAND-PDBQT: ATOM     13  C   UNL     1       5.069   0.528   1.335  1.00  0.00     0.028 A 
INPUT-LIGAND-PDBQT: ATOM     14  N   UNL     1       5.889   2.614   1.055  1.00  0.00    -0.361 N 
INPUT-LIGAND-PDBQT: ATOM     15  C   UNL     1       6.113   1.403   1.616  1.00  0.00     0.083 A 
INPUT-LIGAND-PDBQT: ATOM     16  H   UNL     1       6.507   3.454   1.109  1.00  0.00     0.166 HD
INPUT-LIGAND-PDBQT: ENDBRANCH   4   7
INPUT-LIGAND-PDBQT: ENDBRANCH   2   4
INPUT-LIGAND-PDBQT: ENDBRANCH   1   2
INPUT-LIGAND-PDBQT: BRANCH   1  17
INPUT-LIGAND-PDBQT: ATOM     17  C   UNL     1      -0.517  -1.480  -2.960  1.00  0.00     0.076 C 
INPUT-LIGAND-PDBQT: BRANCH  17  18
INPUT-LIGAND-PDBQT: ATOM     18  C   UNL     1      -1.885  -1.951  -3.526  1.00  0.00    -0.004 C 
INPUT-LIGAND-PDBQT: ATOM     19  C   UNL     1      -1.668  -2.864  -4.743  1.00  0.00     0.008 C 
INPUT-LIGAND-PDBQT: BRANCH  18  20
INPUT-LIGAND-PDBQT: ATOM     20  C   UNL     1      -2.733  -2.704  -2.471  1.00  0.00     0.039 C 
INPUT-LIGAND-PDBQT: BRANCH  20  21
INPUT-LIGAND-PDBQT: ATOM     21  C   UNL     1      -3.137  -1.825  -1.316  1.00  0.00    -0.048 A 
INPUT-LIGAND-PDBQT: ATOM     22  C   UNL     1      -2.476  -1.925  -0.079  1.00  0.00     0.004 A 
INPUT-LIGAND-PDBQT: ATOM     23  C   UNL     1      -4.151  -0.866  -1.479  1.00  0.00     0.004 A 
INPUT-LIGAND-PDBQT: ATOM     24  C   UNL     1      -2.825  -1.077   0.976  1.00  0.00     0.000 A 
INPUT-LIGAND-PDBQT: ATOM     25  C   UNL     1      -4.497  -0.021  -0.420  1.00  0.00     0.000 A 
INPUT-LIGAND-PDBQT: ATOM     26  C   UNL     1      -3.835  -0.125   0.806  1.00  0.00     0.000 A 
INPUT-LIGAND-PDBQT: ENDBRANCH  20  21
INPUT-LIGAND-PDBQT: ENDBRANCH  18  20
INPUT-LIGAND-PDBQT: ENDBRANCH  17  18
INPUT-LIGAND-PDBQT: ENDBRANCH   1  17
INPUT-LIGAND-PDBQT: TORSDOF 8


    FINAL DOCKED STATE:
    ________________________


Run:   1 / 20
Time taken for this run:   0.037s

DOCKED: MODEL        1
DOCKED: USER    Run = 1
DOCKED: USER
DOCKED: USER    Estimated Free Energy of Binding    =  -7.65 kcal/mol  [=(1)+(2)+(3)-(4)]
DOCKED: USER
DOCKED: USER    (1) Final Intermolecular Energy     = -10.03 kcal/mol
DOCKED: USER        vdW + Hbond + desolv Energy     =  -9.72 kcal/mol
DOCKED: USER        Electrostatic Energy            =  -0.31 kcal/mol
DOCKED: USER        Moving Ligand-Fixed Receptor    = -10.03 kcal/mol
DOCKED: USER        Moving Ligand-Moving Receptor   =  +0.00 kcal/mol
DOCKED: USER    (2) Final Total Internal Energy     =  -0.61 kcal/mol
DOCKED: USER    (3) Torsional Free Energy           =  +2.39 kcal/mol
DOCKED: USER    (4) Unbound System's Energy         =  -0.61 kcal/mol
DOCKED: USER
DOCKED: USER
DOCKED: REMARK SMILES C[C@H](CC/[NH+]=C(\S)c1ccc2[nH]ccc2c1)Cc1ccccc1
DOCKED: REMARK SMILES IDX 4 1 5 2 6 4 7 5 8 7 9 8 16 9 10 10 15 11 11 12 14 13 12 14
DOCKED: REMARK SMILES IDX 13 15 3 17 2 18 1 19 17 20 18 21 19 22 23 23 20 24 22 25
DOCKED: REMARK SMILES IDX 21 26
DOCKED: REMARK H PARENT 5 3 7 6 12 16
DOCKED: USER                              x       y       z     vdW  Elec       q    Type
DOCKED: USER                           _______ _______ _______ _____ _____    ______ ____
DOCKED: ROOT
DOCKED: ATOM      1  C   UNL     1     140.229  72.468 221.533 -0.14 -0.05    +0.349 C  
DOCKED: ENDROOT
DOCKED: BRANCH   1   2
DOCKED: ATOM      2  N   UNL     1     139.893  73.808 222.026 -0.19 +0.03    -0.236 N  
DOCKED: ATOM      3  H   UNL     1     139.122  73.895 222.725 -0.40 -0.15    +0.446 HD 
DOCKED: BRANCH   2   4
DOCKED: ATOM      4  C   UNL     1     140.530  74.885 221.645 -0.21 -0.04    +0.237 C  
DOCKED: BRANCH   4   5
DOCKED: ATOM      5  S   UNL     1     141.939  74.781 220.520 -0.34 +0.02    -0.074 SA 
DOCKED: ATOM      6  H   UNL     1     142.650  75.768 221.228 -0.47 -0.09    +0.114 HD 
DOCKED: ENDBRANCH   4   5
DOCKED: BRANCH   4   7
DOCKED: ATOM      7  C   UNL     1     140.101  76.224 222.120 -0.35 -0.01    +0.053 A  
DOCKED: ATOM      8  C   UNL     1     138.719  76.528 222.246 -0.30 -0.00    +0.018 A  
DOCKED: ATOM      9  C   UNL     1     141.062  77.203 222.470 -0.40 -0.01    +0.026 A  
DOCKED: ATOM     10  C   UNL     1     138.297  77.790 222.704 -0.27 -0.00    +0.027 A  
DOCKED: ATOM     11  C   UNL     1     140.608  78.440 222.920 -0.45 -0.00    +0.000 A  
DOCKED: ATOM     12  C   UNL     1     139.275  78.725 223.032 -0.32 -0.01    +0.045 A  
DOCKED: ATOM     13  C   UNL     1     141.304  79.557 223.326 -0.53 -0.01    +0.028 A  
DOCKED: ATOM     14  N   UNL     1     139.090  79.974 223.489 -0.16 +0.05    -0.361 N  
DOCKED: ATOM     15  C   UNL     1     140.329  80.488 223.670 -0.38 -0.01    +0.083 A  
DOCKED: ATOM     16  H   UNL     1     138.180  80.453 223.672 +0.07 -0.02    +0.166 HD 
DOCKED: ENDBRANCH   4   7
DOCKED: ENDBRANCH   2   4
DOCKED: ENDBRANCH   1   2
DOCKED: BRANCH   1  17
DOCKED: ATOM     17  C   UNL     1     139.179  71.437 221.983 -0.18 -0.01    +0.076 C  
DOCKED: BRANCH  17  18
DOCKED: ATOM     18  C   UNL     1     138.998  71.407 223.525 -0.29 +0.00    -0.004 C  
DOCKED: ATOM     19  C   UNL     1     137.548  71.039 223.880 -0.23 -0.00    +0.008 C  
DOCKED: BRANCH  18  20
DOCKED: ATOM     20  C   UNL     1     139.959  70.407 224.214 -0.36 -0.01    +0.039 C  
DOCKED: BRANCH  20  21
DOCKED: ATOM     21  C   UNL     1     140.254  70.777 225.644 -0.51 +0.01    -0.048 A  
DOCKED: ATOM     22  C   UNL     1     139.749  69.999 226.701 -0.50 -0.00    +0.004 A  
DOCKED: ATOM     23  C   UNL     1     141.075  71.880 225.934 -0.58 -0.00    +0.004 A  
DOCKED: ATOM     24  C   UNL     1     140.062  70.320 228.025 -0.64 -0.00    +0.000 A  
DOCKED: ATOM     25  C   UNL     1     141.384  72.198 227.260 -0.81 -0.00    +0.000 A  
DOCKED: ATOM     26  C   UNL     1     140.880  71.419 228.305 -0.75 -0.00    +0.000 A  
DOCKED: ENDBRANCH  20  21
DOCKED: ENDBRANCH  18  20
DOCKED: ENDBRANCH  17  18
DOCKED: ENDBRANCH   1  17
DOCKED: TORSDOF 8
DOCKED: TER
DOCKED: ENDMDL
________________________________________________________________________________


    FINAL DOCKED STATE:
    ________________________


Run:   2 / 20
Time taken for this run:   0.037s

DOCKED: MODEL        2
DOCKED: USER    Run = 2
DOCKED: USER
DOCKED: USER    Estimated Free Energy of Binding    =  -7.41 kcal/mol  [=(1)+(2)+(3)-(4)]
DOCKED: USER
DOCKED: USER    (1) Final Intermolecular Energy     =  -9.80 kcal/mol
DOCKED: USER        vdW + Hbond + desolv Energy     =  -9.42 kcal/mol
DOCKED: USER        Electrostatic Energy            =  -0.38 kcal/mol
DOCKED: USER        Moving Ligand-Fixed Receptor    =  -9.80 kcal/mol
DOCKED: USER        Moving Ligand-Moving Receptor   =  +0.00 kcal/mol
DOCKED: USER    (2) Final Total Internal Energy     =  -0.54 kcal/mol
DOCKED: USER    (3) Torsional Free Energy           =  +2.39 kcal/mol
DOCKED: USER    (4) Unbound System's Energy         =  -0.54 kcal/mol
DOCKED: USER
DOCKED: USER
DOCKED: REMARK SMILES C[C@H](CC/[NH+]=C(\S)c1ccc2[nH]ccc2c1)Cc1ccccc1
DOCKED: REMARK SMILES IDX 4 1 5 2 6 4 7 5 8 7 9 8 16 9 10 10 15 11 11 12 14 13 12 14
DOCKED: REMARK SMILES IDX 13 15 3 17 2 18 1 19 17 20 18 21 19 22 23 23 20 24 22 25
DOCKED: REMARK SMILES IDX 21 26
DOCKED: REMARK H PARENT 5 3 7 6 12 16
DOCKED: USER                              x       y       z     vdW  Elec       q    Type
DOCKED: USER                           _______ _______ _______ _____ _____    ______ ____
DOCKED: ROOT
DOCKED: ATOM      1  C   UNL     1     139.242  73.180 221.562 -0.12 -0.07    +0.349 C  
DOCKED: ENDROOT
DOCKED: BRANCH   1   2
DOCKED: ATOM      2  N   UNL     1     138.790  74.484 222.058 -0.14 +0.06    -0.236 N  
DOCKED: ATOM      3  H   UNL     1     138.455  74.544 223.045 -0.41 -0.28    +0.446 HD 
DOCKED: BRANCH   2   4
DOCKED: ATOM      4  C   UNL     1     138.809  75.568 221.325 -0.15 -0.05    +0.237 C  
DOCKED: BRANCH   4   5
DOCKED: ATOM      5  S   UNL     1     137.577  75.836 220.031 -0.05 +0.02    -0.074 SA 
DOCKED: ATOM      6  H   UNL     1     137.613  77.232 220.208 +0.02 -0.02    +0.114 HD 
DOCKED: ENDBRANCH   4   5
DOCKED: BRANCH   4   7
DOCKED: ATOM      7  C   UNL     1     139.840  76.611 221.548 -0.27 -0.01    +0.053 A  
DOCKED: ATOM      8  C   UNL     1     140.890  76.792 220.607 -0.24 -0.01    +0.018 A  
DOCKED: ATOM      9  C   UNL     1     139.778  77.449 222.688 -0.30 -0.01    +0.026 A  
DOCKED: ATOM     10  C   UNL     1     141.869  77.783 220.800 -0.29 -0.02    +0.027 A  
DOCKED: ATOM     11  C   UNL     1     140.764  78.419 222.845 -0.46 -0.00    +0.000 A  
DOCKED: ATOM     12  C   UNL     1     141.774  78.581 221.937 -0.39 -0.02    +0.045 A  
DOCKED: ATOM     13  C   UNL     1     140.948  79.359 223.836 -0.53 -0.01    +0.028 A  
DOCKED: ATOM     14  N   UNL     1     142.594  79.580 222.305 -0.24 +0.18    -0.361 N  
DOCKED: ATOM     15  C   UNL     1     142.092  80.058 223.467 -0.57 -0.02    +0.083 A  
DOCKED: ATOM     16  H   UNL     1     143.442  79.921 221.800 -0.44 -0.11    +0.166 HD 
DOCKED: ENDBRANCH   4   7
DOCKED: ENDBRANCH   2   4
DOCKED: ENDBRANCH   1   2
DOCKED: BRANCH   1  17
DOCKED: ATOM     17  C   UNL     1     140.400  72.637 222.416 -0.28 -0.01    +0.076 C  
DOCKED: BRANCH  17  18
DOCKED: ATOM     18  C   UNL     1     139.903  71.885 223.682 -0.31 +0.00    -0.004 C  
DOCKED: ATOM     19  C   UNL     1     138.812  70.872 223.302 -0.28 -0.00    +0.008 C  
DOCKED: BRANCH  18  20
DOCKED: ATOM     20  C   UNL     1     141.049  71.146 224.417 -0.25 -0.00    +0.039 C  
DOCKED: BRANCH  20  21
DOCKED: ATOM     21  C   UNL     1     140.645  70.663 225.785 -0.54 +0.01    -0.048 A  
DOCKED: ATOM     22  C   UNL     1     140.272  69.323 225.987 -0.50 -0.00    +0.004 A  
DOCKED: ATOM     23  C   UNL     1     140.678  71.541 226.882 -0.72 -0.00    +0.004 A  
DOCKED: ATOM     24  C   UNL     1     139.940  68.869 227.267 -0.62 -0.00    +0.000 A  
DOCKED: ATOM     25  C   UNL     1     140.344  71.083 228.160 -0.70 -0.00    +0.000 A  
DOCKED: ATOM     26  C   UNL     1     139.976  69.749 228.354 -0.61 -0.00    +0.000 A  
DOCKED: ENDBRANCH  20  21
DOCKED: ENDBRANCH  18  20
DOCKED: ENDBRANCH  17  18
DOCKED: ENDBRANCH   1  17
DOCKED: TORSDOF 8
DOCKED: TER
DOCKED: ENDMDL
________________________________________________________________________________


    FINAL DOCKED STATE:
    ________________________


Run:   3 / 20
Time taken for this run:   0.037s

DOCKED: MODEL        3
DOCKED: USER    Run = 3
DOCKED: USER
DOCKED: USER    Estimated Free Energy of Binding    =  -6.54 kcal/mol  [=(1)+(2)+(3)-(4)]
DOCKED: USER
DOCKED: USER    (1) Final Intermolecular Energy     =  -8.92 kcal/mol
DOCKED: USER        vdW + Hbond + desolv Energy     =  -7.94 kcal/mol
DOCKED: USER        Electrostatic Energy            =  -0.99 kcal/mol
DOCKED: USER        Moving Ligand-Fixed Receptor    =  -8.92 kcal/mol
DOCKED: USER        Moving Ligand-Moving Receptor   =  +0.00 kcal/mol
DOCKED: USER    (2) Final Total Internal Energy     =  -1.70 kcal/mol
DOCKED: USER    (3) Torsional Free Energy           =  +2.39 kcal/mol
DOCKED: USER    (4) Unbound System's Energy         =  -1.70 kcal/mol
DOCKED: USER
DOCKED: USER
DOCKED: REMARK SMILES C[C@H](CC/[NH+]=C(\S)c1ccc2[nH]ccc2c1)Cc1ccccc1
DOCKED: REMARK SMILES IDX 4 1 5 2 6 4 7 5 8 7 9 8 16 9 10 10 15 11 11 12 14 13 12 14
DOCKED: REMARK SMILES IDX 13 15 3 17 2 18 1 19 17 20 18 21 19 22 23 23 20 24 22 25
DOCKED: REMARK SMILES IDX 21 26
DOCKED: REMARK H PARENT 5 3 7 6 12 16
DOCKED: USER                              x       y       z     vdW  Elec       q    Type
DOCKED: USER                           _______ _______ _______ _____ _____    ______ ____
DOCKED: ROOT
DOCKED: ATOM      1  C   UNL     1     141.578  76.456 220.099 -0.13 -0.16    +0.349 C  
DOCKED: ENDROOT
DOCKED: BRANCH   1   2
DOCKED: ATOM      2  N   UNL     1     142.589  77.477 219.805 -0.18 +0.18    -0.236 N  
DOCKED: ATOM      3  H   UNL     1     143.381  77.590 220.477 -0.28 -0.55    +0.446 HD 
DOCKED: BRANCH   2   4
DOCKED: ATOM      4  C   UNL     1     142.549  78.228 218.735 -0.16 -0.18    +0.237 C  
DOCKED: BRANCH   4   5
DOCKED: ATOM      5  S   UNL     1     142.916  77.543 217.105 -0.31 +0.06    -0.074 SA 
DOCKED: ATOM      6  H   UNL     1     143.665  78.675 216.735 -0.48 -0.23    +0.114 HD 
DOCKED: ENDBRANCH   4   5
DOCKED: BRANCH   4   7
DOCKED: ATOM      7  C   UNL     1     142.190  79.665 218.835 -0.30 -0.04    +0.053 A  
DOCKED: ATOM      8  C   UNL     1     142.613  80.579 217.833 -0.34 -0.02    +0.018 A  
DOCKED: ATOM      9  C   UNL     1     141.406  80.134 219.917 -0.27 -0.01    +0.026 A  
DOCKED: ATOM     10  C   UNL     1     142.273  81.941 217.909 -0.28 -0.02    +0.027 A  
DOCKED: ATOM     11  C   UNL     1     141.087  81.489 219.959 -0.26 -0.00    +0.000 A  
DOCKED: ATOM     12  C   UNL     1     141.506  82.362 218.993 -0.22 -0.02    +0.045 A  
DOCKED: ATOM     13  C   UNL     1     140.350  82.209 220.873 -0.25 -0.01    +0.028 A  
DOCKED: ATOM     14  N   UNL     1     141.069  83.606 219.251 -0.07 +0.10    -0.361 N  
DOCKED: ATOM     15  C   UNL     1     140.362  83.517 220.401 -0.21 -0.02    +0.083 A  
DOCKED: ATOM     16  H   UNL     1     141.237  84.466 218.683 +0.04 -0.05    +0.166 HD 
DOCKED: ENDBRANCH   4   7
DOCKED: ENDBRANCH   2   4
DOCKED: ENDBRANCH   1   2
DOCKED: BRANCH   1  17
DOCKED: ATOM     17  C   UNL     1     140.180  77.085 220.225 -0.13 -0.02    +0.076 C  
DOCKED: BRANCH  17  18
DOCKED: ATOM     18  C   UNL     1     139.827  77.459 221.691 -0.29 +0.00    -0.004 C  
DOCKED: ATOM     19  C   UNL     1     138.819  76.451 222.266 -0.31 -0.00    +0.008 C  
DOCKED: BRANCH  18  20
DOCKED: ATOM     20  C   UNL     1     141.075  77.507 222.606 -0.41 -0.02    +0.039 C  
DOCKED: BRANCH  20  21
DOCKED: ATOM     21  C   UNL     1     141.447  78.911 223.008 -0.52 +0.02    -0.048 A  
DOCKED: ATOM     22  C   UNL     1     140.458  79.820 223.422 -0.47 -0.00    +0.004 A  
DOCKED: ATOM     23  C   UNL     1     142.795  79.311 223.013 -0.51 -0.00    +0.004 A  
DOCKED: ATOM     24  C   UNL     1     140.813  81.107 223.835 -0.37 -0.00    +0.000 A  
DOCKED: ATOM     25  C   UNL     1     143.144  80.600 223.427 -0.64 -0.00    +0.000 A  
DOCKED: ATOM     26  C   UNL     1     142.156  81.497 223.838 -0.60 -0.00    +0.000 A  
DOCKED: ENDBRANCH  20  21
DOCKED: ENDBRANCH  18  20
DOCKED: ENDBRANCH  17  18
DOCKED: ENDBRANCH   1  17
DOCKED: TORSDOF 8
DOCKED: TER
DOCKED: ENDMDL
________________________________________________________________________________


    FINAL DOCKED STATE:
    ________________________


Run:   4 / 20
Time taken for this run:   0.037s

DOCKED: MODEL        4
DOCKED: USER    Run = 4
DOCKED: USER
DOCKED: USER    Estimated Free Energy of Binding    =  -7.76 kcal/mol  [=(1)+(2)+(3)-(4)]
DOCKED: USER
DOCKED: USER    (1) Final Intermolecular Energy     = -10.15 kcal/mol
DOCKED: USER        vdW + Hbond + desolv Energy     =  -9.77 kcal/mol
DOCKED: USER        Electrostatic Energy            =  -0.38 kcal/mol
DOCKED: USER        Moving Ligand-Fixed Receptor    = -10.15 kcal/mol
DOCKED: USER        Moving Ligand-Moving Receptor   =  +0.00 kcal/mol
DOCKED: USER    (2) Final Total Internal Energy     =  -0.53 kcal/mol
DOCKED: USER    (3) Torsional Free Energy           =  +2.39 kcal/mol
DOCKED: USER    (4) Unbound System's Energy         =  -0.53 kcal/mol
DOCKED: USER
DOCKED: USER
DOCKED: REMARK SMILES C[C@H](CC/[NH+]=C(\S)c1ccc2[nH]ccc2c1)Cc1ccccc1
DOCKED: REMARK SMILES IDX 4 1 5 2 6 4 7 5 8 7 9 8 16 9 10 10 15 11 11 12 14 13 12 14
DOCKED: REMARK SMILES IDX 13 15 3 17 2 18 1 19 17 20 18 21 19 22 23 23 20 24 22 25
DOCKED: REMARK SMILES IDX 21 26
DOCKED: REMARK H PARENT 5 3 7 6 12 16
DOCKED: USER                              x       y       z     vdW  Elec       q    Type
DOCKED: USER                           _______ _______ _______ _____ _____    ______ ____
DOCKED: ROOT
DOCKED: ATOM      1  C   UNL     1     139.924  72.775 222.035 -0.16 -0.05    +0.349 C  
DOCKED: ENDROOT
DOCKED: BRANCH   1   2
DOCKED: ATOM      2  N   UNL     1     139.593  74.180 222.295 -0.14 +0.03    -0.236 N  
DOCKED: ATOM      3  H   UNL     1     138.765  74.385 222.898 -0.43 -0.22    +0.446 HD 
DOCKED: BRANCH   2   4
DOCKED: ATOM      4  C   UNL     1     140.299  75.175 221.824 -0.19 -0.04    +0.237 C  
DOCKED: BRANCH   4   5
DOCKED: ATOM      5  S   UNL     1     141.595  74.895 220.598 -0.33 +0.02    -0.074 SA 
DOCKED: ATOM      6  H   UNL     1     142.541  75.618 221.349 -0.48 -0.08    +0.114 HD 
DOCKED: ENDBRANCH   4   5
DOCKED: BRANCH   4   7
DOCKED: ATOM      7  C   UNL     1     140.043  76.564 222.279 -0.36 -0.01    +0.053 A  
DOCKED: ATOM      8  C   UNL     1     138.711  77.047 222.389 -0.30 -0.00    +0.018 A  
DOCKED: ATOM      9  C   UNL     1     141.121  77.414 222.628 -0.39 -0.01    +0.026 A  
DOCKED: ATOM     10  C   UNL     1     138.453  78.358 222.827 -0.27 -0.00    +0.027 A  
DOCKED: ATOM     11  C   UNL     1     140.827  78.705 223.058 -0.50 -0.00    +0.000 A  
DOCKED: ATOM     12  C   UNL     1     139.542  79.163 223.154 -0.36 -0.01    +0.045 A  
DOCKED: ATOM     13  C   UNL     1     141.659  79.728 223.458 -0.57 -0.01    +0.028 A  
DOCKED: ATOM     14  N   UNL     1     139.517  80.431 223.595 -0.17 +0.05    -0.361 N  
DOCKED: ATOM     15  C   UNL     1     140.810  80.782 223.782 -0.39 -0.01    +0.083 A  
DOCKED: ATOM     16  H   UNL     1     138.675  81.026 223.763 +0.07 -0.02    +0.166 HD 
DOCKED: ENDBRANCH   4   7
DOCKED: ENDBRANCH   2   4
DOCKED: ENDBRANCH   1   2
DOCKED: BRANCH   1  17
DOCKED: ATOM     17  C   UNL     1     138.697  71.872 222.244 -0.18 -0.02    +0.076 C  
DOCKED: BRANCH  17  18
DOCKED: ATOM     18  C   UNL     1     138.742  71.110 223.597 -0.30 +0.00    -0.004 C  
DOCKED: ATOM     19  C   UNL     1     137.948  69.798 223.493 -0.25 -0.00    +0.008 C  
DOCKED: BRANCH  18  20
DOCKED: ATOM     20  C   UNL     1     140.190  70.793 224.048 -0.36 -0.01    +0.039 C  
DOCKED: BRANCH  20  21
DOCKED: ATOM     21  C   UNL     1     140.349  70.813 225.546 -0.52 +0.01    -0.048 A  
DOCKED: ATOM     22  C   UNL     1     139.825  69.772 226.333 -0.50 -0.00    +0.004 A  
DOCKED: ATOM     23  C   UNL     1     141.061  71.853 226.167 -0.65 -0.00    +0.004 A  
DOCKED: ATOM     24  C   UNL     1     140.013  69.773 227.718 -0.62 -0.00    +0.000 A  
DOCKED: ATOM     25  C   UNL     1     141.246  71.850 227.553 -0.80 -0.00    +0.000 A  
DOCKED: ATOM     26  C   UNL     1     140.723  70.812 228.328 -0.62 -0.00    +0.000 A  
DOCKED: ENDBRANCH  20  21
DOCKED: ENDBRANCH  18  20
DOCKED: ENDBRANCH  17  18
DOCKED: ENDBRANCH   1  17
DOCKED: TORSDOF 8
DOCKED: TER
DOCKED: ENDMDL
________________________________________________________________________________


    FINAL DOCKED STATE:
    ________________________


Run:   5 / 20
Time taken for this run:   0.037s

DOCKED: MODEL        5
DOCKED: USER    Run = 5
DOCKED: USER
DOCKED: USER    Estimated Free Energy of Binding    =  -6.07 kcal/mol  [=(1)+(2)+(3)-(4)]
DOCKED: USER
DOCKED: USER    (1) Final Intermolecular Energy     =  -8.46 kcal/mol
DOCKED: USER        vdW + Hbond + desolv Energy     =  -7.69 kcal/mol
DOCKED: USER        Electrostatic Energy            =  -0.77 kcal/mol
DOCKED: USER        Moving Ligand-Fixed Receptor    =  -8.46 kcal/mol
DOCKED: USER        Moving Ligand-Moving Receptor   =  +0.00 kcal/mol
DOCKED: USER    (2) Final Total Internal Energy     =  -1.97 kcal/mol
DOCKED: USER    (3) Torsional Free Energy           =  +2.39 kcal/mol
DOCKED: USER    (4) Unbound System's Energy         =  -1.97 kcal/mol
DOCKED: USER
DOCKED: USER
DOCKED: REMARK SMILES C[C@H](CC/[NH+]=C(\S)c1ccc2[nH]ccc2c1)Cc1ccccc1
DOCKED: REMARK SMILES IDX 4 1 5 2 6 4 7 5 8 7 9 8 16 9 10 10 15 11 11 12 14 13 12 14
DOCKED: REMARK SMILES IDX 13 15 3 17 2 18 1 19 17 20 18 21 19 22 23 23 20 24 22 25
DOCKED: REMARK SMILES IDX 21 26
DOCKED: REMARK H PARENT 5 3 7 6 12 16
DOCKED: USER                              x       y       z     vdW  Elec       q    Type
DOCKED: USER                           _______ _______ _______ _____ _____    ______ ____
DOCKED: ROOT
DOCKED: ATOM      1  C   UNL     1     141.664  80.876 218.485 -0.15 -0.19    +0.349 C  
DOCKED: ENDROOT
DOCKED: BRANCH   1   2
DOCKED: ATOM      2  N   UNL     1     142.388  79.814 219.191 -0.14 +0.17    -0.236 N  
DOCKED: ATOM      3  H   UNL     1     143.087  80.095 219.915 +0.14 -0.35    +0.446 HD 
DOCKED: BRANCH   2   4
DOCKED: ATOM      4  C   UNL     1     142.181  78.543 218.966 -0.19 -0.16    +0.237 C  
DOCKED: BRANCH   4   5
DOCKED: ATOM      5  S   UNL     1     142.842  77.741 217.489 -0.31 +0.06    -0.074 SA 
DOCKED: ATOM      6  H   UNL     1     143.625  78.864 217.160 -0.51 -0.21    +0.114 HD 
DOCKED: ENDBRANCH   4   5
DOCKED: BRANCH   4   7
DOCKED: ATOM      7  C   UNL     1     141.404  77.723 219.929 -0.23 -0.03    +0.053 A  
DOCKED: ATOM      8  C   UNL     1     141.898  76.459 220.353 -0.28 -0.01    +0.018 A  
DOCKED: ATOM      9  C   UNL     1     140.176  78.199 220.449 -0.16 -0.01    +0.026 A  
DOCKED: ATOM     10  C   UNL     1     141.177  75.675 221.272 -0.32 -0.01    +0.027 A  
DOCKED: ATOM     11  C   UNL     1     139.491  77.395 221.357 -0.21 -0.00    +0.000 A  
DOCKED: ATOM     12  C   UNL     1     139.971  76.178 221.754 -0.32 -0.01    +0.045 A  
DOCKED: ATOM     13  C   UNL     1     138.298  77.602 222.015 -0.22 -0.01    +0.028 A  
DOCKED: ATOM     14  N   UNL     1     139.138  75.599 222.634 -0.13 +0.07    -0.361 N  
DOCKED: ATOM     15  C   UNL     1     138.113  76.467 222.796 -0.26 -0.02    +0.083 A  
DOCKED: ATOM     16  H   UNL     1     139.255  74.672 223.101 -0.54 -0.04    +0.166 HD 
DOCKED: ENDBRANCH   4   7
DOCKED: ENDBRANCH   2   4
DOCKED: ENDBRANCH   1   2
DOCKED: BRANCH   1  17
DOCKED: ATOM     17  C   UNL     1     141.758  82.209 219.247 -0.15 -0.03    +0.076 C  
DOCKED: BRANCH  17  18
DOCKED: ATOM     18  C   UNL     1     140.544  82.444 220.186 -0.24 +0.00    -0.004 C  
DOCKED: ATOM     19  C   UNL     1     139.554  81.274 220.075 -0.12 -0.00    +0.008 C  
DOCKED: BRANCH  18  20
DOCKED: ATOM     20  C   UNL     1     140.967  82.613 221.667 -0.30 -0.01    +0.039 C  
DOCKED: BRANCH  20  21
DOCKED: ATOM     21  C   UNL     1     141.255  81.297 222.342 -0.42 +0.01    -0.048 A  
DOCKED: ATOM     22  C   UNL     1     142.513  80.686 222.204 -0.51 -0.00    +0.004 A  
DOCKED: ATOM     23  C   UNL     1     140.280  80.690 223.152 -0.42 -0.00    +0.004 A  
DOCKED: ATOM     24  C   UNL     1     142.790  79.487 222.867 -0.58 -0.00    +0.000 A  
DOCKED: ATOM     25  C   UNL     1     140.562  79.490 223.812 -0.50 -0.00    +0.000 A  
DOCKED: ATOM     26  C   UNL     1     141.815  78.889 223.672 -0.62 -0.00    +0.000 A  
DOCKED: ENDBRANCH  20  21
DOCKED: ENDBRANCH  18  20
DOCKED: ENDBRANCH  17  18
DOCKED: ENDBRANCH   1  17
DOCKED: TORSDOF 8
DOCKED: TER
DOCKED: ENDMDL
________________________________________________________________________________


    FINAL DOCKED STATE:
    ________________________


Run:   6 / 20
Time taken for this run:   0.037s

DOCKED: MODEL        6
DOCKED: USER    Run = 6
DOCKED: USER
DOCKED: USER    Estimated Free Energy of Binding    =  -7.36 kcal/mol  [=(1)+(2)+(3)-(4)]
DOCKED: USER
DOCKED: USER    (1) Final Intermolecular Energy     =  -9.74 kcal/mol
DOCKED: USER        vdW + Hbond + desolv Energy     =  -9.52 kcal/mol
DOCKED: USER        Electrostatic Energy            =  -0.22 kcal/mol
DOCKED: USER        Moving Ligand-Fixed Receptor    =  -9.74 kcal/mol
DOCKED: USER        Moving Ligand-Moving Receptor   =  +0.00 kcal/mol
DOCKED: USER    (2) Final Total Internal Energy     =  -0.83 kcal/mol
DOCKED: USER    (3) Torsional Free Energy           =  +2.39 kcal/mol
DOCKED: USER    (4) Unbound System's Energy         =  -0.83 kcal/mol
DOCKED: USER
DOCKED: USER
DOCKED: REMARK SMILES C[C@H](CC/[NH+]=C(\S)c1ccc2[nH]ccc2c1)Cc1ccccc1
DOCKED: REMARK SMILES IDX 4 1 5 2 6 4 7 5 8 7 9 8 16 9 10 10 15 11 11 12 14 13 12 14
DOCKED: REMARK SMILES IDX 13 15 3 17 2 18 1 19 17 20 18 21 19 22 23 23 20 24 22 25
DOCKED: REMARK SMILES IDX 21 26
DOCKED: REMARK H PARENT 5 3 7 6 12 16
DOCKED: USER                              x       y       z     vdW  Elec       q    Type
DOCKED: USER                           _______ _______ _______ _____ _____    ______ ____
DOCKED: ROOT
DOCKED: ATOM      1  C   UNL     1     138.507  71.789 221.734 -0.07 -0.07    +0.349 C  
DOCKED: ENDROOT
DOCKED: BRANCH   1   2
DOCKED: ATOM      2  N   UNL     1     139.184  72.692 220.797 -0.05 +0.05    -0.236 N  
DOCKED: ATOM      3  H   UNL     1     138.899  72.661 219.793 +0.06 -0.08    +0.446 HD 
DOCKED: BRANCH   2   4
DOCKED: ATOM      4  C   UNL     1     140.107  73.541 221.171 -0.17 -0.04    +0.237 C  
DOCKED: BRANCH   4   5
DOCKED: ATOM      5  S   UNL     1     139.664  75.133 221.899 -0.44 +0.01    -0.074 SA 
DOCKED: ATOM      6  H   UNL     1     139.155  74.525 223.062 -0.57 -0.04    +0.114 HD 
DOCKED: ENDBRANCH   4   5
DOCKED: BRANCH   4   7
DOCKED: ATOM      7  C   UNL     1     141.545  73.209 221.016 -0.24 -0.01    +0.053 A  
DOCKED: ATOM      8  C   UNL     1     141.973  71.854 221.039 -0.22 -0.00    +0.018 A  
DOCKED: ATOM      9  C   UNL     1     142.501  74.236 220.823 -0.27 -0.01    +0.026 A  
DOCKED: ATOM     10  C   UNL     1     143.331  71.524 220.884 -0.24 -0.00    +0.027 A  
DOCKED: ATOM     11  C   UNL     1     143.836  73.871 220.673 -0.38 -0.00    +0.000 A  
DOCKED: ATOM     12  C   UNL     1     144.239  72.564 220.703 -0.37 -0.01    +0.045 A  
DOCKED: ATOM     13  C   UNL     1     144.959  74.643 220.471 -0.42 -0.01    +0.028 A  
DOCKED: ATOM     14  N   UNL     1     145.567  72.469 220.531 -0.19 +0.00    -0.361 N  
DOCKED: ATOM     15  C   UNL     1     146.013  73.739 220.389 -0.56 -0.00    +0.083 A  
DOCKED: ATOM     16  H   UNL     1     146.141  71.597 220.509 -0.41 +0.01    +0.166 HD 
DOCKED: ENDBRANCH   4   7
DOCKED: ENDBRANCH   2   4
DOCKED: ENDBRANCH   1   2
DOCKED: BRANCH   1  17
DOCKED: ATOM     17  C   UNL     1     139.294  71.668 223.049 -0.27 -0.02    +0.076 C  
DOCKED: BRANCH  17  18
DOCKED: ATOM     18  C   UNL     1     138.856  70.439 223.893 -0.32 +0.00    -0.004 C  
DOCKED: ATOM     19  C   UNL     1     138.190  69.388 222.991 -0.22 -0.00    +0.008 C  
DOCKED: BRANCH  18  20
DOCKED: ATOM     20  C   UNL     1     140.043  69.785 224.644 -0.31 -0.01    +0.039 C  
DOCKED: BRANCH  20  21
DOCKED: ATOM     21  C   UNL     1     140.370  70.487 225.936 -0.52 +0.01    -0.048 A  
DOCKED: ATOM     22  C   UNL     1     141.189  71.629 225.939 -0.61 -0.00    +0.004 A  
DOCKED: ATOM     23  C   UNL     1     139.822  70.029 227.146 -0.54 -0.00    +0.004 A  
DOCKED: ATOM     24  C   UNL     1     141.454  72.302 227.135 -0.79 -0.00    +0.000 A  
DOCKED: ATOM     25  C   UNL     1     140.091  70.705 228.340 -0.62 -0.00    +0.000 A  
DOCKED: ATOM     26  C   UNL     1     140.905  71.841 228.336 -0.77 -0.00    +0.000 A  
DOCKED: ENDBRANCH  20  21
DOCKED: ENDBRANCH  18  20
DOCKED: ENDBRANCH  17  18
DOCKED: ENDBRANCH   1  17
DOCKED: TORSDOF 8
DOCKED: TER
DOCKED: ENDMDL
________________________________________________________________________________


    FINAL DOCKED STATE:
    ________________________


Run:   7 / 20
Time taken for this run:   0.037s

DOCKED: MODEL        7
DOCKED: USER    Run = 7
DOCKED: USER
DOCKED: USER    Estimated Free Energy of Binding    =  -6.40 kcal/mol  [=(1)+(2)+(3)-(4)]
DOCKED: USER
DOCKED: USER    (1) Final Intermolecular Energy     =  -8.79 kcal/mol
DOCKED: USER        vdW + Hbond + desolv Energy     =  -7.80 kcal/mol
DOCKED: USER        Electrostatic Energy            =  -0.99 kcal/mol
DOCKED: USER        Moving Ligand-Fixed Receptor    =  -8.79 kcal/mol
DOCKED: USER        Moving Ligand-Moving Receptor   =  +0.00 kcal/mol
DOCKED: USER    (2) Final Total Internal Energy     =  -1.82 kcal/mol
DOCKED: USER    (3) Torsional Free Energy           =  +2.39 kcal/mol
DOCKED: USER    (4) Unbound System's Energy         =  -1.82 kcal/mol
DOCKED: USER
DOCKED: USER
DOCKED: REMARK SMILES C[C@H](CC/[NH+]=C(\S)c1ccc2[nH]ccc2c1)Cc1ccccc1
DOCKED: REMARK SMILES IDX 4 1 5 2 6 4 7 5 8 7 9 8 16 9 10 10 15 11 11 12 14 13 12 14
DOCKED: REMARK SMILES IDX 13 15 3 17 2 18 1 19 17 20 18 21 19 22 23 23 20 24 22 25
DOCKED: REMARK SMILES IDX 21 26
DOCKED: REMARK H PARENT 5 3 7 6 12 16
DOCKED: USER                              x       y       z     vdW  Elec       q    Type
DOCKED: USER                           _______ _______ _______ _____ _____    ______ ____
DOCKED: ROOT
DOCKED: ATOM      1  C   UNL     1     142.321  75.917 219.553 -0.15 -0.17    +0.349 C  
DOCKED: ENDROOT
DOCKED: BRANCH   1   2
DOCKED: ATOM      2  N   UNL     1     142.798  77.303 219.550 -0.18 +0.18    -0.236 N  
DOCKED: ATOM      3  H   UNL     1     143.321  77.644 220.388 -0.29 -0.54    +0.446 HD 
DOCKED: BRANCH   2   4
DOCKED: ATOM      4  C   UNL     1     142.615  78.115 218.541 -0.20 -0.18    +0.237 C  
DOCKED: BRANCH   4   5
DOCKED: ATOM      5  S   UNL     1     142.854  77.552 216.841 -0.29 +0.06    -0.074 SA 
DOCKED: ATOM      6  H   UNL     1     143.650  78.669 216.523 -0.44 -0.25    +0.114 HD 
DOCKED: ENDBRANCH   4   5
DOCKED: BRANCH   4   7
DOCKED: ATOM      7  C   UNL     1     142.194  79.520 218.769 -0.29 -0.04    +0.053 A  
DOCKED: ATOM      8  C   UNL     1     142.719  80.564 217.960 -0.33 -0.02    +0.018 A  
DOCKED: ATOM      9  C   UNL     1     141.252  79.831 219.779 -0.24 -0.01    +0.026 A  
DOCKED: ATOM     10  C   UNL     1     142.322  81.898 218.158 -0.26 -0.02    +0.027 A  
DOCKED: ATOM     11  C   UNL     1     140.883  81.163 219.946 -0.23 -0.00    +0.000 A  
DOCKED: ATOM     12  C   UNL     1     141.398  82.161 219.167 -0.23 -0.02    +0.045 A  
DOCKED: ATOM     13  C   UNL     1     140.001  81.745 220.830 -0.19 -0.01    +0.028 A  
DOCKED: ATOM     14  N   UNL     1     140.887  83.353 219.515 -0.08 +0.09    -0.361 N  
DOCKED: ATOM     15  C   UNL     1     140.031  83.103 220.533 -0.19 -0.02    +0.083 A  
DOCKED: ATOM     16  H   UNL     1     141.100  84.283 219.089 +0.04 -0.04    +0.166 HD 
DOCKED: ENDBRANCH   4   7
DOCKED: ENDBRANCH   2   4
DOCKED: ENDBRANCH   1   2
DOCKED: BRANCH   1  17
DOCKED: ATOM     17  C   UNL     1     141.393  75.656 220.752 -0.27 -0.03    +0.076 C  
DOCKED: BRANCH  17  18
DOCKED: ATOM     18  C   UNL     1     140.713  76.954 221.271 -0.32 +0.00    -0.004 C  
DOCKED: ATOM     19  C   UNL     1     139.189  76.858 221.099 -0.19 -0.00    +0.008 C  
DOCKED: BRANCH  18  20
DOCKED: ATOM     20  C   UNL     1     141.040  77.237 222.758 -0.33 -0.01    +0.039 C  
DOCKED: BRANCH  20  21
DOCKED: ATOM     21  C   UNL     1     141.368  78.685 223.014 -0.51 +0.02    -0.048 A  
DOCKED: ATOM     22  C   UNL     1     140.404  79.548 223.564 -0.48 -0.00    +0.004 A  
DOCKED: ATOM     23  C   UNL     1     142.657  79.176 222.745 -0.49 -0.00    +0.004 A  
DOCKED: ATOM     24  C   UNL     1     140.727  80.880 223.841 -0.42 -0.00    +0.000 A  
DOCKED: ATOM     25  C   UNL     1     142.975  80.509 223.023 -0.65 -0.00    +0.000 A  
DOCKED: ATOM     26  C   UNL     1     142.012  81.360 223.570 -0.59 -0.00    +0.000 A  
DOCKED: ENDBRANCH  20  21
DOCKED: ENDBRANCH  18  20
DOCKED: ENDBRANCH  17  18
DOCKED: ENDBRANCH   1  17
DOCKED: TORSDOF 8
DOCKED: TER
DOCKED: ENDMDL
________________________________________________________________________________


    FINAL DOCKED STATE:
    ________________________


Run:   8 / 20
Time taken for this run:   0.037s

DOCKED: MODEL        8
DOCKED: USER    Run = 8
DOCKED: USER
DOCKED: USER    Estimated Free Energy of Binding    =  -7.43 kcal/mol  [=(1)+(2)+(3)-(4)]
DOCKED: USER
DOCKED: USER    (1) Final Intermolecular Energy     =  -9.82 kcal/mol
DOCKED: USER        vdW + Hbond + desolv Energy     =  -9.49 kcal/mol
DOCKED: USER        Electrostatic Energy            =  -0.33 kcal/mol
DOCKED: USER        Moving Ligand-Fixed Receptor    =  -9.82 kcal/mol
DOCKED: USER        Moving Ligand-Moving Receptor   =  +0.00 kcal/mol
DOCKED: USER    (2) Final Total Internal Energy     =  -0.54 kcal/mol
DOCKED: USER    (3) Torsional Free Energy           =  +2.39 kcal/mol
DOCKED: USER    (4) Unbound System's Energy         =  -0.54 kcal/mol
DOCKED: USER
DOCKED: USER
DOCKED: REMARK SMILES C[C@H](CC/[NH+]=C(\S)c1ccc2[nH]ccc2c1)Cc1ccccc1
DOCKED: REMARK SMILES IDX 4 1 5 2 6 4 7 5 8 7 9 8 16 9 10 10 15 11 11 12 14 13 12 14
DOCKED: REMARK SMILES IDX 13 15 3 17 2 18 1 19 17 20 18 21 19 22 23 23 20 24 22 25
DOCKED: REMARK SMILES IDX 21 26
DOCKED: REMARK H PARENT 5 3 7 6 12 16
DOCKED: USER                              x       y       z     vdW  Elec       q    Type
DOCKED: USER                           _______ _______ _______ _____ _____    ______ ____
DOCKED: ROOT
DOCKED: ATOM      1  C   UNL     1     140.110  72.983 222.144 -0.15 -0.04    +0.349 C  
DOCKED: ENDROOT
DOCKED: BRANCH   1   2
DOCKED: ATOM      2  N   UNL     1     139.380  74.254 222.204 -0.15 +0.04    -0.236 N  
DOCKED: ATOM      3  H   UNL     1     138.789  74.441 223.046 -0.42 -0.25    +0.446 HD 
DOCKED: BRANCH   2   4
DOCKED: ATOM      4  C   UNL     1     139.456  75.161 221.265 -0.17 -0.05    +0.237 C  
DOCKED: BRANCH   4   5
DOCKED: ATOM      5  S   UNL     1     138.519  74.989 219.730 -0.06 +0.02    -0.074 SA 
DOCKED: ATOM      6  H   UNL     1     139.662  75.222 218.941 +0.02 -0.03    +0.114 HD 
DOCKED: ENDBRANCH   4   5
DOCKED: BRANCH   4   7
DOCKED: ATOM      7  C   UNL     1     140.307  76.364 221.444 -0.29 -0.02    +0.053 A  
DOCKED: ATOM      8  C   UNL     1     141.146  76.810 220.388 -0.24 -0.01    +0.018 A  
DOCKED: ATOM      9  C   UNL     1     140.277  77.089 222.660 -0.33 -0.01    +0.026 A  
DOCKED: ATOM     10  C   UNL     1     141.951  77.953 220.540 -0.28 -0.02    +0.027 A  
DOCKED: ATOM     11  C   UNL     1     141.087  78.216 222.774 -0.50 -0.00    +0.000 A  
DOCKED: ATOM     12  C   UNL     1     141.896  78.633 221.754 -0.37 -0.03    +0.045 A  
DOCKED: ATOM     13  C   UNL     1     141.255  79.098 223.819 -0.56 -0.01    +0.028 A  
DOCKED: ATOM     14  N   UNL     1     142.573  79.740 222.101 -0.22 +0.18    -0.361 N  
DOCKED: ATOM     15  C   UNL     1     142.184  80.028 223.365 -0.57 -0.02    +0.083 A  
DOCKED: ATOM     16  H   UNL     1     143.257  80.273 221.519 -0.35 -0.09    +0.166 HD 
DOCKED: ENDBRANCH   4   7
DOCKED: ENDBRANCH   2   4
DOCKED: ENDBRANCH   1   2
DOCKED: BRANCH   1  17
DOCKED: ATOM     17  C   UNL     1     139.148  71.789 222.264 -0.21 -0.02    +0.076 C  
DOCKED: BRANCH  17  18
DOCKED: ATOM     18  C   UNL     1     138.904  71.368 223.740 -0.27 +0.00    -0.004 C  
DOCKED: ATOM     19  C   UNL     1     137.545  70.663 223.871 -0.25 -0.00    +0.008 C  
DOCKED: BRANCH  18  20
DOCKED: ATOM     20  C   UNL     1     140.015  70.433 224.279 -0.37 -0.01    +0.039 C  
DOCKED: BRANCH  20  21
DOCKED: ATOM     21  C   UNL     1     140.361  70.713 225.718 -0.52 +0.01    -0.048 A  
DOCKED: ATOM     22  C   UNL     1     140.093  69.757 226.714 -0.54 -0.00    +0.004 A  
DOCKED: ATOM     23  C   UNL     1     140.996  71.915 226.072 -0.58 -0.00    +0.004 A  
DOCKED: ATOM     24  C   UNL     1     140.456  70.002 228.042 -0.62 -0.00    +0.000 A  
DOCKED: ATOM     25  C   UNL     1     141.355  72.157 227.402 -0.81 -0.00    +0.000 A  
DOCKED: ATOM     26  C   UNL     1     141.087  71.202 228.386 -0.64 -0.00    +0.000 A  
DOCKED: ENDBRANCH  20  21
DOCKED: ENDBRANCH  18  20
DOCKED: ENDBRANCH  17  18
DOCKED: ENDBRANCH   1  17
DOCKED: TORSDOF 8
DOCKED: TER
DOCKED: ENDMDL
________________________________________________________________________________


    FINAL DOCKED STATE:
    ________________________


Run:   9 / 20
Time taken for this run:   0.037s

DOCKED: MODEL        9
DOCKED: USER    Run = 9
DOCKED: USER
DOCKED: USER    Estimated Free Energy of Binding    =  -6.43 kcal/mol  [=(1)+(2)+(3)-(4)]
DOCKED: USER
DOCKED: USER    (1) Final Intermolecular Energy     =  -8.82 kcal/mol
DOCKED: USER        vdW + Hbond + desolv Energy     =  -7.82 kcal/mol
DOCKED: USER        Electrostatic Energy            =  -1.00 kcal/mol
DOCKED: USER        Moving Ligand-Fixed Receptor    =  -8.82 kcal/mol
DOCKED: USER        Moving Ligand-Moving Receptor   =  +0.00 kcal/mol
DOCKED: USER    (2) Final Total Internal Energy     =  -1.79 kcal/mol
DOCKED: USER    (3) Torsional Free Energy           =  +2.39 kcal/mol
DOCKED: USER    (4) Unbound System's Energy         =  -1.79 kcal/mol
DOCKED: USER
DOCKED: USER
DOCKED: REMARK SMILES C[C@H](CC/[NH+]=C(\S)c1ccc2[nH]ccc2c1)Cc1ccccc1
DOCKED: REMARK SMILES IDX 4 1 5 2 6 4 7 5 8 7 9 8 16 9 10 10 15 11 11 12 14 13 12 14
DOCKED: REMARK SMILES IDX 13 15 3 17 2 18 1 19 17 20 18 21 19 22 23 23 20 24 22 25
DOCKED: REMARK SMILES IDX 21 26
DOCKED: REMARK H PARENT 5 3 7 6 12 16
DOCKED: USER                              x       y       z     vdW  Elec       q    Type
DOCKED: USER                           _______ _______ _______ _____ _____    ______ ____
DOCKED: ROOT
DOCKED: ATOM      1  C   UNL     1     142.305  75.928 219.545 -0.15 -0.17    +0.349 C  
DOCKED: ENDROOT
DOCKED: BRANCH   1   2
DOCKED: ATOM      2  N   UNL     1     142.802  77.308 219.536 -0.18 +0.18    -0.236 N  
DOCKED: ATOM      3  H   UNL     1     143.323  77.647 220.376 -0.29 -0.54    +0.446 HD 
DOCKED: BRANCH   2   4
DOCKED: ATOM      4  C   UNL     1     142.639  78.115 218.520 -0.19 -0.18    +0.237 C  
DOCKED: BRANCH   4   5
DOCKED: ATOM      5  S   UNL     1     142.873  77.534 216.825 -0.29 +0.06    -0.074 SA 
DOCKED: ATOM      6  H   UNL     1     143.677  78.641 216.496 -0.44 -0.25    +0.114 HD 
DOCKED: ENDBRANCH   4   5
DOCKED: BRANCH   4   7
DOCKED: ATOM      7  C   UNL     1     142.246  79.530 218.735 -0.29 -0.04    +0.053 A  
DOCKED: ATOM      8  C   UNL     1     142.759  80.551 217.891 -0.33 -0.02    +0.018 A  
DOCKED: ATOM      9  C   UNL     1     141.342  79.873 219.769 -0.25 -0.01    +0.026 A  
DOCKED: ATOM     10  C   UNL     1     142.388  81.895 218.077 -0.26 -0.02    +0.027 A  
DOCKED: ATOM     11  C   UNL     1     140.997  81.213 219.923 -0.25 -0.00    +0.000 A  
DOCKED: ATOM     12  C   UNL     1     141.502  82.190 219.110 -0.22 -0.02    +0.045 A  
DOCKED: ATOM     13  C   UNL     1     140.153  81.824 220.825 -0.21 -0.01    +0.028 A  
DOCKED: ATOM     14  N   UNL     1     141.019  83.395 219.452 -0.07 +0.10    -0.361 N  
DOCKED: ATOM     15  C   UNL     1     140.193  83.176 220.502 -0.20 -0.02    +0.083 A  
DOCKED: ATOM     16  H   UNL     1     141.232  84.313 219.003 +0.04 -0.04    +0.166 HD 
DOCKED: ENDBRANCH   4   7
DOCKED: ENDBRANCH   2   4
DOCKED: ENDBRANCH   1   2
DOCKED: BRANCH   1  17
DOCKED: ATOM     17  C   UNL     1     141.353  75.693 220.729 -0.26 -0.03    +0.076 C  
DOCKED: BRANCH  17  18
DOCKED: ATOM     18  C   UNL     1     140.727  77.012 221.260 -0.32 +0.00    -0.004 C  
DOCKED: ATOM     19  C   UNL     1     139.199  76.977 221.095 -0.18 -0.00    +0.008 C  
DOCKED: BRANCH  18  20
DOCKED: ATOM     20  C   UNL     1     141.071  77.273 222.748 -0.35 -0.01    +0.039 C  
DOCKED: BRANCH  20  21
DOCKED: ATOM     21  C   UNL     1     141.409  78.715 223.021 -0.52 +0.02    -0.048 A  
DOCKED: ATOM     22  C   UNL     1     140.440  79.586 223.551 -0.48 -0.00    +0.004 A  
DOCKED: ATOM     23  C   UNL     1     142.710  79.193 222.789 -0.47 -0.00    +0.004 A  
DOCKED: ATOM     24  C   UNL     1     140.770  80.912 223.844 -0.42 -0.00    +0.000 A  
DOCKED: ATOM     25  C   UNL     1     143.035  80.520 223.084 -0.65 -0.00    +0.000 A  
DOCKED: ATOM     26  C   UNL     1     142.067  81.379 223.611 -0.60 -0.00    +0.000 A  
DOCKED: ENDBRANCH  20  21
DOCKED: ENDBRANCH  18  20
DOCKED: ENDBRANCH  17  18
DOCKED: ENDBRANCH   1  17
DOCKED: TORSDOF 8
DOCKED: TER
DOCKED: ENDMDL
________________________________________________________________________________


    FINAL DOCKED STATE:
    ________________________


Run:   10 / 20
Time taken for this run:   0.037s

DOCKED: MODEL        10
DOCKED: USER    Run = 10
DOCKED: USER
DOCKED: USER    Estimated Free Energy of Binding    =  -6.38 kcal/mol  [=(1)+(2)+(3)-(4)]
DOCKED: USER
DOCKED: USER    (1) Final Intermolecular Energy     =  -8.76 kcal/mol
DOCKED: USER        vdW + Hbond + desolv Energy     =  -7.76 kcal/mol
DOCKED: USER        Electrostatic Energy            =  -1.01 kcal/mol
DOCKED: USER        Moving Ligand-Fixed Receptor    =  -8.76 kcal/mol
DOCKED: USER        Moving Ligand-Moving Receptor   =  +0.00 kcal/mol
DOCKED: USER    (2) Final Total Internal Energy     =  -1.83 kcal/mol
DOCKED: USER    (3) Torsional Free Energy           =  +2.39 kcal/mol
DOCKED: USER    (4) Unbound System's Energy         =  -1.83 kcal/mol
DOCKED: USER
DOCKED: USER
DOCKED: REMARK SMILES C[C@H](CC/[NH+]=C(\S)c1ccc2[nH]ccc2c1)Cc1ccccc1
DOCKED: REMARK SMILES IDX 4 1 5 2 6 4 7 5 8 7 9 8 16 9 10 10 15 11 11 12 14 13 12 14
DOCKED: REMARK SMILES IDX 13 15 3 17 2 18 1 19 17 20 18 21 19 22 23 23 20 24 22 25
DOCKED: REMARK SMILES IDX 21 26
DOCKED: REMARK H PARENT 5 3 7 6 12 16
DOCKED: USER                              x       y       z     vdW  Elec       q    Type
DOCKED: USER                           _______ _______ _______ _____ _____    ______ ____
DOCKED: ROOT
DOCKED: ATOM      1  C   UNL     1     142.360  75.862 219.525 -0.15 -0.17    +0.349 C  
DOCKED: ENDROOT
DOCKED: BRANCH   1   2
DOCKED: ATOM      2  N   UNL     1     142.934  77.211 219.457 -0.21 +0.18    -0.236 N  
DOCKED: ATOM      3  H   UNL     1     143.559  77.517 220.236 -0.31 -0.54    +0.446 HD 
DOCKED: BRANCH   2   4
DOCKED: ATOM      4  C   UNL     1     142.712  78.027 218.460 -0.18 -0.18    +0.237 C  
DOCKED: BRANCH   4   5
DOCKED: ATOM      5  S   UNL     1     142.909  77.481 216.750 -0.28 +0.06    -0.074 SA 
DOCKED: ATOM      6  H   UNL     1     143.653  78.626 216.410 -0.42 -0.25    +0.114 HD 
DOCKED: ENDBRANCH   4   5
DOCKED: BRANCH   4   7
DOCKED: ATOM      7  C   UNL     1     142.280  79.425 218.712 -0.28 -0.04    +0.053 A  
DOCKED: ATOM      8  C   UNL     1     142.838  80.492 217.958 -0.32 -0.02    +0.018 A  
DOCKED: ATOM      9  C   UNL     1     141.295  79.706 219.689 -0.24 -0.01    +0.026 A  
DOCKED: ATOM     10  C   UNL     1     142.432  81.821 218.179 -0.25 -0.02    +0.027 A  
DOCKED: ATOM     11  C   UNL     1     140.917  81.033 219.879 -0.23 -0.00    +0.000 A  
DOCKED: ATOM     12  C   UNL     1     141.465  82.054 219.153 -0.23 -0.02    +0.045 A  
DOCKED: ATOM     13  C   UNL     1     139.997  81.589 220.742 -0.18 -0.01    +0.028 A  
DOCKED: ATOM     14  N   UNL     1     140.938  83.235 219.514 -0.08 +0.10    -0.361 N  
DOCKED: ATOM     15  C   UNL     1     140.039  82.955 220.487 -0.19 -0.02    +0.083 A  
DOCKED: ATOM     16  H   UNL     1     141.169  84.177 219.126 +0.04 -0.04    +0.166 HD 
DOCKED: ENDBRANCH   4   7
DOCKED: ENDBRANCH   2   4
DOCKED: ENDBRANCH   1   2
DOCKED: BRANCH   1  17
DOCKED: ATOM     17  C   UNL     1     141.514  75.687 220.798 -0.27 -0.03    +0.076 C  
DOCKED: BRANCH  17  18
DOCKED: ATOM     18  C   UNL     1     140.762  76.986 221.196 -0.31 +0.00    -0.004 C  
DOCKED: ATOM     19  C   UNL     1     139.291  76.902 220.757 -0.15 -0.00    +0.008 C  
DOCKED: BRANCH  18  20
DOCKED: ATOM     20  C   UNL     1     140.822  77.260 222.719 -0.36 -0.01    +0.039 C  
DOCKED: BRANCH  20  21
DOCKED: ATOM     21  C   UNL     1     141.265  78.664 223.039 -0.51 +0.02    -0.048 A  
DOCKED: ATOM     22  C   UNL     1     142.580  79.078 222.759 -0.49 -0.00    +0.004 A  
DOCKED: ATOM     23  C   UNL     1     140.355  79.586 223.582 -0.47 -0.00    +0.004 A  
DOCKED: ATOM     24  C   UNL     1     142.973  80.394 223.017 -0.65 -0.00    +0.000 A  
DOCKED: ATOM     25  C   UNL     1     140.754  80.901 223.840 -0.42 -0.00    +0.000 A  
DOCKED: ATOM     26  C   UNL     1     142.061  81.306 223.557 -0.61 -0.00    +0.000 A  
DOCKED: ENDBRANCH  20  21
DOCKED: ENDBRANCH  18  20
DOCKED: ENDBRANCH  17  18
DOCKED: ENDBRANCH   1  17
DOCKED: TORSDOF 8
DOCKED: TER
DOCKED: ENDMDL
________________________________________________________________________________


    FINAL DOCKED STATE:
    ________________________


Run:   11 / 20
Time taken for this run:   0.037s

DOCKED: MODEL        11
DOCKED: USER    Run = 11
DOCKED: USER
DOCKED: USER    Estimated Free Energy of Binding    =  -7.74 kcal/mol  [=(1)+(2)+(3)-(4)]
DOCKED: USER
DOCKED: USER    (1) Final Intermolecular Energy     = -10.12 kcal/mol
DOCKED: USER        vdW + Hbond + desolv Energy     =  -9.71 kcal/mol
DOCKED: USER        Electrostatic Energy            =  -0.41 kcal/mol
DOCKED: USER        Moving Ligand-Fixed Receptor    = -10.12 kcal/mol
DOCKED: USER        Moving Ligand-Moving Receptor   =  +0.00 kcal/mol
DOCKED: USER    (2) Final Total Internal Energy     =  -0.59 kcal/mol
DOCKED: USER    (3) Torsional Free Energy           =  +2.39 kcal/mol
DOCKED: USER    (4) Unbound System's Energy         =  -0.59 kcal/mol
DOCKED: USER
DOCKED: USER
DOCKED: REMARK SMILES C[C@H](CC/[NH+]=C(\S)c1ccc2[nH]ccc2c1)Cc1ccccc1
DOCKED: REMARK SMILES IDX 4 1 5 2 6 4 7 5 8 7 9 8 16 9 10 10 15 11 11 12 14 13 12 14
DOCKED: REMARK SMILES IDX 13 15 3 17 2 18 1 19 17 20 18 21 19 22 23 23 20 24 22 25
DOCKED: REMARK SMILES IDX 21 26
DOCKED: REMARK H PARENT 5 3 7 6 12 16
DOCKED: USER                              x       y       z     vdW  Elec       q    Type
DOCKED: USER                           _______ _______ _______ _____ _____    ______ ____
DOCKED: ROOT
DOCKED: ATOM      1  C   UNL     1     139.106  73.167 221.732 -0.12 -0.08    +0.349 C  
DOCKED: ENDROOT
DOCKED: BRANCH   1   2
DOCKED: ATOM      2  N   UNL     1     139.173  74.520 222.295 -0.14 +0.05    -0.236 N  
DOCKED: ATOM      3  H   UNL     1     138.464  74.787 223.014 -0.39 -0.24    +0.446 HD 
DOCKED: BRANCH   2   4
DOCKED: ATOM      4  C   UNL     1     140.088  75.388 221.950 -0.21 -0.04    +0.237 C  
DOCKED: BRANCH   4   5
DOCKED: ATOM      5  S   UNL     1     141.480  74.905 220.906 -0.37 +0.02    -0.074 SA 
DOCKED: ATOM      6  H   UNL     1     142.374  75.726 221.618 -0.53 -0.08    +0.114 HD 
DOCKED: ENDBRANCH   4   5
DOCKED: BRANCH   4   7
DOCKED: ATOM      7  C   UNL     1     139.998  76.799 222.401 -0.35 -0.01    +0.053 A  
DOCKED: ATOM      8  C   UNL     1     138.729  77.416 222.571 -0.29 -0.00    +0.018 A  
DOCKED: ATOM      9  C   UNL     1     141.173  77.538 222.685 -0.38 -0.01    +0.026 A  
DOCKED: ATOM     10  C   UNL     1     138.628  78.749 223.006 -0.29 -0.00    +0.027 A  
DOCKED: ATOM     11  C   UNL     1     141.034  78.855 223.114 -0.52 -0.00    +0.000 A  
DOCKED: ATOM     12  C   UNL     1     139.808  79.441 223.268 -0.39 -0.01    +0.045 A  
DOCKED: ATOM     13  C   UNL     1     141.984  79.790 223.460 -0.60 -0.01    +0.028 A  
DOCKED: ATOM     14  N   UNL     1     139.934  80.709 223.695 -0.17 +0.04    -0.361 N  
DOCKED: ATOM     15  C   UNL     1     141.264  80.927 223.813 -0.45 -0.01    +0.083 A  
DOCKED: ATOM     16  H   UNL     1     139.167  81.388 223.898 +0.08 -0.01    +0.166 HD 
DOCKED: ENDBRANCH   4   7
DOCKED: ENDBRANCH   2   4
DOCKED: ENDBRANCH   1   2
DOCKED: BRANCH   1  17
DOCKED: ATOM     17  C   UNL     1     138.434  72.194 222.715 -0.10 -0.02    +0.076 C  
DOCKED: BRANCH  17  18
DOCKED: ATOM     18  C   UNL     1     139.389  71.056 223.170 -0.31 +0.00    -0.004 C  
DOCKED: ATOM     19  C   UNL     1     139.940  70.306 221.947 -0.12 -0.00    +0.008 C  
DOCKED: BRANCH  18  20
DOCKED: ATOM     20  C   UNL     1     140.572  71.582 224.020 -0.36 -0.00    +0.039 C  
DOCKED: BRANCH  20  21
DOCKED: ATOM     21  C   UNL     1     140.502  71.131 225.456 -0.53 +0.01    -0.048 A  
DOCKED: ATOM     22  C   UNL     1     139.894  69.908 225.790 -0.47 -0.00    +0.004 A  
DOCKED: ATOM     23  C   UNL     1     141.083  71.911 226.470 -0.71 -0.00    +0.004 A  
DOCKED: ATOM     24  C   UNL     1     139.871  69.473 227.118 -0.57 -0.00    +0.000 A  
DOCKED: ATOM     25  C   UNL     1     141.056  71.472 227.797 -0.80 -0.00    +0.000 A  
DOCKED: ATOM     26  C   UNL     1     140.451  70.255 228.122 -0.62 -0.00    +0.000 A  
DOCKED: ENDBRANCH  20  21
DOCKED: ENDBRANCH  18  20
DOCKED: ENDBRANCH  17  18
DOCKED: ENDBRANCH   1  17
DOCKED: TORSDOF 8
DOCKED: TER
DOCKED: ENDMDL
________________________________________________________________________________


    FINAL DOCKED STATE:
    ________________________


Run:   12 / 20
Time taken for this run:   0.037s

DOCKED: MODEL        12
DOCKED: USER    Run = 12
DOCKED: USER
DOCKED: USER    Estimated Free Energy of Binding    =  -6.02 kcal/mol  [=(1)+(2)+(3)-(4)]
DOCKED: USER
DOCKED: USER    (1) Final Intermolecular Energy     =  -8.41 kcal/mol
DOCKED: USER        vdW + Hbond + desolv Energy     =  -7.04 kcal/mol
DOCKED: USER        Electrostatic Energy            =  -1.37 kcal/mol
DOCKED: USER        Moving Ligand-Fixed Receptor    =  -8.41 kcal/mol
DOCKED: USER        Moving Ligand-Moving Receptor   =  +0.00 kcal/mol
DOCKED: USER    (2) Final Total Internal Energy     =  -2.15 kcal/mol
DOCKED: USER    (3) Torsional Free Energy           =  +2.39 kcal/mol
DOCKED: USER    (4) Unbound System's Energy         =  -2.15 kcal/mol
DOCKED: USER
DOCKED: USER
DOCKED: REMARK SMILES C[C@H](CC/[NH+]=C(\S)c1ccc2[nH]ccc2c1)Cc1ccccc1
DOCKED: REMARK SMILES IDX 4 1 5 2 6 4 7 5 8 7 9 8 16 9 10 10 15 11 11 12 14 13 12 14
DOCKED: REMARK SMILES IDX 13 15 3 17 2 18 1 19 17 20 18 21 19 22 23 23 20 24 22 25
DOCKED: REMARK SMILES IDX 21 26
DOCKED: REMARK H PARENT 5 3 7 6 12 16
DOCKED: USER                              x       y       z     vdW  Elec       q    Type
DOCKED: USER                           _______ _______ _______ _____ _____    ______ ____
DOCKED: ROOT
DOCKED: ATOM      1  C   UNL     1     142.605  81.595 217.843 -0.17 -0.26    +0.349 C  
DOCKED: ENDROOT
DOCKED: BRANCH   1   2
DOCKED: ATOM      2  N   UNL     1     142.520  80.306 217.148 -0.14 +0.27    -0.236 N  
DOCKED: ATOM      3  H   UNL     1     143.297  80.046 216.500 -0.39 -1.13    +0.446 HD 
DOCKED: BRANCH   2   4
DOCKED: ATOM      4  C   UNL     1     141.529  79.470 217.322 -0.13 -0.16    +0.237 C  
DOCKED: BRANCH   4   5
DOCKED: ATOM      5  S   UNL     1     140.204  79.334 216.102 -0.05 +0.03    -0.074 SA 
DOCKED: ATOM      6  H   UNL     1     139.243  79.825 217.007 +0.01 -0.04    +0.114 HD 
DOCKED: ENDBRANCH   4   5
DOCKED: BRANCH   4   7
DOCKED: ATOM      7  C   UNL     1     141.476  78.603 218.525 -0.19 -0.03    +0.053 A  
DOCKED: ATOM      8  C   UNL     1     142.620  77.858 218.920 -0.29 -0.01    +0.018 A  
DOCKED: ATOM      9  C   UNL     1     140.293  78.523 219.300 -0.11 -0.01    +0.026 A  
DOCKED: ATOM     10  C   UNL     1     142.587  77.039 220.063 -0.29 -0.02    +0.027 A  
DOCKED: ATOM     11  C   UNL     1     140.298  77.703 220.425 -0.18 -0.00    +0.000 A  
DOCKED: ATOM     12  C   UNL     1     141.403  76.985 220.794 -0.28 -0.02    +0.045 A  
DOCKED: ATOM     13  C   UNL     1     139.310  77.441 221.348 -0.19 -0.01    +0.028 A  
DOCKED: ATOM     14  N   UNL     1     141.163  76.277 221.909 -0.15 +0.14    -0.361 N  
DOCKED: ATOM     15  C   UNL     1     139.883  76.553 222.252 -0.34 -0.02    +0.083 A  
DOCKED: ATOM     16  H   UNL     1     141.824  75.645 222.413 -0.47 -0.06    +0.166 HD 
DOCKED: ENDBRANCH   4   7
DOCKED: ENDBRANCH   2   4
DOCKED: ENDBRANCH   1   2
DOCKED: BRANCH   1  17
DOCKED: ATOM     17  C   UNL     1     141.210  82.091 218.257 -0.17 -0.03    +0.076 C  
DOCKED: BRANCH  17  18
DOCKED: ATOM     18  C   UNL     1     141.138  82.476 219.761 -0.24 +0.00    -0.004 C  
DOCKED: ATOM     19  C   UNL     1     140.683  83.937 219.912 -0.20 -0.00    +0.008 C  
DOCKED: BRANCH  18  20
DOCKED: ATOM     20  C   UNL     1     140.178  81.560 220.560 -0.20 -0.01    +0.039 C  
DOCKED: BRANCH  20  21
DOCKED: ATOM     21  C   UNL     1     140.863  80.860 221.705 -0.32 +0.01    -0.048 A  
DOCKED: ATOM     22  C   UNL     1     140.114  80.367 222.789 -0.37 -0.00    +0.004 A  
DOCKED: ATOM     23  C   UNL     1     142.253  80.656 221.679 -0.44 -0.00    +0.004 A  
DOCKED: ATOM     24  C   UNL     1     140.749  79.680 223.827 -0.51 -0.00    +0.000 A  
DOCKED: ATOM     25  C   UNL     1     142.883  79.969 222.721 -0.63 -0.00    +0.000 A  
DOCKED: ATOM     26  C   UNL     1     142.133  79.481 223.794 -0.61 -0.00    +0.000 A  
DOCKED: ENDBRANCH  20  21
DOCKED: ENDBRANCH  18  20
DOCKED: ENDBRANCH  17  18
DOCKED: ENDBRANCH   1  17
DOCKED: TORSDOF 8
DOCKED: TER
DOCKED: ENDMDL
________________________________________________________________________________


    FINAL DOCKED STATE:
    ________________________


Run:   13 / 20
Time taken for this run:   0.037s

DOCKED: MODEL        13
DOCKED: USER    Run = 13
DOCKED: USER
DOCKED: USER    Estimated Free Energy of Binding    =  -7.43 kcal/mol  [=(1)+(2)+(3)-(4)]
DOCKED: USER
DOCKED: USER    (1) Final Intermolecular Energy     =  -9.82 kcal/mol
DOCKED: USER        vdW + Hbond + desolv Energy     =  -9.45 kcal/mol
DOCKED: USER        Electrostatic Energy            =  -0.36 kcal/mol
DOCKED: USER        Moving Ligand-Fixed Receptor    =  -9.82 kcal/mol
DOCKED: USER        Moving Ligand-Moving Receptor   =  +0.00 kcal/mol
DOCKED: USER    (2) Final Total Internal Energy     =  -0.51 kcal/mol
DOCKED: USER    (3) Torsional Free Energy           =  +2.39 kcal/mol
DOCKED: USER    (4) Unbound System's Energy         =  -0.51 kcal/mol
DOCKED: USER
DOCKED: USER
DOCKED: REMARK SMILES C[C@H](CC/[NH+]=C(\S)c1ccc2[nH]ccc2c1)Cc1ccccc1
DOCKED: REMARK SMILES IDX 4 1 5 2 6 4 7 5 8 7 9 8 16 9 10 10 15 11 11 12 14 13 12 14
DOCKED: REMARK SMILES IDX 13 15 3 17 2 18 1 19 17 20 18 21 19 22 23 23 20 24 22 25
DOCKED: REMARK SMILES IDX 21 26
DOCKED: REMARK H PARENT 5 3 7 6 12 16
DOCKED: USER                              x       y       z     vdW  Elec       q    Type
DOCKED: USER                           _______ _______ _______ _____ _____    ______ ____
DOCKED: ROOT
DOCKED: ATOM      1  C   UNL     1     138.844  73.551 221.637 -0.11 -0.08    +0.349 C  
DOCKED: ENDROOT
DOCKED: BRANCH   1   2
DOCKED: ATOM      2  N   UNL     1     139.259  74.760 222.356 -0.15 +0.05    -0.236 N  
DOCKED: ATOM      3  H   UNL     1     138.840  74.939 223.296 -0.36 -0.23    +0.446 HD 
DOCKED: BRANCH   2   4
DOCKED: ATOM      4  C   UNL     1     140.140  75.602 221.881 -0.23 -0.04    +0.237 C  
DOCKED: BRANCH   4   5
DOCKED: ATOM      5  S   UNL     1     141.321  75.093 220.612 -0.32 +0.02    -0.074 SA 
DOCKED: ATOM      6  H   UNL     1     140.857  76.068 219.709 +0.04 -0.04    +0.114 HD 
DOCKED: ENDBRANCH   4   5
DOCKED: BRANCH   4   7
DOCKED: ATOM      7  C   UNL     1     140.183  77.003 222.367 -0.37 -0.01    +0.053 A  
DOCKED: ATOM      8  C   UNL     1     138.977  77.703 222.640 -0.30 -0.00    +0.018 A  
DOCKED: ATOM      9  C   UNL     1     141.425  77.650 222.581 -0.28 -0.01    +0.026 A  
DOCKED: ATOM     10  C   UNL     1     139.003  79.028 223.109 -0.33 -0.00    +0.027 A  
DOCKED: ATOM     11  C   UNL     1     141.411  78.962 223.047 -0.55 -0.00    +0.000 A  
DOCKED: ATOM     12  C   UNL     1     140.244  79.629 223.301 -0.42 -0.01    +0.045 A  
DOCKED: ATOM     13  C   UNL     1     142.448  79.820 223.343 -0.62 -0.01    +0.028 A  
DOCKED: ATOM     14  N   UNL     1     140.491  80.873 223.744 -0.17 +0.05    -0.361 N  
DOCKED: ATOM     15  C   UNL     1     141.838  80.994 223.771 -0.54 -0.01    +0.083 A  
DOCKED: ATOM     16  H   UNL     1     139.790  81.598 224.015 +0.09 -0.01    +0.166 HD 
DOCKED: ENDBRANCH   4   7
DOCKED: ENDBRANCH   2   4
DOCKED: ENDBRANCH   1   2
DOCKED: BRANCH   1  17
DOCKED: ATOM     17  C   UNL     1     139.757  72.363 221.982 -0.25 -0.01    +0.076 C  
DOCKED: BRANCH  17  18
DOCKED: ATOM     18  C   UNL     1     139.459  71.772 223.387 -0.27 +0.00    -0.004 C  
DOCKED: ATOM     19  C   UNL     1     138.359  70.704 223.289 -0.25 -0.00    +0.008 C  
DOCKED: BRANCH  18  20
DOCKED: ATOM     20  C   UNL     1     140.715  71.148 224.044 -0.33 -0.00    +0.039 C  
DOCKED: BRANCH  20  21
DOCKED: ATOM     21  C   UNL     1     140.559  70.958 225.530 -0.53 +0.01    -0.048 A  
DOCKED: ATOM     22  C   UNL     1     141.063  71.915 226.428 -0.70 -0.00    +0.004 A  
DOCKED: ATOM     23  C   UNL     1     139.869  69.841 226.031 -0.49 -0.00    +0.004 A  
DOCKED: ATOM     24  C   UNL     1     140.877  71.756 227.805 -0.83 -0.00    +0.000 A  
DOCKED: ATOM     25  C   UNL     1     139.687  69.686 227.409 -0.57 -0.00    +0.000 A  
DOCKED: ATOM     26  C   UNL     1     140.189  70.642 228.295 -0.62 -0.00    +0.000 A  
DOCKED: ENDBRANCH  20  21
DOCKED: ENDBRANCH  18  20
DOCKED: ENDBRANCH  17  18
DOCKED: ENDBRANCH   1  17
DOCKED: TORSDOF 8
DOCKED: TER
DOCKED: ENDMDL
________________________________________________________________________________


    FINAL DOCKED STATE:
    ________________________


Run:   14 / 20
Time taken for this run:   0.037s

DOCKED: MODEL        14
DOCKED: USER    Run = 14
DOCKED: USER
DOCKED: USER    Estimated Free Energy of Binding    =  -6.42 kcal/mol  [=(1)+(2)+(3)-(4)]
DOCKED: USER
DOCKED: USER    (1) Final Intermolecular Energy     =  -8.80 kcal/mol
DOCKED: USER        vdW + Hbond + desolv Energy     =  -7.79 kcal/mol
DOCKED: USER        Electrostatic Energy            =  -1.02 kcal/mol
DOCKED: USER        Moving Ligand-Fixed Receptor    =  -8.80 kcal/mol
DOCKED: USER        Moving Ligand-Moving Receptor   =  +0.00 kcal/mol
DOCKED: USER    (2) Final Total Internal Energy     =  -1.81 kcal/mol
DOCKED: USER    (3) Torsional Free Energy           =  +2.39 kcal/mol
DOCKED: USER    (4) Unbound System's Energy         =  -1.81 kcal/mol
DOCKED: USER
DOCKED: USER
DOCKED: REMARK SMILES C[C@H](CC/[NH+]=C(\S)c1ccc2[nH]ccc2c1)Cc1ccccc1
DOCKED: REMARK SMILES IDX 4 1 5 2 6 4 7 5 8 7 9 8 16 9 10 10 15 11 11 12 14 13 12 14
DOCKED: REMARK SMILES IDX 13 15 3 17 2 18 1 19 17 20 18 21 19 22 23 23 20 24 22 25
DOCKED: REMARK SMILES IDX 21 26
DOCKED: REMARK H PARENT 5 3 7 6 12 16
DOCKED: USER                              x       y       z     vdW  Elec       q    Type
DOCKED: USER                           _______ _______ _______ _____ _____    ______ ____
DOCKED: ROOT
DOCKED: ATOM      1  C   UNL     1     142.403  75.969 219.599 -0.16 -0.17    +0.349 C  
DOCKED: ENDROOT
DOCKED: BRANCH   1   2
DOCKED: ATOM      2  N   UNL     1     142.826  77.374 219.583 -0.15 +0.18    -0.236 N  
DOCKED: ATOM      3  H   UNL     1     143.326  77.745 220.422 -0.28 -0.56    +0.446 HD 
DOCKED: BRANCH   2   4
DOCKED: ATOM      4  C   UNL     1     142.622  78.165 218.563 -0.19 -0.18    +0.237 C  
DOCKED: BRANCH   4   5
DOCKED: ATOM      5  S   UNL     1     142.811  77.565 216.870 -0.28 +0.06    -0.074 SA 
DOCKED: ATOM      6  H   UNL     1     143.618  78.661 216.511 -0.44 -0.24    +0.114 HD 
DOCKED: ENDBRANCH   4   5
DOCKED: BRANCH   4   7
DOCKED: ATOM      7  C   UNL     1     142.217  79.578 218.772 -0.29 -0.04    +0.053 A  
DOCKED: ATOM      8  C   UNL     1     142.726  80.600 217.927 -0.33 -0.02    +0.018 A  
DOCKED: ATOM      9  C   UNL     1     141.306  79.918 219.801 -0.25 -0.01    +0.026 A  
DOCKED: ATOM     10  C   UNL     1     142.345  81.942 218.107 -0.26 -0.02    +0.027 A  
DOCKED: ATOM     11  C   UNL     1     140.951  81.256 219.950 -0.24 -0.00    +0.000 A  
DOCKED: ATOM     12  C   UNL     1     141.452  82.233 219.135 -0.23 -0.02    +0.045 A  
DOCKED: ATOM     13  C   UNL     1     140.098  81.863 220.845 -0.21 -0.01    +0.028 A  
DOCKED: ATOM     14  N   UNL     1     140.958  83.436 219.471 -0.07 +0.09    -0.361 N  
DOCKED: ATOM     15  C   UNL     1     140.130  83.215 220.518 -0.20 -0.02    +0.083 A  
DOCKED: ATOM     16  H   UNL     1     141.166  84.355 219.020 +0.04 -0.04    +0.166 HD 
DOCKED: ENDBRANCH   4   7
DOCKED: ENDBRANCH   2   4
DOCKED: ENDBRANCH   1   2
DOCKED: BRANCH   1  17
DOCKED: ATOM     17  C   UNL     1     141.318  75.733 220.663 -0.26 -0.03    +0.076 C  
DOCKED: BRANCH  17  18
DOCKED: ATOM     18  C   UNL     1     140.730  77.059 221.219 -0.31 +0.00    -0.004 C  
DOCKED: ATOM     19  C   UNL     1     139.207  77.087 221.019 -0.17 -0.00    +0.008 C  
DOCKED: BRANCH  18  20
DOCKED: ATOM     20  C   UNL     1     141.049  77.264 222.720 -0.36 -0.01    +0.039 C  
DOCKED: BRANCH  20  21
DOCKED: ATOM     21  C   UNL     1     141.396  78.692 223.051 -0.52 +0.02    -0.048 A  
DOCKED: ATOM     22  C   UNL     1     142.687  79.189 222.799 -0.48 -0.00    +0.004 A  
DOCKED: ATOM     23  C   UNL     1     140.416  79.554 223.574 -0.48 -0.00    +0.004 A  
DOCKED: ATOM     24  C   UNL     1     142.990  80.527 223.067 -0.65 -0.00    +0.000 A  
DOCKED: ATOM     25  C   UNL     1     140.725  80.891 223.841 -0.42 -0.00    +0.000 A  
DOCKED: ATOM     26  C   UNL     1     142.010  81.378 223.587 -0.59 -0.00    +0.000 A  
DOCKED: ENDBRANCH  20  21
DOCKED: ENDBRANCH  18  20
DOCKED: ENDBRANCH  17  18
DOCKED: ENDBRANCH   1  17
DOCKED: TORSDOF 8
DOCKED: TER
DOCKED: ENDMDL
________________________________________________________________________________


    FINAL DOCKED STATE:
    ________________________


Run:   15 / 20
Time taken for this run:   0.037s

DOCKED: MODEL        15
DOCKED: USER    Run = 15
DOCKED: USER
DOCKED: USER    Estimated Free Energy of Binding    =  -7.68 kcal/mol  [=(1)+(2)+(3)-(4)]
DOCKED: USER
DOCKED: USER    (1) Final Intermolecular Energy     = -10.07 kcal/mol
DOCKED: USER        vdW + Hbond + desolv Energy     =  -9.71 kcal/mol
DOCKED: USER        Electrostatic Energy            =  -0.36 kcal/mol
DOCKED: USER        Moving Ligand-Fixed Receptor    = -10.07 kcal/mol
DOCKED: USER        Moving Ligand-Moving Receptor   =  +0.00 kcal/mol
DOCKED: USER    (2) Final Total Internal Energy     =  -0.41 kcal/mol
DOCKED: USER    (3) Torsional Free Energy           =  +2.39 kcal/mol
DOCKED: USER    (4) Unbound System's Energy         =  -0.41 kcal/mol
DOCKED: USER
DOCKED: USER
DOCKED: REMARK SMILES C[C@H](CC/[NH+]=C(\S)c1ccc2[nH]ccc2c1)Cc1ccccc1
DOCKED: REMARK SMILES IDX 4 1 5 2 6 4 7 5 8 7 9 8 16 9 10 10 15 11 11 12 14 13 12 14
DOCKED: REMARK SMILES IDX 13 15 3 17 2 18 1 19 17 20 18 21 19 22 23 23 20 24 22 25
DOCKED: REMARK SMILES IDX 21 26
DOCKED: REMARK H PARENT 5 3 7 6 12 16
DOCKED: USER                              x       y       z     vdW  Elec       q    Type
DOCKED: USER                           _______ _______ _______ _____ _____    ______ ____
DOCKED: ROOT
DOCKED: ATOM      1  C   UNL     1     140.247  73.429 221.967 -0.15 -0.03    +0.349 C  
DOCKED: ENDROOT
DOCKED: BRANCH   1   2
DOCKED: ATOM      2  N   UNL     1     139.488  72.487 222.795 -0.16 +0.06    -0.236 N  
DOCKED: ATOM      3  H   UNL     1     138.747  72.873 223.423 -0.28 -0.29    +0.446 HD 
DOCKED: BRANCH   2   4
DOCKED: ATOM      4  C   UNL     1     139.686  71.195 222.764 -0.20 -0.04    +0.237 C  
DOCKED: BRANCH   4   5
DOCKED: ATOM      5  S   UNL     1     139.925  70.330 221.196 -0.16 +0.01    -0.074 SA 
DOCKED: ATOM      6  H   UNL     1     140.301  69.139 221.846 -0.04 -0.02    +0.114 HD 
DOCKED: ENDBRANCH   4   5
DOCKED: BRANCH   4   7
DOCKED: ATOM      7  C   UNL     1     139.729  70.407 224.021 -0.33 -0.01    +0.053 A  
DOCKED: ATOM      8  C   UNL     1     139.197  69.090 224.058 -0.30 -0.00    +0.018 A  
DOCKED: ATOM      9  C   UNL     1     140.319  70.951 225.188 -0.51 -0.00    +0.026 A  
DOCKED: ATOM     10  C   UNL     1     139.239  68.328 225.240 -0.44 -0.00    +0.027 A  
DOCKED: ATOM     11  C   UNL     1     140.344  70.167 226.338 -0.55 -0.00    +0.000 A  
DOCKED: ATOM     12  C   UNL     1     139.823  68.903 226.366 -0.51 -0.01    +0.045 A  
DOCKED: ATOM     13  C   UNL     1     140.848  70.432 227.593 -0.61 -0.00    +0.028 A  
DOCKED: ATOM     14  N   UNL     1     139.970  68.351 227.582 -0.28 +0.07    -0.361 N  
DOCKED: ATOM     15  C   UNL     1     140.596  69.284 228.336 -0.55 -0.02    +0.083 A  
DOCKED: ATOM     16  H   UNL     1     139.667  67.399 227.885 -0.38 -0.05    +0.166 HD 
DOCKED: ENDBRANCH   4   7
DOCKED: ENDBRANCH   2   4
DOCKED: ENDBRANCH   1   2
DOCKED: BRANCH   1  17
DOCKED: ATOM     17  C   UNL     1     139.578  74.814 221.952 -0.26 -0.01    +0.076 C  
DOCKED: BRANCH  17  18
DOCKED: ATOM     18  C   UNL     1     140.609  75.974 222.017 -0.36 +0.00    -0.004 C  
DOCKED: ATOM     19  C   UNL     1     141.409  76.045 220.707 -0.29 -0.00    +0.008 C  
DOCKED: BRANCH  18  20
DOCKED: ATOM     20  C   UNL     1     139.939  77.346 222.279 -0.36 -0.01    +0.039 C  
DOCKED: BRANCH  20  21
DOCKED: ATOM     21  C   UNL     1     140.941  78.458 222.451 -0.41 +0.02    -0.048 A  
DOCKED: ATOM     22  C   UNL     1     141.282  79.284 221.365 -0.35 -0.00    +0.004 A  
DOCKED: ATOM     23  C   UNL     1     141.511  78.706 223.710 -0.59 -0.00    +0.004 A  
DOCKED: ATOM     24  C   UNL     1     142.179  80.342 221.540 -0.44 -0.00    +0.000 A  
DOCKED: ATOM     25  C   UNL     1     142.409  79.765 223.880 -0.58 -0.00    +0.000 A  
DOCKED: ATOM     26  C   UNL     1     142.742  80.583 222.797 -0.61 -0.00    +0.000 A  
DOCKED: ENDBRANCH  20  21
DOCKED: ENDBRANCH  18  20
DOCKED: ENDBRANCH  17  18
DOCKED: ENDBRANCH   1  17
DOCKED: TORSDOF 8
DOCKED: TER
DOCKED: ENDMDL
________________________________________________________________________________


    FINAL DOCKED STATE:
    ________________________


Run:   16 / 20
Time taken for this run:   0.037s

DOCKED: MODEL        16
DOCKED: USER    Run = 16
DOCKED: USER
DOCKED: USER    Estimated Free Energy of Binding    =  -7.68 kcal/mol  [=(1)+(2)+(3)-(4)]
DOCKED: USER
DOCKED: USER    (1) Final Intermolecular Energy     = -10.07 kcal/mol
DOCKED: USER        vdW + Hbond + desolv Energy     =  -9.70 kcal/mol
DOCKED: USER        Electrostatic Energy            =  -0.36 kcal/mol
DOCKED: USER        Moving Ligand-Fixed Receptor    = -10.07 kcal/mol
DOCKED: USER        Moving Ligand-Moving Receptor   =  +0.00 kcal/mol
DOCKED: USER    (2) Final Total Internal Energy     =  -0.39 kcal/mol
DOCKED: USER    (3) Torsional Free Energy           =  +2.39 kcal/mol
DOCKED: USER    (4) Unbound System's Energy         =  -0.39 kcal/mol
DOCKED: USER
DOCKED: USER
DOCKED: REMARK SMILES C[C@H](CC/[NH+]=C(\S)c1ccc2[nH]ccc2c1)Cc1ccccc1
DOCKED: REMARK SMILES IDX 4 1 5 2 6 4 7 5 8 7 9 8 16 9 10 10 15 11 11 12 14 13 12 14
DOCKED: REMARK SMILES IDX 13 15 3 17 2 18 1 19 17 20 18 21 19 22 23 23 20 24 22 25
DOCKED: REMARK SMILES IDX 21 26
DOCKED: REMARK H PARENT 5 3 7 6 12 16
DOCKED: USER                              x       y       z     vdW  Elec       q    Type
DOCKED: USER                           _______ _______ _______ _____ _____    ______ ____
DOCKED: ROOT
DOCKED: ATOM      1  C   UNL     1     140.369  73.389 221.975 -0.14 -0.03    +0.349 C  
DOCKED: ENDROOT
DOCKED: BRANCH   1   2
DOCKED: ATOM      2  N   UNL     1     139.550  72.502 222.808 -0.17 +0.05    -0.236 N  
DOCKED: ATOM      3  H   UNL     1     138.845  72.939 223.443 -0.28 -0.30    +0.446 HD 
DOCKED: BRANCH   2   4
DOCKED: ATOM      4  C   UNL     1     139.653  71.199 222.773 -0.20 -0.04    +0.237 C  
DOCKED: BRANCH   4   5
DOCKED: ATOM      5  S   UNL     1     139.749  70.317 221.199 -0.16 +0.01    -0.074 SA 
DOCKED: ATOM      6  H   UNL     1     140.295  69.172 221.809 -0.03 -0.02    +0.114 HD 
DOCKED: ENDBRANCH   4   5
DOCKED: BRANCH   4   7
DOCKED: ATOM      7  C   UNL     1     139.705  70.411 224.030 -0.33 -0.01    +0.053 A  
DOCKED: ATOM      8  C   UNL     1     139.179  69.092 224.069 -0.31 -0.00    +0.018 A  
DOCKED: ATOM      9  C   UNL     1     140.296  70.958 225.195 -0.51 -0.00    +0.026 A  
DOCKED: ATOM     10  C   UNL     1     139.229  68.330 225.251 -0.44 -0.00    +0.027 A  
DOCKED: ATOM     11  C   UNL     1     140.329  70.175 226.345 -0.55 -0.00    +0.000 A  
DOCKED: ATOM     12  C   UNL     1     139.814  68.908 226.375 -0.51 -0.01    +0.045 A  
DOCKED: ATOM     13  C   UNL     1     140.836  70.442 227.598 -0.61 -0.00    +0.028 A  
DOCKED: ATOM     14  N   UNL     1     139.968  68.357 227.590 -0.28 +0.07    -0.361 N  
DOCKED: ATOM     15  C   UNL     1     140.593  69.292 228.342 -0.55 -0.02    +0.083 A  
DOCKED: ATOM     16  H   UNL     1     139.671  67.403 227.894 -0.38 -0.05    +0.166 HD 
DOCKED: ENDBRANCH   4   7
DOCKED: ENDBRANCH   2   4
DOCKED: ENDBRANCH   1   2
DOCKED: BRANCH   1  17
DOCKED: ATOM     17  C   UNL     1     139.682  74.750 221.778 -0.26 -0.01    +0.076 C  
DOCKED: BRANCH  17  18
DOCKED: ATOM     18  C   UNL     1     140.662  75.942 221.952 -0.38 +0.00    -0.004 C  
DOCKED: ATOM     19  C   UNL     1     141.480  76.147 220.667 -0.29 -0.00    +0.008 C  
DOCKED: BRANCH  18  20
DOCKED: ATOM     20  C   UNL     1     139.932  77.262 222.304 -0.36 -0.01    +0.039 C  
DOCKED: BRANCH  20  21
DOCKED: ATOM     21  C   UNL     1     140.878  78.422 222.476 -0.41 +0.02    -0.048 A  
DOCKED: ATOM     22  C   UNL     1     141.500  78.656 223.715 -0.58 -0.00    +0.004 A  
DOCKED: ATOM     23  C   UNL     1     141.180  79.254 221.386 -0.34 -0.00    +0.004 A  
DOCKED: ATOM     24  C   UNL     1     142.410  79.707 223.857 -0.58 -0.00    +0.000 A  
DOCKED: ATOM     25  C   UNL     1     142.090  80.305 221.534 -0.44 -0.00    +0.000 A  
DOCKED: ATOM     26  C   UNL     1     142.706  80.532 222.767 -0.62 -0.00    +0.000 A  
DOCKED: ENDBRANCH  20  21
DOCKED: ENDBRANCH  18  20
DOCKED: ENDBRANCH  17  18
DOCKED: ENDBRANCH   1  17
DOCKED: TORSDOF 8
DOCKED: TER
DOCKED: ENDMDL
________________________________________________________________________________


    FINAL DOCKED STATE:
    ________________________


Run:   17 / 20
Time taken for this run:   0.037s

DOCKED: MODEL        17
DOCKED: USER    Run = 17
DOCKED: USER
DOCKED: USER    Estimated Free Energy of Binding    =  -6.00 kcal/mol  [=(1)+(2)+(3)-(4)]
DOCKED: USER
DOCKED: USER    (1) Final Intermolecular Energy     =  -8.39 kcal/mol
DOCKED: USER        vdW + Hbond + desolv Energy     =  -7.43 kcal/mol
DOCKED: USER        Electrostatic Energy            =  -0.95 kcal/mol
DOCKED: USER        Moving Ligand-Fixed Receptor    =  -8.39 kcal/mol
DOCKED: USER        Moving Ligand-Moving Receptor   =  +0.00 kcal/mol
DOCKED: USER    (2) Final Total Internal Energy     =  -2.11 kcal/mol
DOCKED: USER    (3) Torsional Free Energy           =  +2.39 kcal/mol
DOCKED: USER    (4) Unbound System's Energy         =  -2.11 kcal/mol
DOCKED: USER
DOCKED: USER
DOCKED: REMARK SMILES C[C@H](CC/[NH+]=C(\S)c1ccc2[nH]ccc2c1)Cc1ccccc1
DOCKED: REMARK SMILES IDX 4 1 5 2 6 4 7 5 8 7 9 8 16 9 10 10 15 11 11 12 14 13 12 14
DOCKED: REMARK SMILES IDX 13 15 3 17 2 18 1 19 17 20 18 21 19 22 23 23 20 24 22 25
DOCKED: REMARK SMILES IDX 21 26
DOCKED: REMARK H PARENT 5 3 7 6 12 16
DOCKED: USER                              x       y       z     vdW  Elec       q    Type
DOCKED: USER                           _______ _______ _______ _____ _____    ______ ____
DOCKED: ROOT
DOCKED: ATOM      1  C   UNL     1     142.023  76.173 220.165 -0.13 -0.18    +0.349 C  
DOCKED: ENDROOT
DOCKED: BRANCH   1   2
DOCKED: ATOM      2  N   UNL     1     142.572  77.524 220.014 -0.16 +0.19    -0.236 N  
DOCKED: ATOM      3  H   UNL     1     143.338  77.817 220.662 -0.27 -0.60    +0.446 HD 
DOCKED: BRANCH   2   4
DOCKED: ATOM      4  C   UNL     1     142.159  78.361 219.098 -0.18 -0.16    +0.237 C  
DOCKED: BRANCH   4   5
DOCKED: ATOM      5  S   UNL     1     142.617  78.140 217.365 -0.32 +0.06    -0.074 SA 
DOCKED: ATOM      6  H   UNL     1     143.702  79.029 217.479 -0.55 -0.20    +0.114 HD 
DOCKED: ENDBRANCH   4   5
DOCKED: BRANCH   4   7
DOCKED: ATOM      7  C   UNL     1     141.292  79.509 219.460 -0.22 -0.03    +0.053 A  
DOCKED: ATOM      8  C   UNL     1     139.903  79.479 219.160 -0.08 -0.01    +0.018 A  
DOCKED: ATOM      9  C   UNL     1     141.834  80.635 220.125 -0.31 -0.01    +0.026 A  
DOCKED: ATOM     10  C   UNL     1     139.067  80.556 219.505 -0.06 -0.01    +0.027 A  
DOCKED: ATOM     11  C   UNL     1     140.976  81.682 220.452 -0.28 -0.00    +0.000 A  
DOCKED: ATOM     12  C   UNL     1     139.642  81.647 220.153 -0.12 -0.01    +0.045 A  
DOCKED: ATOM     13  C   UNL     1     141.222  82.877 221.092 -0.27 -0.01    +0.028 A  
DOCKED: ATOM     14  N   UNL     1     139.027  82.765 220.571 -0.04 +0.07    -0.361 N  
DOCKED: ATOM     15  C   UNL     1     139.990  83.521 221.147 -0.21 -0.01    +0.083 A  
DOCKED: ATOM     16  H   UNL     1     138.015  83.004 220.477 +0.02 -0.03    +0.166 HD 
DOCKED: ENDBRANCH   4   7
DOCKED: ENDBRANCH   2   4
DOCKED: ENDBRANCH   1   2
DOCKED: BRANCH   1  17
DOCKED: ATOM     17  C   UNL     1     140.490  76.212 220.291 -0.16 -0.02    +0.076 C  
DOCKED: BRANCH  17  18
DOCKED: ATOM     18  C   UNL     1     140.013  77.117 221.460 -0.28 +0.00    -0.004 C  
DOCKED: ATOM     19  C   UNL     1     138.673  76.606 222.012 -0.28 -0.00    +0.008 C  
DOCKED: BRANCH  18  20
DOCKED: ATOM     20  C   UNL     1     141.044  77.185 222.614 -0.35 -0.01    +0.039 C  
DOCKED: BRANCH  20  21
DOCKED: ATOM     21  C   UNL     1     141.313  78.596 223.070 -0.52 +0.02    -0.048 A  
DOCKED: ATOM     22  C   UNL     1     142.624  79.102 223.085 -0.49 -0.00    +0.004 A  
DOCKED: ATOM     23  C   UNL     1     140.248  79.432 223.444 -0.47 -0.00    +0.004 A  
DOCKED: ATOM     24  C   UNL     1     142.863  80.425 223.468 -0.68 -0.00    +0.000 A  
DOCKED: ATOM     25  C   UNL     1     140.492  80.754 223.827 -0.41 -0.00    +0.000 A  
DOCKED: ATOM     26  C   UNL     1     141.798  81.252 223.838 -0.60 -0.00    +0.000 A  
DOCKED: ENDBRANCH  20  21
DOCKED: ENDBRANCH  18  20
DOCKED: ENDBRANCH  17  18
DOCKED: ENDBRANCH   1  17
DOCKED: TORSDOF 8
DOCKED: TER
DOCKED: ENDMDL
________________________________________________________________________________


    FINAL DOCKED STATE:
    ________________________


Run:   18 / 20
Time taken for this run:   0.037s

DOCKED: MODEL        18
DOCKED: USER    Run = 18
DOCKED: USER
DOCKED: USER    Estimated Free Energy of Binding    =  -6.07 kcal/mol  [=(1)+(2)+(3)-(4)]
DOCKED: USER
DOCKED: USER    (1) Final Intermolecular Energy     =  -8.45 kcal/mol
DOCKED: USER        vdW + Hbond + desolv Energy     =  -7.03 kcal/mol
DOCKED: USER        Electrostatic Energy            =  -1.43 kcal/mol
DOCKED: USER        Moving Ligand-Fixed Receptor    =  -8.45 kcal/mol
DOCKED: USER        Moving Ligand-Moving Receptor   =  +0.00 kcal/mol
DOCKED: USER    (2) Final Total Internal Energy     =  -2.08 kcal/mol
DOCKED: USER    (3) Torsional Free Energy           =  +2.39 kcal/mol
DOCKED: USER    (4) Unbound System's Energy         =  -2.08 kcal/mol
DOCKED: USER
DOCKED: USER
DOCKED: REMARK SMILES C[C@H](CC/[NH+]=C(\S)c1ccc2[nH]ccc2c1)Cc1ccccc1
DOCKED: REMARK SMILES IDX 4 1 5 2 6 4 7 5 8 7 9 8 16 9 10 10 15 11 11 12 14 13 12 14
DOCKED: REMARK SMILES IDX 13 15 3 17 2 18 1 19 17 20 18 21 19 22 23 23 20 24 22 25
DOCKED: REMARK SMILES IDX 21 26
DOCKED: REMARK H PARENT 5 3 7 6 12 16
DOCKED: USER                              x       y       z     vdW  Elec       q    Type
DOCKED: USER                           _______ _______ _______ _____ _____    ______ ____
DOCKED: ROOT
DOCKED: ATOM      1  C   UNL     1     142.694  81.589 217.804 -0.16 -0.28    +0.349 C  
DOCKED: ENDROOT
DOCKED: BRANCH   1   2
DOCKED: ATOM      2  N   UNL     1     142.571  80.316 217.087 -0.13 +0.28    -0.236 N  
DOCKED: ATOM      3  H   UNL     1     143.325  80.058 216.412 -0.38 -1.19    +0.446 HD 
DOCKED: BRANCH   2   4
DOCKED: ATOM      4  C   UNL     1     141.574  79.489 217.273 -0.13 -0.17    +0.237 C  
DOCKED: BRANCH   4   5
DOCKED: ATOM      5  S   UNL     1     140.149  79.488 216.164 -0.05 +0.03    -0.074 SA 
DOCKED: ATOM      6  H   UNL     1     139.362  80.208 217.082 +0.01 -0.04    +0.114 HD 
DOCKED: ENDBRANCH   4   5
DOCKED: BRANCH   4   7
DOCKED: ATOM      7  C   UNL     1     141.596  78.522 218.398 -0.20 -0.03    +0.053 A  
DOCKED: ATOM      8  C   UNL     1     142.778  77.787 218.686 -0.29 -0.01    +0.018 A  
DOCKED: ATOM      9  C   UNL     1     140.449  78.336 219.207 -0.11 -0.01    +0.026 A  
DOCKED: ATOM     10  C   UNL     1     142.817  76.873 219.755 -0.33 -0.02    +0.027 A  
DOCKED: ATOM     11  C   UNL     1     140.524  77.424 220.256 -0.18 -0.00    +0.000 A  
DOCKED: ATOM     12  C   UNL     1     141.665  76.717 220.521 -0.26 -0.02    +0.045 A  
DOCKED: ATOM     13  C   UNL     1     139.582  77.051 221.190 -0.20 -0.01    +0.028 A  
DOCKED: ATOM     14  N   UNL     1     141.492  75.909 221.580 -0.09 +0.15    -0.361 N  
DOCKED: ATOM     15  C   UNL     1     140.219  76.110 221.993 -0.34 -0.02    +0.083 A  
DOCKED: ATOM     16  H   UNL     1     142.192  75.260 222.003 -0.47 -0.07    +0.166 HD 
DOCKED: ENDBRANCH   4   7
DOCKED: ENDBRANCH   2   4
DOCKED: ENDBRANCH   1   2
DOCKED: BRANCH   1  17
DOCKED: ATOM     17  C   UNL     1     141.316  82.102 218.257 -0.18 -0.03    +0.076 C  
DOCKED: BRANCH  17  18
DOCKED: ATOM     18  C   UNL     1     141.231  82.299 219.795 -0.25 +0.00    -0.004 C  
DOCKED: ATOM     19  C   UNL     1     140.711  83.707 220.121 -0.22 -0.00    +0.008 C  
DOCKED: BRANCH  18  20
DOCKED: ATOM     20  C   UNL     1     140.317  81.250 220.475 -0.20 -0.01    +0.039 C  
DOCKED: BRANCH  20  21
DOCKED: ATOM     21  C   UNL     1     140.967  80.599 221.669 -0.33 +0.01    -0.048 A  
DOCKED: ATOM     22  C   UNL     1     140.181  80.070 222.708 -0.36 -0.00    +0.004 A  
DOCKED: ATOM     23  C   UNL     1     142.365  80.478 221.733 -0.44 -0.00    +0.004 A  
DOCKED: ATOM     24  C   UNL     1     140.787  79.429 223.792 -0.53 -0.00    +0.000 A  
DOCKED: ATOM     25  C   UNL     1     142.966  79.836 222.820 -0.62 -0.00    +0.000 A  
DOCKED: ATOM     26  C   UNL     1     142.179  79.311 223.848 -0.59 -0.00    +0.000 A  
DOCKED: ENDBRANCH  20  21
DOCKED: ENDBRANCH  18  20
DOCKED: ENDBRANCH  17  18
DOCKED: ENDBRANCH   1  17
DOCKED: TORSDOF 8
DOCKED: TER
DOCKED: ENDMDL
________________________________________________________________________________


    FINAL DOCKED STATE:
    ________________________


Run:   19 / 20
Time taken for this run:   0.037s

DOCKED: MODEL        19
DOCKED: USER    Run = 19
DOCKED: USER
DOCKED: USER    Estimated Free Energy of Binding    =  -6.52 kcal/mol  [=(1)+(2)+(3)-(4)]
DOCKED: USER
DOCKED: USER    (1) Final Intermolecular Energy     =  -8.91 kcal/mol
DOCKED: USER        vdW + Hbond + desolv Energy     =  -7.93 kcal/mol
DOCKED: USER        Electrostatic Energy            =  -0.98 kcal/mol
DOCKED: USER        Moving Ligand-Fixed Receptor    =  -8.91 kcal/mol
DOCKED: USER        Moving Ligand-Moving Receptor   =  +0.00 kcal/mol
DOCKED: USER    (2) Final Total Internal Energy     =  -1.73 kcal/mol
DOCKED: USER    (3) Torsional Free Energy           =  +2.39 kcal/mol
DOCKED: USER    (4) Unbound System's Energy         =  -1.73 kcal/mol
DOCKED: USER
DOCKED: USER
DOCKED: REMARK SMILES C[C@H](CC/[NH+]=C(\S)c1ccc2[nH]ccc2c1)Cc1ccccc1
DOCKED: REMARK SMILES IDX 4 1 5 2 6 4 7 5 8 7 9 8 16 9 10 10 15 11 11 12 14 13 12 14
DOCKED: REMARK SMILES IDX 13 15 3 17 2 18 1 19 17 20 18 21 19 22 23 23 20 24 22 25
DOCKED: REMARK SMILES IDX 21 26
DOCKED: REMARK H PARENT 5 3 7 6 12 16
DOCKED: USER                              x       y       z     vdW  Elec       q    Type
DOCKED: USER                           _______ _______ _______ _____ _____    ______ ____
DOCKED: ROOT
DOCKED: ATOM      1  C   UNL     1     141.612  76.410 220.154 -0.13 -0.16    +0.349 C  
DOCKED: ENDROOT
DOCKED: BRANCH   1   2
DOCKED: ATOM      2  N   UNL     1     142.575  77.480 219.876 -0.18 +0.18    -0.236 N  
DOCKED: ATOM      3  H   UNL     1     143.342  77.641 220.567 -0.28 -0.56    +0.446 HD 
DOCKED: BRANCH   2   4
DOCKED: ATOM      4  C   UNL     1     142.524  78.219 218.798 -0.15 -0.18    +0.237 C  
DOCKED: BRANCH   4   5
DOCKED: ATOM      5  S   UNL     1     142.868  77.513 217.171 -0.31 +0.06    -0.074 SA 
DOCKED: ATOM      6  H   UNL     1     143.667  78.612 216.801 -0.48 -0.22    +0.114 HD 
DOCKED: ENDBRANCH   4   5
DOCKED: BRANCH   4   7
DOCKED: ATOM      7  C   UNL     1     142.170  79.657 218.885 -0.29 -0.04    +0.053 A  
DOCKED: ATOM      8  C   UNL     1     142.606  80.563 217.882 -0.34 -0.02    +0.018 A  
DOCKED: ATOM      9  C   UNL     1     141.377  80.137 219.957 -0.27 -0.01    +0.026 A  
DOCKED: ATOM     10  C   UNL     1     142.270  81.928 217.946 -0.28 -0.02    +0.027 A  
DOCKED: ATOM     11  C   UNL     1     141.064  81.493 219.987 -0.26 -0.00    +0.000 A  
DOCKED: ATOM     12  C   UNL     1     141.495  82.359 219.020 -0.22 -0.02    +0.045 A  
DOCKED: ATOM     13  C   UNL     1     140.321  82.222 220.890 -0.25 -0.01    +0.028 A  
DOCKED: ATOM     14  N   UNL     1     141.062  83.606 219.265 -0.07 +0.10    -0.361 N  
DOCKED: ATOM     15  C   UNL     1     140.343  83.527 220.410 -0.21 -0.02    +0.083 A  
DOCKED: ATOM     16  H   UNL     1     141.238  84.462 218.694 +0.04 -0.05    +0.166 HD 
DOCKED: ENDBRANCH   4   7
DOCKED: ENDBRANCH   2   4
DOCKED: ENDBRANCH   1   2
DOCKED: BRANCH   1  17
DOCKED: ATOM     17  C   UNL     1     140.181  76.967 220.249 -0.14 -0.02    +0.076 C  
DOCKED: BRANCH  17  18
DOCKED: ATOM     18  C   UNL     1     139.792  77.361 221.701 -0.29 +0.00    -0.004 C  
DOCKED: ATOM     19  C   UNL     1     138.762  76.368 222.261 -0.31 -0.00    +0.008 C  
DOCKED: BRANCH  18  20
DOCKED: ATOM     20  C   UNL     1     141.017  77.411 222.648 -0.39 -0.01    +0.039 C  
DOCKED: BRANCH  20  21
DOCKED: ATOM     21  C   UNL     1     141.406  78.817 223.021 -0.52 +0.02    -0.048 A  
DOCKED: ATOM     22  C   UNL     1     140.434  79.734 223.458 -0.48 -0.00    +0.004 A  
DOCKED: ATOM     23  C   UNL     1     142.754  79.213 222.975 -0.46 -0.00    +0.004 A  
DOCKED: ATOM     24  C   UNL     1     140.806  81.025 223.845 -0.39 -0.00    +0.000 A  
DOCKED: ATOM     25  C   UNL     1     143.121  80.506 223.362 -0.67 -0.00    +0.000 A  
DOCKED: ATOM     26  C   UNL     1     142.149  81.411 223.797 -0.61 -0.00    +0.000 A  
DOCKED: ENDBRANCH  20  21
DOCKED: ENDBRANCH  18  20
DOCKED: ENDBRANCH  17  18
DOCKED: ENDBRANCH   1  17
DOCKED: TORSDOF 8
DOCKED: TER
DOCKED: ENDMDL
________________________________________________________________________________


    FINAL DOCKED STATE:
    ________________________


Run:   20 / 20
Time taken for this run:   0.037s

DOCKED: MODEL        20
DOCKED: USER    Run = 20
DOCKED: USER
DOCKED: USER    Estimated Free Energy of Binding    =  -7.36 kcal/mol  [=(1)+(2)+(3)-(4)]
DOCKED: USER
DOCKED: USER    (1) Final Intermolecular Energy     =  -9.74 kcal/mol
DOCKED: USER        vdW + Hbond + desolv Energy     =  -8.80 kcal/mol
DOCKED: USER        Electrostatic Energy            =  -0.94 kcal/mol
DOCKED: USER        Moving Ligand-Fixed Receptor    =  -9.74 kcal/mol
DOCKED: USER        Moving Ligand-Moving Receptor   =  +0.00 kcal/mol
DOCKED: USER    (2) Final Total Internal Energy     =  -0.83 kcal/mol
DOCKED: USER    (3) Torsional Free Energy           =  +2.39 kcal/mol
DOCKED: USER    (4) Unbound System's Energy         =  -0.83 kcal/mol
DOCKED: USER
DOCKED: USER
DOCKED: REMARK SMILES C[C@H](CC/[NH+]=C(\S)c1ccc2[nH]ccc2c1)Cc1ccccc1
DOCKED: REMARK SMILES IDX 4 1 5 2 6 4 7 5 8 7 9 8 16 9 10 10 15 11 11 12 14 13 12 14
DOCKED: REMARK SMILES IDX 13 15 3 17 2 18 1 19 17 20 18 21 19 22 23 23 20 24 22 25
DOCKED: REMARK SMILES IDX 21 26
DOCKED: REMARK H PARENT 5 3 7 6 12 16
DOCKED: USER                              x       y       z     vdW  Elec       q    Type
DOCKED: USER                           _______ _______ _______ _____ _____    ______ ____
DOCKED: ROOT
DOCKED: ATOM      1  C   UNL     1     142.695  77.370 218.204 -0.17 -0.24    +0.349 C  
DOCKED: ENDROOT
DOCKED: BRANCH   1   2
DOCKED: ATOM      2  N   UNL     1     143.318  76.880 219.438 -0.24 +0.18    -0.236 N  
DOCKED: ATOM      3  H   UNL     1     144.061  77.467 219.879 -0.32 -0.55    +0.446 HD 
DOCKED: BRANCH   2   4
DOCKED: ATOM      4  C   UNL     1     142.969  75.758 220.012 -0.19 -0.14    +0.237 C  
DOCKED: BRANCH   4   5
DOCKED: ATOM      5  S   UNL     1     141.388  75.608 220.873 -0.36 +0.03    -0.074 SA 
DOCKED: ATOM      6  H   UNL     1     141.937  76.079 222.081 -0.56 -0.07    +0.114 HD 
DOCKED: ENDBRANCH   4   5
DOCKED: BRANCH   4   7
DOCKED: ATOM      7  C   UNL     1     143.862  74.574 219.961 -0.38 -0.02    +0.053 A  
DOCKED: ATOM      8  C   UNL     1     145.016  74.512 220.788 -0.40 -0.01    +0.018 A  
DOCKED: ATOM      9  C   UNL     1     143.564  73.487 219.103 -0.20 -0.01    +0.026 A  
DOCKED: ATOM     10  C   UNL     1     145.867  73.392 220.756 -0.66 -0.00    +0.027 A  
DOCKED: ATOM     11  C   UNL     1     144.428  72.396 219.099 -0.25 +0.00    +0.000 A  
DOCKED: ATOM     12  C   UNL     1     145.540  72.349 219.894 -0.40 +0.01    +0.045 A  
DOCKED: ATOM     13  C   UNL     1     144.385  71.220 218.383 -0.15 +0.00    +0.028 A  
DOCKED: ATOM     14  N   UNL     1     146.208  71.197 219.716 -0.03 -0.27    -0.361 N  
DOCKED: ATOM     15  C   UNL     1     145.504  70.503 218.791 -0.26 +0.04    +0.083 A  
DOCKED: ATOM     16  H   UNL     1     147.086  70.894 220.192 -0.10 +0.15    +0.166 HD 
DOCKED: ENDBRANCH   4   7
DOCKED: ENDBRANCH   2   4
DOCKED: ENDBRANCH   1   2
DOCKED: BRANCH   1  17
DOCKED: ATOM     17  C   UNL     1     141.608  78.413 218.512 -0.20 -0.04    +0.076 C  
DOCKED: BRANCH  17  18
DOCKED: ATOM     18  C   UNL     1     142.200  79.756 219.021 -0.30 +0.00    -0.004 C  
DOCKED: ATOM     19  C   UNL     1     142.544  80.667 217.832 -0.34 -0.01    +0.008 C  
DOCKED: BRANCH  18  20
DOCKED: ATOM     20  C   UNL     1     141.232  80.505 219.972 -0.26 -0.02    +0.039 C  
DOCKED: BRANCH  20  21
DOCKED: ATOM     21  C   UNL     1     141.531  80.246 221.426 -0.36 +0.02    -0.048 A  
DOCKED: ATOM     22  C   UNL     1     141.513  78.935 221.935 -0.43 -0.00    +0.004 A  
DOCKED: ATOM     23  C   UNL     1     141.874  81.310 222.277 -0.49 -0.00    +0.004 A  
DOCKED: ATOM     24  C   UNL     1     141.834  78.696 223.274 -0.59 -0.00    +0.000 A  
DOCKED: ATOM     25  C   UNL     1     142.193  81.065 223.616 -0.64 -0.00    +0.000 A  
DOCKED: ATOM     26  C   UNL     1     142.174  79.760 224.115 -0.53 -0.00    +0.000 A  
DOCKED: ENDBRANCH  20  21
DOCKED: ENDBRANCH  18  20
DOCKED: ENDBRANCH  17  18
DOCKED: ENDBRANCH   1  17
DOCKED: TORSDOF 8
DOCKED: TER
DOCKED: ENDMDL
________________________________________________________________________________


    CLUSTERING HISTOGRAM
    ____________________


________________________________________________________________________________
     |           |     |           |     |
Clus | Lowest    | Run | Mean      | Num | Histogram
-ter | Binding   |     | Binding   | in  |
Rank | Energy    |     | Energy    | Clus|    5    10   15   20   25   30   35
_____|___________|_____|___________|_____|____:____|____:____|____:____|____:___
   1 |     -7.76 |   4 |     -7.57 |   6 |######
   2 |     -7.68 |  15 |     -7.68 |   2 |##
   3 |     -7.36 |   6 |     -7.36 |   1 |#
   4 |     -7.36 |  20 |     -7.36 |   1 |#
   5 |     -6.54 |   3 |     -6.38 |   7 |#######
   6 |     -6.07 |   5 |     -6.05 |   3 |###
_____|___________|_____|___________|_____|______________________________________


    RMSD TABLE
    __________


_______________________________________________________________________
     |      |      |           |         |                 |
Rank | Sub- | Run  | Binding   | Cluster | Reference       | Grep
     | Rank |      | Energy    | RMSD    | RMSD            | Pattern
_____|______|______|___________|_________|_________________|___________
   1      1      4       -7.76      0.00    270.92           RANKING
   1      2     11       -7.74      0.65    270.99           RANKING
   1      3      1       -7.65      0.55    270.81           RANKING
   1      4      8       -7.43      1.74    270.69           RANKING
   1      5     13       -7.43      0.85    271.07           RANKING
   1      6      2       -7.41      1.84    270.68           RANKING
   2      1     15       -7.68      0.00    270.78           RANKING
   2      2     16       -7.68      0.09    270.77           RANKING
   3      1      6       -7.36      0.00    270.15           RANKING
   4      1     20       -7.36      0.00    270.23           RANKING
   5      1      3       -6.54      0.00    270.46           RANKING
   5      2     19       -6.52      0.08    270.46           RANKING
   5      3      9       -6.43      0.48    270.37           RANKING
   5      4     14       -6.42      0.48    270.38           RANKING
   5      5      7       -6.40      0.52    270.35           RANKING
   5      6     10       -6.38      0.58    270.31           RANKING
   5      7     17       -6.00      1.23    270.45           RANKING
   6      1      5       -6.07      0.00    270.31           RANKING
   6      2     18       -6.07      1.74    269.79           RANKING
   6      3     12       -6.02      1.67    269.84           RANKING

Run time 0.725 sec
Idle time 0.000 sec
