AutoDock-GPU version: v1.6

**********************************************************
**    AutoDock-GPU AUTODOCKTOOLS-COMPATIBLE DLG FILE    **
**********************************************************


    DOCKING PARAMETERS
    ________________________


Ligand file:                               /home/a/REINVENT4/ReinventStudies/pleaseWork/justRnve/graph-dock-t2iv78/graph-DockGPU/node-autodockgpu/inputs/NQSBUKBJQGHAOK-XTFVGSGONA-O.pdbqt
Grid fld file:                             /home/a/REINVENT4/ReinventStudies/mols/Rad51/maps/rad51_receptor.maps.fld

Random seed:                               42
Number of runs:                            20
Number of energy evaluations:              1259779
Number of generations:                     42000
Size of population:                        150
Rate of crossover:                         80.000000%
Tournament selection probability limit:    60.000000%
Rate of mutation:                          2.000000%
Maximal allowed delta movement:            +/- 6.000000A
Maximal allowed delta angle:               +/- 90.000000

Rate of local search:                      100.000000%
Maximal number of local search iterations: 300
Rho lower bound:                           0.010000
Spread of local search delta movement:     2.000000A
Spread of local search delta angle:        74.999999
Limit of consecutive successes/failures:   4

Handle symmetry during clustering:         YES
RMSD tolerance:                            2.000000A

Program call in command line was:          /home/a/REINVENT4/ReinventStudies/adgpu-v1.6_linux_x64_cuda12_128wi --filelist batch.txt --heuristics 1 --nrun 20 --psize 150 --lsit 300 --seed 42 --heurmax 12000000 


    GRID PARAMETERS
    ________________________


Receptor name:                             rad51_receptor
Number of grid points (x, y, z):           53, 53, 53
Grid center (x, y, z):                     139.950000, 75.640000, 221.970000A
Grid size (x, y, z):                       19.500000, 19.500000, 19.500000A
Grid spacing:                              0.375000A


    LIGAND PARAMETERS
    ________________________


Ligand name:                               /home/a/REINVENT4/ReinventStudies/pleaseWork/justRnve/graph-dock-t2iv78/graph-DockGPU/node-autodockgpu/inputs/NQSBUKBJQGHAOK-XTFVGSGONA-O
Number of atoms:                           26
Number of rotatable bonds:                 7
Number of atom types:                      5


    DUMMY DATA (only for ADT-compatibility)
    ________________________


DPF> outlev 1
DPF> ga_run 20
DPF> fld /home/a/REINVENT4/ReinventStudies/mols/Rad51/maps/rad51_receptor.maps.fld
DPF> move /home/a/REINVENT4/ReinventStudies/pleaseWork/justRnve/graph-dock-t2iv78/graph-DockGPU/node-autodockgpu/inputs/NQSBUKBJQGHAOK-XTFVGSGONA-O.pdbqt


    COUNTER STATES
    ________________________


Number of energy evaluations performed:    1262931
Number of generations used:                53


    INPUT LIGAND PDBQT FILE:
    ________________________


INPUT-LIGAND-PDBQT: REMARK SMILES C[C@H](CC[NH2+]C(=S)c1ccc2[nH]ccc2c1)Cc1ccccc1
INPUT-LIGAND-PDBQT: REMARK SMILES IDX 4 1 3 2 2 3 1 4 17 5 18 6 19 7 23 8 20 9 22 10 21 11 5 12
INPUT-LIGAND-PDBQT: REMARK SMILES IDX 6 15 7 16 8 17 9 18 16 19 10 20 15 21 11 22 14 23 12 24
INPUT-LIGAND-PDBQT: REMARK SMILES IDX 13 25
INPUT-LIGAND-PDBQT: REMARK H PARENT 5 13 5 14 12 26
INPUT-LIGAND-PDBQT: ROOT
INPUT-LIGAND-PDBQT: ATOM      1  C   UNL     1       0.683   0.436   0.947  1.00  0.00     0.267 C 
INPUT-LIGAND-PDBQT: ENDROOT
INPUT-LIGAND-PDBQT: BRANCH   1   2
INPUT-LIGAND-PDBQT: ATOM      2  C   UNL     1      -0.578   0.222   1.817  1.00  0.00     0.065 C 
INPUT-LIGAND-PDBQT: BRANCH   2   3
INPUT-LIGAND-PDBQT: ATOM      3  C   UNL     1      -1.925   0.489   1.088  1.00  0.00    -0.004 C 
INPUT-LIGAND-PDBQT: ATOM      4  C   UNL     1      -3.032  -0.381   1.708  1.00  0.00     0.008 C 
INPUT-LIGAND-PDBQT: BRANCH   3   5
INPUT-LIGAND-PDBQT: ATOM      5  C   UNL     1      -2.368   1.973   1.169  1.00  0.00     0.039 C 
INPUT-LIGAND-PDBQT: BRANCH   5   6
INPUT-LIGAND-PDBQT: ATOM      6  C   UNL     1      -1.495   2.903   0.367  1.00  0.00    -0.048 A 
INPUT-LIGAND-PDBQT: ATOM      7  C   UNL     1      -1.555   2.893  -1.037  1.00  0.00     0.004 A 
INPUT-LIGAND-PDBQT: ATOM      8  C   UNL     1      -0.604   3.779   1.012  1.00  0.00     0.004 A 
INPUT-LIGAND-PDBQT: ATOM      9  C   UNL     1      -0.734   3.744  -1.783  1.00  0.00     0.000 A 
INPUT-LIGAND-PDBQT: ATOM     10  C   UNL     1       0.216   4.627   0.262  1.00  0.00     0.000 A 
INPUT-LIGAND-PDBQT: ATOM     11  C   UNL     1       0.151   4.610  -1.134  1.00  0.00     0.000 A 
INPUT-LIGAND-PDBQT: ENDBRANCH   5   6
INPUT-LIGAND-PDBQT: ENDBRANCH   3   5
INPUT-LIGAND-PDBQT: ENDBRANCH   2   3
INPUT-LIGAND-PDBQT: ENDBRANCH   1   2
INPUT-LIGAND-PDBQT: BRANCH   1  12
INPUT-LIGAND-PDBQT: ATOM     12  N   UNL     1       0.953  -0.664   0.001  1.00  0.00    -0.304 N 
INPUT-LIGAND-PDBQT: ATOM     13  H   UNL     1       1.781  -0.395  -0.580  1.00  0.00     0.353 HD
INPUT-LIGAND-PDBQT: ATOM     14  H   UNL     1       0.156  -0.762  -0.665  1.00  0.00     0.353 HD
INPUT-LIGAND-PDBQT: BRANCH  12  15
INPUT-LIGAND-PDBQT: ATOM     15  C   UNL     1       1.273  -1.915   0.657  1.00  0.00     0.202 C 
INPUT-LIGAND-PDBQT: ATOM     16  S   UNL     1       2.610  -1.990   1.622  1.00  0.00    -0.017 S 
INPUT-LIGAND-PDBQT: BRANCH  15  17
INPUT-LIGAND-PDBQT: ATOM     17  C   UNL     1       0.538  -3.171   0.320  1.00  0.00     0.048 A 
INPUT-LIGAND-PDBQT: ATOM     18  C   UNL     1       1.202  -4.433   0.339  1.00  0.00     0.017 A 
INPUT-LIGAND-PDBQT: ATOM     19  C   UNL     1      -0.835  -3.129  -0.029  1.00  0.00     0.025 A 
INPUT-LIGAND-PDBQT: ATOM     20  C   UNL     1       0.517  -5.621   0.019  1.00  0.00     0.027 A 
INPUT-LIGAND-PDBQT: ATOM     21  C   UNL     1      -1.480  -4.324  -0.337  1.00  0.00     0.000 A 
INPUT-LIGAND-PDBQT: ATOM     22  C   UNL     1      -0.829  -5.526  -0.315  1.00  0.00     0.045 A 
INPUT-LIGAND-PDBQT: ATOM     23  C   UNL     1      -2.782  -4.567  -0.715  1.00  0.00     0.028 A 
INPUT-LIGAND-PDBQT: ATOM     24  N   UNL     1      -1.656  -6.524  -0.666  1.00  0.00    -0.361 N 
INPUT-LIGAND-PDBQT: ATOM     25  C   UNL     1      -2.853  -5.943  -0.912  1.00  0.00     0.083 A 
INPUT-LIGAND-PDBQT: ATOM     26  H   UNL     1      -1.423  -7.540  -0.749  1.00  0.00     0.166 HD
INPUT-LIGAND-PDBQT: ENDBRANCH  15  17
INPUT-LIGAND-PDBQT: ENDBRANCH  12  15
INPUT-LIGAND-PDBQT: ENDBRANCH   1  12
INPUT-LIGAND-PDBQT: TORSDOF 7


    FINAL DOCKED STATE:
    ________________________


Run:   1 / 20
Time taken for this run:   0.043s

DOCKED: MODEL        1
DOCKED: USER    Run = 1
DOCKED: USER
DOCKED: USER    Estimated Free Energy of Binding    =  -7.99 kcal/mol  [=(1)+(2)+(3)-(4)]
DOCKED: USER
DOCKED: USER    (1) Final Intermolecular Energy     = -10.07 kcal/mol
DOCKED: USER        vdW + Hbond + desolv Energy     =  -9.78 kcal/mol
DOCKED: USER        Electrostatic Energy            =  -0.30 kcal/mol
DOCKED: USER        Moving Ligand-Fixed Receptor    = -10.07 kcal/mol
DOCKED: USER        Moving Ligand-Moving Receptor   =  +0.00 kcal/mol
DOCKED: USER    (2) Final Total Internal Energy     =  -0.59 kcal/mol
DOCKED: USER    (3) Torsional Free Energy           =  +2.09 kcal/mol
DOCKED: USER    (4) Unbound System's Energy         =  -0.59 kcal/mol
DOCKED: USER
DOCKED: USER
DOCKED: REMARK SMILES C[C@H](CC[NH2+]C(=S)c1ccc2[nH]ccc2c1)Cc1ccccc1
DOCKED: REMARK SMILES IDX 4 1 3 2 2 3 1 4 17 5 18 6 19 7 23 8 20 9 22 10 21 11 5 12
DOCKED: REMARK SMILES IDX 6 15 7 16 8 17 9 18 16 19 10 20 15 21 11 22 14 23 12 24
DOCKED: REMARK SMILES IDX 13 25
DOCKED: REMARK H PARENT 5 13 5 14 12 26
DOCKED: USER                              x       y       z     vdW  Elec       q    Type
DOCKED: USER                           _______ _______ _______ _____ _____    ______ ____
DOCKED: ROOT
DOCKED: ATOM      1  C   UNL     1     139.239  74.028 221.279 -0.14 -0.06    +0.267 C  
DOCKED: ENDROOT
DOCKED: BRANCH   1   2
DOCKED: ATOM      2  C   UNL     1     140.135  72.881 221.803 -0.26 -0.01    +0.065 C  
DOCKED: BRANCH   2   3
DOCKED: ATOM      3  C   UNL     1     139.651  72.230 223.129 -0.20 +0.00    -0.004 C  
DOCKED: ATOM      4  C   UNL     1     138.338  71.467 222.883 -0.22 -0.00    +0.008 C  
DOCKED: BRANCH   3   5
DOCKED: ATOM      5  C   UNL     1     140.686  71.241 223.726 -0.28 -0.00    +0.039 C  
DOCKED: BRANCH   5   6
DOCKED: ATOM      6  C   UNL     1     140.514  71.015 225.205 -0.51 +0.01    -0.048 A  
DOCKED: ATOM      7  C   UNL     1     141.111  71.891 226.128 -0.64 -0.00    +0.004 A  
DOCKED: ATOM      8  C   UNL     1     139.767  69.921 225.678 -0.46 -0.00    +0.004 A  
DOCKED: ATOM      9  C   UNL     1     140.966  71.674 227.501 -0.81 -0.00    +0.000 A  
DOCKED: ATOM     10  C   UNL     1     139.626  69.707 227.052 -0.54 -0.00    +0.000 A  
DOCKED: ATOM     11  C   UNL     1     140.224  70.583 227.963 -0.67 -0.00    +0.000 A  
DOCKED: ENDBRANCH   5   6
DOCKED: ENDBRANCH   3   5
DOCKED: ENDBRANCH   2   3
DOCKED: ENDBRANCH   1   2
DOCKED: BRANCH   1  12
DOCKED: ATOM     12  N   UNL     1     138.629  74.846 222.344 -0.09 +0.09    -0.304 N  
DOCKED: ATOM     13  H   UNL     1     139.256  74.808 223.181 -0.42 -0.09    +0.353 HD 
DOCKED: ATOM     14  H   UNL     1     137.725  74.420 222.645 -0.35 -0.16    +0.353 HD 
DOCKED: BRANCH  12  15
DOCKED: ATOM     15  C   UNL     1     138.479  76.240 221.979 -0.21 -0.04    +0.202 C  
DOCKED: ATOM     16  S   UNL     1     137.065  76.735 221.286 -0.14 +0.00    -0.017 S  
DOCKED: BRANCH  15  17
DOCKED: ATOM     17  C   UNL     1     139.640  77.179 222.033 -0.30 -0.01    +0.048 A  
DOCKED: ATOM     18  C   UNL     1     140.736  77.037 221.132 -0.28 -0.01    +0.017 A  
DOCKED: ATOM     19  C   UNL     1     139.673  78.227 222.986 -0.29 -0.00    +0.025 A  
DOCKED: ATOM     20  C   UNL     1     141.836  77.915 221.179 -0.27 -0.02    +0.027 A  
DOCKED: ATOM     21  C   UNL     1     140.775  79.078 223.001 -0.48 -0.00    +0.000 A  
DOCKED: ATOM     22  C   UNL     1     141.819  78.928 222.131 -0.45 -0.02    +0.045 A  
DOCKED: ATOM     23  C   UNL     1     141.067  80.150 223.814 -0.49 -0.00    +0.028 A  
DOCKED: ATOM     24  N   UNL     1     142.765  79.854 222.355 -0.25 +0.17    -0.361 N  
DOCKED: ATOM     25  C   UNL     1     142.310  80.605 223.385 -0.58 -0.02    +0.083 A  
DOCKED: ATOM     26  H   UNL     1     143.675  79.965 221.851 -0.45 -0.11    +0.166 HD 
DOCKED: ENDBRANCH  15  17
DOCKED: ENDBRANCH  12  15
DOCKED: ENDBRANCH   1  12
DOCKED: TORSDOF 7
DOCKED: TER
DOCKED: ENDMDL
________________________________________________________________________________


    FINAL DOCKED STATE:
    ________________________


Run:   2 / 20
Time taken for this run:   0.043s

DOCKED: MODEL        2
DOCKED: USER    Run = 2
DOCKED: USER
DOCKED: USER    Estimated Free Energy of Binding    =  -6.66 kcal/mol  [=(1)+(2)+(3)-(4)]
DOCKED: USER
DOCKED: USER    (1) Final Intermolecular Energy     =  -8.75 kcal/mol
DOCKED: USER        vdW + Hbond + desolv Energy     =  -7.36 kcal/mol
DOCKED: USER        Electrostatic Energy            =  -1.39 kcal/mol
DOCKED: USER        Moving Ligand-Fixed Receptor    =  -8.75 kcal/mol
DOCKED: USER        Moving Ligand-Moving Receptor   =  +0.00 kcal/mol
DOCKED: USER    (2) Final Total Internal Energy     =  -1.97 kcal/mol
DOCKED: USER    (3) Torsional Free Energy           =  +2.09 kcal/mol
DOCKED: USER    (4) Unbound System's Energy         =  -1.97 kcal/mol
DOCKED: USER
DOCKED: USER
DOCKED: REMARK SMILES C[C@H](CC[NH2+]C(=S)c1ccc2[nH]ccc2c1)Cc1ccccc1
DOCKED: REMARK SMILES IDX 4 1 3 2 2 3 1 4 17 5 18 6 19 7 23 8 20 9 22 10 21 11 5 12
DOCKED: REMARK SMILES IDX 6 15 7 16 8 17 9 18 16 19 10 20 15 21 11 22 14 23 12 24
DOCKED: REMARK SMILES IDX 13 25
DOCKED: REMARK H PARENT 5 13 5 14 12 26
DOCKED: USER                              x       y       z     vdW  Elec       q    Type
DOCKED: USER                           _______ _______ _______ _____ _____    ______ ____
DOCKED: ROOT
DOCKED: ATOM      1  C   UNL     1     142.579  81.553 218.000 -0.17 -0.19    +0.267 C  
DOCKED: ENDROOT
DOCKED: BRANCH   1   2
DOCKED: ATOM      2  C   UNL     1     141.208  81.563 218.716 -0.19 -0.03    +0.065 C  
DOCKED: BRANCH   2   3
DOCKED: ATOM      3  C   UNL     1     141.155  82.428 220.007 -0.26 +0.00    -0.004 C  
DOCKED: ATOM      4  C   UNL     1     140.674  83.848 219.662 -0.19 -0.00    +0.008 C  
DOCKED: BRANCH   3   5
DOCKED: ATOM      5  C   UNL     1     140.207  81.840 221.085 -0.24 -0.01    +0.039 C  
DOCKED: BRANCH   5   6
DOCKED: ATOM      6  C   UNL     1     140.887  80.871 222.016 -0.35 +0.01    -0.048 A  
DOCKED: ATOM      7  C   UNL     1     142.265  80.622 221.894 -0.48 -0.00    +0.004 A  
DOCKED: ATOM      8  C   UNL     1     140.151  80.197 223.007 -0.40 -0.00    +0.004 A  
DOCKED: ATOM      9  C   UNL     1     142.894  79.711 222.747 -0.61 -0.00    +0.000 A  
DOCKED: ATOM     10  C   UNL     1     140.785  79.286 223.857 -0.52 -0.00    +0.000 A  
DOCKED: ATOM     11  C   UNL     1     142.155  79.043 223.728 -0.57 -0.00    +0.000 A  
DOCKED: ENDBRANCH   5   6
DOCKED: ENDBRANCH   3   5
DOCKED: ENDBRANCH   2   3
DOCKED: ENDBRANCH   1   2
DOCKED: BRANCH   1  12
DOCKED: ATOM     12  N   UNL     1     142.731  80.467 217.012 +0.11 +0.41    -0.304 N  
DOCKED: ATOM     13  H   UNL     1     143.659  80.010 217.174 -0.43 -0.87    +0.353 HD 
DOCKED: ATOM     14  H   UNL     1     142.773  80.867 216.050 -0.29 -0.53    +0.353 HD 
DOCKED: BRANCH  12  15
DOCKED: ATOM     15  C   UNL     1     141.717  79.440 217.133 -0.15 -0.15    +0.202 C  
DOCKED: ATOM     16  S   UNL     1     140.446  79.447 216.080 -0.07 +0.01    -0.017 S  
DOCKED: BRANCH  15  17
DOCKED: ATOM     17  C   UNL     1     141.699  78.509 218.301 -0.21 -0.03    +0.048 A  
DOCKED: ATOM     18  C   UNL     1     142.814  77.665 218.579 -0.32 -0.01    +0.017 A  
DOCKED: ATOM     19  C   UNL     1     140.568  78.447 219.153 -0.12 -0.01    +0.025 A  
DOCKED: ATOM     20  C   UNL     1     142.803  76.782 219.677 -0.36 -0.02    +0.027 A  
DOCKED: ATOM     21  C   UNL     1     140.594  77.564 220.229 -0.19 -0.00    +0.000 A  
DOCKED: ATOM     22  C   UNL     1     141.671  76.760 220.482 -0.27 -0.02    +0.045 A  
DOCKED: ATOM     23  C   UNL     1     139.644  77.295 221.190 -0.20 -0.01    +0.028 A  
DOCKED: ATOM     24  N   UNL     1     141.449  75.988 221.559 -0.13 +0.15    -0.361 N  
DOCKED: ATOM     25  C   UNL     1     140.210  76.312 221.996 -0.34 -0.02    +0.083 A  
DOCKED: ATOM     26  H   UNL     1     142.092  75.272 221.968 -0.41 -0.07    +0.166 HD 
DOCKED: ENDBRANCH  15  17
DOCKED: ENDBRANCH  12  15
DOCKED: ENDBRANCH   1  12
DOCKED: TORSDOF 7
DOCKED: TER
DOCKED: ENDMDL
________________________________________________________________________________


    FINAL DOCKED STATE:
    ________________________


Run:   3 / 20
Time taken for this run:   0.043s

DOCKED: MODEL        3
DOCKED: USER    Run = 3
DOCKED: USER
DOCKED: USER    Estimated Free Energy of Binding    =  -8.04 kcal/mol  [=(1)+(2)+(3)-(4)]
DOCKED: USER
DOCKED: USER    (1) Final Intermolecular Energy     = -10.13 kcal/mol
DOCKED: USER        vdW + Hbond + desolv Energy     =  -9.86 kcal/mol
DOCKED: USER        Electrostatic Energy            =  -0.27 kcal/mol
DOCKED: USER        Moving Ligand-Fixed Receptor    = -10.13 kcal/mol
DOCKED: USER        Moving Ligand-Moving Receptor   =  +0.00 kcal/mol
DOCKED: USER    (2) Final Total Internal Energy     =  -0.58 kcal/mol
DOCKED: USER    (3) Torsional Free Energy           =  +2.09 kcal/mol
DOCKED: USER    (4) Unbound System's Energy         =  -0.58 kcal/mol
DOCKED: USER
DOCKED: USER
DOCKED: REMARK SMILES C[C@H](CC[NH2+]C(=S)c1ccc2[nH]ccc2c1)Cc1ccccc1
DOCKED: REMARK SMILES IDX 4 1 3 2 2 3 1 4 17 5 18 6 19 7 23 8 20 9 22 10 21 11 5 12
DOCKED: REMARK SMILES IDX 6 15 7 16 8 17 9 18 16 19 10 20 15 21 11 22 14 23 12 24
DOCKED: REMARK SMILES IDX 13 25
DOCKED: REMARK H PARENT 5 13 5 14 12 26
DOCKED: USER                              x       y       z     vdW  Elec       q    Type
DOCKED: USER                           _______ _______ _______ _____ _____    ______ ____
DOCKED: ROOT
DOCKED: ATOM      1  C   UNL     1     139.284  73.535 221.329 -0.14 -0.05    +0.267 C  
DOCKED: ENDROOT
DOCKED: BRANCH   1   2
DOCKED: ATOM      2  C   UNL     1     140.144  72.406 221.947 -0.27 -0.01    +0.065 C  
DOCKED: BRANCH   2   3
DOCKED: ATOM      3  C   UNL     1     139.677  71.926 223.350 -0.28 +0.00    -0.004 C  
DOCKED: ATOM      4  C   UNL     1     138.320  71.211 223.229 -0.24 -0.00    +0.008 C  
DOCKED: BRANCH   3   5
DOCKED: ATOM      5  C   UNL     1     140.683  70.954 224.018 -0.25 -0.00    +0.039 C  
DOCKED: BRANCH   5   6
DOCKED: ATOM      6  C   UNL     1     140.556  70.898 225.518 -0.53 +0.01    -0.048 A  
DOCKED: ATOM      7  C   UNL     1     139.830  69.861 226.127 -0.49 -0.00    +0.004 A  
DOCKED: ATOM      8  C   UNL     1     141.151  71.887 226.322 -0.68 -0.00    +0.004 A  
DOCKED: ATOM      9  C   UNL     1     139.698  69.817 227.519 -0.58 -0.00    +0.000 A  
DOCKED: ATOM     10  C   UNL     1     141.015  71.840 227.712 -0.84 -0.00    +0.000 A  
DOCKED: ATOM     11  C   UNL     1     140.289  70.806 228.310 -0.63 -0.00    +0.000 A  
DOCKED: ENDBRANCH   5   6
DOCKED: ENDBRANCH   3   5
DOCKED: ENDBRANCH   2   3
DOCKED: ENDBRANCH   1   2
DOCKED: BRANCH   1  12
DOCKED: ATOM     12  N   UNL     1     138.778  74.511 222.313 -0.05 +0.09    -0.304 N  
DOCKED: ATOM     13  H   UNL     1     139.476  74.579 223.090 -0.43 -0.04    +0.353 HD 
DOCKED: ATOM     14  H   UNL     1     137.900  74.152 222.749 -0.45 -0.19    +0.353 HD 
DOCKED: BRANCH  12  15
DOCKED: ATOM     15  C   UNL     1     138.611  75.840 221.764 -0.19 -0.05    +0.202 C  
DOCKED: ATOM     16  S   UNL     1     137.285  76.158 220.834 -0.11 +0.00    -0.017 S  
DOCKED: BRANCH  15  17
DOCKED: ATOM     17  C   UNL     1     139.703  76.855 221.858 -0.30 -0.01    +0.048 A  
DOCKED: ATOM     18  C   UNL     1     140.775  76.863 220.918 -0.26 -0.01    +0.017 A  
DOCKED: ATOM     19  C   UNL     1     139.694  77.828 222.889 -0.21 -0.00    +0.025 A  
DOCKED: ATOM     20  C   UNL     1     141.811  77.813 221.002 -0.29 -0.02    +0.027 A  
DOCKED: ATOM     21  C   UNL     1     140.733  78.753 222.939 -0.47 -0.00    +0.000 A  
DOCKED: ATOM     22  C   UNL     1     141.755  78.747 222.030 -0.42 -0.02    +0.045 A  
DOCKED: ATOM     23  C   UNL     1     140.976  79.780 223.825 -0.51 -0.01    +0.028 A  
DOCKED: ATOM     24  N   UNL     1     142.640  79.720 222.299 -0.24 +0.18    -0.361 N  
DOCKED: ATOM     25  C   UNL     1     142.168  80.356 223.396 -0.57 -0.02    +0.083 A  
DOCKED: ATOM     26  H   UNL     1     143.521  79.936 221.780 -0.44 -0.12    +0.166 HD 
DOCKED: ENDBRANCH  15  17
DOCKED: ENDBRANCH  12  15
DOCKED: ENDBRANCH   1  12
DOCKED: TORSDOF 7
DOCKED: TER
DOCKED: ENDMDL
________________________________________________________________________________


    FINAL DOCKED STATE:
    ________________________


Run:   4 / 20
Time taken for this run:   0.043s

DOCKED: MODEL        4
DOCKED: USER    Run = 4
DOCKED: USER
DOCKED: USER    Estimated Free Energy of Binding    =  -6.90 kcal/mol  [=(1)+(2)+(3)-(4)]
DOCKED: USER
DOCKED: USER    (1) Final Intermolecular Energy     =  -8.98 kcal/mol
DOCKED: USER        vdW + Hbond + desolv Energy     =  -7.70 kcal/mol
DOCKED: USER        Electrostatic Energy            =  -1.28 kcal/mol
DOCKED: USER        Moving Ligand-Fixed Receptor    =  -8.98 kcal/mol
DOCKED: USER        Moving Ligand-Moving Receptor   =  +0.00 kcal/mol
DOCKED: USER    (2) Final Total Internal Energy     =  -1.86 kcal/mol
DOCKED: USER    (3) Torsional Free Energy           =  +2.09 kcal/mol
DOCKED: USER    (4) Unbound System's Energy         =  -1.86 kcal/mol
DOCKED: USER
DOCKED: USER
DOCKED: REMARK SMILES C[C@H](CC[NH2+]C(=S)c1ccc2[nH]ccc2c1)Cc1ccccc1
DOCKED: REMARK SMILES IDX 4 1 3 2 2 3 1 4 17 5 18 6 19 7 23 8 20 9 22 10 21 11 5 12
DOCKED: REMARK SMILES IDX 6 15 7 16 8 17 9 18 16 19 10 20 15 21 11 22 14 23 12 24
DOCKED: REMARK SMILES IDX 13 25
DOCKED: REMARK H PARENT 5 13 5 14 12 26
DOCKED: USER                              x       y       z     vdW  Elec       q    Type
DOCKED: USER                           _______ _______ _______ _____ _____    ______ ____
DOCKED: ROOT
DOCKED: ATOM      1  C   UNL     1     142.260  81.622 217.883 -0.20 -0.18    +0.267 C  
DOCKED: ENDROOT
DOCKED: BRANCH   1   2
DOCKED: ATOM      2  C   UNL     1     141.828  81.259 219.324 -0.24 -0.03    +0.065 C  
DOCKED: BRANCH   2   3
DOCKED: ATOM      3  C   UNL     1     140.852  82.272 219.986 -0.25 +0.00    -0.004 C  
DOCKED: ATOM      4  C   UNL     1     139.406  81.760 219.856 -0.10 -0.00    +0.008 C  
DOCKED: BRANCH   3   5
DOCKED: ATOM      5  C   UNL     1     141.154  82.503 221.489 -0.33 -0.01    +0.039 C  
DOCKED: BRANCH   5   6
DOCKED: ATOM      6  C   UNL     1     141.327  81.224 222.268 -0.42 +0.01    -0.048 A  
DOCKED: ATOM      7  C   UNL     1     142.587  80.607 222.342 -0.55 -0.00    +0.004 A  
DOCKED: ATOM      8  C   UNL     1     140.230  80.630 222.917 -0.39 -0.00    +0.004 A  
DOCKED: ATOM      9  C   UNL     1     142.746  79.413 223.051 -0.58 -0.00    +0.000 A  
DOCKED: ATOM     10  C   UNL     1     140.393  79.435 223.624 -0.48 -0.00    +0.000 A  
DOCKED: ATOM     11  C   UNL     1     141.650  78.827 223.691 -0.61 -0.00    +0.000 A  
DOCKED: ENDBRANCH   5   6
DOCKED: ENDBRANCH   3   5
DOCKED: ENDBRANCH   2   3
DOCKED: ENDBRANCH   1   2
DOCKED: BRANCH   1  12
DOCKED: ATOM     12  N   UNL     1     142.711  80.468 217.083 +0.02 +0.39    -0.304 N  
DOCKED: ATOM     13  H   UNL     1     143.624  80.139 217.476 -0.42 -0.70    +0.353 HD 
DOCKED: ATOM     14  H   UNL     1     142.914  80.772 216.106 -0.40 -0.60    +0.353 HD 
DOCKED: BRANCH  12  15
DOCKED: ATOM     15  C   UNL     1     141.793  79.349 217.127 -0.15 -0.16    +0.202 C  
DOCKED: ATOM     16  S   UNL     1     140.623  79.231 215.969 -0.08 +0.01    -0.017 S  
DOCKED: BRANCH  15  17
DOCKED: ATOM     17  C   UNL     1     141.761  78.424 218.300 -0.22 -0.03    +0.048 A  
DOCKED: ATOM     18  C   UNL     1     142.886  77.605 218.615 -0.32 -0.01    +0.017 A  
DOCKED: ATOM     19  C   UNL     1     140.609  78.343 219.121 -0.12 -0.01    +0.025 A  
DOCKED: ATOM     20  C   UNL     1     142.862  76.729 219.717 -0.36 -0.02    +0.027 A  
DOCKED: ATOM     21  C   UNL     1     140.623  77.467 220.203 -0.19 -0.00    +0.000 A  
DOCKED: ATOM     22  C   UNL     1     141.709  76.687 220.491 -0.27 -0.02    +0.045 A  
DOCKED: ATOM     23  C   UNL     1     139.652  77.184 221.138 -0.19 -0.01    +0.028 A  
DOCKED: ATOM     24  N   UNL     1     141.473  75.917 221.565 -0.11 +0.15    -0.361 N  
DOCKED: ATOM     25  C   UNL     1     140.216  76.217 221.966 -0.34 -0.02    +0.083 A  
DOCKED: ATOM     26  H   UNL     1     142.119  75.217 221.997 -0.39 -0.06    +0.166 HD 
DOCKED: ENDBRANCH  15  17
DOCKED: ENDBRANCH  12  15
DOCKED: ENDBRANCH   1  12
DOCKED: TORSDOF 7
DOCKED: TER
DOCKED: ENDMDL
________________________________________________________________________________


    FINAL DOCKED STATE:
    ________________________


Run:   5 / 20
Time taken for this run:   0.043s

DOCKED: MODEL        5
DOCKED: USER    Run = 5
DOCKED: USER
DOCKED: USER    Estimated Free Energy of Binding    =  -6.73 kcal/mol  [=(1)+(2)+(3)-(4)]
DOCKED: USER
DOCKED: USER    (1) Final Intermolecular Energy     =  -8.82 kcal/mol
DOCKED: USER        vdW + Hbond + desolv Energy     =  -7.45 kcal/mol
DOCKED: USER        Electrostatic Energy            =  -1.37 kcal/mol
DOCKED: USER        Moving Ligand-Fixed Receptor    =  -8.82 kcal/mol
DOCKED: USER        Moving Ligand-Moving Receptor   =  +0.00 kcal/mol
DOCKED: USER    (2) Final Total Internal Energy     =  -2.04 kcal/mol
DOCKED: USER    (3) Torsional Free Energy           =  +2.09 kcal/mol
DOCKED: USER    (4) Unbound System's Energy         =  -2.04 kcal/mol
DOCKED: USER
DOCKED: USER
DOCKED: REMARK SMILES C[C@H](CC[NH2+]C(=S)c1ccc2[nH]ccc2c1)Cc1ccccc1
DOCKED: REMARK SMILES IDX 4 1 3 2 2 3 1 4 17 5 18 6 19 7 23 8 20 9 22 10 21 11 5 12
DOCKED: REMARK SMILES IDX 6 15 7 16 8 17 9 18 16 19 10 20 15 21 11 22 14 23 12 24
DOCKED: REMARK SMILES IDX 13 25
DOCKED: REMARK H PARENT 5 13 5 14 12 26
DOCKED: USER                              x       y       z     vdW  Elec       q    Type
DOCKED: USER                           _______ _______ _______ _____ _____    ______ ____
DOCKED: ROOT
DOCKED: ATOM      1  C   UNL     1     142.573  81.832 217.816 -0.20 -0.19    +0.267 C  
DOCKED: ENDROOT
DOCKED: BRANCH   1   2
DOCKED: ATOM      2  C   UNL     1     141.161  81.906 218.444 -0.17 -0.03    +0.065 C  
DOCKED: BRANCH   2   3
DOCKED: ATOM      3  C   UNL     1     141.128  82.418 219.912 -0.25 +0.00    -0.004 C  
DOCKED: ATOM      4  C   UNL     1     140.693  83.893 219.937 -0.20 -0.00    +0.008 C  
DOCKED: BRANCH   3   5
DOCKED: ATOM      5  C   UNL     1     140.156  81.607 220.808 -0.21 -0.01    +0.039 C  
DOCKED: BRANCH   5   6
DOCKED: ATOM      6  C   UNL     1     140.858  80.764 221.841 -0.33 +0.01    -0.048 A  
DOCKED: ATOM      7  C   UNL     1     140.124  80.156 222.874 -0.38 -0.00    +0.004 A  
DOCKED: ATOM      8  C   UNL     1     142.252  80.587 221.791 -0.46 -0.00    +0.004 A  
DOCKED: ATOM      9  C   UNL     1     140.775  79.386 223.842 -0.53 -0.00    +0.000 A  
DOCKED: ATOM     10  C   UNL     1     142.899  79.818 222.762 -0.62 -0.00    +0.000 A  
DOCKED: ATOM     11  C   UNL     1     142.162  79.218 223.787 -0.58 -0.00    +0.000 A  
DOCKED: ENDBRANCH   5   6
DOCKED: ENDBRANCH   3   5
DOCKED: ENDBRANCH   2   3
DOCKED: ENDBRANCH   1   2
DOCKED: BRANCH   1  12
DOCKED: ATOM     12  N   UNL     1     142.844  80.573 217.095 +0.09 +0.42    -0.304 N  
DOCKED: ATOM     13  H   UNL     1     143.708  80.147 217.502 -0.41 -0.72    +0.353 HD 
DOCKED: ATOM     14  H   UNL     1     143.069  80.778 216.097 -0.42 -0.68    +0.353 HD 
DOCKED: BRANCH  12  15
DOCKED: ATOM     15  C   UNL     1     141.778  79.601 217.225 -0.16 -0.16    +0.202 C  
DOCKED: ATOM     16  S   UNL     1     140.466  79.717 216.231 -0.08 +0.01    -0.017 S  
DOCKED: BRANCH  15  17
DOCKED: ATOM     17  C   UNL     1     141.756  78.631 218.361 -0.22 -0.03    +0.048 A  
DOCKED: ATOM     18  C   UNL     1     142.869  77.775 218.612 -0.30 -0.01    +0.017 A  
DOCKED: ATOM     19  C   UNL     1     140.624  78.542 219.209 -0.13 -0.01    +0.025 A  
DOCKED: ATOM     20  C   UNL     1     142.855  76.855 219.678 -0.34 -0.02    +0.027 A  
DOCKED: ATOM     21  C   UNL     1     140.647  77.623 220.255 -0.20 -0.00    +0.000 A  
DOCKED: ATOM     22  C   UNL     1     141.721  76.809 220.482 -0.27 -0.02    +0.045 A  
DOCKED: ATOM     23  C   UNL     1     139.695  77.325 221.205 -0.20 -0.01    +0.028 A  
DOCKED: ATOM     24  N   UNL     1     141.496  76.001 221.531 -0.08 +0.16    -0.361 N  
DOCKED: ATOM     25  C   UNL     1     140.257  76.313 221.978 -0.34 -0.02    +0.083 A  
DOCKED: ATOM     26  H   UNL     1     142.136  75.270 221.916 -0.42 -0.07    +0.166 HD 
DOCKED: ENDBRANCH  15  17
DOCKED: ENDBRANCH  12  15
DOCKED: ENDBRANCH   1  12
DOCKED: TORSDOF 7
DOCKED: TER
DOCKED: ENDMDL
________________________________________________________________________________


    FINAL DOCKED STATE:
    ________________________


Run:   6 / 20
Time taken for this run:   0.043s

DOCKED: MODEL        6
DOCKED: USER    Run = 6
DOCKED: USER
DOCKED: USER    Estimated Free Energy of Binding    =  -6.61 kcal/mol  [=(1)+(2)+(3)-(4)]
DOCKED: USER
DOCKED: USER    (1) Final Intermolecular Energy     =  -8.70 kcal/mol
DOCKED: USER        vdW + Hbond + desolv Energy     =  -7.85 kcal/mol
DOCKED: USER        Electrostatic Energy            =  -0.84 kcal/mol
DOCKED: USER        Moving Ligand-Fixed Receptor    =  -8.70 kcal/mol
DOCKED: USER        Moving Ligand-Moving Receptor   =  +0.00 kcal/mol
DOCKED: USER    (2) Final Total Internal Energy     =  -1.69 kcal/mol
DOCKED: USER    (3) Torsional Free Energy           =  +2.09 kcal/mol
DOCKED: USER    (4) Unbound System's Energy         =  -1.69 kcal/mol
DOCKED: USER
DOCKED: USER
DOCKED: REMARK SMILES C[C@H](CC[NH2+]C(=S)c1ccc2[nH]ccc2c1)Cc1ccccc1
DOCKED: REMARK SMILES IDX 4 1 3 2 2 3 1 4 17 5 18 6 19 7 23 8 20 9 22 10 21 11 5 12
DOCKED: REMARK SMILES IDX 6 15 7 16 8 17 9 18 16 19 10 20 15 21 11 22 14 23 12 24
DOCKED: REMARK SMILES IDX 13 25
DOCKED: REMARK H PARENT 5 13 5 14 12 26
DOCKED: USER                              x       y       z     vdW  Elec       q    Type
DOCKED: USER                           _______ _______ _______ _____ _____    ______ ____
DOCKED: ROOT
DOCKED: ATOM      1  C   UNL     1     142.692  75.754 219.889 -0.20 -0.14    +0.267 C  
DOCKED: ENDROOT
DOCKED: BRANCH   1   2
DOCKED: ATOM      2  C   UNL     1     141.412  75.627 220.748 -0.27 -0.02    +0.065 C  
DOCKED: BRANCH   2   3
DOCKED: ATOM      3  C   UNL     1     140.798  76.980 221.207 -0.32 +0.00    -0.004 C  
DOCKED: ATOM      4  C   UNL     1     139.294  77.003 220.886 -0.16 -0.00    +0.008 C  
DOCKED: BRANCH   3   5
DOCKED: ATOM      5  C   UNL     1     140.977  77.236 222.726 -0.35 -0.01    +0.039 C  
DOCKED: BRANCH   5   6
DOCKED: ATOM      6  C   UNL     1     141.262  78.677 223.061 -0.51 +0.02    -0.048 A  
DOCKED: ATOM      7  C   UNL     1     142.576  79.172 222.989 -0.54 -0.00    +0.004 A  
DOCKED: ATOM      8  C   UNL     1     140.223  79.537 223.459 -0.46 -0.00    +0.004 A  
DOCKED: ATOM      9  C   UNL     1     142.845  80.505 223.315 -0.68 -0.00    +0.000 A  
DOCKED: ATOM     10  C   UNL     1     140.497  80.868 223.785 -0.40 -0.00    +0.000 A  
DOCKED: ATOM     11  C   UNL     1     141.806  81.352 223.713 -0.58 -0.00    +0.000 A  
DOCKED: ENDBRANCH   5   6
DOCKED: ENDBRANCH   3   5
DOCKED: ENDBRANCH   2   3
DOCKED: ENDBRANCH   1   2
DOCKED: BRANCH   1  12
DOCKED: ATOM     12  N   UNL     1     143.170  77.140 219.727 -0.08 +0.25    -0.304 N  
DOCKED: ATOM     13  H   UNL     1     144.204  77.109 219.564 -0.33 -0.33    +0.353 HD 
DOCKED: ATOM     14  H   UNL     1     143.037  77.667 220.618 -0.31 -0.39    +0.353 HD 
DOCKED: BRANCH  12  15
DOCKED: ATOM     15  C   UNL     1     142.575  77.821 218.596 -0.24 -0.14    +0.202 C  
DOCKED: ATOM     16  S   UNL     1     142.468  77.026 217.153 -0.27 +0.01    -0.017 S  
DOCKED: BRANCH  15  17
DOCKED: ATOM     17  C   UNL     1     142.244  79.276 218.660 -0.29 -0.04    +0.048 A  
DOCKED: ATOM     18  C   UNL     1     142.595  80.152 217.591 -0.27 -0.02    +0.017 A  
DOCKED: ATOM     19  C   UNL     1     141.577  79.813 219.790 -0.27 -0.01    +0.025 A  
DOCKED: ATOM     20  C   UNL     1     142.290  81.526 217.646 -0.28 -0.02    +0.027 A  
DOCKED: ATOM     21  C   UNL     1     141.290  81.175 219.807 -0.27 -0.00    +0.000 A  
DOCKED: ATOM     22  C   UNL     1     141.634  82.002 218.775 -0.23 -0.02    +0.045 A  
DOCKED: ATOM     23  C   UNL     1     140.674  81.948 220.767 -0.27 -0.01    +0.028 A  
DOCKED: ATOM     24  N   UNL     1     141.269  83.268 219.034 -0.06 +0.11    -0.361 N  
DOCKED: ATOM     25  C   UNL     1     140.680  83.241 220.252 -0.22 -0.02    +0.083 A  
DOCKED: ATOM     26  H   UNL     1     141.420  84.108 218.429 +0.04 -0.05    +0.166 HD 
DOCKED: ENDBRANCH  15  17
DOCKED: ENDBRANCH  12  15
DOCKED: ENDBRANCH   1  12
DOCKED: TORSDOF 7
DOCKED: TER
DOCKED: ENDMDL
________________________________________________________________________________


    FINAL DOCKED STATE:
    ________________________


Run:   7 / 20
Time taken for this run:   0.043s

DOCKED: MODEL        7
DOCKED: USER    Run = 7
DOCKED: USER
DOCKED: USER    Estimated Free Energy of Binding    =  -6.52 kcal/mol  [=(1)+(2)+(3)-(4)]
DOCKED: USER
DOCKED: USER    (1) Final Intermolecular Energy     =  -8.61 kcal/mol
DOCKED: USER        vdW + Hbond + desolv Energy     =  -7.31 kcal/mol
DOCKED: USER        Electrostatic Energy            =  -1.30 kcal/mol
DOCKED: USER        Moving Ligand-Fixed Receptor    =  -8.61 kcal/mol
DOCKED: USER        Moving Ligand-Moving Receptor   =  +0.00 kcal/mol
DOCKED: USER    (2) Final Total Internal Energy     =  -2.20 kcal/mol
DOCKED: USER    (3) Torsional Free Energy           =  +2.09 kcal/mol
DOCKED: USER    (4) Unbound System's Energy         =  -2.20 kcal/mol
DOCKED: USER
DOCKED: USER
DOCKED: REMARK SMILES C[C@H](CC[NH2+]C(=S)c1ccc2[nH]ccc2c1)Cc1ccccc1
DOCKED: REMARK SMILES IDX 4 1 3 2 2 3 1 4 17 5 18 6 19 7 23 8 20 9 22 10 21 11 5 12
DOCKED: REMARK SMILES IDX 6 15 7 16 8 17 9 18 16 19 10 20 15 21 11 22 14 23 12 24
DOCKED: REMARK SMILES IDX 13 25
DOCKED: REMARK H PARENT 5 13 5 14 12 26
DOCKED: USER                              x       y       z     vdW  Elec       q    Type
DOCKED: USER                           _______ _______ _______ _____ _____    ______ ____
DOCKED: ROOT
DOCKED: ATOM      1  C   UNL     1     142.598  81.473 217.878 -0.21 -0.21    +0.267 C  
DOCKED: ENDROOT
DOCKED: BRANCH   1   2
DOCKED: ATOM      2  C   UNL     1     141.197  81.938 218.342 -0.17 -0.03    +0.065 C  
DOCKED: BRANCH   2   3
DOCKED: ATOM      3  C   UNL     1     141.123  82.402 219.824 -0.25 +0.00    -0.004 C  
DOCKED: ATOM      4  C   UNL     1     140.656  83.866 219.887 -0.20 -0.00    +0.008 C  
DOCKED: BRANCH   3   5
DOCKED: ATOM      5  C   UNL     1     140.152  81.543 220.675 -0.20 -0.01    +0.039 C  
DOCKED: BRANCH   5   6
DOCKED: ATOM      6  C   UNL     1     140.838  80.778 221.777 -0.32 +0.01    -0.048 A  
DOCKED: ATOM      7  C   UNL     1     142.228  80.579 221.740 -0.46 -0.00    +0.004 A  
DOCKED: ATOM      8  C   UNL     1     140.094  80.246 222.846 -0.38 -0.00    +0.004 A  
DOCKED: ATOM      9  C   UNL     1     142.864  79.856 222.754 -0.62 -0.00    +0.000 A  
DOCKED: ATOM     10  C   UNL     1     140.734  79.522 223.857 -0.51 -0.00    +0.000 A  
DOCKED: ATOM     11  C   UNL     1     142.117  79.328 223.811 -0.60 -0.00    +0.000 A  
DOCKED: ENDBRANCH   5   6
DOCKED: ENDBRANCH   3   5
DOCKED: ENDBRANCH   2   3
DOCKED: ENDBRANCH   1   2
DOCKED: BRANCH   1  12
DOCKED: ATOM     12  N   UNL     1     142.574  80.302 216.980 -0.07 +0.38    -0.304 N  
DOCKED: ATOM     13  H   UNL     1     143.459  79.763 217.129 -0.45 -0.78    +0.353 HD 
DOCKED: ATOM     14  H   UNL     1     142.596  80.618 215.986 -0.21 -0.50    +0.353 HD 
DOCKED: BRANCH  12  15
DOCKED: ATOM     15  C   UNL     1     141.470  79.404 217.243 -0.12 -0.14    +0.202 C  
DOCKED: ATOM     16  S   UNL     1     140.134  79.478 216.276 -0.06 +0.01    -0.017 S  
DOCKED: BRANCH  15  17
DOCKED: ATOM     17  C   UNL     1     141.438  78.564 218.477 -0.18 -0.03    +0.048 A  
DOCKED: ATOM     18  C   UNL     1     142.593  77.841 218.899 -0.30 -0.01    +0.017 A  
DOCKED: ATOM     19  C   UNL     1     140.254  78.468 219.251 -0.10 -0.01    +0.025 A  
DOCKED: ATOM     20  C   UNL     1     142.569  77.044 220.060 -0.30 -0.02    +0.027 A  
DOCKED: ATOM     21  C   UNL     1     140.269  77.672 220.394 -0.17 -0.00    +0.000 A  
DOCKED: ATOM     22  C   UNL     1     141.385  76.985 220.784 -0.28 -0.02    +0.045 A  
DOCKED: ATOM     23  C   UNL     1     139.274  77.395 221.305 -0.19 -0.01    +0.028 A  
DOCKED: ATOM     24  N   UNL     1     141.144  76.278 221.901 -0.16 +0.14    -0.361 N  
DOCKED: ATOM     25  C   UNL     1     139.854  76.526 222.224 -0.33 -0.02    +0.083 A  
DOCKED: ATOM     26  H   UNL     1     141.810  75.652 222.410 -0.46 -0.06    +0.166 HD 
DOCKED: ENDBRANCH  15  17
DOCKED: ENDBRANCH  12  15
DOCKED: ENDBRANCH   1  12
DOCKED: TORSDOF 7
DOCKED: TER
DOCKED: ENDMDL
________________________________________________________________________________


    FINAL DOCKED STATE:
    ________________________


Run:   8 / 20
Time taken for this run:   0.043s

DOCKED: MODEL        8
DOCKED: USER    Run = 8
DOCKED: USER
DOCKED: USER    Estimated Free Energy of Binding    =  -6.72 kcal/mol  [=(1)+(2)+(3)-(4)]
DOCKED: USER
DOCKED: USER    (1) Final Intermolecular Energy     =  -8.81 kcal/mol
DOCKED: USER        vdW + Hbond + desolv Energy     =  -7.73 kcal/mol
DOCKED: USER        Electrostatic Energy            =  -1.08 kcal/mol
DOCKED: USER        Moving Ligand-Fixed Receptor    =  -8.81 kcal/mol
DOCKED: USER        Moving Ligand-Moving Receptor   =  +0.00 kcal/mol
DOCKED: USER    (2) Final Total Internal Energy     =  -1.76 kcal/mol
DOCKED: USER    (3) Torsional Free Energy           =  +2.09 kcal/mol
DOCKED: USER    (4) Unbound System's Energy         =  -1.76 kcal/mol
DOCKED: USER
DOCKED: USER
DOCKED: REMARK SMILES C[C@H](CC[NH2+]C(=S)c1ccc2[nH]ccc2c1)Cc1ccccc1
DOCKED: REMARK SMILES IDX 4 1 3 2 2 3 1 4 17 5 18 6 19 7 23 8 20 9 22 10 21 11 5 12
DOCKED: REMARK SMILES IDX 6 15 7 16 8 17 9 18 16 19 10 20 15 21 11 22 14 23 12 24
DOCKED: REMARK SMILES IDX 13 25
DOCKED: REMARK H PARENT 5 13 5 14 12 26
DOCKED: USER                              x       y       z     vdW  Elec       q    Type
DOCKED: USER                           _______ _______ _______ _____ _____    ______ ____
DOCKED: ROOT
DOCKED: ATOM      1  C   UNL     1     141.737  79.508 217.508 -0.15 -0.19    +0.267 C  
DOCKED: ENDROOT
DOCKED: BRANCH   1   2
DOCKED: ATOM      2  C   UNL     1     140.951  80.377 218.518 -0.15 -0.03    +0.065 C  
DOCKED: BRANCH   2   3
DOCKED: ATOM      3  C   UNL     1     141.809  81.423 219.282 -0.25 +0.00    -0.004 C  
DOCKED: ATOM      4  C   UNL     1     142.038  82.657 218.392 -0.19 -0.00    +0.008 C  
DOCKED: BRANCH   3   5
DOCKED: ATOM      5  C   UNL     1     141.148  81.892 220.604 -0.30 -0.01    +0.039 C  
DOCKED: BRANCH   5   6
DOCKED: ATOM      6  C   UNL     1     141.328  80.921 221.742 -0.38 +0.01    -0.048 A  
DOCKED: ATOM      7  C   UNL     1     140.268  80.666 222.628 -0.36 -0.00    +0.004 A  
DOCKED: ATOM      8  C   UNL     1     142.560  80.270 221.936 -0.47 -0.00    +0.004 A  
DOCKED: ATOM      9  C   UNL     1     140.439  79.777 223.694 -0.48 -0.00    +0.000 A  
DOCKED: ATOM     10  C   UNL     1     142.727  79.383 223.003 -0.58 -0.00    +0.000 A  
DOCKED: ATOM     11  C   UNL     1     141.668  79.136 223.881 -0.62 -0.00    +0.000 A  
DOCKED: ENDBRANCH   5   6
DOCKED: ENDBRANCH   3   5
DOCKED: ENDBRANCH   2   3
DOCKED: ENDBRANCH   1   2
DOCKED: BRANCH   1  12
DOCKED: ATOM     12  N   UNL     1     142.938  78.865 218.076 -0.19 +0.31    -0.304 N  
DOCKED: ATOM     13  H   UNL     1     143.134  79.309 219.004 +0.02 -0.36    +0.353 HD 
DOCKED: ATOM     14  H   UNL     1     143.768  79.074 217.479 -0.41 -0.64    +0.353 HD 
DOCKED: BRANCH  12  15
DOCKED: ATOM     15  C   UNL     1     142.772  77.444 218.302 -0.23 -0.14    +0.202 C  
DOCKED: ATOM     16  S   UNL     1     143.319  76.386 217.159 -0.31 +0.01    -0.017 S  
DOCKED: BRANCH  15  17
DOCKED: ATOM     17  C   UNL     1     141.948  76.937 219.439 -0.25 -0.03    +0.048 A  
DOCKED: ATOM     18  C   UNL     1     142.270  75.705 220.082 -0.30 -0.01    +0.017 A  
DOCKED: ATOM     19  C   UNL     1     140.826  77.671 219.898 -0.18 -0.01    +0.025 A  
DOCKED: ATOM     20  C   UNL     1     141.496  75.218 221.153 -0.31 -0.01    +0.027 A  
DOCKED: ATOM     21  C   UNL     1     140.085  77.160 220.961 -0.21 -0.00    +0.000 A  
DOCKED: ATOM     22  C   UNL     1     140.407  75.977 221.566 -0.33 -0.01    +0.045 A  
DOCKED: ATOM     23  C   UNL     1     138.961  77.651 221.587 -0.20 -0.01    +0.028 A  
DOCKED: ATOM     24  N   UNL     1     139.536  75.689 222.546 -0.14 +0.06    -0.361 N  
DOCKED: ATOM     25  C   UNL     1     138.648  76.711 222.564 -0.27 -0.02    +0.083 A  
DOCKED: ATOM     26  H   UNL     1     139.531  74.844 223.162 -0.48 -0.01    +0.166 HD 
DOCKED: ENDBRANCH  15  17
DOCKED: ENDBRANCH  12  15
DOCKED: ENDBRANCH   1  12
DOCKED: TORSDOF 7
DOCKED: TER
DOCKED: ENDMDL
________________________________________________________________________________


    FINAL DOCKED STATE:
    ________________________


Run:   9 / 20
Time taken for this run:   0.043s

DOCKED: MODEL        9
DOCKED: USER    Run = 9
DOCKED: USER
DOCKED: USER    Estimated Free Energy of Binding    =  -6.72 kcal/mol  [=(1)+(2)+(3)-(4)]
DOCKED: USER
DOCKED: USER    (1) Final Intermolecular Energy     =  -8.81 kcal/mol
DOCKED: USER        vdW + Hbond + desolv Energy     =  -7.51 kcal/mol
DOCKED: USER        Electrostatic Energy            =  -1.30 kcal/mol
DOCKED: USER        Moving Ligand-Fixed Receptor    =  -8.81 kcal/mol
DOCKED: USER        Moving Ligand-Moving Receptor   =  +0.00 kcal/mol
DOCKED: USER    (2) Final Total Internal Energy     =  -2.04 kcal/mol
DOCKED: USER    (3) Torsional Free Energy           =  +2.09 kcal/mol
DOCKED: USER    (4) Unbound System's Energy         =  -2.04 kcal/mol
DOCKED: USER
DOCKED: USER
DOCKED: REMARK SMILES C[C@H](CC[NH2+]C(=S)c1ccc2[nH]ccc2c1)Cc1ccccc1
DOCKED: REMARK SMILES IDX 4 1 3 2 2 3 1 4 17 5 18 6 19 7 23 8 20 9 22 10 21 11 5 12
DOCKED: REMARK SMILES IDX 6 15 7 16 8 17 9 18 16 19 10 20 15 21 11 22 14 23 12 24
DOCKED: REMARK SMILES IDX 13 25
DOCKED: REMARK H PARENT 5 13 5 14 12 26
DOCKED: USER                              x       y       z     vdW  Elec       q    Type
DOCKED: USER                           _______ _______ _______ _____ _____    ______ ____
DOCKED: ROOT
DOCKED: ATOM      1  C   UNL     1     141.847  81.282 217.510 -0.15 -0.18    +0.267 C  
DOCKED: ENDROOT
DOCKED: BRANCH   1   2
DOCKED: ATOM      2  C   UNL     1     142.024  81.392 219.042 -0.16 -0.03    +0.065 C  
DOCKED: BRANCH   2   3
DOCKED: ATOM      3  C   UNL     1     140.863  82.115 219.782 -0.24 +0.00    -0.004 C  
DOCKED: ATOM      4  C   UNL     1     139.615  81.217 219.791 -0.11 -0.00    +0.008 C  
DOCKED: BRANCH   3   5
DOCKED: ATOM      5  C   UNL     1     141.217  82.474 221.249 -0.32 -0.01    +0.039 C  
DOCKED: BRANCH   5   6
DOCKED: ATOM      6  C   UNL     1     141.367  81.269 222.141 -0.41 +0.01    -0.048 A  
DOCKED: ATOM      7  C   UNL     1     142.576  80.553 222.163 -0.53 -0.00    +0.004 A  
DOCKED: ATOM      8  C   UNL     1     140.298  80.841 222.948 -0.40 -0.00    +0.004 A  
DOCKED: ATOM      9  C   UNL     1     142.712  79.425 222.978 -0.59 -0.00    +0.000 A  
DOCKED: ATOM     10  C   UNL     1     140.438  79.711 223.760 -0.48 -0.00    +0.000 A  
DOCKED: ATOM     11  C   UNL     1     141.644  79.005 223.775 -0.62 -0.00    +0.000 A  
DOCKED: ENDBRANCH   5   6
DOCKED: ENDBRANCH   3   5
DOCKED: ENDBRANCH   2   3
DOCKED: ENDBRANCH   1   2
DOCKED: BRANCH   1  12
DOCKED: ATOM     12  N   UNL     1     142.577  80.154 216.901 -0.02 +0.39    -0.304 N  
DOCKED: ATOM     13  H   UNL     1     143.485  80.043 217.411 -0.43 -0.67    +0.353 HD 
DOCKED: ATOM     14  H   UNL     1     142.829  80.385 215.916 -0.37 -0.62    +0.353 HD 
DOCKED: BRANCH  12  15
DOCKED: ATOM     15  C   UNL     1     141.869  78.894 217.001 -0.15 -0.16    +0.202 C  
DOCKED: ATOM     16  S   UNL     1     140.992  78.368 215.705 -0.09 +0.01    -0.017 S  
DOCKED: BRANCH  15  17
DOCKED: ATOM     17  C   UNL     1     141.757  78.175 218.306 -0.21 -0.03    +0.048 A  
DOCKED: ATOM     18  C   UNL     1     142.852  77.421 218.819 -0.32 -0.01    +0.017 A  
DOCKED: ATOM     19  C   UNL     1     140.555  78.229 219.055 -0.11 -0.01    +0.025 A  
DOCKED: ATOM     20  C   UNL     1     142.754  76.737 220.047 -0.27 -0.02    +0.027 A  
DOCKED: ATOM     21  C   UNL     1     140.495  77.542 220.265 -0.18 -0.00    +0.000 A  
DOCKED: ATOM     22  C   UNL     1     141.554  76.822 220.744 -0.26 -0.02    +0.045 A  
DOCKED: ATOM     23  C   UNL     1     139.467  77.416 221.173 -0.18 -0.01    +0.028 A  
DOCKED: ATOM     24  N   UNL     1     141.246  76.239 221.913 -0.12 +0.15    -0.361 N  
DOCKED: ATOM     25  C   UNL     1     139.969  76.598 222.181 -0.34 -0.02    +0.083 A  
DOCKED: ATOM     26  H   UNL     1     141.858  75.620 222.493 -0.45 -0.06    +0.166 HD 
DOCKED: ENDBRANCH  15  17
DOCKED: ENDBRANCH  12  15
DOCKED: ENDBRANCH   1  12
DOCKED: TORSDOF 7
DOCKED: TER
DOCKED: ENDMDL
________________________________________________________________________________


    FINAL DOCKED STATE:
    ________________________


Run:   10 / 20
Time taken for this run:   0.043s

DOCKED: MODEL        10
DOCKED: USER    Run = 10
DOCKED: USER
DOCKED: USER    Estimated Free Energy of Binding    =  -7.60 kcal/mol  [=(1)+(2)+(3)-(4)]
DOCKED: USER
DOCKED: USER    (1) Final Intermolecular Energy     =  -9.68 kcal/mol
DOCKED: USER        vdW + Hbond + desolv Energy     =  -9.34 kcal/mol
DOCKED: USER        Electrostatic Energy            =  -0.35 kcal/mol
DOCKED: USER        Moving Ligand-Fixed Receptor    =  -9.68 kcal/mol
DOCKED: USER        Moving Ligand-Moving Receptor   =  +0.00 kcal/mol
DOCKED: USER    (2) Final Total Internal Energy     =  -0.63 kcal/mol
DOCKED: USER    (3) Torsional Free Energy           =  +2.09 kcal/mol
DOCKED: USER    (4) Unbound System's Energy         =  -0.63 kcal/mol
DOCKED: USER
DOCKED: USER
DOCKED: REMARK SMILES C[C@H](CC[NH2+]C(=S)c1ccc2[nH]ccc2c1)Cc1ccccc1
DOCKED: REMARK SMILES IDX 4 1 3 2 2 3 1 4 17 5 18 6 19 7 23 8 20 9 22 10 21 11 5 12
DOCKED: REMARK SMILES IDX 6 15 7 16 8 17 9 18 16 19 10 20 15 21 11 22 14 23 12 24
DOCKED: REMARK SMILES IDX 13 25
DOCKED: REMARK H PARENT 5 13 5 14 12 26
DOCKED: USER                              x       y       z     vdW  Elec       q    Type
DOCKED: USER                           _______ _______ _______ _____ _____    ______ ____
DOCKED: ROOT
DOCKED: ATOM      1  C   UNL     1     138.331  72.517 221.964 -0.11 -0.07    +0.267 C  
DOCKED: ENDROOT
DOCKED: BRANCH   1   2
DOCKED: ATOM      2  C   UNL     1     138.472  71.522 223.140 -0.21 -0.02    +0.065 C  
DOCKED: BRANCH   2   3
DOCKED: ATOM      3  C   UNL     1     139.932  71.102 223.465 -0.37 +0.00    -0.004 C  
DOCKED: ATOM      4  C   UNL     1     140.891  71.712 222.428 -0.22 -0.00    +0.008 C  
DOCKED: BRANCH   3   5
DOCKED: ATOM      5  C   UNL     1     140.388  71.555 224.877 -0.44 -0.01    +0.039 C  
DOCKED: BRANCH   5   6
DOCKED: ATOM      6  C   UNL     1     140.369  70.446 225.897 -0.51 +0.01    -0.048 A  
DOCKED: ATOM      7  C   UNL     1     140.732  70.705 227.229 -0.66 -0.00    +0.004 A  
DOCKED: ATOM      8  C   UNL     1     140.001  69.141 225.525 -0.45 -0.00    +0.004 A  
DOCKED: ATOM      9  C   UNL     1     140.730  69.674 228.173 -0.61 -0.00    +0.000 A  
DOCKED: ATOM     10  C   UNL     1     140.002  68.112 226.472 -0.64 -0.00    +0.000 A  
DOCKED: ATOM     11  C   UNL     1     140.366  68.379 227.795 -0.66 -0.00    +0.000 A  
DOCKED: ENDBRANCH   5   6
DOCKED: ENDBRANCH   3   5
DOCKED: ENDBRANCH   2   3
DOCKED: ENDBRANCH   1   2
DOCKED: BRANCH   1  12
DOCKED: ATOM     12  N   UNL     1     138.556  73.927 222.340 +0.05 +0.11    -0.304 N  
DOCKED: ATOM     13  H   UNL     1     139.353  73.957 223.018 -0.42 -0.10    +0.353 HD 
DOCKED: ATOM     14  H   UNL     1     137.727  74.292 222.857 -0.42 -0.20    +0.353 HD 
DOCKED: BRANCH  12  15
DOCKED: ATOM     15  C   UNL     1     138.912  74.767 221.216 -0.15 -0.04    +0.202 C  
DOCKED: ATOM     16  S   UNL     1     138.485  74.288 219.695 -0.07 +0.00    -0.017 S  
DOCKED: BRANCH  15  17
DOCKED: ATOM     17  C   UNL     1     139.821  75.940 221.389 -0.26 -0.01    +0.048 A  
DOCKED: ATOM     18  C   UNL     1     140.937  76.133 220.522 -0.24 -0.01    +0.017 A  
DOCKED: ATOM     19  C   UNL     1     139.590  76.882 222.423 -0.32 -0.01    +0.025 A  
DOCKED: ATOM     20  C   UNL     1     141.800  77.235 220.682 -0.26 -0.02    +0.027 A  
DOCKED: ATOM     21  C   UNL     1     140.463  77.959 222.548 -0.42 -0.00    +0.000 A  
DOCKED: ATOM     22  C   UNL     1     141.529  78.130 221.710 -0.33 -0.02    +0.045 A  
DOCKED: ATOM     23  C   UNL     1     140.480  78.996 223.454 -0.45 -0.01    +0.028 A  
DOCKED: ATOM     24  N   UNL     1     142.229  79.227 222.043 -0.22 +0.20    -0.361 N  
DOCKED: ATOM     25  C   UNL     1     141.591  79.761 223.111 -0.50 -0.02    +0.083 A  
DOCKED: ATOM     26  H   UNL     1     143.096  79.588 221.585 -0.44 -0.13    +0.166 HD 
DOCKED: ENDBRANCH  15  17
DOCKED: ENDBRANCH  12  15
DOCKED: ENDBRANCH   1  12
DOCKED: TORSDOF 7
DOCKED: TER
DOCKED: ENDMDL
________________________________________________________________________________


    FINAL DOCKED STATE:
    ________________________


Run:   11 / 20
Time taken for this run:   0.043s

DOCKED: MODEL        11
DOCKED: USER    Run = 11
DOCKED: USER
DOCKED: USER    Estimated Free Energy of Binding    =  -6.90 kcal/mol  [=(1)+(2)+(3)-(4)]
DOCKED: USER
DOCKED: USER    (1) Final Intermolecular Energy     =  -8.99 kcal/mol
DOCKED: USER        vdW + Hbond + desolv Energy     =  -8.09 kcal/mol
DOCKED: USER        Electrostatic Energy            =  -0.89 kcal/mol
DOCKED: USER        Moving Ligand-Fixed Receptor    =  -8.99 kcal/mol
DOCKED: USER        Moving Ligand-Moving Receptor   =  +0.00 kcal/mol
DOCKED: USER    (2) Final Total Internal Energy     =  -1.44 kcal/mol
DOCKED: USER    (3) Torsional Free Energy           =  +2.09 kcal/mol
DOCKED: USER    (4) Unbound System's Energy         =  -1.44 kcal/mol
DOCKED: USER
DOCKED: USER
DOCKED: REMARK SMILES C[C@H](CC[NH2+]C(=S)c1ccc2[nH]ccc2c1)Cc1ccccc1
DOCKED: REMARK SMILES IDX 4 1 3 2 2 3 1 4 17 5 18 6 19 7 23 8 20 9 22 10 21 11 5 12
DOCKED: REMARK SMILES IDX 6 15 7 16 8 17 9 18 16 19 10 20 15 21 11 22 14 23 12 24
DOCKED: REMARK SMILES IDX 13 25
DOCKED: REMARK H PARENT 5 13 5 14 12 26
DOCKED: USER                              x       y       z     vdW  Elec       q    Type
DOCKED: USER                           _______ _______ _______ _____ _____    ______ ____
DOCKED: ROOT
DOCKED: ATOM      1  C   UNL     1     141.538  79.165 219.890 -0.16 -0.14    +0.267 C  
DOCKED: ENDROOT
DOCKED: BRANCH   1   2
DOCKED: ATOM      2  C   UNL     1     142.043  80.153 220.969 -0.29 -0.03    +0.065 C  
DOCKED: BRANCH   2   3
DOCKED: ATOM      3  C   UNL     1     142.163  79.552 222.397 -0.56 +0.00    -0.004 C  
DOCKED: ATOM      4  C   UNL     1     143.049  80.459 223.269 -0.65 -0.00    +0.008 C  
DOCKED: BRANCH   3   5
DOCKED: ATOM      5  C   UNL     1     140.790  79.391 223.099 -0.47 -0.01    +0.039 C  
DOCKED: BRANCH   5   6
DOCKED: ATOM      6  C   UNL     1     140.071  78.120 222.725 -0.36 +0.01    -0.048 A  
DOCKED: ATOM      7  C   UNL     1     138.667  78.088 222.683 -0.29 -0.00    +0.004 A  
DOCKED: ATOM      8  C   UNL     1     140.796  76.952 222.428 -0.41 -0.00    +0.004 A  
DOCKED: ATOM      9  C   UNL     1     137.999  76.906 222.351 -0.28 -0.00    +0.000 A  
DOCKED: ATOM     10  C   UNL     1     140.124  75.771 222.099 -0.33 -0.00    +0.000 A  
DOCKED: ATOM     11  C   UNL     1     138.727  75.748 222.060 -0.29 -0.00    +0.000 A  
DOCKED: ENDBRANCH   5   6
DOCKED: ENDBRANCH   3   5
DOCKED: ENDBRANCH   2   3
DOCKED: ENDBRANCH   1   2
DOCKED: BRANCH   1  12
DOCKED: ATOM     12  N   UNL     1     142.547  78.176 219.464 -0.01 +0.24    -0.304 N  
DOCKED: ATOM     13  H   UNL     1     143.252  78.082 220.232 -0.24 -0.46    +0.353 HD 
DOCKED: ATOM     14  H   UNL     1     143.070  78.537 218.638 -0.00 -0.33    +0.353 HD 
DOCKED: BRANCH  12  15
DOCKED: ATOM     15  C   UNL     1     141.990  76.860 219.226 -0.19 -0.11    +0.202 C  
DOCKED: ATOM     16  S   UNL     1     140.465  76.740 218.605 -0.10 +0.01    -0.017 S  
DOCKED: BRANCH  15  17
DOCKED: ATOM     17  C   UNL     1     142.685  75.630 219.712 -0.31 -0.02    +0.048 A  
DOCKED: ATOM     18  C   UNL     1     141.972  74.407 219.879 -0.21 -0.00    +0.017 A  
DOCKED: ATOM     19  C   UNL     1     144.068  75.660 220.019 -0.30 -0.02    +0.025 A  
DOCKED: ATOM     20  C   UNL     1     142.619  73.244 220.340 -0.25 -0.01    +0.027 A  
DOCKED: ATOM     21  C   UNL     1     144.675  74.491 220.470 -0.50 -0.00    +0.000 A  
DOCKED: ATOM     22  C   UNL     1     143.977  73.326 220.626 -0.37 -0.01    +0.045 A  
DOCKED: ATOM     23  C   UNL     1     145.977  74.245 220.847 -0.53 -0.01    +0.028 A  
DOCKED: ATOM     24  N   UNL     1     144.775  72.349 221.089 -0.09 +0.09    -0.361 N  
DOCKED: ATOM     25  C   UNL     1     146.000  72.906 221.226 -0.53 -0.01    +0.083 A  
DOCKED: ATOM     26  H   UNL     1     144.505  71.364 221.313 -0.34 -0.08    +0.166 HD 
DOCKED: ENDBRANCH  15  17
DOCKED: ENDBRANCH  12  15
DOCKED: ENDBRANCH   1  12
DOCKED: TORSDOF 7
DOCKED: TER
DOCKED: ENDMDL
________________________________________________________________________________


    FINAL DOCKED STATE:
    ________________________


Run:   12 / 20
Time taken for this run:   0.043s

DOCKED: MODEL        12
DOCKED: USER    Run = 12
DOCKED: USER
DOCKED: USER    Estimated Free Energy of Binding    =  -6.75 kcal/mol  [=(1)+(2)+(3)-(4)]
DOCKED: USER
DOCKED: USER    (1) Final Intermolecular Energy     =  -8.83 kcal/mol
DOCKED: USER        vdW + Hbond + desolv Energy     =  -7.49 kcal/mol
DOCKED: USER        Electrostatic Energy            =  -1.35 kcal/mol
DOCKED: USER        Moving Ligand-Fixed Receptor    =  -8.83 kcal/mol
DOCKED: USER        Moving Ligand-Moving Receptor   =  +0.00 kcal/mol
DOCKED: USER    (2) Final Total Internal Energy     =  -2.06 kcal/mol
DOCKED: USER    (3) Torsional Free Energy           =  +2.09 kcal/mol
DOCKED: USER    (4) Unbound System's Energy         =  -2.06 kcal/mol
DOCKED: USER
DOCKED: USER
DOCKED: REMARK SMILES C[C@H](CC[NH2+]C(=S)c1ccc2[nH]ccc2c1)Cc1ccccc1
DOCKED: REMARK SMILES IDX 4 1 3 2 2 3 1 4 17 5 18 6 19 7 23 8 20 9 22 10 21 11 5 12
DOCKED: REMARK SMILES IDX 6 15 7 16 8 17 9 18 16 19 10 20 15 21 11 22 14 23 12 24
DOCKED: REMARK SMILES IDX 13 25
DOCKED: REMARK H PARENT 5 13 5 14 12 26
DOCKED: USER                              x       y       z     vdW  Elec       q    Type
DOCKED: USER                           _______ _______ _______ _____ _____    ______ ____
DOCKED: ROOT
DOCKED: ATOM      1  C   UNL     1     142.574  81.763 217.896 -0.19 -0.19    +0.267 C  
DOCKED: ENDROOT
DOCKED: BRANCH   1   2
DOCKED: ATOM      2  C   UNL     1     141.163  81.849 218.525 -0.18 -0.03    +0.065 C  
DOCKED: BRANCH   2   3
DOCKED: ATOM      3  C   UNL     1     141.123  82.462 219.953 -0.25 +0.00    -0.004 C  
DOCKED: ATOM      4  C   UNL     1     140.679  83.933 219.874 -0.20 -0.00    +0.008 C  
DOCKED: BRANCH   3   5
DOCKED: ATOM      5  C   UNL     1     140.154  81.711 220.903 -0.22 -0.01    +0.039 C  
DOCKED: BRANCH   5   6
DOCKED: ATOM      6  C   UNL     1     140.858  80.820 221.893 -0.33 +0.01    -0.048 A  
DOCKED: ATOM      7  C   UNL     1     140.134  80.208 222.931 -0.39 -0.00    +0.004 A  
DOCKED: ATOM      8  C   UNL     1     142.243  80.601 221.798 -0.47 -0.00    +0.004 A  
DOCKED: ATOM      9  C   UNL     1     140.788  79.393 223.860 -0.53 -0.00    +0.000 A  
DOCKED: ATOM     10  C   UNL     1     142.893  79.787 222.730 -0.62 -0.00    +0.000 A  
DOCKED: ATOM     11  C   UNL     1     142.167  79.183 223.760 -0.58 -0.00    +0.000 A  
DOCKED: ENDBRANCH   5   6
DOCKED: ENDBRANCH   3   5
DOCKED: ENDBRANCH   2   3
DOCKED: ENDBRANCH   1   2
DOCKED: BRANCH   1  12
DOCKED: ATOM     12  N   UNL     1     142.795  80.554 217.081 +0.07 +0.41    -0.304 N  
DOCKED: ATOM     13  H   UNL     1     143.682  80.103 217.404 -0.42 -0.76    +0.353 HD 
DOCKED: ATOM     14  H   UNL     1     142.956  80.822 216.086 -0.43 -0.61    +0.353 HD 
DOCKED: BRANCH  12  15
DOCKED: ATOM     15  C   UNL     1     141.738  79.573 217.217 -0.15 -0.15    +0.202 C  
DOCKED: ATOM     16  S   UNL     1     140.432  79.663 216.212 -0.08 +0.01    -0.017 S  
DOCKED: BRANCH  15  17
DOCKED: ATOM     17  C   UNL     1     141.717  78.619 218.366 -0.22 -0.03    +0.048 A  
DOCKED: ATOM     18  C   UNL     1     142.826  77.760 218.623 -0.30 -0.01    +0.017 A  
DOCKED: ATOM     19  C   UNL     1     140.589  78.548 219.222 -0.13 -0.01    +0.025 A  
DOCKED: ATOM     20  C   UNL     1     142.813  76.855 219.702 -0.34 -0.02    +0.027 A  
DOCKED: ATOM     21  C   UNL     1     140.612  77.643 220.280 -0.19 -0.00    +0.000 A  
DOCKED: ATOM     22  C   UNL     1     141.683  76.826 220.512 -0.27 -0.02    +0.045 A  
DOCKED: ATOM     23  C   UNL     1     139.664  77.362 221.238 -0.20 -0.01    +0.028 A  
DOCKED: ATOM     24  N   UNL     1     141.459  76.034 221.573 -0.11 +0.16    -0.361 N  
DOCKED: ATOM     25  C   UNL     1     140.225  76.358 222.022 -0.34 -0.02    +0.083 A  
DOCKED: ATOM     26  H   UNL     1     142.098  75.305 221.965 -0.42 -0.07    +0.166 HD 
DOCKED: ENDBRANCH  15  17
DOCKED: ENDBRANCH  12  15
DOCKED: ENDBRANCH   1  12
DOCKED: TORSDOF 7
DOCKED: TER
DOCKED: ENDMDL
________________________________________________________________________________


    FINAL DOCKED STATE:
    ________________________


Run:   13 / 20
Time taken for this run:   0.043s

DOCKED: MODEL        13
DOCKED: USER    Run = 13
DOCKED: USER
DOCKED: USER    Estimated Free Energy of Binding    =  -6.51 kcal/mol  [=(1)+(2)+(3)-(4)]
DOCKED: USER
DOCKED: USER    (1) Final Intermolecular Energy     =  -8.60 kcal/mol
DOCKED: USER        vdW + Hbond + desolv Energy     =  -7.28 kcal/mol
DOCKED: USER        Electrostatic Energy            =  -1.32 kcal/mol
DOCKED: USER        Moving Ligand-Fixed Receptor    =  -8.60 kcal/mol
DOCKED: USER        Moving Ligand-Moving Receptor   =  +0.00 kcal/mol
DOCKED: USER    (2) Final Total Internal Energy     =  -1.94 kcal/mol
DOCKED: USER    (3) Torsional Free Energy           =  +2.09 kcal/mol
DOCKED: USER    (4) Unbound System's Energy         =  -1.94 kcal/mol
DOCKED: USER
DOCKED: USER
DOCKED: REMARK SMILES C[C@H](CC[NH2+]C(=S)c1ccc2[nH]ccc2c1)Cc1ccccc1
DOCKED: REMARK SMILES IDX 4 1 3 2 2 3 1 4 17 5 18 6 19 7 23 8 20 9 22 10 21 11 5 12
DOCKED: REMARK SMILES IDX 6 15 7 16 8 17 9 18 16 19 10 20 15 21 11 22 14 23 12 24
DOCKED: REMARK SMILES IDX 13 25
DOCKED: REMARK H PARENT 5 13 5 14 12 26
DOCKED: USER                              x       y       z     vdW  Elec       q    Type
DOCKED: USER                           _______ _______ _______ _____ _____    ______ ____
DOCKED: ROOT
DOCKED: ATOM      1  C   UNL     1     141.662  81.281 217.163 -0.12 -0.18    +0.267 C  
DOCKED: ENDROOT
DOCKED: BRANCH   1   2
DOCKED: ATOM      2  C   UNL     1     142.244  82.218 218.248 -0.21 -0.03    +0.065 C  
DOCKED: BRANCH   2   3
DOCKED: ATOM      3  C   UNL     1     141.454  82.234 219.587 -0.25 +0.00    -0.004 C  
DOCKED: ATOM      4  C   UNL     1     140.296  83.242 219.494 -0.17 -0.00    +0.008 C  
DOCKED: BRANCH   3   5
DOCKED: ATOM      5  C   UNL     1     140.865  80.847 219.953 -0.22 -0.01    +0.039 C  
DOCKED: BRANCH   5   6
DOCKED: ATOM      6  C   UNL     1     141.221  80.394 221.346 -0.33 +0.02    -0.048 A  
DOCKED: ATOM      7  C   UNL     1     142.547  80.491 221.803 -0.43 -0.00    +0.004 A  
DOCKED: ATOM      8  C   UNL     1     140.237  79.860 222.196 -0.31 -0.00    +0.004 A  
DOCKED: ATOM      9  C   UNL     1     142.881  80.056 223.089 -0.66 -0.00    +0.000 A  
DOCKED: ATOM     10  C   UNL     1     140.576  79.425 223.480 -0.50 -0.00    +0.000 A  
DOCKED: ATOM     11  C   UNL     1     141.897  79.524 223.927 -0.60 -0.00    +0.000 A  
DOCKED: ENDBRANCH   5   6
DOCKED: ENDBRANCH   3   5
DOCKED: ENDBRANCH   2   3
DOCKED: ENDBRANCH   1   2
DOCKED: BRANCH   1  12
DOCKED: ATOM     12  N   UNL     1     142.563  80.178 216.778 +0.01 +0.40    -0.304 N  
DOCKED: ATOM     13  H   UNL     1     143.355  80.152 217.462 -0.42 -0.60    +0.353 HD 
DOCKED: ATOM     14  H   UNL     1     142.994  80.380 215.849 -0.43 -0.71    +0.353 HD 
DOCKED: BRANCH  12  15
DOCKED: ATOM     15  C   UNL     1     141.921  78.880 216.810 -0.14 -0.17    +0.202 C  
DOCKED: ATOM     16  S   UNL     1     141.073  78.376 215.487 -0.09 +0.01    -0.017 S  
DOCKED: BRANCH  15  17
DOCKED: ATOM     17  C   UNL     1     141.848  78.088 218.075 -0.21 -0.03    +0.048 A  
DOCKED: ATOM     18  C   UNL     1     143.014  77.474 218.620 -0.30 -0.01    +0.017 A  
DOCKED: ATOM     19  C   UNL     1     140.614  77.932 218.755 -0.10 -0.01    +0.025 A  
DOCKED: ATOM     20  C   UNL     1     142.952  76.723 219.810 -0.33 -0.02    +0.027 A  
DOCKED: ATOM     21  C   UNL     1     140.592  77.185 219.930 -0.16 -0.00    +0.000 A  
DOCKED: ATOM     22  C   UNL     1     141.719  76.601 220.439 -0.27 -0.02    +0.045 A  
DOCKED: ATOM     23  C   UNL     1     139.548  76.868 220.770 -0.15 -0.01    +0.028 A  
DOCKED: ATOM     24  N   UNL     1     141.439  75.923 221.564 -0.13 +0.15    -0.361 N  
DOCKED: ATOM     25  C   UNL     1     140.111  76.083 221.771 -0.31 -0.02    +0.083 A  
DOCKED: ATOM     26  H   UNL     1     142.103  75.370 222.152 -0.43 -0.07    +0.166 HD 
DOCKED: ENDBRANCH  15  17
DOCKED: ENDBRANCH  12  15
DOCKED: ENDBRANCH   1  12
DOCKED: TORSDOF 7
DOCKED: TER
DOCKED: ENDMDL
________________________________________________________________________________


    FINAL DOCKED STATE:
    ________________________


Run:   14 / 20
Time taken for this run:   0.043s

DOCKED: MODEL        14
DOCKED: USER    Run = 14
DOCKED: USER
DOCKED: USER    Estimated Free Energy of Binding    =  -8.08 kcal/mol  [=(1)+(2)+(3)-(4)]
DOCKED: USER
DOCKED: USER    (1) Final Intermolecular Energy     = -10.17 kcal/mol
DOCKED: USER        vdW + Hbond + desolv Energy     =  -9.93 kcal/mol
DOCKED: USER        Electrostatic Energy            =  -0.24 kcal/mol
DOCKED: USER        Moving Ligand-Fixed Receptor    = -10.17 kcal/mol
DOCKED: USER        Moving Ligand-Moving Receptor   =  +0.00 kcal/mol
DOCKED: USER    (2) Final Total Internal Energy     =  -0.59 kcal/mol
DOCKED: USER    (3) Torsional Free Energy           =  +2.09 kcal/mol
DOCKED: USER    (4) Unbound System's Energy         =  -0.59 kcal/mol
DOCKED: USER
DOCKED: USER
DOCKED: REMARK SMILES C[C@H](CC[NH2+]C(=S)c1ccc2[nH]ccc2c1)Cc1ccccc1
DOCKED: REMARK SMILES IDX 4 1 3 2 2 3 1 4 17 5 18 6 19 7 23 8 20 9 22 10 21 11 5 12
DOCKED: REMARK SMILES IDX 6 15 7 16 8 17 9 18 16 19 10 20 15 21 11 22 14 23 12 24
DOCKED: REMARK SMILES IDX 13 25
DOCKED: REMARK H PARENT 5 13 5 14 12 26
DOCKED: USER                              x       y       z     vdW  Elec       q    Type
DOCKED: USER                           _______ _______ _______ _____ _____    ______ ____
DOCKED: ROOT
DOCKED: ATOM      1  C   UNL     1     139.660  73.027 221.527 -0.16 -0.05    +0.267 C  
DOCKED: ENDROOT
DOCKED: BRANCH   1   2
DOCKED: ATOM      2  C   UNL     1     140.060  71.776 222.343 -0.28 -0.01    +0.065 C  
DOCKED: BRANCH   2   3
DOCKED: ATOM      3  C   UNL     1     139.178  71.504 223.594 -0.30 +0.00    -0.004 C  
DOCKED: ATOM      4  C   UNL     1     137.738  71.189 223.154 -0.21 -0.00    +0.008 C  
DOCKED: BRANCH   3   5
DOCKED: ATOM      5  C   UNL     1     139.697  70.319 224.449 -0.38 -0.01    +0.039 C  
DOCKED: BRANCH   5   6
DOCKED: ATOM      6  C   UNL     1     140.185  70.734 225.813 -0.51 +0.01    -0.048 A  
DOCKED: ATOM      7  C   UNL     1     140.956  71.899 225.963 -0.56 -0.00    +0.004 A  
DOCKED: ATOM      8  C   UNL     1     139.887  69.955 226.945 -0.54 -0.00    +0.004 A  
DOCKED: ATOM      9  C   UNL     1     141.423  72.277 227.225 -0.82 -0.00    +0.000 A  
DOCKED: ATOM     10  C   UNL     1     140.358  70.335 228.205 -0.61 -0.00    +0.000 A  
DOCKED: ATOM     11  C   UNL     1     141.125  71.495 228.345 -0.75 -0.00    +0.000 A  
DOCKED: ENDBRANCH   5   6
DOCKED: ENDBRANCH   3   5
DOCKED: ENDBRANCH   2   3
DOCKED: ENDBRANCH   1   2
DOCKED: BRANCH   1  12
DOCKED: ATOM     12  N   UNL     1     138.994  74.075 222.324 -0.04 +0.09    -0.304 N  
DOCKED: ATOM     13  H   UNL     1     139.599  74.286 223.152 -0.38 -0.01    +0.353 HD 
DOCKED: ATOM     14  H   UNL     1     138.097  73.709 222.711 -0.46 -0.18    +0.353 HD 
DOCKED: BRANCH  12  15
DOCKED: ATOM     15  C   UNL     1     138.809  75.314 221.597 -0.19 -0.05    +0.202 C  
DOCKED: ATOM     16  S   UNL     1     137.601  75.409 220.477 -0.10 +0.00    -0.017 S  
DOCKED: BRANCH  15  17
DOCKED: ATOM     17  C   UNL     1     139.805  76.423 221.700 -0.30 -0.01    +0.048 A  
DOCKED: ATOM     18  C   UNL     1     140.877  76.531 220.766 -0.26 -0.01    +0.017 A  
DOCKED: ATOM     19  C   UNL     1     139.703  77.387 222.734 -0.27 -0.00    +0.025 A  
DOCKED: ATOM     20  C   UNL     1     141.821  77.571 220.858 -0.28 -0.02    +0.027 A  
DOCKED: ATOM     21  C   UNL     1     140.654  78.403 222.793 -0.45 -0.00    +0.000 A  
DOCKED: ATOM     22  C   UNL     1     141.676  78.492 221.889 -0.37 -0.02    +0.045 A  
DOCKED: ATOM     23  C   UNL     1     140.798  79.444 223.683 -0.51 -0.01    +0.028 A  
DOCKED: ATOM     24  N   UNL     1     142.469  79.540 222.166 -0.22 +0.19    -0.361 N  
DOCKED: ATOM     25  C   UNL     1     141.936  80.127 223.263 -0.54 -0.02    +0.083 A  
DOCKED: ATOM     26  H   UNL     1     143.330  79.836 221.652 -0.45 -0.13    +0.166 HD 
DOCKED: ENDBRANCH  15  17
DOCKED: ENDBRANCH  12  15
DOCKED: ENDBRANCH   1  12
DOCKED: TORSDOF 7
DOCKED: TER
DOCKED: ENDMDL
________________________________________________________________________________


    FINAL DOCKED STATE:
    ________________________


Run:   15 / 20
Time taken for this run:   0.043s

DOCKED: MODEL        15
DOCKED: USER    Run = 15
DOCKED: USER
DOCKED: USER    Estimated Free Energy of Binding    =  -6.47 kcal/mol  [=(1)+(2)+(3)-(4)]
DOCKED: USER
DOCKED: USER    (1) Final Intermolecular Energy     =  -8.55 kcal/mol
DOCKED: USER        vdW + Hbond + desolv Energy     =  -8.03 kcal/mol
DOCKED: USER        Electrostatic Energy            =  -0.52 kcal/mol
DOCKED: USER        Moving Ligand-Fixed Receptor    =  -8.55 kcal/mol
DOCKED: USER        Moving Ligand-Moving Receptor   =  +0.00 kcal/mol
DOCKED: USER    (2) Final Total Internal Energy     =  -1.75 kcal/mol
DOCKED: USER    (3) Torsional Free Energy           =  +2.09 kcal/mol
DOCKED: USER    (4) Unbound System's Energy         =  -1.75 kcal/mol
DOCKED: USER
DOCKED: USER
DOCKED: REMARK SMILES C[C@H](CC[NH2+]C(=S)c1ccc2[nH]ccc2c1)Cc1ccccc1
DOCKED: REMARK SMILES IDX 4 1 3 2 2 3 1 4 17 5 18 6 19 7 23 8 20 9 22 10 21 11 5 12
DOCKED: REMARK SMILES IDX 6 15 7 16 8 17 9 18 16 19 10 20 15 21 11 22 14 23 12 24
DOCKED: REMARK SMILES IDX 13 25
DOCKED: REMARK H PARENT 5 13 5 14 12 26
DOCKED: USER                              x       y       z     vdW  Elec       q    Type
DOCKED: USER                           _______ _______ _______ _____ _____    ______ ____
DOCKED: ROOT
DOCKED: ATOM      1  C   UNL     1     140.051  76.242 222.349 -0.22 -0.05    +0.267 C  
DOCKED: ENDROOT
DOCKED: BRANCH   1   2
DOCKED: ATOM      2  C   UNL     1     139.007  76.849 221.382 -0.20 -0.01    +0.065 C  
DOCKED: BRANCH   2   3
DOCKED: ATOM      3  C   UNL     1     138.577  78.305 221.718 -0.19 +0.00    -0.004 C  
DOCKED: ATOM      4  C   UNL     1     137.052  78.442 221.574 -0.11 -0.00    +0.008 C  
DOCKED: BRANCH   3   5
DOCKED: ATOM      5  C   UNL     1     138.971  78.730 223.157 -0.29 -0.01    +0.039 C  
DOCKED: BRANCH   5   6
DOCKED: ATOM      6  C   UNL     1     140.228  79.559 223.213 -0.41 +0.01    -0.048 A  
DOCKED: ATOM      7  C   UNL     1     141.396  79.033 223.790 -0.60 -0.00    +0.004 A  
DOCKED: ATOM      8  C   UNL     1     140.243  80.869 222.702 -0.37 -0.00    +0.004 A  
DOCKED: ATOM      9  C   UNL     1     142.559  79.806 223.857 -0.58 -0.00    +0.000 A  
DOCKED: ATOM     10  C   UNL     1     141.407  81.639 222.773 -0.49 -0.00    +0.000 A  
DOCKED: ATOM     11  C   UNL     1     142.564  81.109 223.349 -0.57 -0.00    +0.000 A  
DOCKED: ENDBRANCH   5   6
DOCKED: ENDBRANCH   3   5
DOCKED: ENDBRANCH   2   3
DOCKED: ENDBRANCH   1   2
DOCKED: BRANCH   1  12
DOCKED: ATOM     12  N   UNL     1     141.448  76.400 221.902 -0.05 +0.15    -0.304 N  
DOCKED: ATOM     13  H   UNL     1     142.017  75.640 222.342 -0.37 -0.18    +0.353 HD 
DOCKED: ATOM     14  H   UNL     1     141.837  77.297 222.267 -0.31 -0.25    +0.353 HD 
DOCKED: BRANCH  12  15
DOCKED: ATOM     15  C   UNL     1     141.604  76.282 220.467 -0.20 -0.09    +0.202 C  
DOCKED: ATOM     16  S   UNL     1     141.634  74.777 219.790 -0.25 +0.01    -0.017 S  
DOCKED: BRANCH  15  17
DOCKED: ATOM     17  C   UNL     1     141.934  77.472 219.627 -0.27 -0.03    +0.048 A  
DOCKED: ATOM     18  C   UNL     1     142.622  77.323 218.387 -0.31 -0.01    +0.017 A  
DOCKED: ATOM     19  C   UNL     1     141.570  78.775 220.052 -0.27 -0.01    +0.025 A  
DOCKED: ATOM     20  C   UNL     1     142.940  78.441 217.592 -0.26 -0.03    +0.027 A  
DOCKED: ATOM     21  C   UNL     1     141.899  79.856 219.239 -0.30 -0.00    +0.000 A  
DOCKED: ATOM     22  C   UNL     1     142.560  79.696 218.053 -0.32 -0.04    +0.045 A  
DOCKED: ATOM     23  C   UNL     1     141.682  81.205 219.411 -0.27 -0.01    +0.028 A  
DOCKED: ATOM     24  N   UNL     1     142.778  80.883 217.463 -0.15 +0.40    -0.361 N  
DOCKED: ATOM     25  C   UNL     1     142.243  81.810 218.291 -0.24 -0.05    +0.083 A  
DOCKED: ATOM     26  H   UNL     1     143.274  81.060 216.560 -0.44 -0.30    +0.166 HD 
DOCKED: ENDBRANCH  15  17
DOCKED: ENDBRANCH  12  15
DOCKED: ENDBRANCH   1  12
DOCKED: TORSDOF 7
DOCKED: TER
DOCKED: ENDMDL
________________________________________________________________________________


    FINAL DOCKED STATE:
    ________________________


Run:   16 / 20
Time taken for this run:   0.043s

DOCKED: MODEL        16
DOCKED: USER    Run = 16
DOCKED: USER
DOCKED: USER    Estimated Free Energy of Binding    =  -6.69 kcal/mol  [=(1)+(2)+(3)-(4)]
DOCKED: USER
DOCKED: USER    (1) Final Intermolecular Energy     =  -8.77 kcal/mol
DOCKED: USER        vdW + Hbond + desolv Energy     =  -7.44 kcal/mol
DOCKED: USER        Electrostatic Energy            =  -1.33 kcal/mol
DOCKED: USER        Moving Ligand-Fixed Receptor    =  -8.77 kcal/mol
DOCKED: USER        Moving Ligand-Moving Receptor   =  +0.00 kcal/mol
DOCKED: USER    (2) Final Total Internal Energy     =  -2.06 kcal/mol
DOCKED: USER    (3) Torsional Free Energy           =  +2.09 kcal/mol
DOCKED: USER    (4) Unbound System's Energy         =  -2.06 kcal/mol
DOCKED: USER
DOCKED: USER
DOCKED: REMARK SMILES C[C@H](CC[NH2+]C(=S)c1ccc2[nH]ccc2c1)Cc1ccccc1
DOCKED: REMARK SMILES IDX 4 1 3 2 2 3 1 4 17 5 18 6 19 7 23 8 20 9 22 10 21 11 5 12
DOCKED: REMARK SMILES IDX 6 15 7 16 8 17 9 18 16 19 10 20 15 21 11 22 14 23 12 24
DOCKED: REMARK SMILES IDX 13 25
DOCKED: REMARK H PARENT 5 13 5 14 12 26
DOCKED: USER                              x       y       z     vdW  Elec       q    Type
DOCKED: USER                           _______ _______ _______ _____ _____    ______ ____
DOCKED: ROOT
DOCKED: ATOM      1  C   UNL     1     142.586  81.693 217.987 -0.16 -0.19    +0.267 C  
DOCKED: ENDROOT
DOCKED: BRANCH   1   2
DOCKED: ATOM      2  C   UNL     1     141.164  81.817 218.583 -0.18 -0.03    +0.065 C  
DOCKED: BRANCH   2   3
DOCKED: ATOM      3  C   UNL     1     141.101  82.498 219.980 -0.26 +0.00    -0.004 C  
DOCKED: ATOM      4  C   UNL     1     140.640  83.957 219.826 -0.19 -0.00    +0.008 C  
DOCKED: BRANCH   3   5
DOCKED: ATOM      5  C   UNL     1     140.130  81.780 220.954 -0.22 -0.01    +0.039 C  
DOCKED: BRANCH   5   6
DOCKED: ATOM      6  C   UNL     1     140.826  80.856 221.919 -0.33 +0.01    -0.048 A  
DOCKED: ATOM      7  C   UNL     1     140.096  80.217 222.935 -0.39 -0.00    +0.004 A  
DOCKED: ATOM      8  C   UNL     1     142.211  80.633 221.821 -0.47 -0.00    +0.004 A  
DOCKED: ATOM      9  C   UNL     1     140.743  79.371 223.842 -0.53 -0.00    +0.000 A  
DOCKED: ATOM     10  C   UNL     1     142.853  79.787 222.730 -0.62 -0.00    +0.000 A  
DOCKED: ATOM     11  C   UNL     1     142.120  79.157 223.739 -0.59 -0.00    +0.000 A  
DOCKED: ENDBRANCH   5   6
DOCKED: ENDBRANCH   3   5
DOCKED: ENDBRANCH   2   3
DOCKED: ENDBRANCH   1   2
DOCKED: BRANCH   1  12
DOCKED: ATOM     12  N   UNL     1     142.764  80.527 217.099 +0.04 +0.40    -0.304 N  
DOCKED: ATOM     13  H   UNL     1     143.667  80.063 217.351 -0.43 -0.78    +0.353 HD 
DOCKED: ATOM     14  H   UNL     1     142.873  80.848 216.112 -0.36 -0.57    +0.353 HD 
DOCKED: BRANCH  12  15
DOCKED: ATOM     15  C   UNL     1     141.715  79.538 217.239 -0.15 -0.15    +0.202 C  
DOCKED: ATOM     16  S   UNL     1     140.409  79.613 216.233 -0.07 +0.01    -0.017 S  
DOCKED: BRANCH  15  17
DOCKED: ATOM     17  C   UNL     1     141.702  78.588 218.392 -0.22 -0.03    +0.048 A  
DOCKED: ATOM     18  C   UNL     1     142.813  77.729 218.643 -0.30 -0.01    +0.017 A  
DOCKED: ATOM     19  C   UNL     1     140.581  78.521 219.256 -0.13 -0.01    +0.025 A  
DOCKED: ATOM     20  C   UNL     1     142.807  76.829 219.725 -0.35 -0.02    +0.027 A  
DOCKED: ATOM     21  C   UNL     1     140.612  77.621 220.317 -0.20 -0.00    +0.000 A  
DOCKED: ATOM     22  C   UNL     1     141.684  76.803 220.544 -0.26 -0.02    +0.045 A  
DOCKED: ATOM     23  C   UNL     1     139.671  77.344 221.284 -0.21 -0.01    +0.028 A  
DOCKED: ATOM     24  N   UNL     1     141.468  76.016 221.610 -0.10 +0.16    -0.361 N  
DOCKED: ATOM     25  C   UNL     1     140.237  76.342 222.067 -0.34 -0.02    +0.083 A  
DOCKED: ATOM     26  H   UNL     1     142.109  75.287 221.999 -0.42 -0.07    +0.166 HD 
DOCKED: ENDBRANCH  15  17
DOCKED: ENDBRANCH  12  15
DOCKED: ENDBRANCH   1  12
DOCKED: TORSDOF 7
DOCKED: TER
DOCKED: ENDMDL
________________________________________________________________________________


    FINAL DOCKED STATE:
    ________________________


Run:   17 / 20
Time taken for this run:   0.043s

DOCKED: MODEL        17
DOCKED: USER    Run = 17
DOCKED: USER
DOCKED: USER    Estimated Free Energy of Binding    =  -6.61 kcal/mol  [=(1)+(2)+(3)-(4)]
DOCKED: USER
DOCKED: USER    (1) Final Intermolecular Energy     =  -8.70 kcal/mol
DOCKED: USER        vdW + Hbond + desolv Energy     =  -7.42 kcal/mol
DOCKED: USER        Electrostatic Energy            =  -1.28 kcal/mol
DOCKED: USER        Moving Ligand-Fixed Receptor    =  -8.70 kcal/mol
DOCKED: USER        Moving Ligand-Moving Receptor   =  +0.00 kcal/mol
DOCKED: USER    (2) Final Total Internal Energy     =  -2.12 kcal/mol
DOCKED: USER    (3) Torsional Free Energy           =  +2.09 kcal/mol
DOCKED: USER    (4) Unbound System's Energy         =  -2.12 kcal/mol
DOCKED: USER
DOCKED: USER
DOCKED: REMARK SMILES C[C@H](CC[NH2+]C(=S)c1ccc2[nH]ccc2c1)Cc1ccccc1
DOCKED: REMARK SMILES IDX 4 1 3 2 2 3 1 4 17 5 18 6 19 7 23 8 20 9 22 10 21 11 5 12
DOCKED: REMARK SMILES IDX 6 15 7 16 8 17 9 18 16 19 10 20 15 21 11 22 14 23 12 24
DOCKED: REMARK SMILES IDX 13 25
DOCKED: REMARK H PARENT 5 13 5 14 12 26
DOCKED: USER                              x       y       z     vdW  Elec       q    Type
DOCKED: USER                           _______ _______ _______ _____ _____    ______ ____
DOCKED: ROOT
DOCKED: ATOM      1  C   UNL     1     142.471  81.586 217.832 -0.21 -0.19    +0.267 C  
DOCKED: ENDROOT
DOCKED: BRANCH   1   2
DOCKED: ATOM      2  C   UNL     1     141.089  81.720 218.516 -0.17 -0.03    +0.065 C  
DOCKED: BRANCH   2   3
DOCKED: ATOM      3  C   UNL     1     141.116  82.411 219.908 -0.26 +0.00    -0.004 C  
DOCKED: ATOM      4  C   UNL     1     140.723  83.891 219.761 -0.19 -0.00    +0.008 C  
DOCKED: BRANCH   3   5
DOCKED: ATOM      5  C   UNL     1     140.152  81.750 220.926 -0.22 -0.01    +0.039 C  
DOCKED: BRANCH   5   6
DOCKED: ATOM      6  C   UNL     1     140.849  80.850 221.914 -0.34 +0.01    -0.048 A  
DOCKED: ATOM      7  C   UNL     1     140.126  80.263 222.967 -0.39 -0.00    +0.004 A  
DOCKED: ATOM      8  C   UNL     1     142.228  80.601 221.802 -0.47 -0.00    +0.004 A  
DOCKED: ATOM      9  C   UNL     1     140.774  79.441 223.893 -0.51 -0.00    +0.000 A  
DOCKED: ATOM     10  C   UNL     1     142.872  79.780 222.732 -0.62 -0.00    +0.000 A  
DOCKED: ATOM     11  C   UNL     1     142.146  79.200 223.777 -0.59 -0.00    +0.000 A  
DOCKED: ENDBRANCH   5   6
DOCKED: ENDBRANCH   3   5
DOCKED: ENDBRANCH   2   3
DOCKED: ENDBRANCH   1   2
DOCKED: BRANCH   1  12
DOCKED: ATOM     12  N   UNL     1     142.653  80.323 217.090 -0.02 +0.38    -0.304 N  
DOCKED: ATOM     13  H   UNL     1     143.534  79.873 217.430 -0.44 -0.68    +0.353 HD 
DOCKED: ATOM     14  H   UNL     1     142.807  80.526 216.079 -0.35 -0.59    +0.353 HD 
DOCKED: BRANCH  12  15
DOCKED: ATOM     15  C   UNL     1     141.575  79.378 217.299 -0.14 -0.14    +0.202 C  
DOCKED: ATOM     16  S   UNL     1     140.284  79.402 216.272 -0.07 +0.01    -0.017 S  
DOCKED: BRANCH  15  17
DOCKED: ATOM     17  C   UNL     1     141.521  78.532 218.529 -0.20 -0.03    +0.048 A  
DOCKED: ATOM     18  C   UNL     1     142.643  77.743 218.922 -0.29 -0.01    +0.017 A  
DOCKED: ATOM     19  C   UNL     1     140.350  78.495 219.326 -0.11 -0.01    +0.025 A  
DOCKED: ATOM     20  C   UNL     1     142.599  76.940 220.078 -0.29 -0.02    +0.027 A  
DOCKED: ATOM     21  C   UNL     1     140.344  77.690 220.462 -0.18 -0.00    +0.000 A  
DOCKED: ATOM     22  C   UNL     1     141.427  76.940 220.826 -0.28 -0.02    +0.045 A  
DOCKED: ATOM     23  C   UNL     1     139.353  77.461 221.391 -0.20 -0.01    +0.028 A  
DOCKED: ATOM     24  N   UNL     1     141.170  76.239 221.942 -0.15 +0.14    -0.361 N  
DOCKED: ATOM     25  C   UNL     1     139.902  76.554 222.293 -0.34 -0.02    +0.083 A  
DOCKED: ATOM     26  H   UNL     1     141.810  75.573 222.433 -0.42 -0.06    +0.166 HD 
DOCKED: ENDBRANCH  15  17
DOCKED: ENDBRANCH  12  15
DOCKED: ENDBRANCH   1  12
DOCKED: TORSDOF 7
DOCKED: TER
DOCKED: ENDMDL
________________________________________________________________________________


    FINAL DOCKED STATE:
    ________________________


Run:   18 / 20
Time taken for this run:   0.043s

DOCKED: MODEL        18
DOCKED: USER    Run = 18
DOCKED: USER
DOCKED: USER    Estimated Free Energy of Binding    =  -7.63 kcal/mol  [=(1)+(2)+(3)-(4)]
DOCKED: USER
DOCKED: USER    (1) Final Intermolecular Energy     =  -9.72 kcal/mol
DOCKED: USER        vdW + Hbond + desolv Energy     =  -9.39 kcal/mol
DOCKED: USER        Electrostatic Energy            =  -0.33 kcal/mol
DOCKED: USER        Moving Ligand-Fixed Receptor    =  -9.72 kcal/mol
DOCKED: USER        Moving Ligand-Moving Receptor   =  +0.00 kcal/mol
DOCKED: USER    (2) Final Total Internal Energy     =  -0.90 kcal/mol
DOCKED: USER    (3) Torsional Free Energy           =  +2.09 kcal/mol
DOCKED: USER    (4) Unbound System's Energy         =  -0.90 kcal/mol
DOCKED: USER
DOCKED: USER
DOCKED: REMARK SMILES C[C@H](CC[NH2+]C(=S)c1ccc2[nH]ccc2c1)Cc1ccccc1
DOCKED: REMARK SMILES IDX 4 1 3 2 2 3 1 4 17 5 18 6 19 7 23 8 20 9 22 10 21 11 5 12
DOCKED: REMARK SMILES IDX 6 15 7 16 8 17 9 18 16 19 10 20 15 21 11 22 14 23 12 24
DOCKED: REMARK SMILES IDX 13 25
DOCKED: REMARK H PARENT 5 13 5 14 12 26
DOCKED: USER                              x       y       z     vdW  Elec       q    Type
DOCKED: USER                           _______ _______ _______ _____ _____    ______ ____
DOCKED: ROOT
DOCKED: ATOM      1  C   UNL     1     138.026  72.675 221.991 -0.10 -0.07    +0.267 C  
DOCKED: ENDROOT
DOCKED: BRANCH   1   2
DOCKED: ATOM      2  C   UNL     1     138.521  71.251 222.338 -0.17 -0.01    +0.065 C  
DOCKED: BRANCH   2   3
DOCKED: ATOM      3  C   UNL     1     138.595  70.940 223.859 -0.31 +0.00    -0.004 C  
DOCKED: ATOM      4  C   UNL     1     137.511  69.915 224.233 -0.28 -0.00    +0.008 C  
DOCKED: BRANCH   3   5
DOCKED: ATOM      5  C   UNL     1     139.973  70.373 224.290 -0.37 -0.01    +0.039 C  
DOCKED: BRANCH   5   6
DOCKED: ATOM      6  C   UNL     1     140.350  70.727 225.705 -0.52 +0.01    -0.048 A  
DOCKED: ATOM      7  C   UNL     1     141.087  71.894 225.969 -0.59 -0.00    +0.004 A  
DOCKED: ATOM      8  C   UNL     1     139.980  69.890 226.773 -0.54 -0.00    +0.004 A  
DOCKED: ATOM      9  C   UNL     1     141.452  72.215 227.280 -0.81 -0.00    +0.000 A  
DOCKED: ATOM     10  C   UNL     1     140.348  70.214 228.082 -0.63 -0.00    +0.000 A  
DOCKED: ATOM     11  C   UNL     1     141.083  71.376 228.336 -0.73 -0.00    +0.000 A  
DOCKED: ENDBRANCH   5   6
DOCKED: ENDBRANCH   3   5
DOCKED: ENDBRANCH   2   3
DOCKED: ENDBRANCH   1   2
DOCKED: BRANCH   1  12
DOCKED: ATOM     12  N   UNL     1     138.980  73.745 222.343 -0.03 +0.09    -0.304 N  
DOCKED: ATOM     13  H   UNL     1     139.617  73.377 223.087 -0.35 -0.07    +0.353 HD 
DOCKED: ATOM     14  H   UNL     1     138.469  74.546 222.774 -0.46 -0.17    +0.353 HD 
DOCKED: BRANCH  12  15
DOCKED: ATOM     15  C   UNL     1     139.808  74.160 221.230 -0.18 -0.04    +0.202 C  
DOCKED: ATOM     16  S   UNL     1     139.114  75.002 219.991 -0.11 +0.00    -0.017 S  
DOCKED: BRANCH  15  17
DOCKED: ATOM     17  C   UNL     1     141.213  73.674 221.093 -0.26 -0.01    +0.048 A  
DOCKED: ATOM     18  C   UNL     1     141.525  72.290 221.239 -0.25 -0.00    +0.017 A  
DOCKED: ATOM     19  C   UNL     1     142.265  74.583 220.817 -0.29 -0.01    +0.025 A  
DOCKED: ATOM     20  C   UNL     1     142.848  71.824 221.115 -0.18 -0.00    +0.027 A  
DOCKED: ATOM     21  C   UNL     1     143.560  74.086 220.698 -0.34 -0.00    +0.000 A  
DOCKED: ATOM     22  C   UNL     1     143.843  72.756 220.842 -0.32 -0.01    +0.045 A  
DOCKED: ATOM     23  C   UNL     1     144.750  74.735 220.451 -0.41 -0.01    +0.028 A  
DOCKED: ATOM     24  N   UNL     1     145.159  72.528 220.703 -0.19 +0.05    -0.361 N  
DOCKED: ATOM     25  C   UNL     1     145.719  73.736 220.463 -0.57 -0.01    +0.083 A  
DOCKED: ATOM     26  H   UNL     1     145.654  71.611 220.779 -0.41 -0.05    +0.166 HD 
DOCKED: ENDBRANCH  15  17
DOCKED: ENDBRANCH  12  15
DOCKED: ENDBRANCH   1  12
DOCKED: TORSDOF 7
DOCKED: TER
DOCKED: ENDMDL
________________________________________________________________________________


    FINAL DOCKED STATE:
    ________________________


Run:   19 / 20
Time taken for this run:   0.043s

DOCKED: MODEL        19
DOCKED: USER    Run = 19
DOCKED: USER
DOCKED: USER    Estimated Free Energy of Binding    =  -6.81 kcal/mol  [=(1)+(2)+(3)-(4)]
DOCKED: USER
DOCKED: USER    (1) Final Intermolecular Energy     =  -8.90 kcal/mol
DOCKED: USER        vdW + Hbond + desolv Energy     =  -7.61 kcal/mol
DOCKED: USER        Electrostatic Energy            =  -1.29 kcal/mol
DOCKED: USER        Moving Ligand-Fixed Receptor    =  -8.90 kcal/mol
DOCKED: USER        Moving Ligand-Moving Receptor   =  +0.00 kcal/mol
DOCKED: USER    (2) Final Total Internal Energy     =  -1.90 kcal/mol
DOCKED: USER    (3) Torsional Free Energy           =  +2.09 kcal/mol
DOCKED: USER    (4) Unbound System's Energy         =  -1.90 kcal/mol
DOCKED: USER
DOCKED: USER
DOCKED: REMARK SMILES C[C@H](CC[NH2+]C(=S)c1ccc2[nH]ccc2c1)Cc1ccccc1
DOCKED: REMARK SMILES IDX 4 1 3 2 2 3 1 4 17 5 18 6 19 7 23 8 20 9 22 10 21 11 5 12
DOCKED: REMARK SMILES IDX 6 15 7 16 8 17 9 18 16 19 10 20 15 21 11 22 14 23 12 24
DOCKED: REMARK SMILES IDX 13 25
DOCKED: REMARK H PARENT 5 13 5 14 12 26
DOCKED: USER                              x       y       z     vdW  Elec       q    Type
DOCKED: USER                           _______ _______ _______ _____ _____    ______ ____
DOCKED: ROOT
DOCKED: ATOM      1  C   UNL     1     142.458  81.755 217.940 -0.18 -0.18    +0.267 C  
DOCKED: ENDROOT
DOCKED: BRANCH   1   2
DOCKED: ATOM      2  C   UNL     1     141.250  81.593 218.892 -0.21 -0.03    +0.065 C  
DOCKED: BRANCH   2   3
DOCKED: ATOM      3  C   UNL     1     141.211  82.604 220.072 -0.23 +0.00    -0.004 C  
DOCKED: ATOM      4  C   UNL     1     140.691  83.964 219.573 -0.18 -0.00    +0.008 C  
DOCKED: BRANCH   3   5
DOCKED: ATOM      5  C   UNL     1     140.303  82.133 221.238 -0.27 -0.01    +0.039 C  
DOCKED: BRANCH   5   6
DOCKED: ATOM      6  C   UNL     1     140.936  81.068 222.096 -0.36 +0.01    -0.048 A  
DOCKED: ATOM      7  C   UNL     1     140.159  80.357 223.026 -0.40 -0.00    +0.004 A  
DOCKED: ATOM      8  C   UNL     1     142.309  80.784 221.985 -0.48 -0.00    +0.004 A  
DOCKED: ATOM      9  C   UNL     1     140.748  79.379 223.834 -0.53 -0.00    +0.000 A  
DOCKED: ATOM     10  C   UNL     1     142.893  79.807 222.796 -0.62 -0.00    +0.000 A  
DOCKED: ATOM     11  C   UNL     1     142.114  79.105 223.719 -0.59 -0.00    +0.000 A  
DOCKED: ENDBRANCH   5   6
DOCKED: ENDBRANCH   3   5
DOCKED: ENDBRANCH   2   3
DOCKED: ENDBRANCH   1   2
DOCKED: BRANCH   1  12
DOCKED: ATOM     12  N   UNL     1     142.764  80.548 217.148 +0.01 +0.39    -0.304 N  
DOCKED: ATOM     13  H   UNL     1     143.655  80.138 217.514 -0.41 -0.69    +0.353 HD 
DOCKED: ATOM     14  H   UNL     1     142.957  80.813 216.158 -0.42 -0.60    +0.353 HD 
DOCKED: BRANCH  12  15
DOCKED: ATOM     15  C   UNL     1     141.744  79.525 217.250 -0.16 -0.15    +0.202 C  
DOCKED: ATOM     16  S   UNL     1     140.473  79.559 216.197 -0.08 +0.01    -0.017 S  
DOCKED: BRANCH  15  17
DOCKED: ATOM     17  C   UNL     1     141.719  78.574 218.401 -0.22 -0.03    +0.048 A  
DOCKED: ATOM     18  C   UNL     1     142.831  77.722 218.668 -0.30 -0.01    +0.017 A  
DOCKED: ATOM     19  C   UNL     1     140.585  78.499 219.248 -0.13 -0.01    +0.025 A  
DOCKED: ATOM     20  C   UNL     1     142.814  76.820 219.750 -0.34 -0.02    +0.027 A  
DOCKED: ATOM     21  C   UNL     1     140.605  77.598 220.309 -0.20 -0.00    +0.000 A  
DOCKED: ATOM     22  C   UNL     1     141.679  76.787 220.551 -0.26 -0.02    +0.045 A  
DOCKED: ATOM     23  C   UNL     1     139.652  77.315 221.262 -0.20 -0.01    +0.028 A  
DOCKED: ATOM     24  N   UNL     1     141.452  75.997 221.613 -0.12 +0.16    -0.361 N  
DOCKED: ATOM     25  C   UNL     1     140.212  76.316 222.052 -0.34 -0.02    +0.083 A  
DOCKED: ATOM     26  H   UNL     1     142.091  75.272 222.012 -0.41 -0.06    +0.166 HD 
DOCKED: ENDBRANCH  15  17
DOCKED: ENDBRANCH  12  15
DOCKED: ENDBRANCH   1  12
DOCKED: TORSDOF 7
DOCKED: TER
DOCKED: ENDMDL
________________________________________________________________________________


    FINAL DOCKED STATE:
    ________________________


Run:   20 / 20
Time taken for this run:   0.043s

DOCKED: MODEL        20
DOCKED: USER    Run = 20
DOCKED: USER
DOCKED: USER    Estimated Free Energy of Binding    =  -6.59 kcal/mol  [=(1)+(2)+(3)-(4)]
DOCKED: USER
DOCKED: USER    (1) Final Intermolecular Energy     =  -8.68 kcal/mol
DOCKED: USER        vdW + Hbond + desolv Energy     =  -7.30 kcal/mol
DOCKED: USER        Electrostatic Energy            =  -1.39 kcal/mol
DOCKED: USER        Moving Ligand-Fixed Receptor    =  -8.68 kcal/mol
DOCKED: USER        Moving Ligand-Moving Receptor   =  +0.00 kcal/mol
DOCKED: USER    (2) Final Total Internal Energy     =  -1.86 kcal/mol
DOCKED: USER    (3) Torsional Free Energy           =  +2.09 kcal/mol
DOCKED: USER    (4) Unbound System's Energy         =  -1.86 kcal/mol
DOCKED: USER
DOCKED: USER
DOCKED: REMARK SMILES C[C@H](CC[NH2+]C(=S)c1ccc2[nH]ccc2c1)Cc1ccccc1
DOCKED: REMARK SMILES IDX 4 1 3 2 2 3 1 4 17 5 18 6 19 7 23 8 20 9 22 10 21 11 5 12
DOCKED: REMARK SMILES IDX 6 15 7 16 8 17 9 18 16 19 10 20 15 21 11 22 14 23 12 24
DOCKED: REMARK SMILES IDX 13 25
DOCKED: REMARK H PARENT 5 13 5 14 12 26
DOCKED: USER                              x       y       z     vdW  Elec       q    Type
DOCKED: USER                           _______ _______ _______ _____ _____    ______ ____
DOCKED: ROOT
DOCKED: ATOM      1  C   UNL     1     142.203  81.341 217.538 -0.19 -0.20    +0.267 C  
DOCKED: ENDROOT
DOCKED: BRANCH   1   2
DOCKED: ATOM      2  C   UNL     1     142.158  81.114 219.067 -0.17 -0.03    +0.065 C  
DOCKED: BRANCH   2   3
DOCKED: ATOM      3  C   UNL     1     141.312  82.153 219.855 -0.26 +0.00    -0.004 C  
DOCKED: ATOM      4  C   UNL     1     140.610  83.105 218.871 -0.16 -0.00    +0.008 C  
DOCKED: BRANCH   3   5
DOCKED: ATOM      5  C   UNL     1     140.230  81.493 220.750 -0.21 -0.01    +0.039 C  
DOCKED: BRANCH   5   6
DOCKED: ATOM      6  C   UNL     1     140.804  80.669 221.873 -0.32 +0.01    -0.048 A  
DOCKED: ATOM      7  C   UNL     1     139.951  80.064 222.813 -0.36 -0.00    +0.004 A  
DOCKED: ATOM      8  C   UNL     1     142.195  80.507 222.002 -0.51 -0.00    +0.004 A  
DOCKED: ATOM      9  C   UNL     1     140.483  79.313 223.865 -0.47 -0.00    +0.000 A  
DOCKED: ATOM     10  C   UNL     1     142.722  79.756 223.056 -0.64 -0.00    +0.000 A  
DOCKED: ATOM     11  C   UNL     1     141.867  79.159 223.987 -0.59 -0.00    +0.000 A  
DOCKED: ENDBRANCH   5   6
DOCKED: ENDBRANCH   3   5
DOCKED: ENDBRANCH   2   3
DOCKED: ENDBRANCH   1   2
DOCKED: BRANCH   1  12
DOCKED: ATOM     12  N   UNL     1     142.576  80.142 216.764 +0.03 +0.40    -0.304 N  
DOCKED: ATOM     13  H   UNL     1     143.514  79.819 217.099 -0.45 -0.82    +0.353 HD 
DOCKED: ATOM     14  H   UNL     1     142.702  80.393 215.759 -0.30 -0.56    +0.353 HD 
DOCKED: BRANCH  12  15
DOCKED: ATOM     15  C   UNL     1     141.653  79.040 216.939 -0.13 -0.15    +0.202 C  
DOCKED: ATOM     16  S   UNL     1     140.434  78.840 215.844 -0.06 +0.01    -0.017 S  
DOCKED: BRANCH  15  17
DOCKED: ATOM     17  C   UNL     1     141.665  78.215 218.184 -0.20 -0.03    +0.048 A  
DOCKED: ATOM     18  C   UNL     1     142.829  77.485 218.565 -0.33 -0.01    +0.017 A  
DOCKED: ATOM     19  C   UNL     1     140.515  78.142 219.009 -0.11 -0.01    +0.025 A  
DOCKED: ATOM     20  C   UNL     1     142.847  76.703 219.736 -0.36 -0.02    +0.027 A  
DOCKED: ATOM     21  C   UNL     1     140.570  77.361 220.160 -0.18 -0.00    +0.000 A  
DOCKED: ATOM     22  C   UNL     1     141.694  76.666 220.512 -0.27 -0.02    +0.045 A  
DOCKED: ATOM     23  C   UNL     1     139.612  77.106 221.116 -0.19 -0.01    +0.028 A  
DOCKED: ATOM     24  N   UNL     1     141.494  75.976 221.646 -0.06 +0.16    -0.361 N  
DOCKED: ATOM     25  C   UNL     1     140.221  76.241 222.021 -0.34 -0.02    +0.083 A  
DOCKED: ATOM     26  H   UNL     1     142.174  75.349 222.134 -0.47 -0.07    +0.166 HD 
DOCKED: ENDBRANCH  15  17
DOCKED: ENDBRANCH  12  15
DOCKED: ENDBRANCH   1  12
DOCKED: TORSDOF 7
DOCKED: TER
DOCKED: ENDMDL
________________________________________________________________________________


    CLUSTERING HISTOGRAM
    ____________________


________________________________________________________________________________
     |           |     |           |     |
Clus | Lowest    | Run | Mean      | Num | Histogram
-ter | Binding   |     | Binding   | in  |
Rank | Energy    |     | Energy    | Clus|    5    10   15   20   25   30   35
_____|___________|_____|___________|_____|____:____|____:____|____:____|____:___
   1 |     -8.08 |  14 |     -7.92 |   4 |####
   2 |     -7.63 |  18 |     -7.63 |   1 |#
   3 |     -6.90 |  11 |     -6.90 |   1 |#
   4 |     -6.90 |   4 |     -6.68 |  12 |############
   5 |     -6.61 |   6 |     -6.54 |   2 |##
_____|___________|_____|___________|_____|______________________________________


    RMSD TABLE
    __________


_______________________________________________________________________
     |      |      |           |         |                 |
Rank | Sub- | Run  | Binding   | Cluster | Reference       | Grep
     | Rank |      | Energy    | RMSD    | RMSD            | Pattern
_____|______|______|___________|_________|_________________|___________
   1      1     14       -8.08      0.00    272.93           RANKING
   1      2      3       -8.04      0.58    272.99           RANKING
   1      3      1       -7.99      0.82    272.99           RANKING
   1      4     10       -7.60      0.97    272.64           RANKING
   2      1     18       -7.63      0.00    272.41           RANKING
   3      1     11       -6.90      0.00    272.44           RANKING
   4      1      4       -6.90      0.00    272.15           RANKING
   4      2     19       -6.81      0.50    272.21           RANKING
   4      3     12       -6.75      0.58    272.15           RANKING
   4      4      5       -6.73      0.58    272.14           RANKING
   4      5      9       -6.72      0.41    272.10           RANKING
   4      6      8       -6.72      1.50    272.21           RANKING
   4      7     16       -6.69      0.58    272.15           RANKING
   4      8      2       -6.66      0.53    272.11           RANKING
   4      9     17       -6.61      0.64    272.15           RANKING
   4     10     20       -6.59      0.53    271.97           RANKING
   4     11      7       -6.52      0.66    272.08           RANKING
   4     12     13       -6.51      0.68    271.87           RANKING
   5      1      6       -6.61      0.00    272.59           RANKING
   5      2     15       -6.47      1.94    272.45           RANKING

Run time 0.869 sec
Idle time 0.252 sec
