AutoDock-GPU version: v1.6

**********************************************************
**    AutoDock-GPU AUTODOCKTOOLS-COMPATIBLE DLG FILE    **
**********************************************************


    DOCKING PARAMETERS
    ________________________


Ligand file:                               /home/a/REINVENT4/ReinventStudies/pleaseWork/justRnve/graph-dock-t2iv78/graph-DockGPU/node-autodockgpu/inputs/NQSBUKBJQGHAOK-RYSKXMCPNA-N.pdbqt
Grid fld file:                             /home/a/REINVENT4/ReinventStudies/mols/Rad51/maps/rad51_receptor.maps.fld

Random seed:                               42
Number of runs:                            20
Number of energy evaluations:              1132076
Number of generations:                     42000
Size of population:                        150
Rate of crossover:                         80.000000%
Tournament selection probability limit:    60.000000%
Rate of mutation:                          2.000000%
Maximal allowed delta movement:            +/- 6.000000A
Maximal allowed delta angle:               +/- 90.000000

Rate of local search:                      100.000000%
Maximal number of local search iterations: 300
Rho lower bound:                           0.010000
Spread of local search delta movement:     2.000000A
Spread of local search delta angle:        74.999999
Limit of consecutive successes/failures:   4

Handle symmetry during clustering:         YES
RMSD tolerance:                            2.000000A

Program call in command line was:          /home/a/REINVENT4/ReinventStudies/adgpu-v1.6_linux_x64_cuda12_128wi --filelist batch.txt --heuristics 1 --nrun 20 --psize 150 --lsit 300 --seed 42 --heurmax 12000000 


    GRID PARAMETERS
    ________________________


Receptor name:                             rad51_receptor
Number of grid points (x, y, z):           53, 53, 53
Grid center (x, y, z):                     139.950000, 75.640000, 221.970000A
Grid size (x, y, z):                       19.500000, 19.500000, 19.500000A
Grid spacing:                              0.375000A


    LIGAND PARAMETERS
    ________________________


Ligand name:                               /home/a/REINVENT4/ReinventStudies/pleaseWork/justRnve/graph-dock-t2iv78/graph-DockGPU/node-autodockgpu/inputs/NQSBUKBJQGHAOK-RYSKXMCPNA-N
Number of atoms:                           25
Number of rotatable bonds:                 6
Number of atom types:                      5


    DUMMY DATA (only for ADT-compatibility)
    ________________________


DPF> outlev 1
DPF> ga_run 20
DPF> fld /home/a/REINVENT4/ReinventStudies/mols/Rad51/maps/rad51_receptor.maps.fld
DPF> move /home/a/REINVENT4/ReinventStudies/pleaseWork/justRnve/graph-dock-t2iv78/graph-DockGPU/node-autodockgpu/inputs/NQSBUKBJQGHAOK-RYSKXMCPNA-N.pdbqt


    COUNTER STATES
    ________________________


Number of energy evaluations performed:    995472
Number of generations used:                45


    INPUT LIGAND PDBQT FILE:
    ________________________


INPUT-LIGAND-PDBQT: REMARK SMILES C[C@H](CCNC(=S)c1ccc2[nH]ccc2c1)Cc1ccccc1
INPUT-LIGAND-PDBQT: REMARK SMILES IDX 3 1 2 2 1 3 17 4 18 5 19 6 23 7 20 8 22 9 21 10 4 11 5 12
INPUT-LIGAND-PDBQT: REMARK SMILES IDX 6 13 7 15 8 16 9 17 16 18 10 19 15 20 11 21 14 22 12 23
INPUT-LIGAND-PDBQT: REMARK SMILES IDX 13 24
INPUT-LIGAND-PDBQT: REMARK H PARENT 5 14 12 25
INPUT-LIGAND-PDBQT: ROOT
INPUT-LIGAND-PDBQT: ATOM      1  C   UNL     1       2.028  -1.393   0.145  1.00  0.00     0.025 C 
INPUT-LIGAND-PDBQT: ENDROOT
INPUT-LIGAND-PDBQT: BRANCH   1   2
INPUT-LIGAND-PDBQT: ATOM      2  C   UNL     1       1.301  -2.692   0.577  1.00  0.00    -0.008 C 
INPUT-LIGAND-PDBQT: ATOM      3  C   UNL     1       2.311  -3.808   0.887  1.00  0.00     0.008 C 
INPUT-LIGAND-PDBQT: BRANCH   2   4
INPUT-LIGAND-PDBQT: ATOM      4  C   UNL     1       0.405  -2.440   1.812  1.00  0.00     0.039 C 
INPUT-LIGAND-PDBQT: BRANCH   4   5
INPUT-LIGAND-PDBQT: ATOM      5  C   UNL     1      -0.842  -1.663   1.458  1.00  0.00    -0.048 A 
INPUT-LIGAND-PDBQT: ATOM      6  C   UNL     1      -1.870  -2.286   0.728  1.00  0.00     0.004 A 
INPUT-LIGAND-PDBQT: ATOM      7  C   UNL     1      -0.990  -0.318   1.841  1.00  0.00     0.004 A 
INPUT-LIGAND-PDBQT: ATOM      8  C   UNL     1      -3.023  -1.574   0.382  1.00  0.00     0.000 A 
INPUT-LIGAND-PDBQT: ATOM      9  C   UNL     1      -2.150   0.388   1.501  1.00  0.00     0.000 A 
INPUT-LIGAND-PDBQT: ATOM     10  C   UNL     1      -3.164  -0.239   0.769  1.00  0.00     0.000 A 
INPUT-LIGAND-PDBQT: ENDBRANCH   4   5
INPUT-LIGAND-PDBQT: ENDBRANCH   2   4
INPUT-LIGAND-PDBQT: ENDBRANCH   1   2
INPUT-LIGAND-PDBQT: BRANCH   1  11
INPUT-LIGAND-PDBQT: ATOM     11  C   UNL     1       2.567  -1.444  -1.295  1.00  0.00     0.114 C 
INPUT-LIGAND-PDBQT: BRANCH  11  12
INPUT-LIGAND-PDBQT: ATOM     12  N   UNL     1       1.481  -1.580  -2.270  1.00  0.00    -0.376 N 
INPUT-LIGAND-PDBQT: ATOM     13  C   UNL     1       0.451  -0.592  -2.455  1.00  0.00     0.106 C 
INPUT-LIGAND-PDBQT: ATOM     14  H   UNL     1       1.386  -2.500  -2.763  1.00  0.00     0.161 HD
INPUT-LIGAND-PDBQT: ATOM     15  S   UNL     1      -1.026  -1.074  -2.987  1.00  0.00    -0.060 S 
INPUT-LIGAND-PDBQT: BRANCH  13  16
INPUT-LIGAND-PDBQT: ATOM     16  C   UNL     1       0.700   0.844  -2.196  1.00  0.00     0.010 A 
INPUT-LIGAND-PDBQT: ATOM     17  C   UNL     1       1.873   1.464  -2.702  1.00  0.00     0.013 A 
INPUT-LIGAND-PDBQT: ATOM     18  C   UNL     1      -0.211   1.599  -1.418  1.00  0.00     0.021 A 
INPUT-LIGAND-PDBQT: ATOM     19  C   UNL     1       2.167   2.803  -2.393  1.00  0.00     0.027 A 
INPUT-LIGAND-PDBQT: ATOM     20  C   UNL     1       0.112   2.925  -1.128  1.00  0.00     0.000 A 
INPUT-LIGAND-PDBQT: ATOM     21  C   UNL     1       1.261   3.507  -1.593  1.00  0.00     0.045 A 
INPUT-LIGAND-PDBQT: ATOM     22  C   UNL     1      -0.519   3.848  -0.319  1.00  0.00     0.028 A 
INPUT-LIGAND-PDBQT: ATOM     23  N   UNL     1       1.389   4.757  -1.118  1.00  0.00    -0.361 N 
INPUT-LIGAND-PDBQT: ATOM     24  C   UNL     1       0.305   4.969  -0.336  1.00  0.00     0.083 A 
INPUT-LIGAND-PDBQT: ATOM     25  H   UNL     1       2.179   5.419  -1.285  1.00  0.00     0.166 HD
INPUT-LIGAND-PDBQT: ENDBRANCH  13  16
INPUT-LIGAND-PDBQT: ENDBRANCH  11  12
INPUT-LIGAND-PDBQT: ENDBRANCH   1  11
INPUT-LIGAND-PDBQT: TORSDOF 6


    FINAL DOCKED STATE:
    ________________________


Run:   1 / 20
Time taken for this run:   0.034s

DOCKED: MODEL        1
DOCKED: USER    Run = 1
DOCKED: USER
DOCKED: USER    Estimated Free Energy of Binding    =  -6.37 kcal/mol  [=(1)+(2)+(3)-(4)]
DOCKED: USER
DOCKED: USER    (1) Final Intermolecular Energy     =  -8.16 kcal/mol
DOCKED: USER        vdW + Hbond + desolv Energy     =  -8.07 kcal/mol
DOCKED: USER        Electrostatic Energy            =  -0.09 kcal/mol
DOCKED: USER        Moving Ligand-Fixed Receptor    =  -8.16 kcal/mol
DOCKED: USER        Moving Ligand-Moving Receptor   =  +0.00 kcal/mol
DOCKED: USER    (2) Final Total Internal Energy     =  -1.90 kcal/mol
DOCKED: USER    (3) Torsional Free Energy           =  +1.79 kcal/mol
DOCKED: USER    (4) Unbound System's Energy         =  -1.90 kcal/mol
DOCKED: USER
DOCKED: USER
DOCKED: REMARK SMILES C[C@H](CCNC(=S)c1ccc2[nH]ccc2c1)Cc1ccccc1
DOCKED: REMARK SMILES IDX 3 1 2 2 1 3 17 4 18 5 19 6 23 7 20 8 22 9 21 10 4 11 5 12
DOCKED: REMARK SMILES IDX 6 13 7 15 8 16 9 17 16 18 10 19 15 20 11 21 14 22 12 23
DOCKED: REMARK SMILES IDX 13 24
DOCKED: REMARK H PARENT 5 14 12 25
DOCKED: USER                              x       y       z     vdW  Elec       q    Type
DOCKED: USER                           _______ _______ _______ _____ _____    ______ ____
DOCKED: ROOT
DOCKED: ATOM      1  C   UNL     1     137.780  77.634 222.792 -0.21 -0.00    +0.025 C  
DOCKED: ENDROOT
DOCKED: BRANCH   1   2
DOCKED: ATOM      2  C   UNL     1     138.135  79.116 222.508 -0.24 +0.00    -0.008 C  
DOCKED: ATOM      3  C   UNL     1     136.878  79.921 222.142 -0.12 -0.00    +0.008 C  
DOCKED: BRANCH   2   4
DOCKED: ATOM      4  C   UNL     1     138.832  79.761 223.728 -0.37 -0.00    +0.039 C  
DOCKED: BRANCH   4   5
DOCKED: ATOM      5  C   UNL     1     140.312  79.961 223.495 -0.43 +0.01    -0.048 A  
DOCKED: ATOM      6  C   UNL     1     141.191  78.869 223.610 -0.55 -0.00    +0.004 A  
DOCKED: ATOM      7  C   UNL     1     140.830  81.227 223.170 -0.44 -0.00    +0.004 A  
DOCKED: ATOM      8  C   UNL     1     142.565  79.043 223.411 -0.45 -0.00    +0.000 A  
DOCKED: ATOM      9  C   UNL     1     142.204  81.395 222.962 -0.50 -0.00    +0.000 A  
DOCKED: ATOM     10  C   UNL     1     143.071  80.304 223.085 -0.65 -0.00    +0.000 A  
DOCKED: ENDBRANCH   4   5
DOCKED: ENDBRANCH   2   4
DOCKED: ENDBRANCH   1   2
DOCKED: BRANCH   1  11
DOCKED: ATOM     11  C   UNL     1     138.225  76.674 221.676 -0.18 -0.02    +0.114 C  
DOCKED: BRANCH  11  12
DOCKED: ATOM     12  N   UNL     1     139.272  75.760 222.140 -0.16 +0.08    -0.376 N  
DOCKED: ATOM     13  C   UNL     1     140.469  75.477 221.392 -0.28 -0.02    +0.106 C  
DOCKED: ATOM     14  H   UNL     1     139.074  75.193 222.999 -0.42 -0.04    +0.161 HD 
DOCKED: ATOM     15  S   UNL     1     141.201  74.020 221.585 -0.27 +0.01    -0.060 S  
DOCKED: BRANCH  13  16
DOCKED: ATOM     16  C   UNL     1     141.061  76.475 220.473 -0.24 -0.00    +0.010 A  
DOCKED: ATOM     17  C   UNL     1     141.950  76.057 219.448 -0.23 -0.01    +0.013 A  
DOCKED: ATOM     18  C   UNL     1     140.771  77.853 220.630 -0.23 -0.01    +0.021 A  
DOCKED: ATOM     19  C   UNL     1     142.587  76.999 218.622 -0.30 -0.02    +0.027 A  
DOCKED: ATOM     20  C   UNL     1     141.423  78.761 219.795 -0.26 -0.00    +0.000 A  
DOCKED: ATOM     21  C   UNL     1     142.303  78.353 218.829 -0.27 -0.03    +0.045 A  
DOCKED: ATOM     22  C   UNL     1     141.419  80.142 219.792 -0.26 -0.01    +0.028 A  
DOCKED: ATOM     23  N   UNL     1     142.858  79.409 218.212 -0.16 +0.36    -0.361 N  
DOCKED: ATOM     24  C   UNL     1     142.324  80.505 218.799 -0.28 -0.05    +0.083 A  
DOCKED: ATOM     25  H   UNL     1     143.582  79.392 217.459 -0.53 -0.31    +0.166 HD 
DOCKED: ENDBRANCH  13  16
DOCKED: ENDBRANCH  11  12
DOCKED: ENDBRANCH   1  11
DOCKED: TORSDOF 6
DOCKED: TER
DOCKED: ENDMDL
________________________________________________________________________________


    FINAL DOCKED STATE:
    ________________________


Run:   2 / 20
Time taken for this run:   0.034s

DOCKED: MODEL        2
DOCKED: USER    Run = 2
DOCKED: USER
DOCKED: USER    Estimated Free Energy of Binding    =  -6.39 kcal/mol  [=(1)+(2)+(3)-(4)]
DOCKED: USER
DOCKED: USER    (1) Final Intermolecular Energy     =  -8.18 kcal/mol
DOCKED: USER        vdW + Hbond + desolv Energy     =  -8.16 kcal/mol
DOCKED: USER        Electrostatic Energy            =  -0.02 kcal/mol
DOCKED: USER        Moving Ligand-Fixed Receptor    =  -8.18 kcal/mol
DOCKED: USER        Moving Ligand-Moving Receptor   =  +0.00 kcal/mol
DOCKED: USER    (2) Final Total Internal Energy     =  -1.71 kcal/mol
DOCKED: USER    (3) Torsional Free Energy           =  +1.79 kcal/mol
DOCKED: USER    (4) Unbound System's Energy         =  -1.71 kcal/mol
DOCKED: USER
DOCKED: USER
DOCKED: REMARK SMILES C[C@H](CCNC(=S)c1ccc2[nH]ccc2c1)Cc1ccccc1
DOCKED: REMARK SMILES IDX 3 1 2 2 1 3 17 4 18 5 19 6 23 7 20 8 22 9 21 10 4 11 5 12
DOCKED: REMARK SMILES IDX 6 13 7 15 8 16 9 17 16 18 10 19 15 20 11 21 14 22 12 23
DOCKED: REMARK SMILES IDX 13 24
DOCKED: REMARK H PARENT 5 14 12 25
DOCKED: USER                              x       y       z     vdW  Elec       q    Type
DOCKED: USER                           _______ _______ _______ _____ _____    ______ ____
DOCKED: ROOT
DOCKED: ATOM      1  C   UNL     1     139.795  76.019 222.222 -0.33 -0.00    +0.025 C  
DOCKED: ENDROOT
DOCKED: BRANCH   1   2
DOCKED: ATOM      2  C   UNL     1     139.362  77.421 221.724 -0.26 +0.00    -0.008 C  
DOCKED: ATOM      3  C   UNL     1     138.026  77.346 220.968 -0.11 -0.00    +0.008 C  
DOCKED: BRANCH   2   4
DOCKED: ATOM      4  C   UNL     1     139.239  78.413 222.904 -0.29 -0.01    +0.039 C  
DOCKED: BRANCH   4   5
DOCKED: ATOM      5  C   UNL     1     140.499  79.227 223.094 -0.43 +0.01    -0.048 A  
DOCKED: ATOM      6  C   UNL     1     140.407  80.585 223.446 -0.46 -0.00    +0.004 A  
DOCKED: ATOM      7  C   UNL     1     141.768  78.648 222.915 -0.53 -0.00    +0.004 A  
DOCKED: ATOM      8  C   UNL     1     141.565  81.352 223.611 -0.53 -0.00    +0.000 A  
DOCKED: ATOM      9  C   UNL     1     142.924  79.417 223.090 -0.54 -0.00    +0.000 A  
DOCKED: ATOM     10  C   UNL     1     142.822  80.769 223.435 -0.64 -0.00    +0.000 A  
DOCKED: ENDBRANCH   4   5
DOCKED: ENDBRANCH   2   4
DOCKED: ENDBRANCH   1   2
DOCKED: BRANCH   1  11
DOCKED: ATOM     11  C   UNL     1     140.216  75.070 221.086 -0.23 -0.02    +0.114 C  
DOCKED: BRANCH  11  12
DOCKED: ATOM     12  N   UNL     1     141.617  74.660 221.222 -0.14 +0.09    -0.376 N  
DOCKED: ATOM     13  C   UNL     1     142.644  75.014 220.278 -0.26 -0.04    +0.106 C  
DOCKED: ATOM     14  H   UNL     1     141.848  73.971 221.977 +0.05 -0.00    +0.161 HD 
DOCKED: ATOM     15  S   UNL     1     143.930  74.011 220.090 -0.47 +0.02    -0.060 S  
DOCKED: BRANCH  13  16
DOCKED: ATOM     16  C   UNL     1     142.574  76.267 219.493 -0.33 -0.01    +0.010 A  
DOCKED: ATOM     17  C   UNL     1     143.025  76.287 218.146 -0.28 -0.01    +0.013 A  
DOCKED: ATOM     18  C   UNL     1     142.090  77.458 220.086 -0.31 -0.01    +0.021 A  
DOCKED: ATOM     19  C   UNL     1     143.046  77.487 217.415 -0.26 -0.02    +0.027 A  
DOCKED: ATOM     20  C   UNL     1     142.126  78.632 219.333 -0.27 -0.00    +0.000 A  
DOCKED: ATOM     21  C   UNL     1     142.592  78.650 218.046 -0.31 -0.04    +0.045 A  
DOCKED: ATOM     22  C   UNL     1     141.829  79.933 219.682 -0.30 -0.02    +0.028 A  
DOCKED: ATOM     23  N   UNL     1     142.603  79.902 217.559 -0.15 +0.39    -0.361 N  
DOCKED: ATOM     24  C   UNL     1     142.140  80.691 218.557 -0.29 -0.05    +0.083 A  
DOCKED: ATOM     25  H   UNL     1     142.935  80.212 216.619 -0.50 -0.29    +0.166 HD 
DOCKED: ENDBRANCH  13  16
DOCKED: ENDBRANCH  11  12
DOCKED: ENDBRANCH   1  11
DOCKED: TORSDOF 6
DOCKED: TER
DOCKED: ENDMDL
________________________________________________________________________________


    FINAL DOCKED STATE:
    ________________________


Run:   3 / 20
Time taken for this run:   0.034s

DOCKED: MODEL        3
DOCKED: USER    Run = 3
DOCKED: USER
DOCKED: USER    Estimated Free Energy of Binding    =  -6.45 kcal/mol  [=(1)+(2)+(3)-(4)]
DOCKED: USER
DOCKED: USER    (1) Final Intermolecular Energy     =  -8.24 kcal/mol
DOCKED: USER        vdW + Hbond + desolv Energy     =  -8.15 kcal/mol
DOCKED: USER        Electrostatic Energy            =  -0.09 kcal/mol
DOCKED: USER        Moving Ligand-Fixed Receptor    =  -8.24 kcal/mol
DOCKED: USER        Moving Ligand-Moving Receptor   =  +0.00 kcal/mol
DOCKED: USER    (2) Final Total Internal Energy     =  -1.82 kcal/mol
DOCKED: USER    (3) Torsional Free Energy           =  +1.79 kcal/mol
DOCKED: USER    (4) Unbound System's Energy         =  -1.82 kcal/mol
DOCKED: USER
DOCKED: USER
DOCKED: REMARK SMILES C[C@H](CCNC(=S)c1ccc2[nH]ccc2c1)Cc1ccccc1
DOCKED: REMARK SMILES IDX 3 1 2 2 1 3 17 4 18 5 19 6 23 7 20 8 22 9 21 10 4 11 5 12
DOCKED: REMARK SMILES IDX 6 13 7 15 8 16 9 17 16 18 10 19 15 20 11 21 14 22 12 23
DOCKED: REMARK SMILES IDX 13 24
DOCKED: REMARK H PARENT 5 14 12 25
DOCKED: USER                              x       y       z     vdW  Elec       q    Type
DOCKED: USER                           _______ _______ _______ _____ _____    ______ ____
DOCKED: ROOT
DOCKED: ATOM      1  C   UNL     1     137.967  77.676 222.978 -0.14 -0.00    +0.025 C  
DOCKED: ENDROOT
DOCKED: BRANCH   1   2
DOCKED: ATOM      2  C   UNL     1     138.026  79.180 222.608 -0.24 +0.00    -0.008 C  
DOCKED: ATOM      3  C   UNL     1     136.614  79.745 222.386 -0.13 -0.00    +0.008 C  
DOCKED: BRANCH   2   4
DOCKED: ATOM      4  C   UNL     1     138.746  79.992 223.709 -0.38 -0.00    +0.039 C  
DOCKED: BRANCH   4   5
DOCKED: ATOM      5  C   UNL     1     140.238  80.063 223.477 -0.43 +0.01    -0.048 A  
DOCKED: ATOM      6  C   UNL     1     140.821  81.266 223.040 -0.44 -0.00    +0.004 A  
DOCKED: ATOM      7  C   UNL     1     141.057  78.939 223.683 -0.53 -0.00    +0.004 A  
DOCKED: ATOM      8  C   UNL     1     142.198  81.341 222.808 -0.50 -0.00    +0.000 A  
DOCKED: ATOM      9  C   UNL     1     142.436  79.021 223.459 -0.49 -0.00    +0.000 A  
DOCKED: ATOM     10  C   UNL     1     143.005  80.220 223.018 -0.66 -0.00    +0.000 A  
DOCKED: ENDBRANCH   4   5
DOCKED: ENDBRANCH   2   4
DOCKED: ENDBRANCH   1   2
DOCKED: BRANCH   1  11
DOCKED: ATOM     11  C   UNL     1     138.366  76.745 221.819 -0.21 -0.02    +0.114 C  
DOCKED: BRANCH  11  12
DOCKED: ATOM     12  N   UNL     1     139.389  75.781 222.233 -0.17 +0.07    -0.376 N  
DOCKED: ATOM     13  C   UNL     1     140.541  75.454 221.435 -0.29 -0.02    +0.106 C  
DOCKED: ATOM     14  H   UNL     1     139.200  75.215 223.094 -0.47 -0.04    +0.161 HD 
DOCKED: ATOM     15  S   UNL     1     141.215  73.963 221.586 -0.27 +0.01    -0.060 S  
DOCKED: BRANCH  13  16
DOCKED: ATOM     16  C   UNL     1     141.141  76.434 220.502 -0.25 -0.00    +0.010 A  
DOCKED: ATOM     17  C   UNL     1     142.056  76.000 219.507 -0.25 -0.01    +0.013 A  
DOCKED: ATOM     18  C   UNL     1     140.831  77.811 220.615 -0.23 -0.01    +0.021 A  
DOCKED: ATOM     19  C   UNL     1     142.700  76.927 218.670 -0.31 -0.02    +0.027 A  
DOCKED: ATOM     20  C   UNL     1     141.489  78.706 219.770 -0.26 -0.00    +0.000 A  
DOCKED: ATOM     21  C   UNL     1     142.394  78.283 218.834 -0.27 -0.03    +0.045 A  
DOCKED: ATOM     22  C   UNL     1     141.469  80.085 219.730 -0.27 -0.01    +0.028 A  
DOCKED: ATOM     23  N   UNL     1     142.950  79.329 218.200 -0.16 +0.37    -0.361 N  
DOCKED: ATOM     24  C   UNL     1     142.390  80.433 218.747 -0.27 -0.06    +0.083 A  
DOCKED: ATOM     25  H   UNL     1     143.689  79.301 217.464 -0.54 -0.31    +0.166 HD 
DOCKED: ENDBRANCH  13  16
DOCKED: ENDBRANCH  11  12
DOCKED: ENDBRANCH   1  11
DOCKED: TORSDOF 6
DOCKED: TER
DOCKED: ENDMDL
________________________________________________________________________________


    FINAL DOCKED STATE:
    ________________________


Run:   4 / 20
Time taken for this run:   0.034s

DOCKED: MODEL        4
DOCKED: USER    Run = 4
DOCKED: USER
DOCKED: USER    Estimated Free Energy of Binding    =  -7.44 kcal/mol  [=(1)+(2)+(3)-(4)]
DOCKED: USER
DOCKED: USER    (1) Final Intermolecular Energy     =  -9.23 kcal/mol
DOCKED: USER        vdW + Hbond + desolv Energy     =  -9.22 kcal/mol
DOCKED: USER        Electrostatic Energy            =  -0.01 kcal/mol
DOCKED: USER        Moving Ligand-Fixed Receptor    =  -9.23 kcal/mol
DOCKED: USER        Moving Ligand-Moving Receptor   =  +0.00 kcal/mol
DOCKED: USER    (2) Final Total Internal Energy     =  -0.84 kcal/mol
DOCKED: USER    (3) Torsional Free Energy           =  +1.79 kcal/mol
DOCKED: USER    (4) Unbound System's Energy         =  -0.84 kcal/mol
DOCKED: USER
DOCKED: USER
DOCKED: REMARK SMILES C[C@H](CCNC(=S)c1ccc2[nH]ccc2c1)Cc1ccccc1
DOCKED: REMARK SMILES IDX 3 1 2 2 1 3 17 4 18 5 19 6 23 7 20 8 22 9 21 10 4 11 5 12
DOCKED: REMARK SMILES IDX 6 13 7 15 8 16 9 17 16 18 10 19 15 20 11 21 14 22 12 23
DOCKED: REMARK SMILES IDX 13 24
DOCKED: REMARK H PARENT 5 14 12 25
DOCKED: USER                              x       y       z     vdW  Elec       q    Type
DOCKED: USER                           _______ _______ _______ _____ _____    ______ ____
DOCKED: ROOT
DOCKED: ATOM      1  C   UNL     1     139.229  70.934 222.728 -0.25 -0.00    +0.025 C  
DOCKED: ENDROOT
DOCKED: BRANCH   1   2
DOCKED: ATOM      2  C   UNL     1     138.903  70.053 223.961 -0.32 +0.00    -0.008 C  
DOCKED: ATOM      3  C   UNL     1     138.108  68.804 223.548 -0.27 -0.00    +0.008 C  
DOCKED: BRANCH   2   4
DOCKED: ATOM      4  C   UNL     1     140.196  69.630 224.696 -0.24 -0.01    +0.039 C  
DOCKED: BRANCH   4   5
DOCKED: ATOM      5  C   UNL     1     140.410  70.421 225.966 -0.51 +0.01    -0.048 A  
DOCKED: ATOM      6  C   UNL     1     139.784  70.013 227.158 -0.54 -0.00    +0.004 A  
DOCKED: ATOM      7  C   UNL     1     141.222  71.569 225.976 -0.63 -0.00    +0.004 A  
DOCKED: ATOM      8  C   UNL     1     139.962  70.744 228.337 -0.63 -0.00    +0.000 A  
DOCKED: ATOM      9  C   UNL     1     141.406  72.292 227.161 -0.80 -0.00    +0.000 A  
DOCKED: ATOM     10  C   UNL     1     140.774  71.881 228.339 -0.78 -0.00    +0.000 A  
DOCKED: ENDBRANCH   4   5
DOCKED: ENDBRANCH   2   4
DOCKED: ENDBRANCH   1   2
DOCKED: BRANCH   1  11
DOCKED: ATOM     11  C   UNL     1     139.903  72.268 223.091 -0.24 -0.02    +0.114 C  
DOCKED: BRANCH  11  12
DOCKED: ATOM     12  N   UNL     1     139.532  73.330 222.151 -0.13 +0.07    -0.376 N  
DOCKED: ATOM     13  C   UNL     1     140.491  74.119 221.425 -0.26 -0.01    +0.106 C  
DOCKED: ATOM     14  H   UNL     1     138.521  73.605 222.107 -0.11 -0.05    +0.161 HD 
DOCKED: ATOM     15  S   UNL     1     140.090  75.649 220.983 -0.29 +0.02    -0.060 S  
DOCKED: BRANCH  13  16
DOCKED: ATOM     16  C   UNL     1     141.817  73.576 221.052 -0.26 -0.00    +0.010 A  
DOCKED: ATOM     17  C   UNL     1     141.997  72.175 220.912 -0.23 -0.00    +0.013 A  
DOCKED: ATOM     18  C   UNL     1     142.919  74.446 220.865 -0.23 -0.01    +0.021 A  
DOCKED: ATOM     19  C   UNL     1     143.267  71.638 220.643 -0.26 -0.00    +0.027 A  
DOCKED: ATOM     20  C   UNL     1     144.167  73.880 220.602 -0.44 -0.00    +0.000 A  
DOCKED: ATOM     21  C   UNL     1     144.339  72.525 220.499 -0.37 -0.01    +0.045 A  
DOCKED: ATOM     22  C   UNL     1     145.412  74.463 220.486 -0.42 -0.01    +0.028 A  
DOCKED: ATOM     23  N   UNL     1     145.635  72.220 220.322 -0.14 -0.04    -0.361 N  
DOCKED: ATOM     24  C   UNL     1     146.296  73.401 220.317 -0.54 +0.01    +0.083 A  
DOCKED: ATOM     25  H   UNL     1     146.055  71.268 220.242 -0.34 +0.04    +0.166 HD 
DOCKED: ENDBRANCH  13  16
DOCKED: ENDBRANCH  11  12
DOCKED: ENDBRANCH   1  11
DOCKED: TORSDOF 6
DOCKED: TER
DOCKED: ENDMDL
________________________________________________________________________________


    FINAL DOCKED STATE:
    ________________________


Run:   5 / 20
Time taken for this run:   0.034s

DOCKED: MODEL        5
DOCKED: USER    Run = 5
DOCKED: USER
DOCKED: USER    Estimated Free Energy of Binding    =  -6.77 kcal/mol  [=(1)+(2)+(3)-(4)]
DOCKED: USER
DOCKED: USER    (1) Final Intermolecular Energy     =  -8.56 kcal/mol
DOCKED: USER        vdW + Hbond + desolv Energy     =  -8.52 kcal/mol
DOCKED: USER        Electrostatic Energy            =  -0.05 kcal/mol
DOCKED: USER        Moving Ligand-Fixed Receptor    =  -8.56 kcal/mol
DOCKED: USER        Moving Ligand-Moving Receptor   =  +0.00 kcal/mol
DOCKED: USER    (2) Final Total Internal Energy     =  -0.91 kcal/mol
DOCKED: USER    (3) Torsional Free Energy           =  +1.79 kcal/mol
DOCKED: USER    (4) Unbound System's Energy         =  -0.91 kcal/mol
DOCKED: USER
DOCKED: USER
DOCKED: REMARK SMILES C[C@H](CCNC(=S)c1ccc2[nH]ccc2c1)Cc1ccccc1
DOCKED: REMARK SMILES IDX 3 1 2 2 1 3 17 4 18 5 19 6 23 7 20 8 22 9 21 10 4 11 5 12
DOCKED: REMARK SMILES IDX 6 13 7 15 8 16 9 17 16 18 10 19 15 20 11 21 14 22 12 23
DOCKED: REMARK SMILES IDX 13 24
DOCKED: REMARK H PARENT 5 14 12 25
DOCKED: USER                              x       y       z     vdW  Elec       q    Type
DOCKED: USER                           _______ _______ _______ _____ _____    ______ ____
DOCKED: ROOT
DOCKED: ATOM      1  C   UNL     1     139.136  72.220 222.521 -0.23 -0.01    +0.025 C  
DOCKED: ENDROOT
DOCKED: BRANCH   1   2
DOCKED: ATOM      2  C   UNL     1     139.187  71.281 223.753 -0.33 +0.00    -0.008 C  
DOCKED: ATOM      3  C   UNL     1     138.629  69.892 223.407 -0.26 -0.00    +0.008 C  
DOCKED: BRANCH   2   4
DOCKED: ATOM      4  C   UNL     1     140.632  71.146 224.286 -0.40 -0.00    +0.039 C  
DOCKED: BRANCH   4   5
DOCKED: ATOM      5  C   UNL     1     140.667  70.613 225.700 -0.53 +0.01    -0.048 A  
DOCKED: ATOM      6  C   UNL     1     140.727  71.508 226.783 -0.72 -0.00    +0.004 A  
DOCKED: ATOM      7  C   UNL     1     140.647  69.230 225.953 -0.51 -0.00    +0.004 A  
DOCKED: ATOM      8  C   UNL     1     140.774  71.028 228.095 -0.71 -0.00    +0.000 A  
DOCKED: ATOM      9  C   UNL     1     140.684  68.754 227.269 -0.64 -0.00    +0.000 A  
DOCKED: ATOM     10  C   UNL     1     140.751  69.653 228.339 -0.60 -0.00    +0.000 A  
DOCKED: ENDBRANCH   4   5
DOCKED: ENDBRANCH   2   4
DOCKED: ENDBRANCH   1   2
DOCKED: BRANCH   1  11
DOCKED: ATOM     11  C   UNL     1     140.445  72.241 221.713 -0.23 -0.01    +0.114 C  
DOCKED: BRANCH  11  12
DOCKED: ATOM     12  N   UNL     1     140.720  70.937 221.102 -0.04 +0.05    -0.376 N  
DOCKED: ATOM     13  C   UNL     1     141.667  70.743 220.036 -0.10 -0.01    +0.106 C  
DOCKED: ATOM     14  H   UNL     1     140.102  70.135 221.375 +0.04 -0.03    +0.161 HD 
DOCKED: ATOM     15  S   UNL     1     141.429  69.510 218.977 -0.11 +0.01    -0.060 S  
DOCKED: BRANCH  13  16
DOCKED: ATOM     16  C   UNL     1     142.855  71.613 219.888 -0.19 -0.00    +0.010 A  
DOCKED: ATOM     17  C   UNL     1     143.251  72.061 218.599 -0.10 -0.00    +0.013 A  
DOCKED: ATOM     18  C   UNL     1     143.620  71.979 221.022 -0.22 -0.00    +0.021 A  
DOCKED: ATOM     19  C   UNL     1     144.424  72.816 218.431 -0.18 +0.00    +0.027 A  
DOCKED: ATOM     20  C   UNL     1     144.780  72.728 220.820 -0.48 -0.00    +0.000 A  
DOCKED: ATOM     21  C   UNL     1     145.173  73.129 219.571 -0.39 +0.00    +0.045 A  
DOCKED: ATOM     22  C   UNL     1     145.758  73.127 221.707 -0.54 -0.01    +0.028 A  
DOCKED: ATOM     23  N   UNL     1     146.355  73.764 219.623 -0.06 -0.07    -0.361 N  
DOCKED: ATOM     24  C   UNL     1     146.719  73.763 220.927 -0.47 +0.01    +0.083 A  
DOCKED: ATOM     25  H   UNL     1     146.902  74.149 218.821 -0.52 +0.02    +0.166 HD 
DOCKED: ENDBRANCH  13  16
DOCKED: ENDBRANCH  11  12
DOCKED: ENDBRANCH   1  11
DOCKED: TORSDOF 6
DOCKED: TER
DOCKED: ENDMDL
________________________________________________________________________________


    FINAL DOCKED STATE:
    ________________________


Run:   6 / 20
Time taken for this run:   0.034s

DOCKED: MODEL        6
DOCKED: USER    Run = 6
DOCKED: USER
DOCKED: USER    Estimated Free Energy of Binding    =  -5.81 kcal/mol  [=(1)+(2)+(3)-(4)]
DOCKED: USER
DOCKED: USER    (1) Final Intermolecular Energy     =  -7.60 kcal/mol
DOCKED: USER        vdW + Hbond + desolv Energy     =  -7.56 kcal/mol
DOCKED: USER        Electrostatic Energy            =  -0.04 kcal/mol
DOCKED: USER        Moving Ligand-Fixed Receptor    =  -7.60 kcal/mol
DOCKED: USER        Moving Ligand-Moving Receptor   =  +0.00 kcal/mol
DOCKED: USER    (2) Final Total Internal Energy     =  -2.06 kcal/mol
DOCKED: USER    (3) Torsional Free Energy           =  +1.79 kcal/mol
DOCKED: USER    (4) Unbound System's Energy         =  -2.06 kcal/mol
DOCKED: USER
DOCKED: USER
DOCKED: REMARK SMILES C[C@H](CCNC(=S)c1ccc2[nH]ccc2c1)Cc1ccccc1
DOCKED: REMARK SMILES IDX 3 1 2 2 1 3 17 4 18 5 19 6 23 7 20 8 22 9 21 10 4 11 5 12
DOCKED: REMARK SMILES IDX 6 13 7 15 8 16 9 17 16 18 10 19 15 20 11 21 14 22 12 23
DOCKED: REMARK SMILES IDX 13 24
DOCKED: REMARK H PARENT 5 14 12 25
DOCKED: USER                              x       y       z     vdW  Elec       q    Type
DOCKED: USER                           _______ _______ _______ _____ _____    ______ ____
DOCKED: ROOT
DOCKED: ATOM      1  C   UNL     1     141.210  80.963 218.872 -0.21 -0.01    +0.025 C  
DOCKED: ENDROOT
DOCKED: BRANCH   1   2
DOCKED: ATOM      2  C   UNL     1     141.095  82.150 219.862 -0.26 +0.00    -0.008 C  
DOCKED: ATOM      3  C   UNL     1     140.554  83.402 219.155 -0.17 -0.00    +0.008 C  
DOCKED: BRANCH   2   4
DOCKED: ATOM      4  C   UNL     1     140.182  81.788 221.056 -0.24 -0.01    +0.039 C  
DOCKED: BRANCH   4   5
DOCKED: ATOM      5  C   UNL     1     140.872  80.872 222.040 -0.35 +0.01    -0.048 A  
DOCKED: ATOM      6  C   UNL     1     142.276  80.783 222.045 -0.49 -0.00    +0.004 A  
DOCKED: ATOM      7  C   UNL     1     140.132  80.098 222.952 -0.39 -0.00    +0.004 A  
DOCKED: ATOM      8  C   UNL     1     142.927  79.929 222.941 -0.64 -0.00    +0.000 A  
DOCKED: ATOM      9  C   UNL     1     140.788  79.252 223.854 -0.51 -0.00    +0.000 A  
DOCKED: ATOM     10  C   UNL     1     142.184  79.165 223.846 -0.57 -0.00    +0.000 A  
DOCKED: ENDBRANCH   4   5
DOCKED: ENDBRANCH   2   4
DOCKED: ENDBRANCH   1   2
DOCKED: BRANCH   1  11
DOCKED: ATOM     11  C   UNL     1     142.576  80.255 218.922 -0.12 -0.08    +0.114 C  
DOCKED: BRANCH  11  12
DOCKED: ATOM     12  N   UNL     1     142.653  79.168 217.942 -0.16 +0.36    -0.376 N  
DOCKED: ATOM     13  C   UNL     1     142.536  77.776 218.289 -0.28 -0.08    +0.106 C  
DOCKED: ATOM     14  H   UNL     1     142.932  79.418 216.963 -0.43 -0.25    +0.161 HD 
DOCKED: ATOM     15  S   UNL     1     143.296  76.658 217.356 -0.30 +0.04    -0.060 S  
DOCKED: BRANCH  13  16
DOCKED: ATOM     16  C   UNL     1     141.734  77.333 219.451 -0.25 -0.01    +0.010 A  
DOCKED: ATOM     17  C   UNL     1     142.173  76.238 220.241 -0.28 -0.01    +0.013 A  
DOCKED: ATOM     18  C   UNL     1     140.511  77.975 219.763 -0.14 -0.01    +0.021 A  
DOCKED: ATOM     19  C   UNL     1     141.381  75.749 221.294 -0.30 -0.01    +0.027 A  
DOCKED: ATOM     20  C   UNL     1     139.748  77.464 220.813 -0.17 -0.00    +0.000 A  
DOCKED: ATOM     21  C   UNL     1     140.163  76.387 221.551 -0.30 -0.01    +0.045 A  
DOCKED: ATOM     22  C   UNL     1     138.490  77.810 221.262 -0.14 -0.01    +0.028 A  
DOCKED: ATOM     23  N   UNL     1     139.228  76.034 222.448 -0.17 +0.07    -0.361 N  
DOCKED: ATOM     24  C   UNL     1     138.201  76.899 222.273 -0.25 -0.02    +0.083 A  
DOCKED: ATOM     25  H   UNL     1     139.265  75.235 223.118 -0.44 -0.03    +0.166 HD 
DOCKED: ENDBRANCH  13  16
DOCKED: ENDBRANCH  11  12
DOCKED: ENDBRANCH   1  11
DOCKED: TORSDOF 6
DOCKED: TER
DOCKED: ENDMDL
________________________________________________________________________________


    FINAL DOCKED STATE:
    ________________________


Run:   7 / 20
Time taken for this run:   0.034s

DOCKED: MODEL        7
DOCKED: USER    Run = 7
DOCKED: USER
DOCKED: USER    Estimated Free Energy of Binding    =  -6.01 kcal/mol  [=(1)+(2)+(3)-(4)]
DOCKED: USER
DOCKED: USER    (1) Final Intermolecular Energy     =  -7.80 kcal/mol
DOCKED: USER        vdW + Hbond + desolv Energy     =  -7.66 kcal/mol
DOCKED: USER        Electrostatic Energy            =  -0.14 kcal/mol
DOCKED: USER        Moving Ligand-Fixed Receptor    =  -7.80 kcal/mol
DOCKED: USER        Moving Ligand-Moving Receptor   =  +0.00 kcal/mol
DOCKED: USER    (2) Final Total Internal Energy     =  -2.03 kcal/mol
DOCKED: USER    (3) Torsional Free Energy           =  +1.79 kcal/mol
DOCKED: USER    (4) Unbound System's Energy         =  -2.03 kcal/mol
DOCKED: USER
DOCKED: USER
DOCKED: REMARK SMILES C[C@H](CCNC(=S)c1ccc2[nH]ccc2c1)Cc1ccccc1
DOCKED: REMARK SMILES IDX 3 1 2 2 1 3 17 4 18 5 19 6 23 7 20 8 22 9 21 10 4 11 5 12
DOCKED: REMARK SMILES IDX 6 13 7 15 8 16 9 17 16 18 10 19 15 20 11 21 14 22 12 23
DOCKED: REMARK SMILES IDX 13 24
DOCKED: REMARK H PARENT 5 14 12 25
DOCKED: USER                              x       y       z     vdW  Elec       q    Type
DOCKED: USER                           _______ _______ _______ _____ _____    ______ ____
DOCKED: ROOT
DOCKED: ATOM      1  C   UNL     1     137.301  78.852 222.638 -0.20 -0.00    +0.025 C  
DOCKED: ENDROOT
DOCKED: BRANCH   1   2
DOCKED: ATOM      2  C   UNL     1     137.841  80.259 223.000 -0.26 +0.00    -0.008 C  
DOCKED: ATOM      3  C   UNL     1     136.692  81.206 223.380 -0.20 -0.00    +0.008 C  
DOCKED: BRANCH   2   4
DOCKED: ATOM      4  C   UNL     1     138.858  80.178 224.163 -0.36 -0.00    +0.039 C  
DOCKED: BRANCH   4   5
DOCKED: ATOM      5  C   UNL     1     140.286  80.157 223.666 -0.42 +0.01    -0.048 A  
DOCKED: ATOM      6  C   UNL     1     140.814  81.284 223.011 -0.43 -0.00    +0.004 A  
DOCKED: ATOM      7  C   UNL     1     141.096  79.021 223.841 -0.56 -0.00    +0.004 A  
DOCKED: ATOM      8  C   UNL     1     142.129  81.272 222.534 -0.50 -0.00    +0.000 A  
DOCKED: ATOM      9  C   UNL     1     142.415  79.017 223.371 -0.51 -0.00    +0.000 A  
DOCKED: ATOM     10  C   UNL     1     142.929  80.141 222.715 -0.64 -0.00    +0.000 A  
DOCKED: ENDBRANCH   4   5
DOCKED: ENDBRANCH   2   4
DOCKED: ENDBRANCH   1   2
DOCKED: BRANCH   1  11
DOCKED: ATOM     11  C   UNL     1     138.120  78.145 221.544 -0.13 -0.02    +0.114 C  
DOCKED: BRANCH  11  12
DOCKED: ATOM     12  N   UNL     1     139.119  77.241 222.122 -0.12 +0.08    -0.376 N  
DOCKED: ATOM     13  C   UNL     1     140.305  76.818 221.426 -0.27 -0.03    +0.106 C  
DOCKED: ATOM     14  H   UNL     1     138.887  76.786 223.038 +0.03 -0.03    +0.161 HD 
DOCKED: ATOM     15  S   UNL     1     140.964  75.358 221.792 -0.33 +0.01    -0.060 S  
DOCKED: BRANCH  13  16
DOCKED: ATOM     16  C   UNL     1     140.952  77.675 220.407 -0.23 -0.00    +0.010 A  
DOCKED: ATOM     17  C   UNL     1     141.886  77.114 219.496 -0.27 -0.01    +0.013 A  
DOCKED: ATOM     18  C   UNL     1     140.668  79.061 220.353 -0.20 -0.01    +0.021 A  
DOCKED: ATOM     19  C   UNL     1     142.573  77.928 218.580 -0.32 -0.02    +0.027 A  
DOCKED: ATOM     20  C   UNL     1     141.368  79.841 219.433 -0.25 -0.00    +0.000 A  
DOCKED: ATOM     21  C   UNL     1     142.291  79.298 218.579 -0.30 -0.03    +0.045 A  
DOCKED: ATOM     22  C   UNL     1     141.378  81.207 219.236 -0.25 -0.01    +0.028 A  
DOCKED: ATOM     23  N   UNL     1     142.887  80.256 217.849 -0.17 +0.40    -0.361 N  
DOCKED: ATOM     24  C   UNL     1     142.334  81.425 218.248 -0.26 -0.05    +0.083 A  
DOCKED: ATOM     25  H   UNL     1     143.646  80.132 217.143 -0.53 -0.41    +0.166 HD 
DOCKED: ENDBRANCH  13  16
DOCKED: ENDBRANCH  11  12
DOCKED: ENDBRANCH   1  11
DOCKED: TORSDOF 6
DOCKED: TER
DOCKED: ENDMDL
________________________________________________________________________________


    FINAL DOCKED STATE:
    ________________________


Run:   8 / 20
Time taken for this run:   0.034s

DOCKED: MODEL        8
DOCKED: USER    Run = 8
DOCKED: USER
DOCKED: USER    Estimated Free Energy of Binding    =  -6.45 kcal/mol  [=(1)+(2)+(3)-(4)]
DOCKED: USER
DOCKED: USER    (1) Final Intermolecular Energy     =  -8.24 kcal/mol
DOCKED: USER        vdW + Hbond + desolv Energy     =  -8.15 kcal/mol
DOCKED: USER        Electrostatic Energy            =  -0.08 kcal/mol
DOCKED: USER        Moving Ligand-Fixed Receptor    =  -8.24 kcal/mol
DOCKED: USER        Moving Ligand-Moving Receptor   =  +0.00 kcal/mol
DOCKED: USER    (2) Final Total Internal Energy     =  -1.81 kcal/mol
DOCKED: USER    (3) Torsional Free Energy           =  +1.79 kcal/mol
DOCKED: USER    (4) Unbound System's Energy         =  -1.81 kcal/mol
DOCKED: USER
DOCKED: USER
DOCKED: REMARK SMILES C[C@H](CCNC(=S)c1ccc2[nH]ccc2c1)Cc1ccccc1
DOCKED: REMARK SMILES IDX 3 1 2 2 1 3 17 4 18 5 19 6 23 7 20 8 22 9 21 10 4 11 5 12
DOCKED: REMARK SMILES IDX 6 13 7 15 8 16 9 17 16 18 10 19 15 20 11 21 14 22 12 23
DOCKED: REMARK SMILES IDX 13 24
DOCKED: REMARK H PARENT 5 14 12 25
DOCKED: USER                              x       y       z     vdW  Elec       q    Type
DOCKED: USER                           _______ _______ _______ _____ _____    ______ ____
DOCKED: ROOT
DOCKED: ATOM      1  C   UNL     1     138.024  77.611 222.975 -0.15 -0.00    +0.025 C  
DOCKED: ENDROOT
DOCKED: BRANCH   1   2
DOCKED: ATOM      2  C   UNL     1     138.029  79.097 222.537 -0.23 +0.00    -0.008 C  
DOCKED: ATOM      3  C   UNL     1     136.599  79.599 222.283 -0.13 -0.00    +0.008 C  
DOCKED: BRANCH   2   4
DOCKED: ATOM      4  C   UNL     1     138.714  79.986 223.601 -0.37 -0.01    +0.039 C  
DOCKED: BRANCH   4   5
DOCKED: ATOM      5  C   UNL     1     140.209  80.068 223.394 -0.42 +0.01    -0.048 A  
DOCKED: ATOM      6  C   UNL     1     141.014  78.945 223.654 -0.52 -0.00    +0.004 A  
DOCKED: ATOM      7  C   UNL     1     140.813  81.258 222.950 -0.44 -0.00    +0.004 A  
DOCKED: ATOM      8  C   UNL     1     142.400  79.013 223.480 -0.50 -0.00    +0.000 A  
DOCKED: ATOM      9  C   UNL     1     142.200  81.319 222.768 -0.50 -0.00    +0.000 A  
DOCKED: ATOM     10  C   UNL     1     142.992  80.197 223.036 -0.66 -0.00    +0.000 A  
DOCKED: ENDBRANCH   4   5
DOCKED: ENDBRANCH   2   4
DOCKED: ENDBRANCH   1   2
DOCKED: BRANCH   1  11
DOCKED: ATOM     11  C   UNL     1     138.365  76.636 221.834 -0.21 -0.02    +0.114 C  
DOCKED: BRANCH  11  12
DOCKED: ATOM     12  N   UNL     1     139.387  75.668 222.243 -0.17 +0.07    -0.376 N  
DOCKED: ATOM     13  C   UNL     1     140.537  75.341 221.443 -0.29 -0.02    +0.106 C  
DOCKED: ATOM     14  H   UNL     1     139.198  75.099 223.103 -0.49 -0.04    +0.161 HD 
DOCKED: ATOM     15  S   UNL     1     141.208  73.849 221.587 -0.28 +0.01    -0.060 S  
DOCKED: BRANCH  13  16
DOCKED: ATOM     16  C   UNL     1     141.137  76.323 220.512 -0.25 -0.00    +0.010 A  
DOCKED: ATOM     17  C   UNL     1     142.061  75.892 219.523 -0.25 -0.01    +0.013 A  
DOCKED: ATOM     18  C   UNL     1     140.819  77.699 220.620 -0.23 -0.01    +0.021 A  
DOCKED: ATOM     19  C   UNL     1     142.704  76.822 218.688 -0.31 -0.02    +0.027 A  
DOCKED: ATOM     20  C   UNL     1     141.477  78.595 219.778 -0.26 -0.00    +0.000 A  
DOCKED: ATOM     21  C   UNL     1     142.391  78.176 218.848 -0.27 -0.03    +0.045 A  
DOCKED: ATOM     22  C   UNL     1     141.450  79.975 219.736 -0.26 -0.01    +0.028 A  
DOCKED: ATOM     23  N   UNL     1     142.945  79.224 218.216 -0.16 +0.37    -0.361 N  
DOCKED: ATOM     24  C   UNL     1     142.375  80.326 218.758 -0.27 -0.06    +0.083 A  
DOCKED: ATOM     25  H   UNL     1     143.689  79.199 217.484 -0.53 -0.30    +0.166 HD 
DOCKED: ENDBRANCH  13  16
DOCKED: ENDBRANCH  11  12
DOCKED: ENDBRANCH   1  11
DOCKED: TORSDOF 6
DOCKED: TER
DOCKED: ENDMDL
________________________________________________________________________________


    FINAL DOCKED STATE:
    ________________________


Run:   9 / 20
Time taken for this run:   0.034s

DOCKED: MODEL        9
DOCKED: USER    Run = 9
DOCKED: USER
DOCKED: USER    Estimated Free Energy of Binding    =  -5.84 kcal/mol  [=(1)+(2)+(3)-(4)]
DOCKED: USER
DOCKED: USER    (1) Final Intermolecular Energy     =  -7.63 kcal/mol
DOCKED: USER        vdW + Hbond + desolv Energy     =  -7.59 kcal/mol
DOCKED: USER        Electrostatic Energy            =  -0.04 kcal/mol
DOCKED: USER        Moving Ligand-Fixed Receptor    =  -7.63 kcal/mol
DOCKED: USER        Moving Ligand-Moving Receptor   =  +0.00 kcal/mol
DOCKED: USER    (2) Final Total Internal Energy     =  -2.03 kcal/mol
DOCKED: USER    (3) Torsional Free Energy           =  +1.79 kcal/mol
DOCKED: USER    (4) Unbound System's Energy         =  -2.03 kcal/mol
DOCKED: USER
DOCKED: USER
DOCKED: REMARK SMILES C[C@H](CCNC(=S)c1ccc2[nH]ccc2c1)Cc1ccccc1
DOCKED: REMARK SMILES IDX 3 1 2 2 1 3 17 4 18 5 19 6 23 7 20 8 22 9 21 10 4 11 5 12
DOCKED: REMARK SMILES IDX 6 13 7 15 8 16 9 17 16 18 10 19 15 20 11 21 14 22 12 23
DOCKED: REMARK SMILES IDX 13 24
DOCKED: REMARK H PARENT 5 14 12 25
DOCKED: USER                              x       y       z     vdW  Elec       q    Type
DOCKED: USER                           _______ _______ _______ _____ _____    ______ ____
DOCKED: ROOT
DOCKED: ATOM      1  C   UNL     1     141.247  81.017 218.858 -0.22 -0.01    +0.025 C  
DOCKED: ENDROOT
DOCKED: BRANCH   1   2
DOCKED: ATOM      2  C   UNL     1     141.141  82.206 219.846 -0.26 +0.00    -0.008 C  
DOCKED: ATOM      3  C   UNL     1     140.628  83.467 219.133 -0.17 -0.00    +0.008 C  
DOCKED: BRANCH   2   4
DOCKED: ATOM      4  C   UNL     1     140.208  81.860 221.030 -0.24 -0.01    +0.039 C  
DOCKED: BRANCH   4   5
DOCKED: ATOM      5  C   UNL     1     140.878  80.946 222.030 -0.35 +0.01    -0.048 A  
DOCKED: ATOM      6  C   UNL     1     142.281  80.858 222.067 -0.49 -0.00    +0.004 A  
DOCKED: ATOM      7  C   UNL     1     140.118  80.171 222.925 -0.39 -0.00    +0.004 A  
DOCKED: ATOM      8  C   UNL     1     142.913  80.006 222.978 -0.65 -0.00    +0.000 A  
DOCKED: ATOM      9  C   UNL     1     140.755  79.326 223.842 -0.52 -0.00    +0.000 A  
DOCKED: ATOM     10  C   UNL     1     142.151  79.242 223.866 -0.58 -0.00    +0.000 A  
DOCKED: ENDBRANCH   4   5
DOCKED: ENDBRANCH   2   4
DOCKED: ENDBRANCH   1   2
DOCKED: BRANCH   1  11
DOCKED: ATOM     11  C   UNL     1     142.575  80.248 218.966 -0.11 -0.08    +0.114 C  
DOCKED: BRANCH  11  12
DOCKED: ATOM     12  N   UNL     1     142.649  79.164 217.982 -0.16 +0.36    -0.376 N  
DOCKED: ATOM     13  C   UNL     1     142.525  77.772 218.324 -0.28 -0.07    +0.106 C  
DOCKED: ATOM     14  H   UNL     1     142.932  79.416 217.005 -0.41 -0.25    +0.161 HD 
DOCKED: ATOM     15  S   UNL     1     143.281  76.653 217.389 -0.30 +0.04    -0.060 S  
DOCKED: BRANCH  13  16
DOCKED: ATOM     16  C   UNL     1     141.717  77.328 219.483 -0.25 -0.01    +0.010 A  
DOCKED: ATOM     17  C   UNL     1     142.141  76.218 220.260 -0.27 -0.01    +0.013 A  
DOCKED: ATOM     18  C   UNL     1     140.505  77.985 219.803 -0.15 -0.01    +0.021 A  
DOCKED: ATOM     19  C   UNL     1     141.343  75.730 221.309 -0.31 -0.01    +0.027 A  
DOCKED: ATOM     20  C   UNL     1     139.736  77.475 220.849 -0.17 -0.00    +0.000 A  
DOCKED: ATOM     21  C   UNL     1     140.135  76.384 221.574 -0.30 -0.01    +0.045 A  
DOCKED: ATOM     22  C   UNL     1     138.484  77.836 221.304 -0.14 -0.01    +0.028 A  
DOCKED: ATOM     23  N   UNL     1     139.196  76.036 222.469 -0.17 +0.07    -0.361 N  
DOCKED: ATOM     24  C   UNL     1     138.183  76.918 222.306 -0.25 -0.02    +0.083 A  
DOCKED: ATOM     25  H   UNL     1     139.222  75.228 223.131 -0.46 -0.04    +0.166 HD 
DOCKED: ENDBRANCH  13  16
DOCKED: ENDBRANCH  11  12
DOCKED: ENDBRANCH   1  11
DOCKED: TORSDOF 6
DOCKED: TER
DOCKED: ENDMDL
________________________________________________________________________________


    FINAL DOCKED STATE:
    ________________________


Run:   10 / 20
Time taken for this run:   0.034s

DOCKED: MODEL        10
DOCKED: USER    Run = 10
DOCKED: USER
DOCKED: USER    Estimated Free Energy of Binding    =  -6.42 kcal/mol  [=(1)+(2)+(3)-(4)]
DOCKED: USER
DOCKED: USER    (1) Final Intermolecular Energy     =  -8.20 kcal/mol
DOCKED: USER        vdW + Hbond + desolv Energy     =  -8.12 kcal/mol
DOCKED: USER        Electrostatic Energy            =  -0.08 kcal/mol
DOCKED: USER        Moving Ligand-Fixed Receptor    =  -8.20 kcal/mol
DOCKED: USER        Moving Ligand-Moving Receptor   =  +0.00 kcal/mol
DOCKED: USER    (2) Final Total Internal Energy     =  -1.84 kcal/mol
DOCKED: USER    (3) Torsional Free Energy           =  +1.79 kcal/mol
DOCKED: USER    (4) Unbound System's Energy         =  -1.84 kcal/mol
DOCKED: USER
DOCKED: USER
DOCKED: REMARK SMILES C[C@H](CCNC(=S)c1ccc2[nH]ccc2c1)Cc1ccccc1
DOCKED: REMARK SMILES IDX 3 1 2 2 1 3 17 4 18 5 19 6 23 7 20 8 22 9 21 10 4 11 5 12
DOCKED: REMARK SMILES IDX 6 13 7 15 8 16 9 17 16 18 10 19 15 20 11 21 14 22 12 23
DOCKED: REMARK SMILES IDX 13 24
DOCKED: REMARK H PARENT 5 14 12 25
DOCKED: USER                              x       y       z     vdW  Elec       q    Type
DOCKED: USER                           _______ _______ _______ _____ _____    ______ ____
DOCKED: ROOT
DOCKED: ATOM      1  C   UNL     1     138.039  77.414 222.833 -0.22 -0.00    +0.025 C  
DOCKED: ENDROOT
DOCKED: BRANCH   1   2
DOCKED: ATOM      2  C   UNL     1     138.175  78.882 222.356 -0.23 +0.00    -0.008 C  
DOCKED: ATOM      3  C   UNL     1     136.818  79.437 221.897 -0.11 -0.00    +0.008 C  
DOCKED: BRANCH   2   4
DOCKED: ATOM      4  C   UNL     1     138.753  79.777 223.478 -0.36 -0.01    +0.039 C  
DOCKED: BRANCH   4   5
DOCKED: ATOM      5  C   UNL     1     140.248  79.956 223.346 -0.42 +0.01    -0.048 A  
DOCKED: ATOM      6  C   UNL     1     141.104  78.861 223.560 -0.54 -0.00    +0.004 A  
DOCKED: ATOM      7  C   UNL     1     140.801  81.207 223.020 -0.44 -0.00    +0.004 A  
DOCKED: ATOM      8  C   UNL     1     142.490  79.017 223.455 -0.46 -0.00    +0.000 A  
DOCKED: ATOM      9  C   UNL     1     142.188  81.356 222.906 -0.51 -0.00    +0.000 A  
DOCKED: ATOM     10  C   UNL     1     143.032  80.262 223.127 -0.66 -0.00    +0.000 A  
DOCKED: ENDBRANCH   4   5
DOCKED: ENDBRANCH   2   4
DOCKED: ENDBRANCH   1   2
DOCKED: BRANCH   1  11
DOCKED: ATOM     11  C   UNL     1     138.374  76.383 221.740 -0.21 -0.02    +0.114 C  
DOCKED: BRANCH  11  12
DOCKED: ATOM     12  N   UNL     1     139.429  75.463 222.176 -0.16 +0.07    -0.376 N  
DOCKED: ATOM     13  C   UNL     1     140.610  75.185 221.402 -0.28 -0.02    +0.106 C  
DOCKED: ATOM     14  H   UNL     1     139.246  74.889 223.034 -0.50 -0.04    +0.161 HD 
DOCKED: ATOM     15  S   UNL     1     141.342  73.724 221.567 -0.23 +0.01    -0.060 S  
DOCKED: BRANCH  13  16
DOCKED: ATOM     16  C   UNL     1     141.186  76.189 220.480 -0.25 -0.00    +0.010 A  
DOCKED: ATOM     17  C   UNL     1     142.091  75.784 219.463 -0.24 -0.01    +0.013 A  
DOCKED: ATOM     18  C   UNL     1     140.865  77.561 220.625 -0.24 -0.01    +0.021 A  
DOCKED: ATOM     19  C   UNL     1     142.713  76.734 218.636 -0.31 -0.02    +0.027 A  
DOCKED: ATOM     20  C   UNL     1     141.502  78.478 219.789 -0.26 -0.00    +0.000 A  
DOCKED: ATOM     21  C   UNL     1     142.397  78.083 218.832 -0.28 -0.03    +0.045 A  
DOCKED: ATOM     22  C   UNL     1     141.468  79.858 219.777 -0.26 -0.01    +0.028 A  
DOCKED: ATOM     23  N   UNL     1     142.934  79.147 218.211 -0.16 +0.37    -0.361 N  
DOCKED: ATOM     24  C   UNL     1     142.371  80.234 218.788 -0.27 -0.06    +0.083 A  
DOCKED: ATOM     25  H   UNL     1     143.662  79.141 217.463 -0.52 -0.30    +0.166 HD 
DOCKED: ENDBRANCH  13  16
DOCKED: ENDBRANCH  11  12
DOCKED: ENDBRANCH   1  11
DOCKED: TORSDOF 6
DOCKED: TER
DOCKED: ENDMDL
________________________________________________________________________________


    FINAL DOCKED STATE:
    ________________________


Run:   11 / 20
Time taken for this run:   0.034s

DOCKED: MODEL        11
DOCKED: USER    Run = 11
DOCKED: USER
DOCKED: USER    Estimated Free Energy of Binding    =  -6.37 kcal/mol  [=(1)+(2)+(3)-(4)]
DOCKED: USER
DOCKED: USER    (1) Final Intermolecular Energy     =  -8.16 kcal/mol
DOCKED: USER        vdW + Hbond + desolv Energy     =  -8.07 kcal/mol
DOCKED: USER        Electrostatic Energy            =  -0.09 kcal/mol
DOCKED: USER        Moving Ligand-Fixed Receptor    =  -8.16 kcal/mol
DOCKED: USER        Moving Ligand-Moving Receptor   =  +0.00 kcal/mol
DOCKED: USER    (2) Final Total Internal Energy     =  -1.89 kcal/mol
DOCKED: USER    (3) Torsional Free Energy           =  +1.79 kcal/mol
DOCKED: USER    (4) Unbound System's Energy         =  -1.89 kcal/mol
DOCKED: USER
DOCKED: USER
DOCKED: REMARK SMILES C[C@H](CCNC(=S)c1ccc2[nH]ccc2c1)Cc1ccccc1
DOCKED: REMARK SMILES IDX 3 1 2 2 1 3 17 4 18 5 19 6 23 7 20 8 22 9 21 10 4 11 5 12
DOCKED: REMARK SMILES IDX 6 13 7 15 8 16 9 17 16 18 10 19 15 20 11 21 14 22 12 23
DOCKED: REMARK SMILES IDX 13 24
DOCKED: REMARK H PARENT 5 14 12 25
DOCKED: USER                              x       y       z     vdW  Elec       q    Type
DOCKED: USER                           _______ _______ _______ _____ _____    ______ ____
DOCKED: ROOT
DOCKED: ATOM      1  C   UNL     1     137.896  77.534 222.800 -0.22 -0.00    +0.025 C  
DOCKED: ENDROOT
DOCKED: BRANCH   1   2
DOCKED: ATOM      2  C   UNL     1     138.196  79.012 222.440 -0.23 +0.00    -0.008 C  
DOCKED: ATOM      3  C   UNL     1     136.919  79.734 221.981 -0.12 -0.00    +0.008 C  
DOCKED: BRANCH   2   4
DOCKED: ATOM      4  C   UNL     1     138.816  79.760 223.643 -0.37 -0.01    +0.039 C  
DOCKED: BRANCH   4   5
DOCKED: ATOM      5  C   UNL     1     140.304  79.963 223.478 -0.43 +0.01    -0.048 A  
DOCKED: ATOM      6  C   UNL     1     140.806  81.244 223.186 -0.44 -0.00    +0.004 A  
DOCKED: ATOM      7  C   UNL     1     141.200  78.887 223.604 -0.55 -0.00    +0.004 A  
DOCKED: ATOM      8  C   UNL     1     142.180  81.443 223.017 -0.50 -0.00    +0.000 A  
DOCKED: ATOM      9  C   UNL     1     142.576  79.092 223.444 -0.46 -0.00    +0.000 A  
DOCKED: ATOM     10  C   UNL     1     143.064  80.369 223.147 -0.66 -0.00    +0.000 A  
DOCKED: ENDBRANCH   4   5
DOCKED: ENDBRANCH   2   4
DOCKED: ENDBRANCH   1   2
DOCKED: BRANCH   1  11
DOCKED: ATOM     11  C   UNL     1     138.304  76.541 221.698 -0.19 -0.02    +0.114 C  
DOCKED: BRANCH  11  12
DOCKED: ATOM     12  N   UNL     1     139.373  75.647 222.150 -0.16 +0.07    -0.376 N  
DOCKED: ATOM     13  C   UNL     1     140.572  75.396 221.394 -0.29 -0.02    +0.106 C  
DOCKED: ATOM     14  H   UNL     1     139.192  75.071 223.007 -0.44 -0.04    +0.161 HD 
DOCKED: ATOM     15  S   UNL     1     141.336  73.953 221.573 -0.22 +0.01    -0.060 S  
DOCKED: BRANCH  13  16
DOCKED: ATOM     16  C   UNL     1     141.137  76.412 220.479 -0.25 -0.00    +0.010 A  
DOCKED: ATOM     17  C   UNL     1     142.015  76.018 219.434 -0.24 -0.01    +0.013 A  
DOCKED: ATOM     18  C   UNL     1     140.833  77.784 220.657 -0.24 -0.01    +0.021 A  
DOCKED: ATOM     19  C   UNL     1     142.627  76.978 218.611 -0.31 -0.02    +0.027 A  
DOCKED: ATOM     20  C   UNL     1     141.460  78.711 219.824 -0.26 -0.00    +0.000 A  
DOCKED: ATOM     21  C   UNL     1     142.330  78.326 218.839 -0.27 -0.03    +0.045 A  
DOCKED: ATOM     22  C   UNL     1     141.440  80.091 219.839 -0.27 -0.01    +0.028 A  
DOCKED: ATOM     23  N   UNL     1     142.863  79.396 218.227 -0.16 +0.36    -0.361 N  
DOCKED: ATOM     24  C   UNL     1     142.324  80.478 218.837 -0.27 -0.05    +0.083 A  
DOCKED: ATOM     25  H   UNL     1     143.574  79.398 217.463 -0.53 -0.30    +0.166 HD 
DOCKED: ENDBRANCH  13  16
DOCKED: ENDBRANCH  11  12
DOCKED: ENDBRANCH   1  11
DOCKED: TORSDOF 6
DOCKED: TER
DOCKED: ENDMDL
________________________________________________________________________________


    FINAL DOCKED STATE:
    ________________________


Run:   12 / 20
Time taken for this run:   0.034s

DOCKED: MODEL        12
DOCKED: USER    Run = 12
DOCKED: USER
DOCKED: USER    Estimated Free Energy of Binding    =  -7.10 kcal/mol  [=(1)+(2)+(3)-(4)]
DOCKED: USER
DOCKED: USER    (1) Final Intermolecular Energy     =  -8.89 kcal/mol
DOCKED: USER        vdW + Hbond + desolv Energy     =  -8.86 kcal/mol
DOCKED: USER        Electrostatic Energy            =  -0.03 kcal/mol
DOCKED: USER        Moving Ligand-Fixed Receptor    =  -8.89 kcal/mol
DOCKED: USER        Moving Ligand-Moving Receptor   =  +0.00 kcal/mol
DOCKED: USER    (2) Final Total Internal Energy     =  -0.84 kcal/mol
DOCKED: USER    (3) Torsional Free Energy           =  +1.79 kcal/mol
DOCKED: USER    (4) Unbound System's Energy         =  -0.84 kcal/mol
DOCKED: USER
DOCKED: USER
DOCKED: REMARK SMILES C[C@H](CCNC(=S)c1ccc2[nH]ccc2c1)Cc1ccccc1
DOCKED: REMARK SMILES IDX 3 1 2 2 1 3 17 4 18 5 19 6 23 7 20 8 22 9 21 10 4 11 5 12
DOCKED: REMARK SMILES IDX 6 13 7 15 8 16 9 17 16 18 10 19 15 20 11 21 14 22 12 23
DOCKED: REMARK SMILES IDX 13 24
DOCKED: REMARK H PARENT 5 14 12 25
DOCKED: USER                              x       y       z     vdW  Elec       q    Type
DOCKED: USER                           _______ _______ _______ _____ _____    ______ ____
DOCKED: ROOT
DOCKED: ATOM      1  C   UNL     1     140.743  71.597 221.268 -0.20 -0.00    +0.025 C  
DOCKED: ENDROOT
DOCKED: BRANCH   1   2
DOCKED: ATOM      2  C   UNL     1     140.756  72.875 220.391 -0.16 +0.00    -0.008 C  
DOCKED: ATOM      3  C   UNL     1     140.891  74.135 221.261 -0.29 -0.00    +0.008 C  
DOCKED: BRANCH   2   4
DOCKED: ATOM      4  C   UNL     1     141.908  72.826 219.360 -0.10 -0.01    +0.039 C  
DOCKED: BRANCH   4   5
DOCKED: ATOM      5  C   UNL     1     143.232  73.223 219.970 -0.25 +0.01    -0.048 A  
DOCKED: ATOM      6  C   UNL     1     143.646  74.566 219.930 -0.39 -0.00    +0.004 A  
DOCKED: ATOM      7  C   UNL     1     144.066  72.265 220.574 -0.36 -0.00    +0.004 A  
DOCKED: ATOM      8  C   UNL     1     144.876  74.944 220.478 -0.30 -0.00    +0.000 A  
DOCKED: ATOM      9  C   UNL     1     145.292  72.650 221.131 -0.45 -0.00    +0.000 A  
DOCKED: ATOM     10  C   UNL     1     145.697  73.987 221.080 -0.61 -0.00    +0.000 A  
DOCKED: ENDBRANCH   4   5
DOCKED: ENDBRANCH   2   4
DOCKED: ENDBRANCH   1   2
DOCKED: BRANCH   1  11
DOCKED: ATOM     11  C   UNL     1     140.662  71.891 222.776 -0.27 -0.01    +0.114 C  
DOCKED: BRANCH  11  12
DOCKED: ATOM     12  N   UNL     1     139.278  72.114 223.206 -0.04 +0.11    -0.376 N  
DOCKED: ATOM     13  C   UNL     1     138.524  71.162 223.979 -0.23 -0.03    +0.106 C  
DOCKED: ATOM     14  H   UNL     1     138.781  72.952 222.822 -0.36 -0.07    +0.161 HD 
DOCKED: ATOM     15  S   UNL     1     136.889  71.131 223.824 -0.25 +0.01    -0.060 S  
DOCKED: BRANCH  13  16
DOCKED: ATOM     16  C   UNL     1     139.186  70.230 224.919 -0.39 -0.00    +0.010 A  
DOCKED: ATOM     17  C   UNL     1     139.073  68.828 224.726 -0.38 -0.00    +0.013 A  
DOCKED: ATOM     18  C   UNL     1     139.906  70.728 226.032 -0.48 -0.00    +0.021 A  
DOCKED: ATOM     19  C   UNL     1     139.622  67.929 225.656 -0.53 -0.00    +0.027 A  
DOCKED: ATOM     20  C   UNL     1     140.437  69.809 226.937 -0.57 -0.00    +0.000 A  
DOCKED: ATOM     21  C   UNL     1     140.297  68.458 226.761 -0.60 -0.01    +0.045 A  
DOCKED: ATOM     22  C   UNL     1     141.078  70.003 228.144 -0.56 -0.01    +0.028 A  
DOCKED: ATOM     23  N   UNL     1     140.820  67.785 227.799 -0.25 +0.11    -0.361 N  
DOCKED: ATOM     24  C   UNL     1     141.296  68.725 228.649 -0.49 -0.02    +0.083 A  
DOCKED: ATOM     25  H   UNL     1     140.828  66.750 227.943 -0.36 -0.11    +0.166 HD 
DOCKED: ENDBRANCH  13  16
DOCKED: ENDBRANCH  11  12
DOCKED: ENDBRANCH   1  11
DOCKED: TORSDOF 6
DOCKED: TER
DOCKED: ENDMDL
________________________________________________________________________________


    FINAL DOCKED STATE:
    ________________________


Run:   13 / 20
Time taken for this run:   0.034s

DOCKED: MODEL        13
DOCKED: USER    Run = 13
DOCKED: USER
DOCKED: USER    Estimated Free Energy of Binding    =  -7.49 kcal/mol  [=(1)+(2)+(3)-(4)]
DOCKED: USER
DOCKED: USER    (1) Final Intermolecular Energy     =  -9.28 kcal/mol
DOCKED: USER        vdW + Hbond + desolv Energy     =  -9.26 kcal/mol
DOCKED: USER        Electrostatic Energy            =  -0.02 kcal/mol
DOCKED: USER        Moving Ligand-Fixed Receptor    =  -9.28 kcal/mol
DOCKED: USER        Moving Ligand-Moving Receptor   =  +0.00 kcal/mol
DOCKED: USER    (2) Final Total Internal Energy     =  -0.79 kcal/mol
DOCKED: USER    (3) Torsional Free Energy           =  +1.79 kcal/mol
DOCKED: USER    (4) Unbound System's Energy         =  -0.79 kcal/mol
DOCKED: USER
DOCKED: USER
DOCKED: REMARK SMILES C[C@H](CCNC(=S)c1ccc2[nH]ccc2c1)Cc1ccccc1
DOCKED: REMARK SMILES IDX 3 1 2 2 1 3 17 4 18 5 19 6 23 7 20 8 22 9 21 10 4 11 5 12
DOCKED: REMARK SMILES IDX 6 13 7 15 8 16 9 17 16 18 10 19 15 20 11 21 14 22 12 23
DOCKED: REMARK SMILES IDX 13 24
DOCKED: REMARK H PARENT 5 14 12 25
DOCKED: USER                              x       y       z     vdW  Elec       q    Type
DOCKED: USER                           _______ _______ _______ _____ _____    ______ ____
DOCKED: ROOT
DOCKED: ATOM      1  C   UNL     1     138.781  71.053 222.761 -0.23 -0.01    +0.025 C  
DOCKED: ENDROOT
DOCKED: BRANCH   1   2
DOCKED: ATOM      2  C   UNL     1     138.560  70.288 224.091 -0.32 +0.00    -0.008 C  
DOCKED: ATOM      3  C   UNL     1     137.541  69.153 223.908 -0.26 -0.00    +0.008 C  
DOCKED: BRANCH   2   4
DOCKED: ATOM      4  C   UNL     1     139.892  69.714 224.626 -0.34 -0.01    +0.039 C  
DOCKED: BRANCH   4   5
DOCKED: ATOM      5  C   UNL     1     140.327  70.390 225.906 -0.50 +0.01    -0.048 A  
DOCKED: ATOM      6  C   UNL     1     139.973  69.830 227.147 -0.57 -0.00    +0.004 A  
DOCKED: ATOM      7  C   UNL     1     141.077  71.579 225.879 -0.63 -0.00    +0.004 A  
DOCKED: ATOM      8  C   UNL     1     140.357  70.453 228.339 -0.59 -0.00    +0.000 A  
DOCKED: ATOM      9  C   UNL     1     141.467  72.194 227.074 -0.77 -0.00    +0.000 A  
DOCKED: ATOM     10  C   UNL     1     141.104  71.633 228.303 -0.77 -0.00    +0.000 A  
DOCKED: ENDBRANCH   4   5
DOCKED: ENDBRANCH   2   4
DOCKED: ENDBRANCH   1   2
DOCKED: BRANCH   1  11
DOCKED: ATOM     11  C   UNL     1     139.796  72.203 222.877 -0.25 -0.02    +0.114 C  
DOCKED: BRANCH  11  12
DOCKED: ATOM     12  N   UNL     1     139.483  73.291 221.947 -0.13 +0.07    -0.376 N  
DOCKED: ATOM     13  C   UNL     1     140.485  74.104 221.309 -0.25 -0.02    +0.106 C  
DOCKED: ATOM     14  H   UNL     1     138.477  73.566 221.844 -0.02 -0.04    +0.161 HD 
DOCKED: ATOM     15  S   UNL     1     140.107  75.646 220.888 -0.28 +0.02    -0.060 S  
DOCKED: BRANCH  13  16
DOCKED: ATOM     16  C   UNL     1     141.835  73.576 221.009 -0.26 -0.00    +0.010 A  
DOCKED: ATOM     17  C   UNL     1     142.045  72.174 220.921 -0.23 -0.00    +0.013 A  
DOCKED: ATOM     18  C   UNL     1     142.927  74.460 220.839 -0.26 -0.01    +0.021 A  
DOCKED: ATOM     19  C   UNL     1     143.335  71.654 220.722 -0.27 -0.00    +0.027 A  
DOCKED: ATOM     20  C   UNL     1     144.195  73.910 220.645 -0.44 -0.00    +0.000 A  
DOCKED: ATOM     21  C   UNL     1     144.396  72.557 220.594 -0.38 -0.01    +0.045 A  
DOCKED: ATOM     22  C   UNL     1     145.434  74.514 220.562 -0.40 -0.01    +0.028 A  
DOCKED: ATOM     23  N   UNL     1     145.704  72.272 220.480 -0.15 -0.02    -0.361 N  
DOCKED: ATOM     24  C   UNL     1     146.343  73.465 220.463 -0.56 +0.01    +0.083 A  
DOCKED: ATOM     25  H   UNL     1     146.144  71.326 220.448 -0.40 +0.02    +0.166 HD 
DOCKED: ENDBRANCH  13  16
DOCKED: ENDBRANCH  11  12
DOCKED: ENDBRANCH   1  11
DOCKED: TORSDOF 6
DOCKED: TER
DOCKED: ENDMDL
________________________________________________________________________________


    FINAL DOCKED STATE:
    ________________________


Run:   14 / 20
Time taken for this run:   0.034s

DOCKED: MODEL        14
DOCKED: USER    Run = 14
DOCKED: USER
DOCKED: USER    Estimated Free Energy of Binding    =  -6.37 kcal/mol  [=(1)+(2)+(3)-(4)]
DOCKED: USER
DOCKED: USER    (1) Final Intermolecular Energy     =  -8.16 kcal/mol
DOCKED: USER        vdW + Hbond + desolv Energy     =  -8.07 kcal/mol
DOCKED: USER        Electrostatic Energy            =  -0.08 kcal/mol
DOCKED: USER        Moving Ligand-Fixed Receptor    =  -8.16 kcal/mol
DOCKED: USER        Moving Ligand-Moving Receptor   =  +0.00 kcal/mol
DOCKED: USER    (2) Final Total Internal Energy     =  -1.90 kcal/mol
DOCKED: USER    (3) Torsional Free Energy           =  +1.79 kcal/mol
DOCKED: USER    (4) Unbound System's Energy         =  -1.90 kcal/mol
DOCKED: USER
DOCKED: USER
DOCKED: REMARK SMILES C[C@H](CCNC(=S)c1ccc2[nH]ccc2c1)Cc1ccccc1
DOCKED: REMARK SMILES IDX 3 1 2 2 1 3 17 4 18 5 19 6 23 7 20 8 22 9 21 10 4 11 5 12
DOCKED: REMARK SMILES IDX 6 13 7 15 8 16 9 17 16 18 10 19 15 20 11 21 14 22 12 23
DOCKED: REMARK SMILES IDX 13 24
DOCKED: REMARK H PARENT 5 14 12 25
DOCKED: USER                              x       y       z     vdW  Elec       q    Type
DOCKED: USER                           _______ _______ _______ _____ _____    ______ ____
DOCKED: ROOT
DOCKED: ATOM      1  C   UNL     1     137.840  77.356 222.734 -0.25 -0.00    +0.025 C  
DOCKED: ENDROOT
DOCKED: BRANCH   1   2
DOCKED: ATOM      2  C   UNL     1     138.205  78.823 222.390 -0.23 +0.00    -0.008 C  
DOCKED: ATOM      3  C   UNL     1     136.980  79.582 221.856 -0.11 -0.00    +0.008 C  
DOCKED: BRANCH   2   4
DOCKED: ATOM      4  C   UNL     1     138.775  79.556 223.627 -0.33 -0.01    +0.039 C  
DOCKED: BRANCH   4   5
DOCKED: ATOM      5  C   UNL     1     140.245  79.871 223.471 -0.43 +0.01    -0.048 A  
DOCKED: ATOM      6  C   UNL     1     140.653  81.190 223.208 -0.42 -0.00    +0.004 A  
DOCKED: ATOM      7  C   UNL     1     141.217  78.860 223.578 -0.55 -0.00    +0.004 A  
DOCKED: ATOM      8  C   UNL     1     142.009  81.492 223.048 -0.51 -0.00    +0.000 A  
DOCKED: ATOM      9  C   UNL     1     142.574  79.168 223.427 -0.49 -0.00    +0.000 A  
DOCKED: ATOM     10  C   UNL     1     142.969  80.483 223.159 -0.66 -0.00    +0.000 A  
DOCKED: ENDBRANCH   4   5
DOCKED: ENDBRANCH   2   4
DOCKED: ENDBRANCH   1   2
DOCKED: BRANCH   1  11
DOCKED: ATOM     11  C   UNL     1     138.261  76.351 221.648 -0.19 -0.02    +0.114 C  
DOCKED: BRANCH  11  12
DOCKED: ATOM     12  N   UNL     1     139.356  75.492 222.108 -0.16 +0.07    -0.376 N  
DOCKED: ATOM     13  C   UNL     1     140.570  75.286 221.364 -0.28 -0.02    +0.106 C  
DOCKED: ATOM     14  H   UNL     1     139.185  74.904 222.959 -0.46 -0.04    +0.161 HD 
DOCKED: ATOM     15  S   UNL     1     141.382  73.870 221.543 -0.22 +0.01    -0.060 S  
DOCKED: BRANCH  13  16
DOCKED: ATOM     16  C   UNL     1     141.111  76.327 220.461 -0.24 -0.00    +0.010 A  
DOCKED: ATOM     17  C   UNL     1     141.964  75.962 219.386 -0.23 -0.01    +0.013 A  
DOCKED: ATOM     18  C   UNL     1     140.807  77.692 220.680 -0.24 -0.01    +0.021 A  
DOCKED: ATOM     19  C   UNL     1     142.554  76.944 218.573 -0.29 -0.02    +0.027 A  
DOCKED: ATOM     20  C   UNL     1     141.410  78.642 219.856 -0.26 -0.00    +0.000 A  
DOCKED: ATOM     21  C   UNL     1     142.258  78.284 218.841 -0.28 -0.03    +0.045 A  
DOCKED: ATOM     22  C   UNL     1     141.387  80.021 219.905 -0.26 -0.01    +0.028 A  
DOCKED: ATOM     23  N   UNL     1     142.773  79.371 218.243 -0.16 +0.35    -0.361 N  
DOCKED: ATOM     24  C   UNL     1     142.246  80.436 218.892 -0.28 -0.05    +0.083 A  
DOCKED: ATOM     25  H   UNL     1     143.466  79.395 217.463 -0.51 -0.29    +0.166 HD 
DOCKED: ENDBRANCH  13  16
DOCKED: ENDBRANCH  11  12
DOCKED: ENDBRANCH   1  11
DOCKED: TORSDOF 6
DOCKED: TER
DOCKED: ENDMDL
________________________________________________________________________________


    FINAL DOCKED STATE:
    ________________________


Run:   15 / 20
Time taken for this run:   0.034s

DOCKED: MODEL        15
DOCKED: USER    Run = 15
DOCKED: USER
DOCKED: USER    Estimated Free Energy of Binding    =  -7.02 kcal/mol  [=(1)+(2)+(3)-(4)]
DOCKED: USER
DOCKED: USER    (1) Final Intermolecular Energy     =  -8.81 kcal/mol
DOCKED: USER        vdW + Hbond + desolv Energy     =  -8.79 kcal/mol
DOCKED: USER        Electrostatic Energy            =  -0.01 kcal/mol
DOCKED: USER        Moving Ligand-Fixed Receptor    =  -8.81 kcal/mol
DOCKED: USER        Moving Ligand-Moving Receptor   =  +0.00 kcal/mol
DOCKED: USER    (2) Final Total Internal Energy     =  -0.77 kcal/mol
DOCKED: USER    (3) Torsional Free Energy           =  +1.79 kcal/mol
DOCKED: USER    (4) Unbound System's Energy         =  -0.77 kcal/mol
DOCKED: USER
DOCKED: USER
DOCKED: REMARK SMILES C[C@H](CCNC(=S)c1ccc2[nH]ccc2c1)Cc1ccccc1
DOCKED: REMARK SMILES IDX 3 1 2 2 1 3 17 4 18 5 19 6 23 7 20 8 22 9 21 10 4 11 5 12
DOCKED: REMARK SMILES IDX 6 13 7 15 8 16 9 17 16 18 10 19 15 20 11 21 14 22 12 23
DOCKED: REMARK SMILES IDX 13 24
DOCKED: REMARK H PARENT 5 14 12 25
DOCKED: USER                              x       y       z     vdW  Elec       q    Type
DOCKED: USER                           _______ _______ _______ _____ _____    ______ ____
DOCKED: ROOT
DOCKED: ATOM      1  C   UNL     1     141.070  72.825 222.192 -0.12 -0.00    +0.025 C  
DOCKED: ENDROOT
DOCKED: BRANCH   1   2
DOCKED: ATOM      2  C   UNL     1     140.882  73.626 220.879 -0.24 +0.00    -0.008 C  
DOCKED: ATOM      3  C   UNL     1     139.584  74.447 220.919 -0.20 -0.00    +0.008 C  
DOCKED: BRANCH   2   4
DOCKED: ATOM      4  C   UNL     1     142.086  74.564 220.626 -0.27 -0.01    +0.039 C  
DOCKED: BRANCH   4   5
DOCKED: ATOM      5  C   UNL     1     143.375  73.795 220.447 -0.33 +0.01    -0.048 A  
DOCKED: ATOM      6  C   UNL     1     144.608  74.454 220.597 -0.44 -0.00    +0.004 A  
DOCKED: ATOM      7  C   UNL     1     143.363  72.426 220.124 -0.27 -0.00    +0.004 A  
DOCKED: ATOM      8  C   UNL     1     145.808  73.757 220.421 -0.63 -0.00    +0.000 A  
DOCKED: ATOM      9  C   UNL     1     144.566  71.731 219.958 -0.31 -0.00    +0.000 A  
DOCKED: ATOM     10  C   UNL     1     145.788  72.397 220.103 -0.46 +0.00    +0.000 A  
DOCKED: ENDBRANCH   4   5
DOCKED: ENDBRANCH   2   4
DOCKED: ENDBRANCH   1   2
DOCKED: BRANCH   1  11
DOCKED: ATOM     11  C   UNL     1     140.139  71.605 222.303 -0.25 -0.02    +0.114 C  
DOCKED: BRANCH  11  12
DOCKED: ATOM     12  N   UNL     1     138.860  71.962 222.924 -0.09 +0.11    -0.376 N  
DOCKED: ATOM     13  C   UNL     1     138.172  71.118 223.866 -0.23 -0.03    +0.106 C  
DOCKED: ATOM     14  H   UNL     1     138.369  72.815 222.565 -0.20 -0.06    +0.161 HD 
DOCKED: ATOM     15  S   UNL     1     136.535  71.210 223.966 -0.22 +0.01    -0.060 S  
DOCKED: BRANCH  13  16
DOCKED: ATOM     16  C   UNL     1     138.906  70.189 224.754 -0.36 -0.00    +0.010 A  
DOCKED: ATOM     17  C   UNL     1     138.843  68.789 224.525 -0.36 -0.00    +0.013 A  
DOCKED: ATOM     18  C   UNL     1     139.648  70.686 225.853 -0.39 -0.00    +0.021 A  
DOCKED: ATOM     19  C   UNL     1     139.463  67.889 225.408 -0.48 -0.00    +0.027 A  
DOCKED: ATOM     20  C   UNL     1     140.250  69.766 226.712 -0.55 -0.00    +0.000 A  
DOCKED: ATOM     21  C   UNL     1     140.158  68.416 226.502 -0.58 -0.01    +0.045 A  
DOCKED: ATOM     22  C   UNL     1     140.928  69.954 227.899 -0.59 -0.01    +0.028 A  
DOCKED: ATOM     23  N   UNL     1     140.747  67.737 227.501 -0.27 +0.11    -0.361 N  
DOCKED: ATOM     24  C   UNL     1     141.216  68.673 228.359 -0.52 -0.02    +0.083 A  
DOCKED: ATOM     25  H   UNL     1     140.802  66.700 227.615 -0.42 -0.09    +0.166 HD 
DOCKED: ENDBRANCH  13  16
DOCKED: ENDBRANCH  11  12
DOCKED: ENDBRANCH   1  11
DOCKED: TORSDOF 6
DOCKED: TER
DOCKED: ENDMDL
________________________________________________________________________________


    FINAL DOCKED STATE:
    ________________________


Run:   16 / 20
Time taken for this run:   0.034s

DOCKED: MODEL        16
DOCKED: USER    Run = 16
DOCKED: USER
DOCKED: USER    Estimated Free Energy of Binding    =  -7.42 kcal/mol  [=(1)+(2)+(3)-(4)]
DOCKED: USER
DOCKED: USER    (1) Final Intermolecular Energy     =  -9.21 kcal/mol
DOCKED: USER        vdW + Hbond + desolv Energy     =  -9.19 kcal/mol
DOCKED: USER        Electrostatic Energy            =  -0.01 kcal/mol
DOCKED: USER        Moving Ligand-Fixed Receptor    =  -9.21 kcal/mol
DOCKED: USER        Moving Ligand-Moving Receptor   =  +0.00 kcal/mol
DOCKED: USER    (2) Final Total Internal Energy     =  -0.61 kcal/mol
DOCKED: USER    (3) Torsional Free Energy           =  +1.79 kcal/mol
DOCKED: USER    (4) Unbound System's Energy         =  -0.61 kcal/mol
DOCKED: USER
DOCKED: USER
DOCKED: REMARK SMILES C[C@H](CCNC(=S)c1ccc2[nH]ccc2c1)Cc1ccccc1
DOCKED: REMARK SMILES IDX 3 1 2 2 1 3 17 4 18 5 19 6 23 7 20 8 22 9 21 10 4 11 5 12
DOCKED: REMARK SMILES IDX 6 13 7 15 8 16 9 17 16 18 10 19 15 20 11 21 14 22 12 23
DOCKED: REMARK SMILES IDX 13 24
DOCKED: REMARK H PARENT 5 14 12 25
DOCKED: USER                              x       y       z     vdW  Elec       q    Type
DOCKED: USER                           _______ _______ _______ _____ _____    ______ ____
DOCKED: ROOT
DOCKED: ATOM      1  C   UNL     1     139.011  71.441 223.516 -0.28 -0.01    +0.025 C  
DOCKED: ENDROOT
DOCKED: BRANCH   1   2
DOCKED: ATOM      2  C   UNL     1     138.741  69.990 223.989 -0.31 +0.00    -0.008 C  
DOCKED: ATOM      3  C   UNL     1     138.427  69.074 222.795 -0.22 -0.00    +0.008 C  
DOCKED: BRANCH   2   4
DOCKED: ATOM      4  C   UNL     1     139.949  69.429 224.774 -0.31 -0.01    +0.039 C  
DOCKED: BRANCH   4   5
DOCKED: ATOM      5  C   UNL     1     140.292  70.283 225.972 -0.50 +0.01    -0.048 A  
DOCKED: ATOM      6  C   UNL     1     139.741  69.977 227.230 -0.54 -0.00    +0.004 A  
DOCKED: ATOM      7  C   UNL     1     141.151  71.390 225.851 -0.63 -0.00    +0.004 A  
DOCKED: ATOM      8  C   UNL     1     140.039  70.768 228.344 -0.63 -0.00    +0.000 A  
DOCKED: ATOM      9  C   UNL     1     141.454  72.174 226.970 -0.76 -0.00    +0.000 A  
DOCKED: ATOM     10  C   UNL     1     140.896  71.865 228.215 -0.80 -0.00    +0.000 A  
DOCKED: ENDBRANCH   4   5
DOCKED: ENDBRANCH   2   4
DOCKED: ENDBRANCH   1   2
DOCKED: BRANCH   1  11
DOCKED: ATOM     11  C   UNL     1     139.617  71.521 222.105 -0.21 -0.02    +0.114 C  
DOCKED: BRANCH  11  12
DOCKED: ATOM     12  N   UNL     1     139.386  72.834 221.495 -0.08 +0.07    -0.376 N  
DOCKED: ATOM     13  C   UNL     1     140.434  73.786 221.236 -0.23 -0.02    +0.106 C  
DOCKED: ATOM     14  H   UNL     1     138.391  73.136 221.361 +0.03 -0.04    +0.161 HD 
DOCKED: ATOM     15  S   UNL     1     140.070  75.387 221.234 -0.33 +0.01    -0.060 S  
DOCKED: BRANCH  13  16
DOCKED: ATOM     16  C   UNL     1     141.821  73.352 220.954 -0.26 -0.00    +0.010 A  
DOCKED: ATOM     17  C   UNL     1     142.131  71.969 220.879 -0.23 -0.00    +0.013 A  
DOCKED: ATOM     18  C   UNL     1     142.850  74.311 220.790 -0.27 -0.01    +0.021 A  
DOCKED: ATOM     19  C   UNL     1     143.457  71.540 220.698 -0.27 -0.00    +0.027 A  
DOCKED: ATOM     20  C   UNL     1     144.156  73.851 220.614 -0.44 -0.00    +0.000 A  
DOCKED: ATOM     21  C   UNL     1     144.452  72.515 220.574 -0.38 -0.01    +0.045 A  
DOCKED: ATOM     22  C   UNL     1     145.349  74.540 220.539 -0.39 -0.01    +0.028 A  
DOCKED: ATOM     23  N   UNL     1     145.778  72.322 220.477 -0.17 -0.03    -0.361 N  
DOCKED: ATOM     24  C   UNL     1     146.331  73.557 220.458 -0.57 +0.01    +0.083 A  
DOCKED: ATOM     25  H   UNL     1     146.285  71.410 220.456 -0.42 +0.03    +0.166 HD 
DOCKED: ENDBRANCH  13  16
DOCKED: ENDBRANCH  11  12
DOCKED: ENDBRANCH   1  11
DOCKED: TORSDOF 6
DOCKED: TER
DOCKED: ENDMDL
________________________________________________________________________________


    FINAL DOCKED STATE:
    ________________________


Run:   17 / 20
Time taken for this run:   0.034s

DOCKED: MODEL        17
DOCKED: USER    Run = 17
DOCKED: USER
DOCKED: USER    Estimated Free Energy of Binding    =  -7.31 kcal/mol  [=(1)+(2)+(3)-(4)]
DOCKED: USER
DOCKED: USER    (1) Final Intermolecular Energy     =  -9.10 kcal/mol
DOCKED: USER        vdW + Hbond + desolv Energy     =  -9.08 kcal/mol
DOCKED: USER        Electrostatic Energy            =  -0.02 kcal/mol
DOCKED: USER        Moving Ligand-Fixed Receptor    =  -9.10 kcal/mol
DOCKED: USER        Moving Ligand-Moving Receptor   =  +0.00 kcal/mol
DOCKED: USER    (2) Final Total Internal Energy     =  -0.78 kcal/mol
DOCKED: USER    (3) Torsional Free Energy           =  +1.79 kcal/mol
DOCKED: USER    (4) Unbound System's Energy         =  -0.78 kcal/mol
DOCKED: USER
DOCKED: USER
DOCKED: REMARK SMILES C[C@H](CCNC(=S)c1ccc2[nH]ccc2c1)Cc1ccccc1
DOCKED: REMARK SMILES IDX 3 1 2 2 1 3 17 4 18 5 19 6 23 7 20 8 22 9 21 10 4 11 5 12
DOCKED: REMARK SMILES IDX 6 13 7 15 8 16 9 17 16 18 10 19 15 20 11 21 14 22 12 23
DOCKED: REMARK SMILES IDX 13 24
DOCKED: REMARK H PARENT 5 14 12 25
DOCKED: USER                              x       y       z     vdW  Elec       q    Type
DOCKED: USER                           _______ _______ _______ _____ _____    ______ ____
DOCKED: ROOT
DOCKED: ATOM      1  C   UNL     1     140.951  72.616 221.220 -0.24 -0.00    +0.025 C  
DOCKED: ENDROOT
DOCKED: BRANCH   1   2
DOCKED: ATOM      2  C   UNL     1     141.529  74.052 221.310 -0.21 +0.00    -0.008 C  
DOCKED: ATOM      3  C   UNL     1     142.730  74.219 220.367 -0.31 -0.00    +0.008 C  
DOCKED: BRANCH   2   4
DOCKED: ATOM      4  C   UNL     1     140.448  75.105 220.972 -0.26 -0.01    +0.039 C  
DOCKED: BRANCH   4   5
DOCKED: ATOM      5  C   UNL     1     140.876  76.501 221.363 -0.31 +0.02    -0.048 A  
DOCKED: ATOM      6  C   UNL     1     141.393  77.372 220.387 -0.28 -0.00    +0.004 A  
DOCKED: ATOM      7  C   UNL     1     140.773  76.945 222.693 -0.38 -0.00    +0.004 A  
DOCKED: ATOM      8  C   UNL     1     141.806  78.662 220.738 -0.33 -0.00    +0.000 A  
DOCKED: ATOM      9  C   UNL     1     141.178  78.239 223.038 -0.52 -0.00    +0.000 A  
DOCKED: ATOM     10  C   UNL     1     141.697  79.096 222.061 -0.47 -0.00    +0.000 A  
DOCKED: ENDBRANCH   4   5
DOCKED: ENDBRANCH   2   4
DOCKED: ENDBRANCH   1   2
DOCKED: BRANCH   1  11
DOCKED: ATOM     11  C   UNL     1     140.685  71.977 222.594 -0.26 -0.01    +0.114 C  
DOCKED: BRANCH  11  12
DOCKED: ATOM     12  N   UNL     1     139.329  72.267 223.067 -0.08 +0.11    -0.376 N  
DOCKED: ATOM     13  C   UNL     1     138.543  71.343 223.841 -0.17 -0.03    +0.106 C  
DOCKED: ATOM     14  H   UNL     1     138.870  73.140 222.714 -0.39 -0.06    +0.161 HD 
DOCKED: ATOM     15  S   UNL     1     136.906  71.406 223.732 -0.24 +0.01    -0.060 S  
DOCKED: BRANCH  13  16
DOCKED: ATOM     16  C   UNL     1     139.176  70.354 224.743 -0.38 -0.00    +0.010 A  
DOCKED: ATOM     17  C   UNL     1     139.032  68.965 224.488 -0.35 -0.00    +0.013 A  
DOCKED: ATOM     18  C   UNL     1     139.901  70.786 225.881 -0.48 -0.00    +0.021 A  
DOCKED: ATOM     19  C   UNL     1     139.553  68.014 225.381 -0.48 -0.00    +0.027 A  
DOCKED: ATOM     20  C   UNL     1     140.403  69.815 226.748 -0.56 -0.00    +0.000 A  
DOCKED: ATOM     21  C   UNL     1     140.233  68.477 226.513 -0.58 -0.01    +0.045 A  
DOCKED: ATOM     22  C   UNL     1     141.040  69.941 227.966 -0.58 -0.01    +0.028 A  
DOCKED: ATOM     23  N   UNL     1     140.732  67.747 227.523 -0.27 +0.11    -0.361 N  
DOCKED: ATOM     24  C   UNL     1     141.224  68.637 228.416 -0.52 -0.02    +0.083 A  
DOCKED: ATOM     25  H   UNL     1     140.714  66.707 227.621 -0.43 -0.10    +0.166 HD 
DOCKED: ENDBRANCH  13  16
DOCKED: ENDBRANCH  11  12
DOCKED: ENDBRANCH   1  11
DOCKED: TORSDOF 6
DOCKED: TER
DOCKED: ENDMDL
________________________________________________________________________________


    FINAL DOCKED STATE:
    ________________________


Run:   18 / 20
Time taken for this run:   0.034s

DOCKED: MODEL        18
DOCKED: USER    Run = 18
DOCKED: USER
DOCKED: USER    Estimated Free Energy of Binding    =  -6.39 kcal/mol  [=(1)+(2)+(3)-(4)]
DOCKED: USER
DOCKED: USER    (1) Final Intermolecular Energy     =  -8.18 kcal/mol
DOCKED: USER        vdW + Hbond + desolv Energy     =  -8.09 kcal/mol
DOCKED: USER        Electrostatic Energy            =  -0.09 kcal/mol
DOCKED: USER        Moving Ligand-Fixed Receptor    =  -8.18 kcal/mol
DOCKED: USER        Moving Ligand-Moving Receptor   =  +0.00 kcal/mol
DOCKED: USER    (2) Final Total Internal Energy     =  -1.88 kcal/mol
DOCKED: USER    (3) Torsional Free Energy           =  +1.79 kcal/mol
DOCKED: USER    (4) Unbound System's Energy         =  -1.88 kcal/mol
DOCKED: USER
DOCKED: USER
DOCKED: REMARK SMILES C[C@H](CCNC(=S)c1ccc2[nH]ccc2c1)Cc1ccccc1
DOCKED: REMARK SMILES IDX 3 1 2 2 1 3 17 4 18 5 19 6 23 7 20 8 22 9 21 10 4 11 5 12
DOCKED: REMARK SMILES IDX 6 13 7 15 8 16 9 17 16 18 10 19 15 20 11 21 14 22 12 23
DOCKED: REMARK SMILES IDX 13 24
DOCKED: REMARK H PARENT 5 14 12 25
DOCKED: USER                              x       y       z     vdW  Elec       q    Type
DOCKED: USER                           _______ _______ _______ _____ _____    ______ ____
DOCKED: ROOT
DOCKED: ATOM      1  C   UNL     1     137.789  77.628 222.879 -0.17 -0.00    +0.025 C  
DOCKED: ENDROOT
DOCKED: BRANCH   1   2
DOCKED: ATOM      2  C   UNL     1     138.087  79.127 222.624 -0.24 +0.00    -0.008 C  
DOCKED: ATOM      3  C   UNL     1     136.789  79.907 222.364 -0.13 -0.00    +0.008 C  
DOCKED: BRANCH   2   4
DOCKED: ATOM      4  C   UNL     1     138.842  79.753 223.821 -0.38 -0.00    +0.039 C  
DOCKED: BRANCH   4   5
DOCKED: ATOM      5  C   UNL     1     140.312  79.943 223.526 -0.43 +0.01    -0.048 A  
DOCKED: ATOM      6  C   UNL     1     141.194  78.853 223.639 -0.54 -0.00    +0.004 A  
DOCKED: ATOM      7  C   UNL     1     140.818  81.199 223.148 -0.44 -0.00    +0.004 A  
DOCKED: ATOM      8  C   UNL     1     142.559  79.018 223.382 -0.45 -0.00    +0.000 A  
DOCKED: ATOM      9  C   UNL     1     142.183  81.358 222.883 -0.51 -0.00    +0.000 A  
DOCKED: ATOM     10  C   UNL     1     143.053  80.269 223.004 -0.65 -0.00    +0.000 A  
DOCKED: ENDBRANCH   4   5
DOCKED: ENDBRANCH   2   4
DOCKED: ENDBRANCH   1   2
DOCKED: BRANCH   1  11
DOCKED: ATOM     11  C   UNL     1     138.252  76.709 221.735 -0.19 -0.02    +0.114 C  
DOCKED: BRANCH  11  12
DOCKED: ATOM     12  N   UNL     1     139.291  75.777 222.182 -0.16 +0.08    -0.376 N  
DOCKED: ATOM     13  C   UNL     1     140.471  75.476 221.416 -0.29 -0.02    +0.106 C  
DOCKED: ATOM     14  H   UNL     1     139.095  75.211 223.042 -0.44 -0.04    +0.161 HD 
DOCKED: ATOM     15  S   UNL     1     141.182  74.006 221.594 -0.28 +0.01    -0.060 S  
DOCKED: BRANCH  13  16
DOCKED: ATOM     16  C   UNL     1     141.067  76.466 220.491 -0.24 -0.00    +0.010 A  
DOCKED: ATOM     17  C   UNL     1     141.978  76.043 219.487 -0.24 -0.01    +0.013 A  
DOCKED: ATOM     18  C   UNL     1     140.757  77.842 220.619 -0.23 -0.01    +0.021 A  
DOCKED: ATOM     19  C   UNL     1     142.618  76.979 218.657 -0.31 -0.02    +0.027 A  
DOCKED: ATOM     20  C   UNL     1     141.411  78.746 219.781 -0.26 -0.00    +0.000 A  
DOCKED: ATOM     21  C   UNL     1     142.313  78.333 218.837 -0.27 -0.03    +0.045 A  
DOCKED: ATOM     22  C   UNL     1     141.391  80.125 219.755 -0.26 -0.01    +0.028 A  
DOCKED: ATOM     23  N   UNL     1     142.866  79.385 218.212 -0.16 +0.36    -0.361 N  
DOCKED: ATOM     24  C   UNL     1     142.308  80.484 218.772 -0.28 -0.05    +0.083 A  
DOCKED: ATOM     25  H   UNL     1     143.602  79.366 217.472 -0.53 -0.30    +0.166 HD 
DOCKED: ENDBRANCH  13  16
DOCKED: ENDBRANCH  11  12
DOCKED: ENDBRANCH   1  11
DOCKED: TORSDOF 6
DOCKED: TER
DOCKED: ENDMDL
________________________________________________________________________________


    FINAL DOCKED STATE:
    ________________________


Run:   19 / 20
Time taken for this run:   0.034s

DOCKED: MODEL        19
DOCKED: USER    Run = 19
DOCKED: USER
DOCKED: USER    Estimated Free Energy of Binding    =  -5.58 kcal/mol  [=(1)+(2)+(3)-(4)]
DOCKED: USER
DOCKED: USER    (1) Final Intermolecular Energy     =  -7.37 kcal/mol
DOCKED: USER        vdW + Hbond + desolv Energy     =  -7.30 kcal/mol
DOCKED: USER        Electrostatic Energy            =  -0.07 kcal/mol
DOCKED: USER        Moving Ligand-Fixed Receptor    =  -7.37 kcal/mol
DOCKED: USER        Moving Ligand-Moving Receptor   =  +0.00 kcal/mol
DOCKED: USER    (2) Final Total Internal Energy     =  -2.17 kcal/mol
DOCKED: USER    (3) Torsional Free Energy           =  +1.79 kcal/mol
DOCKED: USER    (4) Unbound System's Energy         =  -2.17 kcal/mol
DOCKED: USER
DOCKED: USER
DOCKED: REMARK SMILES C[C@H](CCNC(=S)c1ccc2[nH]ccc2c1)Cc1ccccc1
DOCKED: REMARK SMILES IDX 3 1 2 2 1 3 17 4 18 5 19 6 23 7 20 8 22 9 21 10 4 11 5 12
DOCKED: REMARK SMILES IDX 6 13 7 15 8 16 9 17 16 18 10 19 15 20 11 21 14 22 12 23
DOCKED: REMARK SMILES IDX 13 24
DOCKED: REMARK H PARENT 5 14 12 25
DOCKED: USER                              x       y       z     vdW  Elec       q    Type
DOCKED: USER                           _______ _______ _______ _____ _____    ______ ____
DOCKED: ROOT
DOCKED: ATOM      1  C   UNL     1     137.986  80.386 221.708 -0.13 -0.00    +0.025 C  
DOCKED: ENDROOT
DOCKED: BRANCH   1   2
DOCKED: ATOM      2  C   UNL     1     138.076  81.342 222.924 -0.25 +0.00    -0.008 C  
DOCKED: ATOM      3  C   UNL     1     136.675  81.773 223.387 -0.18 -0.00    +0.008 C  
DOCKED: BRANCH   2   4
DOCKED: ATOM      4  C   UNL     1     138.831  80.675 224.097 -0.36 -0.00    +0.039 C  
DOCKED: BRANCH   4   5
DOCKED: ATOM      5  C   UNL     1     140.239  80.281 223.713 -0.40 +0.01    -0.048 A  
DOCKED: ATOM      6  C   UNL     1     140.541  78.931 223.458 -0.46 -0.00    +0.004 A  
DOCKED: ATOM      7  C   UNL     1     141.259  81.244 223.615 -0.49 -0.00    +0.004 A  
DOCKED: ATOM      8  C   UNL     1     141.843  78.551 223.115 -0.52 -0.00    +0.000 A  
DOCKED: ATOM      9  C   UNL     1     142.558  80.860 223.262 -0.64 -0.00    +0.000 A  
DOCKED: ATOM     10  C   UNL     1     142.850  79.514 223.016 -0.58 -0.00    +0.000 A  
DOCKED: ENDBRANCH   4   5
DOCKED: ENDBRANCH   2   4
DOCKED: ENDBRANCH   1   2
DOCKED: BRANCH   1  11
DOCKED: ATOM     11  C   UNL     1     137.939  81.119 220.356 -0.05 -0.02    +0.114 C  
DOCKED: BRANCH  11  12
DOCKED: ATOM     12  N   UNL     1     138.615  82.417 220.426 -0.02 +0.07    -0.376 N  
DOCKED: ATOM     13  C   UNL     1     140.046  82.568 220.435 -0.18 -0.02    +0.106 C  
DOCKED: ATOM     14  H   UNL     1     138.022  83.262 220.604 +0.02 -0.03    +0.161 HD 
DOCKED: ATOM     15  S   UNL     1     140.703  83.871 221.189 -0.27 +0.01    -0.060 S  
DOCKED: BRANCH  13  16
DOCKED: ATOM     16  C   UNL     1     140.932  81.590 219.765 -0.23 -0.00    +0.010 A  
DOCKED: ATOM     17  C   UNL     1     141.717  81.988 218.651 -0.24 -0.01    +0.013 A  
DOCKED: ATOM     18  C   UNL     1     140.980  80.246 220.210 -0.24 -0.01    +0.021 A  
DOCKED: ATOM     19  C   UNL     1     142.497  81.052 217.951 -0.33 -0.02    +0.027 A  
DOCKED: ATOM     20  C   UNL     1     141.763  79.342 219.492 -0.29 -0.00    +0.000 A  
DOCKED: ATOM     21  C   UNL     1     142.492  79.727 218.399 -0.31 -0.04    +0.045 A  
DOCKED: ATOM     22  C   UNL     1     141.911  77.976 219.626 -0.27 -0.02    +0.028 A  
DOCKED: ATOM     23  N   UNL     1     143.097  78.670 217.832 -0.10 +0.39    -0.361 N  
DOCKED: ATOM     24  C   UNL     1     142.742  77.597 218.576 -0.30 -0.06    +0.083 A  
DOCKED: ATOM     25  H   UNL     1     143.689  78.666 216.972 -0.48 -0.31    +0.166 HD 
DOCKED: ENDBRANCH  13  16
DOCKED: ENDBRANCH  11  12
DOCKED: ENDBRANCH   1  11
DOCKED: TORSDOF 6
DOCKED: TER
DOCKED: ENDMDL
________________________________________________________________________________


    FINAL DOCKED STATE:
    ________________________


Run:   20 / 20
Time taken for this run:   0.034s

DOCKED: MODEL        20
DOCKED: USER    Run = 20
DOCKED: USER
DOCKED: USER    Estimated Free Energy of Binding    =  -6.42 kcal/mol  [=(1)+(2)+(3)-(4)]
DOCKED: USER
DOCKED: USER    (1) Final Intermolecular Energy     =  -8.21 kcal/mol
DOCKED: USER        vdW + Hbond + desolv Energy     =  -8.12 kcal/mol
DOCKED: USER        Electrostatic Energy            =  -0.08 kcal/mol
DOCKED: USER        Moving Ligand-Fixed Receptor    =  -8.21 kcal/mol
DOCKED: USER        Moving Ligand-Moving Receptor   =  +0.00 kcal/mol
DOCKED: USER    (2) Final Total Internal Energy     =  -1.84 kcal/mol
DOCKED: USER    (3) Torsional Free Energy           =  +1.79 kcal/mol
DOCKED: USER    (4) Unbound System's Energy         =  -1.84 kcal/mol
DOCKED: USER
DOCKED: USER
DOCKED: REMARK SMILES C[C@H](CCNC(=S)c1ccc2[nH]ccc2c1)Cc1ccccc1
DOCKED: REMARK SMILES IDX 3 1 2 2 1 3 17 4 18 5 19 6 23 7 20 8 22 9 21 10 4 11 5 12
DOCKED: REMARK SMILES IDX 6 13 7 15 8 16 9 17 16 18 10 19 15 20 11 21 14 22 12 23
DOCKED: REMARK SMILES IDX 13 24
DOCKED: REMARK H PARENT 5 14 12 25
DOCKED: USER                              x       y       z     vdW  Elec       q    Type
DOCKED: USER                           _______ _______ _______ _____ _____    ______ ____
DOCKED: ROOT
DOCKED: ATOM      1  C   UNL     1     138.032  77.399 222.839 -0.21 -0.00    +0.025 C  
DOCKED: ENDROOT
DOCKED: BRANCH   1   2
DOCKED: ATOM      2  C   UNL     1     138.175  78.879 222.402 -0.23 +0.00    -0.008 C  
DOCKED: ATOM      3  C   UNL     1     136.818  79.454 221.967 -0.12 -0.00    +0.008 C  
DOCKED: BRANCH   2   4
DOCKED: ATOM      4  C   UNL     1     138.765  79.739 223.543 -0.36 -0.01    +0.039 C  
DOCKED: BRANCH   4   5
DOCKED: ATOM      5  C   UNL     1     140.253  79.949 223.383 -0.42 +0.01    -0.048 A  
DOCKED: ATOM      6  C   UNL     1     141.134  78.865 223.548 -0.54 -0.00    +0.004 A  
DOCKED: ATOM      7  C   UNL     1     140.777  81.218 223.077 -0.44 -0.00    +0.004 A  
DOCKED: ATOM      8  C   UNL     1     142.514  79.048 223.416 -0.47 -0.00    +0.000 A  
DOCKED: ATOM      9  C   UNL     1     142.158  81.395 222.936 -0.50 -0.00    +0.000 A  
DOCKED: ATOM     10  C   UNL     1     143.026  80.311 223.109 -0.66 -0.00    +0.000 A  
DOCKED: ENDBRANCH   4   5
DOCKED: ENDBRANCH   2   4
DOCKED: ENDBRANCH   1   2
DOCKED: BRANCH   1  11
DOCKED: ATOM     11  C   UNL     1     138.400  76.396 221.732 -0.21 -0.02    +0.114 C  
DOCKED: BRANCH  11  12
DOCKED: ATOM     12  N   UNL     1     139.460  75.481 222.167 -0.16 +0.07    -0.376 N  
DOCKED: ATOM     13  C   UNL     1     140.645  75.214 221.394 -0.29 -0.02    +0.106 C  
DOCKED: ATOM     14  H   UNL     1     139.279  74.903 223.022 -0.48 -0.03    +0.161 HD 
DOCKED: ATOM     15  S   UNL     1     141.386  73.758 221.556 -0.22 +0.01    -0.060 S  
DOCKED: BRANCH  13  16
DOCKED: ATOM     16  C   UNL     1     141.216  76.226 220.478 -0.26 -0.00    +0.010 A  
DOCKED: ATOM     17  C   UNL     1     142.116  75.829 219.453 -0.24 -0.01    +0.013 A  
DOCKED: ATOM     18  C   UNL     1     140.895  77.596 220.635 -0.24 -0.01    +0.021 A  
DOCKED: ATOM     19  C   UNL     1     142.734  76.785 218.630 -0.31 -0.02    +0.027 A  
DOCKED: ATOM     20  C   UNL     1     141.527  78.520 219.803 -0.27 -0.00    +0.000 A  
DOCKED: ATOM     21  C   UNL     1     142.419  78.132 218.838 -0.27 -0.03    +0.045 A  
DOCKED: ATOM     22  C   UNL     1     141.493  79.900 219.801 -0.27 -0.01    +0.028 A  
DOCKED: ATOM     23  N   UNL     1     142.952  79.201 218.223 -0.16 +0.37    -0.361 N  
DOCKED: ATOM     24  C   UNL     1     142.392  80.284 218.810 -0.26 -0.06    +0.083 A  
DOCKED: ATOM     25  H   UNL     1     143.677  79.202 217.471 -0.53 -0.30    +0.166 HD 
DOCKED: ENDBRANCH  13  16
DOCKED: ENDBRANCH  11  12
DOCKED: ENDBRANCH   1  11
DOCKED: TORSDOF 6
DOCKED: TER
DOCKED: ENDMDL
________________________________________________________________________________


    CLUSTERING HISTOGRAM
    ____________________


________________________________________________________________________________
     |           |     |           |     |
Clus | Lowest    | Run | Mean      | Num | Histogram
-ter | Binding   |     | Binding   | in  |
Rank | Energy    |     | Energy    | Clus|    5    10   15   20   25   30   35
_____|___________|_____|___________|_____|____:____|____:____|____:____|____:___
   1 |     -7.49 |  13 |     -7.45 |   3 |###
   2 |     -7.31 |  17 |     -7.31 |   1 |#
   3 |     -7.10 |  12 |     -7.06 |   2 |##
   4 |     -6.77 |   5 |     -6.77 |   1 |#
   5 |     -6.45 |   3 |     -6.36 |  10 |##########
   6 |     -5.84 |   9 |     -5.83 |   2 |##
   7 |     -5.58 |  19 |     -5.58 |   1 |#
_____|___________|_____|___________|_____|______________________________________


    RMSD TABLE
    __________


_______________________________________________________________________
     |      |      |           |         |                 |
Rank | Sub- | Run  | Binding   | Cluster | Reference       | Grep
     | Rank |      | Energy    | RMSD    | RMSD            | Pattern
_____|______|______|___________|_________|_________________|___________
   1      1     13       -7.49      0.00    272.86           RANKING
   1      2      4       -7.44      0.28    272.87           RANKING
   1      3     16       -7.42      0.49    272.78           RANKING
   2      1     17       -7.31      0.00    273.06           RANKING
   3      1     12       -7.10      0.00    272.93           RANKING
   3      2     15       -7.02      0.71    272.77           RANKING
   4      1      5       -6.77      0.00    272.54           RANKING
   5      1      3       -6.45      0.00    272.77           RANKING
   5      2      8       -6.45      0.10    272.74           RANKING
   5      3     20       -6.42      0.25    272.72           RANKING
   5      4     10       -6.42      0.27    272.69           RANKING
   5      5      2       -6.39      1.45    272.55           RANKING
   5      6     18       -6.39      0.13    272.76           RANKING
   5      7     11       -6.37      0.19    272.75           RANKING
   5      8      1       -6.37      0.16    272.74           RANKING
   5      9     14       -6.37      0.30    272.70           RANKING
   5     10      7       -6.01      1.00    272.89           RANKING
   6      1      9       -5.84      0.00    272.57           RANKING
   6      2      6       -5.81      0.06    272.55           RANKING
   7      1     19       -5.58      0.00    273.01           RANKING

Run time 0.660 sec
Idle time 0.000 sec
