AutoDock-GPU version: v1.6

**********************************************************
**    AutoDock-GPU AUTODOCKTOOLS-COMPATIBLE DLG FILE    **
**********************************************************


    DOCKING PARAMETERS
    ________________________


Ligand file:                               /home/a/REINVENT4/ReinventStudies/pleaseWork/justRnve/graph-dock-t2iv78/graph-DockGPU/node-autodockgpu/inputs/PBDDHFVPWWOKMN-WQYHCYCZNA-N.pdbqt
Grid fld file:                             /home/a/REINVENT4/ReinventStudies/mols/Rad51/maps/rad51_receptor.maps.fld

Random seed:                               42
Number of runs:                            20
Number of energy evaluations:              1613968
Number of generations:                     42000
Size of population:                        150
Rate of crossover:                         80.000000%
Tournament selection probability limit:    60.000000%
Rate of mutation:                          2.000000%
Maximal allowed delta movement:            +/- 6.000000A
Maximal allowed delta angle:               +/- 90.000000

Rate of local search:                      100.000000%
Maximal number of local search iterations: 300
Rho lower bound:                           0.010000
Spread of local search delta movement:     2.000000A
Spread of local search delta angle:        74.999999
Limit of consecutive successes/failures:   4

Handle symmetry during clustering:         YES
RMSD tolerance:                            2.000000A

Program call in command line was:          /home/a/REINVENT4/ReinventStudies/adgpu-v1.6_linux_x64_cuda12_128wi --filelist batch.txt --heuristics 1 --nrun 20 --psize 150 --lsit 300 --seed 42 --heurmax 12000000 


    GRID PARAMETERS
    ________________________


Receptor name:                             rad51_receptor
Number of grid points (x, y, z):           53, 53, 53
Grid center (x, y, z):                     139.950000, 75.640000, 221.970000A
Grid size (x, y, z):                       19.500000, 19.500000, 19.500000A
Grid spacing:                              0.375000A


    LIGAND PARAMETERS
    ________________________


Ligand name:                               /home/a/REINVENT4/ReinventStudies/pleaseWork/justRnve/graph-dock-t2iv78/graph-DockGPU/node-autodockgpu/inputs/PBDDHFVPWWOKMN-WQYHCYCZNA-N
Number of atoms:                           33
Number of rotatable bonds:                 8
Number of atom types:                      8


    DUMMY DATA (only for ADT-compatibility)
    ________________________


DPF> outlev 1
DPF> ga_run 20
DPF> fld /home/a/REINVENT4/ReinventStudies/mols/Rad51/maps/rad51_receptor.maps.fld
DPF> move /home/a/REINVENT4/ReinventStudies/pleaseWork/justRnve/graph-dock-t2iv78/graph-DockGPU/node-autodockgpu/inputs/PBDDHFVPWWOKMN-WQYHCYCZNA-N.pdbqt


    COUNTER STATES
    ________________________


Number of energy evaluations performed:    612308
Number of generations used:                40


    INPUT LIGAND PDBQT FILE:
    ________________________


INPUT-LIGAND-PDBQT: REMARK SMILES OC(=C/c1ccc(-c2ccc(C(F)(F)F)nc2)cc1)/N=c1\nc(-c2cccs2)cc[nH]1
INPUT-LIGAND-PDBQT: REMARK SMILES IDX 3 1 2 2 1 3 20 5 21 6 22 7 31 8 23 9 30 10 29 11 24 13 28 14
INPUT-LIGAND-PDBQT: REMARK SMILES IDX 25 15 27 16 26 17 4 18 5 19 19 20 6 21 18 22 7 23 8 24 17 25
INPUT-LIGAND-PDBQT: REMARK SMILES IDX 9 26 16 27 10 28 11 29 12 30 13 31 14 32 15 33
INPUT-LIGAND-PDBQT: REMARK H PARENT 1 4 31 12
INPUT-LIGAND-PDBQT: ROOT
INPUT-LIGAND-PDBQT: ATOM      1  C   UNL     1       1.634   3.897   0.307  1.00  0.00     0.076 C 
INPUT-LIGAND-PDBQT: ENDROOT
INPUT-LIGAND-PDBQT: BRANCH   1   2
INPUT-LIGAND-PDBQT: ATOM      2  C   UNL     1       2.275   4.032   1.482  1.00  0.00     0.214 C 
INPUT-LIGAND-PDBQT: BRANCH   2   3
INPUT-LIGAND-PDBQT: ATOM      3  O   UNL     1       3.079   5.152   1.666  1.00  0.00    -0.493 OA
INPUT-LIGAND-PDBQT: ATOM      4  H   UNL     1       3.576   5.297   2.537  1.00  0.00     0.295 HD
INPUT-LIGAND-PDBQT: ENDBRANCH   2   3
INPUT-LIGAND-PDBQT: BRANCH   2   5
INPUT-LIGAND-PDBQT: ATOM      5  N   UNL     1       2.154   3.091   2.567  1.00  0.00    -0.177 NA
INPUT-LIGAND-PDBQT: BRANCH   5   6
INPUT-LIGAND-PDBQT: ATOM      6  C   UNL     1       2.310   1.800   2.492  1.00  0.00     0.230 A 
INPUT-LIGAND-PDBQT: ATOM      7  N   UNL     1       2.676   1.205   1.323  1.00  0.00    -0.212 NA
INPUT-LIGAND-PDBQT: ATOM      8  N   UNL     1       2.093   1.033   3.596  1.00  0.00    -0.331 N 
INPUT-LIGAND-PDBQT: ATOM      9  C   UNL     1       2.791  -0.145   1.213  1.00  0.00     0.086 A 
INPUT-LIGAND-PDBQT: ATOM     10  C   UNL     1       2.207  -0.320   3.537  1.00  0.00     0.088 A 
INPUT-LIGAND-PDBQT: ATOM     11  C   UNL     1       2.552  -0.942   2.338  1.00  0.00     0.048 A 
INPUT-LIGAND-PDBQT: ATOM     12  H   UNL     1       1.819   1.480   4.500  1.00  0.00     0.169 HD
INPUT-LIGAND-PDBQT: BRANCH   9  13
INPUT-LIGAND-PDBQT: ATOM     13  C   UNL     1       3.128  -0.737  -0.096  1.00  0.00     0.053 A 
INPUT-LIGAND-PDBQT: ATOM     14  S   UNL     1       3.135  -2.378  -0.477  1.00  0.00    -0.142 S 
INPUT-LIGAND-PDBQT: ATOM     15  C   UNL     1       3.458  -0.025  -1.245  1.00  0.00     0.022 A 
INPUT-LIGAND-PDBQT: ATOM     16  C   UNL     1       3.557  -2.198  -2.094  1.00  0.00     0.065 A 
INPUT-LIGAND-PDBQT: ATOM     17  C   UNL     1       3.696  -0.842  -2.357  1.00  0.00     0.012 A 
INPUT-LIGAND-PDBQT: ENDBRANCH   9  13
INPUT-LIGAND-PDBQT: ENDBRANCH   5   6
INPUT-LIGAND-PDBQT: ENDBRANCH   2   5
INPUT-LIGAND-PDBQT: ENDBRANCH   1   2
INPUT-LIGAND-PDBQT: BRANCH   1  18
INPUT-LIGAND-PDBQT: ATOM     18  C   UNL     1       0.661   2.831  -0.021  1.00  0.00    -0.020 A 
INPUT-LIGAND-PDBQT: ATOM     19  C   UNL     1       0.723   2.220  -1.280  1.00  0.00     0.009 A 
INPUT-LIGAND-PDBQT: ATOM     20  C   UNL     1      -0.322   2.418   0.894  1.00  0.00     0.009 A 
INPUT-LIGAND-PDBQT: ATOM     21  C   UNL     1      -0.128   1.157  -1.594  1.00  0.00     0.009 A 
INPUT-LIGAND-PDBQT: ATOM     22  C   UNL     1      -1.174   1.356   0.581  1.00  0.00     0.009 A 
INPUT-LIGAND-PDBQT: ATOM     23  C   UNL     1      -1.076   0.703  -0.660  1.00  0.00    -0.017 A 
INPUT-LIGAND-PDBQT: BRANCH  23  24
INPUT-LIGAND-PDBQT: ATOM     24  C   UNL     1      -1.953  -0.453  -0.976  1.00  0.00     0.000 A 
INPUT-LIGAND-PDBQT: ATOM     25  C   UNL     1      -2.506  -0.611  -2.259  1.00  0.00     0.120 A 
INPUT-LIGAND-PDBQT: ATOM     26  C   UNL     1      -2.244  -1.422  -0.002  1.00  0.00     0.012 A 
INPUT-LIGAND-PDBQT: ATOM     27  N   UNL     1      -3.300  -1.678  -2.537  1.00  0.00    -0.251 NA
INPUT-LIGAND-PDBQT: ATOM     28  C   UNL     1      -3.061  -2.510  -0.314  1.00  0.00     0.034 A 
INPUT-LIGAND-PDBQT: ATOM     29  C   UNL     1      -3.588  -2.628  -1.606  1.00  0.00     0.144 A 
INPUT-LIGAND-PDBQT: BRANCH  29  30
INPUT-LIGAND-PDBQT: ATOM     30  C   UNL     1      -4.474  -3.786  -1.961  1.00  0.00     0.433 C 
INPUT-LIGAND-PDBQT: ATOM     31  F   UNL     1      -4.823  -3.740  -3.300  1.00  0.00    -0.165 F 
INPUT-LIGAND-PDBQT: ATOM     32  F   UNL     1      -5.626  -3.739  -1.197  1.00  0.00    -0.165 F 
INPUT-LIGAND-PDBQT: ATOM     33  F   UNL     1      -3.812  -4.974  -1.713  1.00  0.00    -0.165 F 
INPUT-LIGAND-PDBQT: ENDBRANCH  29  30
INPUT-LIGAND-PDBQT: ENDBRANCH  23  24
INPUT-LIGAND-PDBQT: ENDBRANCH   1  18
INPUT-LIGAND-PDBQT: TORSDOF 8


    FINAL DOCKED STATE:
    ________________________


Run:   1 / 20
Time taken for this run:   0.031s

DOCKED: MODEL        1
DOCKED: USER    Run = 1
DOCKED: USER
DOCKED: USER    Estimated Free Energy of Binding    =  -7.57 kcal/mol  [=(1)+(2)+(3)-(4)]
DOCKED: USER
DOCKED: USER    (1) Final Intermolecular Energy     =  -9.96 kcal/mol
DOCKED: USER        vdW + Hbond + desolv Energy     =  -9.77 kcal/mol
DOCKED: USER        Electrostatic Energy            =  -0.19 kcal/mol
DOCKED: USER        Moving Ligand-Fixed Receptor    =  -9.96 kcal/mol
DOCKED: USER        Moving Ligand-Moving Receptor   =  +0.00 kcal/mol
DOCKED: USER    (2) Final Total Internal Energy     =  -0.81 kcal/mol
DOCKED: USER    (3) Torsional Free Energy           =  +2.39 kcal/mol
DOCKED: USER    (4) Unbound System's Energy         =  -0.81 kcal/mol
DOCKED: USER
DOCKED: USER
DOCKED: REMARK SMILES OC(=C/c1ccc(-c2ccc(C(F)(F)F)nc2)cc1)/N=c1\nc(-c2cccs2)cc[nH]1
DOCKED: REMARK SMILES IDX 3 1 2 2 1 3 20 5 21 6 22 7 31 8 23 9 30 10 29 11 24 13 28 14
DOCKED: REMARK SMILES IDX 25 15 27 16 26 17 4 18 5 19 19 20 6 21 18 22 7 23 8 24 17 25
DOCKED: REMARK SMILES IDX 9 26 16 27 10 28 11 29 12 30 13 31 14 32 15 33
DOCKED: REMARK H PARENT 1 4 31 12
DOCKED: USER                              x       y       z     vdW  Elec       q    Type
DOCKED: USER                           _______ _______ _______ _____ _____    ______ ____
DOCKED: ROOT
DOCKED: ATOM      1  C   UNL     1     141.797  73.944 221.202 -0.18 -0.01    +0.076 C  
DOCKED: ENDROOT
DOCKED: BRANCH   1   2
DOCKED: ATOM      2  C   UNL     1     140.679  73.360 221.670 -0.21 -0.02    +0.214 C  
DOCKED: BRANCH   2   3
DOCKED: ATOM      3  O   UNL     1     139.765  74.149 222.359 -0.71 +0.04    -0.493 OA 
DOCKED: ATOM      4  H   UNL     1     139.196  73.758 223.101 -0.47 -0.13    +0.295 HD 
DOCKED: ENDBRANCH   2   3
DOCKED: BRANCH   2   5
DOCKED: ATOM      5  N   UNL     1     140.369  71.966 221.474 -0.15 +0.03    -0.177 NA 
DOCKED: BRANCH   5   6
DOCKED: ATOM      6  C   UNL     1     139.916  71.141 222.374 -0.17 -0.04    +0.230 A  
DOCKED: ATOM      7  N   UNL     1     140.210  71.312 223.693 -0.27 +0.03    -0.212 NA 
DOCKED: ATOM      8  N   UNL     1     139.147  70.085 221.990 -0.06 +0.06    -0.331 N  
DOCKED: ATOM      9  C   UNL     1     139.790  70.431 224.639 -0.37 -0.01    +0.086 A  
DOCKED: ATOM     10  C   UNL     1     138.695  69.184 222.902 -0.19 -0.01    +0.088 A  
DOCKED: ATOM     11  C   UNL     1     139.015  69.333 224.250 -0.31 -0.01    +0.048 A  
DOCKED: ATOM     12  H   UNL     1     138.909  69.948 220.981 +0.03 -0.03    +0.169 HD 
DOCKED: BRANCH   9  13
DOCKED: ATOM     13  C   UNL     1     140.194  70.633 226.044 -0.51 -0.01    +0.053 A  
DOCKED: ATOM     14  S   UNL     1     141.091  71.924 226.649 -0.76 +0.02    -0.142 S  
DOCKED: ATOM     15  C   UNL     1     139.859  69.803 227.110 -0.54 -0.00    +0.022 A  
DOCKED: ATOM     16  C   UNL     1     141.065  71.440 228.258 -0.69 -0.01    +0.065 A  
DOCKED: ATOM     17  C   UNL     1     140.346  70.255 228.342 -0.57 -0.00    +0.012 A  
DOCKED: ENDBRANCH   9  13
DOCKED: ENDBRANCH   5   6
DOCKED: ENDBRANCH   2   5
DOCKED: ENDBRANCH   1   2
DOCKED: BRANCH   1  18
DOCKED: ATOM     18  C   UNL     1     141.902  75.347 220.743 -0.29 +0.01    -0.020 A  
DOCKED: ATOM     19  C   UNL     1     142.807  75.660 219.720 -0.35 -0.00    +0.009 A  
DOCKED: ATOM     20  C   UNL     1     141.122  76.372 221.305 -0.33 -0.00    +0.009 A  
DOCKED: ATOM     21  C   UNL     1     142.876  76.959 219.208 -0.35 -0.01    +0.009 A  
DOCKED: ATOM     22  C   UNL     1     141.190  77.670 220.794 -0.29 -0.00    +0.009 A  
DOCKED: ATOM     23  C   UNL     1     142.056  77.975 219.730 -0.28 +0.01    -0.017 A  
DOCKED: BRANCH  23  24
DOCKED: ATOM     24  C   UNL     1     142.098  79.345 219.159 -0.28 -0.00    +0.000 A  
DOCKED: ATOM     25  C   UNL     1     141.744  80.463 219.936 -0.26 -0.05    +0.120 A  
DOCKED: ATOM     26  C   UNL     1     142.500  79.559 217.831 -0.32 -0.01    +0.012 A  
DOCKED: ATOM     27  N   UNL     1     141.795  81.712 219.404 -0.15 +0.10    -0.251 NA 
DOCKED: ATOM     28  C   UNL     1     142.546  80.853 217.309 -0.26 -0.03    +0.034 A  
DOCKED: ATOM     29  C   UNL     1     142.187  81.936 218.120 -0.22 -0.08    +0.144 A  
DOCKED: BRANCH  29  30
DOCKED: ATOM     30  C   UNL     1     142.222  83.335 217.578 -0.07 -0.20    +0.433 C  
DOCKED: ATOM     31  F   UNL     1     141.642  83.385 216.322 -0.02 +0.07    -0.165 F  
DOCKED: ATOM     32  F   UNL     1     143.534  83.762 217.481 -0.12 +0.09    -0.165 F  
DOCKED: ATOM     33  F   UNL     1     141.530  84.182 218.423 -0.05 +0.05    -0.165 F  
DOCKED: ENDBRANCH  29  30
DOCKED: ENDBRANCH  23  24
DOCKED: ENDBRANCH   1  18
DOCKED: TORSDOF 8
DOCKED: TER
DOCKED: ENDMDL
________________________________________________________________________________


    FINAL DOCKED STATE:
    ________________________


Run:   2 / 20
Time taken for this run:   0.031s

DOCKED: MODEL        2
DOCKED: USER    Run = 2
DOCKED: USER
DOCKED: USER    Estimated Free Energy of Binding    =  -5.67 kcal/mol  [=(1)+(2)+(3)-(4)]
DOCKED: USER
DOCKED: USER    (1) Final Intermolecular Energy     =  -8.06 kcal/mol
DOCKED: USER        vdW + Hbond + desolv Energy     =  -7.91 kcal/mol
DOCKED: USER        Electrostatic Energy            =  -0.15 kcal/mol
DOCKED: USER        Moving Ligand-Fixed Receptor    =  -8.06 kcal/mol
DOCKED: USER        Moving Ligand-Moving Receptor   =  +0.00 kcal/mol
DOCKED: USER    (2) Final Total Internal Energy     =  -2.21 kcal/mol
DOCKED: USER    (3) Torsional Free Energy           =  +2.39 kcal/mol
DOCKED: USER    (4) Unbound System's Energy         =  -2.21 kcal/mol
DOCKED: USER
DOCKED: USER
DOCKED: REMARK SMILES OC(=C/c1ccc(-c2ccc(C(F)(F)F)nc2)cc1)/N=c1\nc(-c2cccs2)cc[nH]1
DOCKED: REMARK SMILES IDX 3 1 2 2 1 3 20 5 21 6 22 7 31 8 23 9 30 10 29 11 24 13 28 14
DOCKED: REMARK SMILES IDX 25 15 27 16 26 17 4 18 5 19 19 20 6 21 18 22 7 23 8 24 17 25
DOCKED: REMARK SMILES IDX 9 26 16 27 10 28 11 29 12 30 13 31 14 32 15 33
DOCKED: REMARK H PARENT 1 4 31 12
DOCKED: USER                              x       y       z     vdW  Elec       q    Type
DOCKED: USER                           _______ _______ _______ _____ _____    ______ ____
DOCKED: ROOT
DOCKED: ATOM      1  C   UNL     1     141.809  82.595 218.016 -0.20 -0.03    +0.076 C  
DOCKED: ENDROOT
DOCKED: BRANCH   1   2
DOCKED: ATOM      2  C   UNL     1     142.778  81.784 217.555 -0.23 -0.18    +0.214 C  
DOCKED: BRANCH   2   3
DOCKED: ATOM      3  O   UNL     1     144.058  82.308 217.407 -0.22 +0.54    -0.493 OA 
DOCKED: ATOM      4  H   UNL     1     144.831  81.718 217.123 -0.37 -0.61    +0.295 HD 
DOCKED: ENDBRANCH   2   3
DOCKED: BRANCH   2   5
DOCKED: ATOM      5  N   UNL     1     142.565  80.396 217.230 -0.18 +0.20    -0.177 NA 
DOCKED: BRANCH   5   6
DOCKED: ATOM      6  C   UNL     1     142.307  79.435 218.071 -0.22 -0.19    +0.230 A  
DOCKED: ATOM      7  N   UNL     1     142.176  79.686 219.403 -0.19 +0.14    -0.212 NA 
DOCKED: ATOM      8  N   UNL     1     142.178  78.159 217.613 -0.13 +0.24    -0.331 N  
DOCKED: ATOM      9  C   UNL     1     141.960  78.689 220.301 -0.16 -0.06    +0.086 A  
DOCKED: ATOM     10  C   UNL     1     141.951  77.131 218.472 -0.19 -0.05    +0.088 A  
DOCKED: ATOM     11  C   UNL     1     141.844  77.372 219.840 -0.27 -0.03    +0.048 A  
DOCKED: ATOM     12  H   UNL     1     142.269  77.957 216.592 +0.02 -0.13    +0.169 HD 
DOCKED: BRANCH   9  13
DOCKED: ATOM     13  C   UNL     1     141.891  79.013 221.739 -0.40 -0.03    +0.053 A  
DOCKED: ATOM     14  S   UNL     1     141.001  78.187 222.907 -0.51 +0.05    -0.142 S  
DOCKED: ATOM     15  C   UNL     1     142.587  80.039 222.371 -0.56 -0.01    +0.022 A  
DOCKED: ATOM     16  C   UNL     1     141.489  79.122 224.216 -0.49 -0.01    +0.065 A  
DOCKED: ATOM     17  C   UNL     1     142.361  80.096 223.752 -0.64 -0.00    +0.012 A  
DOCKED: ENDBRANCH   9  13
DOCKED: ENDBRANCH   5   6
DOCKED: ENDBRANCH   2   5
DOCKED: ENDBRANCH   1   2
DOCKED: BRANCH   1  18
DOCKED: ATOM     18  C   UNL     1     140.972  82.340 219.210 -0.20 +0.01    -0.020 A  
DOCKED: ATOM     19  C   UNL     1     141.440  82.748 220.466 -0.21 -0.00    +0.009 A  
DOCKED: ATOM     20  C   UNL     1     139.725  81.698 219.117 -0.09 -0.00    +0.009 A  
DOCKED: ATOM     21  C   UNL     1     140.642  82.593 221.603 -0.32 -0.00    +0.009 A  
DOCKED: ATOM     22  C   UNL     1     138.927  81.543 220.253 -0.09 -0.00    +0.009 A  
DOCKED: ATOM     23  C   UNL     1     139.370  82.003 221.506 -0.19 +0.00    -0.017 A  
DOCKED: BRANCH  23  24
DOCKED: ATOM     24  C   UNL     1     138.503  81.876 222.706 -0.19 -0.00    +0.000 A  
DOCKED: ATOM     25  C   UNL     1     137.395  82.721 222.890 -0.12 -0.01    +0.120 A  
DOCKED: ATOM     26  C   UNL     1     138.766  80.901 223.682 -0.37 -0.00    +0.012 A  
DOCKED: ATOM     27  N   UNL     1     136.606  82.589 223.988 -0.10 +0.02    -0.251 NA 
DOCKED: ATOM     28  C   UNL     1     137.938  80.784 224.800 -0.37 -0.00    +0.034 A  
DOCKED: ATOM     29  C   UNL     1     136.844  81.646 224.940 -0.27 -0.01    +0.144 A  
DOCKED: BRANCH  29  30
DOCKED: ATOM     30  C   UNL     1     135.945  81.542 226.138 -0.14 -0.06    +0.433 C  
DOCKED: ATOM     31  F   UNL     1     135.007  80.541 225.957 -0.07 +0.03    -0.165 F  
DOCKED: ATOM     32  F   UNL     1     135.286  82.744 226.328 -0.04 +0.02    -0.165 F  
DOCKED: ATOM     33  F   UNL     1     136.696  81.253 227.262 -0.19 +0.04    -0.165 F  
DOCKED: ENDBRANCH  29  30
DOCKED: ENDBRANCH  23  24
DOCKED: ENDBRANCH   1  18
DOCKED: TORSDOF 8
DOCKED: TER
DOCKED: ENDMDL
________________________________________________________________________________


    FINAL DOCKED STATE:
    ________________________


Run:   3 / 20
Time taken for this run:   0.031s

DOCKED: MODEL        3
DOCKED: USER    Run = 3
DOCKED: USER
DOCKED: USER    Estimated Free Energy of Binding    =  -7.07 kcal/mol  [=(1)+(2)+(3)-(4)]
DOCKED: USER
DOCKED: USER    (1) Final Intermolecular Energy     =  -9.46 kcal/mol
DOCKED: USER        vdW + Hbond + desolv Energy     =  -9.35 kcal/mol
DOCKED: USER        Electrostatic Energy            =  -0.11 kcal/mol
DOCKED: USER        Moving Ligand-Fixed Receptor    =  -9.46 kcal/mol
DOCKED: USER        Moving Ligand-Moving Receptor   =  +0.00 kcal/mol
DOCKED: USER    (2) Final Total Internal Energy     =  -1.31 kcal/mol
DOCKED: USER    (3) Torsional Free Energy           =  +2.39 kcal/mol
DOCKED: USER    (4) Unbound System's Energy         =  -1.31 kcal/mol
DOCKED: USER
DOCKED: USER
DOCKED: REMARK SMILES OC(=C/c1ccc(-c2ccc(C(F)(F)F)nc2)cc1)/N=c1\nc(-c2cccs2)cc[nH]1
DOCKED: REMARK SMILES IDX 3 1 2 2 1 3 20 5 21 6 22 7 31 8 23 9 30 10 29 11 24 13 28 14
DOCKED: REMARK SMILES IDX 25 15 27 16 26 17 4 18 5 19 19 20 6 21 18 22 7 23 8 24 17 25
DOCKED: REMARK SMILES IDX 9 26 16 27 10 28 11 29 12 30 13 31 14 32 15 33
DOCKED: REMARK H PARENT 1 4 31 12
DOCKED: USER                              x       y       z     vdW  Elec       q    Type
DOCKED: USER                           _______ _______ _______ _____ _____    ______ ____
DOCKED: ROOT
DOCKED: ATOM      1  C   UNL     1     139.171  74.992 220.953 -0.17 -0.02    +0.076 C  
DOCKED: ENDROOT
DOCKED: BRANCH   1   2
DOCKED: ATOM      2  C   UNL     1     140.460  74.941 221.334 -0.23 -0.04    +0.214 C  
DOCKED: BRANCH   2   3
DOCKED: ATOM      3  O   UNL     1     141.272  76.034 221.052 -0.11 +0.20    -0.493 OA 
DOCKED: ATOM      4  H   UNL     1     142.069  76.254 221.638 -0.42 -0.22    +0.295 HD 
DOCKED: ENDBRANCH   2   3
DOCKED: BRANCH   2   5
DOCKED: ATOM      5  N   UNL     1     141.037  73.824 222.039 -0.59 -0.00    -0.177 NA 
DOCKED: BRANCH   5   6
DOCKED: ATOM      6  C   UNL     1     140.423  72.730 222.390 -0.21 -0.02    +0.230 A  
DOCKED: ATOM      7  N   UNL     1     140.435  72.304 223.684 -0.26 +0.02    -0.212 NA 
DOCKED: ATOM      8  N   UNL     1     139.769  71.996 221.448 -0.08 +0.06    -0.331 N  
DOCKED: ATOM      9  C   UNL     1     139.845  71.138 224.058 -0.37 -0.02    +0.086 A  
DOCKED: ATOM     10  C   UNL     1     139.155  70.829 221.777 -0.14 -0.02    +0.088 A  
DOCKED: ATOM     11  C   UNL     1     139.187  70.368 223.093 -0.24 -0.01    +0.048 A  
DOCKED: ATOM     12  H   UNL     1     139.748  72.318 220.454 +0.04 -0.03    +0.169 HD 
DOCKED: BRANCH   9  13
DOCKED: ATOM     13  C   UNL     1     139.946  70.696 225.462 -0.47 -0.01    +0.053 A  
DOCKED: ATOM     14  S   UNL     1     140.727  71.512 226.712 -0.76 +0.02    -0.142 S  
DOCKED: ATOM     15  C   UNL     1     139.372  69.543 225.990 -0.44 -0.00    +0.022 A  
DOCKED: ATOM     16  C   UNL     1     140.347  70.413 227.926 -0.60 -0.01    +0.065 A  
DOCKED: ATOM     17  C   UNL     1     139.597  69.389 227.364 -0.56 -0.00    +0.012 A  
DOCKED: ENDBRANCH   9  13
DOCKED: ENDBRANCH   5   6
DOCKED: ENDBRANCH   2   5
DOCKED: ENDBRANCH   1   2
DOCKED: BRANCH   1  18
DOCKED: ATOM     18  C   UNL     1     138.005  74.835 221.851 -0.20 +0.01    -0.020 A  
DOCKED: ATOM     19  C   UNL     1     137.315  73.616 221.859 -0.15 -0.00    +0.009 A  
DOCKED: ATOM     20  C   UNL     1     137.571  75.875 222.691 -0.26 -0.00    +0.009 A  
DOCKED: ATOM     21  C   UNL     1     136.259  73.407 222.751 -0.16 -0.00    +0.009 A  
DOCKED: ATOM     22  C   UNL     1     136.516  75.667 223.582 -0.22 -0.00    +0.009 A  
DOCKED: ATOM     23  C   UNL     1     135.858  74.425 223.633 -0.20 +0.00    -0.017 A  
DOCKED: BRANCH  23  24
DOCKED: ATOM     24  C   UNL     1     134.764  74.191 224.609 -0.29 -0.00    +0.000 A  
DOCKED: ATOM     25  C   UNL     1     134.592  75.036 225.719 -0.35 -0.00    +0.120 A  
DOCKED: ATOM     26  C   UNL     1     133.868  73.122 224.442 -0.17 -0.00    +0.012 A  
DOCKED: ATOM     27  N   UNL     1     133.582  74.815 226.600 -0.72 -0.02    -0.251 NA 
DOCKED: ATOM     28  C   UNL     1     132.837  72.918 225.361 -0.18 -0.00    +0.034 A  
DOCKED: ATOM     29  C   UNL     1     132.703  73.787 226.450 -0.28 -0.01    +0.144 A  
DOCKED: BRANCH  29  30
DOCKED: ATOM     30  C   UNL     1     131.605  73.582 227.453 -0.17 -0.06    +0.433 C  
DOCKED: ATOM     31  F   UNL     1     131.656  72.301 227.975 -0.17 +0.04    -0.165 F  
DOCKED: ATOM     32  F   UNL     1     130.379  73.768 226.842 -0.08 +0.02    -0.165 F  
DOCKED: ATOM     33  F   UNL     1     131.741  74.490 228.487 -0.15 +0.02    -0.165 F  
DOCKED: ENDBRANCH  29  30
DOCKED: ENDBRANCH  23  24
DOCKED: ENDBRANCH   1  18
DOCKED: TORSDOF 8
DOCKED: TER
DOCKED: ENDMDL
________________________________________________________________________________


    FINAL DOCKED STATE:
    ________________________


Run:   4 / 20
Time taken for this run:   0.031s

DOCKED: MODEL        4
DOCKED: USER    Run = 4
DOCKED: USER
DOCKED: USER    Estimated Free Energy of Binding    =  -5.33 kcal/mol  [=(1)+(2)+(3)-(4)]
DOCKED: USER
DOCKED: USER    (1) Final Intermolecular Energy     =  -7.72 kcal/mol
DOCKED: USER        vdW + Hbond + desolv Energy     =  -7.61 kcal/mol
DOCKED: USER        Electrostatic Energy            =  -0.11 kcal/mol
DOCKED: USER        Moving Ligand-Fixed Receptor    =  -7.72 kcal/mol
DOCKED: USER        Moving Ligand-Moving Receptor   =  +0.00 kcal/mol
DOCKED: USER    (2) Final Total Internal Energy     =  -2.50 kcal/mol
DOCKED: USER    (3) Torsional Free Energy           =  +2.39 kcal/mol
DOCKED: USER    (4) Unbound System's Energy         =  -2.50 kcal/mol
DOCKED: USER
DOCKED: USER
DOCKED: REMARK SMILES OC(=C/c1ccc(-c2ccc(C(F)(F)F)nc2)cc1)/N=c1\nc(-c2cccs2)cc[nH]1
DOCKED: REMARK SMILES IDX 3 1 2 2 1 3 20 5 21 6 22 7 31 8 23 9 30 10 29 11 24 13 28 14
DOCKED: REMARK SMILES IDX 25 15 27 16 26 17 4 18 5 19 19 20 6 21 18 22 7 23 8 24 17 25
DOCKED: REMARK SMILES IDX 9 26 16 27 10 28 11 29 12 30 13 31 14 32 15 33
DOCKED: REMARK H PARENT 1 4 31 12
DOCKED: USER                              x       y       z     vdW  Elec       q    Type
DOCKED: USER                           _______ _______ _______ _____ _____    ______ ____
DOCKED: ROOT
DOCKED: ATOM      1  C   UNL     1     141.091  73.912 219.932 -0.13 -0.02    +0.076 C  
DOCKED: ENDROOT
DOCKED: BRANCH   1   2
DOCKED: ATOM      2  C   UNL     1     140.424  73.524 221.034 -0.17 -0.03    +0.214 C  
DOCKED: BRANCH   2   3
DOCKED: ATOM      3  O   UNL     1     139.796  72.282 221.018 -0.03 +0.08    -0.493 OA 
DOCKED: ATOM      4  H   UNL     1     138.803  72.200 221.202 +0.06 -0.06    +0.295 HD 
DOCKED: ENDBRANCH   2   3
DOCKED: BRANCH   2   5
DOCKED: ATOM      5  N   UNL     1     140.345  74.314 222.236 -0.75 -0.01    -0.177 NA 
DOCKED: BRANCH   5   6
DOCKED: ATOM      6  C   UNL     1     139.834  75.507 222.345 -0.14 -0.03    +0.230 A  
DOCKED: ATOM      7  N   UNL     1     140.619  76.617 222.264 -0.30 +0.06    -0.212 NA 
DOCKED: ATOM      8  N   UNL     1     138.495  75.646 222.555 -0.14 +0.09    -0.331 N  
DOCKED: ATOM      9  C   UNL     1     140.111  77.866 222.429 -0.33 -0.02    +0.086 A  
DOCKED: ATOM     10  C   UNL     1     137.940  76.877 222.715 -0.26 -0.02    +0.088 A  
DOCKED: ATOM     11  C   UNL     1     138.739  78.018 222.663 -0.28 -0.01    +0.048 A  
DOCKED: ATOM     12  H   UNL     1     137.882  74.802 222.612 -0.32 -0.07    +0.169 HD 
DOCKED: BRANCH   9  13
DOCKED: ATOM     13  C   UNL     1     141.021  79.027 222.394 -0.39 -0.02    +0.053 A  
DOCKED: ATOM     14  S   UNL     1     140.641  80.578 221.858 -0.35 +0.03    -0.142 S  
DOCKED: ATOM     15  C   UNL     1     142.340  79.035 222.839 -0.52 -0.01    +0.022 A  
DOCKED: ATOM     16  C   UNL     1     142.139  81.267 222.183 -0.42 -0.02    +0.065 A  
DOCKED: ATOM     17  C   UNL     1     142.960  80.285 222.721 -0.62 -0.00    +0.012 A  
DOCKED: ENDBRANCH   9  13
DOCKED: ENDBRANCH   5   6
DOCKED: ENDBRANCH   2   5
DOCKED: ENDBRANCH   1   2
DOCKED: BRANCH   1  18
DOCKED: ATOM     18  C   UNL     1     141.291  75.313 219.501 -0.15 +0.01    -0.020 A  
DOCKED: ATOM     19  C   UNL     1     140.203  76.023 218.976 -0.07 -0.00    +0.009 A  
DOCKED: ATOM     20  C   UNL     1     142.540  75.948 219.601 -0.32 -0.00    +0.009 A  
DOCKED: ATOM     21  C   UNL     1     140.337  77.371 218.633 -0.07 -0.00    +0.009 A  
DOCKED: ATOM     22  C   UNL     1     142.675  77.296 219.258 -0.32 -0.01    +0.009 A  
DOCKED: ATOM     23  C   UNL     1     141.571  78.027 218.785 -0.21 +0.01    -0.017 A  
DOCKED: BRANCH  23  24
DOCKED: ATOM     24  C   UNL     1     141.705  79.470 218.460 -0.25 -0.00    +0.000 A  
DOCKED: ATOM     25  C   UNL     1     140.603  80.337 218.558 -0.10 -0.05    +0.120 A  
DOCKED: ATOM     26  C   UNL     1     142.939  80.004 218.055 -0.28 -0.01    +0.012 A  
DOCKED: ATOM     27  N   UNL     1     140.741  81.657 218.265 -0.06 +0.10    -0.251 NA 
DOCKED: ATOM     28  C   UNL     1     143.055  81.364 217.763 -0.29 -0.03    +0.034 A  
DOCKED: ATOM     29  C   UNL     1     141.930  82.192 217.876 -0.19 -0.08    +0.144 A  
DOCKED: BRANCH  29  30
DOCKED: ATOM     30  C   UNL     1     142.031  83.655 217.560 -0.06 -0.18    +0.433 C  
DOCKED: ATOM     31  F   UNL     1     141.378  83.944 216.374 -0.01 +0.06    -0.165 F  
DOCKED: ATOM     32  F   UNL     1     143.361  84.012 217.437 -0.10 +0.08    -0.165 F  
DOCKED: ATOM     33  F   UNL     1     141.454  84.393 218.577 -0.05 +0.05    -0.165 F  
DOCKED: ENDBRANCH  29  30
DOCKED: ENDBRANCH  23  24
DOCKED: ENDBRANCH   1  18
DOCKED: TORSDOF 8
DOCKED: TER
DOCKED: ENDMDL
________________________________________________________________________________


    FINAL DOCKED STATE:
    ________________________


Run:   5 / 20
Time taken for this run:   0.031s

DOCKED: MODEL        5
DOCKED: USER    Run = 5
DOCKED: USER
DOCKED: USER    Estimated Free Energy of Binding    =  -5.72 kcal/mol  [=(1)+(2)+(3)-(4)]
DOCKED: USER
DOCKED: USER    (1) Final Intermolecular Energy     =  -8.10 kcal/mol
DOCKED: USER        vdW + Hbond + desolv Energy     =  -7.99 kcal/mol
DOCKED: USER        Electrostatic Energy            =  -0.11 kcal/mol
DOCKED: USER        Moving Ligand-Fixed Receptor    =  -8.10 kcal/mol
DOCKED: USER        Moving Ligand-Moving Receptor   =  +0.00 kcal/mol
DOCKED: USER    (2) Final Total Internal Energy     =  -2.27 kcal/mol
DOCKED: USER    (3) Torsional Free Energy           =  +2.39 kcal/mol
DOCKED: USER    (4) Unbound System's Energy         =  -2.27 kcal/mol
DOCKED: USER
DOCKED: USER
DOCKED: REMARK SMILES OC(=C/c1ccc(-c2ccc(C(F)(F)F)nc2)cc1)/N=c1\nc(-c2cccs2)cc[nH]1
DOCKED: REMARK SMILES IDX 3 1 2 2 1 3 20 5 21 6 22 7 31 8 23 9 30 10 29 11 24 13 28 14
DOCKED: REMARK SMILES IDX 25 15 27 16 26 17 4 18 5 19 19 20 6 21 18 22 7 23 8 24 17 25
DOCKED: REMARK SMILES IDX 9 26 16 27 10 28 11 29 12 30 13 31 14 32 15 33
DOCKED: REMARK H PARENT 1 4 31 12
DOCKED: USER                              x       y       z     vdW  Elec       q    Type
DOCKED: USER                           _______ _______ _______ _____ _____    ______ ____
DOCKED: ROOT
DOCKED: ATOM      1  C   UNL     1     141.348  73.937 220.198 -0.17 -0.02    +0.076 C  
DOCKED: ENDROOT
DOCKED: BRANCH   1   2
DOCKED: ATOM      2  C   UNL     1     140.453  73.554 221.126 -0.18 -0.03    +0.214 C  
DOCKED: BRANCH   2   3
DOCKED: ATOM      3  O   UNL     1     139.796  72.342 220.944 -0.03 +0.09    -0.493 OA 
DOCKED: ATOM      4  H   UNL     1     139.967  71.777 220.120 +0.05 -0.05    +0.295 HD 
DOCKED: ENDBRANCH   2   3
DOCKED: BRANCH   2   5
DOCKED: ATOM      5  N   UNL     1     140.157  74.321 222.311 -0.76 -0.00    -0.177 NA 
DOCKED: BRANCH   5   6
DOCKED: ATOM      6  C   UNL     1     139.659  75.523 222.349 -0.18 -0.04    +0.230 A  
DOCKED: ATOM      7  N   UNL     1     140.467  76.613 222.469 -0.29 +0.05    -0.212 NA 
DOCKED: ATOM      8  N   UNL     1     138.310  75.693 222.278 -0.16 +0.08    -0.331 N  
DOCKED: ATOM      9  C   UNL     1     139.961  77.871 222.565 -0.32 -0.02    +0.086 A  
DOCKED: ATOM     10  C   UNL     1     137.759  76.933 222.358 -0.23 -0.02    +0.088 A  
DOCKED: ATOM     11  C   UNL     1     138.574  78.053 222.511 -0.26 -0.01    +0.048 A  
DOCKED: ATOM     12  H   UNL     1     137.681  74.864 222.178 -0.05 -0.05    +0.169 HD 
DOCKED: BRANCH   9  13
DOCKED: ATOM     13  C   UNL     1     140.882  79.008 222.759 -0.42 -0.02    +0.053 A  
DOCKED: ATOM     14  S   UNL     1     140.495  80.503 223.431 -0.49 +0.02    -0.142 S  
DOCKED: ATOM     15  C   UNL     1     142.239  79.011 222.450 -0.49 -0.01    +0.022 A  
DOCKED: ATOM     16  C   UNL     1     142.038  81.163 223.334 -0.55 -0.01    +0.065 A  
DOCKED: ATOM     17  C   UNL     1     142.880  80.213 222.773 -0.63 -0.00    +0.012 A  
DOCKED: ENDBRANCH   9  13
DOCKED: ENDBRANCH   5   6
DOCKED: ENDBRANCH   2   5
DOCKED: ENDBRANCH   1   2
DOCKED: BRANCH   1  18
DOCKED: ATOM     18  C   UNL     1     141.539  75.322 219.712 -0.19 +0.01    -0.020 A  
DOCKED: ATOM     19  C   UNL     1     140.430  76.032 219.234 -0.09 -0.00    +0.009 A  
DOCKED: ATOM     20  C   UNL     1     142.800  75.941 219.715 -0.36 -0.00    +0.009 A  
DOCKED: ATOM     21  C   UNL     1     140.559  77.367 218.842 -0.10 -0.00    +0.009 A  
DOCKED: ATOM     22  C   UNL     1     142.931  77.275 219.322 -0.27 -0.01    +0.009 A  
DOCKED: ATOM     23  C   UNL     1     141.810  78.008 218.897 -0.25 +0.01    -0.017 A  
DOCKED: BRANCH  23  24
DOCKED: ATOM     24  C   UNL     1     141.941  79.439 218.520 -0.29 -0.00    +0.000 A  
DOCKED: ATOM     25  C   UNL     1     141.695  80.458 219.456 -0.25 -0.06    +0.120 A  
DOCKED: ATOM     26  C   UNL     1     142.325  79.807 217.220 -0.22 -0.01    +0.012 A  
DOCKED: ATOM     27  N   UNL     1     141.827  81.763 219.100 -0.16 +0.11    -0.251 NA 
DOCKED: ATOM     28  C   UNL     1     142.456  81.155 216.880 -0.21 -0.03    +0.034 A  
DOCKED: ATOM     29  C   UNL     1     142.202  82.137 217.846 -0.22 -0.08    +0.144 A  
DOCKED: BRANCH  29  30
DOCKED: ATOM     30  C   UNL     1     142.331  83.591 217.500 -0.07 -0.19    +0.433 C  
DOCKED: ATOM     31  F   UNL     1     141.666  84.373 218.430 -0.04 +0.05    -0.165 F  
DOCKED: ATOM     32  F   UNL     1     141.784  83.821 216.251 -0.02 +0.07    -0.165 F  
DOCKED: ATOM     33  F   UNL     1     143.665  83.952 217.486 -0.12 +0.08    -0.165 F  
DOCKED: ENDBRANCH  29  30
DOCKED: ENDBRANCH  23  24
DOCKED: ENDBRANCH   1  18
DOCKED: TORSDOF 8
DOCKED: TER
DOCKED: ENDMDL
________________________________________________________________________________


    FINAL DOCKED STATE:
    ________________________


Run:   6 / 20
Time taken for this run:   0.031s

DOCKED: MODEL        6
DOCKED: USER    Run = 6
DOCKED: USER
DOCKED: USER    Estimated Free Energy of Binding    =  -6.99 kcal/mol  [=(1)+(2)+(3)-(4)]
DOCKED: USER
DOCKED: USER    (1) Final Intermolecular Energy     =  -9.37 kcal/mol
DOCKED: USER        vdW + Hbond + desolv Energy     =  -9.35 kcal/mol
DOCKED: USER        Electrostatic Energy            =  -0.03 kcal/mol
DOCKED: USER        Moving Ligand-Fixed Receptor    =  -9.37 kcal/mol
DOCKED: USER        Moving Ligand-Moving Receptor   =  +0.00 kcal/mol
DOCKED: USER    (2) Final Total Internal Energy     =  -1.41 kcal/mol
DOCKED: USER    (3) Torsional Free Energy           =  +2.39 kcal/mol
DOCKED: USER    (4) Unbound System's Energy         =  -1.41 kcal/mol
DOCKED: USER
DOCKED: USER
DOCKED: REMARK SMILES OC(=C/c1ccc(-c2ccc(C(F)(F)F)nc2)cc1)/N=c1\nc(-c2cccs2)cc[nH]1
DOCKED: REMARK SMILES IDX 3 1 2 2 1 3 20 5 21 6 22 7 31 8 23 9 30 10 29 11 24 13 28 14
DOCKED: REMARK SMILES IDX 25 15 27 16 26 17 4 18 5 19 19 20 6 21 18 22 7 23 8 24 17 25
DOCKED: REMARK SMILES IDX 9 26 16 27 10 28 11 29 12 30 13 31 14 32 15 33
DOCKED: REMARK H PARENT 1 4 31 12
DOCKED: USER                              x       y       z     vdW  Elec       q    Type
DOCKED: USER                           _______ _______ _______ _____ _____    ______ ____
DOCKED: ROOT
DOCKED: ATOM      1  C   UNL     1     140.984  75.594 221.696 -0.31 -0.02    +0.076 C  
DOCKED: ENDROOT
DOCKED: BRANCH   1   2
DOCKED: ATOM      2  C   UNL     1     140.461  74.364 221.545 -0.23 -0.03    +0.214 C  
DOCKED: BRANCH   2   3
DOCKED: ATOM      3  O   UNL     1     139.506  74.174 220.551 -0.02 +0.10    -0.493 OA 
DOCKED: ATOM      4  H   UNL     1     139.543  74.703 219.688 +0.05 -0.07    +0.295 HD 
DOCKED: ENDBRANCH   2   3
DOCKED: BRANCH   2   5
DOCKED: ATOM      5  N   UNL     1     140.854  73.228 222.340 -0.59 -0.00    -0.177 NA 
DOCKED: BRANCH   5   6
DOCKED: ATOM      6  C   UNL     1     140.058  72.407 222.964 -0.19 -0.03    +0.230 A  
DOCKED: ATOM      7  N   UNL     1     140.409  71.865 224.162 -0.29 +0.03    -0.212 NA 
DOCKED: ATOM      8  N   UNL     1     138.862  72.078 222.403 -0.10 +0.08    -0.331 N  
DOCKED: ATOM      9  C   UNL     1     139.615  70.965 224.801 -0.39 -0.02    +0.086 A  
DOCKED: ATOM     10  C   UNL     1     138.029  71.192 223.010 -0.18 -0.02    +0.088 A  
DOCKED: ATOM     11  C   UNL     1     138.391  70.608 224.223 -0.29 -0.01    +0.048 A  
DOCKED: ATOM     12  H   UNL     1     138.579  72.494 221.487 +0.03 -0.04    +0.169 HD 
DOCKED: BRANCH   9  13
DOCKED: ATOM     13  C   UNL     1     140.077  70.362 226.065 -0.49 -0.01    +0.053 A  
DOCKED: ATOM     14  S   UNL     1     140.043  68.725 226.462 -0.62 +0.02    -0.142 S  
DOCKED: ATOM     15  C   UNL     1     140.657  71.052 227.126 -0.67 -0.00    +0.022 A  
DOCKED: ATOM     16  C   UNL     1     140.758  68.879 227.975 -0.59 -0.01    +0.065 A  
DOCKED: ATOM     17  C   UNL     1     141.036  70.222 228.188 -0.58 -0.00    +0.012 A  
DOCKED: ENDBRANCH   9  13
DOCKED: ENDBRANCH   5   6
DOCKED: ENDBRANCH   2   5
DOCKED: ENDBRANCH   1   2
DOCKED: BRANCH   1  18
DOCKED: ATOM     18  C   UNL     1     140.269  76.767 222.246 -0.39 +0.01    -0.020 A  
DOCKED: ATOM     19  C   UNL     1     141.013  77.866 222.693 -0.48 -0.00    +0.009 A  
DOCKED: ATOM     20  C   UNL     1     138.867  76.807 222.332 -0.32 -0.00    +0.009 A  
DOCKED: ATOM     21  C   UNL     1     140.369  79.022 223.144 -0.45 -0.00    +0.009 A  
DOCKED: ATOM     22  C   UNL     1     138.222  77.961 222.784 -0.26 -0.00    +0.009 A  
DOCKED: ATOM     23  C   UNL     1     138.965  79.087 223.179 -0.33 +0.00    -0.017 A  
DOCKED: BRANCH  23  24
DOCKED: ATOM     24  C   UNL     1     138.278  80.328 223.619 -0.36 -0.00    +0.000 A  
DOCKED: ATOM     25  C   UNL     1     137.944  81.335 222.696 -0.17 -0.02    +0.120 A  
DOCKED: ATOM     26  C   UNL     1     137.938  80.523 224.968 -0.31 -0.00    +0.012 A  
DOCKED: ATOM     27  N   UNL     1     137.308  82.462 223.110 -0.09 +0.02    -0.251 NA 
DOCKED: ATOM     28  C   UNL     1     137.283  81.689 225.367 -0.39 -0.00    +0.034 A  
DOCKED: ATOM     29  C   UNL     1     136.968  82.663 224.413 -0.14 -0.01    +0.144 A  
DOCKED: BRANCH  29  30
DOCKED: ATOM     30  C   UNL     1     136.270  83.927 224.821 -0.04 -0.02    +0.433 C  
DOCKED: ATOM     31  F   UNL     1     134.914  83.845 224.552 -0.01 +0.01    -0.165 F  
DOCKED: ATOM     32  F   UNL     1     136.800  84.996 224.122 -0.05 +0.01    -0.165 F  
DOCKED: ATOM     33  F   UNL     1     136.443  84.140 226.176 -0.08 +0.00    -0.165 F  
DOCKED: ENDBRANCH  29  30
DOCKED: ENDBRANCH  23  24
DOCKED: ENDBRANCH   1  18
DOCKED: TORSDOF 8
DOCKED: TER
DOCKED: ENDMDL
________________________________________________________________________________


    FINAL DOCKED STATE:
    ________________________


Run:   7 / 20
Time taken for this run:   0.031s

DOCKED: MODEL        7
DOCKED: USER    Run = 7
DOCKED: USER
DOCKED: USER    Estimated Free Energy of Binding    =  -6.93 kcal/mol  [=(1)+(2)+(3)-(4)]
DOCKED: USER
DOCKED: USER    (1) Final Intermolecular Energy     =  -9.32 kcal/mol
DOCKED: USER        vdW + Hbond + desolv Energy     =  -9.30 kcal/mol
DOCKED: USER        Electrostatic Energy            =  -0.02 kcal/mol
DOCKED: USER        Moving Ligand-Fixed Receptor    =  -9.32 kcal/mol
DOCKED: USER        Moving Ligand-Moving Receptor   =  +0.00 kcal/mol
DOCKED: USER    (2) Final Total Internal Energy     =  -1.36 kcal/mol
DOCKED: USER    (3) Torsional Free Energy           =  +2.39 kcal/mol
DOCKED: USER    (4) Unbound System's Energy         =  -1.36 kcal/mol
DOCKED: USER
DOCKED: USER
DOCKED: REMARK SMILES OC(=C/c1ccc(-c2ccc(C(F)(F)F)nc2)cc1)/N=c1\nc(-c2cccs2)cc[nH]1
DOCKED: REMARK SMILES IDX 3 1 2 2 1 3 20 5 21 6 22 7 31 8 23 9 30 10 29 11 24 13 28 14
DOCKED: REMARK SMILES IDX 25 15 27 16 26 17 4 18 5 19 19 20 6 21 18 22 7 23 8 24 17 25
DOCKED: REMARK SMILES IDX 9 26 16 27 10 28 11 29 12 30 13 31 14 32 15 33
DOCKED: REMARK H PARENT 1 4 31 12
DOCKED: USER                              x       y       z     vdW  Elec       q    Type
DOCKED: USER                           _______ _______ _______ _____ _____    ______ ____
DOCKED: ROOT
DOCKED: ATOM      1  C   UNL     1     141.826  74.457 220.783 -0.26 -0.02    +0.076 C  
DOCKED: ENDROOT
DOCKED: BRANCH   1   2
DOCKED: ATOM      2  C   UNL     1     140.839  73.575 221.025 -0.18 -0.03    +0.214 C  
DOCKED: BRANCH   2   3
DOCKED: ATOM      3  O   UNL     1     140.344  72.835 219.957 +0.00 +0.09    -0.493 OA 
DOCKED: ATOM      4  H   UNL     1     140.972  72.406 219.287 +0.06 -0.05    +0.295 HD 
DOCKED: ENDBRANCH   2   3
DOCKED: BRANCH   2   5
DOCKED: ATOM      5  N   UNL     1     140.284  73.342 222.335 -0.76 +0.01    -0.177 NA 
DOCKED: BRANCH   5   6
DOCKED: ATOM      6  C   UNL     1     139.988  72.185 222.854 -0.24 -0.04    +0.230 A  
DOCKED: ATOM      7  N   UNL     1     140.267  71.909 224.158 -0.29 +0.04    -0.212 NA 
DOCKED: ATOM      8  N   UNL     1     139.400  71.232 222.078 -0.08 +0.06    -0.331 N  
DOCKED: ATOM      9  C   UNL     1     140.014  70.689 224.701 -0.40 -0.01    +0.086 A  
DOCKED: ATOM     10  C   UNL     1     139.118  70.002 222.580 -0.17 -0.02    +0.088 A  
DOCKED: ATOM     11  C   UNL     1     139.427  69.699 223.906 -0.27 -0.01    +0.048 A  
DOCKED: ATOM     12  H   UNL     1     139.175  71.436 221.078 +0.04 -0.03    +0.169 HD 
DOCKED: BRANCH   9  13
DOCKED: ATOM     13  C   UNL     1     140.397  70.428 226.102 -0.52 -0.01    +0.053 A  
DOCKED: ATOM     14  S   UNL     1     140.548  68.917 226.831 -0.65 +0.03    -0.142 S  
DOCKED: ATOM     15  C   UNL     1     140.737  71.397 227.041 -0.71 -0.00    +0.022 A  
DOCKED: ATOM     16  C   UNL     1     141.041  69.478 228.336 -0.53 -0.01    +0.065 A  
DOCKED: ATOM     17  C   UNL     1     141.096  70.864 228.285 -0.62 -0.00    +0.012 A  
DOCKED: ENDBRANCH   9  13
DOCKED: ENDBRANCH   5   6
DOCKED: ENDBRANCH   2   5
DOCKED: ENDBRANCH   1   2
DOCKED: BRANCH   1  18
DOCKED: ATOM     18  C   UNL     1     141.701  75.929 220.870 -0.25 +0.01    -0.020 A  
DOCKED: ATOM     19  C   UNL     1     142.236  76.717 219.843 -0.32 -0.01    +0.009 A  
DOCKED: ATOM     20  C   UNL     1     141.064  76.555 221.954 -0.37 -0.00    +0.009 A  
DOCKED: ATOM     21  C   UNL     1     142.067  78.104 219.853 -0.26 -0.01    +0.009 A  
DOCKED: ATOM     22  C   UNL     1     140.895  77.942 221.966 -0.39 -0.00    +0.009 A  
DOCKED: ATOM     23  C   UNL     1     141.380  78.731 220.909 -0.32 +0.01    -0.017 A  
DOCKED: BRANCH  23  24
DOCKED: ATOM     24  C   UNL     1     141.164  80.200 220.901 -0.31 -0.00    +0.000 A  
DOCKED: ATOM     25  C   UNL     1     140.493  80.826 219.835 -0.14 -0.04    +0.120 A  
DOCKED: ATOM     26  C   UNL     1     141.616  80.999 221.964 -0.45 -0.00    +0.012 A  
DOCKED: ATOM     27  N   UNL     1     140.294  82.170 219.845 -0.09 +0.07    -0.251 NA 
DOCKED: ATOM     28  C   UNL     1     141.397  82.377 221.950 -0.35 -0.01    +0.034 A  
DOCKED: ATOM     29  C   UNL     1     140.722  82.957 220.869 -0.23 -0.03    +0.144 A  
DOCKED: BRANCH  29  30
DOCKED: ATOM     30  C   UNL     1     140.482  84.438 220.831 -0.09 -0.07    +0.433 C  
DOCKED: ATOM     31  F   UNL     1     139.220  84.740 221.315 -0.06 +0.02    -0.165 F  
DOCKED: ATOM     32  F   UNL     1     140.580  84.890 219.528 -0.05 +0.04    -0.165 F  
DOCKED: ATOM     33  F   UNL     1     141.424  85.085 221.609 -0.03 +0.02    -0.165 F  
DOCKED: ENDBRANCH  29  30
DOCKED: ENDBRANCH  23  24
DOCKED: ENDBRANCH   1  18
DOCKED: TORSDOF 8
DOCKED: TER
DOCKED: ENDMDL
________________________________________________________________________________


    FINAL DOCKED STATE:
    ________________________


Run:   8 / 20
Time taken for this run:   0.031s

DOCKED: MODEL        8
DOCKED: USER    Run = 8
DOCKED: USER
DOCKED: USER    Estimated Free Energy of Binding    =  -6.74 kcal/mol  [=(1)+(2)+(3)-(4)]
DOCKED: USER
DOCKED: USER    (1) Final Intermolecular Energy     =  -9.13 kcal/mol
DOCKED: USER        vdW + Hbond + desolv Energy     =  -8.99 kcal/mol
DOCKED: USER        Electrostatic Energy            =  -0.13 kcal/mol
DOCKED: USER        Moving Ligand-Fixed Receptor    =  -9.13 kcal/mol
DOCKED: USER        Moving Ligand-Moving Receptor   =  +0.00 kcal/mol
DOCKED: USER    (2) Final Total Internal Energy     =  -1.21 kcal/mol
DOCKED: USER    (3) Torsional Free Energy           =  +2.39 kcal/mol
DOCKED: USER    (4) Unbound System's Energy         =  -1.21 kcal/mol
DOCKED: USER
DOCKED: USER
DOCKED: REMARK SMILES OC(=C/c1ccc(-c2ccc(C(F)(F)F)nc2)cc1)/N=c1\nc(-c2cccs2)cc[nH]1
DOCKED: REMARK SMILES IDX 3 1 2 2 1 3 20 5 21 6 22 7 31 8 23 9 30 10 29 11 24 13 28 14
DOCKED: REMARK SMILES IDX 25 15 27 16 26 17 4 18 5 19 19 20 6 21 18 22 7 23 8 24 17 25
DOCKED: REMARK SMILES IDX 9 26 16 27 10 28 11 29 12 30 13 31 14 32 15 33
DOCKED: REMARK H PARENT 1 4 31 12
DOCKED: USER                              x       y       z     vdW  Elec       q    Type
DOCKED: USER                           _______ _______ _______ _____ _____    ______ ____
DOCKED: ROOT
DOCKED: ATOM      1  C   UNL     1     143.519  76.091 219.485 -0.34 -0.05    +0.076 C  
DOCKED: ENDROOT
DOCKED: BRANCH   1   2
DOCKED: ATOM      2  C   UNL     1     143.470  76.379 218.172 -0.13 -0.13    +0.214 C  
DOCKED: BRANCH   2   3
DOCKED: ATOM      3  O   UNL     1     144.047  75.480 217.281 -0.07 +0.27    -0.493 OA 
DOCKED: ATOM      4  H   UNL     1     145.053  75.359 217.244 -0.46 -0.21    +0.295 HD 
DOCKED: ENDBRANCH   2   3
DOCKED: BRANCH   2   5
DOCKED: ATOM      5  N   UNL     1     142.833  77.557 217.639 -0.23 +0.13    -0.177 NA 
DOCKED: BRANCH   5   6
DOCKED: ATOM      6  C   UNL     1     142.553  78.648 218.293 -0.23 -0.19    +0.230 A  
DOCKED: ATOM      7  N   UNL     1     142.161  78.602 219.597 -0.16 +0.15    -0.212 NA 
DOCKED: ATOM      8  N   UNL     1     142.642  79.850 217.661 -0.16 +0.36    -0.331 N  
DOCKED: ATOM      9  C   UNL     1     141.813  79.726 220.279 -0.28 -0.05    +0.086 A  
DOCKED: ATOM     10  C   UNL     1     142.315  81.001 218.306 -0.28 -0.06    +0.088 A  
DOCKED: ATOM     11  C   UNL     1     141.885  80.964 219.631 -0.25 -0.02    +0.048 A  
DOCKED: ATOM     12  H   UNL     1     142.948  79.897 216.663 -0.51 -0.30    +0.169 HD 
DOCKED: BRANCH   9  13
DOCKED: ATOM     13  C   UNL     1     141.335  79.607 221.670 -0.36 -0.02    +0.053 A  
DOCKED: ATOM     14  S   UNL     1     139.735  79.705 222.187 -0.29 +0.03    -0.142 S  
DOCKED: ATOM     15  C   UNL     1     142.134  79.354 222.781 -0.57 -0.01    +0.022 A  
DOCKED: ATOM     16  C   UNL     1     140.042  79.431 223.816 -0.41 -0.01    +0.065 A  
DOCKED: ATOM     17  C   UNL     1     141.410  79.256 223.976 -0.56 -0.00    +0.012 A  
DOCKED: ENDBRANCH   9  13
DOCKED: ENDBRANCH   5   6
DOCKED: ENDBRANCH   2   5
DOCKED: ENDBRANCH   1   2
DOCKED: BRANCH   1  18
DOCKED: ATOM     18  C   UNL     1     142.623  75.146 220.189 -0.31 +0.01    -0.020 A  
DOCKED: ATOM     19  C   UNL     1     142.936  73.780 220.181 -0.29 -0.00    +0.009 A  
DOCKED: ATOM     20  C   UNL     1     141.468  75.581 220.861 -0.30 -0.00    +0.009 A  
DOCKED: ATOM     21  C   UNL     1     142.156  72.871 220.900 -0.26 -0.00    +0.009 A  
DOCKED: ATOM     22  C   UNL     1     140.688  74.672 221.580 -0.33 -0.00    +0.009 A  
DOCKED: ATOM     23  C   UNL     1     141.032  73.310 221.621 -0.29 +0.00    -0.017 A  
DOCKED: BRANCH  23  24
DOCKED: ATOM     24  C   UNL     1     140.226  72.352 222.420 -0.33 -0.00    +0.000 A  
DOCKED: ATOM     25  C   UNL     1     138.984  71.888 221.954 -0.16 -0.03    +0.120 A  
DOCKED: ATOM     26  C   UNL     1     140.691  71.878 223.658 -0.32 -0.00    +0.012 A  
DOCKED: ATOM     27  N   UNL     1     138.261  71.004 222.691 -0.10 +0.05    -0.251 NA 
DOCKED: ATOM     28  C   UNL     1     139.930  70.970 224.395 -0.42 -0.01    +0.034 A  
DOCKED: ATOM     29  C   UNL     1     138.699  70.533 223.890 -0.24 -0.03    +0.144 A  
DOCKED: BRANCH  29  30
DOCKED: ATOM     30  C   UNL     1     137.862  69.561 224.669 -0.11 -0.05    +0.433 C  
DOCKED: ATOM     31  F   UNL     1     136.599  70.081 224.899 -0.07 +0.01    -0.165 F  
DOCKED: ATOM     32  F   UNL     1     138.466  69.300 225.885 -0.11 +0.01    -0.165 F  
DOCKED: ATOM     33  F   UNL     1     137.735  68.381 223.961 -0.05 +0.01    -0.165 F  
DOCKED: ENDBRANCH  29  30
DOCKED: ENDBRANCH  23  24
DOCKED: ENDBRANCH   1  18
DOCKED: TORSDOF 8
DOCKED: TER
DOCKED: ENDMDL
________________________________________________________________________________


    FINAL DOCKED STATE:
    ________________________


Run:   9 / 20
Time taken for this run:   0.031s

DOCKED: MODEL        9
DOCKED: USER    Run = 9
DOCKED: USER
DOCKED: USER    Estimated Free Energy of Binding    =  -6.80 kcal/mol  [=(1)+(2)+(3)-(4)]
DOCKED: USER
DOCKED: USER    (1) Final Intermolecular Energy     =  -9.19 kcal/mol
DOCKED: USER        vdW + Hbond + desolv Energy     =  -9.07 kcal/mol
DOCKED: USER        Electrostatic Energy            =  -0.12 kcal/mol
DOCKED: USER        Moving Ligand-Fixed Receptor    =  -9.19 kcal/mol
DOCKED: USER        Moving Ligand-Moving Receptor   =  +0.00 kcal/mol
DOCKED: USER    (2) Final Total Internal Energy     =  -1.35 kcal/mol
DOCKED: USER    (3) Torsional Free Energy           =  +2.39 kcal/mol
DOCKED: USER    (4) Unbound System's Energy         =  -1.35 kcal/mol
DOCKED: USER
DOCKED: USER
DOCKED: REMARK SMILES OC(=C/c1ccc(-c2ccc(C(F)(F)F)nc2)cc1)/N=c1\nc(-c2cccs2)cc[nH]1
DOCKED: REMARK SMILES IDX 3 1 2 2 1 3 20 5 21 6 22 7 31 8 23 9 30 10 29 11 24 13 28 14
DOCKED: REMARK SMILES IDX 25 15 27 16 26 17 4 18 5 19 19 20 6 21 18 22 7 23 8 24 17 25
DOCKED: REMARK SMILES IDX 9 26 16 27 10 28 11 29 12 30 13 31 14 32 15 33
DOCKED: REMARK H PARENT 1 4 31 12
DOCKED: USER                              x       y       z     vdW  Elec       q    Type
DOCKED: USER                           _______ _______ _______ _____ _____    ______ ____
DOCKED: ROOT
DOCKED: ATOM      1  C   UNL     1     141.420  75.419 219.603 -0.16 -0.03    +0.076 C  
DOCKED: ENDROOT
DOCKED: BRANCH   1   2
DOCKED: ATOM      2  C   UNL     1     141.725  76.691 219.917 -0.19 -0.11    +0.214 C  
DOCKED: BRANCH   2   3
DOCKED: ATOM      3  O   UNL     1     143.031  77.124 219.708 -0.15 +0.39    -0.493 OA 
DOCKED: ATOM      4  H   UNL     1     143.698  77.149 220.470 -0.42 -0.35    +0.295 HD 
DOCKED: ENDBRANCH   2   3
DOCKED: BRANCH   2   5
DOCKED: ATOM      5  N   UNL     1     140.767  77.635 220.435 -0.13 +0.07    -0.177 NA 
DOCKED: BRANCH   5   6
DOCKED: ATOM      6  C   UNL     1     140.939  78.434 221.450 -0.21 -0.09    +0.230 A  
DOCKED: ATOM      7  N   UNL     1     139.890  79.110 221.994 -0.14 +0.05    -0.212 NA 
DOCKED: ATOM      8  N   UNL     1     142.187  78.603 221.966 -0.14 +0.22    -0.331 N  
DOCKED: ATOM      9  C   UNL     1     140.059  79.988 223.018 -0.35 -0.02    +0.086 A  
DOCKED: ATOM     10  C   UNL     1     142.403  79.462 222.997 -0.55 -0.04    +0.088 A  
DOCKED: ATOM     11  C   UNL     1     141.342  80.182 223.543 -0.52 -0.01    +0.048 A  
DOCKED: ATOM     12  H   UNL     1     142.998  78.083 221.560 -0.49 -0.21    +0.169 HD 
DOCKED: BRANCH   9  13
DOCKED: ATOM     13  C   UNL     1     138.896  80.741 223.525 -0.35 -0.01    +0.053 A  
DOCKED: ATOM     14  S   UNL     1     138.065  81.960 222.711 -0.20 +0.02    -0.142 S  
DOCKED: ATOM     15  C   UNL     1     138.269  80.534 224.750 -0.29 -0.00    +0.022 A  
DOCKED: ATOM     16  C   UNL     1     136.911  82.234 223.903 -0.20 -0.01    +0.065 A  
DOCKED: ATOM     17  C   UNL     1     137.163  81.367 224.957 -0.37 -0.00    +0.012 A  
DOCKED: ENDBRANCH   9  13
DOCKED: ENDBRANCH   5   6
DOCKED: ENDBRANCH   2   5
DOCKED: ENDBRANCH   1   2
DOCKED: BRANCH   1  18
DOCKED: ATOM     18  C   UNL     1     141.086  74.354 220.575 -0.23 +0.00    -0.020 A  
DOCKED: ATOM     19  C   UNL     1     141.936  73.246 220.685 -0.25 -0.00    +0.009 A  
DOCKED: ATOM     20  C   UNL     1     139.941  74.423 221.386 -0.27 -0.00    +0.009 A  
DOCKED: ATOM     21  C   UNL     1     141.695  72.260 221.646 -0.19 -0.00    +0.009 A  
DOCKED: ATOM     22  C   UNL     1     139.698  73.438 222.347 -0.20 -0.00    +0.009 A  
DOCKED: ATOM     23  C   UNL     1     140.581  72.354 222.499 -0.32 +0.00    -0.017 A  
DOCKED: BRANCH  23  24
DOCKED: ATOM     24  C   UNL     1     140.345  71.330 223.548 -0.38 -0.00    +0.000 A  
DOCKED: ATOM     25  C   UNL     1     140.812  71.520 224.861 -0.38 -0.01    +0.120 A  
DOCKED: ATOM     26  C   UNL     1     139.642  70.150 223.256 -0.24 -0.00    +0.012 A  
DOCKED: ATOM     27  N   UNL     1     140.582  70.579 225.813 -0.31 +0.04    -0.251 NA 
DOCKED: ATOM     28  C   UNL     1     139.417  69.200 224.254 -0.29 -0.01    +0.034 A  
DOCKED: ATOM     29  C   UNL     1     139.898  69.432 225.548 -0.35 -0.02    +0.144 A  
DOCKED: BRANCH  29  30
DOCKED: ATOM     30  C   UNL     1     139.674  68.421 226.634 -0.26 -0.07    +0.433 C  
DOCKED: ATOM     31  F   UNL     1     138.736  67.482 226.239 -0.16 -0.01    -0.165 F  
DOCKED: ATOM     32  F   UNL     1     139.216  69.058 227.773 -0.17 +0.02    -0.165 F  
DOCKED: ATOM     33  F   UNL     1     140.861  67.773 226.921 -0.24 +0.04    -0.165 F  
DOCKED: ENDBRANCH  29  30
DOCKED: ENDBRANCH  23  24
DOCKED: ENDBRANCH   1  18
DOCKED: TORSDOF 8
DOCKED: TER
DOCKED: ENDMDL
________________________________________________________________________________


    FINAL DOCKED STATE:
    ________________________


Run:   10 / 20
Time taken for this run:   0.031s

DOCKED: MODEL        10
DOCKED: USER    Run = 10
DOCKED: USER
DOCKED: USER    Estimated Free Energy of Binding    =  -5.73 kcal/mol  [=(1)+(2)+(3)-(4)]
DOCKED: USER
DOCKED: USER    (1) Final Intermolecular Energy     =  -8.12 kcal/mol
DOCKED: USER        vdW + Hbond + desolv Energy     =  -7.91 kcal/mol
DOCKED: USER        Electrostatic Energy            =  -0.21 kcal/mol
DOCKED: USER        Moving Ligand-Fixed Receptor    =  -8.12 kcal/mol
DOCKED: USER        Moving Ligand-Moving Receptor   =  +0.00 kcal/mol
DOCKED: USER    (2) Final Total Internal Energy     =  -2.30 kcal/mol
DOCKED: USER    (3) Torsional Free Energy           =  +2.39 kcal/mol
DOCKED: USER    (4) Unbound System's Energy         =  -2.30 kcal/mol
DOCKED: USER
DOCKED: USER
DOCKED: REMARK SMILES OC(=C/c1ccc(-c2ccc(C(F)(F)F)nc2)cc1)/N=c1\nc(-c2cccs2)cc[nH]1
DOCKED: REMARK SMILES IDX 3 1 2 2 1 3 20 5 21 6 22 7 31 8 23 9 30 10 29 11 24 13 28 14
DOCKED: REMARK SMILES IDX 25 15 27 16 26 17 4 18 5 19 19 20 6 21 18 22 7 23 8 24 17 25
DOCKED: REMARK SMILES IDX 9 26 16 27 10 28 11 29 12 30 13 31 14 32 15 33
DOCKED: REMARK H PARENT 1 4 31 12
DOCKED: USER                              x       y       z     vdW  Elec       q    Type
DOCKED: USER                           _______ _______ _______ _____ _____    ______ ____
DOCKED: ROOT
DOCKED: ATOM      1  C   UNL     1     139.842  74.933 220.603 -0.16 -0.02    +0.076 C  
DOCKED: ENDROOT
DOCKED: BRANCH   1   2
DOCKED: ATOM      2  C   UNL     1     139.342  74.742 221.837 -0.20 -0.04    +0.214 C  
DOCKED: BRANCH   2   3
DOCKED: ATOM      3  O   UNL     1     139.924  73.764 222.637 -0.65 +0.00    -0.493 OA 
DOCKED: ATOM      4  H   UNL     1     139.412  73.350 223.407 -0.37 -0.13    +0.295 HD 
DOCKED: ENDBRANCH   2   3
DOCKED: BRANCH   2   5
DOCKED: ATOM      5  N   UNL     1     138.254  75.514 222.383 -0.21 +0.05    -0.177 NA 
DOCKED: BRANCH   5   6
DOCKED: ATOM      6  C   UNL     1     138.220  76.808 222.528 -0.21 -0.05    +0.230 A  
DOCKED: ATOM      7  N   UNL     1     139.368  77.532 222.629 -0.21 +0.04    -0.212 NA 
DOCKED: ATOM      8  N   UNL     1     137.017  77.444 222.591 -0.10 +0.06    -0.331 N  
DOCKED: ATOM      9  C   UNL     1     139.350  78.876 222.834 -0.29 -0.02    +0.086 A  
DOCKED: ATOM     10  C   UNL     1     136.950  78.787 222.784 -0.16 -0.01    +0.088 A  
DOCKED: ATOM     11  C   UNL     1     138.118  79.535 222.918 -0.25 -0.01    +0.048 A  
DOCKED: ATOM     12  H   UNL     1     136.130  76.898 222.507 +0.04 -0.03    +0.169 HD 
DOCKED: BRANCH   9  13
DOCKED: ATOM     13  C   UNL     1     140.626  79.599 222.999 -0.41 -0.01    +0.053 A  
DOCKED: ATOM     14  S   UNL     1     141.976  79.058 223.850 -0.60 +0.04    -0.142 S  
DOCKED: ATOM     15  C   UNL     1     140.934  80.835 222.441 -0.40 -0.00    +0.022 A  
DOCKED: ATOM     16  C   UNL     1     142.955  80.384 223.519 -0.62 -0.02    +0.065 A  
DOCKED: ATOM     17  C   UNL     1     142.232  81.270 222.732 -0.50 -0.00    +0.012 A  
DOCKED: ENDBRANCH   9  13
DOCKED: ENDBRANCH   5   6
DOCKED: ENDBRANCH   2   5
DOCKED: ENDBRANCH   1   2
DOCKED: BRANCH   1  18
DOCKED: ATOM     18  C   UNL     1     140.344  76.219 220.070 -0.14 +0.01    -0.020 A  
DOCKED: ATOM     19  C   UNL     1     139.530  76.958 219.201 -0.06 -0.00    +0.009 A  
DOCKED: ATOM     20  C   UNL     1     141.612  76.718 220.411 -0.28 -0.00    +0.009 A  
DOCKED: ATOM     21  C   UNL     1     139.939  78.213 218.743 -0.07 -0.00    +0.009 A  
DOCKED: ATOM     22  C   UNL     1     142.023  77.972 219.953 -0.28 -0.01    +0.009 A  
DOCKED: ATOM     23  C   UNL     1     141.185  78.740 219.127 -0.19 +0.01    -0.017 A  
DOCKED: BRANCH  23  24
DOCKED: ATOM     24  C   UNL     1     141.603  80.091 218.674 -0.25 -0.00    +0.000 A  
DOCKED: ATOM     25  C   UNL     1     140.866  81.234 219.031 -0.15 -0.05    +0.120 A  
DOCKED: ATOM     26  C   UNL     1     142.753  80.261 217.886 -0.31 -0.01    +0.012 A  
DOCKED: ATOM     27  N   UNL     1     141.265  82.465 218.617 -0.11 +0.09    -0.251 NA 
DOCKED: ATOM     28  C   UNL     1     143.143  81.537 217.475 -0.31 -0.04    +0.034 A  
DOCKED: ATOM     29  C   UNL     1     142.379  82.647 217.856 -0.21 -0.08    +0.144 A  
DOCKED: BRANCH  29  30
DOCKED: ATOM     30  C   UNL     1     142.776  84.027 217.421 -0.06 -0.19    +0.433 C  
DOCKED: ATOM     31  F   UNL     1     144.142  84.206 217.555 -0.13 +0.08    -0.165 F  
DOCKED: ATOM     32  F   UNL     1     142.124  84.965 218.201 -0.03 +0.05    -0.165 F  
DOCKED: ATOM     33  F   UNL     1     142.428  84.217 216.096 -0.03 +0.07    -0.165 F  
DOCKED: ENDBRANCH  29  30
DOCKED: ENDBRANCH  23  24
DOCKED: ENDBRANCH   1  18
DOCKED: TORSDOF 8
DOCKED: TER
DOCKED: ENDMDL
________________________________________________________________________________


    FINAL DOCKED STATE:
    ________________________


Run:   11 / 20
Time taken for this run:   0.031s

DOCKED: MODEL        11
DOCKED: USER    Run = 11
DOCKED: USER
DOCKED: USER    Estimated Free Energy of Binding    =  -6.03 kcal/mol  [=(1)+(2)+(3)-(4)]
DOCKED: USER
DOCKED: USER    (1) Final Intermolecular Energy     =  -8.42 kcal/mol
DOCKED: USER        vdW + Hbond + desolv Energy     =  -8.23 kcal/mol
DOCKED: USER        Electrostatic Energy            =  -0.18 kcal/mol
DOCKED: USER        Moving Ligand-Fixed Receptor    =  -8.42 kcal/mol
DOCKED: USER        Moving Ligand-Moving Receptor   =  +0.00 kcal/mol
DOCKED: USER    (2) Final Total Internal Energy     =  -2.16 kcal/mol
DOCKED: USER    (3) Torsional Free Energy           =  +2.39 kcal/mol
DOCKED: USER    (4) Unbound System's Energy         =  -2.16 kcal/mol
DOCKED: USER
DOCKED: USER
DOCKED: REMARK SMILES OC(=C/c1ccc(-c2ccc(C(F)(F)F)nc2)cc1)/N=c1\nc(-c2cccs2)cc[nH]1
DOCKED: REMARK SMILES IDX 3 1 2 2 1 3 20 5 21 6 22 7 31 8 23 9 30 10 29 11 24 13 28 14
DOCKED: REMARK SMILES IDX 25 15 27 16 26 17 4 18 5 19 19 20 6 21 18 22 7 23 8 24 17 25
DOCKED: REMARK SMILES IDX 9 26 16 27 10 28 11 29 12 30 13 31 14 32 15 33
DOCKED: REMARK H PARENT 1 4 31 12
DOCKED: USER                              x       y       z     vdW  Elec       q    Type
DOCKED: USER                           _______ _______ _______ _____ _____    ______ ____
DOCKED: ROOT
DOCKED: ATOM      1  C   UNL     1     140.043  75.128 220.623 -0.17 -0.02    +0.076 C  
DOCKED: ENDROOT
DOCKED: BRANCH   1   2
DOCKED: ATOM      2  C   UNL     1     139.437  74.826 221.785 -0.21 -0.04    +0.214 C  
DOCKED: BRANCH   2   3
DOCKED: ATOM      3  O   UNL     1     139.950  73.775 222.539 -0.68 +0.01    -0.493 OA 
DOCKED: ATOM      4  H   UNL     1     139.395  73.338 223.265 -0.39 -0.12    +0.295 HD 
DOCKED: ENDBRANCH   2   3
DOCKED: BRANCH   2   5
DOCKED: ATOM      5  N   UNL     1     138.301  75.548 222.301 -0.22 +0.05    -0.177 NA 
DOCKED: BRANCH   5   6
DOCKED: ATOM      6  C   UNL     1     138.245  76.824 222.554 -0.21 -0.04    +0.230 A  
DOCKED: ATOM      7  N   UNL     1     139.381  77.567 222.663 -0.21 +0.04    -0.212 NA 
DOCKED: ATOM      8  N   UNL     1     137.034  77.422 222.721 -0.11 +0.06    -0.331 N  
DOCKED: ATOM      9  C   UNL     1     139.344  78.889 222.979 -0.31 -0.02    +0.086 A  
DOCKED: ATOM     10  C   UNL     1     136.946  78.744 223.027 -0.15 -0.01    +0.088 A  
DOCKED: ATOM     11  C   UNL     1     138.103  79.507 223.171 -0.27 -0.01    +0.048 A  
DOCKED: ATOM     12  H   UNL     1     136.155  76.863 222.632 +0.04 -0.03    +0.169 HD 
DOCKED: BRANCH   9  13
DOCKED: ATOM     13  C   UNL     1     140.610  79.627 223.148 -0.43 -0.01    +0.053 A  
DOCKED: ATOM     14  S   UNL     1     142.130  78.954 223.419 -0.59 +0.05    -0.142 S  
DOCKED: ATOM     15  C   UNL     1     140.757  81.009 223.069 -0.43 -0.00    +0.022 A  
DOCKED: ATOM     16  C   UNL     1     142.982  80.403 223.440 -0.62 -0.02    +0.065 A  
DOCKED: ATOM     17  C   UNL     1     142.080  81.438 223.232 -0.53 -0.00    +0.012 A  
DOCKED: ENDBRANCH   9  13
DOCKED: ENDBRANCH   5   6
DOCKED: ENDBRANCH   2   5
DOCKED: ENDBRANCH   1   2
DOCKED: BRANCH   1  18
DOCKED: ATOM     18  C   UNL     1     140.443  76.487 220.192 -0.16 +0.01    -0.020 A  
DOCKED: ATOM     19  C   UNL     1     141.768  76.897 220.385 -0.29 -0.00    +0.009 A  
DOCKED: ATOM     20  C   UNL     1     139.530  77.375 219.599 -0.07 -0.00    +0.009 A  
DOCKED: ATOM     21  C   UNL     1     142.199  78.142 219.920 -0.23 -0.01    +0.009 A  
DOCKED: ATOM     22  C   UNL     1     139.959  78.620 219.134 -0.08 -0.00    +0.009 A  
DOCKED: ATOM     23  C   UNL     1     141.302  79.011 219.274 -0.22 +0.01    -0.017 A  
DOCKED: BRANCH  23  24
DOCKED: ATOM     24  C   UNL     1     141.768  80.317 218.742 -0.28 -0.00    +0.000 A  
DOCKED: ATOM     25  C   UNL     1     141.088  81.508 219.054 -0.17 -0.05    +0.120 A  
DOCKED: ATOM     26  C   UNL     1     142.904  80.395 217.921 -0.30 -0.01    +0.012 A  
DOCKED: ATOM     27  N   UNL     1     141.530  82.697 218.567 -0.12 +0.09    -0.251 NA 
DOCKED: ATOM     28  C   UNL     1     143.339  81.630 217.436 -0.30 -0.04    +0.034 A  
DOCKED: ATOM     29  C   UNL     1     142.632  82.790 217.774 -0.22 -0.08    +0.144 A  
DOCKED: BRANCH  29  30
DOCKED: ATOM     30  C   UNL     1     143.078  84.127 217.258 -0.08 -0.19    +0.433 C  
DOCKED: ATOM     31  F   UNL     1     142.842  84.227 215.897 -0.04 +0.07    -0.165 F  
DOCKED: ATOM     32  F   UNL     1     144.432  84.285 217.489 -0.16 +0.08    -0.165 F  
DOCKED: ATOM     33  F   UNL     1     142.385  85.133 217.906 -0.04 +0.05    -0.165 F  
DOCKED: ENDBRANCH  29  30
DOCKED: ENDBRANCH  23  24
DOCKED: ENDBRANCH   1  18
DOCKED: TORSDOF 8
DOCKED: TER
DOCKED: ENDMDL
________________________________________________________________________________


    FINAL DOCKED STATE:
    ________________________


Run:   12 / 20
Time taken for this run:   0.031s

DOCKED: MODEL        12
DOCKED: USER    Run = 12
DOCKED: USER
DOCKED: USER    Estimated Free Energy of Binding    =  -7.08 kcal/mol  [=(1)+(2)+(3)-(4)]
DOCKED: USER
DOCKED: USER    (1) Final Intermolecular Energy     =  -9.46 kcal/mol
DOCKED: USER        vdW + Hbond + desolv Energy     =  -9.34 kcal/mol
DOCKED: USER        Electrostatic Energy            =  -0.12 kcal/mol
DOCKED: USER        Moving Ligand-Fixed Receptor    =  -9.46 kcal/mol
DOCKED: USER        Moving Ligand-Moving Receptor   =  +0.00 kcal/mol
DOCKED: USER    (2) Final Total Internal Energy     =  -1.21 kcal/mol
DOCKED: USER    (3) Torsional Free Energy           =  +2.39 kcal/mol
DOCKED: USER    (4) Unbound System's Energy         =  -1.21 kcal/mol
DOCKED: USER
DOCKED: USER
DOCKED: REMARK SMILES OC(=C/c1ccc(-c2ccc(C(F)(F)F)nc2)cc1)/N=c1\nc(-c2cccs2)cc[nH]1
DOCKED: REMARK SMILES IDX 3 1 2 2 1 3 20 5 21 6 22 7 31 8 23 9 30 10 29 11 24 13 28 14
DOCKED: REMARK SMILES IDX 25 15 27 16 26 17 4 18 5 19 19 20 6 21 18 22 7 23 8 24 17 25
DOCKED: REMARK SMILES IDX 9 26 16 27 10 28 11 29 12 30 13 31 14 32 15 33
DOCKED: REMARK H PARENT 1 4 31 12
DOCKED: USER                              x       y       z     vdW  Elec       q    Type
DOCKED: USER                           _______ _______ _______ _____ _____    ______ ____
DOCKED: ROOT
DOCKED: ATOM      1  C   UNL     1     141.771  73.971 221.088 -0.21 -0.01    +0.076 C  
DOCKED: ENDROOT
DOCKED: BRANCH   1   2
DOCKED: ATOM      2  C   UNL     1     140.856  73.482 221.944 -0.12 -0.01    +0.214 C  
DOCKED: BRANCH   2   3
DOCKED: ATOM      3  O   UNL     1     139.627  74.127 222.030 -0.62 +0.07    -0.493 OA 
DOCKED: ATOM      4  H   UNL     1     139.115  74.156 222.904 -0.48 -0.11    +0.295 HD 
DOCKED: ENDBRANCH   2   3
DOCKED: BRANCH   2   5
DOCKED: ATOM      5  N   UNL     1     141.073  72.313 222.758 -0.23 +0.00    -0.177 NA 
DOCKED: BRANCH   5   6
DOCKED: ATOM      6  C   UNL     1     140.175  71.679 223.456 -0.27 -0.04    +0.230 A  
DOCKED: ATOM      7  N   UNL     1     140.517  70.992 224.581 -0.31 +0.03    -0.212 NA 
DOCKED: ATOM      8  N   UNL     1     138.876  71.693 223.048 -0.12 +0.09    -0.331 N  
DOCKED: ATOM      9  C   UNL     1     139.602  70.281 225.292 -0.39 -0.01    +0.086 A  
DOCKED: ATOM     10  C   UNL     1     137.924  71.006 223.733 -0.22 -0.02    +0.088 A  
DOCKED: ATOM     11  C   UNL     1     138.268  70.275 224.869 -0.21 -0.01    +0.048 A  
DOCKED: ATOM     12  H   UNL     1     138.601  72.223 222.191 +0.02 -0.04    +0.169 HD 
DOCKED: BRANCH   9  13
DOCKED: ATOM     13  C   UNL     1     140.044  69.504 226.466 -0.49 -0.01    +0.053 A  
DOCKED: ATOM     14  S   UNL     1     141.052  68.154 226.448 -0.65 +0.03    -0.142 S  
DOCKED: ATOM     15  C   UNL     1     139.728  69.790 227.790 -0.58 -0.00    +0.022 A  
DOCKED: ATOM     16  C   UNL     1     141.093  67.923 228.112 -0.50 -0.02    +0.065 A  
DOCKED: ATOM     17  C   UNL     1     140.314  68.907 228.706 -0.58 -0.00    +0.012 A  
DOCKED: ENDBRANCH   9  13
DOCKED: ENDBRANCH   5   6
DOCKED: ENDBRANCH   2   5
DOCKED: ENDBRANCH   1   2
DOCKED: BRANCH   1  18
DOCKED: ATOM     18  C   UNL     1     141.773  75.340 220.525 -0.28 +0.01    -0.020 A  
DOCKED: ATOM     19  C   UNL     1     141.220  76.384 221.279 -0.30 -0.00    +0.009 A  
DOCKED: ATOM     20  C   UNL     1     142.311  75.620 219.258 -0.24 -0.00    +0.009 A  
DOCKED: ATOM     21  C   UNL     1     141.276  77.700 220.813 -0.30 -0.00    +0.009 A  
DOCKED: ATOM     22  C   UNL     1     142.367  76.935 218.791 -0.29 -0.01    +0.009 A  
DOCKED: ATOM     23  C   UNL     1     141.865  77.992 219.570 -0.28 +0.01    -0.017 A  
DOCKED: BRANCH  23  24
DOCKED: ATOM     24  C   UNL     1     141.963  79.395 219.092 -0.29 -0.00    +0.000 A  
DOCKED: ATOM     25  C   UNL     1     141.544  80.465 219.902 -0.25 -0.05    +0.120 A  
DOCKED: ATOM     26  C   UNL     1     142.484  79.687 217.821 -0.32 -0.01    +0.012 A  
DOCKED: ATOM     27  N   UNL     1     141.647  81.744 219.456 -0.15 +0.09    -0.251 NA 
DOCKED: ATOM     28  C   UNL     1     142.581  81.010 217.387 -0.29 -0.03    +0.034 A  
DOCKED: ATOM     29  C   UNL     1     142.154  82.044 218.229 -0.22 -0.08    +0.144 A  
DOCKED: BRANCH  29  30
DOCKED: ATOM     30  C   UNL     1     142.243  83.473 217.780 -0.05 -0.18    +0.433 C  
DOCKED: ATOM     31  F   UNL     1     141.541  84.299 218.642 -0.04 +0.05    -0.165 F  
DOCKED: ATOM     32  F   UNL     1     141.708  83.594 216.510 -0.02 +0.07    -0.165 F  
DOCKED: ATOM     33  F   UNL     1     143.566  83.874 217.756 -0.08 +0.08    -0.165 F  
DOCKED: ENDBRANCH  29  30
DOCKED: ENDBRANCH  23  24
DOCKED: ENDBRANCH   1  18
DOCKED: TORSDOF 8
DOCKED: TER
DOCKED: ENDMDL
________________________________________________________________________________


    FINAL DOCKED STATE:
    ________________________


Run:   13 / 20
Time taken for this run:   0.031s

DOCKED: MODEL        13
DOCKED: USER    Run = 13
DOCKED: USER
DOCKED: USER    Estimated Free Energy of Binding    =  -6.54 kcal/mol  [=(1)+(2)+(3)-(4)]
DOCKED: USER
DOCKED: USER    (1) Final Intermolecular Energy     =  -8.92 kcal/mol
DOCKED: USER        vdW + Hbond + desolv Energy     =  -8.88 kcal/mol
DOCKED: USER        Electrostatic Energy            =  -0.04 kcal/mol
DOCKED: USER        Moving Ligand-Fixed Receptor    =  -8.92 kcal/mol
DOCKED: USER        Moving Ligand-Moving Receptor   =  +0.00 kcal/mol
DOCKED: USER    (2) Final Total Internal Energy     =  -1.36 kcal/mol
DOCKED: USER    (3) Torsional Free Energy           =  +2.39 kcal/mol
DOCKED: USER    (4) Unbound System's Energy         =  -1.36 kcal/mol
DOCKED: USER
DOCKED: USER
DOCKED: REMARK SMILES OC(=C/c1ccc(-c2ccc(C(F)(F)F)nc2)cc1)/N=c1\nc(-c2cccs2)cc[nH]1
DOCKED: REMARK SMILES IDX 3 1 2 2 1 3 20 5 21 6 22 7 31 8 23 9 30 10 29 11 24 13 28 14
DOCKED: REMARK SMILES IDX 25 15 27 16 26 17 4 18 5 19 19 20 6 21 18 22 7 23 8 24 17 25
DOCKED: REMARK SMILES IDX 9 26 16 27 10 28 11 29 12 30 13 31 14 32 15 33
DOCKED: REMARK H PARENT 1 4 31 12
DOCKED: USER                              x       y       z     vdW  Elec       q    Type
DOCKED: USER                           _______ _______ _______ _____ _____    ______ ____
DOCKED: ROOT
DOCKED: ATOM      1  C   UNL     1     141.080  76.223 221.708 -0.31 -0.03    +0.076 C  
DOCKED: ENDROOT
DOCKED: BRANCH   1   2
DOCKED: ATOM      2  C   UNL     1     140.603  75.001 221.411 -0.24 -0.04    +0.214 C  
DOCKED: BRANCH   2   3
DOCKED: ATOM      3  O   UNL     1     140.860  74.485 220.145 -0.02 +0.12    -0.493 OA 
DOCKED: ATOM      4  H   UNL     1     141.429  74.998 219.482 +0.09 -0.09    +0.295 HD 
DOCKED: ENDBRANCH   2   3
DOCKED: BRANCH   2   5
DOCKED: ATOM      5  N   UNL     1     139.861  74.189 222.343 -0.79 +0.01    -0.177 NA 
DOCKED: BRANCH   5   6
DOCKED: ATOM      6  C   UNL     1     139.859  72.888 222.404 -0.19 -0.03    +0.230 A  
DOCKED: ATOM      7  N   UNL     1     139.941  72.243 223.601 -0.27 +0.04    -0.212 NA 
DOCKED: ATOM      8  N   UNL     1     139.786  72.163 221.255 -0.07 +0.06    -0.331 N  
DOCKED: ATOM      9  C   UNL     1     139.994  70.887 223.680 -0.32 -0.01    +0.086 A  
DOCKED: ATOM     10  C   UNL     1     139.825  70.805 221.285 -0.13 -0.01    +0.088 A  
DOCKED: ATOM     11  C   UNL     1     139.938  70.134 222.502 -0.08 -0.01    +0.048 A  
DOCKED: ATOM     12  H   UNL     1     139.716  72.648 220.332 +0.04 -0.03    +0.169 HD 
DOCKED: BRANCH   9  13
DOCKED: ATOM     13  C   UNL     1     140.147  70.246 225.000 -0.41 -0.01    +0.053 A  
DOCKED: ATOM     14  S   UNL     1     139.593  68.717 225.437 -0.49 +0.02    -0.142 S  
DOCKED: ATOM     15  C   UNL     1     140.815  70.792 226.092 -0.59 -0.00    +0.022 A  
DOCKED: ATOM     16  C   UNL     1     140.191  68.737 227.008 -0.57 -0.01    +0.065 A  
DOCKED: ATOM     17  C   UNL     1     140.838  69.949 227.210 -0.58 -0.00    +0.012 A  
DOCKED: ENDBRANCH   9  13
DOCKED: ENDBRANCH   5   6
DOCKED: ENDBRANCH   2   5
DOCKED: ENDBRANCH   1   2
DOCKED: BRANCH   1  18
DOCKED: ATOM     18  C   UNL     1     140.307  77.316 222.339 -0.40 +0.01    -0.020 A  
DOCKED: ATOM     19  C   UNL     1     140.997  78.380 222.934 -0.49 -0.00    +0.009 A  
DOCKED: ATOM     20  C   UNL     1     138.902  77.313 222.359 -0.30 -0.00    +0.009 A  
DOCKED: ATOM     21  C   UNL     1     140.299  79.466 223.468 -0.47 -0.00    +0.009 A  
DOCKED: ATOM     22  C   UNL     1     138.203  78.398 222.893 -0.25 -0.00    +0.009 A  
DOCKED: ATOM     23  C   UNL     1     138.893  79.494 223.440 -0.36 +0.00    -0.017 A  
DOCKED: BRANCH  23  24
DOCKED: ATOM     24  C   UNL     1     138.150  80.665 223.970 -0.38 -0.00    +0.000 A  
DOCKED: ATOM     25  C   UNL     1     137.818  81.748 223.136 -0.18 -0.01    +0.120 A  
DOCKED: ATOM     26  C   UNL     1     137.754  80.716 225.316 -0.26 -0.00    +0.012 A  
DOCKED: ATOM     27  N   UNL     1     137.131  82.810 223.632 -0.07 +0.02    -0.251 NA 
DOCKED: ATOM     28  C   UNL     1     137.047  81.818 225.800 -0.42 -0.00    +0.034 A  
DOCKED: ATOM     29  C   UNL     1     136.736  82.873 224.933 -0.17 -0.01    +0.144 A  
DOCKED: BRANCH  29  30
DOCKED: ATOM     30  C   UNL     1     135.982  84.070 225.434 -0.05 -0.02    +0.433 C  
DOCKED: ATOM     31  F   UNL     1     136.305  85.194 224.693 -0.05 +0.01    -0.165 F  
DOCKED: ATOM     32  F   UNL     1     136.306  84.300 226.759 -0.10 -0.00    -0.165 F  
DOCKED: ATOM     33  F   UNL     1     134.623  83.843 225.331 -0.01 +0.01    -0.165 F  
DOCKED: ENDBRANCH  29  30
DOCKED: ENDBRANCH  23  24
DOCKED: ENDBRANCH   1  18
DOCKED: TORSDOF 8
DOCKED: TER
DOCKED: ENDMDL
________________________________________________________________________________


    FINAL DOCKED STATE:
    ________________________


Run:   14 / 20
Time taken for this run:   0.031s

DOCKED: MODEL        14
DOCKED: USER    Run = 14
DOCKED: USER
DOCKED: USER    Estimated Free Energy of Binding    =  -5.96 kcal/mol  [=(1)+(2)+(3)-(4)]
DOCKED: USER
DOCKED: USER    (1) Final Intermolecular Energy     =  -8.34 kcal/mol
DOCKED: USER        vdW + Hbond + desolv Energy     =  -8.15 kcal/mol
DOCKED: USER        Electrostatic Energy            =  -0.20 kcal/mol
DOCKED: USER        Moving Ligand-Fixed Receptor    =  -8.34 kcal/mol
DOCKED: USER        Moving Ligand-Moving Receptor   =  +0.00 kcal/mol
DOCKED: USER    (2) Final Total Internal Energy     =  -2.18 kcal/mol
DOCKED: USER    (3) Torsional Free Energy           =  +2.39 kcal/mol
DOCKED: USER    (4) Unbound System's Energy         =  -2.18 kcal/mol
DOCKED: USER
DOCKED: USER
DOCKED: REMARK SMILES OC(=C/c1ccc(-c2ccc(C(F)(F)F)nc2)cc1)/N=c1\nc(-c2cccs2)cc[nH]1
DOCKED: REMARK SMILES IDX 3 1 2 2 1 3 20 5 21 6 22 7 31 8 23 9 30 10 29 11 24 13 28 14
DOCKED: REMARK SMILES IDX 25 15 27 16 26 17 4 18 5 19 19 20 6 21 18 22 7 23 8 24 17 25
DOCKED: REMARK SMILES IDX 9 26 16 27 10 28 11 29 12 30 13 31 14 32 15 33
DOCKED: REMARK H PARENT 1 4 31 12
DOCKED: USER                              x       y       z     vdW  Elec       q    Type
DOCKED: USER                           _______ _______ _______ _____ _____    ______ ____
DOCKED: ROOT
DOCKED: ATOM      1  C   UNL     1     140.114  75.127 220.594 -0.17 -0.02    +0.076 C  
DOCKED: ENDROOT
DOCKED: BRANCH   1   2
DOCKED: ATOM      2  C   UNL     1     139.449  74.824 221.724 -0.21 -0.04    +0.214 C  
DOCKED: BRANCH   2   3
DOCKED: ATOM      3  O   UNL     1     139.925  73.776 222.504 -0.69 +0.02    -0.493 OA 
DOCKED: ATOM      4  H   UNL     1     139.373  73.405 223.269 -0.40 -0.12    +0.295 HD 
DOCKED: ENDBRANCH   2   3
DOCKED: BRANCH   2   5
DOCKED: ATOM      5  N   UNL     1     138.285  75.542 222.179 -0.21 +0.05    -0.177 NA 
DOCKED: BRANCH   5   6
DOCKED: ATOM      6  C   UNL     1     138.224  76.811 222.468 -0.21 -0.05    +0.230 A  
DOCKED: ATOM      7  N   UNL     1     139.355  77.561 222.576 -0.21 +0.04    -0.212 NA 
DOCKED: ATOM      8  N   UNL     1     137.010  77.393 222.678 -0.11 +0.06    -0.331 N  
DOCKED: ATOM      9  C   UNL     1     139.313  78.873 222.930 -0.30 -0.02    +0.086 A  
DOCKED: ATOM     10  C   UNL     1     136.918  78.704 223.022 -0.15 -0.01    +0.088 A  
DOCKED: ATOM     11  C   UNL     1     138.071  79.474 223.165 -0.26 -0.01    +0.048 A  
DOCKED: ATOM     12  H   UNL     1     136.135  76.828 222.590 +0.04 -0.03    +0.169 HD 
DOCKED: BRANCH   9  13
DOCKED: ATOM     13  C   UNL     1     140.576  79.618 223.094 -0.42 -0.01    +0.053 A  
DOCKED: ATOM     14  S   UNL     1     141.988  79.043 223.810 -0.60 +0.04    -0.142 S  
DOCKED: ATOM     15  C   UNL     1     140.815  80.912 222.643 -0.41 -0.00    +0.022 A  
DOCKED: ATOM     16  C   UNL     1     142.909  80.426 223.557 -0.62 -0.02    +0.065 A  
DOCKED: ATOM     17  C   UNL     1     142.117  81.360 222.902 -0.51 -0.00    +0.012 A  
DOCKED: ENDBRANCH   9  13
DOCKED: ENDBRANCH   5   6
DOCKED: ENDBRANCH   2   5
DOCKED: ENDBRANCH   1   2
DOCKED: BRANCH   1  18
DOCKED: ATOM     18  C   UNL     1     140.493  76.491 220.162 -0.16 +0.01    -0.020 A  
DOCKED: ATOM     19  C   UNL     1     141.767  76.975 220.486 -0.29 -0.01    +0.009 A  
DOCKED: ATOM     20  C   UNL     1     139.610  77.311 219.440 -0.07 -0.00    +0.009 A  
DOCKED: ATOM     21  C   UNL     1     142.187  78.226 220.027 -0.20 -0.01    +0.009 A  
DOCKED: ATOM     22  C   UNL     1     140.028  78.563 218.981 -0.08 -0.00    +0.009 A  
DOCKED: ATOM     23  C   UNL     1     141.326  79.028 219.255 -0.22 +0.01    -0.017 A  
DOCKED: BRANCH  23  24
DOCKED: ATOM     24  C   UNL     1     141.785  80.340 218.731 -0.28 -0.00    +0.000 A  
DOCKED: ATOM     25  C   UNL     1     141.121  81.529 219.080 -0.18 -0.05    +0.120 A  
DOCKED: ATOM     26  C   UNL     1     142.900  80.424 217.882 -0.31 -0.01    +0.012 A  
DOCKED: ATOM     27  N   UNL     1     141.556  82.723 218.600 -0.12 +0.09    -0.251 NA 
DOCKED: ATOM     28  C   UNL     1     143.328  81.664 217.404 -0.30 -0.04    +0.034 A  
DOCKED: ATOM     29  C   UNL     1     142.637  82.823 217.780 -0.21 -0.08    +0.144 A  
DOCKED: BRANCH  29  30
DOCKED: ATOM     30  C   UNL     1     143.076  84.166 217.273 -0.07 -0.19    +0.433 C  
DOCKED: ATOM     31  F   UNL     1     144.428  84.356 217.505 -0.16 +0.08    -0.165 F  
DOCKED: ATOM     32  F   UNL     1     142.366  85.160 217.921 -0.04 +0.05    -0.165 F  
DOCKED: ATOM     33  F   UNL     1     142.841  84.251 215.913 -0.04 +0.07    -0.165 F  
DOCKED: ENDBRANCH  29  30
DOCKED: ENDBRANCH  23  24
DOCKED: ENDBRANCH   1  18
DOCKED: TORSDOF 8
DOCKED: TER
DOCKED: ENDMDL
________________________________________________________________________________


    FINAL DOCKED STATE:
    ________________________


Run:   15 / 20
Time taken for this run:   0.031s

DOCKED: MODEL        15
DOCKED: USER    Run = 15
DOCKED: USER
DOCKED: USER    Estimated Free Energy of Binding    =  -7.22 kcal/mol  [=(1)+(2)+(3)-(4)]
DOCKED: USER
DOCKED: USER    (1) Final Intermolecular Energy     =  -9.61 kcal/mol
DOCKED: USER        vdW + Hbond + desolv Energy     =  -9.19 kcal/mol
DOCKED: USER        Electrostatic Energy            =  -0.42 kcal/mol
DOCKED: USER        Moving Ligand-Fixed Receptor    =  -9.61 kcal/mol
DOCKED: USER        Moving Ligand-Moving Receptor   =  +0.00 kcal/mol
DOCKED: USER    (2) Final Total Internal Energy     =  -1.07 kcal/mol
DOCKED: USER    (3) Torsional Free Energy           =  +2.39 kcal/mol
DOCKED: USER    (4) Unbound System's Energy         =  -1.07 kcal/mol
DOCKED: USER
DOCKED: USER
DOCKED: REMARK SMILES OC(=C/c1ccc(-c2ccc(C(F)(F)F)nc2)cc1)/N=c1\nc(-c2cccs2)cc[nH]1
DOCKED: REMARK SMILES IDX 3 1 2 2 1 3 20 5 21 6 22 7 31 8 23 9 30 10 29 11 24 13 28 14
DOCKED: REMARK SMILES IDX 25 15 27 16 26 17 4 18 5 19 19 20 6 21 18 22 7 23 8 24 17 25
DOCKED: REMARK SMILES IDX 9 26 16 27 10 28 11 29 12 30 13 31 14 32 15 33
DOCKED: REMARK H PARENT 1 4 31 12
DOCKED: USER                              x       y       z     vdW  Elec       q    Type
DOCKED: USER                           _______ _______ _______ _____ _____    ______ ____
DOCKED: ROOT
DOCKED: ATOM      1  C   UNL     1     141.570  78.999 218.754 -0.22 -0.04    +0.076 C  
DOCKED: ENDROOT
DOCKED: BRANCH   1   2
DOCKED: ATOM      2  C   UNL     1     142.121  80.202 218.997 -0.22 -0.13    +0.214 C  
DOCKED: BRANCH   2   3
DOCKED: ATOM      3  O   UNL     1     142.889  80.786 217.995 -0.18 +0.48    -0.493 OA 
DOCKED: ATOM      4  H   UNL     1     143.439  80.216 217.363 -0.45 -0.55    +0.295 HD 
DOCKED: ENDBRANCH   2   3
DOCKED: BRANCH   2   5
DOCKED: ATOM      5  N   UNL     1     141.936  80.927 220.229 -0.20 +0.07    -0.177 NA 
DOCKED: BRANCH   5   6
DOCKED: ATOM      6  C   UNL     1     141.610  80.420 221.383 -0.27 -0.08    +0.230 A  
DOCKED: ATOM      7  N   UNL     1     140.329  80.487 221.841 -0.15 +0.05    -0.212 NA 
DOCKED: ATOM      8  N   UNL     1     142.566  79.823 222.148 -0.25 +0.16    -0.331 N  
DOCKED: ATOM      9  C   UNL     1     139.982  80.011 223.066 -0.35 -0.02    +0.086 A  
DOCKED: ATOM     10  C   UNL     1     142.263  79.323 223.375 -0.54 -0.03    +0.088 A  
DOCKED: ATOM     11  C   UNL     1     140.962  79.412 223.866 -0.51 -0.01    +0.048 A  
DOCKED: ATOM     12  H   UNL     1     143.550  79.760 221.802 -0.46 -0.14    +0.169 HD 
DOCKED: BRANCH   9  13
DOCKED: ATOM     13  C   UNL     1     138.592  80.169 223.536 -0.35 -0.01    +0.053 A  
DOCKED: ATOM     14  S   UNL     1     137.235  79.384 222.920 -0.22 +0.02    -0.142 S  
DOCKED: ATOM     15  C   UNL     1     138.183  80.970 224.597 -0.38 -0.00    +0.022 A  
DOCKED: ATOM     16  C   UNL     1     136.124  80.053 223.989 -0.18 -0.01    +0.065 A  
DOCKED: ATOM     17  C   UNL     1     136.807  80.903 224.848 -0.33 -0.00    +0.012 A  
DOCKED: ENDBRANCH   9  13
DOCKED: ENDBRANCH   5   6
DOCKED: ENDBRANCH   2   5
DOCKED: ENDBRANCH   1   2
DOCKED: BRANCH   1  18
DOCKED: ATOM     18  C   UNL     1     142.287  77.705 218.794 -0.29 +0.01    -0.020 A  
DOCKED: ATOM     19  C   UNL     1     142.313  76.981 219.994 -0.32 -0.01    +0.009 A  
DOCKED: ATOM     20  C   UNL     1     142.943  77.185 217.666 -0.30 -0.01    +0.009 A  
DOCKED: ATOM     21  C   UNL     1     142.912  75.720 220.047 -0.34 -0.01    +0.009 A  
DOCKED: ATOM     22  C   UNL     1     143.543  75.924 217.718 -0.23 -0.01    +0.009 A  
DOCKED: ATOM     23  C   UNL     1     143.520  75.171 218.904 -0.29 +0.01    -0.017 A  
DOCKED: BRANCH  23  24
DOCKED: ATOM     24  C   UNL     1     144.121  73.813 218.948 -0.26 -0.00    +0.000 A  
DOCKED: ATOM     25  C   UNL     1     145.053  73.404 217.977 -0.16 +0.01    +0.120 A  
DOCKED: ATOM     26  C   UNL     1     143.779  72.908 219.966 -0.30 -0.00    +0.012 A  
DOCKED: ATOM     27  N   UNL     1     145.601  72.162 218.034 -0.55 -0.20    -0.251 NA 
DOCKED: ATOM     28  C   UNL     1     144.359  71.639 220.002 -0.28 -0.00    +0.034 A  
DOCKED: ATOM     29  C   UNL     1     145.284  71.275 219.016 -0.22 +0.06    +0.144 A  
DOCKED: BRANCH  29  30
DOCKED: ATOM     30  C   UNL     1     145.914  69.913 219.032 -0.09 +0.26    +0.433 C  
DOCKED: ATOM     31  F   UNL     1     147.121  69.942 219.709 -0.13 -0.18    -0.165 F  
DOCKED: ATOM     32  F   UNL     1     146.140  69.491 217.734 -0.07 -0.07    -0.165 F  
DOCKED: ATOM     33  F   UNL     1     145.071  69.016 219.662 -0.11 -0.05    -0.165 F  
DOCKED: ENDBRANCH  29  30
DOCKED: ENDBRANCH  23  24
DOCKED: ENDBRANCH   1  18
DOCKED: TORSDOF 8
DOCKED: TER
DOCKED: ENDMDL
________________________________________________________________________________


    FINAL DOCKED STATE:
    ________________________


Run:   16 / 20
Time taken for this run:   0.031s

DOCKED: MODEL        16
DOCKED: USER    Run = 16
DOCKED: USER
DOCKED: USER    Estimated Free Energy of Binding    =  -6.90 kcal/mol  [=(1)+(2)+(3)-(4)]
DOCKED: USER
DOCKED: USER    (1) Final Intermolecular Energy     =  -9.29 kcal/mol
DOCKED: USER        vdW + Hbond + desolv Energy     =  -9.24 kcal/mol
DOCKED: USER        Electrostatic Energy            =  -0.04 kcal/mol
DOCKED: USER        Moving Ligand-Fixed Receptor    =  -9.29 kcal/mol
DOCKED: USER        Moving Ligand-Moving Receptor   =  +0.00 kcal/mol
DOCKED: USER    (2) Final Total Internal Energy     =  -1.07 kcal/mol
DOCKED: USER    (3) Torsional Free Energy           =  +2.39 kcal/mol
DOCKED: USER    (4) Unbound System's Energy         =  -1.07 kcal/mol
DOCKED: USER
DOCKED: USER
DOCKED: REMARK SMILES OC(=C/c1ccc(-c2ccc(C(F)(F)F)nc2)cc1)/N=c1\nc(-c2cccs2)cc[nH]1
DOCKED: REMARK SMILES IDX 3 1 2 2 1 3 20 5 21 6 22 7 31 8 23 9 30 10 29 11 24 13 28 14
DOCKED: REMARK SMILES IDX 25 15 27 16 26 17 4 18 5 19 19 20 6 21 18 22 7 23 8 24 17 25
DOCKED: REMARK SMILES IDX 9 26 16 27 10 28 11 29 12 30 13 31 14 32 15 33
DOCKED: REMARK H PARENT 1 4 31 12
DOCKED: USER                              x       y       z     vdW  Elec       q    Type
DOCKED: USER                           _______ _______ _______ _____ _____    ______ ____
DOCKED: ROOT
DOCKED: ATOM      1  C   UNL     1     134.504  69.106 225.721 -0.22 -0.00    +0.076 C  
DOCKED: ENDROOT
DOCKED: BRANCH   1   2
DOCKED: ATOM      2  C   UNL     1     134.658  68.511 224.524 -0.06 -0.00    +0.214 C  
DOCKED: BRANCH   2   3
DOCKED: ATOM      3  O   UNL     1     133.948  67.340 224.278 -0.56 +0.05    -0.493 OA 
DOCKED: ATOM      4  H   UNL     1     134.365  66.433 224.453 -0.32 -0.07    +0.295 HD 
DOCKED: ENDBRANCH   2   3
DOCKED: BRANCH   2   5
DOCKED: ATOM      5  N   UNL     1     135.499  69.034 223.477 -0.23 +0.01    -0.177 NA 
DOCKED: BRANCH   5   6
DOCKED: ATOM      6  C   UNL     1     136.801  69.067 223.475 -0.12 -0.02    +0.230 A  
DOCKED: ATOM      7  N   UNL     1     137.492  69.515 224.559 -0.16 +0.02    -0.212 NA 
DOCKED: ATOM      8  N   UNL     1     137.480  68.657 222.369 -0.07 +0.05    -0.331 N  
DOCKED: ATOM      9  C   UNL     1     138.849  69.607 224.555 -0.31 -0.01    +0.086 A  
DOCKED: ATOM     10  C   UNL     1     138.837  68.720 222.322 -0.17 -0.02    +0.088 A  
DOCKED: ATOM     11  C   UNL     1     139.554  69.205 223.415 -0.11 -0.01    +0.048 A  
DOCKED: ATOM     12  H   UNL     1     136.960  68.304 221.534 +0.03 -0.03    +0.169 HD 
DOCKED: BRANCH   9  13
DOCKED: ATOM     13  C   UNL     1     139.539  70.161 225.735 -0.41 -0.01    +0.053 A  
DOCKED: ATOM     14  S   UNL     1     139.584  69.480 227.276 -0.59 +0.02    -0.142 S  
DOCKED: ATOM     15  C   UNL     1     140.303  71.324 225.754 -0.54 -0.00    +0.022 A  
DOCKED: ATOM     16  C   UNL     1     140.567  70.651 227.975 -0.63 -0.01    +0.065 A  
DOCKED: ATOM     17  C   UNL     1     140.875  71.594 227.003 -0.74 -0.00    +0.012 A  
DOCKED: ENDBRANCH   9  13
DOCKED: ENDBRANCH   5   6
DOCKED: ENDBRANCH   2   5
DOCKED: ENDBRANCH   1   2
DOCKED: BRANCH   1  18
DOCKED: ATOM     18  C   UNL     1     134.107  70.516 225.933 -0.30 +0.00    -0.020 A  
DOCKED: ATOM     19  C   UNL     1     133.112  70.806 226.874 -0.32 -0.00    +0.009 A  
DOCKED: ATOM     20  C   UNL     1     134.699  71.568 225.214 -0.20 -0.00    +0.009 A  
DOCKED: ATOM     21  C   UNL     1     132.768  72.131 227.156 -0.42 -0.00    +0.009 A  
DOCKED: ATOM     22  C   UNL     1     134.356  72.893 225.494 -0.28 -0.00    +0.009 A  
DOCKED: ATOM     23  C   UNL     1     133.399  73.190 226.480 -0.35 -0.00    -0.017 A  
DOCKED: BRANCH  23  24
DOCKED: ATOM     24  C   UNL     1     133.065  74.600 226.807 -0.35 +0.00    +0.000 A  
DOCKED: ATOM     25  C   UNL     1     133.891  75.655 226.381 -0.35 -0.00    +0.120 A  
DOCKED: ATOM     26  C   UNL     1     131.911  74.913 227.543 -0.40 -0.00    +0.012 A  
DOCKED: ATOM     27  N   UNL     1     133.569  76.941 226.681 -0.20 +0.02    -0.251 NA 
DOCKED: ATOM     28  C   UNL     1     131.602  76.242 227.835 -0.32 +0.00    +0.034 A  
DOCKED: ATOM     29  C   UNL     1     132.452  77.262 227.389 -0.26 -0.00    +0.144 A  
DOCKED: BRANCH  29  30
DOCKED: ATOM     30  C   UNL     1     132.143  78.697 227.698 -0.09 +0.00    +0.433 C  
DOCKED: ATOM     31  F   UNL     1     131.748  78.838 229.017 -0.09 -0.06    -0.165 F  
DOCKED: ATOM     32  F   UNL     1     131.121  79.138 226.876 -0.01 -0.00    -0.165 F  
DOCKED: ATOM     33  F   UNL     1     133.266  79.474 227.483 -0.07 +0.04    -0.165 F  
DOCKED: ENDBRANCH  29  30
DOCKED: ENDBRANCH  23  24
DOCKED: ENDBRANCH   1  18
DOCKED: TORSDOF 8
DOCKED: TER
DOCKED: ENDMDL
________________________________________________________________________________


    FINAL DOCKED STATE:
    ________________________


Run:   17 / 20
Time taken for this run:   0.031s

DOCKED: MODEL        17
DOCKED: USER    Run = 17
DOCKED: USER
DOCKED: USER    Estimated Free Energy of Binding    =  -6.00 kcal/mol  [=(1)+(2)+(3)-(4)]
DOCKED: USER
DOCKED: USER    (1) Final Intermolecular Energy     =  -8.39 kcal/mol
DOCKED: USER        vdW + Hbond + desolv Energy     =  -8.19 kcal/mol
DOCKED: USER        Electrostatic Energy            =  -0.20 kcal/mol
DOCKED: USER        Moving Ligand-Fixed Receptor    =  -8.39 kcal/mol
DOCKED: USER        Moving Ligand-Moving Receptor   =  +0.00 kcal/mol
DOCKED: USER    (2) Final Total Internal Energy     =  -2.15 kcal/mol
DOCKED: USER    (3) Torsional Free Energy           =  +2.39 kcal/mol
DOCKED: USER    (4) Unbound System's Energy         =  -2.15 kcal/mol
DOCKED: USER
DOCKED: USER
DOCKED: REMARK SMILES OC(=C/c1ccc(-c2ccc(C(F)(F)F)nc2)cc1)/N=c1\nc(-c2cccs2)cc[nH]1
DOCKED: REMARK SMILES IDX 3 1 2 2 1 3 20 5 21 6 22 7 31 8 23 9 30 10 29 11 24 13 28 14
DOCKED: REMARK SMILES IDX 25 15 27 16 26 17 4 18 5 19 19 20 6 21 18 22 7 23 8 24 17 25
DOCKED: REMARK SMILES IDX 9 26 16 27 10 28 11 29 12 30 13 31 14 32 15 33
DOCKED: REMARK H PARENT 1 4 31 12
DOCKED: USER                              x       y       z     vdW  Elec       q    Type
DOCKED: USER                           _______ _______ _______ _____ _____    ______ ____
DOCKED: ROOT
DOCKED: ATOM      1  C   UNL     1     139.949  75.129 220.569 -0.16 -0.02    +0.076 C  
DOCKED: ENDROOT
DOCKED: BRANCH   1   2
DOCKED: ATOM      2  C   UNL     1     139.397  74.814 221.755 -0.20 -0.04    +0.214 C  
DOCKED: BRANCH   2   3
DOCKED: ATOM      3  O   UNL     1     139.938  73.749 222.467 -0.71 +0.02    -0.493 OA 
DOCKED: ATOM      4  H   UNL     1     139.428  73.323 223.232 -0.39 -0.11    +0.295 HD 
DOCKED: ENDBRANCH   2   3
DOCKED: BRANCH   2   5
DOCKED: ATOM      5  N   UNL     1     138.293  75.535 222.336 -0.22 +0.05    -0.177 NA 
DOCKED: BRANCH   5   6
DOCKED: ATOM      6  C   UNL     1     138.252  76.812 222.590 -0.21 -0.04    +0.230 A  
DOCKED: ATOM      7  N   UNL     1     139.395  77.546 222.682 -0.21 +0.04    -0.212 NA 
DOCKED: ATOM      8  N   UNL     1     137.048  77.420 222.777 -0.11 +0.05    -0.331 N  
DOCKED: ATOM      9  C   UNL     1     139.373  78.868 222.999 -0.31 -0.02    +0.086 A  
DOCKED: ATOM     10  C   UNL     1     136.975  78.742 223.085 -0.15 -0.01    +0.088 A  
DOCKED: ATOM     11  C   UNL     1     138.141  79.496 223.211 -0.27 -0.01    +0.048 A  
DOCKED: ATOM     12  H   UNL     1     136.164  76.868 222.702 +0.04 -0.03    +0.169 HD 
DOCKED: BRANCH   9  13
DOCKED: ATOM     13  C   UNL     1     140.648  79.596 223.147 -0.43 -0.01    +0.053 A  
DOCKED: ATOM     14  S   UNL     1     140.842  81.269 223.189 -0.44 +0.02    -0.142 S  
DOCKED: ATOM     15  C   UNL     1     141.899  79.011 223.318 -0.59 -0.01    +0.022 A  
DOCKED: ATOM     16  C   UNL     1     142.507  81.264 223.421 -0.50 -0.01    +0.065 A  
DOCKED: ATOM     17  C   UNL     1     142.933  79.943 223.470 -0.59 -0.00    +0.012 A  
DOCKED: ENDBRANCH   9  13
DOCKED: ENDBRANCH   5   6
DOCKED: ENDBRANCH   2   5
DOCKED: ENDBRANCH   1   2
DOCKED: BRANCH   1  18
DOCKED: ATOM     18  C   UNL     1     140.356  76.488 220.147 -0.15 +0.01    -0.020 A  
DOCKED: ATOM     19  C   UNL     1     141.684  76.889 220.340 -0.29 -0.00    +0.009 A  
DOCKED: ATOM     20  C   UNL     1     139.447  77.386 219.562 -0.07 -0.00    +0.009 A  
DOCKED: ATOM     21  C   UNL     1     142.122  78.134 219.883 -0.25 -0.01    +0.009 A  
DOCKED: ATOM     22  C   UNL     1     139.883  78.632 219.105 -0.08 -0.00    +0.009 A  
DOCKED: ATOM     23  C   UNL     1     141.229  79.014 219.246 -0.21 +0.01    -0.017 A  
DOCKED: BRANCH  23  24
DOCKED: ATOM     24  C   UNL     1     141.701  80.321 218.722 -0.27 -0.00    +0.000 A  
DOCKED: ATOM     25  C   UNL     1     141.378  81.522 219.377 -0.22 -0.05    +0.120 A  
DOCKED: ATOM     26  C   UNL     1     142.491  80.387 217.562 -0.29 -0.01    +0.012 A  
DOCKED: ATOM     27  N   UNL     1     141.824  82.710 218.892 -0.12 +0.09    -0.251 NA 
DOCKED: ATOM     28  C   UNL     1     142.938  81.621 217.085 -0.29 -0.04    +0.034 A  
DOCKED: ATOM     29  C   UNL     1     142.593  82.791 217.772 -0.22 -0.08    +0.144 A  
DOCKED: BRANCH  29  30
DOCKED: ATOM     30  C   UNL     1     143.058  84.128 217.274 -0.08 -0.19    +0.433 C  
DOCKED: ATOM     31  F   UNL     1     144.410  84.297 217.519 -0.16 +0.08    -0.165 F  
DOCKED: ATOM     32  F   UNL     1     142.357  85.132 217.918 -0.04 +0.05    -0.165 F  
DOCKED: ATOM     33  F   UNL     1     142.836  84.222 215.912 -0.04 +0.07    -0.165 F  
DOCKED: ENDBRANCH  29  30
DOCKED: ENDBRANCH  23  24
DOCKED: ENDBRANCH   1  18
DOCKED: TORSDOF 8
DOCKED: TER
DOCKED: ENDMDL
________________________________________________________________________________


    FINAL DOCKED STATE:
    ________________________


Run:   18 / 20
Time taken for this run:   0.031s

DOCKED: MODEL        18
DOCKED: USER    Run = 18
DOCKED: USER
DOCKED: USER    Estimated Free Energy of Binding    =  -7.48 kcal/mol  [=(1)+(2)+(3)-(4)]
DOCKED: USER
DOCKED: USER    (1) Final Intermolecular Energy     =  -9.86 kcal/mol
DOCKED: USER        vdW + Hbond + desolv Energy     =  -9.69 kcal/mol
DOCKED: USER        Electrostatic Energy            =  -0.17 kcal/mol
DOCKED: USER        Moving Ligand-Fixed Receptor    =  -9.86 kcal/mol
DOCKED: USER        Moving Ligand-Moving Receptor   =  +0.00 kcal/mol
DOCKED: USER    (2) Final Total Internal Energy     =  -0.81 kcal/mol
DOCKED: USER    (3) Torsional Free Energy           =  +2.39 kcal/mol
DOCKED: USER    (4) Unbound System's Energy         =  -0.81 kcal/mol
DOCKED: USER
DOCKED: USER
DOCKED: REMARK SMILES OC(=C/c1ccc(-c2ccc(C(F)(F)F)nc2)cc1)/N=c1\nc(-c2cccs2)cc[nH]1
DOCKED: REMARK SMILES IDX 3 1 2 2 1 3 20 5 21 6 22 7 31 8 23 9 30 10 29 11 24 13 28 14
DOCKED: REMARK SMILES IDX 25 15 27 16 26 17 4 18 5 19 19 20 6 21 18 22 7 23 8 24 17 25
DOCKED: REMARK SMILES IDX 9 26 16 27 10 28 11 29 12 30 13 31 14 32 15 33
DOCKED: REMARK H PARENT 1 4 31 12
DOCKED: USER                              x       y       z     vdW  Elec       q    Type
DOCKED: USER                           _______ _______ _______ _____ _____    ______ ____
DOCKED: ROOT
DOCKED: ATOM      1  C   UNL     1     141.620  73.943 221.270 -0.17 -0.01    +0.076 C  
DOCKED: ENDROOT
DOCKED: BRANCH   1   2
DOCKED: ATOM      2  C   UNL     1     140.473  73.356 221.655 -0.21 -0.02    +0.214 C  
DOCKED: BRANCH   2   3
DOCKED: ATOM      3  O   UNL     1     139.510  74.143 222.278 -0.66 +0.08    -0.493 OA 
DOCKED: ATOM      4  H   UNL     1     138.966  73.782 223.053 -0.48 -0.16    +0.295 HD 
DOCKED: ENDBRANCH   2   3
DOCKED: BRANCH   2   5
DOCKED: ATOM      5  N   UNL     1     140.181  71.961 221.437 -0.14 +0.03    -0.177 NA 
DOCKED: BRANCH   5   6
DOCKED: ATOM      6  C   UNL     1     139.805  71.100 222.338 -0.16 -0.04    +0.230 A  
DOCKED: ATOM      7  N   UNL     1     140.096  71.291 223.655 -0.26 +0.03    -0.212 NA 
DOCKED: ATOM      8  N   UNL     1     139.121  69.986 221.957 -0.06 +0.06    -0.331 N  
DOCKED: ATOM      9  C   UNL     1     139.759  70.376 224.602 -0.36 -0.01    +0.086 A  
DOCKED: ATOM     10  C   UNL     1     138.752  69.049 222.870 -0.20 -0.02    +0.088 A  
DOCKED: ATOM     11  C   UNL     1     139.071  69.219 224.217 -0.31 -0.01    +0.048 A  
DOCKED: ATOM     12  H   UNL     1     138.886  69.833 220.951 +0.03 -0.03    +0.169 HD 
DOCKED: BRANCH   9  13
DOCKED: ATOM     13  C   UNL     1     140.157  70.607 226.004 -0.50 -0.01    +0.053 A  
DOCKED: ATOM     14  S   UNL     1     141.095  71.883 226.578 -0.76 +0.02    -0.142 S  
DOCKED: ATOM     15  C   UNL     1     139.785  69.821 227.091 -0.53 -0.00    +0.022 A  
DOCKED: ATOM     16  C   UNL     1     141.038  71.449 228.200 -0.70 -0.01    +0.065 A  
DOCKED: ATOM     17  C   UNL     1     140.277  70.293 228.313 -0.58 -0.00    +0.012 A  
DOCKED: ENDBRANCH   9  13
DOCKED: ENDBRANCH   5   6
DOCKED: ENDBRANCH   2   5
DOCKED: ENDBRANCH   1   2
DOCKED: BRANCH   1  18
DOCKED: ATOM     18  C   UNL     1     141.752  75.341 220.800 -0.30 +0.01    -0.020 A  
DOCKED: ATOM     19  C   UNL     1     142.565  75.611 219.692 -0.31 -0.00    +0.009 A  
DOCKED: ATOM     20  C   UNL     1     141.085  76.402 221.436 -0.34 -0.00    +0.009 A  
DOCKED: ATOM     21  C   UNL     1     142.649  76.906 219.174 -0.34 -0.01    +0.009 A  
DOCKED: ATOM     22  C   UNL     1     141.169  77.697 220.919 -0.30 -0.00    +0.009 A  
DOCKED: ATOM     23  C   UNL     1     141.939  77.961 219.773 -0.28 +0.01    -0.017 A  
DOCKED: BRANCH  23  24
DOCKED: ATOM     24  C   UNL     1     141.995  79.329 219.200 -0.28 -0.00    +0.000 A  
DOCKED: ATOM     25  C   UNL     1     141.548  80.440 219.936 -0.25 -0.05    +0.120 A  
DOCKED: ATOM     26  C   UNL     1     142.504  79.548 217.909 -0.32 -0.01    +0.012 A  
DOCKED: ATOM     27  N   UNL     1     141.612  81.688 219.403 -0.15 +0.10    -0.251 NA 
DOCKED: ATOM     28  C   UNL     1     142.561  80.840 217.385 -0.28 -0.03    +0.034 A  
DOCKED: ATOM     29  C   UNL     1     142.107  81.918 218.156 -0.22 -0.08    +0.144 A  
DOCKED: BRANCH  29  30
DOCKED: ATOM     30  C   UNL     1     142.153  83.314 217.609 -0.07 -0.19    +0.433 C  
DOCKED: ATOM     31  F   UNL     1     141.539  83.373 216.369 -0.02 +0.07    -0.165 F  
DOCKED: ATOM     32  F   UNL     1     143.470  83.716 217.475 -0.12 +0.09    -0.165 F  
DOCKED: ATOM     33  F   UNL     1     141.500  84.175 218.471 -0.05 +0.05    -0.165 F  
DOCKED: ENDBRANCH  29  30
DOCKED: ENDBRANCH  23  24
DOCKED: ENDBRANCH   1  18
DOCKED: TORSDOF 8
DOCKED: TER
DOCKED: ENDMDL
________________________________________________________________________________


    FINAL DOCKED STATE:
    ________________________


Run:   19 / 20
Time taken for this run:   0.031s

DOCKED: MODEL        19
DOCKED: USER    Run = 19
DOCKED: USER
DOCKED: USER    Estimated Free Energy of Binding    =  -6.67 kcal/mol  [=(1)+(2)+(3)-(4)]
DOCKED: USER
DOCKED: USER    (1) Final Intermolecular Energy     =  -9.05 kcal/mol
DOCKED: USER        vdW + Hbond + desolv Energy     =  -9.03 kcal/mol
DOCKED: USER        Electrostatic Energy            =  -0.02 kcal/mol
DOCKED: USER        Moving Ligand-Fixed Receptor    =  -9.05 kcal/mol
DOCKED: USER        Moving Ligand-Moving Receptor   =  +0.00 kcal/mol
DOCKED: USER    (2) Final Total Internal Energy     =  -1.36 kcal/mol
DOCKED: USER    (3) Torsional Free Energy           =  +2.39 kcal/mol
DOCKED: USER    (4) Unbound System's Energy         =  -1.36 kcal/mol
DOCKED: USER
DOCKED: USER
DOCKED: REMARK SMILES OC(=C/c1ccc(-c2ccc(C(F)(F)F)nc2)cc1)/N=c1\nc(-c2cccs2)cc[nH]1
DOCKED: REMARK SMILES IDX 3 1 2 2 1 3 20 5 21 6 22 7 31 8 23 9 30 10 29 11 24 13 28 14
DOCKED: REMARK SMILES IDX 25 15 27 16 26 17 4 18 5 19 19 20 6 21 18 22 7 23 8 24 17 25
DOCKED: REMARK SMILES IDX 9 26 16 27 10 28 11 29 12 30 13 31 14 32 15 33
DOCKED: REMARK H PARENT 1 4 31 12
DOCKED: USER                              x       y       z     vdW  Elec       q    Type
DOCKED: USER                           _______ _______ _______ _____ _____    ______ ____
DOCKED: ROOT
DOCKED: ATOM      1  C   UNL     1     141.068  75.628 221.571 -0.33 -0.02    +0.076 C  
DOCKED: ENDROOT
DOCKED: BRANCH   1   2
DOCKED: ATOM      2  C   UNL     1     140.603  74.367 221.523 -0.23 -0.03    +0.214 C  
DOCKED: BRANCH   2   3
DOCKED: ATOM      3  O   UNL     1     140.800  73.639 220.354 -0.03 +0.10    -0.493 OA 
DOCKED: ATOM      4  H   UNL     1     141.702  73.231 220.143 +0.10 -0.06    +0.295 HD 
DOCKED: ENDBRANCH   2   3
DOCKED: BRANCH   2   5
DOCKED: ATOM      5  N   UNL     1     139.933  73.723 222.625 -0.65 +0.00    -0.177 NA 
DOCKED: BRANCH   5   6
DOCKED: ATOM      6  C   UNL     1     139.802  72.440 222.808 -0.18 -0.04    +0.230 A  
DOCKED: ATOM      7  N   UNL     1     139.962  71.888 224.042 -0.27 +0.05    -0.212 NA 
DOCKED: ATOM      8  N   UNL     1     139.512  71.638 221.746 -0.08 +0.06    -0.331 N  
DOCKED: ATOM      9  C   UNL     1     139.882  70.546 224.241 -0.35 -0.01    +0.086 A  
DOCKED: ATOM     10  C   UNL     1     139.412  70.291 221.899 -0.14 -0.02    +0.088 A  
DOCKED: ATOM     11  C   UNL     1     139.603  69.712 223.153 -0.17 -0.01    +0.048 A  
DOCKED: ATOM     12  H   UNL     1     139.381  72.052 220.796 +0.04 -0.03    +0.169 HD 
DOCKED: BRANCH   9  13
DOCKED: ATOM     13  C   UNL     1     140.128  70.000 225.590 -0.44 -0.01    +0.053 A  
DOCKED: ATOM     14  S   UNL     1     139.905  68.402 226.075 -0.62 +0.02    -0.142 S  
DOCKED: ATOM     15  C   UNL     1     140.625  70.716 226.674 -0.61 -0.00    +0.022 A  
DOCKED: ATOM     16  C   UNL     1     140.433  68.607 227.658 -0.61 -0.01    +0.065 A  
DOCKED: ATOM     17  C   UNL     1     140.795  69.937 227.825 -0.61 -0.00    +0.012 A  
DOCKED: ENDBRANCH   9  13
DOCKED: ENDBRANCH   5   6
DOCKED: ENDBRANCH   2   5
DOCKED: ENDBRANCH   1   2
DOCKED: BRANCH   1  18
DOCKED: ATOM     18  C   UNL     1     140.343  76.788 222.135 -0.38 +0.01    -0.020 A  
DOCKED: ATOM     19  C   UNL     1     141.076  77.899 222.573 -0.47 -0.00    +0.009 A  
DOCKED: ATOM     20  C   UNL     1     138.942  76.805 222.245 -0.31 -0.00    +0.009 A  
DOCKED: ATOM     21  C   UNL     1     140.420  79.042 223.037 -0.44 -0.00    +0.009 A  
DOCKED: ATOM     22  C   UNL     1     138.285  77.947 222.709 -0.28 -0.00    +0.009 A  
DOCKED: ATOM     23  C   UNL     1     139.015  79.084 223.096 -0.34 +0.00    -0.017 A  
DOCKED: BRANCH  23  24
DOCKED: ATOM     24  C   UNL     1     138.315  80.312 223.549 -0.36 -0.00    +0.000 A  
DOCKED: ATOM     25  C   UNL     1     137.895  81.287 222.627 -0.16 -0.02    +0.120 A  
DOCKED: ATOM     26  C   UNL     1     138.047  80.526 224.911 -0.32 -0.00    +0.012 A  
DOCKED: ATOM     27  N   UNL     1     137.248  82.403 223.055 -0.09 +0.02    -0.251 NA 
DOCKED: ATOM     28  C   UNL     1     137.379  81.680 225.324 -0.39 -0.00    +0.034 A  
DOCKED: ATOM     29  C   UNL     1     136.977  82.622 224.370 -0.14 -0.01    +0.144 A  
DOCKED: BRANCH  29  30
DOCKED: ATOM     30  C   UNL     1     136.263  83.873 224.793 -0.04 -0.02    +0.433 C  
DOCKED: ATOM     31  F   UNL     1     136.750  84.969 224.103 -0.05 +0.01    -0.165 F  
DOCKED: ATOM     32  F   UNL     1     136.451  84.078 226.148 -0.08 +0.00    -0.165 F  
DOCKED: ATOM     33  F   UNL     1     134.910  83.748 224.536 -0.01 +0.01    -0.165 F  
DOCKED: ENDBRANCH  29  30
DOCKED: ENDBRANCH  23  24
DOCKED: ENDBRANCH   1  18
DOCKED: TORSDOF 8
DOCKED: TER
DOCKED: ENDMDL
________________________________________________________________________________


    FINAL DOCKED STATE:
    ________________________


Run:   20 / 20
Time taken for this run:   0.031s

DOCKED: MODEL        20
DOCKED: USER    Run = 20
DOCKED: USER
DOCKED: USER    Estimated Free Energy of Binding    =  -5.71 kcal/mol  [=(1)+(2)+(3)-(4)]
DOCKED: USER
DOCKED: USER    (1) Final Intermolecular Energy     =  -8.09 kcal/mol
DOCKED: USER        vdW + Hbond + desolv Energy     =  -8.04 kcal/mol
DOCKED: USER        Electrostatic Energy            =  -0.05 kcal/mol
DOCKED: USER        Moving Ligand-Fixed Receptor    =  -8.09 kcal/mol
DOCKED: USER        Moving Ligand-Moving Receptor   =  +0.00 kcal/mol
DOCKED: USER    (2) Final Total Internal Energy     =  -2.14 kcal/mol
DOCKED: USER    (3) Torsional Free Energy           =  +2.39 kcal/mol
DOCKED: USER    (4) Unbound System's Energy         =  -2.14 kcal/mol
DOCKED: USER
DOCKED: USER
DOCKED: REMARK SMILES OC(=C/c1ccc(-c2ccc(C(F)(F)F)nc2)cc1)/N=c1\nc(-c2cccs2)cc[nH]1
DOCKED: REMARK SMILES IDX 3 1 2 2 1 3 20 5 21 6 22 7 31 8 23 9 30 10 29 11 24 13 28 14
DOCKED: REMARK SMILES IDX 25 15 27 16 26 17 4 18 5 19 19 20 6 21 18 22 7 23 8 24 17 25
DOCKED: REMARK SMILES IDX 9 26 16 27 10 28 11 29 12 30 13 31 14 32 15 33
DOCKED: REMARK H PARENT 1 4 31 12
DOCKED: USER                              x       y       z     vdW  Elec       q    Type
DOCKED: USER                           _______ _______ _______ _____ _____    ______ ____
DOCKED: ROOT
DOCKED: ATOM      1  C   UNL     1     141.862  73.935 220.495 -0.23 -0.02    +0.076 C  
DOCKED: ENDROOT
DOCKED: BRANCH   1   2
DOCKED: ATOM      2  C   UNL     1     140.747  73.499 221.109 -0.19 -0.03    +0.214 C  
DOCKED: BRANCH   2   3
DOCKED: ATOM      3  O   UNL     1     140.120  72.366 220.603 -0.02 +0.08    -0.493 OA 
DOCKED: ATOM      4  H   UNL     1     139.412  72.442 219.882 +0.05 -0.05    +0.295 HD 
DOCKED: ENDBRANCH   2   3
DOCKED: BRANCH   2   5
DOCKED: ATOM      5  N   UNL     1     140.183  74.131 222.275 -0.79 -0.00    -0.177 NA 
DOCKED: BRANCH   5   6
DOCKED: ATOM      6  C   UNL     1     139.706  75.341 222.345 -0.12 -0.03    +0.230 A  
DOCKED: ATOM      7  N   UNL     1     140.529  76.424 222.271 -0.31 +0.06    -0.212 NA 
DOCKED: ATOM      8  N   UNL     1     138.367  75.526 222.505 -0.11 +0.09    -0.331 N  
DOCKED: ATOM      9  C   UNL     1     140.056  77.692 222.396 -0.33 -0.02    +0.086 A  
DOCKED: ATOM     10  C   UNL     1     137.846  76.776 222.623 -0.26 -0.02    +0.088 A  
DOCKED: ATOM     11  C   UNL     1     138.683  77.890 222.579 -0.27 -0.01    +0.048 A  
DOCKED: ATOM     12  H   UNL     1     137.726  74.702 222.555 -0.27 -0.07    +0.169 HD 
DOCKED: BRANCH   9  13
DOCKED: ATOM     13  C   UNL     1     141.003  78.822 222.373 -0.39 -0.02    +0.053 A  
DOCKED: ATOM     14  S   UNL     1     140.864  80.222 221.446 -0.33 +0.04    -0.142 S  
DOCKED: ATOM     15  C   UNL     1     142.153  78.931 223.150 -0.54 -0.01    +0.022 A  
DOCKED: ATOM     16  C   UNL     1     142.256  80.971 222.019 -0.42 -0.02    +0.065 A  
DOCKED: ATOM     17  C   UNL     1     142.848  80.130 222.951 -0.64 -0.00    +0.012 A  
DOCKED: ENDBRANCH   9  13
DOCKED: ENDBRANCH   5   6
DOCKED: ENDBRANCH   2   5
DOCKED: ENDBRANCH   1   2
DOCKED: BRANCH   1  18
DOCKED: ATOM     18  C   UNL     1     141.993  75.213 219.760 -0.23 +0.01    -0.020 A  
DOCKED: ATOM     19  C   UNL     1     140.853  75.776 219.172 -0.11 -0.00    +0.009 A  
DOCKED: ATOM     20  C   UNL     1     143.227  75.873 219.636 -0.39 -0.01    +0.009 A  
DOCKED: ATOM     21  C   UNL     1     140.925  77.021 218.539 -0.10 -0.00    +0.009 A  
DOCKED: ATOM     22  C   UNL     1     143.300  77.117 219.003 -0.29 -0.01    +0.009 A  
DOCKED: ATOM     23  C   UNL     1     142.147  77.712 218.462 -0.27 +0.01    -0.017 A  
DOCKED: BRANCH  23  24
DOCKED: ATOM     24  C   UNL     1     142.217  79.052 217.826 -0.29 -0.00    +0.000 A  
DOCKED: ATOM     25  C   UNL     1     141.906  79.224 216.466 -0.14 -0.11    +0.120 A  
DOCKED: ATOM     26  C   UNL     1     142.586  80.183 218.573 -0.32 -0.01    +0.012 A  
DOCKED: ATOM     27  N   UNL     1     141.966  80.458 215.899 -0.07 +0.24    -0.251 NA 
DOCKED: ATOM     28  C   UNL     1     142.638  81.440 217.967 -0.30 -0.03    +0.034 A  
DOCKED: ATOM     29  C   UNL     1     142.318  81.564 216.610 -0.17 -0.13    +0.144 A  
DOCKED: BRANCH  29  30
DOCKED: ATOM     30  C   UNL     1     142.373  82.905 215.937 -0.06 -0.27    +0.433 C  
DOCKED: ATOM     31  F   UNL     1     142.706  82.766 214.600 -0.02 +0.11    -0.165 F  
DOCKED: ATOM     32  F   UNL     1     143.326  83.694 216.555 -0.09 +0.09    -0.165 F  
DOCKED: ATOM     33  F   UNL     1     141.141  83.524 216.028 -0.01 +0.06    -0.165 F  
DOCKED: ENDBRANCH  29  30
DOCKED: ENDBRANCH  23  24
DOCKED: ENDBRANCH   1  18
DOCKED: TORSDOF 8
DOCKED: TER
DOCKED: ENDMDL
________________________________________________________________________________


    CLUSTERING HISTOGRAM
    ____________________


________________________________________________________________________________
     |           |     |           |     |
Clus | Lowest    | Run | Mean      | Num | Histogram
-ter | Binding   |     | Binding   | in  |
Rank | Energy    |     | Energy    | Clus|    5    10   15   20   25   30   35
_____|___________|_____|___________|_____|____:____|____:____|____:____|____:___
   1 |     -7.57 |   1 |     -7.26 |   4 |####
   2 |     -7.22 |  15 |     -7.22 |   1 |#
   3 |     -7.07 |   3 |     -7.07 |   1 |#
   4 |     -6.99 |   6 |     -6.73 |   3 |###
   5 |     -6.90 |  16 |     -6.90 |   1 |#
   6 |     -6.80 |   9 |     -6.80 |   1 |#
   7 |     -6.74 |   8 |     -6.74 |   1 |#
   8 |     -6.03 |  11 |     -5.78 |   7 |#######
   9 |     -5.67 |   2 |     -5.67 |   1 |#
_____|___________|_____|___________|_____|______________________________________


    RMSD TABLE
    __________


_______________________________________________________________________
     |      |      |           |         |                 |
Rank | Sub- | Run  | Binding   | Cluster | Reference       | Grep
     | Rank |      | Energy    | RMSD    | RMSD            | Pattern
_____|______|______|___________|_________|_________________|___________
   1      1      1       -7.57      0.00    270.22           RANKING
   1      2     18       -7.48      0.15    270.17           RANKING
   1      3     12       -7.08      1.15    270.37           RANKING
   1      4      7       -6.93      1.88    270.80           RANKING
   2      1     15       -7.22      0.00    270.39           RANKING
   3      1      3       -7.07      0.00    269.82           RANKING
   4      1      6       -6.99      0.00    271.21           RANKING
   4      2     19       -6.67      0.83    271.08           RANKING
   4      3     13       -6.54      1.06    271.15           RANKING
   5      1     16       -6.90      0.00    269.88           RANKING
   6      1      9       -6.80      0.00    271.02           RANKING
   7      1      8       -6.74      0.00    269.93           RANKING
   8      1     11       -6.03      0.00    270.41           RANKING
   8      2     17       -6.00      0.57    270.40           RANKING
   8      3     14       -5.96      0.15    270.39           RANKING
   8      4     10       -5.73      0.32    270.28           RANKING
   8      5      5       -5.72      1.55    270.02           RANKING
   8      6     20       -5.71      1.89    269.64           RANKING
   8      7      4       -5.33      1.54    269.92           RANKING
   9      1      2       -5.67      0.00    271.14           RANKING

Run time 0.583 sec
Idle time 0.000 sec
