AutoDock-GPU version: v1.6

**********************************************************
**    AutoDock-GPU AUTODOCKTOOLS-COMPATIBLE DLG FILE    **
**********************************************************


    DOCKING PARAMETERS
    ________________________


Ligand file:                               /home/a/REINVENT4/ReinventStudies/pleaseWork/justRnve/graph-dock-t2iv78/graph-DockGPU/node-autodockgpu/inputs/QCMKIQNVNXXUCE-BKBAHTDKNA-N.pdbqt
Grid fld file:                             /home/a/REINVENT4/ReinventStudies/mols/Rad51/maps/rad51_receptor.maps.fld

Random seed:                               42
Number of runs:                            20
Number of energy evaluations:              1132076
Number of generations:                     42000
Size of population:                        150
Rate of crossover:                         80.000000%
Tournament selection probability limit:    60.000000%
Rate of mutation:                          2.000000%
Maximal allowed delta movement:            +/- 6.000000A
Maximal allowed delta angle:               +/- 90.000000

Rate of local search:                      100.000000%
Maximal number of local search iterations: 300
Rho lower bound:                           0.010000
Spread of local search delta movement:     2.000000A
Spread of local search delta angle:        74.999999
Limit of consecutive successes/failures:   4

Handle symmetry during clustering:         YES
RMSD tolerance:                            2.000000A

Program call in command line was:          /home/a/REINVENT4/ReinventStudies/adgpu-v1.6_linux_x64_cuda12_128wi --filelist batch.txt --heuristics 1 --nrun 20 --psize 150 --lsit 300 --seed 42 --heurmax 12000000 


    GRID PARAMETERS
    ________________________


Receptor name:                             rad51_receptor
Number of grid points (x, y, z):           53, 53, 53
Grid center (x, y, z):                     139.950000, 75.640000, 221.970000A
Grid size (x, y, z):                       19.500000, 19.500000, 19.500000A
Grid spacing:                              0.375000A


    LIGAND PARAMETERS
    ________________________


Ligand name:                               /home/a/REINVENT4/ReinventStudies/pleaseWork/justRnve/graph-dock-t2iv78/graph-DockGPU/node-autodockgpu/inputs/QCMKIQNVNXXUCE-BKBAHTDKNA-N
Number of atoms:                           26
Number of rotatable bonds:                 5
Number of atom types:                      6


    DUMMY DATA (only for ADT-compatibility)
    ________________________


DPF> outlev 1
DPF> ga_run 20
DPF> fld /home/a/REINVENT4/ReinventStudies/mols/Rad51/maps/rad51_receptor.maps.fld
DPF> move /home/a/REINVENT4/ReinventStudies/pleaseWork/justRnve/graph-dock-t2iv78/graph-DockGPU/node-autodockgpu/inputs/QCMKIQNVNXXUCE-BKBAHTDKNA-N.pdbqt


    COUNTER STATES
    ________________________


Number of energy evaluations performed:    1041518
Number of generations used:                45


    INPUT LIGAND PDBQT FILE:
    ________________________


INPUT-LIGAND-PDBQT: REMARK SMILES C[C@@H](/N=C(\O)c1ccc2ccccc2n1)c1ccc2[nH]ccc2c1
INPUT-LIGAND-PDBQT: REMARK SMILES IDX 3 1 4 2 5 3 6 5 15 6 7 7 14 8 8 9 13 10 9 11 12 12 10 13
INPUT-LIGAND-PDBQT: REMARK SMILES IDX 11 14 2 15 1 16 16 17 17 18 24 19 18 20 23 21 19 22 22 23
INPUT-LIGAND-PDBQT: REMARK SMILES IDX 20 24 21 25
INPUT-LIGAND-PDBQT: REMARK H PARENT 5 4 20 26
INPUT-LIGAND-PDBQT: ROOT
INPUT-LIGAND-PDBQT: ATOM      1  N   UNL     1      -1.145   0.548   1.027  1.00  0.00    -0.242 NA
INPUT-LIGAND-PDBQT: ENDROOT
INPUT-LIGAND-PDBQT: BRANCH   1   2
INPUT-LIGAND-PDBQT: ATOM      2  C   UNL     1       0.102   0.624   0.653  1.00  0.00     0.233 C 
INPUT-LIGAND-PDBQT: BRANCH   2   3
INPUT-LIGAND-PDBQT: ATOM      3  O   UNL     1       0.531   1.564  -0.289  1.00  0.00    -0.492 OA
INPUT-LIGAND-PDBQT: ATOM      4  H   UNL     1      -0.083   2.241  -0.721  1.00  0.00     0.295 HD
INPUT-LIGAND-PDBQT: ENDBRANCH   2   3
INPUT-LIGAND-PDBQT: BRANCH   2   5
INPUT-LIGAND-PDBQT: ATOM      5  C   UNL     1       1.100  -0.299   1.227  1.00  0.00     0.125 A 
INPUT-LIGAND-PDBQT: ATOM      6  N   UNL     1       2.398  -0.197   0.829  1.00  0.00    -0.243 NA
INPUT-LIGAND-PDBQT: ATOM      7  C   UNL     1       0.742  -1.279   2.171  1.00  0.00     0.035 A 
INPUT-LIGAND-PDBQT: ATOM      8  C   UNL     1       3.371  -1.015   1.314  1.00  0.00     0.071 A 
INPUT-LIGAND-PDBQT: ATOM      9  C   UNL     1       1.720  -2.133   2.686  1.00  0.00     0.013 A 
INPUT-LIGAND-PDBQT: ATOM     10  C   UNL     1       4.693  -0.873   0.874  1.00  0.00     0.029 A 
INPUT-LIGAND-PDBQT: ATOM     11  C   UNL     1       3.047  -2.010   2.262  1.00  0.00     0.000 A 
INPUT-LIGAND-PDBQT: ATOM     12  C   UNL     1       5.690  -1.716   1.375  1.00  0.00     0.002 A 
INPUT-LIGAND-PDBQT: ATOM     13  C   UNL     1       4.054  -2.852   2.759  1.00  0.00     0.010 A 
INPUT-LIGAND-PDBQT: ATOM     14  C   UNL     1       5.372  -2.702   2.314  1.00  0.00     0.001 A 
INPUT-LIGAND-PDBQT: ENDBRANCH   2   5
INPUT-LIGAND-PDBQT: ENDBRANCH   1   2
INPUT-LIGAND-PDBQT: BRANCH   1  15
INPUT-LIGAND-PDBQT: ATOM     15  C   UNL     1      -2.247   1.378   0.538  1.00  0.00     0.136 C 
INPUT-LIGAND-PDBQT: ATOM     16  C   UNL     1      -3.471   1.160   1.425  1.00  0.00     0.038 C 
INPUT-LIGAND-PDBQT: BRANCH  15  17
INPUT-LIGAND-PDBQT: ATOM     17  C   UNL     1      -2.582   1.037  -0.899  1.00  0.00    -0.023 A 
INPUT-LIGAND-PDBQT: ATOM     18  C   UNL     1      -2.694  -0.318  -1.315  1.00  0.00     0.008 A 
INPUT-LIGAND-PDBQT: ATOM     19  C   UNL     1      -2.830   2.073  -1.828  1.00  0.00     0.016 A 
INPUT-LIGAND-PDBQT: ATOM     20  C   UNL     1      -3.026  -0.638  -2.644  1.00  0.00     0.027 A 
INPUT-LIGAND-PDBQT: ATOM     21  C   UNL     1      -3.155   1.719  -3.135  1.00  0.00    -0.000 A 
INPUT-LIGAND-PDBQT: ATOM     22  C   UNL     1      -3.249   0.413  -3.530  1.00  0.00     0.045 A 
INPUT-LIGAND-PDBQT: ATOM     23  C   UNL     1      -3.437   2.503  -4.232  1.00  0.00     0.028 A 
INPUT-LIGAND-PDBQT: ATOM     24  N   UNL     1      -3.577   0.329  -4.829  1.00  0.00    -0.361 N 
INPUT-LIGAND-PDBQT: ATOM     25  C   UNL     1      -3.693   1.605  -5.264  1.00  0.00     0.083 A 
INPUT-LIGAND-PDBQT: ATOM     26  H   UNL     1      -3.717  -0.540  -5.392  1.00  0.00     0.166 HD
INPUT-LIGAND-PDBQT: ENDBRANCH  15  17
INPUT-LIGAND-PDBQT: ENDBRANCH   1  15
INPUT-LIGAND-PDBQT: TORSDOF 5


    FINAL DOCKED STATE:
    ________________________


Run:   1 / 20
Time taken for this run:   0.034s

DOCKED: MODEL        1
DOCKED: USER    Run = 1
DOCKED: USER
DOCKED: USER    Estimated Free Energy of Binding    =  -7.29 kcal/mol  [=(1)+(2)+(3)-(4)]
DOCKED: USER
DOCKED: USER    (1) Final Intermolecular Energy     =  -8.78 kcal/mol
DOCKED: USER        vdW + Hbond + desolv Energy     =  -8.64 kcal/mol
DOCKED: USER        Electrostatic Energy            =  -0.14 kcal/mol
DOCKED: USER        Moving Ligand-Fixed Receptor    =  -8.78 kcal/mol
DOCKED: USER        Moving Ligand-Moving Receptor   =  +0.00 kcal/mol
DOCKED: USER    (2) Final Total Internal Energy     =  -1.32 kcal/mol
DOCKED: USER    (3) Torsional Free Energy           =  +1.49 kcal/mol
DOCKED: USER    (4) Unbound System's Energy         =  -1.32 kcal/mol
DOCKED: USER
DOCKED: USER
DOCKED: REMARK SMILES C[C@@H](/N=C(\O)c1ccc2ccccc2n1)c1ccc2[nH]ccc2c1
DOCKED: REMARK SMILES IDX 3 1 4 2 5 3 6 5 15 6 7 7 14 8 8 9 13 10 9 11 12 12 10 13
DOCKED: REMARK SMILES IDX 11 14 2 15 1 16 16 17 17 18 24 19 18 20 23 21 19 22 22 23
DOCKED: REMARK SMILES IDX 20 24 21 25
DOCKED: REMARK H PARENT 5 4 20 26
DOCKED: USER                              x       y       z     vdW  Elec       q    Type
DOCKED: USER                           _______ _______ _______ _____ _____    ______ ____
DOCKED: ROOT
DOCKED: ATOM      1  N   UNL     1     140.572  74.786 221.987 -0.66 +0.02    -0.242 NA 
DOCKED: ENDROOT
DOCKED: BRANCH   1   2
DOCKED: ATOM      2  C   UNL     1     139.557  75.546 222.293 -0.18 -0.04    +0.233 C  
DOCKED: BRANCH   2   3
DOCKED: ATOM      3  O   UNL     1     138.252  75.045 222.340 -0.13 +0.15    -0.492 OA 
DOCKED: ATOM      4  H   UNL     1     137.958  74.315 222.974 -0.46 -0.19    +0.295 HD 
DOCKED: ENDBRANCH   2   3
DOCKED: BRANCH   2   5
DOCKED: ATOM      5  C   UNL     1     139.772  76.973 222.598 -0.24 -0.03    +0.125 A  
DOCKED: ATOM      6  N   UNL     1     141.046  77.440 222.709 -0.29 +0.09    -0.243 NA 
DOCKED: ATOM      7  C   UNL     1     138.694  77.860 222.777 -0.27 -0.01    +0.035 A  
DOCKED: ATOM      8  C   UNL     1     141.319  78.742 222.990 -0.49 -0.02    +0.071 A  
DOCKED: ATOM      9  C   UNL     1     138.944  79.203 223.067 -0.33 -0.00    +0.013 A  
DOCKED: ATOM     10  C   UNL     1     142.647  79.176 223.096 -0.48 -0.01    +0.029 A  
DOCKED: ATOM     11  C   UNL     1     140.262  79.659 223.177 -0.44 -0.00    +0.000 A  
DOCKED: ATOM     12  C   UNL     1     142.923  80.516 223.386 -0.68 -0.00    +0.002 A  
DOCKED: ATOM     13  C   UNL     1     140.548  81.002 223.468 -0.43 -0.00    +0.010 A  
DOCKED: ATOM     14  C   UNL     1     141.878  81.426 223.571 -0.57 -0.00    +0.001 A  
DOCKED: ENDBRANCH   2   5
DOCKED: ENDBRANCH   1   2
DOCKED: BRANCH   1  15
DOCKED: ATOM     15  C   UNL     1     141.016  74.437 220.637 -0.20 -0.03    +0.136 C  
DOCKED: ATOM     16  C   UNL     1     142.076  73.341 220.725 -0.25 -0.01    +0.038 C  
DOCKED: BRANCH  15  17
DOCKED: ATOM     17  C   UNL     1     141.583  75.648 219.926 -0.22 +0.01    -0.023 A  
DOCKED: ATOM     18  C   UNL     1     142.911  75.635 219.418 -0.33 -0.00    +0.008 A  
DOCKED: ATOM     19  C   UNL     1     140.772  76.788 219.724 -0.15 -0.01    +0.016 A  
DOCKED: ATOM     20  C   UNL     1     143.433  76.750 218.738 -0.28 -0.02    +0.027 A  
DOCKED: ATOM     21  C   UNL     1     141.323  77.874 219.048 -0.19 +0.00    -0.000 A  
DOCKED: ATOM     22  C   UNL     1     142.605  77.858 218.573 -0.31 -0.03    +0.045 A  
DOCKED: ATOM     23  C   UNL     1     140.777  79.096 218.720 -0.13 -0.01    +0.028 A  
DOCKED: ATOM     24  N   UNL     1     142.902  79.013 217.958 -0.17 +0.38    -0.361 N  
DOCKED: ATOM     25  C   UNL     1     141.787  79.775 218.045 -0.23 -0.06    +0.083 A  
DOCKED: ATOM     26  H   UNL     1     143.805  79.275 217.502 -0.52 -0.32    +0.166 HD 
DOCKED: ENDBRANCH  15  17
DOCKED: ENDBRANCH   1  15
DOCKED: TORSDOF 5
DOCKED: TER
DOCKED: ENDMDL
________________________________________________________________________________


    FINAL DOCKED STATE:
    ________________________


Run:   2 / 20
Time taken for this run:   0.034s

DOCKED: MODEL        2
DOCKED: USER    Run = 2
DOCKED: USER
DOCKED: USER    Estimated Free Energy of Binding    =  -7.69 kcal/mol  [=(1)+(2)+(3)-(4)]
DOCKED: USER
DOCKED: USER    (1) Final Intermolecular Energy     =  -9.19 kcal/mol
DOCKED: USER        vdW + Hbond + desolv Energy     =  -9.07 kcal/mol
DOCKED: USER        Electrostatic Energy            =  -0.12 kcal/mol
DOCKED: USER        Moving Ligand-Fixed Receptor    =  -9.19 kcal/mol
DOCKED: USER        Moving Ligand-Moving Receptor   =  +0.00 kcal/mol
DOCKED: USER    (2) Final Total Internal Energy     =  -0.98 kcal/mol
DOCKED: USER    (3) Torsional Free Energy           =  +1.49 kcal/mol
DOCKED: USER    (4) Unbound System's Energy         =  -0.98 kcal/mol
DOCKED: USER
DOCKED: USER
DOCKED: REMARK SMILES C[C@@H](/N=C(\O)c1ccc2ccccc2n1)c1ccc2[nH]ccc2c1
DOCKED: REMARK SMILES IDX 3 1 4 2 5 3 6 5 15 6 7 7 14 8 8 9 13 10 9 11 12 12 10 13
DOCKED: REMARK SMILES IDX 11 14 2 15 1 16 16 17 17 18 24 19 18 20 23 21 19 22 22 23
DOCKED: REMARK SMILES IDX 20 24 21 25
DOCKED: REMARK H PARENT 5 4 20 26
DOCKED: USER                              x       y       z     vdW  Elec       q    Type
DOCKED: USER                           _______ _______ _______ _____ _____    ______ ____
DOCKED: ROOT
DOCKED: ATOM      1  N   UNL     1     139.656  72.363 220.750 -0.06 +0.04    -0.242 NA 
DOCKED: ENDROOT
DOCKED: BRANCH   1   2
DOCKED: ATOM      2  C   UNL     1     139.596  72.725 222.001 -0.19 -0.04    +0.233 C  
DOCKED: BRANCH   2   3
DOCKED: ATOM      3  O   UNL     1     139.476  74.068 222.373 -0.65 +0.08    -0.492 OA 
DOCKED: ATOM      4  H   UNL     1     139.276  74.370 223.317 -0.41 -0.11    +0.295 HD 
DOCKED: ENDBRANCH   2   3
DOCKED: BRANCH   2   5
DOCKED: ATOM      5  C   UNL     1     139.656  71.706 223.066 -0.28 -0.03    +0.125 A  
DOCKED: ATOM      6  N   UNL     1     140.263  72.017 224.244 -0.20 +0.04    -0.243 NA 
DOCKED: ATOM      7  C   UNL     1     139.103  70.423 222.893 -0.22 -0.01    +0.035 A  
DOCKED: ATOM      8  C   UNL     1     140.357  71.127 225.269 -0.50 -0.01    +0.071 A  
DOCKED: ATOM      9  C   UNL     1     139.185  69.489 223.928 -0.30 -0.00    +0.013 A  
DOCKED: ATOM     10  C   UNL     1     140.992  71.494 226.462 -0.68 -0.00    +0.029 A  
DOCKED: ATOM     11  C   UNL     1     139.814  69.832 225.129 -0.42 -0.00    +0.000 A  
DOCKED: ATOM     12  C   UNL     1     141.087  70.576 227.513 -0.63 -0.00    +0.002 A  
DOCKED: ATOM     13  C   UNL     1     139.914  68.917 226.188 -0.52 -0.00    +0.010 A  
DOCKED: ATOM     14  C   UNL     1     140.550  69.292 227.377 -0.61 -0.00    +0.001 A  
DOCKED: ENDBRANCH   2   5
DOCKED: ENDBRANCH   1   2
DOCKED: BRANCH   1  15
DOCKED: ATOM     15  C   UNL     1     140.511  72.952 219.719 -0.06 -0.03    +0.136 C  
DOCKED: ATOM     16  C   UNL     1     140.248  72.250 218.388 -0.02 -0.01    +0.038 C  
DOCKED: BRANCH  15  17
DOCKED: ATOM     17  C   UNL     1     141.973  72.822 220.092 -0.17 +0.00    -0.023 A  
DOCKED: ATOM     18  C   UNL     1     142.528  71.554 220.418 -0.22 -0.00    +0.008 A  
DOCKED: ATOM     19  C   UNL     1     142.807  73.963 220.074 -0.27 -0.00    +0.016 A  
DOCKED: ATOM     20  C   UNL     1     143.890  71.427 220.744 -0.20 -0.00    +0.027 A  
DOCKED: ATOM     21  C   UNL     1     144.150  73.799 220.404 -0.44 +0.00    -0.000 A  
DOCKED: ATOM     22  C   UNL     1     144.674  72.578 220.728 -0.41 -0.01    +0.045 A  
DOCKED: ATOM     23  C   UNL     1     145.174  74.718 220.474 -0.32 -0.01    +0.028 A  
DOCKED: ATOM     24  N   UNL     1     145.984  72.677 221.002 -0.25 +0.03    -0.361 N  
DOCKED: ATOM     25  C   UNL     1     146.296  73.984 220.848 -0.55 -0.01    +0.083 A  
DOCKED: ATOM     26  H   UNL     1     146.634  71.906 221.276 -0.47 -0.04    +0.166 HD 
DOCKED: ENDBRANCH  15  17
DOCKED: ENDBRANCH   1  15
DOCKED: TORSDOF 5
DOCKED: TER
DOCKED: ENDMDL
________________________________________________________________________________


    FINAL DOCKED STATE:
    ________________________


Run:   3 / 20
Time taken for this run:   0.034s

DOCKED: MODEL        3
DOCKED: USER    Run = 3
DOCKED: USER
DOCKED: USER    Estimated Free Energy of Binding    =  -7.41 kcal/mol  [=(1)+(2)+(3)-(4)]
DOCKED: USER
DOCKED: USER    (1) Final Intermolecular Energy     =  -8.90 kcal/mol
DOCKED: USER        vdW + Hbond + desolv Energy     =  -8.81 kcal/mol
DOCKED: USER        Electrostatic Energy            =  -0.09 kcal/mol
DOCKED: USER        Moving Ligand-Fixed Receptor    =  -8.90 kcal/mol
DOCKED: USER        Moving Ligand-Moving Receptor   =  +0.00 kcal/mol
DOCKED: USER    (2) Final Total Internal Energy     =  -1.13 kcal/mol
DOCKED: USER    (3) Torsional Free Energy           =  +1.49 kcal/mol
DOCKED: USER    (4) Unbound System's Energy         =  -1.13 kcal/mol
DOCKED: USER
DOCKED: USER
DOCKED: REMARK SMILES C[C@@H](/N=C(\O)c1ccc2ccccc2n1)c1ccc2[nH]ccc2c1
DOCKED: REMARK SMILES IDX 3 1 4 2 5 3 6 5 15 6 7 7 14 8 8 9 13 10 9 11 12 12 10 13
DOCKED: REMARK SMILES IDX 11 14 2 15 1 16 16 17 17 18 24 19 18 20 23 21 19 22 22 23
DOCKED: REMARK SMILES IDX 20 24 21 25
DOCKED: REMARK H PARENT 5 4 20 26
DOCKED: USER                              x       y       z     vdW  Elec       q    Type
DOCKED: USER                           _______ _______ _______ _____ _____    ______ ____
DOCKED: ROOT
DOCKED: ATOM      1  N   UNL     1     139.950  74.510 220.096 -0.04 +0.05    -0.242 NA 
DOCKED: ENDROOT
DOCKED: BRANCH   1   2
DOCKED: ATOM      2  C   UNL     1     140.027  75.120 221.245 -0.20 -0.05    +0.233 C  
DOCKED: BRANCH   2   3
DOCKED: ATOM      3  O   UNL     1     139.541  74.540 222.421 -0.62 +0.06    -0.492 OA 
DOCKED: ATOM      4  H   UNL     1     139.385  75.056 223.275 -0.39 -0.04    +0.295 HD 
DOCKED: ENDBRANCH   2   3
DOCKED: BRANCH   2   5
DOCKED: ATOM      5  C   UNL     1     140.639  76.461 221.327 -0.27 -0.04    +0.125 A  
DOCKED: ATOM      6  N   UNL     1     140.852  77.014 222.553 -0.27 +0.08    -0.243 NA 
DOCKED: ATOM      7  C   UNL     1     141.005  77.177 220.173 -0.21 -0.01    +0.035 A  
DOCKED: ATOM      8  C   UNL     1     141.410  78.246 222.704 -0.45 -0.03    +0.071 A  
DOCKED: ATOM      9  C   UNL     1     141.579  78.444 220.298 -0.29 -0.01    +0.013 A  
DOCKED: ATOM     10  C   UNL     1     141.609  78.775 223.985 -0.54 -0.01    +0.029 A  
DOCKED: ATOM     11  C   UNL     1     141.788  78.993 221.567 -0.42 -0.00    +0.000 A  
DOCKED: ATOM     12  C   UNL     1     142.182  80.042 224.136 -0.52 -0.00    +0.002 A  
DOCKED: ATOM     13  C   UNL     1     142.363  80.263 221.728 -0.43 -0.00    +0.010 A  
DOCKED: ATOM     14  C   UNL     1     142.558  80.783 223.012 -0.62 -0.00    +0.001 A  
DOCKED: ENDBRANCH   2   5
DOCKED: ENDBRANCH   1   2
DOCKED: BRANCH   1  15
DOCKED: ATOM     15  C   UNL     1     140.377  73.139 219.814 -0.07 -0.03    +0.136 C  
DOCKED: ATOM     16  C   UNL     1     139.522  72.170 220.628 -0.10 -0.01    +0.038 C  
DOCKED: BRANCH  15  17
DOCKED: ATOM     17  C   UNL     1     141.840  72.949 220.155 -0.18 +0.00    -0.023 A  
DOCKED: ATOM     18  C   UNL     1     142.351  71.659 220.465 -0.21 -0.00    +0.008 A  
DOCKED: ATOM     19  C   UNL     1     142.719  74.056 220.122 -0.28 -0.00    +0.016 A  
DOCKED: ATOM     20  C   UNL     1     143.714  71.476 220.761 -0.26 -0.00    +0.027 A  
DOCKED: ATOM     21  C   UNL     1     144.061  73.838 220.421 -0.43 +0.00    -0.000 A  
DOCKED: ATOM     22  C   UNL     1     144.542  72.595 220.731 -0.40 -0.01    +0.045 A  
DOCKED: ATOM     23  C   UNL     1     145.122  74.715 220.471 -0.34 -0.01    +0.028 A  
DOCKED: ATOM     24  N   UNL     1     145.861  72.641 220.976 -0.24 +0.03    -0.361 N  
DOCKED: ATOM     25  C   UNL     1     146.221  73.935 220.819 -0.57 -0.01    +0.083 A  
DOCKED: ATOM     26  H   UNL     1     146.485  71.843 221.233 -0.47 -0.06    +0.166 HD 
DOCKED: ENDBRANCH  15  17
DOCKED: ENDBRANCH   1  15
DOCKED: TORSDOF 5
DOCKED: TER
DOCKED: ENDMDL
________________________________________________________________________________


    FINAL DOCKED STATE:
    ________________________


Run:   4 / 20
Time taken for this run:   0.034s

DOCKED: MODEL        4
DOCKED: USER    Run = 4
DOCKED: USER
DOCKED: USER    Estimated Free Energy of Binding    =  -8.16 kcal/mol  [=(1)+(2)+(3)-(4)]
DOCKED: USER
DOCKED: USER    (1) Final Intermolecular Energy     =  -9.65 kcal/mol
DOCKED: USER        vdW + Hbond + desolv Energy     =  -9.57 kcal/mol
DOCKED: USER        Electrostatic Energy            =  -0.08 kcal/mol
DOCKED: USER        Moving Ligand-Fixed Receptor    =  -9.65 kcal/mol
DOCKED: USER        Moving Ligand-Moving Receptor   =  +0.00 kcal/mol
DOCKED: USER    (2) Final Total Internal Energy     =  -0.78 kcal/mol
DOCKED: USER    (3) Torsional Free Energy           =  +1.49 kcal/mol
DOCKED: USER    (4) Unbound System's Energy         =  -0.78 kcal/mol
DOCKED: USER
DOCKED: USER
DOCKED: REMARK SMILES C[C@@H](/N=C(\O)c1ccc2ccccc2n1)c1ccc2[nH]ccc2c1
DOCKED: REMARK SMILES IDX 3 1 4 2 5 3 6 5 15 6 7 7 14 8 8 9 13 10 9 11 12 12 10 13
DOCKED: REMARK SMILES IDX 11 14 2 15 1 16 16 17 17 18 24 19 18 20 23 21 19 22 22 23
DOCKED: REMARK SMILES IDX 20 24 21 25
DOCKED: REMARK H PARENT 5 4 20 26
DOCKED: USER                              x       y       z     vdW  Elec       q    Type
DOCKED: USER                           _______ _______ _______ _____ _____    ______ ____
DOCKED: ROOT
DOCKED: ATOM      1  N   UNL     1     140.165  71.454 221.178 -0.08 +0.04    -0.242 NA 
DOCKED: ENDROOT
DOCKED: BRANCH   1   2
DOCKED: ATOM      2  C   UNL     1     139.975  72.065 222.314 -0.22 -0.04    +0.233 C  
DOCKED: BRANCH   2   3
DOCKED: ATOM      3  O   UNL     1     139.765  73.446 222.381 -0.67 +0.07    -0.492 OA 
DOCKED: ATOM      4  H   UNL     1     139.224  73.894 223.108 -0.47 -0.12    +0.295 HD 
DOCKED: ENDBRANCH   2   3
DOCKED: BRANCH   2   5
DOCKED: ATOM      5  C   UNL     1     139.980  71.296 223.573 -0.32 -0.02    +0.125 A  
DOCKED: ATOM      6  N   UNL     1     140.489  71.872 224.697 -0.27 +0.04    -0.243 NA 
DOCKED: ATOM      7  C   UNL     1     139.474  69.985 223.639 -0.27 -0.01    +0.035 A  
DOCKED: ATOM      8  C   UNL     1     140.528  71.222 225.891 -0.54 -0.01    +0.071 A  
DOCKED: ATOM      9  C   UNL     1     139.501  69.293 224.852 -0.38 -0.00    +0.013 A  
DOCKED: ATOM     10  C   UNL     1     141.062  71.856 227.020 -0.77 -0.01    +0.029 A  
DOCKED: ATOM     11  C   UNL     1     140.029  69.905 225.993 -0.50 -0.00    +0.000 A  
DOCKED: ATOM     12  C   UNL     1     141.100  71.184 228.246 -0.70 -0.00    +0.002 A  
DOCKED: ATOM     13  C   UNL     1     140.072  69.238 227.227 -0.59 -0.00    +0.010 A  
DOCKED: ATOM     14  C   UNL     1     140.607  69.880 228.349 -0.58 -0.00    +0.001 A  
DOCKED: ENDBRANCH   2   5
DOCKED: ENDBRANCH   1   2
DOCKED: BRANCH   1  15
DOCKED: ATOM     15  C   UNL     1     140.546  72.082 219.912 -0.07 -0.02    +0.136 C  
DOCKED: ATOM     16  C   UNL     1     140.633  71.010 218.827 -0.04 -0.01    +0.038 C  
DOCKED: BRANCH  15  17
DOCKED: ATOM     17  C   UNL     1     141.877  72.794 220.042 -0.16 +0.00    -0.023 A  
DOCKED: ATOM     18  C   UNL     1     141.938  74.214 220.074 -0.22 -0.00    +0.008 A  
DOCKED: ATOM     19  C   UNL     1     143.066  72.043 220.179 -0.24 -0.00    +0.016 A  
DOCKED: ATOM     20  C   UNL     1     143.170  74.879 220.217 -0.35 -0.01    +0.027 A  
DOCKED: ATOM     21  C   UNL     1     144.267  72.734 220.317 -0.39 +0.00    -0.000 A  
DOCKED: ATOM     22  C   UNL     1     144.319  74.101 220.335 -0.44 -0.01    +0.045 A  
DOCKED: ATOM     23  C   UNL     1     145.556  72.271 220.460 -0.35 +0.00    +0.028 A  
DOCKED: ATOM     24  N   UNL     1     145.582  74.529 220.481 -0.20 +0.13    -0.361 N  
DOCKED: ATOM     25  C   UNL     1     146.344  73.414 220.558 -0.57 +0.01    +0.083 A  
DOCKED: ATOM     26  H   UNL     1     145.914  75.519 220.529 -0.19 -0.10    +0.166 HD 
DOCKED: ENDBRANCH  15  17
DOCKED: ENDBRANCH   1  15
DOCKED: TORSDOF 5
DOCKED: TER
DOCKED: ENDMDL
________________________________________________________________________________


    FINAL DOCKED STATE:
    ________________________


Run:   5 / 20
Time taken for this run:   0.034s

DOCKED: MODEL        5
DOCKED: USER    Run = 5
DOCKED: USER
DOCKED: USER    Estimated Free Energy of Binding    =  -7.30 kcal/mol  [=(1)+(2)+(3)-(4)]
DOCKED: USER
DOCKED: USER    (1) Final Intermolecular Energy     =  -8.79 kcal/mol
DOCKED: USER        vdW + Hbond + desolv Energy     =  -8.64 kcal/mol
DOCKED: USER        Electrostatic Energy            =  -0.15 kcal/mol
DOCKED: USER        Moving Ligand-Fixed Receptor    =  -8.79 kcal/mol
DOCKED: USER        Moving Ligand-Moving Receptor   =  +0.00 kcal/mol
DOCKED: USER    (2) Final Total Internal Energy     =  -1.31 kcal/mol
DOCKED: USER    (3) Torsional Free Energy           =  +1.49 kcal/mol
DOCKED: USER    (4) Unbound System's Energy         =  -1.31 kcal/mol
DOCKED: USER
DOCKED: USER
DOCKED: REMARK SMILES C[C@@H](/N=C(\O)c1ccc2ccccc2n1)c1ccc2[nH]ccc2c1
DOCKED: REMARK SMILES IDX 3 1 4 2 5 3 6 5 15 6 7 7 14 8 8 9 13 10 9 11 12 12 10 13
DOCKED: REMARK SMILES IDX 11 14 2 15 1 16 16 17 17 18 24 19 18 20 23 21 19 22 22 23
DOCKED: REMARK SMILES IDX 20 24 21 25
DOCKED: REMARK H PARENT 5 4 20 26
DOCKED: USER                              x       y       z     vdW  Elec       q    Type
DOCKED: USER                           _______ _______ _______ _____ _____    ______ ____
DOCKED: ROOT
DOCKED: ATOM      1  N   UNL     1     140.563  74.816 221.964 -0.66 +0.02    -0.242 NA 
DOCKED: ENDROOT
DOCKED: BRANCH   1   2
DOCKED: ATOM      2  C   UNL     1     139.548  75.573 222.276 -0.19 -0.04    +0.233 C  
DOCKED: BRANCH   2   3
DOCKED: ATOM      3  O   UNL     1     138.245  75.070 222.330 -0.13 +0.15    -0.492 OA 
DOCKED: ATOM      4  H   UNL     1     137.938  74.388 223.010 -0.45 -0.19    +0.295 HD 
DOCKED: ENDBRANCH   2   3
DOCKED: BRANCH   2   5
DOCKED: ATOM      5  C   UNL     1     139.762  77.001 222.582 -0.24 -0.03    +0.125 A  
DOCKED: ATOM      6  N   UNL     1     141.036  77.467 222.699 -0.29 +0.09    -0.243 NA 
DOCKED: ATOM      7  C   UNL     1     138.684  77.888 222.755 -0.28 -0.01    +0.035 A  
DOCKED: ATOM      8  C   UNL     1     141.308  78.769 222.981 -0.49 -0.02    +0.071 A  
DOCKED: ATOM      9  C   UNL     1     138.933  79.231 223.045 -0.33 -0.00    +0.013 A  
DOCKED: ATOM     10  C   UNL     1     142.635  79.202 223.094 -0.50 -0.01    +0.029 A  
DOCKED: ATOM     11  C   UNL     1     140.250  79.687 223.162 -0.43 -0.00    +0.000 A  
DOCKED: ATOM     12  C   UNL     1     142.911  80.542 223.384 -0.67 -0.00    +0.002 A  
DOCKED: ATOM     13  C   UNL     1     140.536  81.030 223.454 -0.42 -0.00    +0.010 A  
DOCKED: ATOM     14  C   UNL     1     141.865  81.453 223.563 -0.57 -0.00    +0.001 A  
DOCKED: ENDBRANCH   2   5
DOCKED: ENDBRANCH   1   2
DOCKED: BRANCH   1  15
DOCKED: ATOM     15  C   UNL     1     141.000  74.470 220.611 -0.20 -0.03    +0.136 C  
DOCKED: ATOM     16  C   UNL     1     142.049  73.362 220.691 -0.25 -0.01    +0.038 C  
DOCKED: BRANCH  15  17
DOCKED: ATOM     17  C   UNL     1     141.578  75.679 219.905 -0.22 +0.01    -0.023 A  
DOCKED: ATOM     18  C   UNL     1     142.902  75.652 219.387 -0.33 -0.00    +0.008 A  
DOCKED: ATOM     19  C   UNL     1     140.781  76.831 219.718 -0.15 -0.01    +0.016 A  
DOCKED: ATOM     20  C   UNL     1     143.433  76.766 218.712 -0.28 -0.02    +0.027 A  
DOCKED: ATOM     21  C   UNL     1     141.340  77.915 219.047 -0.20 +0.00    -0.000 A  
DOCKED: ATOM     22  C   UNL     1     142.619  77.885 218.562 -0.31 -0.03    +0.045 A  
DOCKED: ATOM     23  C   UNL     1     140.808  79.146 218.732 -0.13 -0.01    +0.028 A  
DOCKED: ATOM     24  N   UNL     1     142.926  79.042 217.954 -0.17 +0.38    -0.361 N  
DOCKED: ATOM     25  C   UNL     1     141.822  79.817 218.055 -0.24 -0.06    +0.083 A  
DOCKED: ATOM     26  H   UNL     1     143.830  79.295 217.494 -0.52 -0.33    +0.166 HD 
DOCKED: ENDBRANCH  15  17
DOCKED: ENDBRANCH   1  15
DOCKED: TORSDOF 5
DOCKED: TER
DOCKED: ENDMDL
________________________________________________________________________________


    FINAL DOCKED STATE:
    ________________________


Run:   6 / 20
Time taken for this run:   0.034s

DOCKED: MODEL        6
DOCKED: USER    Run = 6
DOCKED: USER
DOCKED: USER    Estimated Free Energy of Binding    =  -8.17 kcal/mol  [=(1)+(2)+(3)-(4)]
DOCKED: USER
DOCKED: USER    (1) Final Intermolecular Energy     =  -9.66 kcal/mol
DOCKED: USER        vdW + Hbond + desolv Energy     =  -9.62 kcal/mol
DOCKED: USER        Electrostatic Energy            =  -0.05 kcal/mol
DOCKED: USER        Moving Ligand-Fixed Receptor    =  -9.66 kcal/mol
DOCKED: USER        Moving Ligand-Moving Receptor   =  +0.00 kcal/mol
DOCKED: USER    (2) Final Total Internal Energy     =  -0.44 kcal/mol
DOCKED: USER    (3) Torsional Free Energy           =  +1.49 kcal/mol
DOCKED: USER    (4) Unbound System's Energy         =  -0.44 kcal/mol
DOCKED: USER
DOCKED: USER
DOCKED: REMARK SMILES C[C@@H](/N=C(\O)c1ccc2ccccc2n1)c1ccc2[nH]ccc2c1
DOCKED: REMARK SMILES IDX 3 1 4 2 5 3 6 5 15 6 7 7 14 8 8 9 13 10 9 11 12 12 10 13
DOCKED: REMARK SMILES IDX 11 14 2 15 1 16 16 17 17 18 24 19 18 20 23 21 19 22 22 23
DOCKED: REMARK SMILES IDX 20 24 21 25
DOCKED: REMARK H PARENT 5 4 20 26
DOCKED: USER                              x       y       z     vdW  Elec       q    Type
DOCKED: USER                           _______ _______ _______ _____ _____    ______ ____
DOCKED: ROOT
DOCKED: ATOM      1  N   UNL     1     140.509  73.545 222.292 -0.70 -0.00    -0.242 NA 
DOCKED: ENDROOT
DOCKED: BRANCH   1   2
DOCKED: ATOM      2  C   UNL     1     140.266  72.263 222.271 -0.22 -0.03    +0.233 C  
DOCKED: BRANCH   2   3
DOCKED: ATOM      3  O   UNL     1     140.152  71.557 221.069 -0.03 +0.08    -0.492 OA 
DOCKED: ATOM      4  H   UNL     1     139.289  71.481 220.547 +0.05 -0.05    +0.295 HD 
DOCKED: ENDBRANCH   2   3
DOCKED: BRANCH   2   5
DOCKED: ATOM      5  C   UNL     1     140.103  71.524 223.537 -0.33 -0.02    +0.125 A  
DOCKED: ATOM      6  N   UNL     1     140.692  72.009 224.664 -0.16 +0.03    -0.243 NA 
DOCKED: ATOM      7  C   UNL     1     139.357  70.333 223.605 -0.29 -0.01    +0.035 A  
DOCKED: ATOM      8  C   UNL     1     140.586  71.379 225.866 -0.55 -0.01    +0.071 A  
DOCKED: ATOM      9  C   UNL     1     139.231  69.665 224.826 -0.37 -0.00    +0.013 A  
DOCKED: ATOM     10  C   UNL     1     141.211  71.916 226.998 -0.75 -0.00    +0.029 A  
DOCKED: ATOM     11  C   UNL     1     139.846  70.182 225.970 -0.49 -0.00    +0.000 A  
DOCKED: ATOM     12  C   UNL     1     141.100  71.265 228.231 -0.72 -0.00    +0.002 A  
DOCKED: ATOM     13  C   UNL     1     139.740  69.535 227.212 -0.56 -0.00    +0.010 A  
DOCKED: ATOM     14  C   UNL     1     140.367  70.079 228.338 -0.59 -0.00    +0.001 A  
DOCKED: ENDBRANCH   2   5
DOCKED: ENDBRANCH   1   2
DOCKED: BRANCH   1  15
DOCKED: ATOM     15  C   UNL     1     139.756  74.580 221.582 -0.24 -0.02    +0.136 C  
DOCKED: ATOM     16  C   UNL     1     139.546  74.142 220.134 -0.10 -0.01    +0.038 C  
DOCKED: BRANCH  15  17
DOCKED: ATOM     17  C   UNL     1     140.492  75.903 221.620 -0.34 +0.01    -0.023 A  
DOCKED: ATOM     18  C   UNL     1     141.319  76.304 220.535 -0.27 -0.00    +0.008 A  
DOCKED: ATOM     19  C   UNL     1     140.323  76.770 222.724 -0.28 -0.00    +0.016 A  
DOCKED: ATOM     20  C   UNL     1     141.987  77.542 220.559 -0.27 -0.02    +0.027 A  
DOCKED: ATOM     21  C   UNL     1     141.000  77.986 222.713 -0.49 +0.00    -0.000 A  
DOCKED: ATOM     22  C   UNL     1     141.803  78.360 221.671 -0.33 -0.03    +0.045 A  
DOCKED: ATOM     23  C   UNL     1     141.026  79.006 223.640 -0.52 -0.01    +0.028 A  
DOCKED: ATOM     24  N   UNL     1     142.340  79.570 221.891 -0.18 +0.19    -0.361 N  
DOCKED: ATOM     25  C   UNL     1     141.868  79.970 223.095 -0.53 -0.02    +0.083 A  
DOCKED: ATOM     26  H   UNL     1     142.988  80.099 221.265 -0.36 -0.11    +0.166 HD 
DOCKED: ENDBRANCH  15  17
DOCKED: ENDBRANCH   1  15
DOCKED: TORSDOF 5
DOCKED: TER
DOCKED: ENDMDL
________________________________________________________________________________


    FINAL DOCKED STATE:
    ________________________


Run:   7 / 20
Time taken for this run:   0.034s

DOCKED: MODEL        7
DOCKED: USER    Run = 7
DOCKED: USER
DOCKED: USER    Estimated Free Energy of Binding    =  -7.83 kcal/mol  [=(1)+(2)+(3)-(4)]
DOCKED: USER
DOCKED: USER    (1) Final Intermolecular Energy     =  -9.32 kcal/mol
DOCKED: USER        vdW + Hbond + desolv Energy     =  -9.28 kcal/mol
DOCKED: USER        Electrostatic Energy            =  -0.04 kcal/mol
DOCKED: USER        Moving Ligand-Fixed Receptor    =  -9.32 kcal/mol
DOCKED: USER        Moving Ligand-Moving Receptor   =  +0.00 kcal/mol
DOCKED: USER    (2) Final Total Internal Energy     =  -0.95 kcal/mol
DOCKED: USER    (3) Torsional Free Energy           =  +1.49 kcal/mol
DOCKED: USER    (4) Unbound System's Energy         =  -0.95 kcal/mol
DOCKED: USER
DOCKED: USER
DOCKED: REMARK SMILES C[C@@H](/N=C(\O)c1ccc2ccccc2n1)c1ccc2[nH]ccc2c1
DOCKED: REMARK SMILES IDX 3 1 4 2 5 3 6 5 15 6 7 7 14 8 8 9 13 10 9 11 12 12 10 13
DOCKED: REMARK SMILES IDX 11 14 2 15 1 16 16 17 17 18 24 19 18 20 23 21 19 22 22 23
DOCKED: REMARK SMILES IDX 20 24 21 25
DOCKED: REMARK H PARENT 5 4 20 26
DOCKED: USER                              x       y       z     vdW  Elec       q    Type
DOCKED: USER                           _______ _______ _______ _____ _____    ______ ____
DOCKED: ROOT
DOCKED: ATOM      1  N   UNL     1     139.619  71.896 221.000 -0.06 +0.04    -0.242 NA 
DOCKED: ENDROOT
DOCKED: BRANCH   1   2
DOCKED: ATOM      2  C   UNL     1     139.813  72.387 222.193 -0.21 -0.04    +0.233 C  
DOCKED: BRANCH   2   3
DOCKED: ATOM      3  O   UNL     1     139.967  73.760 222.407 -0.73 +0.02    -0.492 OA 
DOCKED: ATOM      4  H   UNL     1     139.484  74.269 223.135 -0.45 -0.04    +0.295 HD 
DOCKED: ENDBRANCH   2   3
DOCKED: BRANCH   2   5
DOCKED: ATOM      5  C   UNL     1     139.877  71.484 223.359 -0.31 -0.02    +0.125 A  
DOCKED: ATOM      6  N   UNL     1     140.371  71.960 224.535 -0.21 +0.04    -0.243 NA 
DOCKED: ATOM      7  C   UNL     1     139.441  70.149 223.283 -0.25 -0.01    +0.035 A  
DOCKED: ATOM      8  C   UNL     1     140.461  71.185 225.649 -0.53 -0.01    +0.071 A  
DOCKED: ATOM      9  C   UNL     1     139.522  69.330 224.411 -0.32 -0.00    +0.013 A  
DOCKED: ATOM     10  C   UNL     1     140.977  71.719 226.837 -0.73 -0.00    +0.029 A  
DOCKED: ATOM     11  C   UNL     1     140.034  69.840 225.608 -0.47 -0.00    +0.000 A  
DOCKED: ATOM     12  C   UNL     1     141.068  70.918 227.980 -0.71 -0.00    +0.002 A  
DOCKED: ATOM     13  C   UNL     1     140.129  69.044 226.761 -0.57 -0.00    +0.010 A  
DOCKED: ATOM     14  C   UNL     1     140.646  69.586 227.943 -0.63 -0.00    +0.001 A  
DOCKED: ENDBRANCH   2   5
DOCKED: ENDBRANCH   1   2
DOCKED: BRANCH   1  15
DOCKED: ATOM     15  C   UNL     1     140.657  71.536 220.034 -0.08 -0.02    +0.136 C  
DOCKED: ATOM     16  C   UNL     1     141.103  70.098 220.289 -0.04 -0.01    +0.038 C  
DOCKED: BRANCH  15  17
DOCKED: ATOM     17  C   UNL     1     141.843  72.472 220.142 -0.17 +0.00    -0.023 A  
DOCKED: ATOM     18  C   UNL     1     141.680  73.872 219.956 -0.18 -0.00    +0.008 A  
DOCKED: ATOM     19  C   UNL     1     143.117  71.958 220.476 -0.27 -0.00    +0.016 A  
DOCKED: ATOM     20  C   UNL     1     142.775  74.747 220.077 -0.31 -0.01    +0.027 A  
DOCKED: ATOM     21  C   UNL     1     144.178  72.853 220.586 -0.40 +0.00    -0.000 A  
DOCKED: ATOM     22  C   UNL     1     144.015  74.197 220.393 -0.41 -0.02    +0.045 A  
DOCKED: ATOM     23  C   UNL     1     145.504  72.637 220.888 -0.47 -0.00    +0.028 A  
DOCKED: ATOM     24  N   UNL     1     145.178  74.847 220.558 -0.14 +0.17    -0.361 N  
DOCKED: ATOM     25  C   UNL     1     146.093  73.898 220.860 -0.60 -0.01    +0.083 A  
DOCKED: ATOM     26  H   UNL     1     145.346  75.875 220.473 -0.05 -0.11    +0.166 HD 
DOCKED: ENDBRANCH  15  17
DOCKED: ENDBRANCH   1  15
DOCKED: TORSDOF 5
DOCKED: TER
DOCKED: ENDMDL
________________________________________________________________________________


    FINAL DOCKED STATE:
    ________________________


Run:   8 / 20
Time taken for this run:   0.034s

DOCKED: MODEL        8
DOCKED: USER    Run = 8
DOCKED: USER
DOCKED: USER    Estimated Free Energy of Binding    =  -7.83 kcal/mol  [=(1)+(2)+(3)-(4)]
DOCKED: USER
DOCKED: USER    (1) Final Intermolecular Energy     =  -9.32 kcal/mol
DOCKED: USER        vdW + Hbond + desolv Energy     =  -9.28 kcal/mol
DOCKED: USER        Electrostatic Energy            =  -0.04 kcal/mol
DOCKED: USER        Moving Ligand-Fixed Receptor    =  -9.32 kcal/mol
DOCKED: USER        Moving Ligand-Moving Receptor   =  +0.00 kcal/mol
DOCKED: USER    (2) Final Total Internal Energy     =  -0.96 kcal/mol
DOCKED: USER    (3) Torsional Free Energy           =  +1.49 kcal/mol
DOCKED: USER    (4) Unbound System's Energy         =  -0.96 kcal/mol
DOCKED: USER
DOCKED: USER
DOCKED: REMARK SMILES C[C@@H](/N=C(\O)c1ccc2ccccc2n1)c1ccc2[nH]ccc2c1
DOCKED: REMARK SMILES IDX 3 1 4 2 5 3 6 5 15 6 7 7 14 8 8 9 13 10 9 11 12 12 10 13
DOCKED: REMARK SMILES IDX 11 14 2 15 1 16 16 17 17 18 24 19 18 20 23 21 19 22 22 23
DOCKED: REMARK SMILES IDX 20 24 21 25
DOCKED: REMARK H PARENT 5 4 20 26
DOCKED: USER                              x       y       z     vdW  Elec       q    Type
DOCKED: USER                           _______ _______ _______ _____ _____    ______ ____
DOCKED: ROOT
DOCKED: ATOM      1  N   UNL     1     139.598  71.783 220.985 -0.06 +0.04    -0.242 NA 
DOCKED: ENDROOT
DOCKED: BRANCH   1   2
DOCKED: ATOM      2  C   UNL     1     139.803  72.284 222.171 -0.21 -0.04    +0.233 C  
DOCKED: BRANCH   2   3
DOCKED: ATOM      3  O   UNL     1     139.952  73.660 222.372 -0.73 +0.03    -0.492 OA 
DOCKED: ATOM      4  H   UNL     1     139.472  74.173 223.099 -0.46 -0.05    +0.295 HD 
DOCKED: ENDBRANCH   2   3
DOCKED: BRANCH   2   5
DOCKED: ATOM      5  C   UNL     1     139.883  71.392 223.344 -0.31 -0.02    +0.125 A  
DOCKED: ATOM      6  N   UNL     1     140.376  71.884 224.514 -0.27 +0.04    -0.243 NA 
DOCKED: ATOM      7  C   UNL     1     139.464  70.050 223.280 -0.24 -0.01    +0.035 A  
DOCKED: ATOM      8  C   UNL     1     140.481  71.119 225.634 -0.53 -0.01    +0.071 A  
DOCKED: ATOM      9  C   UNL     1     139.560  69.242 224.415 -0.32 -0.00    +0.013 A  
DOCKED: ATOM     10  C   UNL     1     140.995  71.669 226.815 -0.72 -0.00    +0.029 A  
DOCKED: ATOM     11  C   UNL     1     140.071  69.768 225.606 -0.47 -0.00    +0.000 A  
DOCKED: ATOM     12  C   UNL     1     141.102  70.879 227.964 -0.69 -0.00    +0.002 A  
DOCKED: ATOM     13  C   UNL     1     140.181  68.983 226.764 -0.58 -0.00    +0.010 A  
DOCKED: ATOM     14  C   UNL     1     140.696  69.541 227.939 -0.63 -0.00    +0.001 A  
DOCKED: ENDBRANCH   2   5
DOCKED: ENDBRANCH   1   2
DOCKED: BRANCH   1  15
DOCKED: ATOM     15  C   UNL     1     140.626  71.455 219.995 -0.08 -0.02    +0.136 C  
DOCKED: ATOM     16  C   UNL     1     141.100  70.021 220.221 -0.05 -0.01    +0.038 C  
DOCKED: BRANCH  15  17
DOCKED: ATOM     17  C   UNL     1     141.797  72.409 220.099 -0.16 +0.00    -0.023 A  
DOCKED: ATOM     18  C   UNL     1     141.617  73.804 219.885 -0.17 -0.00    +0.008 A  
DOCKED: ATOM     19  C   UNL     1     143.074  71.919 220.454 -0.26 -0.00    +0.016 A  
DOCKED: ATOM     20  C   UNL     1     142.698  74.695 220.001 -0.29 -0.01    +0.027 A  
DOCKED: ATOM     21  C   UNL     1     144.122  72.831 220.559 -0.39 +0.00    -0.000 A  
DOCKED: ATOM     22  C   UNL     1     143.942  74.169 220.340 -0.40 -0.01    +0.045 A  
DOCKED: ATOM     23  C   UNL     1     145.448  72.639 220.878 -0.48 -0.00    +0.028 A  
DOCKED: ATOM     24  N   UNL     1     145.094  74.839 220.504 -0.17 +0.17    -0.361 N  
DOCKED: ATOM     25  C   UNL     1     146.019  73.908 220.833 -0.60 -0.01    +0.083 A  
DOCKED: ATOM     26  H   UNL     1     145.249  75.867 220.402 -0.03 -0.12    +0.166 HD 
DOCKED: ENDBRANCH  15  17
DOCKED: ENDBRANCH   1  15
DOCKED: TORSDOF 5
DOCKED: TER
DOCKED: ENDMDL
________________________________________________________________________________


    FINAL DOCKED STATE:
    ________________________


Run:   9 / 20
Time taken for this run:   0.034s

DOCKED: MODEL        9
DOCKED: USER    Run = 9
DOCKED: USER
DOCKED: USER    Estimated Free Energy of Binding    =  -7.30 kcal/mol  [=(1)+(2)+(3)-(4)]
DOCKED: USER
DOCKED: USER    (1) Final Intermolecular Energy     =  -8.79 kcal/mol
DOCKED: USER        vdW + Hbond + desolv Energy     =  -8.64 kcal/mol
DOCKED: USER        Electrostatic Energy            =  -0.15 kcal/mol
DOCKED: USER        Moving Ligand-Fixed Receptor    =  -8.79 kcal/mol
DOCKED: USER        Moving Ligand-Moving Receptor   =  +0.00 kcal/mol
DOCKED: USER    (2) Final Total Internal Energy     =  -1.32 kcal/mol
DOCKED: USER    (3) Torsional Free Energy           =  +1.49 kcal/mol
DOCKED: USER    (4) Unbound System's Energy         =  -1.32 kcal/mol
DOCKED: USER
DOCKED: USER
DOCKED: REMARK SMILES C[C@@H](/N=C(\O)c1ccc2ccccc2n1)c1ccc2[nH]ccc2c1
DOCKED: REMARK SMILES IDX 3 1 4 2 5 3 6 5 15 6 7 7 14 8 8 9 13 10 9 11 12 12 10 13
DOCKED: REMARK SMILES IDX 11 14 2 15 1 16 16 17 17 18 24 19 18 20 23 21 19 22 22 23
DOCKED: REMARK SMILES IDX 20 24 21 25
DOCKED: REMARK H PARENT 5 4 20 26
DOCKED: USER                              x       y       z     vdW  Elec       q    Type
DOCKED: USER                           _______ _______ _______ _____ _____    ______ ____
DOCKED: ROOT
DOCKED: ATOM      1  N   UNL     1     140.559  74.787 221.966 -0.67 +0.02    -0.242 NA 
DOCKED: ENDROOT
DOCKED: BRANCH   1   2
DOCKED: ATOM      2  C   UNL     1     139.544  75.542 222.282 -0.18 -0.04    +0.233 C  
DOCKED: BRANCH   2   3
DOCKED: ATOM      3  O   UNL     1     138.241  75.036 222.342 -0.13 +0.15    -0.492 OA 
DOCKED: ATOM      4  H   UNL     1     137.932  74.374 223.041 -0.45 -0.20    +0.295 HD 
DOCKED: ENDBRANCH   2   3
DOCKED: BRANCH   2   5
DOCKED: ATOM      5  C   UNL     1     139.756  76.970 222.587 -0.24 -0.03    +0.125 A  
DOCKED: ATOM      6  N   UNL     1     141.029  77.438 222.702 -0.29 +0.09    -0.243 NA 
DOCKED: ATOM      7  C   UNL     1     138.677  77.856 222.761 -0.28 -0.01    +0.035 A  
DOCKED: ATOM      8  C   UNL     1     141.300  78.741 222.983 -0.49 -0.02    +0.071 A  
DOCKED: ATOM      9  C   UNL     1     138.925  79.200 223.050 -0.33 -0.00    +0.013 A  
DOCKED: ATOM     10  C   UNL     1     142.627  79.176 223.093 -0.50 -0.01    +0.029 A  
DOCKED: ATOM     11  C   UNL     1     140.241  79.657 223.165 -0.43 -0.00    +0.000 A  
DOCKED: ATOM     12  C   UNL     1     142.901  80.516 223.382 -0.68 -0.00    +0.002 A  
DOCKED: ATOM     13  C   UNL     1     140.525  81.001 223.455 -0.42 -0.00    +0.010 A  
DOCKED: ATOM     14  C   UNL     1     141.854  81.426 223.562 -0.57 -0.00    +0.001 A  
DOCKED: ENDBRANCH   2   5
DOCKED: ENDBRANCH   1   2
DOCKED: BRANCH   1  15
DOCKED: ATOM     15  C   UNL     1     140.992  74.443 220.611 -0.20 -0.03    +0.136 C  
DOCKED: ATOM     16  C   UNL     1     142.042  73.336 220.686 -0.25 -0.01    +0.038 C  
DOCKED: BRANCH  15  17
DOCKED: ATOM     17  C   UNL     1     141.567  75.654 219.906 -0.21 +0.01    -0.023 A  
DOCKED: ATOM     18  C   UNL     1     142.890  75.630 219.386 -0.33 -0.00    +0.008 A  
DOCKED: ATOM     19  C   UNL     1     140.767  76.805 219.721 -0.15 -0.01    +0.016 A  
DOCKED: ATOM     20  C   UNL     1     143.419  76.745 218.712 -0.29 -0.02    +0.027 A  
DOCKED: ATOM     21  C   UNL     1     141.324  77.891 219.050 -0.19 +0.00    -0.000 A  
DOCKED: ATOM     22  C   UNL     1     142.602  77.864 218.564 -0.31 -0.03    +0.045 A  
DOCKED: ATOM     23  C   UNL     1     140.790  79.121 218.737 -0.13 -0.01    +0.028 A  
DOCKED: ATOM     24  N   UNL     1     142.907  79.021 217.956 -0.17 +0.38    -0.361 N  
DOCKED: ATOM     25  C   UNL     1     141.802  79.795 218.059 -0.23 -0.06    +0.083 A  
DOCKED: ATOM     26  H   UNL     1     143.809  79.276 217.495 -0.52 -0.32    +0.166 HD 
DOCKED: ENDBRANCH  15  17
DOCKED: ENDBRANCH   1  15
DOCKED: TORSDOF 5
DOCKED: TER
DOCKED: ENDMDL
________________________________________________________________________________


    FINAL DOCKED STATE:
    ________________________


Run:   10 / 20
Time taken for this run:   0.034s

DOCKED: MODEL        10
DOCKED: USER    Run = 10
DOCKED: USER
DOCKED: USER    Estimated Free Energy of Binding    =  -8.23 kcal/mol  [=(1)+(2)+(3)-(4)]
DOCKED: USER
DOCKED: USER    (1) Final Intermolecular Energy     =  -9.72 kcal/mol
DOCKED: USER        vdW + Hbond + desolv Energy     =  -9.59 kcal/mol
DOCKED: USER        Electrostatic Energy            =  -0.13 kcal/mol
DOCKED: USER        Moving Ligand-Fixed Receptor    =  -9.72 kcal/mol
DOCKED: USER        Moving Ligand-Moving Receptor   =  +0.00 kcal/mol
DOCKED: USER    (2) Final Total Internal Energy     =  -0.69 kcal/mol
DOCKED: USER    (3) Torsional Free Energy           =  +1.49 kcal/mol
DOCKED: USER    (4) Unbound System's Energy         =  -0.69 kcal/mol
DOCKED: USER
DOCKED: USER
DOCKED: REMARK SMILES C[C@@H](/N=C(\O)c1ccc2ccccc2n1)c1ccc2[nH]ccc2c1
DOCKED: REMARK SMILES IDX 3 1 4 2 5 3 6 5 15 6 7 7 14 8 8 9 13 10 9 11 12 12 10 13
DOCKED: REMARK SMILES IDX 11 14 2 15 1 16 16 17 17 18 24 19 18 20 23 21 19 22 22 23
DOCKED: REMARK SMILES IDX 20 24 21 25
DOCKED: REMARK H PARENT 5 4 20 26
DOCKED: USER                              x       y       z     vdW  Elec       q    Type
DOCKED: USER                           _______ _______ _______ _____ _____    ______ ____
DOCKED: ROOT
DOCKED: ATOM      1  N   UNL     1     140.701  71.613 221.248 -0.11 +0.03    -0.242 NA 
DOCKED: ENDROOT
DOCKED: BRANCH   1   2
DOCKED: ATOM      2  C   UNL     1     140.212  72.157 222.327 -0.22 -0.03    +0.233 C  
DOCKED: BRANCH   2   3
DOCKED: ATOM      3  O   UNL     1     139.769  73.483 222.346 -0.68 +0.06    -0.492 OA 
DOCKED: ATOM      4  H   UNL     1     139.192  73.868 223.081 -0.47 -0.13    +0.295 HD 
DOCKED: ENDBRANCH   2   3
DOCKED: BRANCH   2   5
DOCKED: ATOM      5  C   UNL     1     140.116  71.368 223.570 -0.32 -0.02    +0.125 A  
DOCKED: ATOM      6  N   UNL     1     140.619  71.890 224.723 -0.27 +0.03    -0.243 NA 
DOCKED: ATOM      7  C   UNL     1     139.520  70.094 223.592 -0.27 -0.01    +0.035 A  
DOCKED: ATOM      8  C   UNL     1     140.568  71.219 225.905 -0.55 -0.01    +0.071 A  
DOCKED: ATOM      9  C   UNL     1     139.453  69.381 224.791 -0.37 -0.00    +0.013 A  
DOCKED: ATOM     10  C   UNL     1     141.100  71.796 227.065 -0.76 -0.01    +0.029 A  
DOCKED: ATOM     11  C   UNL     1     139.978  69.937 225.963 -0.49 -0.00    +0.000 A  
DOCKED: ATOM     12  C   UNL     1     141.045  71.103 228.278 -0.68 -0.00    +0.002 A  
DOCKED: ATOM     13  C   UNL     1     139.927  69.248 227.185 -0.58 -0.00    +0.010 A  
DOCKED: ATOM     14  C   UNL     1     140.461  69.834 228.338 -0.59 -0.00    +0.001 A  
DOCKED: ENDBRANCH   2   5
DOCKED: ENDBRANCH   1   2
DOCKED: BRANCH   1  15
DOCKED: ATOM     15  C   UNL     1     140.942  72.288 219.971 -0.09 -0.02    +0.136 C  
DOCKED: ATOM     16  C   UNL     1     140.540  71.357 218.829 -0.04 -0.01    +0.038 C  
DOCKED: BRANCH  15  17
DOCKED: ATOM     17  C   UNL     1     142.399  72.678 219.834 -0.17 +0.00    -0.023 A  
DOCKED: ATOM     18  C   UNL     1     142.916  73.119 218.585 -0.10 -0.00    +0.008 A  
DOCKED: ATOM     19  C   UNL     1     143.245  72.646 220.965 -0.20 -0.00    +0.016 A  
DOCKED: ATOM     20  C   UNL     1     144.263  73.502 218.459 -0.19 -0.00    +0.027 A  
DOCKED: ATOM     21  C   UNL     1     144.573  73.031 220.803 -0.47 +0.00    -0.000 A  
DOCKED: ATOM     22  C   UNL     1     145.066  73.443 219.595 -0.39 -0.00    +0.045 A  
DOCKED: ATOM     23  C   UNL     1     145.606  73.093 221.712 -0.47 -0.01    +0.028 A  
DOCKED: ATOM     24  N   UNL     1     146.365  73.764 219.694 -0.11 -0.07    -0.361 N  
DOCKED: ATOM     25  C   UNL     1     146.702  73.552 220.987 -0.46 +0.01    +0.083 A  
DOCKED: ATOM     26  H   UNL     1     146.992  74.109 218.932 -0.51 +0.04    +0.166 HD 
DOCKED: ENDBRANCH  15  17
DOCKED: ENDBRANCH   1  15
DOCKED: TORSDOF 5
DOCKED: TER
DOCKED: ENDMDL
________________________________________________________________________________


    FINAL DOCKED STATE:
    ________________________


Run:   11 / 20
Time taken for this run:   0.034s

DOCKED: MODEL        11
DOCKED: USER    Run = 11
DOCKED: USER
DOCKED: USER    Estimated Free Energy of Binding    =  -8.13 kcal/mol  [=(1)+(2)+(3)-(4)]
DOCKED: USER
DOCKED: USER    (1) Final Intermolecular Energy     =  -9.63 kcal/mol
DOCKED: USER        vdW + Hbond + desolv Energy     =  -9.59 kcal/mol
DOCKED: USER        Electrostatic Energy            =  -0.03 kcal/mol
DOCKED: USER        Moving Ligand-Fixed Receptor    =  -9.63 kcal/mol
DOCKED: USER        Moving Ligand-Moving Receptor   =  +0.00 kcal/mol
DOCKED: USER    (2) Final Total Internal Energy     =  -0.47 kcal/mol
DOCKED: USER    (3) Torsional Free Energy           =  +1.49 kcal/mol
DOCKED: USER    (4) Unbound System's Energy         =  -0.47 kcal/mol
DOCKED: USER
DOCKED: USER
DOCKED: REMARK SMILES C[C@@H](/N=C(\O)c1ccc2ccccc2n1)c1ccc2[nH]ccc2c1
DOCKED: REMARK SMILES IDX 3 1 4 2 5 3 6 5 15 6 7 7 14 8 8 9 13 10 9 11 12 12 10 13
DOCKED: REMARK SMILES IDX 11 14 2 15 1 16 16 17 17 18 24 19 18 20 23 21 19 22 22 23
DOCKED: REMARK SMILES IDX 20 24 21 25
DOCKED: REMARK H PARENT 5 4 20 26
DOCKED: USER                              x       y       z     vdW  Elec       q    Type
DOCKED: USER                           _______ _______ _______ _____ _____    ______ ____
DOCKED: ROOT
DOCKED: ATOM      1  N   UNL     1     140.544  73.545 222.215 -0.69 -0.00    -0.242 NA 
DOCKED: ENDROOT
DOCKED: BRANCH   1   2
DOCKED: ATOM      2  C   UNL     1     140.284  72.267 222.193 -0.22 -0.03    +0.233 C  
DOCKED: BRANCH   2   3
DOCKED: ATOM      3  O   UNL     1     140.130  71.569 220.991 -0.03 +0.08    -0.492 OA 
DOCKED: ATOM      4  H   UNL     1     140.894  71.117 220.507 +0.07 -0.04    +0.295 HD 
DOCKED: ENDBRANCH   2   3
DOCKED: BRANCH   2   5
DOCKED: ATOM      5  C   UNL     1     140.143  71.523 223.459 -0.32 -0.02    +0.125 A  
DOCKED: ATOM      6  N   UNL     1     140.704  72.034 224.590 -0.13 +0.03    -0.243 NA 
DOCKED: ATOM      7  C   UNL     1     139.446  70.303 223.524 -0.28 -0.01    +0.035 A  
DOCKED: ATOM      8  C   UNL     1     140.616  71.402 225.791 -0.55 -0.01    +0.071 A  
DOCKED: ATOM      9  C   UNL     1     139.339  69.631 224.745 -0.37 -0.00    +0.013 A  
DOCKED: ATOM     10  C   UNL     1     141.210  71.965 226.927 -0.74 -0.00    +0.029 A  
DOCKED: ATOM     11  C   UNL     1     139.924  70.175 225.893 -0.50 -0.00    +0.000 A  
DOCKED: ATOM     12  C   UNL     1     141.117  71.312 228.161 -0.73 -0.00    +0.002 A  
DOCKED: ATOM     13  C   UNL     1     139.837  69.526 227.134 -0.56 -0.00    +0.010 A  
DOCKED: ATOM     14  C   UNL     1     140.433  70.097 228.264 -0.59 -0.00    +0.001 A  
DOCKED: ENDBRANCH   2   5
DOCKED: ENDBRANCH   1   2
DOCKED: BRANCH   1  15
DOCKED: ATOM     15  C   UNL     1     139.759  74.599 221.570 -0.24 -0.02    +0.136 C  
DOCKED: ATOM     16  C   UNL     1     139.468  74.195 220.126 -0.09 -0.01    +0.038 C  
DOCKED: BRANCH  15  17
DOCKED: ATOM     17  C   UNL     1     140.501  75.918 221.599 -0.34 +0.01    -0.023 A  
DOCKED: ATOM     18  C   UNL     1     141.295  76.328 220.492 -0.27 -0.00    +0.008 A  
DOCKED: ATOM     19  C   UNL     1     140.371  76.774 222.716 -0.30 -0.00    +0.016 A  
DOCKED: ATOM     20  C   UNL     1     141.969  77.562 220.507 -0.28 -0.02    +0.027 A  
DOCKED: ATOM     21  C   UNL     1     141.053  77.988 222.696 -0.49 +0.00    -0.000 A  
DOCKED: ATOM     22  C   UNL     1     141.824  78.369 221.633 -0.34 -0.03    +0.045 A  
DOCKED: ATOM     23  C   UNL     1     141.113  78.998 223.632 -0.54 -0.01    +0.028 A  
DOCKED: ATOM     24  N   UNL     1     142.373  79.575 221.848 -0.16 +0.19    -0.361 N  
DOCKED: ATOM     25  C   UNL     1     141.942  79.964 223.070 -0.53 -0.02    +0.083 A  
DOCKED: ATOM     26  H   UNL     1     143.003  80.108 221.207 -0.36 -0.11    +0.166 HD 
DOCKED: ENDBRANCH  15  17
DOCKED: ENDBRANCH   1  15
DOCKED: TORSDOF 5
DOCKED: TER
DOCKED: ENDMDL
________________________________________________________________________________


    FINAL DOCKED STATE:
    ________________________


Run:   12 / 20
Time taken for this run:   0.034s

DOCKED: MODEL        12
DOCKED: USER    Run = 12
DOCKED: USER
DOCKED: USER    Estimated Free Energy of Binding    =  -7.84 kcal/mol  [=(1)+(2)+(3)-(4)]
DOCKED: USER
DOCKED: USER    (1) Final Intermolecular Energy     =  -9.33 kcal/mol
DOCKED: USER        vdW + Hbond + desolv Energy     =  -9.24 kcal/mol
DOCKED: USER        Electrostatic Energy            =  -0.09 kcal/mol
DOCKED: USER        Moving Ligand-Fixed Receptor    =  -9.33 kcal/mol
DOCKED: USER        Moving Ligand-Moving Receptor   =  +0.00 kcal/mol
DOCKED: USER    (2) Final Total Internal Energy     =  -0.84 kcal/mol
DOCKED: USER    (3) Torsional Free Energy           =  +1.49 kcal/mol
DOCKED: USER    (4) Unbound System's Energy         =  -0.84 kcal/mol
DOCKED: USER
DOCKED: USER
DOCKED: REMARK SMILES C[C@@H](/N=C(\O)c1ccc2ccccc2n1)c1ccc2[nH]ccc2c1
DOCKED: REMARK SMILES IDX 3 1 4 2 5 3 6 5 15 6 7 7 14 8 8 9 13 10 9 11 12 12 10 13
DOCKED: REMARK SMILES IDX 11 14 2 15 1 16 16 17 17 18 24 19 18 20 23 21 19 22 22 23
DOCKED: REMARK SMILES IDX 20 24 21 25
DOCKED: REMARK H PARENT 5 4 20 26
DOCKED: USER                              x       y       z     vdW  Elec       q    Type
DOCKED: USER                           _______ _______ _______ _____ _____    ______ ____
DOCKED: ROOT
DOCKED: ATOM      1  N   UNL     1     139.952  74.974 221.971 -0.67 +0.03    -0.242 NA 
DOCKED: ENDROOT
DOCKED: BRANCH   1   2
DOCKED: ATOM      2  C   UNL     1     139.059  75.820 222.402 -0.20 -0.05    +0.233 C  
DOCKED: BRANCH   2   3
DOCKED: ATOM      3  O   UNL     1     137.727  75.445 222.604 -0.10 +0.16    -0.492 OA 
DOCKED: ATOM      4  H   UNL     1     137.451  74.640 223.150 -0.38 -0.17    +0.295 HD 
DOCKED: ENDBRANCH   2   3
DOCKED: BRANCH   2   5
DOCKED: ATOM      5  C   UNL     1     139.445  77.215 222.689 -0.22 -0.02    +0.125 A  
DOCKED: ATOM      6  N   UNL     1     140.767  77.539 222.725 -0.28 +0.08    -0.243 NA 
DOCKED: ATOM      7  C   UNL     1     138.483  78.213 222.927 -0.25 -0.01    +0.035 A  
DOCKED: ATOM      8  C   UNL     1     141.196  78.804 222.986 -0.48 -0.02    +0.071 A  
DOCKED: ATOM      9  C   UNL     1     138.894  79.521 223.197 -0.34 -0.00    +0.013 A  
DOCKED: ATOM     10  C   UNL     1     142.567  79.089 223.013 -0.50 -0.01    +0.029 A  
DOCKED: ATOM     11  C   UNL     1     140.258  79.830 223.230 -0.44 -0.00    +0.000 A  
DOCKED: ATOM     12  C   UNL     1     143.004  80.391 223.281 -0.66 -0.00    +0.002 A  
DOCKED: ATOM     13  C   UNL     1     140.705  81.133 223.498 -0.42 -0.00    +0.010 A  
DOCKED: ATOM     14  C   UNL     1     142.077  81.409 223.523 -0.58 -0.00    +0.001 A  
DOCKED: ENDBRANCH   2   5
DOCKED: ENDBRANCH   1   2
DOCKED: BRANCH   1  15
DOCKED: ATOM     15  C   UNL     1     140.343  74.764 220.576 -0.16 -0.03    +0.136 C  
DOCKED: ATOM     16  C   UNL     1     139.663  73.503 220.048 -0.09 -0.01    +0.038 C  
DOCKED: BRANCH  15  17
DOCKED: ATOM     17  C   UNL     1     141.846  74.633 220.451 -0.27 +0.01    -0.023 A  
DOCKED: ATOM     18  C   UNL     1     142.645  75.755 220.097 -0.33 -0.00    +0.008 A  
DOCKED: ATOM     19  C   UNL     1     142.470  73.396 220.732 -0.27 -0.00    +0.016 A  
DOCKED: ATOM     20  C   UNL     1     144.044  75.641 220.001 -0.31 -0.02    +0.027 A  
DOCKED: ATOM     21  C   UNL     1     143.856  73.320 220.626 -0.38 +0.00    -0.000 A  
DOCKED: ATOM     22  C   UNL     1     144.616  74.401 220.273 -0.45 -0.02    +0.045 A  
DOCKED: ATOM     23  C   UNL     1     144.714  72.262 220.831 -0.33 -0.01    +0.028 A  
DOCKED: ATOM     24  N   UNL     1     145.919  74.080 220.243 -0.21 +0.06    -0.361 N  
DOCKED: ATOM     25  C   UNL     1     145.985  72.772 220.583 -0.50 +0.01    +0.083 A  
DOCKED: ATOM     26  H   UNL     1     146.721  74.707 220.008 -0.44 -0.05    +0.166 HD 
DOCKED: ENDBRANCH  15  17
DOCKED: ENDBRANCH   1  15
DOCKED: TORSDOF 5
DOCKED: TER
DOCKED: ENDMDL
________________________________________________________________________________


    FINAL DOCKED STATE:
    ________________________


Run:   13 / 20
Time taken for this run:   0.034s

DOCKED: MODEL        13
DOCKED: USER    Run = 13
DOCKED: USER
DOCKED: USER    Estimated Free Energy of Binding    =  -7.53 kcal/mol  [=(1)+(2)+(3)-(4)]
DOCKED: USER
DOCKED: USER    (1) Final Intermolecular Energy     =  -9.02 kcal/mol
DOCKED: USER        vdW + Hbond + desolv Energy     =  -8.92 kcal/mol
DOCKED: USER        Electrostatic Energy            =  -0.09 kcal/mol
DOCKED: USER        Moving Ligand-Fixed Receptor    =  -9.02 kcal/mol
DOCKED: USER        Moving Ligand-Moving Receptor   =  +0.00 kcal/mol
DOCKED: USER    (2) Final Total Internal Energy     =  -1.10 kcal/mol
DOCKED: USER    (3) Torsional Free Energy           =  +1.49 kcal/mol
DOCKED: USER    (4) Unbound System's Energy         =  -1.10 kcal/mol
DOCKED: USER
DOCKED: USER
DOCKED: REMARK SMILES C[C@@H](/N=C(\O)c1ccc2ccccc2n1)c1ccc2[nH]ccc2c1
DOCKED: REMARK SMILES IDX 3 1 4 2 5 3 6 5 15 6 7 7 14 8 8 9 13 10 9 11 12 12 10 13
DOCKED: REMARK SMILES IDX 11 14 2 15 1 16 16 17 17 18 24 19 18 20 23 21 19 22 22 23
DOCKED: REMARK SMILES IDX 20 24 21 25
DOCKED: REMARK H PARENT 5 4 20 26
DOCKED: USER                              x       y       z     vdW  Elec       q    Type
DOCKED: USER                           _______ _______ _______ _____ _____    ______ ____
DOCKED: ROOT
DOCKED: ATOM      1  N   UNL     1     139.139  75.530 220.343 -0.04 +0.06    -0.242 NA 
DOCKED: ENDROOT
DOCKED: BRANCH   1   2
DOCKED: ATOM      2  C   UNL     1     139.578  75.631 221.567 -0.21 -0.05    +0.233 C  
DOCKED: BRANCH   2   3
DOCKED: ATOM      3  O   UNL     1     139.853  74.502 222.345 -0.70 +0.03    -0.492 OA 
DOCKED: ATOM      4  H   UNL     1     139.234  74.156 223.065 -0.48 -0.11    +0.295 HD 
DOCKED: ENDBRANCH   2   3
DOCKED: BRANCH   2   5
DOCKED: ATOM      5  C   UNL     1     139.794  76.963 222.163 -0.30 -0.03    +0.125 A  
DOCKED: ATOM      6  N   UNL     1     141.054  77.477 222.189 -0.26 +0.10    -0.243 NA 
DOCKED: ATOM      7  C   UNL     1     138.732  77.711 222.705 -0.29 -0.01    +0.035 A  
DOCKED: ATOM      8  C   UNL     1     141.328  78.698 222.725 -0.46 -0.03    +0.071 A  
DOCKED: ATOM      9  C   UNL     1     138.984  78.967 223.261 -0.33 -0.00    +0.013 A  
DOCKED: ATOM     10  C   UNL     1     142.641  79.185 222.730 -0.48 -0.02    +0.029 A  
DOCKED: ATOM     11  C   UNL     1     140.287  79.474 223.278 -0.45 -0.00    +0.000 A  
DOCKED: ATOM     12  C   UNL     1     142.919  80.439 223.282 -0.67 -0.00    +0.002 A  
DOCKED: ATOM     13  C   UNL     1     140.574  80.732 223.830 -0.41 -0.00    +0.010 A  
DOCKED: ATOM     14  C   UNL     1     141.889  81.211 223.830 -0.61 -0.00    +0.001 A  
DOCKED: ENDBRANCH   2   5
DOCKED: ENDBRANCH   1   2
DOCKED: BRANCH   1  15
DOCKED: ATOM     15  C   UNL     1     139.955  75.537 219.128 -0.04 -0.04    +0.136 C  
DOCKED: ATOM     16  C   UNL     1     139.460  74.442 218.185 -0.02 -0.01    +0.038 C  
DOCKED: BRANCH  15  17
DOCKED: ATOM     17  C   UNL     1     141.416  75.314 219.458 -0.15 +0.01    -0.023 A  
DOCKED: ATOM     18  C   UNL     1     142.356  76.374 219.341 -0.30 -0.00    +0.008 A  
DOCKED: ATOM     19  C   UNL     1     141.845  74.053 219.931 -0.19 -0.00    +0.016 A  
DOCKED: ATOM     20  C   UNL     1     143.710  76.176 219.668 -0.39 -0.02    +0.027 A  
DOCKED: ATOM     21  C   UNL     1     143.193  73.893 220.244 -0.33 +0.00    -0.000 A  
DOCKED: ATOM     22  C   UNL     1     144.093  74.915 220.117 -0.42 -0.02    +0.045 A  
DOCKED: ATOM     23  C   UNL     1     143.880  72.794 220.712 -0.34 -0.00    +0.028 A  
DOCKED: ATOM     24  N   UNL     1     145.322  74.517 220.481 -0.24 +0.13    -0.361 N  
DOCKED: ATOM     25  C   UNL     1     145.198  73.220 220.846 -0.53 -0.01    +0.083 A  
DOCKED: ATOM     26  H   UNL     1     146.197  75.088 220.486 -0.29 -0.07    +0.166 HD 
DOCKED: ENDBRANCH  15  17
DOCKED: ENDBRANCH   1  15
DOCKED: TORSDOF 5
DOCKED: TER
DOCKED: ENDMDL
________________________________________________________________________________


    FINAL DOCKED STATE:
    ________________________


Run:   14 / 20
Time taken for this run:   0.034s

DOCKED: MODEL        14
DOCKED: USER    Run = 14
DOCKED: USER
DOCKED: USER    Estimated Free Energy of Binding    =  -7.27 kcal/mol  [=(1)+(2)+(3)-(4)]
DOCKED: USER
DOCKED: USER    (1) Final Intermolecular Energy     =  -8.77 kcal/mol
DOCKED: USER        vdW + Hbond + desolv Energy     =  -8.63 kcal/mol
DOCKED: USER        Electrostatic Energy            =  -0.13 kcal/mol
DOCKED: USER        Moving Ligand-Fixed Receptor    =  -8.77 kcal/mol
DOCKED: USER        Moving Ligand-Moving Receptor   =  +0.00 kcal/mol
DOCKED: USER    (2) Final Total Internal Energy     =  -1.34 kcal/mol
DOCKED: USER    (3) Torsional Free Energy           =  +1.49 kcal/mol
DOCKED: USER    (4) Unbound System's Energy         =  -1.34 kcal/mol
DOCKED: USER
DOCKED: USER
DOCKED: REMARK SMILES C[C@@H](/N=C(\O)c1ccc2ccccc2n1)c1ccc2[nH]ccc2c1
DOCKED: REMARK SMILES IDX 3 1 4 2 5 3 6 5 15 6 7 7 14 8 8 9 13 10 9 11 12 12 10 13
DOCKED: REMARK SMILES IDX 11 14 2 15 1 16 16 17 17 18 24 19 18 20 23 21 19 22 22 23
DOCKED: REMARK SMILES IDX 20 24 21 25
DOCKED: REMARK H PARENT 5 4 20 26
DOCKED: USER                              x       y       z     vdW  Elec       q    Type
DOCKED: USER                           _______ _______ _______ _____ _____    ______ ____
DOCKED: ROOT
DOCKED: ATOM      1  N   UNL     1     140.543  74.802 221.968 -0.67 +0.02    -0.242 NA 
DOCKED: ENDROOT
DOCKED: BRANCH   1   2
DOCKED: ATOM      2  C   UNL     1     139.529  75.564 222.270 -0.19 -0.04    +0.233 C  
DOCKED: BRANCH   2   3
DOCKED: ATOM      3  O   UNL     1     138.222  75.068 222.306 -0.13 +0.15    -0.492 OA 
DOCKED: ATOM      4  H   UNL     1     137.927  74.318 222.917 -0.46 -0.18    +0.295 HD 
DOCKED: ENDBRANCH   2   3
DOCKED: BRANCH   2   5
DOCKED: ATOM      5  C   UNL     1     139.747  76.990 222.581 -0.24 -0.03    +0.125 A  
DOCKED: ATOM      6  N   UNL     1     141.022  77.451 222.700 -0.29 +0.09    -0.243 NA 
DOCKED: ATOM      7  C   UNL     1     138.671  77.879 222.759 -0.28 -0.01    +0.035 A  
DOCKED: ATOM      8  C   UNL     1     141.298  78.752 222.988 -0.49 -0.02    +0.071 A  
DOCKED: ATOM      9  C   UNL     1     138.924  79.221 223.055 -0.33 -0.00    +0.013 A  
DOCKED: ATOM     10  C   UNL     1     142.627  79.181 223.101 -0.50 -0.01    +0.029 A  
DOCKED: ATOM     11  C   UNL     1     140.243  79.672 223.173 -0.44 -0.00    +0.000 A  
DOCKED: ATOM     12  C   UNL     1     142.906  80.519 223.397 -0.68 -0.00    +0.002 A  
DOCKED: ATOM     13  C   UNL     1     140.532  81.013 223.470 -0.42 -0.00    +0.010 A  
DOCKED: ATOM     14  C   UNL     1     141.863  81.432 223.581 -0.57 -0.00    +0.001 A  
DOCKED: ENDBRANCH   2   5
DOCKED: ENDBRANCH   1   2
DOCKED: BRANCH   1  15
DOCKED: ATOM     15  C   UNL     1     140.996  74.457 220.620 -0.20 -0.03    +0.136 C  
DOCKED: ATOM     16  C   UNL     1     142.048  73.353 220.710 -0.25 -0.01    +0.038 C  
DOCKED: BRANCH  15  17
DOCKED: ATOM     17  C   UNL     1     141.575  75.668 219.919 -0.22 +0.01    -0.023 A  
DOCKED: ATOM     18  C   UNL     1     142.916  75.659 219.447 -0.34 -0.00    +0.008 A  
DOCKED: ATOM     19  C   UNL     1     140.765  76.803 219.692 -0.15 -0.01    +0.016 A  
DOCKED: ATOM     20  C   UNL     1     143.451  76.774 218.777 -0.27 -0.02    +0.027 A  
DOCKED: ATOM     21  C   UNL     1     141.328  77.889 219.026 -0.19 +0.00    -0.000 A  
DOCKED: ATOM     22  C   UNL     1     142.623  77.877 218.586 -0.31 -0.03    +0.045 A  
DOCKED: ATOM     23  C   UNL     1     140.785  79.107 218.679 -0.13 -0.01    +0.028 A  
DOCKED: ATOM     24  N   UNL     1     142.930  79.032 217.974 -0.17 +0.38    -0.361 N  
DOCKED: ATOM     25  C   UNL     1     141.810  79.789 218.028 -0.23 -0.06    +0.083 A  
DOCKED: ATOM     26  H   UNL     1     143.844  79.296 217.542 -0.51 -0.32    +0.166 HD 
DOCKED: ENDBRANCH  15  17
DOCKED: ENDBRANCH   1  15
DOCKED: TORSDOF 5
DOCKED: TER
DOCKED: ENDMDL
________________________________________________________________________________


    FINAL DOCKED STATE:
    ________________________


Run:   15 / 20
Time taken for this run:   0.034s

DOCKED: MODEL        15
DOCKED: USER    Run = 15
DOCKED: USER
DOCKED: USER    Estimated Free Energy of Binding    =  -8.19 kcal/mol  [=(1)+(2)+(3)-(4)]
DOCKED: USER
DOCKED: USER    (1) Final Intermolecular Energy     =  -9.68 kcal/mol
DOCKED: USER        vdW + Hbond + desolv Energy     =  -9.58 kcal/mol
DOCKED: USER        Electrostatic Energy            =  -0.10 kcal/mol
DOCKED: USER        Moving Ligand-Fixed Receptor    =  -9.68 kcal/mol
DOCKED: USER        Moving Ligand-Moving Receptor   =  +0.00 kcal/mol
DOCKED: USER    (2) Final Total Internal Energy     =  -0.76 kcal/mol
DOCKED: USER    (3) Torsional Free Energy           =  +1.49 kcal/mol
DOCKED: USER    (4) Unbound System's Energy         =  -0.76 kcal/mol
DOCKED: USER
DOCKED: USER
DOCKED: REMARK SMILES C[C@@H](/N=C(\O)c1ccc2ccccc2n1)c1ccc2[nH]ccc2c1
DOCKED: REMARK SMILES IDX 3 1 4 2 5 3 6 5 15 6 7 7 14 8 8 9 13 10 9 11 12 12 10 13
DOCKED: REMARK SMILES IDX 11 14 2 15 1 16 16 17 17 18 24 19 18 20 23 21 19 22 22 23
DOCKED: REMARK SMILES IDX 20 24 21 25
DOCKED: REMARK H PARENT 5 4 20 26
DOCKED: USER                              x       y       z     vdW  Elec       q    Type
DOCKED: USER                           _______ _______ _______ _____ _____    ______ ____
DOCKED: ROOT
DOCKED: ATOM      1  N   UNL     1     140.092  71.574 221.210 -0.09 +0.04    -0.242 NA 
DOCKED: ENDROOT
DOCKED: BRANCH   1   2
DOCKED: ATOM      2  C   UNL     1     140.007  72.156 222.374 -0.22 -0.04    +0.233 C  
DOCKED: BRANCH   2   3
DOCKED: ATOM      3  O   UNL     1     139.904  73.545 222.495 -0.68 +0.04    -0.492 OA 
DOCKED: ATOM      4  H   UNL     1     139.224  74.004 223.085 -0.48 -0.11    +0.295 HD 
DOCKED: ENDBRANCH   2   3
DOCKED: BRANCH   2   5
DOCKED: ATOM      5  C   UNL     1     140.019  71.343 223.605 -0.33 -0.02    +0.125 A  
DOCKED: ATOM      6  N   UNL     1     140.502  71.893 224.753 -0.26 +0.04    -0.243 NA 
DOCKED: ATOM      7  C   UNL     1     139.546  70.018 223.620 -0.27 -0.01    +0.035 A  
DOCKED: ATOM      8  C   UNL     1     140.546  71.203 225.925 -0.55 -0.01    +0.071 A  
DOCKED: ATOM      9  C   UNL     1     139.579  69.285 224.809 -0.37 -0.00    +0.013 A  
DOCKED: ATOM     10  C   UNL     1     141.053  71.810 227.080 -0.77 -0.01    +0.029 A  
DOCKED: ATOM     11  C   UNL     1     140.080  69.871 225.976 -0.50 -0.00    +0.000 A  
DOCKED: ATOM     12  C   UNL     1     141.096  71.097 228.283 -0.67 -0.00    +0.002 A  
DOCKED: ATOM     13  C   UNL     1     140.128  69.163 227.186 -0.59 -0.00    +0.010 A  
DOCKED: ATOM     14  C   UNL     1     140.635  69.778 228.336 -0.59 -0.00    +0.001 A  
DOCKED: ENDBRANCH   2   5
DOCKED: ENDBRANCH   1   2
DOCKED: BRANCH   1  15
DOCKED: ATOM     15  C   UNL     1     140.474  72.212 219.949 -0.07 -0.02    +0.136 C  
DOCKED: ATOM     16  C   UNL     1     140.531  71.155 218.848 -0.04 -0.01    +0.038 C  
DOCKED: BRANCH  15  17
DOCKED: ATOM     17  C   UNL     1     141.819  72.898 220.078 -0.17 +0.00    -0.023 A  
DOCKED: ATOM     18  C   UNL     1     141.908  74.316 220.118 -0.23 -0.00    +0.008 A  
DOCKED: ATOM     19  C   UNL     1     142.994  72.123 220.205 -0.24 -0.00    +0.016 A  
DOCKED: ATOM     20  C   UNL     1     143.153  74.955 220.259 -0.33 -0.01    +0.027 A  
DOCKED: ATOM     21  C   UNL     1     144.209  72.789 220.342 -0.39 +0.00    -0.000 A  
DOCKED: ATOM     22  C   UNL     1     144.287  74.155 220.367 -0.44 -0.01    +0.045 A  
DOCKED: ATOM     23  C   UNL     1     145.489  72.300 220.477 -0.36 -0.00    +0.028 A  
DOCKED: ATOM     24  N   UNL     1     145.559  74.558 220.511 -0.19 +0.13    -0.361 N  
DOCKED: ATOM     25  C   UNL     1     146.300  73.427 220.578 -0.59 +0.01    +0.083 A  
DOCKED: ATOM     26  H   UNL     1     145.911  75.540 220.563 -0.18 -0.09    +0.166 HD 
DOCKED: ENDBRANCH  15  17
DOCKED: ENDBRANCH   1  15
DOCKED: TORSDOF 5
DOCKED: TER
DOCKED: ENDMDL
________________________________________________________________________________


    FINAL DOCKED STATE:
    ________________________


Run:   16 / 20
Time taken for this run:   0.034s

DOCKED: MODEL        16
DOCKED: USER    Run = 16
DOCKED: USER
DOCKED: USER    Estimated Free Energy of Binding    =  -8.04 kcal/mol  [=(1)+(2)+(3)-(4)]
DOCKED: USER
DOCKED: USER    (1) Final Intermolecular Energy     =  -9.54 kcal/mol
DOCKED: USER        vdW + Hbond + desolv Energy     =  -9.49 kcal/mol
DOCKED: USER        Electrostatic Energy            =  -0.04 kcal/mol
DOCKED: USER        Moving Ligand-Fixed Receptor    =  -9.54 kcal/mol
DOCKED: USER        Moving Ligand-Moving Receptor   =  +0.00 kcal/mol
DOCKED: USER    (2) Final Total Internal Energy     =  -0.51 kcal/mol
DOCKED: USER    (3) Torsional Free Energy           =  +1.49 kcal/mol
DOCKED: USER    (4) Unbound System's Energy         =  -0.51 kcal/mol
DOCKED: USER
DOCKED: USER
DOCKED: REMARK SMILES C[C@@H](/N=C(\O)c1ccc2ccccc2n1)c1ccc2[nH]ccc2c1
DOCKED: REMARK SMILES IDX 3 1 4 2 5 3 6 5 15 6 7 7 14 8 8 9 13 10 9 11 12 12 10 13
DOCKED: REMARK SMILES IDX 11 14 2 15 1 16 16 17 17 18 24 19 18 20 23 21 19 22 22 23
DOCKED: REMARK SMILES IDX 20 24 21 25
DOCKED: REMARK H PARENT 5 4 20 26
DOCKED: USER                              x       y       z     vdW  Elec       q    Type
DOCKED: USER                           _______ _______ _______ _____ _____    ______ ____
DOCKED: ROOT
DOCKED: ATOM      1  N   UNL     1     139.946  73.490 222.532 -0.69 +0.02    -0.242 NA 
DOCKED: ENDROOT
DOCKED: BRANCH   1   2
DOCKED: ATOM      2  C   UNL     1     140.081  72.197 222.429 -0.23 -0.03    +0.233 C  
DOCKED: BRANCH   2   3
DOCKED: ATOM      3  O   UNL     1     140.254  71.573 221.190 -0.04 +0.07    -0.492 OA 
DOCKED: ATOM      4  H   UNL     1     139.589  70.922 220.796 +0.06 -0.05    +0.295 HD 
DOCKED: ENDBRANCH   2   3
DOCKED: BRANCH   2   5
DOCKED: ATOM      5  C   UNL     1     140.051  71.356 223.641 -0.33 -0.02    +0.125 A  
DOCKED: ATOM      6  N   UNL     1     140.531  71.864 224.809 -0.27 +0.04    -0.243 NA 
DOCKED: ATOM      7  C   UNL     1     139.541  70.044 223.616 -0.27 -0.01    +0.035 A  
DOCKED: ATOM      8  C   UNL     1     140.537  71.145 225.964 -0.55 -0.01    +0.071 A  
DOCKED: ATOM      9  C   UNL     1     139.535  69.283 224.787 -0.37 -0.00    +0.013 A  
DOCKED: ATOM     10  C   UNL     1     141.041  71.710 227.141 -0.76 -0.01    +0.029 A  
DOCKED: ATOM     11  C   UNL     1     140.034  69.826 225.975 -0.49 -0.00    +0.000 A  
DOCKED: ATOM     12  C   UNL     1     141.046  70.968 228.326 -0.65 -0.00    +0.002 A  
DOCKED: ATOM     13  C   UNL     1     140.042  69.088 227.169 -0.59 -0.00    +0.010 A  
DOCKED: ATOM     14  C   UNL     1     140.548  69.661 228.340 -0.60 -0.00    +0.001 A  
DOCKED: ENDBRANCH   2   5
DOCKED: ENDBRANCH   1   2
DOCKED: BRANCH   1  15
DOCKED: ATOM     15  C   UNL     1     140.104  74.466 221.452 -0.24 -0.02    +0.136 C  
DOCKED: ATOM     16  C   UNL     1     141.487  74.300 220.826 -0.27 -0.01    +0.038 C  
DOCKED: BRANCH  15  17
DOCKED: ATOM     17  C   UNL     1     139.937  75.878 221.972 -0.35 +0.00    -0.023 A  
DOCKED: ATOM     18  C   UNL     1     138.642  76.407 222.230 -0.30 -0.00    +0.008 A  
DOCKED: ATOM     19  C   UNL     1     141.078  76.666 222.247 -0.36 -0.01    +0.016 A  
DOCKED: ATOM     20  C   UNL     1     138.484  77.711 222.734 -0.28 -0.00    +0.027 A  
DOCKED: ATOM     21  C   UNL     1     140.883  77.952 222.744 -0.47 +0.00    -0.000 A  
DOCKED: ATOM     22  C   UNL     1     139.634  78.457 222.978 -0.32 -0.01    +0.045 A  
DOCKED: ATOM     23  C   UNL     1     141.794  78.926 223.090 -0.56 -0.01    +0.028 A  
DOCKED: ATOM     24  N   UNL     1     139.707  79.709 223.457 -0.17 +0.06    -0.361 N  
DOCKED: ATOM     25  C   UNL     1     141.026  80.002 223.527 -0.46 -0.02    +0.083 A  
DOCKED: ATOM     26  H   UNL     1     138.912  80.333 223.723 +0.08 -0.02    +0.166 HD 
DOCKED: ENDBRANCH  15  17
DOCKED: ENDBRANCH   1  15
DOCKED: TORSDOF 5
DOCKED: TER
DOCKED: ENDMDL
________________________________________________________________________________


    FINAL DOCKED STATE:
    ________________________


Run:   17 / 20
Time taken for this run:   0.034s

DOCKED: MODEL        17
DOCKED: USER    Run = 17
DOCKED: USER
DOCKED: USER    Estimated Free Energy of Binding    =  -8.17 kcal/mol  [=(1)+(2)+(3)-(4)]
DOCKED: USER
DOCKED: USER    (1) Final Intermolecular Energy     =  -9.66 kcal/mol
DOCKED: USER        vdW + Hbond + desolv Energy     =  -9.62 kcal/mol
DOCKED: USER        Electrostatic Energy            =  -0.04 kcal/mol
DOCKED: USER        Moving Ligand-Fixed Receptor    =  -9.66 kcal/mol
DOCKED: USER        Moving Ligand-Moving Receptor   =  +0.00 kcal/mol
DOCKED: USER    (2) Final Total Internal Energy     =  -0.43 kcal/mol
DOCKED: USER    (3) Torsional Free Energy           =  +1.49 kcal/mol
DOCKED: USER    (4) Unbound System's Energy         =  -0.43 kcal/mol
DOCKED: USER
DOCKED: USER
DOCKED: REMARK SMILES C[C@@H](/N=C(\O)c1ccc2ccccc2n1)c1ccc2[nH]ccc2c1
DOCKED: REMARK SMILES IDX 3 1 4 2 5 3 6 5 15 6 7 7 14 8 8 9 13 10 9 11 12 12 10 13
DOCKED: REMARK SMILES IDX 11 14 2 15 1 16 16 17 17 18 24 19 18 20 23 21 19 22 22 23
DOCKED: REMARK SMILES IDX 20 24 21 25
DOCKED: REMARK H PARENT 5 4 20 26
DOCKED: USER                              x       y       z     vdW  Elec       q    Type
DOCKED: USER                           _______ _______ _______ _____ _____    ______ ____
DOCKED: ROOT
DOCKED: ATOM      1  N   UNL     1     140.485  73.573 222.314 -0.71 -0.00    -0.242 NA 
DOCKED: ENDROOT
DOCKED: BRANCH   1   2
DOCKED: ATOM      2  C   UNL     1     140.322  72.283 222.212 -0.22 -0.03    +0.233 C  
DOCKED: BRANCH   2   3
DOCKED: ATOM      3  O   UNL     1     140.341  71.635 220.974 -0.03 +0.08    -0.492 OA 
DOCKED: ATOM      4  H   UNL     1     140.435  70.634 220.869 +0.07 -0.04    +0.295 HD 
DOCKED: ENDBRANCH   2   3
DOCKED: BRANCH   2   5
DOCKED: ATOM      5  C   UNL     1     140.111  71.471 223.426 -0.32 -0.02    +0.125 A  
DOCKED: ATOM      6  N   UNL     1     140.640  71.897 224.605 -0.26 +0.03    -0.243 NA 
DOCKED: ATOM      7  C   UNL     1     139.379  70.269 223.391 -0.27 -0.01    +0.035 A  
DOCKED: ATOM      8  C   UNL     1     140.487  71.199 225.763 -0.53 -0.01    +0.071 A  
DOCKED: ATOM      9  C   UNL     1     139.206  69.531 224.564 -0.35 -0.00    +0.013 A  
DOCKED: ATOM     10  C   UNL     1     141.051  71.677 226.953 -0.74 -0.00    +0.029 A  
DOCKED: ATOM     11  C   UNL     1     139.760  69.989 225.764 -0.47 -0.00    +0.000 A  
DOCKED: ATOM     12  C   UNL     1     140.891  70.955 228.140 -0.69 -0.00    +0.002 A  
DOCKED: ATOM     13  C   UNL     1     139.605  69.271 226.961 -0.54 -0.00    +0.010 A  
DOCKED: ATOM     14  C   UNL     1     140.171  69.757 228.144 -0.62 -0.00    +0.001 A  
DOCKED: ENDBRANCH   2   5
DOCKED: ENDBRANCH   1   2
DOCKED: BRANCH   1  15
DOCKED: ATOM     15  C   UNL     1     139.732  74.600 221.591 -0.24 -0.02    +0.136 C  
DOCKED: ATOM     16  C   UNL     1     139.524  74.145 220.148 -0.10 -0.01    +0.038 C  
DOCKED: BRANCH  15  17
DOCKED: ATOM     17  C   UNL     1     140.467  75.924 221.615 -0.34 +0.01    -0.023 A  
DOCKED: ATOM     18  C   UNL     1     141.281  76.321 220.520 -0.27 -0.00    +0.008 A  
DOCKED: ATOM     19  C   UNL     1     140.308  76.796 222.716 -0.30 -0.00    +0.016 A  
DOCKED: ATOM     20  C   UNL     1     141.948  77.560 220.530 -0.28 -0.02    +0.027 A  
DOCKED: ATOM     21  C   UNL     1     140.983  78.013 222.692 -0.48 +0.00    -0.000 A  
DOCKED: ATOM     22  C   UNL     1     141.774  78.383 221.640 -0.34 -0.03    +0.045 A  
DOCKED: ATOM     23  C   UNL     1     141.017  79.037 223.613 -0.52 -0.01    +0.028 A  
DOCKED: ATOM     24  N   UNL     1     142.312  79.595 221.848 -0.18 +0.19    -0.361 N  
DOCKED: ATOM     25  C   UNL     1     141.852  80.000 223.055 -0.52 -0.02    +0.083 A  
DOCKED: ATOM     26  H   UNL     1     142.952  80.122 221.213 -0.36 -0.10    +0.166 HD 
DOCKED: ENDBRANCH  15  17
DOCKED: ENDBRANCH   1  15
DOCKED: TORSDOF 5
DOCKED: TER
DOCKED: ENDMDL
________________________________________________________________________________


    FINAL DOCKED STATE:
    ________________________


Run:   18 / 20
Time taken for this run:   0.034s

DOCKED: MODEL        18
DOCKED: USER    Run = 18
DOCKED: USER
DOCKED: USER    Estimated Free Energy of Binding    =  -7.74 kcal/mol  [=(1)+(2)+(3)-(4)]
DOCKED: USER
DOCKED: USER    (1) Final Intermolecular Energy     =  -9.24 kcal/mol
DOCKED: USER        vdW + Hbond + desolv Energy     =  -9.07 kcal/mol
DOCKED: USER        Electrostatic Energy            =  -0.17 kcal/mol
DOCKED: USER        Moving Ligand-Fixed Receptor    =  -9.24 kcal/mol
DOCKED: USER        Moving Ligand-Moving Receptor   =  +0.00 kcal/mol
DOCKED: USER    (2) Final Total Internal Energy     =  -0.89 kcal/mol
DOCKED: USER    (3) Torsional Free Energy           =  +1.49 kcal/mol
DOCKED: USER    (4) Unbound System's Energy         =  -0.89 kcal/mol
DOCKED: USER
DOCKED: USER
DOCKED: REMARK SMILES C[C@@H](/N=C(\O)c1ccc2ccccc2n1)c1ccc2[nH]ccc2c1
DOCKED: REMARK SMILES IDX 3 1 4 2 5 3 6 5 15 6 7 7 14 8 8 9 13 10 9 11 12 12 10 13
DOCKED: REMARK SMILES IDX 11 14 2 15 1 16 16 17 17 18 24 19 18 20 23 21 19 22 22 23
DOCKED: REMARK SMILES IDX 20 24 21 25
DOCKED: REMARK H PARENT 5 4 20 26
DOCKED: USER                              x       y       z     vdW  Elec       q    Type
DOCKED: USER                           _______ _______ _______ _____ _____    ______ ____
DOCKED: ROOT
DOCKED: ATOM      1  N   UNL     1     139.777  75.478 220.261 -0.05 +0.06    -0.242 NA 
DOCKED: ENDROOT
DOCKED: BRANCH   1   2
DOCKED: ATOM      2  C   UNL     1     139.762  75.623 221.557 -0.22 -0.05    +0.233 C  
DOCKED: BRANCH   2   3
DOCKED: ATOM      3  O   UNL     1     139.588  74.534 222.417 -0.63 +0.06    -0.492 OA 
DOCKED: ATOM      4  H   UNL     1     138.777  74.415 223.008 -0.50 -0.16    +0.295 HD 
DOCKED: ENDBRANCH   2   3
DOCKED: BRANCH   2   5
DOCKED: ATOM      5  C   UNL     1     139.929  76.964 222.150 -0.31 -0.03    +0.125 A  
DOCKED: ATOM      6  N   UNL     1     141.175  77.511 222.203 -0.23 +0.11    -0.243 NA 
DOCKED: ATOM      7  C   UNL     1     138.835  77.687 222.660 -0.29 -0.01    +0.035 A  
DOCKED: ATOM      8  C   UNL     1     141.404  78.741 222.737 -0.47 -0.03    +0.071 A  
DOCKED: ATOM      9  C   UNL     1     139.041  78.953 223.214 -0.33 -0.00    +0.013 A  
DOCKED: ATOM     10  C   UNL     1     142.704  79.262 222.771 -0.49 -0.01    +0.029 A  
DOCKED: ATOM     11  C   UNL     1     140.330  79.494 223.258 -0.45 -0.00    +0.000 A  
DOCKED: ATOM     12  C   UNL     1     142.935  80.527 223.320 -0.67 -0.00    +0.002 A  
DOCKED: ATOM     13  C   UNL     1     140.571  80.762 223.808 -0.41 -0.00    +0.010 A  
DOCKED: ATOM     14  C   UNL     1     141.873  81.274 223.837 -0.61 -0.00    +0.001 A  
DOCKED: ENDBRANCH   2   5
DOCKED: ENDBRANCH   1   2
DOCKED: BRANCH   1  15
DOCKED: ATOM     15  C   UNL     1     140.936  75.655 219.385 -0.10 -0.04    +0.136 C  
DOCKED: ATOM     16  C   UNL     1     140.514  75.404 217.939 -0.04 -0.01    +0.038 C  
DOCKED: BRANCH  15  17
DOCKED: ATOM     17  C   UNL     1     142.053  74.708 219.770 -0.21 +0.01    -0.023 A  
DOCKED: ATOM     18  C   UNL     1     141.856  73.300 219.728 -0.15 -0.00    +0.008 A  
DOCKED: ATOM     19  C   UNL     1     143.318  75.223 220.132 -0.36 -0.01    +0.016 A  
DOCKED: ATOM     20  C   UNL     1     142.898  72.417 220.065 -0.22 -0.00    +0.027 A  
DOCKED: ATOM     21  C   UNL     1     144.326  74.319 220.460 -0.48 +0.00    -0.000 A  
DOCKED: ATOM     22  C   UNL     1     144.124  72.967 220.429 -0.37 -0.01    +0.045 A  
DOCKED: ATOM     23  C   UNL     1     145.630  74.533 220.848 -0.41 -0.01    +0.028 A  
DOCKED: ATOM     24  N   UNL     1     145.241  72.309 220.781 -0.10 +0.06    -0.361 N  
DOCKED: ATOM     25  C   UNL     1     146.165  73.263 221.038 -0.62 -0.00    +0.083 A  
DOCKED: ATOM     26  H   UNL     1     145.373  71.274 220.842 -0.35 -0.08    +0.166 HD 
DOCKED: ENDBRANCH  15  17
DOCKED: ENDBRANCH   1  15
DOCKED: TORSDOF 5
DOCKED: TER
DOCKED: ENDMDL
________________________________________________________________________________


    FINAL DOCKED STATE:
    ________________________


Run:   19 / 20
Time taken for this run:   0.034s

DOCKED: MODEL        19
DOCKED: USER    Run = 19
DOCKED: USER
DOCKED: USER    Estimated Free Energy of Binding    =  -7.29 kcal/mol  [=(1)+(2)+(3)-(4)]
DOCKED: USER
DOCKED: USER    (1) Final Intermolecular Energy     =  -8.78 kcal/mol
DOCKED: USER        vdW + Hbond + desolv Energy     =  -8.63 kcal/mol
DOCKED: USER        Electrostatic Energy            =  -0.14 kcal/mol
DOCKED: USER        Moving Ligand-Fixed Receptor    =  -8.78 kcal/mol
DOCKED: USER        Moving Ligand-Moving Receptor   =  +0.00 kcal/mol
DOCKED: USER    (2) Final Total Internal Energy     =  -1.33 kcal/mol
DOCKED: USER    (3) Torsional Free Energy           =  +1.49 kcal/mol
DOCKED: USER    (4) Unbound System's Energy         =  -1.33 kcal/mol
DOCKED: USER
DOCKED: USER
DOCKED: REMARK SMILES C[C@@H](/N=C(\O)c1ccc2ccccc2n1)c1ccc2[nH]ccc2c1
DOCKED: REMARK SMILES IDX 3 1 4 2 5 3 6 5 15 6 7 7 14 8 8 9 13 10 9 11 12 12 10 13
DOCKED: REMARK SMILES IDX 11 14 2 15 1 16 16 17 17 18 24 19 18 20 23 21 19 22 22 23
DOCKED: REMARK SMILES IDX 20 24 21 25
DOCKED: REMARK H PARENT 5 4 20 26
DOCKED: USER                              x       y       z     vdW  Elec       q    Type
DOCKED: USER                           _______ _______ _______ _____ _____    ______ ____
DOCKED: ROOT
DOCKED: ATOM      1  N   UNL     1     140.567  74.774 221.971 -0.67 +0.02    -0.242 NA 
DOCKED: ENDROOT
DOCKED: BRANCH   1   2
DOCKED: ATOM      2  C   UNL     1     139.551  75.529 222.283 -0.18 -0.04    +0.233 C  
DOCKED: BRANCH   2   3
DOCKED: ATOM      3  O   UNL     1     138.248  75.024 222.338 -0.13 +0.15    -0.492 OA 
DOCKED: ATOM      4  H   UNL     1     137.956  74.304 222.985 -0.46 -0.19    +0.295 HD 
DOCKED: ENDBRANCH   2   3
DOCKED: BRANCH   2   5
DOCKED: ATOM      5  C   UNL     1     139.762  76.958 222.589 -0.24 -0.03    +0.125 A  
DOCKED: ATOM      6  N   UNL     1     141.035  77.426 222.705 -0.29 +0.09    -0.243 NA 
DOCKED: ATOM      7  C   UNL     1     138.682  77.843 222.763 -0.27 -0.01    +0.035 A  
DOCKED: ATOM      8  C   UNL     1     141.305  78.729 222.987 -0.49 -0.02    +0.071 A  
DOCKED: ATOM      9  C   UNL     1     138.930  79.186 223.054 -0.33 -0.00    +0.013 A  
DOCKED: ATOM     10  C   UNL     1     142.632  79.164 223.098 -0.49 -0.01    +0.029 A  
DOCKED: ATOM     11  C   UNL     1     140.246  79.644 223.169 -0.44 -0.00    +0.000 A  
DOCKED: ATOM     12  C   UNL     1     142.905  80.505 223.388 -0.68 -0.00    +0.002 A  
DOCKED: ATOM     13  C   UNL     1     140.529  80.988 223.461 -0.43 -0.00    +0.010 A  
DOCKED: ATOM     14  C   UNL     1     141.858  81.413 223.569 -0.58 -0.00    +0.001 A  
DOCKED: ENDBRANCH   2   5
DOCKED: ENDBRANCH   1   2
DOCKED: BRANCH   1  15
DOCKED: ATOM     15  C   UNL     1     141.008  74.434 220.617 -0.20 -0.03    +0.136 C  
DOCKED: ATOM     16  C   UNL     1     142.059  73.328 220.695 -0.25 -0.01    +0.038 C  
DOCKED: BRANCH  15  17
DOCKED: ATOM     17  C   UNL     1     141.583  75.647 219.916 -0.22 +0.01    -0.023 A  
DOCKED: ATOM     18  C   UNL     1     142.915  75.632 219.418 -0.33 -0.00    +0.008 A  
DOCKED: ATOM     19  C   UNL     1     140.778  76.791 219.715 -0.15 -0.01    +0.016 A  
DOCKED: ATOM     20  C   UNL     1     143.445  76.749 218.748 -0.28 -0.02    +0.027 A  
DOCKED: ATOM     21  C   UNL     1     141.336  77.878 219.049 -0.20 +0.00    -0.000 A  
DOCKED: ATOM     22  C   UNL     1     142.622  77.860 218.583 -0.31 -0.03    +0.045 A  
DOCKED: ATOM     23  C   UNL     1     140.797  79.103 218.724 -0.13 -0.01    +0.028 A  
DOCKED: ATOM     24  N   UNL     1     142.927  79.018 217.976 -0.17 +0.38    -0.361 N  
DOCKED: ATOM     25  C   UNL     1     141.814  79.783 218.060 -0.23 -0.06    +0.083 A  
DOCKED: ATOM     26  H   UNL     1     143.834  79.279 217.528 -0.51 -0.32    +0.166 HD 
DOCKED: ENDBRANCH  15  17
DOCKED: ENDBRANCH   1  15
DOCKED: TORSDOF 5
DOCKED: TER
DOCKED: ENDMDL
________________________________________________________________________________


    FINAL DOCKED STATE:
    ________________________


Run:   20 / 20
Time taken for this run:   0.034s

DOCKED: MODEL        20
DOCKED: USER    Run = 20
DOCKED: USER
DOCKED: USER    Estimated Free Energy of Binding    =  -7.82 kcal/mol  [=(1)+(2)+(3)-(4)]
DOCKED: USER
DOCKED: USER    (1) Final Intermolecular Energy     =  -9.31 kcal/mol
DOCKED: USER        vdW + Hbond + desolv Energy     =  -9.22 kcal/mol
DOCKED: USER        Electrostatic Energy            =  -0.08 kcal/mol
DOCKED: USER        Moving Ligand-Fixed Receptor    =  -9.31 kcal/mol
DOCKED: USER        Moving Ligand-Moving Receptor   =  +0.00 kcal/mol
DOCKED: USER    (2) Final Total Internal Energy     =  -0.85 kcal/mol
DOCKED: USER    (3) Torsional Free Energy           =  +1.49 kcal/mol
DOCKED: USER    (4) Unbound System's Energy         =  -0.85 kcal/mol
DOCKED: USER
DOCKED: USER
DOCKED: REMARK SMILES C[C@@H](/N=C(\O)c1ccc2ccccc2n1)c1ccc2[nH]ccc2c1
DOCKED: REMARK SMILES IDX 3 1 4 2 5 3 6 5 15 6 7 7 14 8 8 9 13 10 9 11 12 12 10 13
DOCKED: REMARK SMILES IDX 11 14 2 15 1 16 16 17 17 18 24 19 18 20 23 21 19 22 22 23
DOCKED: REMARK SMILES IDX 20 24 21 25
DOCKED: REMARK H PARENT 5 4 20 26
DOCKED: USER                              x       y       z     vdW  Elec       q    Type
DOCKED: USER                           _______ _______ _______ _____ _____    ______ ____
DOCKED: ROOT
DOCKED: ATOM      1  N   UNL     1     139.941  74.959 221.973 -0.67 +0.03    -0.242 NA 
DOCKED: ENDROOT
DOCKED: BRANCH   1   2
DOCKED: ATOM      2  C   UNL     1     139.054  75.821 222.388 -0.20 -0.05    +0.233 C  
DOCKED: BRANCH   2   3
DOCKED: ATOM      3  O   UNL     1     137.711  75.470 222.556 -0.11 +0.15    -0.492 OA 
DOCKED: ATOM      4  H   UNL     1     137.404  74.697 223.130 -0.37 -0.16    +0.295 HD 
DOCKED: ENDBRANCH   2   3
DOCKED: BRANCH   2   5
DOCKED: ATOM      5  C   UNL     1     139.460  77.207 222.691 -0.22 -0.02    +0.125 A  
DOCKED: ATOM      6  N   UNL     1     140.783  77.528 222.659 -0.28 +0.08    -0.243 NA 
DOCKED: ATOM      7  C   UNL     1     138.516  78.199 223.012 -0.25 -0.01    +0.035 A  
DOCKED: ATOM      8  C   UNL     1     141.230  78.784 222.929 -0.47 -0.02    +0.071 A  
DOCKED: ATOM      9  C   UNL     1     138.946  79.497 223.294 -0.35 -0.00    +0.013 A  
DOCKED: ATOM     10  C   UNL     1     142.601  79.068 222.885 -0.46 -0.01    +0.029 A  
DOCKED: ATOM     11  C   UNL     1     140.310  79.804 223.256 -0.45 -0.00    +0.000 A  
DOCKED: ATOM     12  C   UNL     1     143.056  80.360 223.163 -0.65 -0.00    +0.002 A  
DOCKED: ATOM     13  C   UNL     1     140.776  81.099 223.535 -0.43 -0.00    +0.010 A  
DOCKED: ATOM     14  C   UNL     1     142.147  81.372 223.487 -0.59 -0.00    +0.001 A  
DOCKED: ENDBRANCH   2   5
DOCKED: ENDBRANCH   1   2
DOCKED: BRANCH   1  15
DOCKED: ATOM     15  C   UNL     1     140.331  74.720 220.583 -0.16 -0.03    +0.136 C  
DOCKED: ATOM     16  C   UNL     1     139.670  73.434 220.090 -0.09 -0.01    +0.038 C  
DOCKED: BRANCH  15  17
DOCKED: ATOM     17  C   UNL     1     141.836  74.610 220.457 -0.27 +0.01    -0.023 A  
DOCKED: ATOM     18  C   UNL     1     142.619  75.743 220.105 -0.32 -0.00    +0.008 A  
DOCKED: ATOM     19  C   UNL     1     142.477  73.380 220.734 -0.27 -0.00    +0.016 A  
DOCKED: ATOM     20  C   UNL     1     144.020  75.649 220.008 -0.31 -0.02    +0.027 A  
DOCKED: ATOM     21  C   UNL     1     143.864  73.324 220.627 -0.38 +0.00    -0.000 A  
DOCKED: ATOM     22  C   UNL     1     144.609  74.416 220.277 -0.45 -0.02    +0.045 A  
DOCKED: ATOM     23  C   UNL     1     144.736  72.277 220.830 -0.33 -0.01    +0.028 A  
DOCKED: ATOM     24  N   UNL     1     145.916  74.113 220.245 -0.20 +0.06    -0.361 N  
DOCKED: ATOM     25  C   UNL     1     146.000  72.805 220.582 -0.51 +0.01    +0.083 A  
DOCKED: ATOM     26  H   UNL     1     146.709  74.751 220.011 -0.44 -0.05    +0.166 HD 
DOCKED: ENDBRANCH  15  17
DOCKED: ENDBRANCH   1  15
DOCKED: TORSDOF 5
DOCKED: TER
DOCKED: ENDMDL
________________________________________________________________________________


    CLUSTERING HISTOGRAM
    ____________________


________________________________________________________________________________
     |           |     |           |     |
Clus | Lowest    | Run | Mean      | Num | Histogram
-ter | Binding   |     | Binding   | in  |
Rank | Energy    |     | Energy    | Clus|    5    10   15   20   25   30   35
_____|___________|_____|___________|_____|____:____|____:____|____:____|____:___
   1 |     -8.23 |  10 |     -7.99 |   6 |######
   2 |     -8.17 |   6 |     -8.13 |   4 |####
   3 |     -7.84 |  12 |     -7.67 |   5 |#####
   4 |     -7.30 |   5 |     -7.29 |   5 |#####
_____|___________|_____|___________|_____|______________________________________


    RMSD TABLE
    __________


_______________________________________________________________________
     |      |      |           |         |                 |
Rank | Sub- | Run  | Binding   | Cluster | Reference       | Grep
     | Rank |      | Energy    | RMSD    | RMSD            | Pattern
_____|______|______|___________|_________|_________________|___________
   1      1     10       -8.23      0.00    271.12           RANKING
   1      2     15       -8.19      0.93    271.15           RANKING
   1      3      4       -8.16      0.91    271.12           RANKING
   1      4      7       -7.83      1.09    271.06           RANKING
   1      5      8       -7.83      1.09    271.01           RANKING
   1      6      2       -7.69      1.15    270.88           RANKING
   2      1      6       -8.17      0.00    271.63           RANKING
   2      2     17       -8.17      0.34    271.56           RANKING
   2      3     11       -8.13      0.33    271.64           RANKING
   2      4     16       -8.04      1.40    271.70           RANKING
   3      1     12       -7.84      0.00    271.49           RANKING
   3      2     20       -7.82      0.07    271.49           RANKING
   3      3     18       -7.74      1.36    271.29           RANKING
   3      4     13       -7.53      1.09    271.19           RANKING
   3      5      3       -7.41      1.54    271.17           RANKING
   4      1      5       -7.30      0.00    271.06           RANKING
   4      2      9       -7.30      0.03    271.05           RANKING
   4      3      1       -7.29      0.04    271.06           RANKING
   4      4     19       -7.29      0.04    271.06           RANKING
   4      5     14       -7.27      0.04    271.06           RANKING

Run time 0.659 sec
Idle time 0.000 sec
