AutoDock-GPU version: v1.6

**********************************************************
**    AutoDock-GPU AUTODOCKTOOLS-COMPATIBLE DLG FILE    **
**********************************************************


    DOCKING PARAMETERS
    ________________________


Ligand file:                               /home/a/REINVENT4/ReinventStudies/pleaseWork/justRnve/graph-dock-t2iv78/graph-DockGPU/node-autodockgpu/inputs/QCMKIQNVNXXUCE-KGZVJVGKNA-N.pdbqt
Grid fld file:                             /home/a/REINVENT4/ReinventStudies/mols/Rad51/maps/rad51_receptor.maps.fld

Random seed:                               42
Number of runs:                            20
Number of energy evaluations:              1132076
Number of generations:                     42000
Size of population:                        150
Rate of crossover:                         80.000000%
Tournament selection probability limit:    60.000000%
Rate of mutation:                          2.000000%
Maximal allowed delta movement:            +/- 6.000000A
Maximal allowed delta angle:               +/- 90.000000

Rate of local search:                      100.000000%
Maximal number of local search iterations: 300
Rho lower bound:                           0.010000
Spread of local search delta movement:     2.000000A
Spread of local search delta angle:        74.999999
Limit of consecutive successes/failures:   4

Handle symmetry during clustering:         YES
RMSD tolerance:                            2.000000A

Program call in command line was:          /home/a/REINVENT4/ReinventStudies/adgpu-v1.6_linux_x64_cuda12_128wi --filelist batch.txt --heuristics 1 --nrun 20 --psize 150 --lsit 300 --seed 42 --heurmax 12000000 


    GRID PARAMETERS
    ________________________


Receptor name:                             rad51_receptor
Number of grid points (x, y, z):           53, 53, 53
Grid center (x, y, z):                     139.950000, 75.640000, 221.970000A
Grid size (x, y, z):                       19.500000, 19.500000, 19.500000A
Grid spacing:                              0.375000A


    LIGAND PARAMETERS
    ________________________


Ligand name:                               /home/a/REINVENT4/ReinventStudies/pleaseWork/justRnve/graph-dock-t2iv78/graph-DockGPU/node-autodockgpu/inputs/QCMKIQNVNXXUCE-KGZVJVGKNA-N
Number of atoms:                           26
Number of rotatable bonds:                 3
Number of atom types:                      6


    DUMMY DATA (only for ADT-compatibility)
    ________________________


DPF> outlev 1
DPF> ga_run 20
DPF> fld /home/a/REINVENT4/ReinventStudies/mols/Rad51/maps/rad51_receptor.maps.fld
DPF> move /home/a/REINVENT4/ReinventStudies/pleaseWork/justRnve/graph-dock-t2iv78/graph-DockGPU/node-autodockgpu/inputs/QCMKIQNVNXXUCE-KGZVJVGKNA-N.pdbqt


    COUNTER STATES
    ________________________


Number of energy evaluations performed:    626969
Number of generations used:                30


    INPUT LIGAND PDBQT FILE:
    ________________________


INPUT-LIGAND-PDBQT: REMARK SMILES C[C@@H](NC(=O)c1ccc2ccccc2n1)c1ccc2[nH]ccc2c1
INPUT-LIGAND-PDBQT: REMARK SMILES IDX 1 1 2 2 3 3 4 4 5 6 6 7 7 8 15 9 8 10 14 11 9 12 13 13 10 14
INPUT-LIGAND-PDBQT: REMARK SMILES IDX 12 15 11 16 16 17 17 18 24 19 18 20 23 21 19 22 22 23 20 24
INPUT-LIGAND-PDBQT: REMARK SMILES IDX 21 25
INPUT-LIGAND-PDBQT: REMARK H PARENT 3 5 20 26
INPUT-LIGAND-PDBQT: ROOT
INPUT-LIGAND-PDBQT: ATOM      1  C   UNL     1      -2.145  -3.497  -0.650  1.00  0.00     0.036 C 
INPUT-LIGAND-PDBQT: ATOM      2  C   UNL     1      -1.970  -1.998  -0.383  1.00  0.00     0.109 C 
INPUT-LIGAND-PDBQT: ENDROOT
INPUT-LIGAND-PDBQT: BRANCH   2   3
INPUT-LIGAND-PDBQT: ATOM      3  N   UNL     1      -0.838  -1.768   0.522  1.00  0.00    -0.344 N 
INPUT-LIGAND-PDBQT: ATOM      4  C   UNL     1      -0.922  -2.024   1.934  1.00  0.00     0.270 C 
INPUT-LIGAND-PDBQT: ATOM      5  H   UNL     1       0.061  -1.406   0.131  1.00  0.00     0.164 HD
INPUT-LIGAND-PDBQT: ATOM      6  O   UNL     1      -2.012  -2.412   2.437  1.00  0.00    -0.267 OA
INPUT-LIGAND-PDBQT: BRANCH   4   7
INPUT-LIGAND-PDBQT: ATOM      7  C   UNL     1       0.260  -1.832   2.805  1.00  0.00     0.128 A 
INPUT-LIGAND-PDBQT: ATOM      8  C   UNL     1       0.186  -2.071   4.188  1.00  0.00     0.035 A 
INPUT-LIGAND-PDBQT: ATOM      9  N   UNL     1       1.439  -1.420   2.261  1.00  0.00    -0.243 NA
INPUT-LIGAND-PDBQT: ATOM     10  C   UNL     1       1.317  -1.884   4.986  1.00  0.00     0.013 A 
INPUT-LIGAND-PDBQT: ATOM     11  C   UNL     1       2.556  -1.229   3.012  1.00  0.00     0.071 A 
INPUT-LIGAND-PDBQT: ATOM     12  C   UNL     1       2.517  -1.459   4.404  1.00  0.00     0.000 A 
INPUT-LIGAND-PDBQT: ATOM     13  C   UNL     1       3.745  -0.804   2.408  1.00  0.00     0.029 A 
INPUT-LIGAND-PDBQT: ATOM     14  C   UNL     1       3.672  -1.261   5.176  1.00  0.00     0.010 A 
INPUT-LIGAND-PDBQT: ATOM     15  C   UNL     1       4.892  -0.609   3.184  1.00  0.00     0.002 A 
INPUT-LIGAND-PDBQT: ATOM     16  C   UNL     1       4.856  -0.836   4.563  1.00  0.00     0.001 A 
INPUT-LIGAND-PDBQT: ENDBRANCH   4   7
INPUT-LIGAND-PDBQT: ENDBRANCH   2   3
INPUT-LIGAND-PDBQT: BRANCH   2  17
INPUT-LIGAND-PDBQT: ATOM     17  C   UNL     1      -1.782  -1.237  -1.682  1.00  0.00    -0.025 A 
INPUT-LIGAND-PDBQT: ATOM     18  C   UNL     1      -0.664  -1.498  -2.522  1.00  0.00     0.008 A 
INPUT-LIGAND-PDBQT: ATOM     19  C   UNL     1      -2.727  -0.258  -2.069  1.00  0.00     0.016 A 
INPUT-LIGAND-PDBQT: ATOM     20  C   UNL     1      -0.489  -0.795  -3.727  1.00  0.00     0.027 A 
INPUT-LIGAND-PDBQT: ATOM     21  C   UNL     1      -2.521   0.418  -3.269  1.00  0.00    -0.000 A 
INPUT-LIGAND-PDBQT: ATOM     22  C   UNL     1      -1.442   0.160  -4.070  1.00  0.00     0.045 A 
INPUT-LIGAND-PDBQT: ATOM     23  C   UNL     1      -3.264   1.402  -3.883  1.00  0.00     0.028 A 
INPUT-LIGAND-PDBQT: ATOM     24  N   UNL     1      -1.464   0.936  -5.166  1.00  0.00    -0.361 N 
INPUT-LIGAND-PDBQT: ATOM     25  C   UNL     1      -2.577   1.697  -5.056  1.00  0.00     0.083 A 
INPUT-LIGAND-PDBQT: ATOM     26  H   UNL     1      -0.768   0.951  -5.944  1.00  0.00     0.166 HD
INPUT-LIGAND-PDBQT: ENDBRANCH   2  17
INPUT-LIGAND-PDBQT: TORSDOF 3


    FINAL DOCKED STATE:
    ________________________


Run:   1 / 20
Time taken for this run:   0.021s

DOCKED: MODEL        1
DOCKED: USER    Run = 1
DOCKED: USER
DOCKED: USER    Estimated Free Energy of Binding    =  -8.37 kcal/mol  [=(1)+(2)+(3)-(4)]
DOCKED: USER
DOCKED: USER    (1) Final Intermolecular Energy     =  -9.26 kcal/mol
DOCKED: USER        vdW + Hbond + desolv Energy     =  -9.18 kcal/mol
DOCKED: USER        Electrostatic Energy            =  -0.09 kcal/mol
DOCKED: USER        Moving Ligand-Fixed Receptor    =  -9.26 kcal/mol
DOCKED: USER        Moving Ligand-Moving Receptor   =  +0.00 kcal/mol
DOCKED: USER    (2) Final Total Internal Energy     =  -0.90 kcal/mol
DOCKED: USER    (3) Torsional Free Energy           =  +0.89 kcal/mol
DOCKED: USER    (4) Unbound System's Energy         =  -0.90 kcal/mol
DOCKED: USER
DOCKED: USER
DOCKED: REMARK SMILES C[C@@H](NC(=O)c1ccc2ccccc2n1)c1ccc2[nH]ccc2c1
DOCKED: REMARK SMILES IDX 1 1 2 2 3 3 4 4 5 6 6 7 7 8 15 9 8 10 14 11 9 12 13 13 10 14
DOCKED: REMARK SMILES IDX 12 15 11 16 16 17 17 18 24 19 18 20 23 21 19 22 22 23 20 24
DOCKED: REMARK SMILES IDX 21 25
DOCKED: REMARK H PARENT 3 5 20 26
DOCKED: USER                              x       y       z     vdW  Elec       q    Type
DOCKED: USER                           _______ _______ _______ _____ _____    ______ ____
DOCKED: ROOT
DOCKED: ATOM      1  C   UNL     1     137.614  70.938 223.498 -0.22 -0.01    +0.036 C  
DOCKED: ATOM      2  C   UNL     1     139.144  70.932 223.402 -0.27 -0.02    +0.109 C  
DOCKED: ENDROOT
DOCKED: BRANCH   2   3
DOCKED: ATOM      3  N   UNL     1     139.632  72.232 222.926 -0.16 +0.07    -0.344 N  
DOCKED: ATOM      4  C   UNL     1     140.627  72.346 221.895 -0.19 -0.03    +0.270 C  
DOCKED: ATOM      5  H   UNL     1     139.246  73.106 223.349 -0.42 -0.08    +0.164 HD 
DOCKED: ATOM      6  O   UNL     1     141.144  71.304 221.405 -0.12 +0.03    -0.267 OA 
DOCKED: BRANCH   4   7
DOCKED: ATOM      7  C   UNL     1     141.052  73.676 221.403 -0.24 -0.01    +0.128 A  
DOCKED: ATOM      8  C   UNL     1     141.906  73.798 220.293 -0.22 -0.01    +0.035 A  
DOCKED: ATOM      9  N   UNL     1     140.610  74.801 222.032 -0.63 +0.01    -0.243 NA 
DOCKED: ATOM     10  C   UNL     1     142.290  75.066 219.849 -0.26 -0.00    +0.013 A  
DOCKED: ATOM     11  C   UNL     1     140.967  76.047 221.624 -0.33 -0.02    +0.071 A  
DOCKED: ATOM     12  C   UNL     1     141.823  76.207 220.513 -0.29 -0.00    +0.000 A  
DOCKED: ATOM     13  C   UNL     1     140.488  77.174 222.303 -0.40 -0.01    +0.029 A  
DOCKED: ATOM     14  C   UNL     1     142.189  77.495 220.094 -0.32 -0.01    +0.010 A  
DOCKED: ATOM     15  C   UNL     1     140.857  78.454 221.879 -0.36 -0.00    +0.002 A  
DOCKED: ATOM     16  C   UNL     1     141.705  78.615 220.779 -0.33 -0.00    +0.001 A  
DOCKED: ENDBRANCH   4   7
DOCKED: ENDBRANCH   2   3
DOCKED: BRANCH   2  17
DOCKED: ATOM     17  C   UNL     1     139.767  70.582 224.740 -0.42 +0.00    -0.025 A  
DOCKED: ATOM     18  C   UNL     1     140.511  71.550 225.471 -0.54 -0.00    +0.008 A  
DOCKED: ATOM     19  C   UNL     1     139.608  69.282 225.274 -0.41 -0.00    +0.016 A  
DOCKED: ATOM     20  C   UNL     1     141.088  71.228 226.712 -0.67 -0.00    +0.027 A  
DOCKED: ATOM     21  C   UNL     1     140.193  68.999 226.505 -0.56 +0.00    -0.000 A  
DOCKED: ATOM     22  C   UNL     1     140.907  69.937 227.201 -0.54 -0.01    +0.045 A  
DOCKED: ATOM     23  C   UNL     1     140.200  67.840 227.250 -0.61 -0.01    +0.028 A  
DOCKED: ATOM     24  N   UNL     1     141.369  69.427 228.354 -0.17 +0.08    -0.361 N  
DOCKED: ATOM     25  C   UNL     1     140.939  68.145 228.389 -0.58 -0.02    +0.083 A  
DOCKED: ATOM     26  H   UNL     1     141.942  69.916 229.077 +0.09 -0.04    +0.166 HD 
DOCKED: ENDBRANCH   2  17
DOCKED: TORSDOF 3
DOCKED: TER
DOCKED: ENDMDL
________________________________________________________________________________


    FINAL DOCKED STATE:
    ________________________


Run:   2 / 20
Time taken for this run:   0.021s

DOCKED: MODEL        2
DOCKED: USER    Run = 2
DOCKED: USER
DOCKED: USER    Estimated Free Energy of Binding    =  -8.37 kcal/mol  [=(1)+(2)+(3)-(4)]
DOCKED: USER
DOCKED: USER    (1) Final Intermolecular Energy     =  -9.26 kcal/mol
DOCKED: USER        vdW + Hbond + desolv Energy     =  -9.18 kcal/mol
DOCKED: USER        Electrostatic Energy            =  -0.09 kcal/mol
DOCKED: USER        Moving Ligand-Fixed Receptor    =  -9.26 kcal/mol
DOCKED: USER        Moving Ligand-Moving Receptor   =  +0.00 kcal/mol
DOCKED: USER    (2) Final Total Internal Energy     =  -0.90 kcal/mol
DOCKED: USER    (3) Torsional Free Energy           =  +0.89 kcal/mol
DOCKED: USER    (4) Unbound System's Energy         =  -0.90 kcal/mol
DOCKED: USER
DOCKED: USER
DOCKED: REMARK SMILES C[C@@H](NC(=O)c1ccc2ccccc2n1)c1ccc2[nH]ccc2c1
DOCKED: REMARK SMILES IDX 1 1 2 2 3 3 4 4 5 6 6 7 7 8 15 9 8 10 14 11 9 12 13 13 10 14
DOCKED: REMARK SMILES IDX 12 15 11 16 16 17 17 18 24 19 18 20 23 21 19 22 22 23 20 24
DOCKED: REMARK SMILES IDX 21 25
DOCKED: REMARK H PARENT 3 5 20 26
DOCKED: USER                              x       y       z     vdW  Elec       q    Type
DOCKED: USER                           _______ _______ _______ _____ _____    ______ ____
DOCKED: ROOT
DOCKED: ATOM      1  C   UNL     1     137.614  70.956 223.532 -0.22 -0.01    +0.036 C  
DOCKED: ATOM      2  C   UNL     1     139.144  70.946 223.428 -0.27 -0.02    +0.109 C  
DOCKED: ENDROOT
DOCKED: BRANCH   2   3
DOCKED: ATOM      3  N   UNL     1     139.632  72.244 222.949 -0.16 +0.08    -0.344 N  
DOCKED: ATOM      4  C   UNL     1     140.619  72.355 221.910 -0.19 -0.03    +0.270 C  
DOCKED: ATOM      5  H   UNL     1     139.252  73.120 223.375 -0.42 -0.08    +0.164 HD 
DOCKED: ATOM      6  O   UNL     1     141.130  71.312 221.417 -0.12 +0.03    -0.267 OA 
DOCKED: BRANCH   4   7
DOCKED: ATOM      7  C   UNL     1     141.045  73.684 221.415 -0.24 -0.01    +0.128 A  
DOCKED: ATOM      8  C   UNL     1     141.897  73.804 220.304 -0.22 -0.01    +0.035 A  
DOCKED: ATOM      9  N   UNL     1     140.606  74.810 222.043 -0.62 +0.01    -0.243 NA 
DOCKED: ATOM     10  C   UNL     1     142.281  75.070 219.857 -0.26 -0.00    +0.013 A  
DOCKED: ATOM     11  C   UNL     1     140.963  76.056 221.632 -0.33 -0.02    +0.071 A  
DOCKED: ATOM     12  C   UNL     1     141.817  76.212 220.520 -0.28 -0.00    +0.000 A  
DOCKED: ATOM     13  C   UNL     1     140.486  77.184 222.310 -0.41 -0.01    +0.029 A  
DOCKED: ATOM     14  C   UNL     1     142.184  77.500 220.098 -0.32 -0.01    +0.010 A  
DOCKED: ATOM     15  C   UNL     1     140.856  78.463 221.884 -0.36 -0.00    +0.002 A  
DOCKED: ATOM     16  C   UNL     1     141.702  78.621 220.782 -0.33 -0.00    +0.001 A  
DOCKED: ENDBRANCH   4   7
DOCKED: ENDBRANCH   2   3
DOCKED: BRANCH   2  17
DOCKED: ATOM     17  C   UNL     1     139.773  70.596 224.763 -0.42 +0.00    -0.025 A  
DOCKED: ATOM     18  C   UNL     1     140.497  71.571 225.504 -0.53 -0.00    +0.008 A  
DOCKED: ATOM     19  C   UNL     1     139.639  69.287 225.284 -0.41 -0.00    +0.016 A  
DOCKED: ATOM     20  C   UNL     1     141.080  71.248 226.742 -0.68 -0.00    +0.027 A  
DOCKED: ATOM     21  C   UNL     1     140.229  69.004 226.514 -0.56 +0.00    -0.000 A  
DOCKED: ATOM     22  C   UNL     1     140.924  69.949 227.218 -0.54 -0.01    +0.045 A  
DOCKED: ATOM     23  C   UNL     1     140.259  67.839 227.247 -0.62 -0.01    +0.028 A  
DOCKED: ATOM     24  N   UNL     1     141.396  69.437 228.367 -0.17 +0.08    -0.361 N  
DOCKED: ATOM     25  C   UNL     1     140.991  68.147 228.389 -0.58 -0.02    +0.083 A  
DOCKED: ATOM     26  H   UNL     1     141.959  69.931 229.095 +0.09 -0.04    +0.166 HD 
DOCKED: ENDBRANCH   2  17
DOCKED: TORSDOF 3
DOCKED: TER
DOCKED: ENDMDL
________________________________________________________________________________


    FINAL DOCKED STATE:
    ________________________


Run:   3 / 20
Time taken for this run:   0.021s

DOCKED: MODEL        3
DOCKED: USER    Run = 3
DOCKED: USER
DOCKED: USER    Estimated Free Energy of Binding    =  -8.37 kcal/mol  [=(1)+(2)+(3)-(4)]
DOCKED: USER
DOCKED: USER    (1) Final Intermolecular Energy     =  -9.27 kcal/mol
DOCKED: USER        vdW + Hbond + desolv Energy     =  -9.18 kcal/mol
DOCKED: USER        Electrostatic Energy            =  -0.08 kcal/mol
DOCKED: USER        Moving Ligand-Fixed Receptor    =  -9.27 kcal/mol
DOCKED: USER        Moving Ligand-Moving Receptor   =  +0.00 kcal/mol
DOCKED: USER    (2) Final Total Internal Energy     =  -0.89 kcal/mol
DOCKED: USER    (3) Torsional Free Energy           =  +0.89 kcal/mol
DOCKED: USER    (4) Unbound System's Energy         =  -0.89 kcal/mol
DOCKED: USER
DOCKED: USER
DOCKED: REMARK SMILES C[C@@H](NC(=O)c1ccc2ccccc2n1)c1ccc2[nH]ccc2c1
DOCKED: REMARK SMILES IDX 1 1 2 2 3 3 4 4 5 6 6 7 7 8 15 9 8 10 14 11 9 12 13 13 10 14
DOCKED: REMARK SMILES IDX 12 15 11 16 16 17 17 18 24 19 18 20 23 21 19 22 22 23 20 24
DOCKED: REMARK SMILES IDX 21 25
DOCKED: REMARK H PARENT 3 5 20 26
DOCKED: USER                              x       y       z     vdW  Elec       q    Type
DOCKED: USER                           _______ _______ _______ _____ _____    ______ ____
DOCKED: ROOT
DOCKED: ATOM      1  C   UNL     1     137.666  70.946 223.506 -0.22 -0.01    +0.036 C  
DOCKED: ATOM      2  C   UNL     1     139.196  70.943 223.417 -0.27 -0.02    +0.109 C  
DOCKED: ENDROOT
DOCKED: BRANCH   2   3
DOCKED: ATOM      3  N   UNL     1     139.684  72.244 222.945 -0.16 +0.07    -0.344 N  
DOCKED: ATOM      4  C   UNL     1     140.634  72.363 221.872 -0.19 -0.03    +0.270 C  
DOCKED: ATOM      5  H   UNL     1     139.332  73.116 223.401 -0.41 -0.08    +0.164 HD 
DOCKED: ATOM      6  O   UNL     1     141.113  71.323 221.341 -0.12 +0.03    -0.267 OA 
DOCKED: BRANCH   4   7
DOCKED: ATOM      7  C   UNL     1     141.059  73.696 221.388 -0.24 -0.01    +0.128 A  
DOCKED: ATOM      8  C   UNL     1     141.907  73.824 220.274 -0.21 -0.01    +0.035 A  
DOCKED: ATOM      9  N   UNL     1     140.622  74.817 222.027 -0.63 +0.01    -0.243 NA 
DOCKED: ATOM     10  C   UNL     1     142.291  75.094 219.837 -0.26 -0.01    +0.013 A  
DOCKED: ATOM     11  C   UNL     1     140.979  76.066 221.625 -0.33 -0.02    +0.071 A  
DOCKED: ATOM     12  C   UNL     1     141.830  76.231 220.511 -0.28 -0.00    +0.000 A  
DOCKED: ATOM     13  C   UNL     1     140.505  77.188 222.314 -0.41 -0.01    +0.029 A  
DOCKED: ATOM     14  C   UNL     1     142.196  77.522 220.099 -0.32 -0.01    +0.010 A  
DOCKED: ATOM     15  C   UNL     1     140.874  78.471 221.897 -0.36 -0.00    +0.002 A  
DOCKED: ATOM     16  C   UNL     1     141.717  78.638 220.794 -0.33 -0.00    +0.001 A  
DOCKED: ENDBRANCH   4   7
DOCKED: ENDBRANCH   2   3
DOCKED: BRANCH   2  17
DOCKED: ATOM     17  C   UNL     1     139.814  70.593 224.758 -0.43 +0.00    -0.025 A  
DOCKED: ATOM     18  C   UNL     1     140.528  71.569 225.507 -0.54 -0.00    +0.008 A  
DOCKED: ATOM     19  C   UNL     1     139.679  69.283 225.275 -0.41 -0.00    +0.016 A  
DOCKED: ATOM     20  C   UNL     1     141.099  71.247 226.750 -0.67 -0.00    +0.027 A  
DOCKED: ATOM     21  C   UNL     1     140.259  69.000 226.510 -0.56 +0.00    -0.000 A  
DOCKED: ATOM     22  C   UNL     1     140.944  69.947 227.222 -0.54 -0.01    +0.045 A  
DOCKED: ATOM     23  C   UNL     1     140.285  67.834 227.242 -0.62 -0.01    +0.028 A  
DOCKED: ATOM     24  N   UNL     1     141.406  69.435 228.375 -0.16 +0.08    -0.361 N  
DOCKED: ATOM     25  C   UNL     1     141.005  68.143 228.391 -0.58 -0.02    +0.083 A  
DOCKED: ATOM     26  H   UNL     1     141.960  69.929 229.109 +0.09 -0.04    +0.166 HD 
DOCKED: ENDBRANCH   2  17
DOCKED: TORSDOF 3
DOCKED: TER
DOCKED: ENDMDL
________________________________________________________________________________


    FINAL DOCKED STATE:
    ________________________


Run:   4 / 20
Time taken for this run:   0.021s

DOCKED: MODEL        4
DOCKED: USER    Run = 4
DOCKED: USER
DOCKED: USER    Estimated Free Energy of Binding    =  -8.37 kcal/mol  [=(1)+(2)+(3)-(4)]
DOCKED: USER
DOCKED: USER    (1) Final Intermolecular Energy     =  -9.27 kcal/mol
DOCKED: USER        vdW + Hbond + desolv Energy     =  -9.18 kcal/mol
DOCKED: USER        Electrostatic Energy            =  -0.09 kcal/mol
DOCKED: USER        Moving Ligand-Fixed Receptor    =  -9.27 kcal/mol
DOCKED: USER        Moving Ligand-Moving Receptor   =  +0.00 kcal/mol
DOCKED: USER    (2) Final Total Internal Energy     =  -0.91 kcal/mol
DOCKED: USER    (3) Torsional Free Energy           =  +0.89 kcal/mol
DOCKED: USER    (4) Unbound System's Energy         =  -0.91 kcal/mol
DOCKED: USER
DOCKED: USER
DOCKED: REMARK SMILES C[C@@H](NC(=O)c1ccc2ccccc2n1)c1ccc2[nH]ccc2c1
DOCKED: REMARK SMILES IDX 1 1 2 2 3 3 4 4 5 6 6 7 7 8 15 9 8 10 14 11 9 12 13 13 10 14
DOCKED: REMARK SMILES IDX 12 15 11 16 16 17 17 18 24 19 18 20 23 21 19 22 22 23 20 24
DOCKED: REMARK SMILES IDX 21 25
DOCKED: REMARK H PARENT 3 5 20 26
DOCKED: USER                              x       y       z     vdW  Elec       q    Type
DOCKED: USER                           _______ _______ _______ _____ _____    ______ ____
DOCKED: ROOT
DOCKED: ATOM      1  C   UNL     1     137.606  70.944 223.474 -0.22 -0.01    +0.036 C  
DOCKED: ATOM      2  C   UNL     1     139.135  70.938 223.381 -0.27 -0.02    +0.109 C  
DOCKED: ENDROOT
DOCKED: BRANCH   2   3
DOCKED: ATOM      3  N   UNL     1     139.625  72.239 222.909 -0.16 +0.07    -0.344 N  
DOCKED: ATOM      4  C   UNL     1     140.630  72.354 221.887 -0.19 -0.03    +0.270 C  
DOCKED: ATOM      5  H   UNL     1     139.232  73.112 223.327 -0.43 -0.08    +0.164 HD 
DOCKED: ATOM      6  O   UNL     1     141.155  71.314 221.405 -0.12 +0.03    -0.267 OA 
DOCKED: BRANCH   4   7
DOCKED: ATOM      7  C   UNL     1     141.056  73.685 221.399 -0.24 -0.01    +0.128 A  
DOCKED: ATOM      8  C   UNL     1     141.907  73.809 220.287 -0.22 -0.01    +0.035 A  
DOCKED: ATOM      9  N   UNL     1     140.618  74.809 222.033 -0.63 +0.01    -0.243 NA 
DOCKED: ATOM     10  C   UNL     1     142.293  75.077 219.846 -0.26 -0.00    +0.013 A  
DOCKED: ATOM     11  C   UNL     1     140.976  76.056 221.627 -0.33 -0.02    +0.071 A  
DOCKED: ATOM     12  C   UNL     1     141.830  76.217 220.515 -0.28 -0.00    +0.000 A  
DOCKED: ATOM     13  C   UNL     1     140.501  77.181 222.311 -0.41 -0.01    +0.029 A  
DOCKED: ATOM     14  C   UNL     1     142.198  77.506 220.099 -0.32 -0.01    +0.010 A  
DOCKED: ATOM     15  C   UNL     1     140.872  78.462 221.890 -0.36 -0.00    +0.002 A  
DOCKED: ATOM     16  C   UNL     1     141.717  78.624 220.789 -0.33 -0.00    +0.001 A  
DOCKED: ENDBRANCH   4   7
DOCKED: ENDBRANCH   2   3
DOCKED: BRANCH   2  17
DOCKED: ATOM     17  C   UNL     1     139.756  70.585 224.719 -0.42 +0.00    -0.025 A  
DOCKED: ATOM     18  C   UNL     1     140.505  71.548 225.450 -0.54 -0.00    +0.008 A  
DOCKED: ATOM     19  C   UNL     1     139.588  69.286 225.254 -0.41 -0.00    +0.016 A  
DOCKED: ATOM     20  C   UNL     1     141.080  71.223 226.692 -0.67 -0.00    +0.027 A  
DOCKED: ATOM     21  C   UNL     1     140.171  69.000 226.486 -0.56 +0.00    -0.000 A  
DOCKED: ATOM     22  C   UNL     1     140.890  69.934 227.181 -0.54 -0.01    +0.045 A  
DOCKED: ATOM     23  C   UNL     1     140.170  67.842 227.231 -0.62 -0.01    +0.028 A  
DOCKED: ATOM     24  N   UNL     1     141.349  69.422 228.335 -0.18 +0.08    -0.361 N  
DOCKED: ATOM     25  C   UNL     1     140.911  68.142 228.370 -0.58 -0.02    +0.083 A  
DOCKED: ATOM     26  H   UNL     1     141.925  69.908 229.057 +0.09 -0.04    +0.166 HD 
DOCKED: ENDBRANCH   2  17
DOCKED: TORSDOF 3
DOCKED: TER
DOCKED: ENDMDL
________________________________________________________________________________


    FINAL DOCKED STATE:
    ________________________


Run:   5 / 20
Time taken for this run:   0.021s

DOCKED: MODEL        5
DOCKED: USER    Run = 5
DOCKED: USER
DOCKED: USER    Estimated Free Energy of Binding    =  -8.36 kcal/mol  [=(1)+(2)+(3)-(4)]
DOCKED: USER
DOCKED: USER    (1) Final Intermolecular Energy     =  -9.26 kcal/mol
DOCKED: USER        vdW + Hbond + desolv Energy     =  -9.17 kcal/mol
DOCKED: USER        Electrostatic Energy            =  -0.09 kcal/mol
DOCKED: USER        Moving Ligand-Fixed Receptor    =  -9.26 kcal/mol
DOCKED: USER        Moving Ligand-Moving Receptor   =  +0.00 kcal/mol
DOCKED: USER    (2) Final Total Internal Energy     =  -0.90 kcal/mol
DOCKED: USER    (3) Torsional Free Energy           =  +0.89 kcal/mol
DOCKED: USER    (4) Unbound System's Energy         =  -0.90 kcal/mol
DOCKED: USER
DOCKED: USER
DOCKED: REMARK SMILES C[C@@H](NC(=O)c1ccc2ccccc2n1)c1ccc2[nH]ccc2c1
DOCKED: REMARK SMILES IDX 1 1 2 2 3 3 4 4 5 6 6 7 7 8 15 9 8 10 14 11 9 12 13 13 10 14
DOCKED: REMARK SMILES IDX 12 15 11 16 16 17 17 18 24 19 18 20 23 21 19 22 22 23 20 24
DOCKED: REMARK SMILES IDX 21 25
DOCKED: REMARK H PARENT 3 5 20 26
DOCKED: USER                              x       y       z     vdW  Elec       q    Type
DOCKED: USER                           _______ _______ _______ _____ _____    ______ ____
DOCKED: ROOT
DOCKED: ATOM      1  C   UNL     1     137.601  70.966 223.526 -0.22 -0.01    +0.036 C  
DOCKED: ATOM      2  C   UNL     1     139.129  70.951 223.419 -0.27 -0.02    +0.109 C  
DOCKED: ENDROOT
DOCKED: BRANCH   2   3
DOCKED: ATOM      3  N   UNL     1     139.621  72.248 222.940 -0.16 +0.08    -0.344 N  
DOCKED: ATOM      4  C   UNL     1     140.631  72.356 221.923 -0.19 -0.03    +0.270 C  
DOCKED: ATOM      5  H   UNL     1     139.227  73.125 223.350 -0.43 -0.08    +0.164 HD 
DOCKED: ATOM      6  O   UNL     1     141.159  71.312 221.450 -0.12 +0.03    -0.267 OA 
DOCKED: BRANCH   4   7
DOCKED: ATOM      7  C   UNL     1     141.061  73.684 221.428 -0.24 -0.01    +0.128 A  
DOCKED: ATOM      8  C   UNL     1     141.906  73.800 220.311 -0.22 -0.01    +0.035 A  
DOCKED: ATOM      9  N   UNL     1     140.631  74.811 222.060 -0.61 +0.01    -0.243 NA 
DOCKED: ATOM     10  C   UNL     1     142.294  75.065 219.863 -0.26 -0.00    +0.013 A  
DOCKED: ATOM     11  C   UNL     1     140.992  76.056 221.648 -0.33 -0.02    +0.071 A  
DOCKED: ATOM     12  C   UNL     1     141.840  76.209 220.530 -0.28 -0.00    +0.000 A  
DOCKED: ATOM     13  C   UNL     1     140.526  77.185 222.330 -0.41 -0.01    +0.029 A  
DOCKED: ATOM     14  C   UNL     1     142.211  77.495 220.108 -0.32 -0.01    +0.010 A  
DOCKED: ATOM     15  C   UNL     1     140.899  78.463 221.903 -0.37 -0.00    +0.002 A  
DOCKED: ATOM     16  C   UNL     1     141.739  78.618 220.796 -0.33 -0.00    +0.001 A  
DOCKED: ENDBRANCH   4   7
DOCKED: ENDBRANCH   2   3
DOCKED: BRANCH   2  17
DOCKED: ATOM     17  C   UNL     1     139.760  70.596 224.752 -0.42 +0.00    -0.025 A  
DOCKED: ATOM     18  C   UNL     1     140.485  71.569 225.495 -0.53 -0.00    +0.008 A  
DOCKED: ATOM     19  C   UNL     1     139.628  69.286 225.269 -0.41 -0.00    +0.016 A  
DOCKED: ATOM     20  C   UNL     1     141.069  71.243 226.732 -0.68 -0.00    +0.027 A  
DOCKED: ATOM     21  C   UNL     1     140.219  68.999 226.497 -0.56 +0.00    -0.000 A  
DOCKED: ATOM     22  C   UNL     1     140.915  69.942 227.203 -0.54 -0.01    +0.045 A  
DOCKED: ATOM     23  C   UNL     1     140.251  67.832 227.226 -0.62 -0.01    +0.028 A  
DOCKED: ATOM     24  N   UNL     1     141.388  69.427 228.350 -0.17 +0.08    -0.361 N  
DOCKED: ATOM     25  C   UNL     1     140.984  68.136 228.368 -0.58 -0.02    +0.083 A  
DOCKED: ATOM     26  H   UNL     1     141.952  69.918 229.079 +0.09 -0.04    +0.166 HD 
DOCKED: ENDBRANCH   2  17
DOCKED: TORSDOF 3
DOCKED: TER
DOCKED: ENDMDL
________________________________________________________________________________


    FINAL DOCKED STATE:
    ________________________


Run:   6 / 20
Time taken for this run:   0.021s

DOCKED: MODEL        6
DOCKED: USER    Run = 6
DOCKED: USER
DOCKED: USER    Estimated Free Energy of Binding    =  -8.37 kcal/mol  [=(1)+(2)+(3)-(4)]
DOCKED: USER
DOCKED: USER    (1) Final Intermolecular Energy     =  -9.26 kcal/mol
DOCKED: USER        vdW + Hbond + desolv Energy     =  -9.17 kcal/mol
DOCKED: USER        Electrostatic Energy            =  -0.09 kcal/mol
DOCKED: USER        Moving Ligand-Fixed Receptor    =  -9.26 kcal/mol
DOCKED: USER        Moving Ligand-Moving Receptor   =  +0.00 kcal/mol
DOCKED: USER    (2) Final Total Internal Energy     =  -0.90 kcal/mol
DOCKED: USER    (3) Torsional Free Energy           =  +0.89 kcal/mol
DOCKED: USER    (4) Unbound System's Energy         =  -0.90 kcal/mol
DOCKED: USER
DOCKED: USER
DOCKED: REMARK SMILES C[C@@H](NC(=O)c1ccc2ccccc2n1)c1ccc2[nH]ccc2c1
DOCKED: REMARK SMILES IDX 1 1 2 2 3 3 4 4 5 6 6 7 7 8 15 9 8 10 14 11 9 12 13 13 10 14
DOCKED: REMARK SMILES IDX 12 15 11 16 16 17 17 18 24 19 18 20 23 21 19 22 22 23 20 24
DOCKED: REMARK SMILES IDX 21 25
DOCKED: REMARK H PARENT 3 5 20 26
DOCKED: USER                              x       y       z     vdW  Elec       q    Type
DOCKED: USER                           _______ _______ _______ _____ _____    ______ ____
DOCKED: ROOT
DOCKED: ATOM      1  C   UNL     1     137.636  70.951 223.554 -0.22 -0.01    +0.036 C  
DOCKED: ATOM      2  C   UNL     1     139.165  70.940 223.444 -0.27 -0.02    +0.109 C  
DOCKED: ENDROOT
DOCKED: BRANCH   2   3
DOCKED: ATOM      3  N   UNL     1     139.652  72.237 222.962 -0.16 +0.07    -0.344 N  
DOCKED: ATOM      4  C   UNL     1     140.636  72.346 221.919 -0.19 -0.03    +0.270 C  
DOCKED: ATOM      5  H   UNL     1     139.275  73.113 223.388 -0.42 -0.08    +0.164 HD 
DOCKED: ATOM      6  O   UNL     1     141.144  71.303 221.425 -0.12 +0.03    -0.267 OA 
DOCKED: BRANCH   4   7
DOCKED: ATOM      7  C   UNL     1     141.061  73.675 221.423 -0.24 -0.01    +0.128 A  
DOCKED: ATOM      8  C   UNL     1     141.910  73.793 220.309 -0.22 -0.01    +0.035 A  
DOCKED: ATOM      9  N   UNL     1     140.623  74.802 222.050 -0.62 +0.01    -0.243 NA 
DOCKED: ATOM     10  C   UNL     1     142.294  75.059 219.860 -0.26 -0.00    +0.013 A  
DOCKED: ATOM     11  C   UNL     1     140.980  76.047 221.637 -0.33 -0.02    +0.071 A  
DOCKED: ATOM     12  C   UNL     1     141.832  76.202 220.523 -0.28 -0.00    +0.000 A  
DOCKED: ATOM     13  C   UNL     1     140.504  77.176 222.315 -0.41 -0.01    +0.029 A  
DOCKED: ATOM     14  C   UNL     1     142.197  77.489 220.099 -0.32 -0.01    +0.010 A  
DOCKED: ATOM     15  C   UNL     1     140.873  78.455 221.886 -0.36 -0.00    +0.002 A  
DOCKED: ATOM     16  C   UNL     1     141.717  78.611 220.783 -0.33 -0.00    +0.001 A  
DOCKED: ENDBRANCH   4   7
DOCKED: ENDBRANCH   2   3
DOCKED: BRANCH   2  17
DOCKED: ATOM     17  C   UNL     1     139.799  70.588 224.776 -0.43 +0.00    -0.025 A  
DOCKED: ATOM     18  C   UNL     1     140.521  71.565 225.517 -0.54 -0.00    +0.008 A  
DOCKED: ATOM     19  C   UNL     1     139.673  69.278 225.294 -0.41 -0.00    +0.016 A  
DOCKED: ATOM     20  C   UNL     1     141.109  71.242 226.753 -0.67 -0.00    +0.027 A  
DOCKED: ATOM     21  C   UNL     1     140.268  68.995 226.521 -0.57 +0.00    -0.000 A  
DOCKED: ATOM     22  C   UNL     1     140.961  69.941 227.226 -0.54 -0.01    +0.045 A  
DOCKED: ATOM     23  C   UNL     1     140.306  67.827 227.251 -0.62 -0.01    +0.028 A  
DOCKED: ATOM     24  N   UNL     1     141.439  69.429 228.372 -0.16 +0.08    -0.361 N  
DOCKED: ATOM     25  C   UNL     1     141.040  68.136 228.392 -0.58 -0.02    +0.083 A  
DOCKED: ATOM     26  H   UNL     1     142.001  69.923 229.099 +0.09 -0.04    +0.166 HD 
DOCKED: ENDBRANCH   2  17
DOCKED: TORSDOF 3
DOCKED: TER
DOCKED: ENDMDL
________________________________________________________________________________


    FINAL DOCKED STATE:
    ________________________


Run:   7 / 20
Time taken for this run:   0.021s

DOCKED: MODEL        7
DOCKED: USER    Run = 7
DOCKED: USER
DOCKED: USER    Estimated Free Energy of Binding    =  -8.37 kcal/mol  [=(1)+(2)+(3)-(4)]
DOCKED: USER
DOCKED: USER    (1) Final Intermolecular Energy     =  -9.26 kcal/mol
DOCKED: USER        vdW + Hbond + desolv Energy     =  -9.18 kcal/mol
DOCKED: USER        Electrostatic Energy            =  -0.09 kcal/mol
DOCKED: USER        Moving Ligand-Fixed Receptor    =  -9.26 kcal/mol
DOCKED: USER        Moving Ligand-Moving Receptor   =  +0.00 kcal/mol
DOCKED: USER    (2) Final Total Internal Energy     =  -0.90 kcal/mol
DOCKED: USER    (3) Torsional Free Energy           =  +0.89 kcal/mol
DOCKED: USER    (4) Unbound System's Energy         =  -0.90 kcal/mol
DOCKED: USER
DOCKED: USER
DOCKED: REMARK SMILES C[C@@H](NC(=O)c1ccc2ccccc2n1)c1ccc2[nH]ccc2c1
DOCKED: REMARK SMILES IDX 1 1 2 2 3 3 4 4 5 6 6 7 7 8 15 9 8 10 14 11 9 12 13 13 10 14
DOCKED: REMARK SMILES IDX 12 15 11 16 16 17 17 18 24 19 18 20 23 21 19 22 22 23 20 24
DOCKED: REMARK SMILES IDX 21 25
DOCKED: REMARK H PARENT 3 5 20 26
DOCKED: USER                              x       y       z     vdW  Elec       q    Type
DOCKED: USER                           _______ _______ _______ _____ _____    ______ ____
DOCKED: ROOT
DOCKED: ATOM      1  C   UNL     1     137.594  70.942 223.486 -0.22 -0.01    +0.036 C  
DOCKED: ATOM      2  C   UNL     1     139.123  70.936 223.390 -0.27 -0.02    +0.109 C  
DOCKED: ENDROOT
DOCKED: BRANCH   2   3
DOCKED: ATOM      3  N   UNL     1     139.612  72.236 222.915 -0.16 +0.08    -0.344 N  
DOCKED: ATOM      4  C   UNL     1     140.626  72.350 221.904 -0.19 -0.03    +0.270 C  
DOCKED: ATOM      5  H   UNL     1     139.211  73.111 223.324 -0.43 -0.08    +0.164 HD 
DOCKED: ATOM      6  O   UNL     1     141.162  71.310 221.433 -0.12 +0.03    -0.267 OA 
DOCKED: BRANCH   4   7
DOCKED: ATOM      7  C   UNL     1     141.052  73.680 221.412 -0.24 -0.01    +0.128 A  
DOCKED: ATOM      8  C   UNL     1     141.904  73.802 220.300 -0.22 -0.01    +0.035 A  
DOCKED: ATOM      9  N   UNL     1     140.613  74.805 222.042 -0.62 +0.01    -0.243 NA 
DOCKED: ATOM     10  C   UNL     1     142.288  75.069 219.856 -0.26 -0.00    +0.013 A  
DOCKED: ATOM     11  C   UNL     1     140.970  76.052 221.633 -0.33 -0.02    +0.071 A  
DOCKED: ATOM     12  C   UNL     1     141.824  76.210 220.521 -0.28 -0.00    +0.000 A  
DOCKED: ATOM     13  C   UNL     1     140.493  77.178 222.314 -0.41 -0.01    +0.029 A  
DOCKED: ATOM     14  C   UNL     1     142.190  77.499 220.102 -0.32 -0.01    +0.010 A  
DOCKED: ATOM     15  C   UNL     1     140.863  78.459 221.890 -0.36 -0.00    +0.002 A  
DOCKED: ATOM     16  C   UNL     1     141.709  78.619 220.788 -0.33 -0.00    +0.001 A  
DOCKED: ENDBRANCH   4   7
DOCKED: ENDBRANCH   2   3
DOCKED: BRANCH   2  17
DOCKED: ATOM     17  C   UNL     1     139.746  70.585 224.728 -0.42 +0.00    -0.025 A  
DOCKED: ATOM     18  C   UNL     1     140.499  71.549 225.455 -0.54 -0.00    +0.008 A  
DOCKED: ATOM     19  C   UNL     1     139.578  69.287 225.265 -0.41 -0.00    +0.016 A  
DOCKED: ATOM     20  C   UNL     1     141.076  71.225 226.696 -0.67 -0.00    +0.027 A  
DOCKED: ATOM     21  C   UNL     1     140.164  69.003 226.497 -0.56 +0.00    -0.000 A  
DOCKED: ATOM     22  C   UNL     1     140.886  69.937 227.188 -0.54 -0.01    +0.045 A  
DOCKED: ATOM     23  C   UNL     1     140.163  67.846 227.244 -0.61 -0.01    +0.028 A  
DOCKED: ATOM     24  N   UNL     1     141.347  69.427 228.342 -0.18 +0.08    -0.361 N  
DOCKED: ATOM     25  C   UNL     1     140.907  68.148 228.380 -0.58 -0.02    +0.083 A  
DOCKED: ATOM     26  H   UNL     1     141.925  69.913 229.062 +0.09 -0.04    +0.166 HD 
DOCKED: ENDBRANCH   2  17
DOCKED: TORSDOF 3
DOCKED: TER
DOCKED: ENDMDL
________________________________________________________________________________


    FINAL DOCKED STATE:
    ________________________


Run:   8 / 20
Time taken for this run:   0.021s

DOCKED: MODEL        8
DOCKED: USER    Run = 8
DOCKED: USER
DOCKED: USER    Estimated Free Energy of Binding    =  -8.37 kcal/mol  [=(1)+(2)+(3)-(4)]
DOCKED: USER
DOCKED: USER    (1) Final Intermolecular Energy     =  -9.26 kcal/mol
DOCKED: USER        vdW + Hbond + desolv Energy     =  -9.18 kcal/mol
DOCKED: USER        Electrostatic Energy            =  -0.09 kcal/mol
DOCKED: USER        Moving Ligand-Fixed Receptor    =  -9.26 kcal/mol
DOCKED: USER        Moving Ligand-Moving Receptor   =  +0.00 kcal/mol
DOCKED: USER    (2) Final Total Internal Energy     =  -0.90 kcal/mol
DOCKED: USER    (3) Torsional Free Energy           =  +0.89 kcal/mol
DOCKED: USER    (4) Unbound System's Energy         =  -0.90 kcal/mol
DOCKED: USER
DOCKED: USER
DOCKED: REMARK SMILES C[C@@H](NC(=O)c1ccc2ccccc2n1)c1ccc2[nH]ccc2c1
DOCKED: REMARK SMILES IDX 1 1 2 2 3 3 4 4 5 6 6 7 7 8 15 9 8 10 14 11 9 12 13 13 10 14
DOCKED: REMARK SMILES IDX 12 15 11 16 16 17 17 18 24 19 18 20 23 21 19 22 22 23 20 24
DOCKED: REMARK SMILES IDX 21 25
DOCKED: REMARK H PARENT 3 5 20 26
DOCKED: USER                              x       y       z     vdW  Elec       q    Type
DOCKED: USER                           _______ _______ _______ _____ _____    ______ ____
DOCKED: ROOT
DOCKED: ATOM      1  C   UNL     1     137.620  70.951 223.469 -0.22 -0.01    +0.036 C  
DOCKED: ATOM      2  C   UNL     1     139.151  70.947 223.385 -0.27 -0.02    +0.109 C  
DOCKED: ENDROOT
DOCKED: BRANCH   2   3
DOCKED: ATOM      3  N   UNL     1     139.641  72.249 222.917 -0.16 +0.07    -0.344 N  
DOCKED: ATOM      4  C   UNL     1     140.633  72.368 221.884 -0.19 -0.03    +0.270 C  
DOCKED: ATOM      5  H   UNL     1     139.258  73.121 223.347 -0.42 -0.08    +0.164 HD 
DOCKED: ATOM      6  O   UNL     1     141.148  71.329 221.387 -0.12 +0.03    -0.267 OA 
DOCKED: BRANCH   4   7
DOCKED: ATOM      7  C   UNL     1     141.060  73.701 221.401 -0.24 -0.01    +0.128 A  
DOCKED: ATOM      8  C   UNL     1     141.910  73.829 220.289 -0.22 -0.01    +0.035 A  
DOCKED: ATOM      9  N   UNL     1     140.624  74.822 222.041 -0.62 +0.01    -0.243 NA 
DOCKED: ATOM     10  C   UNL     1     142.295  75.098 219.853 -0.26 -0.01    +0.013 A  
DOCKED: ATOM     11  C   UNL     1     140.983  76.070 221.640 -0.33 -0.02    +0.071 A  
DOCKED: ATOM     12  C   UNL     1     141.835  76.236 220.527 -0.28 -0.00    +0.000 A  
DOCKED: ATOM     13  C   UNL     1     140.510  77.193 222.330 -0.41 -0.01    +0.029 A  
DOCKED: ATOM     14  C   UNL     1     142.203  77.526 220.116 -0.32 -0.01    +0.010 A  
DOCKED: ATOM     15  C   UNL     1     140.881  78.475 221.914 -0.37 -0.00    +0.002 A  
DOCKED: ATOM     16  C   UNL     1     141.725  78.642 220.812 -0.33 -0.00    +0.001 A  
DOCKED: ENDBRANCH   4   7
DOCKED: ENDBRANCH   2   3
DOCKED: BRANCH   2  17
DOCKED: ATOM     17  C   UNL     1     139.764  70.593 224.727 -0.42 +0.00    -0.025 A  
DOCKED: ATOM     18  C   UNL     1     140.509  71.557 225.462 -0.54 -0.00    +0.008 A  
DOCKED: ATOM     19  C   UNL     1     139.594  69.294 225.259 -0.41 -0.00    +0.016 A  
DOCKED: ATOM     20  C   UNL     1     141.077  71.231 226.707 -0.67 -0.00    +0.027 A  
DOCKED: ATOM     21  C   UNL     1     140.171  69.008 226.494 -0.56 +0.00    -0.000 A  
DOCKED: ATOM     22  C   UNL     1     140.886  69.941 227.194 -0.54 -0.01    +0.045 A  
DOCKED: ATOM     23  C   UNL     1     140.168  67.849 227.238 -0.62 -0.01    +0.028 A  
DOCKED: ATOM     24  N   UNL     1     141.339  69.429 228.350 -0.18 +0.08    -0.361 N  
DOCKED: ATOM     25  C   UNL     1     140.901  68.149 228.381 -0.58 -0.02    +0.083 A  
DOCKED: ATOM     26  H   UNL     1     141.910  69.915 229.076 +0.09 -0.04    +0.166 HD 
DOCKED: ENDBRANCH   2  17
DOCKED: TORSDOF 3
DOCKED: TER
DOCKED: ENDMDL
________________________________________________________________________________


    FINAL DOCKED STATE:
    ________________________


Run:   9 / 20
Time taken for this run:   0.021s

DOCKED: MODEL        9
DOCKED: USER    Run = 9
DOCKED: USER
DOCKED: USER    Estimated Free Energy of Binding    =  -8.37 kcal/mol  [=(1)+(2)+(3)-(4)]
DOCKED: USER
DOCKED: USER    (1) Final Intermolecular Energy     =  -9.26 kcal/mol
DOCKED: USER        vdW + Hbond + desolv Energy     =  -9.18 kcal/mol
DOCKED: USER        Electrostatic Energy            =  -0.09 kcal/mol
DOCKED: USER        Moving Ligand-Fixed Receptor    =  -9.26 kcal/mol
DOCKED: USER        Moving Ligand-Moving Receptor   =  +0.00 kcal/mol
DOCKED: USER    (2) Final Total Internal Energy     =  -0.90 kcal/mol
DOCKED: USER    (3) Torsional Free Energy           =  +0.89 kcal/mol
DOCKED: USER    (4) Unbound System's Energy         =  -0.90 kcal/mol
DOCKED: USER
DOCKED: USER
DOCKED: REMARK SMILES C[C@@H](NC(=O)c1ccc2ccccc2n1)c1ccc2[nH]ccc2c1
DOCKED: REMARK SMILES IDX 1 1 2 2 3 3 4 4 5 6 6 7 7 8 15 9 8 10 14 11 9 12 13 13 10 14
DOCKED: REMARK SMILES IDX 12 15 11 16 16 17 17 18 24 19 18 20 23 21 19 22 22 23 20 24
DOCKED: REMARK SMILES IDX 21 25
DOCKED: REMARK H PARENT 3 5 20 26
DOCKED: USER                              x       y       z     vdW  Elec       q    Type
DOCKED: USER                           _______ _______ _______ _____ _____    ______ ____
DOCKED: ROOT
DOCKED: ATOM      1  C   UNL     1     137.605  70.940 223.449 -0.21 -0.01    +0.036 C  
DOCKED: ATOM      2  C   UNL     1     139.135  70.936 223.366 -0.27 -0.02    +0.109 C  
DOCKED: ENDROOT
DOCKED: BRANCH   2   3
DOCKED: ATOM      3  N   UNL     1     139.627  72.238 222.901 -0.16 +0.07    -0.344 N  
DOCKED: ATOM      4  C   UNL     1     140.627  72.357 221.875 -0.19 -0.03    +0.270 C  
DOCKED: ATOM      5  H   UNL     1     139.239  73.110 223.326 -0.43 -0.08    +0.164 HD 
DOCKED: ATOM      6  O   UNL     1     141.146  71.318 221.382 -0.12 +0.03    -0.267 OA 
DOCKED: BRANCH   4   7
DOCKED: ATOM      7  C   UNL     1     141.055  73.690 221.393 -0.24 -0.01    +0.128 A  
DOCKED: ATOM      8  C   UNL     1     141.910  73.818 220.285 -0.22 -0.01    +0.035 A  
DOCKED: ATOM      9  N   UNL     1     140.615  74.811 222.030 -0.63 +0.01    -0.243 NA 
DOCKED: ATOM     10  C   UNL     1     142.297  75.088 219.851 -0.26 -0.01    +0.013 A  
DOCKED: ATOM     11  C   UNL     1     140.975  76.060 221.631 -0.33 -0.02    +0.071 A  
DOCKED: ATOM     12  C   UNL     1     141.832  76.225 220.522 -0.28 -0.00    +0.000 A  
DOCKED: ATOM     13  C   UNL     1     140.497  77.182 222.318 -0.41 -0.01    +0.029 A  
DOCKED: ATOM     14  C   UNL     1     142.201  77.516 220.113 -0.32 -0.01    +0.010 A  
DOCKED: ATOM     15  C   UNL     1     140.869  78.465 221.904 -0.36 -0.00    +0.002 A  
DOCKED: ATOM     16  C   UNL     1     141.719  78.632 220.806 -0.33 -0.00    +0.001 A  
DOCKED: ENDBRANCH   4   7
DOCKED: ENDBRANCH   2   3
DOCKED: BRANCH   2  17
DOCKED: ATOM     17  C   UNL     1     139.747  70.579 224.708 -0.42 +0.00    -0.025 A  
DOCKED: ATOM     18  C   UNL     1     140.505  71.537 225.438 -0.54 -0.00    +0.008 A  
DOCKED: ATOM     19  C   UNL     1     139.563  69.284 225.245 -0.41 -0.00    +0.016 A  
DOCKED: ATOM     20  C   UNL     1     141.071  71.209 226.683 -0.67 -0.00    +0.027 A  
DOCKED: ATOM     21  C   UNL     1     140.139  68.996 226.480 -0.56 +0.00    -0.000 A  
DOCKED: ATOM     22  C   UNL     1     140.867  69.923 227.175 -0.54 -0.01    +0.045 A  
DOCKED: ATOM     23  C   UNL     1     140.123  67.839 227.229 -0.62 -0.01    +0.028 A  
DOCKED: ATOM     24  N   UNL     1     141.316  69.410 228.332 -0.18 +0.08    -0.361 N  
DOCKED: ATOM     25  C   UNL     1     140.863  68.135 228.369 -0.57 -0.02    +0.083 A  
DOCKED: ATOM     26  H   UNL     1     141.894  69.892 229.055 +0.09 -0.04    +0.166 HD 
DOCKED: ENDBRANCH   2  17
DOCKED: TORSDOF 3
DOCKED: TER
DOCKED: ENDMDL
________________________________________________________________________________


    FINAL DOCKED STATE:
    ________________________


Run:   10 / 20
Time taken for this run:   0.021s

DOCKED: MODEL        10
DOCKED: USER    Run = 10
DOCKED: USER
DOCKED: USER    Estimated Free Energy of Binding    =  -8.37 kcal/mol  [=(1)+(2)+(3)-(4)]
DOCKED: USER
DOCKED: USER    (1) Final Intermolecular Energy     =  -9.27 kcal/mol
DOCKED: USER        vdW + Hbond + desolv Energy     =  -9.18 kcal/mol
DOCKED: USER        Electrostatic Energy            =  -0.08 kcal/mol
DOCKED: USER        Moving Ligand-Fixed Receptor    =  -9.27 kcal/mol
DOCKED: USER        Moving Ligand-Moving Receptor   =  +0.00 kcal/mol
DOCKED: USER    (2) Final Total Internal Energy     =  -0.90 kcal/mol
DOCKED: USER    (3) Torsional Free Energy           =  +0.89 kcal/mol
DOCKED: USER    (4) Unbound System's Energy         =  -0.90 kcal/mol
DOCKED: USER
DOCKED: USER
DOCKED: REMARK SMILES C[C@@H](NC(=O)c1ccc2ccccc2n1)c1ccc2[nH]ccc2c1
DOCKED: REMARK SMILES IDX 1 1 2 2 3 3 4 4 5 6 6 7 7 8 15 9 8 10 14 11 9 12 13 13 10 14
DOCKED: REMARK SMILES IDX 12 15 11 16 16 17 17 18 24 19 18 20 23 21 19 22 22 23 20 24
DOCKED: REMARK SMILES IDX 21 25
DOCKED: REMARK H PARENT 3 5 20 26
DOCKED: USER                              x       y       z     vdW  Elec       q    Type
DOCKED: USER                           _______ _______ _______ _____ _____    ______ ____
DOCKED: ROOT
DOCKED: ATOM      1  C   UNL     1     137.642  70.956 223.512 -0.22 -0.01    +0.036 C  
DOCKED: ATOM      2  C   UNL     1     139.172  70.948 223.416 -0.27 -0.02    +0.109 C  
DOCKED: ENDROOT
DOCKED: BRANCH   2   3
DOCKED: ATOM      3  N   UNL     1     139.662  72.247 222.940 -0.16 +0.07    -0.344 N  
DOCKED: ATOM      4  C   UNL     1     140.629  72.360 221.883 -0.19 -0.03    +0.270 C  
DOCKED: ATOM      5  H   UNL     1     139.299  73.121 223.383 -0.42 -0.08    +0.164 HD 
DOCKED: ATOM      6  O   UNL     1     141.121  71.318 221.369 -0.12 +0.03    -0.267 OA 
DOCKED: BRANCH   4   7
DOCKED: ATOM      7  C   UNL     1     141.057  73.690 221.394 -0.24 -0.01    +0.128 A  
DOCKED: ATOM      8  C   UNL     1     141.907  73.813 220.281 -0.22 -0.01    +0.035 A  
DOCKED: ATOM      9  N   UNL     1     140.620  74.814 222.027 -0.63 +0.01    -0.243 NA 
DOCKED: ATOM     10  C   UNL     1     142.293  75.081 219.839 -0.26 -0.00    +0.013 A  
DOCKED: ATOM     11  C   UNL     1     140.979  76.061 221.621 -0.33 -0.02    +0.071 A  
DOCKED: ATOM     12  C   UNL     1     141.832  76.221 220.508 -0.28 -0.00    +0.000 A  
DOCKED: ATOM     13  C   UNL     1     140.505  77.187 222.304 -0.41 -0.01    +0.029 A  
DOCKED: ATOM     14  C   UNL     1     142.200  77.509 220.091 -0.32 -0.01    +0.010 A  
DOCKED: ATOM     15  C   UNL     1     140.877  78.467 221.883 -0.36 -0.00    +0.002 A  
DOCKED: ATOM     16  C   UNL     1     141.721  78.629 220.781 -0.33 -0.00    +0.001 A  
DOCKED: ENDBRANCH   4   7
DOCKED: ENDBRANCH   2   3
DOCKED: BRANCH   2  17
DOCKED: ATOM     17  C   UNL     1     139.795  70.596 224.754 -0.42 +0.00    -0.025 A  
DOCKED: ATOM     18  C   UNL     1     140.517  71.570 225.498 -0.53 -0.00    +0.008 A  
DOCKED: ATOM     19  C   UNL     1     139.657  69.288 225.274 -0.41 -0.00    +0.016 A  
DOCKED: ATOM     20  C   UNL     1     141.093  71.247 226.739 -0.67 -0.00    +0.027 A  
DOCKED: ATOM     21  C   UNL     1     140.241  69.004 226.506 -0.56 +0.00    -0.000 A  
DOCKED: ATOM     22  C   UNL     1     140.934  69.948 227.214 -0.54 -0.01    +0.045 A  
DOCKED: ATOM     23  C   UNL     1     140.267  67.838 227.239 -0.62 -0.01    +0.028 A  
DOCKED: ATOM     24  N   UNL     1     141.400  69.436 228.365 -0.17 +0.08    -0.361 N  
DOCKED: ATOM     25  C   UNL     1     140.994  68.145 228.385 -0.58 -0.02    +0.083 A  
DOCKED: ATOM     26  H   UNL     1     141.960  69.928 229.095 +0.09 -0.04    +0.166 HD 
DOCKED: ENDBRANCH   2  17
DOCKED: TORSDOF 3
DOCKED: TER
DOCKED: ENDMDL
________________________________________________________________________________


    FINAL DOCKED STATE:
    ________________________


Run:   11 / 20
Time taken for this run:   0.021s

DOCKED: MODEL        11
DOCKED: USER    Run = 11
DOCKED: USER
DOCKED: USER    Estimated Free Energy of Binding    =  -8.37 kcal/mol  [=(1)+(2)+(3)-(4)]
DOCKED: USER
DOCKED: USER    (1) Final Intermolecular Energy     =  -9.27 kcal/mol
DOCKED: USER        vdW + Hbond + desolv Energy     =  -9.18 kcal/mol
DOCKED: USER        Electrostatic Energy            =  -0.09 kcal/mol
DOCKED: USER        Moving Ligand-Fixed Receptor    =  -9.27 kcal/mol
DOCKED: USER        Moving Ligand-Moving Receptor   =  +0.00 kcal/mol
DOCKED: USER    (2) Final Total Internal Energy     =  -0.91 kcal/mol
DOCKED: USER    (3) Torsional Free Energy           =  +0.89 kcal/mol
DOCKED: USER    (4) Unbound System's Energy         =  -0.91 kcal/mol
DOCKED: USER
DOCKED: USER
DOCKED: REMARK SMILES C[C@@H](NC(=O)c1ccc2ccccc2n1)c1ccc2[nH]ccc2c1
DOCKED: REMARK SMILES IDX 1 1 2 2 3 3 4 4 5 6 6 7 7 8 15 9 8 10 14 11 9 12 13 13 10 14
DOCKED: REMARK SMILES IDX 12 15 11 16 16 17 17 18 24 19 18 20 23 21 19 22 22 23 20 24
DOCKED: REMARK SMILES IDX 21 25
DOCKED: REMARK H PARENT 3 5 20 26
DOCKED: USER                              x       y       z     vdW  Elec       q    Type
DOCKED: USER                           _______ _______ _______ _____ _____    ______ ____
DOCKED: ROOT
DOCKED: ATOM      1  C   UNL     1     137.588  70.965 223.510 -0.22 -0.01    +0.036 C  
DOCKED: ATOM      2  C   UNL     1     139.117  70.952 223.404 -0.27 -0.02    +0.109 C  
DOCKED: ENDROOT
DOCKED: BRANCH   2   3
DOCKED: ATOM      3  N   UNL     1     139.607  72.250 222.927 -0.16 +0.08    -0.344 N  
DOCKED: ATOM      4  C   UNL     1     140.618  72.361 221.911 -0.19 -0.03    +0.270 C  
DOCKED: ATOM      5  H   UNL     1     139.211  73.126 223.337 -0.43 -0.08    +0.164 HD 
DOCKED: ATOM      6  O   UNL     1     141.148  71.318 221.438 -0.12 +0.03    -0.267 OA 
DOCKED: BRANCH   4   7
DOCKED: ATOM      7  C   UNL     1     141.046  73.690 221.417 -0.24 -0.01    +0.128 A  
DOCKED: ATOM      8  C   UNL     1     141.901  73.808 220.307 -0.22 -0.01    +0.035 A  
DOCKED: ATOM      9  N   UNL     1     140.605  74.816 222.043 -0.62 +0.01    -0.243 NA 
DOCKED: ATOM     10  C   UNL     1     142.288  75.074 219.861 -0.26 -0.00    +0.013 A  
DOCKED: ATOM     11  C   UNL     1     140.965  76.061 221.632 -0.33 -0.02    +0.071 A  
DOCKED: ATOM     12  C   UNL     1     141.822  76.217 220.522 -0.28 -0.00    +0.000 A  
DOCKED: ATOM     13  C   UNL     1     140.486  77.190 222.308 -0.41 -0.01    +0.029 A  
DOCKED: ATOM     14  C   UNL     1     142.191  77.504 220.100 -0.32 -0.01    +0.010 A  
DOCKED: ATOM     15  C   UNL     1     140.858  78.469 221.882 -0.36 -0.00    +0.002 A  
DOCKED: ATOM     16  C   UNL     1     141.707  78.626 220.782 -0.33 -0.00    +0.001 A  
DOCKED: ENDBRANCH   4   7
DOCKED: ENDBRANCH   2   3
DOCKED: BRANCH   2  17
DOCKED: ATOM     17  C   UNL     1     139.747  70.597 224.737 -0.42 +0.00    -0.025 A  
DOCKED: ATOM     18  C   UNL     1     140.485  71.566 225.473 -0.53 -0.00    +0.008 A  
DOCKED: ATOM     19  C   UNL     1     139.601  69.292 225.262 -0.41 -0.00    +0.016 A  
DOCKED: ATOM     20  C   UNL     1     141.069  71.239 226.710 -0.68 -0.00    +0.027 A  
DOCKED: ATOM     21  C   UNL     1     140.192  69.005 226.489 -0.56 +0.00    -0.000 A  
DOCKED: ATOM     22  C   UNL     1     140.901  69.943 227.189 -0.54 -0.01    +0.045 A  
DOCKED: ATOM     23  C   UNL     1     140.212  67.840 227.225 -0.62 -0.01    +0.028 A  
DOCKED: ATOM     24  N   UNL     1     141.371  69.428 228.337 -0.17 +0.08    -0.361 N  
DOCKED: ATOM     25  C   UNL     1     140.952  68.143 228.363 -0.58 -0.02    +0.083 A  
DOCKED: ATOM     26  H   UNL     1     141.943  69.917 229.062 +0.09 -0.04    +0.166 HD 
DOCKED: ENDBRANCH   2  17
DOCKED: TORSDOF 3
DOCKED: TER
DOCKED: ENDMDL
________________________________________________________________________________


    FINAL DOCKED STATE:
    ________________________


Run:   12 / 20
Time taken for this run:   0.021s

DOCKED: MODEL        12
DOCKED: USER    Run = 12
DOCKED: USER
DOCKED: USER    Estimated Free Energy of Binding    =  -8.37 kcal/mol  [=(1)+(2)+(3)-(4)]
DOCKED: USER
DOCKED: USER    (1) Final Intermolecular Energy     =  -9.27 kcal/mol
DOCKED: USER        vdW + Hbond + desolv Energy     =  -9.18 kcal/mol
DOCKED: USER        Electrostatic Energy            =  -0.09 kcal/mol
DOCKED: USER        Moving Ligand-Fixed Receptor    =  -9.27 kcal/mol
DOCKED: USER        Moving Ligand-Moving Receptor   =  +0.00 kcal/mol
DOCKED: USER    (2) Final Total Internal Energy     =  -0.90 kcal/mol
DOCKED: USER    (3) Torsional Free Energy           =  +0.89 kcal/mol
DOCKED: USER    (4) Unbound System's Energy         =  -0.90 kcal/mol
DOCKED: USER
DOCKED: USER
DOCKED: REMARK SMILES C[C@@H](NC(=O)c1ccc2ccccc2n1)c1ccc2[nH]ccc2c1
DOCKED: REMARK SMILES IDX 1 1 2 2 3 3 4 4 5 6 6 7 7 8 15 9 8 10 14 11 9 12 13 13 10 14
DOCKED: REMARK SMILES IDX 12 15 11 16 16 17 17 18 24 19 18 20 23 21 19 22 22 23 20 24
DOCKED: REMARK SMILES IDX 21 25
DOCKED: REMARK H PARENT 3 5 20 26
DOCKED: USER                              x       y       z     vdW  Elec       q    Type
DOCKED: USER                           _______ _______ _______ _____ _____    ______ ____
DOCKED: ROOT
DOCKED: ATOM      1  C   UNL     1     137.596  70.966 223.498 -0.22 -0.01    +0.036 C  
DOCKED: ATOM      2  C   UNL     1     139.125  70.952 223.395 -0.27 -0.02    +0.109 C  
DOCKED: ENDROOT
DOCKED: BRANCH   2   3
DOCKED: ATOM      3  N   UNL     1     139.618  72.250 222.921 -0.16 +0.08    -0.344 N  
DOCKED: ATOM      4  C   UNL     1     140.615  72.362 221.891 -0.19 -0.03    +0.270 C  
DOCKED: ATOM      5  H   UNL     1     139.234  73.125 223.344 -0.43 -0.08    +0.164 HD 
DOCKED: ATOM      6  O   UNL     1     141.131  71.319 221.403 -0.12 +0.03    -0.267 OA 
DOCKED: BRANCH   4   7
DOCKED: ATOM      7  C   UNL     1     141.046  73.691 221.402 -0.24 -0.01    +0.128 A  
DOCKED: ATOM      8  C   UNL     1     141.903  73.811 220.295 -0.22 -0.01    +0.035 A  
DOCKED: ATOM      9  N   UNL     1     140.604  74.817 222.030 -0.63 +0.01    -0.243 NA 
DOCKED: ATOM     10  C   UNL     1     142.292  75.078 219.853 -0.26 -0.00    +0.013 A  
DOCKED: ATOM     11  C   UNL     1     140.966  76.062 221.623 -0.33 -0.02    +0.071 A  
DOCKED: ATOM     12  C   UNL     1     141.826  76.220 220.515 -0.28 -0.00    +0.000 A  
DOCKED: ATOM     13  C   UNL     1     140.487  77.190 222.300 -0.40 -0.01    +0.029 A  
DOCKED: ATOM     14  C   UNL     1     142.197  77.507 220.098 -0.32 -0.01    +0.010 A  
DOCKED: ATOM     15  C   UNL     1     140.861  78.469 221.878 -0.36 -0.00    +0.002 A  
DOCKED: ATOM     16  C   UNL     1     141.713  78.628 220.782 -0.33 -0.00    +0.001 A  
DOCKED: ENDBRANCH   4   7
DOCKED: ENDBRANCH   2   3
DOCKED: BRANCH   2  17
DOCKED: ATOM     17  C   UNL     1     139.753  70.594 224.729 -0.42 +0.00    -0.025 A  
DOCKED: ATOM     18  C   UNL     1     140.500  71.557 225.462 -0.53 -0.00    +0.008 A  
DOCKED: ATOM     19  C   UNL     1     139.594  69.291 225.256 -0.41 -0.00    +0.016 A  
DOCKED: ATOM     20  C   UNL     1     141.081  71.227 226.700 -0.67 -0.00    +0.027 A  
DOCKED: ATOM     21  C   UNL     1     140.183  69.001 226.484 -0.56 +0.00    -0.000 A  
DOCKED: ATOM     22  C   UNL     1     140.901  69.934 227.182 -0.54 -0.01    +0.045 A  
DOCKED: ATOM     23  C   UNL     1     140.192  67.838 227.222 -0.62 -0.01    +0.028 A  
DOCKED: ATOM     24  N   UNL     1     141.367  69.417 228.331 -0.17 +0.08    -0.361 N  
DOCKED: ATOM     25  C   UNL     1     140.935  68.135 228.360 -0.58 -0.02    +0.083 A  
DOCKED: ATOM     26  H   UNL     1     141.943  69.902 229.054 +0.09 -0.04    +0.166 HD 
DOCKED: ENDBRANCH   2  17
DOCKED: TORSDOF 3
DOCKED: TER
DOCKED: ENDMDL
________________________________________________________________________________


    FINAL DOCKED STATE:
    ________________________


Run:   13 / 20
Time taken for this run:   0.021s

DOCKED: MODEL        13
DOCKED: USER    Run = 13
DOCKED: USER
DOCKED: USER    Estimated Free Energy of Binding    =  -8.36 kcal/mol  [=(1)+(2)+(3)-(4)]
DOCKED: USER
DOCKED: USER    (1) Final Intermolecular Energy     =  -9.26 kcal/mol
DOCKED: USER        vdW + Hbond + desolv Energy     =  -9.17 kcal/mol
DOCKED: USER        Electrostatic Energy            =  -0.09 kcal/mol
DOCKED: USER        Moving Ligand-Fixed Receptor    =  -9.26 kcal/mol
DOCKED: USER        Moving Ligand-Moving Receptor   =  +0.00 kcal/mol
DOCKED: USER    (2) Final Total Internal Energy     =  -0.90 kcal/mol
DOCKED: USER    (3) Torsional Free Energy           =  +0.89 kcal/mol
DOCKED: USER    (4) Unbound System's Energy         =  -0.90 kcal/mol
DOCKED: USER
DOCKED: USER
DOCKED: REMARK SMILES C[C@@H](NC(=O)c1ccc2ccccc2n1)c1ccc2[nH]ccc2c1
DOCKED: REMARK SMILES IDX 1 1 2 2 3 3 4 4 5 6 6 7 7 8 15 9 8 10 14 11 9 12 13 13 10 14
DOCKED: REMARK SMILES IDX 12 15 11 16 16 17 17 18 24 19 18 20 23 21 19 22 22 23 20 24
DOCKED: REMARK SMILES IDX 21 25
DOCKED: REMARK H PARENT 3 5 20 26
DOCKED: USER                              x       y       z     vdW  Elec       q    Type
DOCKED: USER                           _______ _______ _______ _____ _____    ______ ____
DOCKED: ROOT
DOCKED: ATOM      1  C   UNL     1     137.624  70.958 223.578 -0.22 -0.01    +0.036 C  
DOCKED: ATOM      2  C   UNL     1     139.152  70.946 223.464 -0.28 -0.02    +0.109 C  
DOCKED: ENDROOT
DOCKED: BRANCH   2   3
DOCKED: ATOM      3  N   UNL     1     139.640  72.243 222.982 -0.16 +0.08    -0.344 N  
DOCKED: ATOM      4  C   UNL     1     140.631  72.352 221.947 -0.19 -0.03    +0.270 C  
DOCKED: ATOM      5  H   UNL     1     139.256  73.120 223.402 -0.42 -0.08    +0.164 HD 
DOCKED: ATOM      6  O   UNL     1     141.147  71.309 221.460 -0.12 +0.03    -0.267 OA 
DOCKED: BRANCH   4   7
DOCKED: ATOM      7  C   UNL     1     141.057  73.680 221.449 -0.24 -0.01    +0.128 A  
DOCKED: ATOM      8  C   UNL     1     141.908  73.798 220.337 -0.22 -0.01    +0.035 A  
DOCKED: ATOM      9  N   UNL     1     140.616  74.808 222.075 -0.60 +0.01    -0.243 NA 
DOCKED: ATOM     10  C   UNL     1     142.292  75.063 219.888 -0.27 -0.00    +0.013 A  
DOCKED: ATOM     11  C   UNL     1     140.973  76.052 221.660 -0.33 -0.02    +0.071 A  
DOCKED: ATOM     12  C   UNL     1     141.827  76.207 220.548 -0.28 -0.00    +0.000 A  
DOCKED: ATOM     13  C   UNL     1     140.495  77.182 222.336 -0.41 -0.01    +0.029 A  
DOCKED: ATOM     14  C   UNL     1     142.193  77.493 220.123 -0.32 -0.01    +0.010 A  
DOCKED: ATOM     15  C   UNL     1     140.864  78.461 221.906 -0.36 -0.00    +0.002 A  
DOCKED: ATOM     16  C   UNL     1     141.710  78.616 220.804 -0.33 -0.00    +0.001 A  
DOCKED: ENDBRANCH   4   7
DOCKED: ENDBRANCH   2   3
DOCKED: BRANCH   2  17
DOCKED: ATOM     17  C   UNL     1     139.790  70.593 224.794 -0.43 +0.00    -0.025 A  
DOCKED: ATOM     18  C   UNL     1     140.511  71.570 225.536 -0.54 -0.00    +0.008 A  
DOCKED: ATOM     19  C   UNL     1     139.666  69.282 225.310 -0.42 -0.00    +0.016 A  
DOCKED: ATOM     20  C   UNL     1     141.101  71.245 226.770 -0.67 -0.00    +0.027 A  
DOCKED: ATOM     21  C   UNL     1     140.264  68.997 226.536 -0.57 +0.00    -0.000 A  
DOCKED: ATOM     22  C   UNL     1     140.956  69.943 227.241 -0.54 -0.01    +0.045 A  
DOCKED: ATOM     23  C   UNL     1     140.304  67.828 227.264 -0.61 -0.01    +0.028 A  
DOCKED: ATOM     24  N   UNL     1     141.436  69.429 228.385 -0.16 +0.08    -0.361 N  
DOCKED: ATOM     25  C   UNL     1     141.040  68.136 228.403 -0.58 -0.02    +0.083 A  
DOCKED: ATOM     26  H   UNL     1     141.999  69.923 229.113 +0.09 -0.04    +0.166 HD 
DOCKED: ENDBRANCH   2  17
DOCKED: TORSDOF 3
DOCKED: TER
DOCKED: ENDMDL
________________________________________________________________________________


    FINAL DOCKED STATE:
    ________________________


Run:   14 / 20
Time taken for this run:   0.021s

DOCKED: MODEL        14
DOCKED: USER    Run = 14
DOCKED: USER
DOCKED: USER    Estimated Free Energy of Binding    =  -8.37 kcal/mol  [=(1)+(2)+(3)-(4)]
DOCKED: USER
DOCKED: USER    (1) Final Intermolecular Energy     =  -9.26 kcal/mol
DOCKED: USER        vdW + Hbond + desolv Energy     =  -9.18 kcal/mol
DOCKED: USER        Electrostatic Energy            =  -0.09 kcal/mol
DOCKED: USER        Moving Ligand-Fixed Receptor    =  -9.26 kcal/mol
DOCKED: USER        Moving Ligand-Moving Receptor   =  +0.00 kcal/mol
DOCKED: USER    (2) Final Total Internal Energy     =  -0.90 kcal/mol
DOCKED: USER    (3) Torsional Free Energy           =  +0.89 kcal/mol
DOCKED: USER    (4) Unbound System's Energy         =  -0.90 kcal/mol
DOCKED: USER
DOCKED: USER
DOCKED: REMARK SMILES C[C@@H](NC(=O)c1ccc2ccccc2n1)c1ccc2[nH]ccc2c1
DOCKED: REMARK SMILES IDX 1 1 2 2 3 3 4 4 5 6 6 7 7 8 15 9 8 10 14 11 9 12 13 13 10 14
DOCKED: REMARK SMILES IDX 12 15 11 16 16 17 17 18 24 19 18 20 23 21 19 22 22 23 20 24
DOCKED: REMARK SMILES IDX 21 25
DOCKED: REMARK H PARENT 3 5 20 26
DOCKED: USER                              x       y       z     vdW  Elec       q    Type
DOCKED: USER                           _______ _______ _______ _____ _____    ______ ____
DOCKED: ROOT
DOCKED: ATOM      1  C   UNL     1     137.565  70.969 223.516 -0.22 -0.01    +0.036 C  
DOCKED: ATOM      2  C   UNL     1     139.093  70.946 223.399 -0.27 -0.02    +0.109 C  
DOCKED: ENDROOT
DOCKED: BRANCH   2   3
DOCKED: ATOM      3  N   UNL     1     139.590  72.239 222.913 -0.16 +0.08    -0.344 N  
DOCKED: ATOM      4  C   UNL     1     140.604  72.338 221.900 -0.19 -0.03    +0.270 C  
DOCKED: ATOM      5  H   UNL     1     139.195  73.119 223.316 -0.43 -0.08    +0.164 HD 
DOCKED: ATOM      6  O   UNL     1     141.132  71.290 221.436 -0.12 +0.03    -0.267 OA 
DOCKED: BRANCH   4   7
DOCKED: ATOM      7  C   UNL     1     141.038  73.662 221.397 -0.24 -0.01    +0.128 A  
DOCKED: ATOM      8  C   UNL     1     141.880  73.769 220.277 -0.21 -0.01    +0.035 A  
DOCKED: ATOM      9  N   UNL     1     140.614  74.794 222.025 -0.63 +0.01    -0.243 NA 
DOCKED: ATOM     10  C   UNL     1     142.273  75.031 219.823 -0.26 -0.00    +0.013 A  
DOCKED: ATOM     11  C   UNL     1     140.979  76.035 221.606 -0.33 -0.02    +0.071 A  
DOCKED: ATOM     12  C   UNL     1     141.825  76.179 220.486 -0.29 -0.00    +0.000 A  
DOCKED: ATOM     13  C   UNL     1     140.519  77.169 222.284 -0.41 -0.01    +0.029 A  
DOCKED: ATOM     14  C   UNL     1     142.200  77.462 220.056 -0.32 -0.01    +0.010 A  
DOCKED: ATOM     15  C   UNL     1     140.896  78.444 221.850 -0.36 -0.00    +0.002 A  
DOCKED: ATOM     16  C   UNL     1     141.734  78.590 220.741 -0.33 -0.00    +0.001 A  
DOCKED: ENDBRANCH   4   7
DOCKED: ENDBRANCH   2   3
DOCKED: BRANCH   2  17
DOCKED: ATOM     17  C   UNL     1     139.731  70.591 224.729 -0.42 +0.00    -0.025 A  
DOCKED: ATOM     18  C   UNL     1     140.481  71.557 225.456 -0.53 -0.00    +0.008 A  
DOCKED: ATOM     19  C   UNL     1     139.580  69.288 225.259 -0.41 -0.00    +0.016 A  
DOCKED: ATOM     20  C   UNL     1     141.071  71.231 226.690 -0.67 -0.00    +0.027 A  
DOCKED: ATOM     21  C   UNL     1     140.178  69.002 226.483 -0.56 +0.00    -0.000 A  
DOCKED: ATOM     22  C   UNL     1     140.898  69.938 227.175 -0.54 -0.01    +0.045 A  
DOCKED: ATOM     23  C   UNL     1     140.195  67.840 227.223 -0.62 -0.01    +0.028 A  
DOCKED: ATOM     24  N   UNL     1     141.373  69.424 228.321 -0.17 +0.08    -0.361 N  
DOCKED: ATOM     25  C   UNL     1     140.945  68.141 228.355 -0.58 -0.02    +0.083 A  
DOCKED: ATOM     26  H   UNL     1     141.953  69.911 229.040 +0.09 -0.04    +0.166 HD 
DOCKED: ENDBRANCH   2  17
DOCKED: TORSDOF 3
DOCKED: TER
DOCKED: ENDMDL
________________________________________________________________________________


    FINAL DOCKED STATE:
    ________________________


Run:   15 / 20
Time taken for this run:   0.021s

DOCKED: MODEL        15
DOCKED: USER    Run = 15
DOCKED: USER
DOCKED: USER    Estimated Free Energy of Binding    =  -8.37 kcal/mol  [=(1)+(2)+(3)-(4)]
DOCKED: USER
DOCKED: USER    (1) Final Intermolecular Energy     =  -9.26 kcal/mol
DOCKED: USER        vdW + Hbond + desolv Energy     =  -9.18 kcal/mol
DOCKED: USER        Electrostatic Energy            =  -0.09 kcal/mol
DOCKED: USER        Moving Ligand-Fixed Receptor    =  -9.26 kcal/mol
DOCKED: USER        Moving Ligand-Moving Receptor   =  +0.00 kcal/mol
DOCKED: USER    (2) Final Total Internal Energy     =  -0.90 kcal/mol
DOCKED: USER    (3) Torsional Free Energy           =  +0.89 kcal/mol
DOCKED: USER    (4) Unbound System's Energy         =  -0.90 kcal/mol
DOCKED: USER
DOCKED: USER
DOCKED: REMARK SMILES C[C@@H](NC(=O)c1ccc2ccccc2n1)c1ccc2[nH]ccc2c1
DOCKED: REMARK SMILES IDX 1 1 2 2 3 3 4 4 5 6 6 7 7 8 15 9 8 10 14 11 9 12 13 13 10 14
DOCKED: REMARK SMILES IDX 12 15 11 16 16 17 17 18 24 19 18 20 23 21 19 22 22 23 20 24
DOCKED: REMARK SMILES IDX 21 25
DOCKED: REMARK H PARENT 3 5 20 26
DOCKED: USER                              x       y       z     vdW  Elec       q    Type
DOCKED: USER                           _______ _______ _______ _____ _____    ______ ____
DOCKED: ROOT
DOCKED: ATOM      1  C   UNL     1     137.633  70.953 223.529 -0.22 -0.01    +0.036 C  
DOCKED: ATOM      2  C   UNL     1     139.162  70.945 223.425 -0.27 -0.02    +0.109 C  
DOCKED: ENDROOT
DOCKED: BRANCH   2   3
DOCKED: ATOM      3  N   UNL     1     139.650  72.244 222.948 -0.16 +0.07    -0.344 N  
DOCKED: ATOM      4  C   UNL     1     140.638  72.357 221.910 -0.19 -0.03    +0.270 C  
DOCKED: ATOM      5  H   UNL     1     139.268  73.119 223.374 -0.42 -0.08    +0.164 HD 
DOCKED: ATOM      6  O   UNL     1     141.151  71.316 221.417 -0.12 +0.03    -0.267 OA 
DOCKED: BRANCH   4   7
DOCKED: ATOM      7  C   UNL     1     141.063  73.688 221.418 -0.24 -0.01    +0.128 A  
DOCKED: ATOM      8  C   UNL     1     141.918  73.809 220.309 -0.22 -0.01    +0.035 A  
DOCKED: ATOM      9  N   UNL     1     140.620  74.813 222.046 -0.62 +0.01    -0.243 NA 
DOCKED: ATOM     10  C   UNL     1     142.301  75.077 219.864 -0.26 -0.00    +0.013 A  
DOCKED: ATOM     11  C   UNL     1     140.977  76.059 221.637 -0.33 -0.02    +0.071 A  
DOCKED: ATOM     12  C   UNL     1     141.834  76.218 220.527 -0.28 -0.00    +0.000 A  
DOCKED: ATOM     13  C   UNL     1     140.497  77.186 222.314 -0.41 -0.01    +0.029 A  
DOCKED: ATOM     14  C   UNL     1     142.200  77.506 220.107 -0.32 -0.01    +0.010 A  
DOCKED: ATOM     15  C   UNL     1     140.866  78.466 221.890 -0.36 -0.00    +0.002 A  
DOCKED: ATOM     16  C   UNL     1     141.714  78.626 220.791 -0.33 -0.00    +0.001 A  
DOCKED: ENDBRANCH   4   7
DOCKED: ENDBRANCH   2   3
DOCKED: BRANCH   2  17
DOCKED: ATOM     17  C   UNL     1     139.791  70.593 224.760 -0.42 +0.00    -0.025 A  
DOCKED: ATOM     18  C   UNL     1     140.501  71.571 225.510 -0.53 -0.00    +0.008 A  
DOCKED: ATOM     19  C   UNL     1     139.672  69.279 225.271 -0.41 -0.00    +0.016 A  
DOCKED: ATOM     20  C   UNL     1     141.083  71.247 226.748 -0.68 -0.00    +0.027 A  
DOCKED: ATOM     21  C   UNL     1     140.261  68.994 226.500 -0.56 +0.00    -0.000 A  
DOCKED: ATOM     22  C   UNL     1     140.942  69.943 227.214 -0.54 -0.01    +0.045 A  
DOCKED: ATOM     23  C   UNL     1     140.303  67.824 227.225 -0.62 -0.01    +0.028 A  
DOCKED: ATOM     24  N   UNL     1     141.417  69.428 228.360 -0.16 +0.08    -0.361 N  
DOCKED: ATOM     25  C   UNL     1     141.028  68.133 228.371 -0.58 -0.02    +0.083 A  
DOCKED: ATOM     26  H   UNL     1     141.971  69.924 229.094 +0.09 -0.04    +0.166 HD 
DOCKED: ENDBRANCH   2  17
DOCKED: TORSDOF 3
DOCKED: TER
DOCKED: ENDMDL
________________________________________________________________________________


    FINAL DOCKED STATE:
    ________________________


Run:   16 / 20
Time taken for this run:   0.021s

DOCKED: MODEL        16
DOCKED: USER    Run = 16
DOCKED: USER
DOCKED: USER    Estimated Free Energy of Binding    =  -8.37 kcal/mol  [=(1)+(2)+(3)-(4)]
DOCKED: USER
DOCKED: USER    (1) Final Intermolecular Energy     =  -9.26 kcal/mol
DOCKED: USER        vdW + Hbond + desolv Energy     =  -9.18 kcal/mol
DOCKED: USER        Electrostatic Energy            =  -0.08 kcal/mol
DOCKED: USER        Moving Ligand-Fixed Receptor    =  -9.26 kcal/mol
DOCKED: USER        Moving Ligand-Moving Receptor   =  +0.00 kcal/mol
DOCKED: USER    (2) Final Total Internal Energy     =  -0.90 kcal/mol
DOCKED: USER    (3) Torsional Free Energy           =  +0.89 kcal/mol
DOCKED: USER    (4) Unbound System's Energy         =  -0.90 kcal/mol
DOCKED: USER
DOCKED: USER
DOCKED: REMARK SMILES C[C@@H](NC(=O)c1ccc2ccccc2n1)c1ccc2[nH]ccc2c1
DOCKED: REMARK SMILES IDX 1 1 2 2 3 3 4 4 5 6 6 7 7 8 15 9 8 10 14 11 9 12 13 13 10 14
DOCKED: REMARK SMILES IDX 12 15 11 16 16 17 17 18 24 19 18 20 23 21 19 22 22 23 20 24
DOCKED: REMARK SMILES IDX 21 25
DOCKED: REMARK H PARENT 3 5 20 26
DOCKED: USER                              x       y       z     vdW  Elec       q    Type
DOCKED: USER                           _______ _______ _______ _____ _____    ______ ____
DOCKED: ROOT
DOCKED: ATOM      1  C   UNL     1     137.617  70.934 223.427 -0.21 -0.01    +0.036 C  
DOCKED: ATOM      2  C   UNL     1     139.147  70.935 223.347 -0.26 -0.02    +0.109 C  
DOCKED: ENDROOT
DOCKED: BRANCH   2   3
DOCKED: ATOM      3  N   UNL     1     139.635  72.238 222.882 -0.16 +0.07    -0.344 N  
DOCKED: ATOM      4  C   UNL     1     140.623  72.361 221.845 -0.19 -0.03    +0.270 C  
DOCKED: ATOM      5  H   UNL     1     139.254  73.109 223.317 -0.42 -0.08    +0.164 HD 
DOCKED: ATOM      6  O   UNL     1     141.135  71.324 221.341 -0.12 +0.03    -0.267 OA 
DOCKED: BRANCH   4   7
DOCKED: ATOM      7  C   UNL     1     141.048  73.696 221.365 -0.24 -0.02    +0.128 A  
DOCKED: ATOM      8  C   UNL     1     141.892  73.828 220.249 -0.21 -0.01    +0.035 A  
DOCKED: ATOM      9  N   UNL     1     140.615  74.814 222.011 -0.64 +0.02    -0.243 NA 
DOCKED: ATOM     10  C   UNL     1     142.276  75.100 219.817 -0.26 -0.00    +0.013 A  
DOCKED: ATOM     11  C   UNL     1     140.972  76.064 221.614 -0.33 -0.02    +0.071 A  
DOCKED: ATOM     12  C   UNL     1     141.819  76.234 220.498 -0.29 -0.00    +0.000 A  
DOCKED: ATOM     13  C   UNL     1     140.502  77.184 222.310 -0.41 -0.01    +0.029 A  
DOCKED: ATOM     14  C   UNL     1     142.185  77.526 220.090 -0.32 -0.01    +0.010 A  
DOCKED: ATOM     15  C   UNL     1     140.871  78.468 221.898 -0.36 -0.00    +0.002 A  
DOCKED: ATOM     16  C   UNL     1     141.710  78.639 220.793 -0.33 -0.00    +0.001 A  
DOCKED: ENDBRANCH   4   7
DOCKED: ENDBRANCH   2   3
DOCKED: BRANCH   2  17
DOCKED: ATOM     17  C   UNL     1     139.758  70.581 224.690 -0.42 +0.00    -0.025 A  
DOCKED: ATOM     18  C   UNL     1     140.516  71.539 225.419 -0.54 -0.00    +0.008 A  
DOCKED: ATOM     19  C   UNL     1     139.573  69.286 225.230 -0.41 -0.00    +0.016 A  
DOCKED: ATOM     20  C   UNL     1     141.081  71.213 226.665 -0.67 -0.00    +0.027 A  
DOCKED: ATOM     21  C   UNL     1     140.148  69.000 226.466 -0.56 +0.00    -0.000 A  
DOCKED: ATOM     22  C   UNL     1     140.875  69.928 227.159 -0.54 -0.01    +0.045 A  
DOCKED: ATOM     23  C   UNL     1     140.131  67.845 227.216 -0.62 -0.01    +0.028 A  
DOCKED: ATOM     24  N   UNL     1     141.323  69.417 228.317 -0.18 +0.08    -0.361 N  
DOCKED: ATOM     25  C   UNL     1     140.870  68.143 228.357 -0.58 -0.02    +0.083 A  
DOCKED: ATOM     26  H   UNL     1     141.902  69.900 229.040 +0.09 -0.04    +0.166 HD 
DOCKED: ENDBRANCH   2  17
DOCKED: TORSDOF 3
DOCKED: TER
DOCKED: ENDMDL
________________________________________________________________________________


    FINAL DOCKED STATE:
    ________________________


Run:   17 / 20
Time taken for this run:   0.021s

DOCKED: MODEL        17
DOCKED: USER    Run = 17
DOCKED: USER
DOCKED: USER    Estimated Free Energy of Binding    =  -8.36 kcal/mol  [=(1)+(2)+(3)-(4)]
DOCKED: USER
DOCKED: USER    (1) Final Intermolecular Energy     =  -9.26 kcal/mol
DOCKED: USER        vdW + Hbond + desolv Energy     =  -9.17 kcal/mol
DOCKED: USER        Electrostatic Energy            =  -0.09 kcal/mol
DOCKED: USER        Moving Ligand-Fixed Receptor    =  -9.26 kcal/mol
DOCKED: USER        Moving Ligand-Moving Receptor   =  +0.00 kcal/mol
DOCKED: USER    (2) Final Total Internal Energy     =  -0.91 kcal/mol
DOCKED: USER    (3) Torsional Free Energy           =  +0.89 kcal/mol
DOCKED: USER    (4) Unbound System's Energy         =  -0.91 kcal/mol
DOCKED: USER
DOCKED: USER
DOCKED: REMARK SMILES C[C@@H](NC(=O)c1ccc2ccccc2n1)c1ccc2[nH]ccc2c1
DOCKED: REMARK SMILES IDX 1 1 2 2 3 3 4 4 5 6 6 7 7 8 15 9 8 10 14 11 9 12 13 13 10 14
DOCKED: REMARK SMILES IDX 12 15 11 16 16 17 17 18 24 19 18 20 23 21 19 22 22 23 20 24
DOCKED: REMARK SMILES IDX 21 25
DOCKED: REMARK H PARENT 3 5 20 26
DOCKED: USER                              x       y       z     vdW  Elec       q    Type
DOCKED: USER                           _______ _______ _______ _____ _____    ______ ____
DOCKED: ROOT
DOCKED: ATOM      1  C   UNL     1     137.596  70.950 223.528 -0.22 -0.01    +0.036 C  
DOCKED: ATOM      2  C   UNL     1     139.125  70.937 223.417 -0.27 -0.02    +0.109 C  
DOCKED: ENDROOT
DOCKED: BRANCH   2   3
DOCKED: ATOM      3  N   UNL     1     139.613  72.235 222.937 -0.16 +0.08    -0.344 N  
DOCKED: ATOM      4  C   UNL     1     140.627  72.344 221.923 -0.19 -0.03    +0.270 C  
DOCKED: ATOM      5  H   UNL     1     139.214  73.111 223.342 -0.43 -0.08    +0.164 HD 
DOCKED: ATOM      6  O   UNL     1     141.161  71.301 221.455 -0.12 +0.03    -0.267 OA 
DOCKED: BRANCH   4   7
DOCKED: ATOM      7  C   UNL     1     141.053  73.672 221.425 -0.24 -0.01    +0.128 A  
DOCKED: ATOM      8  C   UNL     1     141.912  73.788 220.319 -0.22 -0.01    +0.035 A  
DOCKED: ATOM      9  N   UNL     1     140.606  74.800 222.045 -0.62 +0.01    -0.243 NA 
DOCKED: ATOM     10  C   UNL     1     142.297  75.053 219.869 -0.26 -0.00    +0.013 A  
DOCKED: ATOM     11  C   UNL     1     140.963  76.044 221.630 -0.33 -0.02    +0.071 A  
DOCKED: ATOM     12  C   UNL     1     141.825  76.198 220.523 -0.28 -0.00    +0.000 A  
DOCKED: ATOM     13  C   UNL     1     140.479  77.174 222.299 -0.40 -0.01    +0.029 A  
DOCKED: ATOM     14  C   UNL     1     142.192  77.484 220.098 -0.32 -0.01    +0.010 A  
DOCKED: ATOM     15  C   UNL     1     140.849  78.453 221.869 -0.36 -0.00    +0.002 A  
DOCKED: ATOM     16  C   UNL     1     141.702  78.607 220.773 -0.33 -0.00    +0.001 A  
DOCKED: ENDBRANCH   4   7
DOCKED: ENDBRANCH   2   3
DOCKED: BRANCH   2  17
DOCKED: ATOM     17  C   UNL     1     139.760  70.584 224.749 -0.42 +0.00    -0.025 A  
DOCKED: ATOM     18  C   UNL     1     140.480  71.560 225.492 -0.53 -0.00    +0.008 A  
DOCKED: ATOM     19  C   UNL     1     139.635  69.273 225.264 -0.41 -0.00    +0.016 A  
DOCKED: ATOM     20  C   UNL     1     141.068  71.235 226.728 -0.68 -0.00    +0.027 A  
DOCKED: ATOM     21  C   UNL     1     140.230  68.988 226.491 -0.56 +0.00    -0.000 A  
DOCKED: ATOM     22  C   UNL     1     140.921  69.933 227.198 -0.54 -0.01    +0.045 A  
DOCKED: ATOM     23  C   UNL     1     140.269  67.819 227.219 -0.62 -0.01    +0.028 A  
DOCKED: ATOM     24  N   UNL     1     141.399  69.419 228.343 -0.17 +0.08    -0.361 N  
DOCKED: ATOM     25  C   UNL     1     141.002  68.126 228.360 -0.57 -0.02    +0.083 A  
DOCKED: ATOM     26  H   UNL     1     141.961  69.913 229.071 +0.09 -0.04    +0.166 HD 
DOCKED: ENDBRANCH   2  17
DOCKED: TORSDOF 3
DOCKED: TER
DOCKED: ENDMDL
________________________________________________________________________________


    FINAL DOCKED STATE:
    ________________________


Run:   18 / 20
Time taken for this run:   0.021s

DOCKED: MODEL        18
DOCKED: USER    Run = 18
DOCKED: USER
DOCKED: USER    Estimated Free Energy of Binding    =  -8.37 kcal/mol  [=(1)+(2)+(3)-(4)]
DOCKED: USER
DOCKED: USER    (1) Final Intermolecular Energy     =  -9.26 kcal/mol
DOCKED: USER        vdW + Hbond + desolv Energy     =  -9.17 kcal/mol
DOCKED: USER        Electrostatic Energy            =  -0.09 kcal/mol
DOCKED: USER        Moving Ligand-Fixed Receptor    =  -9.26 kcal/mol
DOCKED: USER        Moving Ligand-Moving Receptor   =  +0.00 kcal/mol
DOCKED: USER    (2) Final Total Internal Energy     =  -0.90 kcal/mol
DOCKED: USER    (3) Torsional Free Energy           =  +0.89 kcal/mol
DOCKED: USER    (4) Unbound System's Energy         =  -0.90 kcal/mol
DOCKED: USER
DOCKED: USER
DOCKED: REMARK SMILES C[C@@H](NC(=O)c1ccc2ccccc2n1)c1ccc2[nH]ccc2c1
DOCKED: REMARK SMILES IDX 1 1 2 2 3 3 4 4 5 6 6 7 7 8 15 9 8 10 14 11 9 12 13 13 10 14
DOCKED: REMARK SMILES IDX 12 15 11 16 16 17 17 18 24 19 18 20 23 21 19 22 22 23 20 24
DOCKED: REMARK SMILES IDX 21 25
DOCKED: REMARK H PARENT 3 5 20 26
DOCKED: USER                              x       y       z     vdW  Elec       q    Type
DOCKED: USER                           _______ _______ _______ _____ _____    ______ ____
DOCKED: ROOT
DOCKED: ATOM      1  C   UNL     1     137.623  70.953 223.519 -0.22 -0.01    +0.036 C  
DOCKED: ATOM      2  C   UNL     1     139.152  70.944 223.415 -0.27 -0.02    +0.109 C  
DOCKED: ENDROOT
DOCKED: BRANCH   2   3
DOCKED: ATOM      3  N   UNL     1     139.639  72.243 222.936 -0.16 +0.07    -0.344 N  
DOCKED: ATOM      4  C   UNL     1     140.631  72.354 221.901 -0.19 -0.03    +0.270 C  
DOCKED: ATOM      5  H   UNL     1     139.256  73.118 223.358 -0.42 -0.08    +0.164 HD 
DOCKED: ATOM      6  O   UNL     1     141.146  71.311 221.412 -0.12 +0.03    -0.267 OA 
DOCKED: BRANCH   4   7
DOCKED: ATOM      7  C   UNL     1     141.056  73.683 221.406 -0.24 -0.01    +0.128 A  
DOCKED: ATOM      8  C   UNL     1     141.899  73.803 220.288 -0.21 -0.01    +0.035 A  
DOCKED: ATOM      9  N   UNL     1     140.624  74.809 222.040 -0.62 +0.01    -0.243 NA 
DOCKED: ATOM     10  C   UNL     1     142.283  75.070 219.841 -0.26 -0.00    +0.013 A  
DOCKED: ATOM     11  C   UNL     1     140.981  76.054 221.629 -0.33 -0.02    +0.071 A  
DOCKED: ATOM     12  C   UNL     1     141.827  76.212 220.510 -0.29 -0.00    +0.000 A  
DOCKED: ATOM     13  C   UNL     1     140.512  77.182 222.313 -0.41 -0.01    +0.029 A  
DOCKED: ATOM     14  C   UNL     1     142.193  77.499 220.088 -0.32 -0.01    +0.010 A  
DOCKED: ATOM     15  C   UNL     1     140.882  78.462 221.886 -0.36 -0.00    +0.002 A  
DOCKED: ATOM     16  C   UNL     1     141.719  78.620 220.778 -0.33 -0.00    +0.001 A  
DOCKED: ENDBRANCH   4   7
DOCKED: ENDBRANCH   2   3
DOCKED: BRANCH   2  17
DOCKED: ATOM     17  C   UNL     1     139.782  70.594 224.750 -0.42 +0.00    -0.025 A  
DOCKED: ATOM     18  C   UNL     1     140.521  71.565 225.482 -0.54 -0.00    +0.008 A  
DOCKED: ATOM     19  C   UNL     1     139.633  69.291 225.280 -0.41 -0.00    +0.016 A  
DOCKED: ATOM     20  C   UNL     1     141.104  71.242 226.720 -0.67 -0.00    +0.027 A  
DOCKED: ATOM     21  C   UNL     1     140.224  69.008 226.509 -0.56 +0.00    -0.000 A  
DOCKED: ATOM     22  C   UNL     1     140.934  69.948 227.205 -0.54 -0.01    +0.045 A  
DOCKED: ATOM     23  C   UNL     1     140.242  67.847 227.249 -0.62 -0.01    +0.028 A  
DOCKED: ATOM     24  N   UNL     1     141.403  69.438 228.355 -0.17 +0.08    -0.361 N  
DOCKED: ATOM     25  C   UNL     1     140.982  68.153 228.387 -0.58 -0.02    +0.083 A  
DOCKED: ATOM     26  H   UNL     1     141.975  69.929 229.078 +0.09 -0.04    +0.166 HD 
DOCKED: ENDBRANCH   2  17
DOCKED: TORSDOF 3
DOCKED: TER
DOCKED: ENDMDL
________________________________________________________________________________


    FINAL DOCKED STATE:
    ________________________


Run:   19 / 20
Time taken for this run:   0.021s

DOCKED: MODEL        19
DOCKED: USER    Run = 19
DOCKED: USER
DOCKED: USER    Estimated Free Energy of Binding    =  -8.37 kcal/mol  [=(1)+(2)+(3)-(4)]
DOCKED: USER
DOCKED: USER    (1) Final Intermolecular Energy     =  -9.26 kcal/mol
DOCKED: USER        vdW + Hbond + desolv Energy     =  -9.17 kcal/mol
DOCKED: USER        Electrostatic Energy            =  -0.09 kcal/mol
DOCKED: USER        Moving Ligand-Fixed Receptor    =  -9.26 kcal/mol
DOCKED: USER        Moving Ligand-Moving Receptor   =  +0.00 kcal/mol
DOCKED: USER    (2) Final Total Internal Energy     =  -0.91 kcal/mol
DOCKED: USER    (3) Torsional Free Energy           =  +0.89 kcal/mol
DOCKED: USER    (4) Unbound System's Energy         =  -0.91 kcal/mol
DOCKED: USER
DOCKED: USER
DOCKED: REMARK SMILES C[C@@H](NC(=O)c1ccc2ccccc2n1)c1ccc2[nH]ccc2c1
DOCKED: REMARK SMILES IDX 1 1 2 2 3 3 4 4 5 6 6 7 7 8 15 9 8 10 14 11 9 12 13 13 10 14
DOCKED: REMARK SMILES IDX 12 15 11 16 16 17 17 18 24 19 18 20 23 21 19 22 22 23 20 24
DOCKED: REMARK SMILES IDX 21 25
DOCKED: REMARK H PARENT 3 5 20 26
DOCKED: USER                              x       y       z     vdW  Elec       q    Type
DOCKED: USER                           _______ _______ _______ _____ _____    ______ ____
DOCKED: ROOT
DOCKED: ATOM      1  C   UNL     1     137.572  70.999 223.548 -0.22 -0.01    +0.036 C  
DOCKED: ATOM      2  C   UNL     1     139.099  70.971 223.431 -0.27 -0.02    +0.109 C  
DOCKED: ENDROOT
DOCKED: BRANCH   2   3
DOCKED: ATOM      3  N   UNL     1     139.599  72.263 222.947 -0.15 +0.08    -0.344 N  
DOCKED: ATOM      4  C   UNL     1     140.599  72.361 221.918 -0.19 -0.03    +0.270 C  
DOCKED: ATOM      5  H   UNL     1     139.219  73.144 223.361 -0.43 -0.09    +0.164 HD 
DOCKED: ATOM      6  O   UNL     1     141.110  71.312 221.440 -0.12 +0.03    -0.267 OA 
DOCKED: BRANCH   4   7
DOCKED: ATOM      7  C   UNL     1     141.036  73.684 221.418 -0.24 -0.01    +0.128 A  
DOCKED: ATOM      8  C   UNL     1     141.907  73.790 220.319 -0.22 -0.01    +0.035 A  
DOCKED: ATOM      9  N   UNL     1     140.589  74.817 222.028 -0.63 +0.01    -0.243 NA 
DOCKED: ATOM     10  C   UNL     1     142.302  75.051 219.867 -0.26 -0.00    +0.013 A  
DOCKED: ATOM     11  C   UNL     1     140.957  76.058 221.610 -0.33 -0.02    +0.071 A  
DOCKED: ATOM     12  C   UNL     1     141.830  76.201 220.511 -0.28 -0.00    +0.000 A  
DOCKED: ATOM     13  C   UNL     1     140.472  77.193 222.269 -0.40 -0.01    +0.029 A  
DOCKED: ATOM     14  C   UNL     1     142.207  77.483 220.082 -0.32 -0.01    +0.010 A  
DOCKED: ATOM     15  C   UNL     1     140.852  78.468 221.836 -0.36 -0.00    +0.002 A  
DOCKED: ATOM     16  C   UNL     1     141.717  78.613 220.748 -0.33 -0.00    +0.001 A  
DOCKED: ENDBRANCH   4   7
DOCKED: ENDBRANCH   2   3
DOCKED: BRANCH   2  17
DOCKED: ATOM     17  C   UNL     1     139.736  70.613 224.761 -0.42 +0.00    -0.025 A  
DOCKED: ATOM     18  C   UNL     1     140.477  71.580 225.496 -0.52 -0.00    +0.008 A  
DOCKED: ATOM     19  C   UNL     1     139.593  69.306 225.282 -0.41 -0.00    +0.016 A  
DOCKED: ATOM     20  C   UNL     1     141.066  71.251 226.729 -0.68 -0.00    +0.027 A  
DOCKED: ATOM     21  C   UNL     1     140.191  69.016 226.506 -0.56 +0.00    -0.000 A  
DOCKED: ATOM     22  C   UNL     1     140.901  69.953 227.205 -0.54 -0.01    +0.045 A  
DOCKED: ATOM     23  C   UNL     1     140.215  67.850 227.238 -0.62 -0.01    +0.028 A  
DOCKED: ATOM     24  N   UNL     1     141.378  69.436 228.350 -0.17 +0.08    -0.361 N  
DOCKED: ATOM     25  C   UNL     1     140.960  68.150 228.374 -0.58 -0.02    +0.083 A  
DOCKED: ATOM     26  H   UNL     1     141.952  69.923 229.073 +0.09 -0.04    +0.166 HD 
DOCKED: ENDBRANCH   2  17
DOCKED: TORSDOF 3
DOCKED: TER
DOCKED: ENDMDL
________________________________________________________________________________


    FINAL DOCKED STATE:
    ________________________


Run:   20 / 20
Time taken for this run:   0.021s

DOCKED: MODEL        20
DOCKED: USER    Run = 20
DOCKED: USER
DOCKED: USER    Estimated Free Energy of Binding    =  -8.37 kcal/mol  [=(1)+(2)+(3)-(4)]
DOCKED: USER
DOCKED: USER    (1) Final Intermolecular Energy     =  -9.26 kcal/mol
DOCKED: USER        vdW + Hbond + desolv Energy     =  -9.17 kcal/mol
DOCKED: USER        Electrostatic Energy            =  -0.09 kcal/mol
DOCKED: USER        Moving Ligand-Fixed Receptor    =  -9.26 kcal/mol
DOCKED: USER        Moving Ligand-Moving Receptor   =  +0.00 kcal/mol
DOCKED: USER    (2) Final Total Internal Energy     =  -0.91 kcal/mol
DOCKED: USER    (3) Torsional Free Energy           =  +0.89 kcal/mol
DOCKED: USER    (4) Unbound System's Energy         =  -0.91 kcal/mol
DOCKED: USER
DOCKED: USER
DOCKED: REMARK SMILES C[C@@H](NC(=O)c1ccc2ccccc2n1)c1ccc2[nH]ccc2c1
DOCKED: REMARK SMILES IDX 1 1 2 2 3 3 4 4 5 6 6 7 7 8 15 9 8 10 14 11 9 12 13 13 10 14
DOCKED: REMARK SMILES IDX 12 15 11 16 16 17 17 18 24 19 18 20 23 21 19 22 22 23 20 24
DOCKED: REMARK SMILES IDX 21 25
DOCKED: REMARK H PARENT 3 5 20 26
DOCKED: USER                              x       y       z     vdW  Elec       q    Type
DOCKED: USER                           _______ _______ _______ _____ _____    ______ ____
DOCKED: ROOT
DOCKED: ATOM      1  C   UNL     1     137.598  70.976 223.573 -0.22 -0.01    +0.036 C  
DOCKED: ATOM      2  C   UNL     1     139.125  70.953 223.453 -0.27 -0.02    +0.109 C  
DOCKED: ENDROOT
DOCKED: BRANCH   2   3
DOCKED: ATOM      3  N   UNL     1     139.620  72.247 222.968 -0.16 +0.08    -0.344 N  
DOCKED: ATOM      4  C   UNL     1     140.614  72.348 221.935 -0.19 -0.03    +0.270 C  
DOCKED: ATOM      5  H   UNL     1     139.240  73.126 223.386 -0.42 -0.08    +0.164 HD 
DOCKED: ATOM      6  O   UNL     1     141.126  71.300 221.452 -0.12 +0.03    -0.267 OA 
DOCKED: BRANCH   4   7
DOCKED: ATOM      7  C   UNL     1     141.047  73.673 221.434 -0.24 -0.01    +0.128 A  
DOCKED: ATOM      8  C   UNL     1     141.906  73.783 220.328 -0.22 -0.01    +0.035 A  
DOCKED: ATOM      9  N   UNL     1     140.605  74.804 222.052 -0.62 +0.01    -0.243 NA 
DOCKED: ATOM     10  C   UNL     1     142.297  75.045 219.875 -0.26 -0.00    +0.013 A  
DOCKED: ATOM     11  C   UNL     1     140.969  76.046 221.634 -0.33 -0.02    +0.071 A  
DOCKED: ATOM     12  C   UNL     1     141.831  76.193 220.527 -0.28 -0.00    +0.000 A  
DOCKED: ATOM     13  C   UNL     1     140.490  77.179 222.301 -0.40 -0.01    +0.029 A  
DOCKED: ATOM     14  C   UNL     1     142.204  77.476 220.099 -0.32 -0.01    +0.010 A  
DOCKED: ATOM     15  C   UNL     1     140.866  78.455 221.869 -0.36 -0.00    +0.002 A  
DOCKED: ATOM     16  C   UNL     1     141.720  78.604 220.772 -0.33 -0.00    +0.001 A  
DOCKED: ENDBRANCH   4   7
DOCKED: ENDBRANCH   2   3
DOCKED: BRANCH   2  17
DOCKED: ATOM     17  C   UNL     1     139.765  70.597 224.782 -0.42 +0.00    -0.025 A  
DOCKED: ATOM     18  C   UNL     1     140.489  71.571 225.524 -0.53 -0.00    +0.008 A  
DOCKED: ATOM     19  C   UNL     1     139.642  69.284 225.295 -0.41 -0.00    +0.016 A  
DOCKED: ATOM     20  C   UNL     1     141.081  71.244 226.756 -0.68 -0.00    +0.027 A  
DOCKED: ATOM     21  C   UNL     1     140.242  68.997 226.518 -0.56 +0.00    -0.000 A  
DOCKED: ATOM     22  C   UNL     1     140.936  69.941 227.225 -0.54 -0.01    +0.045 A  
DOCKED: ATOM     23  C   UNL     1     140.283  67.826 227.244 -0.62 -0.01    +0.028 A  
DOCKED: ATOM     24  N   UNL     1     141.419  69.424 228.367 -0.16 +0.08    -0.361 N  
DOCKED: ATOM     25  C   UNL     1     141.021  68.131 228.383 -0.57 -0.02    +0.083 A  
DOCKED: ATOM     26  H   UNL     1     141.983  69.916 229.094 +0.09 -0.04    +0.166 HD 
DOCKED: ENDBRANCH   2  17
DOCKED: TORSDOF 3
DOCKED: TER
DOCKED: ENDMDL
________________________________________________________________________________


    CLUSTERING HISTOGRAM
    ____________________


________________________________________________________________________________
     |           |     |           |     |
Clus | Lowest    | Run | Mean      | Num | Histogram
-ter | Binding   |     | Binding   | in  |
Rank | Energy    |     | Energy    | Clus|    5    10   15   20   25   30   35
_____|___________|_____|___________|_____|____:____|____:____|____:____|____:___
   1 |     -8.37 |  10 |     -8.37 |  20 |####################
_____|___________|_____|___________|_____|______________________________________


    RMSD TABLE
    __________


_______________________________________________________________________
     |      |      |           |         |                 |
Rank | Sub- | Run  | Binding   | Cluster | Reference       | Grep
     | Rank |      | Energy    | RMSD    | RMSD            | Pattern
_____|______|______|___________|_________|_________________|___________
   1      1     10       -8.37      0.00    270.12           RANKING
   1      2      3       -8.37      0.02    270.13           RANKING
   1      3      4       -8.37      0.05    270.09           RANKING
   1      4     12       -8.37      0.04    270.10           RANKING
   1      5     11       -8.37      0.04    270.10           RANKING
   1      6     16       -8.37      0.07    270.07           RANKING
   1      7      7       -8.37      0.06    270.10           RANKING
   1      8      9       -8.37      0.07    270.08           RANKING
   1      9     15       -8.37      0.02    270.13           RANKING
   1     10      8       -8.37      0.05    270.11           RANKING
   1     11      2       -8.37      0.02    270.12           RANKING
   1     12      1       -8.37      0.04    270.10           RANKING
   1     13     14       -8.37      0.06    270.08           RANKING
   1     14     19       -8.37      0.05    270.10           RANKING
   1     15      6       -8.37      0.03    270.14           RANKING
   1     16     20       -8.37      0.04    270.13           RANKING
   1     17     18       -8.37      0.02    270.12           RANKING
   1     18      5       -8.36      0.04    270.12           RANKING
   1     19     17       -8.36      0.04    270.11           RANKING
   1     20     13       -8.36      0.05    270.15           RANKING

Run time 0.404 sec
Idle time 0.000 sec
