AutoDock-GPU version: v1.6

**********************************************************
**    AutoDock-GPU AUTODOCKTOOLS-COMPATIBLE DLG FILE    **
**********************************************************


    DOCKING PARAMETERS
    ________________________


Ligand file:                               /home/a/REINVENT4/ReinventStudies/pleaseWork/justRnve/graph-dock-t2iv78/graph-DockGPU/node-autodockgpu/inputs/QCMKIQNVNXXUCE-JBRUJCLCNA-M.pdbqt
Grid fld file:                             /home/a/REINVENT4/ReinventStudies/mols/Rad51/maps/rad51_receptor.maps.fld

Random seed:                               42
Number of runs:                            20
Number of energy evaluations:              1132076
Number of generations:                     42000
Size of population:                        150
Rate of crossover:                         80.000000%
Tournament selection probability limit:    60.000000%
Rate of mutation:                          2.000000%
Maximal allowed delta movement:            +/- 6.000000A
Maximal allowed delta angle:               +/- 90.000000

Rate of local search:                      100.000000%
Maximal number of local search iterations: 300
Rho lower bound:                           0.010000
Spread of local search delta movement:     2.000000A
Spread of local search delta angle:        74.999999
Limit of consecutive successes/failures:   4

Handle symmetry during clustering:         YES
RMSD tolerance:                            2.000000A

Program call in command line was:          /home/a/REINVENT4/ReinventStudies/adgpu-v1.6_linux_x64_cuda12_128wi --filelist batch.txt --heuristics 1 --nrun 20 --psize 150 --lsit 300 --seed 42 --heurmax 12000000 


    GRID PARAMETERS
    ________________________


Receptor name:                             rad51_receptor
Number of grid points (x, y, z):           53, 53, 53
Grid center (x, y, z):                     139.950000, 75.640000, 221.970000A
Grid size (x, y, z):                       19.500000, 19.500000, 19.500000A
Grid spacing:                              0.375000A


    LIGAND PARAMETERS
    ________________________


Ligand name:                               /home/a/REINVENT4/ReinventStudies/pleaseWork/justRnve/graph-dock-t2iv78/graph-DockGPU/node-autodockgpu/inputs/QCMKIQNVNXXUCE-JBRUJCLCNA-M
Number of atoms:                           25
Number of rotatable bonds:                 4
Number of atom types:                      6


    DUMMY DATA (only for ADT-compatibility)
    ________________________


DPF> outlev 1
DPF> ga_run 20
DPF> fld /home/a/REINVENT4/ReinventStudies/mols/Rad51/maps/rad51_receptor.maps.fld
DPF> move /home/a/REINVENT4/ReinventStudies/pleaseWork/justRnve/graph-dock-t2iv78/graph-DockGPU/node-autodockgpu/inputs/QCMKIQNVNXXUCE-JBRUJCLCNA-M.pdbqt


    COUNTER STATES
    ________________________


Number of energy evaluations performed:    914809
Number of generations used:                40


    INPUT LIGAND PDBQT FILE:
    ________________________


INPUT-LIGAND-PDBQT: REMARK SMILES C[C@H]([N-]C(=O)c1ccc2ccccc2n1)c1ccc2[nH]ccc2c1
INPUT-LIGAND-PDBQT: REMARK SMILES IDX 1 1 2 2 3 3 4 4 5 5 6 6 7 7 15 8 8 9 14 10 9 11 13 12 10 13
INPUT-LIGAND-PDBQT: REMARK SMILES IDX 12 14 11 15 16 16 17 17 24 18 18 19 23 20 19 21 22 22 20 23
INPUT-LIGAND-PDBQT: REMARK SMILES IDX 21 24
INPUT-LIGAND-PDBQT: REMARK H PARENT 20 25
INPUT-LIGAND-PDBQT: ROOT
INPUT-LIGAND-PDBQT: ATOM      1  C   UNL     1       3.443  -1.746  -1.918  1.00  0.00    -0.008 C 
INPUT-LIGAND-PDBQT: ATOM      2  C   UNL     1       2.158  -1.158  -2.515  1.00  0.00    -0.079 C 
INPUT-LIGAND-PDBQT: ENDROOT
INPUT-LIGAND-PDBQT: BRANCH   2   3
INPUT-LIGAND-PDBQT: ATOM      3  N   UNL     1       2.396   0.222  -2.951  1.00  0.00    -0.642 NA
INPUT-LIGAND-PDBQT: BRANCH   3   4
INPUT-LIGAND-PDBQT: ATOM      4  C   UNL     1       2.708   1.343  -2.112  1.00  0.00     0.101 C 
INPUT-LIGAND-PDBQT: ATOM      5  O   UNL     1       3.389   2.290  -2.585  1.00  0.00    -0.313 OA
INPUT-LIGAND-PDBQT: BRANCH   4   6
INPUT-LIGAND-PDBQT: ATOM      6  C   UNL     1       2.223   1.437  -0.731  1.00  0.00     0.088 A 
INPUT-LIGAND-PDBQT: ATOM      7  C   UNL     1       3.119   1.394   0.345  1.00  0.00     0.031 A 
INPUT-LIGAND-PDBQT: ATOM      8  N   UNL     1       0.891   1.592  -0.501  1.00  0.00    -0.246 NA
INPUT-LIGAND-PDBQT: ATOM      9  C   UNL     1       2.628   1.469   1.650  1.00  0.00     0.012 A 
INPUT-LIGAND-PDBQT: ATOM     10  C   UNL     1       0.386   1.678   0.758  1.00  0.00     0.071 A 
INPUT-LIGAND-PDBQT: ATOM     11  C   UNL     1       1.252   1.605   1.871  1.00  0.00     0.000 A 
INPUT-LIGAND-PDBQT: ATOM     12  C   UNL     1      -0.993   1.820   0.953  1.00  0.00     0.029 A 
INPUT-LIGAND-PDBQT: ATOM     13  C   UNL     1       0.723   1.667   3.169  1.00  0.00     0.010 A 
INPUT-LIGAND-PDBQT: ATOM     14  C   UNL     1      -1.513   1.875   2.250  1.00  0.00     0.002 A 
INPUT-LIGAND-PDBQT: ATOM     15  C   UNL     1      -0.658   1.799   3.354  1.00  0.00     0.001 A 
INPUT-LIGAND-PDBQT: ENDBRANCH   4   6
INPUT-LIGAND-PDBQT: ENDBRANCH   3   4
INPUT-LIGAND-PDBQT: ENDBRANCH   2   3
INPUT-LIGAND-PDBQT: BRANCH   2  16
INPUT-LIGAND-PDBQT: ATOM     16  C   UNL     1       0.925  -1.263  -1.630  1.00  0.00    -0.062 A 
INPUT-LIGAND-PDBQT: ATOM     17  C   UNL     1       0.989  -1.653  -0.259  1.00  0.00     0.004 A 
INPUT-LIGAND-PDBQT: ATOM     18  C   UNL     1      -0.332  -0.942  -2.195  1.00  0.00     0.012 A 
INPUT-LIGAND-PDBQT: ATOM     19  C   UNL     1      -0.174  -1.716   0.529  1.00  0.00     0.027 A 
INPUT-LIGAND-PDBQT: ATOM     20  C   UNL     1      -1.460  -1.011  -1.382  1.00  0.00    -0.000 A 
INPUT-LIGAND-PDBQT: ATOM     21  C   UNL     1      -1.385  -1.385  -0.069  1.00  0.00     0.045 A 
INPUT-LIGAND-PDBQT: ATOM     22  C   UNL     1      -2.780  -0.726  -1.655  1.00  0.00     0.028 A 
INPUT-LIGAND-PDBQT: ATOM     23  N   UNL     1      -2.597  -1.350   0.508  1.00  0.00    -0.361 N 
INPUT-LIGAND-PDBQT: ATOM     24  C   UNL     1      -3.454  -0.947  -0.458  1.00  0.00     0.083 A 
INPUT-LIGAND-PDBQT: ATOM     25  H   UNL     1      -2.832  -1.574   1.500  1.00  0.00     0.166 HD
INPUT-LIGAND-PDBQT: ENDBRANCH   2  16
INPUT-LIGAND-PDBQT: TORSDOF 4


    FINAL DOCKED STATE:
    ________________________


Run:   1 / 20
Time taken for this run:   0.030s

DOCKED: MODEL        1
DOCKED: USER    Run = 1
DOCKED: USER
DOCKED: USER    Estimated Free Energy of Binding    =  -8.47 kcal/mol  [=(1)+(2)+(3)-(4)]
DOCKED: USER
DOCKED: USER    (1) Final Intermolecular Energy     =  -9.66 kcal/mol
DOCKED: USER        vdW + Hbond + desolv Energy     =  -9.70 kcal/mol
DOCKED: USER        Electrostatic Energy            =  +0.04 kcal/mol
DOCKED: USER        Moving Ligand-Fixed Receptor    =  -9.66 kcal/mol
DOCKED: USER        Moving Ligand-Moving Receptor   =  +0.00 kcal/mol
DOCKED: USER    (2) Final Total Internal Energy     =  -0.64 kcal/mol
DOCKED: USER    (3) Torsional Free Energy           =  +1.19 kcal/mol
DOCKED: USER    (4) Unbound System's Energy         =  -0.64 kcal/mol
DOCKED: USER
DOCKED: USER
DOCKED: REMARK SMILES C[C@H]([N-]C(=O)c1ccc2ccccc2n1)c1ccc2[nH]ccc2c1
DOCKED: REMARK SMILES IDX 1 1 2 2 3 3 4 4 5 5 6 6 7 7 15 8 8 9 14 10 9 11 13 12 10 13
DOCKED: REMARK SMILES IDX 12 14 11 15 16 16 17 17 24 18 18 19 23 20 19 21 22 22 20 23
DOCKED: REMARK SMILES IDX 21 24
DOCKED: REMARK H PARENT 20 25
DOCKED: USER                              x       y       z     vdW  Elec       q    Type
DOCKED: USER                           _______ _______ _______ _____ _____    ______ ____
DOCKED: ROOT
DOCKED: ATOM      1  C   UNL     1     139.856  75.826 221.498 -0.31 +0.00    -0.008 C  
DOCKED: ATOM      2  C   UNL     1     140.382  74.408 221.241 -0.26 +0.01    -0.079 C  
DOCKED: ENDROOT
DOCKED: BRANCH   2   3
DOCKED: ATOM      3  N   UNL     1     140.117  73.559 222.407 -0.53 +0.02    -0.642 NA 
DOCKED: BRANCH   3   4
DOCKED: ATOM      4  C   UNL     1     139.875  72.145 222.399 -0.27 -0.02    +0.101 C  
DOCKED: ATOM      5  O   UNL     1     139.637  71.572 221.304 -0.07 +0.05    -0.313 OA 
DOCKED: BRANCH   4   6
DOCKED: ATOM      6  C   UNL     1     139.936  71.340 223.623 -0.35 -0.02    +0.088 A  
DOCKED: ATOM      7  C   UNL     1     139.493  70.011 223.628 -0.27 -0.01    +0.031 A  
DOCKED: ATOM      8  N   UNL     1     140.452  71.888 224.757 -0.26 +0.04    -0.246 NA 
DOCKED: ATOM      9  C   UNL     1     139.547  69.274 224.812 -0.37 -0.00    +0.012 A  
DOCKED: ATOM     10  C   UNL     1     140.527  71.191 225.921 -0.55 -0.01    +0.071 A  
DOCKED: ATOM     11  C   UNL     1     140.060  69.859 225.976 -0.50 -0.00    +0.000 A  
DOCKED: ATOM     12  C   UNL     1     141.050  71.797 227.070 -0.76 -0.01    +0.029 A  
DOCKED: ATOM     13  C   UNL     1     140.114  69.153 227.187 -0.59 -0.00    +0.010 A  
DOCKED: ATOM     14  C   UNL     1     141.095  71.088 228.274 -0.67 -0.00    +0.002 A  
DOCKED: ATOM     15  C   UNL     1     140.629  69.770 228.332 -0.59 -0.00    +0.001 A  
DOCKED: ENDBRANCH   4   6
DOCKED: ENDBRANCH   3   4
DOCKED: ENDBRANCH   2   3
DOCKED: BRANCH   2  16
DOCKED: ATOM     16  C   UNL     1     141.837  74.325 220.804 -0.27 +0.02    -0.062 A  
DOCKED: ATOM     17  C   UNL     1     142.582  75.465 220.379 -0.27 -0.00    +0.004 A  
DOCKED: ATOM     18  C   UNL     1     142.474  73.063 220.841 -0.27 -0.00    +0.012 A  
DOCKED: ATOM     19  C   UNL     1     143.932  75.347 220.004 -0.38 -0.02    +0.027 A  
DOCKED: ATOM     20  C   UNL     1     143.813  72.986 220.467 -0.37 +0.00    -0.000 A  
DOCKED: ATOM     21  C   UNL     1     144.516  74.087 220.063 -0.43 -0.01    +0.045 A  
DOCKED: ATOM     22  C   UNL     1     144.676  71.912 220.440 -0.26 -0.00    +0.028 A  
DOCKED: ATOM     23  N   UNL     1     145.789  73.764 219.781 -0.18 +0.01    -0.361 N  
DOCKED: ATOM     24  C   UNL     1     145.892  72.435 220.010 -0.40 +0.03    +0.083 A  
DOCKED: ATOM     25  H   UNL     1     146.549  74.405 219.462 -0.49 -0.05    +0.166 HD 
DOCKED: ENDBRANCH   2  16
DOCKED: TORSDOF 4
DOCKED: TER
DOCKED: ENDMDL
________________________________________________________________________________


    FINAL DOCKED STATE:
    ________________________


Run:   2 / 20
Time taken for this run:   0.030s

DOCKED: MODEL        2
DOCKED: USER    Run = 2
DOCKED: USER
DOCKED: USER    Estimated Free Energy of Binding    =  -8.46 kcal/mol  [=(1)+(2)+(3)-(4)]
DOCKED: USER
DOCKED: USER    (1) Final Intermolecular Energy     =  -9.66 kcal/mol
DOCKED: USER        vdW + Hbond + desolv Energy     =  -9.75 kcal/mol
DOCKED: USER        Electrostatic Energy            =  +0.09 kcal/mol
DOCKED: USER        Moving Ligand-Fixed Receptor    =  -9.66 kcal/mol
DOCKED: USER        Moving Ligand-Moving Receptor   =  +0.00 kcal/mol
DOCKED: USER    (2) Final Total Internal Energy     =  -0.53 kcal/mol
DOCKED: USER    (3) Torsional Free Energy           =  +1.19 kcal/mol
DOCKED: USER    (4) Unbound System's Energy         =  -0.53 kcal/mol
DOCKED: USER
DOCKED: USER
DOCKED: REMARK SMILES C[C@H]([N-]C(=O)c1ccc2ccccc2n1)c1ccc2[nH]ccc2c1
DOCKED: REMARK SMILES IDX 1 1 2 2 3 3 4 4 5 5 6 6 7 7 15 8 8 9 14 10 9 11 13 12 10 13
DOCKED: REMARK SMILES IDX 12 14 11 15 16 16 17 17 24 18 18 19 23 20 19 21 22 22 20 23
DOCKED: REMARK SMILES IDX 21 24
DOCKED: REMARK H PARENT 20 25
DOCKED: USER                              x       y       z     vdW  Elec       q    Type
DOCKED: USER                           _______ _______ _______ _____ _____    ______ ____
DOCKED: ROOT
DOCKED: ATOM      1  C   UNL     1     138.274  74.660 221.004 -0.14 +0.00    -0.008 C  
DOCKED: ATOM      2  C   UNL     1     139.792  74.547 221.196 -0.23 +0.02    -0.079 C  
DOCKED: ENDROOT
DOCKED: BRANCH   2   3
DOCKED: ATOM      3  N   UNL     1     140.087  73.685 222.346 -0.60 +0.02    -0.642 NA 
DOCKED: BRANCH   3   4
DOCKED: ATOM      4  C   UNL     1     140.302  72.267 222.319 -0.28 -0.01    +0.101 C  
DOCKED: ATOM      5  O   UNL     1     140.640  71.720 221.237 -0.11 +0.04    -0.313 OA 
DOCKED: BRANCH   4   6
DOCKED: ATOM      6  C   UNL     1     140.178  71.441 223.525 -0.34 -0.01    +0.088 A  
DOCKED: ATOM      7  C   UNL     1     139.554  70.188 223.471 -0.27 -0.01    +0.031 A  
DOCKED: ATOM      8  N   UNL     1     140.698  71.892 224.698 -0.26 +0.03    -0.246 NA 
DOCKED: ATOM      9  C   UNL     1     139.435  69.430 224.637 -0.36 -0.00    +0.012 A  
DOCKED: ATOM     10  C   UNL     1     140.606  71.171 225.847 -0.55 -0.01    +0.071 A  
DOCKED: ATOM     11  C   UNL     1     139.955  69.918 225.843 -0.48 -0.00    +0.000 A  
DOCKED: ATOM     12  C   UNL     1     141.139  71.678 227.038 -0.74 -0.00    +0.029 A  
DOCKED: ATOM     13  C   UNL     1     139.839  69.190 227.036 -0.56 -0.00    +0.010 A  
DOCKED: ATOM     14  C   UNL     1     141.014  70.949 228.225 -0.66 -0.00    +0.002 A  
DOCKED: ATOM     15  C   UNL     1     140.367  69.709 228.224 -0.61 -0.00    +0.001 A  
DOCKED: ENDBRANCH   4   6
DOCKED: ENDBRANCH   3   4
DOCKED: ENDBRANCH   2   3
DOCKED: BRANCH   2  16
DOCKED: ATOM     16  C   UNL     1     140.535  75.872 221.283 -0.29 +0.02    -0.062 A  
DOCKED: ATOM     17  C   UNL     1     141.412  76.334 220.257 -0.26 -0.00    +0.004 A  
DOCKED: ATOM     18  C   UNL     1     140.327  76.681 222.425 -0.38 -0.00    +0.012 A  
DOCKED: ATOM     19  C   UNL     1     142.062  77.576 220.367 -0.29 -0.02    +0.027 A  
DOCKED: ATOM     20  C   UNL     1     140.984  77.907 222.496 -0.46 +0.00    -0.000 A  
DOCKED: ATOM     21  C   UNL     1     141.821  78.338 221.505 -0.33 -0.03    +0.045 A  
DOCKED: ATOM     22  C   UNL     1     140.939  78.892 223.457 -0.50 -0.01    +0.028 A  
DOCKED: ATOM     23  N   UNL     1     142.312  79.555 221.791 -0.16 +0.19    -0.361 N  
DOCKED: ATOM     24  C   UNL     1     141.775  79.899 222.984 -0.51 -0.02    +0.083 A  
DOCKED: ATOM     25  H   UNL     1     142.963  80.127 221.209 -0.36 -0.10    +0.166 HD 
DOCKED: ENDBRANCH   2  16
DOCKED: TORSDOF 4
DOCKED: TER
DOCKED: ENDMDL
________________________________________________________________________________


    FINAL DOCKED STATE:
    ________________________


Run:   3 / 20
Time taken for this run:   0.030s

DOCKED: MODEL        3
DOCKED: USER    Run = 3
DOCKED: USER
DOCKED: USER    Estimated Free Energy of Binding    =  -8.58 kcal/mol  [=(1)+(2)+(3)-(4)]
DOCKED: USER
DOCKED: USER    (1) Final Intermolecular Energy     =  -9.77 kcal/mol
DOCKED: USER        vdW + Hbond + desolv Energy     =  -9.84 kcal/mol
DOCKED: USER        Electrostatic Energy            =  +0.08 kcal/mol
DOCKED: USER        Moving Ligand-Fixed Receptor    =  -9.77 kcal/mol
DOCKED: USER        Moving Ligand-Moving Receptor   =  +0.00 kcal/mol
DOCKED: USER    (2) Final Total Internal Energy     =  -0.54 kcal/mol
DOCKED: USER    (3) Torsional Free Energy           =  +1.19 kcal/mol
DOCKED: USER    (4) Unbound System's Energy         =  -0.54 kcal/mol
DOCKED: USER
DOCKED: USER
DOCKED: REMARK SMILES C[C@H]([N-]C(=O)c1ccc2ccccc2n1)c1ccc2[nH]ccc2c1
DOCKED: REMARK SMILES IDX 1 1 2 2 3 3 4 4 5 5 6 6 7 7 15 8 8 9 14 10 9 11 13 12 10 13
DOCKED: REMARK SMILES IDX 12 14 11 15 16 16 17 17 24 18 18 19 23 20 19 21 22 22 20 23
DOCKED: REMARK SMILES IDX 21 24
DOCKED: REMARK H PARENT 20 25
DOCKED: USER                              x       y       z     vdW  Elec       q    Type
DOCKED: USER                           _______ _______ _______ _____ _____    ______ ____
DOCKED: ROOT
DOCKED: ATOM      1  C   UNL     1     138.178  74.759 221.875 -0.20 +0.00    -0.008 C  
DOCKED: ATOM      2  C   UNL     1     139.660  74.639 221.500 -0.25 +0.01    -0.079 C  
DOCKED: ENDROOT
DOCKED: BRANCH   2   3
DOCKED: ATOM      3  N   UNL     1     140.304  73.615 222.329 -0.57 +0.00    -0.642 NA 
DOCKED: BRANCH   3   4
DOCKED: ATOM      4  C   UNL     1     140.051  72.203 222.295 -0.27 -0.01    +0.101 C  
DOCKED: ATOM      5  O   UNL     1     139.865  71.642 221.184 -0.08 +0.05    -0.313 OA 
DOCKED: BRANCH   4   6
DOCKED: ATOM      6  C   UNL     1     140.043  71.387 223.514 -0.34 -0.01    +0.088 A  
DOCKED: ATOM      7  C   UNL     1     139.539  70.080 223.495 -0.27 -0.01    +0.031 A  
DOCKED: ATOM      8  N   UNL     1     140.554  71.902 224.665 -0.25 +0.04    -0.246 NA 
DOCKED: ATOM      9  C   UNL     1     139.528  69.332 224.673 -0.36 -0.00    +0.012 A  
DOCKED: ATOM     10  C   UNL     1     140.566  71.193 225.824 -0.54 -0.01    +0.071 A  
DOCKED: ATOM     11  C   UNL     1     140.037  69.884 225.855 -0.49 -0.00    +0.000 A  
DOCKED: ATOM     12  C   UNL     1     141.086  71.765 226.991 -0.75 -0.00    +0.029 A  
DOCKED: ATOM     13  C   UNL     1     140.027  69.167 227.061 -0.58 -0.00    +0.010 A  
DOCKED: ATOM     14  C   UNL     1     141.067  71.046 228.190 -0.69 -0.00    +0.002 A  
DOCKED: ATOM     15  C   UNL     1     140.539  69.751 228.225 -0.61 -0.00    +0.001 A  
DOCKED: ENDBRANCH   4   6
DOCKED: ENDBRANCH   3   4
DOCKED: ENDBRANCH   2   3
DOCKED: BRANCH   2  16
DOCKED: ATOM     16  C   UNL     1     140.441  75.945 221.514 -0.31 +0.02    -0.062 A  
DOCKED: ATOM     17  C   UNL     1     141.249  76.374 220.419 -0.26 -0.00    +0.004 A  
DOCKED: ATOM     18  C   UNL     1     140.341  76.770 222.659 -0.32 -0.00    +0.012 A  
DOCKED: ATOM     19  C   UNL     1     141.936  77.600 220.466 -0.30 -0.02    +0.027 A  
DOCKED: ATOM     20  C   UNL     1     141.032  77.979 222.666 -0.48 +0.00    -0.000 A  
DOCKED: ATOM     21  C   UNL     1     141.802  78.379 221.609 -0.34 -0.03    +0.045 A  
DOCKED: ATOM     22  C   UNL     1     141.085  78.975 223.616 -0.53 -0.01    +0.028 A  
DOCKED: ATOM     23  N   UNL     1     142.343  79.586 221.843 -0.17 +0.19    -0.361 N  
DOCKED: ATOM     24  C   UNL     1     141.908  79.955 223.069 -0.53 -0.02    +0.083 A  
DOCKED: ATOM     25  H   UNL     1     142.962  80.135 221.206 -0.36 -0.10    +0.166 HD 
DOCKED: ENDBRANCH   2  16
DOCKED: TORSDOF 4
DOCKED: TER
DOCKED: ENDMDL
________________________________________________________________________________


    FINAL DOCKED STATE:
    ________________________


Run:   4 / 20
Time taken for this run:   0.030s

DOCKED: MODEL        4
DOCKED: USER    Run = 4
DOCKED: USER
DOCKED: USER    Estimated Free Energy of Binding    =  -7.89 kcal/mol  [=(1)+(2)+(3)-(4)]
DOCKED: USER
DOCKED: USER    (1) Final Intermolecular Energy     =  -9.08 kcal/mol
DOCKED: USER        vdW + Hbond + desolv Energy     =  -9.11 kcal/mol
DOCKED: USER        Electrostatic Energy            =  +0.03 kcal/mol
DOCKED: USER        Moving Ligand-Fixed Receptor    =  -9.08 kcal/mol
DOCKED: USER        Moving Ligand-Moving Receptor   =  +0.00 kcal/mol
DOCKED: USER    (2) Final Total Internal Energy     =  -0.78 kcal/mol
DOCKED: USER    (3) Torsional Free Energy           =  +1.19 kcal/mol
DOCKED: USER    (4) Unbound System's Energy         =  -0.78 kcal/mol
DOCKED: USER
DOCKED: USER
DOCKED: REMARK SMILES C[C@H]([N-]C(=O)c1ccc2ccccc2n1)c1ccc2[nH]ccc2c1
DOCKED: REMARK SMILES IDX 1 1 2 2 3 3 4 4 5 5 6 6 7 7 15 8 8 9 14 10 9 11 13 12 10 13
DOCKED: REMARK SMILES IDX 12 14 11 15 16 16 17 17 24 18 18 19 23 20 19 21 22 22 20 23
DOCKED: REMARK SMILES IDX 21 24
DOCKED: REMARK H PARENT 20 25
DOCKED: USER                              x       y       z     vdW  Elec       q    Type
DOCKED: USER                           _______ _______ _______ _____ _____    ______ ____
DOCKED: ROOT
DOCKED: ATOM      1  C   UNL     1     140.951  69.901 219.303 -0.09 +0.00    -0.008 C  
DOCKED: ATOM      2  C   UNL     1     141.499  70.776 220.438 -0.07 +0.01    -0.079 C  
DOCKED: ENDROOT
DOCKED: BRANCH   2   3
DOCKED: ATOM      3  N   UNL     1     140.444  71.663 220.939 +0.02 +0.10    -0.642 NA 
DOCKED: BRANCH   3   4
DOCKED: ATOM      4  C   UNL     1     140.368  72.251 222.245 -0.27 -0.01    +0.101 C  
DOCKED: ATOM      5  O   UNL     1     140.395  73.504 222.354 -0.76 -0.00    -0.313 OA 
DOCKED: BRANCH   4   6
DOCKED: ATOM      6  C   UNL     1     140.219  71.435 223.455 -0.34 -0.01    +0.088 A  
DOCKED: ATOM      7  C   UNL     1     139.581  70.189 223.403 -0.26 -0.01    +0.031 A  
DOCKED: ATOM      8  N   UNL     1     140.730  71.889 224.632 -0.24 +0.03    -0.246 NA 
DOCKED: ATOM      9  C   UNL     1     139.439  69.442 224.574 -0.35 -0.00    +0.012 A  
DOCKED: ATOM     10  C   UNL     1     140.616  71.178 225.785 -0.55 -0.01    +0.071 A  
DOCKED: ATOM     11  C   UNL     1     139.950  69.933 225.781 -0.48 -0.00    +0.000 A  
DOCKED: ATOM     12  C   UNL     1     141.140  71.687 226.979 -0.73 -0.00    +0.029 A  
DOCKED: ATOM     13  C   UNL     1     139.811  69.215 226.979 -0.56 -0.00    +0.010 A  
DOCKED: ATOM     14  C   UNL     1     140.992  70.969 228.169 -0.68 -0.00    +0.002 A  
DOCKED: ATOM     15  C   UNL     1     140.330  69.737 228.170 -0.62 -0.00    +0.001 A  
DOCKED: ENDBRANCH   4   6
DOCKED: ENDBRANCH   3   4
DOCKED: ENDBRANCH   2   3
DOCKED: BRANCH   2  16
DOCKED: ATOM     16  C   UNL     1     142.770  71.544 220.109 -0.19 +0.01    -0.062 A  
DOCKED: ATOM     17  C   UNL     1     143.096  71.967 218.786 -0.11 -0.00    +0.004 A  
DOCKED: ATOM     18  C   UNL     1     143.652  71.862 221.170 -0.18 -0.00    +0.012 A  
DOCKED: ATOM     19  C   UNL     1     144.272  72.695 218.530 -0.18 +0.00    +0.027 A  
DOCKED: ATOM     20  C   UNL     1     144.803  72.588 220.878 -0.44 +0.00    -0.000 A  
DOCKED: ATOM     21  C   UNL     1     145.104  72.989 219.605 -0.38 +0.00    +0.045 A  
DOCKED: ATOM     22  C   UNL     1     145.801  73.056 221.704 -0.56 -0.01    +0.028 A  
DOCKED: ATOM     23  N   UNL     1     146.247  73.693 219.584 -0.07 -0.07    -0.361 N  
DOCKED: ATOM     24  C   UNL     1     146.678  73.737 220.865 -0.50 +0.01    +0.083 A  
DOCKED: ATOM     25  H   UNL     1     146.706  74.129 218.754 -0.52 +0.01    +0.166 HD 
DOCKED: ENDBRANCH   2  16
DOCKED: TORSDOF 4
DOCKED: TER
DOCKED: ENDMDL
________________________________________________________________________________


    FINAL DOCKED STATE:
    ________________________


Run:   5 / 20
Time taken for this run:   0.030s

DOCKED: MODEL        5
DOCKED: USER    Run = 5
DOCKED: USER
DOCKED: USER    Estimated Free Energy of Binding    =  -7.52 kcal/mol  [=(1)+(2)+(3)-(4)]
DOCKED: USER
DOCKED: USER    (1) Final Intermolecular Energy     =  -8.71 kcal/mol
DOCKED: USER        vdW + Hbond + desolv Energy     =  -8.84 kcal/mol
DOCKED: USER        Electrostatic Energy            =  +0.12 kcal/mol
DOCKED: USER        Moving Ligand-Fixed Receptor    =  -8.71 kcal/mol
DOCKED: USER        Moving Ligand-Moving Receptor   =  +0.00 kcal/mol
DOCKED: USER    (2) Final Total Internal Energy     =  -0.71 kcal/mol
DOCKED: USER    (3) Torsional Free Energy           =  +1.19 kcal/mol
DOCKED: USER    (4) Unbound System's Energy         =  -0.71 kcal/mol
DOCKED: USER
DOCKED: USER
DOCKED: REMARK SMILES C[C@H]([N-]C(=O)c1ccc2ccccc2n1)c1ccc2[nH]ccc2c1
DOCKED: REMARK SMILES IDX 1 1 2 2 3 3 4 4 5 5 6 6 7 7 15 8 8 9 14 10 9 11 13 12 10 13
DOCKED: REMARK SMILES IDX 12 14 11 15 16 16 17 17 24 18 18 19 23 20 19 21 22 22 20 23
DOCKED: REMARK SMILES IDX 21 24
DOCKED: REMARK H PARENT 20 25
DOCKED: USER                              x       y       z     vdW  Elec       q    Type
DOCKED: USER                           _______ _______ _______ _____ _____    ______ ____
DOCKED: ROOT
DOCKED: ATOM      1  C   UNL     1     137.160  74.652 222.340 -0.14 +0.00    -0.008 C  
DOCKED: ATOM      2  C   UNL     1     138.329  74.430 221.372 -0.16 +0.02    -0.079 C  
DOCKED: ENDROOT
DOCKED: BRANCH   2   3
DOCKED: ATOM      3  N   UNL     1     138.898  73.093 221.575 -0.02 +0.14    -0.642 NA 
DOCKED: BRANCH   3   4
DOCKED: ATOM      4  C   UNL     1     139.974  72.746 222.458 -0.24 -0.01    +0.101 C  
DOCKED: ATOM      5  O   UNL     1     141.073  73.351 222.350 -0.54 -0.02    -0.313 OA 
DOCKED: BRANCH   4   6
DOCKED: ATOM      6  C   UNL     1     139.820  71.736 223.509 -0.32 -0.02    +0.088 A  
DOCKED: ATOM      7  C   UNL     1     139.021  70.604 223.300 -0.27 -0.01    +0.031 A  
DOCKED: ATOM      8  N   UNL     1     140.482  71.893 224.687 -0.26 +0.04    -0.246 NA 
DOCKED: ATOM      9  C   UNL     1     138.878  69.666 224.324 -0.33 -0.00    +0.012 A  
DOCKED: ATOM     10  C   UNL     1     140.370  70.991 225.698 -0.52 -0.01    +0.071 A  
DOCKED: ATOM     11  C   UNL     1     139.547  69.854 225.540 -0.44 -0.00    +0.000 A  
DOCKED: ATOM     12  C   UNL     1     141.054  71.197 226.902 -0.68 -0.00    +0.029 A  
DOCKED: ATOM     13  C   UNL     1     139.414  68.940 226.596 -0.52 -0.00    +0.010 A  
DOCKED: ATOM     14  C   UNL     1     140.911  70.285 227.952 -0.63 -0.00    +0.002 A  
DOCKED: ATOM     15  C   UNL     1     140.094  69.160 227.800 -0.63 -0.00    +0.001 A  
DOCKED: ENDBRANCH   4   6
DOCKED: ENDBRANCH   3   4
DOCKED: ENDBRANCH   2   3
DOCKED: BRANCH   2  16
DOCKED: ATOM     16  C   UNL     1     139.403  75.507 221.394 -0.24 +0.01    -0.062 A  
DOCKED: ATOM     17  C   UNL     1     140.464  75.560 220.441 -0.19 -0.00    +0.004 A  
DOCKED: ATOM     18  C   UNL     1     139.328  76.504 222.395 -0.33 -0.00    +0.012 A  
DOCKED: ATOM     19  C   UNL     1     141.424  76.587 220.486 -0.27 -0.01    +0.027 A  
DOCKED: ATOM     20  C   UNL     1     140.294  77.507 222.403 -0.40 +0.00    -0.000 A  
DOCKED: ATOM     21  C   UNL     1     141.305  77.547 221.484 -0.31 -0.02    +0.045 A  
DOCKED: ATOM     22  C   UNL     1     140.441  78.602 223.227 -0.39 -0.01    +0.028 A  
DOCKED: ATOM     23  N   UNL     1     142.090  78.619 221.683 -0.14 +0.23    -0.361 N  
DOCKED: ATOM     24  C   UNL     1     141.565  79.268 222.748 -0.47 -0.03    +0.083 A  
DOCKED: ATOM     25  H   UNL     1     142.925  78.903 221.125 -0.41 -0.18    +0.166 HD 
DOCKED: ENDBRANCH   2  16
DOCKED: TORSDOF 4
DOCKED: TER
DOCKED: ENDMDL
________________________________________________________________________________


    FINAL DOCKED STATE:
    ________________________


Run:   6 / 20
Time taken for this run:   0.030s

DOCKED: MODEL        6
DOCKED: USER    Run = 6
DOCKED: USER
DOCKED: USER    Estimated Free Energy of Binding    =  -8.01 kcal/mol  [=(1)+(2)+(3)-(4)]
DOCKED: USER
DOCKED: USER    (1) Final Intermolecular Energy     =  -9.20 kcal/mol
DOCKED: USER        vdW + Hbond + desolv Energy     =  -9.26 kcal/mol
DOCKED: USER        Electrostatic Energy            =  +0.06 kcal/mol
DOCKED: USER        Moving Ligand-Fixed Receptor    =  -9.20 kcal/mol
DOCKED: USER        Moving Ligand-Moving Receptor   =  +0.00 kcal/mol
DOCKED: USER    (2) Final Total Internal Energy     =  -0.56 kcal/mol
DOCKED: USER    (3) Torsional Free Energy           =  +1.19 kcal/mol
DOCKED: USER    (4) Unbound System's Energy         =  -0.56 kcal/mol
DOCKED: USER
DOCKED: USER
DOCKED: REMARK SMILES C[C@H]([N-]C(=O)c1ccc2ccccc2n1)c1ccc2[nH]ccc2c1
DOCKED: REMARK SMILES IDX 1 1 2 2 3 3 4 4 5 5 6 6 7 7 15 8 8 9 14 10 9 11 13 12 10 13
DOCKED: REMARK SMILES IDX 12 14 11 15 16 16 17 17 24 18 18 19 23 20 19 21 22 22 20 23
DOCKED: REMARK SMILES IDX 21 24
DOCKED: REMARK H PARENT 20 25
DOCKED: USER                              x       y       z     vdW  Elec       q    Type
DOCKED: USER                           _______ _______ _______ _____ _____    ______ ____
DOCKED: ROOT
DOCKED: ATOM      1  C   UNL     1     139.982  73.378 219.589 -0.07 +0.00    -0.008 C  
DOCKED: ATOM      2  C   UNL     1     140.994  72.245 219.806 -0.09 +0.01    -0.079 C  
DOCKED: ENDROOT
DOCKED: BRANCH   2   3
DOCKED: ATOM      3  N   UNL     1     140.719  71.568 221.078 +0.02 +0.09    -0.642 NA 
DOCKED: BRANCH   3   4
DOCKED: ATOM      4  C   UNL     1     140.415  72.193 222.332 -0.28 -0.01    +0.101 C  
DOCKED: ATOM      5  O   UNL     1     140.267  73.442 222.373 -0.77 +0.01    -0.313 OA 
DOCKED: BRANCH   4   6
DOCKED: ATOM      6  C   UNL     1     140.231  71.415 223.562 -0.35 -0.01    +0.088 A  
DOCKED: ATOM      7  C   UNL     1     139.576  70.177 223.533 -0.28 -0.01    +0.031 A  
DOCKED: ATOM      8  N   UNL     1     140.726  71.894 224.735 -0.25 +0.03    -0.246 NA 
DOCKED: ATOM      9  C   UNL     1     139.401  69.465 224.722 -0.36 -0.00    +0.012 A  
DOCKED: ATOM     10  C   UNL     1     140.580  71.219 225.905 -0.55 -0.01    +0.071 A  
DOCKED: ATOM     11  C   UNL     1     139.896  69.983 225.924 -0.49 -0.00    +0.000 A  
DOCKED: ATOM     12  C   UNL     1     141.089  71.755 227.094 -0.76 -0.01    +0.029 A  
DOCKED: ATOM     13  C   UNL     1     139.723  69.303 227.139 -0.56 -0.00    +0.010 A  
DOCKED: ATOM     14  C   UNL     1     140.907  71.073 228.302 -0.67 -0.00    +0.002 A  
DOCKED: ATOM     15  C   UNL     1     140.227  69.851 228.324 -0.60 -0.00    +0.001 A  
DOCKED: ENDBRANCH   4   6
DOCKED: ENDBRANCH   3   4
DOCKED: ENDBRANCH   2   3
DOCKED: BRANCH   2  16
DOCKED: ATOM     16  C   UNL     1     142.456  72.651 219.690 -0.15 +0.01    -0.062 A  
DOCKED: ATOM     17  C   UNL     1     143.036  73.110 218.470 -0.11 -0.00    +0.004 A  
DOCKED: ATOM     18  C   UNL     1     143.262  72.582 220.851 -0.29 -0.00    +0.012 A  
DOCKED: ATOM     19  C   UNL     1     144.387  73.495 218.413 -0.20 -0.00    +0.027 A  
DOCKED: ATOM     20  C   UNL     1     144.593  72.977 220.757 -0.47 +0.00    -0.000 A  
DOCKED: ATOM     21  C   UNL     1     145.137  73.417 219.581 -0.40 -0.00    +0.045 A  
DOCKED: ATOM     22  C   UNL     1     145.578  73.045 221.717 -0.45 -0.01    +0.028 A  
DOCKED: ATOM     23  N   UNL     1     146.423  73.762 219.749 -0.13 -0.07    -0.361 N  
DOCKED: ATOM     24  C   UNL     1     146.698  73.537 221.055 -0.48 +0.01    +0.083 A  
DOCKED: ATOM     25  H   UNL     1     147.076  74.140 219.028 -0.53 +0.04    +0.166 HD 
DOCKED: ENDBRANCH   2  16
DOCKED: TORSDOF 4
DOCKED: TER
DOCKED: ENDMDL
________________________________________________________________________________


    FINAL DOCKED STATE:
    ________________________


Run:   7 / 20
Time taken for this run:   0.030s

DOCKED: MODEL        7
DOCKED: USER    Run = 7
DOCKED: USER
DOCKED: USER    Estimated Free Energy of Binding    =  -7.50 kcal/mol  [=(1)+(2)+(3)-(4)]
DOCKED: USER
DOCKED: USER    (1) Final Intermolecular Energy     =  -8.69 kcal/mol
DOCKED: USER        vdW + Hbond + desolv Energy     =  -8.75 kcal/mol
DOCKED: USER        Electrostatic Energy            =  +0.06 kcal/mol
DOCKED: USER        Moving Ligand-Fixed Receptor    =  -8.69 kcal/mol
DOCKED: USER        Moving Ligand-Moving Receptor   =  +0.00 kcal/mol
DOCKED: USER    (2) Final Total Internal Energy     =  -0.73 kcal/mol
DOCKED: USER    (3) Torsional Free Energy           =  +1.19 kcal/mol
DOCKED: USER    (4) Unbound System's Energy         =  -0.73 kcal/mol
DOCKED: USER
DOCKED: USER
DOCKED: REMARK SMILES C[C@H]([N-]C(=O)c1ccc2ccccc2n1)c1ccc2[nH]ccc2c1
DOCKED: REMARK SMILES IDX 1 1 2 2 3 3 4 4 5 5 6 6 7 7 15 8 8 9 14 10 9 11 13 12 10 13
DOCKED: REMARK SMILES IDX 12 14 11 15 16 16 17 17 24 18 18 19 23 20 19 21 22 22 20 23
DOCKED: REMARK SMILES IDX 21 24
DOCKED: REMARK H PARENT 20 25
DOCKED: USER                              x       y       z     vdW  Elec       q    Type
DOCKED: USER                           _______ _______ _______ _____ _____    ______ ____
DOCKED: ROOT
DOCKED: ATOM      1  C   UNL     1     138.729  68.927 222.628 -0.22 +0.00    -0.008 C  
DOCKED: ATOM      2  C   UNL     1     137.994  68.870 223.973 -0.25 +0.01    -0.079 C  
DOCKED: ENDROOT
DOCKED: BRANCH   2   3
DOCKED: ATOM      3  N   UNL     1     136.812  69.736 223.934 +0.02 +0.07    -0.642 NA 
DOCKED: BRANCH   3   4
DOCKED: ATOM      4  C   UNL     1     135.553  69.496 224.578 -0.19 -0.01    +0.101 C  
DOCKED: ATOM      5  O   UNL     1     135.070  68.333 224.563 -0.60 -0.03    -0.313 OA 
DOCKED: BRANCH   4   6
DOCKED: ATOM      6  C   UNL     1     134.830  70.556 225.288 -0.19 -0.01    +0.088 A  
DOCKED: ATOM      7  C   UNL     1     133.952  70.244 226.335 -0.33 -0.00    +0.031 A  
DOCKED: ATOM      8  N   UNL     1     135.037  71.854 224.939 -0.10 +0.02    -0.246 NA 
DOCKED: ATOM      9  C   UNL     1     133.265  71.273 226.983 -0.41 -0.00    +0.012 A  
DOCKED: ATOM     10  C   UNL     1     134.390  72.876 225.558 -0.24 -0.00    +0.071 A  
DOCKED: ATOM     11  C   UNL     1     133.471  72.602 226.595 -0.39 -0.00    +0.000 A  
DOCKED: ATOM     12  C   UNL     1     134.618  74.198 225.157 -0.32 -0.00    +0.029 A  
DOCKED: ATOM     13  C   UNL     1     132.785  73.659 227.214 -0.39 -0.00    +0.010 A  
DOCKED: ATOM     14  C   UNL     1     133.926  75.244 225.774 -0.36 -0.00    +0.002 A  
DOCKED: ATOM     15  C   UNL     1     133.013  74.976 226.799 -0.38 +0.00    +0.001 A  
DOCKED: ENDBRANCH   4   6
DOCKED: ENDBRANCH   3   4
DOCKED: ENDBRANCH   2   3
DOCKED: BRANCH   2  16
DOCKED: ATOM     16  C   UNL     1     138.856  69.151 225.195 -0.37 +0.01    -0.062 A  
DOCKED: ATOM     17  C   UNL     1     139.233  68.136 226.125 -0.56 -0.00    +0.004 A  
DOCKED: ATOM     18  C   UNL     1     139.313  70.474 225.400 -0.37 -0.00    +0.012 A  
DOCKED: ATOM     19  C   UNL     1     140.050  68.436 227.230 -0.63 -0.01    +0.027 A  
DOCKED: ATOM     20  C   UNL     1     140.124  70.731 226.503 -0.55 +0.00    -0.000 A  
DOCKED: ATOM     21  C   UNL     1     140.479  69.749 227.386 -0.56 -0.01    +0.045 A  
DOCKED: ATOM     22  C   UNL     1     140.727  71.898 226.919 -0.71 -0.01    +0.028 A  
DOCKED: ATOM     23  N   UNL     1     141.282  70.237 228.345 -0.18 +0.07    -0.361 N  
DOCKED: ATOM     24  C   UNL     1     141.437  71.551 228.064 -0.60 -0.02    +0.083 A  
DOCKED: ATOM     25  H   UNL     1     141.711  69.711 229.138 +0.10 -0.04    +0.166 HD 
DOCKED: ENDBRANCH   2  16
DOCKED: TORSDOF 4
DOCKED: TER
DOCKED: ENDMDL
________________________________________________________________________________


    FINAL DOCKED STATE:
    ________________________


Run:   8 / 20
Time taken for this run:   0.030s

DOCKED: MODEL        8
DOCKED: USER    Run = 8
DOCKED: USER
DOCKED: USER    Estimated Free Energy of Binding    =  -8.47 kcal/mol  [=(1)+(2)+(3)-(4)]
DOCKED: USER
DOCKED: USER    (1) Final Intermolecular Energy     =  -9.67 kcal/mol
DOCKED: USER        vdW + Hbond + desolv Energy     =  -9.74 kcal/mol
DOCKED: USER        Electrostatic Energy            =  +0.08 kcal/mol
DOCKED: USER        Moving Ligand-Fixed Receptor    =  -9.67 kcal/mol
DOCKED: USER        Moving Ligand-Moving Receptor   =  +0.00 kcal/mol
DOCKED: USER    (2) Final Total Internal Energy     =  -0.57 kcal/mol
DOCKED: USER    (3) Torsional Free Energy           =  +1.19 kcal/mol
DOCKED: USER    (4) Unbound System's Energy         =  -0.57 kcal/mol
DOCKED: USER
DOCKED: USER
DOCKED: REMARK SMILES C[C@H]([N-]C(=O)c1ccc2ccccc2n1)c1ccc2[nH]ccc2c1
DOCKED: REMARK SMILES IDX 1 1 2 2 3 3 4 4 5 5 6 6 7 7 15 8 8 9 14 10 9 11 13 12 10 13
DOCKED: REMARK SMILES IDX 12 14 11 15 16 16 17 17 24 18 18 19 23 20 19 21 22 22 20 23
DOCKED: REMARK SMILES IDX 21 24
DOCKED: REMARK H PARENT 20 25
DOCKED: USER                              x       y       z     vdW  Elec       q    Type
DOCKED: USER                           _______ _______ _______ _____ _____    ______ ____
DOCKED: ROOT
DOCKED: ATOM      1  C   UNL     1     138.449  74.944 221.960 -0.23 +0.00    -0.008 C  
DOCKED: ATOM      2  C   UNL     1     139.889  74.876 221.435 -0.26 +0.01    -0.079 C  
DOCKED: ENDROOT
DOCKED: BRANCH   2   3
DOCKED: ATOM      3  N   UNL     1     140.611  73.785 222.098 -0.53 -0.00    -0.642 NA 
DOCKED: BRANCH   3   4
DOCKED: ATOM      4  C   UNL     1     140.246  72.398 222.107 -0.27 -0.01    +0.101 C  
DOCKED: ATOM      5  O   UNL     1     140.100  71.797 221.010 -0.08 +0.05    -0.313 OA 
DOCKED: BRANCH   4   6
DOCKED: ATOM      6  C   UNL     1     140.077  71.648 223.356 -0.33 -0.01    +0.088 A  
DOCKED: ATOM      7  C   UNL     1     139.300  70.482 223.390 -0.28 -0.01    +0.031 A  
DOCKED: ATOM      8  N   UNL     1     140.703  72.081 224.483 -0.10 +0.03    -0.246 NA 
DOCKED: ATOM      9  C   UNL     1     139.143  69.798 224.596 -0.35 -0.00    +0.012 A  
DOCKED: ATOM     10  C   UNL     1     140.577  71.429 225.669 -0.53 -0.01    +0.071 A  
DOCKED: ATOM     11  C   UNL     1     139.775  70.269 225.753 -0.48 -0.00    +0.000 A  
DOCKED: ATOM     12  C   UNL     1     141.224  71.916 226.811 -0.73 -0.00    +0.029 A  
DOCKED: ATOM     13  C   UNL     1     139.626  69.615 226.986 -0.53 -0.00    +0.010 A  
DOCKED: ATOM     14  C   UNL     1     141.065  71.262 228.037 -0.76 -0.00    +0.002 A  
DOCKED: ATOM     15  C   UNL     1     140.269  70.115 228.124 -0.62 -0.00    +0.001 A  
DOCKED: ENDBRANCH   4   6
DOCKED: ENDBRANCH   3   4
DOCKED: ENDBRANCH   2   3
DOCKED: BRANCH   2  16
DOCKED: ATOM     16  C   UNL     1     140.665  76.183 221.497 -0.32 +0.02    -0.062 A  
DOCKED: ATOM     17  C   UNL     1     141.417  76.689 220.395 -0.28 -0.00    +0.004 A  
DOCKED: ATOM     18  C   UNL     1     140.619  76.930 222.698 -0.36 -0.00    +0.012 A  
DOCKED: ATOM     19  C   UNL     1     142.102  77.913 220.489 -0.26 -0.02    +0.027 A  
DOCKED: ATOM     20  C   UNL     1     141.306  78.140 222.752 -0.48 +0.00    -0.000 A  
DOCKED: ATOM     21  C   UNL     1     142.022  78.614 221.688 -0.31 -0.03    +0.045 A  
DOCKED: ATOM     22  C   UNL     1     141.403  79.071 223.762 -0.58 -0.01    +0.028 A  
DOCKED: ATOM     23  N   UNL     1     142.570  79.806 221.974 -0.20 +0.18    -0.361 N  
DOCKED: ATOM     24  C   UNL     1     142.194  80.090 223.242 -0.57 -0.02    +0.083 A  
DOCKED: ATOM     25  H   UNL     1     143.155  80.400 221.346 -0.29 -0.09    +0.166 HD 
DOCKED: ENDBRANCH   2  16
DOCKED: TORSDOF 4
DOCKED: TER
DOCKED: ENDMDL
________________________________________________________________________________


    FINAL DOCKED STATE:
    ________________________


Run:   9 / 20
Time taken for this run:   0.030s

DOCKED: MODEL        9
DOCKED: USER    Run = 9
DOCKED: USER
DOCKED: USER    Estimated Free Energy of Binding    =  -7.03 kcal/mol  [=(1)+(2)+(3)-(4)]
DOCKED: USER
DOCKED: USER    (1) Final Intermolecular Energy     =  -8.22 kcal/mol
DOCKED: USER        vdW + Hbond + desolv Energy     =  -8.51 kcal/mol
DOCKED: USER        Electrostatic Energy            =  +0.29 kcal/mol
DOCKED: USER        Moving Ligand-Fixed Receptor    =  -8.22 kcal/mol
DOCKED: USER        Moving Ligand-Moving Receptor   =  +0.00 kcal/mol
DOCKED: USER    (2) Final Total Internal Energy     =  -1.21 kcal/mol
DOCKED: USER    (3) Torsional Free Energy           =  +1.19 kcal/mol
DOCKED: USER    (4) Unbound System's Energy         =  -1.21 kcal/mol
DOCKED: USER
DOCKED: USER
DOCKED: REMARK SMILES C[C@H]([N-]C(=O)c1ccc2ccccc2n1)c1ccc2[nH]ccc2c1
DOCKED: REMARK SMILES IDX 1 1 2 2 3 3 4 4 5 5 6 6 7 7 15 8 8 9 14 10 9 11 13 12 10 13
DOCKED: REMARK SMILES IDX 12 14 11 15 16 16 17 17 24 18 18 19 23 20 19 21 22 22 20 23
DOCKED: REMARK SMILES IDX 21 24
DOCKED: REMARK H PARENT 20 25
DOCKED: USER                              x       y       z     vdW  Elec       q    Type
DOCKED: USER                           _______ _______ _______ _____ _____    ______ ____
DOCKED: ROOT
DOCKED: ATOM      1  C   UNL     1     143.237  74.018 219.940 -0.31 +0.00    -0.008 C  
DOCKED: ATOM      2  C   UNL     1     142.443  75.246 220.405 -0.26 +0.04    -0.079 C  
DOCKED: ENDROOT
DOCKED: BRANCH   2   3
DOCKED: ATOM      3  N   UNL     1     141.047  74.872 220.655 -0.00 +0.17    -0.642 NA 
DOCKED: BRANCH   3   4
DOCKED: ATOM      4  C   UNL     1     140.235  75.290 221.762 -0.27 -0.02    +0.101 C  
DOCKED: ATOM      5  O   UNL     1     139.570  74.426 222.392 -0.74 +0.04    -0.313 OA 
DOCKED: BRANCH   4   6
DOCKED: ATOM      6  C   UNL     1     140.186  76.687 222.205 -0.35 -0.02    +0.088 A  
DOCKED: ATOM      7  C   UNL     1     138.974  77.389 222.222 -0.28 -0.01    +0.031 A  
DOCKED: ATOM      8  N   UNL     1     141.329  77.293 222.625 -0.17 +0.11    -0.246 NA 
DOCKED: ATOM      9  C   UNL     1     138.959  78.723 222.633 -0.29 -0.00    +0.012 A  
DOCKED: ATOM     10  C   UNL     1     141.343  78.588 223.040 -0.50 -0.02    +0.071 A  
DOCKED: ATOM     11  C   UNL     1     140.148  79.340 223.040 -0.42 -0.00    +0.000 A  
DOCKED: ATOM     12  C   UNL     1     142.543  79.181 223.448 -0.48 -0.01    +0.029 A  
DOCKED: ATOM     13  C   UNL     1     140.173  80.684 223.444 -0.43 -0.00    +0.010 A  
DOCKED: ATOM     14  C   UNL     1     142.561  80.522 223.843 -0.68 -0.00    +0.002 A  
DOCKED: ATOM     15  C   UNL     1     141.380  81.271 223.841 -0.50 -0.00    +0.001 A  
DOCKED: ENDBRANCH   4   6
DOCKED: ENDBRANCH   3   4
DOCKED: ENDBRANCH   2   3
DOCKED: BRANCH   2  16
DOCKED: ATOM     16  C   UNL     1     142.545  76.465 219.500 -0.31 +0.04    -0.062 A  
DOCKED: ATOM     17  C   UNL     1     143.013  76.391 218.154 -0.29 -0.00    +0.004 A  
DOCKED: ATOM     18  C   UNL     1     142.140  77.717 220.019 -0.30 -0.01    +0.012 A  
DOCKED: ATOM     19  C   UNL     1     143.071  77.540 217.346 -0.25 -0.02    +0.027 A  
DOCKED: ATOM     20  C   UNL     1     142.207  78.831 219.186 -0.26 +0.00    -0.000 A  
DOCKED: ATOM     21  C   UNL     1     142.656  78.747 217.898 -0.30 -0.04    +0.045 A  
DOCKED: ATOM     22  C   UNL     1     141.851  80.142 219.414 -0.30 -0.02    +0.028 A  
DOCKED: ATOM     23  N   UNL     1     142.602  79.944 217.293 -0.09 +0.42    -0.361 N  
DOCKED: ATOM     24  C   UNL     1     142.110  80.802 218.216 -0.28 -0.06    +0.083 A  
DOCKED: ATOM     25  H   UNL     1     142.871  80.169 216.310 -0.46 -0.30    +0.166 HD 
DOCKED: ENDBRANCH   2  16
DOCKED: TORSDOF 4
DOCKED: TER
DOCKED: ENDMDL
________________________________________________________________________________


    FINAL DOCKED STATE:
    ________________________


Run:   10 / 20
Time taken for this run:   0.030s

DOCKED: MODEL        10
DOCKED: USER    Run = 10
DOCKED: USER
DOCKED: USER    Estimated Free Energy of Binding    =  -7.75 kcal/mol  [=(1)+(2)+(3)-(4)]
DOCKED: USER
DOCKED: USER    (1) Final Intermolecular Energy     =  -8.94 kcal/mol
DOCKED: USER        vdW + Hbond + desolv Energy     =  -9.04 kcal/mol
DOCKED: USER        Electrostatic Energy            =  +0.10 kcal/mol
DOCKED: USER        Moving Ligand-Fixed Receptor    =  -8.94 kcal/mol
DOCKED: USER        Moving Ligand-Moving Receptor   =  +0.00 kcal/mol
DOCKED: USER    (2) Final Total Internal Energy     =  -0.86 kcal/mol
DOCKED: USER    (3) Torsional Free Energy           =  +1.19 kcal/mol
DOCKED: USER    (4) Unbound System's Energy         =  -0.86 kcal/mol
DOCKED: USER
DOCKED: USER
DOCKED: REMARK SMILES C[C@H]([N-]C(=O)c1ccc2ccccc2n1)c1ccc2[nH]ccc2c1
DOCKED: REMARK SMILES IDX 1 1 2 2 3 3 4 4 5 5 6 6 7 7 15 8 8 9 14 10 9 11 13 12 10 13
DOCKED: REMARK SMILES IDX 12 14 11 15 16 16 17 17 24 18 18 19 23 20 19 21 22 22 20 23
DOCKED: REMARK SMILES IDX 21 24
DOCKED: REMARK H PARENT 20 25
DOCKED: USER                              x       y       z     vdW  Elec       q    Type
DOCKED: USER                           _______ _______ _______ _____ _____    ______ ____
DOCKED: ROOT
DOCKED: ATOM      1  C   UNL     1     139.890  73.358 218.861 -0.04 +0.00    -0.008 C  
DOCKED: ATOM      2  C   UNL     1     140.402  72.162 219.675 -0.06 +0.01    -0.079 C  
DOCKED: ENDROOT
DOCKED: BRANCH   2   3
DOCKED: ATOM      3  N   UNL     1     139.595  72.002 220.889 +0.03 +0.11    -0.642 NA 
DOCKED: BRANCH   3   4
DOCKED: ATOM      4  C   UNL     1     139.926  72.467 222.205 -0.26 -0.02    +0.101 C  
DOCKED: ATOM      5  O   UNL     1     140.207  73.683 222.370 -0.78 +0.00    -0.313 OA 
DOCKED: BRANCH   4   6
DOCKED: ATOM      6  C   UNL     1     139.908  71.576 223.370 -0.33 -0.02    +0.088 A  
DOCKED: ATOM      7  C   UNL     1     139.317  70.308 223.290 -0.26 -0.01    +0.031 A  
DOCKED: ATOM      8  N   UNL     1     140.493  71.983 224.529 -0.19 +0.04    -0.246 NA 
DOCKED: ATOM      9  C   UNL     1     139.300  69.488 224.420 -0.34 -0.00    +0.012 A  
DOCKED: ATOM     10  C   UNL     1     140.500  71.201 225.641 -0.53 -0.01    +0.071 A  
DOCKED: ATOM     11  C   UNL     1     139.886  69.930 225.612 -0.46 -0.00    +0.000 A  
DOCKED: ATOM     12  C   UNL     1     141.098  71.662 226.819 -0.73 -0.00    +0.029 A  
DOCKED: ATOM     13  C   UNL     1     139.872  69.138 226.770 -0.55 -0.00    +0.010 A  
DOCKED: ATOM     14  C   UNL     1     141.075  70.870 227.971 -0.70 -0.00    +0.002 A  
DOCKED: ATOM     15  C   UNL     1     140.464  69.612 227.947 -0.63 -0.00    +0.001 A  
DOCKED: ENDBRANCH   4   6
DOCKED: ENDBRANCH   3   4
DOCKED: ENDBRANCH   2   3
DOCKED: BRANCH   2  16
DOCKED: ATOM     16  C   UNL     1     141.891  72.181 219.988 -0.14 +0.01    -0.062 A  
DOCKED: ATOM     17  C   UNL     1     142.661  70.992 220.153 -0.18 -0.00    +0.004 A  
DOCKED: ATOM     18  C   UNL     1     142.533  73.437 220.104 -0.23 -0.00    +0.012 A  
DOCKED: ATOM     19  C   UNL     1     144.040  71.055 220.421 -0.17 -0.00    +0.027 A  
DOCKED: ATOM     20  C   UNL     1     143.900  73.460 220.364 -0.39 +0.00    -0.000 A  
DOCKED: ATOM     21  C   UNL     1     144.628  72.312 220.518 -0.37 -0.01    +0.045 A  
DOCKED: ATOM     22  C   UNL     1     144.771  74.520 220.491 -0.48 -0.01    +0.028 A  
DOCKED: ATOM     23  N   UNL     1     145.923  72.593 220.736 -0.23 -0.00    -0.361 N  
DOCKED: ATOM     24  C   UNL     1     146.016  73.942 220.719 -0.58 -0.01    +0.083 A  
DOCKED: ATOM     25  H   UNL     1     146.702  71.913 220.876 -0.45 +0.02    +0.166 HD 
DOCKED: ENDBRANCH   2  16
DOCKED: TORSDOF 4
DOCKED: TER
DOCKED: ENDMDL
________________________________________________________________________________


    FINAL DOCKED STATE:
    ________________________


Run:   11 / 20
Time taken for this run:   0.030s

DOCKED: MODEL        11
DOCKED: USER    Run = 11
DOCKED: USER
DOCKED: USER    Estimated Free Energy of Binding    =  -8.44 kcal/mol  [=(1)+(2)+(3)-(4)]
DOCKED: USER
DOCKED: USER    (1) Final Intermolecular Energy     =  -9.64 kcal/mol
DOCKED: USER        vdW + Hbond + desolv Energy     =  -9.69 kcal/mol
DOCKED: USER        Electrostatic Energy            =  +0.05 kcal/mol
DOCKED: USER        Moving Ligand-Fixed Receptor    =  -9.64 kcal/mol
DOCKED: USER        Moving Ligand-Moving Receptor   =  +0.00 kcal/mol
DOCKED: USER    (2) Final Total Internal Energy     =  -0.65 kcal/mol
DOCKED: USER    (3) Torsional Free Energy           =  +1.19 kcal/mol
DOCKED: USER    (4) Unbound System's Energy         =  -0.65 kcal/mol
DOCKED: USER
DOCKED: USER
DOCKED: REMARK SMILES C[C@H]([N-]C(=O)c1ccc2ccccc2n1)c1ccc2[nH]ccc2c1
DOCKED: REMARK SMILES IDX 1 1 2 2 3 3 4 4 5 5 6 6 7 7 15 8 8 9 14 10 9 11 13 12 10 13
DOCKED: REMARK SMILES IDX 12 14 11 15 16 16 17 17 24 18 18 19 23 20 19 21 22 22 20 23
DOCKED: REMARK SMILES IDX 21 24
DOCKED: REMARK H PARENT 20 25
DOCKED: USER                              x       y       z     vdW  Elec       q    Type
DOCKED: USER                           _______ _______ _______ _____ _____    ______ ____
DOCKED: ROOT
DOCKED: ATOM      1  C   UNL     1     139.827  75.777 221.450 -0.30 +0.00    -0.008 C  
DOCKED: ATOM      2  C   UNL     1     140.372  74.361 221.225 -0.25 +0.01    -0.079 C  
DOCKED: ENDROOT
DOCKED: BRANCH   2   3
DOCKED: ATOM      3  N   UNL     1     140.100  73.527 222.400 -0.55 +0.03    -0.642 NA 
DOCKED: BRANCH   3   4
DOCKED: ATOM      4  C   UNL     1     139.830  72.119 222.406 -0.27 -0.02    +0.101 C  
DOCKED: ATOM      5  O   UNL     1     139.537  71.547 221.323 -0.07 +0.05    -0.313 OA 
DOCKED: BRANCH   4   6
DOCKED: ATOM      6  C   UNL     1     139.923  71.316 223.630 -0.35 -0.02    +0.088 A  
DOCKED: ATOM      7  C   UNL     1     139.506  69.979 223.641 -0.27 -0.01    +0.031 A  
DOCKED: ATOM      8  N   UNL     1     140.444  71.875 224.756 -0.26 +0.04    -0.246 NA 
DOCKED: ATOM      9  C   UNL     1     139.592  69.243 224.825 -0.37 -0.00    +0.012 A  
DOCKED: ATOM     10  C   UNL     1     140.549  71.180 225.919 -0.55 -0.01    +0.071 A  
DOCKED: ATOM     11  C   UNL     1     140.108  69.840 225.982 -0.50 -0.00    +0.000 A  
DOCKED: ATOM     12  C   UNL     1     141.075  71.797 227.061 -0.76 -0.01    +0.029 A  
DOCKED: ATOM     13  C   UNL     1     140.193  69.135 227.192 -0.60 -0.00    +0.010 A  
DOCKED: ATOM     14  C   UNL     1     141.150  71.090 228.265 -0.65 -0.00    +0.002 A  
DOCKED: ATOM     15  C   UNL     1     140.712  69.764 228.330 -0.59 -0.00    +0.001 A  
DOCKED: ENDBRANCH   4   6
DOCKED: ENDBRANCH   3   4
DOCKED: ENDBRANCH   2   3
DOCKED: BRANCH   2  16
DOCKED: ATOM     16  C   UNL     1     141.835  74.289 220.811 -0.27 +0.01    -0.062 A  
DOCKED: ATOM     17  C   UNL     1     142.587  75.438 220.425 -0.27 -0.00    +0.004 A  
DOCKED: ATOM     18  C   UNL     1     142.472  73.025 220.830 -0.27 -0.00    +0.012 A  
DOCKED: ATOM     19  C   UNL     1     143.943  75.329 220.071 -0.39 -0.02    +0.027 A  
DOCKED: ATOM     20  C   UNL     1     143.818  72.958 220.478 -0.37 +0.00    -0.000 A  
DOCKED: ATOM     21  C   UNL     1     144.527  74.068 220.111 -0.44 -0.01    +0.045 A  
DOCKED: ATOM     22  C   UNL     1     144.681  71.885 220.441 -0.25 -0.00    +0.028 A  
DOCKED: ATOM     23  N   UNL     1     145.804  73.751 219.844 -0.20 +0.01    -0.361 N  
DOCKED: ATOM     24  C   UNL     1     145.904  72.417 220.045 -0.41 +0.03    +0.083 A  
DOCKED: ATOM     25  H   UNL     1     146.569  74.400 219.553 -0.49 -0.04    +0.166 HD 
DOCKED: ENDBRANCH   2  16
DOCKED: TORSDOF 4
DOCKED: TER
DOCKED: ENDMDL
________________________________________________________________________________


    FINAL DOCKED STATE:
    ________________________


Run:   12 / 20
Time taken for this run:   0.030s

DOCKED: MODEL        12
DOCKED: USER    Run = 12
DOCKED: USER
DOCKED: USER    Estimated Free Energy of Binding    =  -8.13 kcal/mol  [=(1)+(2)+(3)-(4)]
DOCKED: USER
DOCKED: USER    (1) Final Intermolecular Energy     =  -9.32 kcal/mol
DOCKED: USER        vdW + Hbond + desolv Energy     =  -9.45 kcal/mol
DOCKED: USER        Electrostatic Energy            =  +0.13 kcal/mol
DOCKED: USER        Moving Ligand-Fixed Receptor    =  -9.32 kcal/mol
DOCKED: USER        Moving Ligand-Moving Receptor   =  +0.00 kcal/mol
DOCKED: USER    (2) Final Total Internal Energy     =  -0.73 kcal/mol
DOCKED: USER    (3) Torsional Free Energy           =  +1.19 kcal/mol
DOCKED: USER    (4) Unbound System's Energy         =  -0.73 kcal/mol
DOCKED: USER
DOCKED: USER
DOCKED: REMARK SMILES C[C@H]([N-]C(=O)c1ccc2ccccc2n1)c1ccc2[nH]ccc2c1
DOCKED: REMARK SMILES IDX 1 1 2 2 3 3 4 4 5 5 6 6 7 7 15 8 8 9 14 10 9 11 13 12 10 13
DOCKED: REMARK SMILES IDX 12 14 11 15 16 16 17 17 24 18 18 19 23 20 19 21 22 22 20 23
DOCKED: REMARK SMILES IDX 21 24
DOCKED: REMARK H PARENT 20 25
DOCKED: USER                              x       y       z     vdW  Elec       q    Type
DOCKED: USER                           _______ _______ _______ _____ _____    ______ ____
DOCKED: ROOT
DOCKED: ATOM      1  C   UNL     1     140.399  75.420 221.092 -0.28 +0.00    -0.008 C  
DOCKED: ATOM      2  C   UNL     1     140.543  73.893 221.134 -0.24 +0.01    -0.079 C  
DOCKED: ENDROOT
DOCKED: BRANCH   2   3
DOCKED: ATOM      3  N   UNL     1     139.893  73.363 222.337 -0.56 +0.07    -0.642 NA 
DOCKED: BRANCH   3   4
DOCKED: ATOM      4  C   UNL     1     139.391  72.032 222.523 -0.24 -0.02    +0.101 C  
DOCKED: ATOM      5  O   UNL     1     138.744  71.487 221.591 -0.06 +0.06    -0.313 OA 
DOCKED: BRANCH   4   6
DOCKED: ATOM      6  C   UNL     1     139.643  71.273 223.752 -0.34 -0.02    +0.088 A  
DOCKED: ATOM      7  C   UNL     1     139.311  69.914 223.833 -0.29 -0.01    +0.031 A  
DOCKED: ATOM      8  N   UNL     1     140.228  71.894 224.812 -0.22 +0.05    -0.246 NA 
DOCKED: ATOM      9  C   UNL     1     139.547  69.220 225.021 -0.40 -0.00    +0.012 A  
DOCKED: ATOM     10  C   UNL     1     140.479  71.241 225.977 -0.54 -0.01    +0.071 A  
DOCKED: ATOM     11  C   UNL     1     140.128  69.879 226.111 -0.51 -0.00    +0.000 A  
DOCKED: ATOM     12  C   UNL     1     141.067  71.920 227.051 -0.77 -0.01    +0.029 A  
DOCKED: ATOM     13  C   UNL     1     140.364  69.216 227.325 -0.60 -0.00    +0.010 A  
DOCKED: ATOM     14  C   UNL     1     141.293  71.254 228.259 -0.64 -0.00    +0.002 A  
DOCKED: ATOM     15  C   UNL     1     140.944  69.907 228.396 -0.51 -0.00    +0.001 A  
DOCKED: ENDBRANCH   4   6
DOCKED: ENDBRANCH   3   4
DOCKED: ENDBRANCH   2   3
DOCKED: BRANCH   2  16
DOCKED: ATOM     16  C   UNL     1     141.965  73.372 220.987 -0.23 +0.01    -0.062 A  
DOCKED: ATOM     17  C   UNL     1     142.280  71.980 220.976 -0.24 -0.00    +0.004 A  
DOCKED: ATOM     18  C   UNL     1     143.010  74.314 220.838 -0.27 -0.00    +0.012 A  
DOCKED: ATOM     19  C   UNL     1     143.606  71.541 220.816 -0.27 -0.00    +0.027 A  
DOCKED: ATOM     20  C   UNL     1     144.309  73.841 220.677 -0.46 +0.00    -0.000 A  
DOCKED: ATOM     21  C   UNL     1     144.598  72.505 220.667 -0.39 -0.01    +0.045 A  
DOCKED: ATOM     22  C   UNL     1     145.492  74.520 220.481 -0.37 -0.01    +0.028 A  
DOCKED: ATOM     23  N   UNL     1     145.911  72.301 220.473 -0.16 -0.04    -0.361 N  
DOCKED: ATOM     24  C   UNL     1     146.462  73.531 220.358 -0.47 +0.02    +0.083 A  
DOCKED: ATOM     25  H   UNL     1     146.406  71.384 220.409 -0.40 +0.05    +0.166 HD 
DOCKED: ENDBRANCH   2  16
DOCKED: TORSDOF 4
DOCKED: TER
DOCKED: ENDMDL
________________________________________________________________________________


    FINAL DOCKED STATE:
    ________________________


Run:   13 / 20
Time taken for this run:   0.030s

DOCKED: MODEL        13
DOCKED: USER    Run = 13
DOCKED: USER
DOCKED: USER    Estimated Free Energy of Binding    =  -8.59 kcal/mol  [=(1)+(2)+(3)-(4)]
DOCKED: USER
DOCKED: USER    (1) Final Intermolecular Energy     =  -9.78 kcal/mol
DOCKED: USER        vdW + Hbond + desolv Energy     =  -9.85 kcal/mol
DOCKED: USER        Electrostatic Energy            =  +0.06 kcal/mol
DOCKED: USER        Moving Ligand-Fixed Receptor    =  -9.78 kcal/mol
DOCKED: USER        Moving Ligand-Moving Receptor   =  +0.00 kcal/mol
DOCKED: USER    (2) Final Total Internal Energy     =  -0.55 kcal/mol
DOCKED: USER    (3) Torsional Free Energy           =  +1.19 kcal/mol
DOCKED: USER    (4) Unbound System's Energy         =  -0.55 kcal/mol
DOCKED: USER
DOCKED: USER
DOCKED: REMARK SMILES C[C@H]([N-]C(=O)c1ccc2ccccc2n1)c1ccc2[nH]ccc2c1
DOCKED: REMARK SMILES IDX 1 1 2 2 3 3 4 4 5 5 6 6 7 7 15 8 8 9 14 10 9 11 13 12 10 13
DOCKED: REMARK SMILES IDX 12 14 11 15 16 16 17 17 24 18 18 19 23 20 19 21 22 22 20 23
DOCKED: REMARK SMILES IDX 21 24
DOCKED: REMARK H PARENT 20 25
DOCKED: USER                              x       y       z     vdW  Elec       q    Type
DOCKED: USER                           _______ _______ _______ _____ _____    ______ ____
DOCKED: ROOT
DOCKED: ATOM      1  C   UNL     1     138.233  74.747 221.966 -0.21 +0.00    -0.008 C  
DOCKED: ATOM      2  C   UNL     1     139.705  74.648 221.545 -0.26 +0.01    -0.079 C  
DOCKED: ENDROOT
DOCKED: BRANCH   2   3
DOCKED: ATOM      3  N   UNL     1     140.382  73.617 222.338 -0.55 -0.01    -0.642 NA 
DOCKED: BRANCH   3   4
DOCKED: ATOM      4  C   UNL     1     140.101  72.211 222.334 -0.28 -0.01    +0.101 C  
DOCKED: ATOM      5  O   UNL     1     139.984  71.614 221.232 -0.08 +0.05    -0.313 OA 
DOCKED: BRANCH   4   6
DOCKED: ATOM      6  C   UNL     1     139.985  71.439 223.576 -0.35 -0.02    +0.088 A  
DOCKED: ATOM      7  C   UNL     1     139.287  70.224 223.599 -0.28 -0.01    +0.031 A  
DOCKED: ATOM      8  N   UNL     1     140.584  71.901 224.707 -0.25 +0.04    -0.246 NA 
DOCKED: ATOM      9  C   UNL     1     139.178  69.519 224.799 -0.37 -0.00    +0.012 A  
DOCKED: ATOM     10  C   UNL     1     140.503  71.231 225.886 -0.54 -0.01    +0.071 A  
DOCKED: ATOM     11  C   UNL     1     139.781  70.019 225.960 -0.48 -0.00    +0.000 A  
DOCKED: ATOM     12  C   UNL     1     141.119  71.748 227.032 -0.75 -0.00    +0.029 A  
DOCKED: ATOM     13  C   UNL     1     139.677  69.345 227.186 -0.56 -0.00    +0.010 A  
DOCKED: ATOM     14  C   UNL     1     141.007  71.073 228.251 -0.68 -0.00    +0.002 A  
DOCKED: ATOM     15  C   UNL     1     140.288  69.876 228.328 -0.60 -0.00    +0.001 A  
DOCKED: ENDBRANCH   4   6
DOCKED: ENDBRANCH   3   4
DOCKED: ENDBRANCH   2   3
DOCKED: BRANCH   2  16
DOCKED: ATOM     16  C   UNL     1     140.472  75.961 221.556 -0.32 +0.02    -0.062 A  
DOCKED: ATOM     17  C   UNL     1     141.259  76.406 220.452 -0.26 -0.00    +0.004 A  
DOCKED: ATOM     18  C   UNL     1     140.382  76.778 222.709 -0.31 -0.00    +0.012 A  
DOCKED: ATOM     19  C   UNL     1     141.935  77.638 220.498 -0.29 -0.02    +0.027 A  
DOCKED: ATOM     20  C   UNL     1     141.061  77.993 222.714 -0.49 +0.00    -0.000 A  
DOCKED: ATOM     21  C   UNL     1     141.811  78.408 221.649 -0.34 -0.03    +0.045 A  
DOCKED: ATOM     22  C   UNL     1     141.119  78.982 223.671 -0.53 -0.01    +0.028 A  
DOCKED: ATOM     23  N   UNL     1     142.344  79.618 221.883 -0.18 +0.19    -0.361 N  
DOCKED: ATOM     24  C   UNL     1     141.924  79.974 223.118 -0.53 -0.02    +0.083 A  
DOCKED: ATOM     25  H   UNL     1     142.948  80.178 221.241 -0.34 -0.10    +0.166 HD 
DOCKED: ENDBRANCH   2  16
DOCKED: TORSDOF 4
DOCKED: TER
DOCKED: ENDMDL
________________________________________________________________________________


    FINAL DOCKED STATE:
    ________________________


Run:   14 / 20
Time taken for this run:   0.030s

DOCKED: MODEL        14
DOCKED: USER    Run = 14
DOCKED: USER
DOCKED: USER    Estimated Free Energy of Binding    =  -8.14 kcal/mol  [=(1)+(2)+(3)-(4)]
DOCKED: USER
DOCKED: USER    (1) Final Intermolecular Energy     =  -9.34 kcal/mol
DOCKED: USER        vdW + Hbond + desolv Energy     =  -9.49 kcal/mol
DOCKED: USER        Electrostatic Energy            =  +0.15 kcal/mol
DOCKED: USER        Moving Ligand-Fixed Receptor    =  -9.34 kcal/mol
DOCKED: USER        Moving Ligand-Moving Receptor   =  +0.00 kcal/mol
DOCKED: USER    (2) Final Total Internal Energy     =  -0.71 kcal/mol
DOCKED: USER    (3) Torsional Free Energy           =  +1.19 kcal/mol
DOCKED: USER    (4) Unbound System's Energy         =  -0.71 kcal/mol
DOCKED: USER
DOCKED: USER
DOCKED: REMARK SMILES C[C@H]([N-]C(=O)c1ccc2ccccc2n1)c1ccc2[nH]ccc2c1
DOCKED: REMARK SMILES IDX 1 1 2 2 3 3 4 4 5 5 6 6 7 7 15 8 8 9 14 10 9 11 13 12 10 13
DOCKED: REMARK SMILES IDX 12 14 11 15 16 16 17 17 24 18 18 19 23 20 19 21 22 22 20 23
DOCKED: REMARK SMILES IDX 21 24
DOCKED: REMARK H PARENT 20 25
DOCKED: USER                              x       y       z     vdW  Elec       q    Type
DOCKED: USER                           _______ _______ _______ _____ _____    ______ ____
DOCKED: ROOT
DOCKED: ATOM      1  C   UNL     1     140.381  75.506 221.242 -0.30 +0.00    -0.008 C  
DOCKED: ATOM      2  C   UNL     1     140.478  73.977 221.156 -0.24 +0.01    -0.079 C  
DOCKED: ENDROOT
DOCKED: BRANCH   2   3
DOCKED: ATOM      3  N   UNL     1     139.781  73.368 222.294 -0.51 +0.09    -0.642 NA 
DOCKED: BRANCH   3   4
DOCKED: ATOM      4  C   UNL     1     139.402  71.991 222.428 -0.24 -0.02    +0.101 C  
DOCKED: ATOM      5  O   UNL     1     138.913  71.391 221.435 -0.05 +0.06    -0.313 OA 
DOCKED: BRANCH   4   6
DOCKED: ATOM      6  C   UNL     1     139.605  71.249 223.677 -0.33 -0.02    +0.088 A  
DOCKED: ATOM      7  C   UNL     1     139.200  69.912 223.788 -0.28 -0.01    +0.031 A  
DOCKED: ATOM      8  N   UNL     1     140.216  71.863 224.726 -0.23 +0.05    -0.246 NA 
DOCKED: ATOM      9  C   UNL     1     139.391  69.235 224.994 -0.39 -0.00    +0.012 A  
DOCKED: ATOM     10  C   UNL     1     140.424  71.225 225.909 -0.54 -0.01    +0.071 A  
DOCKED: ATOM     11  C   UNL     1     140.000  69.888 226.072 -0.50 -0.00    +0.000 A  
DOCKED: ATOM     12  C   UNL     1     141.040  71.898 226.970 -0.76 -0.01    +0.029 A  
DOCKED: ATOM     13  C   UNL     1     140.192  69.243 227.303 -0.60 -0.00    +0.010 A  
DOCKED: ATOM     14  C   UNL     1     141.223  71.250 228.196 -0.67 -0.00    +0.002 A  
DOCKED: ATOM     15  C   UNL     1     140.800  69.927 228.362 -0.55 -0.00    +0.001 A  
DOCKED: ENDBRANCH   4   6
DOCKED: ENDBRANCH   3   4
DOCKED: ENDBRANCH   2   3
DOCKED: BRANCH   2  16
DOCKED: ATOM     16  C   UNL     1     141.887  73.424 220.999 -0.24 +0.01    -0.062 A  
DOCKED: ATOM     17  C   UNL     1     142.170  72.026 220.979 -0.24 -0.00    +0.004 A  
DOCKED: ATOM     18  C   UNL     1     142.952  74.344 220.850 -0.26 -0.00    +0.012 A  
DOCKED: ATOM     19  C   UNL     1     143.486  71.559 220.809 -0.27 -0.00    +0.027 A  
DOCKED: ATOM     20  C   UNL     1     144.239  73.843 220.679 -0.45 +0.00    -0.000 A  
DOCKED: ATOM     21  C   UNL     1     144.498  72.500 220.660 -0.38 -0.01    +0.045 A  
DOCKED: ATOM     22  C   UNL     1     145.436  74.496 220.480 -0.40 -0.01    +0.028 A  
DOCKED: ATOM     23  N   UNL     1     145.805  72.268 220.457 -0.16 -0.03    -0.361 N  
DOCKED: ATOM     24  C   UNL     1     146.383  73.486 220.346 -0.51 +0.01    +0.083 A  
DOCKED: ATOM     25  H   UNL     1     146.279  71.341 220.386 -0.39 +0.04    +0.166 HD 
DOCKED: ENDBRANCH   2  16
DOCKED: TORSDOF 4
DOCKED: TER
DOCKED: ENDMDL
________________________________________________________________________________


    FINAL DOCKED STATE:
    ________________________


Run:   15 / 20
Time taken for this run:   0.030s

DOCKED: MODEL        15
DOCKED: USER    Run = 15
DOCKED: USER
DOCKED: USER    Estimated Free Energy of Binding    =  -7.01 kcal/mol  [=(1)+(2)+(3)-(4)]
DOCKED: USER
DOCKED: USER    (1) Final Intermolecular Energy     =  -8.21 kcal/mol
DOCKED: USER        vdW + Hbond + desolv Energy     =  -8.46 kcal/mol
DOCKED: USER        Electrostatic Energy            =  +0.25 kcal/mol
DOCKED: USER        Moving Ligand-Fixed Receptor    =  -8.21 kcal/mol
DOCKED: USER        Moving Ligand-Moving Receptor   =  +0.00 kcal/mol
DOCKED: USER    (2) Final Total Internal Energy     =  -1.24 kcal/mol
DOCKED: USER    (3) Torsional Free Energy           =  +1.19 kcal/mol
DOCKED: USER    (4) Unbound System's Energy         =  -1.24 kcal/mol
DOCKED: USER
DOCKED: USER
DOCKED: REMARK SMILES C[C@H]([N-]C(=O)c1ccc2ccccc2n1)c1ccc2[nH]ccc2c1
DOCKED: REMARK SMILES IDX 1 1 2 2 3 3 4 4 5 5 6 6 7 7 15 8 8 9 14 10 9 11 13 12 10 13
DOCKED: REMARK SMILES IDX 12 14 11 15 16 16 17 17 24 18 18 19 23 20 19 21 22 22 20 23
DOCKED: REMARK SMILES IDX 21 24
DOCKED: REMARK H PARENT 20 25
DOCKED: USER                              x       y       z     vdW  Elec       q    Type
DOCKED: USER                           _______ _______ _______ _____ _____    ______ ____
DOCKED: ROOT
DOCKED: ATOM      1  C   UNL     1     143.057  73.784 219.800 -0.27 +0.00    -0.008 C  
DOCKED: ATOM      2  C   UNL     1     142.308  75.018 220.320 -0.27 +0.03    -0.079 C  
DOCKED: ENDROOT
DOCKED: BRANCH   2   3
DOCKED: ATOM      3  N   UNL     1     140.902  74.682 220.566 +0.01 +0.16    -0.642 NA 
DOCKED: BRANCH   3   4
DOCKED: ATOM      4  C   UNL     1     140.127  75.037 221.719 -0.26 -0.02    +0.101 C  
DOCKED: ATOM      5  O   UNL     1     139.566  74.127 222.384 -0.76 +0.04    -0.313 OA 
DOCKED: BRANCH   4   6
DOCKED: ATOM      6  C   UNL     1     140.000  76.427 222.171 -0.34 -0.02    +0.088 A  
DOCKED: ATOM      7  C   UNL     1     138.753  77.064 222.179 -0.28 -0.01    +0.031 A  
DOCKED: ATOM      8  N   UNL     1     141.105  77.090 222.607 -0.25 +0.10    -0.246 NA 
DOCKED: ATOM      9  C   UNL     1     138.664  78.393 222.599 -0.28 -0.00    +0.012 A  
DOCKED: ATOM     10  C   UNL     1     141.047  78.380 223.031 -0.47 -0.02    +0.071 A  
DOCKED: ATOM     11  C   UNL     1     139.814  79.069 223.023 -0.39 -0.00    +0.000 A  
DOCKED: ATOM     12  C   UNL     1     142.210  79.032 223.456 -0.57 -0.01    +0.029 A  
DOCKED: ATOM     13  C   UNL     1     139.764  80.409 223.435 -0.42 -0.00    +0.010 A  
DOCKED: ATOM     14  C   UNL     1     142.153  80.370 223.860 -0.63 -0.00    +0.002 A  
DOCKED: ATOM     15  C   UNL     1     140.934  81.056 223.850 -0.41 -0.00    +0.001 A  
DOCKED: ENDBRANCH   4   6
DOCKED: ENDBRANCH   3   4
DOCKED: ENDBRANCH   2   3
DOCKED: BRANCH   2  16
DOCKED: ATOM     16  C   UNL     1     142.446  76.268 219.463 -0.29 +0.03    -0.062 A  
DOCKED: ATOM     17  C   UNL     1     142.935  76.236 218.123 -0.27 -0.00    +0.004 A  
DOCKED: ATOM     18  C   UNL     1     142.053  77.507 220.022 -0.31 -0.01    +0.012 A  
DOCKED: ATOM     19  C   UNL     1     143.025  77.413 217.359 -0.26 -0.02    +0.027 A  
DOCKED: ATOM     20  C   UNL     1     142.152  78.650 219.233 -0.27 +0.00    -0.000 A  
DOCKED: ATOM     21  C   UNL     1     142.621  78.606 217.950 -0.30 -0.04    +0.045 A  
DOCKED: ATOM     22  C   UNL     1     141.815  79.958 219.504 -0.29 -0.02    +0.028 A  
DOCKED: ATOM     23  N   UNL     1     142.597  79.826 217.390 -0.12 +0.41    -0.361 N  
DOCKED: ATOM     24  C   UNL     1     142.104  80.657 218.337 -0.28 -0.06    +0.083 A  
DOCKED: ATOM     25  H   UNL     1     142.886  80.083 216.420 -0.47 -0.30    +0.166 HD 
DOCKED: ENDBRANCH   2  16
DOCKED: TORSDOF 4
DOCKED: TER
DOCKED: ENDMDL
________________________________________________________________________________


    FINAL DOCKED STATE:
    ________________________


Run:   16 / 20
Time taken for this run:   0.030s

DOCKED: MODEL        16
DOCKED: USER    Run = 16
DOCKED: USER
DOCKED: USER    Estimated Free Energy of Binding    =  -8.60 kcal/mol  [=(1)+(2)+(3)-(4)]
DOCKED: USER
DOCKED: USER    (1) Final Intermolecular Energy     =  -9.79 kcal/mol
DOCKED: USER        vdW + Hbond + desolv Energy     =  -9.85 kcal/mol
DOCKED: USER        Electrostatic Energy            =  +0.07 kcal/mol
DOCKED: USER        Moving Ligand-Fixed Receptor    =  -9.79 kcal/mol
DOCKED: USER        Moving Ligand-Moving Receptor   =  +0.00 kcal/mol
DOCKED: USER    (2) Final Total Internal Energy     =  -0.55 kcal/mol
DOCKED: USER    (3) Torsional Free Energy           =  +1.19 kcal/mol
DOCKED: USER    (4) Unbound System's Energy         =  -0.55 kcal/mol
DOCKED: USER
DOCKED: USER
DOCKED: REMARK SMILES C[C@H]([N-]C(=O)c1ccc2ccccc2n1)c1ccc2[nH]ccc2c1
DOCKED: REMARK SMILES IDX 1 1 2 2 3 3 4 4 5 5 6 6 7 7 15 8 8 9 14 10 9 11 13 12 10 13
DOCKED: REMARK SMILES IDX 12 14 11 15 16 16 17 17 24 18 18 19 23 20 19 21 22 22 20 23
DOCKED: REMARK SMILES IDX 21 24
DOCKED: REMARK H PARENT 20 25
DOCKED: USER                              x       y       z     vdW  Elec       q    Type
DOCKED: USER                           _______ _______ _______ _____ _____    ______ ____
DOCKED: ROOT
DOCKED: ATOM      1  C   UNL     1     138.220  74.762 221.954 -0.21 +0.00    -0.008 C  
DOCKED: ATOM      2  C   UNL     1     139.693  74.653 221.539 -0.26 +0.01    -0.079 C  
DOCKED: ENDROOT
DOCKED: BRANCH   2   3
DOCKED: ATOM      3  N   UNL     1     140.362  73.620 222.337 -0.56 -0.01    -0.642 NA 
DOCKED: BRANCH   3   4
DOCKED: ATOM      4  C   UNL     1     140.075  72.215 222.331 -0.27 -0.01    +0.101 C  
DOCKED: ATOM      5  O   UNL     1     139.921  71.627 221.229 -0.08 +0.05    -0.313 OA 
DOCKED: BRANCH   4   6
DOCKED: ATOM      6  C   UNL     1     139.995  71.435 223.571 -0.35 -0.02    +0.088 A  
DOCKED: ATOM      7  C   UNL     1     139.359  70.187 223.589 -0.28 -0.01    +0.031 A  
DOCKED: ATOM      8  N   UNL     1     140.569  71.922 224.704 -0.23 +0.04    -0.246 NA 
DOCKED: ATOM      9  C   UNL     1     139.283  69.473 224.787 -0.37 -0.00    +0.012 A  
DOCKED: ATOM     10  C   UNL     1     140.519  71.245 225.881 -0.54 -0.01    +0.071 A  
DOCKED: ATOM     11  C   UNL     1     139.858  69.999 225.950 -0.49 -0.00    +0.000 A  
DOCKED: ATOM     12  C   UNL     1     141.107  71.789 227.029 -0.76 -0.00    +0.029 A  
DOCKED: ATOM     13  C   UNL     1     139.787  69.316 227.174 -0.57 -0.00    +0.010 A  
DOCKED: ATOM     14  C   UNL     1     141.027  71.105 228.247 -0.69 -0.00    +0.002 A  
DOCKED: ATOM     15  C   UNL     1     140.369  69.873 228.318 -0.60 -0.00    +0.001 A  
DOCKED: ENDBRANCH   4   6
DOCKED: ENDBRANCH   3   4
DOCKED: ENDBRANCH   2   3
DOCKED: BRANCH   2  16
DOCKED: ATOM     16  C   UNL     1     140.468  75.963 221.551 -0.32 +0.02    -0.062 A  
DOCKED: ATOM     17  C   UNL     1     141.273  76.394 220.456 -0.26 -0.00    +0.004 A  
DOCKED: ATOM     18  C   UNL     1     140.365  76.789 222.696 -0.31 -0.00    +0.012 A  
DOCKED: ATOM     19  C   UNL     1     141.956  77.622 220.501 -0.29 -0.02    +0.027 A  
DOCKED: ATOM     20  C   UNL     1     141.051  78.000 222.701 -0.49 +0.00    -0.000 A  
DOCKED: ATOM     21  C   UNL     1     141.819  78.402 221.644 -0.34 -0.03    +0.045 A  
DOCKED: ATOM     22  C   UNL     1     141.101  78.997 223.650 -0.53 -0.01    +0.028 A  
DOCKED: ATOM     23  N   UNL     1     142.356  79.611 221.875 -0.18 +0.19    -0.361 N  
DOCKED: ATOM     24  C   UNL     1     141.919  79.980 223.102 -0.53 -0.02    +0.083 A  
DOCKED: ATOM     25  H   UNL     1     142.972  80.162 221.238 -0.35 -0.10    +0.166 HD 
DOCKED: ENDBRANCH   2  16
DOCKED: TORSDOF 4
DOCKED: TER
DOCKED: ENDMDL
________________________________________________________________________________


    FINAL DOCKED STATE:
    ________________________


Run:   17 / 20
Time taken for this run:   0.030s

DOCKED: MODEL        17
DOCKED: USER    Run = 17
DOCKED: USER
DOCKED: USER    Estimated Free Energy of Binding    =  -8.06 kcal/mol  [=(1)+(2)+(3)-(4)]
DOCKED: USER
DOCKED: USER    (1) Final Intermolecular Energy     =  -9.25 kcal/mol
DOCKED: USER        vdW + Hbond + desolv Energy     =  -9.37 kcal/mol
DOCKED: USER        Electrostatic Energy            =  +0.11 kcal/mol
DOCKED: USER        Moving Ligand-Fixed Receptor    =  -9.25 kcal/mol
DOCKED: USER        Moving Ligand-Moving Receptor   =  +0.00 kcal/mol
DOCKED: USER    (2) Final Total Internal Energy     =  -0.52 kcal/mol
DOCKED: USER    (3) Torsional Free Energy           =  +1.19 kcal/mol
DOCKED: USER    (4) Unbound System's Energy         =  -0.52 kcal/mol
DOCKED: USER
DOCKED: USER
DOCKED: REMARK SMILES C[C@H]([N-]C(=O)c1ccc2ccccc2n1)c1ccc2[nH]ccc2c1
DOCKED: REMARK SMILES IDX 1 1 2 2 3 3 4 4 5 5 6 6 7 7 15 8 8 9 14 10 9 11 13 12 10 13
DOCKED: REMARK SMILES IDX 12 14 11 15 16 16 17 17 24 18 18 19 23 20 19 21 22 22 20 23
DOCKED: REMARK SMILES IDX 21 24
DOCKED: REMARK H PARENT 20 25
DOCKED: USER                              x       y       z     vdW  Elec       q    Type
DOCKED: USER                           _______ _______ _______ _____ _____    ______ ____
DOCKED: ROOT
DOCKED: ATOM      1  C   UNL     1     138.899  74.576 220.160 -0.09 +0.00    -0.008 C  
DOCKED: ATOM      2  C   UNL     1     139.876  74.801 221.321 -0.25 +0.02    -0.079 C  
DOCKED: ENDROOT
DOCKED: BRANCH   2   3
DOCKED: ATOM      3  N   UNL     1     139.693  73.758 222.336 -0.59 +0.08    -0.642 NA 
DOCKED: BRANCH   3   4
DOCKED: ATOM      4  C   UNL     1     140.491  72.577 222.503 -0.25 -0.01    +0.101 C  
DOCKED: ATOM      5  O   UNL     1     141.443  72.365 221.708 -0.19 +0.02    -0.313 OA 
DOCKED: BRANCH   4   6
DOCKED: ATOM      6  C   UNL     1     140.255  71.630 223.598 -0.35 -0.01    +0.088 A  
DOCKED: ATOM      7  C   UNL     1     139.540  70.446 223.376 -0.28 -0.01    +0.031 A  
DOCKED: ATOM      8  N   UNL     1     140.758  71.899 224.833 -0.24 +0.03    -0.246 NA 
DOCKED: ATOM      9  C   UNL     1     139.316  69.570 224.440 -0.34 -0.00    +0.012 A  
DOCKED: ATOM     10  C   UNL     1     140.564  71.060 225.885 -0.54 -0.01    +0.071 A  
DOCKED: ATOM     11  C   UNL     1     139.821  69.872 225.710 -0.47 -0.00    +0.000 A  
DOCKED: ATOM     12  C   UNL     1     141.085  71.381 227.144 -0.72 -0.00    +0.029 A  
DOCKED: ATOM     13  C   UNL     1     139.600  69.023 226.805 -0.55 -0.00    +0.010 A  
DOCKED: ATOM     14  C   UNL     1     140.856  70.532 228.231 -0.60 -0.00    +0.002 A  
DOCKED: ATOM     15  C   UNL     1     140.116  69.358 228.063 -0.64 -0.00    +0.001 A  
DOCKED: ENDBRANCH   4   6
DOCKED: ENDBRANCH   3   4
DOCKED: ENDBRANCH   2   3
DOCKED: BRANCH   2  16
DOCKED: ATOM     16  C   UNL     1     139.845  76.193 221.934 -0.33 +0.01    -0.062 A  
DOCKED: ATOM     17  C   UNL     1     138.632  76.845 222.309 -0.30 -0.00    +0.004 A  
DOCKED: ATOM     18  C   UNL     1     141.076  76.854 222.153 -0.38 -0.00    +0.012 A  
DOCKED: ATOM     19  C   UNL     1     138.651  78.124 222.893 -0.26 -0.00    +0.027 A  
DOCKED: ATOM     20  C   UNL     1     141.055  78.117 222.738 -0.49 +0.00    -0.000 A  
DOCKED: ATOM     21  C   UNL     1     139.886  78.731 223.094 -0.36 -0.01    +0.045 A  
DOCKED: ATOM     22  C   UNL     1     142.087  78.959 223.091 -0.55 -0.01    +0.028 A  
DOCKED: ATOM     23  N   UNL     1     140.126  79.925 223.659 -0.19 +0.06    -0.361 N  
DOCKED: ATOM     24  C   UNL     1     141.471  80.069 223.660 -0.50 -0.02    +0.083 A  
DOCKED: ATOM     25  H   UNL     1     139.423  80.600 224.034 +0.08 -0.02    +0.166 HD 
DOCKED: ENDBRANCH   2  16
DOCKED: TORSDOF 4
DOCKED: TER
DOCKED: ENDMDL
________________________________________________________________________________


    FINAL DOCKED STATE:
    ________________________


Run:   18 / 20
Time taken for this run:   0.030s

DOCKED: MODEL        18
DOCKED: USER    Run = 18
DOCKED: USER
DOCKED: USER    Estimated Free Energy of Binding    =  -8.58 kcal/mol  [=(1)+(2)+(3)-(4)]
DOCKED: USER
DOCKED: USER    (1) Final Intermolecular Energy     =  -9.77 kcal/mol
DOCKED: USER        vdW + Hbond + desolv Energy     =  -9.84 kcal/mol
DOCKED: USER        Electrostatic Energy            =  +0.07 kcal/mol
DOCKED: USER        Moving Ligand-Fixed Receptor    =  -9.77 kcal/mol
DOCKED: USER        Moving Ligand-Moving Receptor   =  +0.00 kcal/mol
DOCKED: USER    (2) Final Total Internal Energy     =  -0.55 kcal/mol
DOCKED: USER    (3) Torsional Free Energy           =  +1.19 kcal/mol
DOCKED: USER    (4) Unbound System's Energy         =  -0.55 kcal/mol
DOCKED: USER
DOCKED: USER
DOCKED: REMARK SMILES C[C@H]([N-]C(=O)c1ccc2ccccc2n1)c1ccc2[nH]ccc2c1
DOCKED: REMARK SMILES IDX 1 1 2 2 3 3 4 4 5 5 6 6 7 7 15 8 8 9 14 10 9 11 13 12 10 13
DOCKED: REMARK SMILES IDX 12 14 11 15 16 16 17 17 24 18 18 19 23 20 19 21 22 22 20 23
DOCKED: REMARK SMILES IDX 21 24
DOCKED: REMARK H PARENT 20 25
DOCKED: USER                              x       y       z     vdW  Elec       q    Type
DOCKED: USER                           _______ _______ _______ _____ _____    ______ ____
DOCKED: ROOT
DOCKED: ATOM      1  C   UNL     1     138.221  74.735 221.979 -0.20 +0.00    -0.008 C  
DOCKED: ATOM      2  C   UNL     1     139.689  74.636 221.544 -0.26 +0.01    -0.079 C  
DOCKED: ENDROOT
DOCKED: BRANCH   2   3
DOCKED: ATOM      3  N   UNL     1     140.373  73.602 222.327 -0.55 -0.01    -0.642 NA 
DOCKED: BRANCH   3   4
DOCKED: ATOM      4  C   UNL     1     140.079  72.198 222.332 -0.27 -0.01    +0.101 C  
DOCKED: ATOM      5  O   UNL     1     139.932  71.599 221.235 -0.08 +0.05    -0.313 OA 
DOCKED: BRANCH   4   6
DOCKED: ATOM      6  C   UNL     1     139.985  71.430 223.579 -0.35 -0.02    +0.088 A  
DOCKED: ATOM      7  C   UNL     1     139.293  70.212 223.616 -0.28 -0.01    +0.031 A  
DOCKED: ATOM      8  N   UNL     1     140.598  71.898 224.699 -0.26 +0.03    -0.246 NA 
DOCKED: ATOM      9  C   UNL     1     139.205  69.510 224.820 -0.37 -0.00    +0.012 A  
DOCKED: ATOM     10  C   UNL     1     140.538  71.232 225.882 -0.54 -0.01    +0.071 A  
DOCKED: ATOM     11  C   UNL     1     139.822  70.018 225.970 -0.49 -0.00    +0.000 A  
DOCKED: ATOM     12  C   UNL     1     141.168  71.756 227.016 -0.74 -0.00    +0.029 A  
DOCKED: ATOM     13  C   UNL     1     139.740  69.347 227.200 -0.56 -0.00    +0.010 A  
DOCKED: ATOM     14  C   UNL     1     141.077  71.084 228.239 -0.69 -0.00    +0.002 A  
DOCKED: ATOM     15  C   UNL     1     140.365  69.884 228.331 -0.59 -0.00    +0.001 A  
DOCKED: ENDBRANCH   4   6
DOCKED: ENDBRANCH   3   4
DOCKED: ENDBRANCH   2   3
DOCKED: BRANCH   2  16
DOCKED: ATOM     16  C   UNL     1     140.458  75.949 221.553 -0.32 +0.02    -0.062 A  
DOCKED: ATOM     17  C   UNL     1     141.251  76.387 220.451 -0.26 -0.00    +0.004 A  
DOCKED: ATOM     18  C   UNL     1     140.362  76.770 222.701 -0.31 -0.00    +0.012 A  
DOCKED: ATOM     19  C   UNL     1     141.928  77.619 220.494 -0.29 -0.02    +0.027 A  
DOCKED: ATOM     20  C   UNL     1     141.043  77.985 222.704 -0.49 +0.00    -0.000 A  
DOCKED: ATOM     21  C   UNL     1     141.799  78.394 221.641 -0.34 -0.03    +0.045 A  
DOCKED: ATOM     22  C   UNL     1     141.098  78.979 223.656 -0.53 -0.01    +0.028 A  
DOCKED: ATOM     23  N   UNL     1     142.332  79.605 221.872 -0.18 +0.19    -0.361 N  
DOCKED: ATOM     24  C   UNL     1     141.906  79.967 223.103 -0.53 -0.02    +0.083 A  
DOCKED: ATOM     25  H   UNL     1     142.940  80.161 221.230 -0.34 -0.10    +0.166 HD 
DOCKED: ENDBRANCH   2  16
DOCKED: TORSDOF 4
DOCKED: TER
DOCKED: ENDMDL
________________________________________________________________________________


    FINAL DOCKED STATE:
    ________________________


Run:   19 / 20
Time taken for this run:   0.030s

DOCKED: MODEL        19
DOCKED: USER    Run = 19
DOCKED: USER
DOCKED: USER    Estimated Free Energy of Binding    =  -8.48 kcal/mol  [=(1)+(2)+(3)-(4)]
DOCKED: USER
DOCKED: USER    (1) Final Intermolecular Energy     =  -9.67 kcal/mol
DOCKED: USER        vdW + Hbond + desolv Energy     =  -9.75 kcal/mol
DOCKED: USER        Electrostatic Energy            =  +0.08 kcal/mol
DOCKED: USER        Moving Ligand-Fixed Receptor    =  -9.67 kcal/mol
DOCKED: USER        Moving Ligand-Moving Receptor   =  +0.00 kcal/mol
DOCKED: USER    (2) Final Total Internal Energy     =  -0.52 kcal/mol
DOCKED: USER    (3) Torsional Free Energy           =  +1.19 kcal/mol
DOCKED: USER    (4) Unbound System's Energy         =  -0.52 kcal/mol
DOCKED: USER
DOCKED: USER
DOCKED: REMARK SMILES C[C@H]([N-]C(=O)c1ccc2ccccc2n1)c1ccc2[nH]ccc2c1
DOCKED: REMARK SMILES IDX 1 1 2 2 3 3 4 4 5 5 6 6 7 7 15 8 8 9 14 10 9 11 13 12 10 13
DOCKED: REMARK SMILES IDX 12 14 11 15 16 16 17 17 24 18 18 19 23 20 19 21 22 22 20 23
DOCKED: REMARK SMILES IDX 21 24
DOCKED: REMARK H PARENT 20 25
DOCKED: USER                              x       y       z     vdW  Elec       q    Type
DOCKED: USER                           _______ _______ _______ _____ _____    ______ ____
DOCKED: ROOT
DOCKED: ATOM      1  C   UNL     1     138.292  74.632 221.098 -0.15 +0.00    -0.008 C  
DOCKED: ATOM      2  C   UNL     1     139.816  74.528 221.236 -0.23 +0.01    -0.079 C  
DOCKED: ENDROOT
DOCKED: BRANCH   2   3
DOCKED: ATOM      3  N   UNL     1     140.157  73.647 222.358 -0.57 +0.01    -0.642 NA 
DOCKED: BRANCH   3   4
DOCKED: ATOM      4  C   UNL     1     140.229  72.215 222.330 -0.28 -0.01    +0.101 C  
DOCKED: ATOM      5  O   UNL     1     140.407  71.633 221.228 -0.10 +0.05    -0.313 OA 
DOCKED: BRANCH   4   6
DOCKED: ATOM      6  C   UNL     1     140.143  71.410 223.553 -0.34 -0.01    +0.088 A  
DOCKED: ATOM      7  C   UNL     1     139.559  70.137 223.530 -0.27 -0.01    +0.031 A  
DOCKED: ATOM      8  N   UNL     1     140.660  71.900 224.712 -0.26 +0.03    -0.246 NA 
DOCKED: ATOM      9  C   UNL     1     139.475  69.399 224.713 -0.36 -0.00    +0.012 A  
DOCKED: ATOM     10  C   UNL     1     140.602  71.200 225.876 -0.55 -0.01    +0.071 A  
DOCKED: ATOM     11  C   UNL     1     139.991  69.927 225.902 -0.49 -0.00    +0.000 A  
DOCKED: ATOM     12  C   UNL     1     141.130  71.747 227.051 -0.75 -0.00    +0.029 A  
DOCKED: ATOM     13  C   UNL     1     139.909  69.220 227.112 -0.57 -0.00    +0.010 A  
DOCKED: ATOM     14  C   UNL     1     141.039  71.039 228.253 -0.68 -0.00    +0.002 A  
DOCKED: ATOM     15  C   UNL     1     140.431  69.780 228.283 -0.60 -0.00    +0.001 A  
DOCKED: ENDBRANCH   4   6
DOCKED: ENDBRANCH   3   4
DOCKED: ENDBRANCH   2   3
DOCKED: BRANCH   2  16
DOCKED: ATOM     16  C   UNL     1     140.552  75.857 221.322 -0.29 +0.02    -0.062 A  
DOCKED: ATOM     17  C   UNL     1     141.415  76.330 220.289 -0.26 -0.00    +0.004 A  
DOCKED: ATOM     18  C   UNL     1     140.351  76.659 222.470 -0.36 -0.00    +0.012 A  
DOCKED: ATOM     19  C   UNL     1     142.059  77.576 220.400 -0.29 -0.02    +0.027 A  
DOCKED: ATOM     20  C   UNL     1     141.001  77.888 222.542 -0.47 +0.00    -0.000 A  
DOCKED: ATOM     21  C   UNL     1     141.825  78.330 221.545 -0.33 -0.03    +0.045 A  
DOCKED: ATOM     22  C   UNL     1     140.960  78.868 223.509 -0.50 -0.01    +0.028 A  
DOCKED: ATOM     23  N   UNL     1     142.311  79.549 221.832 -0.17 +0.19    -0.361 N  
DOCKED: ATOM     24  C   UNL     1     141.785  79.882 223.033 -0.52 -0.02    +0.083 A  
DOCKED: ATOM     25  H   UNL     1     142.953  80.128 221.247 -0.36 -0.10    +0.166 HD 
DOCKED: ENDBRANCH   2  16
DOCKED: TORSDOF 4
DOCKED: TER
DOCKED: ENDMDL
________________________________________________________________________________


    FINAL DOCKED STATE:
    ________________________


Run:   20 / 20
Time taken for this run:   0.030s

DOCKED: MODEL        20
DOCKED: USER    Run = 20
DOCKED: USER
DOCKED: USER    Estimated Free Energy of Binding    =  -8.13 kcal/mol  [=(1)+(2)+(3)-(4)]
DOCKED: USER
DOCKED: USER    (1) Final Intermolecular Energy     =  -9.32 kcal/mol
DOCKED: USER        vdW + Hbond + desolv Energy     =  -9.42 kcal/mol
DOCKED: USER        Electrostatic Energy            =  +0.10 kcal/mol
DOCKED: USER        Moving Ligand-Fixed Receptor    =  -9.32 kcal/mol
DOCKED: USER        Moving Ligand-Moving Receptor   =  +0.00 kcal/mol
DOCKED: USER    (2) Final Total Internal Energy     =  -0.49 kcal/mol
DOCKED: USER    (3) Torsional Free Energy           =  +1.19 kcal/mol
DOCKED: USER    (4) Unbound System's Energy         =  -0.49 kcal/mol
DOCKED: USER
DOCKED: USER
DOCKED: REMARK SMILES C[C@H]([N-]C(=O)c1ccc2ccccc2n1)c1ccc2[nH]ccc2c1
DOCKED: REMARK SMILES IDX 1 1 2 2 3 3 4 4 5 5 6 6 7 7 15 8 8 9 14 10 9 11 13 12 10 13
DOCKED: REMARK SMILES IDX 12 14 11 15 16 16 17 17 24 18 18 19 23 20 19 21 22 22 20 23
DOCKED: REMARK SMILES IDX 21 24
DOCKED: REMARK H PARENT 20 25
DOCKED: USER                              x       y       z     vdW  Elec       q    Type
DOCKED: USER                           _______ _______ _______ _____ _____    ______ ____
DOCKED: ROOT
DOCKED: ATOM      1  C   UNL     1     139.475  74.404 220.078 -0.10 +0.00    -0.008 C  
DOCKED: ATOM      2  C   UNL     1     140.176  74.698 221.410 -0.27 +0.01    -0.079 C  
DOCKED: ENDROOT
DOCKED: BRANCH   2   3
DOCKED: ATOM      3  N   UNL     1     139.834  73.665 222.394 -0.57 +0.06    -0.642 NA 
DOCKED: BRANCH   3   4
DOCKED: ATOM      4  C   UNL     1     140.333  72.321 222.432 -0.28 -0.01    +0.101 C  
DOCKED: ATOM      5  O   UNL     1     140.950  71.869 221.432 -0.14 +0.04    -0.313 OA 
DOCKED: BRANCH   4   6
DOCKED: ATOM      6  C   UNL     1     140.180  71.470 223.617 -0.35 -0.01    +0.088 A  
DOCKED: ATOM      7  C   UNL     1     139.549  70.223 223.523 -0.28 -0.01    +0.031 A  
DOCKED: ATOM      8  N   UNL     1     140.680  71.892 224.810 -0.27 +0.03    -0.246 NA 
DOCKED: ATOM      9  C   UNL     1     139.402  69.441 224.671 -0.36 -0.00    +0.012 A  
DOCKED: ATOM     10  C   UNL     1     140.560  71.147 225.940 -0.55 -0.01    +0.071 A  
DOCKED: ATOM     11  C   UNL     1     139.902  69.899 225.896 -0.48 -0.00    +0.000 A  
DOCKED: ATOM     12  C   UNL     1     141.073  71.625 227.152 -0.75 -0.01    +0.029 A  
DOCKED: ATOM     13  C   UNL     1     139.757  69.147 227.071 -0.57 -0.00    +0.010 A  
DOCKED: ATOM     14  C   UNL     1     140.920  70.871 228.321 -0.63 -0.00    +0.002 A  
DOCKED: ATOM     15  C   UNL     1     140.265  69.637 228.280 -0.61 -0.00    +0.001 A  
DOCKED: ENDBRANCH   4   6
DOCKED: ENDBRANCH   3   4
DOCKED: ENDBRANCH   2   3
DOCKED: BRANCH   2  16
DOCKED: ATOM     16  C   UNL     1     139.954  76.098 221.965 -0.34 +0.01    -0.062 A  
DOCKED: ATOM     17  C   UNL     1     138.655  76.628 222.224 -0.30 -0.00    +0.004 A  
DOCKED: ATOM     18  C   UNL     1     141.090  76.893 222.247 -0.36 -0.00    +0.012 A  
DOCKED: ATOM     19  C   UNL     1     138.496  77.920 222.757 -0.27 -0.00    +0.027 A  
DOCKED: ATOM     20  C   UNL     1     140.892  78.164 222.779 -0.48 +0.00    -0.000 A  
DOCKED: ATOM     21  C   UNL     1     139.642  78.660 223.025 -0.34 -0.01    +0.045 A  
DOCKED: ATOM     22  C   UNL     1     141.801  79.121 223.173 -0.57 -0.01    +0.028 A  
DOCKED: ATOM     23  N   UNL     1     139.712  79.890 223.559 -0.18 +0.05    -0.361 N  
DOCKED: ATOM     24  C   UNL     1     141.031  80.177 223.652 -0.45 -0.02    +0.083 A  
DOCKED: ATOM     25  H   UNL     1     138.917  80.498 223.855 +0.08 -0.02    +0.166 HD 
DOCKED: ENDBRANCH   2  16
DOCKED: TORSDOF 4
DOCKED: TER
DOCKED: ENDMDL
________________________________________________________________________________


    CLUSTERING HISTOGRAM
    ____________________


________________________________________________________________________________
     |           |     |           |     |
Clus | Lowest    | Run | Mean      | Num | Histogram
-ter | Binding   |     | Binding   | in  |
Rank | Energy    |     | Energy    | Clus|    5    10   15   20   25   30   35
_____|___________|_____|___________|_____|____:____|____:____|____:____|____:___
   1 |     -8.60 |  16 |     -8.35 |  10 |##########
   2 |     -8.47 |   1 |     -8.12 |   7 |#######
   3 |     -7.50 |   7 |     -7.50 |   1 |#
   4 |     -7.03 |   9 |     -7.02 |   2 |##
_____|___________|_____|___________|_____|______________________________________


    RMSD TABLE
    __________


_______________________________________________________________________
     |      |      |           |         |                 |
Rank | Sub- | Run  | Binding   | Cluster | Reference       | Grep
     | Rank |      | Energy    | RMSD    | RMSD            | Pattern
_____|______|______|___________|_________|_________________|___________
   1      1     16       -8.60      0.00    272.07           RANKING
   1      2     13       -8.59      0.05    272.06           RANKING
   1      3     18       -8.58      0.04    272.06           RANKING
   1      4      3       -8.58      0.13    272.03           RANKING
   1      5     19       -8.48      0.27    271.99           RANKING
   1      6      8       -8.47      0.32    272.10           RANKING
   1      7      2       -8.46      0.32    271.96           RANKING
   1      8     20       -8.13      1.43    272.09           RANKING
   1      9     17       -8.06      1.41    272.11           RANKING
   1     10      5       -7.52      0.98    271.61           RANKING
   2      1      1       -8.47      0.00    271.63           RANKING
   2      2     11       -8.44      0.06    271.64           RANKING
   2      3     14       -8.14      0.97    271.66           RANKING
   2      4     12       -8.13      0.97    271.72           RANKING
   2      5      6       -8.01      1.30    271.49           RANKING
   2      6      4       -7.89      1.53    271.42           RANKING
   2      7     10       -7.75      1.41    271.28           RANKING
   3      1      7       -7.50      0.00    271.44           RANKING
   4      1      9       -7.03      0.00    271.34           RANKING
   4      2     15       -7.01      0.31    271.20           RANKING

Run time 0.586 sec
Idle time 0.000 sec
