AutoDock-GPU version: v1.6

**********************************************************
**    AutoDock-GPU AUTODOCKTOOLS-COMPATIBLE DLG FILE    **
**********************************************************


    DOCKING PARAMETERS
    ________________________


Ligand file:                               /home/a/REINVENT4/ReinventStudies/pleaseWork/justRnve/graph-dock-t2iv78/graph-DockGPU/node-autodockgpu/inputs/QCMKIQNVNXXUCE-WFELUYCUNA-N.pdbqt
Grid fld file:                             /home/a/REINVENT4/ReinventStudies/mols/Rad51/maps/rad51_receptor.maps.fld

Random seed:                               42
Number of runs:                            20
Number of energy evaluations:              1132076
Number of generations:                     42000
Size of population:                        150
Rate of crossover:                         80.000000%
Tournament selection probability limit:    60.000000%
Rate of mutation:                          2.000000%
Maximal allowed delta movement:            +/- 6.000000A
Maximal allowed delta angle:               +/- 90.000000

Rate of local search:                      100.000000%
Maximal number of local search iterations: 300
Rho lower bound:                           0.010000
Spread of local search delta movement:     2.000000A
Spread of local search delta angle:        74.999999
Limit of consecutive successes/failures:   4

Handle symmetry during clustering:         YES
RMSD tolerance:                            2.000000A

Program call in command line was:          /home/a/REINVENT4/ReinventStudies/adgpu-v1.6_linux_x64_cuda12_128wi --filelist batch.txt --heuristics 1 --nrun 20 --psize 150 --lsit 300 --seed 42 --heurmax 12000000 


    GRID PARAMETERS
    ________________________


Receptor name:                             rad51_receptor
Number of grid points (x, y, z):           53, 53, 53
Grid center (x, y, z):                     139.950000, 75.640000, 221.970000A
Grid size (x, y, z):                       19.500000, 19.500000, 19.500000A
Grid spacing:                              0.375000A


    LIGAND PARAMETERS
    ________________________


Ligand name:                               /home/a/REINVENT4/ReinventStudies/pleaseWork/justRnve/graph-dock-t2iv78/graph-DockGPU/node-autodockgpu/inputs/QCMKIQNVNXXUCE-WFELUYCUNA-N
Number of atoms:                           26
Number of rotatable bonds:                 3
Number of atom types:                      6


    DUMMY DATA (only for ADT-compatibility)
    ________________________


DPF> outlev 1
DPF> ga_run 20
DPF> fld /home/a/REINVENT4/ReinventStudies/mols/Rad51/maps/rad51_receptor.maps.fld
DPF> move /home/a/REINVENT4/ReinventStudies/pleaseWork/justRnve/graph-dock-t2iv78/graph-DockGPU/node-autodockgpu/inputs/QCMKIQNVNXXUCE-WFELUYCUNA-N.pdbqt


    COUNTER STATES
    ________________________


Number of energy evaluations performed:    617907
Number of generations used:                30


    INPUT LIGAND PDBQT FILE:
    ________________________


INPUT-LIGAND-PDBQT: REMARK SMILES C[C@H](NC(=O)c1ccc2ccccc2n1)c1ccc2[nH]ccc2c1
INPUT-LIGAND-PDBQT: REMARK SMILES IDX 1 1 2 2 3 3 4 4 5 6 6 7 7 8 15 9 8 10 14 11 9 12 13 13 10 14
INPUT-LIGAND-PDBQT: REMARK SMILES IDX 12 15 11 16 16 17 17 18 24 19 18 20 23 21 19 22 22 23 20 24
INPUT-LIGAND-PDBQT: REMARK SMILES IDX 21 25
INPUT-LIGAND-PDBQT: REMARK H PARENT 3 5 20 26
INPUT-LIGAND-PDBQT: ROOT
INPUT-LIGAND-PDBQT: ATOM      1  C   UNL     1       1.729  -1.684   2.709  1.00  0.00     0.036 C 
INPUT-LIGAND-PDBQT: ATOM      2  C   UNL     1       0.887  -0.409   2.588  1.00  0.00     0.109 C 
INPUT-LIGAND-PDBQT: ENDROOT
INPUT-LIGAND-PDBQT: BRANCH   2   3
INPUT-LIGAND-PDBQT: ATOM      3  N   UNL     1      -0.122  -0.561   1.533  1.00  0.00    -0.344 N 
INPUT-LIGAND-PDBQT: ATOM      4  C   UNL     1      -1.313  -1.345   1.719  1.00  0.00     0.270 C 
INPUT-LIGAND-PDBQT: ATOM      5  H   UNL     1       0.028  -0.088   0.613  1.00  0.00     0.164 HD
INPUT-LIGAND-PDBQT: ATOM      6  O   UNL     1      -1.539  -1.884   2.837  1.00  0.00    -0.267 OA
INPUT-LIGAND-PDBQT: BRANCH   4   7
INPUT-LIGAND-PDBQT: ATOM      7  C   UNL     1      -2.278  -1.521   0.611  1.00  0.00     0.128 A 
INPUT-LIGAND-PDBQT: ATOM      8  C   UNL     1      -3.451  -2.276   0.786  1.00  0.00     0.035 A 
INPUT-LIGAND-PDBQT: ATOM      9  N   UNL     1      -2.029  -0.946  -0.599  1.00  0.00    -0.243 NA
INPUT-LIGAND-PDBQT: ATOM     10  C   UNL     1      -4.344  -2.426  -0.278  1.00  0.00     0.013 A 
INPUT-LIGAND-PDBQT: ATOM     11  C   UNL     1      -2.879  -1.075  -1.652  1.00  0.00     0.071 A 
INPUT-LIGAND-PDBQT: ATOM     12  C   UNL     1      -4.066  -1.826  -1.511  1.00  0.00     0.000 A 
INPUT-LIGAND-PDBQT: ATOM     13  C   UNL     1      -2.580  -0.465  -2.876  1.00  0.00     0.029 A 
INPUT-LIGAND-PDBQT: ATOM     14  C   UNL     1      -4.941  -1.957  -2.600  1.00  0.00     0.010 A 
INPUT-LIGAND-PDBQT: ATOM     15  C   UNL     1      -3.457  -0.601  -3.957  1.00  0.00     0.002 A 
INPUT-LIGAND-PDBQT: ATOM     16  C   UNL     1      -4.634  -1.344  -3.819  1.00  0.00     0.001 A 
INPUT-LIGAND-PDBQT: ENDBRANCH   4   7
INPUT-LIGAND-PDBQT: ENDBRANCH   2   3
INPUT-LIGAND-PDBQT: BRANCH   2  17
INPUT-LIGAND-PDBQT: ATOM     17  C   UNL     1       1.769   0.796   2.317  1.00  0.00    -0.025 A 
INPUT-LIGAND-PDBQT: ATOM     18  C   UNL     1       1.818   1.864   3.253  1.00  0.00     0.008 A 
INPUT-LIGAND-PDBQT: ATOM     19  C   UNL     1       2.550   0.869   1.138  1.00  0.00     0.016 A 
INPUT-LIGAND-PDBQT: ATOM     20  C   UNL     1       2.631   2.989   3.021  1.00  0.00     0.027 A 
INPUT-LIGAND-PDBQT: ATOM     21  C   UNL     1       3.341   1.997   0.942  1.00  0.00    -0.000 A 
INPUT-LIGAND-PDBQT: ATOM     22  C   UNL     1       3.381   3.020   1.849  1.00  0.00     0.045 A 
INPUT-LIGAND-PDBQT: ATOM     23  C   UNL     1       4.185   2.332  -0.094  1.00  0.00     0.028 A 
INPUT-LIGAND-PDBQT: ATOM     24  N   UNL     1       4.213   3.991   1.438  1.00  0.00    -0.361 N 
INPUT-LIGAND-PDBQT: ATOM     25  C   UNL     1       4.707   3.575   0.249  1.00  0.00     0.083 A 
INPUT-LIGAND-PDBQT: ATOM     26  H   UNL     1       4.435   4.885   1.930  1.00  0.00     0.166 HD
INPUT-LIGAND-PDBQT: ENDBRANCH   2  17
INPUT-LIGAND-PDBQT: TORSDOF 3


    FINAL DOCKED STATE:
    ________________________


Run:   1 / 20
Time taken for this run:   0.021s

DOCKED: MODEL        1
DOCKED: USER    Run = 1
DOCKED: USER
DOCKED: USER    Estimated Free Energy of Binding    =  -8.71 kcal/mol  [=(1)+(2)+(3)-(4)]
DOCKED: USER
DOCKED: USER    (1) Final Intermolecular Energy     =  -9.61 kcal/mol
DOCKED: USER        vdW + Hbond + desolv Energy     =  -9.56 kcal/mol
DOCKED: USER        Electrostatic Energy            =  -0.05 kcal/mol
DOCKED: USER        Moving Ligand-Fixed Receptor    =  -9.61 kcal/mol
DOCKED: USER        Moving Ligand-Moving Receptor   =  +0.00 kcal/mol
DOCKED: USER    (2) Final Total Internal Energy     =  -0.67 kcal/mol
DOCKED: USER    (3) Torsional Free Energy           =  +0.89 kcal/mol
DOCKED: USER    (4) Unbound System's Energy         =  -0.67 kcal/mol
DOCKED: USER
DOCKED: USER
DOCKED: REMARK SMILES C[C@H](NC(=O)c1ccc2ccccc2n1)c1ccc2[nH]ccc2c1
DOCKED: REMARK SMILES IDX 1 1 2 2 3 3 4 4 5 6 6 7 7 8 15 9 8 10 14 11 9 12 13 13 10 14
DOCKED: REMARK SMILES IDX 12 15 11 16 16 17 17 18 24 19 18 20 23 21 19 22 22 23 20 24
DOCKED: REMARK SMILES IDX 21 25
DOCKED: REMARK H PARENT 3 5 20 26
DOCKED: USER                              x       y       z     vdW  Elec       q    Type
DOCKED: USER                           _______ _______ _______ _____ _____    ______ ____
DOCKED: ROOT
DOCKED: ATOM      1  C   UNL     1     138.272  74.602 220.509 -0.09 -0.01    +0.036 C  
DOCKED: ATOM      2  C   UNL     1     139.702  74.370 221.011 -0.19 -0.02    +0.109 C  
DOCKED: ENDROOT
DOCKED: BRANCH   2   3
DOCKED: ATOM      3  N   UNL     1     139.687  73.581 222.249 -0.13 +0.05    -0.344 N  
DOCKED: ATOM      4  C   UNL     1     140.250  72.260 222.322 -0.21 -0.03    +0.270 C  
DOCKED: ATOM      5  H   UNL     1     139.250  73.988 223.107 -0.53 -0.06    +0.164 HD 
DOCKED: ATOM      6  O   UNL     1     140.826  71.768 221.313 -0.14 +0.03    -0.267 OA 
DOCKED: BRANCH   4   7
DOCKED: ATOM      7  C   UNL     1     140.164  71.474 223.572 -0.33 -0.02    +0.128 A  
DOCKED: ATOM      8  C   UNL     1     139.580  70.194 223.584 -0.28 -0.01    +0.035 A  
DOCKED: ATOM      9  N   UNL     1     140.654  71.994 224.732 -0.17 +0.03    -0.243 NA 
DOCKED: ATOM     10  C   UNL     1     139.511  69.475 224.780 -0.37 -0.00    +0.013 A  
DOCKED: ATOM     11  C   UNL     1     140.601  71.318 225.910 -0.55 -0.01    +0.071 A  
DOCKED: ATOM     12  C   UNL     1     140.022  70.031 225.958 -0.50 -0.00    +0.000 A  
DOCKED: ATOM     13  C   UNL     1     141.118  71.894 227.076 -0.77 -0.01    +0.029 A  
DOCKED: ATOM     14  C   UNL     1     139.968  69.336 227.176 -0.58 -0.00    +0.010 A  
DOCKED: ATOM     15  C   UNL     1     141.061  71.195 228.286 -0.70 -0.00    +0.002 A  
DOCKED: ATOM     16  C   UNL     1     140.488  69.920 228.336 -0.59 -0.00    +0.001 A  
DOCKED: ENDBRANCH   4   7
DOCKED: ENDBRANCH   2   3
DOCKED: BRANCH   2  17
DOCKED: ATOM     17  C   UNL     1     140.419  75.690 221.226 -0.29 +0.01    -0.025 A  
DOCKED: ATOM     18  C   UNL     1     141.396  76.127 220.292 -0.25 -0.00    +0.008 A  
DOCKED: ATOM     19  C   UNL     1     140.122  76.499 222.350 -0.39 -0.00    +0.016 A  
DOCKED: ATOM     20  C   UNL     1     142.070  77.349 220.472 -0.27 -0.02    +0.027 A  
DOCKED: ATOM     21  C   UNL     1     140.810  77.700 222.496 -0.44 +0.00    -0.000 A  
DOCKED: ATOM     22  C   UNL     1     141.749  78.111 221.591 -0.26 -0.03    +0.045 A  
DOCKED: ATOM     23  C   UNL     1     140.729  78.667 223.474 -0.43 -0.01    +0.028 A  
DOCKED: ATOM     24  N   UNL     1     142.270  79.296 221.948 -0.20 +0.20    -0.361 N  
DOCKED: ATOM     25  C   UNL     1     141.650  79.640 223.100 -0.51 -0.02    +0.083 A  
DOCKED: ATOM     26  H   UNL     1     143.004  79.843 221.445 -0.40 -0.12    +0.166 HD 
DOCKED: ENDBRANCH   2  17
DOCKED: TORSDOF 3
DOCKED: TER
DOCKED: ENDMDL
________________________________________________________________________________


    FINAL DOCKED STATE:
    ________________________


Run:   2 / 20
Time taken for this run:   0.021s

DOCKED: MODEL        2
DOCKED: USER    Run = 2
DOCKED: USER
DOCKED: USER    Estimated Free Energy of Binding    =  -8.69 kcal/mol  [=(1)+(2)+(3)-(4)]
DOCKED: USER
DOCKED: USER    (1) Final Intermolecular Energy     =  -9.58 kcal/mol
DOCKED: USER        vdW + Hbond + desolv Energy     =  -9.56 kcal/mol
DOCKED: USER        Electrostatic Energy            =  -0.02 kcal/mol
DOCKED: USER        Moving Ligand-Fixed Receptor    =  -9.58 kcal/mol
DOCKED: USER        Moving Ligand-Moving Receptor   =  +0.00 kcal/mol
DOCKED: USER    (2) Final Total Internal Energy     =  -0.70 kcal/mol
DOCKED: USER    (3) Torsional Free Energy           =  +0.89 kcal/mol
DOCKED: USER    (4) Unbound System's Energy         =  -0.70 kcal/mol
DOCKED: USER
DOCKED: USER
DOCKED: REMARK SMILES C[C@H](NC(=O)c1ccc2ccccc2n1)c1ccc2[nH]ccc2c1
DOCKED: REMARK SMILES IDX 1 1 2 2 3 3 4 4 5 6 6 7 7 8 15 9 8 10 14 11 9 12 13 13 10 14
DOCKED: REMARK SMILES IDX 12 15 11 16 16 17 17 18 24 19 18 20 23 21 19 22 22 23 20 24
DOCKED: REMARK SMILES IDX 21 25
DOCKED: REMARK H PARENT 3 5 20 26
DOCKED: USER                              x       y       z     vdW  Elec       q    Type
DOCKED: USER                           _______ _______ _______ _____ _____    ______ ____
DOCKED: ROOT
DOCKED: ATOM      1  C   UNL     1     138.355  74.509 220.547 -0.10 -0.01    +0.036 C  
DOCKED: ATOM      2  C   UNL     1     139.795  74.316 221.036 -0.19 -0.02    +0.109 C  
DOCKED: ENDROOT
DOCKED: BRANCH   2   3
DOCKED: ATOM      3  N   UNL     1     139.812  73.533 222.278 -0.13 +0.04    -0.344 N  
DOCKED: ATOM      4  C   UNL     1     140.175  72.142 222.301 -0.21 -0.04    +0.270 C  
DOCKED: ATOM      5  H   UNL     1     139.549  73.997 223.176 -0.51 -0.02    +0.164 HD 
DOCKED: ATOM      6  O   UNL     1     140.544  71.574 221.237 -0.11 +0.04    -0.267 OA 
DOCKED: BRANCH   4   7
DOCKED: ATOM      7  C   UNL     1     140.125  71.372 223.564 -0.32 -0.02    +0.128 A  
DOCKED: ATOM      8  C   UNL     1     139.580  70.077 223.601 -0.27 -0.01    +0.035 A  
DOCKED: ATOM      9  N   UNL     1     140.610  71.925 224.711 -0.23 +0.03    -0.243 NA 
DOCKED: ATOM     10  C   UNL     1     139.544  69.374 224.808 -0.37 -0.00    +0.013 A  
DOCKED: ATOM     11  C   UNL     1     140.589  71.265 225.899 -0.55 -0.01    +0.071 A  
DOCKED: ATOM     12  C   UNL     1     140.049  69.963 225.972 -0.50 -0.00    +0.000 A  
DOCKED: ATOM     13  C   UNL     1     141.100  71.874 227.051 -0.77 -0.01    +0.029 A  
DOCKED: ATOM     14  C   UNL     1     140.028  69.285 227.200 -0.58 -0.00    +0.010 A  
DOCKED: ATOM     15  C   UNL     1     141.075  71.192 228.272 -0.70 -0.00    +0.002 A  
DOCKED: ATOM     16  C   UNL     1     140.541  69.901 228.346 -0.58 -0.00    +0.001 A  
DOCKED: ENDBRANCH   4   7
DOCKED: ENDBRANCH   2   3
DOCKED: BRANCH   2  17
DOCKED: ATOM     17  C   UNL     1     140.480  75.655 221.237 -0.30 +0.01    -0.025 A  
DOCKED: ATOM     18  C   UNL     1     141.437  76.112 220.291 -0.26 -0.00    +0.008 A  
DOCKED: ATOM     19  C   UNL     1     140.174  76.461 222.361 -0.38 -0.00    +0.016 A  
DOCKED: ATOM     20  C   UNL     1     142.081  77.351 220.459 -0.27 -0.02    +0.027 A  
DOCKED: ATOM     21  C   UNL     1     140.832  77.680 222.494 -0.44 +0.00    -0.000 A  
DOCKED: ATOM     22  C   UNL     1     141.752  78.111 221.578 -0.26 -0.03    +0.045 A  
DOCKED: ATOM     23  C   UNL     1     140.737  78.650 223.468 -0.43 -0.01    +0.028 A  
DOCKED: ATOM     24  N   UNL     1     142.246  79.311 221.924 -0.20 +0.20    -0.361 N  
DOCKED: ATOM     25  C   UNL     1     141.628  79.645 223.081 -0.50 -0.02    +0.083 A  
DOCKED: ATOM     26  H   UNL     1     142.961  79.873 221.411 -0.38 -0.11    +0.166 HD 
DOCKED: ENDBRANCH   2  17
DOCKED: TORSDOF 3
DOCKED: TER
DOCKED: ENDMDL
________________________________________________________________________________


    FINAL DOCKED STATE:
    ________________________


Run:   3 / 20
Time taken for this run:   0.021s

DOCKED: MODEL        3
DOCKED: USER    Run = 3
DOCKED: USER
DOCKED: USER    Estimated Free Energy of Binding    =  -8.66 kcal/mol  [=(1)+(2)+(3)-(4)]
DOCKED: USER
DOCKED: USER    (1) Final Intermolecular Energy     =  -9.56 kcal/mol
DOCKED: USER        vdW + Hbond + desolv Energy     =  -9.54 kcal/mol
DOCKED: USER        Electrostatic Energy            =  -0.01 kcal/mol
DOCKED: USER        Moving Ligand-Fixed Receptor    =  -9.56 kcal/mol
DOCKED: USER        Moving Ligand-Moving Receptor   =  +0.00 kcal/mol
DOCKED: USER    (2) Final Total Internal Energy     =  -0.72 kcal/mol
DOCKED: USER    (3) Torsional Free Energy           =  +0.89 kcal/mol
DOCKED: USER    (4) Unbound System's Energy         =  -0.72 kcal/mol
DOCKED: USER
DOCKED: USER
DOCKED: REMARK SMILES C[C@H](NC(=O)c1ccc2ccccc2n1)c1ccc2[nH]ccc2c1
DOCKED: REMARK SMILES IDX 1 1 2 2 3 3 4 4 5 6 6 7 7 8 15 9 8 10 14 11 9 12 13 13 10 14
DOCKED: REMARK SMILES IDX 12 15 11 16 16 17 17 18 24 19 18 20 23 21 19 22 22 23 20 24
DOCKED: REMARK SMILES IDX 21 25
DOCKED: REMARK H PARENT 3 5 20 26
DOCKED: USER                              x       y       z     vdW  Elec       q    Type
DOCKED: USER                           _______ _______ _______ _____ _____    ______ ____
DOCKED: ROOT
DOCKED: ATOM      1  C   UNL     1     138.307  74.543 220.608 -0.10 -0.01    +0.036 C  
DOCKED: ATOM      2  C   UNL     1     139.754  74.326 221.064 -0.19 -0.02    +0.109 C  
DOCKED: ENDROOT
DOCKED: BRANCH   2   3
DOCKED: ATOM      3  N   UNL     1     139.788  73.537 222.301 -0.13 +0.04    -0.344 N  
DOCKED: ATOM      4  C   UNL     1     140.106  72.134 222.306 -0.20 -0.04    +0.270 C  
DOCKED: ATOM      5  H   UNL     1     139.571  74.005 223.210 -0.50 -0.02    +0.164 HD 
DOCKED: ATOM      6  O   UNL     1     140.419  71.560 221.228 -0.11 +0.04    -0.267 OA 
DOCKED: BRANCH   4   7
DOCKED: ATOM      7  C   UNL     1     140.072  71.361 223.567 -0.32 -0.02    +0.128 A  
DOCKED: ATOM      8  C   UNL     1     139.548  70.057 223.603 -0.27 -0.01    +0.035 A  
DOCKED: ATOM      9  N   UNL     1     140.554  71.917 224.714 -0.24 +0.04    -0.243 NA 
DOCKED: ATOM     10  C   UNL     1     139.528  69.350 224.808 -0.37 -0.00    +0.013 A  
DOCKED: ATOM     11  C   UNL     1     140.548  71.254 225.901 -0.55 -0.01    +0.071 A  
DOCKED: ATOM     12  C   UNL     1     140.029  69.943 225.972 -0.50 -0.00    +0.000 A  
DOCKED: ATOM     13  C   UNL     1     141.055  71.868 227.052 -0.77 -0.01    +0.029 A  
DOCKED: ATOM     14  C   UNL     1     140.024  69.262 227.198 -0.58 -0.00    +0.010 A  
DOCKED: ATOM     15  C   UNL     1     141.046  71.182 228.271 -0.70 -0.00    +0.002 A  
DOCKED: ATOM     16  C   UNL     1     140.533  69.883 228.344 -0.59 -0.00    +0.001 A  
DOCKED: ENDBRANCH   4   7
DOCKED: ENDBRANCH   2   3
DOCKED: BRANCH   2  17
DOCKED: ATOM     17  C   UNL     1     140.464  75.654 221.256 -0.30 +0.01    -0.025 A  
DOCKED: ATOM     18  C   UNL     1     141.428  76.087 220.306 -0.26 -0.00    +0.008 A  
DOCKED: ATOM     19  C   UNL     1     140.174  76.473 222.374 -0.38 -0.00    +0.016 A  
DOCKED: ATOM     20  C   UNL     1     142.095  77.316 220.465 -0.27 -0.02    +0.027 A  
DOCKED: ATOM     21  C   UNL     1     140.854  77.681 222.499 -0.45 +0.00    -0.000 A  
DOCKED: ATOM     22  C   UNL     1     141.780  78.088 221.579 -0.24 -0.03    +0.045 A  
DOCKED: ATOM     23  C   UNL     1     140.777  78.658 223.467 -0.44 -0.01    +0.028 A  
DOCKED: ATOM     24  N   UNL     1     142.296  79.282 221.917 -0.18 +0.20    -0.361 N  
DOCKED: ATOM     25  C   UNL     1     141.686  79.634 223.072 -0.51 -0.02    +0.083 A  
DOCKED: ATOM     26  H   UNL     1     143.021  79.828 221.400 -0.40 -0.12    +0.166 HD 
DOCKED: ENDBRANCH   2  17
DOCKED: TORSDOF 3
DOCKED: TER
DOCKED: ENDMDL
________________________________________________________________________________


    FINAL DOCKED STATE:
    ________________________


Run:   4 / 20
Time taken for this run:   0.021s

DOCKED: MODEL        4
DOCKED: USER    Run = 4
DOCKED: USER
DOCKED: USER    Estimated Free Energy of Binding    =  -8.68 kcal/mol  [=(1)+(2)+(3)-(4)]
DOCKED: USER
DOCKED: USER    (1) Final Intermolecular Energy     =  -9.58 kcal/mol
DOCKED: USER        vdW + Hbond + desolv Energy     =  -9.56 kcal/mol
DOCKED: USER        Electrostatic Energy            =  -0.02 kcal/mol
DOCKED: USER        Moving Ligand-Fixed Receptor    =  -9.58 kcal/mol
DOCKED: USER        Moving Ligand-Moving Receptor   =  +0.00 kcal/mol
DOCKED: USER    (2) Final Total Internal Energy     =  -0.70 kcal/mol
DOCKED: USER    (3) Torsional Free Energy           =  +0.89 kcal/mol
DOCKED: USER    (4) Unbound System's Energy         =  -0.70 kcal/mol
DOCKED: USER
DOCKED: USER
DOCKED: REMARK SMILES C[C@H](NC(=O)c1ccc2ccccc2n1)c1ccc2[nH]ccc2c1
DOCKED: REMARK SMILES IDX 1 1 2 2 3 3 4 4 5 6 6 7 7 8 15 9 8 10 14 11 9 12 13 13 10 14
DOCKED: REMARK SMILES IDX 12 15 11 16 16 17 17 18 24 19 18 20 23 21 19 22 22 23 20 24
DOCKED: REMARK SMILES IDX 21 25
DOCKED: REMARK H PARENT 3 5 20 26
DOCKED: USER                              x       y       z     vdW  Elec       q    Type
DOCKED: USER                           _______ _______ _______ _____ _____    ______ ____
DOCKED: ROOT
DOCKED: ATOM      1  C   UNL     1     138.311  74.517 220.543 -0.10 -0.01    +0.036 C  
DOCKED: ATOM      2  C   UNL     1     139.751  74.318 221.027 -0.19 -0.02    +0.109 C  
DOCKED: ENDROOT
DOCKED: BRANCH   2   3
DOCKED: ATOM      3  N   UNL     1     139.770  73.535 222.268 -0.13 +0.05    -0.344 N  
DOCKED: ATOM      4  C   UNL     1     140.170  72.154 222.297 -0.21 -0.04    +0.270 C  
DOCKED: ATOM      5  H   UNL     1     139.480  73.992 223.163 -0.51 -0.03    +0.164 HD 
DOCKED: ATOM      6  O   UNL     1     140.571  71.597 221.239 -0.12 +0.04    -0.267 OA 
DOCKED: BRANCH   4   7
DOCKED: ATOM      7  C   UNL     1     140.120  71.383 223.559 -0.32 -0.02    +0.128 A  
DOCKED: ATOM      8  C   UNL     1     139.583  70.084 223.593 -0.27 -0.01    +0.035 A  
DOCKED: ATOM      9  N   UNL     1     140.598  71.937 224.709 -0.22 +0.03    -0.243 NA 
DOCKED: ATOM     10  C   UNL     1     139.547  69.380 224.799 -0.37 -0.00    +0.013 A  
DOCKED: ATOM     11  C   UNL     1     140.577  71.276 225.896 -0.55 -0.01    +0.071 A  
DOCKED: ATOM     12  C   UNL     1     140.045  69.970 225.966 -0.50 -0.00    +0.000 A  
DOCKED: ATOM     13  C   UNL     1     141.081  71.887 227.050 -0.77 -0.01    +0.029 A  
DOCKED: ATOM     14  C   UNL     1     140.024  69.291 227.193 -0.58 -0.00    +0.010 A  
DOCKED: ATOM     15  C   UNL     1     141.056  71.203 228.270 -0.71 -0.00    +0.002 A  
DOCKED: ATOM     16  C   UNL     1     140.530  69.909 228.341 -0.58 -0.00    +0.001 A  
DOCKED: ENDBRANCH   4   7
DOCKED: ENDBRANCH   2   3
DOCKED: BRANCH   2  17
DOCKED: ATOM     17  C   UNL     1     140.443  75.655 221.226 -0.29 +0.01    -0.025 A  
DOCKED: ATOM     18  C   UNL     1     141.404  76.103 220.280 -0.25 -0.00    +0.008 A  
DOCKED: ATOM     19  C   UNL     1     140.139  76.466 222.346 -0.39 -0.00    +0.016 A  
DOCKED: ATOM     20  C   UNL     1     142.055  77.340 220.445 -0.27 -0.02    +0.027 A  
DOCKED: ATOM     21  C   UNL     1     140.803  77.682 222.477 -0.44 +0.00    -0.000 A  
DOCKED: ATOM     22  C   UNL     1     141.727  78.105 221.561 -0.27 -0.03    +0.045 A  
DOCKED: ATOM     23  C   UNL     1     140.711  78.654 223.448 -0.43 -0.01    +0.028 A  
DOCKED: ATOM     24  N   UNL     1     142.227  79.303 221.905 -0.20 +0.20    -0.361 N  
DOCKED: ATOM     25  C   UNL     1     141.608  79.643 223.059 -0.50 -0.02    +0.083 A  
DOCKED: ATOM     26  H   UNL     1     142.945  79.860 221.391 -0.38 -0.11    +0.166 HD 
DOCKED: ENDBRANCH   2  17
DOCKED: TORSDOF 3
DOCKED: TER
DOCKED: ENDMDL
________________________________________________________________________________


    FINAL DOCKED STATE:
    ________________________


Run:   5 / 20
Time taken for this run:   0.021s

DOCKED: MODEL        5
DOCKED: USER    Run = 5
DOCKED: USER
DOCKED: USER    Estimated Free Energy of Binding    =  -8.67 kcal/mol  [=(1)+(2)+(3)-(4)]
DOCKED: USER
DOCKED: USER    (1) Final Intermolecular Energy     =  -9.56 kcal/mol
DOCKED: USER        vdW + Hbond + desolv Energy     =  -9.55 kcal/mol
DOCKED: USER        Electrostatic Energy            =  -0.02 kcal/mol
DOCKED: USER        Moving Ligand-Fixed Receptor    =  -9.56 kcal/mol
DOCKED: USER        Moving Ligand-Moving Receptor   =  +0.00 kcal/mol
DOCKED: USER    (2) Final Total Internal Energy     =  -0.72 kcal/mol
DOCKED: USER    (3) Torsional Free Energy           =  +0.89 kcal/mol
DOCKED: USER    (4) Unbound System's Energy         =  -0.72 kcal/mol
DOCKED: USER
DOCKED: USER
DOCKED: REMARK SMILES C[C@H](NC(=O)c1ccc2ccccc2n1)c1ccc2[nH]ccc2c1
DOCKED: REMARK SMILES IDX 1 1 2 2 3 3 4 4 5 6 6 7 7 8 15 9 8 10 14 11 9 12 13 13 10 14
DOCKED: REMARK SMILES IDX 12 15 11 16 16 17 17 18 24 19 18 20 23 21 19 22 22 23 20 24
DOCKED: REMARK SMILES IDX 21 25
DOCKED: REMARK H PARENT 3 5 20 26
DOCKED: USER                              x       y       z     vdW  Elec       q    Type
DOCKED: USER                           _______ _______ _______ _____ _____    ______ ____
DOCKED: ROOT
DOCKED: ATOM      1  C   UNL     1     138.281  74.548 220.614 -0.10 -0.01    +0.036 C  
DOCKED: ATOM      2  C   UNL     1     139.731  74.336 221.062 -0.19 -0.02    +0.109 C  
DOCKED: ENDROOT
DOCKED: BRANCH   2   3
DOCKED: ATOM      3  N   UNL     1     139.774  73.543 222.296 -0.13 +0.04    -0.344 N  
DOCKED: ATOM      4  C   UNL     1     140.120  72.148 222.299 -0.20 -0.04    +0.270 C  
DOCKED: ATOM      5  H   UNL     1     139.544  74.004 223.206 -0.50 -0.03    +0.164 HD 
DOCKED: ATOM      6  O   UNL     1     140.450  71.583 221.220 -0.11 +0.04    -0.267 OA 
DOCKED: BRANCH   4   7
DOCKED: ATOM      7  C   UNL     1     140.095  71.369 223.557 -0.32 -0.02    +0.128 A  
DOCKED: ATOM      8  C   UNL     1     139.580  70.062 223.589 -0.27 -0.01    +0.035 A  
DOCKED: ATOM      9  N   UNL     1     140.577  71.925 224.704 -0.23 +0.03    -0.243 NA 
DOCKED: ATOM     10  C   UNL     1     139.569  69.350 224.792 -0.37 -0.00    +0.013 A  
DOCKED: ATOM     11  C   UNL     1     140.578  71.257 225.889 -0.55 -0.01    +0.071 A  
DOCKED: ATOM     12  C   UNL     1     140.069  69.943 225.957 -0.50 -0.00    +0.000 A  
DOCKED: ATOM     13  C   UNL     1     141.084  71.871 227.041 -0.77 -0.01    +0.029 A  
DOCKED: ATOM     14  C   UNL     1     140.072  69.257 227.181 -0.58 -0.00    +0.010 A  
DOCKED: ATOM     15  C   UNL     1     141.083  71.180 228.257 -0.70 -0.00    +0.002 A  
DOCKED: ATOM     16  C   UNL     1     140.580  69.877 228.327 -0.59 -0.00    +0.001 A  
DOCKED: ENDBRANCH   4   7
DOCKED: ENDBRANCH   2   3
DOCKED: BRANCH   2  17
DOCKED: ATOM     17  C   UNL     1     140.436  75.667 221.254 -0.30 +0.01    -0.025 A  
DOCKED: ATOM     18  C   UNL     1     141.399  76.103 220.305 -0.25 -0.00    +0.008 A  
DOCKED: ATOM     19  C   UNL     1     140.143  76.484 222.373 -0.38 -0.00    +0.016 A  
DOCKED: ATOM     20  C   UNL     1     142.062  77.334 220.464 -0.27 -0.02    +0.027 A  
DOCKED: ATOM     21  C   UNL     1     140.819  77.694 222.498 -0.44 +0.00    -0.000 A  
DOCKED: ATOM     22  C   UNL     1     141.744  78.105 221.578 -0.26 -0.03    +0.045 A  
DOCKED: ATOM     23  C   UNL     1     140.739  78.671 223.466 -0.44 -0.01    +0.028 A  
DOCKED: ATOM     24  N   UNL     1     142.256  79.300 221.916 -0.20 +0.20    -0.361 N  
DOCKED: ATOM     25  C   UNL     1     141.645  79.650 223.071 -0.50 -0.02    +0.083 A  
DOCKED: ATOM     26  H   UNL     1     142.979  79.849 221.399 -0.39 -0.12    +0.166 HD 
DOCKED: ENDBRANCH   2  17
DOCKED: TORSDOF 3
DOCKED: TER
DOCKED: ENDMDL
________________________________________________________________________________


    FINAL DOCKED STATE:
    ________________________


Run:   6 / 20
Time taken for this run:   0.021s

DOCKED: MODEL        6
DOCKED: USER    Run = 6
DOCKED: USER
DOCKED: USER    Estimated Free Energy of Binding    =  -8.65 kcal/mol  [=(1)+(2)+(3)-(4)]
DOCKED: USER
DOCKED: USER    (1) Final Intermolecular Energy     =  -9.55 kcal/mol
DOCKED: USER        vdW + Hbond + desolv Energy     =  -9.53 kcal/mol
DOCKED: USER        Electrostatic Energy            =  -0.02 kcal/mol
DOCKED: USER        Moving Ligand-Fixed Receptor    =  -9.55 kcal/mol
DOCKED: USER        Moving Ligand-Moving Receptor   =  +0.00 kcal/mol
DOCKED: USER    (2) Final Total Internal Energy     =  -0.73 kcal/mol
DOCKED: USER    (3) Torsional Free Energy           =  +0.89 kcal/mol
DOCKED: USER    (4) Unbound System's Energy         =  -0.73 kcal/mol
DOCKED: USER
DOCKED: USER
DOCKED: REMARK SMILES C[C@H](NC(=O)c1ccc2ccccc2n1)c1ccc2[nH]ccc2c1
DOCKED: REMARK SMILES IDX 1 1 2 2 3 3 4 4 5 6 6 7 7 8 15 9 8 10 14 11 9 12 13 13 10 14
DOCKED: REMARK SMILES IDX 12 15 11 16 16 17 17 18 24 19 18 20 23 21 19 22 22 23 20 24
DOCKED: REMARK SMILES IDX 21 25
DOCKED: REMARK H PARENT 3 5 20 26
DOCKED: USER                              x       y       z     vdW  Elec       q    Type
DOCKED: USER                           _______ _______ _______ _____ _____    ______ ____
DOCKED: ROOT
DOCKED: ATOM      1  C   UNL     1     138.162  74.527 220.695 -0.10 -0.01    +0.036 C  
DOCKED: ATOM      2  C   UNL     1     139.626  74.300 221.087 -0.19 -0.02    +0.109 C  
DOCKED: ENDROOT
DOCKED: BRANCH   2   3
DOCKED: ATOM      3  N   UNL     1     139.708  73.505 222.318 -0.13 +0.05    -0.344 N  
DOCKED: ATOM      4  C   UNL     1     140.004  72.098 222.303 -0.20 -0.04    +0.270 C  
DOCKED: ATOM      5  H   UNL     1     139.544  73.972 223.238 -0.49 -0.03    +0.164 HD 
DOCKED: ATOM      6  O   UNL     1     140.256  71.523 221.208 -0.10 +0.04    -0.267 OA 
DOCKED: BRANCH   4   7
DOCKED: ATOM      7  C   UNL     1     140.021  71.319 223.561 -0.32 -0.02    +0.128 A  
DOCKED: ATOM      8  C   UNL     1     139.550  69.995 223.599 -0.27 -0.01    +0.035 A  
DOCKED: ATOM      9  N   UNL     1     140.497  71.891 224.703 -0.27 +0.04    -0.243 NA 
DOCKED: ATOM     10  C   UNL     1     139.577  69.284 224.802 -0.37 -0.00    +0.013 A  
DOCKED: ATOM     11  C   UNL     1     140.535  71.224 225.887 -0.54 -0.01    +0.071 A  
DOCKED: ATOM     12  C   UNL     1     140.071  69.893 225.960 -0.50 -0.00    +0.000 A  
DOCKED: ATOM     13  C   UNL     1     141.034  71.854 227.033 -0.76 -0.01    +0.029 A  
DOCKED: ATOM     14  C   UNL     1     140.111  69.208 227.184 -0.59 -0.00    +0.010 A  
DOCKED: ATOM     15  C   UNL     1     141.071  71.164 228.249 -0.70 -0.00    +0.002 A  
DOCKED: ATOM     16  C   UNL     1     140.611  69.845 228.324 -0.59 -0.00    +0.001 A  
DOCKED: ENDBRANCH   4   7
DOCKED: ENDBRANCH   2   3
DOCKED: BRANCH   2  17
DOCKED: ATOM     17  C   UNL     1     140.351  75.623 221.255 -0.29 +0.01    -0.025 A  
DOCKED: ATOM     18  C   UNL     1     141.319  76.028 220.296 -0.24 -0.00    +0.008 A  
DOCKED: ATOM     19  C   UNL     1     140.071  76.466 222.358 -0.38 -0.00    +0.016 A  
DOCKED: ATOM     20  C   UNL     1     142.000  77.252 220.432 -0.28 -0.02    +0.027 A  
DOCKED: ATOM     21  C   UNL     1     140.765  77.668 222.460 -0.44 +0.00    -0.000 A  
DOCKED: ATOM     22  C   UNL     1     141.695  78.048 221.532 -0.26 -0.03    +0.045 A  
DOCKED: ATOM     23  C   UNL     1     140.700  78.663 223.410 -0.43 -0.01    +0.028 A  
DOCKED: ATOM     24  N   UNL     1     142.225  79.241 221.848 -0.19 +0.20    -0.361 N  
DOCKED: ATOM     25  C   UNL     1     141.620  79.622 222.997 -0.49 -0.03    +0.083 A  
DOCKED: ATOM     26  H   UNL     1     142.955  79.770 221.320 -0.40 -0.12    +0.166 HD 
DOCKED: ENDBRANCH   2  17
DOCKED: TORSDOF 3
DOCKED: TER
DOCKED: ENDMDL
________________________________________________________________________________


    FINAL DOCKED STATE:
    ________________________


Run:   7 / 20
Time taken for this run:   0.021s

DOCKED: MODEL        7
DOCKED: USER    Run = 7
DOCKED: USER
DOCKED: USER    Estimated Free Energy of Binding    =  -8.66 kcal/mol  [=(1)+(2)+(3)-(4)]
DOCKED: USER
DOCKED: USER    (1) Final Intermolecular Energy     =  -9.56 kcal/mol
DOCKED: USER        vdW + Hbond + desolv Energy     =  -9.54 kcal/mol
DOCKED: USER        Electrostatic Energy            =  -0.02 kcal/mol
DOCKED: USER        Moving Ligand-Fixed Receptor    =  -9.56 kcal/mol
DOCKED: USER        Moving Ligand-Moving Receptor   =  +0.00 kcal/mol
DOCKED: USER    (2) Final Total Internal Energy     =  -0.73 kcal/mol
DOCKED: USER    (3) Torsional Free Energy           =  +0.89 kcal/mol
DOCKED: USER    (4) Unbound System's Energy         =  -0.73 kcal/mol
DOCKED: USER
DOCKED: USER
DOCKED: REMARK SMILES C[C@H](NC(=O)c1ccc2ccccc2n1)c1ccc2[nH]ccc2c1
DOCKED: REMARK SMILES IDX 1 1 2 2 3 3 4 4 5 6 6 7 7 8 15 9 8 10 14 11 9 12 13 13 10 14
DOCKED: REMARK SMILES IDX 12 15 11 16 16 17 17 18 24 19 18 20 23 21 19 22 22 23 20 24
DOCKED: REMARK SMILES IDX 21 25
DOCKED: REMARK H PARENT 3 5 20 26
DOCKED: USER                              x       y       z     vdW  Elec       q    Type
DOCKED: USER                           _______ _______ _______ _____ _____    ______ ____
DOCKED: ROOT
DOCKED: ATOM      1  C   UNL     1     138.187  74.534 220.690 -0.11 -0.01    +0.036 C  
DOCKED: ATOM      2  C   UNL     1     139.648  74.314 221.095 -0.19 -0.02    +0.109 C  
DOCKED: ENDROOT
DOCKED: BRANCH   2   3
DOCKED: ATOM      3  N   UNL     1     139.723  73.517 222.326 -0.13 +0.05    -0.344 N  
DOCKED: ATOM      4  C   UNL     1     140.038  72.114 222.312 -0.20 -0.04    +0.270 C  
DOCKED: ATOM      5  H   UNL     1     139.539  73.981 223.244 -0.49 -0.03    +0.164 HD 
DOCKED: ATOM      6  O   UNL     1     140.313  71.545 221.221 -0.10 +0.04    -0.267 OA 
DOCKED: BRANCH   4   7
DOCKED: ATOM      7  C   UNL     1     140.047  71.334 223.570 -0.32 -0.02    +0.128 A  
DOCKED: ATOM      8  C   UNL     1     139.565  70.014 223.605 -0.27 -0.01    +0.035 A  
DOCKED: ATOM      9  N   UNL     1     140.527  71.900 224.712 -0.26 +0.04    -0.243 NA 
DOCKED: ATOM     10  C   UNL     1     139.584  69.301 224.807 -0.37 -0.00    +0.013 A  
DOCKED: ATOM     11  C   UNL     1     140.558  71.231 225.895 -0.55 -0.01    +0.071 A  
DOCKED: ATOM     12  C   UNL     1     140.082  69.904 225.967 -0.50 -0.00    +0.000 A  
DOCKED: ATOM     13  C   UNL     1     141.062  71.855 227.043 -0.77 -0.01    +0.029 A  
DOCKED: ATOM     14  C   UNL     1     140.116  69.216 227.189 -0.59 -0.00    +0.010 A  
DOCKED: ATOM     15  C   UNL     1     141.091  71.163 228.258 -0.69 -0.00    +0.002 A  
DOCKED: ATOM     16  C   UNL     1     140.621  69.848 228.331 -0.59 -0.00    +0.001 A  
DOCKED: ENDBRANCH   4   7
DOCKED: ENDBRANCH   2   3
DOCKED: BRANCH   2  17
DOCKED: ATOM     17  C   UNL     1     140.365  75.640 221.270 -0.29 +0.01    -0.025 A  
DOCKED: ATOM     18  C   UNL     1     141.344  76.047 220.324 -0.25 -0.00    +0.008 A  
DOCKED: ATOM     19  C   UNL     1     140.068  76.482 222.369 -0.38 -0.00    +0.016 A  
DOCKED: ATOM     20  C   UNL     1     142.018  77.274 220.467 -0.27 -0.02    +0.027 A  
DOCKED: ATOM     21  C   UNL     1     140.756  77.687 222.478 -0.44 +0.00    -0.000 A  
DOCKED: ATOM     22  C   UNL     1     141.696  78.070 221.562 -0.26 -0.03    +0.045 A  
DOCKED: ATOM     23  C   UNL     1     140.675  78.683 223.426 -0.43 -0.01    +0.028 A  
DOCKED: ATOM     24  N   UNL     1     142.217  79.266 221.883 -0.20 +0.20    -0.361 N  
DOCKED: ATOM     25  C   UNL     1     141.596  79.645 223.024 -0.49 -0.02    +0.083 A  
DOCKED: ATOM     26  H   UNL     1     142.952  79.797 221.364 -0.40 -0.12    +0.166 HD 
DOCKED: ENDBRANCH   2  17
DOCKED: TORSDOF 3
DOCKED: TER
DOCKED: ENDMDL
________________________________________________________________________________


    FINAL DOCKED STATE:
    ________________________


Run:   8 / 20
Time taken for this run:   0.021s

DOCKED: MODEL        8
DOCKED: USER    Run = 8
DOCKED: USER
DOCKED: USER    Estimated Free Energy of Binding    =  -8.68 kcal/mol  [=(1)+(2)+(3)-(4)]
DOCKED: USER
DOCKED: USER    (1) Final Intermolecular Energy     =  -9.57 kcal/mol
DOCKED: USER        vdW + Hbond + desolv Energy     =  -9.56 kcal/mol
DOCKED: USER        Electrostatic Energy            =  -0.02 kcal/mol
DOCKED: USER        Moving Ligand-Fixed Receptor    =  -9.57 kcal/mol
DOCKED: USER        Moving Ligand-Moving Receptor   =  +0.00 kcal/mol
DOCKED: USER    (2) Final Total Internal Energy     =  -0.70 kcal/mol
DOCKED: USER    (3) Torsional Free Energy           =  +0.89 kcal/mol
DOCKED: USER    (4) Unbound System's Energy         =  -0.70 kcal/mol
DOCKED: USER
DOCKED: USER
DOCKED: REMARK SMILES C[C@H](NC(=O)c1ccc2ccccc2n1)c1ccc2[nH]ccc2c1
DOCKED: REMARK SMILES IDX 1 1 2 2 3 3 4 4 5 6 6 7 7 8 15 9 8 10 14 11 9 12 13 13 10 14
DOCKED: REMARK SMILES IDX 12 15 11 16 16 17 17 18 24 19 18 20 23 21 19 22 22 23 20 24
DOCKED: REMARK SMILES IDX 21 25
DOCKED: REMARK H PARENT 3 5 20 26
DOCKED: USER                              x       y       z     vdW  Elec       q    Type
DOCKED: USER                           _______ _______ _______ _____ _____    ______ ____
DOCKED: ROOT
DOCKED: ATOM      1  C   UNL     1     138.345  74.513 220.544 -0.10 -0.01    +0.036 C  
DOCKED: ATOM      2  C   UNL     1     139.783  74.317 221.036 -0.19 -0.02    +0.109 C  
DOCKED: ENDROOT
DOCKED: BRANCH   2   3
DOCKED: ATOM      3  N   UNL     1     139.797  73.534 222.276 -0.13 +0.04    -0.344 N  
DOCKED: ATOM      4  C   UNL     1     140.139  72.137 222.297 -0.20 -0.04    +0.270 C  
DOCKED: ATOM      5  H   UNL     1     139.548  74.002 223.177 -0.51 -0.02    +0.164 HD 
DOCKED: ATOM      6  O   UNL     1     140.491  71.563 221.229 -0.11 +0.04    -0.267 OA 
DOCKED: BRANCH   4   7
DOCKED: ATOM      7  C   UNL     1     140.085  71.368 223.560 -0.32 -0.02    +0.128 A  
DOCKED: ATOM      8  C   UNL     1     139.526  70.078 223.599 -0.27 -0.01    +0.035 A  
DOCKED: ATOM      9  N   UNL     1     140.581  71.915 224.705 -0.24 +0.03    -0.243 NA 
DOCKED: ATOM     10  C   UNL     1     139.488  69.376 224.806 -0.37 -0.00    +0.013 A  
DOCKED: ATOM     11  C   UNL     1     140.558  71.255 225.893 -0.55 -0.01    +0.071 A  
DOCKED: ATOM     12  C   UNL     1     140.004  69.959 225.968 -0.50 -0.00    +0.000 A  
DOCKED: ATOM     13  C   UNL     1     141.081  71.858 227.043 -0.77 -0.01    +0.029 A  
DOCKED: ATOM     14  C   UNL     1     139.981  69.281 227.196 -0.58 -0.00    +0.010 A  
DOCKED: ATOM     15  C   UNL     1     141.054  71.176 228.264 -0.70 -0.00    +0.002 A  
DOCKED: ATOM     16  C   UNL     1     140.506  69.891 228.340 -0.59 -0.00    +0.001 A  
DOCKED: ENDBRANCH   4   7
DOCKED: ENDBRANCH   2   3
DOCKED: BRANCH   2  17
DOCKED: ATOM     17  C   UNL     1     140.470  75.655 221.239 -0.30 +0.01    -0.025 A  
DOCKED: ATOM     18  C   UNL     1     141.426  76.113 220.292 -0.25 -0.00    +0.008 A  
DOCKED: ATOM     19  C   UNL     1     140.167  76.460 222.364 -0.38 -0.00    +0.016 A  
DOCKED: ATOM     20  C   UNL     1     142.073  77.351 220.462 -0.27 -0.02    +0.027 A  
DOCKED: ATOM     21  C   UNL     1     140.826  77.678 222.499 -0.44 +0.00    -0.000 A  
DOCKED: ATOM     22  C   UNL     1     141.746  78.109 221.582 -0.26 -0.03    +0.045 A  
DOCKED: ATOM     23  C   UNL     1     140.734  78.645 223.475 -0.43 -0.01    +0.028 A  
DOCKED: ATOM     24  N   UNL     1     142.242  79.307 221.930 -0.20 +0.20    -0.361 N  
DOCKED: ATOM     25  C   UNL     1     141.626  79.639 223.089 -0.50 -0.02    +0.083 A  
DOCKED: ATOM     26  H   UNL     1     142.956  79.870 221.417 -0.39 -0.11    +0.166 HD 
DOCKED: ENDBRANCH   2  17
DOCKED: TORSDOF 3
DOCKED: TER
DOCKED: ENDMDL
________________________________________________________________________________


    FINAL DOCKED STATE:
    ________________________


Run:   9 / 20
Time taken for this run:   0.021s

DOCKED: MODEL        9
DOCKED: USER    Run = 9
DOCKED: USER
DOCKED: USER    Estimated Free Energy of Binding    =  -8.49 kcal/mol  [=(1)+(2)+(3)-(4)]
DOCKED: USER
DOCKED: USER    (1) Final Intermolecular Energy     =  -9.38 kcal/mol
DOCKED: USER        vdW + Hbond + desolv Energy     =  -9.29 kcal/mol
DOCKED: USER        Electrostatic Energy            =  -0.09 kcal/mol
DOCKED: USER        Moving Ligand-Fixed Receptor    =  -9.38 kcal/mol
DOCKED: USER        Moving Ligand-Moving Receptor   =  +0.00 kcal/mol
DOCKED: USER    (2) Final Total Internal Energy     =  -0.59 kcal/mol
DOCKED: USER    (3) Torsional Free Energy           =  +0.89 kcal/mol
DOCKED: USER    (4) Unbound System's Energy         =  -0.59 kcal/mol
DOCKED: USER
DOCKED: USER
DOCKED: REMARK SMILES C[C@H](NC(=O)c1ccc2ccccc2n1)c1ccc2[nH]ccc2c1
DOCKED: REMARK SMILES IDX 1 1 2 2 3 3 4 4 5 6 6 7 7 8 15 9 8 10 14 11 9 12 13 13 10 14
DOCKED: REMARK SMILES IDX 12 15 11 16 16 17 17 18 24 19 18 20 23 21 19 22 22 23 20 24
DOCKED: REMARK SMILES IDX 21 25
DOCKED: REMARK H PARENT 3 5 20 26
DOCKED: USER                              x       y       z     vdW  Elec       q    Type
DOCKED: USER                           _______ _______ _______ _____ _____    ______ ____
DOCKED: ROOT
DOCKED: ATOM      1  C   UNL     1     138.596  74.801 220.294 -0.09 -0.01    +0.036 C  
DOCKED: ATOM      2  C   UNL     1     139.746  74.888 221.303 -0.23 -0.02    +0.109 C  
DOCKED: ENDROOT
DOCKED: BRANCH   2   3
DOCKED: ATOM      3  N   UNL     1     139.592  73.865 222.343 -0.10 +0.05    -0.344 N  
DOCKED: ATOM      4  C   UNL     1     140.464  72.725 222.432 -0.15 -0.02    +0.270 C  
DOCKED: ATOM      5  H   UNL     1     138.821  73.962 223.043 -0.55 -0.10    +0.164 HD 
DOCKED: ATOM      6  O   UNL     1     141.430  72.612 221.629 -0.22 +0.02    -0.267 OA 
DOCKED: BRANCH   4   7
DOCKED: ATOM      7  C   UNL     1     140.239  71.685 223.461 -0.32 -0.02    +0.128 A  
DOCKED: ATOM      8  C   UNL     1     139.552  70.498 223.153 -0.26 -0.01    +0.035 A  
DOCKED: ATOM      9  N   UNL     1     140.702  71.878 224.728 -0.27 +0.03    -0.243 NA 
DOCKED: ATOM     10  C   UNL     1     139.354  69.534 224.144 -0.31 -0.00    +0.013 A  
DOCKED: ATOM     11  C   UNL     1     140.524  70.958 225.713 -0.53 -0.01    +0.071 A  
DOCKED: ATOM     12  C   UNL     1     139.839  69.755 225.438 -0.44 -0.00    +0.000 A  
DOCKED: ATOM     13  C   UNL     1     141.018  71.201 227.000 -0.69 -0.00    +0.029 A  
DOCKED: ATOM     14  C   UNL     1     139.657  68.808 226.457 -0.55 -0.00    +0.010 A  
DOCKED: ATOM     15  C   UNL     1     140.832  70.253 228.011 -0.63 -0.00    +0.002 A  
DOCKED: ATOM     16  C   UNL     1     140.154  69.060 227.740 -0.63 -0.00    +0.001 A  
DOCKED: ENDBRANCH   4   7
DOCKED: ENDBRANCH   2   3
DOCKED: BRANCH   2  17
DOCKED: ATOM     17  C   UNL     1     139.820  76.273 221.919 -0.34 +0.01    -0.025 A  
DOCKED: ATOM     18  C   UNL     1     138.626  76.947 222.293 -0.30 -0.00    +0.008 A  
DOCKED: ATOM     19  C   UNL     1     141.069  76.905 222.129 -0.38 -0.01    +0.016 A  
DOCKED: ATOM     20  C   UNL     1     138.673  78.231 222.868 -0.27 -0.00    +0.027 A  
DOCKED: ATOM     21  C   UNL     1     141.077  78.175 222.699 -0.49 +0.00    -0.000 A  
DOCKED: ATOM     22  C   UNL     1     139.922  78.815 223.055 -0.37 -0.01    +0.045 A  
DOCKED: ATOM     23  C   UNL     1     142.125  79.012 223.011 -0.56 -0.01    +0.028 A  
DOCKED: ATOM     24  N   UNL     1     140.188  80.022 223.581 -0.18 +0.06    -0.361 N  
DOCKED: ATOM     25  C   UNL     1     141.535  80.148 223.556 -0.51 -0.02    +0.083 A  
DOCKED: ATOM     26  H   UNL     1     139.500  80.723 223.937 +0.08 -0.02    +0.166 HD 
DOCKED: ENDBRANCH   2  17
DOCKED: TORSDOF 3
DOCKED: TER
DOCKED: ENDMDL
________________________________________________________________________________


    FINAL DOCKED STATE:
    ________________________


Run:   10 / 20
Time taken for this run:   0.021s

DOCKED: MODEL        10
DOCKED: USER    Run = 10
DOCKED: USER
DOCKED: USER    Estimated Free Energy of Binding    =  -8.64 kcal/mol  [=(1)+(2)+(3)-(4)]
DOCKED: USER
DOCKED: USER    (1) Final Intermolecular Energy     =  -9.54 kcal/mol
DOCKED: USER        vdW + Hbond + desolv Energy     =  -9.52 kcal/mol
DOCKED: USER        Electrostatic Energy            =  -0.02 kcal/mol
DOCKED: USER        Moving Ligand-Fixed Receptor    =  -9.54 kcal/mol
DOCKED: USER        Moving Ligand-Moving Receptor   =  +0.00 kcal/mol
DOCKED: USER    (2) Final Total Internal Energy     =  -0.74 kcal/mol
DOCKED: USER    (3) Torsional Free Energy           =  +0.89 kcal/mol
DOCKED: USER    (4) Unbound System's Energy         =  -0.74 kcal/mol
DOCKED: USER
DOCKED: USER
DOCKED: REMARK SMILES C[C@H](NC(=O)c1ccc2ccccc2n1)c1ccc2[nH]ccc2c1
DOCKED: REMARK SMILES IDX 1 1 2 2 3 3 4 4 5 6 6 7 7 8 15 9 8 10 14 11 9 12 13 13 10 14
DOCKED: REMARK SMILES IDX 12 15 11 16 16 17 17 18 24 19 18 20 23 21 19 22 22 23 20 24
DOCKED: REMARK SMILES IDX 21 25
DOCKED: REMARK H PARENT 3 5 20 26
DOCKED: USER                              x       y       z     vdW  Elec       q    Type
DOCKED: USER                           _______ _______ _______ _____ _____    ______ ____
DOCKED: ROOT
DOCKED: ATOM      1  C   UNL     1     138.142  74.571 220.723 -0.11 -0.01    +0.036 C  
DOCKED: ATOM      2  C   UNL     1     139.607  74.337 221.109 -0.19 -0.02    +0.109 C  
DOCKED: ENDROOT
DOCKED: BRANCH   2   3
DOCKED: ATOM      3  N   UNL     1     139.691  73.534 222.335 -0.13 +0.05    -0.344 N  
DOCKED: ATOM      4  C   UNL     1     139.983  72.126 222.310 -0.20 -0.04    +0.270 C  
DOCKED: ATOM      5  H   UNL     1     139.530  73.997 223.258 -0.49 -0.03    +0.164 HD 
DOCKED: ATOM      6  O   UNL     1     140.229  71.557 221.212 -0.10 +0.04    -0.267 OA 
DOCKED: BRANCH   4   7
DOCKED: ATOM      7  C   UNL     1     140.001  71.340 223.564 -0.32 -0.02    +0.128 A  
DOCKED: ATOM      8  C   UNL     1     139.537  70.014 223.593 -0.27 -0.01    +0.035 A  
DOCKED: ATOM      9  N   UNL     1     140.472  71.908 224.710 -0.25 +0.04    -0.243 NA 
DOCKED: ATOM     10  C   UNL     1     139.565  69.296 224.791 -0.37 -0.00    +0.013 A  
DOCKED: ATOM     11  C   UNL     1     140.512  71.234 225.890 -0.54 -0.01    +0.071 A  
DOCKED: ATOM     12  C   UNL     1     140.054  69.900 225.955 -0.50 -0.00    +0.000 A  
DOCKED: ATOM     13  C   UNL     1     141.005  71.860 227.041 -0.76 -0.01    +0.029 A  
DOCKED: ATOM     14  C   UNL     1     140.096  69.208 227.175 -0.59 -0.00    +0.010 A  
DOCKED: ATOM     15  C   UNL     1     141.043  71.163 228.253 -0.70 -0.00    +0.002 A  
DOCKED: ATOM     16  C   UNL     1     140.591  69.841 228.319 -0.59 -0.00    +0.001 A  
DOCKED: ENDBRANCH   4   7
DOCKED: ENDBRANCH   2   3
DOCKED: BRANCH   2  17
DOCKED: ATOM     17  C   UNL     1     140.337  75.657 221.281 -0.29 +0.01    -0.025 A  
DOCKED: ATOM     18  C   UNL     1     141.309  76.060 220.326 -0.25 -0.00    +0.008 A  
DOCKED: ATOM     19  C   UNL     1     140.058  76.497 222.386 -0.37 -0.00    +0.016 A  
DOCKED: ATOM     20  C   UNL     1     141.994  77.280 220.467 -0.28 -0.02    +0.027 A  
DOCKED: ATOM     21  C   UNL     1     140.757  77.696 222.493 -0.44 +0.00    -0.000 A  
DOCKED: ATOM     22  C   UNL     1     141.691  78.075 221.568 -0.27 -0.03    +0.045 A  
DOCKED: ATOM     23  C   UNL     1     140.694  78.689 223.446 -0.43 -0.01    +0.028 A  
DOCKED: ATOM     24  N   UNL     1     142.225  79.265 221.888 -0.20 +0.20    -0.361 N  
DOCKED: ATOM     25  C   UNL     1     141.619  79.645 223.037 -0.50 -0.02    +0.083 A  
DOCKED: ATOM     26  H   UNL     1     142.958  79.792 221.363 -0.40 -0.12    +0.166 HD 
DOCKED: ENDBRANCH   2  17
DOCKED: TORSDOF 3
DOCKED: TER
DOCKED: ENDMDL
________________________________________________________________________________


    FINAL DOCKED STATE:
    ________________________


Run:   11 / 20
Time taken for this run:   0.021s

DOCKED: MODEL        11
DOCKED: USER    Run = 11
DOCKED: USER
DOCKED: USER    Estimated Free Energy of Binding    =  -8.66 kcal/mol  [=(1)+(2)+(3)-(4)]
DOCKED: USER
DOCKED: USER    (1) Final Intermolecular Energy     =  -9.55 kcal/mol
DOCKED: USER        vdW + Hbond + desolv Energy     =  -9.54 kcal/mol
DOCKED: USER        Electrostatic Energy            =  -0.02 kcal/mol
DOCKED: USER        Moving Ligand-Fixed Receptor    =  -9.55 kcal/mol
DOCKED: USER        Moving Ligand-Moving Receptor   =  +0.00 kcal/mol
DOCKED: USER    (2) Final Total Internal Energy     =  -0.73 kcal/mol
DOCKED: USER    (3) Torsional Free Energy           =  +0.89 kcal/mol
DOCKED: USER    (4) Unbound System's Energy         =  -0.73 kcal/mol
DOCKED: USER
DOCKED: USER
DOCKED: REMARK SMILES C[C@H](NC(=O)c1ccc2ccccc2n1)c1ccc2[nH]ccc2c1
DOCKED: REMARK SMILES IDX 1 1 2 2 3 3 4 4 5 6 6 7 7 8 15 9 8 10 14 11 9 12 13 13 10 14
DOCKED: REMARK SMILES IDX 12 15 11 16 16 17 17 18 24 19 18 20 23 21 19 22 22 23 20 24
DOCKED: REMARK SMILES IDX 21 25
DOCKED: REMARK H PARENT 3 5 20 26
DOCKED: USER                              x       y       z     vdW  Elec       q    Type
DOCKED: USER                           _______ _______ _______ _____ _____    ______ ____
DOCKED: ROOT
DOCKED: ATOM      1  C   UNL     1     138.185  74.531 220.684 -0.10 -0.01    +0.036 C  
DOCKED: ATOM      2  C   UNL     1     139.646  74.307 221.091 -0.19 -0.02    +0.109 C  
DOCKED: ENDROOT
DOCKED: BRANCH   2   3
DOCKED: ATOM      3  N   UNL     1     139.717  73.509 222.321 -0.13 +0.05    -0.344 N  
DOCKED: ATOM      4  C   UNL     1     140.028  72.105 222.307 -0.20 -0.04    +0.270 C  
DOCKED: ATOM      5  H   UNL     1     139.534  73.972 223.240 -0.49 -0.03    +0.164 HD 
DOCKED: ATOM      6  O   UNL     1     140.302  71.536 221.214 -0.10 +0.04    -0.267 OA 
DOCKED: BRANCH   4   7
DOCKED: ATOM      7  C   UNL     1     140.033  71.323 223.563 -0.32 -0.02    +0.128 A  
DOCKED: ATOM      8  C   UNL     1     139.555  70.001 223.595 -0.27 -0.01    +0.035 A  
DOCKED: ATOM      9  N   UNL     1     140.507  71.889 224.708 -0.27 +0.04    -0.243 NA 
DOCKED: ATOM     10  C   UNL     1     139.571  69.287 224.796 -0.37 -0.00    +0.013 A  
DOCKED: ATOM     11  C   UNL     1     140.535  71.219 225.891 -0.55 -0.01    +0.071 A  
DOCKED: ATOM     12  C   UNL     1     140.062  69.890 225.959 -0.50 -0.00    +0.000 A  
DOCKED: ATOM     13  C   UNL     1     141.032  71.843 227.041 -0.76 -0.01    +0.029 A  
DOCKED: ATOM     14  C   UNL     1     140.093  69.201 227.181 -0.59 -0.00    +0.010 A  
DOCKED: ATOM     15  C   UNL     1     141.058  71.149 228.256 -0.70 -0.00    +0.002 A  
DOCKED: ATOM     16  C   UNL     1     140.590  69.833 228.325 -0.59 -0.00    +0.001 A  
DOCKED: ENDBRANCH   4   7
DOCKED: ENDBRANCH   2   3
DOCKED: BRANCH   2  17
DOCKED: ATOM     17  C   UNL     1     140.365  75.631 221.269 -0.29 +0.01    -0.025 A  
DOCKED: ATOM     18  C   UNL     1     141.335  76.045 220.316 -0.25 -0.00    +0.008 A  
DOCKED: ATOM     19  C   UNL     1     140.080  76.465 222.377 -0.37 -0.00    +0.016 A  
DOCKED: ATOM     20  C   UNL     1     142.011  77.271 220.462 -0.27 -0.02    +0.027 A  
DOCKED: ATOM     21  C   UNL     1     140.769  77.669 222.489 -0.44 +0.00    -0.000 A  
DOCKED: ATOM     22  C   UNL     1     141.701  78.059 221.566 -0.26 -0.03    +0.045 A  
DOCKED: ATOM     23  C   UNL     1     140.698  78.658 223.445 -0.43 -0.01    +0.028 A  
DOCKED: ATOM     24  N   UNL     1     142.225  79.252 221.891 -0.20 +0.20    -0.361 N  
DOCKED: ATOM     25  C   UNL     1     141.616  79.622 223.040 -0.50 -0.02    +0.083 A  
DOCKED: ATOM     26  H   UNL     1     142.955  79.786 221.368 -0.40 -0.12    +0.166 HD 
DOCKED: ENDBRANCH   2  17
DOCKED: TORSDOF 3
DOCKED: TER
DOCKED: ENDMDL
________________________________________________________________________________


    FINAL DOCKED STATE:
    ________________________


Run:   12 / 20
Time taken for this run:   0.021s

DOCKED: MODEL        12
DOCKED: USER    Run = 12
DOCKED: USER
DOCKED: USER    Estimated Free Energy of Binding    =  -8.68 kcal/mol  [=(1)+(2)+(3)-(4)]
DOCKED: USER
DOCKED: USER    (1) Final Intermolecular Energy     =  -9.58 kcal/mol
DOCKED: USER        vdW + Hbond + desolv Energy     =  -9.56 kcal/mol
DOCKED: USER        Electrostatic Energy            =  -0.02 kcal/mol
DOCKED: USER        Moving Ligand-Fixed Receptor    =  -9.58 kcal/mol
DOCKED: USER        Moving Ligand-Moving Receptor   =  +0.00 kcal/mol
DOCKED: USER    (2) Final Total Internal Energy     =  -0.71 kcal/mol
DOCKED: USER    (3) Torsional Free Energy           =  +0.89 kcal/mol
DOCKED: USER    (4) Unbound System's Energy         =  -0.71 kcal/mol
DOCKED: USER
DOCKED: USER
DOCKED: REMARK SMILES C[C@H](NC(=O)c1ccc2ccccc2n1)c1ccc2[nH]ccc2c1
DOCKED: REMARK SMILES IDX 1 1 2 2 3 3 4 4 5 6 6 7 7 8 15 9 8 10 14 11 9 12 13 13 10 14
DOCKED: REMARK SMILES IDX 12 15 11 16 16 17 17 18 24 19 18 20 23 21 19 22 22 23 20 24
DOCKED: REMARK SMILES IDX 21 25
DOCKED: REMARK H PARENT 3 5 20 26
DOCKED: USER                              x       y       z     vdW  Elec       q    Type
DOCKED: USER                           _______ _______ _______ _____ _____    ______ ____
DOCKED: ROOT
DOCKED: ATOM      1  C   UNL     1     138.302  74.508 220.576 -0.10 -0.01    +0.036 C  
DOCKED: ATOM      2  C   UNL     1     139.748  74.306 221.045 -0.19 -0.02    +0.109 C  
DOCKED: ENDROOT
DOCKED: BRANCH   2   3
DOCKED: ATOM      3  N   UNL     1     139.778  73.522 222.285 -0.13 +0.04    -0.344 N  
DOCKED: ATOM      4  C   UNL     1     140.136  72.129 222.302 -0.20 -0.04    +0.270 C  
DOCKED: ATOM      5  H   UNL     1     139.528  73.986 223.187 -0.50 -0.03    +0.164 HD 
DOCKED: ATOM      6  O   UNL     1     140.489  71.560 221.233 -0.11 +0.04    -0.267 OA 
DOCKED: BRANCH   4   7
DOCKED: ATOM      7  C   UNL     1     140.098  71.359 223.565 -0.32 -0.02    +0.128 A  
DOCKED: ATOM      8  C   UNL     1     139.564  70.059 223.604 -0.27 -0.01    +0.035 A  
DOCKED: ATOM      9  N   UNL     1     140.585  71.915 224.710 -0.24 +0.03    -0.243 NA 
DOCKED: ATOM     10  C   UNL     1     139.541  69.355 224.811 -0.37 -0.00    +0.013 A  
DOCKED: ATOM     11  C   UNL     1     140.575  71.254 225.898 -0.55 -0.01    +0.071 A  
DOCKED: ATOM     12  C   UNL     1     140.047  69.947 225.973 -0.50 -0.00    +0.000 A  
DOCKED: ATOM     13  C   UNL     1     141.088  71.867 227.048 -0.77 -0.01    +0.029 A  
DOCKED: ATOM     14  C   UNL     1     140.038  69.269 227.201 -0.58 -0.00    +0.010 A  
DOCKED: ATOM     15  C   UNL     1     141.075  71.184 228.268 -0.70 -0.00    +0.002 A  
DOCKED: ATOM     16  C   UNL     1     140.552  69.889 228.345 -0.58 -0.00    +0.001 A  
DOCKED: ENDBRANCH   4   7
DOCKED: ENDBRANCH   2   3
DOCKED: BRANCH   2  17
DOCKED: ATOM     17  C   UNL     1     140.444  75.641 221.237 -0.29 +0.01    -0.025 A  
DOCKED: ATOM     18  C   UNL     1     141.406  76.082 220.289 -0.25 -0.00    +0.008 A  
DOCKED: ATOM     19  C   UNL     1     140.144  76.458 222.354 -0.38 -0.00    +0.016 A  
DOCKED: ATOM     20  C   UNL     1     142.061  77.317 220.449 -0.27 -0.02    +0.027 A  
DOCKED: ATOM     21  C   UNL     1     140.812  77.672 222.479 -0.44 +0.00    -0.000 A  
DOCKED: ATOM     22  C   UNL     1     141.737  78.087 221.561 -0.26 -0.03    +0.045 A  
DOCKED: ATOM     23  C   UNL     1     140.724  78.649 223.446 -0.43 -0.01    +0.028 A  
DOCKED: ATOM     24  N   UNL     1     142.241  79.285 221.900 -0.20 +0.20    -0.361 N  
DOCKED: ATOM     25  C   UNL     1     141.625  79.633 223.053 -0.50 -0.02    +0.083 A  
DOCKED: ATOM     26  H   UNL     1     142.961  79.838 221.383 -0.39 -0.12    +0.166 HD 
DOCKED: ENDBRANCH   2  17
DOCKED: TORSDOF 3
DOCKED: TER
DOCKED: ENDMDL
________________________________________________________________________________


    FINAL DOCKED STATE:
    ________________________


Run:   13 / 20
Time taken for this run:   0.021s

DOCKED: MODEL        13
DOCKED: USER    Run = 13
DOCKED: USER
DOCKED: USER    Estimated Free Energy of Binding    =  -8.65 kcal/mol  [=(1)+(2)+(3)-(4)]
DOCKED: USER
DOCKED: USER    (1) Final Intermolecular Energy     =  -9.55 kcal/mol
DOCKED: USER        vdW + Hbond + desolv Energy     =  -9.53 kcal/mol
DOCKED: USER        Electrostatic Energy            =  -0.02 kcal/mol
DOCKED: USER        Moving Ligand-Fixed Receptor    =  -9.55 kcal/mol
DOCKED: USER        Moving Ligand-Moving Receptor   =  +0.00 kcal/mol
DOCKED: USER    (2) Final Total Internal Energy     =  -0.73 kcal/mol
DOCKED: USER    (3) Torsional Free Energy           =  +0.89 kcal/mol
DOCKED: USER    (4) Unbound System's Energy         =  -0.73 kcal/mol
DOCKED: USER
DOCKED: USER
DOCKED: REMARK SMILES C[C@H](NC(=O)c1ccc2ccccc2n1)c1ccc2[nH]ccc2c1
DOCKED: REMARK SMILES IDX 1 1 2 2 3 3 4 4 5 6 6 7 7 8 15 9 8 10 14 11 9 12 13 13 10 14
DOCKED: REMARK SMILES IDX 12 15 11 16 16 17 17 18 24 19 18 20 23 21 19 22 22 23 20 24
DOCKED: REMARK SMILES IDX 21 25
DOCKED: REMARK H PARENT 3 5 20 26
DOCKED: USER                              x       y       z     vdW  Elec       q    Type
DOCKED: USER                           _______ _______ _______ _____ _____    ______ ____
DOCKED: ROOT
DOCKED: ATOM      1  C   UNL     1     138.146  74.559 220.722 -0.11 -0.01    +0.036 C  
DOCKED: ATOM      2  C   UNL     1     139.611  74.331 221.111 -0.19 -0.02    +0.109 C  
DOCKED: ENDROOT
DOCKED: BRANCH   2   3
DOCKED: ATOM      3  N   UNL     1     139.694  73.534 222.341 -0.13 +0.05    -0.344 N  
DOCKED: ATOM      4  C   UNL     1     139.998  72.128 222.323 -0.20 -0.04    +0.270 C  
DOCKED: ATOM      5  H   UNL     1     139.525  73.999 223.261 -0.49 -0.03    +0.164 HD 
DOCKED: ATOM      6  O   UNL     1     140.254  71.557 221.228 -0.10 +0.04    -0.267 OA 
DOCKED: BRANCH   4   7
DOCKED: ATOM      7  C   UNL     1     140.016  71.347 223.580 -0.32 -0.02    +0.128 A  
DOCKED: ATOM      8  C   UNL     1     139.547  70.023 223.616 -0.27 -0.01    +0.035 A  
DOCKED: ATOM      9  N   UNL     1     140.492  71.918 224.723 -0.24 +0.04    -0.243 NA 
DOCKED: ATOM     10  C   UNL     1     139.575  69.309 224.817 -0.37 -0.00    +0.013 A  
DOCKED: ATOM     11  C   UNL     1     140.531  71.249 225.905 -0.55 -0.01    +0.071 A  
DOCKED: ATOM     12  C   UNL     1     140.068  69.917 225.977 -0.50 -0.00    +0.000 A  
DOCKED: ATOM     13  C   UNL     1     141.030  71.877 227.053 -0.77 -0.01    +0.029 A  
DOCKED: ATOM     14  C   UNL     1     140.111  69.229 227.199 -0.59 -0.00    +0.010 A  
DOCKED: ATOM     15  C   UNL     1     141.068  71.185 228.267 -0.70 -0.00    +0.002 A  
DOCKED: ATOM     16  C   UNL     1     140.610  69.865 228.340 -0.58 -0.00    +0.001 A  
DOCKED: ENDBRANCH   4   7
DOCKED: ENDBRANCH   2   3
DOCKED: BRANCH   2  17
DOCKED: ATOM     17  C   UNL     1     140.336  75.653 221.279 -0.29 +0.01    -0.025 A  
DOCKED: ATOM     18  C   UNL     1     141.308  76.056 220.323 -0.25 -0.00    +0.008 A  
DOCKED: ATOM     19  C   UNL     1     140.055  76.497 222.381 -0.37 -0.00    +0.016 A  
DOCKED: ATOM     20  C   UNL     1     141.990  77.279 220.460 -0.28 -0.02    +0.027 A  
DOCKED: ATOM     21  C   UNL     1     140.750  77.698 222.484 -0.44 +0.00    -0.000 A  
DOCKED: ATOM     22  C   UNL     1     141.683  78.077 221.558 -0.27 -0.03    +0.045 A  
DOCKED: ATOM     23  C   UNL     1     140.683  78.695 223.433 -0.43 -0.01    +0.028 A  
DOCKED: ATOM     24  N   UNL     1     142.213  79.270 221.874 -0.20 +0.20    -0.361 N  
DOCKED: ATOM     25  C   UNL     1     141.605  79.652 223.021 -0.49 -0.02    +0.083 A  
DOCKED: ATOM     26  H   UNL     1     142.945  79.797 221.348 -0.39 -0.12    +0.166 HD 
DOCKED: ENDBRANCH   2  17
DOCKED: TORSDOF 3
DOCKED: TER
DOCKED: ENDMDL
________________________________________________________________________________


    FINAL DOCKED STATE:
    ________________________


Run:   14 / 20
Time taken for this run:   0.021s

DOCKED: MODEL        14
DOCKED: USER    Run = 14
DOCKED: USER
DOCKED: USER    Estimated Free Energy of Binding    =  -8.66 kcal/mol  [=(1)+(2)+(3)-(4)]
DOCKED: USER
DOCKED: USER    (1) Final Intermolecular Energy     =  -9.55 kcal/mol
DOCKED: USER        vdW + Hbond + desolv Energy     =  -9.54 kcal/mol
DOCKED: USER        Electrostatic Energy            =  -0.02 kcal/mol
DOCKED: USER        Moving Ligand-Fixed Receptor    =  -9.55 kcal/mol
DOCKED: USER        Moving Ligand-Moving Receptor   =  +0.00 kcal/mol
DOCKED: USER    (2) Final Total Internal Energy     =  -0.73 kcal/mol
DOCKED: USER    (3) Torsional Free Energy           =  +0.89 kcal/mol
DOCKED: USER    (4) Unbound System's Energy         =  -0.73 kcal/mol
DOCKED: USER
DOCKED: USER
DOCKED: REMARK SMILES C[C@H](NC(=O)c1ccc2ccccc2n1)c1ccc2[nH]ccc2c1
DOCKED: REMARK SMILES IDX 1 1 2 2 3 3 4 4 5 6 6 7 7 8 15 9 8 10 14 11 9 12 13 13 10 14
DOCKED: REMARK SMILES IDX 12 15 11 16 16 17 17 18 24 19 18 20 23 21 19 22 22 23 20 24
DOCKED: REMARK SMILES IDX 21 25
DOCKED: REMARK H PARENT 3 5 20 26
DOCKED: USER                              x       y       z     vdW  Elec       q    Type
DOCKED: USER                           _______ _______ _______ _____ _____    ______ ____
DOCKED: ROOT
DOCKED: ATOM      1  C   UNL     1     138.177  74.535 220.705 -0.11 -0.01    +0.036 C  
DOCKED: ATOM      2  C   UNL     1     139.640  74.311 221.103 -0.19 -0.02    +0.109 C  
DOCKED: ENDROOT
DOCKED: BRANCH   2   3
DOCKED: ATOM      3  N   UNL     1     139.719  73.516 222.334 -0.13 +0.05    -0.344 N  
DOCKED: ATOM      4  C   UNL     1     140.027  72.112 222.322 -0.20 -0.04    +0.270 C  
DOCKED: ATOM      5  H   UNL     1     139.544  73.983 223.253 -0.49 -0.03    +0.164 HD 
DOCKED: ATOM      6  O   UNL     1     140.291  71.539 221.229 -0.10 +0.04    -0.267 OA 
DOCKED: BRANCH   4   7
DOCKED: ATOM      7  C   UNL     1     140.040  71.334 223.580 -0.32 -0.02    +0.128 A  
DOCKED: ATOM      8  C   UNL     1     139.565  70.011 223.618 -0.27 -0.01    +0.035 A  
DOCKED: ATOM      9  N   UNL     1     140.518  71.904 224.722 -0.25 +0.04    -0.243 NA 
DOCKED: ATOM     10  C   UNL     1     139.589  69.300 224.821 -0.37 -0.00    +0.013 A  
DOCKED: ATOM     11  C   UNL     1     140.553  71.238 225.906 -0.55 -0.01    +0.071 A  
DOCKED: ATOM     12  C   UNL     1     140.084  69.908 225.980 -0.50 -0.00    +0.000 A  
DOCKED: ATOM     13  C   UNL     1     141.054  71.866 227.052 -0.77 -0.01    +0.029 A  
DOCKED: ATOM     14  C   UNL     1     140.123  69.223 227.204 -0.59 -0.00    +0.010 A  
DOCKED: ATOM     15  C   UNL     1     141.088  71.177 228.269 -0.70 -0.00    +0.002 A  
DOCKED: ATOM     16  C   UNL     1     140.624  69.859 228.344 -0.58 -0.00    +0.001 A  
DOCKED: ENDBRANCH   4   7
DOCKED: ENDBRANCH   2   3
DOCKED: BRANCH   2  17
DOCKED: ATOM     17  C   UNL     1     140.362  75.635 221.271 -0.29 +0.01    -0.025 A  
DOCKED: ATOM     18  C   UNL     1     141.331  76.042 220.315 -0.25 -0.00    +0.008 A  
DOCKED: ATOM     19  C   UNL     1     140.079  76.477 222.374 -0.37 -0.00    +0.016 A  
DOCKED: ATOM     20  C   UNL     1     142.010  77.267 220.452 -0.28 -0.02    +0.027 A  
DOCKED: ATOM     21  C   UNL     1     140.770  77.680 222.478 -0.44 +0.00    -0.000 A  
DOCKED: ATOM     22  C   UNL     1     141.702  78.062 221.552 -0.26 -0.03    +0.045 A  
DOCKED: ATOM     23  C   UNL     1     140.701  78.676 223.428 -0.43 -0.01    +0.028 A  
DOCKED: ATOM     24  N   UNL     1     142.229  79.256 221.869 -0.19 +0.20    -0.361 N  
DOCKED: ATOM     25  C   UNL     1     141.620  79.635 223.016 -0.50 -0.02    +0.083 A  
DOCKED: ATOM     26  H   UNL     1     142.959  79.786 221.342 -0.40 -0.12    +0.166 HD 
DOCKED: ENDBRANCH   2  17
DOCKED: TORSDOF 3
DOCKED: TER
DOCKED: ENDMDL
________________________________________________________________________________


    FINAL DOCKED STATE:
    ________________________


Run:   15 / 20
Time taken for this run:   0.021s

DOCKED: MODEL        15
DOCKED: USER    Run = 15
DOCKED: USER
DOCKED: USER    Estimated Free Energy of Binding    =  -8.65 kcal/mol  [=(1)+(2)+(3)-(4)]
DOCKED: USER
DOCKED: USER    (1) Final Intermolecular Energy     =  -9.55 kcal/mol
DOCKED: USER        vdW + Hbond + desolv Energy     =  -9.53 kcal/mol
DOCKED: USER        Electrostatic Energy            =  -0.02 kcal/mol
DOCKED: USER        Moving Ligand-Fixed Receptor    =  -9.55 kcal/mol
DOCKED: USER        Moving Ligand-Moving Receptor   =  +0.00 kcal/mol
DOCKED: USER    (2) Final Total Internal Energy     =  -0.73 kcal/mol
DOCKED: USER    (3) Torsional Free Energy           =  +0.89 kcal/mol
DOCKED: USER    (4) Unbound System's Energy         =  -0.73 kcal/mol
DOCKED: USER
DOCKED: USER
DOCKED: REMARK SMILES C[C@H](NC(=O)c1ccc2ccccc2n1)c1ccc2[nH]ccc2c1
DOCKED: REMARK SMILES IDX 1 1 2 2 3 3 4 4 5 6 6 7 7 8 15 9 8 10 14 11 9 12 13 13 10 14
DOCKED: REMARK SMILES IDX 12 15 11 16 16 17 17 18 24 19 18 20 23 21 19 22 22 23 20 24
DOCKED: REMARK SMILES IDX 21 25
DOCKED: REMARK H PARENT 3 5 20 26
DOCKED: USER                              x       y       z     vdW  Elec       q    Type
DOCKED: USER                           _______ _______ _______ _____ _____    ______ ____
DOCKED: ROOT
DOCKED: ATOM      1  C   UNL     1     138.128  74.535 220.730 -0.11 -0.01    +0.036 C  
DOCKED: ATOM      2  C   UNL     1     139.594  74.305 221.114 -0.19 -0.02    +0.109 C  
DOCKED: ENDROOT
DOCKED: BRANCH   2   3
DOCKED: ATOM      3  N   UNL     1     139.681  73.509 222.344 -0.13 +0.05    -0.344 N  
DOCKED: ATOM      4  C   UNL     1     139.981  72.103 222.326 -0.20 -0.04    +0.270 C  
DOCKED: ATOM      5  H   UNL     1     139.517  73.974 223.265 -0.49 -0.03    +0.164 HD 
DOCKED: ATOM      6  O   UNL     1     140.232  71.530 221.231 -0.10 +0.04    -0.267 OA 
DOCKED: BRANCH   4   7
DOCKED: ATOM      7  C   UNL     1     140.003  71.322 223.584 -0.32 -0.02    +0.128 A  
DOCKED: ATOM      8  C   UNL     1     139.541  69.995 223.620 -0.27 -0.01    +0.035 A  
DOCKED: ATOM      9  N   UNL     1     140.475  71.896 224.726 -0.26 +0.04    -0.243 NA 
DOCKED: ATOM     10  C   UNL     1     139.572  69.283 224.822 -0.37 -0.00    +0.013 A  
DOCKED: ATOM     11  C   UNL     1     140.518  71.228 225.909 -0.54 -0.01    +0.071 A  
DOCKED: ATOM     12  C   UNL     1     140.062  69.894 225.981 -0.50 -0.00    +0.000 A  
DOCKED: ATOM     13  C   UNL     1     141.012  71.859 227.056 -0.76 -0.01    +0.029 A  
DOCKED: ATOM     14  C   UNL     1     140.107  69.207 227.204 -0.59 -0.00    +0.010 A  
DOCKED: ATOM     15  C   UNL     1     141.053  71.168 228.272 -0.70 -0.00    +0.002 A  
DOCKED: ATOM     16  C   UNL     1     140.603  69.846 228.345 -0.59 -0.00    +0.001 A  
DOCKED: ENDBRANCH   4   7
DOCKED: ENDBRANCH   2   3
DOCKED: BRANCH   2  17
DOCKED: ATOM     17  C   UNL     1     140.322  75.627 221.279 -0.29 +0.01    -0.025 A  
DOCKED: ATOM     18  C   UNL     1     141.300  76.021 220.326 -0.25 -0.00    +0.008 A  
DOCKED: ATOM     19  C   UNL     1     140.036  76.478 222.374 -0.37 -0.00    +0.016 A  
DOCKED: ATOM     20  C   UNL     1     141.984  77.244 220.460 -0.28 -0.02    +0.027 A  
DOCKED: ATOM     21  C   UNL     1     140.733  77.678 222.474 -0.44 +0.00    -0.000 A  
DOCKED: ATOM     22  C   UNL     1     141.673  78.049 221.552 -0.27 -0.03    +0.045 A  
DOCKED: ATOM     23  C   UNL     1     140.663  78.680 223.417 -0.43 -0.01    +0.028 A  
DOCKED: ATOM     24  N   UNL     1     142.204  79.242 221.864 -0.20 +0.20    -0.361 N  
DOCKED: ATOM     25  C   UNL     1     141.590  79.632 223.005 -0.49 -0.02    +0.083 A  
DOCKED: ATOM     26  H   UNL     1     142.940  79.764 221.339 -0.39 -0.12    +0.166 HD 
DOCKED: ENDBRANCH   2  17
DOCKED: TORSDOF 3
DOCKED: TER
DOCKED: ENDMDL
________________________________________________________________________________


    FINAL DOCKED STATE:
    ________________________


Run:   16 / 20
Time taken for this run:   0.021s

DOCKED: MODEL        16
DOCKED: USER    Run = 16
DOCKED: USER
DOCKED: USER    Estimated Free Energy of Binding    =  -8.66 kcal/mol  [=(1)+(2)+(3)-(4)]
DOCKED: USER
DOCKED: USER    (1) Final Intermolecular Energy     =  -9.56 kcal/mol
DOCKED: USER        vdW + Hbond + desolv Energy     =  -9.54 kcal/mol
DOCKED: USER        Electrostatic Energy            =  -0.02 kcal/mol
DOCKED: USER        Moving Ligand-Fixed Receptor    =  -9.56 kcal/mol
DOCKED: USER        Moving Ligand-Moving Receptor   =  +0.00 kcal/mol
DOCKED: USER    (2) Final Total Internal Energy     =  -0.72 kcal/mol
DOCKED: USER    (3) Torsional Free Energy           =  +0.89 kcal/mol
DOCKED: USER    (4) Unbound System's Energy         =  -0.72 kcal/mol
DOCKED: USER
DOCKED: USER
DOCKED: REMARK SMILES C[C@H](NC(=O)c1ccc2ccccc2n1)c1ccc2[nH]ccc2c1
DOCKED: REMARK SMILES IDX 1 1 2 2 3 3 4 4 5 6 6 7 7 8 15 9 8 10 14 11 9 12 13 13 10 14
DOCKED: REMARK SMILES IDX 12 15 11 16 16 17 17 18 24 19 18 20 23 21 19 22 22 23 20 24
DOCKED: REMARK SMILES IDX 21 25
DOCKED: REMARK H PARENT 3 5 20 26
DOCKED: USER                              x       y       z     vdW  Elec       q    Type
DOCKED: USER                           _______ _______ _______ _____ _____    ______ ____
DOCKED: ROOT
DOCKED: ATOM      1  C   UNL     1     138.224  74.537 220.662 -0.10 -0.01    +0.036 C  
DOCKED: ATOM      2  C   UNL     1     139.682  74.316 221.080 -0.19 -0.02    +0.109 C  
DOCKED: ENDROOT
DOCKED: BRANCH   2   3
DOCKED: ATOM      3  N   UNL     1     139.746  73.519 222.311 -0.13 +0.05    -0.344 N  
DOCKED: ATOM      4  C   UNL     1     140.057  72.116 222.300 -0.20 -0.04    +0.270 C  
DOCKED: ATOM      5  H   UNL     1     139.556  73.983 223.228 -0.50 -0.03    +0.164 HD 
DOCKED: ATOM      6  O   UNL     1     140.339  71.546 221.210 -0.10 +0.04    -0.267 OA 
DOCKED: BRANCH   4   7
DOCKED: ATOM      7  C   UNL     1     140.055  71.335 223.557 -0.32 -0.02    +0.128 A  
DOCKED: ATOM      8  C   UNL     1     139.559  70.020 223.591 -0.27 -0.01    +0.035 A  
DOCKED: ATOM      9  N   UNL     1     140.538  71.896 224.701 -0.26 +0.04    -0.243 NA 
DOCKED: ATOM     10  C   UNL     1     139.569  69.306 224.793 -0.37 -0.00    +0.013 A  
DOCKED: ATOM     11  C   UNL     1     140.559  71.227 225.884 -0.55 -0.01    +0.071 A  
DOCKED: ATOM     12  C   UNL     1     140.069  69.904 225.954 -0.50 -0.00    +0.000 A  
DOCKED: ATOM     13  C   UNL     1     141.065  71.845 227.033 -0.77 -0.01    +0.029 A  
DOCKED: ATOM     14  C   UNL     1     140.093  69.217 227.177 -0.59 -0.00    +0.010 A  
DOCKED: ATOM     15  C   UNL     1     141.085  71.153 228.248 -0.70 -0.00    +0.002 A  
DOCKED: ATOM     16  C   UNL     1     140.601  69.843 228.320 -0.59 -0.00    +0.001 A  
DOCKED: ENDBRANCH   4   7
DOCKED: ENDBRANCH   2   3
DOCKED: BRANCH   2  17
DOCKED: ATOM     17  C   UNL     1     140.398  75.642 221.262 -0.29 +0.01    -0.025 A  
DOCKED: ATOM     18  C   UNL     1     141.371  76.058 220.314 -0.25 -0.00    +0.008 A  
DOCKED: ATOM     19  C   UNL     1     140.105  76.475 222.368 -0.38 -0.00    +0.016 A  
DOCKED: ATOM     20  C   UNL     1     142.044  77.285 220.463 -0.27 -0.02    +0.027 A  
DOCKED: ATOM     21  C   UNL     1     140.791  77.681 222.484 -0.44 +0.00    -0.000 A  
DOCKED: ATOM     22  C   UNL     1     141.726  78.072 221.566 -0.26 -0.03    +0.045 A  
DOCKED: ATOM     23  C   UNL     1     140.713  78.669 223.440 -0.43 -0.01    +0.028 A  
DOCKED: ATOM     24  N   UNL     1     142.247  79.266 221.894 -0.19 +0.20    -0.361 N  
DOCKED: ATOM     25  C   UNL     1     141.631  79.635 223.040 -0.50 -0.02    +0.083 A  
DOCKED: ATOM     26  H   UNL     1     142.978  79.802 221.375 -0.40 -0.12    +0.166 HD 
DOCKED: ENDBRANCH   2  17
DOCKED: TORSDOF 3
DOCKED: TER
DOCKED: ENDMDL
________________________________________________________________________________


    FINAL DOCKED STATE:
    ________________________


Run:   17 / 20
Time taken for this run:   0.021s

DOCKED: MODEL        17
DOCKED: USER    Run = 17
DOCKED: USER
DOCKED: USER    Estimated Free Energy of Binding    =  -8.67 kcal/mol  [=(1)+(2)+(3)-(4)]
DOCKED: USER
DOCKED: USER    (1) Final Intermolecular Energy     =  -9.56 kcal/mol
DOCKED: USER        vdW + Hbond + desolv Energy     =  -9.55 kcal/mol
DOCKED: USER        Electrostatic Energy            =  -0.02 kcal/mol
DOCKED: USER        Moving Ligand-Fixed Receptor    =  -9.56 kcal/mol
DOCKED: USER        Moving Ligand-Moving Receptor   =  +0.00 kcal/mol
DOCKED: USER    (2) Final Total Internal Energy     =  -0.72 kcal/mol
DOCKED: USER    (3) Torsional Free Energy           =  +0.89 kcal/mol
DOCKED: USER    (4) Unbound System's Energy         =  -0.72 kcal/mol
DOCKED: USER
DOCKED: USER
DOCKED: REMARK SMILES C[C@H](NC(=O)c1ccc2ccccc2n1)c1ccc2[nH]ccc2c1
DOCKED: REMARK SMILES IDX 1 1 2 2 3 3 4 4 5 6 6 7 7 8 15 9 8 10 14 11 9 12 13 13 10 14
DOCKED: REMARK SMILES IDX 12 15 11 16 16 17 17 18 24 19 18 20 23 21 19 22 22 23 20 24
DOCKED: REMARK SMILES IDX 21 25
DOCKED: REMARK H PARENT 3 5 20 26
DOCKED: USER                              x       y       z     vdW  Elec       q    Type
DOCKED: USER                           _______ _______ _______ _____ _____    ______ ____
DOCKED: ROOT
DOCKED: ATOM      1  C   UNL     1     138.235  74.550 220.661 -0.10 -0.01    +0.036 C  
DOCKED: ATOM      2  C   UNL     1     139.690  74.332 221.089 -0.19 -0.02    +0.109 C  
DOCKED: ENDROOT
DOCKED: BRANCH   2   3
DOCKED: ATOM      3  N   UNL     1     139.747  73.538 222.322 -0.13 +0.05    -0.344 N  
DOCKED: ATOM      4  C   UNL     1     140.071  72.137 222.318 -0.21 -0.04    +0.270 C  
DOCKED: ATOM      5  H   UNL     1     139.542  74.003 223.236 -0.49 -0.03    +0.164 HD 
DOCKED: ATOM      6  O   UNL     1     140.370  71.568 221.233 -0.11 +0.04    -0.267 OA 
DOCKED: BRANCH   4   7
DOCKED: ATOM      7  C   UNL     1     140.061  71.360 223.577 -0.32 -0.02    +0.128 A  
DOCKED: ATOM      8  C   UNL     1     139.559  70.047 223.613 -0.27 -0.01    +0.035 A  
DOCKED: ATOM      9  N   UNL     1     140.543  71.921 224.721 -0.24 +0.04    -0.243 NA 
DOCKED: ATOM     10  C   UNL     1     139.562  69.336 224.816 -0.37 -0.00    +0.013 A  
DOCKED: ATOM     11  C   UNL     1     140.558  71.254 225.906 -0.55 -0.01    +0.071 A  
DOCKED: ATOM     12  C   UNL     1     140.062  69.935 225.977 -0.50 -0.00    +0.000 A  
DOCKED: ATOM     13  C   UNL     1     141.064  71.873 227.055 -0.77 -0.01    +0.029 A  
DOCKED: ATOM     14  C   UNL     1     140.079  69.249 227.202 -0.59 -0.00    +0.010 A  
DOCKED: ATOM     15  C   UNL     1     141.076  71.184 228.272 -0.70 -0.00    +0.002 A  
DOCKED: ATOM     16  C   UNL     1     140.586  69.876 228.345 -0.58 -0.00    +0.001 A  
DOCKED: ENDBRANCH   4   7
DOCKED: ENDBRANCH   2   3
DOCKED: BRANCH   2  17
DOCKED: ATOM     17  C   UNL     1     140.403  75.659 221.271 -0.30 +0.01    -0.025 A  
DOCKED: ATOM     18  C   UNL     1     141.368  76.083 220.318 -0.25 -0.00    +0.008 A  
DOCKED: ATOM     19  C   UNL     1     140.116  76.486 222.384 -0.37 -0.00    +0.016 A  
DOCKED: ATOM     20  C   UNL     1     142.038  77.311 220.468 -0.27 -0.02    +0.027 A  
DOCKED: ATOM     21  C   UNL     1     140.799  77.693 222.500 -0.44 +0.00    -0.000 A  
DOCKED: ATOM     22  C   UNL     1     141.726  78.092 221.577 -0.26 -0.03    +0.045 A  
DOCKED: ATOM     23  C   UNL     1     140.725  78.677 223.462 -0.43 -0.01    +0.028 A  
DOCKED: ATOM     24  N   UNL     1     142.246  79.286 221.907 -0.20 +0.20    -0.361 N  
DOCKED: ATOM     25  C   UNL     1     141.637  79.648 223.060 -0.50 -0.02    +0.083 A  
DOCKED: ATOM     26  H   UNL     1     142.971  79.827 221.386 -0.39 -0.12    +0.166 HD 
DOCKED: ENDBRANCH   2  17
DOCKED: TORSDOF 3
DOCKED: TER
DOCKED: ENDMDL
________________________________________________________________________________


    FINAL DOCKED STATE:
    ________________________


Run:   18 / 20
Time taken for this run:   0.021s

DOCKED: MODEL        18
DOCKED: USER    Run = 18
DOCKED: USER
DOCKED: USER    Estimated Free Energy of Binding    =  -8.65 kcal/mol  [=(1)+(2)+(3)-(4)]
DOCKED: USER
DOCKED: USER    (1) Final Intermolecular Energy     =  -9.54 kcal/mol
DOCKED: USER        vdW + Hbond + desolv Energy     =  -9.53 kcal/mol
DOCKED: USER        Electrostatic Energy            =  -0.01 kcal/mol
DOCKED: USER        Moving Ligand-Fixed Receptor    =  -9.54 kcal/mol
DOCKED: USER        Moving Ligand-Moving Receptor   =  +0.00 kcal/mol
DOCKED: USER    (2) Final Total Internal Energy     =  -0.74 kcal/mol
DOCKED: USER    (3) Torsional Free Energy           =  +0.89 kcal/mol
DOCKED: USER    (4) Unbound System's Energy         =  -0.74 kcal/mol
DOCKED: USER
DOCKED: USER
DOCKED: REMARK SMILES C[C@H](NC(=O)c1ccc2ccccc2n1)c1ccc2[nH]ccc2c1
DOCKED: REMARK SMILES IDX 1 1 2 2 3 3 4 4 5 6 6 7 7 8 15 9 8 10 14 11 9 12 13 13 10 14
DOCKED: REMARK SMILES IDX 12 15 11 16 16 17 17 18 24 19 18 20 23 21 19 22 22 23 20 24
DOCKED: REMARK SMILES IDX 21 25
DOCKED: REMARK H PARENT 3 5 20 26
DOCKED: USER                              x       y       z     vdW  Elec       q    Type
DOCKED: USER                           _______ _______ _______ _____ _____    ______ ____
DOCKED: ROOT
DOCKED: ATOM      1  C   UNL     1     138.127  74.560 220.745 -0.11 -0.01    +0.036 C  
DOCKED: ATOM      2  C   UNL     1     139.595  74.328 221.117 -0.19 -0.02    +0.109 C  
DOCKED: ENDROOT
DOCKED: BRANCH   2   3
DOCKED: ATOM      3  N   UNL     1     139.691  73.524 222.342 -0.13 +0.05    -0.344 N  
DOCKED: ATOM      4  C   UNL     1     139.975  72.114 222.313 -0.20 -0.04    +0.270 C  
DOCKED: ATOM      5  H   UNL     1     139.545  73.987 223.267 -0.49 -0.03    +0.164 HD 
DOCKED: ATOM      6  O   UNL     1     140.203  71.545 221.211 -0.10 +0.04    -0.267 OA 
DOCKED: BRANCH   4   7
DOCKED: ATOM      7  C   UNL     1     140.006  71.328 223.566 -0.32 -0.02    +0.128 A  
DOCKED: ATOM      8  C   UNL     1     139.555  69.997 223.596 -0.27 -0.01    +0.035 A  
DOCKED: ATOM      9  N   UNL     1     140.476  71.899 224.710 -0.26 +0.04    -0.243 NA 
DOCKED: ATOM     10  C   UNL     1     139.595  69.278 224.794 -0.37 -0.00    +0.013 A  
DOCKED: ATOM     11  C   UNL     1     140.527  71.225 225.890 -0.54 -0.01    +0.071 A  
DOCKED: ATOM     12  C   UNL     1     140.082  69.887 225.956 -0.50 -0.00    +0.000 A  
DOCKED: ATOM     13  C   UNL     1     141.018  71.855 227.039 -0.76 -0.01    +0.029 A  
DOCKED: ATOM     14  C   UNL     1     140.136  69.194 227.175 -0.59 -0.00    +0.010 A  
DOCKED: ATOM     15  C   UNL     1     141.068  71.158 228.251 -0.70 -0.00    +0.002 A  
DOCKED: ATOM     16  C   UNL     1     140.629  69.831 228.318 -0.59 -0.00    +0.001 A  
DOCKED: ENDBRANCH   4   7
DOCKED: ENDBRANCH   2   3
DOCKED: BRANCH   2  17
DOCKED: ATOM     17  C   UNL     1     140.325  75.648 221.284 -0.29 +0.01    -0.025 A  
DOCKED: ATOM     18  C   UNL     1     141.300  76.045 220.329 -0.25 -0.00    +0.008 A  
DOCKED: ATOM     19  C   UNL     1     140.044  76.495 222.383 -0.37 -0.00    +0.016 A  
DOCKED: ATOM     20  C   UNL     1     141.986  77.266 220.465 -0.28 -0.02    +0.027 A  
DOCKED: ATOM     21  C   UNL     1     140.743  77.694 222.485 -0.44 +0.00    -0.000 A  
DOCKED: ATOM     22  C   UNL     1     141.679  78.067 221.561 -0.27 -0.03    +0.045 A  
DOCKED: ATOM     23  C   UNL     1     140.677  78.693 223.432 -0.43 -0.01    +0.028 A  
DOCKED: ATOM     24  N   UNL     1     142.213  79.259 221.876 -0.20 +0.20    -0.361 N  
DOCKED: ATOM     25  C   UNL     1     141.604  79.646 223.020 -0.49 -0.02    +0.083 A  
DOCKED: ATOM     26  H   UNL     1     142.948  79.782 221.350 -0.40 -0.12    +0.166 HD 
DOCKED: ENDBRANCH   2  17
DOCKED: TORSDOF 3
DOCKED: TER
DOCKED: ENDMDL
________________________________________________________________________________


    FINAL DOCKED STATE:
    ________________________


Run:   19 / 20
Time taken for this run:   0.021s

DOCKED: MODEL        19
DOCKED: USER    Run = 19
DOCKED: USER
DOCKED: USER    Estimated Free Energy of Binding    =  -8.65 kcal/mol  [=(1)+(2)+(3)-(4)]
DOCKED: USER
DOCKED: USER    (1) Final Intermolecular Energy     =  -9.55 kcal/mol
DOCKED: USER        vdW + Hbond + desolv Energy     =  -9.53 kcal/mol
DOCKED: USER        Electrostatic Energy            =  -0.02 kcal/mol
DOCKED: USER        Moving Ligand-Fixed Receptor    =  -9.55 kcal/mol
DOCKED: USER        Moving Ligand-Moving Receptor   =  +0.00 kcal/mol
DOCKED: USER    (2) Final Total Internal Energy     =  -0.73 kcal/mol
DOCKED: USER    (3) Torsional Free Energy           =  +0.89 kcal/mol
DOCKED: USER    (4) Unbound System's Energy         =  -0.73 kcal/mol
DOCKED: USER
DOCKED: USER
DOCKED: REMARK SMILES C[C@H](NC(=O)c1ccc2ccccc2n1)c1ccc2[nH]ccc2c1
DOCKED: REMARK SMILES IDX 1 1 2 2 3 3 4 4 5 6 6 7 7 8 15 9 8 10 14 11 9 12 13 13 10 14
DOCKED: REMARK SMILES IDX 12 15 11 16 16 17 17 18 24 19 18 20 23 21 19 22 22 23 20 24
DOCKED: REMARK SMILES IDX 21 25
DOCKED: REMARK H PARENT 3 5 20 26
DOCKED: USER                              x       y       z     vdW  Elec       q    Type
DOCKED: USER                           _______ _______ _______ _____ _____    ______ ____
DOCKED: ROOT
DOCKED: ATOM      1  C   UNL     1     138.185  74.536 220.718 -0.11 -0.01    +0.036 C  
DOCKED: ATOM      2  C   UNL     1     139.647  74.311 221.117 -0.19 -0.02    +0.109 C  
DOCKED: ENDROOT
DOCKED: BRANCH   2   3
DOCKED: ATOM      3  N   UNL     1     139.725  73.513 222.346 -0.13 +0.05    -0.344 N  
DOCKED: ATOM      4  C   UNL     1     140.037  72.109 222.330 -0.20 -0.04    +0.270 C  
DOCKED: ATOM      5  H   UNL     1     139.544  73.975 223.266 -0.49 -0.03    +0.164 HD 
DOCKED: ATOM      6  O   UNL     1     140.308  71.541 221.237 -0.10 +0.04    -0.267 OA 
DOCKED: BRANCH   4   7
DOCKED: ATOM      7  C   UNL     1     140.049  71.327 223.586 -0.32 -0.02    +0.128 A  
DOCKED: ATOM      8  C   UNL     1     139.561  70.009 223.622 -0.27 -0.01    +0.035 A  
DOCKED: ATOM      9  N   UNL     1     140.536  71.889 224.727 -0.27 +0.04    -0.243 NA 
DOCKED: ATOM     10  C   UNL     1     139.584  69.294 224.822 -0.37 -0.00    +0.013 A  
DOCKED: ATOM     11  C   UNL     1     140.570  71.219 225.909 -0.55 -0.01    +0.071 A  
DOCKED: ATOM     12  C   UNL     1     140.089  69.893 225.981 -0.50 -0.00    +0.000 A  
DOCKED: ATOM     13  C   UNL     1     141.082  71.839 227.056 -0.77 -0.01    +0.029 A  
DOCKED: ATOM     14  C   UNL     1     140.126  69.204 227.203 -0.59 -0.00    +0.010 A  
DOCKED: ATOM     15  C   UNL     1     141.114  71.145 228.270 -0.68 -0.00    +0.002 A  
DOCKED: ATOM     16  C   UNL     1     140.638  69.832 228.343 -0.59 -0.00    +0.001 A  
DOCKED: ENDBRANCH   4   7
DOCKED: ENDBRANCH   2   3
DOCKED: BRANCH   2  17
DOCKED: ATOM     17  C   UNL     1     140.368  75.635 221.291 -0.30 +0.01    -0.025 A  
DOCKED: ATOM     18  C   UNL     1     141.338  76.046 220.337 -0.25 -0.00    +0.008 A  
DOCKED: ATOM     19  C   UNL     1     140.084  76.473 222.397 -0.36 -0.00    +0.016 A  
DOCKED: ATOM     20  C   UNL     1     142.016  77.271 220.480 -0.27 -0.02    +0.027 A  
DOCKED: ATOM     21  C   UNL     1     140.774  77.676 222.506 -0.44 +0.00    -0.000 A  
DOCKED: ATOM     22  C   UNL     1     141.706  78.062 221.582 -0.26 -0.03    +0.045 A  
DOCKED: ATOM     23  C   UNL     1     140.705  78.668 223.459 -0.43 -0.01    +0.028 A  
DOCKED: ATOM     24  N   UNL     1     142.233  79.255 221.904 -0.20 +0.20    -0.361 N  
DOCKED: ATOM     25  C   UNL     1     141.623  79.630 223.052 -0.50 -0.02    +0.083 A  
DOCKED: ATOM     26  H   UNL     1     142.963  79.787 221.380 -0.40 -0.12    +0.166 HD 
DOCKED: ENDBRANCH   2  17
DOCKED: TORSDOF 3
DOCKED: TER
DOCKED: ENDMDL
________________________________________________________________________________


    FINAL DOCKED STATE:
    ________________________


Run:   20 / 20
Time taken for this run:   0.021s

DOCKED: MODEL        20
DOCKED: USER    Run = 20
DOCKED: USER
DOCKED: USER    Estimated Free Energy of Binding    =  -8.68 kcal/mol  [=(1)+(2)+(3)-(4)]
DOCKED: USER
DOCKED: USER    (1) Final Intermolecular Energy     =  -9.58 kcal/mol
DOCKED: USER        vdW + Hbond + desolv Energy     =  -9.56 kcal/mol
DOCKED: USER        Electrostatic Energy            =  -0.02 kcal/mol
DOCKED: USER        Moving Ligand-Fixed Receptor    =  -9.58 kcal/mol
DOCKED: USER        Moving Ligand-Moving Receptor   =  +0.00 kcal/mol
DOCKED: USER    (2) Final Total Internal Energy     =  -0.70 kcal/mol
DOCKED: USER    (3) Torsional Free Energy           =  +0.89 kcal/mol
DOCKED: USER    (4) Unbound System's Energy         =  -0.70 kcal/mol
DOCKED: USER
DOCKED: USER
DOCKED: REMARK SMILES C[C@H](NC(=O)c1ccc2ccccc2n1)c1ccc2[nH]ccc2c1
DOCKED: REMARK SMILES IDX 1 1 2 2 3 3 4 4 5 6 6 7 7 8 15 9 8 10 14 11 9 12 13 13 10 14
DOCKED: REMARK SMILES IDX 12 15 11 16 16 17 17 18 24 19 18 20 23 21 19 22 22 23 20 24
DOCKED: REMARK SMILES IDX 21 25
DOCKED: REMARK H PARENT 3 5 20 26
DOCKED: USER                              x       y       z     vdW  Elec       q    Type
DOCKED: USER                           _______ _______ _______ _____ _____    ______ ____
DOCKED: ROOT
DOCKED: ATOM      1  C   UNL     1     138.381  74.541 220.517 -0.10 -0.01    +0.036 C  
DOCKED: ATOM      2  C   UNL     1     139.817  74.349 221.017 -0.19 -0.02    +0.109 C  
DOCKED: ENDROOT
DOCKED: BRANCH   2   3
DOCKED: ATOM      3  N   UNL     1     139.825  73.566 222.259 -0.13 +0.04    -0.344 N  
DOCKED: ATOM      4  C   UNL     1     140.197  72.177 222.286 -0.21 -0.04    +0.270 C  
DOCKED: ATOM      5  H   UNL     1     139.549  74.028 223.154 -0.51 -0.02    +0.164 HD 
DOCKED: ATOM      6  O   UNL     1     140.582  71.611 221.226 -0.12 +0.04    -0.267 OA 
DOCKED: BRANCH   4   7
DOCKED: ATOM      7  C   UNL     1     140.137  71.407 223.548 -0.32 -0.02    +0.128 A  
DOCKED: ATOM      8  C   UNL     1     139.585  70.114 223.582 -0.27 -0.01    +0.035 A  
DOCKED: ATOM      9  N   UNL     1     140.620  71.956 224.698 -0.20 +0.03    -0.243 NA 
DOCKED: ATOM     10  C   UNL     1     139.541  69.411 224.788 -0.37 -0.00    +0.013 A  
DOCKED: ATOM     11  C   UNL     1     140.590  71.296 225.886 -0.55 -0.01    +0.071 A  
DOCKED: ATOM     12  C   UNL     1     140.043  69.996 225.955 -0.50 -0.00    +0.000 A  
DOCKED: ATOM     13  C   UNL     1     141.099  71.902 227.040 -0.77 -0.01    +0.029 A  
DOCKED: ATOM     14  C   UNL     1     140.014  69.318 227.183 -0.58 -0.00    +0.010 A  
DOCKED: ATOM     15  C   UNL     1     141.065  71.219 228.261 -0.71 -0.00    +0.002 A  
DOCKED: ATOM     16  C   UNL     1     140.525  69.931 228.331 -0.58 -0.00    +0.001 A  
DOCKED: ENDBRANCH   4   7
DOCKED: ENDBRANCH   2   3
DOCKED: BRANCH   2  17
DOCKED: ATOM     17  C   UNL     1     140.500  75.689 221.224 -0.30 +0.01    -0.025 A  
DOCKED: ATOM     18  C   UNL     1     141.457  76.150 220.280 -0.26 -0.00    +0.008 A  
DOCKED: ATOM     19  C   UNL     1     140.192  76.490 222.350 -0.39 -0.00    +0.016 A  
DOCKED: ATOM     20  C   UNL     1     142.099  77.390 220.453 -0.27 -0.02    +0.027 A  
DOCKED: ATOM     21  C   UNL     1     140.847  77.710 222.488 -0.45 +0.00    -0.000 A  
DOCKED: ATOM     22  C   UNL     1     141.767  78.145 221.574 -0.27 -0.03    +0.045 A  
DOCKED: ATOM     23  C   UNL     1     140.750  78.675 223.466 -0.44 -0.01    +0.028 A  
DOCKED: ATOM     24  N   UNL     1     142.259  79.344 221.925 -0.20 +0.20    -0.361 N  
DOCKED: ATOM     25  C   UNL     1     141.640  79.673 223.083 -0.50 -0.02    +0.083 A  
DOCKED: ATOM     26  H   UNL     1     142.974  79.910 221.415 -0.38 -0.11    +0.166 HD 
DOCKED: ENDBRANCH   2  17
DOCKED: TORSDOF 3
DOCKED: TER
DOCKED: ENDMDL
________________________________________________________________________________


    CLUSTERING HISTOGRAM
    ____________________


________________________________________________________________________________
     |           |     |           |     |
Clus | Lowest    | Run | Mean      | Num | Histogram
-ter | Binding   |     | Binding   | in  |
Rank | Energy    |     | Energy    | Clus|    5    10   15   20   25   30   35
_____|___________|_____|___________|_____|____:____|____:____|____:____|____:___
   1 |     -8.71 |   1 |     -8.66 |  20 |####################
_____|___________|_____|___________|_____|______________________________________


    RMSD TABLE
    __________


_______________________________________________________________________
     |      |      |           |         |                 |
Rank | Sub- | Run  | Binding   | Cluster | Reference       | Grep
     | Rank |      | Energy    | RMSD    | RMSD            | Pattern
_____|______|______|___________|_________|_________________|___________
   1      1      1       -8.71      0.00    270.17           RANKING
   1      2      2       -8.69      0.12    270.16           RANKING
   1      3      4       -8.68      0.10    270.15           RANKING
   1      4     20       -8.68      0.11    270.17           RANKING
   1      5     12       -8.68      0.13    270.15           RANKING
   1      6      8       -8.68      0.13    270.15           RANKING
   1      7      5       -8.67      0.13    270.16           RANKING
   1      8     17       -8.67      0.15    270.15           RANKING
   1      9      3       -8.66      0.14    270.16           RANKING
   1     10      7       -8.66      0.18    270.13           RANKING
   1     11     16       -8.66      0.17    270.13           RANKING
   1     12     14       -8.66      0.19    270.13           RANKING
   1     13     11       -8.66      0.19    270.12           RANKING
   1     14     19       -8.65      0.19    270.15           RANKING
   1     15      6       -8.65      0.20    270.11           RANKING
   1     16     13       -8.65      0.19    270.13           RANKING
   1     17     15       -8.65      0.21    270.12           RANKING
   1     18     18       -8.65      0.21    270.12           RANKING
   1     19     10       -8.64      0.20    270.12           RANKING
   1     20      9       -8.49      1.29    270.22           RANKING

Run time 0.399 sec
Idle time 0.000 sec
