AutoDock-GPU version: v1.6

**********************************************************
**    AutoDock-GPU AUTODOCKTOOLS-COMPATIBLE DLG FILE    **
**********************************************************


    DOCKING PARAMETERS
    ________________________


Ligand file:                               /home/a/REINVENT4/ReinventStudies/pleaseWork/justRnve/graph-dock-t2iv78/graph-DockGPU/node-autodockgpu/inputs/YNAOIZSFIBDHMX-XVUPPQDZNA-N.pdbqt
Grid fld file:                             /home/a/REINVENT4/ReinventStudies/mols/Rad51/maps/rad51_receptor.maps.fld

Random seed:                               42
Number of runs:                            20
Number of energy evaluations:              1259779
Number of generations:                     42000
Size of population:                        150
Rate of crossover:                         80.000000%
Tournament selection probability limit:    60.000000%
Rate of mutation:                          2.000000%
Maximal allowed delta movement:            +/- 6.000000A
Maximal allowed delta angle:               +/- 90.000000

Rate of local search:                      100.000000%
Maximal number of local search iterations: 300
Rho lower bound:                           0.010000
Spread of local search delta movement:     2.000000A
Spread of local search delta angle:        74.999999
Limit of consecutive successes/failures:   4

Handle symmetry during clustering:         YES
RMSD tolerance:                            2.000000A

Program call in command line was:          /home/a/REINVENT4/ReinventStudies/adgpu-v1.6_linux_x64_cuda12_128wi --filelist batch.txt --heuristics 1 --nrun 20 --psize 150 --lsit 300 --seed 42 --heurmax 12000000 


    GRID PARAMETERS
    ________________________


Receptor name:                             rad51_receptor
Number of grid points (x, y, z):           53, 53, 53
Grid center (x, y, z):                     139.950000, 75.640000, 221.970000A
Grid size (x, y, z):                       19.500000, 19.500000, 19.500000A
Grid spacing:                              0.375000A


    LIGAND PARAMETERS
    ________________________


Ligand name:                               /home/a/REINVENT4/ReinventStudies/pleaseWork/justRnve/graph-dock-t2iv78/graph-DockGPU/node-autodockgpu/inputs/YNAOIZSFIBDHMX-XVUPPQDZNA-N
Number of atoms:                           32
Number of rotatable bonds:                 7
Number of atom types:                      8


    DUMMY DATA (only for ADT-compatibility)
    ________________________


DPF> outlev 1
DPF> ga_run 20
DPF> fld /home/a/REINVENT4/ReinventStudies/mols/Rad51/maps/rad51_receptor.maps.fld
DPF> move /home/a/REINVENT4/ReinventStudies/pleaseWork/justRnve/graph-dock-t2iv78/graph-DockGPU/node-autodockgpu/inputs/YNAOIZSFIBDHMX-XVUPPQDZNA-N.pdbqt


    COUNTER STATES
    ________________________


Number of energy evaluations performed:    1088762
Number of generations used:                60


    INPUT LIGAND PDBQT FILE:
    ________________________


INPUT-LIGAND-PDBQT: REMARK SMILES O=C(Cc1ccc(-c2ccc(C(F)(F)F)nc2)cc1)/N=c1\nccc(-c2cccs2)[nH]1
INPUT-LIGAND-PDBQT: REMARK SMILES IDX 3 1 2 2 1 3 20 4 21 5 23 6 22 7 24 8 25 9 31 10 26 12 30 13
INPUT-LIGAND-PDBQT: REMARK SMILES IDX 27 14 29 15 28 16 4 17 5 18 19 19 6 20 18 21 7 22 8 23 17 24
INPUT-LIGAND-PDBQT: REMARK SMILES IDX 9 25 16 26 10 27 11 28 12 29 13 30 14 31 15 32
INPUT-LIGAND-PDBQT: REMARK H PARENT 31 11
INPUT-LIGAND-PDBQT: ROOT
INPUT-LIGAND-PDBQT: ATOM      1  C   UNL     1       0.504   3.462   2.044  1.00  0.00     0.138 C 
INPUT-LIGAND-PDBQT: ENDROOT
INPUT-LIGAND-PDBQT: BRANCH   1   2
INPUT-LIGAND-PDBQT: ATOM      2  C   UNL     1       1.670   2.524   2.103  1.00  0.00     0.253 C 
INPUT-LIGAND-PDBQT: ATOM      3  O   UNL     1       2.302   2.385   3.185  1.00  0.00    -0.272 OA
INPUT-LIGAND-PDBQT: BRANCH   2   4
INPUT-LIGAND-PDBQT: ATOM      4  N   UNL     1       2.053   1.806   0.918  1.00  0.00    -0.177 NA
INPUT-LIGAND-PDBQT: BRANCH   4   5
INPUT-LIGAND-PDBQT: ATOM      5  C   UNL     1       3.000   0.918   0.808  1.00  0.00     0.230 A 
INPUT-LIGAND-PDBQT: ATOM      6  C   UNL     1       4.745  -0.360   1.769  1.00  0.00     0.117 A 
INPUT-LIGAND-PDBQT: ATOM      7  N   UNL     1       3.761   0.567   1.879  1.00  0.00    -0.221 NA
INPUT-LIGAND-PDBQT: ATOM      8  C   UNL     1       4.988  -0.974   0.544  1.00  0.00     0.048 A 
INPUT-LIGAND-PDBQT: ATOM      9  C   UNL     1       4.200  -0.618  -0.560  1.00  0.00     0.060 A 
INPUT-LIGAND-PDBQT: ATOM     10  N   UNL     1       3.225   0.327  -0.401  1.00  0.00    -0.323 N 
INPUT-LIGAND-PDBQT: ATOM     11  H   UNL     1       2.639   0.622  -1.214  1.00  0.00     0.170 HD
INPUT-LIGAND-PDBQT: BRANCH   9  12
INPUT-LIGAND-PDBQT: ATOM     12  C   UNL     1       4.422  -1.266  -1.876  1.00  0.00     0.051 A 
INPUT-LIGAND-PDBQT: ATOM     13  S   UNL     1       5.786  -2.154  -2.318  1.00  0.00    -0.142 S 
INPUT-LIGAND-PDBQT: ATOM     14  C   UNL     1       3.541  -1.275  -2.958  1.00  0.00     0.022 A 
INPUT-LIGAND-PDBQT: ATOM     15  C   UNL     1       5.277  -2.545  -3.870  1.00  0.00     0.065 A 
INPUT-LIGAND-PDBQT: ATOM     16  C   UNL     1       4.021  -1.987  -4.065  1.00  0.00     0.012 A 
INPUT-LIGAND-PDBQT: ENDBRANCH   9  12
INPUT-LIGAND-PDBQT: ENDBRANCH   4   5
INPUT-LIGAND-PDBQT: ENDBRANCH   2   4
INPUT-LIGAND-PDBQT: ENDBRANCH   1   2
INPUT-LIGAND-PDBQT: BRANCH   1  17
INPUT-LIGAND-PDBQT: ATOM     17  C   UNL     1      -0.740   2.722   1.634  1.00  0.00    -0.039 A 
INPUT-LIGAND-PDBQT: ATOM     18  C   UNL     1      -1.489   2.015   2.587  1.00  0.00     0.005 A 
INPUT-LIGAND-PDBQT: ATOM     19  C   UNL     1      -1.123   2.675   0.285  1.00  0.00     0.005 A 
INPUT-LIGAND-PDBQT: ATOM     20  C   UNL     1      -2.615   1.283   2.198  1.00  0.00     0.009 A 
INPUT-LIGAND-PDBQT: ATOM     21  C   UNL     1      -2.249   1.943  -0.105  1.00  0.00     0.009 A 
INPUT-LIGAND-PDBQT: ATOM     22  C   UNL     1      -3.007   1.237   0.848  1.00  0.00    -0.017 A 
INPUT-LIGAND-PDBQT: BRANCH  22  23
INPUT-LIGAND-PDBQT: ATOM     23  C   UNL     1      -4.193   0.444   0.432  1.00  0.00     0.000 A 
INPUT-LIGAND-PDBQT: ATOM     24  C   UNL     1      -4.176  -0.308  -0.756  1.00  0.00     0.120 A 
INPUT-LIGAND-PDBQT: ATOM     25  C   UNL     1      -5.357   0.420   1.219  1.00  0.00     0.012 A 
INPUT-LIGAND-PDBQT: ATOM     26  N   UNL     1      -5.263  -1.036  -1.124  1.00  0.00    -0.251 NA
INPUT-LIGAND-PDBQT: ATOM     27  C   UNL     1      -6.460  -0.336   0.819  1.00  0.00     0.034 A 
INPUT-LIGAND-PDBQT: ATOM     28  C   UNL     1      -6.401  -1.064  -0.377  1.00  0.00     0.144 A 
INPUT-LIGAND-PDBQT: BRANCH  28  29
INPUT-LIGAND-PDBQT: ATOM     29  C   UNL     1      -7.565  -1.904  -0.812  1.00  0.00     0.433 C 
INPUT-LIGAND-PDBQT: ATOM     30  F   UNL     1      -7.725  -2.960   0.065  1.00  0.00    -0.165 F 
INPUT-LIGAND-PDBQT: ATOM     31  F   UNL     1      -8.719  -1.141  -0.821  1.00  0.00    -0.165 F 
INPUT-LIGAND-PDBQT: ATOM     32  F   UNL     1      -7.353  -2.405  -2.085  1.00  0.00    -0.165 F 
INPUT-LIGAND-PDBQT: ENDBRANCH  28  29
INPUT-LIGAND-PDBQT: ENDBRANCH  22  23
INPUT-LIGAND-PDBQT: ENDBRANCH   1  17
INPUT-LIGAND-PDBQT: TORSDOF 7


    FINAL DOCKED STATE:
    ________________________


Run:   1 / 20
Time taken for this run:   0.050s

DOCKED: MODEL        1
DOCKED: USER    Run = 1
DOCKED: USER
DOCKED: USER    Estimated Free Energy of Binding    =  -6.41 kcal/mol  [=(1)+(2)+(3)-(4)]
DOCKED: USER
DOCKED: USER    (1) Final Intermolecular Energy     =  -8.50 kcal/mol
DOCKED: USER        vdW + Hbond + desolv Energy     =  -8.42 kcal/mol
DOCKED: USER        Electrostatic Energy            =  -0.07 kcal/mol
DOCKED: USER        Moving Ligand-Fixed Receptor    =  -8.50 kcal/mol
DOCKED: USER        Moving Ligand-Moving Receptor   =  +0.00 kcal/mol
DOCKED: USER    (2) Final Total Internal Energy     =  -2.40 kcal/mol
DOCKED: USER    (3) Torsional Free Energy           =  +2.09 kcal/mol
DOCKED: USER    (4) Unbound System's Energy         =  -2.40 kcal/mol
DOCKED: USER
DOCKED: USER
DOCKED: REMARK SMILES O=C(Cc1ccc(-c2ccc(C(F)(F)F)nc2)cc1)/N=c1\nccc(-c2cccs2)[nH]1
DOCKED: REMARK SMILES IDX 3 1 2 2 1 3 20 4 21 5 23 6 22 7 24 8 25 9 31 10 26 12 30 13
DOCKED: REMARK SMILES IDX 27 14 29 15 28 16 4 17 5 18 19 19 6 20 18 21 7 22 8 23 17 24
DOCKED: REMARK SMILES IDX 9 25 16 26 10 27 11 28 12 29 13 30 14 31 15 32
DOCKED: REMARK H PARENT 31 11
DOCKED: USER                              x       y       z     vdW  Elec       q    Type
DOCKED: USER                           _______ _______ _______ _____ _____    ______ ____
DOCKED: ROOT
DOCKED: ATOM      1  C   UNL     1     141.067  74.223 219.494 -0.08 -0.03    +0.138 C  
DOCKED: ENDROOT
DOCKED: BRANCH   1   2
DOCKED: ATOM      2  C   UNL     1     141.464  73.969 220.916 -0.18 -0.05    +0.253 C  
DOCKED: ATOM      3  O   UNL     1     142.563  73.403 221.162 -0.17 +0.04    -0.272 OA 
DOCKED: BRANCH   2   4
DOCKED: ATOM      4  N   UNL     1     140.577  74.369 221.974 -0.75 +0.01    -0.177 NA 
DOCKED: BRANCH   4   5
DOCKED: ATOM      5  C   UNL     1     140.034  75.541 222.145 -0.17 -0.03    +0.230 A  
DOCKED: ATOM      6  C   UNL     1     138.115  76.917 222.300 -0.23 -0.02    +0.117 A  
DOCKED: ATOM      7  N   UNL     1     138.683  75.699 222.118 -0.22 +0.05    -0.221 NA 
DOCKED: ATOM      8  C   UNL     1     138.917  78.033 222.523 -0.27 -0.01    +0.048 A  
DOCKED: ATOM      9  C   UNL     1     140.309  77.870 222.557 -0.37 -0.02    +0.060 A  
DOCKED: ATOM     10  N   UNL     1     140.835  76.623 222.361 -0.23 +0.11    -0.323 N  
DOCKED: ATOM     11  H   UNL     1     141.870  76.482 222.363 -0.50 -0.12    +0.170 HD 
DOCKED: BRANCH   9  12
DOCKED: ATOM     12  C   UNL     1     141.191  79.035 222.809 -0.46 -0.02    +0.051 A  
DOCKED: ATOM     13  S   UNL     1     140.699  80.529 223.419 -0.51 +0.02    -0.142 S  
DOCKED: ATOM     14  C   UNL     1     142.571  79.092 222.612 -0.46 -0.01    +0.022 A  
DOCKED: ATOM     15  C   UNL     1     142.214  81.252 223.429 -0.56 -0.01    +0.065 A  
DOCKED: ATOM     16  C   UNL     1     143.136  80.327 222.957 -0.62 -0.00    +0.012 A  
DOCKED: ENDBRANCH   9  12
DOCKED: ENDBRANCH   4   5
DOCKED: ENDBRANCH   2   4
DOCKED: ENDBRANCH   1   2
DOCKED: BRANCH   1  17
DOCKED: ATOM     17  C   UNL     1     141.285  75.669 219.142 -0.12 +0.01    -0.039 A  
DOCKED: ATOM     18  C   UNL     1     142.579  76.211 219.146 -0.31 -0.00    +0.005 A  
DOCKED: ATOM     19  C   UNL     1     140.190  76.505 218.874 -0.07 -0.00    +0.005 A  
DOCKED: ATOM     20  C   UNL     1     142.777  77.567 218.871 -0.31 -0.01    +0.009 A  
DOCKED: ATOM     21  C   UNL     1     140.387  77.861 218.599 -0.08 -0.00    +0.009 A  
DOCKED: ATOM     22  C   UNL     1     141.684  78.408 218.596 -0.23 +0.01    -0.017 A  
DOCKED: BRANCH  22  23
DOCKED: ATOM     23  C   UNL     1     141.893  79.854 218.322 -0.28 -0.00    +0.000 A  
DOCKED: ATOM     24  C   UNL     1     142.360  80.289 217.069 -0.15 -0.13    +0.120 A  
DOCKED: ATOM     25  C   UNL     1     141.623  80.821 219.305 -0.28 -0.01    +0.012 A  
DOCKED: ATOM     26  N   UNL     1     142.540  81.614 216.826 -0.15 +0.24    -0.251 NA 
DOCKED: ATOM     27  C   UNL     1     141.816  82.176 219.030 -0.22 -0.01    +0.034 A  
DOCKED: ATOM     28  C   UNL     1     142.290  82.563 217.769 -0.21 -0.08    +0.144 A  
DOCKED: BRANCH  28  29
DOCKED: ATOM     29  C   UNL     1     142.480  84.015 217.444 -0.06 -0.18    +0.433 C  
DOCKED: ATOM     30  F   UNL     1     141.942  84.283 216.199 -0.02 +0.06    -0.165 F  
DOCKED: ATOM     31  F   UNL     1     141.846  84.797 218.392 -0.02 +0.05    -0.165 F  
DOCKED: ATOM     32  F   UNL     1     143.827  84.337 217.430 -0.13 +0.07    -0.165 F  
DOCKED: ENDBRANCH  28  29
DOCKED: ENDBRANCH  22  23
DOCKED: ENDBRANCH   1  17
DOCKED: TORSDOF 7
DOCKED: TER
DOCKED: ENDMDL
________________________________________________________________________________


    FINAL DOCKED STATE:
    ________________________


Run:   2 / 20
Time taken for this run:   0.050s

DOCKED: MODEL        2
DOCKED: USER    Run = 2
DOCKED: USER
DOCKED: USER    Estimated Free Energy of Binding    =  -6.15 kcal/mol  [=(1)+(2)+(3)-(4)]
DOCKED: USER
DOCKED: USER    (1) Final Intermolecular Energy     =  -8.24 kcal/mol
DOCKED: USER        vdW + Hbond + desolv Energy     =  -8.13 kcal/mol
DOCKED: USER        Electrostatic Energy            =  -0.12 kcal/mol
DOCKED: USER        Moving Ligand-Fixed Receptor    =  -8.24 kcal/mol
DOCKED: USER        Moving Ligand-Moving Receptor   =  +0.00 kcal/mol
DOCKED: USER    (2) Final Total Internal Energy     =  -2.69 kcal/mol
DOCKED: USER    (3) Torsional Free Energy           =  +2.09 kcal/mol
DOCKED: USER    (4) Unbound System's Energy         =  -2.69 kcal/mol
DOCKED: USER
DOCKED: USER
DOCKED: REMARK SMILES O=C(Cc1ccc(-c2ccc(C(F)(F)F)nc2)cc1)/N=c1\nccc(-c2cccs2)[nH]1
DOCKED: REMARK SMILES IDX 3 1 2 2 1 3 20 4 21 5 23 6 22 7 24 8 25 9 31 10 26 12 30 13
DOCKED: REMARK SMILES IDX 27 14 29 15 28 16 4 17 5 18 19 19 6 20 18 21 7 22 8 23 17 24
DOCKED: REMARK SMILES IDX 9 25 16 26 10 27 11 28 12 29 13 30 14 31 15 32
DOCKED: REMARK H PARENT 31 11
DOCKED: USER                              x       y       z     vdW  Elec       q    Type
DOCKED: USER                           _______ _______ _______ _____ _____    ______ ____
DOCKED: ROOT
DOCKED: ATOM      1  C   UNL     1     141.153  74.680 219.480 -0.09 -0.04    +0.138 C  
DOCKED: ENDROOT
DOCKED: BRANCH   1   2
DOCKED: ATOM      2  C   UNL     1     141.549  74.217 220.848 -0.19 -0.05    +0.253 C  
DOCKED: ATOM      3  O   UNL     1     142.619  73.567 221.000 -0.19 +0.05    -0.272 OA 
DOCKED: BRANCH   2   4
DOCKED: ATOM      4  N   UNL     1     140.694  74.515 221.965 -0.72 +0.01    -0.177 NA 
DOCKED: BRANCH   4   5
DOCKED: ATOM      5  C   UNL     1     140.116  75.652 222.231 -0.16 -0.03    +0.230 A  
DOCKED: ATOM      6  C   UNL     1     138.156  76.932 222.582 -0.25 -0.02    +0.117 A  
DOCKED: ATOM      7  N   UNL     1     138.761  75.751 222.301 -0.24 +0.05    -0.221 NA 
DOCKED: ATOM      8  C   UNL     1     138.924  78.070 222.809 -0.27 -0.01    +0.048 A  
DOCKED: ATOM      9  C   UNL     1     140.321  77.969 222.743 -0.37 -0.02    +0.060 A  
DOCKED: ATOM     10  N   UNL     1     140.884  76.758 222.449 -0.22 +0.11    -0.323 N  
DOCKED: ATOM     11  H   UNL     1     141.922  76.663 222.375 -0.49 -0.13    +0.170 HD 
DOCKED: BRANCH   9  12
DOCKED: ATOM     12  C   UNL     1     141.170  79.159 222.996 -0.48 -0.01    +0.051 A  
DOCKED: ATOM     13  S   UNL     1     140.617  80.675 223.487 -0.49 +0.02    -0.142 S  
DOCKED: ATOM     14  C   UNL     1     142.560  79.226 222.897 -0.54 -0.01    +0.022 A  
DOCKED: ATOM     15  C   UNL     1     142.120  81.420 223.569 -0.53 -0.01    +0.065 A  
DOCKED: ATOM     16  C   UNL     1     143.084  80.486 223.216 -0.65 -0.00    +0.012 A  
DOCKED: ENDBRANCH   9  12
DOCKED: ENDBRANCH   4   5
DOCKED: ENDBRANCH   2   4
DOCKED: ENDBRANCH   1   2
DOCKED: BRANCH   1  17
DOCKED: ATOM     17  C   UNL     1     141.089  76.182 219.437 -0.14 +0.01    -0.039 A  
DOCKED: ATOM     18  C   UNL     1     142.257  76.945 219.586 -0.32 -0.00    +0.005 A  
DOCKED: ATOM     19  C   UNL     1     139.852  76.834 219.317 -0.07 -0.00    +0.005 A  
DOCKED: ATOM     20  C   UNL     1     142.191  78.342 219.599 -0.24 -0.01    +0.009 A  
DOCKED: ATOM     21  C   UNL     1     139.785  78.231 219.330 -0.08 -0.00    +0.009 A  
DOCKED: ATOM     22  C   UNL     1     140.955  79.001 219.473 -0.19 +0.01    -0.017 A  
DOCKED: BRANCH  22  23
DOCKED: ATOM     23  C   UNL     1     140.883  80.485 219.506 -0.20 -0.00    +0.000 A  
DOCKED: ATOM     24  C   UNL     1     139.833  81.140 220.173 -0.10 -0.03    +0.120 A  
DOCKED: ATOM     25  C   UNL     1     141.866  81.269 218.879 -0.28 -0.01    +0.012 A  
DOCKED: ATOM     26  N   UNL     1     139.780  82.498 220.204 -0.08 +0.06    -0.251 NA 
DOCKED: ATOM     27  C   UNL     1     141.789  82.662 218.925 -0.18 -0.01    +0.034 A  
DOCKED: ATOM     28  C   UNL     1     140.720  83.272 219.594 -0.16 -0.04    +0.144 A  
DOCKED: BRANCH  28  29
DOCKED: ATOM     29  C   UNL     1     140.632  84.767 219.679 -0.05 -0.10    +0.433 C  
DOCKED: ATOM     30  F   UNL     1     141.066  85.185 220.923 -0.09 +0.03    -0.165 F  
DOCKED: ATOM     31  F   UNL     1     141.427  85.341 218.703 -0.04 +0.04    -0.165 F  
DOCKED: ATOM     32  F   UNL     1     139.326  85.188 219.494 -0.02 +0.03    -0.165 F  
DOCKED: ENDBRANCH  28  29
DOCKED: ENDBRANCH  22  23
DOCKED: ENDBRANCH   1  17
DOCKED: TORSDOF 7
DOCKED: TER
DOCKED: ENDMDL
________________________________________________________________________________


    FINAL DOCKED STATE:
    ________________________


Run:   3 / 20
Time taken for this run:   0.050s

DOCKED: MODEL        3
DOCKED: USER    Run = 3
DOCKED: USER
DOCKED: USER    Estimated Free Energy of Binding    =  -6.07 kcal/mol  [=(1)+(2)+(3)-(4)]
DOCKED: USER
DOCKED: USER    (1) Final Intermolecular Energy     =  -8.16 kcal/mol
DOCKED: USER        vdW + Hbond + desolv Energy     =  -8.14 kcal/mol
DOCKED: USER        Electrostatic Energy            =  -0.02 kcal/mol
DOCKED: USER        Moving Ligand-Fixed Receptor    =  -8.16 kcal/mol
DOCKED: USER        Moving Ligand-Moving Receptor   =  +0.00 kcal/mol
DOCKED: USER    (2) Final Total Internal Energy     =  -2.61 kcal/mol
DOCKED: USER    (3) Torsional Free Energy           =  +2.09 kcal/mol
DOCKED: USER    (4) Unbound System's Energy         =  -2.61 kcal/mol
DOCKED: USER
DOCKED: USER
DOCKED: REMARK SMILES O=C(Cc1ccc(-c2ccc(C(F)(F)F)nc2)cc1)/N=c1\nccc(-c2cccs2)[nH]1
DOCKED: REMARK SMILES IDX 3 1 2 2 1 3 20 4 21 5 23 6 22 7 24 8 25 9 31 10 26 12 30 13
DOCKED: REMARK SMILES IDX 27 14 29 15 28 16 4 17 5 18 19 19 6 20 18 21 7 22 8 23 17 24
DOCKED: REMARK SMILES IDX 9 25 16 26 10 27 11 28 12 29 13 30 14 31 15 32
DOCKED: REMARK H PARENT 31 11
DOCKED: USER                              x       y       z     vdW  Elec       q    Type
DOCKED: USER                           _______ _______ _______ _____ _____    ______ ____
DOCKED: ROOT
DOCKED: ATOM      1  C   UNL     1     141.304  74.481 220.041 -0.15 -0.04    +0.138 C  
DOCKED: ENDROOT
DOCKED: BRANCH   1   2
DOCKED: ATOM      2  C   UNL     1     142.674  74.985 219.707 -0.19 -0.10    +0.253 C  
DOCKED: ATOM      3  O   UNL     1     143.683  74.432 220.224 -0.28 +0.10    -0.272 OA 
DOCKED: BRANCH   2   4
DOCKED: ATOM      4  N   UNL     1     142.812  76.100 218.810 -0.20 +0.09    -0.177 NA 
DOCKED: BRANCH   4   5
DOCKED: ATOM      5  C   UNL     1     142.275  77.280 218.933 -0.20 -0.14    +0.230 A  
DOCKED: ATOM      6  C   UNL     1     141.024  79.077 218.033 -0.11 -0.06    +0.117 A  
DOCKED: ATOM      7  N   UNL     1     141.589  77.850 217.907 -0.09 +0.12    -0.221 NA 
DOCKED: ATOM      8  C   UNL     1     141.139  79.775 219.232 -0.20 -0.02    +0.048 A  
DOCKED: ATOM      9  C   UNL     1     141.841  79.186 220.293 -0.26 -0.03    +0.060 A  
DOCKED: ATOM     10  N   UNL     1     142.398  77.950 220.115 +0.02 +0.25    -0.323 N  
DOCKED: ATOM     11  H   UNL     1     142.942  77.501 220.886 -0.44 -0.19    +0.170 HD 
DOCKED: BRANCH   9  12
DOCKED: ATOM     12  C   UNL     1     141.967  79.896 221.590 -0.41 -0.02    +0.051 A  
DOCKED: ATOM     13  S   UNL     1     141.292  81.397 221.960 -0.44 +0.03    -0.142 S  
DOCKED: ATOM     14  C   UNL     1     142.638  79.441 222.726 -0.58 -0.01    +0.022 A  
DOCKED: ATOM     15  C   UNL     1     141.847  81.482 223.543 -0.51 -0.01    +0.065 A  
DOCKED: ATOM     16  C   UNL     1     142.569  80.327 223.809 -0.66 -0.00    +0.012 A  
DOCKED: ENDBRANCH   9  12
DOCKED: ENDBRANCH   4   5
DOCKED: ENDBRANCH   2   4
DOCKED: ENDBRANCH   1   2
DOCKED: BRANCH   1  17
DOCKED: ATOM     17  C   UNL     1     140.547  75.514 220.830 -0.24 +0.01    -0.039 A  
DOCKED: ATOM     18  C   UNL     1     139.325  76.013 220.354 -0.11 -0.00    +0.005 A  
DOCKED: ATOM     19  C   UNL     1     141.089  76.036 222.015 -0.35 -0.00    +0.005 A  
DOCKED: ATOM     20  C   UNL     1     138.647  77.012 221.060 -0.14 -0.00    +0.009 A  
DOCKED: ATOM     21  C   UNL     1     140.411  77.035 222.721 -0.34 -0.00    +0.009 A  
DOCKED: ATOM     22  C   UNL     1     139.183  77.535 222.250 -0.30 +0.00    -0.017 A  
DOCKED: BRANCH  22  23
DOCKED: ATOM     23  C   UNL     1     138.471  78.609 222.991 -0.28 -0.00    +0.000 A  
DOCKED: ATOM     24  C   UNL     1     137.075  78.747 222.896 -0.15 -0.02    +0.120 A  
DOCKED: ATOM     25  C   UNL     1     139.175  79.508 223.811 -0.40 -0.00    +0.012 A  
DOCKED: ATOM     26  N   UNL     1     136.433  79.727 223.583 -0.11 +0.03    -0.251 NA 
DOCKED: ATOM     27  C   UNL     1     138.491  80.507 224.506 -0.35 -0.00    +0.034 A  
DOCKED: ATOM     28  C   UNL     1     137.100  80.611 224.375 -0.25 -0.02    +0.144 A  
DOCKED: BRANCH  28  29
DOCKED: ATOM     29  C   UNL     1     136.343  81.660 225.134 -0.14 -0.05    +0.433 C  
DOCKED: ATOM     30  F   UNL     1     135.036  81.248 225.311 -0.05 +0.02    -0.165 F  
DOCKED: ATOM     31  F   UNL     1     136.928  81.860 226.372 -0.18 +0.02    -0.165 F  
DOCKED: ATOM     32  F   UNL     1     136.347  82.859 224.442 -0.05 +0.01    -0.165 F  
DOCKED: ENDBRANCH  28  29
DOCKED: ENDBRANCH  22  23
DOCKED: ENDBRANCH   1  17
DOCKED: TORSDOF 7
DOCKED: TER
DOCKED: ENDMDL
________________________________________________________________________________


    FINAL DOCKED STATE:
    ________________________


Run:   4 / 20
Time taken for this run:   0.050s

DOCKED: MODEL        4
DOCKED: USER    Run = 4
DOCKED: USER
DOCKED: USER    Estimated Free Energy of Binding    =  -6.63 kcal/mol  [=(1)+(2)+(3)-(4)]
DOCKED: USER
DOCKED: USER    (1) Final Intermolecular Energy     =  -8.72 kcal/mol
DOCKED: USER        vdW + Hbond + desolv Energy     =  -8.56 kcal/mol
DOCKED: USER        Electrostatic Energy            =  -0.16 kcal/mol
DOCKED: USER        Moving Ligand-Fixed Receptor    =  -8.72 kcal/mol
DOCKED: USER        Moving Ligand-Moving Receptor   =  +0.00 kcal/mol
DOCKED: USER    (2) Final Total Internal Energy     =  -2.21 kcal/mol
DOCKED: USER    (3) Torsional Free Energy           =  +2.09 kcal/mol
DOCKED: USER    (4) Unbound System's Energy         =  -2.21 kcal/mol
DOCKED: USER
DOCKED: USER
DOCKED: REMARK SMILES O=C(Cc1ccc(-c2ccc(C(F)(F)F)nc2)cc1)/N=c1\nccc(-c2cccs2)[nH]1
DOCKED: REMARK SMILES IDX 3 1 2 2 1 3 20 4 21 5 23 6 22 7 24 8 25 9 31 10 26 12 30 13
DOCKED: REMARK SMILES IDX 27 14 29 15 28 16 4 17 5 18 19 19 6 20 18 21 7 22 8 23 17 24
DOCKED: REMARK SMILES IDX 9 25 16 26 10 27 11 28 12 29 13 30 14 31 15 32
DOCKED: REMARK H PARENT 31 11
DOCKED: USER                              x       y       z     vdW  Elec       q    Type
DOCKED: USER                           _______ _______ _______ _____ _____    ______ ____
DOCKED: ROOT
DOCKED: ATOM      1  C   UNL     1     141.281  74.551 219.487 -0.10 -0.04    +0.138 C  
DOCKED: ENDROOT
DOCKED: BRANCH   1   2
DOCKED: ATOM      2  C   UNL     1     141.627  74.221 220.906 -0.18 -0.05    +0.253 C  
DOCKED: ATOM      3  O   UNL     1     142.740  73.690 221.167 -0.14 +0.05    -0.272 OA 
DOCKED: BRANCH   2   4
DOCKED: ATOM      4  N   UNL     1     140.675  74.507 221.944 -0.72 +0.01    -0.177 NA 
DOCKED: BRANCH   4   5
DOCKED: ATOM      5  C   UNL     1     140.100  75.650 222.191 -0.18 -0.04    +0.230 A  
DOCKED: ATOM      6  C   UNL     1     138.144  76.942 222.515 -0.25 -0.02    +0.117 A  
DOCKED: ATOM      7  N   UNL     1     138.746  75.755 222.255 -0.24 +0.05    -0.221 NA 
DOCKED: ATOM      8  C   UNL     1     138.915  78.081 222.727 -0.29 -0.01    +0.048 A  
DOCKED: ATOM      9  C   UNL     1     140.312  77.973 222.668 -0.37 -0.02    +0.060 A  
DOCKED: ATOM     10  N   UNL     1     140.872  76.756 222.395 -0.23 +0.11    -0.323 N  
DOCKED: ATOM     11  H   UNL     1     141.909  76.657 222.326 -0.49 -0.13    +0.170 HD 
DOCKED: BRANCH   9  12
DOCKED: ATOM     12  C   UNL     1     141.163  79.165 222.905 -0.47 -0.02    +0.051 A  
DOCKED: ATOM     13  S   UNL     1     140.623  80.668 223.445 -0.49 +0.02    -0.142 S  
DOCKED: ATOM     14  C   UNL     1     142.547  79.242 222.749 -0.54 -0.01    +0.022 A  
DOCKED: ATOM     15  C   UNL     1     142.123  81.422 223.477 -0.52 -0.01    +0.065 A  
DOCKED: ATOM     16  C   UNL     1     143.077  80.500 223.068 -0.63 -0.00    +0.012 A  
DOCKED: ENDBRANCH   9  12
DOCKED: ENDBRANCH   4   5
DOCKED: ENDBRANCH   2   4
DOCKED: ENDBRANCH   1   2
DOCKED: BRANCH   1  17
DOCKED: ATOM     17  C   UNL     1     141.467  76.022 219.233 -0.15 +0.02    -0.039 A  
DOCKED: ATOM     18  C   UNL     1     140.366  76.890 219.267 -0.10 -0.00    +0.005 A  
DOCKED: ATOM     19  C   UNL     1     142.731  76.527 218.893 -0.32 -0.00    +0.005 A  
DOCKED: ATOM     20  C   UNL     1     140.529  78.249 218.979 -0.11 -0.00    +0.009 A  
DOCKED: ATOM     21  C   UNL     1     142.896  77.885 218.604 -0.29 -0.01    +0.009 A  
DOCKED: ATOM     22  C   UNL     1     141.795  78.761 218.643 -0.25 +0.01    -0.017 A  
DOCKED: BRANCH  22  23
DOCKED: ATOM     23  C   UNL     1     141.965  80.202 218.319 -0.30 -0.00    +0.000 A  
DOCKED: ATOM     24  C   UNL     1     141.563  81.197 219.227 -0.23 -0.05    +0.120 A  
DOCKED: ATOM     25  C   UNL     1     142.539  80.604 217.101 -0.19 -0.01    +0.012 A  
DOCKED: ATOM     26  N   UNL     1     141.730  82.511 218.924 -0.13 +0.09    -0.251 NA 
DOCKED: ATOM     27  C   UNL     1     142.700  81.961 216.814 -0.27 -0.03    +0.034 A  
DOCKED: ATOM     28  C   UNL     1     142.277  82.918 217.746 -0.19 -0.07    +0.144 A  
DOCKED: BRANCH  28  29
DOCKED: ATOM     29  C   UNL     1     142.465  84.380 217.469 -0.05 -0.16    +0.433 C  
DOCKED: ATOM     30  F   UNL     1     141.933  84.687 216.231 -0.02 +0.06    -0.165 F  
DOCKED: ATOM     31  F   UNL     1     141.822  85.129 218.439 -0.03 +0.05    -0.165 F  
DOCKED: ATOM     32  F   UNL     1     143.810  84.707 217.475 -0.12 +0.06    -0.165 F  
DOCKED: ENDBRANCH  28  29
DOCKED: ENDBRANCH  22  23
DOCKED: ENDBRANCH   1  17
DOCKED: TORSDOF 7
DOCKED: TER
DOCKED: ENDMDL
________________________________________________________________________________


    FINAL DOCKED STATE:
    ________________________


Run:   5 / 20
Time taken for this run:   0.050s

DOCKED: MODEL        5
DOCKED: USER    Run = 5
DOCKED: USER
DOCKED: USER    Estimated Free Energy of Binding    =  -7.25 kcal/mol  [=(1)+(2)+(3)-(4)]
DOCKED: USER
DOCKED: USER    (1) Final Intermolecular Energy     =  -9.33 kcal/mol
DOCKED: USER        vdW + Hbond + desolv Energy     =  -9.23 kcal/mol
DOCKED: USER        Electrostatic Energy            =  -0.10 kcal/mol
DOCKED: USER        Moving Ligand-Fixed Receptor    =  -9.33 kcal/mol
DOCKED: USER        Moving Ligand-Moving Receptor   =  +0.00 kcal/mol
DOCKED: USER    (2) Final Total Internal Energy     =  -1.58 kcal/mol
DOCKED: USER    (3) Torsional Free Energy           =  +2.09 kcal/mol
DOCKED: USER    (4) Unbound System's Energy         =  -1.58 kcal/mol
DOCKED: USER
DOCKED: USER
DOCKED: REMARK SMILES O=C(Cc1ccc(-c2ccc(C(F)(F)F)nc2)cc1)/N=c1\nccc(-c2cccs2)[nH]1
DOCKED: REMARK SMILES IDX 3 1 2 2 1 3 20 4 21 5 23 6 22 7 24 8 25 9 31 10 26 12 30 13
DOCKED: REMARK SMILES IDX 27 14 29 15 28 16 4 17 5 18 19 19 6 20 18 21 7 22 8 23 17 24
DOCKED: REMARK SMILES IDX 9 25 16 26 10 27 11 28 12 29 13 30 14 31 15 32
DOCKED: REMARK H PARENT 31 11
DOCKED: USER                              x       y       z     vdW  Elec       q    Type
DOCKED: USER                           _______ _______ _______ _____ _____    ______ ____
DOCKED: ROOT
DOCKED: ATOM      1  C   UNL     1     138.830  74.117 220.918 -0.12 -0.03    +0.138 C  
DOCKED: ENDROOT
DOCKED: BRANCH   1   2
DOCKED: ATOM      2  C   UNL     1     139.941  73.380 221.600 -0.19 -0.04    +0.253 C  
DOCKED: ATOM      3  O   UNL     1     140.783  74.020 222.286 -0.69 -0.03    -0.272 OA 
DOCKED: BRANCH   2   4
DOCKED: ATOM      4  N   UNL     1     140.031  71.953 221.451 -0.13 +0.03    -0.177 NA 
DOCKED: BRANCH   4   5
DOCKED: ATOM      5  C   UNL     1     139.733  71.049 222.340 -0.16 -0.04    +0.230 A  
DOCKED: ATOM      6  C   UNL     1     138.794  68.952 222.908 -0.19 -0.02    +0.117 A  
DOCKED: ATOM      7  N   UNL     1     139.103  69.897 221.985 -0.09 +0.04    -0.221 NA 
DOCKED: ATOM      8  C   UNL     1     139.127  69.150 224.244 -0.31 -0.01    +0.048 A  
DOCKED: ATOM      9  C   UNL     1     139.783  70.334 224.611 -0.37 -0.01    +0.060 A  
DOCKED: ATOM     10  N   UNL     1     140.066  71.260 223.646 -0.20 +0.05    -0.323 N  
DOCKED: ATOM     11  H   UNL     1     140.536  72.158 223.899 +0.04 -0.02    +0.170 HD 
DOCKED: BRANCH   9  12
DOCKED: ATOM     12  C   UNL     1     140.167  70.568 226.024 -0.50 -0.01    +0.051 A  
DOCKED: ATOM     13  S   UNL     1     141.054  71.883 226.598 -0.76 +0.02    -0.142 S  
DOCKED: ATOM     14  C   UNL     1     139.844  69.765 227.118 -0.54 -0.00    +0.022 A  
DOCKED: ATOM     15  C   UNL     1     141.041  71.442 228.219 -0.70 -0.01    +0.065 A  
DOCKED: ATOM     16  C   UNL     1     140.333  70.254 228.337 -0.58 -0.00    +0.012 A  
DOCKED: ENDBRANCH   9  12
DOCKED: ENDBRANCH   4   5
DOCKED: ENDBRANCH   2   4
DOCKED: ENDBRANCH   1   2
DOCKED: BRANCH   1  17
DOCKED: ATOM     17  C   UNL     1     137.733  74.429 221.898 -0.17 +0.01    -0.039 A  
DOCKED: ATOM     18  C   UNL     1     137.609  75.720 222.435 -0.25 -0.00    +0.005 A  
DOCKED: ATOM     19  C   UNL     1     136.866  73.416 222.335 -0.15 -0.00    +0.005 A  
DOCKED: ATOM     20  C   UNL     1     136.623  75.997 223.386 -0.26 -0.00    +0.009 A  
DOCKED: ATOM     21  C   UNL     1     135.879  73.693 223.287 -0.18 -0.00    +0.009 A  
DOCKED: ATOM     22  C   UNL     1     135.748  74.987 223.824 -0.27 +0.00    -0.017 A  
DOCKED: BRANCH  22  23
DOCKED: ATOM     23  C   UNL     1     134.711  75.277 224.849 -0.33 -0.00    +0.000 A  
DOCKED: ATOM     24  C   UNL     1     134.352  74.310 225.804 -0.29 +0.00    +0.120 A  
DOCKED: ATOM     25  C   UNL     1     134.070  76.527 224.892 -0.22 -0.00    +0.012 A  
DOCKED: ATOM     26  N   UNL     1     133.408  74.588 226.742 -0.75 -0.03    -0.251 NA 
DOCKED: ATOM     27  C   UNL     1     133.104  76.787 225.866 -0.23 -0.00    +0.034 A  
DOCKED: ATOM     28  C   UNL     1     132.772  75.791 226.793 -0.29 -0.00    +0.144 A  
DOCKED: BRANCH  28  29
DOCKED: ATOM     29  C   UNL     1     131.756  76.058 227.864 -0.11 +0.01    +0.433 C  
DOCKED: ATOM     30  F   UNL     1     130.517  76.254 227.285 -0.06 +0.00    -0.165 F  
DOCKED: ATOM     31  F   UNL     1     131.690  74.982 228.730 -0.07 +0.01    -0.165 F  
DOCKED: ATOM     32  F   UNL     1     132.099  77.189 228.586 -0.10 -0.03    -0.165 F  
DOCKED: ENDBRANCH  28  29
DOCKED: ENDBRANCH  22  23
DOCKED: ENDBRANCH   1  17
DOCKED: TORSDOF 7
DOCKED: TER
DOCKED: ENDMDL
________________________________________________________________________________


    FINAL DOCKED STATE:
    ________________________


Run:   6 / 20
Time taken for this run:   0.050s

DOCKED: MODEL        6
DOCKED: USER    Run = 6
DOCKED: USER
DOCKED: USER    Estimated Free Energy of Binding    =  -6.08 kcal/mol  [=(1)+(2)+(3)-(4)]
DOCKED: USER
DOCKED: USER    (1) Final Intermolecular Energy     =  -8.17 kcal/mol
DOCKED: USER        vdW + Hbond + desolv Energy     =  -8.20 kcal/mol
DOCKED: USER        Electrostatic Energy            =  +0.03 kcal/mol
DOCKED: USER        Moving Ligand-Fixed Receptor    =  -8.17 kcal/mol
DOCKED: USER        Moving Ligand-Moving Receptor   =  +0.00 kcal/mol
DOCKED: USER    (2) Final Total Internal Energy     =  -2.62 kcal/mol
DOCKED: USER    (3) Torsional Free Energy           =  +2.09 kcal/mol
DOCKED: USER    (4) Unbound System's Energy         =  -2.62 kcal/mol
DOCKED: USER
DOCKED: USER
DOCKED: REMARK SMILES O=C(Cc1ccc(-c2ccc(C(F)(F)F)nc2)cc1)/N=c1\nccc(-c2cccs2)[nH]1
DOCKED: REMARK SMILES IDX 3 1 2 2 1 3 20 4 21 5 23 6 22 7 24 8 25 9 31 10 26 12 30 13
DOCKED: REMARK SMILES IDX 27 14 29 15 28 16 4 17 5 18 19 19 6 20 18 21 7 22 8 23 17 24
DOCKED: REMARK SMILES IDX 9 25 16 26 10 27 11 28 12 29 13 30 14 31 15 32
DOCKED: REMARK H PARENT 31 11
DOCKED: USER                              x       y       z     vdW  Elec       q    Type
DOCKED: USER                           _______ _______ _______ _____ _____    ______ ____
DOCKED: ROOT
DOCKED: ATOM      1  C   UNL     1     141.415  75.282 219.775 -0.15 -0.05    +0.138 C  
DOCKED: ENDROOT
DOCKED: BRANCH   1   2
DOCKED: ATOM      2  C   UNL     1     142.587  76.006 219.188 -0.20 -0.13    +0.253 C  
DOCKED: ATOM      3  O   UNL     1     143.756  75.627 219.470 -0.30 +0.16    -0.272 OA 
DOCKED: BRANCH   2   4
DOCKED: ATOM      4  N   UNL     1     142.356  77.130 218.322 -0.18 +0.10    -0.177 NA 
DOCKED: BRANCH   4   5
DOCKED: ATOM      5  C   UNL     1     141.971  78.325 218.669 -0.18 -0.15    +0.230 A  
DOCKED: ATOM      6  C   UNL     1     140.922  80.382 218.149 -0.12 -0.06    +0.117 A  
DOCKED: ATOM      7  N   UNL     1     141.328  79.139 217.790 -0.09 +0.13    -0.221 NA 
DOCKED: ATOM      8  C   UNL     1     141.157  80.844 219.441 -0.22 -0.02    +0.048 A  
DOCKED: ATOM      9  C   UNL     1     141.814  80.004 220.351 -0.30 -0.03    +0.060 A  
DOCKED: ATOM     10  N   UNL     1     142.211  78.762 219.939 -0.03 +0.23    -0.323 N  
DOCKED: ATOM     11  H   UNL     1     142.720  78.127 220.595 -0.34 -0.17    +0.170 HD 
DOCKED: BRANCH   9  12
DOCKED: ATOM     12  C   UNL     1     142.066  80.459 221.740 -0.43 -0.02    +0.051 A  
DOCKED: ATOM     13  S   UNL     1     141.367  81.806 222.476 -0.43 +0.02    -0.142 S  
DOCKED: ATOM     14  C   UNL     1     142.897  79.847 222.679 -0.59 -0.01    +0.022 A  
DOCKED: ATOM     15  C   UNL     1     142.111  81.628 223.971 -0.51 -0.01    +0.065 A  
DOCKED: ATOM     16  C   UNL     1     142.919  80.501 223.918 -0.66 -0.00    +0.012 A  
DOCKED: ENDBRANCH   9  12
DOCKED: ENDBRANCH   4   5
DOCKED: ENDBRANCH   2   4
DOCKED: ENDBRANCH   1   2
DOCKED: BRANCH   1  17
DOCKED: ATOM     17  C   UNL     1     140.608  76.212 220.640 -0.22 +0.01    -0.039 A  
DOCKED: ATOM     18  C   UNL     1     139.421  76.780 220.153 -0.10 -0.00    +0.005 A  
DOCKED: ATOM     19  C   UNL     1     141.071  76.571 221.915 -0.37 -0.00    +0.005 A  
DOCKED: ATOM     20  C   UNL     1     138.699  77.686 220.937 -0.12 -0.00    +0.009 A  
DOCKED: ATOM     21  C   UNL     1     140.349  77.477 222.699 -0.38 -0.00    +0.009 A  
DOCKED: ATOM     22  C   UNL     1     139.155  78.046 222.218 -0.27 +0.00    -0.017 A  
DOCKED: BRANCH  22  23
DOCKED: ATOM     23  C   UNL     1     138.398  79.022 223.043 -0.29 -0.00    +0.000 A  
DOCKED: ATOM     24  C   UNL     1     136.991  79.024 223.046 -0.16 -0.02    +0.120 A  
DOCKED: ATOM     25  C   UNL     1     139.067  79.961 223.846 -0.42 -0.00    +0.012 A  
DOCKED: ATOM     26  N   UNL     1     136.307  79.916 223.810 -0.12 +0.03    -0.251 NA 
DOCKED: ATOM     27  C   UNL     1     138.341  80.866 224.622 -0.35 -0.00    +0.034 A  
DOCKED: ATOM     28  C   UNL     1     136.941  80.837 224.588 -0.27 -0.02    +0.144 A  
DOCKED: BRANCH  28  29
DOCKED: ATOM     29  C   UNL     1     136.141  81.783 225.434 -0.14 -0.05    +0.433 C  
DOCKED: ATOM     30  F   UNL     1     136.831  82.053 226.601 -0.18 +0.02    -0.165 F  
DOCKED: ATOM     31  F   UNL     1     135.929  82.965 224.747 -0.04 +0.01    -0.165 F  
DOCKED: ATOM     32  F   UNL     1     134.914  81.229 225.755 -0.06 +0.02    -0.165 F  
DOCKED: ENDBRANCH  28  29
DOCKED: ENDBRANCH  22  23
DOCKED: ENDBRANCH   1  17
DOCKED: TORSDOF 7
DOCKED: TER
DOCKED: ENDMDL
________________________________________________________________________________


    FINAL DOCKED STATE:
    ________________________


Run:   7 / 20
Time taken for this run:   0.050s

DOCKED: MODEL        7
DOCKED: USER    Run = 7
DOCKED: USER
DOCKED: USER    Estimated Free Energy of Binding    =  -6.52 kcal/mol  [=(1)+(2)+(3)-(4)]
DOCKED: USER
DOCKED: USER    (1) Final Intermolecular Energy     =  -8.61 kcal/mol
DOCKED: USER        vdW + Hbond + desolv Energy     =  -8.46 kcal/mol
DOCKED: USER        Electrostatic Energy            =  -0.15 kcal/mol
DOCKED: USER        Moving Ligand-Fixed Receptor    =  -8.61 kcal/mol
DOCKED: USER        Moving Ligand-Moving Receptor   =  +0.00 kcal/mol
DOCKED: USER    (2) Final Total Internal Energy     =  -2.46 kcal/mol
DOCKED: USER    (3) Torsional Free Energy           =  +2.09 kcal/mol
DOCKED: USER    (4) Unbound System's Energy         =  -2.46 kcal/mol
DOCKED: USER
DOCKED: USER
DOCKED: REMARK SMILES O=C(Cc1ccc(-c2ccc(C(F)(F)F)nc2)cc1)/N=c1\nccc(-c2cccs2)[nH]1
DOCKED: REMARK SMILES IDX 3 1 2 2 1 3 20 4 21 5 23 6 22 7 24 8 25 9 31 10 26 12 30 13
DOCKED: REMARK SMILES IDX 27 14 29 15 28 16 4 17 5 18 19 19 6 20 18 21 7 22 8 23 17 24
DOCKED: REMARK SMILES IDX 9 25 16 26 10 27 11 28 12 29 13 30 14 31 15 32
DOCKED: REMARK H PARENT 31 11
DOCKED: USER                              x       y       z     vdW  Elec       q    Type
DOCKED: USER                           _______ _______ _______ _____ _____    ______ ____
DOCKED: ROOT
DOCKED: ATOM      1  C   UNL     1     141.538  73.539 220.208 -0.15 -0.03    +0.138 C  
DOCKED: ENDROOT
DOCKED: BRANCH   1   2
DOCKED: ATOM      2  C   UNL     1     140.462  73.401 221.240 -0.18 -0.04    +0.253 C  
DOCKED: ATOM      3  O   UNL     1     139.603  72.485 221.124 -0.09 +0.05    -0.272 OA 
DOCKED: BRANCH   2   4
DOCKED: ATOM      4  N   UNL     1     140.424  74.323 222.342 -0.69 -0.01    -0.177 NA 
DOCKED: BRANCH   4   5
DOCKED: ATOM      5  C   UNL     1     139.931  75.529 222.341 -0.12 -0.03    +0.230 A  
DOCKED: ATOM      6  C   UNL     1     138.091  77.001 222.117 -0.21 -0.02    +0.117 A  
DOCKED: ATOM      7  N   UNL     1     138.608  75.747 222.115 -0.21 +0.05    -0.221 NA 
DOCKED: ATOM      8  C   UNL     1     138.918  78.094 222.358 -0.26 -0.01    +0.048 A  
DOCKED: ATOM      9  C   UNL     1     140.281  77.871 222.598 -0.36 -0.02    +0.060 A  
DOCKED: ATOM     10  N   UNL     1     140.757  76.589 222.578 -0.20 +0.09    -0.323 N  
DOCKED: ATOM     11  H   UNL     1     141.773  76.401 222.734 -0.45 -0.10    +0.170 HD 
DOCKED: BRANCH   9  12
DOCKED: ATOM     12  C   UNL     1     141.187  79.012 222.875 -0.47 -0.02    +0.051 A  
DOCKED: ATOM     13  S   UNL     1     140.716  80.524 223.457 -0.51 +0.02    -0.142 S  
DOCKED: ATOM     14  C   UNL     1     142.575  79.028 222.727 -0.46 -0.01    +0.022 A  
DOCKED: ATOM     15  C   UNL     1     142.251  81.203 223.518 -0.56 -0.01    +0.065 A  
DOCKED: ATOM     16  C   UNL     1     143.162  80.249 223.086 -0.64 -0.00    +0.012 A  
DOCKED: ENDBRANCH   9  12
DOCKED: ENDBRANCH   4   5
DOCKED: ENDBRANCH   2   4
DOCKED: ENDBRANCH   1   2
DOCKED: BRANCH   1  17
DOCKED: ATOM     17  C   UNL     1     141.668  74.976 219.780 -0.19 +0.01    -0.039 A  
DOCKED: ATOM     18  C   UNL     1     142.848  75.688 220.044 -0.34 -0.00    +0.005 A  
DOCKED: ATOM     19  C   UNL     1     140.586  75.635 219.177 -0.09 -0.00    +0.005 A  
DOCKED: ATOM     20  C   UNL     1     142.950  77.038 219.695 -0.30 -0.01    +0.009 A  
DOCKED: ATOM     21  C   UNL     1     140.687  76.985 218.828 -0.10 -0.00    +0.009 A  
DOCKED: ATOM     22  C   UNL     1     141.871  77.703 219.085 -0.26 +0.01    -0.017 A  
DOCKED: BRANCH  22  23
DOCKED: ATOM     23  C   UNL     1     141.973  79.142 218.730 -0.29 -0.00    +0.000 A  
DOCKED: ATOM     24  C   UNL     1     141.581  80.138 219.643 -0.24 -0.06    +0.120 A  
DOCKED: ATOM     25  C   UNL     1     142.470  79.544 217.479 -0.27 -0.01    +0.012 A  
DOCKED: ATOM     26  N   UNL     1     141.685  81.452 219.312 -0.16 +0.10    -0.251 NA 
DOCKED: ATOM     27  C   UNL     1     142.567  80.900 217.164 -0.24 -0.04    +0.034 A  
DOCKED: ATOM     28  C   UNL     1     142.157  81.858 218.101 -0.23 -0.08    +0.144 A  
DOCKED: BRANCH  28  29
DOCKED: ATOM     29  C   UNL     1     142.278  83.321 217.794 -0.06 -0.19    +0.433 C  
DOCKED: ATOM     30  F   UNL     1     141.775  83.570 216.531 -0.02 +0.07    -0.165 F  
DOCKED: ATOM     31  F   UNL     1     141.563  84.058 218.721 -0.03 +0.05    -0.165 F  
DOCKED: ATOM     32  F   UNL     1     143.603  83.718 217.837 -0.08 +0.08    -0.165 F  
DOCKED: ENDBRANCH  28  29
DOCKED: ENDBRANCH  22  23
DOCKED: ENDBRANCH   1  17
DOCKED: TORSDOF 7
DOCKED: TER
DOCKED: ENDMDL
________________________________________________________________________________


    FINAL DOCKED STATE:
    ________________________


Run:   8 / 20
Time taken for this run:   0.050s

DOCKED: MODEL        8
DOCKED: USER    Run = 8
DOCKED: USER
DOCKED: USER    Estimated Free Energy of Binding    =  -7.24 kcal/mol  [=(1)+(2)+(3)-(4)]
DOCKED: USER
DOCKED: USER    (1) Final Intermolecular Energy     =  -9.33 kcal/mol
DOCKED: USER        vdW + Hbond + desolv Energy     =  -9.27 kcal/mol
DOCKED: USER        Electrostatic Energy            =  -0.06 kcal/mol
DOCKED: USER        Moving Ligand-Fixed Receptor    =  -9.33 kcal/mol
DOCKED: USER        Moving Ligand-Moving Receptor   =  +0.00 kcal/mol
DOCKED: USER    (2) Final Total Internal Energy     =  -1.71 kcal/mol
DOCKED: USER    (3) Torsional Free Energy           =  +2.09 kcal/mol
DOCKED: USER    (4) Unbound System's Energy         =  -1.71 kcal/mol
DOCKED: USER
DOCKED: USER
DOCKED: REMARK SMILES O=C(Cc1ccc(-c2ccc(C(F)(F)F)nc2)cc1)/N=c1\nccc(-c2cccs2)[nH]1
DOCKED: REMARK SMILES IDX 3 1 2 2 1 3 20 4 21 5 23 6 22 7 24 8 25 9 31 10 26 12 30 13
DOCKED: REMARK SMILES IDX 27 14 29 15 28 16 4 17 5 18 19 19 6 20 18 21 7 22 8 23 17 24
DOCKED: REMARK SMILES IDX 9 25 16 26 10 27 11 28 12 29 13 30 14 31 15 32
DOCKED: REMARK H PARENT 31 11
DOCKED: USER                              x       y       z     vdW  Elec       q    Type
DOCKED: USER                           _______ _______ _______ _____ _____    ______ ____
DOCKED: ROOT
DOCKED: ATOM      1  C   UNL     1     135.938  73.348 222.036 -0.08 -0.03    +0.138 C  
DOCKED: ENDROOT
DOCKED: BRANCH   1   2
DOCKED: ATOM      2  C   UNL     1     136.225  72.332 223.098 -0.11 -0.06    +0.253 C  
DOCKED: ATOM      3  O   UNL     1     136.088  72.644 224.311 -0.15 +0.07    -0.272 OA 
DOCKED: BRANCH   2   4
DOCKED: ATOM      4  N   UNL     1     136.664  71.019 222.711 -0.07 +0.03    -0.177 NA 
DOCKED: BRANCH   4   5
DOCKED: ATOM      5  C   UNL     1     137.542  70.272 223.318 -0.13 -0.04    +0.230 A  
DOCKED: ATOM      6  C   UNL     1     138.689  68.214 223.544 -0.24 -0.01    +0.117 A  
DOCKED: ATOM      7  N   UNL     1     137.773  68.993 222.917 -0.10 +0.03    -0.221 NA 
DOCKED: ATOM      8  C   UNL     1     139.416  68.722 224.616 -0.31 -0.01    +0.048 A  
DOCKED: ATOM      9  C   UNL     1     139.184  70.043 225.027 -0.36 -0.01    +0.060 A  
DOCKED: ATOM     10  N   UNL     1     138.245  70.786 224.368 -0.12 +0.07    -0.323 N  
DOCKED: ATOM     11  H   UNL     1     138.041  71.766 224.669 -0.24 -0.06    +0.170 HD 
DOCKED: BRANCH   9  12
DOCKED: ATOM     12  C   UNL     1     139.954  70.621 226.156 -0.48 -0.01    +0.051 A  
DOCKED: ATOM     13  S   UNL     1     141.071  71.879 226.043 -0.60 +0.02    -0.142 S  
DOCKED: ATOM     14  C   UNL     1     139.873  70.245 227.497 -0.55 -0.00    +0.022 A  
DOCKED: ATOM     15  C   UNL     1     141.460  71.950 227.675 -0.70 -0.01    +0.065 A  
DOCKED: ATOM     16  C   UNL     1     140.713  70.986 228.338 -0.64 -0.00    +0.012 A  
DOCKED: ENDBRANCH   9  12
DOCKED: ENDBRANCH   4   5
DOCKED: ENDBRANCH   2   4
DOCKED: ENDBRANCH   1   2
DOCKED: BRANCH   1  17
DOCKED: ATOM     17  C   UNL     1     136.887  74.510 222.156 -0.16 +0.01    -0.039 A  
DOCKED: ATOM     18  C   UNL     1     138.257  74.332 221.912 -0.19 -0.00    +0.005 A  
DOCKED: ATOM     19  C   UNL     1     136.421  75.763 222.581 -0.21 -0.00    +0.005 A  
DOCKED: ATOM     20  C   UNL     1     139.147  75.398 222.075 -0.30 -0.00    +0.009 A  
DOCKED: ATOM     21  C   UNL     1     137.310  76.830 222.745 -0.26 -0.00    +0.009 A  
DOCKED: ATOM     22  C   UNL     1     138.685  76.658 222.495 -0.30 +0.00    -0.017 A  
DOCKED: BRANCH  22  23
DOCKED: ATOM     23  C   UNL     1     139.633  77.786 222.686 -0.33 -0.00    +0.000 A  
DOCKED: ATOM     24  C   UNL     1     139.186  79.029 223.167 -0.29 -0.02    +0.120 A  
DOCKED: ATOM     25  C   UNL     1     141.001  77.635 222.400 -0.44 -0.00    +0.012 A  
DOCKED: ATOM     26  N   UNL     1     140.063  80.052 223.346 -0.24 +0.04    -0.251 NA 
DOCKED: ATOM     27  C   UNL     1     141.881  78.701 222.592 -0.45 -0.02    +0.034 A  
DOCKED: ATOM     28  C   UNL     1     141.389  79.925 223.066 -0.43 -0.04    +0.144 A  
DOCKED: BRANCH  28  29
DOCKED: ATOM     29  C   UNL     1     142.321  81.076 223.305 -0.24 -0.08    +0.433 C  
DOCKED: ATOM     30  F   UNL     1     142.060  81.631 224.543 -0.21 +0.01    -0.165 F  
DOCKED: ATOM     31  F   UNL     1     143.632  80.634 223.271 -0.23 +0.04    -0.165 F  
DOCKED: ATOM     32  F   UNL     1     142.154  82.046 222.332 -0.09 +0.03    -0.165 F  
DOCKED: ENDBRANCH  28  29
DOCKED: ENDBRANCH  22  23
DOCKED: ENDBRANCH   1  17
DOCKED: TORSDOF 7
DOCKED: TER
DOCKED: ENDMDL
________________________________________________________________________________


    FINAL DOCKED STATE:
    ________________________


Run:   9 / 20
Time taken for this run:   0.050s

DOCKED: MODEL        9
DOCKED: USER    Run = 9
DOCKED: USER
DOCKED: USER    Estimated Free Energy of Binding    =  -6.53 kcal/mol  [=(1)+(2)+(3)-(4)]
DOCKED: USER
DOCKED: USER    (1) Final Intermolecular Energy     =  -8.62 kcal/mol
DOCKED: USER        vdW + Hbond + desolv Energy     =  -8.47 kcal/mol
DOCKED: USER        Electrostatic Energy            =  -0.15 kcal/mol
DOCKED: USER        Moving Ligand-Fixed Receptor    =  -8.62 kcal/mol
DOCKED: USER        Moving Ligand-Moving Receptor   =  +0.00 kcal/mol
DOCKED: USER    (2) Final Total Internal Energy     =  -2.45 kcal/mol
DOCKED: USER    (3) Torsional Free Energy           =  +2.09 kcal/mol
DOCKED: USER    (4) Unbound System's Energy         =  -2.45 kcal/mol
DOCKED: USER
DOCKED: USER
DOCKED: REMARK SMILES O=C(Cc1ccc(-c2ccc(C(F)(F)F)nc2)cc1)/N=c1\nccc(-c2cccs2)[nH]1
DOCKED: REMARK SMILES IDX 3 1 2 2 1 3 20 4 21 5 23 6 22 7 24 8 25 9 31 10 26 12 30 13
DOCKED: REMARK SMILES IDX 27 14 29 15 28 16 4 17 5 18 19 19 6 20 18 21 7 22 8 23 17 24
DOCKED: REMARK SMILES IDX 9 25 16 26 10 27 11 28 12 29 13 30 14 31 15 32
DOCKED: REMARK H PARENT 31 11
DOCKED: USER                              x       y       z     vdW  Elec       q    Type
DOCKED: USER                           _______ _______ _______ _____ _____    ______ ____
DOCKED: ROOT
DOCKED: ATOM      1  C   UNL     1     141.499  73.575 220.232 -0.15 -0.03    +0.138 C  
DOCKED: ENDROOT
DOCKED: BRANCH   1   2
DOCKED: ATOM      2  C   UNL     1     140.387  73.442 221.226 -0.17 -0.04    +0.253 C  
DOCKED: ATOM      3  O   UNL     1     139.517  72.543 221.069 -0.08 +0.05    -0.272 OA 
DOCKED: BRANCH   2   4
DOCKED: ATOM      4  N   UNL     1     140.328  74.351 222.338 -0.73 -0.01    -0.177 NA 
DOCKED: BRANCH   4   5
DOCKED: ATOM      5  C   UNL     1     139.852  75.563 222.338 -0.16 -0.03    +0.230 A  
DOCKED: ATOM      6  C   UNL     1     138.032  77.060 222.119 -0.21 -0.02    +0.117 A  
DOCKED: ATOM      7  N   UNL     1     138.532  75.799 222.116 -0.20 +0.05    -0.221 NA 
DOCKED: ATOM      8  C   UNL     1     138.875  78.141 222.358 -0.26 -0.01    +0.048 A  
DOCKED: ATOM      9  C   UNL     1     140.236  77.900 222.593 -0.36 -0.02    +0.060 A  
DOCKED: ATOM     10  N   UNL     1     140.694  76.612 222.573 -0.21 +0.09    -0.323 N  
DOCKED: ATOM     11  H   UNL     1     141.707  76.410 222.726 -0.42 -0.10    +0.170 HD 
DOCKED: BRANCH   9  12
DOCKED: ATOM     12  C   UNL     1     141.158  79.029 222.867 -0.47 -0.02    +0.051 A  
DOCKED: ATOM     13  S   UNL     1     140.711  80.545 223.455 -0.51 +0.02    -0.142 S  
DOCKED: ATOM     14  C   UNL     1     142.545  79.027 222.712 -0.46 -0.01    +0.022 A  
DOCKED: ATOM     15  C   UNL     1     142.255  81.204 223.508 -0.56 -0.01    +0.065 A  
DOCKED: ATOM     16  C   UNL     1     143.150  80.239 223.069 -0.64 -0.00    +0.012 A  
DOCKED: ENDBRANCH   9  12
DOCKED: ENDBRANCH   4   5
DOCKED: ENDBRANCH   2   4
DOCKED: ENDBRANCH   1   2
DOCKED: BRANCH   1  17
DOCKED: ATOM     17  C   UNL     1     141.638  75.007 219.794 -0.19 +0.01    -0.039 A  
DOCKED: ATOM     18  C   UNL     1     142.833  75.705 220.026 -0.34 -0.00    +0.005 A  
DOCKED: ATOM     19  C   UNL     1     140.551  75.678 219.213 -0.10 -0.00    +0.005 A  
DOCKED: ATOM     20  C   UNL     1     142.945  77.052 219.668 -0.30 -0.01    +0.009 A  
DOCKED: ATOM     21  C   UNL     1     140.662  77.026 218.855 -0.10 -0.00    +0.009 A  
DOCKED: ATOM     22  C   UNL     1     141.861  77.728 219.080 -0.26 +0.01    -0.017 A  
DOCKED: BRANCH  22  23
DOCKED: ATOM     23  C   UNL     1     141.973  79.165 218.717 -0.29 -0.00    +0.000 A  
DOCKED: ATOM     24  C   UNL     1     141.604  80.170 219.628 -0.24 -0.06    +0.120 A  
DOCKED: ATOM     25  C   UNL     1     142.458  79.554 217.457 -0.26 -0.01    +0.012 A  
DOCKED: ATOM     26  N   UNL     1     141.717  81.481 219.289 -0.16 +0.10    -0.251 NA 
DOCKED: ATOM     27  C   UNL     1     142.565  80.908 217.133 -0.23 -0.04    +0.034 A  
DOCKED: ATOM     28  C   UNL     1     142.178  81.875 218.070 -0.23 -0.08    +0.144 A  
DOCKED: BRANCH  28  29
DOCKED: ATOM     29  C   UNL     1     142.310  83.335 217.752 -0.06 -0.19    +0.433 C  
DOCKED: ATOM     30  F   UNL     1     143.642  83.700 217.808 -0.09 +0.08    -0.165 F  
DOCKED: ATOM     31  F   UNL     1     141.822  83.586 216.483 -0.02 +0.07    -0.165 F  
DOCKED: ATOM     32  F   UNL     1     141.597  84.096 218.662 -0.03 +0.05    -0.165 F  
DOCKED: ENDBRANCH  28  29
DOCKED: ENDBRANCH  22  23
DOCKED: ENDBRANCH   1  17
DOCKED: TORSDOF 7
DOCKED: TER
DOCKED: ENDMDL
________________________________________________________________________________


    FINAL DOCKED STATE:
    ________________________


Run:   10 / 20
Time taken for this run:   0.050s

DOCKED: MODEL        10
DOCKED: USER    Run = 10
DOCKED: USER
DOCKED: USER    Estimated Free Energy of Binding    =  -6.63 kcal/mol  [=(1)+(2)+(3)-(4)]
DOCKED: USER
DOCKED: USER    (1) Final Intermolecular Energy     =  -8.72 kcal/mol
DOCKED: USER        vdW + Hbond + desolv Energy     =  -8.56 kcal/mol
DOCKED: USER        Electrostatic Energy            =  -0.16 kcal/mol
DOCKED: USER        Moving Ligand-Fixed Receptor    =  -8.72 kcal/mol
DOCKED: USER        Moving Ligand-Moving Receptor   =  +0.00 kcal/mol
DOCKED: USER    (2) Final Total Internal Energy     =  -2.22 kcal/mol
DOCKED: USER    (3) Torsional Free Energy           =  +2.09 kcal/mol
DOCKED: USER    (4) Unbound System's Energy         =  -2.22 kcal/mol
DOCKED: USER
DOCKED: USER
DOCKED: REMARK SMILES O=C(Cc1ccc(-c2ccc(C(F)(F)F)nc2)cc1)/N=c1\nccc(-c2cccs2)[nH]1
DOCKED: REMARK SMILES IDX 3 1 2 2 1 3 20 4 21 5 23 6 22 7 24 8 25 9 31 10 26 12 30 13
DOCKED: REMARK SMILES IDX 27 14 29 15 28 16 4 17 5 18 19 19 6 20 18 21 7 22 8 23 17 24
DOCKED: REMARK SMILES IDX 9 25 16 26 10 27 11 28 12 29 13 30 14 31 15 32
DOCKED: REMARK H PARENT 31 11
DOCKED: USER                              x       y       z     vdW  Elec       q    Type
DOCKED: USER                           _______ _______ _______ _____ _____    ______ ____
DOCKED: ROOT
DOCKED: ATOM      1  C   UNL     1     141.261  74.540 219.517 -0.10 -0.04    +0.138 C  
DOCKED: ENDROOT
DOCKED: BRANCH   1   2
DOCKED: ATOM      2  C   UNL     1     141.600  74.214 220.939 -0.17 -0.05    +0.253 C  
DOCKED: ATOM      3  O   UNL     1     142.708  73.675 221.205 -0.14 +0.05    -0.272 OA 
DOCKED: BRANCH   2   4
DOCKED: ATOM      4  N   UNL     1     140.648  74.514 221.973 -0.73 +0.01    -0.177 NA 
DOCKED: BRANCH   4   5
DOCKED: ATOM      5  C   UNL     1     140.087  75.664 222.216 -0.18 -0.04    +0.230 A  
DOCKED: ATOM      6  C   UNL     1     138.147  76.982 222.536 -0.25 -0.02    +0.117 A  
DOCKED: ATOM      7  N   UNL     1     138.734  75.786 222.279 -0.24 +0.05    -0.221 NA 
DOCKED: ATOM      8  C   UNL     1     138.932  78.111 222.745 -0.28 -0.01    +0.048 A  
DOCKED: ATOM      9  C   UNL     1     140.327  77.986 222.686 -0.37 -0.02    +0.060 A  
DOCKED: ATOM     10  N   UNL     1     140.872  76.762 222.417 -0.23 +0.11    -0.323 N  
DOCKED: ATOM     11  H   UNL     1     141.909  76.649 222.349 -0.49 -0.13    +0.170 HD 
DOCKED: BRANCH   9  12
DOCKED: ATOM     12  C   UNL     1     141.193  79.168 222.921 -0.47 -0.02    +0.051 A  
DOCKED: ATOM     13  S   UNL     1     140.670  80.683 223.445 -0.50 +0.02    -0.142 S  
DOCKED: ATOM     14  C   UNL     1     142.580  79.225 222.774 -0.53 -0.01    +0.022 A  
DOCKED: ATOM     15  C   UNL     1     142.181  81.416 223.482 -0.53 -0.01    +0.065 A  
DOCKED: ATOM     16  C   UNL     1     143.125  80.478 223.087 -0.63 -0.00    +0.012 A  
DOCKED: ENDBRANCH   9  12
DOCKED: ENDBRANCH   4   5
DOCKED: ENDBRANCH   2   4
DOCKED: ENDBRANCH   1   2
DOCKED: BRANCH   1  17
DOCKED: ATOM     17  C   UNL     1     141.463  76.008 219.257 -0.16 +0.02    -0.039 A  
DOCKED: ATOM     18  C   UNL     1     140.368  76.886 219.271 -0.10 -0.00    +0.005 A  
DOCKED: ATOM     19  C   UNL     1     142.735  76.500 218.929 -0.32 -0.00    +0.005 A  
DOCKED: ATOM     20  C   UNL     1     140.546  78.241 218.977 -0.11 -0.00    +0.009 A  
DOCKED: ATOM     21  C   UNL     1     142.915  77.856 218.634 -0.28 -0.01    +0.009 A  
DOCKED: ATOM     22  C   UNL     1     141.821  78.741 218.653 -0.25 +0.01    -0.017 A  
DOCKED: BRANCH  22  23
DOCKED: ATOM     23  C   UNL     1     142.007  80.178 218.322 -0.30 -0.00    +0.000 A  
DOCKED: ATOM     24  C   UNL     1     141.641  81.181 219.237 -0.23 -0.05    +0.120 A  
DOCKED: ATOM     25  C   UNL     1     142.561  80.569 217.091 -0.18 -0.01    +0.012 A  
DOCKED: ATOM     26  N   UNL     1     141.823  82.492 218.928 -0.13 +0.10    -0.251 NA 
DOCKED: ATOM     27  C   UNL     1     142.737  81.922 216.798 -0.26 -0.03    +0.034 A  
DOCKED: ATOM     28  C   UNL     1     142.350  82.888 217.737 -0.20 -0.07    +0.144 A  
DOCKED: BRANCH  28  29
DOCKED: ATOM     29  C   UNL     1     142.555  84.347 217.454 -0.05 -0.16    +0.433 C  
DOCKED: ATOM     30  F   UNL     1     143.905  84.641 217.502 -0.11 +0.07    -0.165 F  
DOCKED: ATOM     31  F   UNL     1     142.068  84.655 216.196 -0.02 +0.06    -0.165 F  
DOCKED: ATOM     32  F   UNL     1     141.892  85.121 218.390 -0.02 +0.05    -0.165 F  
DOCKED: ENDBRANCH  28  29
DOCKED: ENDBRANCH  22  23
DOCKED: ENDBRANCH   1  17
DOCKED: TORSDOF 7
DOCKED: TER
DOCKED: ENDMDL
________________________________________________________________________________


    FINAL DOCKED STATE:
    ________________________


Run:   11 / 20
Time taken for this run:   0.050s

DOCKED: MODEL        11
DOCKED: USER    Run = 11
DOCKED: USER
DOCKED: USER    Estimated Free Energy of Binding    =  -6.62 kcal/mol  [=(1)+(2)+(3)-(4)]
DOCKED: USER
DOCKED: USER    (1) Final Intermolecular Energy     =  -8.71 kcal/mol
DOCKED: USER        vdW + Hbond + desolv Energy     =  -8.55 kcal/mol
DOCKED: USER        Electrostatic Energy            =  -0.16 kcal/mol
DOCKED: USER        Moving Ligand-Fixed Receptor    =  -8.71 kcal/mol
DOCKED: USER        Moving Ligand-Moving Receptor   =  +0.00 kcal/mol
DOCKED: USER    (2) Final Total Internal Energy     =  -2.22 kcal/mol
DOCKED: USER    (3) Torsional Free Energy           =  +2.09 kcal/mol
DOCKED: USER    (4) Unbound System's Energy         =  -2.22 kcal/mol
DOCKED: USER
DOCKED: USER
DOCKED: REMARK SMILES O=C(Cc1ccc(-c2ccc(C(F)(F)F)nc2)cc1)/N=c1\nccc(-c2cccs2)[nH]1
DOCKED: REMARK SMILES IDX 3 1 2 2 1 3 20 4 21 5 23 6 22 7 24 8 25 9 31 10 26 12 30 13
DOCKED: REMARK SMILES IDX 27 14 29 15 28 16 4 17 5 18 19 19 6 20 18 21 7 22 8 23 17 24
DOCKED: REMARK SMILES IDX 9 25 16 26 10 27 11 28 12 29 13 30 14 31 15 32
DOCKED: REMARK H PARENT 31 11
DOCKED: USER                              x       y       z     vdW  Elec       q    Type
DOCKED: USER                           _______ _______ _______ _____ _____    ______ ____
DOCKED: ROOT
DOCKED: ATOM      1  C   UNL     1     141.292  74.562 219.479 -0.10 -0.04    +0.138 C  
DOCKED: ENDROOT
DOCKED: BRANCH   1   2
DOCKED: ATOM      2  C   UNL     1     141.608  74.238 220.906 -0.18 -0.05    +0.253 C  
DOCKED: ATOM      3  O   UNL     1     142.726  73.733 221.197 -0.13 +0.05    -0.272 OA 
DOCKED: BRANCH   2   4
DOCKED: ATOM      4  N   UNL     1     140.622  74.501 221.919 -0.71 +0.01    -0.177 NA 
DOCKED: BRANCH   4   5
DOCKED: ATOM      5  C   UNL     1     140.069  75.647 222.199 -0.18 -0.04    +0.230 A  
DOCKED: ATOM      6  C   UNL     1     138.139  76.956 222.605 -0.25 -0.02    +0.117 A  
DOCKED: ATOM      7  N   UNL     1     138.718  75.766 222.310 -0.24 +0.05    -0.221 NA 
DOCKED: ATOM      8  C   UNL     1     138.929  78.083 222.806 -0.27 -0.01    +0.048 A  
DOCKED: ATOM      9  C   UNL     1     140.322  77.962 222.698 -0.37 -0.02    +0.060 A  
DOCKED: ATOM     10  N   UNL     1     140.859  76.742 222.391 -0.23 +0.11    -0.323 N  
DOCKED: ATOM     11  H   UNL     1     141.893  76.633 222.287 -0.50 -0.13    +0.170 HD 
DOCKED: BRANCH   9  12
DOCKED: ATOM     12  C   UNL     1     141.195  79.141 222.923 -0.47 -0.02    +0.051 A  
DOCKED: ATOM     13  S   UNL     1     140.685  80.651 223.474 -0.50 +0.02    -0.142 S  
DOCKED: ATOM     14  C   UNL     1     142.577  79.199 222.742 -0.52 -0.01    +0.022 A  
DOCKED: ATOM     15  C   UNL     1     142.197  81.383 223.480 -0.53 -0.01    +0.065 A  
DOCKED: ATOM     16  C   UNL     1     143.130  80.448 223.052 -0.63 -0.00    +0.012 A  
DOCKED: ENDBRANCH   9  12
DOCKED: ENDBRANCH   4   5
DOCKED: ENDBRANCH   2   4
DOCKED: ENDBRANCH   1   2
DOCKED: BRANCH   1  17
DOCKED: ATOM     17  C   UNL     1     141.488  76.031 219.222 -0.16 +0.02    -0.039 A  
DOCKED: ATOM     18  C   UNL     1     140.390  76.904 219.233 -0.10 -0.00    +0.005 A  
DOCKED: ATOM     19  C   UNL     1     142.760  76.530 218.901 -0.32 -0.00    +0.005 A  
DOCKED: ATOM     20  C   UNL     1     140.564  78.261 218.941 -0.11 -0.00    +0.009 A  
DOCKED: ATOM     21  C   UNL     1     142.935  77.886 218.609 -0.29 -0.01    +0.009 A  
DOCKED: ATOM     22  C   UNL     1     141.837  78.767 218.624 -0.25 +0.01    -0.017 A  
DOCKED: BRANCH  22  23
DOCKED: ATOM     23  C   UNL     1     142.018  80.205 218.297 -0.30 -0.00    +0.000 A  
DOCKED: ATOM     24  C   UNL     1     141.662  81.205 219.219 -0.23 -0.05    +0.120 A  
DOCKED: ATOM     25  C   UNL     1     142.557  80.601 217.061 -0.17 -0.01    +0.012 A  
DOCKED: ATOM     26  N   UNL     1     141.839  82.517 218.913 -0.13 +0.10    -0.251 NA 
DOCKED: ATOM     27  C   UNL     1     142.729  81.955 216.771 -0.26 -0.03    +0.034 A  
DOCKED: ATOM     28  C   UNL     1     142.352  82.918 217.717 -0.20 -0.07    +0.144 A  
DOCKED: BRANCH  28  29
DOCKED: ATOM     29  C   UNL     1     142.553  84.377 217.437 -0.05 -0.16    +0.433 C  
DOCKED: ATOM     30  F   UNL     1     143.902  84.673 217.475 -0.12 +0.07    -0.165 F  
DOCKED: ATOM     31  F   UNL     1     142.054  84.689 216.184 -0.02 +0.06    -0.165 F  
DOCKED: ATOM     32  F   UNL     1     141.896  85.148 218.381 -0.02 +0.05    -0.165 F  
DOCKED: ENDBRANCH  28  29
DOCKED: ENDBRANCH  22  23
DOCKED: ENDBRANCH   1  17
DOCKED: TORSDOF 7
DOCKED: TER
DOCKED: ENDMDL
________________________________________________________________________________


    FINAL DOCKED STATE:
    ________________________


Run:   12 / 20
Time taken for this run:   0.050s

DOCKED: MODEL        12
DOCKED: USER    Run = 12
DOCKED: USER
DOCKED: USER    Estimated Free Energy of Binding    =  -6.56 kcal/mol  [=(1)+(2)+(3)-(4)]
DOCKED: USER
DOCKED: USER    (1) Final Intermolecular Energy     =  -8.64 kcal/mol
DOCKED: USER        vdW + Hbond + desolv Energy     =  -8.50 kcal/mol
DOCKED: USER        Electrostatic Energy            =  -0.15 kcal/mol
DOCKED: USER        Moving Ligand-Fixed Receptor    =  -8.64 kcal/mol
DOCKED: USER        Moving Ligand-Moving Receptor   =  +0.00 kcal/mol
DOCKED: USER    (2) Final Total Internal Energy     =  -2.42 kcal/mol
DOCKED: USER    (3) Torsional Free Energy           =  +2.09 kcal/mol
DOCKED: USER    (4) Unbound System's Energy         =  -2.42 kcal/mol
DOCKED: USER
DOCKED: USER
DOCKED: REMARK SMILES O=C(Cc1ccc(-c2ccc(C(F)(F)F)nc2)cc1)/N=c1\nccc(-c2cccs2)[nH]1
DOCKED: REMARK SMILES IDX 3 1 2 2 1 3 20 4 21 5 23 6 22 7 24 8 25 9 31 10 26 12 30 13
DOCKED: REMARK SMILES IDX 27 14 29 15 28 16 4 17 5 18 19 19 6 20 18 21 7 22 8 23 17 24
DOCKED: REMARK SMILES IDX 9 25 16 26 10 27 11 28 12 29 13 30 14 31 15 32
DOCKED: REMARK H PARENT 31 11
DOCKED: USER                              x       y       z     vdW  Elec       q    Type
DOCKED: USER                           _______ _______ _______ _____ _____    ______ ____
DOCKED: ROOT
DOCKED: ATOM      1  C   UNL     1     141.518  73.605 220.203 -0.15 -0.03    +0.138 C  
DOCKED: ENDROOT
DOCKED: BRANCH   1   2
DOCKED: ATOM      2  C   UNL     1     140.407  73.484 221.200 -0.17 -0.04    +0.253 C  
DOCKED: ATOM      3  O   UNL     1     139.521  72.602 221.038 -0.08 +0.05    -0.272 OA 
DOCKED: BRANCH   2   4
DOCKED: ATOM      4  N   UNL     1     140.368  74.384 222.319 -0.71 -0.01    -0.177 NA 
DOCKED: BRANCH   4   5
DOCKED: ATOM      5  C   UNL     1     139.886  75.595 222.338 -0.16 -0.03    +0.230 A  
DOCKED: ATOM      6  C   UNL     1     138.057  77.085 222.161 -0.21 -0.02    +0.117 A  
DOCKED: ATOM      7  N   UNL     1     138.562  75.827 222.138 -0.20 +0.05    -0.221 NA 
DOCKED: ATOM      8  C   UNL     1     138.898  78.168 222.398 -0.26 -0.01    +0.048 A  
DOCKED: ATOM      9  C   UNL     1     140.264  77.930 222.611 -0.36 -0.02    +0.060 A  
DOCKED: ATOM     10  N   UNL     1     140.727  76.644 222.571 -0.21 +0.09    -0.323 N  
DOCKED: ATOM     11  H   UNL     1     141.743  76.445 222.708 -0.43 -0.10    +0.170 HD 
DOCKED: BRANCH   9  12
DOCKED: ATOM     12  C   UNL     1     141.185  79.061 222.883 -0.47 -0.02    +0.051 A  
DOCKED: ATOM     13  S   UNL     1     140.736  80.579 223.465 -0.51 +0.02    -0.142 S  
DOCKED: ATOM     14  C   UNL     1     142.572  79.059 222.730 -0.47 -0.01    +0.022 A  
DOCKED: ATOM     15  C   UNL     1     142.279  81.238 223.518 -0.56 -0.01    +0.065 A  
DOCKED: ATOM     16  C   UNL     1     143.176  80.272 223.084 -0.64 -0.00    +0.012 A  
DOCKED: ENDBRANCH   9  12
DOCKED: ENDBRANCH   4   5
DOCKED: ENDBRANCH   2   4
DOCKED: ENDBRANCH   1   2
DOCKED: BRANCH   1  17
DOCKED: ATOM     17  C   UNL     1     141.652  75.032 219.744 -0.18 +0.01    -0.039 A  
DOCKED: ATOM     18  C   UNL     1     142.825  75.754 220.011 -0.34 -0.00    +0.005 A  
DOCKED: ATOM     19  C   UNL     1     140.580  75.673 219.105 -0.09 -0.00    +0.005 A  
DOCKED: ATOM     20  C   UNL     1     142.930  77.096 219.632 -0.30 -0.01    +0.009 A  
DOCKED: ATOM     21  C   UNL     1     140.684  77.015 218.725 -0.10 -0.00    +0.009 A  
DOCKED: ATOM     22  C   UNL     1     141.860  77.742 218.987 -0.25 +0.01    -0.017 A  
DOCKED: BRANCH  22  23
DOCKED: ATOM     23  C   UNL     1     141.964  79.173 218.600 -0.29 -0.00    +0.000 A  
DOCKED: ATOM     24  C   UNL     1     141.820  80.191 219.559 -0.26 -0.06    +0.120 A  
DOCKED: ATOM     25  C   UNL     1     142.218  79.544 217.268 -0.25 -0.01    +0.012 A  
DOCKED: ATOM     26  N   UNL     1     141.924  81.497 219.197 -0.14 +0.11    -0.251 NA 
DOCKED: ATOM     27  C   UNL     1     142.321  80.892 216.922 -0.21 -0.03    +0.034 A  
DOCKED: ATOM     28  C   UNL     1     142.162  81.873 217.911 -0.23 -0.09    +0.144 A  
DOCKED: BRANCH  28  29
DOCKED: ATOM     29  C   UNL     1     142.295  83.327 217.565 -0.07 -0.20    +0.433 C  
DOCKED: ATOM     30  F   UNL     1     141.679  83.571 216.353 -0.02 +0.07    -0.165 F  
DOCKED: ATOM     31  F   UNL     1     141.697  84.100 218.544 -0.04 +0.05    -0.165 F  
DOCKED: ATOM     32  F   UNL     1     143.630  83.683 217.471 -0.13 +0.09    -0.165 F  
DOCKED: ENDBRANCH  28  29
DOCKED: ENDBRANCH  22  23
DOCKED: ENDBRANCH   1  17
DOCKED: TORSDOF 7
DOCKED: TER
DOCKED: ENDMDL
________________________________________________________________________________


    FINAL DOCKED STATE:
    ________________________


Run:   13 / 20
Time taken for this run:   0.050s

DOCKED: MODEL        13
DOCKED: USER    Run = 13
DOCKED: USER
DOCKED: USER    Estimated Free Energy of Binding    =  -6.57 kcal/mol  [=(1)+(2)+(3)-(4)]
DOCKED: USER
DOCKED: USER    (1) Final Intermolecular Energy     =  -8.66 kcal/mol
DOCKED: USER        vdW + Hbond + desolv Energy     =  -8.51 kcal/mol
DOCKED: USER        Electrostatic Energy            =  -0.15 kcal/mol
DOCKED: USER        Moving Ligand-Fixed Receptor    =  -8.66 kcal/mol
DOCKED: USER        Moving Ligand-Moving Receptor   =  +0.00 kcal/mol
DOCKED: USER    (2) Final Total Internal Energy     =  -2.38 kcal/mol
DOCKED: USER    (3) Torsional Free Energy           =  +2.09 kcal/mol
DOCKED: USER    (4) Unbound System's Energy         =  -2.38 kcal/mol
DOCKED: USER
DOCKED: USER
DOCKED: REMARK SMILES O=C(Cc1ccc(-c2ccc(C(F)(F)F)nc2)cc1)/N=c1\nccc(-c2cccs2)[nH]1
DOCKED: REMARK SMILES IDX 3 1 2 2 1 3 20 4 21 5 23 6 22 7 24 8 25 9 31 10 26 12 30 13
DOCKED: REMARK SMILES IDX 27 14 29 15 28 16 4 17 5 18 19 19 6 20 18 21 7 22 8 23 17 24
DOCKED: REMARK SMILES IDX 9 25 16 26 10 27 11 28 12 29 13 30 14 31 15 32
DOCKED: REMARK H PARENT 31 11
DOCKED: USER                              x       y       z     vdW  Elec       q    Type
DOCKED: USER                           _______ _______ _______ _____ _____    ______ ____
DOCKED: ROOT
DOCKED: ATOM      1  C   UNL     1     141.605  73.641 220.179 -0.16 -0.03    +0.138 C  
DOCKED: ENDROOT
DOCKED: BRANCH   1   2
DOCKED: ATOM      2  C   UNL     1     140.470  73.494 221.145 -0.17 -0.04    +0.253 C  
DOCKED: ATOM      3  O   UNL     1     139.591  72.612 220.943 -0.08 +0.05    -0.272 OA 
DOCKED: BRANCH   2   4
DOCKED: ATOM      4  N   UNL     1     140.398  74.371 222.281 -0.70 -0.01    -0.177 NA 
DOCKED: BRANCH   4   5
DOCKED: ATOM      5  C   UNL     1     139.901  75.575 222.315 -0.16 -0.03    +0.230 A  
DOCKED: ATOM      6  C   UNL     1     138.050  77.043 222.172 -0.21 -0.02    +0.117 A  
DOCKED: ATOM      7  N   UNL     1     138.571  75.791 222.133 -0.21 +0.05    -0.221 NA 
DOCKED: ATOM      8  C   UNL     1     138.880  78.135 222.406 -0.26 -0.01    +0.048 A  
DOCKED: ATOM      9  C   UNL     1     140.251  77.913 222.601 -0.36 -0.02    +0.060 A  
DOCKED: ATOM     10  N   UNL     1     140.731  76.634 222.545 -0.21 +0.09    -0.323 N  
DOCKED: ATOM     11  H   UNL     1     141.751  76.448 222.667 -0.44 -0.10    +0.170 HD 
DOCKED: BRANCH   9  12
DOCKED: ATOM     12  C   UNL     1     141.161  79.054 222.869 -0.47 -0.02    +0.051 A  
DOCKED: ATOM     13  S   UNL     1     140.696  80.568 223.448 -0.51 +0.02    -0.142 S  
DOCKED: ATOM     14  C   UNL     1     142.548  79.066 222.715 -0.48 -0.01    +0.022 A  
DOCKED: ATOM     15  C   UNL     1     142.233  81.244 223.499 -0.56 -0.01    +0.065 A  
DOCKED: ATOM     16  C   UNL     1     143.140  80.286 223.066 -0.64 -0.00    +0.012 A  
DOCKED: ENDBRANCH   9  12
DOCKED: ENDBRANCH   4   5
DOCKED: ENDBRANCH   2   4
DOCKED: ENDBRANCH   1   2
DOCKED: BRANCH   1  17
DOCKED: ATOM     17  C   UNL     1     141.711  75.067 219.712 -0.19 +0.01    -0.039 A  
DOCKED: ATOM     18  C   UNL     1     142.912  75.775 219.869 -0.35 -0.00    +0.005 A  
DOCKED: ATOM     19  C   UNL     1     140.591  75.722 219.179 -0.10 -0.00    +0.005 A  
DOCKED: ATOM     20  C   UNL     1     142.996  77.117 219.485 -0.29 -0.01    +0.009 A  
DOCKED: ATOM     21  C   UNL     1     140.673  77.064 218.794 -0.10 -0.00    +0.009 A  
DOCKED: ATOM     22  C   UNL     1     141.878  77.777 218.944 -0.25 +0.01    -0.017 A  
DOCKED: BRANCH  22  23
DOCKED: ATOM     23  C   UNL     1     141.961  79.208 218.553 -0.29 -0.00    +0.000 A  
DOCKED: ATOM     24  C   UNL     1     141.820  80.227 219.512 -0.26 -0.06    +0.120 A  
DOCKED: ATOM     25  C   UNL     1     142.191  79.578 217.217 -0.25 -0.01    +0.012 A  
DOCKED: ATOM     26  N   UNL     1     141.906  81.532 219.145 -0.15 +0.11    -0.251 NA 
DOCKED: ATOM     27  C   UNL     1     142.275  80.927 216.866 -0.21 -0.03    +0.034 A  
DOCKED: ATOM     28  C   UNL     1     142.120  81.908 217.854 -0.22 -0.09    +0.144 A  
DOCKED: BRANCH  28  29
DOCKED: ATOM     29  C   UNL     1     142.233  83.362 217.503 -0.08 -0.20    +0.433 C  
DOCKED: ATOM     30  F   UNL     1     141.547  84.116 218.436 -0.05 +0.05    -0.165 F  
DOCKED: ATOM     31  F   UNL     1     143.563  83.743 217.499 -0.12 +0.09    -0.165 F  
DOCKED: ATOM     32  F   UNL     1     141.698  83.602 216.249 -0.02 +0.07    -0.165 F  
DOCKED: ENDBRANCH  28  29
DOCKED: ENDBRANCH  22  23
DOCKED: ENDBRANCH   1  17
DOCKED: TORSDOF 7
DOCKED: TER
DOCKED: ENDMDL
________________________________________________________________________________


    FINAL DOCKED STATE:
    ________________________


Run:   14 / 20
Time taken for this run:   0.050s

DOCKED: MODEL        14
DOCKED: USER    Run = 14
DOCKED: USER
DOCKED: USER    Estimated Free Energy of Binding    =  -6.05 kcal/mol  [=(1)+(2)+(3)-(4)]
DOCKED: USER
DOCKED: USER    (1) Final Intermolecular Energy     =  -8.14 kcal/mol
DOCKED: USER        vdW + Hbond + desolv Energy     =  -8.18 kcal/mol
DOCKED: USER        Electrostatic Energy            =  +0.05 kcal/mol
DOCKED: USER        Moving Ligand-Fixed Receptor    =  -8.14 kcal/mol
DOCKED: USER        Moving Ligand-Moving Receptor   =  +0.00 kcal/mol
DOCKED: USER    (2) Final Total Internal Energy     =  -2.59 kcal/mol
DOCKED: USER    (3) Torsional Free Energy           =  +2.09 kcal/mol
DOCKED: USER    (4) Unbound System's Energy         =  -2.59 kcal/mol
DOCKED: USER
DOCKED: USER
DOCKED: REMARK SMILES O=C(Cc1ccc(-c2ccc(C(F)(F)F)nc2)cc1)/N=c1\nccc(-c2cccs2)[nH]1
DOCKED: REMARK SMILES IDX 3 1 2 2 1 3 20 4 21 5 23 6 22 7 24 8 25 9 31 10 26 12 30 13
DOCKED: REMARK SMILES IDX 27 14 29 15 28 16 4 17 5 18 19 19 6 20 18 21 7 22 8 23 17 24
DOCKED: REMARK SMILES IDX 9 25 16 26 10 27 11 28 12 29 13 30 14 31 15 32
DOCKED: REMARK H PARENT 31 11
DOCKED: USER                              x       y       z     vdW  Elec       q    Type
DOCKED: USER                           _______ _______ _______ _____ _____    ______ ____
DOCKED: ROOT
DOCKED: ATOM      1  C   UNL     1     141.477  75.427 219.745 -0.15 -0.05    +0.138 C  
DOCKED: ENDROOT
DOCKED: BRANCH   1   2
DOCKED: ATOM      2  C   UNL     1     142.582  76.188 219.080 -0.20 -0.13    +0.253 C  
DOCKED: ATOM      3  O   UNL     1     143.780  75.850 219.283 -0.28 +0.17    -0.272 OA 
DOCKED: BRANCH   2   4
DOCKED: ATOM      4  N   UNL     1     142.254  77.298 218.227 -0.17 +0.11    -0.177 NA 
DOCKED: BRANCH   4   5
DOCKED: ATOM      5  C   UNL     1     141.971  78.515 218.595 -0.19 -0.15    +0.230 A  
DOCKED: ATOM      6  C   UNL     1     141.149  80.678 218.095 -0.14 -0.06    +0.117 A  
DOCKED: ATOM      7  N   UNL     1     141.449  79.411 217.715 -0.10 +0.14    -0.221 NA 
DOCKED: ATOM      8  C   UNL     1     141.371  81.080 219.409 -0.25 -0.02    +0.048 A  
DOCKED: ATOM      9  C   UNL     1     141.903  80.156 220.320 -0.29 -0.03    +0.060 A  
DOCKED: ATOM     10  N   UNL     1     142.196  78.893 219.887 -0.06 +0.23    -0.323 N  
DOCKED: ATOM     11  H   UNL     1     142.611  78.194 220.543 -0.33 -0.16    +0.170 HD 
DOCKED: BRANCH   9  12
DOCKED: ATOM     12  C   UNL     1     142.135  80.548 221.731 -0.43 -0.02    +0.051 A  
DOCKED: ATOM     13  S   UNL     1     141.486  81.904 222.496 -0.41 +0.02    -0.142 S  
DOCKED: ATOM     14  C   UNL     1     142.904  79.859 222.670 -0.59 -0.01    +0.022 A  
DOCKED: ATOM     15  C   UNL     1     142.173  81.632 224.004 -0.52 -0.01    +0.065 A  
DOCKED: ATOM     16  C   UNL     1     142.922  80.466 223.933 -0.64 -0.00    +0.012 A  
DOCKED: ENDBRANCH   9  12
DOCKED: ENDBRANCH   4   5
DOCKED: ENDBRANCH   2   4
DOCKED: ENDBRANCH   1   2
DOCKED: BRANCH   1  17
DOCKED: ATOM     17  C   UNL     1     140.662  76.345 220.615 -0.22 +0.01    -0.039 A  
DOCKED: ATOM     18  C   UNL     1     139.527  76.988 220.098 -0.10 -0.00    +0.005 A  
DOCKED: ATOM     19  C   UNL     1     141.070  76.621 221.929 -0.37 -0.00    +0.005 A  
DOCKED: ATOM     20  C   UNL     1     138.801  77.882 220.889 -0.12 -0.00    +0.009 A  
DOCKED: ATOM     21  C   UNL     1     140.344  77.516 222.721 -0.38 -0.00    +0.009 A  
DOCKED: ATOM     22  C   UNL     1     139.201  78.158 222.209 -0.27 +0.00    -0.017 A  
DOCKED: BRANCH  22  23
DOCKED: ATOM     23  C   UNL     1     138.439  79.123 223.044 -0.30 -0.00    +0.000 A  
DOCKED: ATOM     24  C   UNL     1     137.033  79.125 223.040 -0.16 -0.02    +0.120 A  
DOCKED: ATOM     25  C   UNL     1     139.105  80.052 223.862 -0.42 -0.00    +0.012 A  
DOCKED: ATOM     26  N   UNL     1     136.345  80.006 223.813 -0.12 +0.03    -0.251 NA 
DOCKED: ATOM     27  C   UNL     1     138.375  80.946 224.647 -0.32 -0.00    +0.034 A  
DOCKED: ATOM     28  C   UNL     1     136.975  80.917 224.606 -0.27 -0.01    +0.144 A  
DOCKED: BRANCH  28  29
DOCKED: ATOM     29  C   UNL     1     136.171  81.852 225.461 -0.14 -0.05    +0.433 C  
DOCKED: ATOM     30  F   UNL     1     137.020  82.732 226.105 -0.14 +0.01    -0.165 F  
DOCKED: ATOM     31  F   UNL     1     135.286  82.567 224.673 -0.02 +0.02    -0.165 F  
DOCKED: ATOM     32  F   UNL     1     135.452  81.145 226.409 -0.09 +0.03    -0.165 F  
DOCKED: ENDBRANCH  28  29
DOCKED: ENDBRANCH  22  23
DOCKED: ENDBRANCH   1  17
DOCKED: TORSDOF 7
DOCKED: TER
DOCKED: ENDMDL
________________________________________________________________________________


    FINAL DOCKED STATE:
    ________________________


Run:   15 / 20
Time taken for this run:   0.050s

DOCKED: MODEL        15
DOCKED: USER    Run = 15
DOCKED: USER
DOCKED: USER    Estimated Free Energy of Binding    =  -7.54 kcal/mol  [=(1)+(2)+(3)-(4)]
DOCKED: USER
DOCKED: USER    (1) Final Intermolecular Energy     =  -9.63 kcal/mol
DOCKED: USER        vdW + Hbond + desolv Energy     =  -9.56 kcal/mol
DOCKED: USER        Electrostatic Energy            =  -0.07 kcal/mol
DOCKED: USER        Moving Ligand-Fixed Receptor    =  -9.63 kcal/mol
DOCKED: USER        Moving Ligand-Moving Receptor   =  +0.00 kcal/mol
DOCKED: USER    (2) Final Total Internal Energy     =  -1.68 kcal/mol
DOCKED: USER    (3) Torsional Free Energy           =  +2.09 kcal/mol
DOCKED: USER    (4) Unbound System's Energy         =  -1.68 kcal/mol
DOCKED: USER
DOCKED: USER
DOCKED: REMARK SMILES O=C(Cc1ccc(-c2ccc(C(F)(F)F)nc2)cc1)/N=c1\nccc(-c2cccs2)[nH]1
DOCKED: REMARK SMILES IDX 3 1 2 2 1 3 20 4 21 5 23 6 22 7 24 8 25 9 31 10 26 12 30 13
DOCKED: REMARK SMILES IDX 27 14 29 15 28 16 4 17 5 18 19 19 6 20 18 21 7 22 8 23 17 24
DOCKED: REMARK SMILES IDX 9 25 16 26 10 27 11 28 12 29 13 30 14 31 15 32
DOCKED: REMARK H PARENT 31 11
DOCKED: USER                              x       y       z     vdW  Elec       q    Type
DOCKED: USER                           _______ _______ _______ _____ _____    ______ ____
DOCKED: ROOT
DOCKED: ATOM      1  C   UNL     1     135.751  73.354 222.250 -0.09 -0.03    +0.138 C  
DOCKED: ENDROOT
DOCKED: BRANCH   1   2
DOCKED: ATOM      2  C   UNL     1     136.089  72.328 223.287 -0.11 -0.06    +0.253 C  
DOCKED: ATOM      3  O   UNL     1     135.930  72.602 224.508 -0.15 +0.06    -0.272 OA 
DOCKED: BRANCH   2   4
DOCKED: ATOM      4  N   UNL     1     136.599  71.050 222.870 -0.08 +0.03    -0.177 NA 
DOCKED: BRANCH   4   5
DOCKED: ATOM      5  C   UNL     1     137.537  70.352 223.445 -0.14 -0.04    +0.230 A  
DOCKED: ATOM      6  C   UNL     1     138.796  68.357 223.633 -0.25 -0.01    +0.117 A  
DOCKED: ATOM      7  N   UNL     1     137.818  69.085 223.040 -0.10 +0.03    -0.221 NA 
DOCKED: ATOM      8  C   UNL     1     139.537  68.906 224.675 -0.32 -0.01    +0.048 A  
DOCKED: ATOM      9  C   UNL     1     139.254  70.216 225.090 -0.37 -0.01    +0.060 A  
DOCKED: ATOM     10  N   UNL     1     138.253  70.907 224.466 -0.10 +0.07    -0.323 N  
DOCKED: ATOM     11  H   UNL     1     138.012  71.876 224.771 -0.30 -0.07    +0.170 HD 
DOCKED: BRANCH   9  12
DOCKED: ATOM     12  C   UNL     1     140.037  70.837 226.186 -0.49 -0.01    +0.051 A  
DOCKED: ATOM     13  S   UNL     1     140.019  70.358 227.803 -0.66 +0.02    -0.142 S  
DOCKED: ATOM     14  C   UNL     1     140.934  71.900 226.069 -0.57 -0.00    +0.022 A  
DOCKED: ATOM     15  C   UNL     1     141.130  71.487 228.360 -0.66 -0.01    +0.065 A  
DOCKED: ATOM     16  C   UNL     1     141.539  72.258 227.280 -0.76 -0.00    +0.012 A  
DOCKED: ENDBRANCH   9  12
DOCKED: ENDBRANCH   4   5
DOCKED: ENDBRANCH   2   4
DOCKED: ENDBRANCH   1   2
DOCKED: BRANCH   1  17
DOCKED: ATOM     17  C   UNL     1     136.712  74.509 222.327 -0.16 +0.01    -0.039 A  
DOCKED: ATOM     18  C   UNL     1     138.049  74.344 221.934 -0.18 -0.00    +0.005 A  
DOCKED: ATOM     19  C   UNL     1     136.297  75.740 222.857 -0.24 -0.00    +0.005 A  
DOCKED: ATOM     20  C   UNL     1     138.956  75.402 222.056 -0.29 -0.00    +0.009 A  
DOCKED: ATOM     21  C   UNL     1     137.203  76.798 222.979 -0.23 -0.00    +0.009 A  
DOCKED: ATOM     22  C   UNL     1     138.544  76.640 222.581 -0.30 +0.00    -0.017 A  
DOCKED: BRANCH  22  23
DOCKED: ATOM     23  C   UNL     1     139.512  77.758 222.727 -0.32 -0.00    +0.000 A  
DOCKED: ATOM     24  C   UNL     1     139.107  78.996 223.257 -0.29 -0.02    +0.120 A  
DOCKED: ATOM     25  C   UNL     1     140.856  77.604 222.347 -0.43 -0.00    +0.012 A  
DOCKED: ATOM     26  N   UNL     1     140.002  80.010 223.394 -0.24 +0.04    -0.251 NA 
DOCKED: ATOM     27  C   UNL     1     141.755  78.661 222.498 -0.46 -0.02    +0.034 A  
DOCKED: ATOM     28  C   UNL     1     141.305  79.880 223.023 -0.42 -0.04    +0.144 A  
DOCKED: BRANCH  28  29
DOCKED: ATOM     29  C   UNL     1     142.260  81.020 223.219 -0.26 -0.08    +0.433 C  
DOCKED: ATOM     30  F   UNL     1     143.558  80.551 223.151 -0.25 +0.04    -0.165 F  
DOCKED: ATOM     31  F   UNL     1     142.067  81.970 222.232 -0.12 +0.03    -0.165 F  
DOCKED: ATOM     32  F   UNL     1     142.060  81.614 224.453 -0.21 +0.01    -0.165 F  
DOCKED: ENDBRANCH  28  29
DOCKED: ENDBRANCH  22  23
DOCKED: ENDBRANCH   1  17
DOCKED: TORSDOF 7
DOCKED: TER
DOCKED: ENDMDL
________________________________________________________________________________


    FINAL DOCKED STATE:
    ________________________


Run:   16 / 20
Time taken for this run:   0.050s

DOCKED: MODEL        16
DOCKED: USER    Run = 16
DOCKED: USER
DOCKED: USER    Estimated Free Energy of Binding    =  -7.47 kcal/mol  [=(1)+(2)+(3)-(4)]
DOCKED: USER
DOCKED: USER    (1) Final Intermolecular Energy     =  -9.55 kcal/mol
DOCKED: USER        vdW + Hbond + desolv Energy     =  -9.56 kcal/mol
DOCKED: USER        Electrostatic Energy            =  +0.00 kcal/mol
DOCKED: USER        Moving Ligand-Fixed Receptor    =  -9.55 kcal/mol
DOCKED: USER        Moving Ligand-Moving Receptor   =  +0.00 kcal/mol
DOCKED: USER    (2) Final Total Internal Energy     =  -1.68 kcal/mol
DOCKED: USER    (3) Torsional Free Energy           =  +2.09 kcal/mol
DOCKED: USER    (4) Unbound System's Energy         =  -1.68 kcal/mol
DOCKED: USER
DOCKED: USER
DOCKED: REMARK SMILES O=C(Cc1ccc(-c2ccc(C(F)(F)F)nc2)cc1)/N=c1\nccc(-c2cccs2)[nH]1
DOCKED: REMARK SMILES IDX 3 1 2 2 1 3 20 4 21 5 23 6 22 7 24 8 25 9 31 10 26 12 30 13
DOCKED: REMARK SMILES IDX 27 14 29 15 28 16 4 17 5 18 19 19 6 20 18 21 7 22 8 23 17 24
DOCKED: REMARK SMILES IDX 9 25 16 26 10 27 11 28 12 29 13 30 14 31 15 32
DOCKED: REMARK H PARENT 31 11
DOCKED: USER                              x       y       z     vdW  Elec       q    Type
DOCKED: USER                           _______ _______ _______ _____ _____    ______ ____
DOCKED: ROOT
DOCKED: ATOM      1  C   UNL     1     135.748  73.360 222.204 -0.08 -0.03    +0.138 C  
DOCKED: ENDROOT
DOCKED: BRANCH   1   2
DOCKED: ATOM      2  C   UNL     1     136.075  72.333 223.243 -0.11 -0.06    +0.253 C  
DOCKED: ATOM      3  O   UNL     1     135.907  72.607 224.462 -0.15 +0.06    -0.272 OA 
DOCKED: BRANCH   2   4
DOCKED: ATOM      4  N   UNL     1     136.586  71.054 222.829 -0.08 +0.03    -0.177 NA 
DOCKED: BRANCH   4   5
DOCKED: ATOM      5  C   UNL     1     137.522  70.357 223.407 -0.13 -0.04    +0.230 A  
DOCKED: ATOM      6  C   UNL     1     138.787  68.365 223.594 -0.25 -0.02    +0.117 A  
DOCKED: ATOM      7  N   UNL     1     137.810  69.092 222.997 -0.10 +0.03    -0.221 NA 
DOCKED: ATOM      8  C   UNL     1     139.519  68.912 224.643 -0.32 -0.01    +0.048 A  
DOCKED: ATOM      9  C   UNL     1     139.228  70.219 225.063 -0.36 -0.01    +0.060 A  
DOCKED: ATOM     10  N   UNL     1     138.229  70.909 224.435 -0.10 +0.07    -0.323 N  
DOCKED: ATOM     11  H   UNL     1     137.982  71.876 224.743 -0.30 -0.07    +0.170 HD 
DOCKED: BRANCH   9  12
DOCKED: ATOM     12  C   UNL     1     140.001  70.838 226.167 -0.48 -0.01    +0.051 A  
DOCKED: ATOM     13  S   UNL     1     139.945  70.375 227.788 -0.65 +0.02    -0.142 S  
DOCKED: ATOM     14  C   UNL     1     140.918  71.884 226.056 -0.58 -0.00    +0.022 A  
DOCKED: ATOM     15  C   UNL     1     141.066  71.490 228.354 -0.68 -0.01    +0.065 A  
DOCKED: ATOM     16  C   UNL     1     141.507  72.244 227.275 -0.78 -0.00    +0.012 A  
DOCKED: ENDBRANCH   9  12
DOCKED: ENDBRANCH   4   5
DOCKED: ENDBRANCH   2   4
DOCKED: ENDBRANCH   1   2
DOCKED: BRANCH   1  17
DOCKED: ATOM     17  C   UNL     1     136.723  74.504 222.276 -0.16 +0.01    -0.039 A  
DOCKED: ATOM     18  C   UNL     1     138.056  74.323 221.878 -0.18 -0.00    +0.005 A  
DOCKED: ATOM     19  C   UNL     1     136.325  75.740 222.806 -0.23 -0.00    +0.005 A  
DOCKED: ATOM     20  C   UNL     1     138.976  75.370 221.994 -0.29 -0.00    +0.009 A  
DOCKED: ATOM     21  C   UNL     1     137.244  76.788 222.924 -0.24 -0.00    +0.009 A  
DOCKED: ATOM     22  C   UNL     1     138.581  76.613 222.520 -0.30 +0.00    -0.017 A  
DOCKED: BRANCH  22  23
DOCKED: ATOM     23  C   UNL     1     139.563  77.720 222.662 -0.32 -0.00    +0.000 A  
DOCKED: ATOM     24  C   UNL     1     140.913  77.533 222.318 -0.36 -0.05    +0.120 A  
DOCKED: ATOM     25  C   UNL     1     139.164  78.982 223.135 -0.35 -0.00    +0.012 A  
DOCKED: ATOM     26  N   UNL     1     141.802  78.553 222.444 -0.27 +0.13    -0.251 NA 
DOCKED: ATOM     27  C   UNL     1     140.096  80.013 223.254 -0.41 -0.01    +0.034 A  
DOCKED: ATOM     28  C   UNL     1     141.434  79.779 222.907 -0.42 -0.04    +0.144 A  
DOCKED: BRANCH  28  29
DOCKED: ATOM     29  C   UNL     1     142.447  80.881 223.003 -0.26 -0.10    +0.433 C  
DOCKED: ATOM     30  F   UNL     1     142.359  81.482 224.245 -0.24 +0.02    -0.165 F  
DOCKED: ATOM     31  F   UNL     1     143.720  80.367 222.836 -0.24 +0.05    -0.165 F  
DOCKED: ATOM     32  F   UNL     1     142.220  81.835 222.026 -0.11 +0.03    -0.165 F  
DOCKED: ENDBRANCH  28  29
DOCKED: ENDBRANCH  22  23
DOCKED: ENDBRANCH   1  17
DOCKED: TORSDOF 7
DOCKED: TER
DOCKED: ENDMDL
________________________________________________________________________________


    FINAL DOCKED STATE:
    ________________________


Run:   17 / 20
Time taken for this run:   0.050s

DOCKED: MODEL        17
DOCKED: USER    Run = 17
DOCKED: USER
DOCKED: USER    Estimated Free Energy of Binding    =  -6.18 kcal/mol  [=(1)+(2)+(3)-(4)]
DOCKED: USER
DOCKED: USER    (1) Final Intermolecular Energy     =  -8.26 kcal/mol
DOCKED: USER        vdW + Hbond + desolv Energy     =  -8.15 kcal/mol
DOCKED: USER        Electrostatic Energy            =  -0.11 kcal/mol
DOCKED: USER        Moving Ligand-Fixed Receptor    =  -8.26 kcal/mol
DOCKED: USER        Moving Ligand-Moving Receptor   =  +0.00 kcal/mol
DOCKED: USER    (2) Final Total Internal Energy     =  -2.68 kcal/mol
DOCKED: USER    (3) Torsional Free Energy           =  +2.09 kcal/mol
DOCKED: USER    (4) Unbound System's Energy         =  -2.68 kcal/mol
DOCKED: USER
DOCKED: USER
DOCKED: REMARK SMILES O=C(Cc1ccc(-c2ccc(C(F)(F)F)nc2)cc1)/N=c1\nccc(-c2cccs2)[nH]1
DOCKED: REMARK SMILES IDX 3 1 2 2 1 3 20 4 21 5 23 6 22 7 24 8 25 9 31 10 26 12 30 13
DOCKED: REMARK SMILES IDX 27 14 29 15 28 16 4 17 5 18 19 19 6 20 18 21 7 22 8 23 17 24
DOCKED: REMARK SMILES IDX 9 25 16 26 10 27 11 28 12 29 13 30 14 31 15 32
DOCKED: REMARK H PARENT 31 11
DOCKED: USER                              x       y       z     vdW  Elec       q    Type
DOCKED: USER                           _______ _______ _______ _____ _____    ______ ____
DOCKED: ROOT
DOCKED: ATOM      1  C   UNL     1     141.162  74.706 219.516 -0.10 -0.04    +0.138 C  
DOCKED: ENDROOT
DOCKED: BRANCH   1   2
DOCKED: ATOM      2  C   UNL     1     141.469  74.242 220.907 -0.18 -0.05    +0.253 C  
DOCKED: ATOM      3  O   UNL     1     142.529  73.597 221.128 -0.17 +0.05    -0.272 OA 
DOCKED: BRANCH   2   4
DOCKED: ATOM      4  N   UNL     1     140.539  74.534 221.964 -0.74 +0.01    -0.177 NA 
DOCKED: BRANCH   4   5
DOCKED: ATOM      5  C   UNL     1     139.998  75.686 222.239 -0.19 -0.04    +0.230 A  
DOCKED: ATOM      6  C   UNL     1     138.081  77.022 222.620 -0.25 -0.02    +0.117 A  
DOCKED: ATOM      7  N   UNL     1     138.648  75.824 222.330 -0.23 +0.05    -0.221 NA 
DOCKED: ATOM      8  C   UNL     1     138.885  78.137 222.836 -0.27 -0.01    +0.048 A  
DOCKED: ATOM      9  C   UNL     1     140.277  77.996 222.750 -0.36 -0.01    +0.060 A  
DOCKED: ATOM     10  N   UNL     1     140.801  76.770 222.447 -0.23 +0.10    -0.323 N  
DOCKED: ATOM     11  H   UNL     1     141.834  76.645 222.358 -0.49 -0.12    +0.170 HD 
DOCKED: BRANCH   9  12
DOCKED: ATOM     12  C   UNL     1     141.163  79.161 222.991 -0.48 -0.01    +0.051 A  
DOCKED: ATOM     13  S   UNL     1     140.660  80.695 223.480 -0.49 +0.02    -0.142 S  
DOCKED: ATOM     14  C   UNL     1     142.553  79.186 222.880 -0.53 -0.01    +0.022 A  
DOCKED: ATOM     15  C   UNL     1     142.185  81.395 223.546 -0.54 -0.01    +0.065 A  
DOCKED: ATOM     16  C   UNL     1     143.118  80.431 223.189 -0.64 -0.00    +0.012 A  
DOCKED: ENDBRANCH   9  12
DOCKED: ENDBRANCH   4   5
DOCKED: ENDBRANCH   2   4
DOCKED: ENDBRANCH   1   2
DOCKED: BRANCH   1  17
DOCKED: ATOM     17  C   UNL     1     141.097  76.208 219.470 -0.14 +0.01    -0.039 A  
DOCKED: ATOM     18  C   UNL     1     142.260  76.973 219.645 -0.32 -0.00    +0.005 A  
DOCKED: ATOM     19  C   UNL     1     139.862  76.858 219.320 -0.08 -0.00    +0.005 A  
DOCKED: ATOM     20  C   UNL     1     142.191  78.369 219.656 -0.23 -0.01    +0.009 A  
DOCKED: ATOM     21  C   UNL     1     139.792  78.254 219.331 -0.08 -0.00    +0.009 A  
DOCKED: ATOM     22  C   UNL     1     140.957  79.026 219.501 -0.19 +0.01    -0.017 A  
DOCKED: BRANCH  22  23
DOCKED: ATOM     23  C   UNL     1     140.882  80.510 219.531 -0.20 -0.00    +0.000 A  
DOCKED: ATOM     24  C   UNL     1     139.851  81.165 220.227 -0.11 -0.03    +0.120 A  
DOCKED: ATOM     25  C   UNL     1     141.843  81.294 218.871 -0.28 -0.01    +0.012 A  
DOCKED: ATOM     26  N   UNL     1     139.795  82.522 220.254 -0.08 +0.05    -0.251 NA 
DOCKED: ATOM     27  C   UNL     1     141.764  82.687 218.915 -0.18 -0.01    +0.034 A  
DOCKED: ATOM     28  C   UNL     1     140.714  83.297 219.614 -0.16 -0.04    +0.144 A  
DOCKED: BRANCH  28  29
DOCKED: ATOM     29  C   UNL     1     140.624  84.792 219.696 -0.05 -0.10    +0.433 C  
DOCKED: ATOM     30  F   UNL     1     141.458  85.357 218.750 -0.04 +0.04    -0.165 F  
DOCKED: ATOM     31  F   UNL     1     139.324  85.200 219.459 -0.02 +0.03    -0.165 F  
DOCKED: ATOM     32  F   UNL     1     141.006  85.233 220.952 -0.10 +0.03    -0.165 F  
DOCKED: ENDBRANCH  28  29
DOCKED: ENDBRANCH  22  23
DOCKED: ENDBRANCH   1  17
DOCKED: TORSDOF 7
DOCKED: TER
DOCKED: ENDMDL
________________________________________________________________________________


    FINAL DOCKED STATE:
    ________________________


Run:   18 / 20
Time taken for this run:   0.050s

DOCKED: MODEL        18
DOCKED: USER    Run = 18
DOCKED: USER
DOCKED: USER    Estimated Free Energy of Binding    =  -6.11 kcal/mol  [=(1)+(2)+(3)-(4)]
DOCKED: USER
DOCKED: USER    (1) Final Intermolecular Energy     =  -8.19 kcal/mol
DOCKED: USER        vdW + Hbond + desolv Energy     =  -8.10 kcal/mol
DOCKED: USER        Electrostatic Energy            =  -0.09 kcal/mol
DOCKED: USER        Moving Ligand-Fixed Receptor    =  -8.19 kcal/mol
DOCKED: USER        Moving Ligand-Moving Receptor   =  +0.00 kcal/mol
DOCKED: USER    (2) Final Total Internal Energy     =  -2.69 kcal/mol
DOCKED: USER    (3) Torsional Free Energy           =  +2.09 kcal/mol
DOCKED: USER    (4) Unbound System's Energy         =  -2.69 kcal/mol
DOCKED: USER
DOCKED: USER
DOCKED: REMARK SMILES O=C(Cc1ccc(-c2ccc(C(F)(F)F)nc2)cc1)/N=c1\nccc(-c2cccs2)[nH]1
DOCKED: REMARK SMILES IDX 3 1 2 2 1 3 20 4 21 5 23 6 22 7 24 8 25 9 31 10 26 12 30 13
DOCKED: REMARK SMILES IDX 27 14 29 15 28 16 4 17 5 18 19 19 6 20 18 21 7 22 8 23 17 24
DOCKED: REMARK SMILES IDX 9 25 16 26 10 27 11 28 12 29 13 30 14 31 15 32
DOCKED: REMARK H PARENT 31 11
DOCKED: USER                              x       y       z     vdW  Elec       q    Type
DOCKED: USER                           _______ _______ _______ _____ _____    ______ ____
DOCKED: ROOT
DOCKED: ATOM      1  C   UNL     1     141.201  74.752 219.494 -0.10 -0.04    +0.138 C  
DOCKED: ENDROOT
DOCKED: BRANCH   1   2
DOCKED: ATOM      2  C   UNL     1     141.494  74.280 220.885 -0.19 -0.05    +0.253 C  
DOCKED: ATOM      3  O   UNL     1     142.562  73.652 221.117 -0.17 +0.05    -0.272 OA 
DOCKED: BRANCH   2   4
DOCKED: ATOM      4  N   UNL     1     140.543  74.545 221.930 -0.72 +0.01    -0.177 NA 
DOCKED: BRANCH   4   5
DOCKED: ATOM      5  C   UNL     1     140.004  75.693 222.231 -0.19 -0.04    +0.230 A  
DOCKED: ATOM      6  C   UNL     1     138.092  77.021 222.656 -0.25 -0.02    +0.117 A  
DOCKED: ATOM      7  N   UNL     1     138.656  75.829 222.338 -0.23 +0.05    -0.221 NA 
DOCKED: ATOM      8  C   UNL     1     138.898  78.133 222.883 -0.26 -0.01    +0.048 A  
DOCKED: ATOM      9  C   UNL     1     140.289  77.992 222.780 -0.35 -0.01    +0.060 A  
DOCKED: ATOM     10  N   UNL     1     140.810  76.772 222.450 -0.23 +0.11    -0.323 N  
DOCKED: ATOM     11  H   UNL     1     141.842  76.649 222.348 -0.49 -0.12    +0.170 HD 
DOCKED: BRANCH   9  12
DOCKED: ATOM     12  C   UNL     1     141.178  79.154 223.032 -0.48 -0.01    +0.051 A  
DOCKED: ATOM     13  S   UNL     1     140.674  80.696 223.493 -0.49 +0.02    -0.142 S  
DOCKED: ATOM     14  C   UNL     1     142.571  79.167 222.958 -0.52 -0.01    +0.022 A  
DOCKED: ATOM     15  C   UNL     1     142.203  81.385 223.593 -0.54 -0.01    +0.065 A  
DOCKED: ATOM     16  C   UNL     1     143.137  80.410 223.270 -0.64 -0.00    +0.012 A  
DOCKED: ENDBRANCH   9  12
DOCKED: ENDBRANCH   4   5
DOCKED: ENDBRANCH   2   4
DOCKED: ENDBRANCH   1   2
DOCKED: BRANCH   1  17
DOCKED: ATOM     17  C   UNL     1     141.128  76.255 219.458 -0.15 +0.01    -0.039 A  
DOCKED: ATOM     18  C   UNL     1     142.277  77.025 219.698 -0.33 -0.00    +0.005 A  
DOCKED: ATOM     19  C   UNL     1     139.898  76.898 219.254 -0.07 -0.00    +0.005 A  
DOCKED: ATOM     20  C   UNL     1     142.199  78.421 219.717 -0.21 -0.01    +0.009 A  
DOCKED: ATOM     21  C   UNL     1     139.819  78.294 219.274 -0.08 -0.00    +0.009 A  
DOCKED: ATOM     22  C   UNL     1     140.969  79.071 219.507 -0.19 +0.01    -0.017 A  
DOCKED: BRANCH  22  23
DOCKED: ATOM     23  C   UNL     1     140.883  80.554 219.547 -0.20 -0.00    +0.000 A  
DOCKED: ATOM     24  C   UNL     1     141.801  81.348 218.837 -0.23 -0.06    +0.120 A  
DOCKED: ATOM     25  C   UNL     1     139.878  81.199 220.287 -0.14 -0.00    +0.012 A  
DOCKED: ATOM     26  N   UNL     1     141.710  82.704 218.873 -0.12 +0.09    -0.251 NA 
DOCKED: ATOM     27  C   UNL     1     139.805  82.593 220.308 -0.16 -0.01    +0.034 A  
DOCKED: ATOM     28  C   UNL     1     140.746  83.344 219.592 -0.16 -0.04    +0.144 A  
DOCKED: BRANCH  28  29
DOCKED: ATOM     29  C   UNL     1     140.670  84.842 219.579 -0.05 -0.10    +0.433 C  
DOCKED: ATOM     30  F   UNL     1     141.585  85.343 218.671 -0.03 +0.04    -0.165 F  
DOCKED: ATOM     31  F   UNL     1     139.399  85.246 219.213 -0.02 +0.04    -0.165 F  
DOCKED: ATOM     32  F   UNL     1     140.956  85.353 220.833 -0.09 +0.03    -0.165 F  
DOCKED: ENDBRANCH  28  29
DOCKED: ENDBRANCH  22  23
DOCKED: ENDBRANCH   1  17
DOCKED: TORSDOF 7
DOCKED: TER
DOCKED: ENDMDL
________________________________________________________________________________


    FINAL DOCKED STATE:
    ________________________


Run:   19 / 20
Time taken for this run:   0.050s

DOCKED: MODEL        19
DOCKED: USER    Run = 19
DOCKED: USER
DOCKED: USER    Estimated Free Energy of Binding    =  -6.55 kcal/mol  [=(1)+(2)+(3)-(4)]
DOCKED: USER
DOCKED: USER    (1) Final Intermolecular Energy     =  -8.64 kcal/mol
DOCKED: USER        vdW + Hbond + desolv Energy     =  -8.56 kcal/mol
DOCKED: USER        Electrostatic Energy            =  -0.08 kcal/mol
DOCKED: USER        Moving Ligand-Fixed Receptor    =  -8.64 kcal/mol
DOCKED: USER        Moving Ligand-Moving Receptor   =  +0.00 kcal/mol
DOCKED: USER    (2) Final Total Internal Energy     =  -2.29 kcal/mol
DOCKED: USER    (3) Torsional Free Energy           =  +2.09 kcal/mol
DOCKED: USER    (4) Unbound System's Energy         =  -2.29 kcal/mol
DOCKED: USER
DOCKED: USER
DOCKED: REMARK SMILES O=C(Cc1ccc(-c2ccc(C(F)(F)F)nc2)cc1)/N=c1\nccc(-c2cccs2)[nH]1
DOCKED: REMARK SMILES IDX 3 1 2 2 1 3 20 4 21 5 23 6 22 7 24 8 25 9 31 10 26 12 30 13
DOCKED: REMARK SMILES IDX 27 14 29 15 28 16 4 17 5 18 19 19 6 20 18 21 7 22 8 23 17 24
DOCKED: REMARK SMILES IDX 9 25 16 26 10 27 11 28 12 29 13 30 14 31 15 32
DOCKED: REMARK H PARENT 31 11
DOCKED: USER                              x       y       z     vdW  Elec       q    Type
DOCKED: USER                           _______ _______ _______ _____ _____    ______ ____
DOCKED: ROOT
DOCKED: ATOM      1  C   UNL     1     141.067  74.488 219.487 -0.09 -0.04    +0.138 C  
DOCKED: ENDROOT
DOCKED: BRANCH   1   2
DOCKED: ATOM      2  C   UNL     1     141.458  74.116 220.884 -0.18 -0.05    +0.253 C  
DOCKED: ATOM      3  O   UNL     1     142.540  73.501 221.084 -0.18 +0.04    -0.272 OA 
DOCKED: BRANCH   2   4
DOCKED: ATOM      4  N   UNL     1     140.583  74.460 221.972 -0.75 +0.01    -0.177 NA 
DOCKED: BRANCH   4   5
DOCKED: ATOM      5  C   UNL     1     140.039  75.620 222.207 -0.18 -0.04    +0.230 A  
DOCKED: ATOM      6  C   UNL     1     138.117  76.970 222.501 -0.24 -0.02    +0.117 A  
DOCKED: ATOM      7  N   UNL     1     138.687  75.765 222.252 -0.23 +0.05    -0.221 NA 
DOCKED: ATOM      8  C   UNL     1     138.919  78.086 222.720 -0.29 -0.01    +0.048 A  
DOCKED: ATOM      9  C   UNL     1     140.313  77.937 222.680 -0.37 -0.02    +0.060 A  
DOCKED: ATOM     10  N   UNL     1     140.840  76.703 222.418 -0.22 +0.11    -0.323 N  
DOCKED: ATOM     11  H   UNL     1     141.875  76.573 222.364 -0.50 -0.12    +0.170 HD 
DOCKED: BRANCH   9  12
DOCKED: ATOM     12  C   UNL     1     141.196  79.104 222.926 -0.47 -0.02    +0.051 A  
DOCKED: ATOM     13  S   UNL     1     140.698  80.615 223.486 -0.50 +0.02    -0.142 S  
DOCKED: ATOM     14  C   UNL     1     142.581  79.148 222.762 -0.50 -0.01    +0.022 A  
DOCKED: ATOM     15  C   UNL     1     142.218  81.329 223.517 -0.55 -0.01    +0.065 A  
DOCKED: ATOM     16  C   UNL     1     143.145  80.387 223.091 -0.64 -0.00    +0.012 A  
DOCKED: ENDBRANCH   9  12
DOCKED: ENDBRANCH   4   5
DOCKED: ENDBRANCH   2   4
DOCKED: ENDBRANCH   1   2
DOCKED: BRANCH   1  17
DOCKED: ATOM     17  C   UNL     1     141.298  75.956 219.254 -0.14 +0.01    -0.039 A  
DOCKED: ATOM     18  C   UNL     1     140.217  76.850 219.245 -0.09 -0.00    +0.005 A  
DOCKED: ATOM     19  C   UNL     1     142.588  76.433 218.975 -0.31 -0.00    +0.005 A  
DOCKED: ATOM     20  C   UNL     1     140.425  78.206 218.976 -0.10 -0.00    +0.009 A  
DOCKED: ATOM     21  C   UNL     1     142.797  77.789 218.705 -0.29 -0.01    +0.009 A  
DOCKED: ATOM     22  C   UNL     1     141.717  78.691 218.701 -0.24 +0.01    -0.017 A  
DOCKED: BRANCH  22  23
DOCKED: ATOM     23  C   UNL     1     141.935  80.129 218.396 -0.29 -0.00    +0.000 A  
DOCKED: ATOM     24  C   UNL     1     142.498  80.529 217.172 -0.17 -0.13    +0.120 A  
DOCKED: ATOM     25  C   UNL     1     141.577  81.125 219.321 -0.27 -0.01    +0.012 A  
DOCKED: ATOM     26  N   UNL     1     142.687  81.847 216.899 -0.17 +0.23    -0.251 NA 
DOCKED: ATOM     27  C   UNL     1     141.781  82.472 219.017 -0.20 -0.01    +0.034 A  
DOCKED: ATOM     28  C   UNL     1     142.353  82.823 217.787 -0.20 -0.07    +0.144 A  
DOCKED: BRANCH  28  29
DOCKED: ATOM     29  C   UNL     1     142.556  84.266 217.430 -0.05 -0.17    +0.433 C  
DOCKED: ATOM     30  F   UNL     1     141.861  85.064 218.318 -0.03 +0.05    -0.165 F  
DOCKED: ATOM     31  F   UNL     1     143.902  84.581 217.492 -0.12 +0.07    -0.165 F  
DOCKED: ATOM     32  F   UNL     1     142.099  84.517 216.147 -0.02 +0.06    -0.165 F  
DOCKED: ENDBRANCH  28  29
DOCKED: ENDBRANCH  22  23
DOCKED: ENDBRANCH   1  17
DOCKED: TORSDOF 7
DOCKED: TER
DOCKED: ENDMDL
________________________________________________________________________________


    FINAL DOCKED STATE:
    ________________________


Run:   20 / 20
Time taken for this run:   0.050s

DOCKED: MODEL        20
DOCKED: USER    Run = 20
DOCKED: USER
DOCKED: USER    Estimated Free Energy of Binding    =  -6.28 kcal/mol  [=(1)+(2)+(3)-(4)]
DOCKED: USER
DOCKED: USER    (1) Final Intermolecular Energy     =  -8.37 kcal/mol
DOCKED: USER        vdW + Hbond + desolv Energy     =  -8.22 kcal/mol
DOCKED: USER        Electrostatic Energy            =  -0.15 kcal/mol
DOCKED: USER        Moving Ligand-Fixed Receptor    =  -8.37 kcal/mol
DOCKED: USER        Moving Ligand-Moving Receptor   =  +0.00 kcal/mol
DOCKED: USER    (2) Final Total Internal Energy     =  -2.46 kcal/mol
DOCKED: USER    (3) Torsional Free Energy           =  +2.09 kcal/mol
DOCKED: USER    (4) Unbound System's Energy         =  -2.46 kcal/mol
DOCKED: USER
DOCKED: USER
DOCKED: REMARK SMILES O=C(Cc1ccc(-c2ccc(C(F)(F)F)nc2)cc1)/N=c1\nccc(-c2cccs2)[nH]1
DOCKED: REMARK SMILES IDX 3 1 2 2 1 3 20 4 21 5 23 6 22 7 24 8 25 9 31 10 26 12 30 13
DOCKED: REMARK SMILES IDX 27 14 29 15 28 16 4 17 5 18 19 19 6 20 18 21 7 22 8 23 17 24
DOCKED: REMARK SMILES IDX 9 25 16 26 10 27 11 28 12 29 13 30 14 31 15 32
DOCKED: REMARK H PARENT 31 11
DOCKED: USER                              x       y       z     vdW  Elec       q    Type
DOCKED: USER                           _______ _______ _______ _____ _____    ______ ____
DOCKED: ROOT
DOCKED: ATOM      1  C   UNL     1     141.579  73.752 219.415 -0.09 -0.03    +0.138 C  
DOCKED: ENDROOT
DOCKED: BRANCH   1   2
DOCKED: ATOM      2  C   UNL     1     141.883  73.512 220.862 -0.17 -0.04    +0.253 C  
DOCKED: ATOM      3  O   UNL     1     142.977  72.976 221.186 -0.15 +0.04    -0.272 OA 
DOCKED: BRANCH   2   4
DOCKED: ATOM      4  N   UNL     1     140.914  73.889 221.854 -0.61 +0.01    -0.177 NA 
DOCKED: BRANCH   4   5
DOCKED: ATOM      5  C   UNL     1     140.317  75.042 221.973 -0.17 -0.03    +0.230 A  
DOCKED: ATOM      6  C   UNL     1     138.342  76.346 221.984 -0.22 -0.03    +0.117 A  
DOCKED: ATOM      7  N   UNL     1     138.967  75.148 221.857 -0.25 +0.05    -0.221 NA 
DOCKED: ATOM      8  C   UNL     1     139.086  77.494 222.242 -0.28 -0.01    +0.048 A  
DOCKED: ATOM      9  C   UNL     1     140.478  77.385 222.368 -0.39 -0.02    +0.060 A  
DOCKED: ATOM     10  N   UNL     1     141.062  76.157 222.224 -0.20 +0.10    -0.323 N  
DOCKED: ATOM     11  H   UNL     1     142.100  76.055 222.295 -0.52 -0.13    +0.170 HD 
DOCKED: BRANCH   9  12
DOCKED: ATOM     12  C   UNL     1     141.298  78.586 222.660 -0.46 -0.02    +0.051 A  
DOCKED: ATOM     13  S   UNL     1     141.788  79.095 224.191 -0.53 +0.03    -0.142 S  
DOCKED: ATOM     14  C   UNL     1     141.822  79.482 221.727 -0.43 -0.01    +0.022 A  
DOCKED: ATOM     15  C   UNL     1     142.652  80.444 223.688 -0.62 -0.01    +0.065 A  
DOCKED: ATOM     16  C   UNL     1     142.574  80.514 222.304 -0.56 -0.00    +0.012 A  
DOCKED: ENDBRANCH   9  12
DOCKED: ENDBRANCH   4   5
DOCKED: ENDBRANCH   2   4
DOCKED: ENDBRANCH   1   2
DOCKED: BRANCH   1  17
DOCKED: ATOM     17  C   UNL     1     141.636  75.224 219.108 -0.13 +0.01    -0.039 A  
DOCKED: ATOM     18  C   UNL     1     142.839  75.931 219.256 -0.33 -0.00    +0.005 A  
DOCKED: ATOM     19  C   UNL     1     140.472  75.915 218.737 -0.07 -0.00    +0.005 A  
DOCKED: ATOM     20  C   UNL     1     142.881  77.309 219.023 -0.32 -0.01    +0.009 A  
DOCKED: ATOM     21  C   UNL     1     140.513  77.293 218.504 -0.08 -0.00    +0.009 A  
DOCKED: ATOM     22  C   UNL     1     141.719  78.006 218.645 -0.22 +0.01    -0.017 A  
DOCKED: BRANCH  22  23
DOCKED: ATOM     23  C   UNL     1     141.759  79.474 218.415 -0.26 -0.00    +0.000 A  
DOCKED: ATOM     24  C   UNL     1     140.639  80.278 218.692 -0.10 -0.05    +0.120 A  
DOCKED: ATOM     25  C   UNL     1     142.919  80.095 217.922 -0.28 -0.01    +0.012 A  
DOCKED: ATOM     26  N   UNL     1     140.689  81.620 218.486 -0.06 +0.09    -0.251 NA 
DOCKED: ATOM     27  C   UNL     1     142.944  81.476 217.718 -0.32 -0.03    +0.034 A  
DOCKED: ATOM     28  C   UNL     1     141.802  82.236 218.001 -0.18 -0.07    +0.144 A  
DOCKED: BRANCH  28  29
DOCKED: ATOM     29  C   UNL     1     141.816  83.724 217.815 -0.05 -0.16    +0.433 C  
DOCKED: ATOM     30  F   UNL     1     141.386  84.339 218.976 -0.04 +0.04    -0.165 F  
DOCKED: ATOM     31  F   UNL     1     143.100  84.150 217.523 -0.08 +0.07    -0.165 F  
DOCKED: ATOM     32  F   UNL     1     140.979  84.091 216.775 -0.01 +0.05    -0.165 F  
DOCKED: ENDBRANCH  28  29
DOCKED: ENDBRANCH  22  23
DOCKED: ENDBRANCH   1  17
DOCKED: TORSDOF 7
DOCKED: TER
DOCKED: ENDMDL
________________________________________________________________________________


    CLUSTERING HISTOGRAM
    ____________________


________________________________________________________________________________
     |           |     |           |     |
Clus | Lowest    | Run | Mean      | Num | Histogram
-ter | Binding   |     | Binding   | in  |
Rank | Energy    |     | Energy    | Clus|    5    10   15   20   25   30   35
_____|___________|_____|___________|_____|____:____|____:____|____:____|____:___
   1 |     -7.54 |  15 |     -7.42 |   3 |###
   2 |     -7.25 |   5 |     -7.25 |   1 |#
   3 |     -6.63 |  10 |     -6.44 |  13 |#############
   4 |     -6.08 |   6 |     -6.07 |   3 |###
_____|___________|_____|___________|_____|______________________________________


    RMSD TABLE
    __________


_______________________________________________________________________
     |      |      |           |         |                 |
Rank | Sub- | Run  | Binding   | Cluster | Reference       | Grep
     | Rank |      | Energy    | RMSD    | RMSD            | Pattern
_____|______|______|___________|_________|_________________|___________
   1      1     15       -7.54      0.00    271.41           RANKING
   1      2     16       -7.47      0.51    271.36           RANKING
   1      3      8       -7.24      0.57    271.38           RANKING
   2      1      5       -7.25      0.00    270.69           RANKING
   3      1     10       -6.63      0.00    270.88           RANKING
   3      2      4       -6.63      0.06    270.86           RANKING
   3      3     11       -6.62      0.05    270.87           RANKING
   3      4     13       -6.57      0.95    270.70           RANKING
   3      5     12       -6.56      0.99    270.72           RANKING
   3      6     19       -6.55      0.48    270.84           RANKING
   3      7      9       -6.53      1.00    270.76           RANKING
   3      8      7       -6.52      1.00    270.78           RANKING
   3      9      1       -6.41      0.55    270.72           RANKING
   3     10     20       -6.28      0.98    270.61           RANKING
   3     11     17       -6.18      1.22    271.15           RANKING
   3     12      2       -6.15      1.21    271.15           RANKING
   3     13     18       -6.11      1.19    271.17           RANKING
   4      1      6       -6.08      0.00    271.52           RANKING
   4      2      3       -6.07      0.76    271.38           RANKING
   4      3     14       -6.05      0.30    271.56           RANKING

Run time 0.949 sec
Idle time 0.000 sec
