AutoDock-GPU version: v1.6

**********************************************************
**    AutoDock-GPU AUTODOCKTOOLS-COMPATIBLE DLG FILE    **
**********************************************************


    DOCKING PARAMETERS
    ________________________


Ligand file:                               /home/a/REINVENT4/ReinventStudies/pleaseWork/justRnve/graph-dock-t2iv78/graph-DockGPU/node-autodockgpu/inputs/YNAOIZSFIBDHMX-KPKUSNSENA-N.pdbqt
Grid fld file:                             /home/a/REINVENT4/ReinventStudies/mols/Rad51/maps/rad51_receptor.maps.fld

Random seed:                               42
Number of runs:                            20
Number of energy evaluations:              1259779
Number of generations:                     42000
Size of population:                        150
Rate of crossover:                         80.000000%
Tournament selection probability limit:    60.000000%
Rate of mutation:                          2.000000%
Maximal allowed delta movement:            +/- 6.000000A
Maximal allowed delta angle:               +/- 90.000000

Rate of local search:                      100.000000%
Maximal number of local search iterations: 300
Rho lower bound:                           0.010000
Spread of local search delta movement:     2.000000A
Spread of local search delta angle:        74.999999
Limit of consecutive successes/failures:   4

Handle symmetry during clustering:         YES
RMSD tolerance:                            2.000000A

Program call in command line was:          /home/a/REINVENT4/ReinventStudies/adgpu-v1.6_linux_x64_cuda12_128wi --filelist batch.txt --heuristics 1 --nrun 20 --psize 150 --lsit 300 --seed 42 --heurmax 12000000 


    GRID PARAMETERS
    ________________________


Receptor name:                             rad51_receptor
Number of grid points (x, y, z):           53, 53, 53
Grid center (x, y, z):                     139.950000, 75.640000, 221.970000A
Grid size (x, y, z):                       19.500000, 19.500000, 19.500000A
Grid spacing:                              0.375000A


    LIGAND PARAMETERS
    ________________________


Ligand name:                               /home/a/REINVENT4/ReinventStudies/pleaseWork/justRnve/graph-dock-t2iv78/graph-DockGPU/node-autodockgpu/inputs/YNAOIZSFIBDHMX-KPKUSNSENA-N
Number of atoms:                           32
Number of rotatable bonds:                 7
Number of atom types:                      8


    DUMMY DATA (only for ADT-compatibility)
    ________________________


DPF> outlev 1
DPF> ga_run 20
DPF> fld /home/a/REINVENT4/ReinventStudies/mols/Rad51/maps/rad51_receptor.maps.fld
DPF> move /home/a/REINVENT4/ReinventStudies/pleaseWork/justRnve/graph-dock-t2iv78/graph-DockGPU/node-autodockgpu/inputs/YNAOIZSFIBDHMX-KPKUSNSENA-N.pdbqt


    COUNTER STATES
    ________________________


Number of energy evaluations performed:    630371
Number of generations used:                40


    INPUT LIGAND PDBQT FILE:
    ________________________


INPUT-LIGAND-PDBQT: REMARK SMILES O=C(Cc1ccc(-c2ccc(C(F)(F)F)nc2)cc1)/N=c1/nccc(-c2cccs2)[nH]1
INPUT-LIGAND-PDBQT: REMARK SMILES IDX 3 1 2 2 1 3 20 4 21 5 23 6 22 7 24 8 25 9 31 10 26 12 30 13
INPUT-LIGAND-PDBQT: REMARK SMILES IDX 27 14 29 15 28 16 4 17 5 18 19 19 6 20 18 21 7 22 8 23 17 24
INPUT-LIGAND-PDBQT: REMARK SMILES IDX 9 25 16 26 10 27 11 28 12 29 13 30 14 31 15 32
INPUT-LIGAND-PDBQT: REMARK H PARENT 31 11
INPUT-LIGAND-PDBQT: ROOT
INPUT-LIGAND-PDBQT: ATOM      1  C   UNL     1      -0.521  -0.454   2.610  1.00  0.00     0.138 C 
INPUT-LIGAND-PDBQT: ENDROOT
INPUT-LIGAND-PDBQT: BRANCH   1   2
INPUT-LIGAND-PDBQT: ATOM      2  C   UNL     1      -1.545   0.054   1.645  1.00  0.00     0.253 C 
INPUT-LIGAND-PDBQT: ATOM      3  O   UNL     1      -1.939   1.249   1.734  1.00  0.00    -0.272 OA
INPUT-LIGAND-PDBQT: BRANCH   2   4
INPUT-LIGAND-PDBQT: ATOM      4  N   UNL     1      -1.949  -0.782   0.549  1.00  0.00    -0.177 NA
INPUT-LIGAND-PDBQT: BRANCH   4   5
INPUT-LIGAND-PDBQT: ATOM      5  C   UNL     1      -3.070  -0.766  -0.118  1.00  0.00     0.230 A 
INPUT-LIGAND-PDBQT: ATOM      6  C   UNL     1      -4.319  -1.620  -1.938  1.00  0.00     0.117 A 
INPUT-LIGAND-PDBQT: ATOM      7  N   UNL     1      -3.184  -1.581  -1.197  1.00  0.00    -0.221 NA
INPUT-LIGAND-PDBQT: ATOM      8  C   UNL     1      -5.400  -0.816  -1.595  1.00  0.00     0.048 A 
INPUT-LIGAND-PDBQT: ATOM      9  C   UNL     1      -5.298   0.013  -0.468  1.00  0.00     0.060 A 
INPUT-LIGAND-PDBQT: ATOM     10  N   UNL     1      -4.135   0.013   0.253  1.00  0.00    -0.323 N 
INPUT-LIGAND-PDBQT: ATOM     11  H   UNL     1      -4.094   0.583   1.123  1.00  0.00     0.170 HD
INPUT-LIGAND-PDBQT: BRANCH   9  12
INPUT-LIGAND-PDBQT: ATOM     12  C   UNL     1      -6.434   0.879  -0.056  1.00  0.00     0.051 A 
INPUT-LIGAND-PDBQT: ATOM     13  S   UNL     1      -6.363   2.092   1.114  1.00  0.00    -0.142 S 
INPUT-LIGAND-PDBQT: ATOM     14  C   UNL     1      -7.736   0.854  -0.556  1.00  0.00     0.022 A 
INPUT-LIGAND-PDBQT: ATOM     15  C   UNL     1      -7.960   2.589   0.993  1.00  0.00     0.065 A 
INPUT-LIGAND-PDBQT: ATOM     16  C   UNL     1      -8.580   1.808   0.029  1.00  0.00     0.012 A 
INPUT-LIGAND-PDBQT: ENDBRANCH   9  12
INPUT-LIGAND-PDBQT: ENDBRANCH   4   5
INPUT-LIGAND-PDBQT: ENDBRANCH   2   4
INPUT-LIGAND-PDBQT: ENDBRANCH   1   2
INPUT-LIGAND-PDBQT: BRANCH   1  17
INPUT-LIGAND-PDBQT: ATOM     17  C   UNL     1       0.853  -0.353   2.008  1.00  0.00    -0.039 A 
INPUT-LIGAND-PDBQT: ATOM     18  C   UNL     1       1.402  -1.438   1.311  1.00  0.00     0.005 A 
INPUT-LIGAND-PDBQT: ATOM     19  C   UNL     1       1.575   0.847   2.091  1.00  0.00     0.005 A 
INPUT-LIGAND-PDBQT: ATOM     20  C   UNL     1       2.668  -1.335   0.728  1.00  0.00     0.009 A 
INPUT-LIGAND-PDBQT: ATOM     21  C   UNL     1       2.839   0.952   1.505  1.00  0.00     0.009 A 
INPUT-LIGAND-PDBQT: ATOM     22  C   UNL     1       3.402  -0.140   0.820  1.00  0.00    -0.017 A 
INPUT-LIGAND-PDBQT: BRANCH  22  23
INPUT-LIGAND-PDBQT: ATOM     23  C   UNL     1       4.751  -0.036   0.207  1.00  0.00     0.000 A 
INPUT-LIGAND-PDBQT: ATOM     24  C   UNL     1       5.159   1.139  -0.448  1.00  0.00     0.120 A 
INPUT-LIGAND-PDBQT: ATOM     25  C   UNL     1       5.656  -1.108   0.272  1.00  0.00     0.012 A 
INPUT-LIGAND-PDBQT: ATOM     26  N   UNL     1       6.396   1.219  -1.007  1.00  0.00    -0.251 NA
INPUT-LIGAND-PDBQT: ATOM     27  C   UNL     1       6.921  -0.999  -0.306  1.00  0.00     0.034 A 
INPUT-LIGAND-PDBQT: ATOM     28  C   UNL     1       7.280   0.186  -0.962  1.00  0.00     0.144 A 
INPUT-LIGAND-PDBQT: BRANCH  28  29
INPUT-LIGAND-PDBQT: ATOM     29  C   UNL     1       8.644   0.339  -1.567  1.00  0.00     0.433 C 
INPUT-LIGAND-PDBQT: ATOM     30  F   UNL     1       8.693   1.466  -2.368  1.00  0.00    -0.165 F 
INPUT-LIGAND-PDBQT: ATOM     31  F   UNL     1       8.946  -0.768  -2.341  1.00  0.00    -0.165 F 
INPUT-LIGAND-PDBQT: ATOM     32  F   UNL     1       9.582   0.461  -0.560  1.00  0.00    -0.165 F 
INPUT-LIGAND-PDBQT: ENDBRANCH  28  29
INPUT-LIGAND-PDBQT: ENDBRANCH  22  23
INPUT-LIGAND-PDBQT: ENDBRANCH   1  17
INPUT-LIGAND-PDBQT: TORSDOF 7


    FINAL DOCKED STATE:
    ________________________


Run:   1 / 20
Time taken for this run:   0.031s

DOCKED: MODEL        1
DOCKED: USER    Run = 1
DOCKED: USER
DOCKED: USER    Estimated Free Energy of Binding    =  -7.29 kcal/mol  [=(1)+(2)+(3)-(4)]
DOCKED: USER
DOCKED: USER    (1) Final Intermolecular Energy     =  -9.38 kcal/mol
DOCKED: USER        vdW + Hbond + desolv Energy     =  -9.36 kcal/mol
DOCKED: USER        Electrostatic Energy            =  -0.02 kcal/mol
DOCKED: USER        Moving Ligand-Fixed Receptor    =  -9.38 kcal/mol
DOCKED: USER        Moving Ligand-Moving Receptor   =  +0.00 kcal/mol
DOCKED: USER    (2) Final Total Internal Energy     =  -1.38 kcal/mol
DOCKED: USER    (3) Torsional Free Energy           =  +2.09 kcal/mol
DOCKED: USER    (4) Unbound System's Energy         =  -1.38 kcal/mol
DOCKED: USER
DOCKED: USER
DOCKED: REMARK SMILES O=C(Cc1ccc(-c2ccc(C(F)(F)F)nc2)cc1)/N=c1/nccc(-c2cccs2)[nH]1
DOCKED: REMARK SMILES IDX 3 1 2 2 1 3 20 4 21 5 23 6 22 7 24 8 25 9 31 10 26 12 30 13
DOCKED: REMARK SMILES IDX 27 14 29 15 28 16 4 17 5 18 19 19 6 20 18 21 7 22 8 23 17 24
DOCKED: REMARK SMILES IDX 9 25 16 26 10 27 11 28 12 29 13 30 14 31 15 32
DOCKED: REMARK H PARENT 31 11
DOCKED: USER                              x       y       z     vdW  Elec       q    Type
DOCKED: USER                           _______ _______ _______ _____ _____    ______ ____
DOCKED: ROOT
DOCKED: ATOM      1  C   UNL     1     138.901  74.537 220.768 -0.12 -0.03    +0.138 C  
DOCKED: ENDROOT
DOCKED: BRANCH   1   2
DOCKED: ATOM      2  C   UNL     1     140.210  74.293 221.450 -0.20 -0.04    +0.253 C  
DOCKED: ATOM      3  O   UNL     1     140.804  75.254 222.012 -0.58 +0.04    -0.272 OA 
DOCKED: BRANCH   2   4
DOCKED: ATOM      4  N   UNL     1     140.692  72.946 221.577 -0.27 +0.02    -0.177 NA 
DOCKED: BRANCH   4   5
DOCKED: ATOM      5  C   UNL     1     140.235  71.984 222.331 -0.22 -0.03    +0.230 A  
DOCKED: ATOM      6  C   UNL     1     138.990  69.976 222.464 -0.15 -0.02    +0.117 A  
DOCKED: ATOM      7  N   UNL     1     139.497  71.008 221.745 -0.09 +0.04    -0.221 NA 
DOCKED: ATOM      8  C   UNL     1     139.226  69.901 223.832 -0.28 -0.01    +0.048 A  
DOCKED: ATOM      9  C   UNL     1     140.007  70.894 224.441 -0.41 -0.01    +0.060 A  
DOCKED: ATOM     10  N   UNL     1     140.503  71.912 223.673 -0.20 +0.04    -0.323 N  
DOCKED: ATOM     11  H   UNL     1     141.134  72.608 224.123 +0.08 +0.01    +0.170 HD 
DOCKED: BRANCH   9  12
DOCKED: ATOM     12  C   UNL     1     140.297  70.846 225.898 -0.53 -0.01    +0.051 A  
DOCKED: ATOM     13  S   UNL     1     139.987  69.534 226.913 -0.60 +0.02    -0.142 S  
DOCKED: ATOM     14  C   UNL     1     140.873  71.851 226.675 -0.70 -0.00    +0.022 A  
DOCKED: ATOM     15  C   UNL     1     140.578  70.222 228.324 -0.52 -0.01    +0.065 A  
DOCKED: ATOM     16  C   UNL     1     141.029  71.498 228.023 -0.79 -0.00    +0.012 A  
DOCKED: ENDBRANCH   9  12
DOCKED: ENDBRANCH   4   5
DOCKED: ENDBRANCH   2   4
DOCKED: ENDBRANCH   1   2
DOCKED: BRANCH   1  17
DOCKED: ATOM     17  C   UNL     1     137.812  74.717 221.789 -0.18 +0.01    -0.039 A  
DOCKED: ATOM     18  C   UNL     1     136.999  73.635 222.155 -0.14 -0.00    +0.005 A  
DOCKED: ATOM     19  C   UNL     1     137.636  75.955 222.425 -0.27 -0.00    +0.005 A  
DOCKED: ATOM     20  C   UNL     1     136.004  73.795 223.123 -0.17 -0.00    +0.009 A  
DOCKED: ATOM     21  C   UNL     1     136.644  76.114 223.396 -0.24 -0.00    +0.009 A  
DOCKED: ATOM     22  C   UNL     1     135.814  75.036 223.754 -0.27 +0.00    -0.017 A  
DOCKED: BRANCH  22  23
DOCKED: ATOM     23  C   UNL     1     134.750  75.206 224.776 -0.33 -0.00    +0.000 A  
DOCKED: ATOM     24  C   UNL     1     134.401  74.152 225.638 -0.28 +0.00    +0.120 A  
DOCKED: ATOM     25  C   UNL     1     134.070  76.427 224.912 -0.23 -0.00    +0.012 A  
DOCKED: ATOM     26  N   UNL     1     133.423  74.321 226.568 -0.76 -0.02    -0.251 NA 
DOCKED: ATOM     27  C   UNL     1     133.073  76.576 225.877 -0.23 -0.00    +0.034 A  
DOCKED: ATOM     28  C   UNL     1     132.748  75.493 226.705 -0.28 -0.00    +0.144 A  
DOCKED: BRANCH  28  29
DOCKED: ATOM     29  C   UNL     1     131.700  75.636 227.769 -0.12 -0.00    +0.433 C  
DOCKED: ATOM     30  F   UNL     1     131.929  76.774 228.523 -0.10 -0.02    -0.165 F  
DOCKED: ATOM     31  F   UNL     1     131.725  74.536 228.609 -0.13 +0.02    -0.165 F  
DOCKED: ATOM     32  F   UNL     1     130.455  75.730 227.178 -0.05 +0.01    -0.165 F  
DOCKED: ENDBRANCH  28  29
DOCKED: ENDBRANCH  22  23
DOCKED: ENDBRANCH   1  17
DOCKED: TORSDOF 7
DOCKED: TER
DOCKED: ENDMDL
________________________________________________________________________________


    FINAL DOCKED STATE:
    ________________________


Run:   2 / 20
Time taken for this run:   0.031s

DOCKED: MODEL        2
DOCKED: USER    Run = 2
DOCKED: USER
DOCKED: USER    Estimated Free Energy of Binding    =  -6.16 kcal/mol  [=(1)+(2)+(3)-(4)]
DOCKED: USER
DOCKED: USER    (1) Final Intermolecular Energy     =  -8.25 kcal/mol
DOCKED: USER        vdW + Hbond + desolv Energy     =  -8.14 kcal/mol
DOCKED: USER        Electrostatic Energy            =  -0.11 kcal/mol
DOCKED: USER        Moving Ligand-Fixed Receptor    =  -8.25 kcal/mol
DOCKED: USER        Moving Ligand-Moving Receptor   =  +0.00 kcal/mol
DOCKED: USER    (2) Final Total Internal Energy     =  -2.63 kcal/mol
DOCKED: USER    (3) Torsional Free Energy           =  +2.09 kcal/mol
DOCKED: USER    (4) Unbound System's Energy         =  -2.63 kcal/mol
DOCKED: USER
DOCKED: USER
DOCKED: REMARK SMILES O=C(Cc1ccc(-c2ccc(C(F)(F)F)nc2)cc1)/N=c1/nccc(-c2cccs2)[nH]1
DOCKED: REMARK SMILES IDX 3 1 2 2 1 3 20 4 21 5 23 6 22 7 24 8 25 9 31 10 26 12 30 13
DOCKED: REMARK SMILES IDX 27 14 29 15 28 16 4 17 5 18 19 19 6 20 18 21 7 22 8 23 17 24
DOCKED: REMARK SMILES IDX 9 25 16 26 10 27 11 28 12 29 13 30 14 31 15 32
DOCKED: REMARK H PARENT 31 11
DOCKED: USER                              x       y       z     vdW  Elec       q    Type
DOCKED: USER                           _______ _______ _______ _____ _____    ______ ____
DOCKED: ROOT
DOCKED: ATOM      1  C   UNL     1     141.147  74.605 219.521 -0.10 -0.04    +0.138 C  
DOCKED: ENDROOT
DOCKED: BRANCH   1   2
DOCKED: ATOM      2  C   UNL     1     141.414  74.141 220.918 -0.18 -0.05    +0.253 C  
DOCKED: ATOM      3  O   UNL     1     142.498  73.550 221.177 -0.17 +0.04    -0.272 OA 
DOCKED: BRANCH   2   4
DOCKED: ATOM      4  N   UNL     1     140.500  74.508 221.964 -0.75 +0.01    -0.177 NA 
DOCKED: BRANCH   4   5
DOCKED: ATOM      5  C   UNL     1     140.019  75.686 222.249 -0.19 -0.04    +0.230 A  
DOCKED: ATOM      6  C   UNL     1     138.100  77.013 222.650 -0.25 -0.02    +0.117 A  
DOCKED: ATOM      7  N   UNL     1     138.673  75.819 222.354 -0.24 +0.05    -0.221 NA 
DOCKED: ATOM      8  C   UNL     1     138.897  78.133 222.857 -0.27 -0.01    +0.048 A  
DOCKED: ATOM      9  C   UNL     1     140.290  77.999 222.772 -0.35 -0.01    +0.060 A  
DOCKED: ATOM     10  N   UNL     1     140.823  76.773 222.478 -0.23 +0.11    -0.323 N  
DOCKED: ATOM     11  H   UNL     1     141.859  76.671 222.482 -0.48 -0.12    +0.170 HD 
DOCKED: BRANCH   9  12
DOCKED: ATOM     12  C   UNL     1     141.182  79.166 223.000 -0.48 -0.02    +0.051 A  
DOCKED: ATOM     13  S   UNL     1     140.676  80.702 223.481 -0.49 +0.02    -0.142 S  
DOCKED: ATOM     14  C   UNL     1     142.570  79.204 222.870 -0.53 -0.01    +0.022 A  
DOCKED: ATOM     15  C   UNL     1     142.193  81.414 223.530 -0.53 -0.01    +0.065 A  
DOCKED: ATOM     16  C   UNL     1     143.128  80.455 223.167 -0.64 -0.00    +0.012 A  
DOCKED: ENDBRANCH   9  12
DOCKED: ENDBRANCH   4   5
DOCKED: ENDBRANCH   2   4
DOCKED: ENDBRANCH   1   2
DOCKED: BRANCH   1  17
DOCKED: ATOM     17  C   UNL     1     141.094  76.107 219.475 -0.14 +0.01    -0.039 A  
DOCKED: ATOM     18  C   UNL     1     139.876  76.765 219.252 -0.07 -0.00    +0.005 A  
DOCKED: ATOM     19  C   UNL     1     142.251  76.863 219.710 -0.32 -0.00    +0.005 A  
DOCKED: ATOM     20  C   UNL     1     139.821  78.161 219.236 -0.08 -0.00    +0.009 A  
DOCKED: ATOM     21  C   UNL     1     142.197  78.259 219.698 -0.24 -0.01    +0.009 A  
DOCKED: ATOM     22  C   UNL     1     140.981  78.925 219.457 -0.19 +0.01    -0.017 A  
DOCKED: BRANCH  22  23
DOCKED: ATOM     23  C   UNL     1     140.921  80.409 219.431 -0.20 -0.00    +0.000 A  
DOCKED: ATOM     24  C   UNL     1     139.971  81.108 220.195 -0.11 -0.03    +0.120 A  
DOCKED: ATOM     25  C   UNL     1     141.818  81.151 218.646 -0.28 -0.01    +0.012 A  
DOCKED: ATOM     26  N   UNL     1     139.926  82.466 220.159 -0.08 +0.06    -0.251 NA 
DOCKED: ATOM     27  C   UNL     1     141.754  82.545 218.630 -0.22 -0.01    +0.034 A  
DOCKED: ATOM     28  C   UNL     1     140.781  83.200 219.396 -0.15 -0.04    +0.144 A  
DOCKED: BRANCH  28  29
DOCKED: ATOM     29  C   UNL     1     140.709  84.698 219.418 -0.04 -0.10    +0.433 C  
DOCKED: ATOM     30  F   UNL     1     141.653  85.239 218.564 -0.03 +0.04    -0.165 F  
DOCKED: ATOM     31  F   UNL     1     140.951  85.165 220.698 -0.08 +0.03    -0.165 F  
DOCKED: ATOM     32  F   UNL     1     139.451  85.104 219.015 -0.02 +0.04    -0.165 F  
DOCKED: ENDBRANCH  28  29
DOCKED: ENDBRANCH  22  23
DOCKED: ENDBRANCH   1  17
DOCKED: TORSDOF 7
DOCKED: TER
DOCKED: ENDMDL
________________________________________________________________________________


    FINAL DOCKED STATE:
    ________________________


Run:   3 / 20
Time taken for this run:   0.031s

DOCKED: MODEL        3
DOCKED: USER    Run = 3
DOCKED: USER
DOCKED: USER    Estimated Free Energy of Binding    =  -6.44 kcal/mol  [=(1)+(2)+(3)-(4)]
DOCKED: USER
DOCKED: USER    (1) Final Intermolecular Energy     =  -8.52 kcal/mol
DOCKED: USER        vdW + Hbond + desolv Energy     =  -8.37 kcal/mol
DOCKED: USER        Electrostatic Energy            =  -0.15 kcal/mol
DOCKED: USER        Moving Ligand-Fixed Receptor    =  -8.52 kcal/mol
DOCKED: USER        Moving Ligand-Moving Receptor   =  +0.00 kcal/mol
DOCKED: USER    (2) Final Total Internal Energy     =  -2.35 kcal/mol
DOCKED: USER    (3) Torsional Free Energy           =  +2.09 kcal/mol
DOCKED: USER    (4) Unbound System's Energy         =  -2.35 kcal/mol
DOCKED: USER
DOCKED: USER
DOCKED: REMARK SMILES O=C(Cc1ccc(-c2ccc(C(F)(F)F)nc2)cc1)/N=c1/nccc(-c2cccs2)[nH]1
DOCKED: REMARK SMILES IDX 3 1 2 2 1 3 20 4 21 5 23 6 22 7 24 8 25 9 31 10 26 12 30 13
DOCKED: REMARK SMILES IDX 27 14 29 15 28 16 4 17 5 18 19 19 6 20 18 21 7 22 8 23 17 24
DOCKED: REMARK SMILES IDX 9 25 16 26 10 27 11 28 12 29 13 30 14 31 15 32
DOCKED: REMARK H PARENT 31 11
DOCKED: USER                              x       y       z     vdW  Elec       q    Type
DOCKED: USER                           _______ _______ _______ _____ _____    ______ ____
DOCKED: ROOT
DOCKED: ATOM      1  C   UNL     1     141.073  74.177 219.511 -0.08 -0.03    +0.138 C  
DOCKED: ENDROOT
DOCKED: BRANCH   1   2
DOCKED: ATOM      2  C   UNL     1     141.436  73.918 220.939 -0.18 -0.05    +0.253 C  
DOCKED: ATOM      3  O   UNL     1     142.579  73.460 221.213 -0.16 +0.04    -0.272 OA 
DOCKED: BRANCH   2   4
DOCKED: ATOM      4  N   UNL     1     140.533  74.331 221.976 -0.76 +0.01    -0.177 NA 
DOCKED: BRANCH   4   5
DOCKED: ATOM      5  C   UNL     1     140.046  75.519 222.208 -0.13 -0.03    +0.230 A  
DOCKED: ATOM      6  C   UNL     1     138.120  76.856 222.526 -0.25 -0.02    +0.117 A  
DOCKED: ATOM      7  N   UNL     1     138.698  75.653 222.287 -0.24 +0.05    -0.221 NA 
DOCKED: ATOM      8  C   UNL     1     138.912  77.985 222.700 -0.29 -0.01    +0.048 A  
DOCKED: ATOM      9  C   UNL     1     140.307  77.851 222.641 -0.37 -0.02    +0.060 A  
DOCKED: ATOM     10  N   UNL     1     140.845  76.615 222.405 -0.22 +0.10    -0.323 N  
DOCKED: ATOM     11  H   UNL     1     141.881  76.516 222.427 -0.49 -0.12    +0.170 HD 
DOCKED: BRANCH   9  12
DOCKED: ATOM     12  C   UNL     1     141.193  79.028 222.835 -0.47 -0.02    +0.051 A  
DOCKED: ATOM     13  S   UNL     1     140.676  80.586 223.227 -0.49 +0.02    -0.142 S  
DOCKED: ATOM     14  C   UNL     1     142.585  79.059 222.740 -0.47 -0.01    +0.022 A  
DOCKED: ATOM     15  C   UNL     1     142.193  81.299 223.281 -0.53 -0.01    +0.065 A  
DOCKED: ATOM     16  C   UNL     1     143.136  80.324 222.991 -0.63 -0.00    +0.012 A  
DOCKED: ENDBRANCH   9  12
DOCKED: ENDBRANCH   4   5
DOCKED: ENDBRANCH   2   4
DOCKED: ENDBRANCH   1   2
DOCKED: BRANCH   1  17
DOCKED: ATOM     17  C   UNL     1     141.277  75.630 219.180 -0.13 +0.01    -0.039 A  
DOCKED: ATOM     18  C   UNL     1     140.179  76.451 218.890 -0.07 -0.00    +0.005 A  
DOCKED: ATOM     19  C   UNL     1     142.564  76.189 219.214 -0.31 -0.00    +0.005 A  
DOCKED: ATOM     20  C   UNL     1     140.366  77.807 218.610 -0.08 -0.00    +0.009 A  
DOCKED: ATOM     21  C   UNL     1     142.751  77.546 218.938 -0.31 -0.01    +0.009 A  
DOCKED: ATOM     22  C   UNL     1     141.654  78.370 218.628 -0.22 +0.01    -0.017 A  
DOCKED: BRANCH  22  23
DOCKED: ATOM     23  C   UNL     1     141.851  79.810 218.321 -0.28 -0.00    +0.000 A  
DOCKED: ATOM     24  C   UNL     1     141.610  80.796 219.294 -0.23 -0.06    +0.120 A  
DOCKED: ATOM     25  C   UNL     1     142.288  80.222 217.052 -0.20 -0.01    +0.012 A  
DOCKED: ATOM     26  N   UNL     1     141.792  82.111 218.998 -0.14 +0.10    -0.251 NA 
DOCKED: ATOM     27  C   UNL     1     142.471  81.577 216.775 -0.23 -0.03    +0.034 A  
DOCKED: ATOM     28  C   UNL     1     142.205  82.527 217.770 -0.21 -0.08    +0.144 A  
DOCKED: BRANCH  28  29
DOCKED: ATOM     29  C   UNL     1     142.421  83.988 217.507 -0.05 -0.18    +0.433 C  
DOCKED: ATOM     30  F   UNL     1     141.817  84.750 218.491 -0.02 +0.05    -0.165 F  
DOCKED: ATOM     31  F   UNL     1     141.877  84.334 216.282 -0.02 +0.06    -0.165 F  
DOCKED: ATOM     32  F   UNL     1     143.776  84.257 217.497 -0.12 +0.07    -0.165 F  
DOCKED: ENDBRANCH  28  29
DOCKED: ENDBRANCH  22  23
DOCKED: ENDBRANCH   1  17
DOCKED: TORSDOF 7
DOCKED: TER
DOCKED: ENDMDL
________________________________________________________________________________


    FINAL DOCKED STATE:
    ________________________


Run:   4 / 20
Time taken for this run:   0.031s

DOCKED: MODEL        4
DOCKED: USER    Run = 4
DOCKED: USER
DOCKED: USER    Estimated Free Energy of Binding    =  -6.48 kcal/mol  [=(1)+(2)+(3)-(4)]
DOCKED: USER
DOCKED: USER    (1) Final Intermolecular Energy     =  -8.56 kcal/mol
DOCKED: USER        vdW + Hbond + desolv Energy     =  -8.50 kcal/mol
DOCKED: USER        Electrostatic Energy            =  -0.07 kcal/mol
DOCKED: USER        Moving Ligand-Fixed Receptor    =  -8.56 kcal/mol
DOCKED: USER        Moving Ligand-Moving Receptor   =  +0.00 kcal/mol
DOCKED: USER    (2) Final Total Internal Energy     =  -2.34 kcal/mol
DOCKED: USER    (3) Torsional Free Energy           =  +2.09 kcal/mol
DOCKED: USER    (4) Unbound System's Energy         =  -2.34 kcal/mol
DOCKED: USER
DOCKED: USER
DOCKED: REMARK SMILES O=C(Cc1ccc(-c2ccc(C(F)(F)F)nc2)cc1)/N=c1/nccc(-c2cccs2)[nH]1
DOCKED: REMARK SMILES IDX 3 1 2 2 1 3 20 4 21 5 23 6 22 7 24 8 25 9 31 10 26 12 30 13
DOCKED: REMARK SMILES IDX 27 14 29 15 28 16 4 17 5 18 19 19 6 20 18 21 7 22 8 23 17 24
DOCKED: REMARK SMILES IDX 9 25 16 26 10 27 11 28 12 29 13 30 14 31 15 32
DOCKED: REMARK H PARENT 31 11
DOCKED: USER                              x       y       z     vdW  Elec       q    Type
DOCKED: USER                           _______ _______ _______ _____ _____    ______ ____
DOCKED: ROOT
DOCKED: ATOM      1  C   UNL     1     141.073  74.239 219.518 -0.08 -0.03    +0.138 C  
DOCKED: ENDROOT
DOCKED: BRANCH   1   2
DOCKED: ATOM      2  C   UNL     1     141.410  73.929 220.942 -0.18 -0.05    +0.253 C  
DOCKED: ATOM      3  O   UNL     1     142.534  73.426 221.215 -0.17 +0.04    -0.272 OA 
DOCKED: BRANCH   2   4
DOCKED: ATOM      4  N   UNL     1     140.509  74.345 221.981 -0.76 +0.01    -0.177 NA 
DOCKED: BRANCH   4   5
DOCKED: ATOM      5  C   UNL     1     140.024  75.534 222.211 -0.14 -0.03    +0.230 A  
DOCKED: ATOM      6  C   UNL     1     138.098  76.878 222.509 -0.25 -0.02    +0.117 A  
DOCKED: ATOM      7  N   UNL     1     138.675  75.674 222.272 -0.23 +0.05    -0.221 NA 
DOCKED: ATOM      8  C   UNL     1     138.892  78.003 222.699 -0.29 -0.01    +0.048 A  
DOCKED: ATOM      9  C   UNL     1     140.288  77.863 222.659 -0.37 -0.02    +0.060 A  
DOCKED: ATOM     10  N   UNL     1     140.824  76.626 222.424 -0.22 +0.10    -0.323 N  
DOCKED: ATOM     11  H   UNL     1     141.859  76.522 222.461 -0.49 -0.12    +0.170 HD 
DOCKED: BRANCH   9  12
DOCKED: ATOM     12  C   UNL     1     141.176  79.036 222.872 -0.47 -0.02    +0.051 A  
DOCKED: ATOM     13  S   UNL     1     140.686  80.537 223.465 -0.51 +0.02    -0.142 S  
DOCKED: ATOM     14  C   UNL     1     142.548  79.107 222.633 -0.48 -0.01    +0.022 A  
DOCKED: ATOM     15  C   UNL     1     142.191  81.275 223.426 -0.56 -0.01    +0.065 A  
DOCKED: ATOM     16  C   UNL     1     143.108  80.353 222.945 -0.62 -0.00    +0.012 A  
DOCKED: ENDBRANCH   9  12
DOCKED: ENDBRANCH   4   5
DOCKED: ENDBRANCH   2   4
DOCKED: ENDBRANCH   1   2
DOCKED: BRANCH   1  17
DOCKED: ATOM     17  C   UNL     1     141.284  75.702 219.242 -0.13 +0.01    -0.039 A  
DOCKED: ATOM     18  C   UNL     1     142.578  76.208 219.058 -0.30 -0.00    +0.005 A  
DOCKED: ATOM     19  C   UNL     1     140.184  76.563 219.112 -0.08 -0.00    +0.005 A  
DOCKED: ATOM     20  C   UNL     1     142.772  77.563 218.775 -0.32 -0.01    +0.009 A  
DOCKED: ATOM     21  C   UNL     1     140.377  77.917 218.824 -0.09 -0.00    +0.009 A  
DOCKED: ATOM     22  C   UNL     1     141.675  78.433 218.657 -0.23 +0.01    -0.017 A  
DOCKED: BRANCH  22  23
DOCKED: ATOM     23  C   UNL     1     141.885  79.874 218.365 -0.28 -0.00    +0.000 A  
DOCKED: ATOM     24  C   UNL     1     142.355  80.296 217.109 -0.16 -0.13    +0.120 A  
DOCKED: ATOM     25  C   UNL     1     141.613  80.853 219.334 -0.28 -0.01    +0.012 A  
DOCKED: ATOM     26  N   UNL     1     142.545  81.619 216.856 -0.15 +0.23    -0.251 NA 
DOCKED: ATOM     27  C   UNL     1     141.813  82.204 219.049 -0.22 -0.01    +0.034 A  
DOCKED: ATOM     28  C   UNL     1     142.297  82.578 217.788 -0.21 -0.08    +0.144 A  
DOCKED: BRANCH  28  29
DOCKED: ATOM     29  C   UNL     1     142.493  84.025 217.446 -0.06 -0.18    +0.433 C  
DOCKED: ATOM     30  F   UNL     1     141.840  84.830 218.361 -0.03 +0.05    -0.165 F  
DOCKED: ATOM     31  F   UNL     1     141.987  84.287 216.185 -0.02 +0.06    -0.165 F  
DOCKED: ATOM     32  F   UNL     1     143.842  84.323 217.467 -0.13 +0.07    -0.165 F  
DOCKED: ENDBRANCH  28  29
DOCKED: ENDBRANCH  22  23
DOCKED: ENDBRANCH   1  17
DOCKED: TORSDOF 7
DOCKED: TER
DOCKED: ENDMDL
________________________________________________________________________________


    FINAL DOCKED STATE:
    ________________________


Run:   5 / 20
Time taken for this run:   0.031s

DOCKED: MODEL        5
DOCKED: USER    Run = 5
DOCKED: USER
DOCKED: USER    Estimated Free Energy of Binding    =  -6.16 kcal/mol  [=(1)+(2)+(3)-(4)]
DOCKED: USER
DOCKED: USER    (1) Final Intermolecular Energy     =  -8.25 kcal/mol
DOCKED: USER        vdW + Hbond + desolv Energy     =  -8.27 kcal/mol
DOCKED: USER        Electrostatic Energy            =  +0.02 kcal/mol
DOCKED: USER        Moving Ligand-Fixed Receptor    =  -8.25 kcal/mol
DOCKED: USER        Moving Ligand-Moving Receptor   =  +0.00 kcal/mol
DOCKED: USER    (2) Final Total Internal Energy     =  -2.44 kcal/mol
DOCKED: USER    (3) Torsional Free Energy           =  +2.09 kcal/mol
DOCKED: USER    (4) Unbound System's Energy         =  -2.44 kcal/mol
DOCKED: USER
DOCKED: USER
DOCKED: REMARK SMILES O=C(Cc1ccc(-c2ccc(C(F)(F)F)nc2)cc1)/N=c1/nccc(-c2cccs2)[nH]1
DOCKED: REMARK SMILES IDX 3 1 2 2 1 3 20 4 21 5 23 6 22 7 24 8 25 9 31 10 26 12 30 13
DOCKED: REMARK SMILES IDX 27 14 29 15 28 16 4 17 5 18 19 19 6 20 18 21 7 22 8 23 17 24
DOCKED: REMARK SMILES IDX 9 25 16 26 10 27 11 28 12 29 13 30 14 31 15 32
DOCKED: REMARK H PARENT 31 11
DOCKED: USER                              x       y       z     vdW  Elec       q    Type
DOCKED: USER                           _______ _______ _______ _____ _____    ______ ____
DOCKED: ROOT
DOCKED: ATOM      1  C   UNL     1     141.449  73.664 219.991 -0.13 -0.03    +0.138 C  
DOCKED: ENDROOT
DOCKED: BRANCH   1   2
DOCKED: ATOM      2  C   UNL     1     140.448  73.506 221.091 -0.16 -0.04    +0.253 C  
DOCKED: ATOM      3  O   UNL     1     139.668  72.514 221.080 -0.09 +0.05    -0.272 OA 
DOCKED: BRANCH   2   4
DOCKED: ATOM      4  N   UNL     1     140.492  74.403 222.212 -0.68 -0.01    -0.177 NA 
DOCKED: BRANCH   4   5
DOCKED: ATOM      5  C   UNL     1     139.940  75.579 222.337 -0.15 -0.03    +0.230 A  
DOCKED: ATOM      6  C   UNL     1     137.940  76.841 222.437 -0.24 -0.02    +0.117 A  
DOCKED: ATOM      7  N   UNL     1     138.585  75.655 222.311 -0.23 +0.05    -0.221 NA 
DOCKED: ATOM      8  C   UNL     1     138.669  78.014 222.600 -0.27 -0.01    +0.048 A  
DOCKED: ATOM      9  C   UNL     1     140.069  77.941 222.649 -0.35 -0.01    +0.060 A  
DOCKED: ATOM     10  N   UNL     1     140.675  76.720 222.525 -0.22 +0.09    -0.323 N  
DOCKED: ATOM     11  H   UNL     1     141.710  76.670 222.628 -0.41 -0.10    +0.170 HD 
DOCKED: BRANCH   9  12
DOCKED: ATOM     12  C   UNL     1     140.888  79.167 222.836 -0.43 -0.01    +0.051 A  
DOCKED: ATOM     13  S   UNL     1     142.560  79.200 223.061 -0.54 +0.06    -0.142 S  
DOCKED: ATOM     14  C   UNL     1     140.437  80.487 222.851 -0.39 -0.00    +0.022 A  
DOCKED: ATOM     15  C   UNL     1     142.720  80.866 223.173 -0.55 -0.01    +0.065 A  
DOCKED: ATOM     16  C   UNL     1     141.459  81.428 223.037 -0.50 -0.00    +0.012 A  
DOCKED: ENDBRANCH   9  12
DOCKED: ENDBRANCH   4   5
DOCKED: ENDBRANCH   2   4
DOCKED: ENDBRANCH   1   2
DOCKED: BRANCH   1  17
DOCKED: ATOM     17  C   UNL     1     141.585  75.114 219.619 -0.17 +0.01    -0.039 A  
DOCKED: ATOM     18  C   UNL     1     140.468  75.841 219.184 -0.09 -0.00    +0.005 A  
DOCKED: ATOM     19  C   UNL     1     142.819  75.767 219.757 -0.35 -0.00    +0.005 A  
DOCKED: ATOM     20  C   UNL     1     140.589  77.196 218.864 -0.10 -0.00    +0.009 A  
DOCKED: ATOM     21  C   UNL     1     142.939  77.122 219.441 -0.32 -0.01    +0.009 A  
DOCKED: ATOM     22  C   UNL     1     141.826  77.852 218.987 -0.25 +0.01    -0.017 A  
DOCKED: BRANCH  22  23
DOCKED: ATOM     23  C   UNL     1     141.953  79.290 218.638 -0.29 -0.00    +0.000 A  
DOCKED: ATOM     24  C   UNL     1     142.397  79.689 217.365 -0.20 -0.12    +0.120 A  
DOCKED: ATOM     25  C   UNL     1     141.628  80.289 219.570 -0.29 -0.01    +0.012 A  
DOCKED: ATOM     26  N   UNL     1     142.511  81.009 217.060 -0.16 +0.26    -0.251 NA 
DOCKED: ATOM     27  C   UNL     1     141.750  81.637 219.231 -0.24 -0.01    +0.034 A  
DOCKED: ATOM     28  C   UNL     1     142.210  81.988 217.955 -0.23 -0.08    +0.144 A  
DOCKED: BRANCH  28  29
DOCKED: ATOM     29  C   UNL     1     142.323  83.430 217.557 -0.07 -0.20    +0.433 C  
DOCKED: ATOM     30  F   UNL     1     143.653  83.802 217.464 -0.13 +0.09    -0.165 F  
DOCKED: ATOM     31  F   UNL     1     141.704  84.232 218.499 -0.04 +0.05    -0.165 F  
DOCKED: ATOM     32  F   UNL     1     141.717  83.616 216.329 -0.02 +0.07    -0.165 F  
DOCKED: ENDBRANCH  28  29
DOCKED: ENDBRANCH  22  23
DOCKED: ENDBRANCH   1  17
DOCKED: TORSDOF 7
DOCKED: TER
DOCKED: ENDMDL
________________________________________________________________________________


    FINAL DOCKED STATE:
    ________________________


Run:   6 / 20
Time taken for this run:   0.031s

DOCKED: MODEL        6
DOCKED: USER    Run = 6
DOCKED: USER
DOCKED: USER    Estimated Free Energy of Binding    =  -6.47 kcal/mol  [=(1)+(2)+(3)-(4)]
DOCKED: USER
DOCKED: USER    (1) Final Intermolecular Energy     =  -8.56 kcal/mol
DOCKED: USER        vdW + Hbond + desolv Energy     =  -8.54 kcal/mol
DOCKED: USER        Electrostatic Energy            =  -0.02 kcal/mol
DOCKED: USER        Moving Ligand-Fixed Receptor    =  -8.56 kcal/mol
DOCKED: USER        Moving Ligand-Moving Receptor   =  +0.00 kcal/mol
DOCKED: USER    (2) Final Total Internal Energy     =  -2.43 kcal/mol
DOCKED: USER    (3) Torsional Free Energy           =  +2.09 kcal/mol
DOCKED: USER    (4) Unbound System's Energy         =  -2.43 kcal/mol
DOCKED: USER
DOCKED: USER
DOCKED: REMARK SMILES O=C(Cc1ccc(-c2ccc(C(F)(F)F)nc2)cc1)/N=c1/nccc(-c2cccs2)[nH]1
DOCKED: REMARK SMILES IDX 3 1 2 2 1 3 20 4 21 5 23 6 22 7 24 8 25 9 31 10 26 12 30 13
DOCKED: REMARK SMILES IDX 27 14 29 15 28 16 4 17 5 18 19 19 6 20 18 21 7 22 8 23 17 24
DOCKED: REMARK SMILES IDX 9 25 16 26 10 27 11 28 12 29 13 30 14 31 15 32
DOCKED: REMARK H PARENT 31 11
DOCKED: USER                              x       y       z     vdW  Elec       q    Type
DOCKED: USER                           _______ _______ _______ _____ _____    ______ ____
DOCKED: ROOT
DOCKED: ATOM      1  C   UNL     1     141.404  73.636 220.067 -0.14 -0.03    +0.138 C  
DOCKED: ENDROOT
DOCKED: BRANCH   1   2
DOCKED: ATOM      2  C   UNL     1     140.396  73.451 221.156 -0.17 -0.04    +0.253 C  
DOCKED: ATOM      3  O   UNL     1     139.645  72.437 221.137 -0.09 +0.05    -0.272 OA 
DOCKED: BRANCH   2   4
DOCKED: ATOM      4  N   UNL     1     140.402  74.350 222.276 -0.71 -0.01    -0.177 NA 
DOCKED: BRANCH   4   5
DOCKED: ATOM      5  C   UNL     1     139.954  75.573 222.341 -0.14 -0.03    +0.230 A  
DOCKED: ATOM      6  C   UNL     1     138.083  77.019 222.240 -0.22 -0.02    +0.117 A  
DOCKED: ATOM      7  N   UNL     1     138.622  75.776 222.183 -0.22 +0.05    -0.221 NA 
DOCKED: ATOM      8  C   UNL     1     138.900  78.120 222.469 -0.27 -0.01    +0.048 A  
DOCKED: ATOM      9  C   UNL     1     140.275  77.917 222.655 -0.37 -0.02    +0.060 A  
DOCKED: ATOM     10  N   UNL     1     140.772  76.643 222.596 -0.21 +0.09    -0.323 N  
DOCKED: ATOM     11  H   UNL     1     141.782  76.498 222.800 -0.44 -0.10    +0.170 HD 
DOCKED: BRANCH   9  12
DOCKED: ATOM     12  C   UNL     1     141.184  79.064 222.916 -0.47 -0.02    +0.051 A  
DOCKED: ATOM     13  S   UNL     1     140.706  80.580 223.479 -0.51 +0.02    -0.142 S  
DOCKED: ATOM     14  C   UNL     1     142.570  79.093 222.756 -0.49 -0.01    +0.022 A  
DOCKED: ATOM     15  C   UNL     1     142.233  81.273 223.526 -0.56 -0.01    +0.065 A  
DOCKED: ATOM     16  C   UNL     1     143.148  80.323 223.098 -0.64 -0.00    +0.012 A  
DOCKED: ENDBRANCH   9  12
DOCKED: ENDBRANCH   4   5
DOCKED: ENDBRANCH   2   4
DOCKED: ENDBRANCH   1   2
DOCKED: BRANCH   1  17
DOCKED: ATOM     17  C   UNL     1     141.544  75.095 219.733 -0.18 +0.01    -0.039 A  
DOCKED: ATOM     18  C   UNL     1     142.756  75.760 219.959 -0.34 -0.00    +0.005 A  
DOCKED: ATOM     19  C   UNL     1     140.479  75.790 219.139 -0.09 -0.00    +0.005 A  
DOCKED: ATOM     20  C   UNL     1     142.894  77.110 219.624 -0.30 -0.01    +0.009 A  
DOCKED: ATOM     21  C   UNL     1     140.617  77.138 218.800 -0.10 -0.00    +0.009 A  
DOCKED: ATOM     22  C   UNL     1     141.826  77.815 219.042 -0.25 +0.01    -0.017 A  
DOCKED: BRANCH  22  23
DOCKED: ATOM     23  C   UNL     1     141.973  79.251 218.694 -0.29 -0.00    +0.000 A  
DOCKED: ATOM     24  C   UNL     1     142.438  79.645 217.427 -0.21 -0.12    +0.120 A  
DOCKED: ATOM     25  C   UNL     1     141.644  80.254 219.621 -0.29 -0.01    +0.012 A  
DOCKED: ATOM     26  N   UNL     1     142.570  80.964 217.124 -0.17 +0.27    -0.251 NA 
DOCKED: ATOM     27  C   UNL     1     141.785  81.600 219.283 -0.24 -0.01    +0.034 A  
DOCKED: ATOM     28  C   UNL     1     142.266  81.946 218.014 -0.22 -0.09    +0.144 A  
DOCKED: BRANCH  28  29
DOCKED: ATOM     29  C   UNL     1     142.400  83.386 217.616 -0.07 -0.20    +0.433 C  
DOCKED: ATOM     30  F   UNL     1     141.780  84.203 218.545 -0.03 +0.05    -0.165 F  
DOCKED: ATOM     31  F   UNL     1     141.810  83.593 216.381 -0.02 +0.07    -0.165 F  
DOCKED: ATOM     32  F   UNL     1     143.738  83.721 217.544 -0.13 +0.09    -0.165 F  
DOCKED: ENDBRANCH  28  29
DOCKED: ENDBRANCH  22  23
DOCKED: ENDBRANCH   1  17
DOCKED: TORSDOF 7
DOCKED: TER
DOCKED: ENDMDL
________________________________________________________________________________


    FINAL DOCKED STATE:
    ________________________


Run:   7 / 20
Time taken for this run:   0.031s

DOCKED: MODEL        7
DOCKED: USER    Run = 7
DOCKED: USER
DOCKED: USER    Estimated Free Energy of Binding    =  -6.38 kcal/mol  [=(1)+(2)+(3)-(4)]
DOCKED: USER
DOCKED: USER    (1) Final Intermolecular Energy     =  -8.46 kcal/mol
DOCKED: USER        vdW + Hbond + desolv Energy     =  -8.32 kcal/mol
DOCKED: USER        Electrostatic Energy            =  -0.14 kcal/mol
DOCKED: USER        Moving Ligand-Fixed Receptor    =  -8.46 kcal/mol
DOCKED: USER        Moving Ligand-Moving Receptor   =  +0.00 kcal/mol
DOCKED: USER    (2) Final Total Internal Energy     =  -2.36 kcal/mol
DOCKED: USER    (3) Torsional Free Energy           =  +2.09 kcal/mol
DOCKED: USER    (4) Unbound System's Energy         =  -2.36 kcal/mol
DOCKED: USER
DOCKED: USER
DOCKED: REMARK SMILES O=C(Cc1ccc(-c2ccc(C(F)(F)F)nc2)cc1)/N=c1/nccc(-c2cccs2)[nH]1
DOCKED: REMARK SMILES IDX 3 1 2 2 1 3 20 4 21 5 23 6 22 7 24 8 25 9 31 10 26 12 30 13
DOCKED: REMARK SMILES IDX 27 14 29 15 28 16 4 17 5 18 19 19 6 20 18 21 7 22 8 23 17 24
DOCKED: REMARK SMILES IDX 9 25 16 26 10 27 11 28 12 29 13 30 14 31 15 32
DOCKED: REMARK H PARENT 31 11
DOCKED: USER                              x       y       z     vdW  Elec       q    Type
DOCKED: USER                           _______ _______ _______ _____ _____    ______ ____
DOCKED: ROOT
DOCKED: ATOM      1  C   UNL     1     141.110  74.363 219.524 -0.09 -0.04    +0.138 C  
DOCKED: ENDROOT
DOCKED: BRANCH   1   2
DOCKED: ATOM      2  C   UNL     1     141.449  74.041 220.944 -0.18 -0.05    +0.253 C  
DOCKED: ATOM      3  O   UNL     1     142.574  73.536 221.212 -0.16 +0.04    -0.272 OA 
DOCKED: BRANCH   2   4
DOCKED: ATOM      4  N   UNL     1     140.549  74.446 221.988 -0.75 +0.01    -0.177 NA 
DOCKED: BRANCH   4   5
DOCKED: ATOM      5  C   UNL     1     140.050  75.629 222.220 -0.17 -0.03    +0.230 A  
DOCKED: ATOM      6  C   UNL     1     138.109  76.952 222.510 -0.25 -0.02    +0.117 A  
DOCKED: ATOM      7  N   UNL     1     138.700  75.755 222.272 -0.23 +0.05    -0.221 NA 
DOCKED: ATOM      8  C   UNL     1     138.890  78.084 222.711 -0.29 -0.01    +0.048 A  
DOCKED: ATOM      9  C   UNL     1     140.287  77.958 222.680 -0.37 -0.02    +0.060 A  
DOCKED: ATOM     10  N   UNL     1     140.838  76.728 222.443 -0.22 +0.11    -0.323 N  
DOCKED: ATOM     11  H   UNL     1     141.874  76.635 222.486 -0.48 -0.12    +0.170 HD 
DOCKED: BRANCH   9  12
DOCKED: ATOM     12  C   UNL     1     141.162  79.140 222.902 -0.47 -0.02    +0.051 A  
DOCKED: ATOM     13  S   UNL     1     140.646  80.644 223.465 -0.50 +0.02    -0.142 S  
DOCKED: ATOM     14  C   UNL     1     142.540  79.217 222.700 -0.52 -0.01    +0.022 A  
DOCKED: ATOM     15  C   UNL     1     142.147  81.392 223.459 -0.53 -0.01    +0.065 A  
DOCKED: ATOM     16  C   UNL     1     143.083  80.470 223.013 -0.63 -0.00    +0.012 A  
DOCKED: ENDBRANCH   9  12
DOCKED: ENDBRANCH   4   5
DOCKED: ENDBRANCH   2   4
DOCKED: ENDBRANCH   1   2
DOCKED: BRANCH   1  17
DOCKED: ATOM     17  C   UNL     1     141.227  75.843 219.286 -0.13 +0.01    -0.039 A  
DOCKED: ATOM     18  C   UNL     1     142.488  76.450 219.211 -0.31 -0.00    +0.005 A  
DOCKED: ATOM     19  C   UNL     1     140.077  76.620 219.083 -0.07 -0.00    +0.005 A  
DOCKED: ATOM     20  C   UNL     1     142.598  77.822 218.964 -0.30 -0.01    +0.009 A  
DOCKED: ATOM     21  C   UNL     1     140.186  77.990 218.832 -0.08 -0.00    +0.009 A  
DOCKED: ATOM     22  C   UNL     1     141.449  78.608 218.773 -0.20 +0.01    -0.017 A  
DOCKED: BRANCH  22  23
DOCKED: ATOM     23  C   UNL     1     141.568  80.066 218.519 -0.24 -0.00    +0.000 A  
DOCKED: ATOM     24  C   UNL     1     140.627  80.971 219.042 -0.12 -0.04    +0.120 A  
DOCKED: ATOM     25  C   UNL     1     142.629  80.580 217.754 -0.32 -0.01    +0.012 A  
DOCKED: ATOM     26  N   UNL     1     140.748  82.303 218.798 -0.08 +0.08    -0.251 NA 
DOCKED: ATOM     27  C   UNL     1     142.732  81.951 217.523 -0.31 -0.03    +0.034 A  
DOCKED: ATOM     28  C   UNL     1     141.763  82.815 218.051 -0.17 -0.06    +0.144 A  
DOCKED: BRANCH  28  29
DOCKED: ATOM     29  C   UNL     1     141.866  84.296 217.841 -0.03 -0.14    +0.433 C  
DOCKED: ATOM     30  F   UNL     1     143.176  84.656 217.578 -0.06 +0.06    -0.165 F  
DOCKED: ATOM     31  F   UNL     1     141.441  84.967 218.975 -0.03 +0.04    -0.165 F  
DOCKED: ATOM     32  F   UNL     1     141.074  84.665 216.770 -0.01 +0.05    -0.165 F  
DOCKED: ENDBRANCH  28  29
DOCKED: ENDBRANCH  22  23
DOCKED: ENDBRANCH   1  17
DOCKED: TORSDOF 7
DOCKED: TER
DOCKED: ENDMDL
________________________________________________________________________________


    FINAL DOCKED STATE:
    ________________________


Run:   8 / 20
Time taken for this run:   0.031s

DOCKED: MODEL        8
DOCKED: USER    Run = 8
DOCKED: USER
DOCKED: USER    Estimated Free Energy of Binding    =  -6.14 kcal/mol  [=(1)+(2)+(3)-(4)]
DOCKED: USER
DOCKED: USER    (1) Final Intermolecular Energy     =  -8.23 kcal/mol
DOCKED: USER        vdW + Hbond + desolv Energy     =  -8.12 kcal/mol
DOCKED: USER        Electrostatic Energy            =  -0.11 kcal/mol
DOCKED: USER        Moving Ligand-Fixed Receptor    =  -8.23 kcal/mol
DOCKED: USER        Moving Ligand-Moving Receptor   =  +0.00 kcal/mol
DOCKED: USER    (2) Final Total Internal Energy     =  -2.64 kcal/mol
DOCKED: USER    (3) Torsional Free Energy           =  +2.09 kcal/mol
DOCKED: USER    (4) Unbound System's Energy         =  -2.64 kcal/mol
DOCKED: USER
DOCKED: USER
DOCKED: REMARK SMILES O=C(Cc1ccc(-c2ccc(C(F)(F)F)nc2)cc1)/N=c1/nccc(-c2cccs2)[nH]1
DOCKED: REMARK SMILES IDX 3 1 2 2 1 3 20 4 21 5 23 6 22 7 24 8 25 9 31 10 26 12 30 13
DOCKED: REMARK SMILES IDX 27 14 29 15 28 16 4 17 5 18 19 19 6 20 18 21 7 22 8 23 17 24
DOCKED: REMARK SMILES IDX 9 25 16 26 10 27 11 28 12 29 13 30 14 31 15 32
DOCKED: REMARK H PARENT 31 11
DOCKED: USER                              x       y       z     vdW  Elec       q    Type
DOCKED: USER                           _______ _______ _______ _____ _____    ______ ____
DOCKED: ROOT
DOCKED: ATOM      1  C   UNL     1     141.167  74.653 219.497 -0.10 -0.04    +0.138 C  
DOCKED: ENDROOT
DOCKED: BRANCH   1   2
DOCKED: ATOM      2  C   UNL     1     141.431  74.161 220.885 -0.18 -0.05    +0.253 C  
DOCKED: ATOM      3  O   UNL     1     142.514  73.564 221.134 -0.17 +0.04    -0.272 OA 
DOCKED: BRANCH   2   4
DOCKED: ATOM      4  N   UNL     1     140.515  74.507 221.936 -0.73 +0.01    -0.177 NA 
DOCKED: BRANCH   4   5
DOCKED: ATOM      5  C   UNL     1     140.028  75.678 222.240 -0.18 -0.04    +0.230 A  
DOCKED: ATOM      6  C   UNL     1     138.102  76.988 222.662 -0.25 -0.02    +0.117 A  
DOCKED: ATOM      7  N   UNL     1     138.681  75.802 222.348 -0.24 +0.05    -0.221 NA 
DOCKED: ATOM      8  C   UNL     1     138.893  78.109 222.886 -0.26 -0.01    +0.048 A  
DOCKED: ATOM      9  C   UNL     1     140.288  77.983 222.798 -0.34 -0.01    +0.060 A  
DOCKED: ATOM     10  N   UNL     1     140.826  76.765 222.485 -0.23 +0.11    -0.323 N  
DOCKED: ATOM     11  H   UNL     1     141.863  76.669 222.486 -0.48 -0.12    +0.170 HD 
DOCKED: BRANCH   9  12
DOCKED: ATOM     12  C   UNL     1     141.173  79.152 223.043 -0.48 -0.01    +0.051 A  
DOCKED: ATOM     13  S   UNL     1     140.653  80.698 223.475 -0.49 +0.02    -0.142 S  
DOCKED: ATOM     14  C   UNL     1     142.566  79.183 222.970 -0.53 -0.01    +0.022 A  
DOCKED: ATOM     15  C   UNL     1     142.170  81.405 223.575 -0.54 -0.01    +0.065 A  
DOCKED: ATOM     16  C   UNL     1     143.115  80.438 223.269 -0.64 -0.00    +0.012 A  
DOCKED: ENDBRANCH   9  12
DOCKED: ENDBRANCH   4   5
DOCKED: ENDBRANCH   2   4
DOCKED: ENDBRANCH   1   2
DOCKED: BRANCH   1  17
DOCKED: ATOM     17  C   UNL     1     141.103  76.155 219.484 -0.14 +0.01    -0.039 A  
DOCKED: ATOM     18  C   UNL     1     139.877  76.810 219.301 -0.07 -0.00    +0.005 A  
DOCKED: ATOM     19  C   UNL     1     142.261  76.914 219.709 -0.32 -0.00    +0.005 A  
DOCKED: ATOM     20  C   UNL     1     139.814  78.206 219.315 -0.08 -0.00    +0.009 A  
DOCKED: ATOM     21  C   UNL     1     142.198  78.309 219.727 -0.23 -0.01    +0.009 A  
DOCKED: ATOM     22  C   UNL     1     140.973  78.972 219.526 -0.19 +0.01    -0.017 A  
DOCKED: BRANCH  22  23
DOCKED: ATOM     23  C   UNL     1     140.904  80.456 219.533 -0.20 -0.00    +0.000 A  
DOCKED: ATOM     24  C   UNL     1     139.889  81.130 220.233 -0.11 -0.03    +0.120 A  
DOCKED: ATOM     25  C   UNL     1     141.857  81.223 218.843 -0.28 -0.01    +0.012 A  
DOCKED: ATOM     26  N   UNL     1     139.836  82.488 220.227 -0.08 +0.06    -0.251 NA 
DOCKED: ATOM     27  C   UNL     1     141.784  82.616 218.857 -0.19 -0.01    +0.034 A  
DOCKED: ATOM     28  C   UNL     1     140.745  83.246 219.556 -0.16 -0.04    +0.144 A  
DOCKED: BRANCH  28  29
DOCKED: ATOM     29  C   UNL     1     140.660  84.743 219.609 -0.05 -0.10    +0.433 C  
DOCKED: ATOM     30  F   UNL     1     141.487  85.307 218.655 -0.04 +0.04    -0.165 F  
DOCKED: ATOM     31  F   UNL     1     141.050  85.195 220.858 -0.09 +0.03    -0.165 F  
DOCKED: ATOM     32  F   UNL     1     139.358  85.137 219.368 -0.02 +0.04    -0.165 F  
DOCKED: ENDBRANCH  28  29
DOCKED: ENDBRANCH  22  23
DOCKED: ENDBRANCH   1  17
DOCKED: TORSDOF 7
DOCKED: TER
DOCKED: ENDMDL
________________________________________________________________________________


    FINAL DOCKED STATE:
    ________________________


Run:   9 / 20
Time taken for this run:   0.031s

DOCKED: MODEL        9
DOCKED: USER    Run = 9
DOCKED: USER
DOCKED: USER    Estimated Free Energy of Binding    =  -6.14 kcal/mol  [=(1)+(2)+(3)-(4)]
DOCKED: USER
DOCKED: USER    (1) Final Intermolecular Energy     =  -8.23 kcal/mol
DOCKED: USER        vdW + Hbond + desolv Energy     =  -8.12 kcal/mol
DOCKED: USER        Electrostatic Energy            =  -0.11 kcal/mol
DOCKED: USER        Moving Ligand-Fixed Receptor    =  -8.23 kcal/mol
DOCKED: USER        Moving Ligand-Moving Receptor   =  +0.00 kcal/mol
DOCKED: USER    (2) Final Total Internal Energy     =  -2.64 kcal/mol
DOCKED: USER    (3) Torsional Free Energy           =  +2.09 kcal/mol
DOCKED: USER    (4) Unbound System's Energy         =  -2.64 kcal/mol
DOCKED: USER
DOCKED: USER
DOCKED: REMARK SMILES O=C(Cc1ccc(-c2ccc(C(F)(F)F)nc2)cc1)/N=c1/nccc(-c2cccs2)[nH]1
DOCKED: REMARK SMILES IDX 3 1 2 2 1 3 20 4 21 5 23 6 22 7 24 8 25 9 31 10 26 12 30 13
DOCKED: REMARK SMILES IDX 27 14 29 15 28 16 4 17 5 18 19 19 6 20 18 21 7 22 8 23 17 24
DOCKED: REMARK SMILES IDX 9 25 16 26 10 27 11 28 12 29 13 30 14 31 15 32
DOCKED: REMARK H PARENT 31 11
DOCKED: USER                              x       y       z     vdW  Elec       q    Type
DOCKED: USER                           _______ _______ _______ _____ _____    ______ ____
DOCKED: ROOT
DOCKED: ATOM      1  C   UNL     1     141.135  74.632 219.512 -0.10 -0.04    +0.138 C  
DOCKED: ENDROOT
DOCKED: BRANCH   1   2
DOCKED: ATOM      2  C   UNL     1     141.406  74.160 220.905 -0.18 -0.05    +0.253 C  
DOCKED: ATOM      3  O   UNL     1     142.493  73.572 221.159 -0.17 +0.04    -0.272 OA 
DOCKED: BRANCH   2   4
DOCKED: ATOM      4  N   UNL     1     140.490  74.514 221.954 -0.75 +0.01    -0.177 NA 
DOCKED: BRANCH   4   5
DOCKED: ATOM      5  C   UNL     1     140.005  75.688 222.249 -0.19 -0.04    +0.230 A  
DOCKED: ATOM      6  C   UNL     1     138.081  77.001 222.670 -0.25 -0.02    +0.117 A  
DOCKED: ATOM      7  N   UNL     1     138.658  75.813 222.364 -0.23 +0.05    -0.221 NA 
DOCKED: ATOM      8  C   UNL     1     138.873  78.125 222.878 -0.26 -0.01    +0.048 A  
DOCKED: ATOM      9  C   UNL     1     140.267  77.999 222.783 -0.35 -0.01    +0.060 A  
DOCKED: ATOM     10  N   UNL     1     140.804  76.778 222.478 -0.23 +0.10    -0.323 N  
DOCKED: ATOM     11  H   UNL     1     141.840  76.682 222.474 -0.48 -0.12    +0.170 HD 
DOCKED: BRANCH   9  12
DOCKED: ATOM     12  C   UNL     1     141.153  79.171 223.011 -0.48 -0.01    +0.051 A  
DOCKED: ATOM     13  S   UNL     1     140.637  80.715 223.449 -0.49 +0.02    -0.142 S  
DOCKED: ATOM     14  C   UNL     1     142.544  79.205 222.914 -0.54 -0.01    +0.022 A  
DOCKED: ATOM     15  C   UNL     1     142.153  81.427 223.522 -0.53 -0.01    +0.065 A  
DOCKED: ATOM     16  C   UNL     1     143.096  80.461 223.201 -0.64 -0.00    +0.012 A  
DOCKED: ENDBRANCH   9  12
DOCKED: ENDBRANCH   4   5
DOCKED: ENDBRANCH   2   4
DOCKED: ENDBRANCH   1   2
DOCKED: BRANCH   1  17
DOCKED: ATOM     17  C   UNL     1     141.081  76.134 219.475 -0.14 +0.01    -0.039 A  
DOCKED: ATOM     18  C   UNL     1     139.865  76.793 219.248 -0.07 -0.00    +0.005 A  
DOCKED: ATOM     19  C   UNL     1     142.237  76.889 219.722 -0.32 -0.00    +0.005 A  
DOCKED: ATOM     20  C   UNL     1     139.810  78.189 219.241 -0.08 -0.00    +0.009 A  
DOCKED: ATOM     21  C   UNL     1     142.182  78.285 219.719 -0.23 -0.01    +0.009 A  
DOCKED: ATOM     22  C   UNL     1     140.967  78.952 219.474 -0.19 +0.01    -0.017 A  
DOCKED: BRANCH  22  23
DOCKED: ATOM     23  C   UNL     1     140.907  80.436 219.457 -0.20 -0.00    +0.000 A  
DOCKED: ATOM     24  C   UNL     1     139.933  81.129 220.197 -0.11 -0.03    +0.120 A  
DOCKED: ATOM     25  C   UNL     1     141.827  81.185 218.706 -0.28 -0.01    +0.012 A  
DOCKED: ATOM     26  N   UNL     1     139.889  82.487 220.170 -0.08 +0.06    -0.251 NA 
DOCKED: ATOM     27  C   UNL     1     141.763  82.578 218.698 -0.21 -0.01    +0.034 A  
DOCKED: ATOM     28  C   UNL     1     140.766  83.227 219.439 -0.15 -0.04    +0.144 A  
DOCKED: BRANCH  28  29
DOCKED: ATOM     29  C   UNL     1     140.692  84.725 219.470 -0.05 -0.10    +0.433 C  
DOCKED: ATOM     30  F   UNL     1     139.422  85.153 219.128 -0.02 +0.04    -0.165 F  
DOCKED: ATOM     31  F   UNL     1     141.597  85.263 218.571 -0.04 +0.04    -0.165 F  
DOCKED: ATOM     32  F   UNL     1     140.992  85.173 220.742 -0.08 +0.03    -0.165 F  
DOCKED: ENDBRANCH  28  29
DOCKED: ENDBRANCH  22  23
DOCKED: ENDBRANCH   1  17
DOCKED: TORSDOF 7
DOCKED: TER
DOCKED: ENDMDL
________________________________________________________________________________


    FINAL DOCKED STATE:
    ________________________


Run:   10 / 20
Time taken for this run:   0.031s

DOCKED: MODEL        10
DOCKED: USER    Run = 10
DOCKED: USER
DOCKED: USER    Estimated Free Energy of Binding    =  -6.41 kcal/mol  [=(1)+(2)+(3)-(4)]
DOCKED: USER
DOCKED: USER    (1) Final Intermolecular Energy     =  -8.50 kcal/mol
DOCKED: USER        vdW + Hbond + desolv Energy     =  -8.43 kcal/mol
DOCKED: USER        Electrostatic Energy            =  -0.07 kcal/mol
DOCKED: USER        Moving Ligand-Fixed Receptor    =  -8.50 kcal/mol
DOCKED: USER        Moving Ligand-Moving Receptor   =  +0.00 kcal/mol
DOCKED: USER    (2) Final Total Internal Energy     =  -2.39 kcal/mol
DOCKED: USER    (3) Torsional Free Energy           =  +2.09 kcal/mol
DOCKED: USER    (4) Unbound System's Energy         =  -2.39 kcal/mol
DOCKED: USER
DOCKED: USER
DOCKED: REMARK SMILES O=C(Cc1ccc(-c2ccc(C(F)(F)F)nc2)cc1)/N=c1/nccc(-c2cccs2)[nH]1
DOCKED: REMARK SMILES IDX 3 1 2 2 1 3 20 4 21 5 23 6 22 7 24 8 25 9 31 10 26 12 30 13
DOCKED: REMARK SMILES IDX 27 14 29 15 28 16 4 17 5 18 19 19 6 20 18 21 7 22 8 23 17 24
DOCKED: REMARK SMILES IDX 9 25 16 26 10 27 11 28 12 29 13 30 14 31 15 32
DOCKED: REMARK H PARENT 31 11
DOCKED: USER                              x       y       z     vdW  Elec       q    Type
DOCKED: USER                           _______ _______ _______ _____ _____    ______ ____
DOCKED: ROOT
DOCKED: ATOM      1  C   UNL     1     141.116  74.197 219.515 -0.09 -0.03    +0.138 C  
DOCKED: ENDROOT
DOCKED: BRANCH   1   2
DOCKED: ATOM      2  C   UNL     1     141.443  73.884 220.941 -0.18 -0.04    +0.253 C  
DOCKED: ATOM      3  O   UNL     1     142.565  73.379 221.221 -0.17 +0.04    -0.272 OA 
DOCKED: BRANCH   2   4
DOCKED: ATOM      4  N   UNL     1     140.535  74.297 221.974 -0.77 +0.01    -0.177 NA 
DOCKED: BRANCH   4   5
DOCKED: ATOM      5  C   UNL     1     140.046  75.485 222.202 -0.12 -0.03    +0.230 A  
DOCKED: ATOM      6  C   UNL     1     138.117  76.823 222.501 -0.25 -0.02    +0.117 A  
DOCKED: ATOM      7  N   UNL     1     138.698  75.620 222.266 -0.24 +0.05    -0.221 NA 
DOCKED: ATOM      8  C   UNL     1     138.907  77.951 222.685 -0.29 -0.01    +0.048 A  
DOCKED: ATOM      9  C   UNL     1     140.303  77.816 222.642 -0.36 -0.02    +0.060 A  
DOCKED: ATOM     10  N   UNL     1     140.843  76.581 222.410 -0.22 +0.10    -0.323 N  
DOCKED: ATOM     11  H   UNL     1     141.879  76.481 222.444 -0.49 -0.12    +0.170 HD 
DOCKED: BRANCH   9  12
DOCKED: ATOM     12  C   UNL     1     141.187  78.993 222.848 -0.47 -0.02    +0.051 A  
DOCKED: ATOM     13  S   UNL     1     140.699  80.485 223.467 -0.51 +0.02    -0.142 S  
DOCKED: ATOM     14  C   UNL     1     142.554  79.076 222.582 -0.45 -0.01    +0.022 A  
DOCKED: ATOM     15  C   UNL     1     142.199  81.234 223.405 -0.56 -0.01    +0.065 A  
DOCKED: ATOM     16  C   UNL     1     143.112  80.323 222.895 -0.61 -0.00    +0.012 A  
DOCKED: ENDBRANCH   9  12
DOCKED: ENDBRANCH   4   5
DOCKED: ENDBRANCH   2   4
DOCKED: ENDBRANCH   1   2
DOCKED: BRANCH   1  17
DOCKED: ATOM     17  C   UNL     1     141.316  75.664 219.248 -0.13 +0.01    -0.039 A  
DOCKED: ATOM     18  C   UNL     1     142.609  76.197 219.158 -0.31 -0.00    +0.005 A  
DOCKED: ATOM     19  C   UNL     1     140.211  76.500 219.032 -0.08 -0.00    +0.005 A  
DOCKED: ATOM     20  C   UNL     1     142.796  77.554 218.884 -0.31 -0.01    +0.009 A  
DOCKED: ATOM     21  C   UNL     1     140.397  77.857 218.753 -0.09 -0.00    +0.009 A  
DOCKED: ATOM     22  C   UNL     1     141.692  78.400 218.680 -0.23 +0.01    -0.017 A  
DOCKED: BRANCH  22  23
DOCKED: ATOM     23  C   UNL     1     141.893  79.845 218.397 -0.28 -0.00    +0.000 A  
DOCKED: ATOM     24  C   UNL     1     142.330  80.280 217.133 -0.17 -0.13    +0.120 A  
DOCKED: ATOM     25  C   UNL     1     141.645  80.813 219.383 -0.28 -0.01    +0.012 A  
DOCKED: ATOM     26  N   UNL     1     142.512  81.605 216.889 -0.15 +0.23    -0.251 NA 
DOCKED: ATOM     27  C   UNL     1     141.835  82.167 219.105 -0.20 -0.01    +0.034 A  
DOCKED: ATOM     28  C   UNL     1     142.286  82.554 217.837 -0.21 -0.08    +0.144 A  
DOCKED: BRANCH  28  29
DOCKED: ATOM     29  C   UNL     1     142.472  84.005 217.504 -0.05 -0.18    +0.433 C  
DOCKED: ATOM     30  F   UNL     1     141.982  84.277 216.239 -0.02 +0.06    -0.165 F  
DOCKED: ATOM     31  F   UNL     1     143.817  84.331 217.537 -0.11 +0.07    -0.165 F  
DOCKED: ATOM     32  F   UNL     1     141.793  84.778 218.426 -0.03 +0.05    -0.165 F  
DOCKED: ENDBRANCH  28  29
DOCKED: ENDBRANCH  22  23
DOCKED: ENDBRANCH   1  17
DOCKED: TORSDOF 7
DOCKED: TER
DOCKED: ENDMDL
________________________________________________________________________________


    FINAL DOCKED STATE:
    ________________________


Run:   11 / 20
Time taken for this run:   0.031s

DOCKED: MODEL        11
DOCKED: USER    Run = 11
DOCKED: USER
DOCKED: USER    Estimated Free Energy of Binding    =  -6.23 kcal/mol  [=(1)+(2)+(3)-(4)]
DOCKED: USER
DOCKED: USER    (1) Final Intermolecular Energy     =  -8.32 kcal/mol
DOCKED: USER        vdW + Hbond + desolv Energy     =  -8.20 kcal/mol
DOCKED: USER        Electrostatic Energy            =  -0.13 kcal/mol
DOCKED: USER        Moving Ligand-Fixed Receptor    =  -8.32 kcal/mol
DOCKED: USER        Moving Ligand-Moving Receptor   =  +0.00 kcal/mol
DOCKED: USER    (2) Final Total Internal Energy     =  -2.42 kcal/mol
DOCKED: USER    (3) Torsional Free Energy           =  +2.09 kcal/mol
DOCKED: USER    (4) Unbound System's Energy         =  -2.42 kcal/mol
DOCKED: USER
DOCKED: USER
DOCKED: REMARK SMILES O=C(Cc1ccc(-c2ccc(C(F)(F)F)nc2)cc1)/N=c1/nccc(-c2cccs2)[nH]1
DOCKED: REMARK SMILES IDX 3 1 2 2 1 3 20 4 21 5 23 6 22 7 24 8 25 9 31 10 26 12 30 13
DOCKED: REMARK SMILES IDX 27 14 29 15 28 16 4 17 5 18 19 19 6 20 18 21 7 22 8 23 17 24
DOCKED: REMARK SMILES IDX 9 25 16 26 10 27 11 28 12 29 13 30 14 31 15 32
DOCKED: REMARK H PARENT 31 11
DOCKED: USER                              x       y       z     vdW  Elec       q    Type
DOCKED: USER                           _______ _______ _______ _____ _____    ______ ____
DOCKED: ROOT
DOCKED: ATOM      1  C   UNL     1     142.041  73.262 219.935 -0.14 -0.03    +0.138 C  
DOCKED: ENDROOT
DOCKED: BRANCH   1   2
DOCKED: ATOM      2  C   UNL     1     140.943  72.936 220.897 -0.15 -0.04    +0.253 C  
DOCKED: ATOM      3  O   UNL     1     140.355  71.823 220.811 -0.08 +0.04    -0.272 OA 
DOCKED: BRANCH   2   4
DOCKED: ATOM      4  N   UNL     1     140.680  73.833 221.988 -0.76 +0.00    -0.177 NA 
DOCKED: BRANCH   4   5
DOCKED: ATOM      5  C   UNL     1     140.211  75.050 221.948 -0.19 -0.03    +0.230 A  
DOCKED: ATOM      6  C   UNL     1     138.359  76.459 221.517 -0.17 -0.03    +0.117 A  
DOCKED: ATOM      7  N   UNL     1     138.917  75.224 221.580 -0.18 +0.05    -0.221 NA 
DOCKED: ATOM      8  C   UNL     1     139.116  77.580 221.837 -0.23 -0.01    +0.048 A  
DOCKED: ATOM      9  C   UNL     1     140.449  77.406 222.239 -0.37 -0.02    +0.060 A  
DOCKED: ATOM     10  N   UNL     1     140.966  76.140 222.295 -0.20 +0.09    -0.323 N  
DOCKED: ATOM     11  H   UNL     1     141.934  76.018 222.656 -0.49 -0.10    +0.170 HD 
DOCKED: BRANCH   9  12
DOCKED: ATOM     12  C   UNL     1     141.291  78.575 222.604 -0.46 -0.02    +0.051 A  
DOCKED: ATOM     13  S   UNL     1     141.792  78.969 224.166 -0.54 +0.04    -0.142 S  
DOCKED: ATOM     14  C   UNL     1     141.818  79.535 221.740 -0.44 -0.01    +0.022 A  
DOCKED: ATOM     15  C   UNL     1     142.671  80.338 223.762 -0.61 -0.01    +0.065 A  
DOCKED: ATOM     16  C   UNL     1     142.587  80.512 222.389 -0.57 -0.00    +0.012 A  
DOCKED: ENDBRANCH   9  12
DOCKED: ENDBRANCH   4   5
DOCKED: ENDBRANCH   2   4
DOCKED: ENDBRANCH   1   2
DOCKED: BRANCH   1  17
DOCKED: ATOM     17  C   UNL     1     141.986  74.717 219.559 -0.18 +0.01    -0.039 A  
DOCKED: ATOM     18  C   UNL     1     140.892  75.222 218.844 -0.08 -0.00    +0.005 A  
DOCKED: ATOM     19  C   UNL     1     143.003  75.592 219.970 -0.35 -0.00    +0.005 A  
DOCKED: ATOM     20  C   UNL     1     140.828  76.580 218.519 -0.09 -0.00    +0.009 A  
DOCKED: ATOM     21  C   UNL     1     142.938  76.950 219.648 -0.33 -0.01    +0.009 A  
DOCKED: ATOM     22  C   UNL     1     141.851  77.459 218.915 -0.24 +0.01    -0.017 A  
DOCKED: BRANCH  22  23
DOCKED: ATOM     23  C   UNL     1     141.785  78.900 218.560 -0.25 -0.00    +0.000 A  
DOCKED: ATOM     24  C   UNL     1     140.574  79.610 218.642 -0.09 -0.05    +0.120 A  
DOCKED: ATOM     25  C   UNL     1     142.933  79.591 218.140 -0.26 -0.01    +0.012 A  
DOCKED: ATOM     26  N   UNL     1     140.528  80.928 218.312 -0.05 +0.10    -0.251 NA 
DOCKED: ATOM     27  C   UNL     1     142.859  80.945 217.811 -0.33 -0.03    +0.034 A  
DOCKED: ATOM     28  C   UNL     1     141.628  81.609 217.893 -0.18 -0.08    +0.144 A  
DOCKED: BRANCH  28  29
DOCKED: ATOM     29  C   UNL     1     141.528  83.071 217.571 -0.06 -0.18    +0.433 C  
DOCKED: ATOM     30  F   UNL     1     142.789  83.615 217.398 -0.08 +0.08    -0.165 F  
DOCKED: ATOM     31  F   UNL     1     140.895  83.741 218.604 -0.05 +0.05    -0.165 F  
DOCKED: ATOM     32  F   UNL     1     140.803  83.237 216.407 -0.01 +0.06    -0.165 F  
DOCKED: ENDBRANCH  28  29
DOCKED: ENDBRANCH  22  23
DOCKED: ENDBRANCH   1  17
DOCKED: TORSDOF 7
DOCKED: TER
DOCKED: ENDMDL
________________________________________________________________________________


    FINAL DOCKED STATE:
    ________________________


Run:   12 / 20
Time taken for this run:   0.031s

DOCKED: MODEL        12
DOCKED: USER    Run = 12
DOCKED: USER
DOCKED: USER    Estimated Free Energy of Binding    =  -6.51 kcal/mol  [=(1)+(2)+(3)-(4)]
DOCKED: USER
DOCKED: USER    (1) Final Intermolecular Energy     =  -8.60 kcal/mol
DOCKED: USER        vdW + Hbond + desolv Energy     =  -8.53 kcal/mol
DOCKED: USER        Electrostatic Energy            =  -0.07 kcal/mol
DOCKED: USER        Moving Ligand-Fixed Receptor    =  -8.60 kcal/mol
DOCKED: USER        Moving Ligand-Moving Receptor   =  +0.00 kcal/mol
DOCKED: USER    (2) Final Total Internal Energy     =  -2.27 kcal/mol
DOCKED: USER    (3) Torsional Free Energy           =  +2.09 kcal/mol
DOCKED: USER    (4) Unbound System's Energy         =  -2.27 kcal/mol
DOCKED: USER
DOCKED: USER
DOCKED: REMARK SMILES O=C(Cc1ccc(-c2ccc(C(F)(F)F)nc2)cc1)/N=c1/nccc(-c2cccs2)[nH]1
DOCKED: REMARK SMILES IDX 3 1 2 2 1 3 20 4 21 5 23 6 22 7 24 8 25 9 31 10 26 12 30 13
DOCKED: REMARK SMILES IDX 27 14 29 15 28 16 4 17 5 18 19 19 6 20 18 21 7 22 8 23 17 24
DOCKED: REMARK SMILES IDX 9 25 16 26 10 27 11 28 12 29 13 30 14 31 15 32
DOCKED: REMARK H PARENT 31 11
DOCKED: USER                              x       y       z     vdW  Elec       q    Type
DOCKED: USER                           _______ _______ _______ _____ _____    ______ ____
DOCKED: ROOT
DOCKED: ATOM      1  C   UNL     1     141.189  74.411 219.497 -0.09 -0.04    +0.138 C  
DOCKED: ENDROOT
DOCKED: BRANCH   1   2
DOCKED: ATOM      2  C   UNL     1     141.516  74.102 220.924 -0.18 -0.05    +0.253 C  
DOCKED: ATOM      3  O   UNL     1     142.655  73.642 221.211 -0.15 +0.05    -0.272 OA 
DOCKED: BRANCH   2   4
DOCKED: ATOM      4  N   UNL     1     140.583  74.472 221.952 -0.74 +0.01    -0.177 NA 
DOCKED: BRANCH   4   5
DOCKED: ATOM      5  C   UNL     1     140.084  75.648 222.214 -0.18 -0.04    +0.230 A  
DOCKED: ATOM      6  C   UNL     1     138.144  76.954 222.575 -0.25 -0.02    +0.117 A  
DOCKED: ATOM      7  N   UNL     1     138.735  75.764 222.304 -0.24 +0.05    -0.221 NA 
DOCKED: ATOM      8  C   UNL     1     138.923  78.088 222.772 -0.28 -0.01    +0.048 A  
DOCKED: ATOM      9  C   UNL     1     140.320  77.971 222.702 -0.37 -0.02    +0.060 A  
DOCKED: ATOM     10  N   UNL     1     140.871  76.748 222.433 -0.22 +0.11    -0.323 N  
DOCKED: ATOM     11  H   UNL     1     141.908  76.661 222.448 -0.48 -0.13    +0.170 HD 
DOCKED: BRANCH   9  12
DOCKED: ATOM     12  C   UNL     1     141.193  79.155 222.920 -0.47 -0.02    +0.051 A  
DOCKED: ATOM     13  S   UNL     1     140.673  80.667 223.455 -0.50 +0.02    -0.142 S  
DOCKED: ATOM     14  C   UNL     1     142.574  79.227 222.735 -0.53 -0.01    +0.022 A  
DOCKED: ATOM     15  C   UNL     1     142.175  81.413 223.458 -0.52 -0.01    +0.065 A  
DOCKED: ATOM     16  C   UNL     1     143.115  80.484 223.037 -0.63 -0.00    +0.012 A  
DOCKED: ENDBRANCH   9  12
DOCKED: ENDBRANCH   4   5
DOCKED: ENDBRANCH   2   4
DOCKED: ENDBRANCH   1   2
DOCKED: BRANCH   1  17
DOCKED: ATOM     17  C   UNL     1     141.399  75.874 219.223 -0.14 +0.01    -0.039 A  
DOCKED: ATOM     18  C   UNL     1     142.678  76.363 218.926 -0.31 -0.00    +0.005 A  
DOCKED: ATOM     19  C   UNL     1     140.306  76.754 219.207 -0.09 -0.00    +0.005 A  
DOCKED: ATOM     20  C   UNL     1     142.869  77.718 218.645 -0.30 -0.01    +0.009 A  
DOCKED: ATOM     21  C   UNL     1     140.495  78.109 218.922 -0.11 -0.00    +0.009 A  
DOCKED: ATOM     22  C   UNL     1     141.780  78.607 218.641 -0.24 +0.01    -0.017 A  
DOCKED: BRANCH  22  23
DOCKED: ATOM     23  C   UNL     1     141.987  80.049 218.350 -0.30 -0.00    +0.000 A  
DOCKED: ATOM     24  C   UNL     1     142.557  80.467 217.135 -0.14 -0.14    +0.120 A  
DOCKED: ATOM     25  C   UNL     1     141.611  81.032 219.280 -0.27 -0.01    +0.012 A  
DOCKED: ATOM     26  N   UNL     1     142.743  81.791 216.883 -0.17 +0.24    -0.251 NA 
DOCKED: ATOM     27  C   UNL     1     141.809  82.384 218.996 -0.21 -0.01    +0.034 A  
DOCKED: ATOM     28  C   UNL     1     142.394  82.754 217.778 -0.21 -0.08    +0.144 A  
DOCKED: BRANCH  28  29
DOCKED: ATOM     29  C   UNL     1     142.591  84.202 217.436 -0.05 -0.17    +0.433 C  
DOCKED: ATOM     30  F   UNL     1     141.901  85.006 218.326 -0.02 +0.05    -0.165 F  
DOCKED: ATOM     31  F   UNL     1     142.126  84.454 216.157 -0.02 +0.06    -0.165 F  
DOCKED: ATOM     32  F   UNL     1     143.937  84.510 217.501 -0.12 +0.07    -0.165 F  
DOCKED: ENDBRANCH  28  29
DOCKED: ENDBRANCH  22  23
DOCKED: ENDBRANCH   1  17
DOCKED: TORSDOF 7
DOCKED: TER
DOCKED: ENDMDL
________________________________________________________________________________


    FINAL DOCKED STATE:
    ________________________


Run:   13 / 20
Time taken for this run:   0.031s

DOCKED: MODEL        13
DOCKED: USER    Run = 13
DOCKED: USER
DOCKED: USER    Estimated Free Energy of Binding    =  -6.40 kcal/mol  [=(1)+(2)+(3)-(4)]
DOCKED: USER
DOCKED: USER    (1) Final Intermolecular Energy     =  -8.49 kcal/mol
DOCKED: USER        vdW + Hbond + desolv Energy     =  -8.42 kcal/mol
DOCKED: USER        Electrostatic Energy            =  -0.07 kcal/mol
DOCKED: USER        Moving Ligand-Fixed Receptor    =  -8.49 kcal/mol
DOCKED: USER        Moving Ligand-Moving Receptor   =  +0.00 kcal/mol
DOCKED: USER    (2) Final Total Internal Energy     =  -2.41 kcal/mol
DOCKED: USER    (3) Torsional Free Energy           =  +2.09 kcal/mol
DOCKED: USER    (4) Unbound System's Energy         =  -2.41 kcal/mol
DOCKED: USER
DOCKED: USER
DOCKED: REMARK SMILES O=C(Cc1ccc(-c2ccc(C(F)(F)F)nc2)cc1)/N=c1/nccc(-c2cccs2)[nH]1
DOCKED: REMARK SMILES IDX 3 1 2 2 1 3 20 4 21 5 23 6 22 7 24 8 25 9 31 10 26 12 30 13
DOCKED: REMARK SMILES IDX 27 14 29 15 28 16 4 17 5 18 19 19 6 20 18 21 7 22 8 23 17 24
DOCKED: REMARK SMILES IDX 9 25 16 26 10 27 11 28 12 29 13 30 14 31 15 32
DOCKED: REMARK H PARENT 31 11
DOCKED: USER                              x       y       z     vdW  Elec       q    Type
DOCKED: USER                           _______ _______ _______ _____ _____    ______ ____
DOCKED: ROOT
DOCKED: ATOM      1  C   UNL     1     141.086  74.135 219.525 -0.08 -0.03    +0.138 C  
DOCKED: ENDROOT
DOCKED: BRANCH   1   2
DOCKED: ATOM      2  C   UNL     1     141.420  73.826 220.950 -0.18 -0.04    +0.253 C  
DOCKED: ATOM      3  O   UNL     1     142.523  73.278 221.222 -0.17 +0.04    -0.272 OA 
DOCKED: BRANCH   2   4
DOCKED: ATOM      4  N   UNL     1     140.545  74.291 221.991 -0.76 +0.01    -0.177 NA 
DOCKED: BRANCH   4   5
DOCKED: ATOM      5  C   UNL     1     140.055  75.487 222.168 -0.14 -0.03    +0.230 A  
DOCKED: ATOM      6  C   UNL     1     138.123  76.845 222.332 -0.24 -0.02    +0.117 A  
DOCKED: ATOM      7  N   UNL     1     138.706  75.633 222.152 -0.23 +0.05    -0.221 NA 
DOCKED: ATOM      8  C   UNL     1     138.912  77.970 222.542 -0.28 -0.01    +0.048 A  
DOCKED: ATOM      9  C   UNL     1     140.306  77.823 222.582 -0.36 -0.02    +0.060 A  
DOCKED: ATOM     10  N   UNL     1     140.848  76.580 222.403 -0.22 +0.10    -0.323 N  
DOCKED: ATOM     11  H   UNL     1     141.879  76.472 222.498 -0.49 -0.12    +0.170 HD 
DOCKED: BRANCH   9  12
DOCKED: ATOM     12  C   UNL     1     141.188  78.997 222.818 -0.46 -0.02    +0.051 A  
DOCKED: ATOM     13  S   UNL     1     140.695  80.473 223.470 -0.51 +0.02    -0.142 S  
DOCKED: ATOM     14  C   UNL     1     142.555  79.089 222.557 -0.45 -0.01    +0.022 A  
DOCKED: ATOM     15  C   UNL     1     142.193  81.226 223.430 -0.56 -0.01    +0.065 A  
DOCKED: ATOM     16  C   UNL     1     143.110  80.329 222.901 -0.62 -0.00    +0.012 A  
DOCKED: ENDBRANCH   9  12
DOCKED: ENDBRANCH   4   5
DOCKED: ENDBRANCH   2   4
DOCKED: ENDBRANCH   1   2
DOCKED: BRANCH   1  17
DOCKED: ATOM     17  C   UNL     1     141.279  75.601 219.254 -0.13 +0.01    -0.039 A  
DOCKED: ATOM     18  C   UNL     1     142.563  76.163 219.282 -0.31 -0.00    +0.005 A  
DOCKED: ATOM     19  C   UNL     1     140.182  76.409 218.918 -0.07 -0.00    +0.005 A  
DOCKED: ATOM     20  C   UNL     1     142.745  77.521 219.003 -0.31 -0.01    +0.009 A  
DOCKED: ATOM     21  C   UNL     1     140.364  77.765 218.635 -0.08 -0.00    +0.009 A  
DOCKED: ATOM     22  C   UNL     1     141.648  78.338 218.679 -0.22 +0.01    -0.017 A  
DOCKED: BRANCH  22  23
DOCKED: ATOM     23  C   UNL     1     141.844  79.782 218.392 -0.28 -0.00    +0.000 A  
DOCKED: ATOM     24  C   UNL     1     142.242  80.218 217.116 -0.19 -0.12    +0.120 A  
DOCKED: ATOM     25  C   UNL     1     141.631  80.749 219.387 -0.28 -0.01    +0.012 A  
DOCKED: ATOM     26  N   UNL     1     142.420  81.543 216.868 -0.14 +0.23    -0.251 NA 
DOCKED: ATOM     27  C   UNL     1     141.816  82.103 219.107 -0.22 -0.01    +0.034 A  
DOCKED: ATOM     28  C   UNL     1     142.227  82.492 217.825 -0.21 -0.08    +0.144 A  
DOCKED: BRANCH  28  29
DOCKED: ATOM     29  C   UNL     1     142.406  83.943 217.489 -0.06 -0.18    +0.433 C  
DOCKED: ATOM     30  F   UNL     1     143.751  84.266 217.450 -0.12 +0.07    -0.165 F  
DOCKED: ATOM     31  F   UNL     1     141.789  84.730 218.445 -0.02 +0.05    -0.165 F  
DOCKED: ATOM     32  F   UNL     1     141.845  84.201 216.253 -0.02 +0.06    -0.165 F  
DOCKED: ENDBRANCH  28  29
DOCKED: ENDBRANCH  22  23
DOCKED: ENDBRANCH   1  17
DOCKED: TORSDOF 7
DOCKED: TER
DOCKED: ENDMDL
________________________________________________________________________________


    FINAL DOCKED STATE:
    ________________________


Run:   14 / 20
Time taken for this run:   0.031s

DOCKED: MODEL        14
DOCKED: USER    Run = 14
DOCKED: USER
DOCKED: USER    Estimated Free Energy of Binding    =  -6.27 kcal/mol  [=(1)+(2)+(3)-(4)]
DOCKED: USER
DOCKED: USER    (1) Final Intermolecular Energy     =  -8.36 kcal/mol
DOCKED: USER        vdW + Hbond + desolv Energy     =  -8.26 kcal/mol
DOCKED: USER        Electrostatic Energy            =  -0.10 kcal/mol
DOCKED: USER        Moving Ligand-Fixed Receptor    =  -8.36 kcal/mol
DOCKED: USER        Moving Ligand-Moving Receptor   =  +0.00 kcal/mol
DOCKED: USER    (2) Final Total Internal Energy     =  -2.33 kcal/mol
DOCKED: USER    (3) Torsional Free Energy           =  +2.09 kcal/mol
DOCKED: USER    (4) Unbound System's Energy         =  -2.33 kcal/mol
DOCKED: USER
DOCKED: USER
DOCKED: REMARK SMILES O=C(Cc1ccc(-c2ccc(C(F)(F)F)nc2)cc1)/N=c1/nccc(-c2cccs2)[nH]1
DOCKED: REMARK SMILES IDX 3 1 2 2 1 3 20 4 21 5 23 6 22 7 24 8 25 9 31 10 26 12 30 13
DOCKED: REMARK SMILES IDX 27 14 29 15 28 16 4 17 5 18 19 19 6 20 18 21 7 22 8 23 17 24
DOCKED: REMARK SMILES IDX 9 25 16 26 10 27 11 28 12 29 13 30 14 31 15 32
DOCKED: REMARK H PARENT 31 11
DOCKED: USER                              x       y       z     vdW  Elec       q    Type
DOCKED: USER                           _______ _______ _______ _____ _____    ______ ____
DOCKED: ROOT
DOCKED: ATOM      1  C   UNL     1     141.653  73.593 219.735 -0.11 -0.03    +0.138 C  
DOCKED: ENDROOT
DOCKED: BRANCH   1   2
DOCKED: ATOM      2  C   UNL     1     140.739  73.422 220.906 -0.15 -0.04    +0.253 C  
DOCKED: ATOM      3  O   UNL     1     140.053  72.368 221.006 -0.09 +0.04    -0.272 OA 
DOCKED: BRANCH   2   4
DOCKED: ATOM      4  N   UNL     1     140.769  74.393 221.965 -0.71 +0.01    -0.177 NA 
DOCKED: BRANCH   4   5
DOCKED: ATOM      5  C   UNL     1     140.207  75.569 222.008 -0.22 -0.04    +0.230 A  
DOCKED: ATOM      6  C   UNL     1     138.241  76.852 221.705 -0.17 -0.02    +0.117 A  
DOCKED: ATOM      7  N   UNL     1     138.893  75.663 221.681 -0.18 +0.05    -0.221 NA 
DOCKED: ATOM      8  C   UNL     1     138.918  78.008 222.074 -0.23 -0.01    +0.048 A  
DOCKED: ATOM      9  C   UNL     1     140.271  77.916 222.434 -0.36 -0.02    +0.060 A  
DOCKED: ATOM     10  N   UNL     1     140.885  76.694 222.402 -0.22 +0.11    -0.323 N  
DOCKED: ATOM     11  H   UNL     1     141.869  76.627 222.733 -0.45 -0.12    +0.170 HD 
DOCKED: BRANCH   9  12
DOCKED: ATOM     12  C   UNL     1     141.031  79.125 222.848 -0.45 -0.01    +0.051 A  
DOCKED: ATOM     13  S   UNL     1     142.692  79.346 222.659 -0.51 +0.07    -0.142 S  
DOCKED: ATOM     14  C   UNL     1     140.520  80.275 223.449 -0.46 -0.00    +0.022 A  
DOCKED: ATOM     15  C   UNL     1     142.773  80.883 223.324 -0.56 -0.01    +0.065 A  
DOCKED: ATOM     16  C   UNL     1     141.493  81.251 223.710 -0.53 -0.00    +0.012 A  
DOCKED: ENDBRANCH   9  12
DOCKED: ENDBRANCH   4   5
DOCKED: ENDBRANCH   2   4
DOCKED: ENDBRANCH   1   2
DOCKED: BRANCH   1  17
DOCKED: ATOM     17  C   UNL     1     141.756  75.047 219.366 -0.15 +0.01    -0.039 A  
DOCKED: ATOM     18  C   UNL     1     140.681  75.698 218.745 -0.08 -0.00    +0.005 A  
DOCKED: ATOM     19  C   UNL     1     142.908  75.779 219.689 -0.36 -0.00    +0.005 A  
DOCKED: ATOM     20  C   UNL     1     140.766  77.056 218.427 -0.09 -0.00    +0.009 A  
DOCKED: ATOM     21  C   UNL     1     142.993  77.138 219.375 -0.31 -0.01    +0.009 A  
DOCKED: ATOM     22  C   UNL     1     141.923  77.791 218.736 -0.25 +0.01    -0.017 A  
DOCKED: BRANCH  22  23
DOCKED: ATOM     23  C   UNL     1     142.015  79.233 218.389 -0.29 -0.00    +0.000 A  
DOCKED: ATOM     24  C   UNL     1     141.915  80.223 219.381 -0.25 -0.07    +0.120 A  
DOCKED: ATOM     25  C   UNL     1     142.210  79.642 217.060 -0.23 -0.01    +0.012 A  
DOCKED: ATOM     26  N   UNL     1     141.998  81.539 219.048 -0.14 +0.12    -0.251 NA 
DOCKED: ATOM     27  C   UNL     1     142.296  80.998 216.745 -0.19 -0.03    +0.034 A  
DOCKED: ATOM     28  C   UNL     1     142.176  81.952 217.764 -0.22 -0.09    +0.144 A  
DOCKED: BRANCH  28  29
DOCKED: ATOM     29  C   UNL     1     142.293  83.416 217.457 -0.08 -0.20    +0.433 C  
DOCKED: ATOM     30  F   UNL     1     141.787  83.686 216.198 -0.02 +0.07    -0.165 F  
DOCKED: ATOM     31  F   UNL     1     143.621  83.803 217.492 -0.13 +0.09    -0.165 F  
DOCKED: ATOM     32  F   UNL     1     141.581  84.140 218.393 -0.05 +0.05    -0.165 F  
DOCKED: ENDBRANCH  28  29
DOCKED: ENDBRANCH  22  23
DOCKED: ENDBRANCH   1  17
DOCKED: TORSDOF 7
DOCKED: TER
DOCKED: ENDMDL
________________________________________________________________________________


    FINAL DOCKED STATE:
    ________________________


Run:   15 / 20
Time taken for this run:   0.031s

DOCKED: MODEL        15
DOCKED: USER    Run = 15
DOCKED: USER
DOCKED: USER    Estimated Free Energy of Binding    =  -6.50 kcal/mol  [=(1)+(2)+(3)-(4)]
DOCKED: USER
DOCKED: USER    (1) Final Intermolecular Energy     =  -8.59 kcal/mol
DOCKED: USER        vdW + Hbond + desolv Energy     =  -8.58 kcal/mol
DOCKED: USER        Electrostatic Energy            =  -0.02 kcal/mol
DOCKED: USER        Moving Ligand-Fixed Receptor    =  -8.59 kcal/mol
DOCKED: USER        Moving Ligand-Moving Receptor   =  +0.00 kcal/mol
DOCKED: USER    (2) Final Total Internal Energy     =  -2.46 kcal/mol
DOCKED: USER    (3) Torsional Free Energy           =  +2.09 kcal/mol
DOCKED: USER    (4) Unbound System's Energy         =  -2.46 kcal/mol
DOCKED: USER
DOCKED: USER
DOCKED: REMARK SMILES O=C(Cc1ccc(-c2ccc(C(F)(F)F)nc2)cc1)/N=c1/nccc(-c2cccs2)[nH]1
DOCKED: REMARK SMILES IDX 3 1 2 2 1 3 20 4 21 5 23 6 22 7 24 8 25 9 31 10 26 12 30 13
DOCKED: REMARK SMILES IDX 27 14 29 15 28 16 4 17 5 18 19 19 6 20 18 21 7 22 8 23 17 24
DOCKED: REMARK SMILES IDX 9 25 16 26 10 27 11 28 12 29 13 30 14 31 15 32
DOCKED: REMARK H PARENT 31 11
DOCKED: USER                              x       y       z     vdW  Elec       q    Type
DOCKED: USER                           _______ _______ _______ _____ _____    ______ ____
DOCKED: ROOT
DOCKED: ATOM      1  C   UNL     1     141.481  73.560 220.175 -0.15 -0.03    +0.138 C  
DOCKED: ENDROOT
DOCKED: BRANCH   1   2
DOCKED: ATOM      2  C   UNL     1     140.411  73.408 221.210 -0.17 -0.04    +0.253 C  
DOCKED: ATOM      3  O   UNL     1     139.644  72.408 221.164 -0.09 +0.05    -0.272 OA 
DOCKED: BRANCH   2   4
DOCKED: ATOM      4  N   UNL     1     140.374  74.323 222.317 -0.72 -0.01    -0.177 NA 
DOCKED: BRANCH   4   5
DOCKED: ATOM      5  C   UNL     1     139.936  75.552 222.343 -0.13 -0.03    +0.230 A  
DOCKED: ATOM      6  C   UNL     1     138.085  77.013 222.150 -0.21 -0.02    +0.117 A  
DOCKED: ATOM      7  N   UNL     1     138.612  75.764 222.136 -0.21 +0.05    -0.221 NA 
DOCKED: ATOM      8  C   UNL     1     138.905  78.111 222.387 -0.26 -0.01    +0.048 A  
DOCKED: ATOM      9  C   UNL     1     140.271  77.898 222.624 -0.36 -0.02    +0.060 A  
DOCKED: ATOM     10  N   UNL     1     140.756  76.618 222.606 -0.20 +0.09    -0.323 N  
DOCKED: ATOM     11  H   UNL     1     141.758  76.467 222.847 -0.42 -0.10    +0.170 HD 
DOCKED: BRANCH   9  12
DOCKED: ATOM     12  C   UNL     1     141.183  79.040 222.895 -0.47 -0.02    +0.051 A  
DOCKED: ATOM     13  S   UNL     1     140.705  80.561 223.447 -0.51 +0.02    -0.142 S  
DOCKED: ATOM     14  C   UNL     1     142.570  79.062 222.754 -0.48 -0.01    +0.022 A  
DOCKED: ATOM     15  C   UNL     1     142.235  81.246 223.513 -0.56 -0.01    +0.065 A  
DOCKED: ATOM     16  C   UNL     1     143.151  80.290 223.101 -0.64 -0.00    +0.012 A  
DOCKED: ENDBRANCH   9  12
DOCKED: ENDBRANCH   4   5
DOCKED: ENDBRANCH   2   4
DOCKED: ENDBRANCH   1   2
DOCKED: BRANCH   1  17
DOCKED: ATOM     17  C   UNL     1     141.621  75.004 219.783 -0.18 +0.01    -0.039 A  
DOCKED: ATOM     18  C   UNL     1     140.543  75.689 219.205 -0.09 -0.00    +0.005 A  
DOCKED: ATOM     19  C   UNL     1     142.814  75.695 220.043 -0.34 -0.00    +0.005 A  
DOCKED: ATOM     20  C   UNL     1     140.665  77.039 218.865 -0.10 -0.00    +0.009 A  
DOCKED: ATOM     21  C   UNL     1     142.935  77.046 219.708 -0.30 -0.01    +0.009 A  
DOCKED: ATOM     22  C   UNL     1     141.862  77.733 219.111 -0.26 +0.01    -0.017 A  
DOCKED: BRANCH  22  23
DOCKED: ATOM     23  C   UNL     1     141.992  79.166 218.741 -0.29 -0.00    +0.000 A  
DOCKED: ATOM     24  C   UNL     1     142.437  79.545 217.463 -0.23 -0.12    +0.120 A  
DOCKED: ATOM     25  C   UNL     1     141.666  80.178 219.658 -0.29 -0.01    +0.012 A  
DOCKED: ATOM     26  N   UNL     1     142.554  80.861 217.139 -0.16 +0.27    -0.251 NA 
DOCKED: ATOM     27  C   UNL     1     141.790  81.521 219.300 -0.25 -0.01    +0.034 A  
DOCKED: ATOM     28  C   UNL     1     142.253  81.853 218.020 -0.23 -0.09    +0.144 A  
DOCKED: BRANCH  28  29
DOCKED: ATOM     29  C   UNL     1     142.368  83.289 217.600 -0.07 -0.20    +0.433 C  
DOCKED: ATOM     30  F   UNL     1     141.779  84.115 218.540 -0.03 +0.05    -0.165 F  
DOCKED: ATOM     31  F   UNL     1     141.735  83.479 216.384 -0.02 +0.07    -0.165 F  
DOCKED: ATOM     32  F   UNL     1     143.702  83.625 217.478 -0.14 +0.09    -0.165 F  
DOCKED: ENDBRANCH  28  29
DOCKED: ENDBRANCH  22  23
DOCKED: ENDBRANCH   1  17
DOCKED: TORSDOF 7
DOCKED: TER
DOCKED: ENDMDL
________________________________________________________________________________


    FINAL DOCKED STATE:
    ________________________


Run:   16 / 20
Time taken for this run:   0.031s

DOCKED: MODEL        16
DOCKED: USER    Run = 16
DOCKED: USER
DOCKED: USER    Estimated Free Energy of Binding    =  -7.28 kcal/mol  [=(1)+(2)+(3)-(4)]
DOCKED: USER
DOCKED: USER    (1) Final Intermolecular Energy     =  -9.37 kcal/mol
DOCKED: USER        vdW + Hbond + desolv Energy     =  -9.35 kcal/mol
DOCKED: USER        Electrostatic Energy            =  -0.03 kcal/mol
DOCKED: USER        Moving Ligand-Fixed Receptor    =  -9.37 kcal/mol
DOCKED: USER        Moving Ligand-Moving Receptor   =  +0.00 kcal/mol
DOCKED: USER    (2) Final Total Internal Energy     =  -1.15 kcal/mol
DOCKED: USER    (3) Torsional Free Energy           =  +2.09 kcal/mol
DOCKED: USER    (4) Unbound System's Energy         =  -1.15 kcal/mol
DOCKED: USER
DOCKED: USER
DOCKED: REMARK SMILES O=C(Cc1ccc(-c2ccc(C(F)(F)F)nc2)cc1)/N=c1/nccc(-c2cccs2)[nH]1
DOCKED: REMARK SMILES IDX 3 1 2 2 1 3 20 4 21 5 23 6 22 7 24 8 25 9 31 10 26 12 30 13
DOCKED: REMARK SMILES IDX 27 14 29 15 28 16 4 17 5 18 19 19 6 20 18 21 7 22 8 23 17 24
DOCKED: REMARK SMILES IDX 9 25 16 26 10 27 11 28 12 29 13 30 14 31 15 32
DOCKED: REMARK H PARENT 31 11
DOCKED: USER                              x       y       z     vdW  Elec       q    Type
DOCKED: USER                           _______ _______ _______ _____ _____    ______ ____
DOCKED: ROOT
DOCKED: ATOM      1  C   UNL     1     139.425  73.495 219.367 -0.03 -0.03    +0.138 C  
DOCKED: ENDROOT
DOCKED: BRANCH   1   2
DOCKED: ATOM      2  C   UNL     1     140.010  74.871 219.417 -0.03 -0.06    +0.253 C  
DOCKED: ATOM      3  O   UNL     1     139.872  75.638 218.425 -0.01 +0.07    -0.272 OA 
DOCKED: BRANCH   2   4
DOCKED: ATOM      4  N   UNL     1     140.587  75.342 220.646 -0.15 +0.05    -0.177 NA 
DOCKED: BRANCH   4   5
DOCKED: ATOM      5  C   UNL     1     140.170  76.299 221.427 -0.21 -0.06    +0.230 A  
DOCKED: ATOM      6  C   UNL     1     138.374  77.231 222.655 -0.25 -0.02    +0.117 A  
DOCKED: ATOM      7  N   UNL     1     138.878  76.271 221.840 -0.18 +0.05    -0.221 NA 
DOCKED: ATOM      8  C   UNL     1     139.188  78.271 223.088 -0.27 -0.01    +0.048 A  
DOCKED: ATOM      9  C   UNL     1     140.531  78.295 222.684 -0.40 -0.02    +0.060 A  
DOCKED: ATOM     10  N   UNL     1     140.996  77.301 221.867 -0.19 +0.14    -0.323 N  
DOCKED: ATOM     11  H   UNL     1     142.009  77.293 221.626 -0.42 -0.13    +0.170 HD 
DOCKED: BRANCH   9  12
DOCKED: ATOM     12  C   UNL     1     141.442  79.381 223.135 -0.51 -0.01    +0.051 A  
DOCKED: ATOM     13  S   UNL     1     140.954  80.841 223.823 -0.44 +0.02    -0.142 S  
DOCKED: ATOM     14  C   UNL     1     142.835  79.387 223.081 -0.53 -0.01    +0.022 A  
DOCKED: ATOM     15  C   UNL     1     142.486  81.481 224.057 -0.52 -0.01    +0.065 A  
DOCKED: ATOM     16  C   UNL     1     143.412  80.556 223.597 -0.59 -0.00    +0.012 A  
DOCKED: ENDBRANCH   9  12
DOCKED: ENDBRANCH   4   5
DOCKED: ENDBRANCH   2   4
DOCKED: ENDBRANCH   1   2
DOCKED: BRANCH   1  17
DOCKED: ATOM     17  C   UNL     1     139.613  72.804 220.689 -0.12 +0.01    -0.039 A  
DOCKED: ATOM     18  C   UNL     1     140.900  72.483 221.143 -0.23 -0.00    +0.005 A  
DOCKED: ATOM     19  C   UNL     1     138.506  72.524 221.504 -0.15 -0.00    +0.005 A  
DOCKED: ATOM     20  C   UNL     1     141.076  71.865 222.384 -0.24 -0.00    +0.009 A  
DOCKED: ATOM     21  C   UNL     1     138.683  71.910 222.747 -0.22 -0.00    +0.009 A  
DOCKED: ATOM     22  C   UNL     1     139.970  71.569 223.199 -0.35 +0.00    -0.017 A  
DOCKED: BRANCH  22  23
DOCKED: ATOM     23  C   UNL     1     140.160  70.905 224.514 -0.46 -0.00    +0.000 A  
DOCKED: ATOM     24  C   UNL     1     140.954  71.493 225.514 -0.48 -0.02    +0.120 A  
DOCKED: ATOM     25  C   UNL     1     139.546  69.673 224.794 -0.38 -0.00    +0.012 A  
DOCKED: ATOM     26  N   UNL     1     141.121  70.872 226.712 -0.36 +0.04    -0.251 NA 
DOCKED: ATOM     27  C   UNL     1     139.730  69.058 226.032 -0.48 -0.01    +0.034 A  
DOCKED: ATOM     28  C   UNL     1     140.541  69.674 226.995 -0.45 -0.03    +0.144 A  
DOCKED: BRANCH  28  29
DOCKED: ATOM     29  C   UNL     1     140.733  69.048 228.344 -0.25 -0.09    +0.433 C  
DOCKED: ATOM     30  F   UNL     1     141.060  67.710 228.213 -0.21 +0.05    -0.165 F  
DOCKED: ATOM     31  F   UNL     1     139.567  69.149 229.083 -0.17 +0.02    -0.165 F  
DOCKED: ATOM     32  F   UNL     1     141.753  69.698 229.012 -0.07 +0.04    -0.165 F  
DOCKED: ENDBRANCH  28  29
DOCKED: ENDBRANCH  22  23
DOCKED: ENDBRANCH   1  17
DOCKED: TORSDOF 7
DOCKED: TER
DOCKED: ENDMDL
________________________________________________________________________________


    FINAL DOCKED STATE:
    ________________________


Run:   17 / 20
Time taken for this run:   0.031s

DOCKED: MODEL        17
DOCKED: USER    Run = 17
DOCKED: USER
DOCKED: USER    Estimated Free Energy of Binding    =  -7.49 kcal/mol  [=(1)+(2)+(3)-(4)]
DOCKED: USER
DOCKED: USER    (1) Final Intermolecular Energy     =  -9.58 kcal/mol
DOCKED: USER        vdW + Hbond + desolv Energy     =  -9.51 kcal/mol
DOCKED: USER        Electrostatic Energy            =  -0.07 kcal/mol
DOCKED: USER        Moving Ligand-Fixed Receptor    =  -9.58 kcal/mol
DOCKED: USER        Moving Ligand-Moving Receptor   =  +0.00 kcal/mol
DOCKED: USER    (2) Final Total Internal Energy     =  -1.27 kcal/mol
DOCKED: USER    (3) Torsional Free Energy           =  +2.09 kcal/mol
DOCKED: USER    (4) Unbound System's Energy         =  -1.27 kcal/mol
DOCKED: USER
DOCKED: USER
DOCKED: REMARK SMILES O=C(Cc1ccc(-c2ccc(C(F)(F)F)nc2)cc1)/N=c1/nccc(-c2cccs2)[nH]1
DOCKED: REMARK SMILES IDX 3 1 2 2 1 3 20 4 21 5 23 6 22 7 24 8 25 9 31 10 26 12 30 13
DOCKED: REMARK SMILES IDX 27 14 29 15 28 16 4 17 5 18 19 19 6 20 18 21 7 22 8 23 17 24
DOCKED: REMARK SMILES IDX 9 25 16 26 10 27 11 28 12 29 13 30 14 31 15 32
DOCKED: REMARK H PARENT 31 11
DOCKED: USER                              x       y       z     vdW  Elec       q    Type
DOCKED: USER                           _______ _______ _______ _____ _____    ______ ____
DOCKED: ROOT
DOCKED: ATOM      1  C   UNL     1     136.184  73.102 221.900 -0.08 -0.03    +0.138 C  
DOCKED: ENDROOT
DOCKED: BRANCH   1   2
DOCKED: ATOM      2  C   UNL     1     136.252  72.219 223.106 -0.11 -0.06    +0.253 C  
DOCKED: ATOM      3  O   UNL     1     135.827  72.651 224.212 -0.17 +0.06    -0.272 OA 
DOCKED: BRANCH   2   4
DOCKED: ATOM      4  N   UNL     1     136.662  70.851 222.950 -0.08 +0.03    -0.177 NA 
DOCKED: BRANCH   4   5
DOCKED: ATOM      5  C   UNL     1     137.582  70.197 223.603 -0.15 -0.04    +0.230 A  
DOCKED: ATOM      6  C   UNL     1     138.741  68.156 223.907 -0.24 -0.01    +0.117 A  
DOCKED: ATOM      7  N   UNL     1     137.800  68.899 223.273 -0.12 +0.03    -0.221 NA 
DOCKED: ATOM      8  C   UNL     1     139.510  68.723 224.916 -0.36 -0.01    +0.048 A  
DOCKED: ATOM      9  C   UNL     1     139.306  70.071 225.248 -0.38 -0.01    +0.060 A  
DOCKED: ATOM     10  N   UNL     1     138.350  70.783 224.576 -0.11 +0.06    -0.323 N  
DOCKED: ATOM     11  H   UNL     1     138.252  71.798 224.786 -0.22 -0.07    +0.170 HD 
DOCKED: BRANCH   9  12
DOCKED: ATOM     12  C   UNL     1     140.115  70.723 226.311 -0.50 -0.01    +0.051 A  
DOCKED: ATOM     13  S   UNL     1     140.306  70.147 227.885 -0.68 +0.02    -0.142 S  
DOCKED: ATOM     14  C   UNL     1     140.856  71.900 226.203 -0.59 -0.00    +0.022 A  
DOCKED: ATOM     15  C   UNL     1     141.318  71.368 228.431 -0.53 -0.01    +0.065 A  
DOCKED: ATOM     16  C   UNL     1     141.524  72.253 227.383 -0.77 -0.00    +0.012 A  
DOCKED: ENDBRANCH   9  12
DOCKED: ENDBRANCH   4   5
DOCKED: ENDBRANCH   2   4
DOCKED: ENDBRANCH   1   2
DOCKED: BRANCH   1  17
DOCKED: ATOM     17  C   UNL     1     137.082  74.294 222.079 -0.15 +0.01    -0.039 A  
DOCKED: ATOM     18  C   UNL     1     136.569  75.497 222.582 -0.22 -0.00    +0.005 A  
DOCKED: ATOM     19  C   UNL     1     138.453  74.195 221.797 -0.20 -0.00    +0.005 A  
DOCKED: ATOM     20  C   UNL     1     137.410  76.597 222.775 -0.27 -0.00    +0.009 A  
DOCKED: ATOM     21  C   UNL     1     139.295  75.294 221.993 -0.30 -0.00    +0.009 A  
DOCKED: ATOM     22  C   UNL     1     138.781  76.509 222.481 -0.31 +0.00    -0.017 A  
DOCKED: BRANCH  22  23
DOCKED: ATOM     23  C   UNL     1     139.671  77.682 222.678 -0.33 -0.00    +0.000 A  
DOCKED: ATOM     24  C   UNL     1     139.146  78.933 223.047 -0.28 -0.02    +0.120 A  
DOCKED: ATOM     25  C   UNL     1     141.060  77.570 222.507 -0.44 -0.00    +0.012 A  
DOCKED: ATOM     26  N   UNL     1     139.972  79.999 223.222 -0.22 +0.04    -0.251 NA 
DOCKED: ATOM     27  C   UNL     1     141.886  78.678 222.696 -0.46 -0.02    +0.034 A  
DOCKED: ATOM     28  C   UNL     1     141.318  79.909 223.049 -0.42 -0.04    +0.144 A  
DOCKED: BRANCH  28  29
DOCKED: ATOM     29  C   UNL     1     142.187  81.109 223.286 -0.26 -0.08    +0.433 C  
DOCKED: ATOM     30  F   UNL     1     142.056  81.550 224.591 -0.19 +0.01    -0.165 F  
DOCKED: ATOM     31  F   UNL     1     141.821  82.135 222.433 -0.16 +0.02    -0.165 F  
DOCKED: ATOM     32  F   UNL     1     143.507  80.773 223.055 -0.19 +0.04    -0.165 F  
DOCKED: ENDBRANCH  28  29
DOCKED: ENDBRANCH  22  23
DOCKED: ENDBRANCH   1  17
DOCKED: TORSDOF 7
DOCKED: TER
DOCKED: ENDMDL
________________________________________________________________________________


    FINAL DOCKED STATE:
    ________________________


Run:   18 / 20
Time taken for this run:   0.031s

DOCKED: MODEL        18
DOCKED: USER    Run = 18
DOCKED: USER
DOCKED: USER    Estimated Free Energy of Binding    =  -6.56 kcal/mol  [=(1)+(2)+(3)-(4)]
DOCKED: USER
DOCKED: USER    (1) Final Intermolecular Energy     =  -8.65 kcal/mol
DOCKED: USER        vdW + Hbond + desolv Energy     =  -8.50 kcal/mol
DOCKED: USER        Electrostatic Energy            =  -0.14 kcal/mol
DOCKED: USER        Moving Ligand-Fixed Receptor    =  -8.65 kcal/mol
DOCKED: USER        Moving Ligand-Moving Receptor   =  +0.00 kcal/mol
DOCKED: USER    (2) Final Total Internal Energy     =  -2.40 kcal/mol
DOCKED: USER    (3) Torsional Free Energy           =  +2.09 kcal/mol
DOCKED: USER    (4) Unbound System's Energy         =  -2.40 kcal/mol
DOCKED: USER
DOCKED: USER
DOCKED: REMARK SMILES O=C(Cc1ccc(-c2ccc(C(F)(F)F)nc2)cc1)/N=c1/nccc(-c2cccs2)[nH]1
DOCKED: REMARK SMILES IDX 3 1 2 2 1 3 20 4 21 5 23 6 22 7 24 8 25 9 31 10 26 12 30 13
DOCKED: REMARK SMILES IDX 27 14 29 15 28 16 4 17 5 18 19 19 6 20 18 21 7 22 8 23 17 24
DOCKED: REMARK SMILES IDX 9 25 16 26 10 27 11 28 12 29 13 30 14 31 15 32
DOCKED: REMARK H PARENT 31 11
DOCKED: USER                              x       y       z     vdW  Elec       q    Type
DOCKED: USER                           _______ _______ _______ _____ _____    ______ ____
DOCKED: ROOT
DOCKED: ATOM      1  C   UNL     1     141.549  73.632 220.125 -0.15 -0.03    +0.138 C  
DOCKED: ENDROOT
DOCKED: BRANCH   1   2
DOCKED: ATOM      2  C   UNL     1     140.430  73.466 221.105 -0.16 -0.04    +0.253 C  
DOCKED: ATOM      3  O   UNL     1     139.635  72.495 220.977 -0.08 +0.05    -0.272 OA 
DOCKED: BRANCH   2   4
DOCKED: ATOM      4  N   UNL     1     140.372  74.328 222.252 -0.73 -0.01    -0.177 NA 
DOCKED: BRANCH   4   5
DOCKED: ATOM      5  C   UNL     1     139.930  75.553 222.330 -0.14 -0.03    +0.230 A  
DOCKED: ATOM      6  C   UNL     1     138.064  77.007 222.264 -0.22 -0.02    +0.117 A  
DOCKED: ATOM      7  N   UNL     1     138.596  75.762 222.193 -0.22 +0.05    -0.221 NA 
DOCKED: ATOM      8  C   UNL     1     138.889  78.104 222.484 -0.27 -0.01    +0.048 A  
DOCKED: ATOM      9  C   UNL     1     140.267  77.894 222.648 -0.37 -0.02    +0.060 A  
DOCKED: ATOM     10  N   UNL     1     140.757  76.618 222.576 -0.21 +0.09    -0.323 N  
DOCKED: ATOM     11  H   UNL     1     141.770  76.468 222.763 -0.44 -0.10    +0.170 HD 
DOCKED: BRANCH   9  12
DOCKED: ATOM     12  C   UNL     1     141.185  79.036 222.900 -0.47 -0.02    +0.051 A  
DOCKED: ATOM     13  S   UNL     1     140.720  80.559 223.453 -0.51 +0.02    -0.142 S  
DOCKED: ATOM     14  C   UNL     1     142.570  79.053 222.736 -0.47 -0.01    +0.022 A  
DOCKED: ATOM     15  C   UNL     1     142.251  81.241 223.492 -0.56 -0.01    +0.065 A  
DOCKED: ATOM     16  C   UNL     1     143.159  80.281 223.069 -0.64 -0.00    +0.012 A  
DOCKED: ENDBRANCH   9  12
DOCKED: ENDBRANCH   4   5
DOCKED: ENDBRANCH   2   4
DOCKED: ENDBRANCH   1   2
DOCKED: BRANCH   1  17
DOCKED: ATOM     17  C   UNL     1     141.669  75.073 219.715 -0.18 +0.01    -0.039 A  
DOCKED: ATOM     18  C   UNL     1     140.586  75.732 219.118 -0.09 -0.00    +0.005 A  
DOCKED: ATOM     19  C   UNL     1     142.848  75.787 219.977 -0.34 -0.00    +0.005 A  
DOCKED: ATOM     20  C   UNL     1     140.688  77.080 218.762 -0.10 -0.00    +0.009 A  
DOCKED: ATOM     21  C   UNL     1     142.950  77.135 219.624 -0.29 -0.01    +0.009 A  
DOCKED: ATOM     22  C   UNL     1     141.872  77.796 219.009 -0.25 +0.01    -0.017 A  
DOCKED: BRANCH  22  23
DOCKED: ATOM     23  C   UNL     1     141.981  79.226 218.621 -0.29 -0.00    +0.000 A  
DOCKED: ATOM     24  C   UNL     1     141.806  80.248 219.570 -0.26 -0.06    +0.120 A  
DOCKED: ATOM     25  C   UNL     1     142.270  79.592 217.296 -0.25 -0.01    +0.012 A  
DOCKED: ATOM     26  N   UNL     1     141.906  81.552 219.200 -0.14 +0.11    -0.251 NA 
DOCKED: ATOM     27  C   UNL     1     142.372  80.938 216.943 -0.21 -0.03    +0.034 A  
DOCKED: ATOM     28  C   UNL     1     142.174  81.924 217.919 -0.23 -0.09    +0.144 A  
DOCKED: BRANCH  28  29
DOCKED: ATOM     29  C   UNL     1     142.306  83.377 217.572 -0.07 -0.20    +0.433 C  
DOCKED: ATOM     30  F   UNL     1     141.724  83.635 216.343 -0.02 +0.07    -0.165 F  
DOCKED: ATOM     31  F   UNL     1     143.643  83.730 217.511 -0.13 +0.09    -0.165 F  
DOCKED: ATOM     32  F   UNL     1     141.677  84.139 218.537 -0.04 +0.05    -0.165 F  
DOCKED: ENDBRANCH  28  29
DOCKED: ENDBRANCH  22  23
DOCKED: ENDBRANCH   1  17
DOCKED: TORSDOF 7
DOCKED: TER
DOCKED: ENDMDL
________________________________________________________________________________


    FINAL DOCKED STATE:
    ________________________


Run:   19 / 20
Time taken for this run:   0.031s

DOCKED: MODEL        19
DOCKED: USER    Run = 19
DOCKED: USER
DOCKED: USER    Estimated Free Energy of Binding    =  -6.05 kcal/mol  [=(1)+(2)+(3)-(4)]
DOCKED: USER
DOCKED: USER    (1) Final Intermolecular Energy     =  -8.13 kcal/mol
DOCKED: USER        vdW + Hbond + desolv Energy     =  -8.10 kcal/mol
DOCKED: USER        Electrostatic Energy            =  -0.03 kcal/mol
DOCKED: USER        Moving Ligand-Fixed Receptor    =  -8.13 kcal/mol
DOCKED: USER        Moving Ligand-Moving Receptor   =  +0.00 kcal/mol
DOCKED: USER    (2) Final Total Internal Energy     =  -2.52 kcal/mol
DOCKED: USER    (3) Torsional Free Energy           =  +2.09 kcal/mol
DOCKED: USER    (4) Unbound System's Energy         =  -2.52 kcal/mol
DOCKED: USER
DOCKED: USER
DOCKED: REMARK SMILES O=C(Cc1ccc(-c2ccc(C(F)(F)F)nc2)cc1)/N=c1/nccc(-c2cccs2)[nH]1
DOCKED: REMARK SMILES IDX 3 1 2 2 1 3 20 4 21 5 23 6 22 7 24 8 25 9 31 10 26 12 30 13
DOCKED: REMARK SMILES IDX 27 14 29 15 28 16 4 17 5 18 19 19 6 20 18 21 7 22 8 23 17 24
DOCKED: REMARK SMILES IDX 9 25 16 26 10 27 11 28 12 29 13 30 14 31 15 32
DOCKED: REMARK H PARENT 31 11
DOCKED: USER                              x       y       z     vdW  Elec       q    Type
DOCKED: USER                           _______ _______ _______ _____ _____    ______ ____
DOCKED: ROOT
DOCKED: ATOM      1  C   UNL     1     141.215  74.393 220.073 -0.15 -0.03    +0.138 C  
DOCKED: ENDROOT
DOCKED: BRANCH   1   2
DOCKED: ATOM      2  C   UNL     1     142.628  74.805 219.803 -0.18 -0.09    +0.253 C  
DOCKED: ATOM      3  O   UNL     1     143.572  74.053 220.170 -0.24 +0.08    -0.272 OA 
DOCKED: BRANCH   2   4
DOCKED: ATOM      4  N   UNL     1     142.875  75.972 219.003 -0.21 +0.09    -0.177 NA 
DOCKED: BRANCH   4   5
DOCKED: ATOM      5  C   UNL     1     142.354  77.163 219.116 -0.22 -0.14    +0.230 A  
DOCKED: ATOM      6  C   UNL     1     141.116  78.902 218.095 -0.12 -0.06    +0.117 A  
DOCKED: ATOM      7  N   UNL     1     141.685  77.672 218.051 -0.10 +0.12    -0.221 NA 
DOCKED: ATOM      8  C   UNL     1     141.209  79.669 219.250 -0.20 -0.02    +0.048 A  
DOCKED: ATOM      9  C   UNL     1     141.880  79.141 220.363 -0.23 -0.04    +0.060 A  
DOCKED: ATOM     10  N   UNL     1     142.432  77.892 220.274 +0.03 +0.26    -0.323 N  
DOCKED: ATOM     11  H   UNL     1     142.871  77.485 221.125 -0.45 -0.20    +0.170 HD 
DOCKED: BRANCH   9  12
DOCKED: ATOM     12  C   UNL     1     141.991  79.920 221.624 -0.41 -0.02    +0.051 A  
DOCKED: ATOM     13  S   UNL     1     141.285  81.425 221.908 -0.44 +0.03    -0.142 S  
DOCKED: ATOM     14  C   UNL     1     142.678  79.554 222.782 -0.58 -0.01    +0.022 A  
DOCKED: ATOM     15  C   UNL     1     141.834  81.618 223.481 -0.48 -0.01    +0.065 A  
DOCKED: ATOM     16  C   UNL     1     142.586  80.500 223.812 -0.67 -0.00    +0.012 A  
DOCKED: ENDBRANCH   9  12
DOCKED: ENDBRANCH   4   5
DOCKED: ENDBRANCH   2   4
DOCKED: ENDBRANCH   1   2
DOCKED: BRANCH   1  17
DOCKED: ATOM     17  C   UNL     1     140.500  75.468 220.843 -0.24 +0.01    -0.039 A  
DOCKED: ATOM     18  C   UNL     1     141.058  75.987 222.019 -0.35 -0.00    +0.005 A  
DOCKED: ATOM     19  C   UNL     1     139.296  76.002 220.360 -0.11 -0.00    +0.005 A  
DOCKED: ATOM     20  C   UNL     1     140.407  77.006 222.720 -0.34 -0.00    +0.009 A  
DOCKED: ATOM     21  C   UNL     1     138.646  77.023 221.058 -0.14 -0.00    +0.009 A  
DOCKED: ATOM     22  C   UNL     1     139.193  77.534 222.249 -0.30 +0.00    -0.017 A  
DOCKED: BRANCH  22  23
DOCKED: ATOM     23  C   UNL     1     138.499  78.611 223.000 -0.29 -0.00    +0.000 A  
DOCKED: ATOM     24  C   UNL     1     137.102  78.756 222.932 -0.15 -0.02    +0.120 A  
DOCKED: ATOM     25  C   UNL     1     139.220  79.509 223.804 -0.40 -0.00    +0.012 A  
DOCKED: ATOM     26  N   UNL     1     136.480  79.748 223.623 -0.11 +0.03    -0.251 NA 
DOCKED: ATOM     27  C   UNL     1     138.558  80.515 224.507 -0.32 -0.00    +0.034 A  
DOCKED: ATOM     28  C   UNL     1     137.166  80.632 224.397 -0.26 -0.02    +0.144 A  
DOCKED: BRANCH  28  29
DOCKED: ATOM     29  C   UNL     1     136.427  81.688 225.164 -0.14 -0.04    +0.433 C  
DOCKED: ATOM     30  F   UNL     1     135.076  81.645 224.866 -0.03 +0.02    -0.165 F  
DOCKED: ATOM     31  F   UNL     1     136.913  82.941 224.835 -0.07 +0.01    -0.165 F  
DOCKED: ATOM     32  F   UNL     1     136.596  81.475 226.519 -0.17 +0.03    -0.165 F  
DOCKED: ENDBRANCH  28  29
DOCKED: ENDBRANCH  22  23
DOCKED: ENDBRANCH   1  17
DOCKED: TORSDOF 7
DOCKED: TER
DOCKED: ENDMDL
________________________________________________________________________________


    FINAL DOCKED STATE:
    ________________________


Run:   20 / 20
Time taken for this run:   0.031s

DOCKED: MODEL        20
DOCKED: USER    Run = 20
DOCKED: USER
DOCKED: USER    Estimated Free Energy of Binding    =  -6.52 kcal/mol  [=(1)+(2)+(3)-(4)]
DOCKED: USER
DOCKED: USER    (1) Final Intermolecular Energy     =  -8.61 kcal/mol
DOCKED: USER        vdW + Hbond + desolv Energy     =  -8.46 kcal/mol
DOCKED: USER        Electrostatic Energy            =  -0.15 kcal/mol
DOCKED: USER        Moving Ligand-Fixed Receptor    =  -8.61 kcal/mol
DOCKED: USER        Moving Ligand-Moving Receptor   =  +0.00 kcal/mol
DOCKED: USER    (2) Final Total Internal Energy     =  -2.42 kcal/mol
DOCKED: USER    (3) Torsional Free Energy           =  +2.09 kcal/mol
DOCKED: USER    (4) Unbound System's Energy         =  -2.42 kcal/mol
DOCKED: USER
DOCKED: USER
DOCKED: REMARK SMILES O=C(Cc1ccc(-c2ccc(C(F)(F)F)nc2)cc1)/N=c1/nccc(-c2cccs2)[nH]1
DOCKED: REMARK SMILES IDX 3 1 2 2 1 3 20 4 21 5 23 6 22 7 24 8 25 9 31 10 26 12 30 13
DOCKED: REMARK SMILES IDX 27 14 29 15 28 16 4 17 5 18 19 19 6 20 18 21 7 22 8 23 17 24
DOCKED: REMARK SMILES IDX 9 25 16 26 10 27 11 28 12 29 13 30 14 31 15 32
DOCKED: REMARK H PARENT 31 11
DOCKED: USER                              x       y       z     vdW  Elec       q    Type
DOCKED: USER                           _______ _______ _______ _____ _____    ______ ____
DOCKED: ROOT
DOCKED: ATOM      1  C   UNL     1     141.432  73.538 220.139 -0.14 -0.03    +0.138 C  
DOCKED: ENDROOT
DOCKED: BRANCH   1   2
DOCKED: ATOM      2  C   UNL     1     140.403  73.406 221.216 -0.17 -0.04    +0.253 C  
DOCKED: ATOM      3  O   UNL     1     139.630  72.409 221.214 -0.10 +0.05    -0.272 OA 
DOCKED: BRANCH   2   4
DOCKED: ATOM      4  N   UNL     1     140.411  74.337 222.310 -0.70 -0.01    -0.177 NA 
DOCKED: BRANCH   4   5
DOCKED: ATOM      5  C   UNL     1     139.970  75.564 222.339 -0.13 -0.03    +0.230 A  
DOCKED: ATOM      6  C   UNL     1     138.113  77.020 222.153 -0.21 -0.02    +0.117 A  
DOCKED: ATOM      7  N   UNL     1     138.645  75.773 222.135 -0.21 +0.05    -0.221 NA 
DOCKED: ATOM      8  C   UNL     1     138.931  78.120 222.387 -0.26 -0.01    +0.048 A  
DOCKED: ATOM      9  C   UNL     1     140.298  77.911 222.621 -0.37 -0.02    +0.060 A  
DOCKED: ATOM     10  N   UNL     1     140.787  76.633 222.601 -0.21 +0.09    -0.323 N  
DOCKED: ATOM     11  H   UNL     1     141.790  76.485 222.839 -0.44 -0.10    +0.170 HD 
DOCKED: BRANCH   9  12
DOCKED: ATOM     12  C   UNL     1     141.207  79.056 222.890 -0.47 -0.02    +0.051 A  
DOCKED: ATOM     13  S   UNL     1     140.728  80.570 223.458 -0.51 +0.02    -0.142 S  
DOCKED: ATOM     14  C   UNL     1     142.593  79.086 222.734 -0.47 -0.01    +0.022 A  
DOCKED: ATOM     15  C   UNL     1     142.254  81.263 223.513 -0.56 -0.01    +0.065 A  
DOCKED: ATOM     16  C   UNL     1     143.170  80.314 223.083 -0.64 -0.00    +0.012 A  
DOCKED: ENDBRANCH   9  12
DOCKED: ENDBRANCH   4   5
DOCKED: ENDBRANCH   2   4
DOCKED: ENDBRANCH   1   2
DOCKED: BRANCH   1  17
DOCKED: ATOM     17  C   UNL     1     141.577  74.980 219.736 -0.17 +0.01    -0.039 A  
DOCKED: ATOM     18  C   UNL     1     140.531  75.639 219.076 -0.09 -0.00    +0.005 A  
DOCKED: ATOM     19  C   UNL     1     142.739  75.693 220.066 -0.33 -0.00    +0.005 A  
DOCKED: ATOM     20  C   UNL     1     140.655  76.986 218.725 -0.09 -0.00    +0.009 A  
DOCKED: ATOM     21  C   UNL     1     142.863  77.040 219.719 -0.31 -0.01    +0.009 A  
DOCKED: ATOM     22  C   UNL     1     141.823  77.702 219.040 -0.25 +0.01    -0.017 A  
DOCKED: BRANCH  22  23
DOCKED: ATOM     23  C   UNL     1     141.956  79.131 218.659 -0.28 -0.00    +0.000 A  
DOCKED: ATOM     24  C   UNL     1     141.766  80.153 219.605 -0.25 -0.06    +0.120 A  
DOCKED: ATOM     25  C   UNL     1     142.282  79.497 217.343 -0.25 -0.01    +0.012 A  
DOCKED: ATOM     26  N   UNL     1     141.888  81.457 219.241 -0.15 +0.11    -0.251 NA 
DOCKED: ATOM     27  C   UNL     1     142.405  80.843 216.995 -0.20 -0.04    +0.034 A  
DOCKED: ATOM     28  C   UNL     1     142.192  81.829 217.968 -0.23 -0.09    +0.144 A  
DOCKED: BRANCH  28  29
DOCKED: ATOM     29  C   UNL     1     142.347  83.281 217.627 -0.07 -0.20    +0.433 C  
DOCKED: ATOM     30  F   UNL     1     141.711  84.069 218.570 -0.04 +0.05    -0.165 F  
DOCKED: ATOM     31  F   UNL     1     141.790  83.539 216.387 -0.02 +0.07    -0.165 F  
DOCKED: ATOM     32  F   UNL     1     143.689  83.607 217.601 -0.12 +0.09    -0.165 F  
DOCKED: ENDBRANCH  28  29
DOCKED: ENDBRANCH  22  23
DOCKED: ENDBRANCH   1  17
DOCKED: TORSDOF 7
DOCKED: TER
DOCKED: ENDMDL
________________________________________________________________________________


    CLUSTERING HISTOGRAM
    ____________________


________________________________________________________________________________
     |           |     |           |     |
Clus | Lowest    | Run | Mean      | Num | Histogram
-ter | Binding   |     | Binding   | in  |
Rank | Energy    |     | Energy    | Clus|    5    10   15   20   25   30   35
_____|___________|_____|___________|_____|____:____|____:____|____:____|____:___
   1 |     -7.49 |  17 |     -7.49 |   1 |#
   2 |     -7.29 |   1 |     -7.29 |   1 |#
   3 |     -7.28 |  16 |     -7.28 |   1 |#
   4 |     -6.56 |  18 |     -6.36 |  16 |################
   5 |     -6.05 |  19 |     -6.05 |   1 |#
_____|___________|_____|___________|_____|______________________________________


    RMSD TABLE
    __________


_______________________________________________________________________
     |      |      |           |         |                 |
Rank | Sub- | Run  | Binding   | Cluster | Reference       | Grep
     | Rank |      | Energy    | RMSD    | RMSD            | Pattern
_____|______|______|___________|_________|_________________|___________
   1      1     17       -7.49      0.00    271.46           RANKING
   2      1      1       -7.29      0.00    270.82           RANKING
   3      1     16       -7.28      0.00    271.64           RANKING
   4      1     18       -6.56      0.00    270.72           RANKING
   4      2     20       -6.52      0.11    270.73           RANKING
   4      3     12       -6.51      0.99    270.83           RANKING
   4      4     15       -6.50      0.48    270.75           RANKING
   4      5      4       -6.48      0.92    270.75           RANKING
   4      6      6       -6.47      0.48    270.76           RANKING
   4      7      3       -6.44      0.79    270.72           RANKING
   4      8     10       -6.41      0.91    270.75           RANKING
   4      9     13       -6.40      0.88    270.71           RANKING
   4     10      7       -6.38      0.95    270.80           RANKING
   4     11     14       -6.27      0.62    270.60           RANKING
   4     12     11       -6.23      0.91    270.45           RANKING
   4     13      5       -6.16      0.74    270.68           RANKING
   4     14      2       -6.16      1.37    271.11           RANKING
   4     15      8       -6.14      1.43    271.16           RANKING
   4     16      9       -6.14      1.39    271.12           RANKING
   5      1     19       -6.05      0.00    271.46           RANKING

Run time 0.566 sec
Idle time 0.000 sec
