REMARK SMILES O=C(NCC(=O)N1CCC[C@H]1c1ccc(Cl)cc1)c1ccc2cc(F)ccc2n1
REMARK SMILES IDX 4 1 3 2 2 3 1 4 19 6 20 7 29 8 21 9 28 10 22 11 27 12 23 13
REMARK SMILES IDX 26 14 24 15 25 16 5 17 6 18 7 19 8 20 11 21 9 22 10 23 12 24
REMARK SMILES IDX 13 25 18 26 14 27 17 28 15 29 16 30
REMARK H PARENT 3 5
ROOT
ATOM      1  C   UNL     1      -0.185  -0.516  -1.706  1.00  0.00     0.216 C 
ENDROOT
BRANCH   1   2
ATOM      2  N   UNL     1       1.003  -0.120  -0.973  1.00  0.00    -0.342 N 
ATOM      3  C   UNL     1       2.248  -0.249  -1.646  1.00  0.00     0.270 C 
ATOM      4  O   UNL     1       2.205  -0.699  -2.826  1.00  0.00    -0.268 OA
ATOM      5  H   UNL     1       0.964   0.248   0.011  1.00  0.00     0.164 HD
BRANCH   3   6
ATOM      6  C   UNL     1       3.502   0.121  -0.999  1.00  0.00     0.128 A 
ATOM      7  C   UNL     1       4.667  -0.035  -1.722  1.00  0.00     0.035 A 
ATOM      8  N   UNL     1       3.528   0.603   0.268  1.00  0.00    -0.243 NA
ATOM      9  C   UNL     1       5.863   0.301  -1.151  1.00  0.00     0.013 A 
ATOM     10  C   UNL     1       4.698   0.945   0.864  1.00  0.00     0.071 A 
ATOM     11  C   UNL     1       5.869   0.789   0.140  1.00  0.00     0.003 A 
ATOM     12  C   UNL     1       4.685   1.432   2.156  1.00  0.00     0.032 A 
ATOM     13  C   UNL     1       7.060   1.139   0.748  1.00  0.00     0.049 A 
ATOM     14  C   UNL     1       5.889   1.782   2.762  1.00  0.00     0.041 A 
ATOM     15  C   UNL     1       7.074   1.634   2.054  1.00  0.00     0.123 A 
ATOM     16  F   UNL     1       8.257   1.957   2.595  1.00  0.00    -0.207 F 
ENDBRANCH   3   6
ENDBRANCH   1   2
BRANCH   1  17
ATOM     17  C   UNL     1      -1.414  -0.324  -0.872  1.00  0.00     0.242 C 
ATOM     18  O   UNL     1      -1.229   0.130   0.280  1.00  0.00    -0.273 OA
BRANCH  17  19
ATOM     19  N   UNL     1      -2.663  -0.662  -1.433  1.00  0.00    -0.334 N 
ATOM     20  C   UNL     1      -2.884  -1.218  -2.791  1.00  0.00     0.120 C 
ATOM     21  C   UNL     1      -4.013  -0.595  -0.905  1.00  0.00     0.115 C 
ATOM     22  C   UNL     1      -3.898  -2.324  -2.479  1.00  0.00     0.024 C 
ATOM     23  C   UNL     1      -4.421  -2.035  -1.065  1.00  0.00     0.032 C 
BRANCH  21  24
ATOM     24  C   UNL     1      -4.158  -0.031   0.421  1.00  0.00    -0.025 A 
ATOM     25  C   UNL     1      -4.769  -0.713   1.471  1.00  0.00     0.007 A 
ATOM     26  C   UNL     1      -3.713   1.239   0.703  1.00  0.00     0.007 A 
ATOM     27  C   UNL     1      -4.936  -0.193   2.716  1.00  0.00     0.021 A 
ATOM     28  C   UNL     1      -3.880   1.783   1.981  1.00  0.00     0.021 A 
ATOM     29  C   UNL     1      -4.489   1.081   3.000  1.00  0.00     0.041 A 
ATOM     30  Cl  UNL     1      -4.683   1.787   4.590  1.00  0.00    -0.084 Cl
ENDBRANCH  21  24
ENDBRANCH  17  19
ENDBRANCH   1  17
TORSDOF 5
