REMARK SMILES O=C(NCC(=O)N1CCC[C@@H]1c1ccc(Cl)cc1)c1ccc2cc(F)ccc2n1
REMARK SMILES IDX 4 1 3 2 2 3 1 4 19 6 20 7 29 8 21 9 28 10 22 11 27 12 23 13
REMARK SMILES IDX 26 14 24 15 25 16 5 17 6 18 7 19 8 20 11 21 9 22 10 23 12 24
REMARK SMILES IDX 13 25 18 26 14 27 17 28 15 29 16 30
REMARK H PARENT 3 5
ROOT
ATOM      1  C   UNL     1      -0.381   0.082   0.972  1.00  0.00     0.216 C 
ENDROOT
BRANCH   1   2
ATOM      2  N   UNL     1       1.034   0.300   0.711  1.00  0.00    -0.342 N 
ATOM      3  C   UNL     1       1.864  -0.811   0.453  1.00  0.00     0.270 C 
ATOM      4  O   UNL     1       1.423  -2.007   0.440  1.00  0.00    -0.268 OA
ATOM      5  H   UNL     1       1.406   1.283   0.720  1.00  0.00     0.164 HD
BRANCH   3   6
ATOM      6  C   UNL     1       3.288  -0.598   0.190  1.00  0.00     0.128 A 
ATOM      7  C   UNL     1       4.133  -1.659  -0.066  1.00  0.00     0.035 A 
ATOM      8  N   UNL     1       3.843   0.629   0.184  1.00  0.00    -0.243 NA
ATOM      9  C   UNL     1       5.477  -1.515  -0.319  1.00  0.00     0.013 A 
ATOM     10  C   UNL     1       5.172   0.821  -0.063  1.00  0.00     0.071 A 
ATOM     11  C   UNL     1       6.013  -0.245  -0.318  1.00  0.00     0.003 A 
ATOM     12  C   UNL     1       5.721   2.090  -0.064  1.00  0.00     0.032 A 
ATOM     13  C   UNL     1       7.362  -0.097  -0.572  1.00  0.00     0.049 A 
ATOM     14  C   UNL     1       7.069   2.233  -0.319  1.00  0.00     0.041 A 
ATOM     15  C   UNL     1       7.911   1.171  -0.574  1.00  0.00     0.123 A 
ATOM     16  F   UNL     1       9.234   1.309  -0.824  1.00  0.00    -0.207 F 
ENDBRANCH   3   6
ENDBRANCH   1   2
BRANCH   1  17
ATOM     17  C   UNL     1      -0.995  -0.580  -0.201  1.00  0.00     0.242 C 
ATOM     18  O   UNL     1      -0.286  -0.856  -1.203  1.00  0.00    -0.273 OA
BRANCH  17  19
ATOM     19  N   UNL     1      -2.363  -0.928  -0.261  1.00  0.00    -0.334 N 
ATOM     20  C   UNL     1      -3.107  -1.594  -1.332  1.00  0.00     0.120 C 
ATOM     21  C   UNL     1      -3.414  -0.710   0.759  1.00  0.00     0.115 C 
ATOM     22  C   UNL     1      -3.740  -2.712  -0.532  1.00  0.00     0.024 C 
ATOM     23  C   UNL     1      -4.147  -2.031   0.751  1.00  0.00     0.032 C 
BRANCH  21  24
ATOM     24  C   UNL     1      -4.224   0.453   0.409  1.00  0.00    -0.025 A 
ATOM     25  C   UNL     1      -5.577   0.574   0.540  1.00  0.00     0.007 A 
ATOM     26  C   UNL     1      -3.557   1.564  -0.127  1.00  0.00     0.007 A 
ATOM     27  C   UNL     1      -6.286   1.714   0.174  1.00  0.00     0.021 A 
ATOM     28  C   UNL     1      -4.266   2.709  -0.494  1.00  0.00     0.021 A 
ATOM     29  C   UNL     1      -5.629   2.805  -0.353  1.00  0.00     0.041 A 
ATOM     30  Cl  UNL     1      -6.552   4.219  -0.800  1.00  0.00    -0.084 Cl
ENDBRANCH  21  24
ENDBRANCH  17  19
ENDBRANCH   1  17
TORSDOF 5
