REMARK SMILES CCCN(CCNC(=O)c1ccc2cc(F)ccc2n1)C(=O)[C@H]1C[C@H](O)CN1C(=O)c1ccccc1
REMARK SMILES IDX 4 1 3 2 2 3 1 4 5 5 6 6 7 7 8 8 9 10 10 11 11 12 20 13 12 14
REMARK SMILES IDX 19 15 13 16 18 17 14 18 17 19 15 20 16 21 21 22 22 23 23 24
REMARK SMILES IDX 24 25 28 26 25 27 27 28 29 29 30 30 31 31 32 32 36 33 33 34
REMARK SMILES IDX 35 35 34 36 26 37
REMARK H PARENT 7 9 26 38
ROOT
ATOM      1  N   UNL     1      -0.129   1.052  -1.368  1.00  0.00    -0.339 N 
ENDROOT
BRANCH   1   2
ATOM      2  C   UNL     1       0.315  -0.119  -2.121  1.00  0.00     0.119 C 
BRANCH   2   3
ATOM      3  C   UNL     1      -0.231  -0.078  -3.538  1.00  0.00     0.018 C 
ATOM      4  C   UNL     1       0.216  -1.281  -4.335  1.00  0.00     0.006 C 
ENDBRANCH   2   3
ENDBRANCH   1   2
BRANCH   1   5
ATOM      5  C   UNL     1       0.655   2.240  -1.412  1.00  0.00     0.140 C 
BRANCH   5   6
ATOM      6  C   UNL     1       1.654   2.482  -0.359  1.00  0.00     0.137 C 
BRANCH   6   7
ATOM      7  N   UNL     1       2.704   1.561  -0.153  1.00  0.00    -0.349 N 
ATOM      8  C   UNL     1       3.658   1.874   0.894  1.00  0.00     0.269 C 
ATOM      9  H   UNL     1       2.900   0.674  -0.652  1.00  0.00     0.163 HD
ATOM     10  O   UNL     1       3.461   2.954   1.525  1.00  0.00    -0.268 OA
BRANCH   8  11
ATOM     11  C   UNL     1       4.770   0.978   1.180  1.00  0.00     0.128 A 
ATOM     12  C   UNL     1       5.650   1.396   2.180  1.00  0.00     0.035 A 
ATOM     13  N   UNL     1       4.979  -0.184   0.546  1.00  0.00    -0.243 NA
ATOM     14  C   UNL     1       6.728   0.604   2.504  1.00  0.00     0.013 A 
ATOM     15  C   UNL     1       6.038  -0.957   0.868  1.00  0.00     0.071 A 
ATOM     16  C   UNL     1       6.925  -0.581   1.844  1.00  0.00     0.003 A 
ATOM     17  C   UNL     1       6.256  -2.151   0.225  1.00  0.00     0.032 A 
ATOM     18  C   UNL     1       7.993  -1.407   2.141  1.00  0.00     0.049 A 
ATOM     19  C   UNL     1       7.317  -2.990   0.507  1.00  0.00     0.041 A 
ATOM     20  C   UNL     1       8.207  -2.603   1.493  1.00  0.00     0.123 A 
ATOM     21  F   UNL     1       9.284  -3.361   1.842  1.00  0.00    -0.207 F 
ENDBRANCH   8  11
ENDBRANCH   6   7
ENDBRANCH   5   6
ENDBRANCH   1   5
BRANCH   1  22
ATOM     22  C   UNL     1      -1.369   1.008  -0.617  1.00  0.00     0.245 C 
ATOM     23  O   UNL     1      -1.708   2.056  -0.024  1.00  0.00    -0.272 OA
BRANCH  22  24
ATOM     24  C   UNL     1      -2.181  -0.259  -0.577  1.00  0.00     0.177 C 
ATOM     25  C   UNL     1      -1.678  -1.122   0.582  1.00  0.00     0.069 C 
ATOM     26  N   UNL     1      -3.548  -0.067  -0.227  1.00  0.00    -0.324 N 
ATOM     27  C   UNL     1      -2.900  -1.574   1.349  1.00  0.00     0.136 C 
ATOM     28  C   UNL     1      -3.996  -1.362   0.327  1.00  0.00     0.152 C 
BRANCH  26  29
ATOM     29  C   UNL     1      -4.434   1.026  -0.322  1.00  0.00     0.254 C 
ATOM     30  O   UNL     1      -4.120   2.161  -0.800  1.00  0.00    -0.269 OA
BRANCH  29  31
ATOM     31  C   UNL     1      -5.840   0.945   0.139  1.00  0.00     0.040 A 
ATOM     32  C   UNL     1      -6.158   0.704   1.458  1.00  0.00     0.014 A 
ATOM     33  C   UNL     1      -6.797   1.134  -0.847  1.00  0.00     0.014 A 
ATOM     34  C   UNL     1      -7.519   0.659   1.759  1.00  0.00     0.001 A 
ATOM     35  C   UNL     1      -8.134   1.088  -0.536  1.00  0.00     0.001 A 
ATOM     36  C   UNL     1      -8.480   0.846   0.786  1.00  0.00     0.000 A 
ENDBRANCH  29  31
ENDBRANCH  26  29
BRANCH  27  37
ATOM     37  O   UNL     1      -2.806  -2.919   1.715  1.00  0.00    -0.391 OA
ATOM     38  H   UNL     1      -3.249  -3.446   1.008  1.00  0.00     0.211 HD
ENDBRANCH  27  37
ENDBRANCH  22  24
ENDBRANCH   1  22
TORSDOF 11
