REMARK SMILES C[C@H]1CCN(C(=O)CNC(=O)c2ccc3cc(F)ccc3n2)[C@H]1C(=O)NCc1ccccc1
REMARK SMILES IDX 6 1 7 2 5 3 2 4 3 5 23 6 4 7 1 8 24 9 26 10 25 11 27 13
REMARK SMILES IDX 28 14 29 15 33 16 30 17 32 18 31 19 8 20 9 21 10 22 11 24
REMARK SMILES IDX 12 25 13 26 22 27 14 28 21 29 15 30 20 31 16 32 19 33 17 34
REMARK SMILES IDX 18 35
REMARK H PARENT 26 12 9 23
ROOT
ATOM      1  C   UNL     1       0.697  -1.323   0.900  1.00  0.00     0.242 C 
ATOM      2  O   UNL     1       1.606  -2.203   0.839  1.00  0.00    -0.273 OA
ENDROOT
BRANCH   1   3
ATOM      3  N   UNL     1      -0.616  -1.758   1.149  1.00  0.00    -0.329 N 
ATOM      4  C   UNL     1      -2.819  -1.716   2.074  1.00  0.00     0.020 C 
ATOM      5  C   UNL     1      -1.980  -2.869   2.590  1.00  0.00     0.027 C 
ATOM      6  C   UNL     1      -1.820  -0.930   1.263  1.00  0.00     0.177 C 
ATOM      7  C   UNL     1      -1.104  -3.121   1.355  1.00  0.00     0.121 C 
ATOM      8  C   UNL     1      -3.906  -2.342   1.224  1.00  0.00     0.010 C 
BRANCH   6   9
ATOM      9  C   UNL     1      -2.292  -0.690  -0.125  1.00  0.00     0.243 C 
ATOM     10  N   UNL     1      -3.482   0.115  -0.251  1.00  0.00    -0.350 N 
ATOM     11  O   UNL     1      -1.710  -1.147  -1.144  1.00  0.00    -0.273 OA
ATOM     12  H   UNL     1      -3.963   0.494   0.609  1.00  0.00     0.163 HD
BRANCH  10  13
ATOM     13  C   UNL     1      -4.055   0.429  -1.547  1.00  0.00     0.151 C 
BRANCH  13  14
ATOM     14  C   UNL     1      -5.277   1.269  -1.440  1.00  0.00    -0.029 A 
ATOM     15  C   UNL     1      -5.065   2.651  -1.457  1.00  0.00     0.005 A 
ATOM     16  C   UNL     1      -6.548   0.744  -1.328  1.00  0.00     0.005 A 
ATOM     17  C   UNL     1      -6.136   3.538  -1.362  1.00  0.00     0.000 A 
ATOM     18  C   UNL     1      -7.607   1.614  -1.235  1.00  0.00     0.000 A 
ATOM     19  C   UNL     1      -7.400   2.981  -1.252  1.00  0.00     0.000 A 
ENDBRANCH  13  14
ENDBRANCH  10  13
ENDBRANCH   6   9
ENDBRANCH   1   3
BRANCH   1  20
ATOM     20  C   UNL     1       0.959   0.120   0.723  1.00  0.00     0.216 C 
BRANCH  20  21
ATOM     21  N   UNL     1       2.377   0.310   0.481  1.00  0.00    -0.342 N 
ATOM     22  C   UNL     1       3.045  -0.281  -0.629  1.00  0.00     0.270 C 
ATOM     23  H   UNL     1       2.953   0.906   1.143  1.00  0.00     0.164 HD
ATOM     24  O   UNL     1       2.433  -1.002  -1.461  1.00  0.00    -0.268 OA
BRANCH  22  25
ATOM     25  C   UNL     1       4.489  -0.027  -0.787  1.00  0.00     0.128 A 
ATOM     26  C   UNL     1       5.164  -0.586  -1.854  1.00  0.00     0.035 A 
ATOM     27  N   UNL     1       5.161   0.742   0.093  1.00  0.00    -0.243 NA
ATOM     28  C   UNL     1       6.523  -0.322  -1.966  1.00  0.00     0.013 A 
ATOM     29  C   UNL     1       6.477   1.000  -0.012  1.00  0.00     0.071 A 
ATOM     30  C   UNL     1       7.203   0.467  -1.060  1.00  0.00     0.003 A 
ATOM     31  C   UNL     1       7.096   1.809   0.947  1.00  0.00     0.032 A 
ATOM     32  C   UNL     1       8.554   0.737  -1.159  1.00  0.00     0.049 A 
ATOM     33  C   UNL     1       8.450   2.085   0.853  1.00  0.00     0.041 A 
ATOM     34  C   UNL     1       9.166   1.535  -0.215  1.00  0.00     0.123 A 
ATOM     35  F   UNL     1      10.494   1.807  -0.304  1.00  0.00    -0.207 F 
ENDBRANCH  22  25
ENDBRANCH  20  21
ENDBRANCH   1  20
TORSDOF 7
