REMARK SMILES C[C@@H]1CCN(C(=O)CNC(=O)c2ccc3cc(F)ccc3n2)[C@H]1C(=O)NCc1ccccc1
REMARK SMILES IDX 6 1 7 2 5 3 2 4 3 5 23 6 4 7 1 8 24 9 26 10 25 11 27 13
REMARK SMILES IDX 28 14 29 15 33 16 30 17 32 18 31 19 8 20 9 21 10 22 11 24
REMARK SMILES IDX 12 25 13 26 22 27 14 28 21 29 15 30 20 31 16 32 19 33 17 34
REMARK SMILES IDX 18 35
REMARK H PARENT 26 12 9 23
ROOT
ATOM      1  C   UNL     1      -0.498   1.061   1.466  1.00  0.00     0.242 C 
ATOM      2  O   UNL     1      -1.630   1.299   2.095  1.00  0.00    -0.273 OA
ENDROOT
BRANCH   1   3
ATOM      3  N   UNL     1      -0.573   0.070   0.496  1.00  0.00    -0.329 N 
ATOM      4  C   UNL     1      -1.276  -2.128   0.083  1.00  0.00     0.020 C 
ATOM      5  C   UNL     1       0.190  -1.991  -0.205  1.00  0.00     0.027 C 
ATOM      6  C   UNL     1      -1.786  -0.764   0.302  1.00  0.00     0.177 C 
ATOM      7  C   UNL     1       0.307  -0.492  -0.504  1.00  0.00     0.121 C 
ATOM      8  C   UNL     1      -1.537  -3.065   1.252  1.00  0.00     0.010 C 
BRANCH   6   9
ATOM      9  C   UNL     1      -2.617  -0.238  -0.808  1.00  0.00     0.243 C 
ATOM     10  N   UNL     1      -3.810  -0.934  -1.116  1.00  0.00    -0.350 N 
ATOM     11  O   UNL     1      -2.221   0.780  -1.402  1.00  0.00    -0.273 OA
ATOM     12  H   UNL     1      -4.070  -1.796  -0.554  1.00  0.00     0.163 HD
BRANCH  10  13
ATOM     13  C   UNL     1      -4.732  -0.565  -2.157  1.00  0.00     0.151 C 
BRANCH  13  14
ATOM     14  C   UNL     1      -5.538   0.582  -1.711  1.00  0.00    -0.029 A 
ATOM     15  C   UNL     1      -6.718   0.319  -1.008  1.00  0.00     0.005 A 
ATOM     16  C   UNL     1      -5.222   1.902  -1.936  1.00  0.00     0.005 A 
ATOM     17  C   UNL     1      -7.536   1.344  -0.558  1.00  0.00     0.000 A 
ATOM     18  C   UNL     1      -6.038   2.934  -1.488  1.00  0.00     0.000 A 
ATOM     19  C   UNL     1      -7.202   2.672  -0.795  1.00  0.00     0.000 A 
ENDBRANCH  13  14
ENDBRANCH  10  13
ENDBRANCH   6   9
ENDBRANCH   1   3
BRANCH   1  20
ATOM     20  C   UNL     1       0.590   1.903   1.932  1.00  0.00     0.216 C 
BRANCH  20  21
ATOM     21  N   UNL     1       1.895   1.644   1.406  1.00  0.00    -0.342 N 
ATOM     22  C   UNL     1       2.477   0.362   1.751  1.00  0.00     0.270 C 
ATOM     23  H   UNL     1       2.454   2.285   0.806  1.00  0.00     0.164 HD
ATOM     24  O   UNL     1       1.812  -0.418   2.475  1.00  0.00    -0.268 OA
BRANCH  22  25
ATOM     25  C   UNL     1       3.804   0.059   1.233  1.00  0.00     0.128 A 
ATOM     26  C   UNL     1       4.369  -1.165   1.563  1.00  0.00     0.035 A 
ATOM     27  N   UNL     1       4.492   0.932   0.448  1.00  0.00    -0.243 NA
ATOM     28  C   UNL     1       5.642  -1.488   1.085  1.00  0.00     0.013 A 
ATOM     29  C   UNL     1       5.723   0.628  -0.018  1.00  0.00     0.071 A 
ATOM     30  C   UNL     1       6.323  -0.578   0.285  1.00  0.00     0.003 A 
ATOM     31  C   UNL     1       6.366   1.539  -0.799  1.00  0.00     0.032 A 
ATOM     32  C   UNL     1       7.584  -0.858  -0.209  1.00  0.00     0.049 A 
ATOM     33  C   UNL     1       7.631   1.284  -1.308  1.00  0.00     0.041 A 
ATOM     34  C   UNL     1       8.250   0.069  -1.009  1.00  0.00     0.123 A 
ATOM     35  F   UNL     1       9.489  -0.232  -1.483  1.00  0.00    -0.207 F 
ENDBRANCH  22  25
ENDBRANCH  20  21
ENDBRANCH   1  20
TORSDOF 7
