REMARK SMILES O=C(NCC(=O)N1CCCC[C@H]1c1ccc(Cl)cc1)c1ccc2cc(Cl)ccc2n1
REMARK SMILES IDX 4 1 3 2 2 3 1 4 20 6 21 7 30 8 22 9 29 10 23 11 28 12 24 13
REMARK SMILES IDX 27 14 25 15 26 16 5 17 6 18 7 19 8 20 12 21 9 22 11 23 10 24
REMARK SMILES IDX 13 25 14 26 19 27 15 28 18 29 16 30 17 31
REMARK H PARENT 3 5
ROOT
ATOM      1  C   UNL     1      -1.227   0.816   2.486  1.00  0.00     0.216 C 
ENDROOT
BRANCH   1   2
ATOM      2  N   UNL     1      -0.043   0.770   1.698  1.00  0.00    -0.342 N 
ATOM      3  C   UNL     1       1.022   1.671   2.111  1.00  0.00     0.270 C 
ATOM      4  O   UNL     1       0.798   2.398   3.115  1.00  0.00    -0.268 OA
ATOM      5  H   UNL     1       0.184   0.198   0.883  1.00  0.00     0.164 HD
BRANCH   3   6
ATOM      6  C   UNL     1       2.271   1.695   1.368  1.00  0.00     0.128 A 
ATOM      7  C   UNL     1       3.246   2.569   1.804  1.00  0.00     0.035 A 
ATOM      8  N   UNL     1       2.516   0.921   0.295  1.00  0.00    -0.243 NA
ATOM      9  C   UNL     1       4.447   2.648   1.155  1.00  0.00     0.013 A 
ATOM     10  C   UNL     1       3.689   0.970  -0.372  1.00  0.00     0.071 A 
ATOM     11  C   UNL     1       4.684   1.838   0.046  1.00  0.00     0.002 A 
ATOM     12  C   UNL     1       3.895   0.161  -1.462  1.00  0.00     0.030 A 
ATOM     13  C   UNL     1       5.903   1.925  -0.605  1.00  0.00     0.030 A 
ATOM     14  C   UNL     1       5.101   0.223  -2.134  1.00  0.00     0.023 A 
ATOM     15  C   UNL     1       6.102   1.100  -1.709  1.00  0.00     0.041 A 
ATOM     16  Cl  UNL     1       7.647   1.186  -2.563  1.00  0.00    -0.084 Cl
ENDBRANCH   3   6
ENDBRANCH   1   2
BRANCH   1  17
ATOM     17  C   UNL     1      -2.358  -0.031   2.168  1.00  0.00     0.242 C 
ATOM     18  O   UNL     1      -3.369   0.135   3.013  1.00  0.00    -0.273 OA
BRANCH  17  19
ATOM     19  N   UNL     1      -2.643  -0.976   1.194  1.00  0.00    -0.334 N 
ATOM     20  C   UNL     1      -4.012  -1.599   1.338  1.00  0.00     0.120 C 
ATOM     21  C   UNL     1      -1.917  -1.477   0.091  1.00  0.00     0.115 C 
ATOM     22  C   UNL     1      -3.641  -3.013   1.776  1.00  0.00     0.022 C 
ATOM     23  C   UNL     1      -2.489  -2.774  -0.462  1.00  0.00     0.030 C 
ATOM     24  C   UNL     1      -3.102  -3.675   0.554  1.00  0.00     0.004 C 
BRANCH  21  25
ATOM     25  C   UNL     1      -1.834  -0.485  -1.004  1.00  0.00    -0.025 A 
ATOM     26  C   UNL     1      -2.896   0.337  -1.359  1.00  0.00     0.007 A 
ATOM     27  C   UNL     1      -0.680  -0.320  -1.773  1.00  0.00     0.007 A 
ATOM     28  C   UNL     1      -2.823   1.249  -2.391  1.00  0.00     0.021 A 
ATOM     29  C   UNL     1      -0.600   0.588  -2.804  1.00  0.00     0.021 A 
ATOM     30  C   UNL     1      -1.670   1.390  -3.133  1.00  0.00     0.041 A 
ATOM     31  Cl  UNL     1      -1.528   2.532  -4.451  1.00  0.00    -0.084 Cl
ENDBRANCH  21  25
ENDBRANCH  17  19
ENDBRANCH   1  17
TORSDOF 5
