REMARK SMILES O=C(NCC(=O)N1CCC[C@H]1c1ccc(Cl)cc1)c1ccc2ccccc2n1
REMARK SMILES IDX 5 1 6 2 4 3 3 4 2 5 1 6 19 8 20 9 28 10 21 11 27 12 22 13
REMARK SMILES IDX 26 14 23 15 25 16 24 17 7 18 8 19 11 20 9 21 10 22 12 23
REMARK SMILES IDX 13 24 18 25 14 26 17 27 15 28 16 29
REMARK H PARENT 3 7
ROOT
ATOM      1  C   UNL     1      -1.082   1.044   0.424  1.00  0.00     0.242 C 
ATOM      2  O   UNL     1      -0.065   1.839   0.390  1.00  0.00    -0.273 OA
ENDROOT
BRANCH   1   3
ATOM      3  C   UNL     1      -0.754  -0.377   0.532  1.00  0.00     0.216 C 
BRANCH   3   4
ATOM      4  N   UNL     1       0.713  -0.531   0.526  1.00  0.00    -0.342 N 
ATOM      5  C   UNL     1       1.485  -0.078  -0.601  1.00  0.00     0.270 C 
ATOM      6  O   UNL     1       0.945   0.458  -1.607  1.00  0.00    -0.268 OA
ATOM      7  H   UNL     1       1.237  -0.960   1.307  1.00  0.00     0.164 HD
BRANCH   5   8
ATOM      8  C   UNL     1       2.951  -0.254  -0.561  1.00  0.00     0.128 A 
ATOM      9  C   UNL     1       3.706   0.174  -1.631  1.00  0.00     0.035 A 
ATOM     10  N   UNL     1       3.561  -0.814   0.479  1.00  0.00    -0.243 NA
ATOM     11  C   UNL     1       5.078   0.037  -1.651  1.00  0.00     0.013 A 
ATOM     12  C   UNL     1       4.895  -0.970   0.507  1.00  0.00     0.071 A 
ATOM     13  C   UNL     1       5.678  -0.543  -0.567  1.00  0.00     0.000 A 
ATOM     14  C   UNL     1       5.563  -1.542   1.558  1.00  0.00     0.029 A 
ATOM     15  C   UNL     1       7.038  -0.716  -0.508  1.00  0.00     0.010 A 
ATOM     16  C   UNL     1       6.920  -1.717   1.621  1.00  0.00     0.002 A 
ATOM     17  C   UNL     1       7.688  -1.292   0.555  1.00  0.00     0.001 A 
ENDBRANCH   5   8
ENDBRANCH   3   4
ENDBRANCH   1   3
BRANCH   1  18
ATOM     18  N   UNL     1      -2.325   1.662   0.351  1.00  0.00    -0.334 N 
ATOM     19  C   UNL     1      -2.400   3.161   0.265  1.00  0.00     0.120 C 
ATOM     20  C   UNL     1      -3.703   1.290   0.297  1.00  0.00     0.115 C 
ATOM     21  C   UNL     1      -3.619   3.430  -0.592  1.00  0.00     0.024 C 
ATOM     22  C   UNL     1      -4.125   2.029  -0.967  1.00  0.00     0.032 C 
BRANCH  20  23
ATOM     23  C   UNL     1      -4.066  -0.109   0.286  1.00  0.00    -0.025 A 
ATOM     24  C   UNL     1      -3.811  -1.044   1.257  1.00  0.00     0.007 A 
ATOM     25  C   UNL     1      -4.746  -0.592  -0.842  1.00  0.00     0.007 A 
ATOM     26  C   UNL     1      -4.166  -2.362   1.188  1.00  0.00     0.021 A 
ATOM     27  C   UNL     1      -5.118  -1.924  -0.937  1.00  0.00     0.021 A 
ATOM     28  C   UNL     1      -4.839  -2.833   0.067  1.00  0.00     0.041 A 
ATOM     29  Cl  UNL     1      -5.299  -4.507  -0.039  1.00  0.00    -0.084 Cl
ENDBRANCH  20  23
ENDBRANCH   1  18
TORSDOF 5
