REMARK SMILES O=C(NCC(=O)N1CCC[C@@H]1c1ccc(Cl)cc1)c1ccc2ccccc2n1
REMARK SMILES IDX 5 1 6 2 4 3 3 4 2 5 1 6 19 8 20 9 28 10 21 11 27 12 22 13
REMARK SMILES IDX 26 14 23 15 25 16 24 17 7 18 8 19 11 20 9 21 10 22 12 23
REMARK SMILES IDX 13 24 18 25 14 26 17 27 15 28 16 29
REMARK H PARENT 3 7
ROOT
ATOM      1  C   UNL     1       1.216   1.126  -0.026  1.00  0.00     0.242 C 
ATOM      2  O   UNL     1       0.937  -0.107  -0.015  1.00  0.00    -0.273 OA
ENDROOT
BRANCH   1   3
ATOM      3  C   UNL     1       0.052   2.051  -0.075  1.00  0.00     0.216 C 
BRANCH   3   4
ATOM      4  N   UNL     1      -1.201   1.367  -0.101  1.00  0.00    -0.342 N 
ATOM      5  C   UNL     1      -1.587   0.506   0.943  1.00  0.00     0.270 C 
ATOM      6  O   UNL     1      -0.811   0.343   1.907  1.00  0.00    -0.268 OA
ATOM      7  H   UNL     1      -1.891   1.477  -0.899  1.00  0.00     0.164 HD
BRANCH   5   8
ATOM      8  C   UNL     1      -2.890  -0.189   0.892  1.00  0.00     0.128 A 
ATOM      9  C   UNL     1      -3.227  -1.031   1.947  1.00  0.00     0.035 A 
ATOM     10  N   UNL     1      -3.695   0.005  -0.148  1.00  0.00    -0.243 NA
ATOM     11  C   UNL     1      -4.464  -1.663   1.854  1.00  0.00     0.013 A 
ATOM     12  C   UNL     1      -4.883  -0.612  -0.222  1.00  0.00     0.071 A 
ATOM     13  C   UNL     1      -5.300  -1.466   0.781  1.00  0.00     0.000 A 
ATOM     14  C   UNL     1      -5.662  -0.360  -1.332  1.00  0.00     0.029 A 
ATOM     15  C   UNL     1      -6.532  -2.071   0.648  1.00  0.00     0.010 A 
ATOM     16  C   UNL     1      -6.902  -0.961  -1.480  1.00  0.00     0.002 A 
ATOM     17  C   UNL     1      -7.300  -1.815  -0.459  1.00  0.00     0.001 A 
ENDBRANCH   5   8
ENDBRANCH   3   4
ENDBRANCH   1   3
BRANCH   1  18
ATOM     18  N   UNL     1       2.512   1.661   0.003  1.00  0.00    -0.334 N 
ATOM     19  C   UNL     1       2.836   3.112  -0.032  1.00  0.00     0.120 C 
ATOM     20  C   UNL     1       3.827   1.061   0.055  1.00  0.00     0.115 C 
ATOM     21  C   UNL     1       4.102   3.200  -0.843  1.00  0.00     0.024 C 
ATOM     22  C   UNL     1       4.458   1.748  -1.136  1.00  0.00     0.032 C 
BRANCH  20  23
ATOM     23  C   UNL     1       3.899  -0.381   0.048  1.00  0.00    -0.025 A 
ATOM     24  C   UNL     1       3.282  -1.134   1.021  1.00  0.00     0.007 A 
ATOM     25  C   UNL     1       4.596  -1.023  -0.980  1.00  0.00     0.007 A 
ATOM     26  C   UNL     1       3.344  -2.531   0.991  1.00  0.00     0.021 A 
ATOM     27  C   UNL     1       4.648  -2.400  -0.995  1.00  0.00     0.021 A 
ATOM     28  C   UNL     1       4.032  -3.183  -0.023  1.00  0.00     0.041 A 
ATOM     29  Cl  UNL     1       4.121  -4.932  -0.078  1.00  0.00    -0.084 Cl
ENDBRANCH  20  23
ENDBRANCH   1  18
TORSDOF 5
