REMARK SMILES C[C@@H](NC(=O)CNC(=O)c1ccc2ccccc2n1)c1ccc(-c2ccccc2)cc1
REMARK SMILES IDX 3 1 4 2 5 3 2 5 1 6 20 7 21 8 31 9 22 10 30 11 23 12 24 13
REMARK SMILES IDX 25 14 29 15 26 16 28 17 27 18 6 19 7 20 8 21 9 23 10 24
REMARK SMILES IDX 11 25 19 26 12 27 18 28 13 29 17 30 14 31 16 32 15 33
REMARK H PARENT 3 4 7 22
ROOT
ATOM      1  N   UNL     1      -0.664  -1.723   0.394  1.00  0.00    -0.348 N 
ATOM      2  C   UNL     1       0.613  -1.172   0.132  1.00  0.00     0.239 C 
ATOM      3  O   UNL     1       1.114  -0.316   0.929  1.00  0.00    -0.273 OA
ATOM      4  H   UNL     1      -1.125  -2.425  -0.219  1.00  0.00     0.164 HD
ENDROOT
BRANCH   1   5
ATOM      5  C   UNL     1      -1.365  -1.292   1.568  1.00  0.00     0.109 C 
ATOM      6  C   UNL     1      -1.672  -2.408   2.528  1.00  0.00     0.036 C 
BRANCH   5   7
ATOM      7  C   UNL     1      -2.642  -0.674   1.128  1.00  0.00    -0.026 A 
ATOM      8  C   UNL     1      -3.439  -1.265   0.168  1.00  0.00     0.006 A 
ATOM      9  C   UNL     1      -3.056   0.525   1.684  1.00  0.00     0.006 A 
ATOM     10  C   UNL     1      -4.629  -0.689  -0.243  1.00  0.00     0.009 A 
ATOM     11  C   UNL     1      -4.235   1.139   1.307  1.00  0.00     0.009 A 
ATOM     12  C   UNL     1      -5.003   0.505   0.338  1.00  0.00    -0.018 A 
BRANCH  12  13
ATOM     13  C   UNL     1      -6.264   1.110  -0.101  1.00  0.00    -0.018 A 
ATOM     14  C   UNL     1      -6.970   1.859   0.837  1.00  0.00     0.009 A 
ATOM     15  C   UNL     1      -6.765   0.972  -1.368  1.00  0.00     0.009 A 
ATOM     16  C   UNL     1      -8.165   2.470   0.530  1.00  0.00     0.001 A 
ATOM     17  C   UNL     1      -7.955   1.569  -1.707  1.00  0.00     0.001 A 
ATOM     18  C   UNL     1      -8.653   2.318  -0.756  1.00  0.00     0.000 A 
ENDBRANCH  12  13
ENDBRANCH   5   7
ENDBRANCH   1   5
BRANCH   2  19
ATOM     19  C   UNL     1       1.362  -1.609  -1.091  1.00  0.00     0.216 C 
BRANCH  19  20
ATOM     20  N   UNL     1       2.627  -0.953  -1.195  1.00  0.00    -0.342 N 
ATOM     21  C   UNL     1       3.569  -1.140  -0.133  1.00  0.00     0.270 C 
ATOM     22  H   UNL     1       2.874  -0.345  -2.025  1.00  0.00     0.164 HD
ATOM     23  O   UNL     1       3.244  -1.866   0.836  1.00  0.00    -0.268 OA
BRANCH  21  24
ATOM     24  C   UNL     1       4.872  -0.486  -0.202  1.00  0.00     0.128 A 
ATOM     25  C   UNL     1       5.763  -0.679   0.831  1.00  0.00     0.035 A 
ATOM     26  N   UNL     1       5.251   0.298  -1.224  1.00  0.00    -0.243 NA
ATOM     27  C   UNL     1       7.020  -0.107   0.862  1.00  0.00     0.013 A 
ATOM     28  C   UNL     1       6.460   0.896  -1.274  1.00  0.00     0.071 A 
ATOM     29  C   UNL     1       7.359   0.699  -0.228  1.00  0.00     0.000 A 
ATOM     30  C   UNL     1       6.807   1.697  -2.349  1.00  0.00     0.029 A 
ATOM     31  C   UNL     1       8.592   1.304  -0.270  1.00  0.00     0.010 A 
ATOM     32  C   UNL     1       8.066   2.287  -2.346  1.00  0.00     0.002 A 
ATOM     33  C   UNL     1       8.966   2.109  -1.333  1.00  0.00     0.001 A 
ENDBRANCH  21  24
ENDBRANCH  19  20
ENDBRANCH   2  19
TORSDOF 6
