REMARK SMILES C[C@H](NC(=O)CNC(=O)c1ccc2ccccc2n1)c1ccc(-c2ccccc2)cc1
REMARK SMILES IDX 3 1 4 2 5 3 2 5 1 6 20 7 21 8 31 9 22 10 30 11 23 12 24 13
REMARK SMILES IDX 25 14 29 15 26 16 28 17 27 18 6 19 7 20 8 21 9 23 10 24
REMARK SMILES IDX 11 25 19 26 12 27 18 28 13 29 17 30 14 31 16 32 15 33
REMARK H PARENT 3 4 7 22
ROOT
ATOM      1  N   UNL     1      -0.162   2.316  -1.948  1.00  0.00    -0.348 N 
ATOM      2  C   UNL     1       0.811   3.269  -2.296  1.00  0.00     0.239 C 
ATOM      3  O   UNL     1       0.485   4.504  -2.261  1.00  0.00    -0.273 OA
ATOM      4  H   UNL     1       0.035   1.294  -1.976  1.00  0.00     0.164 HD
ENDROOT
BRANCH   1   5
ATOM      5  C   UNL     1      -1.493   2.748  -1.552  1.00  0.00     0.109 C 
ATOM      6  C   UNL     1      -2.540   2.208  -2.527  1.00  0.00     0.036 C 
BRANCH   5   7
ATOM      7  C   UNL     1      -1.806   2.114  -0.246  1.00  0.00    -0.026 A 
ATOM      8  C   UNL     1      -2.317   2.854   0.774  1.00  0.00     0.006 A 
ATOM      9  C   UNL     1      -1.582   0.768  -0.083  1.00  0.00     0.006 A 
ATOM     10  C   UNL     1      -2.631   2.292   2.009  1.00  0.00     0.009 A 
ATOM     11  C   UNL     1      -1.876   0.152   1.128  1.00  0.00     0.009 A 
ATOM     12  C   UNL     1      -2.389   0.937   2.127  1.00  0.00    -0.018 A 
BRANCH  12  13
ATOM     13  C   UNL     1      -2.714   0.330   3.413  1.00  0.00    -0.018 A 
ATOM     14  C   UNL     1      -3.756   0.792   4.205  1.00  0.00     0.009 A 
ATOM     15  C   UNL     1      -1.997  -0.743   3.889  1.00  0.00     0.009 A 
ATOM     16  C   UNL     1      -4.033   0.180   5.407  1.00  0.00     0.001 A 
ATOM     17  C   UNL     1      -2.253  -1.373   5.086  1.00  0.00     0.001 A 
ATOM     18  C   UNL     1      -3.306  -0.902   5.881  1.00  0.00     0.000 A 
ENDBRANCH  12  13
ENDBRANCH   5   7
ENDBRANCH   1   5
BRANCH   2  19
ATOM     19  C   UNL     1       2.197   2.966  -2.708  1.00  0.00     0.216 C 
BRANCH  19  20
ATOM     20  N   UNL     1       2.454   1.566  -2.642  1.00  0.00    -0.342 N 
ATOM     21  C   UNL     1       2.377   0.946  -1.339  1.00  0.00     0.270 C 
ATOM     22  H   UNL     1       2.694   0.952  -3.466  1.00  0.00     0.164 HD
ATOM     23  O   UNL     1       2.099   1.669  -0.341  1.00  0.00    -0.268 OA
BRANCH  21  24
ATOM     24  C   UNL     1       2.614  -0.484  -1.163  1.00  0.00     0.128 A 
ATOM     25  C   UNL     1       2.551  -1.012   0.118  1.00  0.00     0.035 A 
ATOM     26  N   UNL     1       2.902  -1.304  -2.219  1.00  0.00    -0.243 NA
ATOM     27  C   UNL     1       2.775  -2.359   0.336  1.00  0.00     0.013 A 
ATOM     28  C   UNL     1       3.122  -2.636  -1.990  1.00  0.00     0.071 A 
ATOM     29  C   UNL     1       3.065  -3.186  -0.734  1.00  0.00     0.000 A 
ATOM     30  C   UNL     1       3.418  -3.481  -3.068  1.00  0.00     0.029 A 
ATOM     31  C   UNL     1       3.281  -4.518  -0.457  1.00  0.00     0.010 A 
ATOM     32  C   UNL     1       3.642  -4.842  -2.810  1.00  0.00     0.002 A 
ATOM     33  C   UNL     1       3.572  -5.342  -1.517  1.00  0.00     0.001 A 
ENDBRANCH  21  24
ENDBRANCH  19  20
ENDBRANCH   2  19
TORSDOF 6
