REMARK SMILES O=C(NCC(=O)N1CCCC[C@H]1c1ccccc1)c1ccc2cc(F)ccc2n1
REMARK SMILES IDX 4 1 3 2 2 3 1 4 19 6 20 7 29 8 21 9 28 10 22 11 27 12 23 13
REMARK SMILES IDX 26 14 24 15 25 16 5 17 6 18 7 19 8 20 12 21 9 22 11 23 10 24
REMARK SMILES IDX 13 25 14 26 18 27 15 28 17 29 16 30
REMARK H PARENT 3 5
ROOT
ATOM      1  C   UNL     1      -0.372  -0.690   1.914  1.00  0.00     0.216 C 
ENDROOT
BRANCH   1   2
ATOM      2  N   UNL     1       0.860  -0.489   1.238  1.00  0.00    -0.342 N 
ATOM      3  C   UNL     1       2.025  -1.090   1.854  1.00  0.00     0.270 C 
ATOM      4  O   UNL     1       1.845  -1.738   2.933  1.00  0.00    -0.268 OA
ATOM      5  H   UNL     1       1.062   0.006   0.359  1.00  0.00     0.164 HD
BRANCH   3   6
ATOM      6  C   UNL     1       3.334  -0.939   1.237  1.00  0.00     0.128 A 
ATOM      7  C   UNL     1       4.403  -1.534   1.869  1.00  0.00     0.035 A 
ATOM      8  N   UNL     1       3.496  -0.247   0.093  1.00  0.00    -0.243 NA
ATOM      9  C   UNL     1       5.647  -1.393   1.287  1.00  0.00     0.013 A 
ATOM     10  C   UNL     1       4.697  -0.093  -0.498  1.00  0.00     0.071 A 
ATOM     11  C   UNL     1       5.788  -0.675   0.109  1.00  0.00     0.003 A 
ATOM     12  C   UNL     1       4.778   0.632  -1.670  1.00  0.00     0.032 A 
ATOM     13  C   UNL     1       7.019  -0.512  -0.505  1.00  0.00     0.049 A 
ATOM     14  C   UNL     1       5.993   0.786  -2.265  1.00  0.00     0.041 A 
ATOM     15  C   UNL     1       7.106   0.214  -1.681  1.00  0.00     0.123 A 
ATOM     16  F   UNL     1       8.293   0.405  -2.325  1.00  0.00    -0.207 F 
ENDBRANCH   3   6
ENDBRANCH   1   2
BRANCH   1  17
ATOM     17  C   UNL     1      -1.597  -0.097   1.394  1.00  0.00     0.242 C 
ATOM     18  O   UNL     1      -2.651  -0.450   2.104  1.00  0.00    -0.273 OA
BRANCH  17  19
ATOM     19  N   UNL     1      -1.875   0.743   0.326  1.00  0.00    -0.334 N 
ATOM     20  C   UNL     1      -0.916   1.413  -0.531  1.00  0.00     0.120 C 
ATOM     21  C   UNL     1      -3.283   0.966  -0.020  1.00  0.00     0.115 C 
ATOM     22  C   UNL     1      -1.505   2.701  -1.104  1.00  0.00     0.022 C 
ATOM     23  C   UNL     1      -3.317   1.060  -1.558  1.00  0.00     0.030 C 
ATOM     24  C   UNL     1      -2.767   2.433  -1.882  1.00  0.00     0.004 C 
BRANCH  21  25
ATOM     25  C   UNL     1      -4.170  -0.147   0.405  1.00  0.00    -0.025 A 
ATOM     26  C   UNL     1      -3.852  -1.442  -0.032  1.00  0.00     0.006 A 
ATOM     27  C   UNL     1      -5.267   0.098   1.204  1.00  0.00     0.006 A 
ATOM     28  C   UNL     1      -4.695  -2.478   0.376  1.00  0.00     0.000 A 
ATOM     29  C   UNL     1      -6.103  -0.941   1.606  1.00  0.00     0.000 A 
ATOM     30  C   UNL     1      -5.786  -2.213   1.173  1.00  0.00     0.000 A 
ENDBRANCH  21  25
ENDBRANCH  17  19
ENDBRANCH   1  17
TORSDOF 5
