REMARK SMILES O=C(NCC(=O)N1CCCC[C@@H]1c1ccccc1)c1ccc2cc(F)ccc2n1
REMARK SMILES IDX 4 1 3 2 2 3 1 4 19 6 20 7 29 8 21 9 28 10 22 11 27 12 23 13
REMARK SMILES IDX 26 14 24 15 25 16 5 17 6 18 7 19 8 20 12 21 9 22 11 23 10 24
REMARK SMILES IDX 13 25 14 26 18 27 15 28 17 29 16 30
REMARK H PARENT 3 5
ROOT
ATOM      1  C   UNL     1      -0.074  -0.239   0.754  1.00  0.00     0.216 C 
ENDROOT
BRANCH   1   2
ATOM      2  N   UNL     1       1.336  -0.019   0.525  1.00  0.00    -0.342 N 
ATOM      3  C   UNL     1       2.124  -0.920  -0.241  1.00  0.00     0.270 C 
ATOM      4  O   UNL     1       1.586  -1.960  -0.749  1.00  0.00    -0.268 OA
ATOM      5  H   UNL     1       1.843   0.826   0.920  1.00  0.00     0.164 HD
BRANCH   3   6
ATOM      6  C   UNL     1       3.546  -0.658  -0.448  1.00  0.00     0.128 A 
ATOM      7  C   UNL     1       4.298  -1.544  -1.195  1.00  0.00     0.035 A 
ATOM      8  N   UNL     1       4.113   0.444   0.091  1.00  0.00    -0.243 NA
ATOM      9  C   UNL     1       5.645  -1.301  -1.393  1.00  0.00     0.013 A 
ATOM     10  C   UNL     1       5.426   0.661  -0.115  1.00  0.00     0.071 A 
ATOM     11  C   UNL     1       6.232  -0.176  -0.845  1.00  0.00     0.003 A 
ATOM     12  C   UNL     1       5.951   1.809   0.464  1.00  0.00     0.032 A 
ATOM     13  C   UNL     1       7.590   0.089  -1.034  1.00  0.00     0.049 A 
ATOM     14  C   UNL     1       7.283   2.091   0.293  1.00  0.00     0.041 A 
ATOM     15  C   UNL     1       8.080   1.237  -0.445  1.00  0.00     0.123 A 
ATOM     16  F   UNL     1       9.401   1.508  -0.620  1.00  0.00    -0.207 F 
ENDBRANCH   3   6
ENDBRANCH   1   2
BRANCH   1  17
ATOM     17  C   UNL     1      -0.851  -0.290  -0.492  1.00  0.00     0.242 C 
ATOM     18  O   UNL     1      -0.356  -0.159  -1.634  1.00  0.00    -0.273 OA
BRANCH  17  19
ATOM     19  N   UNL     1      -2.254  -0.501  -0.413  1.00  0.00    -0.334 N 
ATOM     20  C   UNL     1      -3.098  -0.569  -1.615  1.00  0.00     0.120 C 
ATOM     21  C   UNL     1      -2.963  -0.665   0.847  1.00  0.00     0.115 C 
ATOM     22  C   UNL     1      -3.702  -1.940  -1.624  1.00  0.00     0.022 C 
ATOM     23  C   UNL     1      -3.750  -1.942   0.884  1.00  0.00     0.030 C 
ATOM     24  C   UNL     1      -4.507  -2.220  -0.380  1.00  0.00     0.004 C 
BRANCH  21  25
ATOM     25  C   UNL     1      -3.769   0.562   1.021  1.00  0.00    -0.025 A 
ATOM     26  C   UNL     1      -3.126   1.769   0.757  1.00  0.00     0.006 A 
ATOM     27  C   UNL     1      -5.064   0.616   1.409  1.00  0.00     0.006 A 
ATOM     28  C   UNL     1      -3.798   2.971   0.891  1.00  0.00     0.000 A 
ATOM     29  C   UNL     1      -5.739   1.820   1.544  1.00  0.00     0.000 A 
ATOM     30  C   UNL     1      -5.115   3.023   1.287  1.00  0.00     0.000 A 
ENDBRANCH  21  25
ENDBRANCH  17  19
ENDBRANCH   1  17
TORSDOF 5
