REMARK SMILES O=C(NCC(=O)N1CCCC[C@@H]1C1CCOCC1)c1ccc2ccccc2n1
REMARK SMILES IDX 4 1 3 2 2 3 1 4 19 6 20 7 28 8 21 9 27 10 22 11 26 12 23 13
REMARK SMILES IDX 25 14 24 15 5 16 6 17 7 18 8 19 12 20 9 21 11 22 10 23 13 24
REMARK SMILES IDX 14 25 18 26 15 27 17 28 16 29
REMARK H PARENT 3 5
ROOT
ATOM      1  C   UNL     1       0.239  -2.697   0.244  1.00  0.00     0.216 C 
ENDROOT
BRANCH   1   2
ATOM      2  N   UNL     1       1.436  -1.917   0.286  1.00  0.00    -0.342 N 
ATOM      3  C   UNL     1       1.679  -0.845   1.189  1.00  0.00     0.270 C 
ATOM      4  O   UNL     1       0.806  -0.528   2.040  1.00  0.00    -0.268 OA
ATOM      5  H   UNL     1       2.211  -2.144  -0.406  1.00  0.00     0.164 HD
BRANCH   3   6
ATOM      6  C   UNL     1       2.966  -0.120   1.106  1.00  0.00     0.128 A 
ATOM      7  C   UNL     1       3.208   0.918   1.977  1.00  0.00     0.035 A 
ATOM      8  N   UNL     1       3.893  -0.467   0.193  1.00  0.00    -0.243 NA
ATOM      9  C   UNL     1       4.429   1.597   1.890  1.00  0.00     0.013 A 
ATOM     10  C   UNL     1       5.083   0.146   0.060  1.00  0.00     0.071 A 
ATOM     11  C   UNL     1       5.351   1.191   0.921  1.00  0.00     0.000 A 
ATOM     12  C   UNL     1       5.967  -0.284  -0.908  1.00  0.00     0.029 A 
ATOM     13  C   UNL     1       6.581   1.839   0.799  1.00  0.00     0.010 A 
ATOM     14  C   UNL     1       7.182   0.361  -1.024  1.00  0.00     0.002 A 
ATOM     15  C   UNL     1       7.479   1.418  -0.170  1.00  0.00     0.001 A 
ENDBRANCH   3   6
ENDBRANCH   1   2
BRANCH   1  16
ATOM     16  C   UNL     1      -1.021  -2.102  -0.134  1.00  0.00     0.242 C 
ATOM     17  O   UNL     1      -2.043  -2.922  -0.018  1.00  0.00    -0.273 OA
BRANCH  16  18
ATOM     18  N   UNL     1      -1.367  -0.830  -0.603  1.00  0.00    -0.338 N 
ATOM     19  C   UNL     1      -0.482   0.262  -0.917  1.00  0.00     0.120 C 
ATOM     20  C   UNL     1      -2.804  -0.529  -0.804  1.00  0.00     0.088 C 
ATOM     21  C   UNL     1      -0.959   1.179  -2.003  1.00  0.00     0.022 C 
ATOM     22  C   UNL     1      -2.967  -0.319  -2.265  1.00  0.00     0.025 C 
ATOM     23  C   UNL     1      -2.088   0.753  -2.835  1.00  0.00     0.004 C 
BRANCH  20  24
ATOM     24  C   UNL     1      -3.311   0.530   0.098  1.00  0.00     0.016 C 
ATOM     25  C   UNL     1      -4.771   0.826  -0.122  1.00  0.00     0.034 C 
ATOM     26  C   UNL     1      -3.233  -0.044   1.521  1.00  0.00     0.034 C 
ATOM     27  C   UNL     1      -5.605  -0.197   0.584  1.00  0.00     0.160 C 
ATOM     28  C   UNL     1      -4.352   0.590   2.354  1.00  0.00     0.160 C 
ATOM     29  O   UNL     1      -5.597   0.107   1.946  1.00  0.00    -0.381 OA
ENDBRANCH  20  24
ENDBRANCH  16  18
ENDBRANCH   1  16
TORSDOF 5
