REMARK SMILES O=C(NCC(=O)N1CCCC[C@H]1C1CCOCC1)c1ccc2ccccc2n1
REMARK SMILES IDX 4 1 3 2 2 3 1 4 19 6 20 7 28 8 21 9 27 10 22 11 26 12 23 13
REMARK SMILES IDX 25 14 24 15 5 16 6 17 7 18 8 19 12 20 9 21 11 22 10 23 13 24
REMARK SMILES IDX 14 25 18 26 15 27 17 28 16 29
REMARK H PARENT 3 5
ROOT
ATOM      1  C   UNL     1       0.565  -1.794   0.296  1.00  0.00     0.216 C 
ENDROOT
BRANCH   1   2
ATOM      2  N   UNL     1       1.853  -1.163   0.124  1.00  0.00    -0.342 N 
ATOM      3  C   UNL     1       2.218   0.005   0.808  1.00  0.00     0.270 C 
ATOM      4  O   UNL     1       1.399   0.539   1.610  1.00  0.00    -0.268 OA
ATOM      5  H   UNL     1       2.555  -1.583  -0.536  1.00  0.00     0.164 HD
BRANCH   3   6
ATOM      6  C   UNL     1       3.537   0.603   0.597  1.00  0.00     0.128 A 
ATOM      7  C   UNL     1       3.872   1.769   1.294  1.00  0.00     0.035 A 
ATOM      8  N   UNL     1       4.404   0.033  -0.256  1.00  0.00    -0.243 NA
ATOM      9  C   UNL     1       5.127   2.286   1.054  1.00  0.00     0.013 A 
ATOM     10  C   UNL     1       5.623   0.551  -0.478  1.00  0.00     0.071 A 
ATOM     11  C   UNL     1       6.018   1.699   0.177  1.00  0.00     0.000 A 
ATOM     12  C   UNL     1       6.488  -0.051  -1.354  1.00  0.00     0.029 A 
ATOM     13  C   UNL     1       7.270   2.200  -0.074  1.00  0.00     0.010 A 
ATOM     14  C   UNL     1       7.753   0.424  -1.630  1.00  0.00     0.002 A 
ATOM     15  C   UNL     1       8.145   1.582  -0.967  1.00  0.00     0.001 A 
ENDBRANCH   3   6
ENDBRANCH   1   2
BRANCH   1  16
ATOM     16  C   UNL     1      -0.493  -0.828  -0.096  1.00  0.00     0.242 C 
ATOM     17  O   UNL     1      -0.243   0.340  -0.505  1.00  0.00    -0.273 OA
BRANCH  16  18
ATOM     18  N   UNL     1      -1.854  -1.243  -0.004  1.00  0.00    -0.338 N 
ATOM     19  C   UNL     1      -2.216  -2.572   0.458  1.00  0.00     0.120 C 
ATOM     20  C   UNL     1      -2.944  -0.359  -0.368  1.00  0.00     0.088 C 
ATOM     21  C   UNL     1      -3.398  -3.131  -0.287  1.00  0.00     0.022 C 
ATOM     22  C   UNL     1      -3.594  -0.946  -1.562  1.00  0.00     0.025 C 
ATOM     23  C   UNL     1      -3.760  -2.435  -1.542  1.00  0.00     0.004 C 
BRANCH  20  24
ATOM     24  C   UNL     1      -3.833  -0.065   0.803  1.00  0.00     0.016 C 
ATOM     25  C   UNL     1      -3.045   0.591   1.882  1.00  0.00     0.034 C 
ATOM     26  C   UNL     1      -5.056   0.703   0.470  1.00  0.00     0.034 C 
ATOM     27  C   UNL     1      -3.131   2.094   1.877  1.00  0.00     0.160 C 
ATOM     28  C   UNL     1      -4.732   2.181   0.306  1.00  0.00     0.160 C 
ATOM     29  O   UNL     1      -4.373   2.606   1.603  1.00  0.00    -0.381 OA
ENDBRANCH  20  24
ENDBRANCH  16  18
ENDBRANCH   1  16
TORSDOF 5
