REMARK SMILES CC(C)C[C@H](NC(=O)CNC(=O)c1ccc2cc(Cl)ccc2n1)c1ccccc1
REMARK SMILES IDX 6 1 7 2 8 3 5 5 4 6 2 7 1 8 3 9 24 10 25 11 29 12 26 13
REMARK SMILES IDX 28 14 27 15 9 16 10 17 11 18 12 20 13 21 14 22 23 23 15 24
REMARK SMILES IDX 22 25 16 26 21 27 17 28 20 29 18 30 19 31
REMARK H PARENT 6 4 10 19
ROOT
ATOM      1  N   UNL     1      -0.546  -0.452   1.467  1.00  0.00    -0.348 N 
ATOM      2  C   UNL     1       0.142  -1.196   2.451  1.00  0.00     0.239 C 
ATOM      3  O   UNL     1      -0.562  -1.623   3.424  1.00  0.00    -0.273 OA
ATOM      4  H   UNL     1      -0.034  -0.067   0.657  1.00  0.00     0.164 HD
ENDROOT
BRANCH   1   5
ATOM      5  C   UNL     1      -1.989  -0.190   1.560  1.00  0.00     0.112 C 
BRANCH   5   6
ATOM      6  C   UNL     1      -2.221   1.285   1.694  1.00  0.00     0.033 C 
BRANCH   6   7
ATOM      7  C   UNL     1      -3.679   1.672   1.799  1.00  0.00    -0.015 C 
ATOM      8  C   UNL     1      -4.337   1.038   3.003  1.00  0.00     0.007 C 
ATOM      9  C   UNL     1      -3.698   3.177   2.016  1.00  0.00     0.007 C 
ENDBRANCH   6   7
ENDBRANCH   5   6
BRANCH   5  10
ATOM     10  C   UNL     1      -2.740  -0.803   0.455  1.00  0.00    -0.026 A 
ATOM     11  C   UNL     1      -3.916  -1.498   0.666  1.00  0.00     0.006 A 
ATOM     12  C   UNL     1      -2.302  -0.712  -0.863  1.00  0.00     0.006 A 
ATOM     13  C   UNL     1      -4.642  -2.083  -0.349  1.00  0.00     0.000 A 
ATOM     14  C   UNL     1      -3.018  -1.292  -1.891  1.00  0.00     0.000 A 
ATOM     15  C   UNL     1      -4.191  -1.984  -1.668  1.00  0.00     0.000 A 
ENDBRANCH   5  10
ENDBRANCH   1   5
BRANCH   2  16
ATOM     16  C   UNL     1       1.563  -1.514   2.458  1.00  0.00     0.216 C 
BRANCH  16  17
ATOM     17  N   UNL     1       2.339  -1.056   1.355  1.00  0.00    -0.342 N 
ATOM     18  C   UNL     1       2.076  -1.493   0.013  1.00  0.00     0.270 C 
ATOM     19  H   UNL     1       3.145  -0.372   1.476  1.00  0.00     0.164 HD
ATOM     20  O   UNL     1       1.158  -2.301  -0.270  1.00  0.00    -0.268 OA
BRANCH  18  21
ATOM     21  C   UNL     1       2.909  -0.976  -1.070  1.00  0.00     0.128 A 
ATOM     22  C   UNL     1       2.702  -1.363  -2.376  1.00  0.00     0.035 A 
ATOM     23  N   UNL     1       3.904  -0.106  -0.820  1.00  0.00    -0.243 NA
ATOM     24  C   UNL     1       3.501  -0.868  -3.410  1.00  0.00     0.013 A 
ATOM     25  C   UNL     1       4.703   0.403  -1.769  1.00  0.00     0.071 A 
ATOM     26  C   UNL     1       4.521   0.035  -3.089  1.00  0.00     0.002 A 
ATOM     27  C   UNL     1       5.707   1.302  -1.394  1.00  0.00     0.030 A 
ATOM     28  C   UNL     1       5.344   0.559  -4.072  1.00  0.00     0.030 A 
ATOM     29  C   UNL     1       6.535   1.829  -2.383  1.00  0.00     0.023 A 
ATOM     30  C   UNL     1       6.337   1.449  -3.693  1.00  0.00     0.041 A 
ATOM     31  Cl  UNL     1       7.406   2.142  -4.896  1.00  0.00    -0.084 Cl
ENDBRANCH  18  21
ENDBRANCH  16  17
ENDBRANCH   2  16
TORSDOF 7
