REMARK SMILES O=C(NCC(=O)N1CCC[C@H]1CO)c1ccc2cc(Cl)ccc2n1
REMARK SMILES IDX 5 1 6 2 4 3 3 4 2 5 1 6 14 8 15 9 24 10 16 11 23 12 17 13
REMARK SMILES IDX 22 14 18 15 21 16 19 17 20 18 7 19 8 20 11 21 9 22 10 23
REMARK SMILES IDX 12 24 13 25
REMARK H PARENT 3 7 13 26
ROOT
ATOM      1  C   UNL     1      -2.012   0.299   0.014  1.00  0.00     0.242 C 
ATOM      2  O   UNL     1      -1.423   0.942   0.931  1.00  0.00    -0.273 OA
ENDROOT
BRANCH   1   3
ATOM      3  C   UNL     1      -1.121  -0.425  -0.949  1.00  0.00     0.216 C 
BRANCH   3   4
ATOM      4  N   UNL     1       0.258  -0.240  -0.627  1.00  0.00    -0.342 N 
ATOM      5  C   UNL     1       1.245  -0.861  -1.441  1.00  0.00     0.270 C 
ATOM      6  O   UNL     1       0.886  -1.560  -2.426  1.00  0.00    -0.268 OA
ATOM      7  H   UNL     1       0.498   0.355   0.208  1.00  0.00     0.164 HD
BRANCH   5   8
ATOM      8  C   UNL     1       2.660  -0.687  -1.134  1.00  0.00     0.128 A 
ATOM      9  C   UNL     1       3.608  -1.298  -1.936  1.00  0.00     0.035 A 
ATOM     10  N   UNL     1       3.106   0.046  -0.098  1.00  0.00    -0.243 NA
ATOM     11  C   UNL     1       4.946  -1.113  -1.617  1.00  0.00     0.013 A 
ATOM     12  C   UNL     1       4.379   0.234   0.222  1.00  0.00     0.071 A 
ATOM     13  C   UNL     1       5.363  -0.355  -0.547  1.00  0.00     0.002 A 
ATOM     14  C   UNL     1       4.710   1.018   1.323  1.00  0.00     0.030 A 
ATOM     15  C   UNL     1       6.708  -0.195  -0.263  1.00  0.00     0.030 A 
ATOM     16  C   UNL     1       6.047   1.177   1.607  1.00  0.00     0.023 A 
ATOM     17  C   UNL     1       7.039   0.590   0.839  1.00  0.00     0.041 A 
ATOM     18  Cl  UNL     1       8.732   0.815   1.231  1.00  0.00    -0.084 Cl
ENDBRANCH   5   8
ENDBRANCH   3   4
ENDBRANCH   1   3
BRANCH   1  19
ATOM     19  N   UNL     1      -3.407   0.256  -0.112  1.00  0.00    -0.336 N 
ATOM     20  C   UNL     1      -4.134  -0.476  -1.159  1.00  0.00     0.120 C 
ATOM     21  C   UNL     1      -4.359   0.903   0.740  1.00  0.00     0.110 C 
ATOM     22  C   UNL     1      -5.578  -0.085  -0.995  1.00  0.00     0.024 C 
ATOM     23  C   UNL     1      -5.635   0.110   0.526  1.00  0.00     0.029 C 
BRANCH  21  24
ATOM     24  C   UNL     1      -4.008   0.864   2.205  1.00  0.00     0.181 C 
BRANCH  24  25
ATOM     25  O   UNL     1      -3.895  -0.402   2.724  1.00  0.00    -0.394 OA
ATOM     26  H   UNL     1      -4.303  -0.469   3.643  1.00  0.00     0.210 HD
ENDBRANCH  24  25
ENDBRANCH  21  24
ENDBRANCH   1  19
TORSDOF 6
