REMARK SMILES O=C(NCC(=O)N1CCCC[C@H]1c1ccc(Cl)cc1)c1ccc2ccccc2n1
REMARK SMILES IDX 5 1 6 2 4 3 3 4 2 5 1 6 20 8 21 9 29 10 22 11 28 12 23 13
REMARK SMILES IDX 27 14 24 15 26 16 25 17 7 18 8 19 12 20 9 21 11 22 10 23
REMARK SMILES IDX 13 24 14 25 19 26 15 27 18 28 16 29 17 30
REMARK H PARENT 3 7
ROOT
ATOM      1  C   UNL     1      -1.660   0.585  -1.192  1.00  0.00     0.242 C 
ATOM      2  O   UNL     1      -2.734   1.175  -1.651  1.00  0.00    -0.273 OA
ENDROOT
BRANCH   1   3
ATOM      3  C   UNL     1      -0.440   1.337  -1.477  1.00  0.00     0.216 C 
BRANCH   3   4
ATOM      4  N   UNL     1       0.809   0.890  -0.994  1.00  0.00    -0.342 N 
ATOM      5  C   UNL     1       1.963   1.705  -1.370  1.00  0.00     0.270 C 
ATOM      6  O   UNL     1       1.742   2.720  -2.082  1.00  0.00    -0.268 OA
ATOM      7  H   UNL     1       1.054   0.089  -0.401  1.00  0.00     0.164 HD
BRANCH   5   8
ATOM      8  C   UNL     1       3.290   1.322  -0.919  1.00  0.00     0.128 A 
ATOM      9  C   UNL     1       4.342   2.118  -1.297  1.00  0.00     0.035 A 
ATOM     10  N   UNL     1       3.474   0.221  -0.155  1.00  0.00    -0.243 NA
ATOM     11  C   UNL     1       5.621   1.789  -0.889  1.00  0.00     0.013 A 
ATOM     12  C   UNL     1       4.729  -0.121   0.257  1.00  0.00     0.071 A 
ATOM     13  C   UNL     1       5.817   0.655  -0.102  1.00  0.00     0.000 A 
ATOM     14  C   UNL     1       4.938  -1.230   1.031  1.00  0.00     0.029 A 
ATOM     15  C   UNL     1       7.111   0.349   0.293  1.00  0.00     0.010 A 
ATOM     16  C   UNL     1       6.207  -1.568   1.443  1.00  0.00     0.002 A 
ATOM     17  C   UNL     1       7.288  -0.776   1.071  1.00  0.00     0.001 A 
ENDBRANCH   5   8
ENDBRANCH   3   4
ENDBRANCH   1   3
BRANCH   1  18
ATOM     18  N   UNL     1      -1.876  -0.616  -0.533  1.00  0.00    -0.334 N 
ATOM     19  C   UNL     1      -0.848  -1.537  -0.067  1.00  0.00     0.120 C 
ATOM     20  C   UNL     1      -3.253  -1.018  -0.225  1.00  0.00     0.115 C 
ATOM     21  C   UNL     1      -1.466  -2.946   0.059  1.00  0.00     0.022 C 
ATOM     22  C   UNL     1      -3.177  -1.615   1.200  1.00  0.00     0.030 C 
ATOM     23  C   UNL     1      -2.590  -2.994   1.040  1.00  0.00     0.004 C 
BRANCH  20  24
ATOM     24  C   UNL     1      -4.202   0.129  -0.190  1.00  0.00    -0.025 A 
ATOM     25  C   UNL     1      -5.348   0.180  -0.956  1.00  0.00     0.007 A 
ATOM     26  C   UNL     1      -3.993   1.216   0.665  1.00  0.00     0.007 A 
ATOM     27  C   UNL     1      -6.238   1.241  -0.884  1.00  0.00     0.021 A 
ATOM     28  C   UNL     1      -4.881   2.270   0.733  1.00  0.00     0.021 A 
ATOM     29  C   UNL     1      -6.006   2.298  -0.033  1.00  0.00     0.041 A 
ATOM     30  Cl  UNL     1      -7.092   3.668   0.104  1.00  0.00    -0.084 Cl
ENDBRANCH  20  24
ENDBRANCH   1  18
TORSDOF 5
