REMARK SMILES O=C(NCC(=O)N1CCCC[C@H]1c1ccc(C(F)(F)F)cc1)c1ccc2ccccc2n1
REMARK SMILES IDX 7 1 8 2 9 3 10 4 11 5 12 6 5 7 6 8 4 9 3 10 2 11 1 12 23 14
REMARK SMILES IDX 24 15 32 16 25 17 31 18 26 19 30 20 27 21 29 22 28 23 13 24
REMARK SMILES IDX 14 25 22 26 15 27 21 28 16 29 17 30 18 31 19 32 20 33
REMARK H PARENT 3 13
ROOT
ATOM      1  N   UNL     1      -1.457  -1.702  -0.527  1.00  0.00    -0.334 N 
ATOM      2  C   UNL     1      -1.676  -2.947   0.177  1.00  0.00     0.120 C 
ATOM      3  C   UNL     1      -2.776  -3.784  -0.382  1.00  0.00     0.022 C 
ATOM      4  C   UNL     1      -3.903  -2.959  -0.971  1.00  0.00     0.004 C 
ATOM      5  C   UNL     1      -3.280  -2.085  -2.004  1.00  0.00     0.030 C 
ATOM      6  C   UNL     1      -2.476  -1.027  -1.302  1.00  0.00     0.115 C 
ENDROOT
BRANCH   1   7
ATOM      7  C   UNL     1      -0.173  -1.079  -0.476  1.00  0.00     0.242 C 
ATOM      8  O   UNL     1       0.092   0.001  -1.063  1.00  0.00    -0.273 OA
BRANCH   7   9
ATOM      9  C   UNL     1       0.922  -1.710   0.298  1.00  0.00     0.216 C 
BRANCH   9  10
ATOM     10  N   UNL     1       2.142  -0.969   0.252  1.00  0.00    -0.342 N 
ATOM     11  C   UNL     1       2.212   0.372   0.732  1.00  0.00     0.270 C 
ATOM     12  O   UNL     1       1.174   0.934   1.214  1.00  0.00    -0.268 OA
ATOM     13  H   UNL     1       3.027  -1.372  -0.131  1.00  0.00     0.164 HD
BRANCH  11  14
ATOM     14  C   UNL     1       3.478   1.099   0.669  1.00  0.00     0.128 A 
ATOM     15  C   UNL     1       3.539   2.397   1.135  1.00  0.00     0.035 A 
ATOM     16  N   UNL     1       4.572   0.504   0.160  1.00  0.00    -0.243 NA
ATOM     17  C   UNL     1       4.755   3.071   1.066  1.00  0.00     0.013 A 
ATOM     18  C   UNL     1       5.757   1.136   0.083  1.00  0.00     0.071 A 
ATOM     19  C   UNL     1       5.878   2.440   0.536  1.00  0.00     0.000 A 
ATOM     20  C   UNL     1       6.814   0.433  -0.457  1.00  0.00     0.029 A 
ATOM     21  C   UNL     1       7.099   3.031   0.434  1.00  0.00     0.010 A 
ATOM     22  C   UNL     1       8.049   1.048  -0.553  1.00  0.00     0.002 A 
ATOM     23  C   UNL     1       8.182   2.359  -0.101  1.00  0.00     0.001 A 
ENDBRANCH  11  14
ENDBRANCH   9  10
ENDBRANCH   7   9
ENDBRANCH   1   7
BRANCH   6  24
ATOM     24  C   UNL     1      -3.353  -0.138  -0.501  1.00  0.00    -0.025 A 
ATOM     25  C   UNL     1      -2.889   0.691   0.498  1.00  0.00     0.006 A 
ATOM     26  C   UNL     1      -4.730  -0.091  -0.733  1.00  0.00     0.006 A 
ATOM     27  C   UNL     1      -3.724   1.523   1.233  1.00  0.00     0.013 A 
ATOM     28  C   UNL     1      -5.566   0.733  -0.007  1.00  0.00     0.013 A 
ATOM     29  C   UNL     1      -5.077   1.550   0.984  1.00  0.00     0.056 A 
BRANCH  29  30
ATOM     30  C   UNL     1      -6.027   2.410   1.727  1.00  0.00     0.416 C 
ATOM     31  F   UNL     1      -5.446   2.984   2.837  1.00  0.00    -0.166 F 
ATOM     32  F   UNL     1      -7.167   1.684   2.050  1.00  0.00    -0.166 F 
ATOM     33  F   UNL     1      -6.406   3.447   0.891  1.00  0.00    -0.166 F 
ENDBRANCH  29  30
ENDBRANCH   6  24
TORSDOF 6
