REMARK SMILES O=C(NCC(=O)N1C[C@H](O)C[C@H]1[C@H]1CCc2ccccc2C1)c1ccc2cc(F)ccc2n1
REMARK SMILES IDX 4 1 3 2 2 3 1 4 23 6 24 7 33 8 25 9 32 10 26 11 31 12 27 13
REMARK SMILES IDX 30 14 28 15 29 16 5 17 6 18 7 19 8 20 12 21 9 22 11 23 13 24
REMARK SMILES IDX 14 25 22 26 15 27 21 28 16 29 20 30 17 31 19 32 18 33 10 34
REMARK H PARENT 3 5 10 35
ROOT
ATOM      1  C   UNL     1       0.884  -1.998  -1.820  1.00  0.00     0.216 C 
ENDROOT
BRANCH   1   2
ATOM      2  N   UNL     1       2.088  -1.320  -1.527  1.00  0.00    -0.342 N 
ATOM      3  C   UNL     1       2.879  -1.547  -0.348  1.00  0.00     0.270 C 
ATOM      4  O   UNL     1       2.510  -2.413   0.518  1.00  0.00    -0.268 OA
ATOM      5  H   UNL     1       2.491  -0.585  -2.175  1.00  0.00     0.164 HD
BRANCH   3   6
ATOM      6  C   UNL     1       4.123  -0.780  -0.131  1.00  0.00     0.128 A 
ATOM      7  C   UNL     1       4.857  -1.023   1.010  1.00  0.00     0.035 A 
ATOM      8  N   UNL     1       4.552   0.142  -1.015  1.00  0.00    -0.243 NA
ATOM      9  C   UNL     1       6.027  -0.344   1.277  1.00  0.00     0.013 A 
ATOM     10  C   UNL     1       5.702   0.836  -0.792  1.00  0.00     0.071 A 
ATOM     11  C   UNL     1       6.436   0.592   0.350  1.00  0.00     0.003 A 
ATOM     12  C   UNL     1       6.117   1.774  -1.715  1.00  0.00     0.032 A 
ATOM     13  C   UNL     1       7.607   1.268   0.622  1.00  0.00     0.049 A 
ATOM     14  C   UNL     1       7.292   2.465  -1.460  1.00  0.00     0.041 A 
ATOM     15  C   UNL     1       8.041   2.222  -0.303  1.00  0.00     0.123 A 
ATOM     16  F   UNL     1       9.187   2.882  -0.036  1.00  0.00    -0.207 F 
ENDBRANCH   3   6
ENDBRANCH   1   2
BRANCH   1  17
ATOM     17  C   UNL     1      -0.307  -1.848  -1.021  1.00  0.00     0.242 C 
ATOM     18  O   UNL     1      -1.281  -2.639  -1.366  1.00  0.00    -0.273 OA
BRANCH  17  19
ATOM     19  N   UNL     1      -0.594  -0.986   0.068  1.00  0.00    -0.335 N 
ATOM     20  C   UNL     1       0.368   0.027   0.514  1.00  0.00     0.151 C 
ATOM     21  C   UNL     1      -1.758  -0.945   0.920  1.00  0.00     0.091 C 
ATOM     22  C   UNL     1      -0.559   1.114   1.025  1.00  0.00     0.136 C 
ATOM     23  C   UNL     1      -1.871   0.473   1.332  1.00  0.00     0.059 C 
BRANCH  21  24
ATOM     24  C   UNL     1      -3.031  -1.496   0.337  1.00  0.00     0.016 C 
ATOM     25  C   UNL     1      -4.099  -1.456   1.399  1.00  0.00     0.011 C 
ATOM     26  C   UNL     1      -3.497  -0.876  -0.912  1.00  0.00     0.041 C 
ATOM     27  C   UNL     1      -4.856  -0.204   1.583  1.00  0.00     0.036 C 
ATOM     28  C   UNL     1      -4.707  -0.034  -0.840  1.00  0.00    -0.044 A 
ATOM     29  C   UNL     1      -5.380   0.313   0.294  1.00  0.00    -0.045 A 
ATOM     30  C   UNL     1      -5.204   0.451  -2.044  1.00  0.00     0.004 A 
ATOM     31  C   UNL     1      -6.505   1.105   0.300  1.00  0.00     0.004 A 
ATOM     32  C   UNL     1      -6.332   1.246  -2.053  1.00  0.00     0.000 A 
ATOM     33  C   UNL     1      -7.000   1.587  -0.895  1.00  0.00     0.000 A 
ENDBRANCH  21  24
BRANCH  22  34
ATOM     34  O   UNL     1       0.004   1.746   2.137  1.00  0.00    -0.391 OA
ATOM     35  H   UNL     1       0.655   2.420   1.828  1.00  0.00     0.211 HD
ENDBRANCH  22  34
ENDBRANCH  17  19
ENDBRANCH   1  17
TORSDOF 6
