REMARK SMILES O=C(NCC(=O)N1C[C@H](O)C[C@H]1[C@@H]1CCc2ccccc2C1)c1ccc2cc(F)ccc2n1
REMARK SMILES IDX 4 1 3 2 2 3 1 4 23 6 24 7 33 8 25 9 32 10 26 11 31 12 27 13
REMARK SMILES IDX 30 14 28 15 29 16 5 17 6 18 7 19 8 20 12 21 9 22 11 23 13 24
REMARK SMILES IDX 14 25 22 26 15 27 21 28 16 29 20 30 17 31 19 32 18 33 10 34
REMARK H PARENT 3 5 10 35
ROOT
ATOM      1  C   UNL     1       0.453   0.082   0.394  1.00  0.00     0.216 C 
ENDROOT
BRANCH   1   2
ATOM      2  N   UNL     1       1.911   0.310   0.537  1.00  0.00    -0.342 N 
ATOM      3  C   UNL     1       2.787  -0.800   0.615  1.00  0.00     0.270 C 
ATOM      4  O   UNL     1       2.371  -2.007   0.568  1.00  0.00    -0.268 OA
ATOM      5  H   UNL     1       2.320   1.264   0.582  1.00  0.00     0.164 HD
BRANCH   3   6
ATOM      6  C   UNL     1       4.219  -0.554   0.756  1.00  0.00     0.128 A 
ATOM      7  C   UNL     1       5.108  -1.626   0.837  1.00  0.00     0.035 A 
ATOM      8  N   UNL     1       4.749   0.680   0.815  1.00  0.00    -0.243 NA
ATOM      9  C   UNL     1       6.452  -1.467   0.969  1.00  0.00     0.013 A 
ATOM     10  C   UNL     1       6.089   0.876   0.948  1.00  0.00     0.071 A 
ATOM     11  C   UNL     1       6.966  -0.200   1.027  1.00  0.00     0.003 A 
ATOM     12  C   UNL     1       6.611   2.167   1.007  1.00  0.00     0.032 A 
ATOM     13  C   UNL     1       8.327  -0.008   1.161  1.00  0.00     0.049 A 
ATOM     14  C   UNL     1       7.984   2.350   1.142  1.00  0.00     0.041 A 
ATOM     15  C   UNL     1       8.836   1.264   1.219  1.00  0.00     0.123 A 
ATOM     16  F   UNL     1      10.189   1.411   1.352  1.00  0.00    -0.207 F 
ENDBRANCH   3   6
ENDBRANCH   1   2
BRANCH   1  17
ATOM     17  C   UNL     1       0.169  -0.662  -0.825  1.00  0.00     0.242 C 
ATOM     18  O   UNL     1       1.217  -0.942  -1.547  1.00  0.00    -0.273 OA
BRANCH  17  19
ATOM     19  N   UNL     1      -1.034  -1.125  -1.346  1.00  0.00    -0.335 N 
ATOM     20  C   UNL     1      -1.051  -1.881  -2.643  1.00  0.00     0.151 C 
ATOM     21  C   UNL     1      -2.424  -1.152  -1.006  1.00  0.00     0.091 C 
ATOM     22  C   UNL     1      -1.810  -3.103  -2.188  1.00  0.00     0.136 C 
ATOM     23  C   UNL     1      -2.803  -2.582  -1.217  1.00  0.00     0.059 C 
BRANCH  21  24
ATOM     24  C   UNL     1      -2.874  -0.497   0.230  1.00  0.00     0.016 C 
ATOM     25  C   UNL     1      -4.328  -0.751   0.569  1.00  0.00     0.011 C 
ATOM     26  C   UNL     1      -2.729   1.016   0.178  1.00  0.00     0.041 C 
ATOM     27  C   UNL     1      -5.253  -0.228  -0.507  1.00  0.00     0.036 C 
ATOM     28  C   UNL     1      -3.959   1.771   0.006  1.00  0.00    -0.044 A 
ATOM     29  C   UNL     1      -5.197   1.273  -0.326  1.00  0.00    -0.045 A 
ATOM     30  C   UNL     1      -3.892   3.156   0.187  1.00  0.00     0.004 A 
ATOM     31  C   UNL     1      -6.323   2.052  -0.481  1.00  0.00     0.004 A 
ATOM     32  C   UNL     1      -5.018   3.935   0.032  1.00  0.00     0.000 A 
ATOM     33  C   UNL     1      -6.252   3.420  -0.301  1.00  0.00     0.000 A 
ENDBRANCH  21  24
BRANCH  22  34
ATOM     34  O   UNL     1      -2.406  -3.766  -3.267  1.00  0.00    -0.391 OA
ATOM     35  H   UNL     1      -3.099  -4.368  -2.879  1.00  0.00     0.211 HD
ENDBRANCH  22  34
ENDBRANCH  17  19
ENDBRANCH   1  17
TORSDOF 6
