REMARK SMILES O=C(NCC(=O)N1C[C@H](O)C[C@@H]1C1CCOCC1)c1ccc2cc(Cl)ccc2n1
REMARK SMILES IDX 4 1 3 2 2 3 1 4 19 6 20 7 29 8 21 9 28 10 22 11 27 12 23 13
REMARK SMILES IDX 26 14 24 15 25 16 5 17 6 18 7 19 8 20 12 21 9 22 11 23 13 24
REMARK SMILES IDX 14 25 18 26 15 27 17 28 16 29 10 30
REMARK H PARENT 3 5 10 31
ROOT
ATOM      1  C   UNL     1       0.066  -0.529  -0.595  1.00  0.00     0.216 C 
ENDROOT
BRANCH   1   2
ATOM      2  N   UNL     1       1.488  -0.466  -0.241  1.00  0.00    -0.342 N 
ATOM      3  C   UNL     1       2.273  -1.637  -0.102  1.00  0.00     0.270 C 
ATOM      4  O   UNL     1       1.696  -2.752  -0.296  1.00  0.00    -0.268 OA
ATOM      5  H   UNL     1       1.962   0.470  -0.081  1.00  0.00     0.164 HD
BRANCH   3   6
ATOM      6  C   UNL     1       3.692  -1.551   0.252  1.00  0.00     0.128 A 
ATOM      7  C   UNL     1       4.400  -2.744   0.371  1.00  0.00     0.035 A 
ATOM      8  N   UNL     1       4.317  -0.375   0.461  1.00  0.00    -0.243 NA
ATOM      9  C   UNL     1       5.746  -2.678   0.706  1.00  0.00     0.013 A 
ATOM     10  C   UNL     1       5.619  -0.286   0.787  1.00  0.00     0.071 A 
ATOM     11  C   UNL     1       6.370  -1.458   0.917  1.00  0.00     0.002 A 
ATOM     12  C   UNL     1       6.172   0.954   0.981  1.00  0.00     0.030 A 
ATOM     13  C   UNL     1       7.712  -1.362   1.253  1.00  0.00     0.030 A 
ATOM     14  C   UNL     1       7.509   1.032   1.315  1.00  0.00     0.023 A 
ATOM     15  C   UNL     1       8.263  -0.116   1.447  1.00  0.00     0.041 A 
ATOM     16  Cl  UNL     1       9.951   0.086   1.873  1.00  0.00    -0.084 Cl
ENDBRANCH   3   6
ENDBRANCH   1   2
BRANCH   1  17
ATOM     17  C   UNL     1      -0.461   0.841  -0.661  1.00  0.00     0.242 C 
ATOM     18  O   UNL     1       0.306   1.804  -0.427  1.00  0.00    -0.273 OA
BRANCH  17  19
ATOM     19  N   UNL     1      -1.811   1.133  -0.981  1.00  0.00    -0.335 N 
ATOM     20  C   UNL     1      -2.380   2.465  -1.060  1.00  0.00     0.151 C 
ATOM     21  C   UNL     1      -2.908   0.233  -1.294  1.00  0.00     0.091 C 
ATOM     22  C   UNL     1      -3.466   2.410  -2.089  1.00  0.00     0.136 C 
ATOM     23  C   UNL     1      -3.522   0.944  -2.481  1.00  0.00     0.059 C 
BRANCH  21  24
ATOM     24  C   UNL     1      -3.836   0.226  -0.107  1.00  0.00     0.016 C 
ATOM     25  C   UNL     1      -3.071  -0.258   1.093  1.00  0.00     0.034 C 
ATOM     26  C   UNL     1      -5.039  -0.643  -0.263  1.00  0.00     0.034 C 
ATOM     27  C   UNL     1      -4.081  -0.342   2.240  1.00  0.00     0.160 C 
ATOM     28  C   UNL     1      -5.974  -0.311   0.904  1.00  0.00     0.160 C 
ATOM     29  O   UNL     1      -5.274   0.309   1.919  1.00  0.00    -0.381 OA
ENDBRANCH  21  24
BRANCH  22  30
ATOM     30  O   UNL     1      -4.682   2.904  -1.653  1.00  0.00    -0.391 OA
ATOM     31  H   UNL     1      -4.559   3.602  -0.943  1.00  0.00     0.211 HD
ENDBRANCH  22  30
ENDBRANCH  17  19
ENDBRANCH   1  17
TORSDOF 6
