REMARK SMILES O=C(NCC(=O)N1CCC[C@@H]1c1ncc(Cl)cn1)c1ccc2cc(F)ccc2n1
REMARK SMILES IDX 4 1 3 2 2 3 1 4 19 6 20 7 29 8 21 9 28 10 22 11 27 12 23 13
REMARK SMILES IDX 26 14 24 15 25 16 5 17 6 18 7 19 8 20 11 21 9 22 10 23 12 24
REMARK SMILES IDX 13 25 18 26 14 27 17 28 15 29 16 30
REMARK H PARENT 3 5
ROOT
ATOM      1  C   UNL     1      -0.728  -0.534   2.269  1.00  0.00     0.216 C 
ENDROOT
BRANCH   1   2
ATOM      2  N   UNL     1       0.591  -0.555   1.761  1.00  0.00    -0.342 N 
ATOM      3  C   UNL     1       1.005   0.569   0.943  1.00  0.00     0.270 C 
ATOM      4  O   UNL     1       0.118   1.451   0.779  1.00  0.00    -0.268 OA
ATOM      5  H   UNL     1       1.311  -1.308   1.916  1.00  0.00     0.164 HD
BRANCH   3   6
ATOM      6  C   UNL     1       2.331   0.627   0.386  1.00  0.00     0.128 A 
ATOM      7  C   UNL     1       2.672   1.714  -0.382  1.00  0.00     0.035 A 
ATOM      8  N   UNL     1       3.194  -0.366   0.624  1.00  0.00    -0.243 NA
ATOM      9  C   UNL     1       3.968   1.720  -0.897  1.00  0.00     0.013 A 
ATOM     10  C   UNL     1       4.449  -0.387   0.140  1.00  0.00     0.071 A 
ATOM     11  C   UNL     1       4.854   0.681  -0.642  1.00  0.00     0.003 A 
ATOM     12  C   UNL     1       5.265  -1.454   0.440  1.00  0.00     0.032 A 
ATOM     13  C   UNL     1       6.135   0.647  -1.127  1.00  0.00     0.049 A 
ATOM     14  C   UNL     1       6.553  -1.478  -0.054  1.00  0.00     0.041 A 
ATOM     15  C   UNL     1       6.979  -0.416  -0.841  1.00  0.00     0.123 A 
ATOM     16  F   UNL     1       8.251  -0.486  -1.303  1.00  0.00    -0.207 F 
ENDBRANCH   3   6
ENDBRANCH   1   2
BRANCH   1  17
ATOM     17  C   UNL     1      -1.866  -0.594   1.357  1.00  0.00     0.242 C 
ATOM     18  O   UNL     1      -3.016  -0.444   1.952  1.00  0.00    -0.273 OA
BRANCH  17  19
ATOM     19  N   UNL     1      -1.931  -0.782  -0.023  1.00  0.00    -0.331 N 
ATOM     20  C   UNL     1      -0.900  -1.133  -1.017  1.00  0.00     0.120 C 
ATOM     21  C   UNL     1      -3.116  -0.633  -0.895  1.00  0.00     0.153 C 
ATOM     22  C   UNL     1      -1.095  -0.007  -1.991  1.00  0.00     0.024 C 
ATOM     23  C   UNL     1      -2.558   0.357  -1.922  1.00  0.00     0.035 C 
BRANCH  21  24
ATOM     24  C   UNL     1      -4.297  -0.090  -0.234  1.00  0.00     0.150 A 
ATOM     25  N   UNL     1      -5.458  -0.806  -0.305  1.00  0.00    -0.238 NA
ATOM     26  N   UNL     1      -4.375   1.076   0.421  1.00  0.00    -0.238 NA
ATOM     27  C   UNL     1      -6.606  -0.397   0.231  1.00  0.00     0.135 A 
ATOM     28  C   UNL     1      -5.504   1.546   0.985  1.00  0.00     0.135 A 
ATOM     29  C   UNL     1      -6.662   0.807   0.901  1.00  0.00     0.077 A 
ATOM     30  Cl  UNL     1      -8.124   1.409   1.628  1.00  0.00    -0.081 Cl
ENDBRANCH  21  24
ENDBRANCH  17  19
ENDBRANCH   1  17
TORSDOF 5
