REMARK SMILES O=C(NCC(=O)N1CCCC[C@H]1c1ccccc1)c1ccc2cc(Cl)ccc2n1
REMARK SMILES IDX 4 1 3 2 2 3 1 4 19 6 20 7 29 8 21 9 28 10 22 11 27 12 23 13
REMARK SMILES IDX 26 14 24 15 25 16 5 17 6 18 7 19 8 20 12 21 9 22 11 23 10 24
REMARK SMILES IDX 13 25 14 26 18 27 15 28 17 29 16 30
REMARK H PARENT 3 5
ROOT
ATOM      1  C   UNL     1       0.007   0.727  -1.114  1.00  0.00     0.216 C 
ENDROOT
BRANCH   1   2
ATOM      2  N   UNL     1       1.409   0.412  -0.918  1.00  0.00    -0.342 N 
ATOM      3  C   UNL     1       2.110   1.075   0.141  1.00  0.00     0.270 C 
ATOM      4  O   UNL     1       1.521   1.921   0.895  1.00  0.00    -0.268 OA
ATOM      5  H   UNL     1       1.920  -0.276  -1.518  1.00  0.00     0.164 HD
BRANCH   3   6
ATOM      6  C   UNL     1       3.521   0.771   0.354  1.00  0.00     0.128 A 
ATOM      7  C   UNL     1       4.209   1.402   1.370  1.00  0.00     0.035 A 
ATOM      8  N   UNL     1       4.208  -0.107  -0.398  1.00  0.00    -0.243 NA
ATOM      9  C   UNL     1       5.542   1.173   1.640  1.00  0.00     0.013 A 
ATOM     10  C   UNL     1       5.520  -0.354  -0.158  1.00  0.00     0.071 A 
ATOM     11  C   UNL     1       6.216   0.268   0.851  1.00  0.00     0.002 A 
ATOM     12  C   UNL     1       6.220  -1.260  -0.936  1.00  0.00     0.030 A 
ATOM     13  C   UNL     1       7.546   0.041   1.121  1.00  0.00     0.030 A 
ATOM     14  C   UNL     1       7.571  -1.501  -0.674  1.00  0.00     0.023 A 
ATOM     15  C   UNL     1       8.243  -0.861   0.346  1.00  0.00     0.041 A 
ATOM     16  Cl  UNL     1       9.924  -1.134   0.705  1.00  0.00    -0.084 Cl
ENDBRANCH   3   6
ENDBRANCH   1   2
BRANCH   1  17
ATOM     17  C   UNL     1      -0.802   0.414   0.081  1.00  0.00     0.242 C 
ATOM     18  O   UNL     1      -0.199  -0.066   1.076  1.00  0.00    -0.273 OA
BRANCH  17  19
ATOM     19  N   UNL     1      -2.202   0.664   0.055  1.00  0.00    -0.334 N 
ATOM     20  C   UNL     1      -2.832   1.224  -1.121  1.00  0.00     0.120 C 
ATOM     21  C   UNL     1      -3.051   0.375   1.204  1.00  0.00     0.115 C 
ATOM     22  C   UNL     1      -4.297   1.350  -0.958  1.00  0.00     0.022 C 
ATOM     23  C   UNL     1      -3.956   1.540   1.517  1.00  0.00     0.030 C 
ATOM     24  C   UNL     1      -4.742   2.003   0.325  1.00  0.00     0.004 C 
BRANCH  21  25
ATOM     25  C   UNL     1      -3.769  -0.908   1.045  1.00  0.00    -0.025 A 
ATOM     26  C   UNL     1      -5.103  -1.097   1.306  1.00  0.00     0.006 A 
ATOM     27  C   UNL     1      -3.056  -2.003   0.603  1.00  0.00     0.006 A 
ATOM     28  C   UNL     1      -5.733  -2.332   1.141  1.00  0.00     0.000 A 
ATOM     29  C   UNL     1      -3.682  -3.244   0.435  1.00  0.00     0.000 A 
ATOM     30  C   UNL     1      -5.021  -3.427   0.700  1.00  0.00     0.000 A 
ENDBRANCH  21  25
ENDBRANCH  17  19
ENDBRANCH   1  17
TORSDOF 5
