REMARK SMILES O=C(NCC(=O)N1CCCC[C@@H]1c1ccccc1)c1ccc2cc(Cl)ccc2n1
REMARK SMILES IDX 4 1 3 2 2 3 1 4 19 6 20 7 29 8 21 9 28 10 22 11 27 12 23 13
REMARK SMILES IDX 26 14 24 15 25 16 5 17 6 18 7 19 8 20 12 21 9 22 11 23 10 24
REMARK SMILES IDX 13 25 14 26 18 27 15 28 17 29 16 30
REMARK H PARENT 3 5
ROOT
ATOM      1  C   UNL     1      -0.147   0.827  -0.209  1.00  0.00     0.216 C 
ENDROOT
BRANCH   1   2
ATOM      2  N   UNL     1       1.240   0.726  -0.639  1.00  0.00    -0.342 N 
ATOM      3  C   UNL     1       2.165   0.226   0.322  1.00  0.00     0.270 C 
ATOM      4  O   UNL     1       1.751  -0.096   1.472  1.00  0.00    -0.268 OA
ATOM      5  H   UNL     1       1.563   0.998  -1.594  1.00  0.00     0.164 HD
BRANCH   3   6
ATOM      6  C   UNL     1       3.576   0.090  -0.019  1.00  0.00     0.128 A 
ATOM      7  C   UNL     1       4.478  -0.385   0.884  1.00  0.00     0.035 A 
ATOM      8  N   UNL     1       4.028   0.435  -1.252  1.00  0.00    -0.243 NA
ATOM      9  C   UNL     1       5.827  -0.540   0.628  1.00  0.00     0.013 A 
ATOM     10  C   UNL     1       5.346   0.307  -1.569  1.00  0.00     0.071 A 
ATOM     11  C   UNL     1       6.260  -0.176  -0.651  1.00  0.00     0.002 A 
ATOM     12  C   UNL     1       5.815   0.657  -2.825  1.00  0.00     0.030 A 
ATOM     13  C   UNL     1       7.598  -0.309  -0.962  1.00  0.00     0.030 A 
ATOM     14  C   UNL     1       7.150   0.531  -3.157  1.00  0.00     0.023 A 
ATOM     15  C   UNL     1       8.034   0.047  -2.218  1.00  0.00     0.041 A 
ATOM     16  Cl  UNL     1       9.734  -0.117  -2.631  1.00  0.00    -0.084 Cl
ENDBRANCH   3   6
ENDBRANCH   1   2
BRANCH   1  17
ATOM     17  C   UNL     1      -0.705  -0.469   0.187  1.00  0.00     0.242 C 
ATOM     18  O   UNL     1      -0.043  -1.537   0.152  1.00  0.00    -0.273 OA
BRANCH  17  19
ATOM     19  N   UNL     1      -2.046  -0.557   0.634  1.00  0.00    -0.334 N 
ATOM     20  C   UNL     1      -2.671  -1.805   1.050  1.00  0.00     0.120 C 
ATOM     21  C   UNL     1      -2.926   0.627   0.714  1.00  0.00     0.115 C 
ATOM     22  C   UNL     1      -3.336  -1.712   2.367  1.00  0.00     0.022 C 
ATOM     23  C   UNL     1      -3.430   0.799   2.118  1.00  0.00     0.030 C 
ATOM     24  C   UNL     1      -4.012  -0.432   2.723  1.00  0.00     0.004 C 
BRANCH  21  25
ATOM     25  C   UNL     1      -3.972   0.571  -0.318  1.00  0.00    -0.025 A 
ATOM     26  C   UNL     1      -3.589   0.223  -1.600  1.00  0.00     0.006 A 
ATOM     27  C   UNL     1      -5.302   0.835  -0.117  1.00  0.00     0.006 A 
ATOM     28  C   UNL     1      -4.533   0.155  -2.606  1.00  0.00     0.000 A 
ATOM     29  C   UNL     1      -6.253   0.767  -1.129  1.00  0.00     0.000 A 
ATOM     30  C   UNL     1      -5.872   0.420  -2.405  1.00  0.00     0.000 A 
ENDBRANCH  21  25
ENDBRANCH  17  19
ENDBRANCH   1  17
TORSDOF 5
