REMARK SMILES C[C@H](NC(=O)CNC(=O)c1ccc2ccccc2n1)c1ccccc1
REMARK SMILES IDX 3 1 4 2 5 3 2 5 1 6 20 7 21 8 25 9 22 10 24 11 23 12 6 13
REMARK SMILES IDX 7 14 8 15 9 17 10 18 11 19 19 20 12 21 18 22 13 23 17 24
REMARK SMILES IDX 14 25 16 26 15 27
REMARK H PARENT 3 4 7 16
ROOT
ATOM      1  N   UNL     1      -2.602  -0.174  -1.265  1.00  0.00    -0.348 N 
ATOM      2  C   UNL     1      -1.229  -0.009  -0.965  1.00  0.00     0.239 C 
ATOM      3  O   UNL     1      -0.867   1.032  -0.345  1.00  0.00    -0.273 OA
ATOM      4  H   UNL     1      -2.946  -1.017  -1.775  1.00  0.00     0.164 HD
ENDROOT
BRANCH   1   5
ATOM      5  C   UNL     1      -3.559   0.832  -0.864  1.00  0.00     0.109 C 
ATOM      6  C   UNL     1      -4.177   1.414  -2.135  1.00  0.00     0.036 C 
BRANCH   5   7
ATOM      7  C   UNL     1      -4.578   0.186  -0.009  1.00  0.00    -0.026 A 
ATOM      8  C   UNL     1      -5.139  -1.019  -0.348  1.00  0.00     0.006 A 
ATOM      9  C   UNL     1      -4.956   0.843   1.161  1.00  0.00     0.006 A 
ATOM     10  C   UNL     1      -6.085  -1.588   0.476  1.00  0.00     0.000 A 
ATOM     11  C   UNL     1      -5.901   0.237   1.948  1.00  0.00     0.000 A 
ATOM     12  C   UNL     1      -6.494  -0.966   1.658  1.00  0.00     0.000 A 
ENDBRANCH   5   7
ENDBRANCH   1   5
BRANCH   2  13
ATOM     13  C   UNL     1      -0.275  -1.064  -1.393  1.00  0.00     0.216 C 
BRANCH  13  14
ATOM     14  N   UNL     1       1.076  -0.772  -1.028  1.00  0.00    -0.342 N 
ATOM     15  C   UNL     1       1.486  -0.592   0.320  1.00  0.00     0.270 C 
ATOM     16  H   UNL     1       1.832  -0.677  -1.768  1.00  0.00     0.164 HD
ATOM     17  O   UNL     1       0.636  -0.690   1.265  1.00  0.00    -0.268 OA
BRANCH  15  18
ATOM     18  C   UNL     1       2.894  -0.294   0.616  1.00  0.00     0.128 A 
ATOM     19  C   UNL     1       3.294  -0.119   1.924  1.00  0.00     0.035 A 
ATOM     20  N   UNL     1       3.784  -0.192  -0.388  1.00  0.00    -0.243 NA
ATOM     21  C   UNL     1       4.642   0.164   2.169  1.00  0.00     0.013 A 
ATOM     22  C   UNL     1       5.078   0.074  -0.219  1.00  0.00     0.071 A 
ATOM     23  C   UNL     1       5.519   0.257   1.086  1.00  0.00     0.000 A 
ATOM     24  C   UNL     1       5.959   0.170  -1.274  1.00  0.00     0.029 A 
ATOM     25  C   UNL     1       6.854   0.537   1.320  1.00  0.00     0.010 A 
ATOM     26  C   UNL     1       7.274   0.444  -1.069  1.00  0.00     0.002 A 
ATOM     27  C   UNL     1       7.707   0.624   0.228  1.00  0.00     0.001 A 
ENDBRANCH  15  18
ENDBRANCH  13  14
ENDBRANCH   2  13
TORSDOF 5
