REMARK SMILES O=C(NCC(=O)N1C[C@H](O)C[C@H]1c1ccccc1)c1ccc2ccc(Cl)cc2n1
REMARK SMILES IDX 4 1 3 2 2 3 1 4 19 6 20 7 29 8 21 9 28 10 22 11 27 12 23 13
REMARK SMILES IDX 25 14 24 15 26 16 5 17 6 18 7 19 8 20 12 21 9 22 11 23 13 24
REMARK SMILES IDX 14 25 18 26 15 27 17 28 16 29 10 30
REMARK H PARENT 3 5 10 31
ROOT
ATOM      1  C   UNL     1      -0.585  -0.207  -0.668  1.00  0.00     0.216 C 
ENDROOT
BRANCH   1   2
ATOM      2  N   UNL     1       0.859  -0.048  -0.541  1.00  0.00    -0.342 N 
ATOM      3  C   UNL     1       1.572   0.849  -1.390  1.00  0.00     0.270 C 
ATOM      4  O   UNL     1       0.967   1.522  -2.266  1.00  0.00    -0.268 OA
ATOM      5  H   UNL     1       1.422  -0.583   0.174  1.00  0.00     0.164 HD
BRANCH   3   6
ATOM      6  C   UNL     1       3.017   0.978  -1.229  1.00  0.00     0.128 A 
ATOM      7  C   UNL     1       3.739   1.835  -2.031  1.00  0.00     0.035 A 
ATOM      8  N   UNL     1       3.680   0.269  -0.299  1.00  0.00    -0.243 NA
ATOM      9  C   UNL     1       5.123   1.974  -1.893  1.00  0.00     0.013 A 
ATOM     10  C   UNL     1       5.010   0.352  -0.111  1.00  0.00     0.073 A 
ATOM     11  C   UNL     1       5.747   1.214  -0.915  1.00  0.00     0.000 A 
ATOM     12  C   UNL     1       5.648  -0.394   0.854  1.00  0.00     0.049 A 
ATOM     13  C   UNL     1       7.115   1.280  -0.701  1.00  0.00     0.012 A 
ATOM     14  C   UNL     1       7.012  -0.334   1.075  1.00  0.00     0.043 A 
ATOM     15  C   UNL     1       7.751   0.532   0.266  1.00  0.00     0.021 A 
ATOM     16  Cl  UNL     1       7.784  -1.304   2.317  1.00  0.00    -0.084 Cl
ENDBRANCH   3   6
ENDBRANCH   1   2
BRANCH   1  17
ATOM     17  C   UNL     1      -1.014  -1.198   0.345  1.00  0.00     0.242 C 
ATOM     18  O   UNL     1      -0.099  -1.688   1.084  1.00  0.00    -0.273 OA
BRANCH  17  19
ATOM     19  N   UNL     1      -2.369  -1.603   0.510  1.00  0.00    -0.331 N 
ATOM     20  C   UNL     1      -2.764  -2.580   1.516  1.00  0.00     0.152 C 
ATOM     21  C   UNL     1      -3.489  -1.140  -0.241  1.00  0.00     0.118 C 
ATOM     22  C   UNL     1      -4.094  -3.098   1.069  1.00  0.00     0.136 C 
ATOM     23  C   UNL     1      -4.642  -1.971   0.223  1.00  0.00     0.063 C 
BRANCH  21  24
ATOM     24  C   UNL     1      -3.747   0.312  -0.162  1.00  0.00    -0.025 A 
ATOM     25  C   UNL     1      -4.040   1.086  -1.287  1.00  0.00     0.006 A 
ATOM     26  C   UNL     1      -3.689   0.905   1.097  1.00  0.00     0.006 A 
ATOM     27  C   UNL     1      -4.277   2.453  -1.165  1.00  0.00     0.000 A 
ATOM     28  C   UNL     1      -3.926   2.275   1.216  1.00  0.00     0.000 A 
ATOM     29  C   UNL     1      -4.218   3.045   0.095  1.00  0.00     0.000 A 
ENDBRANCH  21  24
BRANCH  22  30
ATOM     30  O   UNL     1      -4.021  -4.250   0.302  1.00  0.00    -0.391 OA
ATOM     31  H   UNL     1      -4.416  -4.100  -0.591  1.00  0.00     0.211 HD
ENDBRANCH  22  30
ENDBRANCH  17  19
ENDBRANCH   1  17
TORSDOF 6
