REMARK SMILES O=C(NCC(=O)N1CCCC[C@H]1C1CCCCC1)c1ccc2cc(F)ccc2n1
REMARK SMILES IDX 4 1 3 2 2 3 1 4 19 6 20 7 29 8 21 9 28 10 22 11 27 12 23 13
REMARK SMILES IDX 26 14 24 15 25 16 5 17 6 18 7 19 8 20 12 21 9 22 11 23 10 24
REMARK SMILES IDX 13 25 14 26 18 27 15 28 17 29 16 30
REMARK H PARENT 3 5
ROOT
ATOM      1  C   UNL     1       0.288   1.373   1.454  1.00  0.00     0.216 C 
ENDROOT
BRANCH   1   2
ATOM      2  N   UNL     1       1.551   0.954   0.995  1.00  0.00    -0.342 N 
ATOM      3  C   UNL     1       2.682   1.344   1.850  1.00  0.00     0.270 C 
ATOM      4  O   UNL     1       2.427   2.008   2.900  1.00  0.00    -0.268 OA
ATOM      5  H   UNL     1       1.846   0.401   0.185  1.00  0.00     0.164 HD
BRANCH   3   6
ATOM      6  C   UNL     1       4.031   0.962   1.466  1.00  0.00     0.128 A 
ATOM      7  C   UNL     1       5.057   1.346   2.292  1.00  0.00     0.035 A 
ATOM      8  N   UNL     1       4.272   0.251   0.335  1.00  0.00    -0.243 NA
ATOM      9  C   UNL     1       6.343   0.985   1.933  1.00  0.00     0.013 A 
ATOM     10  C   UNL     1       5.532  -0.088   0.007  1.00  0.00     0.071 A 
ATOM     11  C   UNL     1       6.625   0.268   0.798  1.00  0.00     0.003 A 
ATOM     12  C   UNL     1       5.757  -0.818  -1.159  1.00  0.00     0.032 A 
ATOM     13  C   UNL     1       7.908  -0.092   0.440  1.00  0.00     0.049 A 
ATOM     14  C   UNL     1       7.049  -1.166  -1.496  1.00  0.00     0.041 A 
ATOM     15  C   UNL     1       8.129  -0.809  -0.706  1.00  0.00     0.123 A 
ATOM     16  F   UNL     1       9.367  -1.193  -1.112  1.00  0.00    -0.207 F 
ENDBRANCH   3   6
ENDBRANCH   1   2
BRANCH   1  17
ATOM     17  C   UNL     1      -0.943   1.130   0.733  1.00  0.00     0.242 C 
ATOM     18  O   UNL     1      -1.996   1.527   1.418  1.00  0.00    -0.273 OA
BRANCH  17  19
ATOM     19  N   UNL     1      -1.260   0.577  -0.500  1.00  0.00    -0.338 N 
ATOM     20  C   UNL     1      -0.255   0.292  -1.555  1.00  0.00     0.120 C 
ATOM     21  C   UNL     1      -2.595   0.143  -0.926  1.00  0.00     0.088 C 
ATOM     22  C   UNL     1      -0.138  -1.167  -1.805  1.00  0.00     0.022 C 
ATOM     23  C   UNL     1      -2.477  -1.381  -0.940  1.00  0.00     0.025 C 
ATOM     24  C   UNL     1      -1.520  -1.783  -2.014  1.00  0.00     0.004 C 
BRANCH  21  25
ATOM     25  C   UNL     1      -3.773   0.597  -0.167  1.00  0.00     0.012 C 
ATOM     26  C   UNL     1      -4.981   0.324  -1.112  1.00  0.00     0.006 C 
ATOM     27  C   UNL     1      -4.111  -0.161   1.087  1.00  0.00     0.006 C 
ATOM     28  C   UNL     1      -6.199   0.839  -0.363  1.00  0.00     0.000 C 
ATOM     29  C   UNL     1      -5.328  -1.054   0.990  1.00  0.00     0.000 C 
ATOM     30  C   UNL     1      -6.568  -0.270   0.620  1.00  0.00     0.000 C 
ENDBRANCH  21  25
ENDBRANCH  17  19
ENDBRANCH   1  17
TORSDOF 5
