REMARK SMILES O=C(NCC(=O)N1CCCC[C@H]1C1CCCCC1)c1ccc2cc(Cl)ccc2n1
REMARK SMILES IDX 4 1 3 2 2 3 1 4 19 6 20 7 29 8 21 9 28 10 22 11 27 12 23 13
REMARK SMILES IDX 26 14 24 15 25 16 5 17 6 18 7 19 8 20 12 21 9 22 11 23 10 24
REMARK SMILES IDX 13 25 14 26 18 27 15 28 17 29 16 30
REMARK H PARENT 3 5
ROOT
ATOM      1  C   UNL     1       0.604  -0.013  -1.535  1.00  0.00     0.216 C 
ENDROOT
BRANCH   1   2
ATOM      2  N   UNL     1       1.824  -0.177  -0.765  1.00  0.00    -0.342 N 
ATOM      3  C   UNL     1       2.929  -0.781  -1.452  1.00  0.00     0.270 C 
ATOM      4  O   UNL     1       2.726  -1.105  -2.646  1.00  0.00    -0.268 OA
ATOM      5  H   UNL     1       1.925   0.116   0.231  1.00  0.00     0.164 HD
BRANCH   3   6
ATOM      6  C   UNL     1       4.209  -1.002  -0.790  1.00  0.00     0.128 A 
ATOM      7  C   UNL     1       5.217  -1.583  -1.509  1.00  0.00     0.035 A 
ATOM      8  N   UNL     1       4.453  -0.665   0.485  1.00  0.00    -0.243 NA
ATOM      9  C   UNL     1       6.451  -1.821  -0.949  1.00  0.00     0.013 A 
ATOM     10  C   UNL     1       5.657  -0.881   1.081  1.00  0.00     0.071 A 
ATOM     11  C   UNL     1       6.670  -1.459   0.379  1.00  0.00     0.002 A 
ATOM     12  C   UNL     1       5.852  -0.515   2.397  1.00  0.00     0.030 A 
ATOM     13  C   UNL     1       7.917  -1.706   0.923  1.00  0.00     0.030 A 
ATOM     14  C   UNL     1       7.097  -0.758   2.953  1.00  0.00     0.023 A 
ATOM     15  C   UNL     1       8.115  -1.340   2.242  1.00  0.00     0.041 A 
ATOM     16  Cl  UNL     1       9.691  -1.639   2.972  1.00  0.00    -0.084 Cl
ENDBRANCH   3   6
ENDBRANCH   1   2
BRANCH   1  17
ATOM     17  C   UNL     1      -0.383   0.620  -0.639  1.00  0.00     0.242 C 
ATOM     18  O   UNL     1       0.005   0.877   0.544  1.00  0.00    -0.273 OA
BRANCH  17  19
ATOM     19  N   UNL     1      -1.725   0.940  -1.064  1.00  0.00    -0.338 N 
ATOM     20  C   UNL     1      -2.072   0.613  -2.418  1.00  0.00     0.120 C 
ATOM     21  C   UNL     1      -2.609   1.557  -0.107  1.00  0.00     0.088 C 
ATOM     22  C   UNL     1      -3.062   1.553  -2.990  1.00  0.00     0.022 C 
ATOM     23  C   UNL     1      -3.661   2.433  -0.710  1.00  0.00     0.025 C 
ATOM     24  C   UNL     1      -3.416   2.746  -2.162  1.00  0.00     0.004 C 
BRANCH  21  25
ATOM     25  C   UNL     1      -3.134   0.468   0.800  1.00  0.00     0.012 C 
ATOM     26  C   UNL     1      -4.050   1.101   1.799  1.00  0.00     0.006 C 
ATOM     27  C   UNL     1      -3.740  -0.680   0.054  1.00  0.00     0.006 C 
ATOM     28  C   UNL     1      -4.613   0.116   2.797  1.00  0.00     0.000 C 
ATOM     29  C   UNL     1      -4.817  -1.379   0.894  1.00  0.00     0.000 C 
ATOM     30  C   UNL     1      -4.321  -1.311   2.331  1.00  0.00     0.000 C 
ENDBRANCH  21  25
ENDBRANCH  17  19
ENDBRANCH   1  17
TORSDOF 5
