REMARK SMILES O=C(NCC(=O)N1CCCC[C@@H]1C1CCCCC1)c1ccc2cc(Cl)ccc2n1
REMARK SMILES IDX 4 1 3 2 2 3 1 4 19 6 20 7 29 8 21 9 28 10 22 11 27 12 23 13
REMARK SMILES IDX 26 14 24 15 25 16 5 17 6 18 7 19 8 20 12 21 9 22 11 23 10 24
REMARK SMILES IDX 13 25 14 26 18 27 15 28 17 29 16 30
REMARK H PARENT 3 5
ROOT
ATOM      1  C   UNL     1       0.309  -0.540  -0.509  1.00  0.00     0.216 C 
ENDROOT
BRANCH   1   2
ATOM      2  N   UNL     1       1.720  -0.641  -0.200  1.00  0.00    -0.342 N 
ATOM      3  C   UNL     1       2.569   0.372  -0.777  1.00  0.00     0.270 C 
ATOM      4  O   UNL     1       2.084   1.290  -1.511  1.00  0.00    -0.268 OA
ATOM      5  H   UNL     1       2.141  -1.384   0.397  1.00  0.00     0.164 HD
BRANCH   3   6
ATOM      6  C   UNL     1       3.996   0.323  -0.502  1.00  0.00     0.128 A 
ATOM      7  C   UNL     1       4.822   1.291  -1.050  1.00  0.00     0.035 A 
ATOM      8  N   UNL     1       4.559  -0.640   0.275  1.00  0.00    -0.243 NA
ATOM      9  C   UNL     1       6.183   1.298  -0.827  1.00  0.00     0.013 A 
ATOM     10  C   UNL     1       5.902  -0.644   0.503  1.00  0.00     0.071 A 
ATOM     11  C   UNL     1       6.731   0.326  -0.046  1.00  0.00     0.002 A 
ATOM     12  C   UNL     1       6.392  -1.654   1.302  1.00  0.00     0.030 A 
ATOM     13  C   UNL     1       8.082   0.265   0.224  1.00  0.00     0.030 A 
ATOM     14  C   UNL     1       7.766  -1.681   1.552  1.00  0.00     0.023 A 
ATOM     15  C   UNL     1       8.609  -0.723   1.013  1.00  0.00     0.041 A 
ATOM     16  Cl  UNL     1      10.324  -0.777   1.339  1.00  0.00    -0.084 Cl
ENDBRANCH   3   6
ENDBRANCH   1   2
BRANCH   1  17
ATOM     17  C   UNL     1      -0.284   0.718  -0.052  1.00  0.00     0.242 C 
ATOM     18  O   UNL     1       0.479   1.545   0.556  1.00  0.00    -0.273 OA
BRANCH  17  19
ATOM     19  N   UNL     1      -1.627   1.124  -0.213  1.00  0.00    -0.338 N 
ATOM     20  C   UNL     1      -2.022   2.420   0.307  1.00  0.00     0.120 C 
ATOM     21  C   UNL     1      -2.656   0.354  -0.875  1.00  0.00     0.088 C 
ATOM     22  C   UNL     1      -2.721   3.242  -0.750  1.00  0.00     0.022 C 
ATOM     23  C   UNL     1      -3.567   1.163  -1.717  1.00  0.00     0.025 C 
ATOM     24  C   UNL     1      -3.969   2.500  -1.164  1.00  0.00     0.004 C 
BRANCH  21  25
ATOM     25  C   UNL     1      -3.272  -0.674   0.003  1.00  0.00     0.012 C 
ATOM     26  C   UNL     1      -3.913  -0.223   1.259  1.00  0.00     0.006 C 
ATOM     27  C   UNL     1      -4.341  -1.459  -0.786  1.00  0.00     0.006 C 
ATOM     28  C   UNL     1      -4.807  -1.325   1.850  1.00  0.00     0.000 C 
ATOM     29  C   UNL     1      -4.495  -2.794  -0.119  1.00  0.00     0.000 C 
ATOM     30  C   UNL     1      -4.277  -2.665   1.388  1.00  0.00     0.000 C 
ENDBRANCH  21  25
ENDBRANCH  17  19
ENDBRANCH   1  17
TORSDOF 5
