REMARK SMILES COC[C@H]1CCCN1C(=O)CNC(=O)c1ccc2ccccc2n1
REMARK SMILES IDX 4 1 5 2 6 3 7 4 8 5 3 6 2 7 1 8 9 9 10 10 11 11 12 12 13 13
REMARK SMILES IDX 14 15 15 16 16 17 24 18 17 19 23 20 18 21 22 22 19 23 21 24
REMARK SMILES IDX 20 25
REMARK H PARENT 12 14
ROOT
ATOM      1  C   UNL     1      -4.489   0.083   0.017  1.00  0.00     0.111 C 
ATOM      2  C   UNL     1      -5.147  -0.781  -1.042  1.00  0.00     0.029 C 
ATOM      3  C   UNL     1      -4.780  -2.187  -0.589  1.00  0.00     0.024 C 
ATOM      4  C   UNL     1      -3.717  -2.027   0.497  1.00  0.00     0.120 C 
ATOM      5  N   UNL     1      -3.258  -0.652   0.203  1.00  0.00    -0.336 N 
ENDROOT
BRANCH   1   6
ATOM      6  C   UNL     1      -4.341   1.502  -0.386  1.00  0.00     0.184 C 
BRANCH   6   7
ATOM      7  O   UNL     1      -3.655   2.255   0.528  1.00  0.00    -0.383 OA
ATOM      8  C   UNL     1      -3.566   3.585   0.060  1.00  0.00     0.194 C 
ENDBRANCH   6   7
ENDBRANCH   1   6
BRANCH   5   9
ATOM      9  C   UNL     1      -1.906  -0.245   0.137  1.00  0.00     0.242 C 
ATOM     10  O   UNL     1      -1.519   0.922  -0.117  1.00  0.00    -0.273 OA
BRANCH   9  11
ATOM     11  C   UNL     1      -0.824  -1.254   0.382  1.00  0.00     0.216 C 
BRANCH  11  12
ATOM     12  N   UNL     1       0.486  -0.642   0.269  1.00  0.00    -0.342 N 
ATOM     13  C   UNL     1       1.609  -1.499   0.480  1.00  0.00     0.270 C 
ATOM     14  H   UNL     1       0.635   0.370   0.045  1.00  0.00     0.164 HD
ATOM     15  O   UNL     1       1.326  -2.710   0.746  1.00  0.00    -0.268 OA
BRANCH  13  16
ATOM     16  C   UNL     1       2.980  -1.023   0.399  1.00  0.00     0.128 A 
ATOM     17  C   UNL     1       3.990  -1.931   0.620  1.00  0.00     0.035 A 
ATOM     18  N   UNL     1       3.328   0.236   0.124  1.00  0.00    -0.243 NA
ATOM     19  C   UNL     1       5.330  -1.596   0.569  1.00  0.00     0.013 A 
ATOM     20  C   UNL     1       4.634   0.622   0.061  1.00  0.00     0.071 A 
ATOM     21  C   UNL     1       5.660  -0.283   0.282  1.00  0.00     0.000 A 
ATOM     22  C   UNL     1       4.935   1.936  -0.227  1.00  0.00     0.029 A 
ATOM     23  C   UNL     1       6.991   0.073   0.226  1.00  0.00     0.010 A 
ATOM     24  C   UNL     1       6.281   2.292  -0.282  1.00  0.00     0.002 A 
ATOM     25  C   UNL     1       7.297   1.393  -0.063  1.00  0.00     0.001 A 
ENDBRANCH  13  16
ENDBRANCH  11  12
ENDBRANCH   9  11
ENDBRANCH   5   9
TORSDOF 6
