REMARK SMILES O=C(NCC(=O)N1C[C@H](O)C[C@H]1c1ccccc1)c1ccc2cc(Cl)ccc2n1
REMARK SMILES IDX 4 1 3 2 2 3 1 4 19 6 20 7 29 8 21 9 28 10 22 11 27 12 23 13
REMARK SMILES IDX 26 14 24 15 25 16 5 17 6 18 7 19 8 20 12 21 9 22 11 23 13 24
REMARK SMILES IDX 14 25 18 26 15 27 17 28 16 29 10 30
REMARK H PARENT 3 5 10 31
ROOT
ATOM      1  C   UNL     1       0.001   0.565   2.035  1.00  0.00     0.216 C 
ENDROOT
BRANCH   1   2
ATOM      2  N   UNL     1       1.256   0.508   1.361  1.00  0.00    -0.342 N 
ATOM      3  C   UNL     1       1.679  -0.698   0.749  1.00  0.00     0.270 C 
ATOM      4  O   UNL     1       0.953  -1.744   0.789  1.00  0.00    -0.268 OA
ATOM      5  H   UNL     1       1.902   1.347   1.296  1.00  0.00     0.164 HD
BRANCH   3   6
ATOM      6  C   UNL     1       2.975  -0.742   0.058  1.00  0.00     0.128 A 
ATOM      7  C   UNL     1       3.387  -1.921  -0.539  1.00  0.00     0.035 A 
ATOM      8  N   UNL     1       3.781   0.333  -0.014  1.00  0.00    -0.243 NA
ATOM      9  C   UNL     1       4.591  -2.035  -1.205  1.00  0.00     0.013 A 
ATOM     10  C   UNL     1       4.968   0.285  -0.649  1.00  0.00     0.071 A 
ATOM     11  C   UNL     1       5.391  -0.903  -1.255  1.00  0.00     0.002 A 
ATOM     12  C   UNL     1       5.797   1.385  -0.725  1.00  0.00     0.030 A 
ATOM     13  C   UNL     1       6.608  -0.941  -1.903  1.00  0.00     0.030 A 
ATOM     14  C   UNL     1       7.019   1.348  -1.375  1.00  0.00     0.023 A 
ATOM     15  C   UNL     1       7.444   0.165  -1.981  1.00  0.00     0.041 A 
ATOM     16  Cl  UNL     1       8.985   0.068  -2.817  1.00  0.00    -0.084 Cl
ENDBRANCH   3   6
ENDBRANCH   1   2
BRANCH   1  17
ATOM     17  C   UNL     1      -1.148   0.250   1.109  1.00  0.00     0.242 C 
ATOM     18  O   UNL     1      -0.834  -0.005  -0.071  1.00  0.00    -0.273 OA
BRANCH  17  19
ATOM     19  N   UNL     1      -2.454   0.267   1.638  1.00  0.00    -0.331 N 
ATOM     20  C   UNL     1      -2.817   0.591   3.041  1.00  0.00     0.152 C 
ATOM     21  C   UNL     1      -3.749   0.015   1.036  1.00  0.00     0.118 C 
ATOM     22  C   UNL     1      -4.001   1.506   2.810  1.00  0.00     0.136 C 
ATOM     23  C   UNL     1      -4.420   1.339   1.342  1.00  0.00     0.063 C 
BRANCH  21  24
ATOM     24  C   UNL     1      -3.766  -0.331  -0.369  1.00  0.00    -0.025 A 
ATOM     25  C   UNL     1      -4.488   0.400  -1.311  1.00  0.00     0.006 A 
ATOM     26  C   UNL     1      -3.085  -1.426  -0.851  1.00  0.00     0.006 A 
ATOM     27  C   UNL     1      -4.538   0.080  -2.636  1.00  0.00     0.000 A 
ATOM     28  C   UNL     1      -3.128  -1.765  -2.208  1.00  0.00     0.000 A 
ATOM     29  C   UNL     1      -3.853  -1.018  -3.113  1.00  0.00     0.000 A 
ENDBRANCH  21  24
BRANCH  22  30
ATOM     30  O   UNL     1      -5.068   1.036   3.562  1.00  0.00    -0.391 OA
ATOM     31  H   UNL     1      -5.024   1.479   4.447  1.00  0.00     0.211 HD
ENDBRANCH  22  30
ENDBRANCH  17  19
ENDBRANCH   1  17
TORSDOF 6
