REMARK SMILES O=C(NCC(=O)N1C[C@H](O)C[C@H]1c1ccccc1)c1ccc2cc(F)ccc2n1
REMARK SMILES IDX 4 1 3 2 2 3 1 4 19 6 20 7 29 8 21 9 28 10 22 11 27 12 23 13
REMARK SMILES IDX 26 14 24 15 25 16 5 17 6 18 7 19 8 20 12 21 9 22 11 23 13 24
REMARK SMILES IDX 14 25 18 26 15 27 17 28 16 29 10 30
REMARK H PARENT 3 5 10 31
ROOT
ATOM      1  C   UNL     1       0.006   2.007   0.342  1.00  0.00     0.216 C 
ENDROOT
BRANCH   1   2
ATOM      2  N   UNL     1       1.285   1.365   0.132  1.00  0.00    -0.342 N 
ATOM      3  C   UNL     1       1.694   0.281   0.978  1.00  0.00     0.270 C 
ATOM      4  O   UNL     1       0.960  -0.138   1.917  1.00  0.00    -0.268 OA
ATOM      5  H   UNL     1       1.939   1.667  -0.629  1.00  0.00     0.164 HD
BRANCH   3   6
ATOM      6  C   UNL     1       3.012  -0.333   0.713  1.00  0.00     0.128 A 
ATOM      7  C   UNL     1       3.412  -1.386   1.533  1.00  0.00     0.035 A 
ATOM      8  N   UNL     1       3.801   0.109  -0.286  1.00  0.00    -0.243 NA
ATOM      9  C   UNL     1       4.629  -1.968   1.304  1.00  0.00     0.013 A 
ATOM     10  C   UNL     1       4.997  -0.469  -0.505  1.00  0.00     0.071 A 
ATOM     11  C   UNL     1       5.447  -1.528   0.287  1.00  0.00     0.003 A 
ATOM     12  C   UNL     1       5.824  -0.034  -1.524  1.00  0.00     0.032 A 
ATOM     13  C   UNL     1       6.684  -2.116   0.050  1.00  0.00     0.049 A 
ATOM     14  C   UNL     1       7.048  -0.585  -1.789  1.00  0.00     0.041 A 
ATOM     15  C   UNL     1       7.468  -1.632  -0.990  1.00  0.00     0.123 A 
ATOM     16  F   UNL     1       8.675  -2.212  -1.213  1.00  0.00    -0.207 F 
ENDBRANCH   3   6
ENDBRANCH   1   2
BRANCH   1  17
ATOM     17  C   UNL     1      -1.118   1.032   0.198  1.00  0.00     0.242 C 
ATOM     18  O   UNL     1      -0.787  -0.148  -0.072  1.00  0.00    -0.273 OA
BRANCH  17  19
ATOM     19  N   UNL     1      -2.440   1.490   0.371  1.00  0.00    -0.331 N 
ATOM     20  C   UNL     1      -2.817   2.897   0.670  1.00  0.00     0.152 C 
ATOM     21  C   UNL     1      -3.724   0.839   0.309  1.00  0.00     0.118 C 
ATOM     22  C   UNL     1      -4.176   3.099   0.066  1.00  0.00     0.136 C 
ATOM     23  C   UNL     1      -4.427   1.771  -0.660  1.00  0.00     0.063 C 
BRANCH  21  24
ATOM     24  C   UNL     1      -3.739  -0.561  -0.074  1.00  0.00    -0.025 A 
ATOM     25  C   UNL     1      -3.074  -1.508   0.667  1.00  0.00     0.006 A 
ATOM     26  C   UNL     1      -4.436  -0.916  -1.232  1.00  0.00     0.006 A 
ATOM     27  C   UNL     1      -3.076  -2.853   0.279  1.00  0.00     0.000 A 
ATOM     28  C   UNL     1      -4.433  -2.257  -1.610  1.00  0.00     0.000 A 
ATOM     29  C   UNL     1      -3.769  -3.225  -0.878  1.00  0.00     0.000 A 
ENDBRANCH  21  24
BRANCH  22  30
ATOM     30  O   UNL     1      -5.126   3.156   1.104  1.00  0.00    -0.391 OA
ATOM     31  H   UNL     1      -5.887   2.550   0.919  1.00  0.00     0.211 HD
ENDBRANCH  22  30
ENDBRANCH  17  19
ENDBRANCH   1  17
TORSDOF 6
