REMARK SMILES O=C(NCC(=O)N1C[C@H](O)C[C@H]1CN1CCCC1)c1ccc2cc(Cl)ccc2n1
REMARK SMILES IDX 4 1 3 2 2 3 1 4 19 6 20 7 29 8 21 9 28 10 22 11 27 12 23 13
REMARK SMILES IDX 26 14 24 15 25 16 5 17 6 18 7 19 8 20 12 21 9 22 11 23 13 24
REMARK SMILES IDX 14 25 15 26 18 27 16 28 17 29 10 30
REMARK H PARENT 3 5 10 31
ROOT
ATOM      1  C   UNL     1       0.227   0.242   0.291  1.00  0.00     0.216 C 
ENDROOT
BRANCH   1   2
ATOM      2  N   UNL     1       1.691   0.380   0.177  1.00  0.00    -0.342 N 
ATOM      3  C   UNL     1       2.505  -0.773  -0.006  1.00  0.00     0.270 C 
ATOM      4  O   UNL     1       2.006  -1.924  -0.073  1.00  0.00    -0.268 OA
ATOM      5  H   UNL     1       2.124   1.341   0.232  1.00  0.00     0.164 HD
BRANCH   3   6
ATOM      6  C   UNL     1       3.960  -0.556  -0.111  1.00  0.00     0.128 A 
ATOM      7  C   UNL     1       4.766  -1.686  -0.291  1.00  0.00     0.035 A 
ATOM      8  N   UNL     1       4.511   0.657  -0.042  1.00  0.00    -0.243 NA
ATOM      9  C   UNL     1       6.128  -1.449  -0.386  1.00  0.00     0.013 A 
ATOM     10  C   UNL     1       5.837   0.869  -0.137  1.00  0.00     0.071 A 
ATOM     11  C   UNL     1       6.687  -0.203  -0.315  1.00  0.00     0.002 A 
ATOM     12  C   UNL     1       6.277   2.173  -0.049  1.00  0.00     0.030 A 
ATOM     13  C   UNL     1       8.064   0.006  -0.414  1.00  0.00     0.030 A 
ATOM     14  C   UNL     1       7.641   2.383  -0.148  1.00  0.00     0.023 A 
ATOM     15  C   UNL     1       8.497   1.317  -0.325  1.00  0.00     0.041 A 
ATOM     16  Cl  UNL     1      10.210   1.670  -0.440  1.00  0.00    -0.084 Cl
ENDBRANCH   3   6
ENDBRANCH   1   2
BRANCH   1  17
ATOM     17  C   UNL     1      -0.339  -0.370  -0.912  1.00  0.00     0.242 C 
ATOM     18  O   UNL     1       0.496  -0.680  -1.838  1.00  0.00    -0.273 OA
BRANCH  17  19
ATOM     19  N   UNL     1      -1.684  -0.661  -1.175  1.00  0.00    -0.334 N 
ATOM     20  C   UNL     1      -2.095  -1.292  -2.454  1.00  0.00     0.151 C 
ATOM     21  C   UNL     1      -2.917  -0.495  -0.460  1.00  0.00     0.102 C 
ATOM     22  C   UNL     1      -3.092  -2.320  -1.929  1.00  0.00     0.136 C 
ATOM     23  C   UNL     1      -3.430  -1.924  -0.507  1.00  0.00     0.060 C 
BRANCH  21  24
ATOM     24  C   UNL     1      -2.843   0.058   0.907  1.00  0.00     0.109 C 
BRANCH  24  25
ATOM     25  N   UNL     1      -4.236   0.114   1.396  1.00  0.00    -0.301 NA
ATOM     26  C   UNL     1      -4.287   0.643   2.735  1.00  0.00     0.084 C 
ATOM     27  C   UNL     1      -5.049   0.929   0.557  1.00  0.00     0.084 C 
ATOM     28  C   UNL     1      -5.336   1.720   2.784  1.00  0.00     0.017 C 
ATOM     29  C   UNL     1      -6.013   1.685   1.434  1.00  0.00     0.017 C 
ENDBRANCH  24  25
ENDBRANCH  21  24
BRANCH  22  30
ATOM     30  O   UNL     1      -4.251  -2.358  -2.668  1.00  0.00    -0.391 OA
ATOM     31  H   UNL     1      -5.059  -2.180  -2.130  1.00  0.00     0.211 HD
ENDBRANCH  22  30
ENDBRANCH  17  19
ENDBRANCH   1  17
TORSDOF 7
