REMARK SMILES C[C@H](NC(=O)CCNC(=O)c1ccc2cc(F)ccc2n1)c1ccccc1
REMARK SMILES IDX 6 1 4 2 3 3 5 5 2 6 1 7 22 8 23 9 27 10 24 11 26 12 25 13
REMARK SMILES IDX 7 14 8 15 9 16 10 18 11 19 12 20 21 21 13 22 20 23 14 24
REMARK SMILES IDX 19 25 15 26 18 27 16 28 17 29
REMARK H PARENT 3 4 8 17
ROOT
ATOM      1  C   UNL     1       0.631  -0.423   0.339  1.00  0.00     0.121 C 
ENDROOT
BRANCH   1   2
ATOM      2  C   UNL     1       2.007  -0.697   0.881  1.00  0.00     0.222 C 
ATOM      3  N   UNL     1       3.088  -0.609  -0.053  1.00  0.00    -0.350 N 
ATOM      4  H   UNL     1       2.943  -0.367  -1.061  1.00  0.00     0.164 HD
ATOM      5  O   UNL     1       2.203  -0.989   2.089  1.00  0.00    -0.275 OA
BRANCH   3   6
ATOM      6  C   UNL     1       4.432  -0.868   0.441  1.00  0.00     0.109 C 
ATOM      7  C   UNL     1       4.882  -2.189  -0.185  1.00  0.00     0.036 C 
BRANCH   6   8
ATOM      8  C   UNL     1       5.373   0.226   0.212  1.00  0.00    -0.026 A 
ATOM      9  C   UNL     1       6.217   0.620   1.240  1.00  0.00     0.006 A 
ATOM     10  C   UNL     1       5.423   0.852  -0.994  1.00  0.00     0.006 A 
ATOM     11  C   UNL     1       7.098   1.655   1.004  1.00  0.00     0.000 A 
ATOM     12  C   UNL     1       6.308   1.902  -1.252  1.00  0.00     0.000 A 
ATOM     13  C   UNL     1       7.152   2.291  -0.213  1.00  0.00     0.000 A 
ENDBRANCH   6   8
ENDBRANCH   3   6
ENDBRANCH   1   2
BRANCH   1  14
ATOM     14  C   UNL     1      -0.412  -0.545   1.403  1.00  0.00     0.126 C 
BRANCH  14  15
ATOM     15  N   UNL     1      -1.760  -0.292   0.943  1.00  0.00    -0.350 N 
ATOM     16  C   UNL     1      -2.371  -1.070  -0.080  1.00  0.00     0.269 C 
ATOM     17  H   UNL     1      -2.342   0.492   1.360  1.00  0.00     0.163 HD
ATOM     18  O   UNL     1      -1.764  -2.031  -0.645  1.00  0.00    -0.268 OA
BRANCH  16  19
ATOM     19  C   UNL     1      -3.743  -0.754  -0.495  1.00  0.00     0.128 A 
ATOM     20  C   UNL     1      -4.358  -1.490  -1.481  1.00  0.00     0.035 A 
ATOM     21  N   UNL     1      -4.422   0.256   0.079  1.00  0.00    -0.243 NA
ATOM     22  C   UNL     1      -5.628  -1.166  -1.837  1.00  0.00     0.013 A 
ATOM     23  C   UNL     1      -5.679   0.608  -0.244  1.00  0.00     0.071 A 
ATOM     24  C   UNL     1      -6.313  -0.134  -1.246  1.00  0.00     0.003 A 
ATOM     25  C   UNL     1      -6.330   1.654   0.376  1.00  0.00     0.032 A 
ATOM     26  C   UNL     1      -7.608   0.200  -1.604  1.00  0.00     0.049 A 
ATOM     27  C   UNL     1      -7.635   1.964  -0.010  1.00  0.00     0.041 A 
ATOM     28  C   UNL     1      -8.284   1.251  -0.993  1.00  0.00     0.123 A 
ATOM     29  F   UNL     1      -9.563   1.549  -1.376  1.00  0.00    -0.207 F 
ENDBRANCH  16  19
ENDBRANCH  14  15
ENDBRANCH   1  14
TORSDOF 6
