REMARK SMILES O=C(NCC(=O)N1CCCC[C@H]1c1ccccc1)c1ccc2ccccc2n1
REMARK SMILES IDX 4 1 3 2 2 3 1 4 19 6 20 7 28 8 21 9 27 10 22 11 26 12 23 13
REMARK SMILES IDX 25 14 24 15 5 16 6 17 7 18 8 19 12 20 9 21 11 22 10 23 13 24
REMARK SMILES IDX 14 25 18 26 15 27 17 28 16 29
REMARK H PARENT 3 5
ROOT
ATOM      1  C   UNL     1      -0.174  -1.185  -1.690  1.00  0.00     0.216 C 
ENDROOT
BRANCH   1   2
ATOM      2  N   UNL     1       1.132  -0.974  -1.107  1.00  0.00    -0.342 N 
ATOM      3  C   UNL     1       1.767   0.301  -1.124  1.00  0.00     0.270 C 
ATOM      4  O   UNL     1       1.187   1.302  -1.663  1.00  0.00    -0.268 OA
ATOM      5  H   UNL     1       1.666  -1.753  -0.648  1.00  0.00     0.164 HD
BRANCH   3   6
ATOM      6  C   UNL     1       3.087   0.464  -0.523  1.00  0.00     0.128 A 
ATOM      7  C   UNL     1       3.701   1.698  -0.539  1.00  0.00     0.035 A 
ATOM      8  N   UNL     1       3.718  -0.587   0.053  1.00  0.00    -0.243 NA
ATOM      9  C   UNL     1       4.945   1.914   0.012  1.00  0.00     0.013 A 
ATOM     10  C   UNL     1       4.935  -0.411   0.601  1.00  0.00     0.071 A 
ATOM     11  C   UNL     1       5.566   0.820   0.594  1.00  0.00     0.000 A 
ATOM     12  C   UNL     1       5.624  -1.456   1.204  1.00  0.00     0.029 A 
ATOM     13  C   UNL     1       6.807   1.031   1.145  1.00  0.00     0.010 A 
ATOM     14  C   UNL     1       6.885  -1.247   1.765  1.00  0.00     0.002 A 
ATOM     15  C   UNL     1       7.490  -0.003   1.742  1.00  0.00     0.001 A 
ENDBRANCH   3   6
ENDBRANCH   1   2
BRANCH   1  16
ATOM     16  C   UNL     1      -1.180  -0.316  -1.021  1.00  0.00     0.242 C 
ATOM     17  O   UNL     1      -0.740   0.434  -0.090  1.00  0.00    -0.273 OA
BRANCH  16  18
ATOM     18  N   UNL     1      -2.538  -0.333  -1.408  1.00  0.00    -0.334 N 
ATOM     19  C   UNL     1      -2.948  -1.235  -2.496  1.00  0.00     0.120 C 
ATOM     20  C   UNL     1      -3.463   0.517  -0.738  1.00  0.00     0.115 C 
ATOM     21  C   UNL     1      -4.169  -1.954  -1.966  1.00  0.00     0.022 C 
ATOM     22  C   UNL     1      -4.899   0.183  -0.862  1.00  0.00     0.030 C 
ATOM     23  C   UNL     1      -5.255  -0.928  -1.796  1.00  0.00     0.004 C 
BRANCH  20  24
ATOM     24  C   UNL     1      -3.107   0.539   0.726  1.00  0.00    -0.025 A 
ATOM     25  C   UNL     1      -3.068   1.727   1.439  1.00  0.00     0.006 A 
ATOM     26  C   UNL     1      -2.807  -0.630   1.402  1.00  0.00     0.006 A 
ATOM     27  C   UNL     1      -2.739   1.746   2.790  1.00  0.00     0.000 A 
ATOM     28  C   UNL     1      -2.474  -0.646   2.750  1.00  0.00     0.000 A 
ATOM     29  C   UNL     1      -2.442   0.560   3.445  1.00  0.00     0.000 A 
ENDBRANCH  20  24
ENDBRANCH  16  18
ENDBRANCH   1  16
TORSDOF 5
