REMARK SMILES O=C(NCC(=O)N1CC[C@@H](c2cnc[nH]2)C1)c1ccc2cc(F)ccc2n1
REMARK SMILES IDX 4 1 3 2 2 3 1 4 17 6 18 7 27 8 19 9 26 10 20 11 25 12 21 13
REMARK SMILES IDX 24 14 22 15 23 16 5 17 6 18 7 19 8 20 16 21 9 22 10 23 11 24
REMARK SMILES IDX 12 25 15 26 13 27 14 28
REMARK H PARENT 3 5 15 29
ROOT
ATOM      1  C   UNL     1      -0.177   0.377   1.038  1.00  0.00     0.216 C 
ENDROOT
BRANCH   1   2
ATOM      2  N   UNL     1       1.190   0.196   0.610  1.00  0.00    -0.342 N 
ATOM      3  C   UNL     1       2.247   0.312   1.551  1.00  0.00     0.270 C 
ATOM      4  O   UNL     1       1.931   0.575   2.750  1.00  0.00    -0.268 OA
ATOM      5  H   UNL     1       1.423  -0.023  -0.402  1.00  0.00     0.164 HD
BRANCH   3   6
ATOM      6  C   UNL     1       3.620   0.130   1.118  1.00  0.00     0.128 A 
ATOM      7  C   UNL     1       4.610   0.257   2.082  1.00  0.00     0.035 A 
ATOM      8  N   UNL     1       3.952  -0.152  -0.170  1.00  0.00    -0.243 NA
ATOM      9  C   UNL     1       5.942   0.095   1.729  1.00  0.00     0.013 A 
ATOM     10  C   UNL     1       5.251  -0.309  -0.508  1.00  0.00     0.071 A 
ATOM     11  C   UNL     1       6.269  -0.189   0.430  1.00  0.00     0.003 A 
ATOM     12  C   UNL     1       5.525  -0.595  -1.840  1.00  0.00     0.032 A 
ATOM     13  C   UNL     1       7.575  -0.365  -0.001  1.00  0.00     0.049 A 
ATOM     14  C   UNL     1       6.843  -0.758  -2.198  1.00  0.00     0.041 A 
ATOM     15  C   UNL     1       7.894  -0.651  -1.313  1.00  0.00     0.123 A 
ATOM     16  F   UNL     1       9.171  -0.816  -1.697  1.00  0.00    -0.207 F 
ENDBRANCH   3   6
ENDBRANCH   1   2
BRANCH   1  17
ATOM     17  C   UNL     1      -1.117   0.212  -0.109  1.00  0.00     0.241 C 
ATOM     18  O   UNL     1      -0.668  -0.052  -1.270  1.00  0.00    -0.273 OA
BRANCH  17  19
ATOM     19  N   UNL     1      -2.515   0.353   0.106  1.00  0.00    -0.340 N 
ATOM     20  C   UNL     1      -3.159   0.655   1.386  1.00  0.00     0.120 C 
ATOM     21  C   UNL     1      -3.553   0.223  -0.899  1.00  0.00     0.129 C 
ATOM     22  C   UNL     1      -4.634   0.450   1.161  1.00  0.00     0.033 C 
ATOM     23  C   UNL     1      -4.659  -0.419  -0.077  1.00  0.00     0.059 C 
BRANCH  23  24
ATOM     24  C   UNL     1      -5.969  -0.412  -0.773  1.00  0.00     0.039 A 
ATOM     25  C   UNL     1      -6.794  -1.477  -1.085  1.00  0.00     0.134 A 
ATOM     26  N   UNL     1      -6.550   0.719  -1.215  1.00  0.00    -0.348 N 
ATOM     27  N   UNL     1      -7.864  -0.989  -1.711  1.00  0.00    -0.245 NA
ATOM     28  C   UNL     1      -7.696   0.341  -1.779  1.00  0.00     0.196 A 
ATOM     29  H   UNL     1      -6.222   1.709  -1.158  1.00  0.00     0.167 HD
ENDBRANCH  23  24
ENDBRANCH  17  19
ENDBRANCH   1  17
TORSDOF 5
