REMARK SMILES O=C(NCC(=O)N1C[C@H](O)C[C@@H]1c1ccc(Cl)cc1)c1ccc2cc(C(F)(F)F)ccc2n1
REMARK SMILES IDX 4 1 3 2 2 3 1 4 20 6 21 7 33 8 22 9 32 10 23 11 31 12 24 13
REMARK SMILES IDX 30 14 25 15 26 16 27 17 28 18 29 19 5 20 6 21 7 22 8 23
REMARK SMILES IDX 12 24 9 25 11 26 13 27 14 28 19 29 15 30 18 31 16 32 17 33
REMARK SMILES IDX 10 34
REMARK H PARENT 3 5 10 35
ROOT
ATOM      1  C   UNL     1      -1.261  -0.816   0.302  1.00  0.00     0.216 C 
ENDROOT
BRANCH   1   2
ATOM      2  N   UNL     1       0.186  -0.816   0.411  1.00  0.00    -0.342 N 
ATOM      3  C   UNL     1       0.919   0.364   0.099  1.00  0.00     0.270 C 
ATOM      4  O   UNL     1       0.265   1.390  -0.269  1.00  0.00    -0.268 OA
ATOM      5  H   UNL     1       0.734  -1.657   0.714  1.00  0.00     0.164 HD
BRANCH   3   6
ATOM      6  C   UNL     1       2.371   0.396   0.199  1.00  0.00     0.128 A 
ATOM      7  C   UNL     1       3.035   1.559  -0.113  1.00  0.00     0.035 A 
ATOM      8  N   UNL     1       3.112  -0.659   0.582  1.00  0.00    -0.243 NA
ATOM      9  C   UNL     1       4.397   1.675  -0.047  1.00  0.00     0.013 A 
ATOM     10  C   UNL     1       4.469  -0.577   0.659  1.00  0.00     0.071 A 
ATOM     11  C   UNL     1       5.146   0.583   0.349  1.00  0.00     0.001 A 
ATOM     12  C   UNL     1       5.182  -1.708   1.064  1.00  0.00     0.029 A 
ATOM     13  C   UNL     1       6.512   0.597   0.448  1.00  0.00     0.023 A 
ATOM     14  C   UNL     1       6.569  -1.647   1.150  1.00  0.00     0.015 A 
ATOM     15  C   UNL     1       7.249  -0.485   0.839  1.00  0.00     0.056 A 
BRANCH  15  16
ATOM     16  C   UNL     1       8.731  -0.482   0.950  1.00  0.00     0.416 C 
ATOM     17  F   UNL     1       9.125  -1.051   2.154  1.00  0.00    -0.166 F 
ATOM     18  F   UNL     1       9.222   0.826   0.970  1.00  0.00    -0.166 F 
ATOM     19  F   UNL     1       9.279  -1.191  -0.095  1.00  0.00    -0.166 F 
ENDBRANCH  15  16
ENDBRANCH   3   6
ENDBRANCH   1   2
BRANCH   1  20
ATOM     20  C   UNL     1      -1.701  -0.512  -1.079  1.00  0.00     0.242 C 
ATOM     21  O   UNL     1      -0.825  -0.290  -1.983  1.00  0.00    -0.273 OA
BRANCH  20  22
ATOM     22  N   UNL     1      -3.050  -0.444  -1.494  1.00  0.00    -0.331 N 
ATOM     23  C   UNL     1      -3.399  -0.143  -2.895  1.00  0.00     0.152 C 
ATOM     24  C   UNL     1      -4.199  -0.645  -0.694  1.00  0.00     0.118 C 
ATOM     25  C   UNL     1      -4.856  -0.643  -2.968  1.00  0.00     0.136 C 
ATOM     26  C   UNL     1      -5.377  -0.370  -1.582  1.00  0.00     0.063 C 
BRANCH  24  27
ATOM     27  C   UNL     1      -4.228   0.212   0.529  1.00  0.00    -0.025 A 
ATOM     28  C   UNL     1      -3.914   1.560   0.325  1.00  0.00     0.007 A 
ATOM     29  C   UNL     1      -4.543  -0.282   1.778  1.00  0.00     0.007 A 
ATOM     30  C   UNL     1      -3.932   2.393   1.445  1.00  0.00     0.021 A 
ATOM     31  C   UNL     1      -4.560   0.542   2.884  1.00  0.00     0.021 A 
ATOM     32  C   UNL     1      -4.253   1.869   2.698  1.00  0.00     0.041 A 
ATOM     33  Cl  UNL     1      -4.284   2.895   4.132  1.00  0.00    -0.084 Cl
ENDBRANCH  24  27
BRANCH  25  34
ATOM     34  O   UNL     1      -5.538   0.032  -3.966  1.00  0.00    -0.391 OA
ATOM     35  H   UNL     1      -5.463  -0.529  -4.788  1.00  0.00     0.211 HD
ENDBRANCH  25  34
ENDBRANCH  20  22
ENDBRANCH   1  20
TORSDOF 7
