REMARK SMILES CSc1cccc(NC(=O)Nc2ccc(Cl)cc2)c1
REMARK SMILES IDX 3 1 4 2 5 3 6 4 7 5 19 6 2 7 1 8 8 9 9 10 11 11 10 13 12 15
REMARK SMILES IDX 13 16 18 17 14 18 17 19 15 20 16 21
REMARK H PARENT 8 12 11 14
ROOT
ATOM      1  C   UNL     1      -2.118   2.592   3.401  1.00  0.00     0.009 A 
ATOM      2  C   UNL     1      -2.707   3.319   2.361  1.00  0.00     0.015 A 
ATOM      3  C   UNL     1      -2.543   2.903   1.037  1.00  0.00     0.003 A 
ATOM      4  C   UNL     1      -1.779   1.769   0.747  1.00  0.00     0.026 A 
ATOM      5  C   UNL     1      -1.159   1.047   1.783  1.00  0.00     0.043 A 
ATOM      6  C   UNL     1      -1.349   1.458   3.112  1.00  0.00     0.041 A 
ENDROOT
BRANCH   1   7
ATOM      7  S   UNL     1      -2.337   3.120   5.101  1.00  0.00    -0.130 SA
ATOM      8  C   UNL     1      -3.837   2.119   5.346  1.00  0.00     0.091 C 
ENDBRANCH   1   7
BRANCH   5   9
ATOM      9  N   UNL     1      -0.387  -0.137   1.516  1.00  0.00    -0.308 N 
ATOM     10  C   UNL     1       0.441  -0.317   0.358  1.00  0.00     0.323 C 
ATOM     11  N   UNL     1       0.985  -1.615   0.075  1.00  0.00    -0.308 N 
ATOM     12  H   UNL     1      -0.352  -0.878   2.253  1.00  0.00     0.171 HD
ATOM     13  O   UNL     1       0.689   0.657  -0.404  1.00  0.00    -0.248 OA
ATOM     14  H   UNL     1       0.553  -2.434   0.558  1.00  0.00     0.171 HD
BRANCH  11  15
ATOM     15  C   UNL     1       1.994  -1.870  -0.918  1.00  0.00     0.042 A 
ATOM     16  C   UNL     1       3.031  -0.951  -1.166  1.00  0.00     0.028 A 
ATOM     17  C   UNL     1       1.981  -3.089  -1.614  1.00  0.00     0.028 A 
ATOM     18  C   UNL     1       4.013  -1.236  -2.120  1.00  0.00     0.022 A 
ATOM     19  C   UNL     1       2.963  -3.371  -2.569  1.00  0.00     0.022 A 
ATOM     20  C   UNL     1       3.977  -2.443  -2.825  1.00  0.00     0.041 A 
ATOM     21  Cl  UNL     1       5.211  -2.799  -4.020  1.00  0.00    -0.084 Cl
ENDBRANCH  11  15
ENDBRANCH   5   9
TORSDOF 3
