REMARK SMILES CSc1cccc(N/C(O)=N/c2ccc(Cl)cc2)c1
REMARK SMILES IDX 9 1 8 2 10 4 11 6 12 7 13 8 18 9 14 10 17 11 15 12 16 13
REMARK SMILES IDX 7 14 6 15 19 16 5 17 3 18 4 19 2 20 1 21
REMARK H PARENT 8 3 10 5
ROOT
ATOM      1  C   UNL     1       1.589   1.526   0.394  1.00  0.00     0.291 C 
ATOM      2  N   UNL     1       0.273   1.927   0.804  1.00  0.00    -0.310 N 
ATOM      3  H   UNL     1       0.178   2.865   1.255  1.00  0.00     0.171 HD
ENDROOT
BRANCH   1   4
ATOM      4  O   UNL     1       2.578   2.507   0.298  1.00  0.00    -0.480 OA
ATOM      5  H   UNL     1       3.561   2.294   0.187  1.00  0.00     0.296 HD
ENDBRANCH   1   4
BRANCH   1   6
ATOM      6  N   UNL     1       1.850   0.265   0.188  1.00  0.00    -0.198 NA
BRANCH   6   7
ATOM      7  C   UNL     1       3.077  -0.285  -0.313  1.00  0.00     0.069 A 
ATOM      8  C   UNL     1       3.588  -1.451   0.271  1.00  0.00     0.030 A 
ATOM      9  C   UNL     1       3.708   0.250  -1.449  1.00  0.00     0.030 A 
ATOM     10  C   UNL     1       4.750  -2.043  -0.233  1.00  0.00     0.023 A 
ATOM     11  C   UNL     1       4.870  -0.342  -1.953  1.00  0.00     0.023 A 
ATOM     12  C   UNL     1       5.396  -1.485  -1.342  1.00  0.00     0.041 A 
ATOM     13  Cl  UNL     1       6.851  -2.230  -1.977  1.00  0.00    -0.084 Cl
ENDBRANCH   6   7
ENDBRANCH   1   6
BRANCH   2  14
ATOM     14  C   UNL     1      -0.896   1.093   0.721  1.00  0.00     0.043 A 
ATOM     15  C   UNL     1      -1.899   1.216   1.695  1.00  0.00     0.026 A 
ATOM     16  C   UNL     1      -1.085   0.198  -0.348  1.00  0.00     0.041 A 
ATOM     17  C   UNL     1      -3.053   0.430   1.625  1.00  0.00     0.003 A 
ATOM     18  C   UNL     1      -2.243  -0.586  -0.418  1.00  0.00     0.009 A 
ATOM     19  C   UNL     1      -3.223  -0.474   0.574  1.00  0.00     0.015 A 
BRANCH  18  20
ATOM     20  S   UNL     1      -2.470  -1.733  -1.779  1.00  0.00    -0.130 SA
ATOM     21  C   UNL     1      -3.301  -0.506  -2.835  1.00  0.00     0.091 C 
ENDBRANCH  18  20
ENDBRANCH   2  14
TORSDOF 5
