REMARK SMILES COc1cc(C)ccc1NC(=O)c1cccnc1
REMARK SMILES IDX 3 1 4 2 5 3 6 4 7 5 8 6 9 7 2 8 1 9 10 10 11 11 12 13 13 14
REMARK SMILES IDX 14 15 18 16 15 17 17 18 16 19
REMARK H PARENT 10 12
ROOT
ATOM      1  C   UNL     1       0.987  -1.281   2.314  1.00  0.00     0.142 A 
ATOM      2  C   UNL     1       1.609  -2.474   2.734  1.00  0.00     0.052 A 
ATOM      3  C   UNL     1       2.630  -3.054   1.968  1.00  0.00    -0.047 A 
ATOM      4  C   UNL     1       3.313  -4.303   2.443  1.00  0.00     0.044 C 
ATOM      5  C   UNL     1       3.059  -2.418   0.797  1.00  0.00     0.006 A 
ATOM      6  C   UNL     1       2.450  -1.236   0.374  1.00  0.00     0.030 A 
ATOM      7  C   UNL     1       1.399  -0.670   1.115  1.00  0.00     0.084 A 
ENDROOT
BRANCH   1   8
ATOM      8  O   UNL     1      -0.046  -0.682   3.055  1.00  0.00    -0.495 OA
ATOM      9  C   UNL     1      -0.563  -1.191   4.280  1.00  0.00     0.278 C 
ENDBRANCH   1   8
BRANCH   7  10
ATOM     10  N   UNL     1       0.788   0.564   0.698  1.00  0.00    -0.319 N 
ATOM     11  C   UNL     1       0.443   0.858  -0.669  1.00  0.00     0.257 C 
ATOM     12  H   UNL     1       0.555   1.255   1.444  1.00  0.00     0.170 HD
ATOM     13  O   UNL     1       0.626  -0.012  -1.564  1.00  0.00    -0.269 OA
BRANCH  11  14
ATOM     14  C   UNL     1      -0.134   2.170  -1.052  1.00  0.00     0.058 A 
ATOM     15  C   UNL     1      -0.905   2.930  -0.154  1.00  0.00     0.017 A 
ATOM     16  C   UNL     1       0.059   2.671  -2.351  1.00  0.00     0.124 A 
ATOM     17  C   UNL     1      -1.438   4.157  -0.552  1.00  0.00     0.021 A 
ATOM     18  N   UNL     1      -0.470   3.870  -2.712  1.00  0.00    -0.264 NA
ATOM     19  C   UNL     1      -1.205   4.617  -1.847  1.00  0.00     0.111 A 
ENDBRANCH  11  14
ENDBRANCH   7  10
TORSDOF 3
