REMARK SMILES COc1cc(C)ccc1/N=C(/O)c1cccnc1
REMARK SMILES IDX 10 1 11 2 12 3 13 5 18 6 14 7 17 8 15 9 16 10 9 11 8 12 3 13
REMARK SMILES IDX 7 14 4 15 5 16 6 17 2 18 1 19
REMARK H PARENT 12 4
ROOT
ATOM      1  N   UNL     1      -1.808  -1.175  -0.043  1.00  0.00    -0.210 NA
ENDROOT
BRANCH   1   2
ATOM      2  C   UNL     1      -1.117  -2.187   0.407  1.00  0.00     0.220 C 
BRANCH   2   3
ATOM      3  O   UNL     1      -1.789  -3.356   0.755  1.00  0.00    -0.493 OA
ATOM      4  H   UNL     1      -2.796  -3.427   0.669  1.00  0.00     0.295 HD
ENDBRANCH   2   3
BRANCH   2   5
ATOM      5  C   UNL     1       0.358  -2.160   0.556  1.00  0.00     0.055 A 
ATOM      6  C   UNL     1       0.951  -2.696   1.709  1.00  0.00     0.124 A 
ATOM      7  C   UNL     1       1.191  -1.650  -0.452  1.00  0.00     0.017 A 
ATOM      8  N   UNL     1       2.303  -2.680   1.855  1.00  0.00    -0.264 NA
ATOM      9  C   UNL     1       2.576  -1.643  -0.277  1.00  0.00     0.021 A 
ATOM     10  C   UNL     1       3.119  -2.164   0.898  1.00  0.00     0.111 A 
ENDBRANCH   2   5
ENDBRANCH   1   2
BRANCH   1  11
ATOM     11  C   UNL     1      -1.320   0.144  -0.339  1.00  0.00     0.109 A 
ATOM     12  C   UNL     1      -1.631   0.710  -1.580  1.00  0.00     0.033 A 
ATOM     13  C   UNL     1      -0.600   0.895   0.613  1.00  0.00     0.144 A 
ATOM     14  C   UNL     1      -1.174   1.986  -1.911  1.00  0.00     0.006 A 
ATOM     15  C   UNL     1      -0.135   2.179   0.268  1.00  0.00     0.052 A 
ATOM     16  C   UNL     1      -0.402   2.718  -0.999  1.00  0.00    -0.047 A 
ATOM     17  C   UNL     1       0.060   4.103  -1.344  1.00  0.00     0.044 C 
BRANCH  13  18
ATOM     18  O   UNL     1      -0.383   0.347   1.888  1.00  0.00    -0.494 OA
ATOM     19  C   UNL     1       0.394   0.961   2.911  1.00  0.00     0.278 C 
ENDBRANCH  13  18
ENDBRANCH   1  11
TORSDOF 5
