REMARK SMILES COc1cc(C)ccc1/N=C(\O)c1cccnc1
REMARK SMILES IDX 10 1 11 2 12 3 13 5 18 6 14 7 17 8 15 9 16 10 9 11 8 12 3 13
REMARK SMILES IDX 7 14 4 15 5 16 6 17 2 18 1 19
REMARK H PARENT 12 4
ROOT
ATOM      1  N   UNL     1       0.989  -0.209  -0.139  1.00  0.00    -0.210 NA
ENDROOT
BRANCH   1   2
ATOM      2  C   UNL     1       2.197  -0.495  -0.539  1.00  0.00     0.220 C 
BRANCH   2   3
ATOM      3  O   UNL     1       3.056  -1.284   0.233  1.00  0.00    -0.493 OA
ATOM      4  H   UNL     1       2.850  -1.560   1.184  1.00  0.00     0.295 HD
ENDBRANCH   2   3
BRANCH   2   5
ATOM      5  C   UNL     1       2.692   0.058  -1.823  1.00  0.00     0.055 A 
ATOM      6  C   UNL     1       1.880   0.878  -2.629  1.00  0.00     0.124 A 
ATOM      7  C   UNL     1       3.994  -0.229  -2.267  1.00  0.00     0.017 A 
ATOM      8  N   UNL     1       2.355   1.374  -3.803  1.00  0.00    -0.264 NA
ATOM      9  C   UNL     1       4.456   0.294  -3.477  1.00  0.00     0.021 A 
ATOM     10  C   UNL     1       3.613   1.102  -4.239  1.00  0.00     0.111 A 
ENDBRANCH   2   5
ENDBRANCH   1   2
BRANCH   1  11
ATOM     11  C   UNL     1       0.322  -0.737   1.018  1.00  0.00     0.109 A 
ATOM     12  C   UNL     1       0.290  -2.120   1.262  1.00  0.00     0.033 A 
ATOM     13  C   UNL     1      -0.395   0.136   1.852  1.00  0.00     0.144 A 
ATOM     14  C   UNL     1      -0.407  -2.627   2.359  1.00  0.00     0.006 A 
ATOM     15  C   UNL     1      -1.099  -0.384   2.957  1.00  0.00     0.052 A 
ATOM     16  C   UNL     1      -1.114  -1.765   3.207  1.00  0.00    -0.047 A 
ATOM     17  C   UNL     1      -1.833  -2.307   4.407  1.00  0.00     0.044 C 
BRANCH  13  18
ATOM     18  O   UNL     1      -0.379   1.509   1.557  1.00  0.00    -0.494 OA
ATOM     19  C   UNL     1      -1.058   2.505   2.314  1.00  0.00     0.278 C 
ENDBRANCH  13  18
ENDBRANCH   1  11
TORSDOF 5
