REMARK SMILES COc1cc(C)ccc1[N-]C(=O)c1cccnc1
REMARK SMILES IDX 3 1 4 2 5 3 6 4 7 5 8 6 9 7 2 8 1 9 10 10 11 11 12 12 13 13
REMARK SMILES IDX 14 14 18 15 15 16 17 17 16 18
REMARK H PARENT
ROOT
ATOM      1  C   UNL     1      -0.002  -1.928   0.776  1.00  0.00     0.104 A 
ATOM      2  C   UNL     1       1.398  -1.967   0.849  1.00  0.00     0.048 A 
ATOM      3  C   UNL     1       2.193  -1.259  -0.061  1.00  0.00    -0.048 A 
ATOM      4  C   UNL     1       3.689  -1.343   0.015  1.00  0.00     0.044 C 
ATOM      5  C   UNL     1       1.581  -0.534  -1.088  1.00  0.00     0.002 A 
ATOM      6  C   UNL     1       0.190  -0.488  -1.183  1.00  0.00    -0.012 A 
ATOM      7  C   UNL     1      -0.619  -1.162  -0.249  1.00  0.00    -0.091 A 
ENDROOT
BRANCH   1   8
ATOM      8  O   UNL     1      -0.701  -2.661   1.753  1.00  0.00    -0.498 OA
ATOM      9  C   UNL     1      -2.112  -2.713   1.931  1.00  0.00     0.278 C 
ENDBRANCH   1   8
BRANCH   7  10
ATOM     10  N   UNL     1      -2.047  -1.124  -0.385  1.00  0.00    -0.620 NA
BRANCH  10  11
ATOM     11  C   UNL     1      -2.815  -0.072  -0.986  1.00  0.00     0.087 C 
ATOM     12  O   UNL     1      -3.876  -0.372  -1.594  1.00  0.00    -0.315 OA
BRANCH  11  13
ATOM     13  C   UNL     1      -2.425   1.353  -0.864  1.00  0.00     0.018 A 
ATOM     14  C   UNL     1      -1.699   1.816   0.245  1.00  0.00     0.013 A 
ATOM     15  C   UNL     1      -2.804   2.280  -1.849  1.00  0.00     0.121 A 
ATOM     16  C   UNL     1      -1.348   3.163   0.340  1.00  0.00     0.021 A 
ATOM     17  N   UNL     1      -2.450   3.588  -1.733  1.00  0.00    -0.264 NA
ATOM     18  C   UNL     1      -1.734   4.044  -0.671  1.00  0.00     0.111 A 
ENDBRANCH  11  13
ENDBRANCH  10  11
ENDBRANCH   7  10
TORSDOF 4
