REMARK SMILES Oc1ccc(/N=C/c2ccccn2)cc1
REMARK SMILES IDX 2 1 3 2 4 3 5 4 14 5 15 6 1 7 6 9 7 10 8 11 13 12 9 13 12 14
REMARK SMILES IDX 10 15 11 16
REMARK H PARENT 1 8
ROOT
ATOM      1  C   UNL     1      -1.181  -3.714  -1.915  1.00  0.00     0.115 A 
ATOM      2  C   UNL     1      -0.151  -3.817  -0.976  1.00  0.00     0.048 A 
ATOM      3  C   UNL     1       0.142  -2.741  -0.133  1.00  0.00     0.032 A 
ATOM      4  C   UNL     1      -0.584  -1.545  -0.224  1.00  0.00     0.063 A 
ATOM      5  C   UNL     1      -1.632  -1.450  -1.164  1.00  0.00     0.032 A 
ATOM      6  C   UNL     1      -1.922  -2.529  -2.005  1.00  0.00     0.048 A 
ENDROOT
BRANCH   1   7
ATOM      7  O   UNL     1      -1.462  -4.794  -2.749  1.00  0.00    -0.508 OA
ATOM      8  H   UNL     1      -2.204  -4.751  -3.439  1.00  0.00     0.293 HD
ENDBRANCH   1   7
BRANCH   4   9
ATOM      9  N   UNL     1      -0.243  -0.476   0.676  1.00  0.00    -0.255 NA
BRANCH   9  10
ATOM     10  C   UNL     1      -0.641   0.759   0.598  1.00  0.00     0.140 C 
BRANCH  10  11
ATOM     11  C   UNL     1      -0.220   1.753   1.600  1.00  0.00     0.081 A 
ATOM     12  N   UNL     1      -0.645   3.040   1.468  1.00  0.00    -0.255 NA
ATOM     13  C   UNL     1       0.604   1.407   2.685  1.00  0.00     0.030 A 
ATOM     14  C   UNL     1      -0.297   4.010   2.356  1.00  0.00     0.112 A 
ATOM     15  C   UNL     1       0.972   2.390   3.607  1.00  0.00     0.004 A 
ATOM     16  C   UNL     1       0.521   3.700   3.444  1.00  0.00     0.020 A 
ENDBRANCH  10  11
ENDBRANCH   9  10
ENDBRANCH   4   9
TORSDOF 4
