REMARK SMILES Oc1ccc(/N=C\c2ccccn2)cc1
REMARK SMILES IDX 2 1 3 2 4 3 5 4 14 5 15 6 1 7 6 9 7 10 8 11 13 12 9 13 12 14
REMARK SMILES IDX 10 15 11 16
REMARK H PARENT 1 8
ROOT
ATOM      1  C   UNL     1       0.840   1.339   3.634  1.00  0.00     0.115 A 
ATOM      2  C   UNL     1       0.063   0.349   3.017  1.00  0.00     0.048 A 
ATOM      3  C   UNL     1      -0.219   0.428   1.650  1.00  0.00     0.032 A 
ATOM      4  C   UNL     1       0.296   1.487   0.881  1.00  0.00     0.063 A 
ATOM      5  C   UNL     1       1.044   2.491   1.510  1.00  0.00     0.032 A 
ATOM      6  C   UNL     1       1.324   2.411   2.877  1.00  0.00     0.048 A 
ENDROOT
BRANCH   1   7
ATOM      7  O   UNL     1       1.129   1.271   4.995  1.00  0.00    -0.508 OA
ATOM      8  H   UNL     1       0.791   0.508   5.570  1.00  0.00     0.293 HD
ENDBRANCH   1   7
BRANCH   4   9
ATOM      9  N   UNL     1      -0.007   1.617  -0.517  1.00  0.00    -0.255 NA
BRANCH   9  10
ATOM     10  C   UNL     1      -0.019   0.674  -1.418  1.00  0.00     0.140 C 
BRANCH  10  11
ATOM     11  C   UNL     1       0.462  -0.704  -1.194  1.00  0.00     0.081 A 
ATOM     12  N   UNL     1      -0.228  -1.737  -1.752  1.00  0.00    -0.255 NA
ATOM     13  C   UNL     1       1.651  -0.968  -0.493  1.00  0.00     0.030 A 
ATOM     14  C   UNL     1       0.175  -3.029  -1.617  1.00  0.00     0.112 A 
ATOM     15  C   UNL     1       2.078  -2.289  -0.340  1.00  0.00     0.004 A 
ATOM     16  C   UNL     1       1.334  -3.329  -0.900  1.00  0.00     0.020 A 
ENDBRANCH  10  11
ENDBRANCH   9  10
ENDBRANCH   4   9
TORSDOF 4
