REMARK SMILES [O-]c1ccc(/N=C\c2ccccn2)cc1
REMARK SMILES IDX 6 1 7 2 8 3 13 4 9 5 12 6 10 7 11 8 5 9 4 10 14 11 3 12
REMARK SMILES IDX 15 13 2 14 1 15
REMARK H PARENT
ROOT
ATOM      1  N   UNL     1      -1.846   0.634   1.432  1.00  0.00    -0.255 NA
ENDROOT
BRANCH   1   2
ATOM      2  C   UNL     1      -2.402   0.074   0.394  1.00  0.00     0.140 C 
BRANCH   2   3
ATOM      3  C   UNL     1      -1.660  -0.487  -0.752  1.00  0.00     0.081 A 
ATOM      4  N   UNL     1      -2.107  -1.641  -1.321  1.00  0.00    -0.255 NA
ATOM      5  C   UNL     1      -0.562   0.180  -1.321  1.00  0.00     0.030 A 
ATOM      6  C   UNL     1      -1.495  -2.197  -2.400  1.00  0.00     0.112 A 
ATOM      7  C   UNL     1       0.082  -0.378  -2.427  1.00  0.00     0.004 A 
ATOM      8  C   UNL     1      -0.382  -1.577  -2.970  1.00  0.00     0.020 A 
ENDBRANCH   2   3
ENDBRANCH   1   2
BRANCH   1   9
ATOM      9  C   UNL     1      -0.448   0.673   1.761  1.00  0.00     0.063 A 
ATOM     10  C   UNL     1       0.090   1.846   2.306  1.00  0.00     0.027 A 
ATOM     11  C   UNL     1       0.368  -0.467   1.638  1.00  0.00     0.027 A 
ATOM     12  C   UNL     1       1.439   1.902   2.671  1.00  0.00    -0.006 A 
ATOM     13  C   UNL     1       1.717  -0.409   2.003  1.00  0.00    -0.006 A 
ATOM     14  C   UNL     1       2.254   0.776   2.515  1.00  0.00    -0.109 A 
ATOM     15  O   UNL     1       3.595   0.834   2.876  1.00  0.00    -0.872 OA
ENDBRANCH   1   9
TORSDOF 3
