REMARK SMILES [O-]c1ccc(/N=C/c2ccccn2)cc1
REMARK SMILES IDX 6 1 7 2 8 3 13 4 9 5 12 6 10 7 11 8 5 9 4 10 14 11 3 12
REMARK SMILES IDX 15 13 2 14 1 15
REMARK H PARENT
ROOT
ATOM      1  N   UNL     1      -0.349   0.371   0.246  1.00  0.00    -0.255 NA
ENDROOT
BRANCH   1   2
ATOM      2  C   UNL     1       0.521  -0.234  -0.508  1.00  0.00     0.140 C 
BRANCH   2   3
ATOM      3  C   UNL     1       1.959   0.057  -0.386  1.00  0.00     0.081 A 
ATOM      4  N   UNL     1       2.835  -0.615  -1.184  1.00  0.00    -0.255 NA
ATOM      5  C   UNL     1       2.447   1.007   0.527  1.00  0.00     0.030 A 
ATOM      6  C   UNL     1       4.176  -0.397  -1.125  1.00  0.00     0.112 A 
ATOM      7  C   UNL     1       3.822   1.244   0.601  1.00  0.00     0.004 A 
ATOM      8  C   UNL     1       4.694   0.539  -0.229  1.00  0.00     0.020 A 
ENDBRANCH   2   3
ENDBRANCH   1   2
BRANCH   1   9
ATOM      9  C   UNL     1      -1.775   0.191   0.225  1.00  0.00     0.063 A 
ATOM     10  C   UNL     1      -2.525   0.730   1.280  1.00  0.00     0.027 A 
ATOM     11  C   UNL     1      -2.448  -0.475  -0.822  1.00  0.00     0.027 A 
ATOM     12  C   UNL     1      -3.916   0.593   1.307  1.00  0.00    -0.006 A 
ATOM     13  C   UNL     1      -3.840  -0.609  -0.790  1.00  0.00    -0.006 A 
ATOM     14  C   UNL     1      -4.574  -0.078   0.274  1.00  0.00    -0.109 A 
ATOM     15  O   UNL     1      -5.956  -0.214   0.302  1.00  0.00    -0.872 OA
ENDBRANCH   1   9
TORSDOF 3
