REMARK SMILES CSc1cccc([N-]/C(O)=N\c2ccc(Cl)cc2)c1
REMARK SMILES IDX 9 1 10 2 11 4 12 5 13 6 18 7 14 8 17 9 15 10 16 11 8 12 7 13
REMARK SMILES IDX 6 14 19 15 5 16 3 17 4 18 2 19 1 20
REMARK H PARENT 10 3
ROOT
ATOM      1  C   UNL     1       1.173  -2.010  -0.192  1.00  0.00     0.097 C 
ENDROOT
BRANCH   1   2
ATOM      2  O   UNL     1       0.703  -3.300   0.038  1.00  0.00    -0.515 OA
ATOM      3  H   UNL     1       1.327  -4.098   0.014  1.00  0.00     0.292 HD
ENDBRANCH   1   2
BRANCH   1   4
ATOM      4  N   UNL     1       2.431  -1.839  -0.483  1.00  0.00    -0.405 NA
BRANCH   4   5
ATOM      5  C   UNL     1       3.093  -0.584  -0.712  1.00  0.00    -0.039 A 
ATOM      6  C   UNL     1       4.107  -0.524  -1.677  1.00  0.00     0.005 A 
ATOM      7  C   UNL     1       2.813   0.559   0.062  1.00  0.00     0.005 A 
ATOM      8  C   UNL     1       4.798   0.670  -1.906  1.00  0.00     0.021 A 
ATOM      9  C   UNL     1       3.505   1.752  -0.168  1.00  0.00     0.021 A 
ATOM     10  C   UNL     1       4.493   1.811  -1.156  1.00  0.00     0.041 A 
ATOM     11  Cl  UNL     1       5.362   3.308  -1.441  1.00  0.00    -0.084 Cl
ENDBRANCH   4   5
ENDBRANCH   1   4
BRANCH   1  12
ATOM     12  N   UNL     1       0.262  -0.902  -0.186  1.00  0.00    -0.405 NA
BRANCH  12  13
ATOM     13  C   UNL     1      -1.057  -0.893   0.378  1.00  0.00    -0.038 A 
ATOM     14  C   UNL     1      -1.419  -1.742   1.440  1.00  0.00     0.004 A 
ATOM     15  C   UNL     1      -1.987   0.038  -0.104  1.00  0.00     0.018 A 
ATOM     16  C   UNL     1      -2.708  -1.682   1.979  1.00  0.00     0.001 A 
ATOM     17  C   UNL     1      -3.276   0.099   0.439  1.00  0.00     0.007 A 
ATOM     18  C   UNL     1      -3.638  -0.769   1.475  1.00  0.00     0.015 A 
BRANCH  17  19
ATOM     19  S   UNL     1      -4.464   1.281  -0.199  1.00  0.00    -0.130 SA
ATOM     20  C   UNL     1      -3.976   2.587   0.971  1.00  0.00     0.091 C 
ENDBRANCH  17  19
ENDBRANCH  12  13
ENDBRANCH   1  12
TORSDOF 6
