REMARK SMILES CSc1cccc([N-]/C(O)=N/c2ccc(Cl)cc2)c1
REMARK SMILES IDX 9 1 10 2 11 4 12 5 13 6 18 7 14 8 17 9 15 10 16 11 8 12 7 13
REMARK SMILES IDX 6 14 19 15 5 16 3 17 4 18 2 19 1 20
REMARK H PARENT 10 3
ROOT
ATOM      1  C   UNL     1       0.766   0.385   0.179  1.00  0.00     0.097 C 
ENDROOT
BRANCH   1   2
ATOM      2  O   UNL     1       0.934  -0.590  -0.809  1.00  0.00    -0.515 OA
ATOM      3  H   UNL     1       1.709  -0.593  -1.459  1.00  0.00     0.292 HD
ENDBRANCH   1   2
BRANCH   1   4
ATOM      4  N   UNL     1       1.517   1.448   0.229  1.00  0.00    -0.405 NA
BRANCH   4   5
ATOM      5  C   UNL     1       2.475   1.865  -0.753  1.00  0.00    -0.039 A 
ATOM      6  C   UNL     1       2.150   1.903  -2.122  1.00  0.00     0.005 A 
ATOM      7  C   UNL     1       3.717   2.354  -0.329  1.00  0.00     0.005 A 
ATOM      8  C   UNL     1       3.083   2.368  -3.054  1.00  0.00     0.021 A 
ATOM      9  C   UNL     1       4.649   2.819  -1.263  1.00  0.00     0.021 A 
ATOM     10  C   UNL     1       4.335   2.822  -2.626  1.00  0.00     0.041 A 
ATOM     11  Cl  UNL     1       5.503   3.409  -3.795  1.00  0.00    -0.084 Cl
ENDBRANCH   4   5
ENDBRANCH   1   4
BRANCH   1  12
ATOM     12  N   UNL     1      -0.203   0.187   1.213  1.00  0.00    -0.405 NA
BRANCH  12  13
ATOM     13  C   UNL     1      -1.285  -0.754   1.187  1.00  0.00    -0.038 A 
ATOM     14  C   UNL     1      -1.871  -1.181  -0.019  1.00  0.00     0.004 A 
ATOM     15  C   UNL     1      -1.811  -1.209   2.404  1.00  0.00     0.018 A 
ATOM     16  C   UNL     1      -2.941  -2.081  -0.000  1.00  0.00     0.001 A 
ATOM     17  C   UNL     1      -2.879  -2.114   2.420  1.00  0.00     0.007 A 
ATOM     18  C   UNL     1      -3.442  -2.550   1.216  1.00  0.00     0.015 A 
BRANCH  17  19
ATOM     19  S   UNL     1      -3.535  -2.701   3.984  1.00  0.00    -0.130 SA
ATOM     20  C   UNL     1      -2.410  -4.129   4.058  1.00  0.00     0.091 C 
ENDBRANCH  17  19
ENDBRANCH  12  13
ENDBRANCH   1  12
TORSDOF 6
