REMARK SMILES O/C(=N\CCOc1ccc2ccc(Cl)cc2c1)c1ccccn1
REMARK SMILES IDX 4 1 3 2 2 3 1 4 18 6 23 7 19 8 22 9 20 10 21 11 5 12 6 13
REMARK SMILES IDX 7 14 8 15 17 16 9 17 16 18 10 19 15 20 11 21 13 22 12 23
REMARK SMILES IDX 14 24
REMARK H PARENT 1 5
ROOT
ATOM      1  C   UNL     1       0.019  -0.194  -3.649  1.00  0.00     0.188 C 
ENDROOT
BRANCH   1   2
ATOM      2  N   UNL     1       0.933  -0.318  -2.517  1.00  0.00    -0.246 NA
BRANCH   2   3
ATOM      3  C   UNL     1       1.219  -1.441  -1.918  1.00  0.00     0.232 C 
BRANCH   3   4
ATOM      4  O   UNL     1       0.691  -2.661  -2.359  1.00  0.00    -0.492 OA
ATOM      5  H   UNL     1       0.111  -2.750  -3.182  1.00  0.00     0.295 HD
ENDBRANCH   3   4
BRANCH   3   6
ATOM      6  C   UNL     1       2.098  -1.453  -0.730  1.00  0.00     0.124 A 
ATOM      7  N   UNL     1       2.269  -2.623  -0.050  1.00  0.00    -0.251 NA
ATOM      8  C   UNL     1       2.749  -0.291  -0.274  1.00  0.00     0.034 A 
ATOM      9  C   UNL     1       3.054  -2.708   1.057  1.00  0.00     0.112 A 
ATOM     10  C   UNL     1       3.565  -0.361   0.859  1.00  0.00     0.004 A 
ATOM     11  C   UNL     1       3.720  -1.575   1.531  1.00  0.00     0.020 A 
ENDBRANCH   3   6
ENDBRANCH   2   3
ENDBRANCH   1   2
BRANCH   1  12
ATOM     12  C   UNL     1      -0.196   1.280  -4.021  1.00  0.00     0.253 C 
BRANCH  12  13
ATOM     13  O   UNL     1      -0.060   2.151  -2.898  1.00  0.00    -0.492 OA
BRANCH  13  14
ATOM     14  C   UNL     1      -0.910   2.194  -1.783  1.00  0.00     0.120 A 
ATOM     15  C   UNL     1      -0.515   2.970  -0.686  1.00  0.00     0.047 A 
ATOM     16  C   UNL     1      -2.122   1.482  -1.722  1.00  0.00     0.055 A 
ATOM     17  C   UNL     1      -1.290   3.015   0.476  1.00  0.00     0.012 A 
ATOM     18  C   UNL     1      -2.894   1.494  -0.547  1.00  0.00    -0.013 A 
ATOM     19  C   UNL     1      -2.470   2.261   0.565  1.00  0.00    -0.018 A 
ATOM     20  C   UNL     1      -4.079   0.744  -0.461  1.00  0.00     0.029 A 
ATOM     21  C   UNL     1      -3.235   2.263   1.742  1.00  0.00     0.010 A 
ATOM     22  C   UNL     1      -4.833   0.755   0.717  1.00  0.00     0.041 A 
ATOM     23  C   UNL     1      -4.412   1.513   1.814  1.00  0.00     0.021 A 
ATOM     24  Cl  UNL     1      -6.317  -0.175   0.814  1.00  0.00    -0.084 Cl
ENDBRANCH  13  14
ENDBRANCH  12  13
ENDBRANCH   1  12
TORSDOF 7
