REMARK SMILES O=C(NCCOc1ccc2ccc(Cl)cc2c1)c1ccccn1
REMARK SMILES IDX 5 1 4 2 3 3 2 4 1 5 18 7 19 8 23 9 20 10 22 11 21 12 6 13
REMARK SMILES IDX 7 14 8 15 17 16 9 17 16 18 10 19 15 20 11 21 13 22 12 23
REMARK SMILES IDX 14 24
REMARK H PARENT 3 6
ROOT
ATOM      1  C   UNL     1       0.052  -2.641   0.623  1.00  0.00     0.250 C 
ENDROOT
BRANCH   1   2
ATOM      2  C   UNL     1      -1.175  -1.744   0.426  1.00  0.00     0.157 C 
BRANCH   2   3
ATOM      3  N   UNL     1      -1.062  -0.951  -0.799  1.00  0.00    -0.347 N 
ATOM      4  C   UNL     1      -2.084  -0.016  -1.178  1.00  0.00     0.269 C 
ATOM      5  O   UNL     1      -3.111   0.113  -0.456  1.00  0.00    -0.268 OA
ATOM      6  H   UNL     1      -0.219  -1.061  -1.407  1.00  0.00     0.164 HD
BRANCH   4   7
ATOM      7  C   UNL     1      -1.943   0.796  -2.407  1.00  0.00     0.128 A 
ATOM      8  C   UNL     1      -2.940   1.711  -2.789  1.00  0.00     0.034 A 
ATOM      9  N   UNL     1      -0.831   0.662  -3.183  1.00  0.00    -0.251 NA
ATOM     10  C   UNL     1      -2.773   2.462  -3.955  1.00  0.00     0.004 A 
ATOM     11  C   UNL     1      -0.651   1.385  -4.321  1.00  0.00     0.112 A 
ATOM     12  C   UNL     1      -1.622   2.301  -4.727  1.00  0.00     0.020 A 
ENDBRANCH   4   7
ENDBRANCH   2   3
ENDBRANCH   1   2
BRANCH   1  13
ATOM     13  O   UNL     1       1.248  -1.864   0.706  1.00  0.00    -0.492 OA
BRANCH  13  14
ATOM     14  C   UNL     1       1.640  -1.079   1.803  1.00  0.00     0.120 A 
ATOM     15  C   UNL     1       2.768  -0.263   1.655  1.00  0.00     0.047 A 
ATOM     16  C   UNL     1       0.953  -1.088   3.033  1.00  0.00     0.055 A 
ATOM     17  C   UNL     1       3.210   0.545   2.705  1.00  0.00     0.012 A 
ATOM     18  C   UNL     1       1.389  -0.279   4.095  1.00  0.00    -0.013 A 
ATOM     19  C   UNL     1       2.527   0.545   3.929  1.00  0.00    -0.018 A 
ATOM     20  C   UNL     1       0.706  -0.280   5.321  1.00  0.00     0.029 A 
ATOM     21  C   UNL     1       2.961   1.354   4.990  1.00  0.00     0.010 A 
ATOM     22  C   UNL     1       1.148   0.530   6.373  1.00  0.00     0.041 A 
ATOM     23  C   UNL     1       2.273   1.344   6.207  1.00  0.00     0.021 A 
ATOM     24  Cl  UNL     1       0.290   0.525   7.903  1.00  0.00    -0.084 Cl
ENDBRANCH  13  14
ENDBRANCH   1  13
TORSDOF 5
