REMARK SMILES O=C([N-]CCOc1ccc2ccc(Cl)cc2c1)c1ccccn1
REMARK SMILES IDX 4 1 3 2 2 3 1 4 18 5 19 6 23 7 20 8 22 9 21 10 5 11 6 12
REMARK SMILES IDX 7 13 8 14 17 15 9 16 16 17 10 18 15 19 11 20 13 21 12 22
REMARK SMILES IDX 14 23
REMARK H PARENT
ROOT
ATOM      1  C   UNL     1       2.861  -2.140   0.693  1.00  0.00    -0.075 C 
ENDROOT
BRANCH   1   2
ATOM      2  N   UNL     1       4.135  -1.460   0.923  1.00  0.00    -0.645 NA
BRANCH   2   3
ATOM      3  C   UNL     1       4.358  -0.375   1.836  1.00  0.00     0.101 C 
ATOM      4  O   UNL     1       5.389   0.333   1.692  1.00  0.00    -0.313 OA
BRANCH   3   5
ATOM      5  C   UNL     1       3.413  -0.041   2.916  1.00  0.00     0.088 A 
ATOM      6  C   UNL     1       2.948  -1.023   3.804  1.00  0.00     0.030 A 
ATOM      7  N   UNL     1       3.030   1.254   3.088  1.00  0.00    -0.255 NA
ATOM      8  C   UNL     1       2.065  -0.662   4.823  1.00  0.00     0.004 A 
ATOM      9  C   UNL     1       2.173   1.626   4.076  1.00  0.00     0.112 A 
ATOM     10  C   UNL     1       1.669   0.669   4.960  1.00  0.00     0.020 A 
ENDBRANCH   3   5
ENDBRANCH   2   3
ENDBRANCH   1   2
BRANCH   1  11
ATOM     11  C   UNL     1       1.838  -1.187   0.082  1.00  0.00     0.210 C 
BRANCH  11  12
ATOM     12  O   UNL     1       0.621  -1.890  -0.153  1.00  0.00    -0.495 OA
BRANCH  12  13
ATOM     13  C   UNL     1      -0.554  -1.302  -0.643  1.00  0.00     0.119 A 
ATOM     14  C   UNL     1      -1.696  -2.102  -0.761  1.00  0.00     0.047 A 
ATOM     15  C   UNL     1      -0.620   0.055  -1.016  1.00  0.00     0.055 A 
ATOM     16  C   UNL     1      -2.897  -1.569  -1.235  1.00  0.00     0.012 A 
ATOM     17  C   UNL     1      -1.821   0.601  -1.495  1.00  0.00    -0.013 A 
ATOM     18  C   UNL     1      -2.970  -0.218  -1.604  1.00  0.00    -0.018 A 
ATOM     19  C   UNL     1      -1.895   1.952  -1.870  1.00  0.00     0.029 A 
ATOM     20  C   UNL     1      -4.172   0.329  -2.078  1.00  0.00     0.010 A 
ATOM     21  C   UNL     1      -3.099   2.486  -2.342  1.00  0.00     0.041 A 
ATOM     22  C   UNL     1      -4.234   1.676  -2.444  1.00  0.00     0.021 A 
ATOM     23  Cl  UNL     1      -3.184   4.175  -2.809  1.00  0.00    -0.084 Cl
ENDBRANCH  12  13
ENDBRANCH  11  12
ENDBRANCH   1  11
TORSDOF 6
