REMARK SMILES O/C(=N/CCOc1ccc2ccc(Cl)cc2c1)c1ccccn1
REMARK SMILES IDX 4 1 3 2 2 3 1 4 18 6 23 7 19 8 22 9 20 10 21 11 5 12 6 13
REMARK SMILES IDX 7 14 8 15 17 16 9 17 16 18 10 19 15 20 11 21 13 22 12 23
REMARK SMILES IDX 14 24
REMARK H PARENT 1 5
ROOT
ATOM      1  C   UNL     1       1.114   1.467  -1.349  1.00  0.00     0.188 C 
ENDROOT
BRANCH   1   2
ATOM      2  N   UNL     1       1.431   2.074  -0.058  1.00  0.00    -0.246 NA
BRANCH   2   3
ATOM      3  C   UNL     1       0.682   2.916   0.596  1.00  0.00     0.232 C 
BRANCH   3   4
ATOM      4  O   UNL     1       1.156   3.463   1.785  1.00  0.00    -0.492 OA
ATOM      5  H   UNL     1       2.065   3.207   2.154  1.00  0.00     0.295 HD
ENDBRANCH   3   4
BRANCH   3   6
ATOM      6  C   UNL     1      -0.640   3.352   0.110  1.00  0.00     0.124 A 
ATOM      7  N   UNL     1      -0.875   4.681  -0.063  1.00  0.00    -0.251 NA
ATOM      8  C   UNL     1      -1.678   2.432  -0.106  1.00  0.00     0.034 A 
ATOM      9  C   UNL     1      -2.082   5.150  -0.479  1.00  0.00     0.112 A 
ATOM     10  C   UNL     1      -2.923   2.894  -0.537  1.00  0.00     0.004 A 
ATOM     11  C   UNL     1      -3.129   4.260  -0.730  1.00  0.00     0.020 A 
ENDBRANCH   3   6
ENDBRANCH   2   3
ENDBRANCH   1   2
BRANCH   1  12
ATOM     12  C   UNL     1       2.332   0.707  -1.875  1.00  0.00     0.253 C 
BRANCH  12  13
ATOM     13  O   UNL     1       2.734  -0.313  -0.959  1.00  0.00    -0.492 OA
BRANCH  13  14
ATOM     14  C   UNL     1       2.066  -1.529  -0.743  1.00  0.00     0.120 A 
ATOM     15  C   UNL     1       0.981  -1.953  -1.535  1.00  0.00     0.047 A 
ATOM     16  C   UNL     1       2.513  -2.348   0.301  1.00  0.00     0.055 A 
ATOM     17  C   UNL     1       0.348  -3.172  -1.276  1.00  0.00     0.012 A 
ATOM     18  C   UNL     1       1.885  -3.574   0.568  1.00  0.00    -0.013 A 
ATOM     19  C   UNL     1       0.791  -3.989  -0.227  1.00  0.00    -0.018 A 
ATOM     20  C   UNL     1       2.331  -4.393   1.618  1.00  0.00     0.029 A 
ATOM     21  C   UNL     1       0.163  -5.215   0.041  1.00  0.00     0.010 A 
ATOM     22  C   UNL     1       1.697  -5.613   1.875  1.00  0.00     0.041 A 
ATOM     23  C   UNL     1       0.615  -6.022   1.088  1.00  0.00     0.021 A 
ATOM     24  Cl  UNL     1       2.260  -6.633   3.187  1.00  0.00    -0.084 Cl
ENDBRANCH  13  14
ENDBRANCH  12  13
ENDBRANCH   1  12
TORSDOF 7
