AutoDock-GPU version: v1.6

**********************************************************
**    AutoDock-GPU AUTODOCKTOOLS-COMPATIBLE DLG FILE    **
**********************************************************


    DOCKING PARAMETERS
    ________________________


Ligand file:                               /home/a/REINVENT4/ReinventStudies/pleaseWork/justmol2mol_4_Compounds_ontop/graph-dock-amy28i/graph-DockGPU/node-autodockgpu/inputs/AOVBZTFZZBPAMM-KLFDUCQCNA-N.pdbqt
Grid fld file:                             /home/a/REINVENT4/ReinventStudies/mols/Rad51/maps/rad51_receptor.maps.fld

Random seed:                               42
Number of runs:                            20
Number of energy evaluations:              1132076
Number of generations:                     42000
Size of population:                        150
Rate of crossover:                         80.000000%
Tournament selection probability limit:    60.000000%
Rate of mutation:                          2.000000%
Maximal allowed delta movement:            +/- 6.000000A
Maximal allowed delta angle:               +/- 90.000000

Rate of local search:                      100.000000%
Maximal number of local search iterations: 300
Rho lower bound:                           0.010000
Spread of local search delta movement:     2.000000A
Spread of local search delta angle:        74.999999
Limit of consecutive successes/failures:   4

Handle symmetry during clustering:         YES
RMSD tolerance:                            2.000000A

Program call in command line was:          /home/a/REINVENT4/ReinventStudies/adgpu-v1.6_linux_x64_cuda12_128wi --filelist batch.txt --heuristics 1 --nrun 20 --psize 150 --lsit 300 --seed 42 --heurmax 12000000 


    GRID PARAMETERS
    ________________________


Receptor name:                             rad51_receptor
Number of grid points (x, y, z):           53, 53, 53
Grid center (x, y, z):                     139.950000, 75.640000, 221.970000A
Grid size (x, y, z):                       19.500000, 19.500000, 19.500000A
Grid spacing:                              0.375000A


    LIGAND PARAMETERS
    ________________________


Ligand name:                               /home/a/REINVENT4/ReinventStudies/pleaseWork/justmol2mol_4_Compounds_ontop/graph-dock-amy28i/graph-DockGPU/node-autodockgpu/inputs/AOVBZTFZZBPAMM-KLFDUCQCNA-N
Number of atoms:                           30
Number of rotatable bonds:                 5
Number of atom types:                      8


    DUMMY DATA (only for ADT-compatibility)
    ________________________


DPF> outlev 1
DPF> ga_run 20
DPF> fld /home/a/REINVENT4/ReinventStudies/mols/Rad51/maps/rad51_receptor.maps.fld
DPF> move /home/a/REINVENT4/ReinventStudies/pleaseWork/justmol2mol_4_Compounds_ontop/graph-dock-amy28i/graph-DockGPU/node-autodockgpu/inputs/AOVBZTFZZBPAMM-KLFDUCQCNA-N.pdbqt


    COUNTER STATES
    ________________________


Number of energy evaluations performed:    1056280
Number of generations used:                55


    INPUT LIGAND PDBQT FILE:
    ________________________


INPUT-LIGAND-PDBQT: REMARK SMILES O=C(NCC(=O)N1CCC[C@@H]1c1ccc(Cl)cc1)c1ccc2cc(F)ccc2n1
INPUT-LIGAND-PDBQT: REMARK SMILES IDX 4 1 3 2 2 3 1 4 19 6 20 7 29 8 21 9 28 10 22 11 27 12 23 13
INPUT-LIGAND-PDBQT: REMARK SMILES IDX 26 14 24 15 25 16 5 17 6 18 7 19 8 20 11 21 9 22 10 23 12 24
INPUT-LIGAND-PDBQT: REMARK SMILES IDX 13 25 18 26 14 27 17 28 15 29 16 30
INPUT-LIGAND-PDBQT: REMARK H PARENT 3 5
INPUT-LIGAND-PDBQT: ROOT
INPUT-LIGAND-PDBQT: ATOM      1  C   UNL     1      -0.381   0.082   0.972  1.00  0.00     0.216 C 
INPUT-LIGAND-PDBQT: ENDROOT
INPUT-LIGAND-PDBQT: BRANCH   1   2
INPUT-LIGAND-PDBQT: ATOM      2  N   UNL     1       1.034   0.300   0.711  1.00  0.00    -0.342 N 
INPUT-LIGAND-PDBQT: ATOM      3  C   UNL     1       1.864  -0.811   0.453  1.00  0.00     0.270 C 
INPUT-LIGAND-PDBQT: ATOM      4  O   UNL     1       1.423  -2.007   0.440  1.00  0.00    -0.268 OA
INPUT-LIGAND-PDBQT: ATOM      5  H   UNL     1       1.406   1.283   0.720  1.00  0.00     0.164 HD
INPUT-LIGAND-PDBQT: BRANCH   3   6
INPUT-LIGAND-PDBQT: ATOM      6  C   UNL     1       3.288  -0.598   0.190  1.00  0.00     0.128 A 
INPUT-LIGAND-PDBQT: ATOM      7  C   UNL     1       4.133  -1.659  -0.066  1.00  0.00     0.035 A 
INPUT-LIGAND-PDBQT: ATOM      8  N   UNL     1       3.843   0.629   0.184  1.00  0.00    -0.243 NA
INPUT-LIGAND-PDBQT: ATOM      9  C   UNL     1       5.477  -1.515  -0.319  1.00  0.00     0.013 A 
INPUT-LIGAND-PDBQT: ATOM     10  C   UNL     1       5.172   0.821  -0.063  1.00  0.00     0.071 A 
INPUT-LIGAND-PDBQT: ATOM     11  C   UNL     1       6.013  -0.245  -0.318  1.00  0.00     0.003 A 
INPUT-LIGAND-PDBQT: ATOM     12  C   UNL     1       5.721   2.090  -0.064  1.00  0.00     0.032 A 
INPUT-LIGAND-PDBQT: ATOM     13  C   UNL     1       7.362  -0.097  -0.572  1.00  0.00     0.049 A 
INPUT-LIGAND-PDBQT: ATOM     14  C   UNL     1       7.069   2.233  -0.319  1.00  0.00     0.041 A 
INPUT-LIGAND-PDBQT: ATOM     15  C   UNL     1       7.911   1.171  -0.574  1.00  0.00     0.123 A 
INPUT-LIGAND-PDBQT: ATOM     16  F   UNL     1       9.234   1.309  -0.824  1.00  0.00    -0.207 F 
INPUT-LIGAND-PDBQT: ENDBRANCH   3   6
INPUT-LIGAND-PDBQT: ENDBRANCH   1   2
INPUT-LIGAND-PDBQT: BRANCH   1  17
INPUT-LIGAND-PDBQT: ATOM     17  C   UNL     1      -0.995  -0.580  -0.201  1.00  0.00     0.242 C 
INPUT-LIGAND-PDBQT: ATOM     18  O   UNL     1      -0.286  -0.856  -1.203  1.00  0.00    -0.273 OA
INPUT-LIGAND-PDBQT: BRANCH  17  19
INPUT-LIGAND-PDBQT: ATOM     19  N   UNL     1      -2.363  -0.928  -0.261  1.00  0.00    -0.334 N 
INPUT-LIGAND-PDBQT: ATOM     20  C   UNL     1      -3.107  -1.594  -1.332  1.00  0.00     0.120 C 
INPUT-LIGAND-PDBQT: ATOM     21  C   UNL     1      -3.414  -0.710   0.759  1.00  0.00     0.115 C 
INPUT-LIGAND-PDBQT: ATOM     22  C   UNL     1      -3.740  -2.712  -0.532  1.00  0.00     0.024 C 
INPUT-LIGAND-PDBQT: ATOM     23  C   UNL     1      -4.147  -2.031   0.751  1.00  0.00     0.032 C 
INPUT-LIGAND-PDBQT: BRANCH  21  24
INPUT-LIGAND-PDBQT: ATOM     24  C   UNL     1      -4.224   0.453   0.409  1.00  0.00    -0.025 A 
INPUT-LIGAND-PDBQT: ATOM     25  C   UNL     1      -5.577   0.574   0.540  1.00  0.00     0.007 A 
INPUT-LIGAND-PDBQT: ATOM     26  C   UNL     1      -3.557   1.564  -0.127  1.00  0.00     0.007 A 
INPUT-LIGAND-PDBQT: ATOM     27  C   UNL     1      -6.286   1.714   0.174  1.00  0.00     0.021 A 
INPUT-LIGAND-PDBQT: ATOM     28  C   UNL     1      -4.266   2.709  -0.494  1.00  0.00     0.021 A 
INPUT-LIGAND-PDBQT: ATOM     29  C   UNL     1      -5.629   2.805  -0.353  1.00  0.00     0.041 A 
INPUT-LIGAND-PDBQT: ATOM     30  Cl  UNL     1      -6.552   4.219  -0.800  1.00  0.00    -0.084 Cl
INPUT-LIGAND-PDBQT: ENDBRANCH  21  24
INPUT-LIGAND-PDBQT: ENDBRANCH  17  19
INPUT-LIGAND-PDBQT: ENDBRANCH   1  17
INPUT-LIGAND-PDBQT: TORSDOF 5


    FINAL DOCKED STATE:
    ________________________


Run:   1 / 20
Time taken for this run:   0.043s

DOCKED: MODEL        1
DOCKED: USER    Run = 1
DOCKED: USER
DOCKED: USER    Estimated Free Energy of Binding    =  -8.08 kcal/mol  [=(1)+(2)+(3)-(4)]
DOCKED: USER
DOCKED: USER    (1) Final Intermolecular Energy     =  -9.57 kcal/mol
DOCKED: USER        vdW + Hbond + desolv Energy     =  -9.54 kcal/mol
DOCKED: USER        Electrostatic Energy            =  -0.04 kcal/mol
DOCKED: USER        Moving Ligand-Fixed Receptor    =  -9.57 kcal/mol
DOCKED: USER        Moving Ligand-Moving Receptor   =  +0.00 kcal/mol
DOCKED: USER    (2) Final Total Internal Energy     =  -1.80 kcal/mol
DOCKED: USER    (3) Torsional Free Energy           =  +1.49 kcal/mol
DOCKED: USER    (4) Unbound System's Energy         =  -1.80 kcal/mol
DOCKED: USER
DOCKED: USER
DOCKED: REMARK SMILES O=C(NCC(=O)N1CCC[C@@H]1c1ccc(Cl)cc1)c1ccc2cc(F)ccc2n1
DOCKED: REMARK SMILES IDX 4 1 3 2 2 3 1 4 19 6 20 7 29 8 21 9 28 10 22 11 27 12 23 13
DOCKED: REMARK SMILES IDX 26 14 24 15 25 16 5 17 6 18 7 19 8 20 11 21 9 22 10 23 12 24
DOCKED: REMARK SMILES IDX 13 25 18 26 14 27 17 28 15 29 16 30
DOCKED: REMARK H PARENT 3 5
DOCKED: USER                              x       y       z     vdW  Elec       q    Type
DOCKED: USER                           _______ _______ _______ _____ _____    ______ ____
DOCKED: ROOT
DOCKED: ATOM      1  C   UNL     1     139.717  72.174 222.405 -0.22 -0.04    +0.216 C  
DOCKED: ENDROOT
DOCKED: BRANCH   1   2
DOCKED: ATOM      2  N   UNL     1     139.894  73.615 222.301 -0.11 +0.03    -0.342 N  
DOCKED: ATOM      3  C   UNL     1     141.005  74.123 221.596 -0.17 -0.03    +0.270 C  
DOCKED: ATOM      4  O   UNL     1     141.868  73.366 221.042 -0.20 +0.04    -0.268 OA 
DOCKED: ATOM      5  H   UNL     1     139.187  74.247 222.755 -0.52 -0.05    +0.164 HD 
DOCKED: BRANCH   3   6
DOCKED: ATOM      6  C   UNL     1     141.188  75.571 221.489 -0.28 -0.04    +0.128 A  
DOCKED: ATOM      7  C   UNL     1     141.674  76.145 220.332 -0.26 -0.02    +0.035 A  
DOCKED: ATOM      8  N   UNL     1     140.895  76.410 222.501 -0.26 +0.07    -0.243 NA 
DOCKED: ATOM      9  C   UNL     1     141.865  77.499 220.179 -0.30 -0.01    +0.013 A  
DOCKED: ATOM     10  C   UNL     1     141.067  77.760 222.395 -0.41 -0.03    +0.071 A  
DOCKED: ATOM     11  C   UNL     1     141.555  78.329 221.234 -0.36 -0.00    +0.003 A  
DOCKED: ATOM     12  C   UNL     1     140.761  78.603 223.447 -0.42 -0.01    +0.032 A  
DOCKED: ATOM     13  C   UNL     1     141.745  79.688 221.083 -0.35 -0.02    +0.049 A  
DOCKED: ATOM     14  C   UNL     1     140.951  79.960 223.291 -0.48 -0.01    +0.041 A  
DOCKED: ATOM     15  C   UNL     1     141.438  80.531 222.134 -0.37 -0.03    +0.123 A  
DOCKED: ATOM     16  F   UNL     1     141.626  81.863 221.979 -0.13 +0.04    -0.207 F  
DOCKED: ENDBRANCH   3   6
DOCKED: ENDBRANCH   1   2
DOCKED: BRANCH   1  17
DOCKED: ATOM     17  C   UNL     1     138.314  71.882 222.774 -0.12 -0.07    +0.242 C  
DOCKED: ATOM     18  O   UNL     1     137.440  72.780 222.663 -0.09 +0.10    -0.273 OA 
DOCKED: BRANCH  17  19
DOCKED: ATOM     19  N   UNL     1     137.890  70.623 223.255 -0.08 +0.06    -0.334 N  
DOCKED: ATOM     20  C   UNL     1     136.627  70.249 223.895 -0.18 -0.02    +0.120 C  
DOCKED: ATOM     21  C   UNL     1     138.622  69.336 223.235 -0.21 -0.02    +0.115 C  
DOCKED: ATOM     22  C   UNL     1     136.241  69.082 223.011 -0.15 -0.00    +0.024 C  
DOCKED: ATOM     23  C   UNL     1     137.551  68.366 222.794 -0.18 -0.00    +0.032 C  
DOCKED: BRANCH  21  24
DOCKED: ATOM     24  C   UNL     1     139.205  69.065 224.546 -0.35 +0.00    -0.025 A  
DOCKED: ATOM     25  C   UNL     1     139.247  67.862 225.187 -0.43 -0.00    +0.007 A  
DOCKED: ATOM     26  C   UNL     1     139.776  70.147 225.232 -0.44 -0.00    +0.007 A  
DOCKED: ATOM     27  C   UNL     1     139.812  67.680 226.446 -0.64 -0.00    +0.021 A  
DOCKED: ATOM     28  C   UNL     1     140.344  69.967 226.494 -0.53 -0.00    +0.021 A  
DOCKED: ATOM     29  C   UNL     1     140.373  68.744 227.119 -0.60 -0.01    +0.041 A  
DOCKED: ATOM     30  Cl  UNL     1     141.074  68.479 228.696 -0.71 +0.02    -0.084 Cl 
DOCKED: ENDBRANCH  21  24
DOCKED: ENDBRANCH  17  19
DOCKED: ENDBRANCH   1  17
DOCKED: TORSDOF 5
DOCKED: TER
DOCKED: ENDMDL
________________________________________________________________________________


    FINAL DOCKED STATE:
    ________________________


Run:   2 / 20
Time taken for this run:   0.043s

DOCKED: MODEL        2
DOCKED: USER    Run = 2
DOCKED: USER
DOCKED: USER    Estimated Free Energy of Binding    =  -8.09 kcal/mol  [=(1)+(2)+(3)-(4)]
DOCKED: USER
DOCKED: USER    (1) Final Intermolecular Energy     =  -9.58 kcal/mol
DOCKED: USER        vdW + Hbond + desolv Energy     =  -9.55 kcal/mol
DOCKED: USER        Electrostatic Energy            =  -0.03 kcal/mol
DOCKED: USER        Moving Ligand-Fixed Receptor    =  -9.58 kcal/mol
DOCKED: USER        Moving Ligand-Moving Receptor   =  +0.00 kcal/mol
DOCKED: USER    (2) Final Total Internal Energy     =  -1.85 kcal/mol
DOCKED: USER    (3) Torsional Free Energy           =  +1.49 kcal/mol
DOCKED: USER    (4) Unbound System's Energy         =  -1.85 kcal/mol
DOCKED: USER
DOCKED: USER
DOCKED: REMARK SMILES O=C(NCC(=O)N1CCC[C@@H]1c1ccc(Cl)cc1)c1ccc2cc(F)ccc2n1
DOCKED: REMARK SMILES IDX 4 1 3 2 2 3 1 4 19 6 20 7 29 8 21 9 28 10 22 11 27 12 23 13
DOCKED: REMARK SMILES IDX 26 14 24 15 25 16 5 17 6 18 7 19 8 20 11 21 9 22 10 23 12 24
DOCKED: REMARK SMILES IDX 13 25 18 26 14 27 17 28 15 29 16 30
DOCKED: REMARK H PARENT 3 5
DOCKED: USER                              x       y       z     vdW  Elec       q    Type
DOCKED: USER                           _______ _______ _______ _____ _____    ______ ____
DOCKED: ROOT
DOCKED: ATOM      1  C   UNL     1     138.560  73.677 221.917 -0.11 -0.06    +0.216 C  
DOCKED: ENDROOT
DOCKED: BRANCH   1   2
DOCKED: ATOM      2  N   UNL     1     139.182  74.935 222.304 -0.14 +0.07    -0.342 N  
DOCKED: ATOM      3  C   UNL     1     138.406  76.113 222.304 -0.20 -0.06    +0.270 C  
DOCKED: ATOM      4  O   UNL     1     137.174  76.122 221.976 -0.12 +0.06    -0.268 OA 
DOCKED: ATOM      5  H   UNL     1     140.197  74.936 222.576 -0.00 +0.02    +0.164 HD 
DOCKED: BRANCH   3   6
DOCKED: ATOM      6  C   UNL     1     139.026  77.381 222.692 -0.24 -0.02    +0.128 A  
DOCKED: ATOM      7  C   UNL     1     138.259  78.472 223.044 -0.23 -0.01    +0.035 A  
DOCKED: ATOM      8  N   UNL     1     140.362  77.548 222.726 -0.24 +0.06    -0.243 NA 
DOCKED: ATOM      9  C   UNL     1     138.789  79.685 223.417 -0.36 -0.00    +0.013 A  
DOCKED: ATOM     10  C   UNL     1     140.934  78.733 223.090 -0.46 -0.02    +0.071 A  
DOCKED: ATOM     11  C   UNL     1     140.161  79.822 223.441 -0.46 -0.00    +0.003 A  
DOCKED: ATOM     12  C   UNL     1     142.309  78.882 223.117 -0.44 -0.01    +0.032 A  
DOCKED: ATOM     13  C   UNL     1     140.697  81.039 223.814 -0.33 -0.01    +0.049 A  
DOCKED: ATOM     14  C   UNL     1     142.840  80.099 223.492 -0.62 -0.01    +0.041 A  
DOCKED: ATOM     15  C   UNL     1     142.070  81.188 223.843 -0.53 -0.02    +0.123 A  
DOCKED: ATOM     16  F   UNL     1     142.589  82.383 224.210 -0.07 +0.00    -0.207 F  
DOCKED: ENDBRANCH   3   6
DOCKED: ENDBRANCH   1   2
DOCKED: BRANCH   1  17
DOCKED: ATOM     17  C   UNL     1     139.277  72.559 222.570 -0.08 -0.06    +0.242 C  
DOCKED: ATOM     18  O   UNL     1     140.502  72.672 222.831 -0.56 +0.01    -0.273 OA 
DOCKED: BRANCH  17  19
DOCKED: ATOM     19  N   UNL     1     138.649  71.344 222.927 -0.10 +0.08    -0.334 N  
DOCKED: ATOM     20  C   UNL     1     137.281  71.105 223.390 -0.17 -0.03    +0.120 C  
DOCKED: ATOM     21  C   UNL     1     139.219  69.978 222.920 -0.19 -0.02    +0.115 C  
DOCKED: ATOM     22  C   UNL     1     136.871  70.034 222.403 -0.11 -0.00    +0.024 C  
DOCKED: ATOM     23  C   UNL     1     138.103  69.168 222.302 -0.16 -0.01    +0.032 C  
DOCKED: BRANCH  21  24
DOCKED: ATOM     24  C   UNL     1     139.598  69.582 224.273 -0.31 +0.00    -0.025 A  
DOCKED: ATOM     25  C   UNL     1     139.240  68.434 224.918 -0.41 -0.00    +0.007 A  
DOCKED: ATOM     26  C   UNL     1     140.405  70.469 225.001 -0.48 -0.00    +0.007 A  
DOCKED: ATOM     27  C   UNL     1     139.632  68.127 226.218 -0.59 -0.00    +0.021 A  
DOCKED: ATOM     28  C   UNL     1     140.800  70.163 226.304 -0.55 -0.00    +0.021 A  
DOCKED: ATOM     29  C   UNL     1     140.425  69.000 226.931 -0.57 -0.01    +0.041 A  
DOCKED: ATOM     30  Cl  UNL     1     140.898  68.581 228.560 -0.73 +0.02    -0.084 Cl 
DOCKED: ENDBRANCH  21  24
DOCKED: ENDBRANCH  17  19
DOCKED: ENDBRANCH   1  17
DOCKED: TORSDOF 5
DOCKED: TER
DOCKED: ENDMDL
________________________________________________________________________________


    FINAL DOCKED STATE:
    ________________________


Run:   3 / 20
Time taken for this run:   0.043s

DOCKED: MODEL        3
DOCKED: USER    Run = 3
DOCKED: USER
DOCKED: USER    Estimated Free Energy of Binding    =  -8.83 kcal/mol  [=(1)+(2)+(3)-(4)]
DOCKED: USER
DOCKED: USER    (1) Final Intermolecular Energy     = -10.33 kcal/mol
DOCKED: USER        vdW + Hbond + desolv Energy     = -10.31 kcal/mol
DOCKED: USER        Electrostatic Energy            =  -0.02 kcal/mol
DOCKED: USER        Moving Ligand-Fixed Receptor    = -10.33 kcal/mol
DOCKED: USER        Moving Ligand-Moving Receptor   =  +0.00 kcal/mol
DOCKED: USER    (2) Final Total Internal Energy     =  -1.56 kcal/mol
DOCKED: USER    (3) Torsional Free Energy           =  +1.49 kcal/mol
DOCKED: USER    (4) Unbound System's Energy         =  -1.56 kcal/mol
DOCKED: USER
DOCKED: USER
DOCKED: REMARK SMILES O=C(NCC(=O)N1CCC[C@@H]1c1ccc(Cl)cc1)c1ccc2cc(F)ccc2n1
DOCKED: REMARK SMILES IDX 4 1 3 2 2 3 1 4 19 6 20 7 29 8 21 9 28 10 22 11 27 12 23 13
DOCKED: REMARK SMILES IDX 26 14 24 15 25 16 5 17 6 18 7 19 8 20 11 21 9 22 10 23 12 24
DOCKED: REMARK SMILES IDX 13 25 18 26 14 27 17 28 15 29 16 30
DOCKED: REMARK H PARENT 3 5
DOCKED: USER                              x       y       z     vdW  Elec       q    Type
DOCKED: USER                           _______ _______ _______ _____ _____    ______ ____
DOCKED: ROOT
DOCKED: ATOM      1  C   UNL     1     139.029  73.389 221.620 -0.15 -0.05    +0.216 C  
DOCKED: ENDROOT
DOCKED: BRANCH   1   2
DOCKED: ATOM      2  N   UNL     1     139.324  72.586 222.797 -0.05 +0.09    -0.342 N  
DOCKED: ATOM      3  C   UNL     1     138.993  71.215 222.794 -0.16 -0.06    +0.270 C  
DOCKED: ATOM      4  O   UNL     1     138.441  70.646 221.796 -0.06 +0.05    -0.268 OA 
DOCKED: ATOM      5  H   UNL     1     139.779  73.047 223.625 -0.33 -0.04    +0.164 HD 
DOCKED: BRANCH   3   6
DOCKED: ATOM      6  C   UNL     1     139.287  70.402 223.975 -0.28 -0.02    +0.128 A  
DOCKED: ATOM      7  C   UNL     1     138.947  69.065 224.025 -0.30 -0.01    +0.035 A  
DOCKED: ATOM      8  N   UNL     1     139.897  70.909 225.064 -0.28 +0.04    -0.243 NA 
DOCKED: ATOM      9  C   UNL     1     139.200  68.257 225.108 -0.44 -0.00    +0.013 A  
DOCKED: ATOM     10  C   UNL     1     140.170  70.145 226.162 -0.47 -0.01    +0.071 A  
DOCKED: ATOM     11  C   UNL     1     139.827  68.808 226.206 -0.54 -0.00    +0.003 A  
DOCKED: ATOM     12  C   UNL     1     140.797  70.686 227.269 -0.63 -0.01    +0.032 A  
DOCKED: ATOM     13  C   UNL     1     140.082  67.999 227.295 -0.60 -0.01    +0.049 A  
DOCKED: ATOM     14  C   UNL     1     141.051  69.875 228.355 -0.52 -0.01    +0.041 A  
DOCKED: ATOM     15  C   UNL     1     140.710  68.539 228.402 -0.56 -0.03    +0.123 A  
DOCKED: ATOM     16  F   UNL     1     140.958  67.741 229.466 -0.15 +0.06    -0.207 F  
DOCKED: ENDBRANCH   3   6
DOCKED: ENDBRANCH   1   2
DOCKED: BRANCH   1  17
DOCKED: ATOM     17  C   UNL     1     139.846  74.622 221.656 -0.20 -0.04    +0.242 C  
DOCKED: ATOM     18  O   UNL     1     141.074  74.549 221.923 -0.62 +0.02    -0.273 OA 
DOCKED: BRANCH  17  19
DOCKED: ATOM     19  N   UNL     1     139.315  75.906 221.401 -0.11 +0.08    -0.334 N  
DOCKED: ATOM     20  C   UNL     1     139.218  76.638 220.136 -0.07 -0.03    +0.120 C  
DOCKED: ATOM     21  C   UNL     1     138.707  76.858 222.358 -0.26 -0.02    +0.115 C  
DOCKED: ATOM     22  C   UNL     1     137.743  76.972 220.159 -0.05 -0.00    +0.024 C  
DOCKED: ATOM     23  C   UNL     1     137.495  77.345 221.599 -0.15 -0.01    +0.032 C  
DOCKED: BRANCH  21  24
DOCKED: ATOM     24  C   UNL     1     139.670  77.893 222.723 -0.33 +0.01    -0.025 A  
DOCKED: ATOM     25  C   UNL     1     141.030  77.787 222.695 -0.47 -0.00    +0.007 A  
DOCKED: ATOM     26  C   UNL     1     139.158  79.124 223.157 -0.35 -0.00    +0.007 A  
DOCKED: ATOM     27  C   UNL     1     141.889  78.816 223.068 -0.54 -0.01    +0.021 A  
DOCKED: ATOM     28  C   UNL     1     140.018  80.158 223.531 -0.43 -0.00    +0.021 A  
DOCKED: ATOM     29  C   UNL     1     141.385  80.026 223.496 -0.53 -0.01    +0.041 A  
DOCKED: ATOM     30  Cl  UNL     1     142.493  81.295 223.955 -0.67 +0.01    -0.084 Cl 
DOCKED: ENDBRANCH  21  24
DOCKED: ENDBRANCH  17  19
DOCKED: ENDBRANCH   1  17
DOCKED: TORSDOF 5
DOCKED: TER
DOCKED: ENDMDL
________________________________________________________________________________


    FINAL DOCKED STATE:
    ________________________


Run:   4 / 20
Time taken for this run:   0.043s

DOCKED: MODEL        4
DOCKED: USER    Run = 4
DOCKED: USER
DOCKED: USER    Estimated Free Energy of Binding    =  -9.11 kcal/mol  [=(1)+(2)+(3)-(4)]
DOCKED: USER
DOCKED: USER    (1) Final Intermolecular Energy     = -10.60 kcal/mol
DOCKED: USER        vdW + Hbond + desolv Energy     = -10.53 kcal/mol
DOCKED: USER        Electrostatic Energy            =  -0.07 kcal/mol
DOCKED: USER        Moving Ligand-Fixed Receptor    = -10.60 kcal/mol
DOCKED: USER        Moving Ligand-Moving Receptor   =  +0.00 kcal/mol
DOCKED: USER    (2) Final Total Internal Energy     =  -1.34 kcal/mol
DOCKED: USER    (3) Torsional Free Energy           =  +1.49 kcal/mol
DOCKED: USER    (4) Unbound System's Energy         =  -1.34 kcal/mol
DOCKED: USER
DOCKED: USER
DOCKED: REMARK SMILES O=C(NCC(=O)N1CCC[C@@H]1c1ccc(Cl)cc1)c1ccc2cc(F)ccc2n1
DOCKED: REMARK SMILES IDX 4 1 3 2 2 3 1 4 19 6 20 7 29 8 21 9 28 10 22 11 27 12 23 13
DOCKED: REMARK SMILES IDX 26 14 24 15 25 16 5 17 6 18 7 19 8 20 11 21 9 22 10 23 12 24
DOCKED: REMARK SMILES IDX 13 25 18 26 14 27 17 28 15 29 16 30
DOCKED: REMARK H PARENT 3 5
DOCKED: USER                              x       y       z     vdW  Elec       q    Type
DOCKED: USER                           _______ _______ _______ _____ _____    ______ ____
DOCKED: ROOT
DOCKED: ATOM      1  C   UNL     1     138.728  73.879 221.230 -0.12 -0.05    +0.216 C  
DOCKED: ENDROOT
DOCKED: BRANCH   1   2
DOCKED: ATOM      2  N   UNL     1     138.787  72.991 222.382 -0.04 +0.11    -0.342 N  
DOCKED: ATOM      3  C   UNL     1     139.908  72.151 222.546 -0.21 -0.04    +0.270 C  
DOCKED: ATOM      4  O   UNL     1     140.879  72.135 221.719 -0.19 +0.03    -0.268 OA 
DOCKED: ATOM      5  H   UNL     1     137.991  72.998 223.069 -0.47 -0.09    +0.164 HD 
DOCKED: BRANCH   3   6
DOCKED: ATOM      6  C   UNL     1     139.973  71.256 223.702 -0.33 -0.02    +0.128 A  
DOCKED: ATOM      7  C   UNL     1     139.530  69.952 223.621 -0.27 -0.01    +0.035 A  
DOCKED: ATOM      8  N   UNL     1     140.462  71.654 224.892 -0.30 +0.04    -0.243 NA 
DOCKED: ATOM      9  C   UNL     1     139.568  69.070 224.676 -0.35 -0.00    +0.013 A  
DOCKED: ATOM     10  C   UNL     1     140.521  70.814 225.967 -0.53 -0.01    +0.071 A  
DOCKED: ATOM     11  C   UNL     1     140.075  69.509 225.880 -0.48 -0.00    +0.003 A  
DOCKED: ATOM     12  C   UNL     1     141.027  71.243 227.181 -0.70 -0.01    +0.032 A  
DOCKED: ATOM     13  C   UNL     1     140.115  68.626 226.941 -0.58 -0.01    +0.049 A  
DOCKED: ATOM     14  C   UNL     1     141.065  70.357 228.237 -0.54 -0.01    +0.041 A  
DOCKED: ATOM     15  C   UNL     1     140.621  69.054 228.154 -0.53 -0.03    +0.123 A  
DOCKED: ATOM     16  F   UNL     1     140.657  68.184 229.190 -0.15 +0.05    -0.207 F  
DOCKED: ENDBRANCH   3   6
DOCKED: ENDBRANCH   1   2
DOCKED: BRANCH   1  17
DOCKED: ATOM     17  C   UNL     1     139.234  75.214 221.619 -0.19 -0.05    +0.242 C  
DOCKED: ATOM     18  O   UNL     1     138.579  75.917 222.431 -0.25 +0.06    -0.273 OA 
DOCKED: BRANCH  17  19
DOCKED: ATOM     19  N   UNL     1     140.439  75.757 221.119 -0.13 +0.09    -0.334 N  
DOCKED: ATOM     20  C   UNL     1     141.804  75.235 221.213 -0.17 -0.04    +0.120 C  
DOCKED: ATOM     21  C   UNL     1     140.637  77.012 220.357 -0.17 -0.04    +0.115 C  
DOCKED: ATOM     22  C   UNL     1     142.181  75.272 219.748 -0.26 -0.01    +0.024 C  
DOCKED: ATOM     23  C   UNL     1     141.596  76.579 219.273 -0.20 -0.01    +0.032 C  
DOCKED: BRANCH  21  24
DOCKED: ATOM     24  C   UNL     1     141.128  78.066 221.239 -0.31 +0.01    -0.025 A  
DOCKED: ATOM     25  C   UNL     1     141.773  79.209 220.864 -0.34 -0.00    +0.007 A  
DOCKED: ATOM     26  C   UNL     1     140.933  77.895 222.617 -0.47 -0.00    +0.007 A  
DOCKED: ATOM     27  C   UNL     1     142.224  80.168 221.765 -0.46 -0.01    +0.021 A  
DOCKED: ATOM     28  C   UNL     1     141.384  78.857 223.523 -0.57 -0.01    +0.021 A  
DOCKED: ATOM     29  C   UNL     1     142.032  79.999 223.119 -0.58 -0.01    +0.041 A  
DOCKED: ATOM     30  Cl  UNL     1     142.611  81.225 224.220 -0.63 +0.01    -0.084 Cl 
DOCKED: ENDBRANCH  21  24
DOCKED: ENDBRANCH  17  19
DOCKED: ENDBRANCH   1  17
DOCKED: TORSDOF 5
DOCKED: TER
DOCKED: ENDMDL
________________________________________________________________________________


    FINAL DOCKED STATE:
    ________________________


Run:   5 / 20
Time taken for this run:   0.043s

DOCKED: MODEL        5
DOCKED: USER    Run = 5
DOCKED: USER
DOCKED: USER    Estimated Free Energy of Binding    =  -8.99 kcal/mol  [=(1)+(2)+(3)-(4)]
DOCKED: USER
DOCKED: USER    (1) Final Intermolecular Energy     = -10.48 kcal/mol
DOCKED: USER        vdW + Hbond + desolv Energy     = -10.44 kcal/mol
DOCKED: USER        Electrostatic Energy            =  -0.04 kcal/mol
DOCKED: USER        Moving Ligand-Fixed Receptor    = -10.48 kcal/mol
DOCKED: USER        Moving Ligand-Moving Receptor   =  +0.00 kcal/mol
DOCKED: USER    (2) Final Total Internal Energy     =  -1.66 kcal/mol
DOCKED: USER    (3) Torsional Free Energy           =  +1.49 kcal/mol
DOCKED: USER    (4) Unbound System's Energy         =  -1.66 kcal/mol
DOCKED: USER
DOCKED: USER
DOCKED: REMARK SMILES O=C(NCC(=O)N1CCC[C@@H]1c1ccc(Cl)cc1)c1ccc2cc(F)ccc2n1
DOCKED: REMARK SMILES IDX 4 1 3 2 2 3 1 4 19 6 20 7 29 8 21 9 28 10 22 11 27 12 23 13
DOCKED: REMARK SMILES IDX 26 14 24 15 25 16 5 17 6 18 7 19 8 20 11 21 9 22 10 23 12 24
DOCKED: REMARK SMILES IDX 13 25 18 26 14 27 17 28 15 29 16 30
DOCKED: REMARK H PARENT 3 5
DOCKED: USER                              x       y       z     vdW  Elec       q    Type
DOCKED: USER                           _______ _______ _______ _____ _____    ______ ____
DOCKED: ROOT
DOCKED: ATOM      1  C   UNL     1     139.844  73.478 221.322 -0.17 -0.04    +0.216 C  
DOCKED: ENDROOT
DOCKED: BRANCH   1   2
DOCKED: ATOM      2  N   UNL     1     139.843  72.705 222.555 -0.16 +0.06    -0.342 N  
DOCKED: ATOM      3  C   UNL     1     139.960  71.301 222.485 -0.18 -0.04    +0.270 C  
DOCKED: ATOM      4  O   UNL     1     140.065  70.677 221.379 -0.10 +0.04    -0.268 OA 
DOCKED: ATOM      5  H   UNL     1     139.756  73.212 223.471 -0.38 -0.03    +0.164 HD 
DOCKED: BRANCH   3   6
DOCKED: ATOM      6  C   UNL     1     139.959  70.518 223.722 -0.26 -0.02    +0.128 A  
DOCKED: ATOM      7  C   UNL     1     139.384  69.264 223.773 -0.23 -0.01    +0.035 A  
DOCKED: ATOM      8  N   UNL     1     140.512  70.974 224.862 -0.30 +0.04    -0.243 NA 
DOCKED: ATOM      9  C   UNL     1     139.356  68.487 224.907 -0.39 -0.00    +0.013 A  
DOCKED: ATOM     10  C   UNL     1     140.509  70.238 226.012 -0.49 -0.01    +0.071 A  
DOCKED: ATOM     11  C   UNL     1     139.932  68.984 226.057 -0.52 -0.00    +0.003 A  
DOCKED: ATOM     12  C   UNL     1     141.082  70.726 227.172 -0.61 -0.01    +0.032 A  
DOCKED: ATOM     13  C   UNL     1     139.905  68.206 227.198 -0.61 -0.01    +0.049 A  
DOCKED: ATOM     14  C   UNL     1     141.054  69.945 228.309 -0.53 -0.01    +0.041 A  
DOCKED: ATOM     15  C   UNL     1     140.479  68.693 228.357 -0.55 -0.03    +0.123 A  
DOCKED: ATOM     16  F   UNL     1     140.450  67.925 229.471 -0.09 +0.05    -0.207 F  
DOCKED: ENDBRANCH   3   6
DOCKED: ENDBRANCH   1   2
DOCKED: BRANCH   1  17
DOCKED: ATOM     17  C   UNL     1     139.997  74.914 221.649 -0.21 -0.04    +0.242 C  
DOCKED: ATOM     18  O   UNL     1     139.363  75.403 222.619 -0.50 +0.05    -0.273 OA 
DOCKED: BRANCH  17  19
DOCKED: ATOM     19  N   UNL     1     140.833  75.786 220.917 -0.13 +0.11    -0.334 N  
DOCKED: ATOM     20  C   UNL     1     142.219  75.599 220.482 -0.21 -0.06    +0.120 C  
DOCKED: ATOM     21  C   UNL     1     140.520  77.133 220.388 -0.16 -0.04    +0.115 C  
DOCKED: ATOM     22  C   UNL     1     142.056  75.902 219.008 -0.21 -0.01    +0.024 C  
DOCKED: ATOM     23  C   UNL     1     141.112  77.078 218.999 -0.15 -0.01    +0.032 C  
DOCKED: BRANCH  21  24
DOCKED: ATOM     24  C   UNL     1     141.079  78.161 221.261 -0.31 +0.01    -0.025 A  
DOCKED: ATOM     25  C   UNL     1     141.676  79.325 220.873 -0.34 -0.00    +0.007 A  
DOCKED: ATOM     26  C   UNL     1     141.011  77.937 222.644 -0.48 -0.00    +0.007 A  
DOCKED: ATOM     27  C   UNL     1     142.198  80.257 221.765 -0.47 -0.01    +0.021 A  
DOCKED: ATOM     28  C   UNL     1     141.532  78.871 223.541 -0.58 -0.01    +0.021 A  
DOCKED: ATOM     29  C   UNL     1     142.130  80.035 223.124 -0.59 -0.01    +0.041 A  
DOCKED: ATOM     30  Cl  UNL     1     142.794  81.227 224.214 -0.55 +0.01    -0.084 Cl 
DOCKED: ENDBRANCH  21  24
DOCKED: ENDBRANCH  17  19
DOCKED: ENDBRANCH   1  17
DOCKED: TORSDOF 5
DOCKED: TER
DOCKED: ENDMDL
________________________________________________________________________________


    FINAL DOCKED STATE:
    ________________________


Run:   6 / 20
Time taken for this run:   0.043s

DOCKED: MODEL        6
DOCKED: USER    Run = 6
DOCKED: USER
DOCKED: USER    Estimated Free Energy of Binding    =  -8.99 kcal/mol  [=(1)+(2)+(3)-(4)]
DOCKED: USER
DOCKED: USER    (1) Final Intermolecular Energy     = -10.48 kcal/mol
DOCKED: USER        vdW + Hbond + desolv Energy     = -10.43 kcal/mol
DOCKED: USER        Electrostatic Energy            =  -0.05 kcal/mol
DOCKED: USER        Moving Ligand-Fixed Receptor    = -10.48 kcal/mol
DOCKED: USER        Moving Ligand-Moving Receptor   =  +0.00 kcal/mol
DOCKED: USER    (2) Final Total Internal Energy     =  -1.67 kcal/mol
DOCKED: USER    (3) Torsional Free Energy           =  +1.49 kcal/mol
DOCKED: USER    (4) Unbound System's Energy         =  -1.67 kcal/mol
DOCKED: USER
DOCKED: USER
DOCKED: REMARK SMILES O=C(NCC(=O)N1CCC[C@@H]1c1ccc(Cl)cc1)c1ccc2cc(F)ccc2n1
DOCKED: REMARK SMILES IDX 4 1 3 2 2 3 1 4 19 6 20 7 29 8 21 9 28 10 22 11 27 12 23 13
DOCKED: REMARK SMILES IDX 26 14 24 15 25 16 5 17 6 18 7 19 8 20 11 21 9 22 10 23 12 24
DOCKED: REMARK SMILES IDX 13 25 18 26 14 27 17 28 15 29 16 30
DOCKED: REMARK H PARENT 3 5
DOCKED: USER                              x       y       z     vdW  Elec       q    Type
DOCKED: USER                           _______ _______ _______ _____ _____    ______ ____
DOCKED: ROOT
DOCKED: ATOM      1  C   UNL     1     139.870  73.489 221.331 -0.18 -0.04    +0.216 C  
DOCKED: ENDROOT
DOCKED: BRANCH   1   2
DOCKED: ATOM      2  N   UNL     1     139.842  72.716 222.563 -0.16 +0.06    -0.342 N  
DOCKED: ATOM      3  C   UNL     1     140.004  71.316 222.500 -0.18 -0.04    +0.270 C  
DOCKED: ATOM      4  O   UNL     1     140.174  70.695 221.399 -0.10 +0.04    -0.268 OA 
DOCKED: ATOM      5  H   UNL     1     139.703  73.219 223.475 -0.39 -0.04    +0.164 HD 
DOCKED: BRANCH   3   6
DOCKED: ATOM      6  C   UNL     1     139.978  70.533 223.736 -0.26 -0.02    +0.128 A  
DOCKED: ATOM      7  C   UNL     1     139.382  69.289 223.780 -0.24 -0.01    +0.035 A  
DOCKED: ATOM      8  N   UNL     1     140.526  70.979 224.883 -0.30 +0.04    -0.243 NA 
DOCKED: ATOM      9  C   UNL     1     139.329  68.512 224.914 -0.39 -0.00    +0.013 A  
DOCKED: ATOM     10  C   UNL     1     140.498  70.243 226.032 -0.49 -0.01    +0.071 A  
DOCKED: ATOM     11  C   UNL     1     139.900  68.999 226.071 -0.51 -0.00    +0.003 A  
DOCKED: ATOM     12  C   UNL     1     141.067  70.721 227.199 -0.62 -0.01    +0.032 A  
DOCKED: ATOM     13  C   UNL     1     139.848  68.222 227.211 -0.60 -0.01    +0.049 A  
DOCKED: ATOM     14  C   UNL     1     141.014  69.941 228.335 -0.53 -0.01    +0.041 A  
DOCKED: ATOM     15  C   UNL     1     140.417  68.698 228.376 -0.54 -0.03    +0.123 A  
DOCKED: ATOM     16  F   UNL     1     140.364  67.931 229.490 -0.07 +0.05    -0.207 F  
DOCKED: ENDBRANCH   3   6
DOCKED: ENDBRANCH   1   2
DOCKED: BRANCH   1  17
DOCKED: ATOM     17  C   UNL     1     140.015  74.924 221.661 -0.21 -0.04    +0.242 C  
DOCKED: ATOM     18  O   UNL     1     139.384  75.406 222.637 -0.50 +0.05    -0.273 OA 
DOCKED: BRANCH  17  19
DOCKED: ATOM     19  N   UNL     1     140.840  75.805 220.926 -0.13 +0.11    -0.334 N  
DOCKED: ATOM     20  C   UNL     1     142.225  75.630 220.484 -0.20 -0.06    +0.120 C  
DOCKED: ATOM     21  C   UNL     1     140.513  77.150 220.400 -0.16 -0.04    +0.115 C  
DOCKED: ATOM     22  C   UNL     1     142.052  75.933 219.011 -0.21 -0.01    +0.024 C  
DOCKED: ATOM     23  C   UNL     1     141.098  77.101 219.008 -0.15 -0.01    +0.032 C  
DOCKED: BRANCH  21  24
DOCKED: ATOM     24  C   UNL     1     141.067  78.181 221.272 -0.31 +0.01    -0.025 A  
DOCKED: ATOM     25  C   UNL     1     141.653  79.350 220.882 -0.34 -0.00    +0.007 A  
DOCKED: ATOM     26  C   UNL     1     141.007  77.955 222.655 -0.48 -0.00    +0.007 A  
DOCKED: ATOM     27  C   UNL     1     142.171  80.285 221.773 -0.46 -0.01    +0.021 A  
DOCKED: ATOM     28  C   UNL     1     141.525  78.892 223.550 -0.58 -0.01    +0.021 A  
DOCKED: ATOM     29  C   UNL     1     142.112  80.062 223.132 -0.59 -0.01    +0.041 A  
DOCKED: ATOM     30  Cl  UNL     1     142.771  81.259 224.220 -0.55 +0.01    -0.084 Cl 
DOCKED: ENDBRANCH  21  24
DOCKED: ENDBRANCH  17  19
DOCKED: ENDBRANCH   1  17
DOCKED: TORSDOF 5
DOCKED: TER
DOCKED: ENDMDL
________________________________________________________________________________


    FINAL DOCKED STATE:
    ________________________


Run:   7 / 20
Time taken for this run:   0.043s

DOCKED: MODEL        7
DOCKED: USER    Run = 7
DOCKED: USER
DOCKED: USER    Estimated Free Energy of Binding    =  -9.02 kcal/mol  [=(1)+(2)+(3)-(4)]
DOCKED: USER
DOCKED: USER    (1) Final Intermolecular Energy     = -10.51 kcal/mol
DOCKED: USER        vdW + Hbond + desolv Energy     = -10.45 kcal/mol
DOCKED: USER        Electrostatic Energy            =  -0.06 kcal/mol
DOCKED: USER        Moving Ligand-Fixed Receptor    = -10.51 kcal/mol
DOCKED: USER        Moving Ligand-Moving Receptor   =  +0.00 kcal/mol
DOCKED: USER    (2) Final Total Internal Energy     =  -1.64 kcal/mol
DOCKED: USER    (3) Torsional Free Energy           =  +1.49 kcal/mol
DOCKED: USER    (4) Unbound System's Energy         =  -1.64 kcal/mol
DOCKED: USER
DOCKED: USER
DOCKED: REMARK SMILES O=C(NCC(=O)N1CCC[C@@H]1c1ccc(Cl)cc1)c1ccc2cc(F)ccc2n1
DOCKED: REMARK SMILES IDX 4 1 3 2 2 3 1 4 19 6 20 7 29 8 21 9 28 10 22 11 27 12 23 13
DOCKED: REMARK SMILES IDX 26 14 24 15 25 16 5 17 6 18 7 19 8 20 11 21 9 22 10 23 12 24
DOCKED: REMARK SMILES IDX 13 25 18 26 14 27 17 28 15 29 16 30
DOCKED: REMARK H PARENT 3 5
DOCKED: USER                              x       y       z     vdW  Elec       q    Type
DOCKED: USER                           _______ _______ _______ _____ _____    ______ ____
DOCKED: ROOT
DOCKED: ATOM      1  C   UNL     1     139.780  73.465 221.308 -0.17 -0.04    +0.216 C  
DOCKED: ENDROOT
DOCKED: BRANCH   1   2
DOCKED: ATOM      2  N   UNL     1     139.754  72.691 222.540 -0.16 +0.06    -0.342 N  
DOCKED: ATOM      3  C   UNL     1     139.962  71.297 222.480 -0.18 -0.04    +0.270 C  
DOCKED: ATOM      4  O   UNL     1     140.172  70.682 221.383 -0.10 +0.04    -0.268 OA 
DOCKED: ATOM      5  H   UNL     1     139.582  73.190 223.449 -0.40 -0.05    +0.164 HD 
DOCKED: BRANCH   3   6
DOCKED: ATOM      6  C   UNL     1     139.937  70.513 223.716 -0.26 -0.02    +0.128 A  
DOCKED: ATOM      7  C   UNL     1     139.323  69.278 223.766 -0.25 -0.01    +0.035 A  
DOCKED: ATOM      8  N   UNL     1     140.505  70.950 224.857 -0.30 +0.04    -0.243 NA 
DOCKED: ATOM      9  C   UNL     1     139.270  68.502 224.900 -0.40 -0.00    +0.013 A  
DOCKED: ATOM     10  C   UNL     1     140.479  70.214 226.006 -0.48 -0.01    +0.071 A  
DOCKED: ATOM     11  C   UNL     1     139.862  68.978 226.050 -0.51 -0.00    +0.003 A  
DOCKED: ATOM     12  C   UNL     1     141.068  70.682 227.166 -0.61 -0.01    +0.032 A  
DOCKED: ATOM     13  C   UNL     1     139.811  68.201 227.190 -0.60 -0.01    +0.049 A  
DOCKED: ATOM     14  C   UNL     1     141.016  69.901 228.302 -0.54 -0.01    +0.041 A  
DOCKED: ATOM     15  C   UNL     1     140.401  68.668 228.349 -0.55 -0.03    +0.123 A  
DOCKED: ATOM     16  F   UNL     1     140.348  67.900 229.463 -0.08 +0.05    -0.207 F  
DOCKED: ENDBRANCH   3   6
DOCKED: ENDBRANCH   1   2
DOCKED: BRANCH   1  17
DOCKED: ATOM     17  C   UNL     1     139.953  74.897 221.637 -0.21 -0.04    +0.242 C  
DOCKED: ATOM     18  O   UNL     1     139.318  75.396 222.602 -0.49 +0.05    -0.273 OA 
DOCKED: BRANCH  17  19
DOCKED: ATOM     19  N   UNL     1     140.810  75.757 220.914 -0.12 +0.10    -0.334 N  
DOCKED: ATOM     20  C   UNL     1     142.199  75.551 220.499 -0.21 -0.06    +0.120 C  
DOCKED: ATOM     21  C   UNL     1     140.521  77.106 220.376 -0.16 -0.04    +0.115 C  
DOCKED: ATOM     22  C   UNL     1     142.061  75.850 219.022 -0.21 -0.01    +0.024 C  
DOCKED: ATOM     23  C   UNL     1     141.131  77.038 218.996 -0.15 -0.01    +0.032 C  
DOCKED: BRANCH  21  24
DOCKED: ATOM     24  C   UNL     1     141.081  78.130 221.254 -0.31 +0.01    -0.025 A  
DOCKED: ATOM     25  C   UNL     1     141.668  79.300 220.871 -0.34 -0.00    +0.007 A  
DOCKED: ATOM     26  C   UNL     1     141.024  77.894 222.635 -0.48 -0.00    +0.007 A  
DOCKED: ATOM     27  C   UNL     1     142.191  80.228 221.767 -0.47 -0.01    +0.021 A  
DOCKED: ATOM     28  C   UNL     1     141.547  78.824 223.536 -0.58 -0.01    +0.021 A  
DOCKED: ATOM     29  C   UNL     1     142.134  79.995 223.124 -0.59 -0.01    +0.041 A  
DOCKED: ATOM     30  Cl  UNL     1     142.800  81.182 224.219 -0.56 +0.01    -0.084 Cl 
DOCKED: ENDBRANCH  21  24
DOCKED: ENDBRANCH  17  19
DOCKED: ENDBRANCH   1  17
DOCKED: TORSDOF 5
DOCKED: TER
DOCKED: ENDMDL
________________________________________________________________________________


    FINAL DOCKED STATE:
    ________________________


Run:   8 / 20
Time taken for this run:   0.043s

DOCKED: MODEL        8
DOCKED: USER    Run = 8
DOCKED: USER
DOCKED: USER    Estimated Free Energy of Binding    =  -8.45 kcal/mol  [=(1)+(2)+(3)-(4)]
DOCKED: USER
DOCKED: USER    (1) Final Intermolecular Energy     =  -9.94 kcal/mol
DOCKED: USER        vdW + Hbond + desolv Energy     =  -9.87 kcal/mol
DOCKED: USER        Electrostatic Energy            =  -0.07 kcal/mol
DOCKED: USER        Moving Ligand-Fixed Receptor    =  -9.94 kcal/mol
DOCKED: USER        Moving Ligand-Moving Receptor   =  +0.00 kcal/mol
DOCKED: USER    (2) Final Total Internal Energy     =  -1.31 kcal/mol
DOCKED: USER    (3) Torsional Free Energy           =  +1.49 kcal/mol
DOCKED: USER    (4) Unbound System's Energy         =  -1.31 kcal/mol
DOCKED: USER
DOCKED: USER
DOCKED: REMARK SMILES O=C(NCC(=O)N1CCC[C@@H]1c1ccc(Cl)cc1)c1ccc2cc(F)ccc2n1
DOCKED: REMARK SMILES IDX 4 1 3 2 2 3 1 4 19 6 20 7 29 8 21 9 28 10 22 11 27 12 23 13
DOCKED: REMARK SMILES IDX 26 14 24 15 25 16 5 17 6 18 7 19 8 20 11 21 9 22 10 23 12 24
DOCKED: REMARK SMILES IDX 13 25 18 26 14 27 17 28 15 29 16 30
DOCKED: REMARK H PARENT 3 5
DOCKED: USER                              x       y       z     vdW  Elec       q    Type
DOCKED: USER                           _______ _______ _______ _____ _____    ______ ____
DOCKED: ROOT
DOCKED: ATOM      1  C   UNL     1     139.801  74.475 221.122 -0.17 -0.04    +0.216 C  
DOCKED: ENDROOT
DOCKED: BRANCH   1   2
DOCKED: ATOM      2  N   UNL     1     139.659  73.625 222.294 -0.12 +0.05    -0.342 N  
DOCKED: ATOM      3  C   UNL     1     140.346  72.393 222.337 -0.21 -0.03    +0.270 C  
DOCKED: ATOM      4  O   UNL     1     141.091  71.991 221.384 -0.16 +0.03    -0.268 OA 
DOCKED: ATOM      5  H   UNL     1     139.046  73.948 223.085 -0.55 -0.08    +0.164 HD 
DOCKED: BRANCH   3   6
DOCKED: ATOM      6  C   UNL     1     140.206  71.534 223.513 -0.33 -0.02    +0.128 A  
DOCKED: ATOM      7  C   UNL     1     139.565  70.314 223.434 -0.28 -0.01    +0.035 A  
DOCKED: ATOM      8  N   UNL     1     140.691  71.882 224.721 -0.27 +0.03    -0.243 NA 
DOCKED: ATOM      9  C   UNL     1     139.406  69.469 224.507 -0.34 -0.00    +0.013 A  
DOCKED: ATOM     10  C   UNL     1     140.558  71.075 225.814 -0.54 -0.01    +0.071 A  
DOCKED: ATOM     11  C   UNL     1     139.914  69.855 225.728 -0.47 -0.00    +0.003 A  
DOCKED: ATOM     12  C   UNL     1     141.063  71.452 227.044 -0.72 -0.01    +0.032 A  
DOCKED: ATOM     13  C   UNL     1     139.757  69.009 226.807 -0.53 -0.01    +0.049 A  
DOCKED: ATOM     14  C   UNL     1     140.905  70.603 228.119 -0.60 -0.01    +0.041 A  
DOCKED: ATOM     15  C   UNL     1     140.262  69.385 228.037 -0.53 -0.02    +0.123 A  
DOCKED: ATOM     16  F   UNL     1     140.105  68.550 229.091 -0.15 +0.04    -0.207 F  
DOCKED: ENDBRANCH   3   6
DOCKED: ENDBRANCH   1   2
DOCKED: BRANCH   1  17
DOCKED: ATOM     17  C   UNL     1     138.493  75.093 220.809 -0.08 -0.05    +0.242 C  
DOCKED: ATOM     18  O   UNL     1     137.653  74.458 220.119 -0.02 +0.06    -0.273 OA 
DOCKED: BRANCH  17  19
DOCKED: ATOM     19  N   UNL     1     138.124  76.384 221.249 -0.05 +0.07    -0.334 N  
DOCKED: ATOM     20  C   UNL     1     137.609  77.518 220.479 -0.05 -0.02    +0.120 C  
DOCKED: ATOM     21  C   UNL     1     138.161  76.932 222.624 -0.25 -0.02    +0.115 C  
DOCKED: ATOM     22  C   UNL     1     136.369  77.821 221.291 -0.07 -0.00    +0.024 C  
DOCKED: ATOM     23  C   UNL     1     136.839  77.658 222.715 -0.20 -0.01    +0.032 C  
DOCKED: BRANCH  21  24
DOCKED: ATOM     24  C   UNL     1     139.343  77.770 222.802 -0.25 +0.00    -0.025 A  
DOCKED: ATOM     25  C   UNL     1     140.616  77.480 222.404 -0.42 -0.00    +0.007 A  
DOCKED: ATOM     26  C   UNL     1     139.170  78.997 223.458 -0.35 -0.00    +0.007 A  
DOCKED: ATOM     27  C   UNL     1     141.700  78.326 222.618 -0.38 -0.01    +0.021 A  
DOCKED: ATOM     28  C   UNL     1     140.256  79.847 223.673 -0.45 -0.00    +0.021 A  
DOCKED: ATOM     29  C   UNL     1     141.528  79.531 223.263 -0.54 -0.01    +0.041 A  
DOCKED: ATOM     30  Cl  UNL     1     142.912  80.567 223.513 -0.79 +0.02    -0.084 Cl 
DOCKED: ENDBRANCH  21  24
DOCKED: ENDBRANCH  17  19
DOCKED: ENDBRANCH   1  17
DOCKED: TORSDOF 5
DOCKED: TER
DOCKED: ENDMDL
________________________________________________________________________________


    FINAL DOCKED STATE:
    ________________________


Run:   9 / 20
Time taken for this run:   0.043s

DOCKED: MODEL        9
DOCKED: USER    Run = 9
DOCKED: USER
DOCKED: USER    Estimated Free Energy of Binding    =  -9.14 kcal/mol  [=(1)+(2)+(3)-(4)]
DOCKED: USER
DOCKED: USER    (1) Final Intermolecular Energy     = -10.63 kcal/mol
DOCKED: USER        vdW + Hbond + desolv Energy     = -10.57 kcal/mol
DOCKED: USER        Electrostatic Energy            =  -0.06 kcal/mol
DOCKED: USER        Moving Ligand-Fixed Receptor    = -10.63 kcal/mol
DOCKED: USER        Moving Ligand-Moving Receptor   =  +0.00 kcal/mol
DOCKED: USER    (2) Final Total Internal Energy     =  -1.34 kcal/mol
DOCKED: USER    (3) Torsional Free Energy           =  +1.49 kcal/mol
DOCKED: USER    (4) Unbound System's Energy         =  -1.34 kcal/mol
DOCKED: USER
DOCKED: USER
DOCKED: REMARK SMILES O=C(NCC(=O)N1CCC[C@@H]1c1ccc(Cl)cc1)c1ccc2cc(F)ccc2n1
DOCKED: REMARK SMILES IDX 4 1 3 2 2 3 1 4 19 6 20 7 29 8 21 9 28 10 22 11 27 12 23 13
DOCKED: REMARK SMILES IDX 26 14 24 15 25 16 5 17 6 18 7 19 8 20 11 21 9 22 10 23 12 24
DOCKED: REMARK SMILES IDX 13 25 18 26 14 27 17 28 15 29 16 30
DOCKED: REMARK H PARENT 3 5
DOCKED: USER                              x       y       z     vdW  Elec       q    Type
DOCKED: USER                           _______ _______ _______ _____ _____    ______ ____
DOCKED: ROOT
DOCKED: ATOM      1  C   UNL     1     138.745  73.886 221.281 -0.13 -0.05    +0.216 C  
DOCKED: ENDROOT
DOCKED: BRANCH   1   2
DOCKED: ATOM      2  N   UNL     1     138.784  72.975 222.416 -0.01 +0.11    -0.342 N  
DOCKED: ATOM      3  C   UNL     1     139.955  72.226 222.654 -0.21 -0.04    +0.270 C  
DOCKED: ATOM      4  O   UNL     1     140.988  72.313 221.912 -0.24 +0.02    -0.268 OA 
DOCKED: ATOM      5  H   UNL     1     137.937  72.897 223.033 -0.43 -0.09    +0.164 HD 
DOCKED: BRANCH   3   6
DOCKED: ATOM      6  C   UNL     1     140.001  71.308 223.794 -0.34 -0.02    +0.128 A  
DOCKED: ATOM      7  C   UNL     1     139.535  70.013 223.686 -0.28 -0.01    +0.035 A  
DOCKED: ATOM      8  N   UNL     1     140.494  71.673 224.992 -0.30 +0.04    -0.243 NA 
DOCKED: ATOM      9  C   UNL     1     139.554  69.111 224.724 -0.36 -0.00    +0.013 A  
DOCKED: ATOM     10  C   UNL     1     140.535  70.811 226.051 -0.54 -0.01    +0.071 A  
DOCKED: ATOM     11  C   UNL     1     140.066  69.517 225.937 -0.48 -0.00    +0.003 A  
DOCKED: ATOM     12  C   UNL     1     141.045  71.207 227.273 -0.70 -0.01    +0.032 A  
DOCKED: ATOM     13  C   UNL     1     140.087  68.613 226.981 -0.59 -0.01    +0.049 A  
DOCKED: ATOM     14  C   UNL     1     141.065  70.301 228.313 -0.53 -0.01    +0.041 A  
DOCKED: ATOM     15  C   UNL     1     140.598  69.008 228.203 -0.54 -0.03    +0.123 A  
DOCKED: ATOM     16  F   UNL     1     140.616  68.117 229.221 -0.15 +0.05    -0.207 F  
DOCKED: ENDBRANCH   3   6
DOCKED: ENDBRANCH   1   2
DOCKED: BRANCH   1  17
DOCKED: ATOM     17  C   UNL     1     139.273  75.204 221.699 -0.20 -0.05    +0.242 C  
DOCKED: ATOM     18  O   UNL     1     138.659  75.874 222.569 -0.27 +0.06    -0.273 OA 
DOCKED: BRANCH  17  19
DOCKED: ATOM     19  N   UNL     1     140.453  75.766 221.163 -0.14 +0.09    -0.334 N  
DOCKED: ATOM     20  C   UNL     1     141.828  75.264 221.213 -0.16 -0.05    +0.120 C  
DOCKED: ATOM     21  C   UNL     1     140.609  77.024 220.398 -0.17 -0.04    +0.115 C  
DOCKED: ATOM     22  C   UNL     1     142.159  75.309 219.737 -0.25 -0.01    +0.024 C  
DOCKED: ATOM     23  C   UNL     1     141.541  76.608 219.284 -0.20 -0.01    +0.032 C  
DOCKED: BRANCH  21  24
DOCKED: ATOM     24  C   UNL     1     141.112  78.085 221.266 -0.31 +0.01    -0.025 A  
DOCKED: ATOM     25  C   UNL     1     141.731  79.236 220.874 -0.34 -0.00    +0.007 A  
DOCKED: ATOM     26  C   UNL     1     140.957  77.911 222.649 -0.47 -0.00    +0.007 A  
DOCKED: ATOM     27  C   UNL     1     142.196  80.200 221.762 -0.47 -0.01    +0.021 A  
DOCKED: ATOM     28  C   UNL     1     141.422  78.878 223.543 -0.57 -0.01    +0.021 A  
DOCKED: ATOM     29  C   UNL     1     142.043  80.028 223.121 -0.58 -0.01    +0.041 A  
DOCKED: ATOM     30  Cl  UNL     1     142.638  81.261 224.206 -0.62 +0.01    -0.084 Cl 
DOCKED: ENDBRANCH  21  24
DOCKED: ENDBRANCH  17  19
DOCKED: ENDBRANCH   1  17
DOCKED: TORSDOF 5
DOCKED: TER
DOCKED: ENDMDL
________________________________________________________________________________


    FINAL DOCKED STATE:
    ________________________


Run:   10 / 20
Time taken for this run:   0.043s

DOCKED: MODEL        10
DOCKED: USER    Run = 10
DOCKED: USER
DOCKED: USER    Estimated Free Energy of Binding    =  -8.78 kcal/mol  [=(1)+(2)+(3)-(4)]
DOCKED: USER
DOCKED: USER    (1) Final Intermolecular Energy     = -10.27 kcal/mol
DOCKED: USER        vdW + Hbond + desolv Energy     = -10.27 kcal/mol
DOCKED: USER        Electrostatic Energy            =  +0.00 kcal/mol
DOCKED: USER        Moving Ligand-Fixed Receptor    = -10.27 kcal/mol
DOCKED: USER        Moving Ligand-Moving Receptor   =  +0.00 kcal/mol
DOCKED: USER    (2) Final Total Internal Energy     =  -1.62 kcal/mol
DOCKED: USER    (3) Torsional Free Energy           =  +1.49 kcal/mol
DOCKED: USER    (4) Unbound System's Energy         =  -1.62 kcal/mol
DOCKED: USER
DOCKED: USER
DOCKED: REMARK SMILES O=C(NCC(=O)N1CCC[C@@H]1c1ccc(Cl)cc1)c1ccc2cc(F)ccc2n1
DOCKED: REMARK SMILES IDX 4 1 3 2 2 3 1 4 19 6 20 7 29 8 21 9 28 10 22 11 27 12 23 13
DOCKED: REMARK SMILES IDX 26 14 24 15 25 16 5 17 6 18 7 19 8 20 11 21 9 22 10 23 12 24
DOCKED: REMARK SMILES IDX 13 25 18 26 14 27 17 28 15 29 16 30
DOCKED: REMARK H PARENT 3 5
DOCKED: USER                              x       y       z     vdW  Elec       q    Type
DOCKED: USER                           _______ _______ _______ _____ _____    ______ ____
DOCKED: ROOT
DOCKED: ATOM      1  C   UNL     1     138.971  73.469 221.629 -0.15 -0.05    +0.216 C  
DOCKED: ENDROOT
DOCKED: BRANCH   1   2
DOCKED: ATOM      2  N   UNL     1     139.317  72.645 222.777 -0.05 +0.09    -0.342 N  
DOCKED: ATOM      3  C   UNL     1     138.827  71.325 222.849 -0.16 -0.06    +0.270 C  
DOCKED: ATOM      4  O   UNL     1     138.086  70.819 221.942 -0.06 +0.05    -0.268 OA 
DOCKED: ATOM      5  H   UNL     1     139.927  73.054 223.529 -0.32 -0.02    +0.164 HD 
DOCKED: BRANCH   3   6
DOCKED: ATOM      6  C   UNL     1     139.171  70.492 224.002 -0.28 -0.02    +0.128 A  
DOCKED: ATOM      7  C   UNL     1     138.886  69.141 224.018 -0.30 -0.01    +0.035 A  
DOCKED: ATOM      8  N   UNL     1     139.778  70.992 225.095 -0.28 +0.05    -0.243 NA 
DOCKED: ATOM      9  C   UNL     1     139.188  68.314 225.074 -0.43 -0.00    +0.013 A  
DOCKED: ATOM     10  C   UNL     1     140.097  70.210 226.167 -0.47 -0.01    +0.071 A  
DOCKED: ATOM     11  C   UNL     1     139.809  68.859 226.178 -0.53 -0.00    +0.003 A  
DOCKED: ATOM     12  C   UNL     1     140.720  70.744 227.280 -0.64 -0.01    +0.032 A  
DOCKED: ATOM     13  C   UNL     1     140.113  68.031 227.240 -0.62 -0.01    +0.049 A  
DOCKED: ATOM     14  C   UNL     1     141.023  69.913 228.339 -0.53 -0.01    +0.041 A  
DOCKED: ATOM     15  C   UNL     1     140.736  68.564 228.352 -0.56 -0.03    +0.123 A  
DOCKED: ATOM     16  F   UNL     1     141.032  67.747 229.389 -0.16 +0.06    -0.207 F  
DOCKED: ENDBRANCH   3   6
DOCKED: ENDBRANCH   1   2
DOCKED: BRANCH   1  17
DOCKED: ATOM     17  C   UNL     1     139.710  74.749 221.708 -0.20 -0.04    +0.242 C  
DOCKED: ATOM     18  O   UNL     1     140.934  74.745 221.999 -0.64 +0.02    -0.273 OA 
DOCKED: BRANCH  17  19
DOCKED: ATOM     19  N   UNL     1     139.106  76.004 221.469 -0.11 +0.08    -0.334 N  
DOCKED: ATOM     20  C   UNL     1     138.957  76.740 220.212 -0.07 -0.03    +0.120 C  
DOCKED: ATOM     21  C   UNL     1     138.455  76.911 222.441 -0.25 -0.02    +0.115 C  
DOCKED: ATOM     22  C   UNL     1     137.465  76.991 220.251 -0.05 -0.00    +0.024 C  
DOCKED: ATOM     23  C   UNL     1     137.211  77.337 221.697 -0.15 -0.01    +0.032 C  
DOCKED: BRANCH  21  24
DOCKED: ATOM     24  C   UNL     1     139.362  77.995 222.807 -0.28 +0.00    -0.025 A  
DOCKED: ATOM     25  C   UNL     1     139.013  79.255 223.197 -0.35 -0.00    +0.007 A  
DOCKED: ATOM     26  C   UNL     1     140.738  77.730 222.746 -0.44 -0.00    +0.007 A  
DOCKED: ATOM     27  C   UNL     1     139.937  80.243 223.522 -0.43 -0.00    +0.021 A  
DOCKED: ATOM     28  C   UNL     1     141.667  78.720 223.072 -0.55 -0.01    +0.021 A  
DOCKED: ATOM     29  C   UNL     1     141.289  79.982 223.461 -0.52 -0.01    +0.041 A  
DOCKED: ATOM     30  Cl  UNL     1     142.419  81.247 223.877 -0.71 +0.01    -0.084 Cl 
DOCKED: ENDBRANCH  21  24
DOCKED: ENDBRANCH  17  19
DOCKED: ENDBRANCH   1  17
DOCKED: TORSDOF 5
DOCKED: TER
DOCKED: ENDMDL
________________________________________________________________________________


    FINAL DOCKED STATE:
    ________________________


Run:   11 / 20
Time taken for this run:   0.043s

DOCKED: MODEL        11
DOCKED: USER    Run = 11
DOCKED: USER
DOCKED: USER    Estimated Free Energy of Binding    =  -9.15 kcal/mol  [=(1)+(2)+(3)-(4)]
DOCKED: USER
DOCKED: USER    (1) Final Intermolecular Energy     = -10.64 kcal/mol
DOCKED: USER        vdW + Hbond + desolv Energy     = -10.57 kcal/mol
DOCKED: USER        Electrostatic Energy            =  -0.07 kcal/mol
DOCKED: USER        Moving Ligand-Fixed Receptor    = -10.64 kcal/mol
DOCKED: USER        Moving Ligand-Moving Receptor   =  +0.00 kcal/mol
DOCKED: USER    (2) Final Total Internal Energy     =  -1.37 kcal/mol
DOCKED: USER    (3) Torsional Free Energy           =  +1.49 kcal/mol
DOCKED: USER    (4) Unbound System's Energy         =  -1.37 kcal/mol
DOCKED: USER
DOCKED: USER
DOCKED: REMARK SMILES O=C(NCC(=O)N1CCC[C@@H]1c1ccc(Cl)cc1)c1ccc2cc(F)ccc2n1
DOCKED: REMARK SMILES IDX 4 1 3 2 2 3 1 4 19 6 20 7 29 8 21 9 28 10 22 11 27 12 23 13
DOCKED: REMARK SMILES IDX 26 14 24 15 25 16 5 17 6 18 7 19 8 20 11 21 9 22 10 23 12 24
DOCKED: REMARK SMILES IDX 13 25 18 26 14 27 17 28 15 29 16 30
DOCKED: REMARK H PARENT 3 5
DOCKED: USER                              x       y       z     vdW  Elec       q    Type
DOCKED: USER                           _______ _______ _______ _____ _____    ______ ____
DOCKED: ROOT
DOCKED: ATOM      1  C   UNL     1     138.815  73.745 221.208 -0.12 -0.05    +0.216 C  
DOCKED: ENDROOT
DOCKED: BRANCH   1   2
DOCKED: ATOM      2  N   UNL     1     138.829  72.874 222.374 -0.07 +0.10    -0.342 N  
DOCKED: ATOM      3  C   UNL     1     139.956  72.058 222.608 -0.21 -0.04    +0.270 C  
DOCKED: ATOM      4  O   UNL     1     140.970  72.052 221.835 -0.20 +0.03    -0.268 OA 
DOCKED: ATOM      5  H   UNL     1     137.997  72.873 223.016 -0.42 -0.09    +0.164 HD 
DOCKED: BRANCH   3   6
DOCKED: ATOM      6  C   UNL     1     139.976  71.180 223.779 -0.33 -0.02    +0.128 A  
DOCKED: ATOM      7  C   UNL     1     139.443  69.908 223.726 -0.27 -0.01    +0.035 A  
DOCKED: ATOM      8  N   UNL     1     140.508  71.561 224.956 -0.32 +0.04    -0.243 NA 
DOCKED: ATOM      9  C   UNL     1     139.435  69.043 224.795 -0.37 -0.00    +0.013 A  
DOCKED: ATOM     10  C   UNL     1     140.524  70.737 226.044 -0.53 -0.01    +0.071 A  
DOCKED: ATOM     11  C   UNL     1     139.988  69.465 225.985 -0.49 -0.00    +0.003 A  
DOCKED: ATOM     12  C   UNL     1     141.076  71.149 227.243 -0.69 -0.01    +0.032 A  
DOCKED: ATOM     13  C   UNL     1     139.983  68.598 227.060 -0.59 -0.01    +0.049 A  
DOCKED: ATOM     14  C   UNL     1     141.069  70.280 228.314 -0.53 -0.01    +0.041 A  
DOCKED: ATOM     15  C   UNL     1     140.535  69.010 228.258 -0.54 -0.02    +0.123 A  
DOCKED: ATOM     16  F   UNL     1     140.526  68.155 229.308 -0.12 +0.05    -0.207 F  
DOCKED: ENDBRANCH   3   6
DOCKED: ENDBRANCH   1   2
DOCKED: BRANCH   1  17
DOCKED: ATOM     17  C   UNL     1     139.245  75.103 221.611 -0.19 -0.05    +0.242 C  
DOCKED: ATOM     18  O   UNL     1     138.528  75.777 222.394 -0.25 +0.07    -0.273 OA 
DOCKED: BRANCH  17  19
DOCKED: ATOM     19  N   UNL     1     140.443  75.699 221.157 -0.14 +0.09    -0.334 N  
DOCKED: ATOM     20  C   UNL     1     141.816  75.194 221.224 -0.16 -0.04    +0.120 C  
DOCKED: ATOM     21  C   UNL     1     140.624  77.004 220.481 -0.18 -0.04    +0.115 C  
DOCKED: ATOM     22  C   UNL     1     142.201  75.336 219.767 -0.26 -0.01    +0.024 C  
DOCKED: ATOM     23  C   UNL     1     141.596  76.662 219.377 -0.21 -0.01    +0.032 C  
DOCKED: BRANCH  21  24
DOCKED: ATOM     24  C   UNL     1     141.092  78.005 221.435 -0.33 +0.01    -0.025 A  
DOCKED: ATOM     25  C   UNL     1     141.047  77.920 222.796 -0.48 -0.00    +0.007 A  
DOCKED: ATOM     26  C   UNL     1     141.640  79.186 220.912 -0.34 -0.00    +0.007 A  
DOCKED: ATOM     27  C   UNL     1     141.505  78.922 223.645 -0.59 -0.01    +0.021 A  
DOCKED: ATOM     28  C   UNL     1     142.100  80.192 221.762 -0.46 -0.01    +0.021 A  
DOCKED: ATOM     29  C   UNL     1     142.042  80.082 223.130 -0.58 -0.01    +0.041 A  
DOCKED: ATOM     30  Cl  UNL     1     142.607  81.318 224.226 -0.60 +0.01    -0.084 Cl 
DOCKED: ENDBRANCH  21  24
DOCKED: ENDBRANCH  17  19
DOCKED: ENDBRANCH   1  17
DOCKED: TORSDOF 5
DOCKED: TER
DOCKED: ENDMDL
________________________________________________________________________________


    FINAL DOCKED STATE:
    ________________________


Run:   12 / 20
Time taken for this run:   0.043s

DOCKED: MODEL        12
DOCKED: USER    Run = 12
DOCKED: USER
DOCKED: USER    Estimated Free Energy of Binding    =  -9.14 kcal/mol  [=(1)+(2)+(3)-(4)]
DOCKED: USER
DOCKED: USER    (1) Final Intermolecular Energy     = -10.63 kcal/mol
DOCKED: USER        vdW + Hbond + desolv Energy     = -10.57 kcal/mol
DOCKED: USER        Electrostatic Energy            =  -0.06 kcal/mol
DOCKED: USER        Moving Ligand-Fixed Receptor    = -10.63 kcal/mol
DOCKED: USER        Moving Ligand-Moving Receptor   =  +0.00 kcal/mol
DOCKED: USER    (2) Final Total Internal Energy     =  -1.31 kcal/mol
DOCKED: USER    (3) Torsional Free Energy           =  +1.49 kcal/mol
DOCKED: USER    (4) Unbound System's Energy         =  -1.31 kcal/mol
DOCKED: USER
DOCKED: USER
DOCKED: REMARK SMILES O=C(NCC(=O)N1CCC[C@@H]1c1ccc(Cl)cc1)c1ccc2cc(F)ccc2n1
DOCKED: REMARK SMILES IDX 4 1 3 2 2 3 1 4 19 6 20 7 29 8 21 9 28 10 22 11 27 12 23 13
DOCKED: REMARK SMILES IDX 26 14 24 15 25 16 5 17 6 18 7 19 8 20 11 21 9 22 10 23 12 24
DOCKED: REMARK SMILES IDX 13 25 18 26 14 27 17 28 15 29 16 30
DOCKED: REMARK H PARENT 3 5
DOCKED: USER                              x       y       z     vdW  Elec       q    Type
DOCKED: USER                           _______ _______ _______ _____ _____    ______ ____
DOCKED: ROOT
DOCKED: ATOM      1  C   UNL     1     139.967  74.491 221.087 -0.18 -0.04    +0.216 C  
DOCKED: ENDROOT
DOCKED: BRANCH   1   2
DOCKED: ATOM      2  N   UNL     1     139.866  73.674 222.287 -0.11 +0.03    -0.342 N  
DOCKED: ATOM      3  C   UNL     1     140.199  72.306 222.216 -0.20 -0.04    +0.270 C  
DOCKED: ATOM      4  O   UNL     1     140.588  71.750 221.137 -0.11 +0.04    -0.268 OA 
DOCKED: ATOM      5  H   UNL     1     139.546  74.124 223.182 -0.51 -0.02    +0.164 HD 
DOCKED: BRANCH   3   6
DOCKED: ATOM      6  C   UNL     1     140.099  71.479 223.420 -0.32 -0.02    +0.128 A  
DOCKED: ATOM      7  C   UNL     1     139.488  70.241 223.387 -0.27 -0.01    +0.035 A  
DOCKED: ATOM      8  N   UNL     1     140.591  71.876 224.609 -0.26 +0.03    -0.243 NA 
DOCKED: ATOM      9  C   UNL     1     139.367  69.425 224.487 -0.34 -0.00    +0.013 A  
DOCKED: ATOM     10  C   UNL     1     140.495  71.099 225.728 -0.53 -0.01    +0.071 A  
DOCKED: ATOM     11  C   UNL     1     139.882  69.862 225.688 -0.47 -0.00    +0.003 A  
DOCKED: ATOM     12  C   UNL     1     141.007  71.527 226.939 -0.72 -0.01    +0.032 A  
DOCKED: ATOM     13  C   UNL     1     139.762  69.044 226.795 -0.52 -0.01    +0.049 A  
DOCKED: ATOM     14  C   UNL     1     140.885  70.707 228.041 -0.63 -0.01    +0.041 A  
DOCKED: ATOM     15  C   UNL     1     140.274  69.471 228.005 -0.52 -0.02    +0.123 A  
DOCKED: ATOM     16  F   UNL     1     140.153  68.665 229.085 -0.14 +0.04    -0.207 F  
DOCKED: ENDBRANCH   3   6
DOCKED: ENDBRANCH   1   2
DOCKED: BRANCH   1  17
DOCKED: ATOM     17  C   UNL     1     141.390  74.821 220.843 -0.20 -0.07    +0.242 C  
DOCKED: ATOM     18  O   UNL     1     142.288  74.023 221.217 -0.19 +0.05    -0.273 OA 
DOCKED: BRANCH  17  19
DOCKED: ATOM     19  N   UNL     1     141.806  76.008 220.199 -0.12 +0.15    -0.334 N  
DOCKED: ATOM     20  C   UNL     1     143.098  76.331 219.590 -0.32 -0.08    +0.120 C  
DOCKED: ATOM     21  C   UNL     1     141.033  77.249 219.965 -0.18 -0.05    +0.115 C  
DOCKED: ATOM     22  C   UNL     1     142.620  76.774 218.223 -0.28 -0.01    +0.024 C  
DOCKED: ATOM     23  C   UNL     1     141.385  77.581 218.534 -0.17 -0.02    +0.032 C  
DOCKED: BRANCH  21  24
DOCKED: ATOM     24  C   UNL     1     141.399  78.264 220.948 -0.32 +0.01    -0.025 A  
DOCKED: ATOM     25  C   UNL     1     141.825  79.534 220.688 -0.33 -0.00    +0.007 A  
DOCKED: ATOM     26  C   UNL     1     141.318  77.908 222.302 -0.40 -0.00    +0.007 A  
DOCKED: ATOM     27  C   UNL     1     142.168  80.448 221.680 -0.45 -0.01    +0.021 A  
DOCKED: ATOM     28  C   UNL     1     141.661  78.824 223.298 -0.57 -0.01    +0.021 A  
DOCKED: ATOM     29  C   UNL     1     142.089  80.097 223.010 -0.58 -0.01    +0.041 A  
DOCKED: ATOM     30  Cl  UNL     1     142.527  81.271 224.227 -0.62 +0.01    -0.084 Cl 
DOCKED: ENDBRANCH  21  24
DOCKED: ENDBRANCH  17  19
DOCKED: ENDBRANCH   1  17
DOCKED: TORSDOF 5
DOCKED: TER
DOCKED: ENDMDL
________________________________________________________________________________


    FINAL DOCKED STATE:
    ________________________


Run:   13 / 20
Time taken for this run:   0.043s

DOCKED: MODEL        13
DOCKED: USER    Run = 13
DOCKED: USER
DOCKED: USER    Estimated Free Energy of Binding    =  -9.00 kcal/mol  [=(1)+(2)+(3)-(4)]
DOCKED: USER
DOCKED: USER    (1) Final Intermolecular Energy     = -10.49 kcal/mol
DOCKED: USER        vdW + Hbond + desolv Energy     = -10.44 kcal/mol
DOCKED: USER        Electrostatic Energy            =  -0.06 kcal/mol
DOCKED: USER        Moving Ligand-Fixed Receptor    = -10.49 kcal/mol
DOCKED: USER        Moving Ligand-Moving Receptor   =  +0.00 kcal/mol
DOCKED: USER    (2) Final Total Internal Energy     =  -1.64 kcal/mol
DOCKED: USER    (3) Torsional Free Energy           =  +1.49 kcal/mol
DOCKED: USER    (4) Unbound System's Energy         =  -1.64 kcal/mol
DOCKED: USER
DOCKED: USER
DOCKED: REMARK SMILES O=C(NCC(=O)N1CCC[C@@H]1c1ccc(Cl)cc1)c1ccc2cc(F)ccc2n1
DOCKED: REMARK SMILES IDX 4 1 3 2 2 3 1 4 19 6 20 7 29 8 21 9 28 10 22 11 27 12 23 13
DOCKED: REMARK SMILES IDX 26 14 24 15 25 16 5 17 6 18 7 19 8 20 11 21 9 22 10 23 12 24
DOCKED: REMARK SMILES IDX 13 25 18 26 14 27 17 28 15 29 16 30
DOCKED: REMARK H PARENT 3 5
DOCKED: USER                              x       y       z     vdW  Elec       q    Type
DOCKED: USER                           _______ _______ _______ _____ _____    ______ ____
DOCKED: ROOT
DOCKED: ATOM      1  C   UNL     1     139.832  73.550 221.251 -0.17 -0.04    +0.216 C  
DOCKED: ENDROOT
DOCKED: BRANCH   1   2
DOCKED: ATOM      2  N   UNL     1     139.795  72.787 222.490 -0.15 +0.06    -0.342 N  
DOCKED: ATOM      3  C   UNL     1     140.018  71.394 222.445 -0.18 -0.04    +0.270 C  
DOCKED: ATOM      4  O   UNL     1     140.252  70.773 221.356 -0.10 +0.04    -0.268 OA 
DOCKED: ATOM      5  H   UNL     1     139.603  73.291 223.391 -0.42 -0.05    +0.164 HD 
DOCKED: BRANCH   3   6
DOCKED: ATOM      6  C   UNL     1     139.982  70.621 223.687 -0.26 -0.02    +0.128 A  
DOCKED: ATOM      7  C   UNL     1     139.383  69.378 223.736 -0.24 -0.01    +0.035 A  
DOCKED: ATOM      8  N   UNL     1     140.524  71.074 224.833 -0.31 +0.04    -0.243 NA 
DOCKED: ATOM      9  C   UNL     1     139.321  68.610 224.875 -0.39 -0.00    +0.013 A  
DOCKED: ATOM     10  C   UNL     1     140.488  70.347 225.988 -0.49 -0.01    +0.071 A  
DOCKED: ATOM     11  C   UNL     1     139.886  69.104 226.032 -0.50 -0.00    +0.003 A  
DOCKED: ATOM     12  C   UNL     1     141.051  70.832 227.154 -0.63 -0.01    +0.032 A  
DOCKED: ATOM     13  C   UNL     1     139.826  68.336 227.177 -0.59 -0.01    +0.049 A  
DOCKED: ATOM     14  C   UNL     1     140.989  70.061 228.296 -0.53 -0.01    +0.041 A  
DOCKED: ATOM     15  C   UNL     1     140.389  68.820 228.342 -0.55 -0.02    +0.123 A  
DOCKED: ATOM     16  F   UNL     1     140.327  68.061 229.461 -0.09 +0.05    -0.207 F  
DOCKED: ENDBRANCH   3   6
DOCKED: ENDBRANCH   1   2
DOCKED: BRANCH   1  17
DOCKED: ATOM     17  C   UNL     1     139.976  74.988 221.572 -0.22 -0.04    +0.242 C  
DOCKED: ATOM     18  O   UNL     1     139.307  75.487 222.513 -0.46 +0.05    -0.273 OA 
DOCKED: BRANCH  17  19
DOCKED: ATOM     19  N   UNL     1     140.843  75.852 220.865 -0.12 +0.11    -0.334 N  
DOCKED: ATOM     20  C   UNL     1     142.237  75.649 220.468 -0.21 -0.06    +0.120 C  
DOCKED: ATOM     21  C   UNL     1     140.561  77.205 220.332 -0.16 -0.04    +0.115 C  
DOCKED: ATOM     22  C   UNL     1     142.118  75.957 218.991 -0.22 -0.01    +0.024 C  
DOCKED: ATOM     23  C   UNL     1     141.189  77.145 218.959 -0.16 -0.01    +0.032 C  
DOCKED: BRANCH  21  24
DOCKED: ATOM     24  C   UNL     1     141.108  78.223 221.223 -0.31 +0.01    -0.025 A  
DOCKED: ATOM     25  C   UNL     1     141.699  79.397 220.855 -0.34 -0.00    +0.007 A  
DOCKED: ATOM     26  C   UNL     1     141.035  77.978 222.602 -0.47 -0.00    +0.007 A  
DOCKED: ATOM     27  C   UNL     1     142.209  80.319 221.763 -0.46 -0.01    +0.021 A  
DOCKED: ATOM     28  C   UNL     1     141.545  78.902 223.515 -0.58 -0.01    +0.021 A  
DOCKED: ATOM     29  C   UNL     1     142.137  80.077 223.118 -0.59 -0.01    +0.041 A  
DOCKED: ATOM     30  Cl  UNL     1     142.787  81.258 224.229 -0.53 +0.01    -0.084 Cl 
DOCKED: ENDBRANCH  21  24
DOCKED: ENDBRANCH  17  19
DOCKED: ENDBRANCH   1  17
DOCKED: TORSDOF 5
DOCKED: TER
DOCKED: ENDMDL
________________________________________________________________________________


    FINAL DOCKED STATE:
    ________________________


Run:   14 / 20
Time taken for this run:   0.043s

DOCKED: MODEL        14
DOCKED: USER    Run = 14
DOCKED: USER
DOCKED: USER    Estimated Free Energy of Binding    =  -8.98 kcal/mol  [=(1)+(2)+(3)-(4)]
DOCKED: USER
DOCKED: USER    (1) Final Intermolecular Energy     = -10.47 kcal/mol
DOCKED: USER        vdW + Hbond + desolv Energy     = -10.43 kcal/mol
DOCKED: USER        Electrostatic Energy            =  -0.04 kcal/mol
DOCKED: USER        Moving Ligand-Fixed Receptor    = -10.47 kcal/mol
DOCKED: USER        Moving Ligand-Moving Receptor   =  +0.00 kcal/mol
DOCKED: USER    (2) Final Total Internal Energy     =  -1.67 kcal/mol
DOCKED: USER    (3) Torsional Free Energy           =  +1.49 kcal/mol
DOCKED: USER    (4) Unbound System's Energy         =  -1.67 kcal/mol
DOCKED: USER
DOCKED: USER
DOCKED: REMARK SMILES O=C(NCC(=O)N1CCC[C@@H]1c1ccc(Cl)cc1)c1ccc2cc(F)ccc2n1
DOCKED: REMARK SMILES IDX 4 1 3 2 2 3 1 4 19 6 20 7 29 8 21 9 28 10 22 11 27 12 23 13
DOCKED: REMARK SMILES IDX 26 14 24 15 25 16 5 17 6 18 7 19 8 20 11 21 9 22 10 23 12 24
DOCKED: REMARK SMILES IDX 13 25 18 26 14 27 17 28 15 29 16 30
DOCKED: REMARK H PARENT 3 5
DOCKED: USER                              x       y       z     vdW  Elec       q    Type
DOCKED: USER                           _______ _______ _______ _____ _____    ______ ____
DOCKED: ROOT
DOCKED: ATOM      1  C   UNL     1     139.861  73.494 221.341 -0.18 -0.04    +0.216 C  
DOCKED: ENDROOT
DOCKED: BRANCH   1   2
DOCKED: ATOM      2  N   UNL     1     139.857  72.714 222.569 -0.16 +0.05    -0.342 N  
DOCKED: ATOM      3  C   UNL     1     139.948  71.308 222.490 -0.18 -0.04    +0.270 C  
DOCKED: ATOM      4  O   UNL     1     140.031  70.689 221.379 -0.10 +0.04    -0.268 OA 
DOCKED: ATOM      5  H   UNL     1     139.789  73.216 223.489 -0.38 -0.03    +0.164 HD 
DOCKED: BRANCH   3   6
DOCKED: ATOM      6  C   UNL     1     139.944  70.518 223.722 -0.26 -0.02    +0.128 A  
DOCKED: ATOM      7  C   UNL     1     139.361  69.267 223.766 -0.24 -0.01    +0.035 A  
DOCKED: ATOM      8  N   UNL     1     140.503  70.963 224.864 -0.30 +0.04    -0.243 NA 
DOCKED: ATOM      9  C   UNL     1     139.330  68.484 224.896 -0.39 -0.00    +0.013 A  
DOCKED: ATOM     10  C   UNL     1     140.498  70.220 226.009 -0.49 -0.01    +0.071 A  
DOCKED: ATOM     11  C   UNL     1     139.912  68.969 226.048 -0.51 -0.00    +0.003 A  
DOCKED: ATOM     12  C   UNL     1     141.077  70.696 227.171 -0.61 -0.01    +0.032 A  
DOCKED: ATOM     13  C   UNL     1     139.883  68.185 227.184 -0.61 -0.01    +0.049 A  
DOCKED: ATOM     14  C   UNL     1     141.046  69.909 228.303 -0.53 -0.01    +0.041 A  
DOCKED: ATOM     15  C   UNL     1     140.463  68.660 228.344 -0.55 -0.03    +0.123 A  
DOCKED: ATOM     16  F   UNL     1     140.431  67.886 229.454 -0.09 +0.05    -0.207 F  
DOCKED: ENDBRANCH   3   6
DOCKED: ENDBRANCH   1   2
DOCKED: BRANCH   1  17
DOCKED: ATOM     17  C   UNL     1     140.016  74.927 221.676 -0.21 -0.04    +0.242 C  
DOCKED: ATOM     18  O   UNL     1     139.409  75.404 222.670 -0.50 +0.04    -0.273 OA 
DOCKED: BRANCH  17  19
DOCKED: ATOM     19  N   UNL     1     140.826  75.811 220.928 -0.13 +0.11    -0.334 N  
DOCKED: ATOM     20  C   UNL     1     142.202  75.638 220.457 -0.22 -0.06    +0.120 C  
DOCKED: ATOM     21  C   UNL     1     140.489  77.158 220.415 -0.16 -0.04    +0.115 C  
DOCKED: ATOM     22  C   UNL     1     141.999  75.947 218.990 -0.20 -0.01    +0.024 C  
DOCKED: ATOM     23  C   UNL     1     141.045  77.115 219.011 -0.14 -0.01    +0.032 C  
DOCKED: BRANCH  21  24
DOCKED: ATOM     24  C   UNL     1     141.061  78.186 221.280 -0.31 +0.01    -0.025 A  
DOCKED: ATOM     25  C   UNL     1     141.643  79.354 220.882 -0.34 -0.00    +0.007 A  
DOCKED: ATOM     26  C   UNL     1     141.024  77.957 222.663 -0.48 -0.00    +0.007 A  
DOCKED: ATOM     27  C   UNL     1     142.179  80.286 221.767 -0.46 -0.01    +0.021 A  
DOCKED: ATOM     28  C   UNL     1     141.560  78.890 223.551 -0.59 -0.01    +0.021 A  
DOCKED: ATOM     29  C   UNL     1     142.142  80.059 223.126 -0.59 -0.01    +0.041 A  
DOCKED: ATOM     30  Cl  UNL     1     142.824  81.251 224.205 -0.53 +0.01    -0.084 Cl 
DOCKED: ENDBRANCH  21  24
DOCKED: ENDBRANCH  17  19
DOCKED: ENDBRANCH   1  17
DOCKED: TORSDOF 5
DOCKED: TER
DOCKED: ENDMDL
________________________________________________________________________________


    FINAL DOCKED STATE:
    ________________________


Run:   15 / 20
Time taken for this run:   0.043s

DOCKED: MODEL        15
DOCKED: USER    Run = 15
DOCKED: USER
DOCKED: USER    Estimated Free Energy of Binding    =  -8.98 kcal/mol  [=(1)+(2)+(3)-(4)]
DOCKED: USER
DOCKED: USER    (1) Final Intermolecular Energy     = -10.47 kcal/mol
DOCKED: USER        vdW + Hbond + desolv Energy     = -10.43 kcal/mol
DOCKED: USER        Electrostatic Energy            =  -0.04 kcal/mol
DOCKED: USER        Moving Ligand-Fixed Receptor    = -10.47 kcal/mol
DOCKED: USER        Moving Ligand-Moving Receptor   =  +0.00 kcal/mol
DOCKED: USER    (2) Final Total Internal Energy     =  -1.66 kcal/mol
DOCKED: USER    (3) Torsional Free Energy           =  +1.49 kcal/mol
DOCKED: USER    (4) Unbound System's Energy         =  -1.66 kcal/mol
DOCKED: USER
DOCKED: USER
DOCKED: REMARK SMILES O=C(NCC(=O)N1CCC[C@@H]1c1ccc(Cl)cc1)c1ccc2cc(F)ccc2n1
DOCKED: REMARK SMILES IDX 4 1 3 2 2 3 1 4 19 6 20 7 29 8 21 9 28 10 22 11 27 12 23 13
DOCKED: REMARK SMILES IDX 26 14 24 15 25 16 5 17 6 18 7 19 8 20 11 21 9 22 10 23 12 24
DOCKED: REMARK SMILES IDX 13 25 18 26 14 27 17 28 15 29 16 30
DOCKED: REMARK H PARENT 3 5
DOCKED: USER                              x       y       z     vdW  Elec       q    Type
DOCKED: USER                           _______ _______ _______ _____ _____    ______ ____
DOCKED: ROOT
DOCKED: ATOM      1  C   UNL     1     139.819  73.464 221.342 -0.17 -0.04    +0.216 C  
DOCKED: ENDROOT
DOCKED: BRANCH   1   2
DOCKED: ATOM      2  N   UNL     1     139.816  72.682 222.569 -0.16 +0.06    -0.342 N  
DOCKED: ATOM      3  C   UNL     1     139.899  71.276 222.488 -0.18 -0.04    +0.270 C  
DOCKED: ATOM      4  O   UNL     1     139.976  70.658 221.376 -0.09 +0.04    -0.268 OA 
DOCKED: ATOM      5  H   UNL     1     139.753  73.184 223.490 -0.37 -0.04    +0.164 HD 
DOCKED: BRANCH   3   6
DOCKED: ATOM      6  C   UNL     1     139.897  70.484 223.719 -0.26 -0.02    +0.128 A  
DOCKED: ATOM      7  C   UNL     1     139.303  69.240 223.766 -0.25 -0.01    +0.035 A  
DOCKED: ATOM      8  N   UNL     1     140.467  70.923 224.858 -0.30 +0.04    -0.243 NA 
DOCKED: ATOM      9  C   UNL     1     139.272  68.455 224.895 -0.40 -0.00    +0.013 A  
DOCKED: ATOM     10  C   UNL     1     140.462  70.179 226.002 -0.48 -0.01    +0.071 A  
DOCKED: ATOM     11  C   UNL     1     139.865  68.934 226.043 -0.52 -0.00    +0.003 A  
DOCKED: ATOM     12  C   UNL     1     141.054  70.648 227.161 -0.61 -0.01    +0.032 A  
DOCKED: ATOM     13  C   UNL     1     139.836  68.148 227.178 -0.60 -0.01    +0.049 A  
DOCKED: ATOM     14  C   UNL     1     141.023  69.860 228.292 -0.54 -0.01    +0.041 A  
DOCKED: ATOM     15  C   UNL     1     140.428  68.617 228.336 -0.55 -0.03    +0.123 A  
DOCKED: ATOM     16  F   UNL     1     140.396  67.842 229.445 -0.08 +0.05    -0.207 F  
DOCKED: ENDBRANCH   3   6
DOCKED: ENDBRANCH   1   2
DOCKED: BRANCH   1  17
DOCKED: ATOM     17  C   UNL     1     139.986  74.896 221.678 -0.21 -0.04    +0.242 C  
DOCKED: ATOM     18  O   UNL     1     139.373  75.380 222.665 -0.50 +0.05    -0.273 OA 
DOCKED: BRANCH  17  19
DOCKED: ATOM     19  N   UNL     1     140.813  75.770 220.938 -0.13 +0.10    -0.334 N  
DOCKED: ATOM     20  C   UNL     1     142.196  75.588 220.494 -0.21 -0.06    +0.120 C  
DOCKED: ATOM     21  C   UNL     1     140.491  77.115 220.409 -0.16 -0.04    +0.115 C  
DOCKED: ATOM     22  C   UNL     1     142.022  75.887 219.021 -0.21 -0.01    +0.024 C  
DOCKED: ATOM     23  C   UNL     1     141.072  77.059 219.016 -0.14 -0.01    +0.032 C  
DOCKED: BRANCH  21  24
DOCKED: ATOM     24  C   UNL     1     141.052  78.147 221.276 -0.31 +0.01    -0.025 A  
DOCKED: ATOM     25  C   UNL     1     141.654  79.306 220.881 -0.34 -0.00    +0.007 A  
DOCKED: ATOM     26  C   UNL     1     140.980  77.933 222.661 -0.47 -0.00    +0.007 A  
DOCKED: ATOM     27  C   UNL     1     142.177  80.242 221.768 -0.46 -0.01    +0.021 A  
DOCKED: ATOM     28  C   UNL     1     141.504  78.871 223.552 -0.58 -0.01    +0.021 A  
DOCKED: ATOM     29  C   UNL     1     142.106  80.030 223.128 -0.59 -0.01    +0.041 A  
DOCKED: ATOM     30  Cl  UNL     1     142.773  81.227 224.211 -0.56 +0.01    -0.084 Cl 
DOCKED: ENDBRANCH  21  24
DOCKED: ENDBRANCH  17  19
DOCKED: ENDBRANCH   1  17
DOCKED: TORSDOF 5
DOCKED: TER
DOCKED: ENDMDL
________________________________________________________________________________


    FINAL DOCKED STATE:
    ________________________


Run:   16 / 20
Time taken for this run:   0.043s

DOCKED: MODEL        16
DOCKED: USER    Run = 16
DOCKED: USER
DOCKED: USER    Estimated Free Energy of Binding    =  -8.87 kcal/mol  [=(1)+(2)+(3)-(4)]
DOCKED: USER
DOCKED: USER    (1) Final Intermolecular Energy     = -10.36 kcal/mol
DOCKED: USER        vdW + Hbond + desolv Energy     = -10.35 kcal/mol
DOCKED: USER        Electrostatic Energy            =  -0.01 kcal/mol
DOCKED: USER        Moving Ligand-Fixed Receptor    = -10.36 kcal/mol
DOCKED: USER        Moving Ligand-Moving Receptor   =  +0.00 kcal/mol
DOCKED: USER    (2) Final Total Internal Energy     =  -1.55 kcal/mol
DOCKED: USER    (3) Torsional Free Energy           =  +1.49 kcal/mol
DOCKED: USER    (4) Unbound System's Energy         =  -1.55 kcal/mol
DOCKED: USER
DOCKED: USER
DOCKED: REMARK SMILES O=C(NCC(=O)N1CCC[C@@H]1c1ccc(Cl)cc1)c1ccc2cc(F)ccc2n1
DOCKED: REMARK SMILES IDX 4 1 3 2 2 3 1 4 19 6 20 7 29 8 21 9 28 10 22 11 27 12 23 13
DOCKED: REMARK SMILES IDX 26 14 24 15 25 16 5 17 6 18 7 19 8 20 11 21 9 22 10 23 12 24
DOCKED: REMARK SMILES IDX 13 25 18 26 14 27 17 28 15 29 16 30
DOCKED: REMARK H PARENT 3 5
DOCKED: USER                              x       y       z     vdW  Elec       q    Type
DOCKED: USER                           _______ _______ _______ _____ _____    ______ ____
DOCKED: ROOT
DOCKED: ATOM      1  C   UNL     1     139.068  73.454 221.556 -0.16 -0.05    +0.216 C  
DOCKED: ENDROOT
DOCKED: BRANCH   1   2
DOCKED: ATOM      2  N   UNL     1     139.363  72.644 222.729 -0.10 +0.09    -0.342 N  
DOCKED: ATOM      3  C   UNL     1     139.047  71.270 222.711 -0.16 -0.06    +0.270 C  
DOCKED: ATOM      4  O   UNL     1     138.509  70.703 221.704 -0.06 +0.05    -0.268 OA 
DOCKED: ATOM      5  H   UNL     1     139.807  73.103 223.564 -0.34 -0.03    +0.164 HD 
DOCKED: BRANCH   3   6
DOCKED: ATOM      6  C   UNL     1     139.342  70.450 223.888 -0.27 -0.02    +0.128 A  
DOCKED: ATOM      7  C   UNL     1     139.000  69.113 223.930 -0.29 -0.01    +0.035 A  
DOCKED: ATOM      8  N   UNL     1     139.953  70.950 224.978 -0.29 +0.04    -0.243 NA 
DOCKED: ATOM      9  C   UNL     1     139.253  68.299 225.009 -0.42 -0.00    +0.013 A  
DOCKED: ATOM     10  C   UNL     1     140.225  70.180 226.072 -0.47 -0.01    +0.071 A  
DOCKED: ATOM     11  C   UNL     1     139.881  68.843 226.109 -0.53 -0.00    +0.003 A  
DOCKED: ATOM     12  C   UNL     1     140.854  70.715 227.182 -0.63 -0.01    +0.032 A  
DOCKED: ATOM     13  C   UNL     1     140.136  68.028 227.194 -0.62 -0.01    +0.049 A  
DOCKED: ATOM     14  C   UNL     1     141.108  69.896 228.263 -0.52 -0.01    +0.041 A  
DOCKED: ATOM     15  C   UNL     1     140.765  68.561 228.302 -0.56 -0.03    +0.123 A  
DOCKED: ATOM     16  F   UNL     1     141.013  67.757 229.362 -0.16 +0.06    -0.207 F  
DOCKED: ENDBRANCH   3   6
DOCKED: ENDBRANCH   1   2
DOCKED: BRANCH   1  17
DOCKED: ATOM     17  C   UNL     1     139.846  74.712 221.626 -0.21 -0.04    +0.242 C  
DOCKED: ATOM     18  O   UNL     1     141.063  74.675 221.944 -0.62 +0.02    -0.273 OA 
DOCKED: BRANCH  17  19
DOCKED: ATOM     19  N   UNL     1     139.288  75.980 221.349 -0.10 +0.08    -0.334 N  
DOCKED: ATOM     20  C   UNL     1     139.237  76.718 220.086 -0.07 -0.03    +0.120 C  
DOCKED: ATOM     21  C   UNL     1     138.596  76.903 222.277 -0.26 -0.02    +0.115 C  
DOCKED: ATOM     22  C   UNL     1     137.752  77.003 220.028 -0.04 -0.01    +0.024 C  
DOCKED: ATOM     23  C   UNL     1     137.412  77.356 221.455 -0.13 -0.01    +0.032 C  
DOCKED: BRANCH  21  24
DOCKED: ATOM     24  C   UNL     1     139.502  77.966 222.701 -0.32 +0.00    -0.025 A  
DOCKED: ATOM     25  C   UNL     1     139.155  79.225 223.096 -0.35 -0.00    +0.007 A  
DOCKED: ATOM     26  C   UNL     1     140.875  77.680 222.698 -0.45 -0.00    +0.007 A  
DOCKED: ATOM     27  C   UNL     1     140.078  80.193 223.479 -0.44 -0.00    +0.021 A  
DOCKED: ATOM     28  C   UNL     1     141.803  78.650 223.082 -0.55 -0.01    +0.021 A  
DOCKED: ATOM     29  C   UNL     1     141.427  79.911 223.475 -0.54 -0.01    +0.041 A  
DOCKED: ATOM     30  Cl  UNL     1     142.556  81.151 223.962 -0.70 +0.01    -0.084 Cl 
DOCKED: ENDBRANCH  21  24
DOCKED: ENDBRANCH  17  19
DOCKED: ENDBRANCH   1  17
DOCKED: TORSDOF 5
DOCKED: TER
DOCKED: ENDMDL
________________________________________________________________________________


    FINAL DOCKED STATE:
    ________________________


Run:   17 / 20
Time taken for this run:   0.043s

DOCKED: MODEL        17
DOCKED: USER    Run = 17
DOCKED: USER
DOCKED: USER    Estimated Free Energy of Binding    =  -8.94 kcal/mol  [=(1)+(2)+(3)-(4)]
DOCKED: USER
DOCKED: USER    (1) Final Intermolecular Energy     = -10.43 kcal/mol
DOCKED: USER        vdW + Hbond + desolv Energy     = -10.41 kcal/mol
DOCKED: USER        Electrostatic Energy            =  -0.02 kcal/mol
DOCKED: USER        Moving Ligand-Fixed Receptor    = -10.43 kcal/mol
DOCKED: USER        Moving Ligand-Moving Receptor   =  +0.00 kcal/mol
DOCKED: USER    (2) Final Total Internal Energy     =  -1.67 kcal/mol
DOCKED: USER    (3) Torsional Free Energy           =  +1.49 kcal/mol
DOCKED: USER    (4) Unbound System's Energy         =  -1.67 kcal/mol
DOCKED: USER
DOCKED: USER
DOCKED: REMARK SMILES O=C(NCC(=O)N1CCC[C@@H]1c1ccc(Cl)cc1)c1ccc2cc(F)ccc2n1
DOCKED: REMARK SMILES IDX 4 1 3 2 2 3 1 4 19 6 20 7 29 8 21 9 28 10 22 11 27 12 23 13
DOCKED: REMARK SMILES IDX 26 14 24 15 25 16 5 17 6 18 7 19 8 20 11 21 9 22 10 23 12 24
DOCKED: REMARK SMILES IDX 13 25 18 26 14 27 17 28 15 29 16 30
DOCKED: REMARK H PARENT 3 5
DOCKED: USER                              x       y       z     vdW  Elec       q    Type
DOCKED: USER                           _______ _______ _______ _____ _____    ______ ____
DOCKED: ROOT
DOCKED: ATOM      1  C   UNL     1     139.875  73.461 221.373 -0.18 -0.04    +0.216 C  
DOCKED: ENDROOT
DOCKED: BRANCH   1   2
DOCKED: ATOM      2  N   UNL     1     139.905  72.677 222.599 -0.17 +0.05    -0.342 N  
DOCKED: ATOM      3  C   UNL     1     139.839  71.271 222.516 -0.18 -0.04    +0.270 C  
DOCKED: ATOM      4  O   UNL     1     139.750  70.653 221.405 -0.09 +0.04    -0.268 OA 
DOCKED: ATOM      5  H   UNL     1     139.978  73.179 223.520 -0.32 -0.01    +0.164 HD 
DOCKED: BRANCH   3   6
DOCKED: ATOM      6  C   UNL     1     139.869  70.477 223.746 -0.26 -0.02    +0.128 A  
DOCKED: ATOM      7  C   UNL     1     139.297  69.222 223.800 -0.25 -0.01    +0.035 A  
DOCKED: ATOM      8  N   UNL     1     140.450  70.923 224.876 -0.30 +0.04    -0.243 NA 
DOCKED: ATOM      9  C   UNL     1     139.297  68.435 224.927 -0.40 -0.00    +0.013 A  
DOCKED: ATOM     10  C   UNL     1     140.476  70.177 226.019 -0.48 -0.01    +0.071 A  
DOCKED: ATOM     11  C   UNL     1     139.900  68.922 226.067 -0.52 -0.00    +0.003 A  
DOCKED: ATOM     12  C   UNL     1     141.077  70.655 227.169 -0.61 -0.01    +0.032 A  
DOCKED: ATOM     13  C   UNL     1     139.903  68.134 227.201 -0.61 -0.01    +0.049 A  
DOCKED: ATOM     14  C   UNL     1     141.078  69.864 228.299 -0.53 -0.01    +0.041 A  
DOCKED: ATOM     15  C   UNL     1     140.505  68.611 228.350 -0.55 -0.03    +0.123 A  
DOCKED: ATOM     16  F   UNL     1     140.504  67.834 229.458 -0.10 +0.05    -0.207 F  
DOCKED: ENDBRANCH   3   6
DOCKED: ENDBRANCH   1   2
DOCKED: BRANCH   1  17
DOCKED: ATOM     17  C   UNL     1     140.018  74.896 221.710 -0.20 -0.04    +0.242 C  
DOCKED: ATOM     18  O   UNL     1     139.410  75.366 222.707 -0.51 +0.04    -0.273 OA 
DOCKED: BRANCH  17  19
DOCKED: ATOM     19  N   UNL     1     140.816  75.788 220.960 -0.13 +0.10    -0.334 N  
DOCKED: ATOM     20  C   UNL     1     142.195  75.632 220.491 -0.21 -0.06    +0.120 C  
DOCKED: ATOM     21  C   UNL     1     140.461  77.129 220.442 -0.16 -0.04    +0.115 C  
DOCKED: ATOM     22  C   UNL     1     141.989  75.934 219.022 -0.20 -0.01    +0.024 C  
DOCKED: ATOM     23  C   UNL     1     141.019  77.089 219.039 -0.14 -0.01    +0.032 C  
DOCKED: BRANCH  21  24
DOCKED: ATOM     24  C   UNL     1     141.019  78.167 221.304 -0.31 +0.01    -0.025 A  
DOCKED: ATOM     25  C   UNL     1     141.653  79.306 220.903 -0.34 -0.00    +0.007 A  
DOCKED: ATOM     26  C   UNL     1     140.907  77.981 222.690 -0.47 -0.00    +0.007 A  
DOCKED: ATOM     27  C   UNL     1     142.171  80.250 221.786 -0.47 -0.01    +0.021 A  
DOCKED: ATOM     28  C   UNL     1     141.424  78.927 223.577 -0.58 -0.01    +0.021 A  
DOCKED: ATOM     29  C   UNL     1     142.060  80.066 223.147 -0.58 -0.01    +0.041 A  
DOCKED: ATOM     30  Cl  UNL     1     142.721  81.272 224.224 -0.56 +0.01    -0.084 Cl 
DOCKED: ENDBRANCH  21  24
DOCKED: ENDBRANCH  17  19
DOCKED: ENDBRANCH   1  17
DOCKED: TORSDOF 5
DOCKED: TER
DOCKED: ENDMDL
________________________________________________________________________________


    FINAL DOCKED STATE:
    ________________________


Run:   18 / 20
Time taken for this run:   0.043s

DOCKED: MODEL        18
DOCKED: USER    Run = 18
DOCKED: USER
DOCKED: USER    Estimated Free Energy of Binding    =  -8.84 kcal/mol  [=(1)+(2)+(3)-(4)]
DOCKED: USER
DOCKED: USER    (1) Final Intermolecular Energy     = -10.33 kcal/mol
DOCKED: USER        vdW + Hbond + desolv Energy     = -10.33 kcal/mol
DOCKED: USER        Electrostatic Energy            =  +0.00 kcal/mol
DOCKED: USER        Moving Ligand-Fixed Receptor    = -10.33 kcal/mol
DOCKED: USER        Moving Ligand-Moving Receptor   =  +0.00 kcal/mol
DOCKED: USER    (2) Final Total Internal Energy     =  -1.61 kcal/mol
DOCKED: USER    (3) Torsional Free Energy           =  +1.49 kcal/mol
DOCKED: USER    (4) Unbound System's Energy         =  -1.61 kcal/mol
DOCKED: USER
DOCKED: USER
DOCKED: REMARK SMILES O=C(NCC(=O)N1CCC[C@@H]1c1ccc(Cl)cc1)c1ccc2cc(F)ccc2n1
DOCKED: REMARK SMILES IDX 4 1 3 2 2 3 1 4 19 6 20 7 29 8 21 9 28 10 22 11 27 12 23 13
DOCKED: REMARK SMILES IDX 26 14 24 15 25 16 5 17 6 18 7 19 8 20 11 21 9 22 10 23 12 24
DOCKED: REMARK SMILES IDX 13 25 18 26 14 27 17 28 15 29 16 30
DOCKED: REMARK H PARENT 3 5
DOCKED: USER                              x       y       z     vdW  Elec       q    Type
DOCKED: USER                           _______ _______ _______ _____ _____    ______ ____
DOCKED: ROOT
DOCKED: ATOM      1  C   UNL     1     139.056  73.480 221.615 -0.16 -0.05    +0.216 C  
DOCKED: ENDROOT
DOCKED: BRANCH   1   2
DOCKED: ATOM      2  N   UNL     1     139.378  72.668 222.779 -0.05 +0.09    -0.342 N  
DOCKED: ATOM      3  C   UNL     1     138.936  71.329 222.825 -0.16 -0.06    +0.270 C  
DOCKED: ATOM      4  O   UNL     1     138.260  70.798 221.884 -0.06 +0.05    -0.268 OA 
DOCKED: ATOM      5  H   UNL     1     139.935  73.098 223.560 -0.32 -0.02    +0.164 HD 
DOCKED: BRANCH   3   6
DOCKED: ATOM      6  C   UNL     1     139.257  70.507 223.993 -0.28 -0.02    +0.128 A  
DOCKED: ATOM      7  C   UNL     1     138.940  69.164 224.029 -0.30 -0.01    +0.035 A  
DOCKED: ATOM      8  N   UNL     1     139.871  71.010 225.081 -0.29 +0.04    -0.243 NA 
DOCKED: ATOM      9  C   UNL     1     139.219  68.347 225.099 -0.43 -0.00    +0.013 A  
DOCKED: ATOM     10  C   UNL     1     140.169  70.237 226.166 -0.48 -0.01    +0.071 A  
DOCKED: ATOM     11  C   UNL     1     139.848  68.894 226.197 -0.53 -0.00    +0.003 A  
DOCKED: ATOM     12  C   UNL     1     140.799  70.775 227.273 -0.64 -0.01    +0.032 A  
DOCKED: ATOM     13  C   UNL     1     140.129  68.076 227.273 -0.62 -0.01    +0.049 A  
DOCKED: ATOM     14  C   UNL     1     141.079  69.954 228.346 -0.52 -0.01    +0.041 A  
DOCKED: ATOM     15  C   UNL     1     140.760  68.613 228.379 -0.55 -0.03    +0.123 A  
DOCKED: ATOM     16  F   UNL     1     141.033  67.805 229.431 -0.16 +0.06    -0.207 F  
DOCKED: ENDBRANCH   3   6
DOCKED: ENDBRANCH   1   2
DOCKED: BRANCH   1  17
DOCKED: ATOM     17  C   UNL     1     139.843  74.733 221.665 -0.20 -0.04    +0.242 C  
DOCKED: ATOM     18  O   UNL     1     141.062  74.691 221.974 -0.62 +0.02    -0.273 OA 
DOCKED: BRANCH  17  19
DOCKED: ATOM     19  N   UNL     1     139.292  76.001 221.377 -0.11 +0.08    -0.334 N  
DOCKED: ATOM     20  C   UNL     1     139.243  76.728 220.106 -0.07 -0.03    +0.120 C  
DOCKED: ATOM     21  C   UNL     1     138.608  76.938 222.297 -0.26 -0.02    +0.115 C  
DOCKED: ATOM     22  C   UNL     1     137.759  77.021 220.049 -0.04 -0.01    +0.024 C  
DOCKED: ATOM     23  C   UNL     1     137.425  77.390 221.473 -0.13 -0.01    +0.032 C  
DOCKED: BRANCH  21  24
DOCKED: ATOM     24  C   UNL     1     139.522  77.999 222.709 -0.32 +0.00    -0.025 A  
DOCKED: ATOM     25  C   UNL     1     139.183  79.267 223.085 -0.35 -0.00    +0.007 A  
DOCKED: ATOM     26  C   UNL     1     140.892  77.703 222.713 -0.46 -0.00    +0.007 A  
DOCKED: ATOM     27  C   UNL     1     140.113  80.233 223.457 -0.44 -0.00    +0.021 A  
DOCKED: ATOM     28  C   UNL     1     141.827  78.670 223.086 -0.55 -0.01    +0.021 A  
DOCKED: ATOM     29  C   UNL     1     141.460  79.940 223.460 -0.54 -0.01    +0.041 A  
DOCKED: ATOM     30  Cl  UNL     1     142.598  81.178 223.933 -0.69 +0.01    -0.084 Cl 
DOCKED: ENDBRANCH  21  24
DOCKED: ENDBRANCH  17  19
DOCKED: ENDBRANCH   1  17
DOCKED: TORSDOF 5
DOCKED: TER
DOCKED: ENDMDL
________________________________________________________________________________


    FINAL DOCKED STATE:
    ________________________


Run:   19 / 20
Time taken for this run:   0.043s

DOCKED: MODEL        19
DOCKED: USER    Run = 19
DOCKED: USER
DOCKED: USER    Estimated Free Energy of Binding    =  -8.81 kcal/mol  [=(1)+(2)+(3)-(4)]
DOCKED: USER
DOCKED: USER    (1) Final Intermolecular Energy     = -10.30 kcal/mol
DOCKED: USER        vdW + Hbond + desolv Energy     = -10.29 kcal/mol
DOCKED: USER        Electrostatic Energy            =  -0.00 kcal/mol
DOCKED: USER        Moving Ligand-Fixed Receptor    = -10.30 kcal/mol
DOCKED: USER        Moving Ligand-Moving Receptor   =  +0.00 kcal/mol
DOCKED: USER    (2) Final Total Internal Energy     =  -1.61 kcal/mol
DOCKED: USER    (3) Torsional Free Energy           =  +1.49 kcal/mol
DOCKED: USER    (4) Unbound System's Energy         =  -1.61 kcal/mol
DOCKED: USER
DOCKED: USER
DOCKED: REMARK SMILES O=C(NCC(=O)N1CCC[C@@H]1c1ccc(Cl)cc1)c1ccc2cc(F)ccc2n1
DOCKED: REMARK SMILES IDX 4 1 3 2 2 3 1 4 19 6 20 7 29 8 21 9 28 10 22 11 27 12 23 13
DOCKED: REMARK SMILES IDX 26 14 24 15 25 16 5 17 6 18 7 19 8 20 11 21 9 22 10 23 12 24
DOCKED: REMARK SMILES IDX 13 25 18 26 14 27 17 28 15 29 16 30
DOCKED: REMARK H PARENT 3 5
DOCKED: USER                              x       y       z     vdW  Elec       q    Type
DOCKED: USER                           _______ _______ _______ _____ _____    ______ ____
DOCKED: ROOT
DOCKED: ATOM      1  C   UNL     1     138.990  73.405 221.639 -0.15 -0.05    +0.216 C  
DOCKED: ENDROOT
DOCKED: BRANCH   1   2
DOCKED: ATOM      2  N   UNL     1     139.331  72.587 222.794 -0.06 +0.09    -0.342 N  
DOCKED: ATOM      3  C   UNL     1     138.882  71.251 222.846 -0.16 -0.06    +0.270 C  
DOCKED: ATOM      4  O   UNL     1     138.183  70.726 221.917 -0.06 +0.05    -0.268 OA 
DOCKED: ATOM      5  H   UNL     1     139.906  73.012 223.564 -0.31 -0.03    +0.164 HD 
DOCKED: BRANCH   3   6
DOCKED: ATOM      6  C   UNL     1     139.221  70.424 224.005 -0.28 -0.02    +0.128 A  
DOCKED: ATOM      7  C   UNL     1     138.908  69.080 224.039 -0.30 -0.01    +0.035 A  
DOCKED: ATOM      8  N   UNL     1     139.850  70.924 225.086 -0.28 +0.04    -0.243 NA 
DOCKED: ATOM      9  C   UNL     1     139.203  68.259 225.102 -0.44 -0.00    +0.013 A  
DOCKED: ATOM     10  C   UNL     1     140.165  70.147 226.164 -0.47 -0.01    +0.071 A  
DOCKED: ATOM     11  C   UNL     1     139.848  68.802 226.193 -0.54 -0.00    +0.003 A  
DOCKED: ATOM     12  C   UNL     1     140.810  70.681 227.264 -0.63 -0.01    +0.032 A  
DOCKED: ATOM     13  C   UNL     1     140.146  67.980 227.261 -0.61 -0.01    +0.049 A  
DOCKED: ATOM     14  C   UNL     1     141.107  69.855 228.328 -0.52 -0.01    +0.041 A  
DOCKED: ATOM     15  C   UNL     1     140.792  68.513 228.360 -0.56 -0.03    +0.123 A  
DOCKED: ATOM     16  F   UNL     1     141.082  67.702 229.403 -0.15 +0.06    -0.207 F  
DOCKED: ENDBRANCH   3   6
DOCKED: ENDBRANCH   1   2
DOCKED: BRANCH   1  17
DOCKED: ATOM     17  C   UNL     1     139.825  74.626 221.645 -0.20 -0.04    +0.242 C  
DOCKED: ATOM     18  O   UNL     1     141.055  74.539 221.899 -0.62 +0.02    -0.273 OA 
DOCKED: BRANCH  17  19
DOCKED: ATOM     19  N   UNL     1     139.310  75.914 221.375 -0.11 +0.08    -0.334 N  
DOCKED: ATOM     20  C   UNL     1     139.245  76.642 220.106 -0.07 -0.03    +0.120 C  
DOCKED: ATOM     21  C   UNL     1     138.690  76.874 222.317 -0.26 -0.02    +0.115 C  
DOCKED: ATOM     22  C   UNL     1     137.772  76.988 220.098 -0.05 -0.01    +0.024 C  
DOCKED: ATOM     23  C   UNL     1     137.498  77.368 221.531 -0.14 -0.01    +0.032 C  
DOCKED: BRANCH  21  24
DOCKED: ATOM     24  C   UNL     1     139.654  77.902 222.698 -0.33 +0.01    -0.025 A  
DOCKED: ATOM     25  C   UNL     1     141.013  77.781 222.710 -0.47 -0.00    +0.007 A  
DOCKED: ATOM     26  C   UNL     1     139.144  79.143 223.104 -0.35 -0.00    +0.007 A  
DOCKED: ATOM     27  C   UNL     1     141.872  78.805 223.097 -0.55 -0.01    +0.021 A  
DOCKED: ATOM     28  C   UNL     1     140.004  80.172 223.491 -0.43 -0.00    +0.021 A  
DOCKED: ATOM     29  C   UNL     1     141.369  80.024 223.496 -0.53 -0.01    +0.041 A  
DOCKED: ATOM     30  Cl  UNL     1     142.479  81.286 223.974 -0.67 +0.01    -0.084 Cl 
DOCKED: ENDBRANCH  21  24
DOCKED: ENDBRANCH  17  19
DOCKED: ENDBRANCH   1  17
DOCKED: TORSDOF 5
DOCKED: TER
DOCKED: ENDMDL
________________________________________________________________________________


    FINAL DOCKED STATE:
    ________________________


Run:   20 / 20
Time taken for this run:   0.043s

DOCKED: MODEL        20
DOCKED: USER    Run = 20
DOCKED: USER
DOCKED: USER    Estimated Free Energy of Binding    =  -8.49 kcal/mol  [=(1)+(2)+(3)-(4)]
DOCKED: USER
DOCKED: USER    (1) Final Intermolecular Energy     =  -9.98 kcal/mol
DOCKED: USER        vdW + Hbond + desolv Energy     =  -9.98 kcal/mol
DOCKED: USER        Electrostatic Energy            =  -0.00 kcal/mol
DOCKED: USER        Moving Ligand-Fixed Receptor    =  -9.98 kcal/mol
DOCKED: USER        Moving Ligand-Moving Receptor   =  +0.00 kcal/mol
DOCKED: USER    (2) Final Total Internal Energy     =  -1.69 kcal/mol
DOCKED: USER    (3) Torsional Free Energy           =  +1.49 kcal/mol
DOCKED: USER    (4) Unbound System's Energy         =  -1.69 kcal/mol
DOCKED: USER
DOCKED: USER
DOCKED: REMARK SMILES O=C(NCC(=O)N1CCC[C@@H]1c1ccc(Cl)cc1)c1ccc2cc(F)ccc2n1
DOCKED: REMARK SMILES IDX 4 1 3 2 2 3 1 4 19 6 20 7 29 8 21 9 28 10 22 11 27 12 23 13
DOCKED: REMARK SMILES IDX 26 14 24 15 25 16 5 17 6 18 7 19 8 20 11 21 9 22 10 23 12 24
DOCKED: REMARK SMILES IDX 13 25 18 26 14 27 17 28 15 29 16 30
DOCKED: REMARK H PARENT 3 5
DOCKED: USER                              x       y       z     vdW  Elec       q    Type
DOCKED: USER                           _______ _______ _______ _____ _____    ______ ____
DOCKED: ROOT
DOCKED: ATOM      1  C   UNL     1     140.523  73.964 221.196 -0.20 -0.03    +0.216 C  
DOCKED: ENDROOT
DOCKED: BRANCH   1   2
DOCKED: ATOM      2  N   UNL     1     140.664  73.016 222.291 -0.16 +0.01    -0.342 N  
DOCKED: ATOM      3  C   UNL     1     139.534  72.288 222.719 -0.17 -0.06    +0.270 C  
DOCKED: ATOM      4  O   UNL     1     138.386  72.428 222.183 -0.13 +0.07    -0.268 OA 
DOCKED: ATOM      5  H   UNL     1     141.607  72.895 222.739 +0.10 +0.02    +0.164 HD 
DOCKED: BRANCH   3   6
DOCKED: ATOM      6  C   UNL     1     139.670  71.333 223.820 -0.32 -0.03    +0.128 A  
DOCKED: ATOM      7  C   UNL     1     139.197  70.042 223.707 -0.28 -0.01    +0.035 A  
DOCKED: ATOM      8  N   UNL     1     140.255  71.660 224.988 -0.28 +0.04    -0.243 NA 
DOCKED: ATOM      9  C   UNL     1     139.298  69.106 224.710 -0.37 -0.00    +0.013 A  
DOCKED: ATOM     10  C   UNL     1     140.380  70.765 226.011 -0.53 -0.01    +0.071 A  
DOCKED: ATOM     11  C   UNL     1     139.904  69.473 225.892 -0.48 -0.00    +0.003 A  
DOCKED: ATOM     12  C   UNL     1     140.985  71.122 227.202 -0.68 -0.01    +0.032 A  
DOCKED: ATOM     13  C   UNL     1     140.007  68.536 226.901 -0.59 -0.01    +0.049 A  
DOCKED: ATOM     14  C   UNL     1     141.087  70.182 228.206 -0.54 -0.01    +0.041 A  
DOCKED: ATOM     15  C   UNL     1     140.613  68.892 228.091 -0.54 -0.03    +0.123 A  
DOCKED: ATOM     16  F   UNL     1     140.711  67.968 229.075 -0.17 +0.06    -0.207 F  
DOCKED: ENDBRANCH   3   6
DOCKED: ENDBRANCH   1   2
DOCKED: BRANCH   1  17
DOCKED: ATOM     17  C   UNL     1     141.867  74.395 220.750 -0.19 -0.06    +0.242 C  
DOCKED: ATOM     18  O   UNL     1     142.854  73.633 220.921 -0.20 +0.06    -0.273 OA 
DOCKED: BRANCH  17  19
DOCKED: ATOM     19  N   UNL     1     142.111  75.641 220.130 -0.13 +0.15    -0.334 N  
DOCKED: ATOM     20  C   UNL     1     143.340  76.151 219.519 -0.33 -0.08    +0.120 C  
DOCKED: ATOM     21  C   UNL     1     141.173  76.769 219.931 -0.18 -0.05    +0.115 C  
DOCKED: ATOM     22  C   UNL     1     142.792  76.553 218.167 -0.27 -0.01    +0.024 C  
DOCKED: ATOM     23  C   UNL     1     141.461  77.177 218.505 -0.16 -0.02    +0.032 C  
DOCKED: BRANCH  21  24
DOCKED: ATOM     24  C   UNL     1     141.407  77.804 220.934 -0.31 +0.01    -0.025 A  
DOCKED: ATOM     25  C   UNL     1     141.254  77.680 222.284 -0.36 -0.00    +0.007 A  
DOCKED: ATOM     26  C   UNL     1     141.824  79.061 220.475 -0.30 -0.00    +0.007 A  
DOCKED: ATOM     27  C   UNL     1     141.487  78.717 223.182 -0.56 -0.01    +0.021 A  
DOCKED: ATOM     28  C   UNL     1     142.060  80.103 221.374 -0.40 -0.01    +0.021 A  
DOCKED: ATOM     29  C   UNL     1     141.897  79.953 222.730 -0.54 -0.01    +0.041 A  
DOCKED: ATOM     30  Cl  UNL     1     142.180  81.231 223.887 -0.73 +0.01    -0.084 Cl 
DOCKED: ENDBRANCH  21  24
DOCKED: ENDBRANCH  17  19
DOCKED: ENDBRANCH   1  17
DOCKED: TORSDOF 5
DOCKED: TER
DOCKED: ENDMDL
________________________________________________________________________________


    CLUSTERING HISTOGRAM
    ____________________


________________________________________________________________________________
     |           |     |           |     |
Clus | Lowest    | Run | Mean      | Num | Histogram
-ter | Binding   |     | Binding   | in  |
Rank | Energy    |     | Energy    | Clus|    5    10   15   20   25   30   35
_____|___________|_____|___________|_____|____:____|____:____|____:____|____:___
   1 |     -9.15 |  11 |     -8.92 |  18 |##################
   2 |     -8.09 |   2 |     -8.08 |   2 |##
_____|___________|_____|___________|_____|______________________________________


    RMSD TABLE
    __________


_______________________________________________________________________
     |      |      |           |         |                 |
Rank | Sub- | Run  | Binding   | Cluster | Reference       | Grep
     | Rank |      | Energy    | RMSD    | RMSD            | Pattern
_____|______|______|___________|_________|_________________|___________
   1      1     11       -9.15      0.00    271.72           RANKING
   1      2      9       -9.14      0.13    271.73           RANKING
   1      3     12       -9.14      0.96    271.65           RANKING
   1      4      4       -9.11      0.14    271.68           RANKING
   1      5      7       -9.02      0.70    271.67           RANKING
   1      6     13       -9.00      0.67    271.69           RANKING
   1      7      5       -8.99      0.73    271.70           RANKING
   1      8      6       -8.99      0.72    271.71           RANKING
   1      9     14       -8.98      0.74    271.70           RANKING
   1     10     15       -8.98      0.74    271.67           RANKING
   1     11     17       -8.94      0.79    271.69           RANKING
   1     12     16       -8.87      1.45    271.58           RANKING
   1     13     18       -8.84      1.47    271.63           RANKING
   1     14      3       -8.83      1.44    271.62           RANKING
   1     15     19       -8.81      1.47    271.61           RANKING
   1     16     10       -8.78      1.54    271.59           RANKING
   1     17     20       -8.49      1.25    271.64           RANKING
   1     18      8       -8.45      1.63    271.48           RANKING
   2      1      2       -8.09      0.00    271.58           RANKING
   2      2      1       -8.08      1.76    271.04           RANKING

Run time 0.823 sec
Idle time 0.000 sec
