AutoDock-GPU version: v1.6

**********************************************************
**    AutoDock-GPU AUTODOCKTOOLS-COMPATIBLE DLG FILE    **
**********************************************************


    DOCKING PARAMETERS
    ________________________


Ligand file:                               /home/a/REINVENT4/ReinventStudies/pleaseWork/justmol2mol_4_Compounds_ontop/graph-dock-amy28i/graph-DockGPU/node-autodockgpu/inputs/AOXCGXXTCMVCKB-DBVQTIHYNA-N.pdbqt
Grid fld file:                             /home/a/REINVENT4/ReinventStudies/mols/Rad51/maps/rad51_receptor.maps.fld

Random seed:                               42
Number of runs:                            20
Number of energy evaluations:              3119281
Number of generations:                     42000
Size of population:                        150
Rate of crossover:                         80.000000%
Tournament selection probability limit:    60.000000%
Rate of mutation:                          2.000000%
Maximal allowed delta movement:            +/- 6.000000A
Maximal allowed delta angle:               +/- 90.000000

Rate of local search:                      100.000000%
Maximal number of local search iterations: 300
Rho lower bound:                           0.010000
Spread of local search delta movement:     2.000000A
Spread of local search delta angle:        74.999999
Limit of consecutive successes/failures:   4

Handle symmetry during clustering:         YES
RMSD tolerance:                            2.000000A

Program call in command line was:          /home/a/REINVENT4/ReinventStudies/adgpu-v1.6_linux_x64_cuda12_128wi --filelist batch.txt --heuristics 1 --nrun 20 --psize 150 --lsit 300 --seed 42 --heurmax 12000000 


    GRID PARAMETERS
    ________________________


Receptor name:                             rad51_receptor
Number of grid points (x, y, z):           53, 53, 53
Grid center (x, y, z):                     139.950000, 75.640000, 221.970000A
Grid size (x, y, z):                       19.500000, 19.500000, 19.500000A
Grid spacing:                              0.375000A


    LIGAND PARAMETERS
    ________________________


Ligand name:                               /home/a/REINVENT4/ReinventStudies/pleaseWork/justmol2mol_4_Compounds_ontop/graph-dock-amy28i/graph-DockGPU/node-autodockgpu/inputs/AOXCGXXTCMVCKB-DBVQTIHYNA-N
Number of atoms:                           38
Number of rotatable bonds:                 11
Number of atom types:                      7


    DUMMY DATA (only for ADT-compatibility)
    ________________________


DPF> outlev 1
DPF> ga_run 20
DPF> fld /home/a/REINVENT4/ReinventStudies/mols/Rad51/maps/rad51_receptor.maps.fld
DPF> move /home/a/REINVENT4/ReinventStudies/pleaseWork/justmol2mol_4_Compounds_ontop/graph-dock-amy28i/graph-DockGPU/node-autodockgpu/inputs/AOXCGXXTCMVCKB-DBVQTIHYNA-N.pdbqt


    COUNTER STATES
    ________________________


Number of energy evaluations performed:    647903
Number of generations used:                50


    INPUT LIGAND PDBQT FILE:
    ________________________


INPUT-LIGAND-PDBQT: REMARK SMILES CCCN(CCNC(=O)c1ccc2cc(F)ccc2n1)C(=O)[C@H]1C[C@H](O)CN1C(=O)c1ccccc1
INPUT-LIGAND-PDBQT: REMARK SMILES IDX 4 1 3 2 2 3 1 4 5 5 6 6 7 7 8 8 9 10 10 11 11 12 20 13 12 14
INPUT-LIGAND-PDBQT: REMARK SMILES IDX 19 15 13 16 18 17 14 18 17 19 15 20 16 21 21 22 22 23 23 24
INPUT-LIGAND-PDBQT: REMARK SMILES IDX 24 25 28 26 25 27 27 28 29 29 30 30 31 31 32 32 36 33 33 34
INPUT-LIGAND-PDBQT: REMARK SMILES IDX 35 35 34 36 26 37
INPUT-LIGAND-PDBQT: REMARK H PARENT 7 9 26 38
INPUT-LIGAND-PDBQT: ROOT
INPUT-LIGAND-PDBQT: ATOM      1  N   UNL     1      -0.129   1.052  -1.368  1.00  0.00    -0.339 N 
INPUT-LIGAND-PDBQT: ENDROOT
INPUT-LIGAND-PDBQT: BRANCH   1   2
INPUT-LIGAND-PDBQT: ATOM      2  C   UNL     1       0.315  -0.119  -2.121  1.00  0.00     0.119 C 
INPUT-LIGAND-PDBQT: BRANCH   2   3
INPUT-LIGAND-PDBQT: ATOM      3  C   UNL     1      -0.231  -0.078  -3.538  1.00  0.00     0.018 C 
INPUT-LIGAND-PDBQT: ATOM      4  C   UNL     1       0.216  -1.281  -4.335  1.00  0.00     0.006 C 
INPUT-LIGAND-PDBQT: ENDBRANCH   2   3
INPUT-LIGAND-PDBQT: ENDBRANCH   1   2
INPUT-LIGAND-PDBQT: BRANCH   1   5
INPUT-LIGAND-PDBQT: ATOM      5  C   UNL     1       0.655   2.240  -1.412  1.00  0.00     0.140 C 
INPUT-LIGAND-PDBQT: BRANCH   5   6
INPUT-LIGAND-PDBQT: ATOM      6  C   UNL     1       1.654   2.482  -0.359  1.00  0.00     0.137 C 
INPUT-LIGAND-PDBQT: BRANCH   6   7
INPUT-LIGAND-PDBQT: ATOM      7  N   UNL     1       2.704   1.561  -0.153  1.00  0.00    -0.349 N 
INPUT-LIGAND-PDBQT: ATOM      8  C   UNL     1       3.658   1.874   0.894  1.00  0.00     0.269 C 
INPUT-LIGAND-PDBQT: ATOM      9  H   UNL     1       2.900   0.674  -0.652  1.00  0.00     0.163 HD
INPUT-LIGAND-PDBQT: ATOM     10  O   UNL     1       3.461   2.954   1.525  1.00  0.00    -0.268 OA
INPUT-LIGAND-PDBQT: BRANCH   8  11
INPUT-LIGAND-PDBQT: ATOM     11  C   UNL     1       4.770   0.978   1.180  1.00  0.00     0.128 A 
INPUT-LIGAND-PDBQT: ATOM     12  C   UNL     1       5.650   1.396   2.180  1.00  0.00     0.035 A 
INPUT-LIGAND-PDBQT: ATOM     13  N   UNL     1       4.979  -0.184   0.546  1.00  0.00    -0.243 NA
INPUT-LIGAND-PDBQT: ATOM     14  C   UNL     1       6.728   0.604   2.504  1.00  0.00     0.013 A 
INPUT-LIGAND-PDBQT: ATOM     15  C   UNL     1       6.038  -0.957   0.868  1.00  0.00     0.071 A 
INPUT-LIGAND-PDBQT: ATOM     16  C   UNL     1       6.925  -0.581   1.844  1.00  0.00     0.003 A 
INPUT-LIGAND-PDBQT: ATOM     17  C   UNL     1       6.256  -2.151   0.225  1.00  0.00     0.032 A 
INPUT-LIGAND-PDBQT: ATOM     18  C   UNL     1       7.993  -1.407   2.141  1.00  0.00     0.049 A 
INPUT-LIGAND-PDBQT: ATOM     19  C   UNL     1       7.317  -2.990   0.507  1.00  0.00     0.041 A 
INPUT-LIGAND-PDBQT: ATOM     20  C   UNL     1       8.207  -2.603   1.493  1.00  0.00     0.123 A 
INPUT-LIGAND-PDBQT: ATOM     21  F   UNL     1       9.284  -3.361   1.842  1.00  0.00    -0.207 F 
INPUT-LIGAND-PDBQT: ENDBRANCH   8  11
INPUT-LIGAND-PDBQT: ENDBRANCH   6   7
INPUT-LIGAND-PDBQT: ENDBRANCH   5   6
INPUT-LIGAND-PDBQT: ENDBRANCH   1   5
INPUT-LIGAND-PDBQT: BRANCH   1  22
INPUT-LIGAND-PDBQT: ATOM     22  C   UNL     1      -1.369   1.008  -0.617  1.00  0.00     0.245 C 
INPUT-LIGAND-PDBQT: ATOM     23  O   UNL     1      -1.708   2.056  -0.024  1.00  0.00    -0.272 OA
INPUT-LIGAND-PDBQT: BRANCH  22  24
INPUT-LIGAND-PDBQT: ATOM     24  C   UNL     1      -2.181  -0.259  -0.577  1.00  0.00     0.177 C 
INPUT-LIGAND-PDBQT: ATOM     25  C   UNL     1      -1.678  -1.122   0.582  1.00  0.00     0.069 C 
INPUT-LIGAND-PDBQT: ATOM     26  N   UNL     1      -3.548  -0.067  -0.227  1.00  0.00    -0.324 N 
INPUT-LIGAND-PDBQT: ATOM     27  C   UNL     1      -2.900  -1.574   1.349  1.00  0.00     0.136 C 
INPUT-LIGAND-PDBQT: ATOM     28  C   UNL     1      -3.996  -1.362   0.327  1.00  0.00     0.152 C 
INPUT-LIGAND-PDBQT: BRANCH  26  29
INPUT-LIGAND-PDBQT: ATOM     29  C   UNL     1      -4.434   1.026  -0.322  1.00  0.00     0.254 C 
INPUT-LIGAND-PDBQT: ATOM     30  O   UNL     1      -4.120   2.161  -0.800  1.00  0.00    -0.269 OA
INPUT-LIGAND-PDBQT: BRANCH  29  31
INPUT-LIGAND-PDBQT: ATOM     31  C   UNL     1      -5.840   0.945   0.139  1.00  0.00     0.040 A 
INPUT-LIGAND-PDBQT: ATOM     32  C   UNL     1      -6.158   0.704   1.458  1.00  0.00     0.014 A 
INPUT-LIGAND-PDBQT: ATOM     33  C   UNL     1      -6.797   1.134  -0.847  1.00  0.00     0.014 A 
INPUT-LIGAND-PDBQT: ATOM     34  C   UNL     1      -7.519   0.659   1.759  1.00  0.00     0.001 A 
INPUT-LIGAND-PDBQT: ATOM     35  C   UNL     1      -8.134   1.088  -0.536  1.00  0.00     0.001 A 
INPUT-LIGAND-PDBQT: ATOM     36  C   UNL     1      -8.480   0.846   0.786  1.00  0.00     0.000 A 
INPUT-LIGAND-PDBQT: ENDBRANCH  29  31
INPUT-LIGAND-PDBQT: ENDBRANCH  26  29
INPUT-LIGAND-PDBQT: BRANCH  27  37
INPUT-LIGAND-PDBQT: ATOM     37  O   UNL     1      -2.806  -2.919   1.715  1.00  0.00    -0.391 OA
INPUT-LIGAND-PDBQT: ATOM     38  H   UNL     1      -3.249  -3.446   1.008  1.00  0.00     0.211 HD
INPUT-LIGAND-PDBQT: ENDBRANCH  27  37
INPUT-LIGAND-PDBQT: ENDBRANCH  22  24
INPUT-LIGAND-PDBQT: ENDBRANCH   1  22
INPUT-LIGAND-PDBQT: TORSDOF 11


    FINAL DOCKED STATE:
    ________________________


Run:   1 / 20
Time taken for this run:   0.041s

DOCKED: MODEL        1
DOCKED: USER    Run = 1
DOCKED: USER
DOCKED: USER    Estimated Free Energy of Binding    =  -6.88 kcal/mol  [=(1)+(2)+(3)-(4)]
DOCKED: USER
DOCKED: USER    (1) Final Intermolecular Energy     = -10.16 kcal/mol
DOCKED: USER        vdW + Hbond + desolv Energy     = -10.08 kcal/mol
DOCKED: USER        Electrostatic Energy            =  -0.08 kcal/mol
DOCKED: USER        Moving Ligand-Fixed Receptor    = -10.16 kcal/mol
DOCKED: USER        Moving Ligand-Moving Receptor   =  +0.00 kcal/mol
DOCKED: USER    (2) Final Total Internal Energy     =  -3.46 kcal/mol
DOCKED: USER    (3) Torsional Free Energy           =  +3.28 kcal/mol
DOCKED: USER    (4) Unbound System's Energy         =  -3.46 kcal/mol
DOCKED: USER
DOCKED: USER
DOCKED: REMARK SMILES CCCN(CCNC(=O)c1ccc2cc(F)ccc2n1)C(=O)[C@H]1C[C@H](O)CN1C(=O)c1ccccc1
DOCKED: REMARK SMILES IDX 4 1 3 2 2 3 1 4 5 5 6 6 7 7 8 8 9 10 10 11 11 12 20 13 12 14
DOCKED: REMARK SMILES IDX 19 15 13 16 18 17 14 18 17 19 15 20 16 21 21 22 22 23 23 24
DOCKED: REMARK SMILES IDX 24 25 28 26 25 27 27 28 29 29 30 30 31 31 32 32 36 33 33 34
DOCKED: REMARK SMILES IDX 35 35 34 36 26 37
DOCKED: REMARK H PARENT 7 9 26 38
DOCKED: USER                              x       y       z     vdW  Elec       q    Type
DOCKED: USER                           _______ _______ _______ _____ _____    ______ ____
DOCKED: ROOT
DOCKED: ATOM      1  N   UNL     1     140.726  74.581 220.114 -0.04 +0.08    -0.339 N  
DOCKED: ENDROOT
DOCKED: BRANCH   1   2
DOCKED: ATOM      2  C   UNL     1     141.763  73.759 219.493 -0.11 -0.03    +0.119 C  
DOCKED: BRANCH   2   3
DOCKED: ATOM      3  C   UNL     1     142.658  73.142 220.554 -0.27 -0.00    +0.018 C  
DOCKED: ATOM      4  C   UNL     1     141.993  71.956 221.214 -0.22 -0.00    +0.006 C  
DOCKED: ENDBRANCH   2   3
DOCKED: ENDBRANCH   1   2
DOCKED: BRANCH   1   5
DOCKED: ATOM      5  C   UNL     1     139.364  74.354 219.767 -0.05 -0.03    +0.140 C  
DOCKED: BRANCH   5   6
DOCKED: ATOM      6  C   UNL     1     138.394  74.041 220.829 -0.10 -0.03    +0.137 C  
DOCKED: BRANCH   6   7
DOCKED: ATOM      7  N   UNL     1     138.827  73.438 222.029 -0.09 +0.10    -0.349 N  
DOCKED: ATOM      8  C   UNL     1     138.722  71.993 222.114 -0.12 -0.06    +0.269 C  
DOCKED: ATOM      9  H   UNL     1     139.216  73.884 222.880 -0.52 -0.06    +0.163 HD 
DOCKED: ATOM     10  O   UNL     1     138.244  71.407 221.099 -0.04 +0.05    -0.268 OA 
DOCKED: BRANCH   8  11
DOCKED: ATOM     11  C   UNL     1     139.150  71.285 223.313 -0.26 -0.03    +0.128 A  
DOCKED: ATOM     12  C   UNL     1     138.874  69.917 223.346 -0.24 -0.01    +0.035 A  
DOCKED: ATOM     13  N   UNL     1     139.771  71.869 224.348 -0.14 +0.06    -0.243 NA 
DOCKED: ATOM     14  C   UNL     1     139.245  69.181 224.448 -0.34 -0.00    +0.013 A  
DOCKED: ATOM     15  C   UNL     1     140.132  71.142 225.426 -0.48 -0.01    +0.071 A  
DOCKED: ATOM     16  C   UNL     1     139.878  69.796 225.497 -0.45 -0.00    +0.003 A  
DOCKED: ATOM     17  C   UNL     1     140.772  71.733 226.488 -0.65 -0.01    +0.032 A  
DOCKED: ATOM     18  C   UNL     1     140.270  69.092 226.620 -0.53 -0.01    +0.049 A  
DOCKED: ATOM     19  C   UNL     1     141.171  71.048 227.619 -0.62 -0.01    +0.041 A  
DOCKED: ATOM     20  C   UNL     1     140.911  69.690 227.682 -0.49 -0.02    +0.123 A  
DOCKED: ATOM     21  F   UNL     1     141.264  68.929 228.755 -0.15 +0.05    -0.207 F  
DOCKED: ENDBRANCH   8  11
DOCKED: ENDBRANCH   6   7
DOCKED: ENDBRANCH   5   6
DOCKED: ENDBRANCH   1   5
DOCKED: BRANCH   1  22
DOCKED: ATOM     22  C   UNL     1     141.085  75.588 221.094 -0.22 -0.08    +0.245 C  
DOCKED: ATOM     23  O   UNL     1     140.752  75.367 222.280 -0.51 +0.03    -0.272 OA 
DOCKED: BRANCH  22  24
DOCKED: ATOM     24  C   UNL     1     141.823  76.828 220.665 -0.12 -0.10    +0.177 C  
DOCKED: ATOM     25  C   UNL     1     141.311  77.244 219.285 -0.18 -0.03    +0.069 C  
DOCKED: ATOM     26  N   UNL     1     141.531  77.982 221.446 -0.15 +0.18    -0.324 N  
DOCKED: ATOM     27  C   UNL     1     141.024  78.727 219.357 -0.15 -0.06    +0.136 C  
DOCKED: ATOM     28  C   UNL     1     141.833  79.134 220.570 -0.21 -0.09    +0.152 C  
DOCKED: BRANCH  26  29
DOCKED: ATOM     29  C   UNL     1     141.065  78.176 222.763 -0.34 -0.09    +0.254 C  
DOCKED: ATOM     30  O   UNL     1     141.744  77.917 223.806 -0.40 +0.10    -0.269 OA 
DOCKED: BRANCH  29  31
DOCKED: ATOM     31  C   UNL     1     139.713  78.708 223.052 -0.35 -0.01    +0.040 A  
DOCKED: ATOM     32  C   UNL     1     139.529  79.866 223.775 -0.43 -0.00    +0.014 A  
DOCKED: ATOM     33  C   UNL     1     138.662  77.962 222.539 -0.28 -0.00    +0.014 A  
DOCKED: ATOM     34  C   UNL     1     138.205  80.260 223.970 -0.37 -0.00    +0.001 A  
DOCKED: ATOM     35  C   UNL     1     137.363  78.362 222.738 -0.22 -0.00    +0.001 A  
DOCKED: ATOM     36  C   UNL     1     137.152  79.526 223.464 -0.21 -0.00    +0.000 A  
DOCKED: ENDBRANCH  29  31
DOCKED: ENDBRANCH  26  29
DOCKED: BRANCH  27  37
DOCKED: ATOM     37  O   UNL     1     141.468  79.391 218.210 -0.08 +0.23    -0.391 OA 
DOCKED: ATOM     38  H   UNL     1     142.433  79.208 218.122 +0.06 -0.18    +0.211 HD 
DOCKED: ENDBRANCH  27  37
DOCKED: ENDBRANCH  22  24
DOCKED: ENDBRANCH   1  22
DOCKED: TORSDOF 11
DOCKED: TER
DOCKED: ENDMDL
________________________________________________________________________________


    FINAL DOCKED STATE:
    ________________________


Run:   2 / 20
Time taken for this run:   0.041s

DOCKED: MODEL        2
DOCKED: USER    Run = 2
DOCKED: USER
DOCKED: USER    Estimated Free Energy of Binding    =  -5.74 kcal/mol  [=(1)+(2)+(3)-(4)]
DOCKED: USER
DOCKED: USER    (1) Final Intermolecular Energy     =  -9.02 kcal/mol
DOCKED: USER        vdW + Hbond + desolv Energy     =  -8.89 kcal/mol
DOCKED: USER        Electrostatic Energy            =  -0.13 kcal/mol
DOCKED: USER        Moving Ligand-Fixed Receptor    =  -9.02 kcal/mol
DOCKED: USER        Moving Ligand-Moving Receptor   =  +0.00 kcal/mol
DOCKED: USER    (2) Final Total Internal Energy     =  -4.80 kcal/mol
DOCKED: USER    (3) Torsional Free Energy           =  +3.28 kcal/mol
DOCKED: USER    (4) Unbound System's Energy         =  -4.80 kcal/mol
DOCKED: USER
DOCKED: USER
DOCKED: REMARK SMILES CCCN(CCNC(=O)c1ccc2cc(F)ccc2n1)C(=O)[C@H]1C[C@H](O)CN1C(=O)c1ccccc1
DOCKED: REMARK SMILES IDX 4 1 3 2 2 3 1 4 5 5 6 6 7 7 8 8 9 10 10 11 11 12 20 13 12 14
DOCKED: REMARK SMILES IDX 19 15 13 16 18 17 14 18 17 19 15 20 16 21 21 22 22 23 23 24
DOCKED: REMARK SMILES IDX 24 25 28 26 25 27 27 28 29 29 30 30 31 31 32 32 36 33 33 34
DOCKED: REMARK SMILES IDX 35 35 34 36 26 37
DOCKED: REMARK H PARENT 7 9 26 38
DOCKED: USER                              x       y       z     vdW  Elec       q    Type
DOCKED: USER                           _______ _______ _______ _____ _____    ______ ____
DOCKED: ROOT
DOCKED: ATOM      1  N   UNL     1     140.019  73.360 220.691 -0.05 +0.06    -0.339 N  
DOCKED: ENDROOT
DOCKED: BRANCH   1   2
DOCKED: ATOM      2  C   UNL     1     140.220  71.997 221.179 -0.16 -0.02    +0.119 C  
DOCKED: BRANCH   2   3
DOCKED: ATOM      3  C   UNL     1     139.422  71.765 222.451 -0.27 -0.00    +0.018 C  
DOCKED: ATOM      4  C   UNL     1     140.330  71.582 223.644 -0.40 -0.00    +0.006 C  
DOCKED: ENDBRANCH   2   3
DOCKED: ENDBRANCH   1   2
DOCKED: BRANCH   1   5
DOCKED: ATOM      5  C   UNL     1     139.177  73.573 219.562 -0.04 -0.03    +0.140 C  
DOCKED: BRANCH   5   6
DOCKED: ATOM      6  C   UNL     1     137.995  74.438 219.699 -0.03 -0.03    +0.137 C  
DOCKED: BRANCH   6   7
DOCKED: ATOM      7  N   UNL     1     138.038  75.569 220.543 -0.02 +0.08    -0.349 N  
DOCKED: ATOM      8  C   UNL     1     136.769  76.076 221.030 -0.05 -0.05    +0.269 C  
DOCKED: ATOM      9  H   UNL     1     138.861  76.105 220.872 +0.04 -0.04    +0.163 HD 
DOCKED: ATOM     10  O   UNL     1     135.735  75.454 220.646 -0.01 +0.05    -0.268 OA 
DOCKED: BRANCH   8  11
DOCKED: ATOM     11  C   UNL     1     136.719  77.235 221.909 -0.12 -0.02    +0.128 A  
DOCKED: ATOM     12  C   UNL     1     135.465  77.548 222.437 -0.11 -0.01    +0.035 A  
DOCKED: ATOM     13  N   UNL     1     137.783  77.989 222.218 -0.11 +0.04    -0.243 NA 
DOCKED: ATOM     14  C   UNL     1     135.337  78.633 223.274 -0.14 -0.00    +0.013 A  
DOCKED: ATOM     15  C   UNL     1     137.651  79.052 223.040 -0.20 -0.01    +0.071 A  
DOCKED: ATOM     16  C   UNL     1     136.437  79.392 223.578 -0.16 -0.00    +0.003 A  
DOCKED: ATOM     17  C   UNL     1     138.739  79.827 223.364 -0.35 -0.00    +0.032 A  
DOCKED: ATOM     18  C   UNL     1     136.352  80.488 224.416 -0.23 -0.01    +0.049 A  
DOCKED: ATOM     19  C   UNL     1     138.675  80.925 224.199 -0.35 -0.00    +0.041 A  
DOCKED: ATOM     20  C   UNL     1     137.445  81.261 224.738 -0.32 -0.01    +0.123 A  
DOCKED: ATOM     21  F   UNL     1     137.280  82.327 225.571 -0.11 +0.01    -0.207 F  
DOCKED: ENDBRANCH   8  11
DOCKED: ENDBRANCH   6   7
DOCKED: ENDBRANCH   5   6
DOCKED: ENDBRANCH   1   5
DOCKED: BRANCH   1  22
DOCKED: ATOM     22  C   UNL     1     140.643  74.478 221.373 -0.21 -0.04    +0.245 C  
DOCKED: ATOM     23  O   UNL     1     140.011  74.982 222.328 -0.69 +0.01    -0.272 OA 
DOCKED: BRANCH  22  24
DOCKED: ATOM     24  C   UNL     1     141.989  74.979 220.922 -0.18 -0.06    +0.177 C  
DOCKED: ATOM     25  C   UNL     1     142.384  74.231 219.647 -0.20 -0.02    +0.069 C  
DOCKED: ATOM     26  N   UNL     1     141.991  76.332 220.480 -0.12 +0.18    -0.324 N  
DOCKED: ATOM     27  C   UNL     1     142.849  75.275 218.658 -0.19 -0.06    +0.136 C  
DOCKED: ATOM     28  C   UNL     1     143.150  76.445 219.569 -0.30 -0.10    +0.152 C  
DOCKED: BRANCH  26  29
DOCKED: ATOM     29  C   UNL     1     141.169  77.446 220.747 -0.18 -0.12    +0.254 C  
DOCKED: ATOM     30  O   UNL     1     140.071  77.683 220.153 -0.06 +0.09    -0.269 OA 
DOCKED: BRANCH  29  31
DOCKED: ATOM     31  C   UNL     1     141.523  78.462 221.767 -0.38 -0.02    +0.040 A  
DOCKED: ATOM     32  C   UNL     1     141.895  79.742 221.417 -0.40 -0.01    +0.014 A  
DOCKED: ATOM     33  C   UNL     1     141.444  78.031 223.083 -0.49 -0.01    +0.014 A  
DOCKED: ATOM     34  C   UNL     1     142.196  80.600 222.474 -0.56 -0.00    +0.001 A  
DOCKED: ATOM     35  C   UNL     1     141.742  78.888 224.114 -0.57 -0.00    +0.001 A  
DOCKED: ATOM     36  C   UNL     1     142.121  80.182 223.787 -0.64 -0.00    +0.000 A  
DOCKED: ENDBRANCH  29  31
DOCKED: ENDBRANCH  26  29
DOCKED: BRANCH  27  37
DOCKED: ATOM     37  O   UNL     1     143.996  74.859 217.976 -0.08 +0.17    -0.391 OA 
DOCKED: ATOM     38  H   UNL     1     144.570  75.653 217.860 -0.46 -0.16    +0.211 HD 
DOCKED: ENDBRANCH  27  37
DOCKED: ENDBRANCH  22  24
DOCKED: ENDBRANCH   1  22
DOCKED: TORSDOF 11
DOCKED: TER
DOCKED: ENDMDL
________________________________________________________________________________


    FINAL DOCKED STATE:
    ________________________


Run:   3 / 20
Time taken for this run:   0.041s

DOCKED: MODEL        3
DOCKED: USER    Run = 3
DOCKED: USER
DOCKED: USER    Estimated Free Energy of Binding    =  -7.82 kcal/mol  [=(1)+(2)+(3)-(4)]
DOCKED: USER
DOCKED: USER    (1) Final Intermolecular Energy     = -11.11 kcal/mol
DOCKED: USER        vdW + Hbond + desolv Energy     = -10.93 kcal/mol
DOCKED: USER        Electrostatic Energy            =  -0.17 kcal/mol
DOCKED: USER        Moving Ligand-Fixed Receptor    = -11.11 kcal/mol
DOCKED: USER        Moving Ligand-Moving Receptor   =  +0.00 kcal/mol
DOCKED: USER    (2) Final Total Internal Energy     =  -3.30 kcal/mol
DOCKED: USER    (3) Torsional Free Energy           =  +3.28 kcal/mol
DOCKED: USER    (4) Unbound System's Energy         =  -3.30 kcal/mol
DOCKED: USER
DOCKED: USER
DOCKED: REMARK SMILES CCCN(CCNC(=O)c1ccc2cc(F)ccc2n1)C(=O)[C@H]1C[C@H](O)CN1C(=O)c1ccccc1
DOCKED: REMARK SMILES IDX 4 1 3 2 2 3 1 4 5 5 6 6 7 7 8 8 9 10 10 11 11 12 20 13 12 14
DOCKED: REMARK SMILES IDX 19 15 13 16 18 17 14 18 17 19 15 20 16 21 21 22 22 23 23 24
DOCKED: REMARK SMILES IDX 24 25 28 26 25 27 27 28 29 29 30 30 31 31 32 32 36 33 33 34
DOCKED: REMARK SMILES IDX 35 35 34 36 26 37
DOCKED: REMARK H PARENT 7 9 26 38
DOCKED: USER                              x       y       z     vdW  Elec       q    Type
DOCKED: USER                           _______ _______ _______ _____ _____    ______ ____
DOCKED: ROOT
DOCKED: ATOM      1  N   UNL     1     139.666  74.990 220.433 -0.04 +0.08    -0.339 N  
DOCKED: ENDROOT
DOCKED: BRANCH   1   2
DOCKED: ATOM      2  C   UNL     1     138.789  76.135 220.669 -0.10 -0.03    +0.119 C  
DOCKED: BRANCH   2   3
DOCKED: ATOM      3  C   UNL     1     138.673  76.418 222.157 -0.29 -0.00    +0.018 C  
DOCKED: ATOM      4  C   UNL     1     137.323  76.001 222.692 -0.27 -0.00    +0.006 C  
DOCKED: ENDBRANCH   2   3
DOCKED: ENDBRANCH   1   2
DOCKED: BRANCH   1   5
DOCKED: ATOM      5  C   UNL     1     139.316  74.049 219.423 -0.03 -0.03    +0.140 C  
DOCKED: BRANCH   5   6
DOCKED: ATOM      6  C   UNL     1     139.164  72.631 219.783 -0.04 -0.03    +0.137 C  
DOCKED: BRANCH   6   7
DOCKED: ATOM      7  N   UNL     1     139.578  72.173 221.053 -0.05 +0.06    -0.349 N  
DOCKED: ATOM      8  C   UNL     1     138.686  71.265 221.749 -0.09 -0.05    +0.269 C  
DOCKED: ATOM      9  H   UNL     1     140.445  72.397 221.575 +0.05 -0.02    +0.163 HD 
DOCKED: ATOM     10  O   UNL     1     137.610  70.970 221.150 -0.03 +0.05    -0.268 OA 
DOCKED: BRANCH   8  11
DOCKED: ATOM     11  C   UNL     1     139.035  70.738 223.061 -0.21 -0.02    +0.128 A  
DOCKED: ATOM     12  C   UNL     1     138.575  69.451 223.345 -0.24 -0.01    +0.035 A  
DOCKED: ATOM     13  N   UNL     1     139.748  71.412 223.974 -0.25 +0.05    -0.243 NA 
DOCKED: ATOM     14  C   UNL     1     138.862  68.887 224.567 -0.36 -0.00    +0.013 A  
DOCKED: ATOM     15  C   UNL     1     140.026  70.853 225.171 -0.45 -0.01    +0.071 A  
DOCKED: ATOM     16  C   UNL     1     139.592  69.592 225.488 -0.43 -0.00    +0.003 A  
DOCKED: ATOM     17  C   UNL     1     140.760  71.537 226.110 -0.62 -0.00    +0.032 A  
DOCKED: ATOM     18  C   UNL     1     139.904  69.061 226.725 -0.52 -0.01    +0.049 A  
DOCKED: ATOM     19  C   UNL     1     141.082  71.023 227.352 -0.66 -0.01    +0.041 A  
DOCKED: ATOM     20  C   UNL     1     140.640  69.750 227.663 -0.51 -0.02    +0.123 A  
DOCKED: ATOM     21  F   UNL     1     140.905  69.158 228.861 -0.10 +0.04    -0.207 F  
DOCKED: ENDBRANCH   8  11
DOCKED: ENDBRANCH   6   7
DOCKED: ENDBRANCH   5   6
DOCKED: ENDBRANCH   1   5
DOCKED: BRANCH   1  22
DOCKED: ATOM     22  C   UNL     1     140.889  74.840 221.197 -0.21 -0.05    +0.245 C  
DOCKED: ATOM     23  O   UNL     1     140.786  74.332 222.336 -0.63 -0.03    -0.272 OA 
DOCKED: BRANCH  22  24
DOCKED: ATOM     24  C   UNL     1     142.203  75.286 220.612 -0.19 -0.08    +0.177 C  
DOCKED: ATOM     25  C   UNL     1     142.448  74.506 219.318 -0.18 -0.02    +0.069 C  
DOCKED: ATOM     26  N   UNL     1     142.209  76.632 220.148 -0.15 +0.19    -0.324 N  
DOCKED: ATOM     27  C   UNL     1     142.852  75.519 218.271 -0.17 -0.06    +0.136 C  
DOCKED: ATOM     28  C   UNL     1     143.279  76.691 219.130 -0.28 -0.10    +0.152 C  
DOCKED: BRANCH  26  29
DOCKED: ATOM     29  C   UNL     1     141.455  77.779 220.473 -0.19 -0.13    +0.254 C  
DOCKED: ATOM     30  O   UNL     1     140.511  78.240 219.757 -0.07 +0.10    -0.269 OA 
DOCKED: BRANCH  29  31
DOCKED: ATOM     31  C   UNL     1     141.703  78.564 221.705 -0.38 -0.02    +0.040 A  
DOCKED: ATOM     32  C   UNL     1     141.456  78.045 222.958 -0.47 -0.01    +0.014 A  
DOCKED: ATOM     33  C   UNL     1     142.201  79.842 221.501 -0.40 -0.01    +0.014 A  
DOCKED: ATOM     34  C   UNL     1     141.739  78.887 224.033 -0.59 -0.00    +0.001 A  
DOCKED: ATOM     35  C   UNL     1     142.476  80.660 222.569 -0.58 -0.00    +0.001 A  
DOCKED: ATOM     36  C   UNL     1     142.236  80.160 223.842 -0.65 -0.00    +0.000 A  
DOCKED: ENDBRANCH  29  31
DOCKED: ENDBRANCH  26  29
DOCKED: BRANCH  27  37
DOCKED: ATOM     37  O   UNL     1     143.914  75.054 217.492 -0.09 +0.18    -0.391 OA 
DOCKED: ATOM     38  H   UNL     1     144.727  75.522 217.796 -0.47 -0.17    +0.211 HD 
DOCKED: ENDBRANCH  27  37
DOCKED: ENDBRANCH  22  24
DOCKED: ENDBRANCH   1  22
DOCKED: TORSDOF 11
DOCKED: TER
DOCKED: ENDMDL
________________________________________________________________________________


    FINAL DOCKED STATE:
    ________________________


Run:   4 / 20
Time taken for this run:   0.041s

DOCKED: MODEL        4
DOCKED: USER    Run = 4
DOCKED: USER
DOCKED: USER    Estimated Free Energy of Binding    =  -6.81 kcal/mol  [=(1)+(2)+(3)-(4)]
DOCKED: USER
DOCKED: USER    (1) Final Intermolecular Energy     = -10.09 kcal/mol
DOCKED: USER        vdW + Hbond + desolv Energy     =  -9.80 kcal/mol
DOCKED: USER        Electrostatic Energy            =  -0.28 kcal/mol
DOCKED: USER        Moving Ligand-Fixed Receptor    = -10.09 kcal/mol
DOCKED: USER        Moving Ligand-Moving Receptor   =  +0.00 kcal/mol
DOCKED: USER    (2) Final Total Internal Energy     =  -4.29 kcal/mol
DOCKED: USER    (3) Torsional Free Energy           =  +3.28 kcal/mol
DOCKED: USER    (4) Unbound System's Energy         =  -4.29 kcal/mol
DOCKED: USER
DOCKED: USER
DOCKED: REMARK SMILES CCCN(CCNC(=O)c1ccc2cc(F)ccc2n1)C(=O)[C@H]1C[C@H](O)CN1C(=O)c1ccccc1
DOCKED: REMARK SMILES IDX 4 1 3 2 2 3 1 4 5 5 6 6 7 7 8 8 9 10 10 11 11 12 20 13 12 14
DOCKED: REMARK SMILES IDX 19 15 13 16 18 17 14 18 17 19 15 20 16 21 21 22 22 23 23 24
DOCKED: REMARK SMILES IDX 24 25 28 26 25 27 27 28 29 29 30 30 31 31 32 32 36 33 33 34
DOCKED: REMARK SMILES IDX 35 35 34 36 26 37
DOCKED: REMARK H PARENT 7 9 26 38
DOCKED: USER                              x       y       z     vdW  Elec       q    Type
DOCKED: USER                           _______ _______ _______ _____ _____    ______ ____
DOCKED: ROOT
DOCKED: ATOM      1  N   UNL     1     140.372  72.262 221.128 -0.08 +0.05    -0.339 N  
DOCKED: ENDROOT
DOCKED: BRANCH   1   2
DOCKED: ATOM      2  C   UNL     1     140.653  72.328 222.561 -0.25 -0.01    +0.119 C  
DOCKED: BRANCH   2   3
DOCKED: ATOM      3  C   UNL     1     139.832  71.294 223.312 -0.35 -0.00    +0.018 C  
DOCKED: ATOM      4  C   UNL     1     140.316  71.134 224.734 -0.50 -0.00    +0.006 C  
DOCKED: ENDBRANCH   2   3
DOCKED: ENDBRANCH   1   2
DOCKED: BRANCH   1   5
DOCKED: ATOM      5  C   UNL     1     139.029  72.416 220.680 -0.08 -0.03    +0.140 C  
DOCKED: BRANCH   5   6
DOCKED: ATOM      6  C   UNL     1     138.278  73.624 221.057 -0.11 -0.03    +0.137 C  
DOCKED: BRANCH   6   7
DOCKED: ATOM      7  N   UNL     1     138.968  74.795 221.443 -0.10 +0.08    -0.349 N  
DOCKED: ATOM      8  C   UNL     1     138.172  75.875 221.995 -0.17 -0.06    +0.269 C  
DOCKED: ATOM      9  H   UNL     1     139.982  75.002 221.388 +0.05 -0.03    +0.163 HD 
DOCKED: ATOM     10  O   UNL     1     136.925  75.667 222.074 -0.12 +0.06    -0.268 OA 
DOCKED: BRANCH   8  11
DOCKED: ATOM     11  C   UNL     1     138.800  77.117 222.425 -0.25 -0.02    +0.128 A  
DOCKED: ATOM     12  C   UNL     1     137.932  78.174 222.708 -0.24 -0.01    +0.035 A  
DOCKED: ATOM     13  N   UNL     1     140.123  77.284 222.552 -0.23 +0.06    -0.243 NA 
DOCKED: ATOM     14  C   UNL     1     138.451  79.381 223.117 -0.31 -0.00    +0.013 A  
DOCKED: ATOM     15  C   UNL     1     140.627  78.470 222.953 -0.41 -0.02    +0.071 A  
DOCKED: ATOM     16  C   UNL     1     139.808  79.532 223.240 -0.41 -0.00    +0.003 A  
DOCKED: ATOM     17  C   UNL     1     141.982  78.647 223.089 -0.48 -0.01    +0.032 A  
DOCKED: ATOM     18  C   UNL     1     140.370  80.727 223.651 -0.39 -0.01    +0.049 A  
DOCKED: ATOM     19  C   UNL     1     142.563  79.832 223.497 -0.61 -0.01    +0.041 A  
DOCKED: ATOM     20  C   UNL     1     141.729  80.899 223.785 -0.49 -0.02    +0.123 A  
DOCKED: ATOM     21  F   UNL     1     142.206  82.108 224.193 -0.12 +0.01    -0.207 F  
DOCKED: ENDBRANCH   8  11
DOCKED: ENDBRANCH   6   7
DOCKED: ENDBRANCH   5   6
DOCKED: ENDBRANCH   1   5
DOCKED: BRANCH   1  22
DOCKED: ATOM     22  C   UNL     1     141.454  72.077 220.181 -0.09 -0.04    +0.245 C  
DOCKED: ATOM     23  O   UNL     1     141.160  71.556 219.082 -0.02 +0.05    -0.272 OA 
DOCKED: BRANCH  22  24
DOCKED: ATOM     24  C   UNL     1     142.852  72.504 220.541 -0.19 -0.03    +0.177 C  
DOCKED: ATOM     25  C   UNL     1     143.787  72.126 219.390 -0.19 -0.00    +0.069 C  
DOCKED: ATOM     26  N   UNL     1     143.032  73.915 220.612 -0.14 +0.08    -0.324 N  
DOCKED: ATOM     27  C   UNL     1     144.631  73.345 219.097 -0.24 -0.01    +0.136 C  
DOCKED: ATOM     28  C   UNL     1     144.474  74.138 220.377 -0.39 -0.05    +0.152 C  
DOCKED: BRANCH  26  29
DOCKED: ATOM     29  C   UNL     1     142.161  74.998 220.850 -0.15 -0.10    +0.254 C  
DOCKED: ATOM     30  O   UNL     1     141.508  75.166 221.928 -0.37 +0.06    -0.269 OA 
DOCKED: BRANCH  29  31
DOCKED: ATOM     31  C   UNL     1     141.924  76.058 219.842 -0.25 -0.02    +0.040 A  
DOCKED: ATOM     32  C   UNL     1     142.227  77.378 220.092 -0.32 -0.01    +0.014 A  
DOCKED: ATOM     33  C   UNL     1     141.386  75.620 218.640 -0.11 -0.00    +0.014 A  
DOCKED: ATOM     34  C   UNL     1     141.961  78.273 219.056 -0.28 -0.00    +0.001 A  
DOCKED: ATOM     35  C   UNL     1     141.130  76.512 217.628 -0.08 -0.00    +0.001 A  
DOCKED: ATOM     36  C   UNL     1     141.426  77.849 217.856 -0.15 -0.00    +0.000 A  
DOCKED: ENDBRANCH  29  31
DOCKED: ENDBRANCH  26  29
DOCKED: BRANCH  27  37
DOCKED: ATOM     37  O   UNL     1     145.967  73.002 218.878 -0.74 -0.27    -0.391 OA 
DOCKED: ATOM     38  H   UNL     1     146.455  73.838 218.684 -0.45 +0.07    +0.211 HD 
DOCKED: ENDBRANCH  27  37
DOCKED: ENDBRANCH  22  24
DOCKED: ENDBRANCH   1  22
DOCKED: TORSDOF 11
DOCKED: TER
DOCKED: ENDMDL
________________________________________________________________________________


    FINAL DOCKED STATE:
    ________________________


Run:   5 / 20
Time taken for this run:   0.041s

DOCKED: MODEL        5
DOCKED: USER    Run = 5
DOCKED: USER
DOCKED: USER    Estimated Free Energy of Binding    =  -8.07 kcal/mol  [=(1)+(2)+(3)-(4)]
DOCKED: USER
DOCKED: USER    (1) Final Intermolecular Energy     = -11.36 kcal/mol
DOCKED: USER        vdW + Hbond + desolv Energy     = -11.22 kcal/mol
DOCKED: USER        Electrostatic Energy            =  -0.14 kcal/mol
DOCKED: USER        Moving Ligand-Fixed Receptor    = -11.36 kcal/mol
DOCKED: USER        Moving Ligand-Moving Receptor   =  +0.00 kcal/mol
DOCKED: USER    (2) Final Total Internal Energy     =  -3.41 kcal/mol
DOCKED: USER    (3) Torsional Free Energy           =  +3.28 kcal/mol
DOCKED: USER    (4) Unbound System's Energy         =  -3.41 kcal/mol
DOCKED: USER
DOCKED: USER
DOCKED: REMARK SMILES CCCN(CCNC(=O)c1ccc2cc(F)ccc2n1)C(=O)[C@H]1C[C@H](O)CN1C(=O)c1ccccc1
DOCKED: REMARK SMILES IDX 4 1 3 2 2 3 1 4 5 5 6 6 7 7 8 8 9 10 10 11 11 12 20 13 12 14
DOCKED: REMARK SMILES IDX 19 15 13 16 18 17 14 18 17 19 15 20 16 21 21 22 22 23 23 24
DOCKED: REMARK SMILES IDX 24 25 28 26 25 27 27 28 29 29 30 30 31 31 32 32 36 33 33 34
DOCKED: REMARK SMILES IDX 35 35 34 36 26 37
DOCKED: REMARK H PARENT 7 9 26 38
DOCKED: USER                              x       y       z     vdW  Elec       q    Type
DOCKED: USER                           _______ _______ _______ _____ _____    ______ ____
DOCKED: ROOT
DOCKED: ATOM      1  N   UNL     1     139.346  75.280 220.377 -0.03 +0.08    -0.339 N  
DOCKED: ENDROOT
DOCKED: BRANCH   1   2
DOCKED: ATOM      2  C   UNL     1     138.883  76.547 219.817 -0.04 -0.03    +0.119 C  
DOCKED: BRANCH   2   3
DOCKED: ATOM      3  C   UNL     1     138.443  77.489 220.925 -0.12 -0.00    +0.018 C  
DOCKED: ATOM      4  C   UNL     1     137.449  76.825 221.849 -0.19 -0.00    +0.006 C  
DOCKED: ENDBRANCH   2   3
DOCKED: ENDBRANCH   1   2
DOCKED: BRANCH   1   5
DOCKED: ATOM      5  C   UNL     1     138.815  74.062 219.864 -0.05 -0.03    +0.140 C  
DOCKED: BRANCH   5   6
DOCKED: ATOM      6  C   UNL     1     137.992  73.212 220.738 -0.07 -0.03    +0.137 C  
DOCKED: BRANCH   6   7
DOCKED: ATOM      7  N   UNL     1     138.491  72.789 221.989 -0.08 +0.09    -0.349 N  
DOCKED: ATOM      8  C   UNL     1     138.570  71.358 222.216 -0.11 -0.06    +0.269 C  
DOCKED: ATOM      9  H   UNL     1     138.815  73.362 222.790 -0.50 -0.07    +0.163 HD 
DOCKED: ATOM     10  O   UNL     1     138.177  70.619 221.266 -0.04 +0.05    -0.268 OA 
DOCKED: BRANCH   8  11
DOCKED: ATOM     11  C   UNL     1     139.078  70.831 223.476 -0.25 -0.03    +0.128 A  
DOCKED: ATOM     12  C   UNL     1     138.913  69.459 223.675 -0.26 -0.01    +0.035 A  
DOCKED: ATOM     13  N   UNL     1     139.669  71.579 224.417 -0.22 +0.06    -0.243 NA 
DOCKED: ATOM     14  C   UNL     1     139.364  68.888 224.843 -0.38 -0.00    +0.013 A  
DOCKED: ATOM     15  C   UNL     1     140.110  71.014 225.562 -0.48 -0.01    +0.071 A  
DOCKED: ATOM     16  C   UNL     1     139.966  69.670 225.795 -0.47 -0.00    +0.003 A  
DOCKED: ATOM     17  C   UNL     1     140.721  71.774 226.529 -0.64 -0.01    +0.032 A  
DOCKED: ATOM     18  C   UNL     1     140.435  69.136 226.980 -0.56 -0.01    +0.049 A  
DOCKED: ATOM     19  C   UNL     1     141.196  71.259 227.720 -0.65 -0.01    +0.041 A  
DOCKED: ATOM     20  C   UNL     1     141.047  69.902 227.947 -0.49 -0.02    +0.123 A  
DOCKED: ATOM     21  F   UNL     1     141.482  69.302 229.090 -0.04 +0.05    -0.207 F  
DOCKED: ENDBRANCH   8  11
DOCKED: ENDBRANCH   6   7
DOCKED: ENDBRANCH   5   6
DOCKED: ENDBRANCH   1   5
DOCKED: BRANCH   1  22
DOCKED: ATOM     22  C   UNL     1     140.358  75.269 221.416 -0.22 -0.05    +0.245 C  
DOCKED: ATOM     23  O   UNL     1     139.954  75.198 222.598 -0.48 +0.01    -0.272 OA 
DOCKED: BRANCH  22  24
DOCKED: ATOM     24  C   UNL     1     141.816  75.343 221.048 -0.16 -0.07    +0.177 C  
DOCKED: ATOM     25  C   UNL     1     142.080  74.358 219.907 -0.20 -0.02    +0.069 C  
DOCKED: ATOM     26  N   UNL     1     142.211  76.580 220.464 -0.11 +0.21    -0.324 N  
DOCKED: ATOM     27  C   UNL     1     142.873  75.108 218.861 -0.20 -0.06    +0.136 C  
DOCKED: ATOM     28  C   UNL     1     143.415  76.270 219.665 -0.30 -0.10    +0.152 C  
DOCKED: BRANCH  26  29
DOCKED: ATOM     29  C   UNL     1     141.701  77.894 220.526 -0.20 -0.15    +0.254 C  
DOCKED: ATOM     30  O   UNL     1     141.147  78.492 219.551 -0.11 +0.13    -0.269 OA 
DOCKED: BRANCH  29  31
DOCKED: ATOM     31  C   UNL     1     141.770  78.710 221.761 -0.40 -0.02    +0.040 A  
DOCKED: ATOM     32  C   UNL     1     141.449  78.186 222.995 -0.51 -0.01    +0.014 A  
DOCKED: ATOM     33  C   UNL     1     142.183  80.021 221.581 -0.44 -0.01    +0.014 A  
DOCKED: ATOM     34  C   UNL     1     141.562  79.060 224.076 -0.58 -0.00    +0.001 A  
DOCKED: ATOM     35  C   UNL     1     142.292  80.870 222.655 -0.57 -0.00    +0.001 A  
DOCKED: ATOM     36  C   UNL     1     141.973  80.367 223.908 -0.59 -0.00    +0.000 A  
DOCKED: ENDBRANCH  29  31
DOCKED: ENDBRANCH  26  29
DOCKED: BRANCH  27  37
DOCKED: ATOM     37  O   UNL     1     143.909  74.325 218.345 -0.08 +0.13    -0.391 OA 
DOCKED: ATOM     38  H   UNL     1     144.689  74.917 218.222 -0.40 -0.13    +0.211 HD 
DOCKED: ENDBRANCH  27  37
DOCKED: ENDBRANCH  22  24
DOCKED: ENDBRANCH   1  22
DOCKED: TORSDOF 11
DOCKED: TER
DOCKED: ENDMDL
________________________________________________________________________________


    FINAL DOCKED STATE:
    ________________________


Run:   6 / 20
Time taken for this run:   0.041s

DOCKED: MODEL        6
DOCKED: USER    Run = 6
DOCKED: USER
DOCKED: USER    Estimated Free Energy of Binding    =  -6.47 kcal/mol  [=(1)+(2)+(3)-(4)]
DOCKED: USER
DOCKED: USER    (1) Final Intermolecular Energy     =  -9.76 kcal/mol
DOCKED: USER        vdW + Hbond + desolv Energy     =  -9.36 kcal/mol
DOCKED: USER        Electrostatic Energy            =  -0.39 kcal/mol
DOCKED: USER        Moving Ligand-Fixed Receptor    =  -9.76 kcal/mol
DOCKED: USER        Moving Ligand-Moving Receptor   =  +0.00 kcal/mol
DOCKED: USER    (2) Final Total Internal Energy     =  -4.73 kcal/mol
DOCKED: USER    (3) Torsional Free Energy           =  +3.28 kcal/mol
DOCKED: USER    (4) Unbound System's Energy         =  -4.73 kcal/mol
DOCKED: USER
DOCKED: USER
DOCKED: REMARK SMILES CCCN(CCNC(=O)c1ccc2cc(F)ccc2n1)C(=O)[C@H]1C[C@H](O)CN1C(=O)c1ccccc1
DOCKED: REMARK SMILES IDX 4 1 3 2 2 3 1 4 5 5 6 6 7 7 8 8 9 10 10 11 11 12 20 13 12 14
DOCKED: REMARK SMILES IDX 19 15 13 16 18 17 14 18 17 19 15 20 16 21 21 22 22 23 23 24
DOCKED: REMARK SMILES IDX 24 25 28 26 25 27 27 28 29 29 30 30 31 31 32 32 36 33 33 34
DOCKED: REMARK SMILES IDX 35 35 34 36 26 37
DOCKED: REMARK H PARENT 7 9 26 38
DOCKED: USER                              x       y       z     vdW  Elec       q    Type
DOCKED: USER                           _______ _______ _______ _____ _____    ______ ____
DOCKED: ROOT
DOCKED: ATOM      1  N   UNL     1     143.058  75.921 218.322 -0.12 +0.18    -0.339 N  
DOCKED: ENDROOT
DOCKED: BRANCH   1   2
DOCKED: ATOM      2  C   UNL     1     143.714  75.467 217.098 -0.16 -0.06    +0.119 C  
DOCKED: BRANCH   2   3
DOCKED: ATOM      3  C   UNL     1     142.851  75.777 215.887 -0.12 -0.01    +0.018 C  
DOCKED: ATOM      4  C   UNL     1     141.697  74.809 215.771 -0.03 -0.00    +0.006 C  
DOCKED: ENDBRANCH   2   3
DOCKED: ENDBRANCH   1   2
DOCKED: BRANCH   1   5
DOCKED: ATOM      5  C   UNL     1     143.331  75.243 219.545 -0.30 -0.07    +0.140 C  
DOCKED: BRANCH   5   6
DOCKED: ATOM      6  C   UNL     1     142.228  74.979 220.483 -0.25 -0.05    +0.137 C  
DOCKED: BRANCH   6   7
DOCKED: ATOM      7  N   UNL     1     141.348  76.019 220.853 -0.13 +0.14    -0.349 N  
DOCKED: ATOM      8  C   UNL     1     140.343  75.706 221.851 -0.23 -0.06    +0.269 C  
DOCKED: ATOM      9  H   UNL     1     141.311  76.995 220.508 +0.05 -0.08    +0.163 HD 
DOCKED: ATOM     10  O   UNL     1     140.347  74.520 222.296 -0.77 -0.01    -0.268 OA 
DOCKED: BRANCH   8  11
DOCKED: ATOM     11  C   UNL     1     139.397  76.719 222.298 -0.29 -0.03    +0.128 A  
DOCKED: ATOM     12  C   UNL     1     138.047  76.426 222.094 -0.25 -0.01    +0.035 A  
DOCKED: ATOM     13  N   UNL     1     139.753  77.878 222.870 -0.16 +0.05    -0.243 NA 
DOCKED: ATOM     14  C   UNL     1     137.093  77.337 222.486 -0.21 -0.00    +0.013 A  
DOCKED: ATOM     15  C   UNL     1     138.812  78.768 223.253 -0.25 -0.01    +0.071 A  
DOCKED: ATOM     16  C   UNL     1     137.477  78.517 223.069 -0.17 -0.00    +0.003 A  
DOCKED: ATOM     17  C   UNL     1     139.170  79.955 223.843 -0.42 -0.00    +0.032 A  
DOCKED: ATOM     18  C   UNL     1     136.550  79.457 223.480 -0.18 -0.01    +0.049 A  
DOCKED: ATOM     19  C   UNL     1     138.260  80.907 224.260 -0.38 -0.00    +0.041 A  
DOCKED: ATOM     20  C   UNL     1     136.914  80.647 224.071 -0.24 -0.01    +0.123 A  
DOCKED: ATOM     21  F   UNL     1     135.941  81.523 224.448 -0.04 +0.02    -0.207 F  
DOCKED: ENDBRANCH   8  11
DOCKED: ENDBRANCH   6   7
DOCKED: ENDBRANCH   5   6
DOCKED: ENDBRANCH   1   5
DOCKED: BRANCH   1  22
DOCKED: ATOM     22  C   UNL     1     142.169  77.067 218.291 -0.17 -0.14    +0.245 C  
DOCKED: ATOM     23  O   UNL     1     140.942  76.833 218.357 -0.04 +0.11    -0.272 OA 
DOCKED: BRANCH  22  24
DOCKED: ATOM     24  C   UNL     1     142.737  78.457 218.183 -0.21 -0.15    +0.177 C  
DOCKED: ATOM     25  C   UNL     1     142.482  78.977 216.767 -0.06 -0.08    +0.069 C  
DOCKED: ATOM     26  N   UNL     1     142.062  79.428 218.977 -0.15 +0.22    -0.324 N  
DOCKED: ATOM     27  C   UNL     1     141.910  80.369 216.911 -0.16 -0.12    +0.136 C  
DOCKED: ATOM     28  C   UNL     1     142.330  80.725 218.321 -0.26 -0.11    +0.152 C  
DOCKED: BRANCH  26  29
DOCKED: ATOM     29  C   UNL     1     141.282  79.356 220.149 -0.17 -0.12    +0.254 C  
DOCKED: ATOM     30  O   UNL     1     140.147  78.789 220.219 -0.06 +0.09    -0.269 OA 
DOCKED: BRANCH  29  31
DOCKED: ATOM     31  C   UNL     1     141.727  79.950 221.432 -0.39 -0.02    +0.040 A  
DOCKED: ATOM     32  C   UNL     1     142.428  79.218 222.366 -0.49 -0.01    +0.014 A  
DOCKED: ATOM     33  C   UNL     1     141.393  81.285 221.612 -0.40 -0.00    +0.014 A  
DOCKED: ATOM     34  C   UNL     1     142.792  79.900 223.526 -0.59 -0.00    +0.001 A  
DOCKED: ATOM     35  C   UNL     1     141.760  81.944 222.760 -0.39 -0.00    +0.001 A  
DOCKED: ATOM     36  C   UNL     1     142.466  81.228 223.717 -0.62 -0.00    +0.000 A  
DOCKED: ENDBRANCH  29  31
DOCKED: ENDBRANCH  26  29
DOCKED: BRANCH  27  37
DOCKED: ATOM     37  O   UNL     1     142.468  81.250 215.982 -0.08 +0.43    -0.391 OA 
DOCKED: ATOM     38  H   UNL     1     143.350  80.888 215.729 -0.50 -0.48    +0.211 HD 
DOCKED: ENDBRANCH  27  37
DOCKED: ENDBRANCH  22  24
DOCKED: ENDBRANCH   1  22
DOCKED: TORSDOF 11
DOCKED: TER
DOCKED: ENDMDL
________________________________________________________________________________


    FINAL DOCKED STATE:
    ________________________


Run:   7 / 20
Time taken for this run:   0.041s

DOCKED: MODEL        7
DOCKED: USER    Run = 7
DOCKED: USER
DOCKED: USER    Estimated Free Energy of Binding    =  -7.99 kcal/mol  [=(1)+(2)+(3)-(4)]
DOCKED: USER
DOCKED: USER    (1) Final Intermolecular Energy     = -11.28 kcal/mol
DOCKED: USER        vdW + Hbond + desolv Energy     = -11.12 kcal/mol
DOCKED: USER        Electrostatic Energy            =  -0.16 kcal/mol
DOCKED: USER        Moving Ligand-Fixed Receptor    = -11.28 kcal/mol
DOCKED: USER        Moving Ligand-Moving Receptor   =  +0.00 kcal/mol
DOCKED: USER    (2) Final Total Internal Energy     =  -2.42 kcal/mol
DOCKED: USER    (3) Torsional Free Energy           =  +3.28 kcal/mol
DOCKED: USER    (4) Unbound System's Energy         =  -2.42 kcal/mol
DOCKED: USER
DOCKED: USER
DOCKED: REMARK SMILES CCCN(CCNC(=O)c1ccc2cc(F)ccc2n1)C(=O)[C@H]1C[C@H](O)CN1C(=O)c1ccccc1
DOCKED: REMARK SMILES IDX 4 1 3 2 2 3 1 4 5 5 6 6 7 7 8 8 9 10 10 11 11 12 20 13 12 14
DOCKED: REMARK SMILES IDX 19 15 13 16 18 17 14 18 17 19 15 20 16 21 21 22 22 23 23 24
DOCKED: REMARK SMILES IDX 24 25 28 26 25 27 27 28 29 29 30 30 31 31 32 32 36 33 33 34
DOCKED: REMARK SMILES IDX 35 35 34 36 26 37
DOCKED: REMARK H PARENT 7 9 26 38
DOCKED: USER                              x       y       z     vdW  Elec       q    Type
DOCKED: USER                           _______ _______ _______ _____ _____    ______ ____
DOCKED: ROOT
DOCKED: ATOM      1  N   UNL     1     138.831  75.674 220.491 -0.02 +0.08    -0.339 N  
DOCKED: ENDROOT
DOCKED: BRANCH   1   2
DOCKED: ATOM      2  C   UNL     1     137.730  76.014 221.390 -0.14 -0.03    +0.119 C  
DOCKED: BRANCH   2   3
DOCKED: ATOM      3  C   UNL     1     138.265  76.558 222.703 -0.29 -0.00    +0.018 C  
DOCKED: ATOM      4  C   UNL     1     138.311  78.068 222.694 -0.28 -0.00    +0.006 C  
DOCKED: ENDBRANCH   2   3
DOCKED: ENDBRANCH   1   2
DOCKED: BRANCH   1   5
DOCKED: ATOM      5  C   UNL     1     139.561  74.472 220.715 -0.14 -0.03    +0.140 C  
DOCKED: BRANCH   5   6
DOCKED: ATOM      6  C   UNL     1     138.833  73.244 221.073 -0.12 -0.03    +0.137 C  
DOCKED: BRANCH   6   7
DOCKED: ATOM      7  N   UNL     1     138.931  72.718 222.379 -0.09 +0.10    -0.349 N  
DOCKED: ATOM      8  C   UNL     1     139.919  71.678 222.597 -0.21 -0.04    +0.269 C  
DOCKED: ATOM      9  H   UNL     1     138.387  72.968 223.225 -0.46 -0.11    +0.163 HD 
DOCKED: ATOM     10  O   UNL     1     140.601  71.334 221.587 -0.13 +0.04    -0.268 OA 
DOCKED: BRANCH   8  11
DOCKED: ATOM     11  C   UNL     1     140.093  71.081 223.914 -0.34 -0.02    +0.128 A  
DOCKED: ATOM     12  C   UNL     1     140.692  71.893 224.879 -0.35 -0.00    +0.035 A  
DOCKED: ATOM     13  N   UNL     1     139.720  69.832 224.227 -0.17 +0.04    -0.243 NA 
DOCKED: ATOM     14  C   UNL     1     140.894  71.397 226.147 -0.65 -0.00    +0.013 A  
DOCKED: ATOM     15  C   UNL     1     139.920  69.351 225.472 -0.40 -0.01    +0.071 A  
DOCKED: ATOM     16  C   UNL     1     140.506  70.117 226.447 -0.56 -0.00    +0.003 A  
DOCKED: ATOM     17  C   UNL     1     139.537  68.073 225.800 -0.54 -0.00    +0.032 A  
DOCKED: ATOM     18  C   UNL     1     140.688  69.582 227.709 -0.58 -0.01    +0.049 A  
DOCKED: ATOM     19  C   UNL     1     139.710  67.520 227.055 -0.47 -0.01    +0.041 A  
DOCKED: ATOM     20  C   UNL     1     140.302  68.300 228.032 -0.53 -0.03    +0.123 A  
DOCKED: ATOM     21  F   UNL     1     140.517  67.844 229.298 -0.11 +0.06    -0.207 F  
DOCKED: ENDBRANCH   8  11
DOCKED: ENDBRANCH   6   7
DOCKED: ENDBRANCH   5   6
DOCKED: ENDBRANCH   1   5
DOCKED: BRANCH   1  22
DOCKED: ATOM     22  C   UNL     1     139.147  76.536 219.368 -0.02 -0.06    +0.245 C  
DOCKED: ATOM     23  O   UNL     1     138.191  77.137 218.830 -0.00 +0.06    -0.272 OA 
DOCKED: BRANCH  22  24
DOCKED: ATOM     24  C   UNL     1     140.572  76.673 218.901 -0.06 -0.06    +0.177 C  
DOCKED: ATOM     25  C   UNL     1     140.602  77.636 217.712 -0.06 -0.03    +0.069 C  
DOCKED: ATOM     26  N   UNL     1     141.431  77.328 219.829 -0.09 +0.16    -0.324 N  
DOCKED: ATOM     27  C   UNL     1     141.715  78.623 217.981 -0.19 -0.09    +0.136 C  
DOCKED: ATOM     28  C   UNL     1     142.534  77.884 219.018 -0.20 -0.11    +0.152 C  
DOCKED: BRANCH  26  29
DOCKED: ATOM     29  C   UNL     1     141.403  77.501 221.229 -0.18 -0.13    +0.254 C  
DOCKED: ATOM     30  O   UNL     1     141.227  76.557 222.062 -0.27 +0.12    -0.269 OA 
DOCKED: BRANCH  29  31
DOCKED: ATOM     31  C   UNL     1     141.578  78.828 221.864 -0.40 -0.02    +0.040 A  
DOCKED: ATOM     32  C   UNL     1     142.133  78.964 223.118 -0.56 -0.01    +0.014 A  
DOCKED: ATOM     33  C   UNL     1     141.151  79.907 221.105 -0.31 -0.01    +0.014 A  
DOCKED: ATOM     34  C   UNL     1     142.246  80.269 223.597 -0.65 -0.00    +0.001 A  
DOCKED: ATOM     35  C   UNL     1     141.270  81.187 221.589 -0.39 -0.00    +0.001 A  
DOCKED: ATOM     36  C   UNL     1     141.825  81.351 222.850 -0.54 -0.00    +0.000 A  
DOCKED: ENDBRANCH  29  31
DOCKED: ENDBRANCH  26  29
DOCKED: BRANCH  27  37
DOCKED: ATOM     37  O   UNL     1     142.467  78.873 216.830 -0.13 +0.42    -0.391 OA 
DOCKED: ATOM     38  H   UNL     1     143.314  79.289 217.119 -0.50 -0.38    +0.211 HD 
DOCKED: ENDBRANCH  27  37
DOCKED: ENDBRANCH  22  24
DOCKED: ENDBRANCH   1  22
DOCKED: TORSDOF 11
DOCKED: TER
DOCKED: ENDMDL
________________________________________________________________________________


    FINAL DOCKED STATE:
    ________________________


Run:   8 / 20
Time taken for this run:   0.041s

DOCKED: MODEL        8
DOCKED: USER    Run = 8
DOCKED: USER
DOCKED: USER    Estimated Free Energy of Binding    =  -7.20 kcal/mol  [=(1)+(2)+(3)-(4)]
DOCKED: USER
DOCKED: USER    (1) Final Intermolecular Energy     = -10.48 kcal/mol
DOCKED: USER        vdW + Hbond + desolv Energy     = -10.36 kcal/mol
DOCKED: USER        Electrostatic Energy            =  -0.12 kcal/mol
DOCKED: USER        Moving Ligand-Fixed Receptor    = -10.48 kcal/mol
DOCKED: USER        Moving Ligand-Moving Receptor   =  +0.00 kcal/mol
DOCKED: USER    (2) Final Total Internal Energy     =  -3.62 kcal/mol
DOCKED: USER    (3) Torsional Free Energy           =  +3.28 kcal/mol
DOCKED: USER    (4) Unbound System's Energy         =  -3.62 kcal/mol
DOCKED: USER
DOCKED: USER
DOCKED: REMARK SMILES CCCN(CCNC(=O)c1ccc2cc(F)ccc2n1)C(=O)[C@H]1C[C@H](O)CN1C(=O)c1ccccc1
DOCKED: REMARK SMILES IDX 4 1 3 2 2 3 1 4 5 5 6 6 7 7 8 8 9 10 10 11 11 12 20 13 12 14
DOCKED: REMARK SMILES IDX 19 15 13 16 18 17 14 18 17 19 15 20 16 21 21 22 22 23 23 24
DOCKED: REMARK SMILES IDX 24 25 28 26 25 27 27 28 29 29 30 30 31 31 32 32 36 33 33 34
DOCKED: REMARK SMILES IDX 35 35 34 36 26 37
DOCKED: REMARK H PARENT 7 9 26 38
DOCKED: USER                              x       y       z     vdW  Elec       q    Type
DOCKED: USER                           _______ _______ _______ _____ _____    ______ ____
DOCKED: ROOT
DOCKED: ATOM      1  N   UNL     1     137.852  75.473 221.394 -0.07 +0.08    -0.339 N  
DOCKED: ENDROOT
DOCKED: BRANCH   1   2
DOCKED: ATOM      2  C   UNL     1     136.724  76.140 222.041 -0.15 -0.02    +0.119 C  
DOCKED: BRANCH   2   3
DOCKED: ATOM      3  C   UNL     1     136.535  75.614 223.453 -0.20 -0.01    +0.018 C  
DOCKED: ATOM      4  C   UNL     1     135.712  74.347 223.463 -0.22 -0.00    +0.006 C  
DOCKED: ENDBRANCH   2   3
DOCKED: ENDBRANCH   1   2
DOCKED: BRANCH   1   5
DOCKED: ATOM      5  C   UNL     1     137.594  74.483 220.404 -0.05 -0.03    +0.140 C  
DOCKED: BRANCH   5   6
DOCKED: ATOM      6  C   UNL     1     137.721  73.061 220.758 -0.06 -0.03    +0.137 C  
DOCKED: BRANCH   6   7
DOCKED: ATOM      7  N   UNL     1     138.301  72.686 221.990 -0.07 +0.09    -0.349 N  
DOCKED: ATOM      8  C   UNL     1     138.331  71.269 222.299 -0.10 -0.06    +0.269 C  
DOCKED: ATOM      9  H   UNL     1     138.717  73.288 222.724 -0.47 -0.07    +0.163 HD 
DOCKED: ATOM     10  O   UNL     1     137.826  70.497 221.432 -0.03 +0.05    -0.268 OA 
DOCKED: BRANCH   8  11
DOCKED: ATOM     11  C   UNL     1     138.915  70.791 223.545 -0.24 -0.03    +0.128 A  
DOCKED: ATOM     12  C   UNL     1     138.789  69.424 223.794 -0.27 -0.01    +0.035 A  
DOCKED: ATOM     13  N   UNL     1     139.541  71.579 224.430 -0.19 +0.06    -0.243 NA 
DOCKED: ATOM     14  C   UNL     1     139.312  68.898 224.953 -0.40 -0.00    +0.013 A  
DOCKED: ATOM     15  C   UNL     1     140.053  71.058 225.566 -0.47 -0.01    +0.071 A  
DOCKED: ATOM     16  C   UNL     1     139.949  69.720 225.847 -0.47 -0.00    +0.003 A  
DOCKED: ATOM     17  C   UNL     1     140.699  71.859 226.475 -0.62 -0.01    +0.032 A  
DOCKED: ATOM     18  C   UNL     1     140.491  69.232 227.021 -0.55 -0.01    +0.049 A  
DOCKED: ATOM     19  C   UNL     1     141.247  71.391 227.654 -0.66 -0.01    +0.041 A  
DOCKED: ATOM     20  C   UNL     1     141.138  70.039 227.930 -0.45 -0.02    +0.123 A  
DOCKED: ATOM     21  F   UNL     1     141.644  69.483 229.066 -0.03 +0.05    -0.207 F  
DOCKED: ENDBRANCH   8  11
DOCKED: ENDBRANCH   6   7
DOCKED: ENDBRANCH   5   6
DOCKED: ENDBRANCH   1   5
DOCKED: BRANCH   1  22
DOCKED: ATOM     22  C   UNL     1     139.212  75.844 221.737 -0.20 -0.05    +0.245 C  
DOCKED: ATOM     23  O   UNL     1     139.830  75.076 222.507 -0.56 +0.02    -0.272 OA 
DOCKED: BRANCH  22  24
DOCKED: ATOM     24  C   UNL     1     139.815  77.102 221.172 -0.17 -0.05    +0.177 C  
DOCKED: ATOM     25  C   UNL     1     140.464  77.886 222.315 -0.38 -0.02    +0.069 C  
DOCKED: ATOM     26  N   UNL     1     140.922  76.882 220.303 -0.08 +0.13    -0.324 N  
DOCKED: ATOM     27  C   UNL     1     141.845  78.280 221.842 -0.16 -0.08    +0.136 C  
DOCKED: ATOM     28  C   UNL     1     141.705  78.134 220.342 -0.23 -0.09    +0.152 C  
DOCKED: BRANCH  26  29
DOCKED: ATOM     29  C   UNL     1     141.332  75.795 219.504 -0.10 -0.09    +0.254 C  
DOCKED: ATOM     30  O   UNL     1     140.917  75.580 218.322 -0.02 +0.09    -0.269 OA 
DOCKED: BRANCH  29  31
DOCKED: ATOM     31  C   UNL     1     142.304  74.784 219.984 -0.25 -0.01    +0.040 A  
DOCKED: ATOM     32  C   UNL     1     141.901  73.541 220.421 -0.23 -0.00    +0.014 A  
DOCKED: ATOM     33  C   UNL     1     143.632  75.181 219.954 -0.40 -0.01    +0.014 A  
DOCKED: ATOM     34  C   UNL     1     142.917  72.683 220.840 -0.28 -0.00    +0.001 A  
DOCKED: ATOM     35  C   UNL     1     144.623  74.325 220.369 -0.50 -0.00    +0.001 A  
DOCKED: ATOM     36  C   UNL     1     144.243  73.067 220.814 -0.42 -0.00    +0.000 A  
DOCKED: ENDBRANCH  29  31
DOCKED: ENDBRANCH  26  29
DOCKED: BRANCH  27  37
DOCKED: ATOM     37  O   UNL     1     142.150  79.597 222.194 -0.26 +0.18    -0.391 OA 
DOCKED: ATOM     38  H   UNL     1     143.047  79.795 221.835 -0.32 -0.13    +0.211 HD 
DOCKED: ENDBRANCH  27  37
DOCKED: ENDBRANCH  22  24
DOCKED: ENDBRANCH   1  22
DOCKED: TORSDOF 11
DOCKED: TER
DOCKED: ENDMDL
________________________________________________________________________________


    FINAL DOCKED STATE:
    ________________________


Run:   9 / 20
Time taken for this run:   0.041s

DOCKED: MODEL        9
DOCKED: USER    Run = 9
DOCKED: USER
DOCKED: USER    Estimated Free Energy of Binding    =  -6.73 kcal/mol  [=(1)+(2)+(3)-(4)]
DOCKED: USER
DOCKED: USER    (1) Final Intermolecular Energy     = -10.01 kcal/mol
DOCKED: USER        vdW + Hbond + desolv Energy     =  -9.73 kcal/mol
DOCKED: USER        Electrostatic Energy            =  -0.29 kcal/mol
DOCKED: USER        Moving Ligand-Fixed Receptor    = -10.01 kcal/mol
DOCKED: USER        Moving Ligand-Moving Receptor   =  +0.00 kcal/mol
DOCKED: USER    (2) Final Total Internal Energy     =  -3.92 kcal/mol
DOCKED: USER    (3) Torsional Free Energy           =  +3.28 kcal/mol
DOCKED: USER    (4) Unbound System's Energy         =  -3.92 kcal/mol
DOCKED: USER
DOCKED: USER
DOCKED: REMARK SMILES CCCN(CCNC(=O)c1ccc2cc(F)ccc2n1)C(=O)[C@H]1C[C@H](O)CN1C(=O)c1ccccc1
DOCKED: REMARK SMILES IDX 4 1 3 2 2 3 1 4 5 5 6 6 7 7 8 8 9 10 10 11 11 12 20 13 12 14
DOCKED: REMARK SMILES IDX 19 15 13 16 18 17 14 18 17 19 15 20 16 21 21 22 22 23 23 24
DOCKED: REMARK SMILES IDX 24 25 28 26 25 27 27 28 29 29 30 30 31 31 32 32 36 33 33 34
DOCKED: REMARK SMILES IDX 35 35 34 36 26 37
DOCKED: REMARK H PARENT 7 9 26 38
DOCKED: USER                              x       y       z     vdW  Elec       q    Type
DOCKED: USER                           _______ _______ _______ _____ _____    ______ ____
DOCKED: ROOT
DOCKED: ATOM      1  N   UNL     1     141.007  74.483 220.838 -0.12 +0.07    -0.339 N  
DOCKED: ENDROOT
DOCKED: BRANCH   1   2
DOCKED: ATOM      2  C   UNL     1     141.451  75.834 221.174 -0.24 -0.05    +0.119 C  
DOCKED: BRANCH   2   3
DOCKED: ATOM      3  C   UNL     1     140.569  76.429 222.258 -0.38 -0.00    +0.018 C  
DOCKED: ATOM      4  C   UNL     1     141.044  77.805 222.661 -0.47 -0.00    +0.006 C  
DOCKED: ENDBRANCH   2   3
DOCKED: ENDBRANCH   1   2
DOCKED: BRANCH   1   5
DOCKED: ATOM      5  C   UNL     1     139.663  74.283 220.412 -0.11 -0.03    +0.140 C  
DOCKED: BRANCH   5   6
DOCKED: ATOM      6  C   UNL     1     138.748  73.505 221.261 -0.14 -0.03    +0.137 C  
DOCKED: BRANCH   6   7
DOCKED: ATOM      7  N   UNL     1     139.242  72.814 222.389 -0.11 +0.09    -0.349 N  
DOCKED: ATOM      8  C   UNL     1     138.597  71.560 222.727 -0.14 -0.07    +0.269 C  
DOCKED: ATOM      9  H   UNL     1     140.015  73.078 223.027 -0.14 -0.01    +0.163 HD 
DOCKED: ATOM     10  O   UNL     1     137.641  71.203 221.978 -0.06 +0.05    -0.268 OA 
DOCKED: BRANCH   8  11
DOCKED: ATOM     11  C   UNL     1     139.045  70.777 223.871 -0.27 -0.03    +0.128 A  
DOCKED: ATOM     12  C   UNL     1     138.798  69.404 223.807 -0.28 -0.01    +0.035 A  
DOCKED: ATOM     13  N   UNL     1     139.658  71.298 224.943 -0.26 +0.05    -0.243 NA 
DOCKED: ATOM     14  C   UNL     1     139.189  68.599 224.853 -0.40 -0.00    +0.013 A  
DOCKED: ATOM     15  C   UNL     1     140.039  70.504 225.966 -0.47 -0.01    +0.071 A  
DOCKED: ATOM     16  C   UNL     1     139.813  69.151 225.940 -0.49 -0.00    +0.003 A  
DOCKED: ATOM     17  C   UNL     1     140.671  71.031 227.065 -0.66 -0.01    +0.032 A  
DOCKED: ATOM     18  C   UNL     1     140.225  68.377 227.010 -0.61 -0.01    +0.049 A  
DOCKED: ATOM     19  C   UNL     1     141.089  70.275 228.144 -0.55 -0.01    +0.041 A  
DOCKED: ATOM     20  C   UNL     1     140.857  68.911 228.110 -0.53 -0.03    +0.123 A  
DOCKED: ATOM     21  F   UNL     1     141.231  68.082 229.125 -0.18 +0.05    -0.207 F  
DOCKED: ENDBRANCH   8  11
DOCKED: ENDBRANCH   6   7
DOCKED: ENDBRANCH   5   6
DOCKED: ENDBRANCH   1   5
DOCKED: BRANCH   1  22
DOCKED: ATOM     22  C   UNL     1     141.938  73.373 220.906 -0.16 -0.04    +0.245 C  
DOCKED: ATOM     23  O   UNL     1     141.798  72.576 221.860 -0.11 +0.01    -0.272 OA 
DOCKED: BRANCH  22  24
DOCKED: ATOM     24  C   UNL     1     143.009  73.221 219.859 -0.17 -0.03    +0.177 C  
DOCKED: ATOM     25  C   UNL     1     144.310  73.811 220.406 -0.42 -0.02    +0.069 C  
DOCKED: ATOM     26  N   UNL     1     143.386  71.873 219.598 -0.06 +0.03    -0.324 N  
DOCKED: ATOM     27  C   UNL     1     145.395  72.792 220.138 -0.42 +0.01    +0.136 C  
DOCKED: ATOM     28  C   UNL     1     144.758  71.948 219.055 -0.20 +0.03    +0.152 C  
DOCKED: BRANCH  26  29
DOCKED: ATOM     29  C   UNL     1     142.733  70.632 219.748 -0.09 -0.02    +0.254 C  
DOCKED: ATOM     30  O   UNL     1     143.321  69.547 220.052 -0.10 +0.01    -0.269 OA 
DOCKED: BRANCH  29  31
DOCKED: ATOM     31  C   UNL     1     141.271  70.482 219.560 -0.09 -0.01    +0.040 A  
DOCKED: ATOM     32  C   UNL     1     140.571  71.260 218.664 -0.04 -0.00    +0.014 A  
DOCKED: ATOM     33  C   UNL     1     140.672  69.505 220.343 -0.09 -0.00    +0.014 A  
DOCKED: ATOM     34  C   UNL     1     139.201  71.011 218.580 -0.02 -0.00    +0.001 A  
DOCKED: ATOM     35  C   UNL     1     139.322  69.271 220.249 -0.10 -0.00    +0.001 A  
DOCKED: ATOM     36  C   UNL     1     138.594  70.042 219.353 -0.03 -0.00    +0.000 A  
DOCKED: ENDBRANCH  29  31
DOCKED: ENDBRANCH  26  29
DOCKED: BRANCH  27  37
DOCKED: ATOM     37  O   UNL     1     146.566  73.400 219.680 -0.58 -0.21    -0.391 OA 
DOCKED: ATOM     38  H   UNL     1     146.332  74.319 219.408 -0.45 -0.06    +0.211 HD 
DOCKED: ENDBRANCH  27  37
DOCKED: ENDBRANCH  22  24
DOCKED: ENDBRANCH   1  22
DOCKED: TORSDOF 11
DOCKED: TER
DOCKED: ENDMDL
________________________________________________________________________________


    FINAL DOCKED STATE:
    ________________________


Run:   10 / 20
Time taken for this run:   0.041s

DOCKED: MODEL        10
DOCKED: USER    Run = 10
DOCKED: USER
DOCKED: USER    Estimated Free Energy of Binding    =  -7.10 kcal/mol  [=(1)+(2)+(3)-(4)]
DOCKED: USER
DOCKED: USER    (1) Final Intermolecular Energy     = -10.38 kcal/mol
DOCKED: USER        vdW + Hbond + desolv Energy     = -10.16 kcal/mol
DOCKED: USER        Electrostatic Energy            =  -0.21 kcal/mol
DOCKED: USER        Moving Ligand-Fixed Receptor    = -10.38 kcal/mol
DOCKED: USER        Moving Ligand-Moving Receptor   =  +0.00 kcal/mol
DOCKED: USER    (2) Final Total Internal Energy     =  -3.17 kcal/mol
DOCKED: USER    (3) Torsional Free Energy           =  +3.28 kcal/mol
DOCKED: USER    (4) Unbound System's Energy         =  -3.17 kcal/mol
DOCKED: USER
DOCKED: USER
DOCKED: REMARK SMILES CCCN(CCNC(=O)c1ccc2cc(F)ccc2n1)C(=O)[C@H]1C[C@H](O)CN1C(=O)c1ccccc1
DOCKED: REMARK SMILES IDX 4 1 3 2 2 3 1 4 5 5 6 6 7 7 8 8 9 10 10 11 11 12 20 13 12 14
DOCKED: REMARK SMILES IDX 19 15 13 16 18 17 14 18 17 19 15 20 16 21 21 22 22 23 23 24
DOCKED: REMARK SMILES IDX 24 25 28 26 25 27 27 28 29 29 30 30 31 31 32 32 36 33 33 34
DOCKED: REMARK SMILES IDX 35 35 34 36 26 37
DOCKED: REMARK H PARENT 7 9 26 38
DOCKED: USER                              x       y       z     vdW  Elec       q    Type
DOCKED: USER                           _______ _______ _______ _____ _____    ______ ____
DOCKED: ROOT
DOCKED: ATOM      1  N   UNL     1     140.776  71.144 219.582 -0.02 +0.06    -0.339 N  
DOCKED: ENDROOT
DOCKED: BRANCH   1   2
DOCKED: ATOM      2  C   UNL     1     140.492  69.820 219.034 -0.05 -0.02    +0.119 C  
DOCKED: BRANCH   2   3
DOCKED: ATOM      3  C   UNL     1     140.662  68.754 220.103 -0.12 -0.00    +0.018 C  
DOCKED: ATOM      4  C   UNL     1     141.360  67.531 219.556 -0.15 -0.00    +0.006 C  
DOCKED: ENDBRANCH   2   3
DOCKED: ENDBRANCH   1   2
DOCKED: BRANCH   1   5
DOCKED: ATOM      5  C   UNL     1     139.716  72.090 219.687 -0.04 -0.03    +0.140 C  
DOCKED: BRANCH   5   6
DOCKED: ATOM      6  C   UNL     1     138.643  71.862 220.669 -0.06 -0.03    +0.137 C  
DOCKED: BRANCH   6   7
DOCKED: ATOM      7  N   UNL     1     138.907  71.137 221.851 -0.05 +0.07    -0.349 N  
DOCKED: ATOM      8  C   UNL     1     139.630  71.830 222.900 -0.21 -0.05    +0.269 C  
DOCKED: ATOM      9  H   UNL     1     138.656  70.159 222.086 +0.05 -0.03    +0.163 HD 
DOCKED: ATOM     10  O   UNL     1     139.964  73.026 222.653 -0.69 +0.03    -0.268 OA 
DOCKED: BRANCH   8  11
DOCKED: ATOM     11  C   UNL     1     139.941  71.162 224.157 -0.36 -0.02    +0.128 A  
DOCKED: ATOM     12  C   UNL     1     140.706  71.895 225.066 -0.36 -0.00    +0.035 A  
DOCKED: ATOM     13  N   UNL     1     139.542  69.920 224.464 -0.19 +0.04    -0.243 NA 
DOCKED: ATOM     14  C   UNL     1     141.044  71.328 226.274 -0.67 -0.00    +0.013 A  
DOCKED: ATOM     15  C   UNL     1     139.876  69.370 225.651 -0.41 -0.01    +0.071 A  
DOCKED: ATOM     16  C   UNL     1     140.627  70.057 226.570 -0.56 -0.00    +0.003 A  
DOCKED: ATOM     17  C   UNL     1     139.467  68.099 225.974 -0.55 -0.00    +0.032 A  
DOCKED: ATOM     18  C   UNL     1     140.941  69.453 227.773 -0.56 -0.01    +0.049 A  
DOCKED: ATOM     19  C   UNL     1     139.771  67.478 227.171 -0.37 -0.01    +0.041 A  
DOCKED: ATOM     20  C   UNL     1     140.529  68.178 228.092 -0.53 -0.03    +0.123 A  
DOCKED: ATOM     21  F   UNL     1     140.881  67.652 229.298 -0.08 +0.06    -0.207 F  
DOCKED: ENDBRANCH   8  11
DOCKED: ENDBRANCH   6   7
DOCKED: ENDBRANCH   5   6
DOCKED: ENDBRANCH   1   5
DOCKED: BRANCH   1  22
DOCKED: ATOM     22  C   UNL     1     142.111  71.472 220.042 -0.09 -0.03    +0.245 C  
DOCKED: ATOM     23  O   UNL     1     142.385  71.190 221.230 +0.03 +0.02    -0.272 OA 
DOCKED: BRANCH  22  24
DOCKED: ATOM     24  C   UNL     1     143.093  72.121 219.104 -0.09 -0.02    +0.177 C  
DOCKED: ATOM     25  C   UNL     1     144.205  72.766 219.934 -0.31 -0.01    +0.069 C  
DOCKED: ATOM     26  N   UNL     1     143.825  71.204 218.297 -0.01 -0.00    -0.324 N  
DOCKED: ATOM     27  C   UNL     1     145.515  72.341 219.311 -0.27 +0.06    +0.136 C  
DOCKED: ATOM     28  C   UNL     1     145.069  71.913 217.929 -0.13 +0.06    +0.152 C  
DOCKED: BRANCH  26  29
DOCKED: ATOM     29  C   UNL     1     143.577  69.893 217.843 -0.03 -0.02    +0.254 C  
DOCKED: ATOM     30  O   UNL     1     142.637  69.578 217.048 -0.01 +0.05    -0.269 OA 
DOCKED: BRANCH  29  31
DOCKED: ATOM     31  C   UNL     1     144.409  68.741 218.263 -0.18 -0.00    +0.040 A  
DOCKED: ATOM     32  C   UNL     1     144.722  67.717 217.395 -0.20 -0.01    +0.014 A  
DOCKED: ATOM     33  C   UNL     1     144.847  68.777 219.578 -0.33 +0.00    +0.014 A  
DOCKED: ATOM     34  C   UNL     1     145.518  66.697 217.916 -0.39 -0.00    +0.001 A  
DOCKED: ATOM     35  C   UNL     1     145.631  67.766 220.078 -0.51 +0.00    +0.001 A  
DOCKED: ATOM     36  C   UNL     1     145.960  66.723 219.224 -0.57 -0.00    +0.000 A  
DOCKED: ENDBRANCH  29  31
DOCKED: ENDBRANCH  26  29
DOCKED: BRANCH  27  37
DOCKED: ATOM     37  O   UNL     1     146.418  73.405 219.241 -0.66 -0.25    -0.391 OA 
DOCKED: ATOM     38  H   UNL     1     145.894  74.221 219.059 -0.42 -0.07    +0.211 HD 
DOCKED: ENDBRANCH  27  37
DOCKED: ENDBRANCH  22  24
DOCKED: ENDBRANCH   1  22
DOCKED: TORSDOF 11
DOCKED: TER
DOCKED: ENDMDL
________________________________________________________________________________


    FINAL DOCKED STATE:
    ________________________


Run:   11 / 20
Time taken for this run:   0.041s

DOCKED: MODEL        11
DOCKED: USER    Run = 11
DOCKED: USER
DOCKED: USER    Estimated Free Energy of Binding    =  -5.58 kcal/mol  [=(1)+(2)+(3)-(4)]
DOCKED: USER
DOCKED: USER    (1) Final Intermolecular Energy     =  -8.86 kcal/mol
DOCKED: USER        vdW + Hbond + desolv Energy     =  -8.81 kcal/mol
DOCKED: USER        Electrostatic Energy            =  -0.05 kcal/mol
DOCKED: USER        Moving Ligand-Fixed Receptor    =  -8.86 kcal/mol
DOCKED: USER        Moving Ligand-Moving Receptor   =  +0.00 kcal/mol
DOCKED: USER    (2) Final Total Internal Energy     =  -4.93 kcal/mol
DOCKED: USER    (3) Torsional Free Energy           =  +3.28 kcal/mol
DOCKED: USER    (4) Unbound System's Energy         =  -4.93 kcal/mol
DOCKED: USER
DOCKED: USER
DOCKED: REMARK SMILES CCCN(CCNC(=O)c1ccc2cc(F)ccc2n1)C(=O)[C@H]1C[C@H](O)CN1C(=O)c1ccccc1
DOCKED: REMARK SMILES IDX 4 1 3 2 2 3 1 4 5 5 6 6 7 7 8 8 9 10 10 11 11 12 20 13 12 14
DOCKED: REMARK SMILES IDX 19 15 13 16 18 17 14 18 17 19 15 20 16 21 21 22 22 23 23 24
DOCKED: REMARK SMILES IDX 24 25 28 26 25 27 27 28 29 29 30 30 31 31 32 32 36 33 33 34
DOCKED: REMARK SMILES IDX 35 35 34 36 26 37
DOCKED: REMARK H PARENT 7 9 26 38
DOCKED: USER                              x       y       z     vdW  Elec       q    Type
DOCKED: USER                           _______ _______ _______ _____ _____    ______ ____
DOCKED: ROOT
DOCKED: ATOM      1  N   UNL     1     140.406  74.564 219.807 -0.02 +0.08    -0.339 N  
DOCKED: ENDROOT
DOCKED: BRANCH   1   2
DOCKED: ATOM      2  C   UNL     1     139.622  74.539 218.574 -0.02 -0.03    +0.119 C  
DOCKED: BRANCH   2   3
DOCKED: ATOM      3  C   UNL     1     140.031  75.682 217.661 -0.03 -0.01    +0.018 C  
DOCKED: ATOM      4  C   UNL     1     139.194  76.914 217.914 -0.02 -0.00    +0.006 C  
DOCKED: ENDBRANCH   2   3
DOCKED: ENDBRANCH   1   2
DOCKED: BRANCH   1   5
DOCKED: ATOM      5  C   UNL     1     141.784  74.210 219.758 -0.14 -0.04    +0.140 C  
DOCKED: BRANCH   5   6
DOCKED: ATOM      6  C   UNL     1     142.794  75.182 220.206 -0.25 -0.06    +0.137 C  
DOCKED: BRANCH   6   7
DOCKED: ATOM      7  N   UNL     1     142.466  76.552 220.297 -0.07 +0.23    -0.349 N  
DOCKED: ATOM      8  C   UNL     1     142.499  77.320 219.066 -0.21 -0.18    +0.269 C  
DOCKED: ATOM      9  H   UNL     1     142.202  77.105 221.132 -0.43 -0.13    +0.163 HD 
DOCKED: ATOM     10  O   UNL     1     142.826  76.686 218.020 -0.19 +0.16    -0.268 OA 
DOCKED: BRANCH   8  11
DOCKED: ATOM     11  C   UNL     1     142.170  78.739 219.065 -0.23 -0.09    +0.128 A  
DOCKED: ATOM     12  C   UNL     1     142.871  79.528 218.150 -0.26 -0.04    +0.035 A  
DOCKED: ATOM     13  N   UNL     1     141.262  79.299 219.875 -0.13 +0.12    -0.243 NA 
DOCKED: ATOM     14  C   UNL     1     142.618  80.879 218.093 -0.34 -0.01    +0.013 A  
DOCKED: ATOM     15  C   UNL     1     141.018  80.625 219.815 -0.21 -0.03    +0.071 A  
DOCKED: ATOM     16  C   UNL     1     141.685  81.434 218.930 -0.27 -0.00    +0.003 A  
DOCKED: ATOM     17  C   UNL     1     140.085  81.205 220.640 -0.17 -0.01    +0.032 A  
DOCKED: ATOM     18  C   UNL     1     141.399  82.786 218.903 -0.20 -0.02    +0.049 A  
DOCKED: ATOM     19  C   UNL     1     139.785  82.554 220.627 -0.18 -0.01    +0.041 A  
DOCKED: ATOM     20  C   UNL     1     140.463  83.362 219.732 -0.16 -0.03    +0.123 A  
DOCKED: ATOM     21  F   UNL     1     140.239  84.703 219.645 -0.04 +0.05    -0.207 F  
DOCKED: ENDBRANCH   8  11
DOCKED: ENDBRANCH   6   7
DOCKED: ENDBRANCH   5   6
DOCKED: ENDBRANCH   1   5
DOCKED: BRANCH   1  22
DOCKED: ATOM     22  C   UNL     1     139.790  74.979 221.053 -0.16 -0.05    +0.245 C  
DOCKED: ATOM     23  O   UNL     1     139.986  74.250 222.051 -0.82 +0.02    -0.272 OA 
DOCKED: BRANCH  22  24
DOCKED: ATOM     24  C   UNL     1     138.961  76.234 221.103 -0.14 -0.04    +0.177 C  
DOCKED: ATOM     25  C   UNL     1     137.563  75.873 221.609 -0.16 -0.02    +0.069 C  
DOCKED: ATOM     26  N   UNL     1     139.389  77.181 222.077 -0.15 +0.07    -0.324 N  
DOCKED: ATOM     27  C   UNL     1     137.219  76.875 222.688 -0.21 -0.03    +0.136 C  
DOCKED: ATOM     28  C   UNL     1     138.194  77.993 222.386 -0.20 -0.03    +0.152 C  
DOCKED: BRANCH  26  29
DOCKED: ATOM     29  C   UNL     1     140.623  77.438 222.708 -0.24 -0.07    +0.254 C  
DOCKED: ATOM     30  O   UNL     1     141.440  76.537 223.076 -0.05 +0.11    -0.269 OA 
DOCKED: BRANCH  29  31
DOCKED: ATOM     31  C   UNL     1     141.086  78.814 223.005 -0.49 -0.01    +0.040 A  
DOCKED: ATOM     32  C   UNL     1     140.261  79.744 223.600 -0.46 -0.00    +0.014 A  
DOCKED: ATOM     33  C   UNL     1     142.398  79.087 222.649 -0.50 -0.01    +0.014 A  
DOCKED: ATOM     34  C   UNL     1     140.823  81.000 223.830 -0.41 -0.00    +0.001 A  
DOCKED: ATOM     35  C   UNL     1     142.939  80.327 222.882 -0.64 -0.00    +0.001 A  
DOCKED: ATOM     36  C   UNL     1     142.128  81.282 223.479 -0.61 -0.00    +0.000 A  
DOCKED: ENDBRANCH  29  31
DOCKED: ENDBRANCH  26  29
DOCKED: BRANCH  27  37
DOCKED: ATOM     37  O   UNL     1     135.898  77.314 222.576 -0.06 +0.06    -0.391 OA 
DOCKED: ATOM     38  H   UNL     1     135.488  77.237 223.470 +0.05 -0.03    +0.211 HD 
DOCKED: ENDBRANCH  27  37
DOCKED: ENDBRANCH  22  24
DOCKED: ENDBRANCH   1  22
DOCKED: TORSDOF 11
DOCKED: TER
DOCKED: ENDMDL
________________________________________________________________________________


    FINAL DOCKED STATE:
    ________________________


Run:   12 / 20
Time taken for this run:   0.041s

DOCKED: MODEL        12
DOCKED: USER    Run = 12
DOCKED: USER
DOCKED: USER    Estimated Free Energy of Binding    =  -7.50 kcal/mol  [=(1)+(2)+(3)-(4)]
DOCKED: USER
DOCKED: USER    (1) Final Intermolecular Energy     = -10.78 kcal/mol
DOCKED: USER        vdW + Hbond + desolv Energy     = -10.76 kcal/mol
DOCKED: USER        Electrostatic Energy            =  -0.03 kcal/mol
DOCKED: USER        Moving Ligand-Fixed Receptor    = -10.78 kcal/mol
DOCKED: USER        Moving Ligand-Moving Receptor   =  +0.00 kcal/mol
DOCKED: USER    (2) Final Total Internal Energy     =  -2.79 kcal/mol
DOCKED: USER    (3) Torsional Free Energy           =  +3.28 kcal/mol
DOCKED: USER    (4) Unbound System's Energy         =  -2.79 kcal/mol
DOCKED: USER
DOCKED: USER
DOCKED: REMARK SMILES CCCN(CCNC(=O)c1ccc2cc(F)ccc2n1)C(=O)[C@H]1C[C@H](O)CN1C(=O)c1ccccc1
DOCKED: REMARK SMILES IDX 4 1 3 2 2 3 1 4 5 5 6 6 7 7 8 8 9 10 10 11 11 12 20 13 12 14
DOCKED: REMARK SMILES IDX 19 15 13 16 18 17 14 18 17 19 15 20 16 21 21 22 22 23 23 24
DOCKED: REMARK SMILES IDX 24 25 28 26 25 27 27 28 29 29 30 30 31 31 32 32 36 33 33 34
DOCKED: REMARK SMILES IDX 35 35 34 36 26 37
DOCKED: REMARK H PARENT 7 9 26 38
DOCKED: USER                              x       y       z     vdW  Elec       q    Type
DOCKED: USER                           _______ _______ _______ _____ _____    ______ ____
DOCKED: ROOT
DOCKED: ATOM      1  N   UNL     1     138.595  73.824 220.835 -0.04 +0.07    -0.339 N  
DOCKED: ENDROOT
DOCKED: BRANCH   1   2
DOCKED: ATOM      2  C   UNL     1     139.706  73.135 220.181 -0.08 -0.02    +0.119 C  
DOCKED: BRANCH   2   3
DOCKED: ATOM      3  C   UNL     1     140.047  71.855 220.924 -0.15 -0.00    +0.018 C  
DOCKED: ATOM      4  C   UNL     1     140.909  72.133 222.133 -0.27 -0.00    +0.006 C  
DOCKED: ENDBRANCH   2   3
DOCKED: ENDBRANCH   1   2
DOCKED: BRANCH   1   5
DOCKED: ATOM      5  C   UNL     1     137.271  73.337 220.644 -0.05 -0.03    +0.140 C  
DOCKED: BRANCH   5   6
DOCKED: ATOM      6  C   UNL     1     136.746  72.304 221.552 -0.07 -0.03    +0.137 C  
DOCKED: BRANCH   6   7
DOCKED: ATOM      7  N   UNL     1     137.472  71.942 222.708 -0.07 +0.10    -0.349 N  
DOCKED: ATOM      8  C   UNL     1     137.729  70.529 222.907 -0.11 -0.05    +0.269 C  
DOCKED: ATOM      9  H   UNL     1     137.856  72.551 223.453 -0.43 -0.09    +0.163 HD 
DOCKED: ATOM     10  O   UNL     1     137.270  69.747 222.023 -0.04 +0.04    -0.268 OA 
DOCKED: BRANCH   8  11
DOCKED: ATOM     11  C   UNL     1     138.475  70.064 224.069 -0.25 -0.02    +0.128 A  
DOCKED: ATOM     12  C   UNL     1     138.535  68.681 224.244 -0.32 -0.00    +0.035 A  
DOCKED: ATOM     13  N   UNL     1     139.079  70.878 224.946 -0.20 +0.05    -0.243 NA 
DOCKED: ATOM     14  C   UNL     1     139.219  68.166 225.321 -0.47 -0.00    +0.013 A  
DOCKED: ATOM     15  C   UNL     1     139.749  70.367 226.002 -0.42 -0.01    +0.071 A  
DOCKED: ATOM     16  C   UNL     1     139.830  69.014 226.208 -0.52 -0.00    +0.003 A  
DOCKED: ATOM     17  C   UNL     1     140.374  71.195 226.902 -0.62 -0.01    +0.032 A  
DOCKED: ATOM     18  C   UNL     1     140.530  68.538 227.301 -0.62 -0.01    +0.049 A  
DOCKED: ATOM     19  C   UNL     1     141.077  70.739 228.001 -0.63 -0.01    +0.041 A  
DOCKED: ATOM     20  C   UNL     1     141.154  69.372 228.201 -0.45 -0.03    +0.123 A  
DOCKED: ATOM     21  F   UNL     1     141.823  68.826 229.255 -0.06 +0.05    -0.207 F  
DOCKED: ENDBRANCH   8  11
DOCKED: ENDBRANCH   6   7
DOCKED: ENDBRANCH   5   6
DOCKED: ENDBRANCH   1   5
DOCKED: BRANCH   1  22
DOCKED: ATOM     22  C   UNL     1     138.849  74.967 221.691 -0.17 -0.06    +0.245 C  
DOCKED: ATOM     23  O   UNL     1     139.560  74.769 222.701 -0.57 +0.03    -0.272 OA 
DOCKED: BRANCH  22  24
DOCKED: ATOM     24  C   UNL     1     138.266  76.311 221.346 -0.14 -0.04    +0.177 C  
DOCKED: ATOM     25  C   UNL     1     137.199  76.659 222.386 -0.22 -0.01    +0.069 C  
DOCKED: ATOM     26  N   UNL     1     139.176  77.397 221.487 -0.08 +0.08    -0.324 N  
DOCKED: ATOM     27  C   UNL     1     137.472  78.079 222.830 -0.13 -0.02    +0.136 C  
DOCKED: ATOM     28  C   UNL     1     138.332  78.592 221.695 -0.13 -0.03    +0.152 C  
DOCKED: BRANCH  26  29
DOCKED: ATOM     29  C   UNL     1     140.582  77.501 221.453 -0.21 -0.09    +0.254 C  
DOCKED: ATOM     30  O   UNL     1     141.339  76.735 220.778 -0.18 +0.13    -0.269 OA 
DOCKED: BRANCH  29  31
DOCKED: ATOM     31  C   UNL     1     141.317  78.534 222.221 -0.42 -0.02    +0.040 A  
DOCKED: ATOM     32  C   UNL     1     141.455  78.458 223.590 -0.53 -0.00    +0.014 A  
DOCKED: ATOM     33  C   UNL     1     141.851  79.566 221.463 -0.41 -0.01    +0.014 A  
DOCKED: ATOM     34  C   UNL     1     142.175  79.491 224.189 -0.48 -0.00    +0.001 A  
DOCKED: ATOM     35  C   UNL     1     142.558  80.577 222.066 -0.50 -0.00    +0.001 A  
DOCKED: ATOM     36  C   UNL     1     142.711  80.523 223.445 -0.68 -0.00    +0.000 A  
DOCKED: ENDBRANCH  29  31
DOCKED: ENDBRANCH  26  29
DOCKED: BRANCH  27  37
DOCKED: ATOM     37  O   UNL     1     136.291  78.816 222.941 -0.07 +0.05    -0.391 OA 
DOCKED: ATOM     38  H   UNL     1     136.095  79.190 222.049 +0.04 -0.03    +0.211 HD 
DOCKED: ENDBRANCH  27  37
DOCKED: ENDBRANCH  22  24
DOCKED: ENDBRANCH   1  22
DOCKED: TORSDOF 11
DOCKED: TER
DOCKED: ENDMDL
________________________________________________________________________________


    FINAL DOCKED STATE:
    ________________________


Run:   13 / 20
Time taken for this run:   0.041s

DOCKED: MODEL        13
DOCKED: USER    Run = 13
DOCKED: USER
DOCKED: USER    Estimated Free Energy of Binding    =  -6.19 kcal/mol  [=(1)+(2)+(3)-(4)]
DOCKED: USER
DOCKED: USER    (1) Final Intermolecular Energy     =  -9.47 kcal/mol
DOCKED: USER        vdW + Hbond + desolv Energy     =  -9.20 kcal/mol
DOCKED: USER        Electrostatic Energy            =  -0.26 kcal/mol
DOCKED: USER        Moving Ligand-Fixed Receptor    =  -9.47 kcal/mol
DOCKED: USER        Moving Ligand-Moving Receptor   =  +0.00 kcal/mol
DOCKED: USER    (2) Final Total Internal Energy     =  -4.29 kcal/mol
DOCKED: USER    (3) Torsional Free Energy           =  +3.28 kcal/mol
DOCKED: USER    (4) Unbound System's Energy         =  -4.29 kcal/mol
DOCKED: USER
DOCKED: USER
DOCKED: REMARK SMILES CCCN(CCNC(=O)c1ccc2cc(F)ccc2n1)C(=O)[C@H]1C[C@H](O)CN1C(=O)c1ccccc1
DOCKED: REMARK SMILES IDX 4 1 3 2 2 3 1 4 5 5 6 6 7 7 8 8 9 10 10 11 11 12 20 13 12 14
DOCKED: REMARK SMILES IDX 19 15 13 16 18 17 14 18 17 19 15 20 16 21 21 22 22 23 23 24
DOCKED: REMARK SMILES IDX 24 25 28 26 25 27 27 28 29 29 30 30 31 31 32 32 36 33 33 34
DOCKED: REMARK SMILES IDX 35 35 34 36 26 37
DOCKED: REMARK H PARENT 7 9 26 38
DOCKED: USER                              x       y       z     vdW  Elec       q    Type
DOCKED: USER                           _______ _______ _______ _____ _____    ______ ____
DOCKED: ROOT
DOCKED: ATOM      1  N   UNL     1     138.165  78.387 221.453 -0.03 +0.07    -0.339 N  
DOCKED: ENDROOT
DOCKED: BRANCH   1   2
DOCKED: ATOM      2  C   UNL     1     138.468  79.106 222.688 -0.23 -0.02    +0.119 C  
DOCKED: BRANCH   2   3
DOCKED: ATOM      3  C   UNL     1     137.633  80.372 222.784 -0.22 -0.00    +0.018 C  
DOCKED: ATOM      4  C   UNL     1     137.963  81.155 224.033 -0.35 -0.00    +0.006 C  
DOCKED: ENDBRANCH   2   3
DOCKED: ENDBRANCH   1   2
DOCKED: BRANCH   1   5
DOCKED: ATOM      5  C   UNL     1     137.206  77.335 221.483 -0.10 -0.03    +0.140 C  
DOCKED: BRANCH   5   6
DOCKED: ATOM      6  C   UNL     1     137.627  75.990 221.906 -0.18 -0.03    +0.137 C  
DOCKED: BRANCH   6   7
DOCKED: ATOM      7  N   UNL     1     138.964  75.575 221.721 -0.13 +0.08    -0.349 N  
DOCKED: ATOM      8  C   UNL     1     139.181  74.176 221.402 -0.15 -0.06    +0.269 C  
DOCKED: ATOM      9  H   UNL     1     139.834  76.134 221.783 +0.05 -0.04    +0.163 HD 
DOCKED: ATOM     10  O   UNL     1     138.144  73.453 221.324 -0.08 +0.06    -0.268 OA 
DOCKED: BRANCH   8  11
DOCKED: ATOM     11  C   UNL     1     140.527  73.662 221.189 -0.22 -0.02    +0.128 A  
DOCKED: ATOM     12  C   UNL     1     140.668  72.274 221.254 -0.21 -0.00    +0.035 A  
DOCKED: ATOM     13  N   UNL     1     141.595  74.433 220.948 -0.20 +0.06    -0.243 NA 
DOCKED: ATOM     14  C   UNL     1     141.910  71.713 221.067 -0.20 -0.00    +0.013 A  
DOCKED: ATOM     15  C   UNL     1     142.812  73.878 220.765 -0.25 -0.02    +0.071 A  
DOCKED: ATOM     16  C   UNL     1     142.991  72.519 220.821 -0.28 -0.00    +0.003 A  
DOCKED: ATOM     17  C   UNL     1     143.911  74.662 220.513 -0.34 -0.01    +0.032 A  
DOCKED: ATOM     18  C   UNL     1     144.256  71.996 220.625 -0.29 -0.01    +0.049 A  
DOCKED: ATOM     19  C   UNL     1     145.182  74.159 220.315 -0.49 -0.01    +0.041 A  
DOCKED: ATOM     20  C   UNL     1     145.354  72.787 220.373 -0.44 -0.00    +0.123 A  
DOCKED: ATOM     21  F   UNL     1     146.568  72.196 220.192 -0.04 -0.14    -0.207 F  
DOCKED: ENDBRANCH   8  11
DOCKED: ENDBRANCH   6   7
DOCKED: ENDBRANCH   5   6
DOCKED: ENDBRANCH   1   5
DOCKED: BRANCH   1  22
DOCKED: ATOM     22  C   UNL     1     138.810  78.768 220.211 -0.03 -0.06    +0.245 C  
DOCKED: ATOM     23  O   UNL     1     138.400  79.812 219.658 -0.01 +0.06    -0.272 OA 
DOCKED: BRANCH  22  24
DOCKED: ATOM     24  C   UNL     1     139.917  77.918 219.646 -0.06 -0.06    +0.177 C  
DOCKED: ATOM     25  C   UNL     1     140.496  78.627 218.420 -0.08 -0.03    +0.069 C  
DOCKED: ATOM     26  N   UNL     1     141.060  77.811 220.488 -0.09 +0.15    -0.324 N  
DOCKED: ATOM     27  C   UNL     1     142.000  78.605 218.575 -0.23 -0.09    +0.136 C  
DOCKED: ATOM     28  C   UNL     1     142.185  77.492 219.584 -0.25 -0.10    +0.152 C  
DOCKED: BRANCH  26  29
DOCKED: ATOM     29  C   UNL     1     141.261  77.936 221.878 -0.23 -0.12    +0.254 C  
DOCKED: ATOM     30  O   UNL     1     141.161  76.975 222.704 -0.32 +0.11    -0.269 OA 
DOCKED: BRANCH  29  31
DOCKED: ATOM     31  C   UNL     1     141.613  79.228 222.512 -0.48 -0.02    +0.040 A  
DOCKED: ATOM     32  C   UNL     1     142.201  79.289 223.757 -0.58 -0.00    +0.014 A  
DOCKED: ATOM     33  C   UNL     1     141.314  80.355 221.761 -0.39 -0.00    +0.014 A  
DOCKED: ATOM     34  C   UNL     1     142.487  80.568 224.234 -0.53 -0.00    +0.001 A  
DOCKED: ATOM     35  C   UNL     1     141.602  81.609 222.244 -0.46 -0.00    +0.001 A  
DOCKED: ATOM     36  C   UNL     1     142.194  81.697 223.496 -0.48 -0.00    +0.000 A  
DOCKED: ENDBRANCH  29  31
DOCKED: ENDBRANCH  26  29
DOCKED: BRANCH  27  37
DOCKED: ATOM     37  O   UNL     1     142.635  78.302 217.368 -0.18 +0.36    -0.391 OA 
DOCKED: ATOM     38  H   UNL     1     143.281  79.026 217.188 -0.43 -0.34    +0.211 HD 
DOCKED: ENDBRANCH  27  37
DOCKED: ENDBRANCH  22  24
DOCKED: ENDBRANCH   1  22
DOCKED: TORSDOF 11
DOCKED: TER
DOCKED: ENDMDL
________________________________________________________________________________


    FINAL DOCKED STATE:
    ________________________


Run:   14 / 20
Time taken for this run:   0.041s

DOCKED: MODEL        14
DOCKED: USER    Run = 14
DOCKED: USER
DOCKED: USER    Estimated Free Energy of Binding    =  -6.92 kcal/mol  [=(1)+(2)+(3)-(4)]
DOCKED: USER
DOCKED: USER    (1) Final Intermolecular Energy     = -10.20 kcal/mol
DOCKED: USER        vdW + Hbond + desolv Energy     = -10.07 kcal/mol
DOCKED: USER        Electrostatic Energy            =  -0.13 kcal/mol
DOCKED: USER        Moving Ligand-Fixed Receptor    = -10.20 kcal/mol
DOCKED: USER        Moving Ligand-Moving Receptor   =  +0.00 kcal/mol
DOCKED: USER    (2) Final Total Internal Energy     =  -3.46 kcal/mol
DOCKED: USER    (3) Torsional Free Energy           =  +3.28 kcal/mol
DOCKED: USER    (4) Unbound System's Energy         =  -3.46 kcal/mol
DOCKED: USER
DOCKED: USER
DOCKED: REMARK SMILES CCCN(CCNC(=O)c1ccc2cc(F)ccc2n1)C(=O)[C@H]1C[C@H](O)CN1C(=O)c1ccccc1
DOCKED: REMARK SMILES IDX 4 1 3 2 2 3 1 4 5 5 6 6 7 7 8 8 9 10 10 11 11 12 20 13 12 14
DOCKED: REMARK SMILES IDX 19 15 13 16 18 17 14 18 17 19 15 20 16 21 21 22 22 23 23 24
DOCKED: REMARK SMILES IDX 24 25 28 26 25 27 27 28 29 29 30 30 31 31 32 32 36 33 33 34
DOCKED: REMARK SMILES IDX 35 35 34 36 26 37
DOCKED: REMARK H PARENT 7 9 26 38
DOCKED: USER                              x       y       z     vdW  Elec       q    Type
DOCKED: USER                           _______ _______ _______ _____ _____    ______ ____
DOCKED: ROOT
DOCKED: ATOM      1  N   UNL     1     138.338  75.373 220.157 -0.01 +0.07    -0.339 N  
DOCKED: ENDROOT
DOCKED: BRANCH   1   2
DOCKED: ATOM      2  C   UNL     1     137.168  75.636 220.993 -0.08 -0.02    +0.119 C  
DOCKED: BRANCH   2   3
DOCKED: ATOM      3  C   UNL     1     137.561  75.676 222.459 -0.23 -0.00    +0.018 C  
DOCKED: ATOM      4  C   UNL     1     136.371  75.977 223.340 -0.26 -0.00    +0.006 C  
DOCKED: ENDBRANCH   2   3
DOCKED: ENDBRANCH   1   2
DOCKED: BRANCH   1   5
DOCKED: ATOM      5  C   UNL     1     138.725  74.024 219.915 -0.05 -0.03    +0.140 C  
DOCKED: BRANCH   5   6
DOCKED: ATOM      6  C   UNL     1     138.088  72.943 220.685 -0.07 -0.03    +0.137 C  
DOCKED: BRANCH   6   7
DOCKED: ATOM      7  N   UNL     1     138.544  72.637 221.986 -0.08 +0.09    -0.349 N  
DOCKED: ATOM      8  C   UNL     1     139.042  71.293 222.209 -0.13 -0.05    +0.269 C  
DOCKED: ATOM      9  H   UNL     1     138.576  73.244 222.825 -0.47 -0.08    +0.163 HD 
DOCKED: ATOM     10  O   UNL     1     139.015  70.514 221.211 -0.06 +0.05    -0.268 OA 
DOCKED: BRANCH   8  11
DOCKED: ATOM     11  C   UNL     1     139.538  70.890 223.518 -0.28 -0.02    +0.128 A  
DOCKED: ATOM     12  C   UNL     1     140.327  71.827 224.187 -0.39 -0.01    +0.035 A  
DOCKED: ATOM     13  N   UNL     1     139.281  69.703 224.084 -0.16 +0.04    -0.243 NA 
DOCKED: ATOM     14  C   UNL     1     140.836  71.517 225.428 -0.56 -0.00    +0.013 A  
DOCKED: ATOM     15  C   UNL     1     139.783  69.404 225.301 -0.38 -0.01    +0.071 A  
DOCKED: ATOM     16  C   UNL     1     140.563  70.297 225.990 -0.55 -0.00    +0.003 A  
DOCKED: ATOM     17  C   UNL     1     139.521  68.191 225.889 -0.53 -0.00    +0.032 A  
DOCKED: ATOM     18  C   UNL     1     141.051  69.948 227.235 -0.53 -0.01    +0.049 A  
DOCKED: ATOM     19  C   UNL     1     140.000  67.823 227.132 -0.61 -0.01    +0.041 A  
DOCKED: ATOM     20  C   UNL     1     140.786  68.730 227.820 -0.54 -0.03    +0.123 A  
DOCKED: ATOM     21  F   UNL     1     141.305  68.460 229.050 -0.17 +0.05    -0.207 F  
DOCKED: ENDBRANCH   8  11
DOCKED: ENDBRANCH   6   7
DOCKED: ENDBRANCH   5   6
DOCKED: ENDBRANCH   1   5
DOCKED: BRANCH   1  22
DOCKED: ATOM     22  C   UNL     1     139.068  76.473 219.559 -0.02 -0.06    +0.245 C  
DOCKED: ATOM     23  O   UNL     1     138.861  76.697 218.346 -0.00 +0.07    -0.272 OA 
DOCKED: BRANCH  22  24
DOCKED: ATOM     24  C   UNL     1     140.024  77.285 220.393 -0.10 -0.06    +0.177 C  
DOCKED: ATOM     25  C   UNL     1     139.218  78.299 221.207 -0.15 -0.02    +0.069 C  
DOCKED: ATOM     26  N   UNL     1     140.681  76.545 221.417 -0.16 +0.11    -0.324 N  
DOCKED: ATOM     27  C   UNL     1     139.720  78.212 222.630 -0.29 -0.03    +0.136 C  
DOCKED: ATOM     28  C   UNL     1     141.064  77.543 222.438 -0.34 -0.06    +0.152 C  
DOCKED: BRANCH  26  29
DOCKED: ATOM     29  C   UNL     1     140.992  75.180 221.585 -0.23 -0.06    +0.254 C  
DOCKED: ATOM     30  O   UNL     1     140.345  74.387 222.339 -0.78 -0.02    -0.269 OA 
DOCKED: BRANCH  29  31
DOCKED: ATOM     31  C   UNL     1     142.128  74.537 220.884 -0.27 -0.01    +0.040 A  
DOCKED: ATOM     32  C   UNL     1     143.025  75.267 220.134 -0.35 -0.01    +0.014 A  
DOCKED: ATOM     33  C   UNL     1     142.219  73.162 221.043 -0.23 -0.00    +0.014 A  
DOCKED: ATOM     34  C   UNL     1     144.051  74.540 219.532 -0.37 -0.00    +0.001 A  
DOCKED: ATOM     35  C   UNL     1     143.236  72.459 220.444 -0.29 -0.00    +0.001 A  
DOCKED: ATOM     36  C   UNL     1     144.152  73.172 219.684 -0.32 -0.00    +0.000 A  
DOCKED: ENDBRANCH  29  31
DOCKED: ENDBRANCH  26  29
DOCKED: BRANCH  27  37
DOCKED: ATOM     37  O   UNL     1     139.865  79.479 223.200 -0.18 +0.07    -0.391 OA 
DOCKED: ATOM     38  H   UNL     1     140.801  79.758 223.058 +0.14 -0.05    +0.211 HD 
DOCKED: ENDBRANCH  27  37
DOCKED: ENDBRANCH  22  24
DOCKED: ENDBRANCH   1  22
DOCKED: TORSDOF 11
DOCKED: TER
DOCKED: ENDMDL
________________________________________________________________________________


    FINAL DOCKED STATE:
    ________________________


Run:   15 / 20
Time taken for this run:   0.041s

DOCKED: MODEL        15
DOCKED: USER    Run = 15
DOCKED: USER
DOCKED: USER    Estimated Free Energy of Binding    =  -8.38 kcal/mol  [=(1)+(2)+(3)-(4)]
DOCKED: USER
DOCKED: USER    (1) Final Intermolecular Energy     = -11.66 kcal/mol
DOCKED: USER        vdW + Hbond + desolv Energy     = -11.51 kcal/mol
DOCKED: USER        Electrostatic Energy            =  -0.15 kcal/mol
DOCKED: USER        Moving Ligand-Fixed Receptor    = -11.66 kcal/mol
DOCKED: USER        Moving Ligand-Moving Receptor   =  +0.00 kcal/mol
DOCKED: USER    (2) Final Total Internal Energy     =  -3.20 kcal/mol
DOCKED: USER    (3) Torsional Free Energy           =  +3.28 kcal/mol
DOCKED: USER    (4) Unbound System's Energy         =  -3.20 kcal/mol
DOCKED: USER
DOCKED: USER
DOCKED: REMARK SMILES CCCN(CCNC(=O)c1ccc2cc(F)ccc2n1)C(=O)[C@H]1C[C@H](O)CN1C(=O)c1ccccc1
DOCKED: REMARK SMILES IDX 4 1 3 2 2 3 1 4 5 5 6 6 7 7 8 8 9 10 10 11 11 12 20 13 12 14
DOCKED: REMARK SMILES IDX 19 15 13 16 18 17 14 18 17 19 15 20 16 21 21 22 22 23 23 24
DOCKED: REMARK SMILES IDX 24 25 28 26 25 27 27 28 29 29 30 30 31 31 32 32 36 33 33 34
DOCKED: REMARK SMILES IDX 35 35 34 36 26 37
DOCKED: REMARK H PARENT 7 9 26 38
DOCKED: USER                              x       y       z     vdW  Elec       q    Type
DOCKED: USER                           _______ _______ _______ _____ _____    ______ ____
DOCKED: ROOT
DOCKED: ATOM      1  N   UNL     1     139.282  75.170 220.269 -0.02 +0.08    -0.339 N  
DOCKED: ENDROOT
DOCKED: BRANCH   1   2
DOCKED: ATOM      2  C   UNL     1     138.727  76.399 219.705 -0.04 -0.03    +0.119 C  
DOCKED: BRANCH   2   3
DOCKED: ATOM      3  C   UNL     1     137.625  76.943 220.599 -0.07 -0.00    +0.018 C  
DOCKED: ATOM      4  C   UNL     1     138.194  77.708 221.771 -0.19 -0.00    +0.006 C  
DOCKED: ENDBRANCH   2   3
DOCKED: ENDBRANCH   1   2
DOCKED: BRANCH   1   5
DOCKED: ATOM      5  C   UNL     1     138.812  73.915 219.786 -0.04 -0.03    +0.140 C  
DOCKED: BRANCH   5   6
DOCKED: ATOM      6  C   UNL     1     138.059  73.033 220.692 -0.07 -0.03    +0.137 C  
DOCKED: BRANCH   6   7
DOCKED: ATOM      7  N   UNL     1     138.570  72.730 221.973 -0.08 +0.09    -0.349 N  
DOCKED: ATOM      8  C   UNL     1     138.901  71.343 222.238 -0.13 -0.05    +0.269 C  
DOCKED: ATOM      9  H   UNL     1     138.746  73.366 222.771 -0.50 -0.07    +0.163 HD 
DOCKED: ATOM     10  O   UNL     1     138.695  70.528 221.291 -0.05 +0.05    -0.268 OA 
DOCKED: BRANCH   8  11
DOCKED: ATOM     11  C   UNL     1     139.439  70.940 223.530 -0.28 -0.03    +0.128 A  
DOCKED: ATOM     12  C   UNL     1     140.311  71.845 224.138 -0.38 -0.01    +0.035 A  
DOCKED: ATOM     13  N   UNL     1     139.148  69.780 224.135 -0.17 +0.04    -0.243 NA 
DOCKED: ATOM     14  C   UNL     1     140.863  71.532 225.360 -0.54 -0.00    +0.013 A  
DOCKED: ATOM     15  C   UNL     1     139.692  69.479 225.333 -0.38 -0.01    +0.071 A  
DOCKED: ATOM     16  C   UNL     1     140.553  70.341 225.962 -0.55 -0.00    +0.003 A  
DOCKED: ATOM     17  C   UNL     1     139.395  68.294 225.961 -0.52 -0.00    +0.032 A  
DOCKED: ATOM     18  C   UNL     1     141.083  69.991 227.190 -0.53 -0.01    +0.049 A  
DOCKED: ATOM     19  C   UNL     1     139.914  67.925 227.187 -0.61 -0.01    +0.041 A  
DOCKED: ATOM     20  C   UNL     1     140.781  68.801 227.815 -0.54 -0.03    +0.123 A  
DOCKED: ATOM     21  F   UNL     1     141.346  68.527 229.024 -0.16 +0.05    -0.207 F  
DOCKED: ENDBRANCH   8  11
DOCKED: ENDBRANCH   6   7
DOCKED: ENDBRANCH   5   6
DOCKED: ENDBRANCH   1   5
DOCKED: BRANCH   1  22
DOCKED: ATOM     22  C   UNL     1     140.320  75.236 221.279 -0.21 -0.05    +0.245 C  
DOCKED: ATOM     23  O   UNL     1     139.954  75.142 222.472 -0.56 +0.01    -0.272 OA 
DOCKED: BRANCH  22  24
DOCKED: ATOM     24  C   UNL     1     141.759  75.409 220.871 -0.21 -0.07    +0.177 C  
DOCKED: ATOM     25  C   UNL     1     142.046  74.474 219.694 -0.19 -0.02    +0.069 C  
DOCKED: ATOM     26  N   UNL     1     142.058  76.684 220.312 -0.13 +0.19    -0.324 N  
DOCKED: ATOM     27  C   UNL     1     142.758  75.300 218.647 -0.18 -0.06    +0.136 C  
DOCKED: ATOM     28  C   UNL     1     143.254  76.470 219.469 -0.30 -0.10    +0.152 C  
DOCKED: BRANCH  26  29
DOCKED: ATOM     29  C   UNL     1     141.472  77.961 220.428 -0.19 -0.13    +0.254 C  
DOCKED: ATOM     30  O   UNL     1     140.688  78.468 219.566 -0.07 +0.11    -0.269 OA 
DOCKED: BRANCH  29  31
DOCKED: ATOM     31  C   UNL     1     141.727  78.844 221.590 -0.39 -0.02    +0.040 A  
DOCKED: ATOM     32  C   UNL     1     142.182  80.135 221.435 -0.42 -0.01    +0.014 A  
DOCKED: ATOM     33  C   UNL     1     141.468  78.278 222.830 -0.50 -0.01    +0.014 A  
DOCKED: ATOM     34  C   UNL     1     142.374  80.860 222.610 -0.56 -0.00    +0.001 A  
DOCKED: ATOM     35  C   UNL     1     141.660  79.004 223.979 -0.60 -0.00    +0.001 A  
DOCKED: ATOM     36  C   UNL     1     142.120  80.307 223.849 -0.64 -0.00    +0.000 A  
DOCKED: ENDBRANCH  29  31
DOCKED: ENDBRANCH  26  29
DOCKED: BRANCH  27  37
DOCKED: ATOM     37  O   UNL     1     143.823  74.597 218.079 -0.08 +0.15    -0.391 OA 
DOCKED: ATOM     38  H   UNL     1     144.562  75.239 217.952 -0.43 -0.14    +0.211 HD 
DOCKED: ENDBRANCH  27  37
DOCKED: ENDBRANCH  22  24
DOCKED: ENDBRANCH   1  22
DOCKED: TORSDOF 11
DOCKED: TER
DOCKED: ENDMDL
________________________________________________________________________________


    FINAL DOCKED STATE:
    ________________________


Run:   16 / 20
Time taken for this run:   0.041s

DOCKED: MODEL        16
DOCKED: USER    Run = 16
DOCKED: USER
DOCKED: USER    Estimated Free Energy of Binding    =  -7.89 kcal/mol  [=(1)+(2)+(3)-(4)]
DOCKED: USER
DOCKED: USER    (1) Final Intermolecular Energy     = -11.17 kcal/mol
DOCKED: USER        vdW + Hbond + desolv Energy     = -11.07 kcal/mol
DOCKED: USER        Electrostatic Energy            =  -0.10 kcal/mol
DOCKED: USER        Moving Ligand-Fixed Receptor    = -11.17 kcal/mol
DOCKED: USER        Moving Ligand-Moving Receptor   =  +0.00 kcal/mol
DOCKED: USER    (2) Final Total Internal Energy     =  -2.89 kcal/mol
DOCKED: USER    (3) Torsional Free Energy           =  +3.28 kcal/mol
DOCKED: USER    (4) Unbound System's Energy         =  -2.89 kcal/mol
DOCKED: USER
DOCKED: USER
DOCKED: REMARK SMILES CCCN(CCNC(=O)c1ccc2cc(F)ccc2n1)C(=O)[C@H]1C[C@H](O)CN1C(=O)c1ccccc1
DOCKED: REMARK SMILES IDX 4 1 3 2 2 3 1 4 5 5 6 6 7 7 8 8 9 10 10 11 11 12 20 13 12 14
DOCKED: REMARK SMILES IDX 19 15 13 16 18 17 14 18 17 19 15 20 16 21 21 22 22 23 23 24
DOCKED: REMARK SMILES IDX 24 25 28 26 25 27 27 28 29 29 30 30 31 31 32 32 36 33 33 34
DOCKED: REMARK SMILES IDX 35 35 34 36 26 37
DOCKED: REMARK H PARENT 7 9 26 38
DOCKED: USER                              x       y       z     vdW  Elec       q    Type
DOCKED: USER                           _______ _______ _______ _____ _____    ______ ____
DOCKED: ROOT
DOCKED: ATOM      1  N   UNL     1     138.859  74.798 220.443 -0.03 +0.07    -0.339 N  
DOCKED: ENDROOT
DOCKED: BRANCH   1   2
DOCKED: ATOM      2  C   UNL     1     138.256  76.071 220.053 -0.05 -0.03    +0.119 C  
DOCKED: BRANCH   2   3
DOCKED: ATOM      3  C   UNL     1     137.014  76.346 220.882 -0.08 -0.00    +0.018 C  
DOCKED: ATOM      4  C   UNL     1     137.310  76.267 222.361 -0.25 -0.00    +0.006 C  
DOCKED: ENDBRANCH   2   3
DOCKED: ENDBRANCH   1   2
DOCKED: BRANCH   1   5
DOCKED: ATOM      5  C   UNL     1     138.259  73.585 220.000 -0.04 -0.03    +0.140 C  
DOCKED: BRANCH   5   6
DOCKED: ATOM      6  C   UNL     1     137.544  72.741 220.970 -0.06 -0.03    +0.137 C  
DOCKED: BRANCH   6   7
DOCKED: ATOM      7  N   UNL     1     138.120  72.461 222.228 -0.07 +0.10    -0.349 N  
DOCKED: ATOM      8  C   UNL     1     138.600  71.110 222.447 -0.12 -0.06    +0.269 C  
DOCKED: ATOM      9  H   UNL     1     138.254  73.094 223.038 -0.47 -0.10    +0.163 HD 
DOCKED: ATOM     10  O   UNL     1     138.450  70.301 221.484 -0.05 +0.05    -0.268 OA 
DOCKED: BRANCH   8  11
DOCKED: ATOM     11  C   UNL     1     139.214  70.734 223.713 -0.27 -0.03    +0.128 A  
DOCKED: ATOM     12  C   UNL     1     140.087  71.670 224.270 -0.37 -0.01    +0.035 A  
DOCKED: ATOM     13  N   UNL     1     138.989  69.571 224.339 -0.18 +0.04    -0.243 NA 
DOCKED: ATOM     14  C   UNL     1     140.710  71.384 225.464 -0.57 -0.00    +0.013 A  
DOCKED: ATOM     15  C   UNL     1     139.602  69.296 225.510 -0.39 -0.01    +0.071 A  
DOCKED: ATOM     16  C   UNL     1     140.467  70.189 226.090 -0.54 -0.00    +0.003 A  
DOCKED: ATOM     17  C   UNL     1     139.373  68.108 226.160 -0.55 -0.00    +0.032 A  
DOCKED: ATOM     18  C   UNL     1     141.069  69.865 227.291 -0.53 -0.01    +0.049 A  
DOCKED: ATOM     19  C   UNL     1     139.964  67.765 227.360 -0.54 -0.01    +0.041 A  
DOCKED: ATOM     20  C   UNL     1     140.835  68.672 227.938 -0.54 -0.03    +0.123 A  
DOCKED: ATOM     21  F   UNL     1     141.468  68.425 229.119 -0.16 +0.05    -0.207 F  
DOCKED: ENDBRANCH   8  11
DOCKED: ENDBRANCH   6   7
DOCKED: ENDBRANCH   5   6
DOCKED: ENDBRANCH   1   5
DOCKED: BRANCH   1  22
DOCKED: ATOM     22  C   UNL     1     140.071  74.780 221.240 -0.19 -0.05    +0.245 C  
DOCKED: ATOM     23  O   UNL     1     140.013  74.190 222.342 -0.84 +0.00    -0.272 OA 
DOCKED: BRANCH  22  24
DOCKED: ATOM     24  C   UNL     1     141.318  75.451 220.730 -0.22 -0.06    +0.177 C  
DOCKED: ATOM     25  C   UNL     1     141.226  75.555 219.206 -0.12 -0.02    +0.069 C  
DOCKED: ATOM     26  N   UNL     1     141.444  76.817 221.110 -0.14 +0.17    -0.324 N  
DOCKED: ATOM     27  C   UNL     1     141.593  76.977 218.846 -0.16 -0.06    +0.136 C  
DOCKED: ATOM     28  C   UNL     1     142.325  77.427 220.091 -0.17 -0.11    +0.152 C  
DOCKED: BRANCH  26  29
DOCKED: ATOM     29  C   UNL     1     140.932  77.583 222.177 -0.28 -0.10    +0.254 C  
DOCKED: ATOM     30  O   UNL     1     140.086  77.154 223.023 -0.10 +0.05    -0.269 OA 
DOCKED: BRANCH  29  31
DOCKED: ATOM     31  C   UNL     1     141.344  78.987 222.411 -0.44 -0.02    +0.040 A  
DOCKED: ATOM     32  C   UNL     1     140.930  80.011 221.587 -0.32 -0.00    +0.014 A  
DOCKED: ATOM     33  C   UNL     1     142.163  79.188 223.512 -0.60 -0.00    +0.014 A  
DOCKED: ATOM     34  C   UNL     1     141.385  81.286 221.922 -0.43 -0.00    +0.001 A  
DOCKED: ATOM     35  C   UNL     1     142.603  80.449 223.831 -0.68 -0.00    +0.001 A  
DOCKED: ATOM     36  C   UNL     1     142.200  81.497 223.016 -0.47 -0.00    +0.000 A  
DOCKED: ENDBRANCH  29  31
DOCKED: ENDBRANCH  26  29
DOCKED: BRANCH  27  37
DOCKED: ATOM     37  O   UNL     1     142.428  77.022 217.727 -0.11 +0.23    -0.391 OA 
DOCKED: ATOM     38  H   UNL     1     142.185  76.259 217.150 +0.05 -0.10    +0.211 HD 
DOCKED: ENDBRANCH  27  37
DOCKED: ENDBRANCH  22  24
DOCKED: ENDBRANCH   1  22
DOCKED: TORSDOF 11
DOCKED: TER
DOCKED: ENDMDL
________________________________________________________________________________


    FINAL DOCKED STATE:
    ________________________


Run:   17 / 20
Time taken for this run:   0.041s

DOCKED: MODEL        17
DOCKED: USER    Run = 17
DOCKED: USER
DOCKED: USER    Estimated Free Energy of Binding    =  -6.37 kcal/mol  [=(1)+(2)+(3)-(4)]
DOCKED: USER
DOCKED: USER    (1) Final Intermolecular Energy     =  -9.66 kcal/mol
DOCKED: USER        vdW + Hbond + desolv Energy     =  -9.64 kcal/mol
DOCKED: USER        Electrostatic Energy            =  -0.01 kcal/mol
DOCKED: USER        Moving Ligand-Fixed Receptor    =  -9.66 kcal/mol
DOCKED: USER        Moving Ligand-Moving Receptor   =  +0.00 kcal/mol
DOCKED: USER    (2) Final Total Internal Energy     =  -3.47 kcal/mol
DOCKED: USER    (3) Torsional Free Energy           =  +3.28 kcal/mol
DOCKED: USER    (4) Unbound System's Energy         =  -3.47 kcal/mol
DOCKED: USER
DOCKED: USER
DOCKED: REMARK SMILES CCCN(CCNC(=O)c1ccc2cc(F)ccc2n1)C(=O)[C@H]1C[C@H](O)CN1C(=O)c1ccccc1
DOCKED: REMARK SMILES IDX 4 1 3 2 2 3 1 4 5 5 6 6 7 7 8 8 9 10 10 11 11 12 20 13 12 14
DOCKED: REMARK SMILES IDX 19 15 13 16 18 17 14 18 17 19 15 20 16 21 21 22 22 23 23 24
DOCKED: REMARK SMILES IDX 24 25 28 26 25 27 27 28 29 29 30 30 31 31 32 32 36 33 33 34
DOCKED: REMARK SMILES IDX 35 35 34 36 26 37
DOCKED: REMARK H PARENT 7 9 26 38
DOCKED: USER                              x       y       z     vdW  Elec       q    Type
DOCKED: USER                           _______ _______ _______ _____ _____    ______ ____
DOCKED: ROOT
DOCKED: ATOM      1  N   UNL     1     139.664  71.593 221.853 -0.09 +0.06    -0.339 N  
DOCKED: ENDROOT
DOCKED: BRANCH   1   2
DOCKED: ATOM      2  C   UNL     1     141.078  71.924 222.013 -0.21 -0.01    +0.119 C  
DOCKED: BRANCH   2   3
DOCKED: ATOM      3  C   UNL     1     141.774  71.947 220.663 -0.20 -0.00    +0.018 C  
DOCKED: ATOM      4  C   UNL     1     143.184  72.476 220.780 -0.28 -0.00    +0.006 C  
DOCKED: ENDBRANCH   2   3
DOCKED: ENDBRANCH   1   2
DOCKED: BRANCH   1   5
DOCKED: ATOM      5  C   UNL     1     138.861  72.387 220.985 -0.09 -0.03    +0.140 C  
DOCKED: BRANCH   5   6
DOCKED: ATOM      6  C   UNL     1     138.128  73.538 221.535 -0.13 -0.03    +0.137 C  
DOCKED: BRANCH   6   7
DOCKED: ATOM      7  N   UNL     1     137.253  73.363 222.629 +0.08 +0.14    -0.349 N  
DOCKED: ATOM      8  C   UNL     1     135.916  73.912 222.497 -0.09 -0.07    +0.269 C  
DOCKED: ATOM      9  H   UNL     1     137.428  72.890 223.535 -0.51 -0.10    +0.163 HD 
DOCKED: ATOM     10  O   UNL     1     135.661  74.505 221.408 -0.03 +0.05    -0.268 OA 
DOCKED: BRANCH   8  11
DOCKED: ATOM     11  C   UNL     1     134.945  73.774 223.573 -0.15 -0.02    +0.128 A  
DOCKED: ATOM     12  C   UNL     1     134.042  74.828 223.721 -0.13 -0.00    +0.035 A  
DOCKED: ATOM     13  N   UNL     1     134.886  72.720 224.399 -0.12 +0.03    -0.243 NA 
DOCKED: ATOM     14  C   UNL     1     133.096  74.771 224.719 -0.15 -0.00    +0.013 A  
DOCKED: ATOM     15  C   UNL     1     133.956  72.669 225.377 -0.23 -0.00    +0.071 A  
DOCKED: ATOM     16  C   UNL     1     133.052  73.685 225.554 -0.24 -0.00    +0.003 A  
DOCKED: ATOM     17  C   UNL     1     133.887  71.590 226.224 -0.34 -0.00    +0.032 A  
DOCKED: ATOM     18  C   UNL     1     132.116  73.588 226.567 -0.31 -0.00    +0.049 A  
DOCKED: ATOM     19  C   UNL     1     132.960  71.474 227.242 -0.37 -0.01    +0.041 A  
DOCKED: ATOM     20  C   UNL     1     132.051  72.504 227.414 -0.33 -0.02    +0.123 A  
DOCKED: ATOM     21  F   UNL     1     131.100  72.482 228.389 -0.14 +0.06    -0.207 F  
DOCKED: ENDBRANCH   8  11
DOCKED: ENDBRANCH   6   7
DOCKED: ENDBRANCH   5   6
DOCKED: ENDBRANCH   1   5
DOCKED: BRANCH   1  22
DOCKED: ATOM     22  C   UNL     1     139.101  70.449 222.545 -0.13 -0.04    +0.245 C  
DOCKED: ATOM     23  O   UNL     1     139.626  69.337 222.318 -0.10 +0.05    -0.272 OA 
DOCKED: BRANCH  22  24
DOCKED: ATOM     24  C   UNL     1     137.938  70.634 223.483 -0.18 -0.03    +0.177 C  
DOCKED: ATOM     25  C   UNL     1     136.650  70.287 222.735 -0.11 -0.01    +0.069 C  
DOCKED: ATOM     26  N   UNL     1     137.907  69.708 224.565 -0.13 +0.04    -0.324 N  
DOCKED: ATOM     27  C   UNL     1     135.858  69.367 223.636 -0.14 -0.01    +0.136 C  
DOCKED: ATOM     28  C   UNL     1     136.491  69.643 224.983 -0.17 -0.01    +0.152 C  
DOCKED: BRANCH  26  29
DOCKED: ATOM     29  C   UNL     1     138.893  68.945 225.223 -0.27 -0.03    +0.254 C  
DOCKED: ATOM     30  O   UNL     1     139.176  67.740 224.933 -0.82 +0.00    -0.269 OA 
DOCKED: BRANCH  29  31
DOCKED: ATOM     31  C   UNL     1     139.702  69.492 226.337 -0.47 -0.01    +0.040 A  
DOCKED: ATOM     32  C   UNL     1     140.125  68.702 227.384 -0.63 -0.00    +0.014 A  
DOCKED: ATOM     33  C   UNL     1     140.002  70.843 226.241 -0.51 -0.00    +0.014 A  
DOCKED: ATOM     34  C   UNL     1     140.885  69.341 228.363 -0.60 -0.00    +0.001 A  
DOCKED: ATOM     35  C   UNL     1     140.753  71.460 227.212 -0.76 -0.00    +0.001 A  
DOCKED: ATOM     36  C   UNL     1     141.189  70.685 228.277 -0.56 -0.00    +0.000 A  
DOCKED: ENDBRANCH  29  31
DOCKED: ENDBRANCH  26  29
DOCKED: BRANCH  27  37
DOCKED: ATOM     37  O   UNL     1     134.501  69.697 223.640 -0.04 +0.04    -0.391 OA 
DOCKED: ATOM     38  H   UNL     1     134.437  70.671 223.784 +0.05 -0.03    +0.211 HD 
DOCKED: ENDBRANCH  27  37
DOCKED: ENDBRANCH  22  24
DOCKED: ENDBRANCH   1  22
DOCKED: TORSDOF 11
DOCKED: TER
DOCKED: ENDMDL
________________________________________________________________________________


    FINAL DOCKED STATE:
    ________________________


Run:   18 / 20
Time taken for this run:   0.041s

DOCKED: MODEL        18
DOCKED: USER    Run = 18
DOCKED: USER
DOCKED: USER    Estimated Free Energy of Binding    =  -8.52 kcal/mol  [=(1)+(2)+(3)-(4)]
DOCKED: USER
DOCKED: USER    (1) Final Intermolecular Energy     = -11.81 kcal/mol
DOCKED: USER        vdW + Hbond + desolv Energy     = -11.61 kcal/mol
DOCKED: USER        Electrostatic Energy            =  -0.20 kcal/mol
DOCKED: USER        Moving Ligand-Fixed Receptor    = -11.81 kcal/mol
DOCKED: USER        Moving Ligand-Moving Receptor   =  +0.00 kcal/mol
DOCKED: USER    (2) Final Total Internal Energy     =  -2.41 kcal/mol
DOCKED: USER    (3) Torsional Free Energy           =  +3.28 kcal/mol
DOCKED: USER    (4) Unbound System's Energy         =  -2.41 kcal/mol
DOCKED: USER
DOCKED: USER
DOCKED: REMARK SMILES CCCN(CCNC(=O)c1ccc2cc(F)ccc2n1)C(=O)[C@H]1C[C@H](O)CN1C(=O)c1ccccc1
DOCKED: REMARK SMILES IDX 4 1 3 2 2 3 1 4 5 5 6 6 7 7 8 8 9 10 10 11 11 12 20 13 12 14
DOCKED: REMARK SMILES IDX 19 15 13 16 18 17 14 18 17 19 15 20 16 21 21 22 22 23 23 24
DOCKED: REMARK SMILES IDX 24 25 28 26 25 27 27 28 29 29 30 30 31 31 32 32 36 33 33 34
DOCKED: REMARK SMILES IDX 35 35 34 36 26 37
DOCKED: REMARK H PARENT 7 9 26 38
DOCKED: USER                              x       y       z     vdW  Elec       q    Type
DOCKED: USER                           _______ _______ _______ _____ _____    ______ ____
DOCKED: ROOT
DOCKED: ATOM      1  N   UNL     1     140.403  73.976 220.286 -0.04 +0.07    -0.339 N  
DOCKED: ENDROOT
DOCKED: BRANCH   1   2
DOCKED: ATOM      2  C   UNL     1     141.275  72.957 219.706 -0.09 -0.02    +0.119 C  
DOCKED: BRANCH   2   3
DOCKED: ATOM      3  C   UNL     1     142.273  72.462 220.739 -0.24 -0.00    +0.018 C  
DOCKED: ATOM      4  C   UNL     1     143.652  73.022 220.485 -0.35 -0.00    +0.006 C  
DOCKED: ENDBRANCH   2   3
DOCKED: ENDBRANCH   1   2
DOCKED: BRANCH   1   5
DOCKED: ATOM      5  C   UNL     1     139.002  73.908 220.040 -0.06 -0.03    +0.140 C  
DOCKED: BRANCH   5   6
DOCKED: ATOM      6  C   UNL     1     138.173  72.999 220.848 -0.08 -0.03    +0.137 C  
DOCKED: BRANCH   6   7
DOCKED: ATOM      7  N   UNL     1     138.569  72.657 222.159 -0.08 +0.10    -0.349 N  
DOCKED: ATOM      8  C   UNL     1     139.198  71.363 222.340 -0.15 -0.05    +0.269 C  
DOCKED: ATOM      9  H   UNL     1     138.472  73.206 223.033 -0.49 -0.10    +0.163 HD 
DOCKED: ATOM     10  O   UNL     1     139.329  70.655 221.299 -0.07 +0.05    -0.268 OA 
DOCKED: BRANCH   8  11
DOCKED: ATOM     11  C   UNL     1     139.643  70.929 223.658 -0.30 -0.02    +0.128 A  
DOCKED: ATOM     12  C   UNL     1     140.388  71.857 224.387 -0.36 -0.01    +0.035 A  
DOCKED: ATOM     13  N   UNL     1     139.382  69.722 224.178 -0.17 +0.04    -0.243 NA 
DOCKED: ATOM     14  C   UNL     1     140.848  71.519 225.640 -0.59 -0.00    +0.013 A  
DOCKED: ATOM     15  C   UNL     1     139.835  69.395 225.407 -0.39 -0.01    +0.071 A  
DOCKED: ATOM     16  C   UNL     1     140.570  70.279 226.154 -0.56 -0.00    +0.003 A  
DOCKED: ATOM     17  C   UNL     1     139.567  68.162 225.948 -0.55 -0.00    +0.032 A  
DOCKED: ATOM     18  C   UNL     1     141.010  69.901 227.409 -0.54 -0.01    +0.049 A  
DOCKED: ATOM     19  C   UNL     1     139.997  67.764 227.199 -0.60 -0.01    +0.041 A  
DOCKED: ATOM     20  C   UNL     1     140.739  68.662 227.946 -0.55 -0.03    +0.123 A  
DOCKED: ATOM     21  F   UNL     1     141.209  68.363 229.190 -0.13 +0.05    -0.207 F  
DOCKED: ENDBRANCH   8  11
DOCKED: ENDBRANCH   6   7
DOCKED: ENDBRANCH   5   6
DOCKED: ENDBRANCH   1   5
DOCKED: BRANCH   1  22
DOCKED: ATOM     22  C   UNL     1     140.959  75.019 221.126 -0.21 -0.06    +0.245 C  
DOCKED: ATOM     23  O   UNL     1     140.685  74.968 222.346 -0.56 -0.01    -0.272 OA 
DOCKED: BRANCH  22  24
DOCKED: ATOM     24  C   UNL     1     141.820  76.095 220.521 -0.20 -0.09    +0.177 C  
DOCKED: ATOM     25  C   UNL     1     141.593  76.106 219.008 -0.15 -0.03    +0.069 C  
DOCKED: ATOM     26  N   UNL     1     141.443  77.419 220.884 -0.14 +0.17    -0.324 N  
DOCKED: ATOM     27  C   UNL     1     141.366  77.548 218.614 -0.14 -0.07    +0.136 C  
DOCKED: ATOM     28  C   UNL     1     141.954  78.283 219.799 -0.18 -0.10    +0.152 C  
DOCKED: BRANCH  26  29
DOCKED: ATOM     29  C   UNL     1     140.751  77.969 221.983 -0.25 -0.09    +0.254 C  
DOCKED: ATOM     30  O   UNL     1     139.697  77.468 222.487 -0.23 +0.06    -0.269 OA 
DOCKED: BRANCH  29  31
DOCKED: ATOM     31  C   UNL     1     141.201  79.208 222.660 -0.45 -0.01    +0.040 A  
DOCKED: ATOM     32  C   UNL     1     140.306  80.134 223.149 -0.42 -0.00    +0.014 A  
DOCKED: ATOM     33  C   UNL     1     142.576  79.357 222.765 -0.58 -0.01    +0.014 A  
DOCKED: ATOM     34  C   UNL     1     140.862  81.252 223.770 -0.36 -0.00    +0.001 A  
DOCKED: ATOM     35  C   UNL     1     143.111  80.463 223.380 -0.66 -0.00    +0.001 A  
DOCKED: ATOM     36  C   UNL     1     142.229  81.411 223.881 -0.62 -0.00    +0.000 A  
DOCKED: ENDBRANCH  29  31
DOCKED: ENDBRANCH  26  29
DOCKED: BRANCH  27  37
DOCKED: ATOM     37  O   UNL     1     142.045  77.869 217.435 -0.10 +0.26    -0.391 OA 
DOCKED: ATOM     38  H   UNL     1     142.717  78.555 217.662 +0.03 -0.20    +0.211 HD 
DOCKED: ENDBRANCH  27  37
DOCKED: ENDBRANCH  22  24
DOCKED: ENDBRANCH   1  22
DOCKED: TORSDOF 11
DOCKED: TER
DOCKED: ENDMDL
________________________________________________________________________________


    FINAL DOCKED STATE:
    ________________________


Run:   19 / 20
Time taken for this run:   0.041s

DOCKED: MODEL        19
DOCKED: USER    Run = 19
DOCKED: USER
DOCKED: USER    Estimated Free Energy of Binding    =  -8.17 kcal/mol  [=(1)+(2)+(3)-(4)]
DOCKED: USER
DOCKED: USER    (1) Final Intermolecular Energy     = -11.45 kcal/mol
DOCKED: USER        vdW + Hbond + desolv Energy     = -11.30 kcal/mol
DOCKED: USER        Electrostatic Energy            =  -0.15 kcal/mol
DOCKED: USER        Moving Ligand-Fixed Receptor    = -11.45 kcal/mol
DOCKED: USER        Moving Ligand-Moving Receptor   =  +0.00 kcal/mol
DOCKED: USER    (2) Final Total Internal Energy     =  -2.10 kcal/mol
DOCKED: USER    (3) Torsional Free Energy           =  +3.28 kcal/mol
DOCKED: USER    (4) Unbound System's Energy         =  -2.10 kcal/mol
DOCKED: USER
DOCKED: USER
DOCKED: REMARK SMILES CCCN(CCNC(=O)c1ccc2cc(F)ccc2n1)C(=O)[C@H]1C[C@H](O)CN1C(=O)c1ccccc1
DOCKED: REMARK SMILES IDX 4 1 3 2 2 3 1 4 5 5 6 6 7 7 8 8 9 10 10 11 11 12 20 13 12 14
DOCKED: REMARK SMILES IDX 19 15 13 16 18 17 14 18 17 19 15 20 16 21 21 22 22 23 23 24
DOCKED: REMARK SMILES IDX 24 25 28 26 25 27 27 28 29 29 30 30 31 31 32 32 36 33 33 34
DOCKED: REMARK SMILES IDX 35 35 34 36 26 37
DOCKED: REMARK H PARENT 7 9 26 38
DOCKED: USER                              x       y       z     vdW  Elec       q    Type
DOCKED: USER                           _______ _______ _______ _____ _____    ______ ____
DOCKED: ROOT
DOCKED: ATOM      1  N   UNL     1     138.322  75.377 221.146 -0.06 +0.08    -0.339 N  
DOCKED: ENDROOT
DOCKED: BRANCH   1   2
DOCKED: ATOM      2  C   UNL     1     137.734  76.553 220.510 -0.06 -0.02    +0.119 C  
DOCKED: BRANCH   2   3
DOCKED: ATOM      3  C   UNL     1     137.231  77.530 221.559 -0.13 -0.00    +0.018 C  
DOCKED: ATOM      4  C   UNL     1     138.247  77.727 222.659 -0.28 -0.00    +0.006 C  
DOCKED: ENDBRANCH   2   3
DOCKED: ENDBRANCH   1   2
DOCKED: BRANCH   1   5
DOCKED: ATOM      5  C   UNL     1     137.460  74.377 221.681 -0.13 -0.04    +0.140 C  
DOCKED: BRANCH   5   6
DOCKED: ATOM      6  C   UNL     1     137.879  72.967 221.634 -0.12 -0.03    +0.137 C  
DOCKED: BRANCH   6   7
DOCKED: ATOM      7  N   UNL     1     138.140  72.265 222.831 -0.02 +0.12    -0.349 N  
DOCKED: ATOM      8  C   UNL     1     139.124  71.201 222.769 -0.17 -0.06    +0.269 C  
DOCKED: ATOM      9  H   UNL     1     137.722  72.400 223.770 -0.45 -0.09    +0.163 HD 
DOCKED: ATOM     10  O   UNL     1     139.655  70.997 221.637 -0.10 +0.05    -0.268 OA 
DOCKED: BRANCH   8  11
DOCKED: ATOM     11  C   UNL     1     139.461  70.428 223.956 -0.28 -0.02    +0.128 A  
DOCKED: ATOM     12  C   UNL     1     139.137  69.071 223.914 -0.28 -0.01    +0.035 A  
DOCKED: ATOM     13  N   UNL     1     140.044  70.944 225.047 -0.29 +0.04    -0.243 NA 
DOCKED: ATOM     14  C   UNL     1     139.421  68.275 225.001 -0.40 -0.00    +0.013 A  
DOCKED: ATOM     15  C   UNL     1     140.320  70.160 226.110 -0.48 -0.01    +0.071 A  
DOCKED: ATOM     16  C   UNL     1     140.017  68.822 226.107 -0.54 -0.00    +0.003 A  
DOCKED: ATOM     17  C   UNL     1     140.920  70.682 227.230 -0.62 -0.01    +0.032 A  
DOCKED: ATOM     18  C   UNL     1     140.322  68.058 227.218 -0.63 -0.01    +0.049 A  
DOCKED: ATOM     19  C   UNL     1     141.233  69.935 228.350 -0.47 -0.01    +0.041 A  
DOCKED: ATOM     20  C   UNL     1     140.923  68.587 228.339 -0.55 -0.03    +0.123 A  
DOCKED: ATOM     21  F   UNL     1     141.191  67.768 229.394 -0.17 +0.06    -0.207 F  
DOCKED: ENDBRANCH   8  11
DOCKED: ENDBRANCH   6   7
DOCKED: ENDBRANCH   5   6
DOCKED: ENDBRANCH   1   5
DOCKED: BRANCH   1  22
DOCKED: ATOM     22  C   UNL     1     139.763  75.221 221.198 -0.18 -0.05    +0.245 C  
DOCKED: ATOM     23  O   UNL     1     140.255  74.881 222.297 -0.69 +0.00    -0.272 OA 
DOCKED: BRANCH  22  24
DOCKED: ATOM     24  C   UNL     1     140.592  75.465 219.966 -0.11 -0.05    +0.177 C  
DOCKED: ATOM     25  C   UNL     1     141.027  76.932 219.957 -0.19 -0.03    +0.069 C  
DOCKED: ATOM     26  N   UNL     1     141.845  74.789 219.961 -0.09 +0.10    -0.324 N  
DOCKED: ATOM     27  C   UNL     1     142.510  76.944 219.662 -0.28 -0.09    +0.136 C  
DOCKED: ATOM     28  C   UNL     1     142.709  75.573 219.053 -0.22 -0.07    +0.152 C  
DOCKED: BRANCH  26  29
DOCKED: ATOM     29  C   UNL     1     142.329  73.628 220.599 -0.16 -0.05    +0.254 C  
DOCKED: ATOM     30  O   UNL     1     141.643  72.909 221.390 -0.21 +0.03    -0.269 OA 
DOCKED: BRANCH  29  31
DOCKED: ATOM     31  C   UNL     1     143.712  73.135 220.398 -0.34 -0.01    +0.040 A  
DOCKED: ATOM     32  C   UNL     1     143.970  71.928 219.786 -0.26 -0.00    +0.014 A  
DOCKED: ATOM     33  C   UNL     1     144.712  73.976 220.863 -0.48 -0.00    +0.014 A  
DOCKED: ATOM     34  C   UNL     1     145.316  71.586 219.654 -0.32 +0.00    +0.001 A  
DOCKED: ATOM     35  C   UNL     1     146.034  73.627 220.726 -0.69 -0.00    +0.001 A  
DOCKED: ATOM     36  C   UNL     1     146.319  72.415 220.113 -0.36 +0.00    +0.000 A  
DOCKED: ENDBRANCH  29  31
DOCKED: ENDBRANCH  26  29
DOCKED: BRANCH  27  37
DOCKED: ATOM     37  O   UNL     1     142.843  77.952 218.754 -0.19 +0.31    -0.391 OA 
DOCKED: ATOM     38  H   UNL     1     143.755  78.257 218.977 -0.34 -0.24    +0.211 HD 
DOCKED: ENDBRANCH  27  37
DOCKED: ENDBRANCH  22  24
DOCKED: ENDBRANCH   1  22
DOCKED: TORSDOF 11
DOCKED: TER
DOCKED: ENDMDL
________________________________________________________________________________


    FINAL DOCKED STATE:
    ________________________


Run:   20 / 20
Time taken for this run:   0.041s

DOCKED: MODEL        20
DOCKED: USER    Run = 20
DOCKED: USER
DOCKED: USER    Estimated Free Energy of Binding    =  -8.57 kcal/mol  [=(1)+(2)+(3)-(4)]
DOCKED: USER
DOCKED: USER    (1) Final Intermolecular Energy     = -11.85 kcal/mol
DOCKED: USER        vdW + Hbond + desolv Energy     = -11.67 kcal/mol
DOCKED: USER        Electrostatic Energy            =  -0.18 kcal/mol
DOCKED: USER        Moving Ligand-Fixed Receptor    = -11.85 kcal/mol
DOCKED: USER        Moving Ligand-Moving Receptor   =  +0.00 kcal/mol
DOCKED: USER    (2) Final Total Internal Energy     =  -3.12 kcal/mol
DOCKED: USER    (3) Torsional Free Energy           =  +3.28 kcal/mol
DOCKED: USER    (4) Unbound System's Energy         =  -3.12 kcal/mol
DOCKED: USER
DOCKED: USER
DOCKED: REMARK SMILES CCCN(CCNC(=O)c1ccc2cc(F)ccc2n1)C(=O)[C@H]1C[C@H](O)CN1C(=O)c1ccccc1
DOCKED: REMARK SMILES IDX 4 1 3 2 2 3 1 4 5 5 6 6 7 7 8 8 9 10 10 11 11 12 20 13 12 14
DOCKED: REMARK SMILES IDX 19 15 13 16 18 17 14 18 17 19 15 20 16 21 21 22 22 23 23 24
DOCKED: REMARK SMILES IDX 24 25 28 26 25 27 27 28 29 29 30 30 31 31 32 32 36 33 33 34
DOCKED: REMARK SMILES IDX 35 35 34 36 26 37
DOCKED: REMARK H PARENT 7 9 26 38
DOCKED: USER                              x       y       z     vdW  Elec       q    Type
DOCKED: USER                           _______ _______ _______ _____ _____    ______ ____
DOCKED: ROOT
DOCKED: ATOM      1  N   UNL     1     139.514  75.105 220.292 -0.03 +0.08    -0.339 N  
DOCKED: ENDROOT
DOCKED: BRANCH   1   2
DOCKED: ATOM      2  C   UNL     1     138.885  76.369 219.916 -0.05 -0.03    +0.119 C  
DOCKED: BRANCH   2   3
DOCKED: ATOM      3  C   UNL     1     137.751  76.703 220.870 -0.10 -0.00    +0.018 C  
DOCKED: ATOM      4  C   UNL     1     138.272  77.026 222.251 -0.28 -0.00    +0.006 C  
DOCKED: ENDBRANCH   2   3
DOCKED: ENDBRANCH   1   2
DOCKED: BRANCH   1   5
DOCKED: ATOM      5  C   UNL     1     138.966  73.886 219.798 -0.05 -0.03    +0.140 C  
DOCKED: BRANCH   5   6
DOCKED: ATOM      6  C   UNL     1     138.199  73.022 220.709 -0.07 -0.03    +0.137 C  
DOCKED: BRANCH   6   7
DOCKED: ATOM      7  N   UNL     1     138.705  72.719 221.992 -0.09 +0.09    -0.349 N  
DOCKED: ATOM      8  C   UNL     1     138.934  71.319 222.295 -0.13 -0.05    +0.269 C  
DOCKED: ATOM      9  H   UNL     1     138.940  73.363 222.769 -0.47 -0.07    +0.163 HD 
DOCKED: ATOM     10  O   UNL     1     138.653  70.494 221.376 -0.05 +0.05    -0.268 OA 
DOCKED: BRANCH   8  11
DOCKED: ATOM     11  C   UNL     1     139.459  70.914 223.592 -0.28 -0.03    +0.128 A  
DOCKED: ATOM     12  C   UNL     1     140.287  71.839 224.231 -0.37 -0.01    +0.035 A  
DOCKED: ATOM     13  N   UNL     1     139.195  69.737 224.174 -0.17 +0.04    -0.243 NA 
DOCKED: ATOM     14  C   UNL     1     140.825  71.526 225.459 -0.56 -0.00    +0.013 A  
DOCKED: ATOM     15  C   UNL     1     139.724  69.436 225.379 -0.39 -0.01    +0.071 A  
DOCKED: ATOM     16  C   UNL     1     140.543  70.317 226.038 -0.55 -0.00    +0.003 A  
DOCKED: ATOM     17  C   UNL     1     139.454  68.232 225.983 -0.53 -0.00    +0.032 A  
DOCKED: ATOM     18  C   UNL     1     141.060  69.965 227.271 -0.54 -0.01    +0.049 A  
DOCKED: ATOM     19  C   UNL     1     139.961  67.862 227.214 -0.60 -0.01    +0.041 A  
DOCKED: ATOM     20  C   UNL     1     140.786  68.757 227.872 -0.54 -0.03    +0.123 A  
DOCKED: ATOM     21  F   UNL     1     141.335  68.484 229.089 -0.16 +0.05    -0.207 F  
DOCKED: ENDBRANCH   8  11
DOCKED: ENDBRANCH   6   7
DOCKED: ENDBRANCH   5   6
DOCKED: ENDBRANCH   1   5
DOCKED: BRANCH   1  22
DOCKED: ATOM     22  C   UNL     1     140.700  75.101 221.127 -0.21 -0.06    +0.245 C  
DOCKED: ATOM     23  O   UNL     1     140.544  74.785 222.328 -0.65 -0.01    -0.272 OA 
DOCKED: BRANCH  22  24
DOCKED: ATOM     24  C   UNL     1     142.037  75.467 220.540 -0.19 -0.08    +0.177 C  
DOCKED: ATOM     25  C   UNL     1     142.225  74.687 219.237 -0.17 -0.02    +0.069 C  
DOCKED: ATOM     26  N   UNL     1     142.129  76.815 220.090 -0.15 +0.19    -0.324 N  
DOCKED: ATOM     27  C   UNL     1     142.690  75.683 218.198 -0.17 -0.06    +0.136 C  
DOCKED: ATOM     28  C   UNL     1     143.195  76.815 219.067 -0.26 -0.11    +0.152 C  
DOCKED: BRANCH  26  29
DOCKED: ATOM     29  C   UNL     1     141.452  78.005 220.431 -0.19 -0.13    +0.254 C  
DOCKED: ATOM     30  O   UNL     1     140.595  78.577 219.687 -0.07 +0.11    -0.269 OA 
DOCKED: BRANCH  29  31
DOCKED: ATOM     31  C   UNL     1     141.688  78.707 221.714 -0.39 -0.02    +0.040 A  
DOCKED: ATOM     32  C   UNL     1     141.421  78.111 222.927 -0.48 -0.01    +0.014 A  
DOCKED: ATOM     33  C   UNL     1     142.197  79.992 221.599 -0.44 -0.01    +0.014 A  
DOCKED: ATOM     34  C   UNL     1     141.694  78.879 224.058 -0.58 -0.00    +0.001 A  
DOCKED: ATOM     35  C   UNL     1     142.462  80.738 222.722 -0.59 -0.00    +0.001 A  
DOCKED: ATOM     36  C   UNL     1     142.201  80.159 223.956 -0.60 -0.00    +0.000 A  
DOCKED: ENDBRANCH  29  31
DOCKED: ENDBRANCH  26  29
DOCKED: BRANCH  27  37
DOCKED: ATOM     37  O   UNL     1     143.715  75.157 217.408 -0.09 +0.18    -0.391 OA 
DOCKED: ATOM     38  H   UNL     1     144.557  75.577 217.705 -0.44 -0.15    +0.211 HD 
DOCKED: ENDBRANCH  27  37
DOCKED: ENDBRANCH  22  24
DOCKED: ENDBRANCH   1  22
DOCKED: TORSDOF 11
DOCKED: TER
DOCKED: ENDMDL
________________________________________________________________________________


    CLUSTERING HISTOGRAM
    ____________________


________________________________________________________________________________
     |           |     |           |     |
Clus | Lowest    | Run | Mean      | Num | Histogram
-ter | Binding   |     | Binding   | in  |
Rank | Energy    |     | Energy    | Clus|    5    10   15   20   25   30   35
_____|___________|_____|___________|_____|____:____|____:____|____:____|____:___
   1 |     -8.57 |  20 |     -8.09 |   8 |########
   2 |     -8.17 |  19 |     -7.43 |   3 |###
   3 |     -7.10 |  10 |     -7.10 |   1 |#
   4 |     -6.88 |   1 |     -6.88 |   1 |#
   5 |     -6.81 |   4 |     -6.81 |   1 |#
   6 |     -6.73 |   9 |     -6.73 |   1 |#
   7 |     -6.47 |   6 |     -6.47 |   1 |#
   8 |     -6.37 |  17 |     -6.37 |   1 |#
   9 |     -6.19 |  13 |     -6.19 |   1 |#
  10 |     -5.74 |   2 |     -5.74 |   1 |#
  11 |     -5.58 |  11 |     -5.58 |   1 |#
_____|___________|_____|___________|_____|______________________________________


    RMSD TABLE
    __________


_______________________________________________________________________
     |      |      |           |         |                 |
Rank | Sub- | Run  | Binding   | Cluster | Reference       | Grep
     | Rank |      | Energy    | RMSD    | RMSD            | Pattern
_____|______|______|___________|_________|_________________|___________
   1      1     20       -8.57      0.00    269.45           RANKING
   1      2     18       -8.52      1.39    269.69           RANKING
   1      3     15       -8.38      0.33    269.42           RANKING
   1      4      5       -8.07      0.77    269.53           RANKING
   1      5      7       -7.99      1.49    269.46           RANKING
   1      6     16       -7.89      1.06    269.43           RANKING
   1      7      3       -7.82      0.86    269.33           RANKING
   1      8     12       -7.50      1.92    269.53           RANKING
   2      1     19       -8.17      0.00    269.29           RANKING
   2      2      8       -7.20      1.70    269.29           RANKING
   2      3     14       -6.92      1.93    269.16           RANKING
   3      1     10       -7.10      0.00    268.42           RANKING
   4      1      1       -6.88      0.00    269.54           RANKING
   5      1      4       -6.81      0.00    269.18           RANKING
   6      1      9       -6.73      0.00    268.87           RANKING
   7      1      6       -6.47      0.00    269.22           RANKING
   8      1     17       -6.37      0.00    268.59           RANKING
   9      1     13       -6.19      0.00    269.32           RANKING
  10      1      2       -5.74      0.00    269.15           RANKING
  11      1     11       -5.58      0.00    269.22           RANKING

Run time 0.763 sec
Idle time 0.000 sec
