AutoDock-GPU version: v1.6

**********************************************************
**    AutoDock-GPU AUTODOCKTOOLS-COMPATIBLE DLG FILE    **
**********************************************************


    DOCKING PARAMETERS
    ________________________


Ligand file:                               /home/a/REINVENT4/ReinventStudies/pleaseWork/justmol2mol_4_Compounds_ontop/graph-dock-amy28i/graph-DockGPU/node-autodockgpu/inputs/AZTNIIZDLMZSSY-VXKGBIDSNA-N.pdbqt
Grid fld file:                             /home/a/REINVENT4/ReinventStudies/mols/Rad51/maps/rad51_receptor.maps.fld

Random seed:                               42
Number of runs:                            20
Number of energy evaluations:              1259779
Number of generations:                     42000
Size of population:                        150
Rate of crossover:                         80.000000%
Tournament selection probability limit:    60.000000%
Rate of mutation:                          2.000000%
Maximal allowed delta movement:            +/- 6.000000A
Maximal allowed delta angle:               +/- 90.000000

Rate of local search:                      100.000000%
Maximal number of local search iterations: 300
Rho lower bound:                           0.010000
Spread of local search delta movement:     2.000000A
Spread of local search delta angle:        74.999999
Limit of consecutive successes/failures:   4

Handle symmetry during clustering:         YES
RMSD tolerance:                            2.000000A

Program call in command line was:          /home/a/REINVENT4/ReinventStudies/adgpu-v1.6_linux_x64_cuda12_128wi --filelist batch.txt --heuristics 1 --nrun 20 --psize 150 --lsit 300 --seed 42 --heurmax 12000000 


    GRID PARAMETERS
    ________________________


Receptor name:                             rad51_receptor
Number of grid points (x, y, z):           53, 53, 53
Grid center (x, y, z):                     139.950000, 75.640000, 221.970000A
Grid size (x, y, z):                       19.500000, 19.500000, 19.500000A
Grid spacing:                              0.375000A


    LIGAND PARAMETERS
    ________________________


Ligand name:                               /home/a/REINVENT4/ReinventStudies/pleaseWork/justmol2mol_4_Compounds_ontop/graph-dock-amy28i/graph-DockGPU/node-autodockgpu/inputs/AZTNIIZDLMZSSY-VXKGBIDSNA-N
Number of atoms:                           35
Number of rotatable bonds:                 7
Number of atom types:                      7


    DUMMY DATA (only for ADT-compatibility)
    ________________________


DPF> outlev 1
DPF> ga_run 20
DPF> fld /home/a/REINVENT4/ReinventStudies/mols/Rad51/maps/rad51_receptor.maps.fld
DPF> move /home/a/REINVENT4/ReinventStudies/pleaseWork/justmol2mol_4_Compounds_ontop/graph-dock-amy28i/graph-DockGPU/node-autodockgpu/inputs/AZTNIIZDLMZSSY-VXKGBIDSNA-N.pdbqt


    COUNTER STATES
    ________________________


Number of energy evaluations performed:    1124268
Number of generations used:                70


    INPUT LIGAND PDBQT FILE:
    ________________________


INPUT-LIGAND-PDBQT: REMARK SMILES C[C@@H]1CCN(C(=O)CNC(=O)c2ccc3cc(F)ccc3n2)[C@H]1C(=O)NCc1ccccc1
INPUT-LIGAND-PDBQT: REMARK SMILES IDX 6 1 7 2 5 3 2 4 3 5 23 6 4 7 1 8 24 9 26 10 25 11 27 13
INPUT-LIGAND-PDBQT: REMARK SMILES IDX 28 14 29 15 33 16 30 17 32 18 31 19 8 20 9 21 10 22 11 24
INPUT-LIGAND-PDBQT: REMARK SMILES IDX 12 25 13 26 22 27 14 28 21 29 15 30 20 31 16 32 19 33 17 34
INPUT-LIGAND-PDBQT: REMARK SMILES IDX 18 35
INPUT-LIGAND-PDBQT: REMARK H PARENT 26 12 9 23
INPUT-LIGAND-PDBQT: ROOT
INPUT-LIGAND-PDBQT: ATOM      1  C   UNL     1      -0.498   1.061   1.466  1.00  0.00     0.242 C 
INPUT-LIGAND-PDBQT: ATOM      2  O   UNL     1      -1.630   1.299   2.095  1.00  0.00    -0.273 OA
INPUT-LIGAND-PDBQT: ENDROOT
INPUT-LIGAND-PDBQT: BRANCH   1   3
INPUT-LIGAND-PDBQT: ATOM      3  N   UNL     1      -0.573   0.070   0.496  1.00  0.00    -0.329 N 
INPUT-LIGAND-PDBQT: ATOM      4  C   UNL     1      -1.276  -2.128   0.083  1.00  0.00     0.020 C 
INPUT-LIGAND-PDBQT: ATOM      5  C   UNL     1       0.190  -1.991  -0.205  1.00  0.00     0.027 C 
INPUT-LIGAND-PDBQT: ATOM      6  C   UNL     1      -1.786  -0.764   0.302  1.00  0.00     0.177 C 
INPUT-LIGAND-PDBQT: ATOM      7  C   UNL     1       0.307  -0.492  -0.504  1.00  0.00     0.121 C 
INPUT-LIGAND-PDBQT: ATOM      8  C   UNL     1      -1.537  -3.065   1.252  1.00  0.00     0.010 C 
INPUT-LIGAND-PDBQT: BRANCH   6   9
INPUT-LIGAND-PDBQT: ATOM      9  C   UNL     1      -2.617  -0.238  -0.808  1.00  0.00     0.243 C 
INPUT-LIGAND-PDBQT: ATOM     10  N   UNL     1      -3.810  -0.934  -1.116  1.00  0.00    -0.350 N 
INPUT-LIGAND-PDBQT: ATOM     11  O   UNL     1      -2.221   0.780  -1.402  1.00  0.00    -0.273 OA
INPUT-LIGAND-PDBQT: ATOM     12  H   UNL     1      -4.070  -1.796  -0.554  1.00  0.00     0.163 HD
INPUT-LIGAND-PDBQT: BRANCH  10  13
INPUT-LIGAND-PDBQT: ATOM     13  C   UNL     1      -4.732  -0.565  -2.157  1.00  0.00     0.151 C 
INPUT-LIGAND-PDBQT: BRANCH  13  14
INPUT-LIGAND-PDBQT: ATOM     14  C   UNL     1      -5.538   0.582  -1.711  1.00  0.00    -0.029 A 
INPUT-LIGAND-PDBQT: ATOM     15  C   UNL     1      -6.718   0.319  -1.008  1.00  0.00     0.005 A 
INPUT-LIGAND-PDBQT: ATOM     16  C   UNL     1      -5.222   1.902  -1.936  1.00  0.00     0.005 A 
INPUT-LIGAND-PDBQT: ATOM     17  C   UNL     1      -7.536   1.344  -0.558  1.00  0.00     0.000 A 
INPUT-LIGAND-PDBQT: ATOM     18  C   UNL     1      -6.038   2.934  -1.488  1.00  0.00     0.000 A 
INPUT-LIGAND-PDBQT: ATOM     19  C   UNL     1      -7.202   2.672  -0.795  1.00  0.00     0.000 A 
INPUT-LIGAND-PDBQT: ENDBRANCH  13  14
INPUT-LIGAND-PDBQT: ENDBRANCH  10  13
INPUT-LIGAND-PDBQT: ENDBRANCH   6   9
INPUT-LIGAND-PDBQT: ENDBRANCH   1   3
INPUT-LIGAND-PDBQT: BRANCH   1  20
INPUT-LIGAND-PDBQT: ATOM     20  C   UNL     1       0.590   1.903   1.932  1.00  0.00     0.216 C 
INPUT-LIGAND-PDBQT: BRANCH  20  21
INPUT-LIGAND-PDBQT: ATOM     21  N   UNL     1       1.895   1.644   1.406  1.00  0.00    -0.342 N 
INPUT-LIGAND-PDBQT: ATOM     22  C   UNL     1       2.477   0.362   1.751  1.00  0.00     0.270 C 
INPUT-LIGAND-PDBQT: ATOM     23  H   UNL     1       2.454   2.285   0.806  1.00  0.00     0.164 HD
INPUT-LIGAND-PDBQT: ATOM     24  O   UNL     1       1.812  -0.418   2.475  1.00  0.00    -0.268 OA
INPUT-LIGAND-PDBQT: BRANCH  22  25
INPUT-LIGAND-PDBQT: ATOM     25  C   UNL     1       3.804   0.059   1.233  1.00  0.00     0.128 A 
INPUT-LIGAND-PDBQT: ATOM     26  C   UNL     1       4.369  -1.165   1.563  1.00  0.00     0.035 A 
INPUT-LIGAND-PDBQT: ATOM     27  N   UNL     1       4.492   0.932   0.448  1.00  0.00    -0.243 NA
INPUT-LIGAND-PDBQT: ATOM     28  C   UNL     1       5.642  -1.488   1.085  1.00  0.00     0.013 A 
INPUT-LIGAND-PDBQT: ATOM     29  C   UNL     1       5.723   0.628  -0.018  1.00  0.00     0.071 A 
INPUT-LIGAND-PDBQT: ATOM     30  C   UNL     1       6.323  -0.578   0.285  1.00  0.00     0.003 A 
INPUT-LIGAND-PDBQT: ATOM     31  C   UNL     1       6.366   1.539  -0.799  1.00  0.00     0.032 A 
INPUT-LIGAND-PDBQT: ATOM     32  C   UNL     1       7.584  -0.858  -0.209  1.00  0.00     0.049 A 
INPUT-LIGAND-PDBQT: ATOM     33  C   UNL     1       7.631   1.284  -1.308  1.00  0.00     0.041 A 
INPUT-LIGAND-PDBQT: ATOM     34  C   UNL     1       8.250   0.069  -1.009  1.00  0.00     0.123 A 
INPUT-LIGAND-PDBQT: ATOM     35  F   UNL     1       9.489  -0.232  -1.483  1.00  0.00    -0.207 F 
INPUT-LIGAND-PDBQT: ENDBRANCH  22  25
INPUT-LIGAND-PDBQT: ENDBRANCH  20  21
INPUT-LIGAND-PDBQT: ENDBRANCH   1  20
INPUT-LIGAND-PDBQT: TORSDOF 7


    FINAL DOCKED STATE:
    ________________________


Run:   1 / 20
Time taken for this run:   0.060s

DOCKED: MODEL        1
DOCKED: USER    Run = 1
DOCKED: USER
DOCKED: USER    Estimated Free Energy of Binding    =  -8.84 kcal/mol  [=(1)+(2)+(3)-(4)]
DOCKED: USER
DOCKED: USER    (1) Final Intermolecular Energy     = -10.93 kcal/mol
DOCKED: USER        vdW + Hbond + desolv Energy     = -10.91 kcal/mol
DOCKED: USER        Electrostatic Energy            =  -0.01 kcal/mol
DOCKED: USER        Moving Ligand-Fixed Receptor    = -10.93 kcal/mol
DOCKED: USER        Moving Ligand-Moving Receptor   =  +0.00 kcal/mol
DOCKED: USER    (2) Final Total Internal Energy     =  -2.53 kcal/mol
DOCKED: USER    (3) Torsional Free Energy           =  +2.09 kcal/mol
DOCKED: USER    (4) Unbound System's Energy         =  -2.53 kcal/mol
DOCKED: USER
DOCKED: USER
DOCKED: REMARK SMILES C[C@@H]1CCN(C(=O)CNC(=O)c2ccc3cc(F)ccc3n2)[C@H]1C(=O)NCc1ccccc1
DOCKED: REMARK SMILES IDX 6 1 7 2 5 3 2 4 3 5 23 6 4 7 1 8 24 9 26 10 25 11 27 13
DOCKED: REMARK SMILES IDX 28 14 29 15 33 16 30 17 32 18 31 19 8 20 9 21 10 22 11 24
DOCKED: REMARK SMILES IDX 12 25 13 26 22 27 14 28 21 29 15 30 20 31 16 32 19 33 17 34
DOCKED: REMARK SMILES IDX 18 35
DOCKED: REMARK H PARENT 26 12 9 23
DOCKED: USER                              x       y       z     vdW  Elec       q    Type
DOCKED: USER                           _______ _______ _______ _____ _____    ______ ____
DOCKED: ROOT
DOCKED: ATOM      1  C   UNL     1     140.877  74.959 221.149 -0.21 -0.06    +0.242 C  
DOCKED: ATOM      2  O   UNL     1     140.855  75.751 222.201 -0.44 +0.06    -0.273 OA 
DOCKED: ENDROOT
DOCKED: BRANCH   1   3
DOCKED: ATOM      3  N   UNL     1     141.946  75.172 220.288 -0.12 +0.12    -0.329 N  
DOCKED: ATOM      4  C   UNL     1     142.698  74.864 218.089 -0.15 -0.01    +0.020 C  
DOCKED: ATOM      5  C   UNL     1     143.638  74.205 219.055 -0.26 -0.01    +0.027 C  
DOCKED: ATOM      6  C   UNL     1     141.764  75.664 218.899 -0.11 -0.07    +0.177 C  
DOCKED: ATOM      7  C   UNL     1     143.382  75.010 220.334 -0.21 -0.06    +0.121 C  
DOCKED: ATOM      8  C   UNL     1     142.005  73.849 217.194 -0.04 -0.00    +0.010 C  
DOCKED: BRANCH   6   9
DOCKED: ATOM      9  C   UNL     1     141.989  77.127 218.823 -0.17 -0.13    +0.243 C  
DOCKED: ATOM     10  N   UNL     1     141.654  77.899 219.961 -0.11 +0.20    -0.350 N  
DOCKED: ATOM     11  O   UNL     1     142.458  77.592 217.769 -0.19 +0.19    -0.273 OA 
DOCKED: ATOM     12  H   UNL     1     141.259  77.416 220.820 +0.05 -0.08    +0.163 HD 
DOCKED: BRANCH  10  13
DOCKED: ATOM     13  C   UNL     1     141.807  79.326 220.061 -0.22 -0.09    +0.151 C  
DOCKED: BRANCH  13  14
DOCKED: ATOM     14  C   UNL     1     141.839  79.715 221.480 -0.41 +0.01    -0.029 A  
DOCKED: ATOM     15  C   UNL     1     141.919  81.078 221.783 -0.44 -0.00    +0.005 A  
DOCKED: ATOM     16  C   UNL     1     141.800  78.837 222.538 -0.50 -0.00    +0.005 A  
DOCKED: ATOM     17  C   UNL     1     141.959  81.526 223.094 -0.52 -0.00    +0.000 A  
DOCKED: ATOM     18  C   UNL     1     141.840  79.280 223.855 -0.62 -0.00    +0.000 A  
DOCKED: ATOM     19  C   UNL     1     141.920  80.625 224.152 -0.44 -0.00    +0.000 A  
DOCKED: ENDBRANCH  13  14
DOCKED: ENDBRANCH  10  13
DOCKED: ENDBRANCH   6   9
DOCKED: ENDBRANCH   1   3
DOCKED: BRANCH   1  20
DOCKED: ATOM     20  C   UNL     1     139.765  74.026 221.126 -0.16 -0.04    +0.216 C  
DOCKED: BRANCH  20  21
DOCKED: ATOM     21  N   UNL     1     139.541  73.239 222.300 -0.14 +0.07    -0.342 N  
DOCKED: ATOM     22  C   UNL     1     140.423  72.103 222.482 -0.21 -0.03    +0.270 C  
DOCKED: ATOM     23  H   UNL     1     138.813  73.408 223.024 -0.51 -0.09    +0.164 HD 
DOCKED: ATOM     24  O   UNL     1     141.304  71.889 221.614 -0.17 +0.03    -0.268 OA 
DOCKED: BRANCH  22  25
DOCKED: ATOM     25  C   UNL     1     140.230  71.277 223.666 -0.33 -0.02    +0.128 A  
DOCKED: ATOM     26  C   UNL     1     139.553  70.075 223.519 -0.27 -0.01    +0.035 A  
DOCKED: ATOM     27  N   UNL     1     140.688  71.651 224.892 -0.31 +0.03    -0.243 NA 
DOCKED: ATOM     28  C   UNL     1     139.348  69.258 224.635 -0.36 -0.00    +0.013 A  
DOCKED: ATOM     29  C   UNL     1     140.493  70.868 225.976 -0.54 -0.01    +0.071 A  
DOCKED: ATOM     30  C   UNL     1     139.826  69.664 225.875 -0.47 -0.00    +0.003 A  
DOCKED: ATOM     31  C   UNL     1     140.972  71.291 227.178 -0.70 -0.01    +0.032 A  
DOCKED: ATOM     32  C   UNL     1     139.644  68.886 227.005 -0.53 -0.01    +0.049 A  
DOCKED: ATOM     33  C   UNL     1     140.805  70.531 228.326 -0.55 -0.01    +0.041 A  
DOCKED: ATOM     34  C   UNL     1     140.131  69.311 228.240 -0.52 -0.02    +0.123 A  
DOCKED: ATOM     35  F   UNL     1     139.940  68.527 229.334 -0.05 +0.03    -0.207 F  
DOCKED: ENDBRANCH  22  25
DOCKED: ENDBRANCH  20  21
DOCKED: ENDBRANCH   1  20
DOCKED: TORSDOF 7
DOCKED: TER
DOCKED: ENDMDL
________________________________________________________________________________


    FINAL DOCKED STATE:
    ________________________


Run:   2 / 20
Time taken for this run:   0.060s

DOCKED: MODEL        2
DOCKED: USER    Run = 2
DOCKED: USER
DOCKED: USER    Estimated Free Energy of Binding    =  -9.04 kcal/mol  [=(1)+(2)+(3)-(4)]
DOCKED: USER
DOCKED: USER    (1) Final Intermolecular Energy     = -11.12 kcal/mol
DOCKED: USER        vdW + Hbond + desolv Energy     = -11.15 kcal/mol
DOCKED: USER        Electrostatic Energy            =  +0.02 kcal/mol
DOCKED: USER        Moving Ligand-Fixed Receptor    = -11.12 kcal/mol
DOCKED: USER        Moving Ligand-Moving Receptor   =  +0.00 kcal/mol
DOCKED: USER    (2) Final Total Internal Energy     =  -2.59 kcal/mol
DOCKED: USER    (3) Torsional Free Energy           =  +2.09 kcal/mol
DOCKED: USER    (4) Unbound System's Energy         =  -2.59 kcal/mol
DOCKED: USER
DOCKED: USER
DOCKED: REMARK SMILES C[C@@H]1CCN(C(=O)CNC(=O)c2ccc3cc(F)ccc3n2)[C@H]1C(=O)NCc1ccccc1
DOCKED: REMARK SMILES IDX 6 1 7 2 5 3 2 4 3 5 23 6 4 7 1 8 24 9 26 10 25 11 27 13
DOCKED: REMARK SMILES IDX 28 14 29 15 33 16 30 17 32 18 31 19 8 20 9 21 10 22 11 24
DOCKED: REMARK SMILES IDX 12 25 13 26 22 27 14 28 21 29 15 30 20 31 16 32 19 33 17 34
DOCKED: REMARK SMILES IDX 18 35
DOCKED: REMARK H PARENT 26 12 9 23
DOCKED: USER                              x       y       z     vdW  Elec       q    Type
DOCKED: USER                           _______ _______ _______ _____ _____    ______ ____
DOCKED: ROOT
DOCKED: ATOM      1  C   UNL     1     138.953  76.050 221.912 -0.21 -0.05    +0.242 C  
DOCKED: ATOM      2  O   UNL     1     138.164  76.197 222.956 -0.25 +0.07    -0.273 OA 
DOCKED: ENDROOT
DOCKED: BRANCH   1   3
DOCKED: ATOM      3  N   UNL     1     139.626  77.204 221.530 -0.10 +0.08    -0.329 N  
DOCKED: ATOM      4  C   UNL     1     141.254  78.755 222.193 -0.44 -0.01    +0.020 C  
DOCKED: ATOM      5  C   UNL     1     139.954  79.453 221.922 -0.26 -0.01    +0.027 C  
DOCKED: ATOM      6  C   UNL     1     141.089  77.370 221.719 -0.27 -0.08    +0.177 C  
DOCKED: ATOM      7  C   UNL     1     139.279  78.481 220.948 -0.11 -0.03    +0.121 C  
DOCKED: ATOM      8  C   UNL     1     141.650  78.847 223.659 -0.60 -0.00    +0.010 C  
DOCKED: BRANCH   6   9
DOCKED: ATOM      9  C   UNL     1     141.822  77.064 220.466 -0.18 -0.14    +0.243 C  
DOCKED: ATOM     10  N   UNL     1     142.247  75.729 220.270 -0.13 +0.17    -0.350 N  
DOCKED: ATOM     11  O   UNL     1     142.019  77.992 219.663 -0.20 +0.17    -0.273 OA 
DOCKED: ATOM     12  H   UNL     1     142.034  75.000 221.011 -0.02 -0.06    +0.163 HD 
DOCKED: BRANCH  10  13
DOCKED: ATOM     13  C   UNL     1     142.967  75.256 219.117 -0.23 -0.07    +0.151 C  
DOCKED: BRANCH  13  14
DOCKED: ATOM     14  C   UNL     1     144.004  74.305 219.545 -0.34 +0.01    -0.029 A  
DOCKED: ATOM     15  C   UNL     1     144.941  74.738 220.489 -0.38 -0.00    +0.005 A  
DOCKED: ATOM     16  C   UNL     1     144.128  73.014 219.085 -0.23 -0.00    +0.005 A  
DOCKED: ATOM     17  C   UNL     1     145.952  73.904 220.940 -0.68 -0.00    +0.000 A  
DOCKED: ATOM     18  C   UNL     1     145.140  72.174 219.533 -0.36 +0.00    +0.000 A  
DOCKED: ATOM     19  C   UNL     1     146.063  72.604 220.463 -0.51 +0.00    +0.000 A  
DOCKED: ENDBRANCH  13  14
DOCKED: ENDBRANCH  10  13
DOCKED: ENDBRANCH   6   9
DOCKED: ENDBRANCH   1   3
DOCKED: BRANCH   1  20
DOCKED: ATOM     20  C   UNL     1     138.944  74.696 221.388 -0.16 -0.05    +0.216 C  
DOCKED: BRANCH  20  21
DOCKED: ATOM     21  N   UNL     1     138.879  73.624 222.334 -0.01 +0.11    -0.342 N  
DOCKED: ATOM     22  C   UNL     1     140.118  72.912 222.575 -0.04 -0.03    +0.270 C  
DOCKED: ATOM     23  H   UNL     1     138.033  73.317 222.857 -0.49 -0.09    +0.164 HD 
DOCKED: ATOM     24  O   UNL     1     141.144  73.273 221.949 -0.48 +0.01    -0.268 OA 
DOCKED: BRANCH  22  25
DOCKED: ATOM     25  C   UNL     1     140.094  71.815 223.533 -0.31 -0.02    +0.128 A  
DOCKED: ATOM     26  C   UNL     1     139.558  70.602 223.123 -0.27 -0.01    +0.035 A  
DOCKED: ATOM     27  N   UNL     1     140.574  71.949 224.799 -0.21 +0.04    -0.243 NA 
DOCKED: ATOM     28  C   UNL     1     139.517  69.529 224.017 -0.28 -0.00    +0.013 A  
DOCKED: ATOM     29  C   UNL     1     140.538  70.917 225.670 -0.52 -0.01    +0.071 A  
DOCKED: ATOM     30  C   UNL     1     140.015  69.693 225.305 -0.43 -0.00    +0.003 A  
DOCKED: ATOM     31  C   UNL     1     141.032  71.107 226.924 -0.67 -0.01    +0.032 A  
DOCKED: ATOM     32  C   UNL     1     139.993  68.657 226.220 -0.52 -0.01    +0.049 A  
DOCKED: ATOM     33  C   UNL     1     141.024  70.085 227.863 -0.57 -0.01    +0.041 A  
DOCKED: ATOM     34  C   UNL     1     140.497  68.842 227.507 -0.54 -0.03    +0.123 A  
DOCKED: ATOM     35  F   UNL     1     140.465  67.806 228.388 -0.14 +0.07    -0.207 F  
DOCKED: ENDBRANCH  22  25
DOCKED: ENDBRANCH  20  21
DOCKED: ENDBRANCH   1  20
DOCKED: TORSDOF 7
DOCKED: TER
DOCKED: ENDMDL
________________________________________________________________________________


    FINAL DOCKED STATE:
    ________________________


Run:   3 / 20
Time taken for this run:   0.060s

DOCKED: MODEL        3
DOCKED: USER    Run = 3
DOCKED: USER
DOCKED: USER    Estimated Free Energy of Binding    =  -8.36 kcal/mol  [=(1)+(2)+(3)-(4)]
DOCKED: USER
DOCKED: USER    (1) Final Intermolecular Energy     = -10.45 kcal/mol
DOCKED: USER        vdW + Hbond + desolv Energy     = -10.36 kcal/mol
DOCKED: USER        Electrostatic Energy            =  -0.09 kcal/mol
DOCKED: USER        Moving Ligand-Fixed Receptor    = -10.45 kcal/mol
DOCKED: USER        Moving Ligand-Moving Receptor   =  +0.00 kcal/mol
DOCKED: USER    (2) Final Total Internal Energy     =  -2.47 kcal/mol
DOCKED: USER    (3) Torsional Free Energy           =  +2.09 kcal/mol
DOCKED: USER    (4) Unbound System's Energy         =  -2.47 kcal/mol
DOCKED: USER
DOCKED: USER
DOCKED: REMARK SMILES C[C@@H]1CCN(C(=O)CNC(=O)c2ccc3cc(F)ccc3n2)[C@H]1C(=O)NCc1ccccc1
DOCKED: REMARK SMILES IDX 6 1 7 2 5 3 2 4 3 5 23 6 4 7 1 8 24 9 26 10 25 11 27 13
DOCKED: REMARK SMILES IDX 28 14 29 15 33 16 30 17 32 18 31 19 8 20 9 21 10 22 11 24
DOCKED: REMARK SMILES IDX 12 25 13 26 22 27 14 28 21 29 15 30 20 31 16 32 19 33 17 34
DOCKED: REMARK SMILES IDX 18 35
DOCKED: REMARK H PARENT 26 12 9 23
DOCKED: USER                              x       y       z     vdW  Elec       q    Type
DOCKED: USER                           _______ _______ _______ _____ _____    ______ ____
DOCKED: ROOT
DOCKED: ATOM      1  C   UNL     1     141.095  73.001 219.289 -0.03 -0.05    +0.242 C  
DOCKED: ATOM      2  O   UNL     1     141.359  72.716 218.031 -0.00 +0.05    -0.273 OA 
DOCKED: ENDROOT
DOCKED: BRANCH   1   3
DOCKED: ATOM      3  N   UNL     1     142.000  73.868 219.887 -0.06 +0.08    -0.329 N  
DOCKED: ATOM      4  C   UNL     1     143.038  75.960 219.684 -0.37 -0.01    +0.020 C  
DOCKED: ATOM      5  C   UNL     1     144.071  74.874 219.752 -0.38 -0.01    +0.027 C  
DOCKED: ATOM      6  C   UNL     1     141.747  75.327 220.003 -0.18 -0.07    +0.177 C  
DOCKED: ATOM      7  C   UNL     1     143.309  73.770 220.493 -0.27 -0.03    +0.121 C  
DOCKED: ATOM      8  C   UNL     1     143.048  76.666 218.337 -0.31 -0.01    +0.010 C  
DOCKED: BRANCH   6   9
DOCKED: ATOM      9  C   UNL     1     141.216  75.667 221.345 -0.21 -0.08    +0.243 C  
DOCKED: ATOM     10  N   UNL     1     141.439  76.981 221.821 -0.06 +0.19    -0.350 N  
DOCKED: ATOM     11  O   UNL     1     140.608  74.783 221.973 -0.71 +0.02    -0.273 OA 
DOCKED: ATOM     12  H   UNL     1     141.970  77.671 221.215 -0.18 -0.12    +0.163 HD 
DOCKED: BRANCH  10  13
DOCKED: ATOM     13  C   UNL     1     140.996  77.480 223.095 -0.12 -0.05    +0.151 C  
DOCKED: BRANCH  13  14
DOCKED: ATOM     14  C   UNL     1     141.380  78.894 223.226 -0.54 +0.01    -0.029 A  
DOCKED: ATOM     15  C   UNL     1     140.364  79.832 223.438 -0.47 -0.00    +0.005 A  
DOCKED: ATOM     16  C   UNL     1     142.669  79.370 223.152 -0.57 -0.00    +0.005 A  
DOCKED: ATOM     17  C   UNL     1     140.643  81.184 223.566 -0.38 -0.00    +0.000 A  
DOCKED: ATOM     18  C   UNL     1     142.955  80.724 223.279 -0.62 -0.00    +0.000 A  
DOCKED: ATOM     19  C   UNL     1     141.951  81.648 223.488 -0.52 -0.00    +0.000 A  
DOCKED: ENDBRANCH  13  14
DOCKED: ENDBRANCH  10  13
DOCKED: ENDBRANCH   6   9
DOCKED: ENDBRANCH   1   3
DOCKED: BRANCH   1  20
DOCKED: ATOM     20  C   UNL     1     139.897  72.338 219.774 -0.04 -0.04    +0.216 C  
DOCKED: BRANCH  20  21
DOCKED: ATOM     21  N   UNL     1     139.859  71.978 221.159 -0.06 +0.06    -0.342 N  
DOCKED: ATOM     22  C   UNL     1     139.622  70.577 221.445 -0.08 -0.05    +0.270 C  
DOCKED: ATOM     23  H   UNL     1     139.985  72.624 221.965 +0.04 -0.02    +0.164 HD 
DOCKED: ATOM     24  O   UNL     1     139.467  69.790 220.481 -0.06 +0.05    -0.268 OA 
DOCKED: BRANCH  22  25
DOCKED: ATOM     25  C   UNL     1     139.577  70.170 222.843 -0.17 -0.02    +0.128 A  
DOCKED: ATOM     26  C   UNL     1     138.928  68.984 223.156 -0.23 -0.01    +0.035 A  
DOCKED: ATOM     27  N   UNL     1     140.146  70.912 223.832 -0.22 +0.04    -0.243 NA 
DOCKED: ATOM     28  C   UNL     1     138.865  68.563 224.488 -0.37 -0.00    +0.013 A  
DOCKED: ATOM     29  C   UNL     1     140.089  70.513 225.122 -0.43 -0.01    +0.071 A  
DOCKED: ATOM     30  C   UNL     1     139.454  69.340 225.479 -0.43 -0.00    +0.003 A  
DOCKED: ATOM     31  C   UNL     1     140.675  71.294 226.070 -0.61 -0.00    +0.032 A  
DOCKED: ATOM     32  C   UNL     1     139.415  68.961 226.808 -0.49 -0.01    +0.049 A  
DOCKED: ATOM     33  C   UNL     1     140.650  70.938 227.411 -0.66 -0.01    +0.041 A  
DOCKED: ATOM     34  C   UNL     1     140.011  69.755 227.786 -0.51 -0.02    +0.123 A  
DOCKED: ATOM     35  F   UNL     1     139.959  69.358 229.086 -0.05 +0.03    -0.207 F  
DOCKED: ENDBRANCH  22  25
DOCKED: ENDBRANCH  20  21
DOCKED: ENDBRANCH   1  20
DOCKED: TORSDOF 7
DOCKED: TER
DOCKED: ENDMDL
________________________________________________________________________________


    FINAL DOCKED STATE:
    ________________________


Run:   4 / 20
Time taken for this run:   0.060s

DOCKED: MODEL        4
DOCKED: USER    Run = 4
DOCKED: USER
DOCKED: USER    Estimated Free Energy of Binding    =  -8.35 kcal/mol  [=(1)+(2)+(3)-(4)]
DOCKED: USER
DOCKED: USER    (1) Final Intermolecular Energy     = -10.44 kcal/mol
DOCKED: USER        vdW + Hbond + desolv Energy     = -10.47 kcal/mol
DOCKED: USER        Electrostatic Energy            =  +0.03 kcal/mol
DOCKED: USER        Moving Ligand-Fixed Receptor    = -10.44 kcal/mol
DOCKED: USER        Moving Ligand-Moving Receptor   =  +0.00 kcal/mol
DOCKED: USER    (2) Final Total Internal Energy     =  -2.80 kcal/mol
DOCKED: USER    (3) Torsional Free Energy           =  +2.09 kcal/mol
DOCKED: USER    (4) Unbound System's Energy         =  -2.80 kcal/mol
DOCKED: USER
DOCKED: USER
DOCKED: REMARK SMILES C[C@@H]1CCN(C(=O)CNC(=O)c2ccc3cc(F)ccc3n2)[C@H]1C(=O)NCc1ccccc1
DOCKED: REMARK SMILES IDX 6 1 7 2 5 3 2 4 3 5 23 6 4 7 1 8 24 9 26 10 25 11 27 13
DOCKED: REMARK SMILES IDX 28 14 29 15 33 16 30 17 32 18 31 19 8 20 9 21 10 22 11 24
DOCKED: REMARK SMILES IDX 12 25 13 26 22 27 14 28 21 29 15 30 20 31 16 32 19 33 17 34
DOCKED: REMARK SMILES IDX 18 35
DOCKED: REMARK H PARENT 26 12 9 23
DOCKED: USER                              x       y       z     vdW  Elec       q    Type
DOCKED: USER                           _______ _______ _______ _____ _____    ______ ____
DOCKED: ROOT
DOCKED: ATOM      1  C   UNL     1     139.686  75.083 221.815 -0.21 -0.04    +0.242 C  
DOCKED: ATOM      2  O   UNL     1     140.512  75.952 222.359 -0.44 +0.05    -0.273 OA 
DOCKED: ENDROOT
DOCKED: BRANCH   1   3
DOCKED: ATOM      3  N   UNL     1     138.398  75.561 221.608 -0.10 +0.08    -0.329 N  
DOCKED: ATOM      4  C   UNL     1     136.217  75.563 222.468 -0.19 -0.00    +0.020 C  
DOCKED: ATOM      5  C   UNL     1     136.220  75.032 221.065 -0.07 -0.01    +0.027 C  
DOCKED: ATOM      6  C   UNL     1     137.565  76.106 222.709 -0.21 -0.04    +0.177 C  
DOCKED: ATOM      7  C   UNL     1     137.487  75.678 220.492 -0.06 -0.02    +0.121 C  
DOCKED: ATOM      8  C   UNL     1     135.806  74.499 223.474 -0.22 -0.00    +0.010 C  
DOCKED: BRANCH   6   9
DOCKED: ATOM      9  C   UNL     1     137.630  77.587 222.738 -0.15 -0.04    +0.243 C  
DOCKED: ATOM     10  N   UNL     1     138.882  78.190 222.472 -0.11 +0.07    -0.350 N  
DOCKED: ATOM     11  O   UNL     1     136.586  78.212 222.993 -0.13 +0.04    -0.273 OA 
DOCKED: ATOM     12  H   UNL     1     139.722  77.576 222.263 +0.07 -0.04    +0.163 HD 
DOCKED: BRANCH  10  13
DOCKED: ATOM     13  C   UNL     1     139.125  79.608 222.458 -0.22 -0.03    +0.151 C  
DOCKED: BRANCH  13  14
DOCKED: ATOM     14  C   UNL     1     140.537  79.864 222.782 -0.39 +0.01    -0.029 A  
DOCKED: ATOM     15  C   UNL     1     140.839  80.999 223.541 -0.46 -0.00    +0.005 A  
DOCKED: ATOM     16  C   UNL     1     141.592  79.071 222.392 -0.49 -0.00    +0.005 A  
DOCKED: ATOM     17  C   UNL     1     142.145  81.314 223.884 -0.63 -0.00    +0.000 A  
DOCKED: ATOM     18  C   UNL     1     142.903  79.381 222.733 -0.54 -0.00    +0.000 A  
DOCKED: ATOM     19  C   UNL     1     143.198  80.502 223.481 -0.67 -0.00    +0.000 A  
DOCKED: ENDBRANCH  13  14
DOCKED: ENDBRANCH  10  13
DOCKED: ENDBRANCH   6   9
DOCKED: ENDBRANCH   1   3
DOCKED: BRANCH   1  20
DOCKED: ATOM     20  C   UNL     1     140.317  73.802 221.546 -0.21 -0.03    +0.216 C  
DOCKED: BRANCH  20  21
DOCKED: ATOM     21  N   UNL     1     140.495  72.912 222.651 -0.10 +0.01    -0.342 N  
DOCKED: ATOM     22  C   UNL     1     139.463  71.911 222.836 -0.19 -0.06    +0.270 C  
DOCKED: ATOM     23  H   UNL     1     141.290  72.918 223.323 +0.09 +0.03    +0.164 HD 
DOCKED: ATOM     24  O   UNL     1     138.499  71.895 222.032 -0.10 +0.06    -0.268 OA 
DOCKED: BRANCH  22  25
DOCKED: ATOM     25  C   UNL     1     139.609  70.983 223.949 -0.32 -0.03    +0.128 A  
DOCKED: ATOM     26  C   UNL     1     139.069  69.712 223.813 -0.28 -0.01    +0.035 A  
DOCKED: ATOM     27  N   UNL     1     140.250  71.327 225.099 -0.32 +0.04    -0.243 NA 
DOCKED: ATOM     28  C   UNL     1     139.189  68.797 224.862 -0.39 -0.00    +0.013 A  
DOCKED: ATOM     29  C   UNL     1     140.371  70.448 226.118 -0.51 -0.01    +0.071 A  
DOCKED: ATOM     30  C   UNL     1     139.849  69.173 226.026 -0.50 -0.00    +0.003 A  
DOCKED: ATOM     31  C   UNL     1     141.022  70.846 227.245 -0.64 -0.01    +0.032 A  
DOCKED: ATOM     32  C   UNL     1     139.990  68.298 227.088 -0.61 -0.01    +0.049 A  
DOCKED: ATOM     33  C   UNL     1     141.178  69.989 228.325 -0.49 -0.01    +0.041 A  
DOCKED: ATOM     34  C   UNL     1     140.655  68.697 228.246 -0.55 -0.03    +0.123 A  
DOCKED: ATOM     35  F   UNL     1     140.781  67.816 229.275 -0.15 +0.06    -0.207 F  
DOCKED: ENDBRANCH  22  25
DOCKED: ENDBRANCH  20  21
DOCKED: ENDBRANCH   1  20
DOCKED: TORSDOF 7
DOCKED: TER
DOCKED: ENDMDL
________________________________________________________________________________


    FINAL DOCKED STATE:
    ________________________


Run:   5 / 20
Time taken for this run:   0.060s

DOCKED: MODEL        5
DOCKED: USER    Run = 5
DOCKED: USER
DOCKED: USER    Estimated Free Energy of Binding    =  -9.06 kcal/mol  [=(1)+(2)+(3)-(4)]
DOCKED: USER
DOCKED: USER    (1) Final Intermolecular Energy     = -11.15 kcal/mol
DOCKED: USER        vdW + Hbond + desolv Energy     = -11.05 kcal/mol
DOCKED: USER        Electrostatic Energy            =  -0.10 kcal/mol
DOCKED: USER        Moving Ligand-Fixed Receptor    = -11.15 kcal/mol
DOCKED: USER        Moving Ligand-Moving Receptor   =  +0.00 kcal/mol
DOCKED: USER    (2) Final Total Internal Energy     =  -2.39 kcal/mol
DOCKED: USER    (3) Torsional Free Energy           =  +2.09 kcal/mol
DOCKED: USER    (4) Unbound System's Energy         =  -2.39 kcal/mol
DOCKED: USER
DOCKED: USER
DOCKED: REMARK SMILES C[C@@H]1CCN(C(=O)CNC(=O)c2ccc3cc(F)ccc3n2)[C@H]1C(=O)NCc1ccccc1
DOCKED: REMARK SMILES IDX 6 1 7 2 5 3 2 4 3 5 23 6 4 7 1 8 24 9 26 10 25 11 27 13
DOCKED: REMARK SMILES IDX 28 14 29 15 33 16 30 17 32 18 31 19 8 20 9 21 10 22 11 24
DOCKED: REMARK SMILES IDX 12 25 13 26 22 27 14 28 21 29 15 30 20 31 16 32 19 33 17 34
DOCKED: REMARK SMILES IDX 18 35
DOCKED: REMARK H PARENT 26 12 9 23
DOCKED: USER                              x       y       z     vdW  Elec       q    Type
DOCKED: USER                           _______ _______ _______ _____ _____    ______ ____
DOCKED: ROOT
DOCKED: ATOM      1  C   UNL     1     142.255  73.696 220.067 -0.14 -0.05    +0.242 C  
DOCKED: ATOM      2  O   UNL     1     143.337  73.150 220.581 -0.20 +0.05    -0.273 OA 
DOCKED: ENDROOT
DOCKED: BRANCH   1   3
DOCKED: ATOM      3  N   UNL     1     142.391  75.034 219.722 -0.11 +0.13    -0.329 N  
DOCKED: ATOM      4  C   UNL     1     141.864  76.634 218.091 -0.17 -0.01    +0.020 C  
DOCKED: ATOM      5  C   UNL     1     143.350  76.556 218.277 -0.27 -0.02    +0.027 C  
DOCKED: ATOM      6  C   UNL     1     141.267  75.834 219.174 -0.10 -0.06    +0.177 C  
DOCKED: ATOM      7  C   UNL     1     143.454  76.014 219.707 -0.33 -0.08    +0.121 C  
DOCKED: ATOM      8  C   UNL     1     141.443  76.180 216.702 -0.06 -0.00    +0.010 C  
DOCKED: BRANCH   6   9
DOCKED: ATOM      9  C   UNL     1     140.620  76.636 220.240 -0.11 -0.09    +0.243 C  
DOCKED: ATOM     10  N   UNL     1     141.073  76.444 221.567 -0.18 +0.14    -0.350 N  
DOCKED: ATOM     11  O   UNL     1     139.720  77.429 219.910 -0.04 +0.08    -0.273 OA 
DOCKED: ATOM     12  H   UNL     1     141.849  75.744 221.756 -0.38 -0.08    +0.163 HD 
DOCKED: BRANCH  10  13
DOCKED: ATOM     13  C   UNL     1     140.561  77.135 222.720 -0.25 -0.04    +0.151 C  
DOCKED: BRANCH  13  14
DOCKED: ATOM     14  C   UNL     1     141.273  78.412 222.880 -0.50 +0.01    -0.029 A  
DOCKED: ATOM     15  C   UNL     1     141.500  79.183 221.736 -0.41 -0.00    +0.005 A  
DOCKED: ATOM     16  C   UNL     1     141.741  78.909 224.075 -0.58 -0.00    +0.005 A  
DOCKED: ATOM     17  C   UNL     1     142.169  80.396 221.801 -0.48 -0.00    +0.000 A  
DOCKED: ATOM     18  C   UNL     1     142.412  80.124 224.147 -0.53 -0.00    +0.000 A  
DOCKED: ATOM     19  C   UNL     1     142.636  80.882 223.016 -0.60 -0.00    +0.000 A  
DOCKED: ENDBRANCH  13  14
DOCKED: ENDBRANCH  10  13
DOCKED: ENDBRANCH   6   9
DOCKED: ENDBRANCH   1   3
DOCKED: BRANCH   1  20
DOCKED: ATOM     20  C   UNL     1     141.147  72.762 219.970 -0.08 -0.04    +0.216 C  
DOCKED: BRANCH  20  21
DOCKED: ATOM     21  N   UNL     1     140.906  71.908 221.093 -0.08 +0.05    -0.342 N  
DOCKED: ATOM     22  C   UNL     1     140.563  72.572 222.335 -0.19 -0.02    +0.270 C  
DOCKED: ATOM     23  H   UNL     1     140.953  70.868 221.095 +0.05 -0.02    +0.164 HD 
DOCKED: ATOM     24  O   UNL     1     140.505  73.826 222.343 -0.79 -0.02    -0.268 OA 
DOCKED: BRANCH  22  25
DOCKED: ATOM     25  C   UNL     1     140.308  71.738 223.501 -0.32 -0.02    +0.128 A  
DOCKED: ATOM     26  C   UNL     1     139.568  70.578 223.323 -0.29 -0.01    +0.035 A  
DOCKED: ATOM     27  N   UNL     1     140.768  72.064 224.740 -0.05 +0.03    -0.243 NA 
DOCKED: ATOM     28  C   UNL     1     139.302  69.755 224.421 -0.34 -0.00    +0.013 A  
DOCKED: ATOM     29  C   UNL     1     140.516  71.274 225.806 -0.54 -0.01    +0.071 A  
DOCKED: ATOM     30  C   UNL     1     139.784  70.110 225.675 -0.47 -0.00    +0.003 A  
DOCKED: ATOM     31  C   UNL     1     141.001  71.648 227.022 -0.74 -0.01    +0.032 A  
DOCKED: ATOM     32  C   UNL     1     139.544  69.324 226.787 -0.49 -0.01    +0.049 A  
DOCKED: ATOM     33  C   UNL     1     140.775  70.878 228.154 -0.63 -0.01    +0.041 A  
DOCKED: ATOM     34  C   UNL     1     140.036  69.700 228.036 -0.52 -0.02    +0.123 A  
DOCKED: ATOM     35  F   UNL     1     139.786  68.908 229.113 -0.12 +0.03    -0.207 F  
DOCKED: ENDBRANCH  22  25
DOCKED: ENDBRANCH  20  21
DOCKED: ENDBRANCH   1  20
DOCKED: TORSDOF 7
DOCKED: TER
DOCKED: ENDMDL
________________________________________________________________________________


    FINAL DOCKED STATE:
    ________________________


Run:   6 / 20
Time taken for this run:   0.060s

DOCKED: MODEL        6
DOCKED: USER    Run = 6
DOCKED: USER
DOCKED: USER    Estimated Free Energy of Binding    =  -8.97 kcal/mol  [=(1)+(2)+(3)-(4)]
DOCKED: USER
DOCKED: USER    (1) Final Intermolecular Energy     = -11.06 kcal/mol
DOCKED: USER        vdW + Hbond + desolv Energy     = -11.08 kcal/mol
DOCKED: USER        Electrostatic Energy            =  +0.02 kcal/mol
DOCKED: USER        Moving Ligand-Fixed Receptor    = -11.06 kcal/mol
DOCKED: USER        Moving Ligand-Moving Receptor   =  +0.00 kcal/mol
DOCKED: USER    (2) Final Total Internal Energy     =  -2.67 kcal/mol
DOCKED: USER    (3) Torsional Free Energy           =  +2.09 kcal/mol
DOCKED: USER    (4) Unbound System's Energy         =  -2.67 kcal/mol
DOCKED: USER
DOCKED: USER
DOCKED: REMARK SMILES C[C@@H]1CCN(C(=O)CNC(=O)c2ccc3cc(F)ccc3n2)[C@H]1C(=O)NCc1ccccc1
DOCKED: REMARK SMILES IDX 6 1 7 2 5 3 2 4 3 5 23 6 4 7 1 8 24 9 26 10 25 11 27 13
DOCKED: REMARK SMILES IDX 28 14 29 15 33 16 30 17 32 18 31 19 8 20 9 21 10 22 11 24
DOCKED: REMARK SMILES IDX 12 25 13 26 22 27 14 28 21 29 15 30 20 31 16 32 19 33 17 34
DOCKED: REMARK SMILES IDX 18 35
DOCKED: REMARK H PARENT 26 12 9 23
DOCKED: USER                              x       y       z     vdW  Elec       q    Type
DOCKED: USER                           _______ _______ _______ _____ _____    ______ ____
DOCKED: ROOT
DOCKED: ATOM      1  C   UNL     1     138.962  75.715 221.595 -0.18 -0.05    +0.242 C  
DOCKED: ATOM      2  O   UNL     1     137.960  75.962 222.413 -0.21 +0.07    -0.273 OA 
DOCKED: ENDROOT
DOCKED: BRANCH   1   3
DOCKED: ATOM      3  N   UNL     1     139.696  76.834 221.226 -0.08 +0.09    -0.329 N  
DOCKED: ATOM      4  C   UNL     1     141.295  78.381 221.966 -0.41 -0.01    +0.020 C  
DOCKED: ATOM      5  C   UNL     1     140.044  79.092 221.543 -0.23 -0.01    +0.027 C  
DOCKED: ATOM      6  C   UNL     1     141.140  76.979 221.542 -0.23 -0.08    +0.177 C  
DOCKED: ATOM      7  C   UNL     1     139.436  78.089 220.556 -0.10 -0.03    +0.121 C  
DOCKED: ATOM      8  C   UNL     1     141.557  78.535 223.456 -0.57 -0.00    +0.010 C  
DOCKED: BRANCH   6   9
DOCKED: ATOM      9  C   UNL     1     141.976  76.598 220.378 -0.14 -0.14    +0.243 C  
DOCKED: ATOM     10  N   UNL     1     142.087  75.219 220.078 -0.11 +0.14    -0.350 N  
DOCKED: ATOM     11  O   UNL     1     142.530  77.506 219.735 -0.24 +0.20    -0.273 OA 
DOCKED: ATOM     12  H   UNL     1     141.577  74.512 220.683 +0.05 -0.04    +0.163 HD 
DOCKED: BRANCH  10  13
DOCKED: ATOM     13  C   UNL     1     142.853  74.673 218.989 -0.17 -0.05    +0.151 C  
DOCKED: BRANCH  13  14
DOCKED: ATOM     14  C   UNL     1     144.006  73.935 219.527 -0.32 +0.01    -0.029 A  
DOCKED: ATOM     15  C   UNL     1     144.817  74.581 220.465 -0.48 -0.00    +0.005 A  
DOCKED: ATOM     16  C   UNL     1     144.355  72.652 219.173 -0.25 -0.00    +0.005 A  
DOCKED: ATOM     17  C   UNL     1     145.926  73.956 221.016 -0.66 -0.00    +0.000 A  
DOCKED: ATOM     18  C   UNL     1     145.465  72.020 219.720 -0.38 +0.00    +0.000 A  
DOCKED: ATOM     19  C   UNL     1     146.264  72.659 220.646 -0.48 +0.00    +0.000 A  
DOCKED: ENDBRANCH  13  14
DOCKED: ENDBRANCH  10  13
DOCKED: ENDBRANCH   6   9
DOCKED: ENDBRANCH   1   3
DOCKED: BRANCH   1  20
DOCKED: ATOM     20  C   UNL     1     139.079  74.306 221.262 -0.15 -0.05    +0.216 C  
DOCKED: BRANCH  20  21
DOCKED: ATOM     21  N   UNL     1     139.000  73.366 222.337 -0.06 +0.10    -0.342 N  
DOCKED: ATOM     22  C   UNL     1     140.180  72.553 222.559 -0.19 -0.03    +0.270 C  
DOCKED: ATOM     23  H   UNL     1     138.183  73.217 222.965 -0.48 -0.10    +0.164 HD 
DOCKED: ATOM     24  O   UNL     1     141.170  72.723 221.807 -0.28 +0.02    -0.268 OA 
DOCKED: BRANCH  22  25
DOCKED: ATOM     25  C   UNL     1     140.141  71.585 223.647 -0.33 -0.02    +0.128 A  
DOCKED: ATOM     26  C   UNL     1     139.601  70.333 223.386 -0.27 -0.01    +0.035 A  
DOCKED: ATOM     27  N   UNL     1     140.612  71.873 224.890 -0.28 +0.04    -0.243 NA 
DOCKED: ATOM     28  C   UNL     1     139.546  69.380 224.407 -0.33 -0.00    +0.013 A  
DOCKED: ATOM     29  C   UNL     1     140.562  70.958 225.883 -0.54 -0.01    +0.071 A  
DOCKED: ATOM     30  C   UNL     1     140.034  69.701 225.668 -0.46 -0.00    +0.003 A  
DOCKED: ATOM     31  C   UNL     1     141.048  71.300 227.108 -0.70 -0.01    +0.032 A  
DOCKED: ATOM     32  C   UNL     1     139.999  68.787 226.706 -0.55 -0.01    +0.049 A  
DOCKED: ATOM     33  C   UNL     1     141.025  70.404 228.166 -0.56 -0.01    +0.041 A  
DOCKED: ATOM     34  C   UNL     1     140.493  69.129 227.964 -0.53 -0.02    +0.123 A  
DOCKED: ATOM     35  F   UNL     1     140.447  68.212 228.967 -0.18 +0.05    -0.207 F  
DOCKED: ENDBRANCH  22  25
DOCKED: ENDBRANCH  20  21
DOCKED: ENDBRANCH   1  20
DOCKED: TORSDOF 7
DOCKED: TER
DOCKED: ENDMDL
________________________________________________________________________________


    FINAL DOCKED STATE:
    ________________________


Run:   7 / 20
Time taken for this run:   0.060s

DOCKED: MODEL        7
DOCKED: USER    Run = 7
DOCKED: USER
DOCKED: USER    Estimated Free Energy of Binding    =  -8.38 kcal/mol  [=(1)+(2)+(3)-(4)]
DOCKED: USER
DOCKED: USER    (1) Final Intermolecular Energy     = -10.47 kcal/mol
DOCKED: USER        vdW + Hbond + desolv Energy     = -10.39 kcal/mol
DOCKED: USER        Electrostatic Energy            =  -0.08 kcal/mol
DOCKED: USER        Moving Ligand-Fixed Receptor    = -10.47 kcal/mol
DOCKED: USER        Moving Ligand-Moving Receptor   =  +0.00 kcal/mol
DOCKED: USER    (2) Final Total Internal Energy     =  -2.75 kcal/mol
DOCKED: USER    (3) Torsional Free Energy           =  +2.09 kcal/mol
DOCKED: USER    (4) Unbound System's Energy         =  -2.75 kcal/mol
DOCKED: USER
DOCKED: USER
DOCKED: REMARK SMILES C[C@@H]1CCN(C(=O)CNC(=O)c2ccc3cc(F)ccc3n2)[C@H]1C(=O)NCc1ccccc1
DOCKED: REMARK SMILES IDX 6 1 7 2 5 3 2 4 3 5 23 6 4 7 1 8 24 9 26 10 25 11 27 13
DOCKED: REMARK SMILES IDX 28 14 29 15 33 16 30 17 32 18 31 19 8 20 9 21 10 22 11 24
DOCKED: REMARK SMILES IDX 12 25 13 26 22 27 14 28 21 29 15 30 20 31 16 32 19 33 17 34
DOCKED: REMARK SMILES IDX 18 35
DOCKED: REMARK H PARENT 26 12 9 23
DOCKED: USER                              x       y       z     vdW  Elec       q    Type
DOCKED: USER                           _______ _______ _______ _____ _____    ______ ____
DOCKED: ROOT
DOCKED: ATOM      1  C   UNL     1     136.885  73.107 222.282 -0.09 -0.07    +0.242 C  
DOCKED: ATOM      2  O   UNL     1     136.118  74.065 222.759 -0.12 +0.08    -0.273 OA 
DOCKED: ENDROOT
DOCKED: BRANCH   1   3
DOCKED: ATOM      3  N   UNL     1     136.814  71.908 222.978 -0.08 +0.08    -0.329 N  
DOCKED: ATOM      4  C   UNL     1     136.408  69.610 222.757 -0.13 -0.00    +0.020 C  
DOCKED: ATOM      5  C   UNL     1     135.451  70.212 223.744 -0.15 -0.00    +0.027 C  
DOCKED: ATOM      6  C   UNL     1     137.407  70.650 222.459 -0.10 -0.03    +0.177 C  
DOCKED: ATOM      7  C   UNL     1     136.230  71.444 224.217 -0.12 -0.02    +0.121 C  
DOCKED: ATOM      8  C   UNL     1     135.691  69.089 221.521 -0.06 -0.00    +0.010 C  
DOCKED: BRANCH   6   9
DOCKED: ATOM      9  C   UNL     1     138.740  70.406 223.063 -0.16 -0.05    +0.243 C  
DOCKED: ATOM     10  N   UNL     1     139.430  71.522 223.593 -0.17 +0.08    -0.350 N  
DOCKED: ATOM     11  O   UNL     1     139.173  69.240 223.070 -0.14 +0.05    -0.273 OA 
DOCKED: ATOM     12  H   UNL     1     138.982  72.482 223.543 -0.30 -0.08    +0.163 HD 
DOCKED: BRANCH  10  13
DOCKED: ATOM     13  C   UNL     1     140.727  71.468 224.212 -0.28 -0.02    +0.151 C  
DOCKED: BRANCH  13  14
DOCKED: ATOM     14  C   UNL     1     140.574  71.133 225.637 -0.57 +0.00    -0.029 A  
DOCKED: ATOM     15  C   UNL     1     139.906  69.948 225.963 -0.49 -0.00    +0.005 A  
DOCKED: ATOM     16  C   UNL     1     141.036  71.902 226.680 -0.74 -0.00    +0.005 A  
DOCKED: ATOM     17  C   UNL     1     139.716  69.564 227.281 -0.57 -0.00    +0.000 A  
DOCKED: ATOM     18  C   UNL     1     140.847  71.523 228.004 -0.81 -0.00    +0.000 A  
DOCKED: ATOM     19  C   UNL     1     140.188  70.353 228.323 -0.60 -0.00    +0.000 A  
DOCKED: ENDBRANCH  13  14
DOCKED: ENDBRANCH  10  13
DOCKED: ENDBRANCH   6   9
DOCKED: ENDBRANCH   1   3
DOCKED: BRANCH   1  20
DOCKED: ATOM     20  C   UNL     1     137.643  73.525 221.115 -0.07 -0.05    +0.216 C  
DOCKED: BRANCH  20  21
DOCKED: ATOM     21  N   UNL     1     138.230  74.830 221.143 -0.06 +0.08    -0.342 N  
DOCKED: ATOM     22  C   UNL     1     139.518  74.934 221.799 -0.19 -0.05    +0.270 C  
DOCKED: ATOM     23  H   UNL     1     137.819  75.697 220.739 +0.03 -0.03    +0.164 HD 
DOCKED: ATOM     24  O   UNL     1     140.021  73.894 222.291 -0.84 +0.01    -0.268 OA 
DOCKED: BRANCH  22  25
DOCKED: ATOM     25  C   UNL     1     140.150  76.245 221.847 -0.30 -0.03    +0.128 A  
DOCKED: ATOM     26  C   UNL     1     141.188  76.501 220.963 -0.29 -0.01    +0.035 A  
DOCKED: ATOM     27  N   UNL     1     139.755  77.208 222.724 -0.19 +0.05    -0.243 NA 
DOCKED: ATOM     28  C   UNL     1     141.819  77.748 220.982 -0.28 -0.01    +0.013 A  
DOCKED: ATOM     29  C   UNL     1     140.359  78.416 222.750 -0.38 -0.02    +0.071 A  
DOCKED: ATOM     30  C   UNL     1     141.396  78.714 221.888 -0.41 -0.00    +0.003 A  
DOCKED: ATOM     31  C   UNL     1     139.924  79.342 223.647 -0.42 -0.01    +0.032 A  
DOCKED: ATOM     32  C   UNL     1     141.993  79.960 221.940 -0.45 -0.02    +0.049 A  
DOCKED: ATOM     33  C   UNL     1     140.504  80.600 223.722 -0.41 -0.01    +0.041 A  
DOCKED: ATOM     34  C   UNL     1     141.554  80.914 222.857 -0.44 -0.03    +0.123 A  
DOCKED: ATOM     35  F   UNL     1     142.157  82.133 222.887 -0.05 +0.02    -0.207 F  
DOCKED: ENDBRANCH  22  25
DOCKED: ENDBRANCH  20  21
DOCKED: ENDBRANCH   1  20
DOCKED: TORSDOF 7
DOCKED: TER
DOCKED: ENDMDL
________________________________________________________________________________


    FINAL DOCKED STATE:
    ________________________


Run:   8 / 20
Time taken for this run:   0.060s

DOCKED: MODEL        8
DOCKED: USER    Run = 8
DOCKED: USER
DOCKED: USER    Estimated Free Energy of Binding    =  -8.34 kcal/mol  [=(1)+(2)+(3)-(4)]
DOCKED: USER
DOCKED: USER    (1) Final Intermolecular Energy     = -10.42 kcal/mol
DOCKED: USER        vdW + Hbond + desolv Energy     = -10.37 kcal/mol
DOCKED: USER        Electrostatic Energy            =  -0.05 kcal/mol
DOCKED: USER        Moving Ligand-Fixed Receptor    = -10.42 kcal/mol
DOCKED: USER        Moving Ligand-Moving Receptor   =  +0.00 kcal/mol
DOCKED: USER    (2) Final Total Internal Energy     =  -2.84 kcal/mol
DOCKED: USER    (3) Torsional Free Energy           =  +2.09 kcal/mol
DOCKED: USER    (4) Unbound System's Energy         =  -2.84 kcal/mol
DOCKED: USER
DOCKED: USER
DOCKED: REMARK SMILES C[C@@H]1CCN(C(=O)CNC(=O)c2ccc3cc(F)ccc3n2)[C@H]1C(=O)NCc1ccccc1
DOCKED: REMARK SMILES IDX 6 1 7 2 5 3 2 4 3 5 23 6 4 7 1 8 24 9 26 10 25 11 27 13
DOCKED: REMARK SMILES IDX 28 14 29 15 33 16 30 17 32 18 31 19 8 20 9 21 10 22 11 24
DOCKED: REMARK SMILES IDX 12 25 13 26 22 27 14 28 21 29 15 30 20 31 16 32 19 33 17 34
DOCKED: REMARK SMILES IDX 18 35
DOCKED: REMARK H PARENT 26 12 9 23
DOCKED: USER                              x       y       z     vdW  Elec       q    Type
DOCKED: USER                           _______ _______ _______ _____ _____    ______ ____
DOCKED: ROOT
DOCKED: ATOM      1  C   UNL     1     137.150  73.480 222.347 -0.03 -0.08    +0.242 C  
DOCKED: ATOM      2  O   UNL     1     136.570  72.475 222.969 -0.12 +0.08    -0.273 OA 
DOCKED: ENDROOT
DOCKED: BRANCH   1   3
DOCKED: ATOM      3  N   UNL     1     138.266  73.130 221.598 -0.07 +0.08    -0.329 N  
DOCKED: ATOM      4  C   UNL     1     140.356  73.883 220.848 -0.21 -0.00    +0.020 C  
DOCKED: ATOM      5  C   UNL     1     139.488  73.516 219.680 -0.06 -0.01    +0.027 C  
DOCKED: ATOM      6  C   UNL     1     139.650  73.416 222.053 -0.19 -0.03    +0.177 C  
DOCKED: ATOM      7  C   UNL     1     138.522  72.510 220.318 -0.05 -0.02    +0.121 C  
DOCKED: ATOM      8  C   UNL     1     140.671  75.371 220.872 -0.27 -0.00    +0.010 C  
DOCKED: BRANCH   6   9
DOCKED: ATOM      9  C   UNL     1     140.255  72.220 222.688 -0.23 -0.03    +0.243 C  
DOCKED: ATOM     10  N   UNL     1     139.475  71.522 223.641 -0.18 +0.08    -0.350 N  
DOCKED: ATOM     11  O   UNL     1     141.407  71.898 222.349 -0.17 +0.01    -0.273 OA 
DOCKED: ATOM     12  H   UNL     1     138.498  71.870 223.869 -0.20 -0.07    +0.163 HD 
DOCKED: BRANCH  10  13
DOCKED: ATOM     13  C   UNL     1     139.901  70.346 224.351 -0.31 -0.03    +0.151 C  
DOCKED: BRANCH  13  14
DOCKED: ATOM     14  C   UNL     1     140.260  70.712 225.730 -0.53 +0.00    -0.029 A  
DOCKED: ATOM     15  C   UNL     1     141.061  71.843 225.920 -0.58 -0.00    +0.005 A  
DOCKED: ATOM     16  C   UNL     1     139.871  70.023 226.855 -0.53 -0.00    +0.005 A  
DOCKED: ATOM     17  C   UNL     1     141.448  72.251 227.187 -0.81 -0.00    +0.000 A  
DOCKED: ATOM     18  C   UNL     1     140.255  70.427 228.128 -0.63 -0.00    +0.000 A  
DOCKED: ATOM     19  C   UNL     1     141.046  71.543 228.313 -0.77 -0.00    +0.000 A  
DOCKED: ENDBRANCH  13  14
DOCKED: ENDBRANCH  10  13
DOCKED: ENDBRANCH   6   9
DOCKED: ENDBRANCH   1   3
DOCKED: BRANCH   1  20
DOCKED: ATOM     20  C   UNL     1     136.479  74.747 222.583 -0.12 -0.06    +0.216 C  
DOCKED: BRANCH  20  21
DOCKED: ATOM     21  N   UNL     1     137.274  75.833 223.067 -0.12 +0.10    -0.342 N  
DOCKED: ATOM     22  C   UNL     1     137.746  76.771 222.068 -0.16 -0.05    +0.270 C  
DOCKED: ATOM     23  H   UNL     1     137.539  76.006 224.059 -0.10 -0.05    +0.164 HD 
DOCKED: ATOM     24  O   UNL     1     137.434  76.571 220.870 -0.04 +0.05    -0.268 OA 
DOCKED: BRANCH  22  25
DOCKED: ATOM     25  C   UNL     1     138.557  77.892 222.522 -0.23 -0.02    +0.128 A  
DOCKED: ATOM     26  C   UNL     1     137.905  79.053 222.912 -0.23 -0.01    +0.035 A  
DOCKED: ATOM     27  N   UNL     1     139.916  77.831 222.570 -0.21 +0.06    -0.243 NA 
DOCKED: ATOM     28  C   UNL     1     138.652  80.150 223.351 -0.35 -0.00    +0.013 A  
DOCKED: ATOM     29  C   UNL     1     140.646  78.886 222.993 -0.42 -0.02    +0.071 A  
DOCKED: ATOM     30  C   UNL     1     140.039  80.061 223.391 -0.44 -0.00    +0.003 A  
DOCKED: ATOM     31  C   UNL     1     142.002  78.769 223.021 -0.49 -0.01    +0.032 A  
DOCKED: ATOM     32  C   UNL     1     140.816  81.122 223.818 -0.34 -0.01    +0.049 A  
DOCKED: ATOM     33  C   UNL     1     142.805  79.818 223.445 -0.56 -0.01    +0.041 A  
DOCKED: ATOM     34  C   UNL     1     142.205  81.011 223.850 -0.54 -0.02    +0.123 A  
DOCKED: ATOM     35  F   UNL     1     142.945  82.070 224.276 -0.08 +0.01    -0.207 F  
DOCKED: ENDBRANCH  22  25
DOCKED: ENDBRANCH  20  21
DOCKED: ENDBRANCH   1  20
DOCKED: TORSDOF 7
DOCKED: TER
DOCKED: ENDMDL
________________________________________________________________________________


    FINAL DOCKED STATE:
    ________________________


Run:   9 / 20
Time taken for this run:   0.060s

DOCKED: MODEL        9
DOCKED: USER    Run = 9
DOCKED: USER
DOCKED: USER    Estimated Free Energy of Binding    =  -9.01 kcal/mol  [=(1)+(2)+(3)-(4)]
DOCKED: USER
DOCKED: USER    (1) Final Intermolecular Energy     = -11.10 kcal/mol
DOCKED: USER        vdW + Hbond + desolv Energy     = -11.13 kcal/mol
DOCKED: USER        Electrostatic Energy            =  +0.03 kcal/mol
DOCKED: USER        Moving Ligand-Fixed Receptor    = -11.10 kcal/mol
DOCKED: USER        Moving Ligand-Moving Receptor   =  +0.00 kcal/mol
DOCKED: USER    (2) Final Total Internal Energy     =  -2.66 kcal/mol
DOCKED: USER    (3) Torsional Free Energy           =  +2.09 kcal/mol
DOCKED: USER    (4) Unbound System's Energy         =  -2.66 kcal/mol
DOCKED: USER
DOCKED: USER
DOCKED: REMARK SMILES C[C@@H]1CCN(C(=O)CNC(=O)c2ccc3cc(F)ccc3n2)[C@H]1C(=O)NCc1ccccc1
DOCKED: REMARK SMILES IDX 6 1 7 2 5 3 2 4 3 5 23 6 4 7 1 8 24 9 26 10 25 11 27 13
DOCKED: REMARK SMILES IDX 28 14 29 15 33 16 30 17 32 18 31 19 8 20 9 21 10 22 11 24
DOCKED: REMARK SMILES IDX 12 25 13 26 22 27 14 28 21 29 15 30 20 31 16 32 19 33 17 34
DOCKED: REMARK SMILES IDX 18 35
DOCKED: REMARK H PARENT 26 12 9 23
DOCKED: USER                              x       y       z     vdW  Elec       q    Type
DOCKED: USER                           _______ _______ _______ _____ _____    ______ ____
DOCKED: ROOT
DOCKED: ATOM      1  C   UNL     1     138.880  75.897 221.833 -0.20 -0.05    +0.242 C  
DOCKED: ATOM      2  O   UNL     1     138.046  76.104 222.830 -0.24 +0.07    -0.273 OA 
DOCKED: ENDROOT
DOCKED: BRANCH   1   3
DOCKED: ATOM      3  N   UNL     1     139.603  77.016 221.441 -0.09 +0.08    -0.329 N  
DOCKED: ATOM      4  C   UNL     1     141.264  78.529 222.111 -0.43 -0.01    +0.020 C  
DOCKED: ATOM      5  C   UNL     1     139.996  79.263 221.785 -0.25 -0.01    +0.027 C  
DOCKED: ATOM      6  C   UNL     1     141.065  77.139 221.668 -0.27 -0.08    +0.177 C  
DOCKED: ATOM      7  C   UNL     1     139.316  78.288 220.817 -0.11 -0.03    +0.121 C  
DOCKED: ATOM      8  C   UNL     1     141.622  78.647 223.584 -0.59 -0.00    +0.010 C  
DOCKED: BRANCH   6   9
DOCKED: ATOM      9  C   UNL     1     141.822  76.775 220.445 -0.17 -0.14    +0.243 C  
DOCKED: ATOM     10  N   UNL     1     142.073  75.401 220.219 -0.12 +0.15    -0.350 N  
DOCKED: ATOM     11  O   UNL     1     142.189  77.693 219.691 -0.21 +0.18    -0.273 OA 
DOCKED: ATOM     12  H   UNL     1     141.720  74.685 220.918 +0.04 -0.04    +0.163 HD 
DOCKED: BRANCH  10  13
DOCKED: ATOM     13  C   UNL     1     142.789  74.871 219.089 -0.19 -0.06    +0.151 C  
DOCKED: BRANCH  13  14
DOCKED: ATOM     14  C   UNL     1     143.920  74.060 219.564 -0.33 +0.01    -0.029 A  
DOCKED: ATOM     15  C   UNL     1     144.797  74.637 220.487 -0.45 -0.00    +0.005 A  
DOCKED: ATOM     16  C   UNL     1     144.187  72.770 219.166 -0.24 -0.00    +0.005 A  
DOCKED: ATOM     17  C   UNL     1     145.890  73.941 220.980 -0.66 -0.00    +0.000 A  
DOCKED: ATOM     18  C   UNL     1     145.281  72.067 219.655 -0.37 +0.00    +0.000 A  
DOCKED: ATOM     19  C   UNL     1     146.146  72.639 220.566 -0.50 +0.00    +0.000 A  
DOCKED: ENDBRANCH  13  14
DOCKED: ENDBRANCH  10  13
DOCKED: ENDBRANCH   6   9
DOCKED: ENDBRANCH   1   3
DOCKED: BRANCH   1  20
DOCKED: ATOM     20  C   UNL     1     138.860  74.523 221.362 -0.15 -0.05    +0.216 C  
DOCKED: BRANCH  20  21
DOCKED: ATOM     21  N   UNL     1     138.817  73.488 222.349 -0.00 +0.11    -0.342 N  
DOCKED: ATOM     22  C   UNL     1     140.066  72.798 222.602 -0.10 -0.03    +0.270 C  
DOCKED: ATOM     23  H   UNL     1     137.981  73.194 222.894 -0.45 -0.09    +0.164 HD 
DOCKED: ATOM     24  O   UNL     1     141.081  73.145 221.950 -0.46 +0.01    -0.268 OA 
DOCKED: BRANCH  22  25
DOCKED: ATOM     25  C   UNL     1     140.065  71.739 223.602 -0.32 -0.02    +0.128 A  
DOCKED: ATOM     26  C   UNL     1     139.541  70.505 223.245 -0.27 -0.01    +0.035 A  
DOCKED: ATOM     27  N   UNL     1     140.555  71.928 224.858 -0.23 +0.04    -0.243 NA 
DOCKED: ATOM     28  C   UNL     1     139.521  69.467 224.181 -0.30 -0.00    +0.013 A  
DOCKED: ATOM     29  C   UNL     1     140.540  70.930 225.768 -0.53 -0.01    +0.071 A  
DOCKED: ATOM     30  C   UNL     1     140.028  69.687 225.456 -0.45 -0.00    +0.003 A  
DOCKED: ATOM     31  C   UNL     1     141.043  71.175 227.009 -0.68 -0.01    +0.032 A  
DOCKED: ATOM     32  C   UNL     1     140.029  68.687 226.411 -0.54 -0.01    +0.049 A  
DOCKED: ATOM     33  C   UNL     1     141.056  70.190 227.987 -0.58 -0.01    +0.041 A  
DOCKED: ATOM     34  C   UNL     1     140.542  68.928 227.685 -0.53 -0.03    +0.123 A  
DOCKED: ATOM     35  F   UNL     1     140.531  67.927 228.606 -0.16 +0.06    -0.207 F  
DOCKED: ENDBRANCH  22  25
DOCKED: ENDBRANCH  20  21
DOCKED: ENDBRANCH   1  20
DOCKED: TORSDOF 7
DOCKED: TER
DOCKED: ENDMDL
________________________________________________________________________________


    FINAL DOCKED STATE:
    ________________________


Run:   10 / 20
Time taken for this run:   0.060s

DOCKED: MODEL        10
DOCKED: USER    Run = 10
DOCKED: USER
DOCKED: USER    Estimated Free Energy of Binding    =  -8.74 kcal/mol  [=(1)+(2)+(3)-(4)]
DOCKED: USER
DOCKED: USER    (1) Final Intermolecular Energy     = -10.83 kcal/mol
DOCKED: USER        vdW + Hbond + desolv Energy     = -10.76 kcal/mol
DOCKED: USER        Electrostatic Energy            =  -0.07 kcal/mol
DOCKED: USER        Moving Ligand-Fixed Receptor    = -10.83 kcal/mol
DOCKED: USER        Moving Ligand-Moving Receptor   =  +0.00 kcal/mol
DOCKED: USER    (2) Final Total Internal Energy     =  -2.38 kcal/mol
DOCKED: USER    (3) Torsional Free Energy           =  +2.09 kcal/mol
DOCKED: USER    (4) Unbound System's Energy         =  -2.38 kcal/mol
DOCKED: USER
DOCKED: USER
DOCKED: REMARK SMILES C[C@@H]1CCN(C(=O)CNC(=O)c2ccc3cc(F)ccc3n2)[C@H]1C(=O)NCc1ccccc1
DOCKED: REMARK SMILES IDX 6 1 7 2 5 3 2 4 3 5 23 6 4 7 1 8 24 9 26 10 25 11 27 13
DOCKED: REMARK SMILES IDX 28 14 29 15 33 16 30 17 32 18 31 19 8 20 9 21 10 22 11 24
DOCKED: REMARK SMILES IDX 12 25 13 26 22 27 14 28 21 29 15 30 20 31 16 32 19 33 17 34
DOCKED: REMARK SMILES IDX 18 35
DOCKED: REMARK H PARENT 26 12 9 23
DOCKED: USER                              x       y       z     vdW  Elec       q    Type
DOCKED: USER                           _______ _______ _______ _____ _____    ______ ____
DOCKED: ROOT
DOCKED: ATOM      1  C   UNL     1     136.138  72.687 222.740 -0.10 -0.06    +0.242 C  
DOCKED: ATOM      2  O   UNL     1     134.938  72.537 223.260 -0.07 +0.05    -0.273 OA 
DOCKED: ENDROOT
DOCKED: BRANCH   1   3
DOCKED: ATOM      3  N   UNL     1     136.983  71.598 222.911 -0.07 +0.08    -0.329 N  
DOCKED: ATOM      4  C   UNL     1     138.349  70.063 221.783 -0.12 -0.00    +0.020 C  
DOCKED: ATOM      5  C   UNL     1     137.296  69.338 222.568 -0.15 -0.00    +0.027 C  
DOCKED: ATOM      6  C   UNL     1     138.278  71.475 222.195 -0.12 -0.04    +0.177 C  
DOCKED: ATOM      7  C   UNL     1     136.967  70.362 223.661 -0.18 -0.02    +0.121 C  
DOCKED: ATOM      8  C   UNL     1     138.175  69.862 220.285 -0.05 -0.00    +0.010 C  
DOCKED: BRANCH   6   9
DOCKED: ATOM      9  C   UNL     1     139.402  71.915 223.056 -0.18 -0.06    +0.243 C  
DOCKED: ATOM     10  N   UNL     1     139.692  71.136 224.201 -0.20 +0.07    -0.350 N  
DOCKED: ATOM     11  O   UNL     1     140.024  72.940 222.725 -0.67 +0.03    -0.273 OA 
DOCKED: ATOM     12  H   UNL     1     139.106  70.274 224.406 +0.08 -0.03    +0.163 HD 
DOCKED: BRANCH  10  13
DOCKED: ATOM     13  C   UNL     1     140.743  71.415 225.143 -0.42 -0.02    +0.151 C  
DOCKED: BRANCH  13  14
DOCKED: ATOM     14  C   UNL     1     140.789  70.348 226.154 -0.55 +0.00    -0.029 A  
DOCKED: ATOM     15  C   UNL     1     140.575  69.033 225.729 -0.47 -0.00    +0.005 A  
DOCKED: ATOM     16  C   UNL     1     141.023  70.544 227.496 -0.63 -0.00    +0.005 A  
DOCKED: ATOM     17  C   UNL     1     140.596  67.972 226.621 -0.67 -0.00    +0.000 A  
DOCKED: ATOM     18  C   UNL     1     141.045  69.484 228.395 -0.56 -0.00    +0.000 A  
DOCKED: ATOM     19  C   UNL     1     140.834  68.188 227.973 -0.67 -0.00    +0.000 A  
DOCKED: ENDBRANCH  13  14
DOCKED: ENDBRANCH  10  13
DOCKED: ENDBRANCH   6   9
DOCKED: ENDBRANCH   1   3
DOCKED: BRANCH   1  20
DOCKED: ATOM     20  C   UNL     1     136.310  73.975 222.090 -0.09 -0.05    +0.216 C  
DOCKED: BRANCH  20  21
DOCKED: ATOM     21  N   UNL     1     137.518  74.692 222.359 -0.05 +0.12    -0.342 N  
DOCKED: ATOM     22  C   UNL     1     137.475  76.122 222.125 -0.16 -0.06    +0.270 C  
DOCKED: ATOM     23  H   UNL     1     138.412  74.284 222.704 -0.54 -0.08    +0.164 HD 
DOCKED: ATOM     24  O   UNL     1     136.403  76.624 221.708 -0.06 +0.05    -0.268 OA 
DOCKED: BRANCH  22  25
DOCKED: ATOM     25  C   UNL     1     138.684  76.889 222.390 -0.26 -0.03    +0.128 A  
DOCKED: ATOM     26  C   UNL     1     139.908  76.256 222.223 -0.36 -0.01    +0.035 A  
DOCKED: ATOM     27  N   UNL     1     138.644  78.189 222.791 -0.17 +0.04    -0.243 NA 
DOCKED: ATOM     28  C   UNL     1     141.089  76.961 222.470 -0.36 -0.01    +0.013 A  
DOCKED: ATOM     29  C   UNL     1     139.781  78.878 223.033 -0.34 -0.01    +0.071 A  
DOCKED: ATOM     30  C   UNL     1     141.020  78.288 222.879 -0.50 -0.00    +0.003 A  
DOCKED: ATOM     31  C   UNL     1     139.682  80.175 223.433 -0.41 -0.00    +0.032 A  
DOCKED: ATOM     32  C   UNL     1     142.164  79.022 223.134 -0.55 -0.02    +0.049 A  
DOCKED: ATOM     33  C   UNL     1     140.813  80.935 223.695 -0.42 -0.01    +0.041 A  
DOCKED: ATOM     34  C   UNL     1     142.072  80.351 223.545 -0.53 -0.03    +0.123 A  
DOCKED: ATOM     35  F   UNL     1     143.213  81.051 223.787 -0.18 +0.04    -0.207 F  
DOCKED: ENDBRANCH  22  25
DOCKED: ENDBRANCH  20  21
DOCKED: ENDBRANCH   1  20
DOCKED: TORSDOF 7
DOCKED: TER
DOCKED: ENDMDL
________________________________________________________________________________


    FINAL DOCKED STATE:
    ________________________


Run:   11 / 20
Time taken for this run:   0.060s

DOCKED: MODEL        11
DOCKED: USER    Run = 11
DOCKED: USER
DOCKED: USER    Estimated Free Energy of Binding    =  -9.17 kcal/mol  [=(1)+(2)+(3)-(4)]
DOCKED: USER
DOCKED: USER    (1) Final Intermolecular Energy     = -11.26 kcal/mol
DOCKED: USER        vdW + Hbond + desolv Energy     = -11.22 kcal/mol
DOCKED: USER        Electrostatic Energy            =  -0.04 kcal/mol
DOCKED: USER        Moving Ligand-Fixed Receptor    = -11.26 kcal/mol
DOCKED: USER        Moving Ligand-Moving Receptor   =  +0.00 kcal/mol
DOCKED: USER    (2) Final Total Internal Energy     =  -1.85 kcal/mol
DOCKED: USER    (3) Torsional Free Energy           =  +2.09 kcal/mol
DOCKED: USER    (4) Unbound System's Energy         =  -1.85 kcal/mol
DOCKED: USER
DOCKED: USER
DOCKED: REMARK SMILES C[C@@H]1CCN(C(=O)CNC(=O)c2ccc3cc(F)ccc3n2)[C@H]1C(=O)NCc1ccccc1
DOCKED: REMARK SMILES IDX 6 1 7 2 5 3 2 4 3 5 23 6 4 7 1 8 24 9 26 10 25 11 27 13
DOCKED: REMARK SMILES IDX 28 14 29 15 33 16 30 17 32 18 31 19 8 20 9 21 10 22 11 24
DOCKED: REMARK SMILES IDX 12 25 13 26 22 27 14 28 21 29 15 30 20 31 16 32 19 33 17 34
DOCKED: REMARK SMILES IDX 18 35
DOCKED: REMARK H PARENT 26 12 9 23
DOCKED: USER                              x       y       z     vdW  Elec       q    Type
DOCKED: USER                           _______ _______ _______ _____ _____    ______ ____
DOCKED: ROOT
DOCKED: ATOM      1  C   UNL     1     141.291  72.631 219.643 -0.05 -0.04    +0.242 C  
DOCKED: ATOM      2  O   UNL     1     141.454  72.419 218.354 -0.01 +0.05    -0.273 OA 
DOCKED: ENDROOT
DOCKED: BRANCH   1   3
DOCKED: ATOM      3  N   UNL     1     142.091  73.637 220.169 -0.08 +0.07    -0.329 N  
DOCKED: ATOM      4  C   UNL     1     142.960  75.776 219.761 -0.35 -0.01    +0.020 C  
DOCKED: ATOM      5  C   UNL     1     144.076  74.800 219.992 -0.41 -0.01    +0.027 C  
DOCKED: ATOM      6  C   UNL     1     141.713  75.071 220.105 -0.18 -0.06    +0.177 C  
DOCKED: ATOM      7  C   UNL     1     143.375  73.723 220.828 -0.19 -0.03    +0.121 C  
DOCKED: ATOM      8  C   UNL     1     142.972  76.323 218.342 -0.29 -0.01    +0.010 C  
DOCKED: BRANCH   6   9
DOCKED: ATOM      9  C   UNL     1     141.094  75.512 221.378 -0.23 -0.07    +0.243 C  
DOCKED: ATOM     10  N   UNL     1     141.430  76.802 221.854 -0.03 +0.18    -0.350 N  
DOCKED: ATOM     11  O   UNL     1     140.319  74.728 221.953 -0.74 +0.02    -0.273 OA 
DOCKED: ATOM     12  H   UNL     1     142.102  77.404 221.296 -0.36 -0.13    +0.163 HD 
DOCKED: BRANCH  10  13
DOCKED: ATOM     13  C   UNL     1     140.924  77.388 223.067 -0.04 -0.05    +0.151 C  
DOCKED: BRANCH  13  14
DOCKED: ATOM     14  C   UNL     1     141.386  78.782 223.164 -0.54 +0.01    -0.029 A  
DOCKED: ATOM     15  C   UNL     1     140.421  79.780 223.332 -0.46 -0.00    +0.005 A  
DOCKED: ATOM     16  C   UNL     1     142.700  79.183 223.099 -0.47 -0.00    +0.005 A  
DOCKED: ATOM     17  C   UNL     1     140.773  81.118 223.427 -0.44 -0.00    +0.000 A  
DOCKED: ATOM     18  C   UNL     1     143.059  80.522 223.193 -0.66 -0.00    +0.000 A  
DOCKED: ATOM     19  C   UNL     1     142.106  81.506 223.358 -0.54 -0.00    +0.000 A  
DOCKED: ENDBRANCH  13  14
DOCKED: ENDBRANCH  10  13
DOCKED: ENDBRANCH   6   9
DOCKED: ENDBRANCH   1   3
DOCKED: BRANCH   1  20
DOCKED: ATOM     20  C   UNL     1     140.293  71.756 220.234 -0.07 -0.04    +0.216 C  
DOCKED: BRANCH  20  21
DOCKED: ATOM     21  N   UNL     1     140.589  71.190 221.514 -0.07 +0.05    -0.342 N  
DOCKED: ATOM     22  C   UNL     1     139.759  71.639 222.615 -0.20 -0.05    +0.270 C  
DOCKED: ATOM     23  H   UNL     1     141.335  70.495 221.722 +0.12 -0.01    +0.164 HD 
DOCKED: ATOM     24  O   UNL     1     138.857  72.478 222.376 -0.18 +0.07    -0.268 OA 
DOCKED: BRANCH  22  25
DOCKED: ATOM     25  C   UNL     1     140.026  71.085 223.935 -0.34 -0.02    +0.128 A  
DOCKED: ATOM     26  C   UNL     1     140.686  71.886 224.856 -0.36 -0.00    +0.035 A  
DOCKED: ATOM     27  N   UNL     1     139.652  69.823 224.280 -0.17 +0.04    -0.243 NA 
DOCKED: ATOM     28  C   UNL     1     140.961  71.386 226.132 -0.65 -0.00    +0.013 A  
DOCKED: ATOM     29  C   UNL     1     139.914  69.332 225.511 -0.40 -0.01    +0.071 A  
DOCKED: ATOM     30  C   UNL     1     140.568  70.093 226.459 -0.56 -0.00    +0.003 A  
DOCKED: ATOM     31  C   UNL     1     139.517  68.062 225.802 -0.54 -0.00    +0.032 A  
DOCKED: ATOM     32  C   UNL     1     140.820  69.560 227.710 -0.57 -0.01    +0.049 A  
DOCKED: ATOM     33  C   UNL     1     139.757  67.503 227.048 -0.46 -0.01    +0.041 A  
DOCKED: ATOM     34  C   UNL     1     140.418  68.261 228.017 -0.54 -0.03    +0.123 A  
DOCKED: ATOM     35  F   UNL     1     140.677  67.761 229.255 -0.14 +0.06    -0.207 F  
DOCKED: ENDBRANCH  22  25
DOCKED: ENDBRANCH  20  21
DOCKED: ENDBRANCH   1  20
DOCKED: TORSDOF 7
DOCKED: TER
DOCKED: ENDMDL
________________________________________________________________________________


    FINAL DOCKED STATE:
    ________________________


Run:   12 / 20
Time taken for this run:   0.060s

DOCKED: MODEL        12
DOCKED: USER    Run = 12
DOCKED: USER
DOCKED: USER    Estimated Free Energy of Binding    =  -9.11 kcal/mol  [=(1)+(2)+(3)-(4)]
DOCKED: USER
DOCKED: USER    (1) Final Intermolecular Energy     = -11.20 kcal/mol
DOCKED: USER        vdW + Hbond + desolv Energy     = -11.16 kcal/mol
DOCKED: USER        Electrostatic Energy            =  -0.04 kcal/mol
DOCKED: USER        Moving Ligand-Fixed Receptor    = -11.20 kcal/mol
DOCKED: USER        Moving Ligand-Moving Receptor   =  +0.00 kcal/mol
DOCKED: USER    (2) Final Total Internal Energy     =  -1.93 kcal/mol
DOCKED: USER    (3) Torsional Free Energy           =  +2.09 kcal/mol
DOCKED: USER    (4) Unbound System's Energy         =  -1.93 kcal/mol
DOCKED: USER
DOCKED: USER
DOCKED: REMARK SMILES C[C@@H]1CCN(C(=O)CNC(=O)c2ccc3cc(F)ccc3n2)[C@H]1C(=O)NCc1ccccc1
DOCKED: REMARK SMILES IDX 6 1 7 2 5 3 2 4 3 5 23 6 4 7 1 8 24 9 26 10 25 11 27 13
DOCKED: REMARK SMILES IDX 28 14 29 15 33 16 30 17 32 18 31 19 8 20 9 21 10 22 11 24
DOCKED: REMARK SMILES IDX 12 25 13 26 22 27 14 28 21 29 15 30 20 31 16 32 19 33 17 34
DOCKED: REMARK SMILES IDX 18 35
DOCKED: REMARK H PARENT 26 12 9 23
DOCKED: USER                              x       y       z     vdW  Elec       q    Type
DOCKED: USER                           _______ _______ _______ _____ _____    ______ ____
DOCKED: ROOT
DOCKED: ATOM      1  C   UNL     1     141.151  72.658 219.456 -0.04 -0.04    +0.242 C  
DOCKED: ATOM      2  O   UNL     1     141.111  72.743 218.143 -0.00 +0.05    -0.273 OA 
DOCKED: ENDROOT
DOCKED: BRANCH   1   3
DOCKED: ATOM      3  N   UNL     1     141.997  73.574 220.069 -0.07 +0.07    -0.329 N  
DOCKED: ATOM      4  C   UNL     1     143.065  75.643 219.797 -0.35 -0.01    +0.020 C  
DOCKED: ATOM      5  C   UNL     1     144.078  74.568 220.061 -0.43 -0.01    +0.027 C  
DOCKED: ATOM      6  C   UNL     1     141.745  75.037 220.035 -0.18 -0.06    +0.177 C  
DOCKED: ATOM      7  C   UNL     1     143.237  73.528 220.810 -0.19 -0.03    +0.121 C  
DOCKED: ATOM      8  C   UNL     1     143.217  76.233 218.404 -0.30 -0.01    +0.010 C  
DOCKED: BRANCH   6   9
DOCKED: ATOM      9  C   UNL     1     141.083  75.487 221.284 -0.23 -0.07    +0.243 C  
DOCKED: ATOM     10  N   UNL     1     141.111  76.872 221.573 -0.16 +0.15    -0.350 N  
DOCKED: ATOM     11  O   UNL     1     140.543  74.628 222.001 -0.74 +0.01    -0.273 OA 
DOCKED: ATOM     12  H   UNL     1     141.595  77.535 220.901 +0.01 -0.09    +0.163 HD 
DOCKED: BRANCH  10  13
DOCKED: ATOM     13  C   UNL     1     140.521  77.482 222.735 -0.27 -0.04    +0.151 C  
DOCKED: BRANCH  13  14
DOCKED: ATOM     14  C   UNL     1     141.181  78.770 222.999 -0.51 +0.01    -0.029 A  
DOCKED: ATOM     15  C   UNL     1     140.391  79.827 223.462 -0.47 -0.00    +0.005 A  
DOCKED: ATOM     16  C   UNL     1     142.522  79.018 222.822 -0.49 -0.00    +0.005 A  
DOCKED: ATOM     17  C   UNL     1     140.936  81.074 223.729 -0.43 -0.00    +0.000 A  
DOCKED: ATOM     18  C   UNL     1     143.074  80.266 223.087 -0.66 -0.00    +0.000 A  
DOCKED: ATOM     19  C   UNL     1     142.293  81.308 223.543 -0.59 -0.00    +0.000 A  
DOCKED: ENDBRANCH  13  14
DOCKED: ENDBRANCH  10  13
DOCKED: ENDBRANCH   6   9
DOCKED: ENDBRANCH   1   3
DOCKED: BRANCH   1  20
DOCKED: ATOM     20  C   UNL     1     140.287  71.613 219.977 -0.05 -0.04    +0.216 C  
DOCKED: BRANCH  20  21
DOCKED: ATOM     21  N   UNL     1     140.596  71.087 221.271 -0.06 +0.05    -0.342 N  
DOCKED: ATOM     22  C   UNL     1     139.742  71.527 222.357 -0.18 -0.05    +0.270 C  
DOCKED: ATOM     23  H   UNL     1     141.368  70.427 221.497 +0.09 -0.01    +0.164 HD 
DOCKED: ATOM     24  O   UNL     1     138.810  72.324 222.095 -0.14 +0.07    -0.268 OA 
DOCKED: BRANCH  22  25
DOCKED: ATOM     25  C   UNL     1     140.023  71.012 223.690 -0.31 -0.02    +0.128 A  
DOCKED: ATOM     26  C   UNL     1     140.670  71.848 224.589 -0.35 -0.00    +0.035 A  
DOCKED: ATOM     27  N   UNL     1     139.674  69.752 224.069 -0.15 +0.04    -0.243 NA 
DOCKED: ATOM     28  C   UNL     1     140.956  71.386 225.877 -0.63 -0.00    +0.013 A  
DOCKED: ATOM     29  C   UNL     1     139.947  69.298 225.311 -0.38 -0.01    +0.071 A  
DOCKED: ATOM     30  C   UNL     1     140.589  70.095 226.238 -0.55 -0.00    +0.003 A  
DOCKED: ATOM     31  C   UNL     1     139.576  68.029 225.636 -0.52 -0.00    +0.032 A  
DOCKED: ATOM     32  C   UNL     1     140.853  69.599 227.501 -0.55 -0.01    +0.049 A  
DOCKED: ATOM     33  C   UNL     1     139.828  67.506 226.896 -0.56 -0.01    +0.041 A  
DOCKED: ATOM     34  C   UNL     1     140.477  68.301 227.842 -0.55 -0.03    +0.123 A  
DOCKED: ATOM     35  F   UNL     1     140.748  67.838 229.092 -0.16 +0.06    -0.207 F  
DOCKED: ENDBRANCH  22  25
DOCKED: ENDBRANCH  20  21
DOCKED: ENDBRANCH   1  20
DOCKED: TORSDOF 7
DOCKED: TER
DOCKED: ENDMDL
________________________________________________________________________________


    FINAL DOCKED STATE:
    ________________________


Run:   13 / 20
Time taken for this run:   0.060s

DOCKED: MODEL        13
DOCKED: USER    Run = 13
DOCKED: USER
DOCKED: USER    Estimated Free Energy of Binding    =  -9.39 kcal/mol  [=(1)+(2)+(3)-(4)]
DOCKED: USER
DOCKED: USER    (1) Final Intermolecular Energy     = -11.48 kcal/mol
DOCKED: USER        vdW + Hbond + desolv Energy     = -11.34 kcal/mol
DOCKED: USER        Electrostatic Energy            =  -0.14 kcal/mol
DOCKED: USER        Moving Ligand-Fixed Receptor    = -11.48 kcal/mol
DOCKED: USER        Moving Ligand-Moving Receptor   =  +0.00 kcal/mol
DOCKED: USER    (2) Final Total Internal Energy     =  -1.88 kcal/mol
DOCKED: USER    (3) Torsional Free Energy           =  +2.09 kcal/mol
DOCKED: USER    (4) Unbound System's Energy         =  -1.88 kcal/mol
DOCKED: USER
DOCKED: USER
DOCKED: REMARK SMILES C[C@@H]1CCN(C(=O)CNC(=O)c2ccc3cc(F)ccc3n2)[C@H]1C(=O)NCc1ccccc1
DOCKED: REMARK SMILES IDX 6 1 7 2 5 3 2 4 3 5 23 6 4 7 1 8 24 9 26 10 25 11 27 13
DOCKED: REMARK SMILES IDX 28 14 29 15 33 16 30 17 32 18 31 19 8 20 9 21 10 22 11 24
DOCKED: REMARK SMILES IDX 12 25 13 26 22 27 14 28 21 29 15 30 20 31 16 32 19 33 17 34
DOCKED: REMARK SMILES IDX 18 35
DOCKED: REMARK H PARENT 26 12 9 23
DOCKED: USER                              x       y       z     vdW  Elec       q    Type
DOCKED: USER                           _______ _______ _______ _____ _____    ______ ____
DOCKED: ROOT
DOCKED: ATOM      1  C   UNL     1     141.473  73.100 219.517 -0.05 -0.05    +0.242 C  
DOCKED: ATOM      2  O   UNL     1     142.287  72.321 218.836 -0.03 +0.04    -0.273 OA 
DOCKED: ENDROOT
DOCKED: BRANCH   1   3
DOCKED: ATOM      3  N   UNL     1     141.989  74.354 219.815 -0.07 +0.09    -0.329 N  
DOCKED: ATOM      4  C   UNL     1     142.405  76.489 218.941 -0.28 -0.01    +0.020 C  
DOCKED: ATOM      5  C   UNL     1     143.682  75.874 219.433 -0.35 -0.02    +0.027 C  
DOCKED: ATOM      6  C   UNL     1     141.316  75.611 219.401 -0.11 -0.06    +0.177 C  
DOCKED: ATOM      7  C   UNL     1     143.163  74.879 220.477 -0.24 -0.05    +0.121 C  
DOCKED: ATOM      8  C   UNL     1     142.420  76.694 217.434 -0.21 -0.01    +0.010 C  
DOCKED: BRANCH   6   9
DOCKED: ATOM      9  C   UNL     1     140.510  76.171 220.513 -0.13 -0.08    +0.243 C  
DOCKED: ATOM     10  N   UNL     1     141.207  76.812 221.565 -0.14 +0.16    -0.350 N  
DOCKED: ATOM     11  O   UNL     1     139.274  76.045 220.459 -0.05 +0.07    -0.273 OA 
DOCKED: ATOM     12  H   UNL     1     142.266  76.873 221.527 -0.48 -0.16    +0.163 HD 
DOCKED: BRANCH  10  13
DOCKED: ATOM     13  C   UNL     1     140.587  77.409 222.718 -0.29 -0.04    +0.151 C  
DOCKED: BRANCH  13  14
DOCKED: ATOM     14  C   UNL     1     141.203  78.719 222.980 -0.51 +0.01    -0.029 A  
DOCKED: ATOM     15  C   UNL     1     140.373  79.758 223.414 -0.47 -0.00    +0.005 A  
DOCKED: ATOM     16  C   UNL     1     142.540  79.006 222.827 -0.47 -0.00    +0.005 A  
DOCKED: ATOM     17  C   UNL     1     140.875  81.023 223.678 -0.44 -0.00    +0.000 A  
DOCKED: ATOM     18  C   UNL     1     143.049  80.272 223.089 -0.66 -0.00    +0.000 A  
DOCKED: ATOM     19  C   UNL     1     142.228  81.296 223.517 -0.61 -0.00    +0.000 A  
DOCKED: ENDBRANCH  13  14
DOCKED: ENDBRANCH  10  13
DOCKED: ENDBRANCH   6   9
DOCKED: ENDBRANCH   1   3
DOCKED: BRANCH   1  20
DOCKED: ATOM     20  C   UNL     1     140.199  72.465 219.804 -0.04 -0.04    +0.216 C  
DOCKED: BRANCH  20  21
DOCKED: ATOM     21  N   UNL     1     140.136  71.600 220.942 -0.05 +0.05    -0.342 N  
DOCKED: ATOM     22  C   UNL     1     140.091  72.253 222.236 -0.20 -0.04    +0.270 C  
DOCKED: ATOM     23  H   UNL     1     140.118  70.560 220.922 +0.04 -0.03    +0.164 HD 
DOCKED: ATOM     24  O   UNL     1     140.113  73.507 222.271 -0.79 +0.02    -0.268 OA 
DOCKED: BRANCH  22  25
DOCKED: ATOM     25  C   UNL     1     140.024  71.407 223.419 -0.31 -0.02    +0.128 A  
DOCKED: ATOM     26  C   UNL     1     139.369  70.188 223.313 -0.25 -0.01    +0.035 A  
DOCKED: ATOM     27  N   UNL     1     140.577  71.776 224.606 -0.27 +0.03    -0.243 NA 
DOCKED: ATOM     28  C   UNL     1     139.284  69.351 224.430 -0.34 -0.00    +0.013 A  
DOCKED: ATOM     29  C   UNL     1     140.499  70.974 225.690 -0.53 -0.01    +0.071 A  
DOCKED: ATOM     30  C   UNL     1     139.858  69.753 225.630 -0.46 -0.00    +0.003 A  
DOCKED: ATOM     31  C   UNL     1     141.070  71.394 226.853 -0.70 -0.01    +0.032 A  
DOCKED: ATOM     32  C   UNL     1     139.797  68.956 226.759 -0.53 -0.01    +0.049 A  
DOCKED: ATOM     33  C   UNL     1     141.024  70.615 227.999 -0.62 -0.01    +0.041 A  
DOCKED: ATOM     34  C   UNL     1     140.378  69.378 227.953 -0.53 -0.02    +0.123 A  
DOCKED: ATOM     35  F   UNL     1     140.304  68.574 229.048 -0.16 +0.04    -0.207 F  
DOCKED: ENDBRANCH  22  25
DOCKED: ENDBRANCH  20  21
DOCKED: ENDBRANCH   1  20
DOCKED: TORSDOF 7
DOCKED: TER
DOCKED: ENDMDL
________________________________________________________________________________


    FINAL DOCKED STATE:
    ________________________


Run:   14 / 20
Time taken for this run:   0.060s

DOCKED: MODEL        14
DOCKED: USER    Run = 14
DOCKED: USER
DOCKED: USER    Estimated Free Energy of Binding    =  -7.83 kcal/mol  [=(1)+(2)+(3)-(4)]
DOCKED: USER
DOCKED: USER    (1) Final Intermolecular Energy     =  -9.91 kcal/mol
DOCKED: USER        vdW + Hbond + desolv Energy     =  -9.96 kcal/mol
DOCKED: USER        Electrostatic Energy            =  +0.05 kcal/mol
DOCKED: USER        Moving Ligand-Fixed Receptor    =  -9.91 kcal/mol
DOCKED: USER        Moving Ligand-Moving Receptor   =  +0.00 kcal/mol
DOCKED: USER    (2) Final Total Internal Energy     =  -3.02 kcal/mol
DOCKED: USER    (3) Torsional Free Energy           =  +2.09 kcal/mol
DOCKED: USER    (4) Unbound System's Energy         =  -3.02 kcal/mol
DOCKED: USER
DOCKED: USER
DOCKED: REMARK SMILES C[C@@H]1CCN(C(=O)CNC(=O)c2ccc3cc(F)ccc3n2)[C@H]1C(=O)NCc1ccccc1
DOCKED: REMARK SMILES IDX 6 1 7 2 5 3 2 4 3 5 23 6 4 7 1 8 24 9 26 10 25 11 27 13
DOCKED: REMARK SMILES IDX 28 14 29 15 33 16 30 17 32 18 31 19 8 20 9 21 10 22 11 24
DOCKED: REMARK SMILES IDX 12 25 13 26 22 27 14 28 21 29 15 30 20 31 16 32 19 33 17 34
DOCKED: REMARK SMILES IDX 18 35
DOCKED: REMARK H PARENT 26 12 9 23
DOCKED: USER                              x       y       z     vdW  Elec       q    Type
DOCKED: USER                           _______ _______ _______ _____ _____    ______ ____
DOCKED: ROOT
DOCKED: ATOM      1  C   UNL     1     139.534  74.940 220.180 -0.06 -0.06    +0.242 C  
DOCKED: ATOM      2  O   UNL     1     139.081  75.944 219.457 -0.02 +0.07    -0.273 OA 
DOCKED: ENDROOT
DOCKED: BRANCH   1   3
DOCKED: ATOM      3  N   UNL     1     140.918  74.851 220.242 -0.06 +0.09    -0.329 N  
DOCKED: ATOM      4  C   UNL     1     142.825  74.138 219.080 -0.19 -0.01    +0.020 C  
DOCKED: ATOM      5  C   UNL     1     142.746  73.454 220.413 -0.28 -0.01    +0.027 C  
DOCKED: ATOM      6  C   UNL     1     141.790  75.185 219.087 -0.11 -0.06    +0.177 C  
DOCKED: ATOM      7  C   UNL     1     141.904  74.449 221.220 -0.13 -0.03    +0.121 C  
DOCKED: ATOM      8  C   UNL     1     142.679  73.153 217.930 -0.06 -0.00    +0.010 C  
DOCKED: BRANCH   6   9
DOCKED: ATOM      9  C   UNL     1     142.320  76.565 219.207 -0.20 -0.13    +0.243 C  
DOCKED: ATOM     10  N   UNL     1     141.403  77.588 219.547 -0.07 +0.17    -0.350 N  
DOCKED: ATOM     11  O   UNL     1     143.533  76.744 219.002 -0.30 +0.20    -0.273 OA 
DOCKED: ATOM     12  H   UNL     1     140.383  77.342 219.704 +0.05 -0.06    +0.163 HD 
DOCKED: BRANCH  10  13
DOCKED: ATOM     13  C   UNL     1     141.743  78.977 219.705 -0.22 -0.09    +0.151 C  
DOCKED: BRANCH  13  14
DOCKED: ATOM     14  C   UNL     1     141.795  79.307 221.137 -0.36 +0.02    -0.029 A  
DOCKED: ATOM     15  C   UNL     1     141.429  78.314 222.052 -0.42 -0.00    +0.005 A  
DOCKED: ATOM     16  C   UNL     1     142.173  80.526 221.652 -0.46 -0.00    +0.005 A  
DOCKED: ATOM     17  C   UNL     1     141.446  78.547 223.418 -0.58 -0.00    +0.000 A  
DOCKED: ATOM     18  C   UNL     1     142.191  80.766 223.021 -0.61 -0.00    +0.000 A  
DOCKED: ATOM     19  C   UNL     1     141.830  79.784 223.921 -0.58 -0.00    +0.000 A  
DOCKED: ENDBRANCH  13  14
DOCKED: ENDBRANCH  10  13
DOCKED: ENDBRANCH   6   9
DOCKED: ENDBRANCH   1   3
DOCKED: BRANCH   1  20
DOCKED: ATOM     20  C   UNL     1     138.468  74.142 220.761 -0.08 -0.05    +0.216 C  
DOCKED: BRANCH  20  21
DOCKED: ATOM     21  N   UNL     1     138.755  73.447 221.978 -0.10 +0.09    -0.342 N  
DOCKED: ATOM     22  C   UNL     1     139.179  72.068 221.838 -0.13 -0.05    +0.270 C  
DOCKED: ATOM     23  H   UNL     1     138.688  73.839 222.940 -0.55 -0.10    +0.164 HD 
DOCKED: ATOM     24  O   UNL     1     139.262  71.585 220.683 -0.04 +0.05    -0.268 OA 
DOCKED: BRANCH  22  25
DOCKED: ATOM     25  C   UNL     1     139.483  71.326 223.054 -0.26 -0.03    +0.128 A  
DOCKED: ATOM     26  C   UNL     1     139.216  69.964 223.071 -0.22 -0.01    +0.035 A  
DOCKED: ATOM     27  N   UNL     1     140.011  71.926 224.156 -0.22 +0.05    -0.243 NA 
DOCKED: ATOM     28  C   UNL     1     139.494  69.222 224.222 -0.29 -0.00    +0.013 A  
DOCKED: ATOM     29  C   UNL     1     140.281  71.215 225.273 -0.48 -0.01    +0.071 A  
DOCKED: ATOM     30  C   UNL     1     140.033  69.859 225.333 -0.44 -0.00    +0.003 A  
DOCKED: ATOM     31  C   UNL     1     140.809  71.866 226.346 -0.62 -0.01    +0.032 A  
DOCKED: ATOM     32  C   UNL     1     140.322  69.161 226.492 -0.52 -0.01    +0.049 A  
DOCKED: ATOM     33  C   UNL     1     141.109  71.191 227.520 -0.68 -0.01    +0.041 A  
DOCKED: ATOM     34  C   UNL     1     140.862  69.820 227.595 -0.49 -0.02    +0.123 A  
DOCKED: ATOM     35  F   UNL     1     141.138  69.110 228.722 -0.15 +0.05    -0.207 F  
DOCKED: ENDBRANCH  22  25
DOCKED: ENDBRANCH  20  21
DOCKED: ENDBRANCH   1  20
DOCKED: TORSDOF 7
DOCKED: TER
DOCKED: ENDMDL
________________________________________________________________________________


    FINAL DOCKED STATE:
    ________________________


Run:   15 / 20
Time taken for this run:   0.060s

DOCKED: MODEL        15
DOCKED: USER    Run = 15
DOCKED: USER
DOCKED: USER    Estimated Free Energy of Binding    =  -8.88 kcal/mol  [=(1)+(2)+(3)-(4)]
DOCKED: USER
DOCKED: USER    (1) Final Intermolecular Energy     = -10.97 kcal/mol
DOCKED: USER        vdW + Hbond + desolv Energy     = -11.01 kcal/mol
DOCKED: USER        Electrostatic Energy            =  +0.04 kcal/mol
DOCKED: USER        Moving Ligand-Fixed Receptor    = -10.97 kcal/mol
DOCKED: USER        Moving Ligand-Moving Receptor   =  +0.00 kcal/mol
DOCKED: USER    (2) Final Total Internal Energy     =  -2.69 kcal/mol
DOCKED: USER    (3) Torsional Free Energy           =  +2.09 kcal/mol
DOCKED: USER    (4) Unbound System's Energy         =  -2.69 kcal/mol
DOCKED: USER
DOCKED: USER
DOCKED: REMARK SMILES C[C@@H]1CCN(C(=O)CNC(=O)c2ccc3cc(F)ccc3n2)[C@H]1C(=O)NCc1ccccc1
DOCKED: REMARK SMILES IDX 6 1 7 2 5 3 2 4 3 5 23 6 4 7 1 8 24 9 26 10 25 11 27 13
DOCKED: REMARK SMILES IDX 28 14 29 15 33 16 30 17 32 18 31 19 8 20 9 21 10 22 11 24
DOCKED: REMARK SMILES IDX 12 25 13 26 22 27 14 28 21 29 15 30 20 31 16 32 19 33 17 34
DOCKED: REMARK SMILES IDX 18 35
DOCKED: REMARK H PARENT 26 12 9 23
DOCKED: USER                              x       y       z     vdW  Elec       q    Type
DOCKED: USER                           _______ _______ _______ _____ _____    ______ ____
DOCKED: ROOT
DOCKED: ATOM      1  C   UNL     1     138.948  75.622 221.764 -0.19 -0.05    +0.242 C  
DOCKED: ATOM      2  O   UNL     1     138.235  75.910 222.833 -0.23 +0.07    -0.273 OA 
DOCKED: ENDROOT
DOCKED: BRANCH   1   3
DOCKED: ATOM      3  N   UNL     1     139.665  76.690 221.243 -0.09 +0.09    -0.329 N  
DOCKED: ATOM      4  C   UNL     1     141.224  78.361 221.766 -0.39 -0.01    +0.020 C  
DOCKED: ATOM      5  C   UNL     1     139.966  78.978 221.231 -0.20 -0.01    +0.027 C  
DOCKED: ATOM      6  C   UNL     1     141.102  76.910 221.549 -0.25 -0.08    +0.177 C  
DOCKED: ATOM      7  C   UNL     1     139.391  77.829 220.394 -0.09 -0.03    +0.121 C  
DOCKED: ATOM      8  C   UNL     1     141.463  78.737 223.220 -0.58 -0.00    +0.010 C  
DOCKED: BRANCH   6   9
DOCKED: ATOM      9  C   UNL     1     141.961  76.381 220.463 -0.13 -0.13    +0.243 C  
DOCKED: ATOM     10  N   UNL     1     141.868  74.999 220.173 -0.10 +0.12    -0.350 N  
DOCKED: ATOM     11  O   UNL     1     142.710  77.177 219.870 -0.26 +0.21    -0.273 OA 
DOCKED: ATOM     12  H   UNL     1     141.199  74.393 220.731 +0.05 -0.04    +0.163 HD 
DOCKED: BRANCH  10  13
DOCKED: ATOM     13  C   UNL     1     142.625  74.319 219.155 -0.15 -0.05    +0.151 C  
DOCKED: BRANCH  13  14
DOCKED: ATOM     14  C   UNL     1     143.898  73.852 219.724 -0.33 +0.01    -0.029 A  
DOCKED: ATOM     15  C   UNL     1     144.270  72.523 219.493 -0.28 -0.00    +0.005 A  
DOCKED: ATOM     16  C   UNL     1     144.756  74.622 220.475 -0.46 -0.00    +0.005 A  
DOCKED: ATOM     17  C   UNL     1     145.452  72.004 219.999 -0.35 +0.00    +0.000 A  
DOCKED: ATOM     18  C   UNL     1     145.942  74.107 220.985 -0.63 -0.00    +0.000 A  
DOCKED: ATOM     19  C   UNL     1     146.306  72.796 220.756 -0.53 +0.00    +0.000 A  
DOCKED: ENDBRANCH  13  14
DOCKED: ENDBRANCH  10  13
DOCKED: ENDBRANCH   6   9
DOCKED: ENDBRANCH   1   3
DOCKED: BRANCH   1  20
DOCKED: ATOM     20  C   UNL     1     138.824  74.231 221.366 -0.15 -0.05    +0.216 C  
DOCKED: BRANCH  20  21
DOCKED: ATOM     21  N   UNL     1     138.791  73.249 222.406 +0.07 +0.11    -0.342 N  
DOCKED: ATOM     22  C   UNL     1     140.059  72.629 222.737 -0.15 -0.03    +0.270 C  
DOCKED: ATOM     23  H   UNL     1     137.949  72.946 222.938 -0.40 -0.08    +0.164 HD 
DOCKED: ATOM     24  O   UNL     1     141.080  72.987 222.101 -0.45 +0.01    -0.268 OA 
DOCKED: BRANCH  22  25
DOCKED: ATOM     25  C   UNL     1     140.067  71.626 223.793 -0.33 -0.02    +0.128 A  
DOCKED: ATOM     26  C   UNL     1     139.560  70.368 223.501 -0.29 -0.01    +0.035 A  
DOCKED: ATOM     27  N   UNL     1     140.551  71.888 225.038 -0.27 +0.04    -0.243 NA 
DOCKED: ATOM     28  C   UNL     1     139.551  69.381 224.491 -0.34 -0.00    +0.013 A  
DOCKED: ATOM     29  C   UNL     1     140.546  70.940 226.000 -0.54 -0.01    +0.071 A  
DOCKED: ATOM     30  C   UNL     1     140.051  69.675 225.754 -0.47 -0.00    +0.003 A  
DOCKED: ATOM     31  C   UNL     1     141.042  71.257 227.228 -0.70 -0.01    +0.032 A  
DOCKED: ATOM     32  C   UNL     1     140.061  68.728 226.761 -0.56 -0.01    +0.049 A  
DOCKED: ATOM     33  C   UNL     1     141.065  70.327 228.256 -0.54 -0.01    +0.041 A  
DOCKED: ATOM     34  C   UNL     1     140.567  69.044 228.021 -0.53 -0.02    +0.123 A  
DOCKED: ATOM     35  F   UNL     1     140.566  68.094 228.994 -0.18 +0.05    -0.207 F  
DOCKED: ENDBRANCH  22  25
DOCKED: ENDBRANCH  20  21
DOCKED: ENDBRANCH   1  20
DOCKED: TORSDOF 7
DOCKED: TER
DOCKED: ENDMDL
________________________________________________________________________________


    FINAL DOCKED STATE:
    ________________________


Run:   16 / 20
Time taken for this run:   0.060s

DOCKED: MODEL        16
DOCKED: USER    Run = 16
DOCKED: USER
DOCKED: USER    Estimated Free Energy of Binding    =  -8.19 kcal/mol  [=(1)+(2)+(3)-(4)]
DOCKED: USER
DOCKED: USER    (1) Final Intermolecular Energy     = -10.28 kcal/mol
DOCKED: USER        vdW + Hbond + desolv Energy     = -10.31 kcal/mol
DOCKED: USER        Electrostatic Energy            =  +0.03 kcal/mol
DOCKED: USER        Moving Ligand-Fixed Receptor    = -10.28 kcal/mol
DOCKED: USER        Moving Ligand-Moving Receptor   =  +0.00 kcal/mol
DOCKED: USER    (2) Final Total Internal Energy     =  -2.81 kcal/mol
DOCKED: USER    (3) Torsional Free Energy           =  +2.09 kcal/mol
DOCKED: USER    (4) Unbound System's Energy         =  -2.81 kcal/mol
DOCKED: USER
DOCKED: USER
DOCKED: REMARK SMILES C[C@@H]1CCN(C(=O)CNC(=O)c2ccc3cc(F)ccc3n2)[C@H]1C(=O)NCc1ccccc1
DOCKED: REMARK SMILES IDX 6 1 7 2 5 3 2 4 3 5 23 6 4 7 1 8 24 9 26 10 25 11 27 13
DOCKED: REMARK SMILES IDX 28 14 29 15 33 16 30 17 32 18 31 19 8 20 9 21 10 22 11 24
DOCKED: REMARK SMILES IDX 12 25 13 26 22 27 14 28 21 29 15 30 20 31 16 32 19 33 17 34
DOCKED: REMARK SMILES IDX 18 35
DOCKED: REMARK H PARENT 26 12 9 23
DOCKED: USER                              x       y       z     vdW  Elec       q    Type
DOCKED: USER                           _______ _______ _______ _____ _____    ______ ____
DOCKED: ROOT
DOCKED: ATOM      1  C   UNL     1     139.590  74.898 221.732 -0.20 -0.04    +0.242 C  
DOCKED: ATOM      2  O   UNL     1     140.412  75.857 222.103 -0.43 +0.05    -0.273 OA 
DOCKED: ENDROOT
DOCKED: BRANCH   1   3
DOCKED: ATOM      3  N   UNL     1     138.268  75.296 221.582 -0.10 +0.08    -0.329 N  
DOCKED: ATOM      4  C   UNL     1     136.127  75.150 222.525 -0.18 -0.00    +0.020 C  
DOCKED: ATOM      5  C   UNL     1     136.107  74.639 221.115 -0.07 -0.01    +0.027 C  
DOCKED: ATOM      6  C   UNL     1     137.446  75.773 222.723 -0.16 -0.05    +0.177 C  
DOCKED: ATOM      7  C   UNL     1     137.307  75.371 220.504 -0.05 -0.02    +0.121 C  
DOCKED: ATOM      8  C   UNL     1     135.822  74.050 223.529 -0.19 -0.00    +0.010 C  
DOCKED: BRANCH   6   9
DOCKED: ATOM      9  C   UNL     1     137.419  77.255 222.772 -0.14 -0.04    +0.243 C  
DOCKED: ATOM     10  N   UNL     1     138.645  77.922 223.005 -0.11 +0.05    -0.350 N  
DOCKED: ATOM     11  O   UNL     1     136.327  77.825 222.606 -0.10 +0.04    -0.273 OA 
DOCKED: ATOM     12  H   UNL     1     139.532  77.353 223.135 +0.06 -0.02    +0.163 HD 
DOCKED: BRANCH  10  13
DOCKED: ATOM     13  C   UNL     1     138.803  79.350 223.083 -0.27 -0.02    +0.151 C  
DOCKED: BRANCH  13  14
DOCKED: ATOM     14  C   UNL     1     140.235  79.680 223.164 -0.42 +0.01    -0.029 A  
DOCKED: ATOM     15  C   UNL     1     141.145  78.788 222.587 -0.47 -0.00    +0.005 A  
DOCKED: ATOM     16  C   UNL     1     140.752  80.801 223.769 -0.44 -0.00    +0.005 A  
DOCKED: ATOM     17  C   UNL     1     142.511  79.023 222.625 -0.47 -0.00    +0.000 A  
DOCKED: ATOM     18  C   UNL     1     142.120  81.042 223.811 -0.64 -0.00    +0.000 A  
DOCKED: ATOM     19  C   UNL     1     143.016  80.161 223.242 -0.66 -0.00    +0.000 A  
DOCKED: ENDBRANCH  13  14
DOCKED: ENDBRANCH  10  13
DOCKED: ENDBRANCH   6   9
DOCKED: ENDBRANCH   1   3
DOCKED: BRANCH   1  20
DOCKED: ATOM     20  C   UNL     1     140.260  73.622 221.556 -0.21 -0.03    +0.216 C  
DOCKED: BRANCH  20  21
DOCKED: ATOM     21  N   UNL     1     140.399  72.787 222.710 -0.13 +0.02    -0.342 N  
DOCKED: ATOM     22  C   UNL     1     139.499  71.653 222.786 -0.20 -0.05    +0.270 C  
DOCKED: ATOM     23  H   UNL     1     141.079  72.919 223.486 +0.06 +0.03    +0.164 HD 
DOCKED: ATOM     24  O   UNL     1     138.674  71.484 221.856 -0.08 +0.05    -0.268 OA 
DOCKED: BRANCH  22  25
DOCKED: ATOM     25  C   UNL     1     139.610  70.777 223.944 -0.31 -0.02    +0.128 A  
DOCKED: ATOM     26  C   UNL     1     138.992  69.535 223.884 -0.28 -0.01    +0.035 A  
DOCKED: ATOM     27  N   UNL     1     140.291  71.140 225.065 -0.32 +0.04    -0.243 NA 
DOCKED: ATOM     28  C   UNL     1     139.076  68.670 224.978 -0.41 -0.00    +0.013 A  
DOCKED: ATOM     29  C   UNL     1     140.377  70.309 226.127 -0.50 -0.01    +0.071 A  
DOCKED: ATOM     30  C   UNL     1     139.778  69.065 226.110 -0.51 -0.00    +0.003 A  
DOCKED: ATOM     31  C   UNL     1     141.072  70.724 227.222 -0.62 -0.01    +0.032 A  
DOCKED: ATOM     32  C   UNL     1     139.886  68.240 227.214 -0.61 -0.01    +0.049 A  
DOCKED: ATOM     33  C   UNL     1     141.196  69.916 228.343 -0.48 -0.01    +0.041 A  
DOCKED: ATOM     34  C   UNL     1     140.595  68.656 228.340 -0.55 -0.03    +0.123 A  
DOCKED: ATOM     35  F   UNL     1     140.687  67.824 229.412 -0.13 +0.06    -0.207 F  
DOCKED: ENDBRANCH  22  25
DOCKED: ENDBRANCH  20  21
DOCKED: ENDBRANCH   1  20
DOCKED: TORSDOF 7
DOCKED: TER
DOCKED: ENDMDL
________________________________________________________________________________


    FINAL DOCKED STATE:
    ________________________


Run:   17 / 20
Time taken for this run:   0.060s

DOCKED: MODEL        17
DOCKED: USER    Run = 17
DOCKED: USER
DOCKED: USER    Estimated Free Energy of Binding    =  -8.33 kcal/mol  [=(1)+(2)+(3)-(4)]
DOCKED: USER
DOCKED: USER    (1) Final Intermolecular Energy     = -10.42 kcal/mol
DOCKED: USER        vdW + Hbond + desolv Energy     = -10.36 kcal/mol
DOCKED: USER        Electrostatic Energy            =  -0.06 kcal/mol
DOCKED: USER        Moving Ligand-Fixed Receptor    = -10.42 kcal/mol
DOCKED: USER        Moving Ligand-Moving Receptor   =  +0.00 kcal/mol
DOCKED: USER    (2) Final Total Internal Energy     =  -2.88 kcal/mol
DOCKED: USER    (3) Torsional Free Energy           =  +2.09 kcal/mol
DOCKED: USER    (4) Unbound System's Energy         =  -2.88 kcal/mol
DOCKED: USER
DOCKED: USER
DOCKED: REMARK SMILES C[C@@H]1CCN(C(=O)CNC(=O)c2ccc3cc(F)ccc3n2)[C@H]1C(=O)NCc1ccccc1
DOCKED: REMARK SMILES IDX 6 1 7 2 5 3 2 4 3 5 23 6 4 7 1 8 24 9 26 10 25 11 27 13
DOCKED: REMARK SMILES IDX 28 14 29 15 33 16 30 17 32 18 31 19 8 20 9 21 10 22 11 24
DOCKED: REMARK SMILES IDX 12 25 13 26 22 27 14 28 21 29 15 30 20 31 16 32 19 33 17 34
DOCKED: REMARK SMILES IDX 18 35
DOCKED: REMARK H PARENT 26 12 9 23
DOCKED: USER                              x       y       z     vdW  Elec       q    Type
DOCKED: USER                           _______ _______ _______ _____ _____    ______ ____
DOCKED: ROOT
DOCKED: ATOM      1  C   UNL     1     139.111  74.558 221.608 -0.18 -0.05    +0.242 C  
DOCKED: ATOM      2  O   UNL     1     140.169  74.862 222.330 -0.70 +0.00    -0.273 OA 
DOCKED: ENDROOT
DOCKED: BRANCH   1   3
DOCKED: ATOM      3  N   UNL     1     138.501  75.642 220.991 -0.05 +0.07    -0.329 N  
DOCKED: ATOM      4  C   UNL     1     136.921  77.349 221.287 -0.10 -0.00    +0.020 C  
DOCKED: ATOM      5  C   UNL     1     136.551  76.500 220.106 -0.03 -0.00    +0.027 C  
DOCKED: ATOM      6  C   UNL     1     138.274  76.933 221.690 -0.16 -0.04    +0.177 C  
DOCKED: ATOM      7  C   UNL     1     137.912  75.924 219.701 -0.03 -0.03    +0.121 C  
DOCKED: ATOM      8  C   UNL     1     135.897  77.238 222.405 -0.15 -0.00    +0.010 C  
DOCKED: BRANCH   6   9
DOCKED: ATOM      9  C   UNL     1     139.338  77.909 221.354 -0.12 -0.06    +0.243 C  
DOCKED: ATOM     10  N   UNL     1     140.668  77.429 221.288 -0.11 +0.13    -0.350 N  
DOCKED: ATOM     11  O   UNL     1     139.004  79.089 221.150 -0.05 +0.06    -0.273 OA 
DOCKED: ATOM     12  H   UNL     1     140.861  76.402 221.478 +0.03 -0.06    +0.163 HD 
DOCKED: BRANCH  10  13
DOCKED: ATOM     13  C   UNL     1     141.819  78.234 220.977 -0.25 -0.09    +0.151 C  
DOCKED: BRANCH  13  14
DOCKED: ATOM     14  C   UNL     1     141.964  79.290 221.990 -0.46 +0.01    -0.029 A  
DOCKED: ATOM     15  C   UNL     1     141.704  80.609 221.603 -0.43 -0.00    +0.005 A  
DOCKED: ATOM     16  C   UNL     1     142.342  79.082 223.297 -0.55 -0.00    +0.005 A  
DOCKED: ATOM     17  C   UNL     1     141.823  81.662 222.496 -0.47 -0.00    +0.000 A  
DOCKED: ATOM     18  C   UNL     1     142.464  80.134 224.197 -0.52 -0.00    +0.000 A  
DOCKED: ATOM     19  C   UNL     1     142.207  81.434 223.812 -0.61 -0.00    +0.000 A  
DOCKED: ENDBRANCH  13  14
DOCKED: ENDBRANCH  10  13
DOCKED: ENDBRANCH   6   9
DOCKED: ENDBRANCH   1   3
DOCKED: BRANCH   1  20
DOCKED: ATOM     20  C   UNL     1     138.816  73.136 221.616 -0.14 -0.05    +0.216 C  
DOCKED: BRANCH  20  21
DOCKED: ATOM     21  N   UNL     1     139.203  72.390 222.774 -0.09 +0.09    -0.342 N  
DOCKED: ATOM     22  C   UNL     1     138.782  71.003 222.807 -0.15 -0.06    +0.270 C  
DOCKED: ATOM     23  H   UNL     1     139.751  72.750 223.582 -0.26 -0.04    +0.164 HD 
DOCKED: ATOM     24  O   UNL     1     138.119  70.559 221.839 -0.05 +0.05    -0.268 OA 
DOCKED: BRANCH  22  25
DOCKED: ATOM     25  C   UNL     1     139.157  70.209 223.969 -0.26 -0.02    +0.128 A  
DOCKED: ATOM     26  C   UNL     1     138.875  68.850 223.949 -0.30 -0.00    +0.035 A  
DOCKED: ATOM     27  N   UNL     1     139.766  70.757 225.055 -0.27 +0.04    -0.243 NA 
DOCKED: ATOM     28  C   UNL     1     139.219  68.058 225.047 -0.42 -0.00    +0.013 A  
DOCKED: ATOM     29  C   UNL     1     140.102  69.998 226.122 -0.46 -0.01    +0.071 A  
DOCKED: ATOM     30  C   UNL     1     139.840  68.643 226.144 -0.55 -0.00    +0.003 A  
DOCKED: ATOM     31  C   UNL     1     140.709  70.599 227.182 -0.62 -0.01    +0.032 A  
DOCKED: ATOM     32  C   UNL     1     140.198  67.895 227.251 -0.60 -0.01    +0.049 A  
DOCKED: ATOM     33  C   UNL     1     141.079  69.873 228.305 -0.53 -0.01    +0.041 A  
DOCKED: ATOM     34  C   UNL     1     140.820  68.502 228.341 -0.56 -0.03    +0.123 A  
DOCKED: ATOM     35  F   UNL     1     141.162  67.744 229.417 -0.17 +0.06    -0.207 F  
DOCKED: ENDBRANCH  22  25
DOCKED: ENDBRANCH  20  21
DOCKED: ENDBRANCH   1  20
DOCKED: TORSDOF 7
DOCKED: TER
DOCKED: ENDMDL
________________________________________________________________________________


    FINAL DOCKED STATE:
    ________________________


Run:   18 / 20
Time taken for this run:   0.060s

DOCKED: MODEL        18
DOCKED: USER    Run = 18
DOCKED: USER
DOCKED: USER    Estimated Free Energy of Binding    =  -8.08 kcal/mol  [=(1)+(2)+(3)-(4)]
DOCKED: USER
DOCKED: USER    (1) Final Intermolecular Energy     = -10.17 kcal/mol
DOCKED: USER        vdW + Hbond + desolv Energy     = -10.11 kcal/mol
DOCKED: USER        Electrostatic Energy            =  -0.06 kcal/mol
DOCKED: USER        Moving Ligand-Fixed Receptor    = -10.17 kcal/mol
DOCKED: USER        Moving Ligand-Moving Receptor   =  +0.00 kcal/mol
DOCKED: USER    (2) Final Total Internal Energy     =  -2.50 kcal/mol
DOCKED: USER    (3) Torsional Free Energy           =  +2.09 kcal/mol
DOCKED: USER    (4) Unbound System's Energy         =  -2.50 kcal/mol
DOCKED: USER
DOCKED: USER
DOCKED: REMARK SMILES C[C@@H]1CCN(C(=O)CNC(=O)c2ccc3cc(F)ccc3n2)[C@H]1C(=O)NCc1ccccc1
DOCKED: REMARK SMILES IDX 6 1 7 2 5 3 2 4 3 5 23 6 4 7 1 8 24 9 26 10 25 11 27 13
DOCKED: REMARK SMILES IDX 28 14 29 15 33 16 30 17 32 18 31 19 8 20 9 21 10 22 11 24
DOCKED: REMARK SMILES IDX 12 25 13 26 22 27 14 28 21 29 15 30 20 31 16 32 19 33 17 34
DOCKED: REMARK SMILES IDX 18 35
DOCKED: REMARK H PARENT 26 12 9 23
DOCKED: USER                              x       y       z     vdW  Elec       q    Type
DOCKED: USER                           _______ _______ _______ _____ _____    ______ ____
DOCKED: ROOT
DOCKED: ATOM      1  C   UNL     1     136.429  73.611 221.349 -0.05 -0.05    +0.242 C  
DOCKED: ATOM      2  O   UNL     1     135.129  73.521 221.537 -0.02 +0.05    -0.273 OA 
DOCKED: ENDROOT
DOCKED: BRANCH   1   3
DOCKED: ATOM      3  N   UNL     1     136.901  74.906 221.181 -0.03 +0.07    -0.329 N  
DOCKED: ATOM      4  C   UNL     1     136.890  77.061 222.104 -0.18 -0.00    +0.020 C  
DOCKED: ATOM      5  C   UNL     1     136.363  77.097 220.700 -0.05 -0.00    +0.027 C  
DOCKED: ATOM      6  C   UNL     1     137.439  75.710 222.308 -0.19 -0.05    +0.177 C  
DOCKED: ATOM      7  C   UNL     1     137.017  75.850 220.093 -0.03 -0.02    +0.121 C  
DOCKED: ATOM      8  C   UNL     1     135.822  77.439 223.118 -0.18 -0.00    +0.010 C  
DOCKED: BRANCH   6   9
DOCKED: ATOM      9  C   UNL     1     138.920  75.651 222.339 -0.20 -0.05    +0.243 C  
DOCKED: ATOM     10  N   UNL     1     139.622  76.879 222.315 -0.18 +0.08    -0.350 N  
DOCKED: ATOM     11  O   UNL     1     139.459  74.531 222.385 -0.71 +0.04    -0.273 OA 
DOCKED: ATOM     12  H   UNL     1     139.078  77.790 222.276 +0.06 -0.03    +0.163 HD 
DOCKED: BRANCH  10  13
DOCKED: ATOM     13  C   UNL     1     141.055  77.008 222.340 -0.28 -0.06    +0.151 C  
DOCKED: BRANCH  13  14
DOCKED: ATOM     14  C   UNL     1     141.415  78.432 222.420 -0.45 +0.01    -0.029 A  
DOCKED: ATOM     15  C   UNL     1     141.791  78.944 223.666 -0.62 -0.00    +0.005 A  
DOCKED: ATOM     16  C   UNL     1     141.408  79.307 221.358 -0.36 -0.00    +0.005 A  
DOCKED: ATOM     17  C   UNL     1     142.140  80.276 223.826 -0.64 -0.00    +0.000 A  
DOCKED: ATOM     18  C   UNL     1     141.757  80.644 221.512 -0.42 -0.00    +0.000 A  
DOCKED: ATOM     19  C   UNL     1     142.126  81.146 222.743 -0.54 -0.00    +0.000 A  
DOCKED: ENDBRANCH  13  14
DOCKED: ENDBRANCH  10  13
DOCKED: ENDBRANCH   6   9
DOCKED: ENDBRANCH   1   3
DOCKED: BRANCH   1  20
DOCKED: ATOM     20  C   UNL     1     137.088  72.316 221.364 -0.05 -0.05    +0.216 C  
DOCKED: BRANCH  20  21
DOCKED: ATOM     21  N   UNL     1     137.860  71.984 222.521 -0.07 +0.09    -0.342 N  
DOCKED: ATOM     22  C   UNL     1     137.834  70.592 222.924 -0.11 -0.05    +0.270 C  
DOCKED: ATOM     23  H   UNL     1     138.432  72.643 223.089 -0.42 -0.08    +0.164 HD 
DOCKED: ATOM     24  O   UNL     1     137.148  69.788 222.247 -0.05 +0.04    -0.268 OA 
DOCKED: BRANCH  22  25
DOCKED: ATOM     25  C   UNL     1     138.610  70.212 224.097 -0.25 -0.02    +0.128 A  
DOCKED: ATOM     26  C   UNL     1     138.683  68.864 224.422 -0.34 -0.00    +0.035 A  
DOCKED: ATOM     27  N   UNL     1     139.253  71.129 224.868 -0.23 +0.05    -0.243 NA 
DOCKED: ATOM     28  C   UNL     1     139.417  68.464 225.542 -0.48 -0.00    +0.013 A  
DOCKED: ATOM     29  C   UNL     1     139.965  70.751 225.953 -0.47 -0.01    +0.071 A  
DOCKED: ATOM     30  C   UNL     1     140.065  69.422 226.313 -0.52 -0.00    +0.003 A  
DOCKED: ATOM     31  C   UNL     1     140.588  71.712 226.689 -0.63 -0.01    +0.032 A  
DOCKED: ATOM     32  C   UNL     1     140.802  69.069 227.428 -0.58 -0.01    +0.049 A  
DOCKED: ATOM     33  C   UNL     1     141.334  71.385 227.812 -0.63 -0.01    +0.041 A  
DOCKED: ATOM     34  C   UNL     1     141.443  70.045 228.189 -0.29 -0.02    +0.123 A  
DOCKED: ATOM     35  F   UNL     1     142.162  69.671 229.280 +0.08 +0.05    -0.207 F  
DOCKED: ENDBRANCH  22  25
DOCKED: ENDBRANCH  20  21
DOCKED: ENDBRANCH   1  20
DOCKED: TORSDOF 7
DOCKED: TER
DOCKED: ENDMDL
________________________________________________________________________________


    FINAL DOCKED STATE:
    ________________________


Run:   19 / 20
Time taken for this run:   0.060s

DOCKED: MODEL        19
DOCKED: USER    Run = 19
DOCKED: USER
DOCKED: USER    Estimated Free Energy of Binding    =  -9.46 kcal/mol  [=(1)+(2)+(3)-(4)]
DOCKED: USER
DOCKED: USER    (1) Final Intermolecular Energy     = -11.55 kcal/mol
DOCKED: USER        vdW + Hbond + desolv Energy     = -11.43 kcal/mol
DOCKED: USER        Electrostatic Energy            =  -0.12 kcal/mol
DOCKED: USER        Moving Ligand-Fixed Receptor    = -11.55 kcal/mol
DOCKED: USER        Moving Ligand-Moving Receptor   =  +0.00 kcal/mol
DOCKED: USER    (2) Final Total Internal Energy     =  -1.90 kcal/mol
DOCKED: USER    (3) Torsional Free Energy           =  +2.09 kcal/mol
DOCKED: USER    (4) Unbound System's Energy         =  -1.90 kcal/mol
DOCKED: USER
DOCKED: USER
DOCKED: REMARK SMILES C[C@@H]1CCN(C(=O)CNC(=O)c2ccc3cc(F)ccc3n2)[C@H]1C(=O)NCc1ccccc1
DOCKED: REMARK SMILES IDX 6 1 7 2 5 3 2 4 3 5 23 6 4 7 1 8 24 9 26 10 25 11 27 13
DOCKED: REMARK SMILES IDX 28 14 29 15 33 16 30 17 32 18 31 19 8 20 9 21 10 22 11 24
DOCKED: REMARK SMILES IDX 12 25 13 26 22 27 14 28 21 29 15 30 20 31 16 32 19 33 17 34
DOCKED: REMARK SMILES IDX 18 35
DOCKED: REMARK H PARENT 26 12 9 23
DOCKED: USER                              x       y       z     vdW  Elec       q    Type
DOCKED: USER                           _______ _______ _______ _____ _____    ______ ____
DOCKED: ROOT
DOCKED: ATOM      1  C   UNL     1     140.957  73.109 219.465 -0.04 -0.05    +0.242 C  
DOCKED: ATOM      2  O   UNL     1     141.522  72.510 218.437 -0.01 +0.05    -0.273 OA 
DOCKED: ENDROOT
DOCKED: BRANCH   1   3
DOCKED: ATOM      3  N   UNL     1     141.658  74.204 219.953 -0.06 +0.08    -0.329 N  
DOCKED: ATOM      4  C   UNL     1     142.639  76.247 219.353 -0.33 -0.01    +0.020 C  
DOCKED: ATOM      5  C   UNL     1     143.663  75.344 219.976 -0.36 -0.02    +0.027 C  
DOCKED: ATOM      6  C   UNL     1     141.333  75.598 219.558 -0.12 -0.06    +0.177 C  
DOCKED: ATOM      7  C   UNL     1     142.784  74.425 220.832 -0.17 -0.04    +0.121 C  
DOCKED: ATOM      8  C   UNL     1     142.949  76.530 217.892 -0.28 -0.01    +0.010 C  
DOCKED: BRANCH   6   9
DOCKED: ATOM      9  C   UNL     1     140.480  76.251 220.580 -0.14 -0.08    +0.243 C  
DOCKED: ATOM     10  N   UNL     1     141.133  76.934 221.634 -0.16 +0.16    -0.350 N  
DOCKED: ATOM     11  O   UNL     1     139.246  76.164 220.454 -0.05 +0.07    -0.273 OA 
DOCKED: ATOM     12  H   UNL     1     142.194  76.958 221.661 -0.49 -0.15    +0.163 HD 
DOCKED: BRANCH  10  13
DOCKED: ATOM     13  C   UNL     1     140.465  77.622 222.707 -0.30 -0.04    +0.151 C  
DOCKED: BRANCH  13  14
DOCKED: ATOM     14  C   UNL     1     141.191  78.863 223.018 -0.51 +0.01    -0.029 A  
DOCKED: ATOM     15  C   UNL     1     140.455  79.947 223.505 -0.47 -0.00    +0.005 A  
DOCKED: ATOM     16  C   UNL     1     142.546  79.043 222.863 -0.50 -0.00    +0.005 A  
DOCKED: ATOM     17  C   UNL     1     141.063  81.153 223.817 -0.44 -0.00    +0.000 A  
DOCKED: ATOM     18  C   UNL     1     143.162  80.249 223.174 -0.65 -0.00    +0.000 A  
DOCKED: ATOM     19  C   UNL     1     142.434  81.318 223.654 -0.58 -0.00    +0.000 A  
DOCKED: ENDBRANCH  13  14
DOCKED: ENDBRANCH  10  13
DOCKED: ENDBRANCH   6   9
DOCKED: ENDBRANCH   1   3
DOCKED: BRANCH   1  20
DOCKED: ATOM     20  C   UNL     1     139.707  72.483 219.860 -0.04 -0.04    +0.216 C  
DOCKED: BRANCH  20  21
DOCKED: ATOM     21  N   UNL     1     139.737  71.612 220.995 -0.04 +0.06    -0.342 N  
DOCKED: ATOM     22  C   UNL     1     139.877  72.256 222.287 -0.20 -0.04    +0.270 C  
DOCKED: ATOM     23  H   UNL     1     139.667  70.574 220.976 +0.04 -0.03    +0.164 HD 
DOCKED: ATOM     24  O   UNL     1     139.963  73.507 222.322 -0.81 +0.02    -0.268 OA 
DOCKED: BRANCH  22  25
DOCKED: ATOM     25  C   UNL     1     139.909  71.405 223.468 -0.32 -0.02    +0.128 A  
DOCKED: ATOM     26  C   UNL     1     139.392  70.121 223.361 -0.25 -0.01    +0.035 A  
DOCKED: ATOM     27  N   UNL     1     140.424  71.830 224.654 -0.27 +0.04    -0.243 NA 
DOCKED: ATOM     28  C   UNL     1     139.404  69.278 224.475 -0.34 -0.00    +0.013 A  
DOCKED: ATOM     29  C   UNL     1     140.439  71.022 225.736 -0.53 -0.01    +0.071 A  
DOCKED: ATOM     30  C   UNL     1     139.936  69.738 225.675 -0.46 -0.00    +0.003 A  
DOCKED: ATOM     31  C   UNL     1     140.966  71.499 226.897 -0.71 -0.01    +0.032 A  
DOCKED: ATOM     32  C   UNL     1     139.968  68.936 226.801 -0.54 -0.01    +0.049 A  
DOCKED: ATOM     33  C   UNL     1     141.011  70.717 228.041 -0.63 -0.01    +0.041 A  
DOCKED: ATOM     34  C   UNL     1     140.505  69.417 227.994 -0.52 -0.02    +0.123 A  
DOCKED: ATOM     35  F   UNL     1     140.526  68.607 229.087 -0.15 +0.04    -0.207 F  
DOCKED: ENDBRANCH  22  25
DOCKED: ENDBRANCH  20  21
DOCKED: ENDBRANCH   1  20
DOCKED: TORSDOF 7
DOCKED: TER
DOCKED: ENDMDL
________________________________________________________________________________


    FINAL DOCKED STATE:
    ________________________


Run:   20 / 20
Time taken for this run:   0.060s

DOCKED: MODEL        20
DOCKED: USER    Run = 20
DOCKED: USER
DOCKED: USER    Estimated Free Energy of Binding    =  -7.87 kcal/mol  [=(1)+(2)+(3)-(4)]
DOCKED: USER
DOCKED: USER    (1) Final Intermolecular Energy     =  -9.96 kcal/mol
DOCKED: USER        vdW + Hbond + desolv Energy     = -10.02 kcal/mol
DOCKED: USER        Electrostatic Energy            =  +0.06 kcal/mol
DOCKED: USER        Moving Ligand-Fixed Receptor    =  -9.96 kcal/mol
DOCKED: USER        Moving Ligand-Moving Receptor   =  +0.00 kcal/mol
DOCKED: USER    (2) Final Total Internal Energy     =  -2.92 kcal/mol
DOCKED: USER    (3) Torsional Free Energy           =  +2.09 kcal/mol
DOCKED: USER    (4) Unbound System's Energy         =  -2.92 kcal/mol
DOCKED: USER
DOCKED: USER
DOCKED: REMARK SMILES C[C@@H]1CCN(C(=O)CNC(=O)c2ccc3cc(F)ccc3n2)[C@H]1C(=O)NCc1ccccc1
DOCKED: REMARK SMILES IDX 6 1 7 2 5 3 2 4 3 5 23 6 4 7 1 8 24 9 26 10 25 11 27 13
DOCKED: REMARK SMILES IDX 28 14 29 15 33 16 30 17 32 18 31 19 8 20 9 21 10 22 11 24
DOCKED: REMARK SMILES IDX 12 25 13 26 22 27 14 28 21 29 15 30 20 31 16 32 19 33 17 34
DOCKED: REMARK SMILES IDX 18 35
DOCKED: REMARK H PARENT 26 12 9 23
DOCKED: USER                              x       y       z     vdW  Elec       q    Type
DOCKED: USER                           _______ _______ _______ _____ _____    ______ ____
DOCKED: ROOT
DOCKED: ATOM      1  C   UNL     1     139.506  74.890 220.114 -0.06 -0.06    +0.242 C  
DOCKED: ATOM      2  O   UNL     1     138.999  75.834 219.348 -0.01 +0.07    -0.273 OA 
DOCKED: ENDROOT
DOCKED: BRANCH   1   3
DOCKED: ATOM      3  N   UNL     1     140.891  74.910 220.215 -0.06 +0.09    -0.329 N  
DOCKED: ATOM      4  C   UNL     1     142.880  74.348 219.110 -0.21 -0.01    +0.020 C  
DOCKED: ATOM      5  C   UNL     1     142.816  73.661 220.443 -0.29 -0.01    +0.027 C  
DOCKED: ATOM      6  C   UNL     1     141.766  75.311 219.085 -0.11 -0.06    +0.177 C  
DOCKED: ATOM      7  C   UNL     1     141.876  74.587 221.223 -0.15 -0.03    +0.121 C  
DOCKED: ATOM      8  C   UNL     1     142.845  73.353 217.960 -0.08 -0.00    +0.010 C  
DOCKED: BRANCH   6   9
DOCKED: ATOM      9  C   UNL     1     142.182  76.728 219.215 -0.19 -0.13    +0.243 C  
DOCKED: ATOM     10  N   UNL     1     141.264  77.625 219.810 -0.07 +0.17    -0.350 N  
DOCKED: ATOM     11  O   UNL     1     143.309  77.046 218.797 -0.29 +0.20    -0.273 OA 
DOCKED: ATOM     12  H   UNL     1     140.322  77.264 220.139 +0.06 -0.06    +0.163 HD 
DOCKED: BRANCH  10  13
DOCKED: ATOM     13  C   UNL     1     141.501  79.030 220.015 -0.22 -0.08    +0.151 C  
DOCKED: BRANCH  13  14
DOCKED: ATOM     14  C   UNL     1     141.738  79.281 221.445 -0.39 +0.01    -0.029 A  
DOCKED: ATOM     15  C   UNL     1     142.305  80.506 221.809 -0.47 -0.00    +0.005 A  
DOCKED: ATOM     16  C   UNL     1     141.446  78.398 222.458 -0.47 -0.00    +0.005 A  
DOCKED: ATOM     17  C   UNL     1     142.564  80.818 223.135 -0.63 -0.00    +0.000 A  
DOCKED: ATOM     18  C   UNL     1     141.704  78.704 223.789 -0.61 -0.00    +0.000 A  
DOCKED: ATOM     19  C   UNL     1     142.264  79.914 224.146 -0.51 -0.00    +0.000 A  
DOCKED: ENDBRANCH  13  14
DOCKED: ENDBRANCH  10  13
DOCKED: ENDBRANCH   6   9
DOCKED: ENDBRANCH   1   3
DOCKED: BRANCH   1  20
DOCKED: ATOM     20  C   UNL     1     138.488  74.030 220.692 -0.08 -0.05    +0.216 C  
DOCKED: BRANCH  20  21
DOCKED: ATOM     21  N   UNL     1     138.802  73.373 221.923 -0.11 +0.09    -0.342 N  
DOCKED: ATOM     22  C   UNL     1     139.064  71.950 221.836 -0.12 -0.06    +0.270 C  
DOCKED: ATOM     23  H   UNL     1     138.859  73.821 222.861 -0.55 -0.08    +0.164 HD 
DOCKED: ATOM     24  O   UNL     1     138.996  71.400 220.710 -0.04 +0.05    -0.268 OA 
DOCKED: BRANCH  22  25
DOCKED: ATOM     25  C   UNL     1     139.390  71.245 223.068 -0.25 -0.03    +0.128 A  
DOCKED: ATOM     26  C   UNL     1     139.144  69.880 223.122 -0.23 -0.01    +0.035 A  
DOCKED: ATOM     27  N   UNL     1     139.918  71.881 224.149 -0.23 +0.05    -0.243 NA 
DOCKED: ATOM     28  C   UNL     1     139.443  69.172 224.289 -0.30 -0.00    +0.013 A  
DOCKED: ATOM     29  C   UNL     1     140.210  71.204 225.281 -0.48 -0.01    +0.071 A  
DOCKED: ATOM     30  C   UNL     1     139.983  69.846 225.379 -0.45 -0.00    +0.003 A  
DOCKED: ATOM     31  C   UNL     1     140.737  71.891 226.331 -0.60 -0.01    +0.032 A  
DOCKED: ATOM     32  C   UNL     1     140.293  69.183 226.552 -0.52 -0.01    +0.049 A  
DOCKED: ATOM     33  C   UNL     1     141.058  71.251 227.520 -0.71 -0.01    +0.041 A  
DOCKED: ATOM     34  C   UNL     1     140.833  69.878 227.633 -0.50 -0.02    +0.123 A  
DOCKED: ATOM     35  F   UNL     1     141.130  69.202 228.775 -0.13 +0.04    -0.207 F  
DOCKED: ENDBRANCH  22  25
DOCKED: ENDBRANCH  20  21
DOCKED: ENDBRANCH   1  20
DOCKED: TORSDOF 7
DOCKED: TER
DOCKED: ENDMDL
________________________________________________________________________________


    CLUSTERING HISTOGRAM
    ____________________


________________________________________________________________________________
     |           |     |           |     |
Clus | Lowest    | Run | Mean      | Num | Histogram
-ter | Binding   |     | Binding   | in  |
Rank | Energy    |     | Energy    | Clus|    5    10   15   20   25   30   35
_____|___________|_____|___________|_____|____:____|____:____|____:____|____:___
   1 |     -9.46 |  19 |     -8.79 |   9 |#########
   2 |     -9.04 |   2 |     -8.98 |   4 |####
   3 |     -8.74 |  10 |     -8.49 |   3 |###
   4 |     -8.35 |   4 |     -8.24 |   4 |####
_____|___________|_____|___________|_____|______________________________________


    RMSD TABLE
    __________


_______________________________________________________________________
     |      |      |           |         |                 |
Rank | Sub- | Run  | Binding   | Cluster | Reference       | Grep
     | Rank |      | Energy    | RMSD    | RMSD            | Pattern
_____|______|______|___________|_________|_________________|___________
   1      1     19       -9.46      0.00    270.81           RANKING
   1      2     13       -9.39      0.35    270.77           RANKING
   1      3     11       -9.17      0.96    270.99           RANKING
   1      4     12       -9.11      0.98    270.84           RANKING
   1      5      5       -9.06      1.03    270.83           RANKING
   1      6      1       -8.84      1.67    270.88           RANKING
   1      7      3       -8.36      1.09    270.66           RANKING
   1      8     20       -7.87      1.71    270.48           RANKING
   1      9     14       -7.83      1.74    270.42           RANKING
   2      1      2       -9.04      0.00    270.73           RANKING
   2      2      9       -9.01      0.22    270.71           RANKING
   2      3      6       -8.97      0.46    270.71           RANKING
   2      4     15       -8.88      0.58    270.73           RANKING
   3      1     10       -8.74      0.00    270.57           RANKING
   3      2      7       -8.38      1.54    270.38           RANKING
   3      3      8       -8.34      1.62    270.94           RANKING
   4      1      4       -8.35      0.00    271.03           RANKING
   4      2     17       -8.33      1.39    270.79           RANKING
   4      3     16       -8.19      0.39    270.97           RANKING
   4      4     18       -8.08      1.66    270.53           RANKING

Run time 1.148 sec
Idle time 0.000 sec
