AutoDock-GPU version: v1.6

**********************************************************
**    AutoDock-GPU AUTODOCKTOOLS-COMPATIBLE DLG FILE    **
**********************************************************


    DOCKING PARAMETERS
    ________________________


Ligand file:                               /home/a/REINVENT4/ReinventStudies/pleaseWork/justmol2mol_4_Compounds_ontop/graph-dock-amy28i/graph-DockGPU/node-autodockgpu/inputs/AZTNIIZDLMZSSY-NYPYPIECNA-N.pdbqt
Grid fld file:                             /home/a/REINVENT4/ReinventStudies/mols/Rad51/maps/rad51_receptor.maps.fld

Random seed:                               42
Number of runs:                            20
Number of energy evaluations:              1259779
Number of generations:                     42000
Size of population:                        150
Rate of crossover:                         80.000000%
Tournament selection probability limit:    60.000000%
Rate of mutation:                          2.000000%
Maximal allowed delta movement:            +/- 6.000000A
Maximal allowed delta angle:               +/- 90.000000

Rate of local search:                      100.000000%
Maximal number of local search iterations: 300
Rho lower bound:                           0.010000
Spread of local search delta movement:     2.000000A
Spread of local search delta angle:        74.999999
Limit of consecutive successes/failures:   4

Handle symmetry during clustering:         YES
RMSD tolerance:                            2.000000A

Program call in command line was:          /home/a/REINVENT4/ReinventStudies/adgpu-v1.6_linux_x64_cuda12_128wi --filelist batch.txt --heuristics 1 --nrun 20 --psize 150 --lsit 300 --seed 42 --heurmax 12000000 


    GRID PARAMETERS
    ________________________


Receptor name:                             rad51_receptor
Number of grid points (x, y, z):           53, 53, 53
Grid center (x, y, z):                     139.950000, 75.640000, 221.970000A
Grid size (x, y, z):                       19.500000, 19.500000, 19.500000A
Grid spacing:                              0.375000A


    LIGAND PARAMETERS
    ________________________


Ligand name:                               /home/a/REINVENT4/ReinventStudies/pleaseWork/justmol2mol_4_Compounds_ontop/graph-dock-amy28i/graph-DockGPU/node-autodockgpu/inputs/AZTNIIZDLMZSSY-NYPYPIECNA-N
Number of atoms:                           35
Number of rotatable bonds:                 7
Number of atom types:                      7


    DUMMY DATA (only for ADT-compatibility)
    ________________________


DPF> outlev 1
DPF> ga_run 20
DPF> fld /home/a/REINVENT4/ReinventStudies/mols/Rad51/maps/rad51_receptor.maps.fld
DPF> move /home/a/REINVENT4/ReinventStudies/pleaseWork/justmol2mol_4_Compounds_ontop/graph-dock-amy28i/graph-DockGPU/node-autodockgpu/inputs/AZTNIIZDLMZSSY-NYPYPIECNA-N.pdbqt


    COUNTER STATES
    ________________________


Number of energy evaluations performed:    741735
Number of generations used:                50


    INPUT LIGAND PDBQT FILE:
    ________________________


INPUT-LIGAND-PDBQT: REMARK SMILES C[C@H]1CCN(C(=O)CNC(=O)c2ccc3cc(F)ccc3n2)[C@H]1C(=O)NCc1ccccc1
INPUT-LIGAND-PDBQT: REMARK SMILES IDX 6 1 7 2 5 3 2 4 3 5 23 6 4 7 1 8 24 9 26 10 25 11 27 13
INPUT-LIGAND-PDBQT: REMARK SMILES IDX 28 14 29 15 33 16 30 17 32 18 31 19 8 20 9 21 10 22 11 24
INPUT-LIGAND-PDBQT: REMARK SMILES IDX 12 25 13 26 22 27 14 28 21 29 15 30 20 31 16 32 19 33 17 34
INPUT-LIGAND-PDBQT: REMARK SMILES IDX 18 35
INPUT-LIGAND-PDBQT: REMARK H PARENT 26 12 9 23
INPUT-LIGAND-PDBQT: ROOT
INPUT-LIGAND-PDBQT: ATOM      1  C   UNL     1       0.697  -1.323   0.900  1.00  0.00     0.242 C 
INPUT-LIGAND-PDBQT: ATOM      2  O   UNL     1       1.606  -2.203   0.839  1.00  0.00    -0.273 OA
INPUT-LIGAND-PDBQT: ENDROOT
INPUT-LIGAND-PDBQT: BRANCH   1   3
INPUT-LIGAND-PDBQT: ATOM      3  N   UNL     1      -0.616  -1.758   1.149  1.00  0.00    -0.329 N 
INPUT-LIGAND-PDBQT: ATOM      4  C   UNL     1      -2.819  -1.716   2.074  1.00  0.00     0.020 C 
INPUT-LIGAND-PDBQT: ATOM      5  C   UNL     1      -1.980  -2.869   2.590  1.00  0.00     0.027 C 
INPUT-LIGAND-PDBQT: ATOM      6  C   UNL     1      -1.820  -0.930   1.263  1.00  0.00     0.177 C 
INPUT-LIGAND-PDBQT: ATOM      7  C   UNL     1      -1.104  -3.121   1.355  1.00  0.00     0.121 C 
INPUT-LIGAND-PDBQT: ATOM      8  C   UNL     1      -3.906  -2.342   1.224  1.00  0.00     0.010 C 
INPUT-LIGAND-PDBQT: BRANCH   6   9
INPUT-LIGAND-PDBQT: ATOM      9  C   UNL     1      -2.292  -0.690  -0.125  1.00  0.00     0.243 C 
INPUT-LIGAND-PDBQT: ATOM     10  N   UNL     1      -3.482   0.115  -0.251  1.00  0.00    -0.350 N 
INPUT-LIGAND-PDBQT: ATOM     11  O   UNL     1      -1.710  -1.147  -1.144  1.00  0.00    -0.273 OA
INPUT-LIGAND-PDBQT: ATOM     12  H   UNL     1      -3.963   0.494   0.609  1.00  0.00     0.163 HD
INPUT-LIGAND-PDBQT: BRANCH  10  13
INPUT-LIGAND-PDBQT: ATOM     13  C   UNL     1      -4.055   0.429  -1.547  1.00  0.00     0.151 C 
INPUT-LIGAND-PDBQT: BRANCH  13  14
INPUT-LIGAND-PDBQT: ATOM     14  C   UNL     1      -5.277   1.269  -1.440  1.00  0.00    -0.029 A 
INPUT-LIGAND-PDBQT: ATOM     15  C   UNL     1      -5.065   2.651  -1.457  1.00  0.00     0.005 A 
INPUT-LIGAND-PDBQT: ATOM     16  C   UNL     1      -6.548   0.744  -1.328  1.00  0.00     0.005 A 
INPUT-LIGAND-PDBQT: ATOM     17  C   UNL     1      -6.136   3.538  -1.362  1.00  0.00     0.000 A 
INPUT-LIGAND-PDBQT: ATOM     18  C   UNL     1      -7.607   1.614  -1.235  1.00  0.00     0.000 A 
INPUT-LIGAND-PDBQT: ATOM     19  C   UNL     1      -7.400   2.981  -1.252  1.00  0.00     0.000 A 
INPUT-LIGAND-PDBQT: ENDBRANCH  13  14
INPUT-LIGAND-PDBQT: ENDBRANCH  10  13
INPUT-LIGAND-PDBQT: ENDBRANCH   6   9
INPUT-LIGAND-PDBQT: ENDBRANCH   1   3
INPUT-LIGAND-PDBQT: BRANCH   1  20
INPUT-LIGAND-PDBQT: ATOM     20  C   UNL     1       0.959   0.120   0.723  1.00  0.00     0.216 C 
INPUT-LIGAND-PDBQT: BRANCH  20  21
INPUT-LIGAND-PDBQT: ATOM     21  N   UNL     1       2.377   0.310   0.481  1.00  0.00    -0.342 N 
INPUT-LIGAND-PDBQT: ATOM     22  C   UNL     1       3.045  -0.281  -0.629  1.00  0.00     0.270 C 
INPUT-LIGAND-PDBQT: ATOM     23  H   UNL     1       2.953   0.906   1.143  1.00  0.00     0.164 HD
INPUT-LIGAND-PDBQT: ATOM     24  O   UNL     1       2.433  -1.002  -1.461  1.00  0.00    -0.268 OA
INPUT-LIGAND-PDBQT: BRANCH  22  25
INPUT-LIGAND-PDBQT: ATOM     25  C   UNL     1       4.489  -0.027  -0.787  1.00  0.00     0.128 A 
INPUT-LIGAND-PDBQT: ATOM     26  C   UNL     1       5.164  -0.586  -1.854  1.00  0.00     0.035 A 
INPUT-LIGAND-PDBQT: ATOM     27  N   UNL     1       5.161   0.742   0.093  1.00  0.00    -0.243 NA
INPUT-LIGAND-PDBQT: ATOM     28  C   UNL     1       6.523  -0.322  -1.966  1.00  0.00     0.013 A 
INPUT-LIGAND-PDBQT: ATOM     29  C   UNL     1       6.477   1.000  -0.012  1.00  0.00     0.071 A 
INPUT-LIGAND-PDBQT: ATOM     30  C   UNL     1       7.203   0.467  -1.060  1.00  0.00     0.003 A 
INPUT-LIGAND-PDBQT: ATOM     31  C   UNL     1       7.096   1.809   0.947  1.00  0.00     0.032 A 
INPUT-LIGAND-PDBQT: ATOM     32  C   UNL     1       8.554   0.737  -1.159  1.00  0.00     0.049 A 
INPUT-LIGAND-PDBQT: ATOM     33  C   UNL     1       8.450   2.085   0.853  1.00  0.00     0.041 A 
INPUT-LIGAND-PDBQT: ATOM     34  C   UNL     1       9.166   1.535  -0.215  1.00  0.00     0.123 A 
INPUT-LIGAND-PDBQT: ATOM     35  F   UNL     1      10.494   1.807  -0.304  1.00  0.00    -0.207 F 
INPUT-LIGAND-PDBQT: ENDBRANCH  22  25
INPUT-LIGAND-PDBQT: ENDBRANCH  20  21
INPUT-LIGAND-PDBQT: ENDBRANCH   1  20
INPUT-LIGAND-PDBQT: TORSDOF 7


    FINAL DOCKED STATE:
    ________________________


Run:   1 / 20
Time taken for this run:   0.041s

DOCKED: MODEL        1
DOCKED: USER    Run = 1
DOCKED: USER
DOCKED: USER    Estimated Free Energy of Binding    =  -8.91 kcal/mol  [=(1)+(2)+(3)-(4)]
DOCKED: USER
DOCKED: USER    (1) Final Intermolecular Energy     = -11.00 kcal/mol
DOCKED: USER        vdW + Hbond + desolv Energy     = -10.92 kcal/mol
DOCKED: USER        Electrostatic Energy            =  -0.08 kcal/mol
DOCKED: USER        Moving Ligand-Fixed Receptor    = -11.00 kcal/mol
DOCKED: USER        Moving Ligand-Moving Receptor   =  +0.00 kcal/mol
DOCKED: USER    (2) Final Total Internal Energy     =  -2.35 kcal/mol
DOCKED: USER    (3) Torsional Free Energy           =  +2.09 kcal/mol
DOCKED: USER    (4) Unbound System's Energy         =  -2.35 kcal/mol
DOCKED: USER
DOCKED: USER
DOCKED: REMARK SMILES C[C@H]1CCN(C(=O)CNC(=O)c2ccc3cc(F)ccc3n2)[C@H]1C(=O)NCc1ccccc1
DOCKED: REMARK SMILES IDX 6 1 7 2 5 3 2 4 3 5 23 6 4 7 1 8 24 9 26 10 25 11 27 13
DOCKED: REMARK SMILES IDX 28 14 29 15 33 16 30 17 32 18 31 19 8 20 9 21 10 22 11 24
DOCKED: REMARK SMILES IDX 12 25 13 26 22 27 14 28 21 29 15 30 20 31 16 32 19 33 17 34
DOCKED: REMARK SMILES IDX 18 35
DOCKED: REMARK H PARENT 26 12 9 23
DOCKED: USER                              x       y       z     vdW  Elec       q    Type
DOCKED: USER                           _______ _______ _______ _____ _____    ______ ____
DOCKED: ROOT
DOCKED: ATOM      1  C   UNL     1     141.368  74.437 221.060 -0.19 -0.05    +0.242 C  
DOCKED: ATOM      2  O   UNL     1     140.866  74.756 222.178 -0.58 -0.00    -0.273 OA 
DOCKED: ENDROOT
DOCKED: BRANCH   1   3
DOCKED: ATOM      3  N   UNL     1     141.818  75.476 220.227 -0.11 +0.13    -0.329 N  
DOCKED: ATOM      4  C   UNL     1     141.972  76.817 218.255 -0.20 -0.01    +0.020 C  
DOCKED: ATOM      5  C   UNL     1     143.245  76.049 218.552 -0.30 -0.02    +0.027 C  
DOCKED: ATOM      6  C   UNL     1     141.021  76.273 219.291 -0.10 -0.07    +0.177 C  
DOCKED: ATOM      7  C   UNL     1     143.171  76.013 220.085 -0.15 -0.08    +0.121 C  
DOCKED: ATOM      8  C   UNL     1     142.308  78.278 218.473 -0.30 -0.01    +0.010 C  
DOCKED: BRANCH   6   9
DOCKED: ATOM      9  C   UNL     1     140.393  77.353 220.095 -0.09 -0.09    +0.243 C  
DOCKED: ATOM     10  N   UNL     1     140.717  77.355 221.501 -0.13 +0.13    -0.350 N  
DOCKED: ATOM     11  O   UNL     1     139.626  78.225 219.607 -0.03 +0.08    -0.273 OA 
DOCKED: ATOM     12  H   UNL     1     141.361  76.621 221.901 -0.18 -0.08    +0.163 HD 
DOCKED: BRANCH  10  13
DOCKED: ATOM     13  C   UNL     1     140.175  78.353 222.405 -0.30 -0.04    +0.151 C  
DOCKED: BRANCH  13  14
DOCKED: ATOM     14  C   UNL     1     141.209  79.306 222.886 -0.48 +0.01    -0.029 A  
DOCKED: ATOM     15  C   UNL     1     140.740  80.359 223.678 -0.47 -0.00    +0.005 A  
DOCKED: ATOM     16  C   UNL     1     142.549  79.184 222.583 -0.50 -0.00    +0.005 A  
DOCKED: ATOM     17  C   UNL     1     141.618  81.315 224.185 -0.38 -0.00    +0.000 A  
DOCKED: ATOM     18  C   UNL     1     143.419  80.124 223.081 -0.59 -0.00    +0.000 A  
DOCKED: ATOM     19  C   UNL     1     142.958  81.165 223.865 -0.55 -0.00    +0.000 A  
DOCKED: ENDBRANCH  13  14
DOCKED: ENDBRANCH  10  13
DOCKED: ENDBRANCH   6   9
DOCKED: ENDBRANCH   1   3
DOCKED: BRANCH   1  20
DOCKED: ATOM     20  C   UNL     1     141.497  73.038 220.604 -0.15 -0.03    +0.216 C  
DOCKED: BRANCH  20  21
DOCKED: ATOM     21  N   UNL     1     141.327  72.158 221.746 -0.11 +0.03    -0.342 N  
DOCKED: ATOM     22  C   UNL     1     140.097  72.066 222.457 -0.21 -0.04    +0.270 C  
DOCKED: ATOM     23  H   UNL     1     142.135  71.556 222.077 +0.07 -0.01    +0.164 HD 
DOCKED: ATOM     24  O   UNL     1     139.090  72.747 222.128 -0.20 +0.06    -0.268 OA 
DOCKED: BRANCH  22  25
DOCKED: ATOM     25  C   UNL     1     140.025  71.142 223.604 -0.32 -0.02    +0.128 A  
DOCKED: ATOM     26  C   UNL     1     139.413  69.914 223.450 -0.25 -0.01    +0.035 A  
DOCKED: ATOM     27  N   UNL     1     140.548  71.476 224.801 -0.31 +0.04    -0.243 NA 
DOCKED: ATOM     28  C   UNL     1     139.367  69.073 224.555 -0.34 -0.00    +0.013 A  
DOCKED: ATOM     29  C   UNL     1     140.505  70.665 225.874 -0.52 -0.01    +0.071 A  
DOCKED: ATOM     30  C   UNL     1     139.905  69.424 225.777 -0.47 -0.00    +0.003 A  
DOCKED: ATOM     31  C   UNL     1     141.073  71.091 227.079 -0.67 -0.01    +0.032 A  
DOCKED: ATOM     32  C   UNL     1     139.866  68.598 226.883 -0.57 -0.01    +0.049 A  
DOCKED: ATOM     33  C   UNL     1     141.038  70.268 228.192 -0.55 -0.01    +0.041 A  
DOCKED: ATOM     34  C   UNL     1     140.425  69.017 228.073 -0.54 -0.02    +0.123 A  
DOCKED: ATOM     35  F   UNL     1     140.392  68.212 229.167 -0.15 +0.05    -0.207 F  
DOCKED: ENDBRANCH  22  25
DOCKED: ENDBRANCH  20  21
DOCKED: ENDBRANCH   1  20
DOCKED: TORSDOF 7
DOCKED: TER
DOCKED: ENDMDL
________________________________________________________________________________


    FINAL DOCKED STATE:
    ________________________


Run:   2 / 20
Time taken for this run:   0.041s

DOCKED: MODEL        2
DOCKED: USER    Run = 2
DOCKED: USER
DOCKED: USER    Estimated Free Energy of Binding    =  -8.83 kcal/mol  [=(1)+(2)+(3)-(4)]
DOCKED: USER
DOCKED: USER    (1) Final Intermolecular Energy     = -10.92 kcal/mol
DOCKED: USER        vdW + Hbond + desolv Energy     = -10.86 kcal/mol
DOCKED: USER        Electrostatic Energy            =  -0.06 kcal/mol
DOCKED: USER        Moving Ligand-Fixed Receptor    = -10.92 kcal/mol
DOCKED: USER        Moving Ligand-Moving Receptor   =  +0.00 kcal/mol
DOCKED: USER    (2) Final Total Internal Energy     =  -2.69 kcal/mol
DOCKED: USER    (3) Torsional Free Energy           =  +2.09 kcal/mol
DOCKED: USER    (4) Unbound System's Energy         =  -2.69 kcal/mol
DOCKED: USER
DOCKED: USER
DOCKED: REMARK SMILES C[C@H]1CCN(C(=O)CNC(=O)c2ccc3cc(F)ccc3n2)[C@H]1C(=O)NCc1ccccc1
DOCKED: REMARK SMILES IDX 6 1 7 2 5 3 2 4 3 5 23 6 4 7 1 8 24 9 26 10 25 11 27 13
DOCKED: REMARK SMILES IDX 28 14 29 15 33 16 30 17 32 18 31 19 8 20 9 21 10 22 11 24
DOCKED: REMARK SMILES IDX 12 25 13 26 22 27 14 28 21 29 15 30 20 31 16 32 19 33 17 34
DOCKED: REMARK SMILES IDX 18 35
DOCKED: REMARK H PARENT 26 12 9 23
DOCKED: USER                              x       y       z     vdW  Elec       q    Type
DOCKED: USER                           _______ _______ _______ _____ _____    ______ ____
DOCKED: ROOT
DOCKED: ATOM      1  C   UNL     1     140.334  74.836 221.474 -0.22 -0.04    +0.242 C  
DOCKED: ATOM      2  O   UNL     1     140.341  75.741 222.360 -0.49 +0.04    -0.273 OA 
DOCKED: ENDROOT
DOCKED: BRANCH   1   3
DOCKED: ATOM      3  N   UNL     1     141.412  74.796 220.573 -0.12 +0.09    -0.329 N  
DOCKED: ATOM      4  C   UNL     1     142.563  74.372 218.522 -0.13 -0.01    +0.020 C  
DOCKED: ATOM      5  C   UNL     1     143.050  73.505 219.667 -0.24 -0.01    +0.027 C  
DOCKED: ATOM      6  C   UNL     1     141.380  75.078 219.135 -0.08 -0.06    +0.177 C  
DOCKED: ATOM      7  C   UNL     1     142.813  74.469 220.838 -0.17 -0.04    +0.121 C  
DOCKED: ATOM      8  C   UNL     1     143.706  75.312 218.198 -0.19 -0.01    +0.010 C  
DOCKED: BRANCH   6   9
DOCKED: ATOM      9  C   UNL     1     141.477  76.554 218.999 -0.10 -0.10    +0.243 C  
DOCKED: ATOM     10  N   UNL     1     141.662  77.285 220.228 -0.11 +0.19    -0.350 N  
DOCKED: ATOM     11  O   UNL     1     141.407  77.154 217.894 -0.06 +0.13    -0.273 OA 
DOCKED: ATOM     12  H   UNL     1     141.720  76.774 221.149 -0.19 -0.10    +0.163 HD 
DOCKED: BRANCH  10  13
DOCKED: ATOM     13  C   UNL     1     141.773  78.732 220.243 -0.22 -0.09    +0.151 C  
DOCKED: BRANCH  13  14
DOCKED: ATOM     14  C   UNL     1     141.944  79.275 221.617 -0.40 +0.02    -0.029 A  
DOCKED: ATOM     15  C   UNL     1     141.578  78.416 222.657 -0.46 -0.00    +0.005 A  
DOCKED: ATOM     16  C   UNL     1     142.429  80.541 221.875 -0.46 -0.00    +0.005 A  
DOCKED: ATOM     17  C   UNL     1     141.694  78.816 223.987 -0.58 -0.00    +0.000 A  
DOCKED: ATOM     18  C   UNL     1     142.547  80.940 223.184 -0.61 -0.00    +0.000 A  
DOCKED: ATOM     19  C   UNL     1     142.185  80.092 224.215 -0.49 -0.00    +0.000 A  
DOCKED: ENDBRANCH  13  14
DOCKED: ENDBRANCH  10  13
DOCKED: ENDBRANCH   6   9
DOCKED: ENDBRANCH   1   3
DOCKED: BRANCH   1  20
DOCKED: ATOM     20  C   UNL     1     139.253  73.836 221.352 -0.16 -0.04    +0.216 C  
DOCKED: BRANCH  20  21
DOCKED: ATOM     21  N   UNL     1     139.334  72.923 222.477 -0.09 +0.08    -0.342 N  
DOCKED: ATOM     22  C   UNL     1     139.646  71.543 222.315 -0.17 -0.05    +0.270 C  
DOCKED: ATOM     23  H   UNL     1     139.158  73.276 223.461 -0.42 -0.10    +0.164 HD 
DOCKED: ATOM     24  O   UNL     1     139.868  71.044 221.180 -0.08 +0.04    -0.268 OA 
DOCKED: BRANCH  22  25
DOCKED: ATOM     25  C   UNL     1     139.704  70.697 223.522 -0.27 -0.02    +0.128 A  
DOCKED: ATOM     26  C   UNL     1     139.176  69.422 223.484 -0.25 -0.01    +0.035 A  
DOCKED: ATOM     27  N   UNL     1     140.264  71.149 224.662 -0.30 +0.04    -0.243 NA 
DOCKED: ATOM     28  C   UNL     1     139.252  68.659 224.642 -0.36 -0.00    +0.013 A  
DOCKED: ATOM     29  C   UNL     1     140.339  70.413 225.785 -0.48 -0.01    +0.071 A  
DOCKED: ATOM     30  C   UNL     1     139.827  69.129 225.805 -0.48 -0.00    +0.003 A  
DOCKED: ATOM     31  C   UNL     1     140.937  70.960 226.926 -0.64 -0.01    +0.032 A  
DOCKED: ATOM     32  C   UNL     1     139.908  68.382 226.963 -0.59 -0.01    +0.049 A  
DOCKED: ATOM     33  C   UNL     1     141.023  70.216 228.090 -0.57 -0.01    +0.041 A  
DOCKED: ATOM     34  C   UNL     1     140.498  68.919 228.088 -0.54 -0.02    +0.123 A  
DOCKED: ATOM     35  F   UNL     1     140.583  68.192 229.232 -0.14 +0.05    -0.207 F  
DOCKED: ENDBRANCH  22  25
DOCKED: ENDBRANCH  20  21
DOCKED: ENDBRANCH   1  20
DOCKED: TORSDOF 7
DOCKED: TER
DOCKED: ENDMDL
________________________________________________________________________________


    FINAL DOCKED STATE:
    ________________________


Run:   3 / 20
Time taken for this run:   0.041s

DOCKED: MODEL        3
DOCKED: USER    Run = 3
DOCKED: USER
DOCKED: USER    Estimated Free Energy of Binding    =  -8.58 kcal/mol  [=(1)+(2)+(3)-(4)]
DOCKED: USER
DOCKED: USER    (1) Final Intermolecular Energy     = -10.67 kcal/mol
DOCKED: USER        vdW + Hbond + desolv Energy     = -10.65 kcal/mol
DOCKED: USER        Electrostatic Energy            =  -0.02 kcal/mol
DOCKED: USER        Moving Ligand-Fixed Receptor    = -10.67 kcal/mol
DOCKED: USER        Moving Ligand-Moving Receptor   =  +0.00 kcal/mol
DOCKED: USER    (2) Final Total Internal Energy     =  -2.85 kcal/mol
DOCKED: USER    (3) Torsional Free Energy           =  +2.09 kcal/mol
DOCKED: USER    (4) Unbound System's Energy         =  -2.85 kcal/mol
DOCKED: USER
DOCKED: USER
DOCKED: REMARK SMILES C[C@H]1CCN(C(=O)CNC(=O)c2ccc3cc(F)ccc3n2)[C@H]1C(=O)NCc1ccccc1
DOCKED: REMARK SMILES IDX 6 1 7 2 5 3 2 4 3 5 23 6 4 7 1 8 24 9 26 10 25 11 27 13
DOCKED: REMARK SMILES IDX 28 14 29 15 33 16 30 17 32 18 31 19 8 20 9 21 10 22 11 24
DOCKED: REMARK SMILES IDX 12 25 13 26 22 27 14 28 21 29 15 30 20 31 16 32 19 33 17 34
DOCKED: REMARK SMILES IDX 18 35
DOCKED: REMARK H PARENT 26 12 9 23
DOCKED: USER                              x       y       z     vdW  Elec       q    Type
DOCKED: USER                           _______ _______ _______ _____ _____    ______ ____
DOCKED: ROOT
DOCKED: ATOM      1  C   UNL     1     140.787  74.352 221.286 -0.21 -0.04    +0.242 C  
DOCKED: ATOM      2  O   UNL     1     140.692  75.122 222.288 -0.56 +0.01    -0.273 OA 
DOCKED: ENDROOT
DOCKED: BRANCH   1   3
DOCKED: ATOM      3  N   UNL     1     141.767  74.651 220.325 -0.11 +0.10    -0.329 N  
DOCKED: ATOM      4  C   UNL     1     142.806  74.709 218.174 -0.15 -0.01    +0.020 C  
DOCKED: ATOM      5  C   UNL     1     143.569  73.868 219.180 -0.25 -0.01    +0.027 C  
DOCKED: ATOM      6  C   UNL     1     141.552  75.058 218.933 -0.08 -0.06    +0.177 C  
DOCKED: ATOM      7  C   UNL     1     143.222  74.631 220.466 -0.28 -0.05    +0.121 C  
DOCKED: ATOM      8  C   UNL     1     143.681  75.914 217.893 -0.19 -0.01    +0.010 C  
DOCKED: BRANCH   6   9
DOCKED: ATOM      9  C   UNL     1     141.306  76.523 218.962 -0.09 -0.10    +0.243 C  
DOCKED: ATOM     10  N   UNL     1     141.516  77.168 220.235 -0.10 +0.18    -0.350 N  
DOCKED: ATOM     11  O   UNL     1     140.938  77.185 217.955 -0.04 +0.11    -0.273 OA 
DOCKED: ATOM     12  H   UNL     1     141.825  76.606 221.073 -0.21 -0.10    +0.163 HD 
DOCKED: BRANCH  10  13
DOCKED: ATOM     13  C   UNL     1     141.313  78.595 220.408 -0.22 -0.07    +0.151 C  
DOCKED: BRANCH  13  14
DOCKED: ATOM     14  C   UNL     1     141.670  79.058 221.775 -0.41 +0.01    -0.029 A  
DOCKED: ATOM     15  C   UNL     1     142.254  80.326 221.851 -0.48 -0.00    +0.005 A  
DOCKED: ATOM     16  C   UNL     1     141.453  78.304 222.910 -0.52 -0.00    +0.005 A  
DOCKED: ATOM     17  C   UNL     1     142.631  80.865 223.080 -0.61 -0.00    +0.000 A  
DOCKED: ATOM     18  C   UNL     1     141.823  78.831 224.123 -0.58 -0.00    +0.000 A  
DOCKED: ATOM     19  C   UNL     1     142.399  80.085 224.201 -0.50 -0.00    +0.000 A  
DOCKED: ENDBRANCH  13  14
DOCKED: ENDBRANCH  10  13
DOCKED: ENDBRANCH   6   9
DOCKED: ENDBRANCH   1   3
DOCKED: BRANCH   1  20
DOCKED: ATOM     20  C   UNL     1     139.921  73.171 221.093 -0.15 -0.04    +0.216 C  
DOCKED: BRANCH  20  21
DOCKED: ATOM     21  N   UNL     1     139.979  72.350 222.288 -0.16 +0.05    -0.342 N  
DOCKED: ATOM     22  C   UNL     1     139.501  71.009 222.313 -0.14 -0.05    +0.270 C  
DOCKED: ATOM     23  H   UNL     1     140.388  72.745 223.183 -0.01 -0.00    +0.164 HD 
DOCKED: ATOM     24  O   UNL     1     139.002  70.466 221.292 -0.06 +0.05    -0.268 OA 
DOCKED: BRANCH  22  25
DOCKED: ATOM     25  C   UNL     1     139.605  70.257 223.578 -0.24 -0.02    +0.128 A  
DOCKED: ATOM     26  C   UNL     1     139.086  68.980 223.653 -0.26 -0.01    +0.035 A  
DOCKED: ATOM     27  N   UNL     1     140.199  70.797 224.661 -0.27 +0.04    -0.243 NA 
DOCKED: ATOM     28  C   UNL     1     139.205  68.307 224.862 -0.41 -0.00    +0.013 A  
DOCKED: ATOM     29  C   UNL     1     140.316  70.148 225.834 -0.46 -0.01    +0.071 A  
DOCKED: ATOM     30  C   UNL     1     139.815  68.867 225.967 -0.51 -0.00    +0.003 A  
DOCKED: ATOM     31  C   UNL     1     140.947  70.784 226.909 -0.62 -0.01    +0.032 A  
DOCKED: ATOM     32  C   UNL     1     139.939  68.210 227.175 -0.61 -0.01    +0.049 A  
DOCKED: ATOM     33  C   UNL     1     141.076  70.130 228.123 -0.55 -0.01    +0.041 A  
DOCKED: ATOM     34  C   UNL     1     140.562  68.834 228.236 -0.54 -0.03    +0.123 A  
DOCKED: ATOM     35  F   UNL     1     140.689  68.196 229.428 -0.07 +0.05    -0.207 F  
DOCKED: ENDBRANCH  22  25
DOCKED: ENDBRANCH  20  21
DOCKED: ENDBRANCH   1  20
DOCKED: TORSDOF 7
DOCKED: TER
DOCKED: ENDMDL
________________________________________________________________________________


    FINAL DOCKED STATE:
    ________________________


Run:   4 / 20
Time taken for this run:   0.041s

DOCKED: MODEL        4
DOCKED: USER    Run = 4
DOCKED: USER
DOCKED: USER    Estimated Free Energy of Binding    =  -8.01 kcal/mol  [=(1)+(2)+(3)-(4)]
DOCKED: USER
DOCKED: USER    (1) Final Intermolecular Energy     = -10.10 kcal/mol
DOCKED: USER        vdW + Hbond + desolv Energy     = -10.12 kcal/mol
DOCKED: USER        Electrostatic Energy            =  +0.02 kcal/mol
DOCKED: USER        Moving Ligand-Fixed Receptor    = -10.10 kcal/mol
DOCKED: USER        Moving Ligand-Moving Receptor   =  +0.00 kcal/mol
DOCKED: USER    (2) Final Total Internal Energy     =  -2.88 kcal/mol
DOCKED: USER    (3) Torsional Free Energy           =  +2.09 kcal/mol
DOCKED: USER    (4) Unbound System's Energy         =  -2.88 kcal/mol
DOCKED: USER
DOCKED: USER
DOCKED: REMARK SMILES C[C@H]1CCN(C(=O)CNC(=O)c2ccc3cc(F)ccc3n2)[C@H]1C(=O)NCc1ccccc1
DOCKED: REMARK SMILES IDX 6 1 7 2 5 3 2 4 3 5 23 6 4 7 1 8 24 9 26 10 25 11 27 13
DOCKED: REMARK SMILES IDX 28 14 29 15 33 16 30 17 32 18 31 19 8 20 9 21 10 22 11 24
DOCKED: REMARK SMILES IDX 12 25 13 26 22 27 14 28 21 29 15 30 20 31 16 32 19 33 17 34
DOCKED: REMARK SMILES IDX 18 35
DOCKED: REMARK H PARENT 26 12 9 23
DOCKED: USER                              x       y       z     vdW  Elec       q    Type
DOCKED: USER                           _______ _______ _______ _____ _____    ______ ____
DOCKED: ROOT
DOCKED: ATOM      1  C   UNL     1     139.065  74.914 220.734 -0.10 -0.05    +0.242 C  
DOCKED: ATOM      2  O   UNL     1     138.652  76.111 220.770 -0.06 +0.06    -0.273 OA 
DOCKED: ENDROOT
DOCKED: BRANCH   1   3
DOCKED: ATOM      3  N   UNL     1     140.447  74.705 220.589 -0.08 +0.07    -0.329 N  
DOCKED: ATOM      4  C   UNL     1     142.478  74.009 219.538 -0.20 -0.01    +0.020 C  
DOCKED: ATOM      5  C   UNL     1     142.146  73.204 220.780 -0.26 -0.00    +0.027 C  
DOCKED: ATOM      6  C   UNL     1     141.247  74.863 219.371 -0.08 -0.05    +0.177 C  
DOCKED: ATOM      7  C   UNL     1     141.419  74.282 221.596 -0.09 -0.02    +0.121 C  
DOCKED: ATOM      8  C   UNL     1     143.713  74.816 219.884 -0.40 -0.00    +0.010 C  
DOCKED: BRANCH   6   9
DOCKED: ATOM      9  C   UNL     1     141.578  76.308 219.277 -0.12 -0.10    +0.243 C  
DOCKED: ATOM     10  N   UNL     1     141.029  77.145 220.315 -0.07 +0.15    -0.350 N  
DOCKED: ATOM     11  O   UNL     1     142.291  76.798 218.361 -0.14 +0.15    -0.273 OA 
DOCKED: ATOM     12  H   UNL     1     140.433  76.726 221.078 +0.06 -0.05    +0.163 HD 
DOCKED: BRANCH  10  13
DOCKED: ATOM     13  C   UNL     1     141.271  78.576 220.347 -0.21 -0.07    +0.151 C  
DOCKED: BRANCH  13  14
DOCKED: ATOM     14  C   UNL     1     141.631  79.061 221.706 -0.40 +0.01    -0.029 A  
DOCKED: ATOM     15  C   UNL     1     142.243  80.317 221.758 -0.47 -0.00    +0.005 A  
DOCKED: ATOM     16  C   UNL     1     141.391  78.337 222.856 -0.52 -0.00    +0.005 A  
DOCKED: ATOM     17  C   UNL     1     142.626  80.874 222.977 -0.59 -0.00    +0.000 A  
DOCKED: ATOM     18  C   UNL     1     141.765  78.882 224.060 -0.59 -0.00    +0.000 A  
DOCKED: ATOM     19  C   UNL     1     142.370  80.124 224.114 -0.54 -0.00    +0.000 A  
DOCKED: ENDBRANCH  13  14
DOCKED: ENDBRANCH  10  13
DOCKED: ENDBRANCH   6   9
DOCKED: ENDBRANCH   1   3
DOCKED: BRANCH   1  20
DOCKED: ATOM     20  C   UNL     1     138.165  73.747 220.838 -0.08 -0.05    +0.216 C  
DOCKED: BRANCH  20  21
DOCKED: ATOM     21  N   UNL     1     138.530  72.980 222.015 -0.09 +0.10    -0.342 N  
DOCKED: ATOM     22  C   UNL     1     138.987  71.634 221.933 -0.12 -0.05    +0.270 C  
DOCKED: ATOM     23  H   UNL     1     138.459  73.420 222.977 -0.52 -0.10    +0.164 HD 
DOCKED: ATOM     24  O   UNL     1     139.100  71.040 220.828 -0.04 +0.05    -0.268 OA 
DOCKED: BRANCH  22  25
DOCKED: ATOM     25  C   UNL     1     139.334  70.941 223.188 -0.25 -0.03    +0.128 A  
DOCKED: ATOM     26  C   UNL     1     139.110  69.582 223.296 -0.23 -0.01    +0.035 A  
DOCKED: ATOM     27  N   UNL     1     139.864  71.611 224.230 -0.25 +0.05    -0.243 NA 
DOCKED: ATOM     28  C   UNL     1     139.450  68.968 224.495 -0.32 -0.00    +0.013 A  
DOCKED: ATOM     29  C   UNL     1     140.195  71.019 225.392 -0.48 -0.01    +0.071 A  
DOCKED: ATOM     30  C   UNL     1     139.994  69.662 225.557 -0.45 -0.00    +0.003 A  
DOCKED: ATOM     31  C   UNL     1     140.741  71.791 226.424 -0.63 -0.01    +0.032 A  
DOCKED: ATOM     32  C   UNL     1     140.335  69.064 226.754 -0.54 -0.01    +0.049 A  
DOCKED: ATOM     33  C   UNL     1     141.087  71.197 227.626 -0.70 -0.01    +0.041 A  
DOCKED: ATOM     34  C   UNL     1     140.874  69.822 227.772 -0.50 -0.02    +0.123 A  
DOCKED: ATOM     35  F   UNL     1     141.214  69.243 228.953 -0.07 +0.04    -0.207 F  
DOCKED: ENDBRANCH  22  25
DOCKED: ENDBRANCH  20  21
DOCKED: ENDBRANCH   1  20
DOCKED: TORSDOF 7
DOCKED: TER
DOCKED: ENDMDL
________________________________________________________________________________


    FINAL DOCKED STATE:
    ________________________


Run:   5 / 20
Time taken for this run:   0.041s

DOCKED: MODEL        5
DOCKED: USER    Run = 5
DOCKED: USER
DOCKED: USER    Estimated Free Energy of Binding    =  -8.11 kcal/mol  [=(1)+(2)+(3)-(4)]
DOCKED: USER
DOCKED: USER    (1) Final Intermolecular Energy     = -10.20 kcal/mol
DOCKED: USER        vdW + Hbond + desolv Energy     = -10.15 kcal/mol
DOCKED: USER        Electrostatic Energy            =  -0.05 kcal/mol
DOCKED: USER        Moving Ligand-Fixed Receptor    = -10.20 kcal/mol
DOCKED: USER        Moving Ligand-Moving Receptor   =  +0.00 kcal/mol
DOCKED: USER    (2) Final Total Internal Energy     =  -3.09 kcal/mol
DOCKED: USER    (3) Torsional Free Energy           =  +2.09 kcal/mol
DOCKED: USER    (4) Unbound System's Energy         =  -3.09 kcal/mol
DOCKED: USER
DOCKED: USER
DOCKED: REMARK SMILES C[C@H]1CCN(C(=O)CNC(=O)c2ccc3cc(F)ccc3n2)[C@H]1C(=O)NCc1ccccc1
DOCKED: REMARK SMILES IDX 6 1 7 2 5 3 2 4 3 5 23 6 4 7 1 8 24 9 26 10 25 11 27 13
DOCKED: REMARK SMILES IDX 28 14 29 15 33 16 30 17 32 18 31 19 8 20 9 21 10 22 11 24
DOCKED: REMARK SMILES IDX 12 25 13 26 22 27 14 28 21 29 15 30 20 31 16 32 19 33 17 34
DOCKED: REMARK SMILES IDX 18 35
DOCKED: REMARK H PARENT 26 12 9 23
DOCKED: USER                              x       y       z     vdW  Elec       q    Type
DOCKED: USER                           _______ _______ _______ _____ _____    ______ ____
DOCKED: ROOT
DOCKED: ATOM      1  C   UNL     1     141.457  75.073 220.940 -0.21 -0.07    +0.242 C  
DOCKED: ATOM      2  O   UNL     1     141.132  75.576 222.056 -0.43 +0.06    -0.273 OA 
DOCKED: ENDROOT
DOCKED: BRANCH   1   3
DOCKED: ATOM      3  N   UNL     1     142.016  75.930 219.977 -0.12 +0.15    -0.329 N  
DOCKED: ATOM      4  C   UNL     1     142.168  77.150 217.928 -0.22 -0.01    +0.020 C  
DOCKED: ATOM      5  C   UNL     1     143.207  76.052 218.043 -0.26 -0.01    +0.027 C  
DOCKED: ATOM      6  C   UNL     1     141.314  76.914 219.148 -0.13 -0.08    +0.177 C  
DOCKED: ATOM      7  C   UNL     1     143.414  76.054 219.564 -0.33 -0.08    +0.121 C  
DOCKED: ATOM      8  C   UNL     1     142.936  78.455 217.990 -0.25 -0.01    +0.010 C  
DOCKED: BRANCH   6   9
DOCKED: ATOM      9  C   UNL     1     141.178  78.137 219.980 -0.15 -0.12    +0.243 C  
DOCKED: ATOM     10  N   UNL     1     141.827  78.093 221.267 -0.14 +0.22    -0.350 N  
DOCKED: ATOM     11  O   UNL     1     140.543  79.160 219.610 -0.07 +0.11    -0.273 OA 
DOCKED: ATOM     12  H   UNL     1     142.357  77.231 221.568 -0.47 -0.17    +0.163 HD 
DOCKED: BRANCH  10  13
DOCKED: ATOM     13  C   UNL     1     141.775  79.217 222.184 -0.40 -0.07    +0.151 C  
DOCKED: BRANCH  13  14
DOCKED: ATOM     14  C   UNL     1     140.410  79.446 222.728 -0.38 +0.01    -0.029 A  
DOCKED: ATOM     15  C   UNL     1     140.228  80.646 223.422 -0.44 -0.00    +0.005 A  
DOCKED: ATOM     16  C   UNL     1     139.375  78.547 222.573 -0.32 -0.00    +0.005 A  
DOCKED: ATOM     17  C   UNL     1     138.991  80.968 223.977 -0.33 -0.00    +0.000 A  
DOCKED: ATOM     18  C   UNL     1     138.153  78.860 223.117 -0.25 -0.00    +0.000 A  
DOCKED: ATOM     19  C   UNL     1     137.970  80.047 223.804 -0.33 -0.00    +0.000 A  
DOCKED: ENDBRANCH  13  14
DOCKED: ENDBRANCH  10  13
DOCKED: ENDBRANCH   6   9
DOCKED: ENDBRANCH   1   3
DOCKED: BRANCH   1  20
DOCKED: ATOM     20  C   UNL     1     141.274  73.643 220.617 -0.16 -0.04    +0.216 C  
DOCKED: BRANCH  20  21
DOCKED: ATOM     21  N   UNL     1     140.948  72.928 221.836 -0.15 +0.02    -0.342 N  
DOCKED: ATOM     22  C   UNL     1     140.447  71.595 221.824 -0.15 -0.04    +0.270 C  
DOCKED: ATOM     23  H   UNL     1     141.080  73.397 222.778 +0.05 +0.04    +0.164 HD 
DOCKED: ATOM     24  O   UNL     1     140.262  70.968 220.748 -0.08 +0.04    -0.268 OA 
DOCKED: BRANCH  22  25
DOCKED: ATOM     25  C   UNL     1     140.145  70.955 223.118 -0.22 -0.02    +0.128 A  
DOCKED: ATOM     26  C   UNL     1     139.382  69.804 223.145 -0.21 -0.01    +0.035 A  
DOCKED: ATOM     27  N   UNL     1     140.602  71.474 224.275 -0.28 +0.03    -0.243 NA 
DOCKED: ATOM     28  C   UNL     1     139.121  69.233 224.384 -0.34 -0.00    +0.013 A  
DOCKED: ATOM     29  C   UNL     1     140.351  70.924 225.477 -0.50 -0.01    +0.071 A  
DOCKED: ATOM     30  C   UNL     1     139.594  69.772 225.564 -0.44 -0.00    +0.003 A  
DOCKED: ATOM     31  C   UNL     1     140.865  71.529 226.629 -0.68 -0.01    +0.032 A  
DOCKED: ATOM     32  C   UNL     1     139.341  69.214 226.802 -0.47 -0.01    +0.049 A  
DOCKED: ATOM     33  C   UNL     1     140.617  70.975 227.874 -0.69 -0.01    +0.041 A  
DOCKED: ATOM     34  C   UNL     1     139.847  69.809 227.939 -0.51 -0.02    +0.123 A  
DOCKED: ATOM     35  F   UNL     1     139.605  69.269 229.162 -0.08 +0.03    -0.207 F  
DOCKED: ENDBRANCH  22  25
DOCKED: ENDBRANCH  20  21
DOCKED: ENDBRANCH   1  20
DOCKED: TORSDOF 7
DOCKED: TER
DOCKED: ENDMDL
________________________________________________________________________________


    FINAL DOCKED STATE:
    ________________________


Run:   6 / 20
Time taken for this run:   0.041s

DOCKED: MODEL        6
DOCKED: USER    Run = 6
DOCKED: USER
DOCKED: USER    Estimated Free Energy of Binding    =  -8.47 kcal/mol  [=(1)+(2)+(3)-(4)]
DOCKED: USER
DOCKED: USER    (1) Final Intermolecular Energy     = -10.56 kcal/mol
DOCKED: USER        vdW + Hbond + desolv Energy     = -10.50 kcal/mol
DOCKED: USER        Electrostatic Energy            =  -0.06 kcal/mol
DOCKED: USER        Moving Ligand-Fixed Receptor    = -10.56 kcal/mol
DOCKED: USER        Moving Ligand-Moving Receptor   =  +0.00 kcal/mol
DOCKED: USER    (2) Final Total Internal Energy     =  -3.01 kcal/mol
DOCKED: USER    (3) Torsional Free Energy           =  +2.09 kcal/mol
DOCKED: USER    (4) Unbound System's Energy         =  -3.01 kcal/mol
DOCKED: USER
DOCKED: USER
DOCKED: REMARK SMILES C[C@H]1CCN(C(=O)CNC(=O)c2ccc3cc(F)ccc3n2)[C@H]1C(=O)NCc1ccccc1
DOCKED: REMARK SMILES IDX 6 1 7 2 5 3 2 4 3 5 23 6 4 7 1 8 24 9 26 10 25 11 27 13
DOCKED: REMARK SMILES IDX 28 14 29 15 33 16 30 17 32 18 31 19 8 20 9 21 10 22 11 24
DOCKED: REMARK SMILES IDX 12 25 13 26 22 27 14 28 21 29 15 30 20 31 16 32 19 33 17 34
DOCKED: REMARK SMILES IDX 18 35
DOCKED: REMARK H PARENT 26 12 9 23
DOCKED: USER                              x       y       z     vdW  Elec       q    Type
DOCKED: USER                           _______ _______ _______ _____ _____    ______ ____
DOCKED: ROOT
DOCKED: ATOM      1  C   UNL     1     140.009  75.013 221.558 -0.22 -0.04    +0.242 C  
DOCKED: ATOM      2  O   UNL     1     139.825  75.496 222.714 -0.45 +0.02    -0.273 OA 
DOCKED: ENDROOT
DOCKED: BRANCH   1   3
DOCKED: ATOM      3  N   UNL     1     140.705  75.801 220.625 -0.09 +0.10    -0.329 N  
DOCKED: ATOM      4  C   UNL     1     141.199  76.806 218.514 -0.12 -0.01    +0.020 C  
DOCKED: ATOM      5  C   UNL     1     142.246  75.801 218.953 -0.22 -0.01    +0.027 C  
DOCKED: ATOM      6  C   UNL     1     140.134  76.641 219.569 -0.06 -0.06    +0.177 C  
DOCKED: ATOM      7  C   UNL     1     142.149  75.977 220.474 -0.17 -0.06    +0.121 C  
DOCKED: ATOM      8  C   UNL     1     141.877  78.160 218.568 -0.25 -0.01    +0.010 C  
DOCKED: BRANCH   6   9
DOCKED: ATOM      9  C   UNL     1     139.779  77.932 220.211 -0.06 -0.07    +0.243 C  
DOCKED: ATOM     10  N   UNL     1     139.977  77.996 221.638 -0.08 +0.10    -0.350 N  
DOCKED: ATOM     11  O   UNL     1     139.332  78.923 219.576 -0.02 +0.08    -0.273 OA 
DOCKED: ATOM     12  H   UNL     1     140.352  77.161 222.163 +0.06 -0.05    +0.163 HD 
DOCKED: BRANCH  10  13
DOCKED: ATOM     13  C   UNL     1     139.671  79.196 222.396 -0.24 -0.03    +0.151 C  
DOCKED: BRANCH  13  14
DOCKED: ATOM     14  C   UNL     1     140.889  79.847 222.947 -0.44 +0.01    -0.029 A  
DOCKED: ATOM     15  C   UNL     1     142.105  79.261 222.582 -0.55 -0.00    +0.005 A  
DOCKED: ATOM     16  C   UNL     1     140.849  80.955 223.767 -0.43 -0.00    +0.005 A  
DOCKED: ATOM     17  C   UNL     1     143.314  79.784 223.039 -0.51 -0.00    +0.000 A  
DOCKED: ATOM     18  C   UNL     1     142.037  81.475 224.220 -0.53 -0.00    +0.000 A  
DOCKED: ATOM     19  C   UNL     1     143.241  80.898 223.860 -0.60 -0.00    +0.000 A  
DOCKED: ENDBRANCH  13  14
DOCKED: ENDBRANCH  10  13
DOCKED: ENDBRANCH   6   9
DOCKED: ENDBRANCH   1   3
DOCKED: BRANCH   1  20
DOCKED: ATOM     20  C   UNL     1     139.527  73.675 221.158 -0.15 -0.04    +0.216 C  
DOCKED: BRANCH  20  21
DOCKED: ATOM     21  N   UNL     1     139.562  72.802 222.315 -0.15 +0.07    -0.342 N  
DOCKED: ATOM     22  C   UNL     1     139.569  71.383 222.198 -0.15 -0.05    +0.270 C  
DOCKED: ATOM     23  H   UNL     1     139.584  73.216 223.292 -0.41 -0.05    +0.164 HD 
DOCKED: ATOM     24  O   UNL     1     139.545  70.813 221.074 -0.07 +0.05    -0.268 OA 
DOCKED: BRANCH  22  25
DOCKED: ATOM     25  C   UNL     1     139.606  70.582 223.436 -0.25 -0.02    +0.128 A  
DOCKED: ATOM     26  C   UNL     1     139.101  69.297 223.429 -0.24 -0.01    +0.035 A  
DOCKED: ATOM     27  N   UNL     1     140.125  71.085 224.574 -0.28 +0.04    -0.243 NA 
DOCKED: ATOM     28  C   UNL     1     139.155  68.578 224.616 -0.37 -0.00    +0.013 A  
DOCKED: ATOM     29  C   UNL     1     140.179  70.391 225.725 -0.47 -0.01    +0.071 A  
DOCKED: ATOM     30  C   UNL     1     139.688  69.100 225.777 -0.47 -0.00    +0.003 A  
DOCKED: ATOM     31  C   UNL     1     140.734  70.990 226.861 -0.65 -0.01    +0.032 A  
DOCKED: ATOM     32  C   UNL     1     139.747  68.396 226.964 -0.58 -0.01    +0.049 A  
DOCKED: ATOM     33  C   UNL     1     140.798  70.289 228.054 -0.59 -0.01    +0.041 A  
DOCKED: ATOM     34  C   UNL     1     140.295  68.984 228.085 -0.54 -0.02    +0.123 A  
DOCKED: ATOM     35  F   UNL     1     140.359  68.300 229.256 -0.12 +0.04    -0.207 F  
DOCKED: ENDBRANCH  22  25
DOCKED: ENDBRANCH  20  21
DOCKED: ENDBRANCH   1  20
DOCKED: TORSDOF 7
DOCKED: TER
DOCKED: ENDMDL
________________________________________________________________________________


    FINAL DOCKED STATE:
    ________________________


Run:   7 / 20
Time taken for this run:   0.041s

DOCKED: MODEL        7
DOCKED: USER    Run = 7
DOCKED: USER
DOCKED: USER    Estimated Free Energy of Binding    =  -9.06 kcal/mol  [=(1)+(2)+(3)-(4)]
DOCKED: USER
DOCKED: USER    (1) Final Intermolecular Energy     = -11.15 kcal/mol
DOCKED: USER        vdW + Hbond + desolv Energy     = -11.08 kcal/mol
DOCKED: USER        Electrostatic Energy            =  -0.08 kcal/mol
DOCKED: USER        Moving Ligand-Fixed Receptor    = -11.15 kcal/mol
DOCKED: USER        Moving Ligand-Moving Receptor   =  +0.00 kcal/mol
DOCKED: USER    (2) Final Total Internal Energy     =  -2.80 kcal/mol
DOCKED: USER    (3) Torsional Free Energy           =  +2.09 kcal/mol
DOCKED: USER    (4) Unbound System's Energy         =  -2.80 kcal/mol
DOCKED: USER
DOCKED: USER
DOCKED: REMARK SMILES C[C@H]1CCN(C(=O)CNC(=O)c2ccc3cc(F)ccc3n2)[C@H]1C(=O)NCc1ccccc1
DOCKED: REMARK SMILES IDX 6 1 7 2 5 3 2 4 3 5 23 6 4 7 1 8 24 9 26 10 25 11 27 13
DOCKED: REMARK SMILES IDX 28 14 29 15 33 16 30 17 32 18 31 19 8 20 9 21 10 22 11 24
DOCKED: REMARK SMILES IDX 12 25 13 26 22 27 14 28 21 29 15 30 20 31 16 32 19 33 17 34
DOCKED: REMARK SMILES IDX 18 35
DOCKED: REMARK H PARENT 26 12 9 23
DOCKED: USER                              x       y       z     vdW  Elec       q    Type
DOCKED: USER                           _______ _______ _______ _____ _____    ______ ____
DOCKED: ROOT
DOCKED: ATOM      1  C   UNL     1     142.332  74.251 220.307 -0.18 -0.07    +0.242 C  
DOCKED: ATOM      2  O   UNL     1     143.219  74.034 221.185 -0.09 +0.07    -0.273 OA 
DOCKED: ENDROOT
DOCKED: BRANCH   1   3
DOCKED: ATOM      3  N   UNL     1     142.292  75.528 219.722 -0.11 +0.14    -0.329 N  
DOCKED: ATOM      4  C   UNL     1     141.519  77.280 218.293 -0.16 -0.01    +0.020 C  
DOCKED: ATOM      5  C   UNL     1     142.907  76.789 217.933 -0.29 -0.02    +0.027 C  
DOCKED: ATOM      6  C   UNL     1     141.102  76.305 219.365 -0.11 -0.07    +0.177 C  
DOCKED: ATOM      7  C   UNL     1     143.407  76.388 219.328 -0.32 -0.08    +0.121 C  
DOCKED: ATOM      8  C   UNL     1     141.700  78.690 218.817 -0.25 -0.01    +0.010 C  
DOCKED: BRANCH   6   9
DOCKED: ATOM      9  C   UNL     1     140.667  76.994 220.608 -0.14 -0.09    +0.243 C  
DOCKED: ATOM     10  N   UNL     1     141.383  76.632 221.807 -0.06 +0.17    -0.350 N  
DOCKED: ATOM     11  O   UNL     1     139.738  77.842 220.642 -0.06 +0.08    -0.273 OA 
DOCKED: ATOM     12  H   UNL     1     142.162  75.920 221.769 -0.51 -0.12    +0.163 HD 
DOCKED: BRANCH  10  13
DOCKED: ATOM     13  C   UNL     1     141.064  77.226 223.092 -0.02 -0.05    +0.151 C  
DOCKED: BRANCH  13  14
DOCKED: ATOM     14  C   UNL     1     141.299  78.694 223.115 -0.53 +0.01    -0.029 A  
DOCKED: ATOM     15  C   UNL     1     142.580  79.108 222.736 -0.50 -0.00    +0.005 A  
DOCKED: ATOM     16  C   UNL     1     140.334  79.608 223.483 -0.47 -0.00    +0.005 A  
DOCKED: ATOM     17  C   UNL     1     142.916  80.461 222.720 -0.62 -0.00    +0.000 A  
DOCKED: ATOM     18  C   UNL     1     140.660  80.943 223.468 -0.46 -0.00    +0.000 A  
DOCKED: ATOM     19  C   UNL     1     141.926  81.355 223.093 -0.56 -0.00    +0.000 A  
DOCKED: ENDBRANCH  13  14
DOCKED: ENDBRANCH  10  13
DOCKED: ENDBRANCH   6   9
DOCKED: ENDBRANCH   1   3
DOCKED: BRANCH   1  20
DOCKED: ATOM     20  C   UNL     1     141.354  73.229 219.880 -0.09 -0.04    +0.216 C  
DOCKED: BRANCH  20  21
DOCKED: ATOM     21  N   UNL     1     141.093  72.339 220.995 -0.09 +0.05    -0.342 N  
DOCKED: ATOM     22  C   UNL     1     140.465  72.784 222.193 -0.18 -0.02    +0.270 C  
DOCKED: ATOM     23  H   UNL     1     141.373  71.317 220.935 +0.05 -0.02    +0.164 HD 
DOCKED: ATOM     24  O   UNL     1     140.103  73.980 222.344 -0.84 +0.00    -0.268 OA 
DOCKED: BRANCH  22  25
DOCKED: ATOM     25  C   UNL     1     140.244  71.800 223.269 -0.31 -0.02    +0.128 A  
DOCKED: ATOM     26  C   UNL     1     139.568  70.628 222.989 -0.26 -0.01    +0.035 A  
DOCKED: ATOM     27  N   UNL     1     140.691  72.024 224.521 -0.15 +0.03    -0.243 NA 
DOCKED: ATOM     28  C   UNL     1     139.382  69.729 224.031 -0.30 -0.00    +0.013 A  
DOCKED: ATOM     29  C   UNL     1     140.512  71.156 225.532 -0.52 -0.01    +0.071 A  
DOCKED: ATOM     30  C   UNL     1     139.843  69.967 225.310 -0.44 -0.00    +0.003 A  
DOCKED: ATOM     31  C   UNL     1     141.009  71.469 226.801 -0.70 -0.01    +0.032 A  
DOCKED: ATOM     32  C   UNL     1     139.664  69.082 226.355 -0.49 -0.01    +0.049 A  
DOCKED: ATOM     33  C   UNL     1     140.834  70.585 227.853 -0.63 -0.01    +0.041 A  
DOCKED: ATOM     34  C   UNL     1     140.153  69.389 227.607 -0.51 -0.02    +0.123 A  
DOCKED: ATOM     35  F   UNL     1     139.983  68.524 228.641 -0.17 +0.04    -0.207 F  
DOCKED: ENDBRANCH  22  25
DOCKED: ENDBRANCH  20  21
DOCKED: ENDBRANCH   1  20
DOCKED: TORSDOF 7
DOCKED: TER
DOCKED: ENDMDL
________________________________________________________________________________


    FINAL DOCKED STATE:
    ________________________


Run:   8 / 20
Time taken for this run:   0.041s

DOCKED: MODEL        8
DOCKED: USER    Run = 8
DOCKED: USER
DOCKED: USER    Estimated Free Energy of Binding    =  -8.59 kcal/mol  [=(1)+(2)+(3)-(4)]
DOCKED: USER
DOCKED: USER    (1) Final Intermolecular Energy     = -10.67 kcal/mol
DOCKED: USER        vdW + Hbond + desolv Energy     = -10.64 kcal/mol
DOCKED: USER        Electrostatic Energy            =  -0.04 kcal/mol
DOCKED: USER        Moving Ligand-Fixed Receptor    = -10.67 kcal/mol
DOCKED: USER        Moving Ligand-Moving Receptor   =  +0.00 kcal/mol
DOCKED: USER    (2) Final Total Internal Energy     =  -3.00 kcal/mol
DOCKED: USER    (3) Torsional Free Energy           =  +2.09 kcal/mol
DOCKED: USER    (4) Unbound System's Energy         =  -3.00 kcal/mol
DOCKED: USER
DOCKED: USER
DOCKED: REMARK SMILES C[C@H]1CCN(C(=O)CNC(=O)c2ccc3cc(F)ccc3n2)[C@H]1C(=O)NCc1ccccc1
DOCKED: REMARK SMILES IDX 6 1 7 2 5 3 2 4 3 5 23 6 4 7 1 8 24 9 26 10 25 11 27 13
DOCKED: REMARK SMILES IDX 28 14 29 15 33 16 30 17 32 18 31 19 8 20 9 21 10 22 11 24
DOCKED: REMARK SMILES IDX 12 25 13 26 22 27 14 28 21 29 15 30 20 31 16 32 19 33 17 34
DOCKED: REMARK SMILES IDX 18 35
DOCKED: REMARK H PARENT 26 12 9 23
DOCKED: USER                              x       y       z     vdW  Elec       q    Type
DOCKED: USER                           _______ _______ _______ _____ _____    ______ ____
DOCKED: ROOT
DOCKED: ATOM      1  C   UNL     1     140.874  75.342 221.228 -0.22 -0.06    +0.242 C  
DOCKED: ATOM      2  O   UNL     1     141.019  75.798 222.401 -0.36 +0.06    -0.273 OA 
DOCKED: ENDROOT
DOCKED: BRANCH   1   3
DOCKED: ATOM      3  N   UNL     1     141.573  75.981 220.190 -0.10 +0.14    -0.329 N  
DOCKED: ATOM      4  C   UNL     1     141.916  76.980 218.046 -0.19 -0.01    +0.020 C  
DOCKED: ATOM      5  C   UNL     1     142.696  75.693 218.233 -0.21 -0.01    +0.027 C  
DOCKED: ATOM      6  C   UNL     1     141.073  77.029 219.295 -0.11 -0.07    +0.177 C  
DOCKED: ATOM      7  C   UNL     1     142.949  75.765 219.746 -0.31 -0.07    +0.121 C  
DOCKED: ATOM      8  C   UNL     1     142.950  78.087 217.990 -0.27 -0.01    +0.010 C  
DOCKED: BRANCH   6   9
DOCKED: ATOM      9  C   UNL     1     141.233  78.311 220.028 -0.15 -0.12    +0.243 C  
DOCKED: ATOM     10  N   UNL     1     141.965  78.237 221.268 -0.12 +0.23    -0.350 N  
DOCKED: ATOM     11  O   UNL     1     140.769  79.407 219.616 -0.09 +0.11    -0.273 OA 
DOCKED: ATOM     12  H   UNL     1     142.350  77.313 221.605 -0.46 -0.16    +0.163 HD 
DOCKED: BRANCH  10  13
DOCKED: ATOM     13  C   UNL     1     142.197  79.412 222.087 -0.40 -0.08    +0.151 C  
DOCKED: BRANCH  13  14
DOCKED: ATOM     14  C   UNL     1     140.934  80.001 222.607 -0.41 +0.01    -0.029 A  
DOCKED: ATOM     15  C   UNL     1     140.300  79.276 223.621 -0.46 -0.00    +0.005 A  
DOCKED: ATOM     16  C   UNL     1     140.400  81.182 222.135 -0.33 -0.00    +0.005 A  
DOCKED: ATOM     17  C   UNL     1     139.109  79.729 224.184 -0.36 -0.00    +0.000 A  
DOCKED: ATOM     18  C   UNL     1     139.227  81.634 222.688 -0.24 -0.00    +0.000 A  
DOCKED: ATOM     19  C   UNL     1     138.598  80.919 223.691 -0.37 -0.00    +0.000 A  
DOCKED: ENDBRANCH  13  14
DOCKED: ENDBRANCH  10  13
DOCKED: ENDBRANCH   6   9
DOCKED: ENDBRANCH   1   3
DOCKED: BRANCH   1  20
DOCKED: ATOM     20  C   UNL     1     140.014  74.183 220.915 -0.16 -0.04    +0.216 C  
DOCKED: BRANCH  20  21
DOCKED: ATOM     21  N   UNL     1     139.938  73.328 222.085 -0.16 +0.04    -0.342 N  
DOCKED: ATOM     22  C   UNL     1     139.905  71.908 221.988 -0.18 -0.04    +0.270 C  
DOCKED: ATOM     23  H   UNL     1     139.905  73.758 223.054 -0.35 +0.02    +0.164 HD 
DOCKED: ATOM     24  O   UNL     1     139.940  71.321 220.874 -0.07 +0.04    -0.268 OA 
DOCKED: BRANCH  22  25
DOCKED: ATOM     25  C   UNL     1     139.828  71.128 223.237 -0.28 -0.02    +0.128 A  
DOCKED: ATOM     26  C   UNL     1     139.266  69.867 223.216 -0.23 -0.01    +0.035 A  
DOCKED: ATOM     27  N   UNL     1     140.297  71.625 224.399 -0.29 +0.04    -0.243 NA 
DOCKED: ATOM     28  C   UNL     1     139.213  69.166 224.414 -0.34 -0.00    +0.013 A  
DOCKED: ATOM     29  C   UNL     1     140.248  70.950 225.560 -0.50 -0.01    +0.071 A  
DOCKED: ATOM     30  C   UNL     1     139.697  69.683 225.599 -0.45 -0.00    +0.003 A  
DOCKED: ATOM     31  C   UNL     1     140.758  71.542 226.721 -0.69 -0.01    +0.032 A  
DOCKED: ATOM     32  C   UNL     1     139.650  68.997 226.797 -0.52 -0.01    +0.049 A  
DOCKED: ATOM     33  C   UNL     1     140.715  70.859 227.925 -0.68 -0.01    +0.041 A  
DOCKED: ATOM     34  C   UNL     1     140.153  69.579 227.942 -0.52 -0.02    +0.123 A  
DOCKED: ATOM     35  F   UNL     1     140.112  68.912 229.125 -0.10 +0.04    -0.207 F  
DOCKED: ENDBRANCH  22  25
DOCKED: ENDBRANCH  20  21
DOCKED: ENDBRANCH   1  20
DOCKED: TORSDOF 7
DOCKED: TER
DOCKED: ENDMDL
________________________________________________________________________________


    FINAL DOCKED STATE:
    ________________________


Run:   9 / 20
Time taken for this run:   0.041s

DOCKED: MODEL        9
DOCKED: USER    Run = 9
DOCKED: USER
DOCKED: USER    Estimated Free Energy of Binding    =  -8.94 kcal/mol  [=(1)+(2)+(3)-(4)]
DOCKED: USER
DOCKED: USER    (1) Final Intermolecular Energy     = -11.02 kcal/mol
DOCKED: USER        vdW + Hbond + desolv Energy     = -11.01 kcal/mol
DOCKED: USER        Electrostatic Energy            =  -0.02 kcal/mol
DOCKED: USER        Moving Ligand-Fixed Receptor    = -11.02 kcal/mol
DOCKED: USER        Moving Ligand-Moving Receptor   =  +0.00 kcal/mol
DOCKED: USER    (2) Final Total Internal Energy     =  -2.77 kcal/mol
DOCKED: USER    (3) Torsional Free Energy           =  +2.09 kcal/mol
DOCKED: USER    (4) Unbound System's Energy         =  -2.77 kcal/mol
DOCKED: USER
DOCKED: USER
DOCKED: REMARK SMILES C[C@H]1CCN(C(=O)CNC(=O)c2ccc3cc(F)ccc3n2)[C@H]1C(=O)NCc1ccccc1
DOCKED: REMARK SMILES IDX 6 1 7 2 5 3 2 4 3 5 23 6 4 7 1 8 24 9 26 10 25 11 27 13
DOCKED: REMARK SMILES IDX 28 14 29 15 33 16 30 17 32 18 31 19 8 20 9 21 10 22 11 24
DOCKED: REMARK SMILES IDX 12 25 13 26 22 27 14 28 21 29 15 30 20 31 16 32 19 33 17 34
DOCKED: REMARK SMILES IDX 18 35
DOCKED: REMARK H PARENT 26 12 9 23
DOCKED: USER                              x       y       z     vdW  Elec       q    Type
DOCKED: USER                           _______ _______ _______ _____ _____    ______ ____
DOCKED: ROOT
DOCKED: ATOM      1  C   UNL     1     140.726  74.812 221.344 -0.22 -0.05    +0.242 C  
DOCKED: ATOM      2  O   UNL     1     140.841  75.591 222.336 -0.46 +0.04    -0.273 OA 
DOCKED: ENDROOT
DOCKED: BRANCH   1   3
DOCKED: ATOM      3  N   UNL     1     141.701  74.892 220.335 -0.11 +0.10    -0.329 N  
DOCKED: ATOM      4  C   UNL     1     142.648  74.651 218.155 -0.13 -0.01    +0.020 C  
DOCKED: ATOM      5  C   UNL     1     143.308  73.761 219.190 -0.22 -0.01    +0.027 C  
DOCKED: ATOM      6  C   UNL     1     141.497  75.243 218.927 -0.08 -0.06    +0.177 C  
DOCKED: ATOM      7  C   UNL     1     143.139  74.646 220.433 -0.28 -0.05    +0.121 C  
DOCKED: ATOM      8  C   UNL     1     143.690  75.681 217.768 -0.20 -0.01    +0.010 C  
DOCKED: BRANCH   6   9
DOCKED: ATOM      9  C   UNL     1     141.487  76.727 218.867 -0.10 -0.11    +0.243 C  
DOCKED: ATOM     10  N   UNL     1     141.793  77.406 220.102 -0.12 +0.20    -0.350 N  
DOCKED: ATOM     11  O   UNL     1     141.233  77.377 217.818 -0.05 +0.13    -0.273 OA 
DOCKED: ATOM     12  H   UNL     1     142.005  76.853 220.976 -0.25 -0.11    +0.163 HD 
DOCKED: BRANCH  10  13
DOCKED: ATOM     13  C   UNL     1     141.820  78.855 220.188 -0.21 -0.09    +0.151 C  
DOCKED: BRANCH  13  14
DOCKED: ATOM     14  C   UNL     1     141.969  79.338 221.586 -0.39 +0.02    -0.029 A  
DOCKED: ATOM     15  C   UNL     1     141.475  78.486 222.578 -0.49 -0.00    +0.005 A  
DOCKED: ATOM     16  C   UNL     1     142.552  80.546 221.910 -0.46 -0.00    +0.005 A  
DOCKED: ATOM     17  C   UNL     1     141.559  78.834 223.925 -0.59 -0.00    +0.000 A  
DOCKED: ATOM     18  C   UNL     1     142.639  80.894 223.236 -0.62 -0.00    +0.000 A  
DOCKED: ATOM     19  C   UNL     1     142.151  80.052 224.219 -0.48 -0.00    +0.000 A  
DOCKED: ENDBRANCH  13  14
DOCKED: ENDBRANCH  10  13
DOCKED: ENDBRANCH   6   9
DOCKED: ENDBRANCH   1   3
DOCKED: BRANCH   1  20
DOCKED: ATOM     20  C   UNL     1     139.623  73.839 221.209 -0.16 -0.04    +0.216 C  
DOCKED: BRANCH  20  21
DOCKED: ATOM     21  N   UNL     1     139.647  72.945 222.351 -0.16 +0.06    -0.342 N  
DOCKED: ATOM     22  C   UNL     1     139.668  71.528 222.209 -0.17 -0.05    +0.270 C  
DOCKED: ATOM     23  H   UNL     1     139.650  73.341 223.335 -0.42 -0.04    +0.164 HD 
DOCKED: ATOM     24  O   UNL     1     139.667  70.978 221.075 -0.07 +0.05    -0.268 OA 
DOCKED: BRANCH  22  25
DOCKED: ATOM     25  C   UNL     1     139.692  70.706 223.433 -0.26 -0.02    +0.128 A  
DOCKED: ATOM     26  C   UNL     1     139.177  69.426 223.401 -0.24 -0.01    +0.035 A  
DOCKED: ATOM     27  N   UNL     1     140.209  71.185 224.582 -0.29 +0.04    -0.243 NA 
DOCKED: ATOM     28  C   UNL     1     139.219  68.685 224.576 -0.36 -0.00    +0.013 A  
DOCKED: ATOM     29  C   UNL     1     140.252  70.471 225.722 -0.48 -0.01    +0.071 A  
DOCKED: ATOM     30  C   UNL     1     139.751  69.183 225.748 -0.47 -0.00    +0.003 A  
DOCKED: ATOM     31  C   UNL     1     140.806  71.046 226.871 -0.65 -0.01    +0.032 A  
DOCKED: ATOM     32  C   UNL     1     139.798  68.459 226.923 -0.58 -0.01    +0.049 A  
DOCKED: ATOM     33  C   UNL     1     140.858  70.324 228.052 -0.59 -0.01    +0.041 A  
DOCKED: ATOM     34  C   UNL     1     140.345  69.023 228.057 -0.54 -0.02    +0.123 A  
DOCKED: ATOM     35  F   UNL     1     140.397  68.318 229.217 -0.13 +0.04    -0.207 F  
DOCKED: ENDBRANCH  22  25
DOCKED: ENDBRANCH  20  21
DOCKED: ENDBRANCH   1  20
DOCKED: TORSDOF 7
DOCKED: TER
DOCKED: ENDMDL
________________________________________________________________________________


    FINAL DOCKED STATE:
    ________________________


Run:   10 / 20
Time taken for this run:   0.041s

DOCKED: MODEL        10
DOCKED: USER    Run = 10
DOCKED: USER
DOCKED: USER    Estimated Free Energy of Binding    =  -9.57 kcal/mol  [=(1)+(2)+(3)-(4)]
DOCKED: USER
DOCKED: USER    (1) Final Intermolecular Energy     = -11.65 kcal/mol
DOCKED: USER        vdW + Hbond + desolv Energy     = -11.53 kcal/mol
DOCKED: USER        Electrostatic Energy            =  -0.12 kcal/mol
DOCKED: USER        Moving Ligand-Fixed Receptor    = -11.65 kcal/mol
DOCKED: USER        Moving Ligand-Moving Receptor   =  +0.00 kcal/mol
DOCKED: USER    (2) Final Total Internal Energy     =  -2.24 kcal/mol
DOCKED: USER    (3) Torsional Free Energy           =  +2.09 kcal/mol
DOCKED: USER    (4) Unbound System's Energy         =  -2.24 kcal/mol
DOCKED: USER
DOCKED: USER
DOCKED: REMARK SMILES C[C@H]1CCN(C(=O)CNC(=O)c2ccc3cc(F)ccc3n2)[C@H]1C(=O)NCc1ccccc1
DOCKED: REMARK SMILES IDX 6 1 7 2 5 3 2 4 3 5 23 6 4 7 1 8 24 9 26 10 25 11 27 13
DOCKED: REMARK SMILES IDX 28 14 29 15 33 16 30 17 32 18 31 19 8 20 9 21 10 22 11 24
DOCKED: REMARK SMILES IDX 12 25 13 26 22 27 14 28 21 29 15 30 20 31 16 32 19 33 17 34
DOCKED: REMARK SMILES IDX 18 35
DOCKED: REMARK H PARENT 26 12 9 23
DOCKED: USER                              x       y       z     vdW  Elec       q    Type
DOCKED: USER                           _______ _______ _______ _____ _____    ______ ____
DOCKED: ROOT
DOCKED: ATOM      1  C   UNL     1     142.466  73.908 220.227 -0.17 -0.06    +0.242 C  
DOCKED: ATOM      2  O   UNL     1     143.450  73.586 220.956 -0.20 +0.06    -0.273 OA 
DOCKED: ENDROOT
DOCKED: BRANCH   1   3
DOCKED: ATOM      3  N   UNL     1     142.439  75.213 219.707 -0.11 +0.13    -0.329 N  
DOCKED: ATOM      4  C   UNL     1     141.833  76.990 218.229 -0.19 -0.01    +0.020 C  
DOCKED: ATOM      5  C   UNL     1     143.304  76.629 218.152 -0.28 -0.02    +0.027 C  
DOCKED: ATOM      6  C   UNL     1     141.287  75.921 219.141 -0.10 -0.07    +0.177 C  
DOCKED: ATOM      7  C   UNL     1     143.533  76.178 219.601 -0.31 -0.08    +0.121 C  
DOCKED: ATOM      8  C   UNL     1     141.778  78.374 218.844 -0.26 -0.01    +0.010 C  
DOCKED: BRANCH   6   9
DOCKED: ATOM      9  C   UNL     1     140.544  76.494 220.292 -0.11 -0.08    +0.243 C  
DOCKED: ATOM     10  N   UNL     1     141.307  76.673 221.503 -0.12 +0.17    -0.350 N  
DOCKED: ATOM     11  O   UNL     1     139.326  76.812 220.243 -0.04 +0.07    -0.273 OA 
DOCKED: ATOM     12  H   UNL     1     142.327  76.404 221.535 -0.49 -0.15    +0.163 HD 
DOCKED: BRANCH  10  13
DOCKED: ATOM     13  C   UNL     1     140.709  77.223 222.705 -0.29 -0.05    +0.151 C  
DOCKED: BRANCH  13  14
DOCKED: ATOM     14  C   UNL     1     141.045  78.657 222.904 -0.48 +0.01    -0.029 A  
DOCKED: ATOM     15  C   UNL     1     142.359  79.019 222.591 -0.50 -0.00    +0.005 A  
DOCKED: ATOM     16  C   UNL     1     140.140  79.589 223.367 -0.45 -0.00    +0.005 A  
DOCKED: ATOM     17  C   UNL     1     142.790  80.337 222.739 -0.63 -0.00    +0.000 A  
DOCKED: ATOM     18  C   UNL     1     140.560  80.889 223.513 -0.45 -0.00    +0.000 A  
DOCKED: ATOM     19  C   UNL     1     141.858  81.250 223.205 -0.58 -0.00    +0.000 A  
DOCKED: ENDBRANCH  13  14
DOCKED: ENDBRANCH  10  13
DOCKED: ENDBRANCH   6   9
DOCKED: ENDBRANCH   1   3
DOCKED: BRANCH   1  20
DOCKED: ATOM     20  C   UNL     1     141.362  72.980 219.907 -0.08 -0.04    +0.216 C  
DOCKED: BRANCH  20  21
DOCKED: ATOM     21  N   UNL     1     141.119  72.130 221.057 -0.09 +0.04    -0.342 N  
DOCKED: ATOM     22  C   UNL     1     140.444  72.599 222.220 -0.20 -0.03    +0.270 C  
DOCKED: ATOM     23  H   UNL     1     141.449  71.122 221.052 +0.05 -0.02    +0.164 HD 
DOCKED: ATOM     24  O   UNL     1     140.021  73.782 222.306 -0.84 +0.01    -0.268 OA 
DOCKED: BRANCH  22  25
DOCKED: ATOM     25  C   UNL     1     140.246  71.656 223.337 -0.31 -0.02    +0.128 A  
DOCKED: ATOM     26  C   UNL     1     139.567  70.475 223.116 -0.26 -0.01    +0.035 A  
DOCKED: ATOM     27  N   UNL     1     140.717  71.929 224.570 -0.21 +0.03    -0.243 NA 
DOCKED: ATOM     28  C   UNL     1     139.402  69.615 224.194 -0.32 -0.00    +0.013 A  
DOCKED: ATOM     29  C   UNL     1     140.560  71.099 225.617 -0.53 -0.01    +0.071 A  
DOCKED: ATOM     30  C   UNL     1     139.889  69.903 225.454 -0.45 -0.00    +0.003 A  
DOCKED: ATOM     31  C   UNL     1     141.082  71.461 226.863 -0.71 -0.01    +0.032 A  
DOCKED: ATOM     32  C   UNL     1     139.732  69.057 226.535 -0.50 -0.01    +0.049 A  
DOCKED: ATOM     33  C   UNL     1     140.929  70.618 227.951 -0.63 -0.01    +0.041 A  
DOCKED: ATOM     34  C   UNL     1     140.246  69.412 227.764 -0.52 -0.02    +0.123 A  
DOCKED: ATOM     35  F   UNL     1     140.097  68.587 228.834 -0.17 +0.04    -0.207 F  
DOCKED: ENDBRANCH  22  25
DOCKED: ENDBRANCH  20  21
DOCKED: ENDBRANCH   1  20
DOCKED: TORSDOF 7
DOCKED: TER
DOCKED: ENDMDL
________________________________________________________________________________


    FINAL DOCKED STATE:
    ________________________


Run:   11 / 20
Time taken for this run:   0.041s

DOCKED: MODEL        11
DOCKED: USER    Run = 11
DOCKED: USER
DOCKED: USER    Estimated Free Energy of Binding    =  -8.09 kcal/mol  [=(1)+(2)+(3)-(4)]
DOCKED: USER
DOCKED: USER    (1) Final Intermolecular Energy     = -10.18 kcal/mol
DOCKED: USER        vdW + Hbond + desolv Energy     = -10.14 kcal/mol
DOCKED: USER        Electrostatic Energy            =  -0.04 kcal/mol
DOCKED: USER        Moving Ligand-Fixed Receptor    = -10.18 kcal/mol
DOCKED: USER        Moving Ligand-Moving Receptor   =  +0.00 kcal/mol
DOCKED: USER    (2) Final Total Internal Energy     =  -2.80 kcal/mol
DOCKED: USER    (3) Torsional Free Energy           =  +2.09 kcal/mol
DOCKED: USER    (4) Unbound System's Energy         =  -2.80 kcal/mol
DOCKED: USER
DOCKED: USER
DOCKED: REMARK SMILES C[C@H]1CCN(C(=O)CNC(=O)c2ccc3cc(F)ccc3n2)[C@H]1C(=O)NCc1ccccc1
DOCKED: REMARK SMILES IDX 6 1 7 2 5 3 2 4 3 5 23 6 4 7 1 8 24 9 26 10 25 11 27 13
DOCKED: REMARK SMILES IDX 28 14 29 15 33 16 30 17 32 18 31 19 8 20 9 21 10 22 11 24
DOCKED: REMARK SMILES IDX 12 25 13 26 22 27 14 28 21 29 15 30 20 31 16 32 19 33 17 34
DOCKED: REMARK SMILES IDX 18 35
DOCKED: REMARK H PARENT 26 12 9 23
DOCKED: USER                              x       y       z     vdW  Elec       q    Type
DOCKED: USER                           _______ _______ _______ _____ _____    ______ ____
DOCKED: ROOT
DOCKED: ATOM      1  C   UNL     1     137.566  73.065 222.322 -0.01 -0.08    +0.242 C  
DOCKED: ATOM      2  O   UNL     1     138.794  72.861 222.089 -0.17 +0.07    -0.273 OA 
DOCKED: ENDROOT
DOCKED: BRANCH   1   3
DOCKED: ATOM      3  N   UNL     1     136.853  72.060 222.998 -0.08 +0.09    -0.329 N  
DOCKED: ATOM      4  C   UNL     1     135.472  70.128 223.263 -0.12 -0.00    +0.020 C  
DOCKED: ATOM      5  C   UNL     1     134.817  71.400 223.766 -0.13 -0.00    +0.027 C  
DOCKED: ATOM      6  C   UNL     1     136.733  70.649 222.622 -0.09 -0.03    +0.177 C  
DOCKED: ATOM      7  C   UNL     1     136.066  72.166 224.226 -0.09 -0.03    +0.121 C  
DOCKED: ATOM      8  C   UNL     1     135.741  69.286 224.493 -0.23 -0.00    +0.010 C  
DOCKED: BRANCH   6   9
DOCKED: ATOM      9  C   UNL     1     137.948  69.974 223.148 -0.14 -0.04    +0.243 C  
DOCKED: ATOM     10  N   UNL     1     138.872  70.818 223.864 -0.13 +0.07    -0.350 N  
DOCKED: ATOM     11  O   UNL     1     138.180  68.746 222.993 -0.13 +0.04    -0.273 OA 
DOCKED: ATOM     12  H   UNL     1     138.669  71.846 223.988 -0.16 -0.06    +0.163 HD 
DOCKED: BRANCH  10  13
DOCKED: ATOM     13  C   UNL     1     140.100  70.292 224.432 -0.28 -0.03    +0.151 C  
DOCKED: BRANCH  13  14
DOCKED: ATOM     14  C   UNL     1     140.289  70.694 225.850 -0.54 +0.00    -0.029 A  
DOCKED: ATOM     15  C   UNL     1     141.088  71.822 226.058 -0.63 -0.00    +0.005 A  
DOCKED: ATOM     16  C   UNL     1     139.724  70.015 226.910 -0.51 -0.00    +0.005 A  
DOCKED: ATOM     17  C   UNL     1     141.337  72.293 227.347 -0.82 -0.00    +0.000 A  
DOCKED: ATOM     18  C   UNL     1     139.965  70.476 228.182 -0.63 -0.00    +0.000 A  
DOCKED: ATOM     19  C   UNL     1     140.755  71.591 228.390 -0.72 -0.00    +0.000 A  
DOCKED: ENDBRANCH  13  14
DOCKED: ENDBRANCH  10  13
DOCKED: ENDBRANCH   6   9
DOCKED: ENDBRANCH   1   3
DOCKED: BRANCH   1  20
DOCKED: ATOM     20  C   UNL     1     136.864  74.300 221.916 -0.11 -0.06    +0.216 C  
DOCKED: BRANCH  20  21
DOCKED: ATOM     21  N   UNL     1     137.673  75.443 222.298 -0.12 +0.10    -0.342 N  
DOCKED: ATOM     22  C   UNL     1     137.162  76.772 222.294 -0.15 -0.05    +0.270 C  
DOCKED: ATOM     23  H   UNL     1     138.682  75.304 222.592 -0.18 -0.05    +0.164 HD 
DOCKED: ATOM     24  O   UNL     1     135.974  77.022 221.957 -0.06 +0.04    -0.268 OA 
DOCKED: BRANCH  22  25
DOCKED: ATOM     25  C   UNL     1     138.065  77.865 222.699 -0.22 -0.02    +0.128 A  
DOCKED: ATOM     26  C   UNL     1     137.532  79.084 223.068 -0.21 -0.00    +0.035 A  
DOCKED: ATOM     27  N   UNL     1     139.402  77.694 222.714 -0.19 +0.05    -0.243 NA 
DOCKED: ATOM     28  C   UNL     1     138.417  80.087 223.442 -0.35 -0.00    +0.013 A  
DOCKED: ATOM     29  C   UNL     1     140.262  78.663 223.075 -0.38 -0.02    +0.071 A  
DOCKED: ATOM     30  C   UNL     1     139.785  79.903 223.455 -0.43 -0.00    +0.003 A  
DOCKED: ATOM     31  C   UNL     1     141.636  78.400 223.062 -0.49 -0.01    +0.032 A  
DOCKED: ATOM     32  C   UNL     1     140.676  80.891 223.824 -0.38 -0.01    +0.049 A  
DOCKED: ATOM     33  C   UNL     1     142.535  79.386 223.432 -0.55 -0.01    +0.041 A  
DOCKED: ATOM     34  C   UNL     1     142.031  80.634 223.812 -0.52 -0.02    +0.123 A  
DOCKED: ATOM     35  F   UNL     1     142.916  81.599 224.174 -0.18 +0.02    -0.207 F  
DOCKED: ENDBRANCH  22  25
DOCKED: ENDBRANCH  20  21
DOCKED: ENDBRANCH   1  20
DOCKED: TORSDOF 7
DOCKED: TER
DOCKED: ENDMDL
________________________________________________________________________________


    FINAL DOCKED STATE:
    ________________________


Run:   12 / 20
Time taken for this run:   0.041s

DOCKED: MODEL        12
DOCKED: USER    Run = 12
DOCKED: USER
DOCKED: USER    Estimated Free Energy of Binding    =  -7.83 kcal/mol  [=(1)+(2)+(3)-(4)]
DOCKED: USER
DOCKED: USER    (1) Final Intermolecular Energy     =  -9.92 kcal/mol
DOCKED: USER        vdW + Hbond + desolv Energy     =  -9.88 kcal/mol
DOCKED: USER        Electrostatic Energy            =  -0.04 kcal/mol
DOCKED: USER        Moving Ligand-Fixed Receptor    =  -9.92 kcal/mol
DOCKED: USER        Moving Ligand-Moving Receptor   =  +0.00 kcal/mol
DOCKED: USER    (2) Final Total Internal Energy     =  -2.96 kcal/mol
DOCKED: USER    (3) Torsional Free Energy           =  +2.09 kcal/mol
DOCKED: USER    (4) Unbound System's Energy         =  -2.96 kcal/mol
DOCKED: USER
DOCKED: USER
DOCKED: REMARK SMILES C[C@H]1CCN(C(=O)CNC(=O)c2ccc3cc(F)ccc3n2)[C@H]1C(=O)NCc1ccccc1
DOCKED: REMARK SMILES IDX 6 1 7 2 5 3 2 4 3 5 23 6 4 7 1 8 24 9 26 10 25 11 27 13
DOCKED: REMARK SMILES IDX 28 14 29 15 33 16 30 17 32 18 31 19 8 20 9 21 10 22 11 24
DOCKED: REMARK SMILES IDX 12 25 13 26 22 27 14 28 21 29 15 30 20 31 16 32 19 33 17 34
DOCKED: REMARK SMILES IDX 18 35
DOCKED: REMARK H PARENT 26 12 9 23
DOCKED: USER                              x       y       z     vdW  Elec       q    Type
DOCKED: USER                           _______ _______ _______ _____ _____    ______ ____
DOCKED: ROOT
DOCKED: ATOM      1  C   UNL     1     137.911  73.259 222.338 +0.12 -0.09    +0.242 C  
DOCKED: ATOM      2  O   UNL     1     139.176  73.201 222.340 -0.36 +0.07    -0.273 OA 
DOCKED: ENDROOT
DOCKED: BRANCH   1   3
DOCKED: ATOM      3  N   UNL     1     137.205  72.110 222.736 -0.07 +0.09    -0.329 N  
DOCKED: ATOM      4  C   UNL     1     135.973  70.078 222.488 -0.08 -0.00    +0.020 C  
DOCKED: ATOM      5  C   UNL     1     135.149  71.202 223.086 -0.10 -0.00    +0.027 C  
DOCKED: ATOM      6  C   UNL     1     137.258  70.778 222.127 -0.07 -0.03    +0.177 C  
DOCKED: ATOM      7  C   UNL     1     136.255  71.957 223.837 -0.16 -0.03    +0.121 C  
DOCKED: ATOM      8  C   UNL     1     136.148  69.058 223.595 -0.17 -0.00    +0.010 C  
DOCKED: BRANCH   6   9
DOCKED: ATOM      9  C   UNL     1     138.446  70.103 222.710 -0.12 -0.04    +0.243 C  
DOCKED: ATOM     10  N   UNL     1     139.174  70.859 223.699 -0.14 +0.07    -0.350 N  
DOCKED: ATOM     11  O   UNL     1     138.816  68.945 222.382 -0.12 +0.05    -0.273 OA 
DOCKED: ATOM     12  H   UNL     1     138.856  71.829 223.968 -0.12 -0.06    +0.163 HD 
DOCKED: BRANCH  10  13
DOCKED: ATOM     13  C   UNL     1     140.354  70.323 224.351 -0.21 -0.02    +0.151 C  
DOCKED: BRANCH  13  14
DOCKED: ATOM     14  C   UNL     1     140.428  70.694 225.789 -0.54 +0.00    -0.029 A  
DOCKED: ATOM     15  C   UNL     1     141.153  71.854 226.078 -0.62 -0.00    +0.005 A  
DOCKED: ATOM     16  C   UNL     1     139.832  69.958 226.791 -0.52 -0.00    +0.005 A  
DOCKED: ATOM     17  C   UNL     1     141.292  72.300 227.391 -0.81 -0.00    +0.000 A  
DOCKED: ATOM     18  C   UNL     1     139.964  70.393 228.087 -0.64 -0.00    +0.000 A  
DOCKED: ATOM     19  C   UNL     1     140.680  71.541 228.376 -0.73 -0.00    +0.000 A  
DOCKED: ENDBRANCH  13  14
DOCKED: ENDBRANCH  10  13
DOCKED: ENDBRANCH   6   9
DOCKED: ENDBRANCH   1   3
DOCKED: BRANCH   1  20
DOCKED: ATOM     20  C   UNL     1     137.160  74.467 221.940 -0.12 -0.06    +0.216 C  
DOCKED: BRANCH  20  21
DOCKED: ATOM     21  N   UNL     1     137.930  75.639 222.313 -0.14 +0.09    -0.342 N  
DOCKED: ATOM     22  C   UNL     1     137.358  76.942 222.360 -0.16 -0.05    +0.270 C  
DOCKED: ATOM     23  H   UNL     1     138.956  75.541 222.563 -0.08 -0.04    +0.164 HD 
DOCKED: ATOM     24  O   UNL     1     136.147  77.142 222.079 -0.07 +0.04    -0.268 OA 
DOCKED: BRANCH  22  25
DOCKED: ATOM     25  C   UNL     1     138.226  78.068 222.752 -0.22 -0.02    +0.128 A  
DOCKED: ATOM     26  C   UNL     1     137.656  79.284 223.074 -0.23 -0.00    +0.035 A  
DOCKED: ATOM     27  N   UNL     1     139.566  77.930 222.801 -0.18 +0.05    -0.243 NA 
DOCKED: ATOM     28  C   UNL     1     138.508  80.318 223.437 -0.35 -0.00    +0.013 A  
DOCKED: ATOM     29  C   UNL     1     140.395  78.930 223.153 -0.40 -0.02    +0.071 A  
DOCKED: ATOM     30  C   UNL     1     139.880  80.168 223.485 -0.44 -0.00    +0.003 A  
DOCKED: ATOM     31  C   UNL     1     141.774  78.700 223.177 -0.55 -0.01    +0.032 A  
DOCKED: ATOM     32  C   UNL     1     140.739  81.188 223.844 -0.29 -0.01    +0.049 A  
DOCKED: ATOM     33  C   UNL     1     142.642  79.718 223.538 -0.55 -0.01    +0.041 A  
DOCKED: ATOM     34  C   UNL     1     142.100  80.964 223.869 -0.52 -0.02    +0.123 A  
DOCKED: ATOM     35  F   UNL     1     142.953  81.960 224.222 -0.11 +0.02    -0.207 F  
DOCKED: ENDBRANCH  22  25
DOCKED: ENDBRANCH  20  21
DOCKED: ENDBRANCH   1  20
DOCKED: TORSDOF 7
DOCKED: TER
DOCKED: ENDMDL
________________________________________________________________________________


    FINAL DOCKED STATE:
    ________________________


Run:   13 / 20
Time taken for this run:   0.041s

DOCKED: MODEL        13
DOCKED: USER    Run = 13
DOCKED: USER
DOCKED: USER    Estimated Free Energy of Binding    =  -8.67 kcal/mol  [=(1)+(2)+(3)-(4)]
DOCKED: USER
DOCKED: USER    (1) Final Intermolecular Energy     = -10.75 kcal/mol
DOCKED: USER        vdW + Hbond + desolv Energy     = -10.73 kcal/mol
DOCKED: USER        Electrostatic Energy            =  -0.02 kcal/mol
DOCKED: USER        Moving Ligand-Fixed Receptor    = -10.75 kcal/mol
DOCKED: USER        Moving Ligand-Moving Receptor   =  +0.00 kcal/mol
DOCKED: USER    (2) Final Total Internal Energy     =  -2.88 kcal/mol
DOCKED: USER    (3) Torsional Free Energy           =  +2.09 kcal/mol
DOCKED: USER    (4) Unbound System's Energy         =  -2.88 kcal/mol
DOCKED: USER
DOCKED: USER
DOCKED: REMARK SMILES C[C@H]1CCN(C(=O)CNC(=O)c2ccc3cc(F)ccc3n2)[C@H]1C(=O)NCc1ccccc1
DOCKED: REMARK SMILES IDX 6 1 7 2 5 3 2 4 3 5 23 6 4 7 1 8 24 9 26 10 25 11 27 13
DOCKED: REMARK SMILES IDX 28 14 29 15 33 16 30 17 32 18 31 19 8 20 9 21 10 22 11 24
DOCKED: REMARK SMILES IDX 12 25 13 26 22 27 14 28 21 29 15 30 20 31 16 32 19 33 17 34
DOCKED: REMARK SMILES IDX 18 35
DOCKED: REMARK H PARENT 26 12 9 23
DOCKED: USER                              x       y       z     vdW  Elec       q    Type
DOCKED: USER                           _______ _______ _______ _____ _____    ______ ____
DOCKED: ROOT
DOCKED: ATOM      1  C   UNL     1     140.199  75.258 221.506 -0.23 -0.05    +0.242 C  
DOCKED: ATOM      2  O   UNL     1     140.067  75.972 222.544 -0.41 +0.04    -0.273 OA 
DOCKED: ENDROOT
DOCKED: BRANCH   1   3
DOCKED: ATOM      3  N   UNL     1     141.182  75.636 220.575 -0.11 +0.11    -0.329 N  
DOCKED: ATOM      4  C   UNL     1     142.086  76.311 218.469 -0.20 -0.01    +0.020 C  
DOCKED: ATOM      5  C   UNL     1     142.542  74.929 218.895 -0.20 -0.01    +0.027 C  
DOCKED: ATOM      6  C   UNL     1     141.069  76.654 219.528 -0.12 -0.07    +0.177 C  
DOCKED: ATOM      7  C   UNL     1     142.540  75.117 220.419 -0.24 -0.05    +0.121 C  
DOCKED: ATOM      8  C   UNL     1     143.319  77.191 218.529 -0.22 -0.01    +0.010 C  
DOCKED: BRANCH   6   9
DOCKED: ATOM      9  C   UNL     1     141.359  77.957 220.181 -0.17 -0.12    +0.243 C  
DOCKED: ATOM     10  N   UNL     1     141.813  77.883 221.548 -0.07 +0.23    -0.350 N  
DOCKED: ATOM     11  O   UNL     1     141.228  79.067 219.602 -0.13 +0.13    -0.273 OA 
DOCKED: ATOM     12  H   UNL     1     141.920  76.948 222.025 -0.49 -0.13    +0.163 HD 
DOCKED: BRANCH  10  13
DOCKED: ATOM     13  C   UNL     1     142.133  79.077 222.309 -0.40 -0.08    +0.151 C  
DOCKED: BRANCH  13  14
DOCKED: ATOM     14  C   UNL     1     140.929  79.891 222.623 -0.41 +0.01    -0.029 A  
DOCKED: ATOM     15  C   UNL     1     140.101  79.384 223.628 -0.46 -0.00    +0.005 A  
DOCKED: ATOM     16  C   UNL     1     140.626  81.072 221.977 -0.34 -0.00    +0.005 A  
DOCKED: ATOM     17  C   UNL     1     138.943  80.061 224.007 -0.41 -0.00    +0.000 A  
DOCKED: ATOM     18  C   UNL     1     139.486  81.744 222.347 -0.24 -0.00    +0.000 A  
DOCKED: ATOM     19  C   UNL     1     138.665  81.245 223.342 -0.30 -0.00    +0.000 A  
DOCKED: ENDBRANCH  13  14
DOCKED: ENDBRANCH  10  13
DOCKED: ENDBRANCH   6   9
DOCKED: ENDBRANCH   1   3
DOCKED: BRANCH   1  20
DOCKED: ATOM     20  C   UNL     1     139.374  74.062 221.240 -0.16 -0.04    +0.216 C  
DOCKED: BRANCH  20  21
DOCKED: ATOM     21  N   UNL     1     139.494  73.153 222.366 -0.13 +0.07    -0.342 N  
DOCKED: ATOM     22  C   UNL     1     139.450  71.739 222.209 -0.16 -0.05    +0.270 C  
DOCKED: ATOM     23  H   UNL     1     139.618  73.538 223.346 -0.44 -0.04    +0.164 HD 
DOCKED: ATOM     24  O   UNL     1     139.304  71.203 221.078 -0.06 +0.05    -0.268 OA 
DOCKED: BRANCH  22  25
DOCKED: ATOM     25  C   UNL     1     139.581  70.902 223.416 -0.27 -0.02    +0.128 A  
DOCKED: ATOM     26  C   UNL     1     139.148  69.591 223.383 -0.24 -0.01    +0.035 A  
DOCKED: ATOM     27  N   UNL     1     140.116  71.395 224.551 -0.29 +0.04    -0.243 NA 
DOCKED: ATOM     28  C   UNL     1     139.290  68.837 224.541 -0.34 -0.00    +0.013 A  
DOCKED: ATOM     29  C   UNL     1     140.255  70.668 225.674 -0.49 -0.01    +0.071 A  
DOCKED: ATOM     30  C   UNL     1     139.839  69.350 225.699 -0.46 -0.00    +0.003 A  
DOCKED: ATOM     31  C   UNL     1     140.821  71.259 226.808 -0.67 -0.01    +0.032 A  
DOCKED: ATOM     32  C   UNL     1     139.985  68.612 226.857 -0.58 -0.01    +0.049 A  
DOCKED: ATOM     33  C   UNL     1     140.972  70.524 227.973 -0.62 -0.01    +0.041 A  
DOCKED: ATOM     34  C   UNL     1     140.544  69.193 227.976 -0.53 -0.02    +0.123 A  
DOCKED: ATOM     35  F   UNL     1     140.692  68.475 229.120 -0.15 +0.05    -0.207 F  
DOCKED: ENDBRANCH  22  25
DOCKED: ENDBRANCH  20  21
DOCKED: ENDBRANCH   1  20
DOCKED: TORSDOF 7
DOCKED: TER
DOCKED: ENDMDL
________________________________________________________________________________


    FINAL DOCKED STATE:
    ________________________


Run:   14 / 20
Time taken for this run:   0.041s

DOCKED: MODEL        14
DOCKED: USER    Run = 14
DOCKED: USER
DOCKED: USER    Estimated Free Energy of Binding    =  -8.99 kcal/mol  [=(1)+(2)+(3)-(4)]
DOCKED: USER
DOCKED: USER    (1) Final Intermolecular Energy     = -11.08 kcal/mol
DOCKED: USER        vdW + Hbond + desolv Energy     = -11.00 kcal/mol
DOCKED: USER        Electrostatic Energy            =  -0.08 kcal/mol
DOCKED: USER        Moving Ligand-Fixed Receptor    = -11.08 kcal/mol
DOCKED: USER        Moving Ligand-Moving Receptor   =  +0.00 kcal/mol
DOCKED: USER    (2) Final Total Internal Energy     =  -2.81 kcal/mol
DOCKED: USER    (3) Torsional Free Energy           =  +2.09 kcal/mol
DOCKED: USER    (4) Unbound System's Energy         =  -2.81 kcal/mol
DOCKED: USER
DOCKED: USER
DOCKED: REMARK SMILES C[C@H]1CCN(C(=O)CNC(=O)c2ccc3cc(F)ccc3n2)[C@H]1C(=O)NCc1ccccc1
DOCKED: REMARK SMILES IDX 6 1 7 2 5 3 2 4 3 5 23 6 4 7 1 8 24 9 26 10 25 11 27 13
DOCKED: REMARK SMILES IDX 28 14 29 15 33 16 30 17 32 18 31 19 8 20 9 21 10 22 11 24
DOCKED: REMARK SMILES IDX 12 25 13 26 22 27 14 28 21 29 15 30 20 31 16 32 19 33 17 34
DOCKED: REMARK SMILES IDX 18 35
DOCKED: REMARK H PARENT 26 12 9 23
DOCKED: USER                              x       y       z     vdW  Elec       q    Type
DOCKED: USER                           _______ _______ _______ _____ _____    ______ ____
DOCKED: ROOT
DOCKED: ATOM      1  C   UNL     1     142.384  74.249 220.313 -0.18 -0.07    +0.242 C  
DOCKED: ATOM      2  O   UNL     1     143.260  74.082 221.213 -0.07 +0.08    -0.273 OA 
DOCKED: ENDROOT
DOCKED: BRANCH   1   3
DOCKED: ATOM      3  N   UNL     1     142.296  75.519 219.717 -0.11 +0.14    -0.329 N  
DOCKED: ATOM      4  C   UNL     1     141.456  77.227 218.272 -0.15 -0.01    +0.020 C  
DOCKED: ATOM      5  C   UNL     1     142.863  76.787 217.917 -0.28 -0.02    +0.027 C  
DOCKED: ATOM      6  C   UNL     1     141.077  76.247 219.353 -0.10 -0.07    +0.177 C  
DOCKED: ATOM      7  C   UNL     1     143.377  76.418 219.315 -0.32 -0.08    +0.121 C  
DOCKED: ATOM      8  C   UNL     1     141.583  78.648 218.783 -0.23 -0.01    +0.010 C  
DOCKED: BRANCH   6   9
DOCKED: ATOM      9  C   UNL     1     140.615  76.929 220.589 -0.14 -0.09    +0.243 C  
DOCKED: ATOM     10  N   UNL     1     141.366  76.633 221.785 -0.07 +0.17    -0.350 N  
DOCKED: ATOM     11  O   UNL     1     139.635  77.719 220.620 -0.06 +0.08    -0.273 OA 
DOCKED: ATOM     12  H   UNL     1     142.186  75.969 221.749 -0.52 -0.12    +0.163 HD 
DOCKED: BRANCH  10  13
DOCKED: ATOM     13  C   UNL     1     141.026  77.229 223.064 -0.01 -0.05    +0.151 C  
DOCKED: BRANCH  13  14
DOCKED: ATOM     14  C   UNL     1     141.281  78.693 223.095 -0.53 +0.01    -0.029 A  
DOCKED: ATOM     15  C   UNL     1     142.573  79.090 222.737 -0.50 -0.00    +0.005 A  
DOCKED: ATOM     16  C   UNL     1     140.324  79.620 223.453 -0.47 -0.00    +0.005 A  
DOCKED: ATOM     17  C   UNL     1     142.929  80.438 222.730 -0.62 -0.00    +0.000 A  
DOCKED: ATOM     18  C   UNL     1     140.669  80.949 223.448 -0.46 -0.00    +0.000 A  
DOCKED: ATOM     19  C   UNL     1     141.946  81.345 223.093 -0.56 -0.00    +0.000 A  
DOCKED: ENDBRANCH  13  14
DOCKED: ENDBRANCH  10  13
DOCKED: ENDBRANCH   6   9
DOCKED: ENDBRANCH   1   3
DOCKED: BRANCH   1  20
DOCKED: ATOM     20  C   UNL     1     141.467  73.178 219.872 -0.09 -0.04    +0.216 C  
DOCKED: BRANCH  20  21
DOCKED: ATOM     21  N   UNL     1     141.184  72.313 221.002 -0.09 +0.04    -0.342 N  
DOCKED: ATOM     22  C   UNL     1     140.511  72.779 222.168 -0.18 -0.02    +0.270 C  
DOCKED: ATOM     23  H   UNL     1     141.481  71.295 220.978 +0.05 -0.02    +0.164 HD 
DOCKED: ATOM     24  O   UNL     1     140.126  73.974 222.275 -0.83 +0.00    -0.268 OA 
DOCKED: BRANCH  22  25
DOCKED: ATOM     25  C   UNL     1     140.271  71.820 223.262 -0.31 -0.02    +0.128 A  
DOCKED: ATOM     26  C   UNL     1     139.570  70.658 223.005 -0.26 -0.01    +0.035 A  
DOCKED: ATOM     27  N   UNL     1     140.724  72.059 224.509 -0.10 +0.03    -0.243 NA 
DOCKED: ATOM     28  C   UNL     1     139.366  69.782 224.063 -0.31 -0.00    +0.013 A  
DOCKED: ATOM     29  C   UNL     1     140.528  71.213 225.536 -0.52 -0.01    +0.071 A  
DOCKED: ATOM     30  C   UNL     1     139.834  70.035 225.337 -0.45 -0.00    +0.003 A  
DOCKED: ATOM     31  C   UNL     1     141.033  71.540 226.800 -0.71 -0.01    +0.032 A  
DOCKED: ATOM     32  C   UNL     1     139.637  69.173 226.398 -0.48 -0.01    +0.049 A  
DOCKED: ATOM     33  C   UNL     1     140.841  70.679 227.868 -0.64 -0.01    +0.041 A  
DOCKED: ATOM     34  C   UNL     1     140.135  69.493 227.644 -0.51 -0.02    +0.123 A  
DOCKED: ATOM     35  F   UNL     1     139.947  68.651 228.694 -0.17 +0.04    -0.207 F  
DOCKED: ENDBRANCH  22  25
DOCKED: ENDBRANCH  20  21
DOCKED: ENDBRANCH   1  20
DOCKED: TORSDOF 7
DOCKED: TER
DOCKED: ENDMDL
________________________________________________________________________________


    FINAL DOCKED STATE:
    ________________________


Run:   15 / 20
Time taken for this run:   0.041s

DOCKED: MODEL        15
DOCKED: USER    Run = 15
DOCKED: USER
DOCKED: USER    Estimated Free Energy of Binding    =  -8.46 kcal/mol  [=(1)+(2)+(3)-(4)]
DOCKED: USER
DOCKED: USER    (1) Final Intermolecular Energy     = -10.55 kcal/mol
DOCKED: USER        vdW + Hbond + desolv Energy     = -10.55 kcal/mol
DOCKED: USER        Electrostatic Energy            =  +0.00 kcal/mol
DOCKED: USER        Moving Ligand-Fixed Receptor    = -10.55 kcal/mol
DOCKED: USER        Moving Ligand-Moving Receptor   =  +0.00 kcal/mol
DOCKED: USER    (2) Final Total Internal Energy     =  -2.70 kcal/mol
DOCKED: USER    (3) Torsional Free Energy           =  +2.09 kcal/mol
DOCKED: USER    (4) Unbound System's Energy         =  -2.70 kcal/mol
DOCKED: USER
DOCKED: USER
DOCKED: REMARK SMILES C[C@H]1CCN(C(=O)CNC(=O)c2ccc3cc(F)ccc3n2)[C@H]1C(=O)NCc1ccccc1
DOCKED: REMARK SMILES IDX 6 1 7 2 5 3 2 4 3 5 23 6 4 7 1 8 24 9 26 10 25 11 27 13
DOCKED: REMARK SMILES IDX 28 14 29 15 33 16 30 17 32 18 31 19 8 20 9 21 10 22 11 24
DOCKED: REMARK SMILES IDX 12 25 13 26 22 27 14 28 21 29 15 30 20 31 16 32 19 33 17 34
DOCKED: REMARK SMILES IDX 18 35
DOCKED: REMARK H PARENT 26 12 9 23
DOCKED: USER                              x       y       z     vdW  Elec       q    Type
DOCKED: USER                           _______ _______ _______ _____ _____    ______ ____
DOCKED: ROOT
DOCKED: ATOM      1  C   UNL     1     139.427  74.970 221.957 -0.20 -0.05    +0.242 C  
DOCKED: ATOM      2  O   UNL     1     140.456  75.613 222.319 -0.51 +0.04    -0.273 OA 
DOCKED: ENDROOT
DOCKED: BRANCH   1   3
DOCKED: ATOM      3  N   UNL     1     138.187  75.628 222.033 -0.13 +0.08    -0.329 N  
DOCKED: ATOM      4  C   UNL     1     136.227  76.536 223.055 -0.23 -0.00    +0.020 C  
DOCKED: ATOM      5  C   UNL     1     135.931  75.366 222.137 -0.14 -0.01    +0.027 C  
DOCKED: ATOM      6  C   UNL     1     137.735  76.554 223.075 -0.14 -0.04    +0.177 C  
DOCKED: ATOM      7  C   UNL     1     137.055  75.555 221.110 -0.09 -0.03    +0.121 C  
DOCKED: ATOM      8  C   UNL     1     135.632  77.754 222.379 -0.12 -0.00    +0.010 C  
DOCKED: BRANCH   6   9
DOCKED: ATOM      9  C   UNL     1     138.283  77.886 222.713 -0.18 -0.04    +0.243 C  
DOCKED: ATOM     10  N   UNL     1     139.168  77.911 221.575 -0.06 +0.08    -0.350 N  
DOCKED: ATOM     11  O   UNL     1     138.008  78.943 223.341 -0.17 +0.04    -0.273 OA 
DOCKED: ATOM     12  H   UNL     1     139.393  77.020 221.055 +0.05 -0.04    +0.163 HD 
DOCKED: BRANCH  10  13
DOCKED: ATOM     13  C   UNL     1     139.776  79.144 221.110 -0.13 -0.04    +0.151 C  
DOCKED: BRANCH  13  14
DOCKED: ATOM     14  C   UNL     1     140.742  79.707 222.090 -0.33 +0.01    -0.029 A  
DOCKED: ATOM     15  C   UNL     1     141.967  79.039 222.185 -0.49 -0.00    +0.005 A  
DOCKED: ATOM     16  C   UNL     1     140.471  80.813 222.868 -0.41 -0.00    +0.005 A  
DOCKED: ATOM     17  C   UNL     1     142.950  79.475 223.071 -0.55 -0.00    +0.000 A  
DOCKED: ATOM     18  C   UNL     1     141.438  81.248 223.742 -0.53 -0.00    +0.000 A  
DOCKED: ATOM     19  C   UNL     1     142.650  80.589 223.838 -0.68 -0.00    +0.000 A  
DOCKED: ENDBRANCH  13  14
DOCKED: ENDBRANCH  10  13
DOCKED: ENDBRANCH   6   9
DOCKED: ENDBRANCH   1   3
DOCKED: BRANCH   1  20
DOCKED: ATOM     20  C   UNL     1     139.478  73.578 221.465 -0.17 -0.04    +0.216 C  
DOCKED: BRANCH  20  21
DOCKED: ATOM     21  N   UNL     1     139.609  72.686 222.602 -0.14 +0.07    -0.342 N  
DOCKED: ATOM     22  C   UNL     1     139.325  71.294 222.513 -0.16 -0.05    +0.270 C  
DOCKED: ATOM     23  H   UNL     1     139.926  73.066 223.540 -0.32 -0.02    +0.164 HD 
DOCKED: ATOM     24  O   UNL     1     138.943  70.765 221.436 -0.06 +0.05    -0.268 OA 
DOCKED: BRANCH  22  25
DOCKED: ATOM     25  C   UNL     1     139.490  70.472 223.727 -0.27 -0.02    +0.128 A  
DOCKED: ATOM     26  C   UNL     1     139.048  69.164 223.726 -0.27 -0.01    +0.035 A  
DOCKED: ATOM     27  N   UNL     1     140.064  70.977 224.837 -0.29 +0.04    -0.243 NA 
DOCKED: ATOM     28  C   UNL     1     139.222  68.424 224.889 -0.40 -0.00    +0.013 A  
DOCKED: ATOM     29  C   UNL     1     140.234  70.264 225.965 -0.47 -0.01    +0.071 A  
DOCKED: ATOM     30  C   UNL     1     139.812  68.950 226.021 -0.51 -0.00    +0.003 A  
DOCKED: ATOM     31  C   UNL     1     140.840  70.868 227.072 -0.64 -0.01    +0.032 A  
DOCKED: ATOM     32  C   UNL     1     139.991  68.226 227.184 -0.62 -0.01    +0.049 A  
DOCKED: ATOM     33  C   UNL     1     141.024  70.147 228.241 -0.54 -0.01    +0.041 A  
DOCKED: ATOM     34  C   UNL     1     140.589  68.819 228.276 -0.55 -0.03    +0.123 A  
DOCKED: ATOM     35  F   UNL     1     140.769  68.116 229.425 -0.10 +0.05    -0.207 F  
DOCKED: ENDBRANCH  22  25
DOCKED: ENDBRANCH  20  21
DOCKED: ENDBRANCH   1  20
DOCKED: TORSDOF 7
DOCKED: TER
DOCKED: ENDMDL
________________________________________________________________________________


    FINAL DOCKED STATE:
    ________________________


Run:   16 / 20
Time taken for this run:   0.041s

DOCKED: MODEL        16
DOCKED: USER    Run = 16
DOCKED: USER
DOCKED: USER    Estimated Free Energy of Binding    =  -9.16 kcal/mol  [=(1)+(2)+(3)-(4)]
DOCKED: USER
DOCKED: USER    (1) Final Intermolecular Energy     = -11.25 kcal/mol
DOCKED: USER        vdW + Hbond + desolv Energy     = -11.17 kcal/mol
DOCKED: USER        Electrostatic Energy            =  -0.08 kcal/mol
DOCKED: USER        Moving Ligand-Fixed Receptor    = -11.25 kcal/mol
DOCKED: USER        Moving Ligand-Moving Receptor   =  +0.00 kcal/mol
DOCKED: USER    (2) Final Total Internal Energy     =  -2.67 kcal/mol
DOCKED: USER    (3) Torsional Free Energy           =  +2.09 kcal/mol
DOCKED: USER    (4) Unbound System's Energy         =  -2.67 kcal/mol
DOCKED: USER
DOCKED: USER
DOCKED: REMARK SMILES C[C@H]1CCN(C(=O)CNC(=O)c2ccc3cc(F)ccc3n2)[C@H]1C(=O)NCc1ccccc1
DOCKED: REMARK SMILES IDX 6 1 7 2 5 3 2 4 3 5 23 6 4 7 1 8 24 9 26 10 25 11 27 13
DOCKED: REMARK SMILES IDX 28 14 29 15 33 16 30 17 32 18 31 19 8 20 9 21 10 22 11 24
DOCKED: REMARK SMILES IDX 12 25 13 26 22 27 14 28 21 29 15 30 20 31 16 32 19 33 17 34
DOCKED: REMARK SMILES IDX 18 35
DOCKED: REMARK H PARENT 26 12 9 23
DOCKED: USER                              x       y       z     vdW  Elec       q    Type
DOCKED: USER                           _______ _______ _______ _____ _____    ______ ____
DOCKED: ROOT
DOCKED: ATOM      1  C   UNL     1     142.328  74.193 220.246 -0.17 -0.07    +0.242 C  
DOCKED: ATOM      2  O   UNL     1     143.267  73.932 221.055 -0.15 +0.07    -0.273 OA 
DOCKED: ENDROOT
DOCKED: BRANCH   1   3
DOCKED: ATOM      3  N   UNL     1     142.293  75.479 219.681 -0.11 +0.14    -0.329 N  
DOCKED: ATOM      4  C   UNL     1     141.543  77.248 218.260 -0.16 -0.01    +0.020 C  
DOCKED: ATOM      5  C   UNL     1     142.945  76.774 217.929 -0.29 -0.02    +0.027 C  
DOCKED: ATOM      6  C   UNL     1     141.106  76.252 219.305 -0.10 -0.07    +0.177 C  
DOCKED: ATOM      7  C   UNL     1     143.411  76.354 219.330 -0.32 -0.08    +0.121 C  
DOCKED: ATOM      8  C   UNL     1     141.698  78.651 218.811 -0.25 -0.01    +0.010 C  
DOCKED: BRANCH   6   9
DOCKED: ATOM      9  C   UNL     1     140.633  76.917 220.547 -0.14 -0.09    +0.243 C  
DOCKED: ATOM     10  N   UNL     1     141.374  76.606 221.745 -0.08 +0.17    -0.350 N  
DOCKED: ATOM     11  O   UNL     1     139.652  77.706 220.580 -0.06 +0.08    -0.273 OA 
DOCKED: ATOM     12  H   UNL     1     142.195  75.943 221.707 -0.52 -0.12    +0.163 HD 
DOCKED: BRANCH  10  13
DOCKED: ATOM     13  C   UNL     1     141.022  77.183 223.029 -0.02 -0.05    +0.151 C  
DOCKED: BRANCH  13  14
DOCKED: ATOM     14  C   UNL     1     141.279  78.647 223.084 -0.53 +0.01    -0.029 A  
DOCKED: ATOM     15  C   UNL     1     142.570  79.048 222.730 -0.48 -0.00    +0.005 A  
DOCKED: ATOM     16  C   UNL     1     140.323  79.568 223.458 -0.47 -0.00    +0.005 A  
DOCKED: ATOM     17  C   UNL     1     142.927  80.396 222.745 -0.63 -0.00    +0.000 A  
DOCKED: ATOM     18  C   UNL     1     140.669  80.898 223.473 -0.47 -0.00    +0.000 A  
DOCKED: ATOM     19  C   UNL     1     141.946  81.297 223.123 -0.57 -0.00    +0.000 A  
DOCKED: ENDBRANCH  13  14
DOCKED: ENDBRANCH  10  13
DOCKED: ENDBRANCH   6   9
DOCKED: ENDBRANCH   1   3
DOCKED: BRANCH   1  20
DOCKED: ATOM     20  C   UNL     1     141.285  73.213 219.879 -0.08 -0.04    +0.216 C  
DOCKED: BRANCH  20  21
DOCKED: ATOM     21  N   UNL     1     141.060  72.328 221.006 -0.09 +0.05    -0.342 N  
DOCKED: ATOM     22  C   UNL     1     140.418  72.764 222.200 -0.19 -0.02    +0.270 C  
DOCKED: ATOM     23  H   UNL     1     141.378  71.317 220.959 +0.05 -0.02    +0.164 HD 
DOCKED: ATOM     24  O   UNL     1     140.011  73.949 222.336 -0.84 +0.01    -0.268 OA 
DOCKED: BRANCH  22  25
DOCKED: ATOM     25  C   UNL     1     140.236  71.787 223.289 -0.31 -0.02    +0.128 A  
DOCKED: ATOM     26  C   UNL     1     139.598  70.590 223.028 -0.26 -0.01    +0.035 A  
DOCKED: ATOM     27  N   UNL     1     140.682  72.042 224.535 -0.13 +0.03    -0.243 NA 
DOCKED: ATOM     28  C   UNL     1     139.447  69.698 224.081 -0.31 -0.00    +0.013 A  
DOCKED: ATOM     29  C   UNL     1     140.538  71.180 225.558 -0.53 -0.01    +0.071 A  
DOCKED: ATOM     30  C   UNL     1     139.907  69.967 225.354 -0.45 -0.00    +0.003 A  
DOCKED: ATOM     31  C   UNL     1     141.030  71.526 226.821 -0.71 -0.01    +0.032 A  
DOCKED: ATOM     32  C   UNL     1     139.763  69.089 226.411 -0.49 -0.01    +0.049 A  
DOCKED: ATOM     33  C   UNL     1     140.891  70.649 227.884 -0.64 -0.01    +0.041 A  
DOCKED: ATOM     34  C   UNL     1     140.249  69.428 227.657 -0.51 -0.02    +0.123 A  
DOCKED: ATOM     35  F   UNL     1     140.113  68.571 228.702 -0.18 +0.04    -0.207 F  
DOCKED: ENDBRANCH  22  25
DOCKED: ENDBRANCH  20  21
DOCKED: ENDBRANCH   1  20
DOCKED: TORSDOF 7
DOCKED: TER
DOCKED: ENDMDL
________________________________________________________________________________


    FINAL DOCKED STATE:
    ________________________


Run:   17 / 20
Time taken for this run:   0.041s

DOCKED: MODEL        17
DOCKED: USER    Run = 17
DOCKED: USER
DOCKED: USER    Estimated Free Energy of Binding    =  -8.76 kcal/mol  [=(1)+(2)+(3)-(4)]
DOCKED: USER
DOCKED: USER    (1) Final Intermolecular Energy     = -10.85 kcal/mol
DOCKED: USER        vdW + Hbond + desolv Energy     = -10.78 kcal/mol
DOCKED: USER        Electrostatic Energy            =  -0.06 kcal/mol
DOCKED: USER        Moving Ligand-Fixed Receptor    = -10.85 kcal/mol
DOCKED: USER        Moving Ligand-Moving Receptor   =  +0.00 kcal/mol
DOCKED: USER    (2) Final Total Internal Energy     =  -2.83 kcal/mol
DOCKED: USER    (3) Torsional Free Energy           =  +2.09 kcal/mol
DOCKED: USER    (4) Unbound System's Energy         =  -2.83 kcal/mol
DOCKED: USER
DOCKED: USER
DOCKED: REMARK SMILES C[C@H]1CCN(C(=O)CNC(=O)c2ccc3cc(F)ccc3n2)[C@H]1C(=O)NCc1ccccc1
DOCKED: REMARK SMILES IDX 6 1 7 2 5 3 2 4 3 5 23 6 4 7 1 8 24 9 26 10 25 11 27 13
DOCKED: REMARK SMILES IDX 28 14 29 15 33 16 30 17 32 18 31 19 8 20 9 21 10 22 11 24
DOCKED: REMARK SMILES IDX 12 25 13 26 22 27 14 28 21 29 15 30 20 31 16 32 19 33 17 34
DOCKED: REMARK SMILES IDX 18 35
DOCKED: REMARK H PARENT 26 12 9 23
DOCKED: USER                              x       y       z     vdW  Elec       q    Type
DOCKED: USER                           _______ _______ _______ _____ _____    ______ ____
DOCKED: ROOT
DOCKED: ATOM      1  C   UNL     1     140.831  75.414 221.241 -0.23 -0.06    +0.242 C  
DOCKED: ATOM      2  O   UNL     1     141.034  75.843 222.416 -0.34 +0.06    -0.273 OA 
DOCKED: ENDROOT
DOCKED: BRANCH   1   3
DOCKED: ATOM      3  N   UNL     1     141.539  76.026 220.192 -0.10 +0.14    -0.329 N  
DOCKED: ATOM      4  C   UNL     1     141.900  76.975 218.029 -0.18 -0.01    +0.020 C  
DOCKED: ATOM      5  C   UNL     1     142.672  75.689 218.250 -0.21 -0.01    +0.027 C  
DOCKED: ATOM      6  C   UNL     1     141.049  77.055 219.271 -0.11 -0.07    +0.177 C  
DOCKED: ATOM      7  C   UNL     1     142.917  75.794 219.761 -0.30 -0.07    +0.121 C  
DOCKED: ATOM      8  C   UNL     1     142.939  78.075 217.953 -0.27 -0.01    +0.010 C  
DOCKED: BRANCH   6   9
DOCKED: ATOM      9  C   UNL     1     141.210  78.353 219.976 -0.15 -0.12    +0.243 C  
DOCKED: ATOM     10  N   UNL     1     141.926  78.302 221.227 -0.14 +0.23    -0.350 N  
DOCKED: ATOM     11  O   UNL     1     140.762  79.443 219.532 -0.08 +0.11    -0.273 OA 
DOCKED: ATOM     12  H   UNL     1     142.299  77.384 221.591 -0.47 -0.16    +0.163 HD 
DOCKED: BRANCH  10  13
DOCKED: ATOM     13  C   UNL     1     142.157  79.494 222.021 -0.39 -0.07    +0.151 C  
DOCKED: BRANCH  13  14
DOCKED: ATOM     14  C   UNL     1     140.899  80.063 222.572 -0.40 +0.01    -0.029 A  
DOCKED: ATOM     15  C   UNL     1     140.296  79.323 223.593 -0.46 -0.00    +0.005 A  
DOCKED: ATOM     16  C   UNL     1     140.341  81.242 222.121 -0.32 -0.00    +0.005 A  
DOCKED: ATOM     17  C   UNL     1     139.111  79.758 224.186 -0.37 -0.00    +0.000 A  
DOCKED: ATOM     18  C   UNL     1     139.174  81.675 222.702 -0.22 -0.00    +0.000 A  
DOCKED: ATOM     19  C   UNL     1     138.576  80.945 223.712 -0.36 -0.00    +0.000 A  
DOCKED: ENDBRANCH  13  14
DOCKED: ENDBRANCH  10  13
DOCKED: ENDBRANCH   6   9
DOCKED: ENDBRANCH   1   3
DOCKED: BRANCH   1  20
DOCKED: ATOM     20  C   UNL     1     139.895  74.313 220.935 -0.16 -0.04    +0.216 C  
DOCKED: BRANCH  20  21
DOCKED: ATOM     21  N   UNL     1     139.811  73.438 222.090 -0.15 +0.05    -0.342 N  
DOCKED: ATOM     22  C   UNL     1     140.019  72.032 221.995 -0.18 -0.04    +0.270 C  
DOCKED: ATOM     23  H   UNL     1     139.589  73.840 223.046 -0.48 -0.02    +0.164 HD 
DOCKED: ATOM     24  O   UNL     1     140.287  71.476 220.897 -0.08 +0.04    -0.268 OA 
DOCKED: BRANCH  22  25
DOCKED: ATOM     25  C   UNL     1     139.912  71.229 223.227 -0.29 -0.02    +0.128 A  
DOCKED: ATOM     26  C   UNL     1     139.327  69.980 223.175 -0.23 -0.01    +0.035 A  
DOCKED: ATOM     27  N   UNL     1     140.377  71.695 224.404 -0.28 +0.04    -0.243 NA 
DOCKED: ATOM     28  C   UNL     1     139.246  69.256 224.358 -0.33 -0.00    +0.013 A  
DOCKED: ATOM     29  C   UNL     1     140.300  70.998 225.552 -0.50 -0.01    +0.071 A  
DOCKED: ATOM     30  C   UNL     1     139.725  69.741 225.559 -0.45 -0.00    +0.003 A  
DOCKED: ATOM     31  C   UNL     1     140.807  71.557 226.730 -0.69 -0.01    +0.032 A  
DOCKED: ATOM     32  C   UNL     1     139.650  69.033 226.742 -0.51 -0.01    +0.049 A  
DOCKED: ATOM     33  C   UNL     1     140.737  70.852 227.920 -0.67 -0.01    +0.041 A  
DOCKED: ATOM     34  C   UNL     1     140.151  69.583 227.904 -0.52 -0.02    +0.123 A  
DOCKED: ATOM     35  F   UNL     1     140.083  68.894 229.073 -0.14 +0.04    -0.207 F  
DOCKED: ENDBRANCH  22  25
DOCKED: ENDBRANCH  20  21
DOCKED: ENDBRANCH   1  20
DOCKED: TORSDOF 7
DOCKED: TER
DOCKED: ENDMDL
________________________________________________________________________________


    FINAL DOCKED STATE:
    ________________________


Run:   18 / 20
Time taken for this run:   0.041s

DOCKED: MODEL        18
DOCKED: USER    Run = 18
DOCKED: USER
DOCKED: USER    Estimated Free Energy of Binding    =  -8.82 kcal/mol  [=(1)+(2)+(3)-(4)]
DOCKED: USER
DOCKED: USER    (1) Final Intermolecular Energy     = -10.91 kcal/mol
DOCKED: USER        vdW + Hbond + desolv Energy     = -10.80 kcal/mol
DOCKED: USER        Electrostatic Energy            =  -0.11 kcal/mol
DOCKED: USER        Moving Ligand-Fixed Receptor    = -10.91 kcal/mol
DOCKED: USER        Moving Ligand-Moving Receptor   =  +0.00 kcal/mol
DOCKED: USER    (2) Final Total Internal Energy     =  -2.58 kcal/mol
DOCKED: USER    (3) Torsional Free Energy           =  +2.09 kcal/mol
DOCKED: USER    (4) Unbound System's Energy         =  -2.58 kcal/mol
DOCKED: USER
DOCKED: USER
DOCKED: REMARK SMILES C[C@H]1CCN(C(=O)CNC(=O)c2ccc3cc(F)ccc3n2)[C@H]1C(=O)NCc1ccccc1
DOCKED: REMARK SMILES IDX 6 1 7 2 5 3 2 4 3 5 23 6 4 7 1 8 24 9 26 10 25 11 27 13
DOCKED: REMARK SMILES IDX 28 14 29 15 33 16 30 17 32 18 31 19 8 20 9 21 10 22 11 24
DOCKED: REMARK SMILES IDX 12 25 13 26 22 27 14 28 21 29 15 30 20 31 16 32 19 33 17 34
DOCKED: REMARK SMILES IDX 18 35
DOCKED: REMARK H PARENT 26 12 9 23
DOCKED: USER                              x       y       z     vdW  Elec       q    Type
DOCKED: USER                           _______ _______ _______ _____ _____    ______ ____
DOCKED: ROOT
DOCKED: ATOM      1  C   UNL     1     138.884  72.820 219.789 -0.02 -0.05    +0.242 C  
DOCKED: ATOM      2  O   UNL     1     138.506  72.318 218.689 -0.00 +0.05    -0.273 OA 
DOCKED: ENDROOT
DOCKED: BRANCH   1   3
DOCKED: ATOM      3  N   UNL     1     140.256  73.081 219.949 -0.02 +0.06    -0.329 N  
DOCKED: ATOM      4  C   UNL     1     142.360  74.150 219.574 -0.20 -0.01    +0.020 C  
DOCKED: ATOM      5  C   UNL     1     142.344  72.700 219.132 -0.11 -0.00    +0.027 C  
DOCKED: ATOM      6  C   UNL     1     140.918  74.388 219.946 -0.11 -0.04    +0.177 C  
DOCKED: ATOM      7  C   UNL     1     141.349  72.132 220.154 -0.12 -0.02    +0.121 C  
DOCKED: ATOM      8  C   UNL     1     143.294  74.210 220.765 -0.25 -0.00    +0.010 C  
DOCKED: BRANCH   6   9
DOCKED: ATOM      9  C   UNL     1     140.778  74.928 221.323 -0.22 -0.05    +0.243 C  
DOCKED: ATOM     10  N   UNL     1     140.907  76.359 221.451 -0.16 +0.13    -0.350 N  
DOCKED: ATOM     11  O   UNL     1     140.561  74.206 222.332 -0.75 -0.03    -0.273 OA 
DOCKED: ATOM     12  H   UNL     1     141.089  76.956 220.600 +0.06 -0.07    +0.163 HD 
DOCKED: BRANCH  10  13
DOCKED: ATOM     13  C   UNL     1     140.793  77.021 222.737 -0.22 -0.05    +0.151 C  
DOCKED: BRANCH  13  14
DOCKED: ATOM     14  C   UNL     1     141.405  78.376 222.735 -0.49 +0.01    -0.029 A  
DOCKED: ATOM     15  C   UNL     1     141.618  78.942 221.474 -0.39 -0.00    +0.005 A  
DOCKED: ATOM     16  C   UNL     1     141.753  79.050 223.888 -0.62 -0.00    +0.005 A  
DOCKED: ATOM     17  C   UNL     1     142.188  80.208 221.348 -0.41 -0.00    +0.000 A  
DOCKED: ATOM     18  C   UNL     1     142.314  80.299 223.769 -0.65 -0.00    +0.000 A  
DOCKED: ATOM     19  C   UNL     1     142.525  80.861 222.523 -0.54 -0.00    +0.000 A  
DOCKED: ENDBRANCH  13  14
DOCKED: ENDBRANCH  10  13
DOCKED: ENDBRANCH   6   9
DOCKED: ENDBRANCH   1   3
DOCKED: BRANCH   1  20
DOCKED: ATOM     20  C   UNL     1     137.954  73.137 220.892 -0.06 -0.05    +0.216 C  
DOCKED: BRANCH  20  21
DOCKED: ATOM     21  N   UNL     1     138.537  72.679 222.139 -0.08 +0.10    -0.342 N  
DOCKED: ATOM     22  C   UNL     1     138.848  71.310 222.375 -0.13 -0.06    +0.270 C  
DOCKED: ATOM     23  H   UNL     1     138.745  73.373 222.914 -0.50 -0.09    +0.164 HD 
DOCKED: ATOM     24  O   UNL     1     138.632  70.424 221.507 -0.06 +0.05    -0.268 OA 
DOCKED: BRANCH  22  25
DOCKED: ATOM     25  C   UNL     1     139.438  70.946 223.677 -0.29 -0.03    +0.128 A  
DOCKED: ATOM     26  C   UNL     1     140.319  71.815 224.290 -0.38 -0.01    +0.035 A  
DOCKED: ATOM     27  N   UNL     1     139.133  69.778 224.278 -0.17 +0.04    -0.243 NA 
DOCKED: ATOM     28  C   UNL     1     140.852  71.434 225.515 -0.58 -0.00    +0.013 A  
DOCKED: ATOM     29  C   UNL     1     139.647  69.406 225.464 -0.39 -0.01    +0.071 A  
DOCKED: ATOM     30  C   UNL     1     140.533  70.236 226.123 -0.55 -0.00    +0.003 A  
DOCKED: ATOM     31  C   UNL     1     139.275  68.175 226.016 -0.53 -0.00    +0.032 A  
DOCKED: ATOM     32  C   UNL     1     141.056  69.845 227.340 -0.54 -0.01    +0.049 A  
DOCKED: ATOM     33  C   UNL     1     139.795  67.777 227.237 -0.57 -0.01    +0.041 A  
DOCKED: ATOM     34  C   UNL     1     140.690  68.632 227.887 -0.55 -0.03    +0.123 A  
DOCKED: ATOM     35  F   UNL     1     141.199  68.239 229.083 -0.18 +0.05    -0.207 F  
DOCKED: ENDBRANCH  22  25
DOCKED: ENDBRANCH  20  21
DOCKED: ENDBRANCH   1  20
DOCKED: TORSDOF 7
DOCKED: TER
DOCKED: ENDMDL
________________________________________________________________________________


    FINAL DOCKED STATE:
    ________________________


Run:   19 / 20
Time taken for this run:   0.041s

DOCKED: MODEL        19
DOCKED: USER    Run = 19
DOCKED: USER
DOCKED: USER    Estimated Free Energy of Binding    =  -7.76 kcal/mol  [=(1)+(2)+(3)-(4)]
DOCKED: USER
DOCKED: USER    (1) Final Intermolecular Energy     =  -9.84 kcal/mol
DOCKED: USER        vdW + Hbond + desolv Energy     =  -9.88 kcal/mol
DOCKED: USER        Electrostatic Energy            =  +0.03 kcal/mol
DOCKED: USER        Moving Ligand-Fixed Receptor    =  -9.84 kcal/mol
DOCKED: USER        Moving Ligand-Moving Receptor   =  +0.00 kcal/mol
DOCKED: USER    (2) Final Total Internal Energy     =  -3.02 kcal/mol
DOCKED: USER    (3) Torsional Free Energy           =  +2.09 kcal/mol
DOCKED: USER    (4) Unbound System's Energy         =  -3.02 kcal/mol
DOCKED: USER
DOCKED: USER
DOCKED: REMARK SMILES C[C@H]1CCN(C(=O)CNC(=O)c2ccc3cc(F)ccc3n2)[C@H]1C(=O)NCc1ccccc1
DOCKED: REMARK SMILES IDX 6 1 7 2 5 3 2 4 3 5 23 6 4 7 1 8 24 9 26 10 25 11 27 13
DOCKED: REMARK SMILES IDX 28 14 29 15 33 16 30 17 32 18 31 19 8 20 9 21 10 22 11 24
DOCKED: REMARK SMILES IDX 12 25 13 26 22 27 14 28 21 29 15 30 20 31 16 32 19 33 17 34
DOCKED: REMARK SMILES IDX 18 35
DOCKED: REMARK H PARENT 26 12 9 23
DOCKED: USER                              x       y       z     vdW  Elec       q    Type
DOCKED: USER                           _______ _______ _______ _____ _____    ______ ____
DOCKED: ROOT
DOCKED: ATOM      1  C   UNL     1     138.950  74.719 220.617 -0.08 -0.05    +0.242 C  
DOCKED: ATOM      2  O   UNL     1     138.709  75.907 220.250 -0.03 +0.06    -0.273 OA 
DOCKED: ENDROOT
DOCKED: BRANCH   1   3
DOCKED: ATOM      3  N   UNL     1     140.295  74.315 220.675 -0.08 +0.07    -0.329 N  
DOCKED: ATOM      4  C   UNL     1     142.308  73.232 219.978 -0.20 -0.00    +0.020 C  
DOCKED: ATOM      5  C   UNL     1     141.725  72.642 221.248 -0.24 -0.00    +0.027 C  
DOCKED: ATOM      6  C   UNL     1     141.241  74.212 219.561 -0.09 -0.04    +0.177 C  
DOCKED: ATOM      7  C   UNL     1     141.075  73.900 221.840 -0.05 -0.00    +0.121 C  
DOCKED: ATOM      8  C   UNL     1     143.600  73.908 220.391 -0.37 -0.00    +0.010 C  
DOCKED: BRANCH   6   9
DOCKED: ATOM      9  C   UNL     1     141.787  75.578 219.352 -0.12 -0.09    +0.243 C  
DOCKED: ATOM     10  N   UNL     1     141.343  76.579 220.290 -0.09 +0.16    -0.350 N  
DOCKED: ATOM     11  O   UNL     1     142.588  75.870 218.425 -0.13 +0.13    -0.273 OA 
DOCKED: ATOM     12  H   UNL     1     140.671  76.324 221.064 +0.05 -0.05    +0.163 HD 
DOCKED: BRANCH  10  13
DOCKED: ATOM     13  C   UNL     1     141.796  77.955 220.206 -0.24 -0.09    +0.151 C  
DOCKED: BRANCH  13  14
DOCKED: ATOM     14  C   UNL     1     141.790  78.638 221.527 -0.39 +0.02    -0.029 A  
DOCKED: ATOM     15  C   UNL     1     142.210  79.972 221.521 -0.42 -0.00    +0.005 A  
DOCKED: ATOM     16  C   UNL     1     141.401  78.018 222.696 -0.44 -0.00    +0.005 A  
DOCKED: ATOM     17  C   UNL     1     142.247  80.713 222.700 -0.59 -0.00    +0.000 A  
DOCKED: ATOM     18  C   UNL     1     141.435  78.745 223.862 -0.57 -0.00    +0.000 A  
DOCKED: ATOM     19  C   UNL     1     141.850  80.064 223.858 -0.61 -0.00    +0.000 A  
DOCKED: ENDBRANCH  13  14
DOCKED: ENDBRANCH  10  13
DOCKED: ENDBRANCH   6   9
DOCKED: ENDBRANCH   1   3
DOCKED: BRANCH   1  20
DOCKED: ATOM     20  C   UNL     1     137.889  73.758 220.982 -0.08 -0.05    +0.216 C  
DOCKED: BRANCH  20  21
DOCKED: ATOM     21  N   UNL     1     138.344  72.968 222.111 -0.07 +0.10    -0.342 N  
DOCKED: ATOM     22  C   UNL     1     138.458  71.549 222.050 -0.10 -0.06    +0.270 C  
DOCKED: ATOM     23  H   UNL     1     138.606  73.445 223.021 -0.52 -0.10    +0.164 HD 
DOCKED: ATOM     24  O   UNL     1     138.167  70.907 221.006 -0.03 +0.05    -0.268 OA 
DOCKED: BRANCH  22  25
DOCKED: ATOM     25  C   UNL     1     138.930  70.838 223.252 -0.23 -0.03    +0.128 A  
DOCKED: ATOM     26  C   UNL     1     138.743  69.473 223.351 -0.24 -0.01    +0.035 A  
DOCKED: ATOM     27  N   UNL     1     139.541  71.498 224.257 -0.24 +0.06    -0.243 NA 
DOCKED: ATOM     28  C   UNL     1     139.203  68.842 224.499 -0.35 -0.00    +0.013 A  
DOCKED: ATOM     29  C   UNL     1     139.987  70.890 225.370 -0.46 -0.01    +0.071 A  
DOCKED: ATOM     30  C   UNL     1     139.828  69.526 225.523 -0.44 -0.00    +0.003 A  
DOCKED: ATOM     31  C   UNL     1     140.610  71.651 226.365 -0.60 -0.01    +0.032 A  
DOCKED: ATOM     32  C   UNL     1     140.289  68.910 226.671 -0.55 -0.01    +0.049 A  
DOCKED: ATOM     33  C   UNL     1     141.076  71.041 227.517 -0.67 -0.01    +0.041 A  
DOCKED: ATOM     34  C   UNL     1     140.904  69.659 227.652 -0.49 -0.02    +0.123 A  
DOCKED: ATOM     35  F   UNL     1     141.362  69.064 228.784 -0.14 +0.05    -0.207 F  
DOCKED: ENDBRANCH  22  25
DOCKED: ENDBRANCH  20  21
DOCKED: ENDBRANCH   1  20
DOCKED: TORSDOF 7
DOCKED: TER
DOCKED: ENDMDL
________________________________________________________________________________


    FINAL DOCKED STATE:
    ________________________


Run:   20 / 20
Time taken for this run:   0.041s

DOCKED: MODEL        20
DOCKED: USER    Run = 20
DOCKED: USER
DOCKED: USER    Estimated Free Energy of Binding    =  -8.49 kcal/mol  [=(1)+(2)+(3)-(4)]
DOCKED: USER
DOCKED: USER    (1) Final Intermolecular Energy     = -10.58 kcal/mol
DOCKED: USER        vdW + Hbond + desolv Energy     = -10.50 kcal/mol
DOCKED: USER        Electrostatic Energy            =  -0.08 kcal/mol
DOCKED: USER        Moving Ligand-Fixed Receptor    = -10.58 kcal/mol
DOCKED: USER        Moving Ligand-Moving Receptor   =  +0.00 kcal/mol
DOCKED: USER    (2) Final Total Internal Energy     =  -2.86 kcal/mol
DOCKED: USER    (3) Torsional Free Energy           =  +2.09 kcal/mol
DOCKED: USER    (4) Unbound System's Energy         =  -2.86 kcal/mol
DOCKED: USER
DOCKED: USER
DOCKED: REMARK SMILES C[C@H]1CCN(C(=O)CNC(=O)c2ccc3cc(F)ccc3n2)[C@H]1C(=O)NCc1ccccc1
DOCKED: REMARK SMILES IDX 6 1 7 2 5 3 2 4 3 5 23 6 4 7 1 8 24 9 26 10 25 11 27 13
DOCKED: REMARK SMILES IDX 28 14 29 15 33 16 30 17 32 18 31 19 8 20 9 21 10 22 11 24
DOCKED: REMARK SMILES IDX 12 25 13 26 22 27 14 28 21 29 15 30 20 31 16 32 19 33 17 34
DOCKED: REMARK SMILES IDX 18 35
DOCKED: REMARK H PARENT 26 12 9 23
DOCKED: USER                              x       y       z     vdW  Elec       q    Type
DOCKED: USER                           _______ _______ _______ _____ _____    ______ ____
DOCKED: ROOT
DOCKED: ATOM      1  C   UNL     1     138.613  72.814 219.914 -0.02 -0.05    +0.242 C  
DOCKED: ATOM      2  O   UNL     1     138.220  72.339 218.807 -0.00 +0.05    -0.273 OA 
DOCKED: ENDROOT
DOCKED: BRANCH   1   3
DOCKED: ATOM      3  N   UNL     1     139.976  73.131 220.040 -0.02 +0.06    -0.329 N  
DOCKED: ATOM      4  C   UNL     1     142.034  74.257 219.583 -0.18 -0.01    +0.020 C  
DOCKED: ATOM      5  C   UNL     1     142.065  72.787 219.209 -0.10 -0.00    +0.027 C  
DOCKED: ATOM      6  C   UNL     1     140.590  74.460 219.966 -0.09 -0.04    +0.177 C  
DOCKED: ATOM      7  C   UNL     1     141.106  72.233 220.272 -0.12 -0.02    +0.121 C  
DOCKED: ATOM      8  C   UNL     1     142.982  74.406 220.755 -0.24 -0.00    +0.010 C  
DOCKED: BRANCH   6   9
DOCKED: ATOM      9  C   UNL     1     140.450  75.058 221.319 -0.22 -0.05    +0.243 C  
DOCKED: ATOM     10  N   UNL     1     140.694  76.477 221.404 -0.15 +0.12    -0.350 N  
DOCKED: ATOM     11  O   UNL     1     140.139  74.394 222.342 -0.80 -0.00    -0.273 OA 
DOCKED: ATOM     12  H   UNL     1     140.954  77.027 220.540 +0.06 -0.07    +0.163 HD 
DOCKED: BRANCH  10  13
DOCKED: ATOM     13  C   UNL     1     140.593  77.193 222.662 -0.28 -0.04    +0.151 C  
DOCKED: BRANCH  13  14
DOCKED: ATOM     14  C   UNL     1     141.308  78.496 222.634 -0.47 +0.01    -0.029 A  
DOCKED: ATOM     15  C   UNL     1     141.813  78.936 223.862 -0.62 -0.00    +0.005 A  
DOCKED: ATOM     16  C   UNL     1     141.474  79.243 221.486 -0.38 -0.00    +0.005 A  
DOCKED: ATOM     17  C   UNL     1     142.501  80.145 223.958 -0.61 -0.00    +0.000 A  
DOCKED: ATOM     18  C   UNL     1     142.152  80.435 221.576 -0.45 -0.00    +0.000 A  
DOCKED: ATOM     19  C   UNL     1     142.653  80.872 222.788 -0.56 -0.00    +0.000 A  
DOCKED: ENDBRANCH  13  14
DOCKED: ENDBRANCH  10  13
DOCKED: ENDBRANCH   6   9
DOCKED: ENDBRANCH   1   3
DOCKED: BRANCH   1  20
DOCKED: ATOM     20  C   UNL     1     137.708  73.046 221.058 -0.06 -0.05    +0.216 C  
DOCKED: BRANCH  20  21
DOCKED: ATOM     21  N   UNL     1     138.248  72.371 222.223 -0.08 +0.09    -0.342 N  
DOCKED: ATOM     22  C   UNL     1     138.226  70.953 222.359 -0.10 -0.05    +0.270 C  
DOCKED: ATOM     23  H   UNL     1     138.677  72.935 223.012 -0.42 -0.08    +0.164 HD 
DOCKED: ATOM     24  O   UNL     1     137.734  70.212 221.468 -0.03 +0.05    -0.268 OA 
DOCKED: BRANCH  22  25
DOCKED: ATOM     25  C   UNL     1     138.800  70.363 223.583 -0.23 -0.02    +0.128 A  
DOCKED: ATOM     26  C   UNL     1     138.731  68.998 223.775 -0.28 -0.00    +0.035 A  
DOCKED: ATOM     27  N   UNL     1     139.393  71.135 224.516 -0.25 +0.05    -0.243 NA 
DOCKED: ATOM     28  C   UNL     1     139.284  68.483 224.941 -0.40 -0.00    +0.013 A  
DOCKED: ATOM     29  C   UNL     1     139.929  70.640 225.646 -0.46 -0.01    +0.071 A  
DOCKED: ATOM     30  C   UNL     1     139.888  69.281 225.891 -0.48 -0.00    +0.003 A  
DOCKED: ATOM     31  C   UNL     1     140.525  71.514 226.562 -0.63 -0.01    +0.032 A  
DOCKED: ATOM     32  C   UNL     1     140.442  68.782 227.054 -0.59 -0.01    +0.049 A  
DOCKED: ATOM     33  C   UNL     1     141.083  71.020 227.730 -0.67 -0.01    +0.041 A  
DOCKED: ATOM     34  C   UNL     1     141.030  69.642 227.959 -0.49 -0.02    +0.123 A  
DOCKED: ATOM     35  F   UNL     1     141.577  69.161 229.105 -0.07 +0.05    -0.207 F  
DOCKED: ENDBRANCH  22  25
DOCKED: ENDBRANCH  20  21
DOCKED: ENDBRANCH   1  20
DOCKED: TORSDOF 7
DOCKED: TER
DOCKED: ENDMDL
________________________________________________________________________________


    CLUSTERING HISTOGRAM
    ____________________


________________________________________________________________________________
     |           |     |           |     |
Clus | Lowest    | Run | Mean      | Num | Histogram
-ter | Binding   |     | Binding   | in  |
Rank | Energy    |     | Energy    | Clus|    5    10   15   20   25   30   35
_____|___________|_____|___________|_____|____:____|____:____|____:____|____:___
   1 |     -9.57 |  10 |     -8.69 |  17 |#################
   2 |     -8.46 |  15 |     -8.46 |   1 |#
   3 |     -8.09 |  11 |     -7.96 |   2 |##
_____|___________|_____|___________|_____|______________________________________


    RMSD TABLE
    __________


_______________________________________________________________________
     |      |      |           |         |                 |
Rank | Sub- | Run  | Binding   | Cluster | Reference       | Grep
     | Rank |      | Energy    | RMSD    | RMSD            | Pattern
_____|______|______|___________|_________|_________________|___________
   1      1     10       -9.57      0.00    270.63           RANKING
   1      2     16       -9.16      0.32    270.67           RANKING
   1      3      7       -9.06      0.37    270.68           RANKING
   1      4     14       -8.99      0.35    270.68           RANKING
   1      5      9       -8.94      1.49    270.50           RANKING
   1      6      1       -8.91      0.86    270.84           RANKING
   1      7      2       -8.83      1.53    270.55           RANKING
   1      8     18       -8.82      1.81    270.23           RANKING
   1      9     17       -8.76      1.55    270.60           RANKING
   1     10     13       -8.67      1.57    270.62           RANKING
   1     11      8       -8.59      1.52    270.61           RANKING
   1     12      3       -8.58      1.47    270.51           RANKING
   1     13     20       -8.49      1.86    270.18           RANKING
   1     14      6       -8.47      1.50    270.67           RANKING
   1     15      5       -8.11      1.42    270.54           RANKING
   1     16      4       -8.01      1.70    270.35           RANKING
   1     17     19       -7.76      1.77    270.20           RANKING
   2      1     15       -8.46      0.00    270.66           RANKING
   3      1     11       -8.09      0.00    270.45           RANKING
   3      2     12       -7.83      0.45    270.50           RANKING

Run time 0.769 sec
Idle time 0.000 sec
