AutoDock-GPU version: v1.6

**********************************************************
**    AutoDock-GPU AUTODOCKTOOLS-COMPATIBLE DLG FILE    **
**********************************************************


    DOCKING PARAMETERS
    ________________________


Ligand file:                               /home/a/REINVENT4/ReinventStudies/pleaseWork/justmol2mol_4_Compounds_ontop/graph-dock-amy28i/graph-DockGPU/node-autodockgpu/inputs/BCQDVOHYYXQUCC-SFPOKZFBNA-N.pdbqt
Grid fld file:                             /home/a/REINVENT4/ReinventStudies/mols/Rad51/maps/rad51_receptor.maps.fld

Random seed:                               42
Number of runs:                            20
Number of energy evaluations:              1132076
Number of generations:                     42000
Size of population:                        150
Rate of crossover:                         80.000000%
Tournament selection probability limit:    60.000000%
Rate of mutation:                          2.000000%
Maximal allowed delta movement:            +/- 6.000000A
Maximal allowed delta angle:               +/- 90.000000

Rate of local search:                      100.000000%
Maximal number of local search iterations: 300
Rho lower bound:                           0.010000
Spread of local search delta movement:     2.000000A
Spread of local search delta angle:        74.999999
Limit of consecutive successes/failures:   4

Handle symmetry during clustering:         YES
RMSD tolerance:                            2.000000A

Program call in command line was:          /home/a/REINVENT4/ReinventStudies/adgpu-v1.6_linux_x64_cuda12_128wi --filelist batch.txt --heuristics 1 --nrun 20 --psize 150 --lsit 300 --seed 42 --heurmax 12000000 


    GRID PARAMETERS
    ________________________


Receptor name:                             rad51_receptor
Number of grid points (x, y, z):           53, 53, 53
Grid center (x, y, z):                     139.950000, 75.640000, 221.970000A
Grid size (x, y, z):                       19.500000, 19.500000, 19.500000A
Grid spacing:                              0.375000A


    LIGAND PARAMETERS
    ________________________


Ligand name:                               /home/a/REINVENT4/ReinventStudies/pleaseWork/justmol2mol_4_Compounds_ontop/graph-dock-amy28i/graph-DockGPU/node-autodockgpu/inputs/BCQDVOHYYXQUCC-SFPOKZFBNA-N
Number of atoms:                           31
Number of rotatable bonds:                 5
Number of atom types:                      7


    DUMMY DATA (only for ADT-compatibility)
    ________________________


DPF> outlev 1
DPF> ga_run 20
DPF> fld /home/a/REINVENT4/ReinventStudies/mols/Rad51/maps/rad51_receptor.maps.fld
DPF> move /home/a/REINVENT4/ReinventStudies/pleaseWork/justmol2mol_4_Compounds_ontop/graph-dock-amy28i/graph-DockGPU/node-autodockgpu/inputs/BCQDVOHYYXQUCC-SFPOKZFBNA-N.pdbqt


    COUNTER STATES
    ________________________


Number of energy evaluations performed:    1137520
Number of generations used:                57


    INPUT LIGAND PDBQT FILE:
    ________________________


INPUT-LIGAND-PDBQT: REMARK SMILES O=C(NCC(=O)N1CCCC[C@H]1c1ccc(Cl)cc1)c1ccc2cc(Cl)ccc2n1
INPUT-LIGAND-PDBQT: REMARK SMILES IDX 4 1 3 2 2 3 1 4 20 6 21 7 30 8 22 9 29 10 23 11 28 12 24 13
INPUT-LIGAND-PDBQT: REMARK SMILES IDX 27 14 25 15 26 16 5 17 6 18 7 19 8 20 12 21 9 22 11 23 10 24
INPUT-LIGAND-PDBQT: REMARK SMILES IDX 13 25 14 26 19 27 15 28 18 29 16 30 17 31
INPUT-LIGAND-PDBQT: REMARK H PARENT 3 5
INPUT-LIGAND-PDBQT: ROOT
INPUT-LIGAND-PDBQT: ATOM      1  C   UNL     1      -1.227   0.816   2.486  1.00  0.00     0.216 C 
INPUT-LIGAND-PDBQT: ENDROOT
INPUT-LIGAND-PDBQT: BRANCH   1   2
INPUT-LIGAND-PDBQT: ATOM      2  N   UNL     1      -0.043   0.770   1.698  1.00  0.00    -0.342 N 
INPUT-LIGAND-PDBQT: ATOM      3  C   UNL     1       1.022   1.671   2.111  1.00  0.00     0.270 C 
INPUT-LIGAND-PDBQT: ATOM      4  O   UNL     1       0.798   2.398   3.115  1.00  0.00    -0.268 OA
INPUT-LIGAND-PDBQT: ATOM      5  H   UNL     1       0.184   0.198   0.883  1.00  0.00     0.164 HD
INPUT-LIGAND-PDBQT: BRANCH   3   6
INPUT-LIGAND-PDBQT: ATOM      6  C   UNL     1       2.271   1.695   1.368  1.00  0.00     0.128 A 
INPUT-LIGAND-PDBQT: ATOM      7  C   UNL     1       3.246   2.569   1.804  1.00  0.00     0.035 A 
INPUT-LIGAND-PDBQT: ATOM      8  N   UNL     1       2.516   0.921   0.295  1.00  0.00    -0.243 NA
INPUT-LIGAND-PDBQT: ATOM      9  C   UNL     1       4.447   2.648   1.155  1.00  0.00     0.013 A 
INPUT-LIGAND-PDBQT: ATOM     10  C   UNL     1       3.689   0.970  -0.372  1.00  0.00     0.071 A 
INPUT-LIGAND-PDBQT: ATOM     11  C   UNL     1       4.684   1.838   0.046  1.00  0.00     0.002 A 
INPUT-LIGAND-PDBQT: ATOM     12  C   UNL     1       3.895   0.161  -1.462  1.00  0.00     0.030 A 
INPUT-LIGAND-PDBQT: ATOM     13  C   UNL     1       5.903   1.925  -0.605  1.00  0.00     0.030 A 
INPUT-LIGAND-PDBQT: ATOM     14  C   UNL     1       5.101   0.223  -2.134  1.00  0.00     0.023 A 
INPUT-LIGAND-PDBQT: ATOM     15  C   UNL     1       6.102   1.100  -1.709  1.00  0.00     0.041 A 
INPUT-LIGAND-PDBQT: ATOM     16  Cl  UNL     1       7.647   1.186  -2.563  1.00  0.00    -0.084 Cl
INPUT-LIGAND-PDBQT: ENDBRANCH   3   6
INPUT-LIGAND-PDBQT: ENDBRANCH   1   2
INPUT-LIGAND-PDBQT: BRANCH   1  17
INPUT-LIGAND-PDBQT: ATOM     17  C   UNL     1      -2.358  -0.031   2.168  1.00  0.00     0.242 C 
INPUT-LIGAND-PDBQT: ATOM     18  O   UNL     1      -3.369   0.135   3.013  1.00  0.00    -0.273 OA
INPUT-LIGAND-PDBQT: BRANCH  17  19
INPUT-LIGAND-PDBQT: ATOM     19  N   UNL     1      -2.643  -0.976   1.194  1.00  0.00    -0.334 N 
INPUT-LIGAND-PDBQT: ATOM     20  C   UNL     1      -4.012  -1.599   1.338  1.00  0.00     0.120 C 
INPUT-LIGAND-PDBQT: ATOM     21  C   UNL     1      -1.917  -1.477   0.091  1.00  0.00     0.115 C 
INPUT-LIGAND-PDBQT: ATOM     22  C   UNL     1      -3.641  -3.013   1.776  1.00  0.00     0.022 C 
INPUT-LIGAND-PDBQT: ATOM     23  C   UNL     1      -2.489  -2.774  -0.462  1.00  0.00     0.030 C 
INPUT-LIGAND-PDBQT: ATOM     24  C   UNL     1      -3.102  -3.675   0.554  1.00  0.00     0.004 C 
INPUT-LIGAND-PDBQT: BRANCH  21  25
INPUT-LIGAND-PDBQT: ATOM     25  C   UNL     1      -1.834  -0.485  -1.004  1.00  0.00    -0.025 A 
INPUT-LIGAND-PDBQT: ATOM     26  C   UNL     1      -2.896   0.337  -1.359  1.00  0.00     0.007 A 
INPUT-LIGAND-PDBQT: ATOM     27  C   UNL     1      -0.680  -0.320  -1.773  1.00  0.00     0.007 A 
INPUT-LIGAND-PDBQT: ATOM     28  C   UNL     1      -2.823   1.249  -2.391  1.00  0.00     0.021 A 
INPUT-LIGAND-PDBQT: ATOM     29  C   UNL     1      -0.600   0.588  -2.804  1.00  0.00     0.021 A 
INPUT-LIGAND-PDBQT: ATOM     30  C   UNL     1      -1.670   1.390  -3.133  1.00  0.00     0.041 A 
INPUT-LIGAND-PDBQT: ATOM     31  Cl  UNL     1      -1.528   2.532  -4.451  1.00  0.00    -0.084 Cl
INPUT-LIGAND-PDBQT: ENDBRANCH  21  25
INPUT-LIGAND-PDBQT: ENDBRANCH  17  19
INPUT-LIGAND-PDBQT: ENDBRANCH   1  17
INPUT-LIGAND-PDBQT: TORSDOF 5


    FINAL DOCKED STATE:
    ________________________


Run:   1 / 20
Time taken for this run:   0.047s

DOCKED: MODEL        1
DOCKED: USER    Run = 1
DOCKED: USER
DOCKED: USER    Estimated Free Energy of Binding    =  -8.78 kcal/mol  [=(1)+(2)+(3)-(4)]
DOCKED: USER
DOCKED: USER    (1) Final Intermolecular Energy     = -10.28 kcal/mol
DOCKED: USER        vdW + Hbond + desolv Energy     = -10.28 kcal/mol
DOCKED: USER        Electrostatic Energy            =  +0.00 kcal/mol
DOCKED: USER        Moving Ligand-Fixed Receptor    = -10.28 kcal/mol
DOCKED: USER        Moving Ligand-Moving Receptor   =  +0.00 kcal/mol
DOCKED: USER    (2) Final Total Internal Energy     =  -1.48 kcal/mol
DOCKED: USER    (3) Torsional Free Energy           =  +1.49 kcal/mol
DOCKED: USER    (4) Unbound System's Energy         =  -1.48 kcal/mol
DOCKED: USER
DOCKED: USER
DOCKED: REMARK SMILES O=C(NCC(=O)N1CCCC[C@H]1c1ccc(Cl)cc1)c1ccc2cc(Cl)ccc2n1
DOCKED: REMARK SMILES IDX 4 1 3 2 2 3 1 4 20 6 21 7 30 8 22 9 29 10 23 11 28 12 24 13
DOCKED: REMARK SMILES IDX 27 14 25 15 26 16 5 17 6 18 7 19 8 20 12 21 9 22 11 23 10 24
DOCKED: REMARK SMILES IDX 13 25 14 26 19 27 15 28 18 29 16 30 17 31
DOCKED: REMARK H PARENT 3 5
DOCKED: USER                              x       y       z     vdW  Elec       q    Type
DOCKED: USER                           _______ _______ _______ _____ _____    ______ ____
DOCKED: ROOT
DOCKED: ATOM      1  C   UNL     1     139.417  74.915 220.935 -0.14 -0.05    +0.216 C  
DOCKED: ENDROOT
DOCKED: BRANCH   1   2
DOCKED: ATOM      2  N   UNL     1     139.531  74.125 222.113 -0.13 +0.06    -0.342 N  
DOCKED: ATOM      3  C   UNL     1     139.731  72.700 221.897 -0.18 -0.05    +0.270 C  
DOCKED: ATOM      4  O   UNL     1     139.784  72.305 220.702 -0.06 +0.05    -0.268 OA 
DOCKED: ATOM      5  H   UNL     1     139.498  74.399 223.096 -0.53 -0.02    +0.164 HD 
DOCKED: BRANCH   3   6
DOCKED: ATOM      6  C   UNL     1     139.860  71.811 223.040 -0.29 -0.02    +0.128 A  
DOCKED: ATOM      7  C   UNL     1     139.446  70.505 222.871 -0.23 -0.01    +0.035 A  
DOCKED: ATOM      8  N   UNL     1     140.354  72.194 224.231 -0.14 +0.04    -0.243 NA 
DOCKED: ATOM      9  C   UNL     1     139.535  69.611 223.902 -0.28 -0.00    +0.013 A  
DOCKED: ATOM     10  C   UNL     1     140.458  71.341 225.272 -0.49 -0.01    +0.071 A  
DOCKED: ATOM     11  C   UNL     1     140.050  70.025 225.129 -0.44 -0.00    +0.002 A  
DOCKED: ATOM     12  C   UNL     1     140.969  71.776 226.470 -0.68 -0.00    +0.030 A  
DOCKED: ATOM     13  C   UNL     1     140.137  69.113 226.167 -0.50 -0.01    +0.030 A  
DOCKED: ATOM     14  C   UNL     1     141.069  70.890 227.526 -0.66 -0.00    +0.023 A  
DOCKED: ATOM     15  C   UNL     1     140.657  69.564 227.377 -0.57 -0.01    +0.041 A  
DOCKED: ATOM     16  Cl  UNL     1     140.781  68.425 228.723 -0.69 +0.02    -0.084 Cl 
DOCKED: ENDBRANCH   3   6
DOCKED: ENDBRANCH   1   2
DOCKED: BRANCH   1  17
DOCKED: ATOM     17  C   UNL     1     138.625  76.128 220.934 -0.09 -0.05    +0.242 C  
DOCKED: ATOM     18  O   UNL     1     138.509  76.656 219.722 -0.02 +0.06    -0.273 OA 
DOCKED: BRANCH  17  19
DOCKED: ATOM     19  N   UNL     1     137.958  76.874 221.894 -0.10 +0.07    -0.334 N  
DOCKED: ATOM     20  C   UNL     1     137.283  76.033 222.953 -0.20 -0.03    +0.120 C  
DOCKED: ATOM     21  C   UNL     1     137.779  78.261 222.088 -0.16 -0.02    +0.115 C  
DOCKED: ATOM     22  C   UNL     1     135.814  76.250 222.600 -0.18 -0.00    +0.022 C  
DOCKED: ATOM     23  C   UNL     1     136.656  78.589 223.060 -0.15 -0.00    +0.030 C  
DOCKED: ATOM     24  C   UNL     1     135.506  77.641 223.036 -0.16 -0.00    +0.004 C  
DOCKED: BRANCH  21  25
DOCKED: ATOM     25  C   UNL     1     139.023  78.912 222.557 -0.28 +0.00    -0.025 A  
DOCKED: ATOM     26  C   UNL     1     139.091  80.259 222.888 -0.32 -0.00    +0.007 A  
DOCKED: ATOM     27  C   UNL     1     140.227  78.214 222.682 -0.40 -0.00    +0.007 A  
DOCKED: ATOM     28  C   UNL     1     140.255  80.868 223.309 -0.41 -0.00    +0.021 A  
DOCKED: ATOM     29  C   UNL     1     141.392  78.815 223.102 -0.54 -0.01    +0.021 A  
DOCKED: ATOM     30  C   UNL     1     141.429  80.153 223.423 -0.53 -0.01    +0.041 A  
DOCKED: ATOM     31  Cl  UNL     1     142.930  80.879 223.952 -0.72 +0.01    -0.084 Cl 
DOCKED: ENDBRANCH  21  25
DOCKED: ENDBRANCH  17  19
DOCKED: ENDBRANCH   1  17
DOCKED: TORSDOF 5
DOCKED: TER
DOCKED: ENDMDL
________________________________________________________________________________


    FINAL DOCKED STATE:
    ________________________


Run:   2 / 20
Time taken for this run:   0.047s

DOCKED: MODEL        2
DOCKED: USER    Run = 2
DOCKED: USER
DOCKED: USER    Estimated Free Energy of Binding    =  -8.77 kcal/mol  [=(1)+(2)+(3)-(4)]
DOCKED: USER
DOCKED: USER    (1) Final Intermolecular Energy     = -10.26 kcal/mol
DOCKED: USER        vdW + Hbond + desolv Energy     = -10.28 kcal/mol
DOCKED: USER        Electrostatic Energy            =  +0.02 kcal/mol
DOCKED: USER        Moving Ligand-Fixed Receptor    = -10.26 kcal/mol
DOCKED: USER        Moving Ligand-Moving Receptor   =  +0.00 kcal/mol
DOCKED: USER    (2) Final Total Internal Energy     =  -1.51 kcal/mol
DOCKED: USER    (3) Torsional Free Energy           =  +1.49 kcal/mol
DOCKED: USER    (4) Unbound System's Energy         =  -1.51 kcal/mol
DOCKED: USER
DOCKED: USER
DOCKED: REMARK SMILES O=C(NCC(=O)N1CCCC[C@H]1c1ccc(Cl)cc1)c1ccc2cc(Cl)ccc2n1
DOCKED: REMARK SMILES IDX 4 1 3 2 2 3 1 4 20 6 21 7 30 8 22 9 29 10 23 11 28 12 24 13
DOCKED: REMARK SMILES IDX 27 14 25 15 26 16 5 17 6 18 7 19 8 20 12 21 9 22 11 23 10 24
DOCKED: REMARK SMILES IDX 13 25 14 26 19 27 15 28 18 29 16 30 17 31
DOCKED: REMARK H PARENT 3 5
DOCKED: USER                              x       y       z     vdW  Elec       q    Type
DOCKED: USER                           _______ _______ _______ _____ _____    ______ ____
DOCKED: ROOT
DOCKED: ATOM      1  C   UNL     1     139.000  74.549 220.982 -0.12 -0.05    +0.216 C  
DOCKED: ENDROOT
DOCKED: BRANCH   1   2
DOCKED: ATOM      2  N   UNL     1     139.269  73.782 222.150 -0.11 +0.08    -0.342 N  
DOCKED: ATOM      3  C   UNL     1     139.252  72.338 221.971 -0.15 -0.06    +0.270 C  
DOCKED: ATOM      4  O   UNL     1     139.004  71.909 220.813 -0.04 +0.05    -0.268 OA 
DOCKED: ATOM      5  H   UNL     1     139.477  74.084 223.104 -0.53 -0.03    +0.164 HD 
DOCKED: BRANCH   3   6
DOCKED: ATOM      6  C   UNL     1     139.516  71.470 223.107 -0.27 -0.03    +0.128 A  
DOCKED: ATOM      7  C   UNL     1     139.172  70.140 222.976 -0.22 -0.01    +0.035 A  
DOCKED: ATOM      8  N   UNL     1     140.067  71.895 224.259 -0.24 +0.05    -0.243 NA 
DOCKED: ATOM      9  C   UNL     1     139.390  69.263 224.002 -0.28 -0.00    +0.013 A  
DOCKED: ATOM     10  C   UNL     1     140.297  71.060 225.295 -0.49 -0.01    +0.071 A  
DOCKED: ATOM     11  C   UNL     1     139.963  69.720 225.188 -0.42 -0.00    +0.002 A  
DOCKED: ATOM     12  C   UNL     1     140.862  71.538 226.451 -0.67 -0.00    +0.030 A  
DOCKED: ATOM     13  C   UNL     1     140.179  68.825 226.222 -0.53 -0.01    +0.030 A  
DOCKED: ATOM     14  C   UNL     1     141.092  70.671 227.502 -0.62 -0.00    +0.023 A  
DOCKED: ATOM     15  C   UNL     1     140.753  69.320 227.390 -0.57 -0.01    +0.041 A  
DOCKED: ATOM     16  Cl  UNL     1     141.042  68.204 228.730 -0.69 +0.02    -0.084 Cl 
DOCKED: ENDBRANCH   3   6
DOCKED: ENDBRANCH   1   2
DOCKED: BRANCH   1  17
DOCKED: ATOM     17  C   UNL     1     138.722  75.967 221.079 -0.11 -0.05    +0.242 C  
DOCKED: ATOM     18  O   UNL     1     139.227  76.653 220.060 -0.03 +0.07    -0.273 OA 
DOCKED: BRANCH  17  19
DOCKED: ATOM     19  N   UNL     1     138.056  76.785 221.979 -0.11 +0.07    -0.334 N  
DOCKED: ATOM     20  C   UNL     1     137.340  76.025 223.072 -0.18 -0.03    +0.120 C  
DOCKED: ATOM     21  C   UNL     1     137.909  78.186 222.087 -0.17 -0.02    +0.115 C  
DOCKED: ATOM     22  C   UNL     1     135.884  76.256 222.677 -0.19 -0.00    +0.022 C  
DOCKED: ATOM     23  C   UNL     1     136.775  78.598 223.015 -0.15 -0.00    +0.030 C  
DOCKED: ATOM     24  C   UNL     1     135.603  77.678 223.024 -0.16 -0.00    +0.004 C  
DOCKED: BRANCH  21  25
DOCKED: ATOM     25  C   UNL     1     139.160  78.832 222.542 -0.28 +0.00    -0.025 A  
DOCKED: ATOM     26  C   UNL     1     140.362  78.147 222.665 -0.41 -0.00    +0.007 A  
DOCKED: ATOM     27  C   UNL     1     139.212  80.181 222.901 -0.33 -0.00    +0.007 A  
DOCKED: ATOM     28  C   UNL     1     141.523  78.747 223.106 -0.55 -0.01    +0.021 A  
DOCKED: ATOM     29  C   UNL     1     140.367  80.786 223.341 -0.43 -0.00    +0.021 A  
DOCKED: ATOM     30  C   UNL     1     141.545  80.081 223.452 -0.55 -0.01    +0.041 A  
DOCKED: ATOM     31  Cl  UNL     1     142.991  80.887 224.016 -0.66 +0.01    -0.084 Cl 
DOCKED: ENDBRANCH  21  25
DOCKED: ENDBRANCH  17  19
DOCKED: ENDBRANCH   1  17
DOCKED: TORSDOF 5
DOCKED: TER
DOCKED: ENDMDL
________________________________________________________________________________


    FINAL DOCKED STATE:
    ________________________


Run:   3 / 20
Time taken for this run:   0.047s

DOCKED: MODEL        3
DOCKED: USER    Run = 3
DOCKED: USER
DOCKED: USER    Estimated Free Energy of Binding    =  -8.59 kcal/mol  [=(1)+(2)+(3)-(4)]
DOCKED: USER
DOCKED: USER    (1) Final Intermolecular Energy     = -10.09 kcal/mol
DOCKED: USER        vdW + Hbond + desolv Energy     =  -9.98 kcal/mol
DOCKED: USER        Electrostatic Energy            =  -0.10 kcal/mol
DOCKED: USER        Moving Ligand-Fixed Receptor    = -10.09 kcal/mol
DOCKED: USER        Moving Ligand-Moving Receptor   =  +0.00 kcal/mol
DOCKED: USER    (2) Final Total Internal Energy     =  -1.73 kcal/mol
DOCKED: USER    (3) Torsional Free Energy           =  +1.49 kcal/mol
DOCKED: USER    (4) Unbound System's Energy         =  -1.73 kcal/mol
DOCKED: USER
DOCKED: USER
DOCKED: REMARK SMILES O=C(NCC(=O)N1CCCC[C@H]1c1ccc(Cl)cc1)c1ccc2cc(Cl)ccc2n1
DOCKED: REMARK SMILES IDX 4 1 3 2 2 3 1 4 20 6 21 7 30 8 22 9 29 10 23 11 28 12 24 13
DOCKED: REMARK SMILES IDX 27 14 25 15 26 16 5 17 6 18 7 19 8 20 12 21 9 22 11 23 10 24
DOCKED: REMARK SMILES IDX 13 25 14 26 19 27 15 28 18 29 16 30 17 31
DOCKED: REMARK H PARENT 3 5
DOCKED: USER                              x       y       z     vdW  Elec       q    Type
DOCKED: USER                           _______ _______ _______ _____ _____    ______ ____
DOCKED: ROOT
DOCKED: ATOM      1  C   UNL     1     138.523  74.422 220.937 -0.10 -0.05    +0.216 C  
DOCKED: ENDROOT
DOCKED: BRANCH   1   2
DOCKED: ATOM      2  N   UNL     1     138.695  73.630 222.106 -0.06 +0.10    -0.342 N  
DOCKED: ATOM      3  C   UNL     1     139.413  72.378 221.916 -0.16 -0.05    +0.270 C  
DOCKED: ATOM      4  O   UNL     1     139.808  72.118 220.749 -0.06 +0.05    -0.268 OA 
DOCKED: ATOM      5  H   UNL     1     138.398  73.801 223.068 -0.54 -0.12    +0.164 HD 
DOCKED: BRANCH   3   6
DOCKED: ATOM      6  C   UNL     1     139.640  71.501 223.053 -0.28 -0.02    +0.128 A  
DOCKED: ATOM      7  C   UNL     1     139.286  70.175 222.905 -0.22 -0.01    +0.035 A  
DOCKED: ATOM      8  N   UNL     1     140.167  71.913 224.220 -0.25 +0.05    -0.243 NA 
DOCKED: ATOM      9  C   UNL     1     139.469  69.290 223.931 -0.25 -0.00    +0.013 A  
DOCKED: ATOM     10  C   UNL     1     140.364  71.069 225.256 -0.49 -0.01    +0.071 A  
DOCKED: ATOM     11  C   UNL     1     140.018  69.734 225.133 -0.42 -0.00    +0.002 A  
DOCKED: ATOM     12  C   UNL     1     140.905  71.534 226.429 -0.67 -0.00    +0.030 A  
DOCKED: ATOM     13  C   UNL     1     140.199  68.830 226.166 -0.52 -0.01    +0.030 A  
DOCKED: ATOM     14  C   UNL     1     141.100  70.658 227.480 -0.61 -0.00    +0.023 A  
DOCKED: ATOM     15  C   UNL     1     140.750  69.312 227.351 -0.57 -0.01    +0.041 A  
DOCKED: ATOM     16  Cl  UNL     1     140.995  68.185 228.690 -0.69 +0.02    -0.084 Cl 
DOCKED: ENDBRANCH   3   6
DOCKED: ENDBRANCH   1   2
DOCKED: BRANCH   1  17
DOCKED: ATOM     17  C   UNL     1     138.783  75.847 220.967 -0.11 -0.05    +0.242 C  
DOCKED: ATOM     18  O   UNL     1     137.720  76.564 220.621 -0.03 +0.06    -0.273 OA 
DOCKED: BRANCH  17  19
DOCKED: ATOM     19  N   UNL     1     139.876  76.646 221.268 -0.10 +0.09    -0.334 N  
DOCKED: ATOM     20  C   UNL     1     139.830  77.233 222.660 -0.20 -0.03    +0.120 C  
DOCKED: ATOM     21  C   UNL     1     141.026  77.025 220.542 -0.22 -0.05    +0.115 C  
DOCKED: ATOM     22  C   UNL     1     139.576  78.705 222.344 -0.30 -0.00    +0.022 C  
DOCKED: ATOM     23  C   UNL     1     141.750  78.218 221.149 -0.32 -0.02    +0.030 C  
DOCKED: ATOM     24  C   UNL     1     140.868  79.221 221.808 -0.36 -0.00    +0.004 C  
DOCKED: BRANCH  21  25
DOCKED: ATOM     25  C   UNL     1     141.981  75.903 220.408 -0.27 +0.01    -0.025 A  
DOCKED: ATOM     26  C   UNL     1     141.753  74.648 220.959 -0.29 -0.00    +0.007 A  
DOCKED: ATOM     27  C   UNL     1     143.195  76.035 219.729 -0.40 -0.00    +0.007 A  
DOCKED: ATOM     28  C   UNL     1     142.652  73.608 220.848 -0.26 -0.00    +0.021 A  
DOCKED: ATOM     29  C   UNL     1     144.096  75.002 219.615 -0.33 -0.01    +0.021 A  
DOCKED: ATOM     30  C   UNL     1     143.842  73.768 220.172 -0.36 -0.01    +0.041 A  
DOCKED: ATOM     31  Cl  UNL     1     145.014  72.480 220.004 -0.53 -0.00    -0.084 Cl 
DOCKED: ENDBRANCH  21  25
DOCKED: ENDBRANCH  17  19
DOCKED: ENDBRANCH   1  17
DOCKED: TORSDOF 5
DOCKED: TER
DOCKED: ENDMDL
________________________________________________________________________________


    FINAL DOCKED STATE:
    ________________________


Run:   4 / 20
Time taken for this run:   0.047s

DOCKED: MODEL        4
DOCKED: USER    Run = 4
DOCKED: USER
DOCKED: USER    Estimated Free Energy of Binding    =  -8.04 kcal/mol  [=(1)+(2)+(3)-(4)]
DOCKED: USER
DOCKED: USER    (1) Final Intermolecular Energy     =  -9.53 kcal/mol
DOCKED: USER        vdW + Hbond + desolv Energy     =  -9.47 kcal/mol
DOCKED: USER        Electrostatic Energy            =  -0.06 kcal/mol
DOCKED: USER        Moving Ligand-Fixed Receptor    =  -9.53 kcal/mol
DOCKED: USER        Moving Ligand-Moving Receptor   =  +0.00 kcal/mol
DOCKED: USER    (2) Final Total Internal Energy     =  -1.90 kcal/mol
DOCKED: USER    (3) Torsional Free Energy           =  +1.49 kcal/mol
DOCKED: USER    (4) Unbound System's Energy         =  -1.90 kcal/mol
DOCKED: USER
DOCKED: USER
DOCKED: REMARK SMILES O=C(NCC(=O)N1CCCC[C@H]1c1ccc(Cl)cc1)c1ccc2cc(Cl)ccc2n1
DOCKED: REMARK SMILES IDX 4 1 3 2 2 3 1 4 20 6 21 7 30 8 22 9 29 10 23 11 28 12 24 13
DOCKED: REMARK SMILES IDX 27 14 25 15 26 16 5 17 6 18 7 19 8 20 12 21 9 22 11 23 10 24
DOCKED: REMARK SMILES IDX 13 25 14 26 19 27 15 28 18 29 16 30 17 31
DOCKED: REMARK H PARENT 3 5
DOCKED: USER                              x       y       z     vdW  Elec       q    Type
DOCKED: USER                           _______ _______ _______ _____ _____    ______ ____
DOCKED: ROOT
DOCKED: ATOM      1  C   UNL     1     138.104  74.255 220.799 -0.08 -0.05    +0.216 C  
DOCKED: ENDROOT
DOCKED: BRANCH   1   2
DOCKED: ATOM      2  N   UNL     1     138.377  73.534 221.996 -0.08 +0.10    -0.342 N  
DOCKED: ATOM      3  C   UNL     1     138.944  72.207 221.814 -0.12 -0.06    +0.270 C  
DOCKED: ATOM      4  O   UNL     1     139.138  71.826 220.629 -0.04 +0.05    -0.268 OA 
DOCKED: ATOM      5  H   UNL     1     138.241  73.802 222.972 -0.54 -0.11    +0.164 HD 
DOCKED: BRANCH   3   6
DOCKED: ATOM      6  C   UNL     1     139.258  71.395 222.978 -0.24 -0.03    +0.128 A  
DOCKED: ATOM      7  C   UNL     1     138.892  70.065 222.935 -0.21 -0.01    +0.035 A  
DOCKED: ATOM      8  N   UNL     1     139.877  71.870 224.074 -0.23 +0.06    -0.243 NA 
DOCKED: ATOM      9  C   UNL     1     139.154  69.239 223.992 -0.30 -0.00    +0.013 A  
DOCKED: ATOM     10  C   UNL     1     140.153  71.086 225.138 -0.47 -0.01    +0.071 A  
DOCKED: ATOM     11  C   UNL     1     139.796  69.747 225.120 -0.42 -0.00    +0.002 A  
DOCKED: ATOM     12  C   UNL     1     140.786  71.614 226.236 -0.63 -0.00    +0.030 A  
DOCKED: ATOM     13  C   UNL     1     140.057  68.903 226.186 -0.51 -0.01    +0.030 A  
DOCKED: ATOM     14  C   UNL     1     141.061  70.798 227.317 -0.64 -0.00    +0.023 A  
DOCKED: ATOM     15  C   UNL     1     140.700  69.449 227.294 -0.57 -0.01    +0.041 A  
DOCKED: ATOM     16  Cl  UNL     1     141.048  68.399 228.673 -0.71 +0.02    -0.084 Cl 
DOCKED: ENDBRANCH   3   6
DOCKED: ENDBRANCH   1   2
DOCKED: BRANCH   1  17
DOCKED: ATOM     17  C   UNL     1     139.170  74.580 219.874 -0.04 -0.05    +0.242 C  
DOCKED: ATOM     18  O   UNL     1     138.716  74.879 218.663 -0.01 +0.06    -0.273 OA 
DOCKED: BRANCH  17  19
DOCKED: ATOM     19  N   UNL     1     140.552  74.654 219.946 -0.03 +0.08    -0.334 N  
DOCKED: ATOM     20  C   UNL     1     141.241  74.394 218.626 -0.05 -0.03    +0.120 C  
DOCKED: ATOM     21  C   UNL     1     141.453  74.925 220.999 -0.26 -0.03    +0.115 C  
DOCKED: ATOM     22  C   UNL     1     141.881  73.036 218.897 -0.08 -0.00    +0.022 C  
DOCKED: ATOM     23  C   UNL     1     142.885  74.521 220.680 -0.25 -0.01    +0.030 C  
DOCKED: ATOM     24  C   UNL     1     143.021  73.315 219.817 -0.25 -0.00    +0.004 C  
DOCKED: BRANCH  21  25
DOCKED: ATOM     25  C   UNL     1     141.433  76.355 221.380 -0.23 +0.01    -0.025 A  
DOCKED: ATOM     26  C   UNL     1     141.823  77.372 220.518 -0.31 -0.00    +0.007 A  
DOCKED: ATOM     27  C   UNL     1     141.034  76.781 222.649 -0.35 -0.00    +0.007 A  
DOCKED: ATOM     28  C   UNL     1     141.820  78.702 220.880 -0.33 -0.01    +0.021 A  
DOCKED: ATOM     29  C   UNL     1     141.028  78.107 223.018 -0.47 -0.01    +0.021 A  
DOCKED: ATOM     30  C   UNL     1     141.421  79.093 222.140 -0.42 -0.02    +0.041 A  
DOCKED: ATOM     31  Cl  UNL     1     141.400  80.768 222.648 -0.61 +0.02    -0.084 Cl 
DOCKED: ENDBRANCH  21  25
DOCKED: ENDBRANCH  17  19
DOCKED: ENDBRANCH   1  17
DOCKED: TORSDOF 5
DOCKED: TER
DOCKED: ENDMDL
________________________________________________________________________________


    FINAL DOCKED STATE:
    ________________________


Run:   5 / 20
Time taken for this run:   0.047s

DOCKED: MODEL        5
DOCKED: USER    Run = 5
DOCKED: USER
DOCKED: USER    Estimated Free Energy of Binding    =  -8.45 kcal/mol  [=(1)+(2)+(3)-(4)]
DOCKED: USER
DOCKED: USER    (1) Final Intermolecular Energy     =  -9.94 kcal/mol
DOCKED: USER        vdW + Hbond + desolv Energy     =  -9.88 kcal/mol
DOCKED: USER        Electrostatic Energy            =  -0.06 kcal/mol
DOCKED: USER        Moving Ligand-Fixed Receptor    =  -9.94 kcal/mol
DOCKED: USER        Moving Ligand-Moving Receptor   =  +0.00 kcal/mol
DOCKED: USER    (2) Final Total Internal Energy     =  -1.84 kcal/mol
DOCKED: USER    (3) Torsional Free Energy           =  +1.49 kcal/mol
DOCKED: USER    (4) Unbound System's Energy         =  -1.84 kcal/mol
DOCKED: USER
DOCKED: USER
DOCKED: REMARK SMILES O=C(NCC(=O)N1CCCC[C@H]1c1ccc(Cl)cc1)c1ccc2cc(Cl)ccc2n1
DOCKED: REMARK SMILES IDX 4 1 3 2 2 3 1 4 20 6 21 7 30 8 22 9 29 10 23 11 28 12 24 13
DOCKED: REMARK SMILES IDX 27 14 25 15 26 16 5 17 6 18 7 19 8 20 12 21 9 22 11 23 10 24
DOCKED: REMARK SMILES IDX 13 25 14 26 19 27 15 28 18 29 16 30 17 31
DOCKED: REMARK H PARENT 3 5
DOCKED: USER                              x       y       z     vdW  Elec       q    Type
DOCKED: USER                           _______ _______ _______ _____ _____    ______ ____
DOCKED: ROOT
DOCKED: ATOM      1  C   UNL     1     137.694  73.970 221.005 -0.07 -0.05    +0.216 C  
DOCKED: ENDROOT
DOCKED: BRANCH   1   2
DOCKED: ATOM      2  N   UNL     1     137.953  73.201 222.174 -0.04 +0.11    -0.342 N  
DOCKED: ATOM      3  C   UNL     1     138.928  72.133 222.019 -0.13 -0.06    +0.270 C  
DOCKED: ATOM      4  O   UNL     1     139.445  71.991 220.879 -0.06 +0.05    -0.268 OA 
DOCKED: ATOM      5  H   UNL     1     137.563  73.281 223.114 -0.50 -0.10    +0.164 HD 
DOCKED: BRANCH   3   6
DOCKED: ATOM      6  C   UNL     1     139.260  71.293 223.158 -0.25 -0.03    +0.128 A  
DOCKED: ATOM      7  C   UNL     1     138.926  69.956 223.073 -0.22 -0.01    +0.035 A  
DOCKED: ATOM      8  N   UNL     1     139.864  71.749 224.271 -0.22 +0.06    -0.243 NA 
DOCKED: ATOM      9  C   UNL     1     139.207  69.104 224.105 -0.31 -0.00    +0.013 A  
DOCKED: ATOM     10  C   UNL     1     140.157  70.939 225.311 -0.47 -0.01    +0.071 A  
DOCKED: ATOM     11  C   UNL     1     139.834  69.594 225.250 -0.42 -0.00    +0.002 A  
DOCKED: ATOM     12  C   UNL     1     140.775  71.448 226.426 -0.65 -0.00    +0.030 A  
DOCKED: ATOM     13  C   UNL     1     140.113  68.724 226.290 -0.54 -0.01    +0.030 A  
DOCKED: ATOM     14  C   UNL     1     141.068  70.607 227.483 -0.62 -0.00    +0.023 A  
DOCKED: ATOM     15  C   UNL     1     140.740  69.250 227.417 -0.58 -0.01    +0.041 A  
DOCKED: ATOM     16  Cl  UNL     1     141.111  68.167 228.763 -0.66 +0.02    -0.084 Cl 
DOCKED: ENDBRANCH   3   6
DOCKED: ENDBRANCH   1   2
DOCKED: BRANCH   1  17
DOCKED: ATOM     17  C   UNL     1     138.611  75.012 220.589 -0.07 -0.05    +0.242 C  
DOCKED: ATOM     18  O   UNL     1     138.591  75.210 219.276 -0.01 +0.06    -0.273 OA 
DOCKED: BRANCH  17  19
DOCKED: ATOM     19  N   UNL     1     139.507  75.854 221.230 -0.10 +0.08    -0.334 N  
DOCKED: ATOM     20  C   UNL     1     139.167  76.109 222.680 -0.17 -0.02    +0.120 C  
DOCKED: ATOM     21  C   UNL     1     140.676  76.523 220.807 -0.22 -0.04    +0.115 C  
DOCKED: ATOM     22  C   UNL     1     138.732  77.571 222.621 -0.29 -0.00    +0.022 C  
DOCKED: ATOM     23  C   UNL     1     141.107  77.632 221.755 -0.36 -0.01    +0.030 C  
DOCKED: ATOM     24  C   UNL     1     139.990  78.348 222.434 -0.37 -0.00    +0.004 C  
DOCKED: BRANCH  21  25
DOCKED: ATOM     25  C   UNL     1     141.806  75.585 220.623 -0.28 +0.01    -0.025 A  
DOCKED: ATOM     26  C   UNL     1     141.749  74.251 221.008 -0.27 -0.00    +0.007 A  
DOCKED: ATOM     27  C   UNL     1     143.022  75.984 220.065 -0.31 -0.00    +0.007 A  
DOCKED: ATOM     28  C   UNL     1     142.809  73.382 220.852 -0.26 -0.00    +0.021 A  
DOCKED: ATOM     29  C   UNL     1     144.084  75.123 219.907 -0.40 -0.01    +0.021 A  
DOCKED: ATOM     30  C   UNL     1     143.997  73.805 220.298 -0.39 -0.01    +0.041 A  
DOCKED: ATOM     31  Cl  UNL     1     145.370  72.742 220.079 -0.62 -0.01    -0.084 Cl 
DOCKED: ENDBRANCH  21  25
DOCKED: ENDBRANCH  17  19
DOCKED: ENDBRANCH   1  17
DOCKED: TORSDOF 5
DOCKED: TER
DOCKED: ENDMDL
________________________________________________________________________________


    FINAL DOCKED STATE:
    ________________________


Run:   6 / 20
Time taken for this run:   0.047s

DOCKED: MODEL        6
DOCKED: USER    Run = 6
DOCKED: USER
DOCKED: USER    Estimated Free Energy of Binding    =  -8.46 kcal/mol  [=(1)+(2)+(3)-(4)]
DOCKED: USER
DOCKED: USER    (1) Final Intermolecular Energy     =  -9.95 kcal/mol
DOCKED: USER        vdW + Hbond + desolv Energy     =  -9.87 kcal/mol
DOCKED: USER        Electrostatic Energy            =  -0.08 kcal/mol
DOCKED: USER        Moving Ligand-Fixed Receptor    =  -9.95 kcal/mol
DOCKED: USER        Moving Ligand-Moving Receptor   =  +0.00 kcal/mol
DOCKED: USER    (2) Final Total Internal Energy     =  -1.83 kcal/mol
DOCKED: USER    (3) Torsional Free Energy           =  +1.49 kcal/mol
DOCKED: USER    (4) Unbound System's Energy         =  -1.83 kcal/mol
DOCKED: USER
DOCKED: USER
DOCKED: REMARK SMILES O=C(NCC(=O)N1CCCC[C@H]1c1ccc(Cl)cc1)c1ccc2cc(Cl)ccc2n1
DOCKED: REMARK SMILES IDX 4 1 3 2 2 3 1 4 20 6 21 7 30 8 22 9 29 10 23 11 28 12 24 13
DOCKED: REMARK SMILES IDX 27 14 25 15 26 16 5 17 6 18 7 19 8 20 12 21 9 22 11 23 10 24
DOCKED: REMARK SMILES IDX 13 25 14 26 19 27 15 28 18 29 16 30 17 31
DOCKED: REMARK H PARENT 3 5
DOCKED: USER                              x       y       z     vdW  Elec       q    Type
DOCKED: USER                           _______ _______ _______ _____ _____    ______ ____
DOCKED: ROOT
DOCKED: ATOM      1  C   UNL     1     138.165  74.194 220.762 -0.07 -0.05    +0.216 C  
DOCKED: ENDROOT
DOCKED: BRANCH   1   2
DOCKED: ATOM      2  N   UNL     1     138.386  73.457 221.959 -0.09 +0.10    -0.342 N  
DOCKED: ATOM      3  C   UNL     1     139.160  72.234 221.810 -0.13 -0.06    +0.270 C  
DOCKED: ATOM      4  O   UNL     1     139.557  71.947 220.649 -0.05 +0.05    -0.268 OA 
DOCKED: ATOM      5  H   UNL     1     138.088  73.650 222.917 -0.53 -0.10    +0.164 HD 
DOCKED: BRANCH   3   6
DOCKED: ATOM      6  C   UNL     1     139.438  71.413 222.976 -0.25 -0.03    +0.128 A  
DOCKED: ATOM      7  C   UNL     1     139.085  70.080 222.907 -0.21 -0.01    +0.035 A  
DOCKED: ATOM      8  N   UNL     1     140.010  71.882 224.100 -0.25 +0.05    -0.243 NA 
DOCKED: ATOM      9  C   UNL     1     139.315  69.246 223.966 -0.28 -0.00    +0.013 A  
DOCKED: ATOM     10  C   UNL     1     140.254  71.090 225.166 -0.48 -0.01    +0.071 A  
DOCKED: ATOM     11  C   UNL     1     139.910  69.749 225.121 -0.42 -0.00    +0.002 A  
DOCKED: ATOM     12  C   UNL     1     140.841  71.612 226.292 -0.64 -0.00    +0.030 A  
DOCKED: ATOM     13  C   UNL     1     140.138  68.896 226.188 -0.52 -0.01    +0.030 A  
DOCKED: ATOM     14  C   UNL     1     141.083  70.788 227.374 -0.64 -0.00    +0.023 A  
DOCKED: ATOM     15  C   UNL     1     140.735  69.436 227.325 -0.57 -0.01    +0.041 A  
DOCKED: ATOM     16  Cl  UNL     1     141.041  68.375 228.705 -0.71 +0.02    -0.084 Cl 
DOCKED: ENDBRANCH   3   6
DOCKED: ENDBRANCH   1   2
DOCKED: BRANCH   1  17
DOCKED: ATOM     17  C   UNL     1     138.618  75.565 220.647 -0.07 -0.05    +0.242 C  
DOCKED: ATOM     18  O   UNL     1     137.921  76.256 219.753 -0.01 +0.06    -0.273 OA 
DOCKED: BRANCH  17  19
DOCKED: ATOM     19  N   UNL     1     139.606  76.334 221.245 -0.09 +0.08    -0.334 N  
DOCKED: ATOM     20  C   UNL     1     139.329  76.653 222.696 -0.15 -0.02    +0.120 C  
DOCKED: ATOM     21  C   UNL     1     140.821  76.881 220.777 -0.22 -0.04    +0.115 C  
DOCKED: ATOM     22  C   UNL     1     139.031  78.147 222.611 -0.30 -0.00    +0.022 C  
DOCKED: ATOM     23  C   UNL     1     141.377  77.967 221.687 -0.34 -0.02    +0.030 C  
DOCKED: ATOM     24  C   UNL     1     140.350  78.799 222.374 -0.38 -0.00    +0.004 C  
DOCKED: BRANCH  21  25
DOCKED: ATOM     25  C   UNL     1     141.853  75.837 220.591 -0.26 +0.01    -0.025 A  
DOCKED: ATOM     26  C   UNL     1     141.679  74.522 221.001 -0.29 -0.00    +0.007 A  
DOCKED: ATOM     27  C   UNL     1     143.090  76.111 220.003 -0.30 -0.00    +0.007 A  
DOCKED: ATOM     28  C   UNL     1     142.648  73.554 220.843 -0.27 -0.00    +0.021 A  
DOCKED: ATOM     29  C   UNL     1     144.062  75.150 219.841 -0.39 -0.01    +0.021 A  
DOCKED: ATOM     30  C   UNL     1     143.860  73.853 220.258 -0.37 -0.01    +0.041 A  
DOCKED: ATOM     31  Cl  UNL     1     145.121  72.661 220.034 -0.58 -0.00    -0.084 Cl 
DOCKED: ENDBRANCH  21  25
DOCKED: ENDBRANCH  17  19
DOCKED: ENDBRANCH   1  17
DOCKED: TORSDOF 5
DOCKED: TER
DOCKED: ENDMDL
________________________________________________________________________________


    FINAL DOCKED STATE:
    ________________________


Run:   7 / 20
Time taken for this run:   0.047s

DOCKED: MODEL        7
DOCKED: USER    Run = 7
DOCKED: USER
DOCKED: USER    Estimated Free Energy of Binding    =  -8.53 kcal/mol  [=(1)+(2)+(3)-(4)]
DOCKED: USER
DOCKED: USER    (1) Final Intermolecular Energy     = -10.02 kcal/mol
DOCKED: USER        vdW + Hbond + desolv Energy     =  -9.93 kcal/mol
DOCKED: USER        Electrostatic Energy            =  -0.10 kcal/mol
DOCKED: USER        Moving Ligand-Fixed Receptor    = -10.02 kcal/mol
DOCKED: USER        Moving Ligand-Moving Receptor   =  +0.00 kcal/mol
DOCKED: USER    (2) Final Total Internal Energy     =  -1.77 kcal/mol
DOCKED: USER    (3) Torsional Free Energy           =  +1.49 kcal/mol
DOCKED: USER    (4) Unbound System's Energy         =  -1.77 kcal/mol
DOCKED: USER
DOCKED: USER
DOCKED: REMARK SMILES O=C(NCC(=O)N1CCCC[C@H]1c1ccc(Cl)cc1)c1ccc2cc(Cl)ccc2n1
DOCKED: REMARK SMILES IDX 4 1 3 2 2 3 1 4 20 6 21 7 30 8 22 9 29 10 23 11 28 12 24 13
DOCKED: REMARK SMILES IDX 27 14 25 15 26 16 5 17 6 18 7 19 8 20 12 21 9 22 11 23 10 24
DOCKED: REMARK SMILES IDX 13 25 14 26 19 27 15 28 18 29 16 30 17 31
DOCKED: REMARK H PARENT 3 5
DOCKED: USER                              x       y       z     vdW  Elec       q    Type
DOCKED: USER                           _______ _______ _______ _____ _____    ______ ____
DOCKED: ROOT
DOCKED: ATOM      1  C   UNL     1     138.475  74.418 220.905 -0.10 -0.05    +0.216 C  
DOCKED: ENDROOT
DOCKED: BRANCH   1   2
DOCKED: ATOM      2  N   UNL     1     138.677  73.651 222.086 -0.06 +0.10    -0.342 N  
DOCKED: ATOM      3  C   UNL     1     139.308  72.354 221.893 -0.15 -0.05    +0.270 C  
DOCKED: ATOM      4  O   UNL     1     139.612  72.037 220.712 -0.05 +0.05    -0.268 OA 
DOCKED: ATOM      5  H   UNL     1     138.453  73.867 223.059 -0.55 -0.12    +0.164 HD 
DOCKED: BRANCH   3   6
DOCKED: ATOM      6  C   UNL     1     139.558  71.499 223.041 -0.27 -0.03    +0.128 A  
DOCKED: ATOM      7  C   UNL     1     139.220  70.166 222.919 -0.22 -0.01    +0.035 A  
DOCKED: ATOM      8  N   UNL     1     140.092  71.937 224.196 -0.22 +0.05    -0.243 NA 
DOCKED: ATOM      9  C   UNL     1     139.425  69.301 223.958 -0.27 -0.00    +0.013 A  
DOCKED: ATOM     10  C   UNL     1     140.310  71.113 225.244 -0.49 -0.01    +0.071 A  
DOCKED: ATOM     11  C   UNL     1     139.980  69.772 225.146 -0.42 -0.00    +0.002 A  
DOCKED: ATOM     12  C   UNL     1     140.858  71.604 226.403 -0.66 -0.00    +0.030 A  
DOCKED: ATOM     13  C   UNL     1     140.184  68.888 226.192 -0.52 -0.01    +0.030 A  
DOCKED: ATOM     14  C   UNL     1     141.075  70.748 227.466 -0.64 -0.00    +0.023 A  
DOCKED: ATOM     15  C   UNL     1     140.740  69.396 227.363 -0.57 -0.01    +0.041 A  
DOCKED: ATOM     16  Cl  UNL     1     141.014  68.295 228.718 -0.70 +0.02    -0.084 Cl 
DOCKED: ENDBRANCH   3   6
DOCKED: ENDBRANCH   1   2
DOCKED: BRANCH   1  17
DOCKED: ATOM     17  C   UNL     1     138.775  75.834 220.884 -0.10 -0.05    +0.242 C  
DOCKED: ATOM     18  O   UNL     1     137.771  76.559 220.404 -0.03 +0.06    -0.273 OA 
DOCKED: BRANCH  17  19
DOCKED: ATOM     19  N   UNL     1     139.859  76.621 221.245 -0.09 +0.09    -0.334 N  
DOCKED: ATOM     20  C   UNL     1     139.765  77.174 222.648 -0.20 -0.02    +0.120 C  
DOCKED: ATOM     21  C   UNL     1     141.037  77.012 220.570 -0.22 -0.05    +0.115 C  
DOCKED: ATOM     22  C   UNL     1     139.529  78.653 222.360 -0.30 -0.00    +0.022 C  
DOCKED: ATOM     23  C   UNL     1     141.743  78.186 221.232 -0.31 -0.02    +0.030 C  
DOCKED: ATOM     24  C   UNL     1     140.841  79.176 221.884 -0.36 -0.00    +0.004 C  
DOCKED: BRANCH  21  25
DOCKED: ATOM     25  C   UNL     1     141.991  75.888 220.443 -0.27 +0.01    -0.025 A  
DOCKED: ATOM     26  C   UNL     1     143.206  76.003 219.778 -0.38 -0.00    +0.007 A  
DOCKED: ATOM     27  C   UNL     1     141.726  74.622 220.969 -0.29 -0.00    +0.007 A  
DOCKED: ATOM     28  C   UNL     1     144.087  74.950 219.645 -0.36 -0.01    +0.021 A  
DOCKED: ATOM     29  C   UNL     1     142.600  73.568 220.840 -0.27 -0.00    +0.021 A  
DOCKED: ATOM     30  C   UNL     1     143.798  73.711 220.176 -0.35 -0.01    +0.041 A  
DOCKED: ATOM     31  Cl  UNL     1     144.883  72.346 220.033 -0.50 -0.00    -0.084 Cl 
DOCKED: ENDBRANCH  21  25
DOCKED: ENDBRANCH  17  19
DOCKED: ENDBRANCH   1  17
DOCKED: TORSDOF 5
DOCKED: TER
DOCKED: ENDMDL
________________________________________________________________________________


    FINAL DOCKED STATE:
    ________________________


Run:   8 / 20
Time taken for this run:   0.047s

DOCKED: MODEL        8
DOCKED: USER    Run = 8
DOCKED: USER
DOCKED: USER    Estimated Free Energy of Binding    =  -8.45 kcal/mol  [=(1)+(2)+(3)-(4)]
DOCKED: USER
DOCKED: USER    (1) Final Intermolecular Energy     =  -9.94 kcal/mol
DOCKED: USER        vdW + Hbond + desolv Energy     =  -9.87 kcal/mol
DOCKED: USER        Electrostatic Energy            =  -0.07 kcal/mol
DOCKED: USER        Moving Ligand-Fixed Receptor    =  -9.94 kcal/mol
DOCKED: USER        Moving Ligand-Moving Receptor   =  +0.00 kcal/mol
DOCKED: USER    (2) Final Total Internal Energy     =  -1.84 kcal/mol
DOCKED: USER    (3) Torsional Free Energy           =  +1.49 kcal/mol
DOCKED: USER    (4) Unbound System's Energy         =  -1.84 kcal/mol
DOCKED: USER
DOCKED: USER
DOCKED: REMARK SMILES O=C(NCC(=O)N1CCCC[C@H]1c1ccc(Cl)cc1)c1ccc2cc(Cl)ccc2n1
DOCKED: REMARK SMILES IDX 4 1 3 2 2 3 1 4 20 6 21 7 30 8 22 9 29 10 23 11 28 12 24 13
DOCKED: REMARK SMILES IDX 27 14 25 15 26 16 5 17 6 18 7 19 8 20 12 21 9 22 11 23 10 24
DOCKED: REMARK SMILES IDX 13 25 14 26 19 27 15 28 18 29 16 30 17 31
DOCKED: REMARK H PARENT 3 5
DOCKED: USER                              x       y       z     vdW  Elec       q    Type
DOCKED: USER                           _______ _______ _______ _____ _____    ______ ____
DOCKED: ROOT
DOCKED: ATOM      1  C   UNL     1     138.096  74.119 220.683 -0.07 -0.05    +0.216 C  
DOCKED: ENDROOT
DOCKED: BRANCH   1   2
DOCKED: ATOM      2  N   UNL     1     138.291  73.384 221.885 -0.08 +0.10    -0.342 N  
DOCKED: ATOM      3  C   UNL     1     139.172  72.231 221.781 -0.13 -0.06    +0.270 C  
DOCKED: ATOM      4  O   UNL     1     139.674  71.996 220.649 -0.05 +0.05    -0.268 OA 
DOCKED: ATOM      5  H   UNL     1     137.911  73.538 222.820 -0.50 -0.09    +0.164 HD 
DOCKED: BRANCH   3   6
DOCKED: ATOM      6  C   UNL     1     139.434  71.418 222.957 -0.25 -0.03    +0.128 A  
DOCKED: ATOM      7  C   UNL     1     139.060  70.091 222.900 -0.21 -0.01    +0.035 A  
DOCKED: ATOM      8  N   UNL     1     140.010  71.890 224.077 -0.25 +0.05    -0.243 NA 
DOCKED: ATOM      9  C   UNL     1     139.274  69.264 223.968 -0.29 -0.00    +0.013 A  
DOCKED: ATOM     10  C   UNL     1     140.238  71.105 225.152 -0.48 -0.01    +0.071 A  
DOCKED: ATOM     11  C   UNL     1     139.873  69.769 225.120 -0.42 -0.00    +0.002 A  
DOCKED: ATOM     12  C   UNL     1     140.829  71.630 226.275 -0.64 -0.00    +0.030 A  
DOCKED: ATOM     13  C   UNL     1     140.085  68.924 226.196 -0.52 -0.01    +0.030 A  
DOCKED: ATOM     14  C   UNL     1     141.055  70.813 227.366 -0.65 -0.00    +0.023 A  
DOCKED: ATOM     15  C   UNL     1     140.686  69.466 227.330 -0.57 -0.01    +0.041 A  
DOCKED: ATOM     16  Cl  UNL     1     140.971  68.415 228.722 -0.70 +0.02    -0.084 Cl 
DOCKED: ENDBRANCH   3   6
DOCKED: ENDBRANCH   1   2
DOCKED: BRANCH   1  17
DOCKED: ATOM     17  C   UNL     1     138.608  75.468 220.552 -0.07 -0.05    +0.242 C  
DOCKED: ATOM     18  O   UNL     1     138.036  76.133 219.555 -0.01 +0.06    -0.273 OA 
DOCKED: BRANCH  17  19
DOCKED: ATOM     19  N   UNL     1     139.553  76.236 221.215 -0.09 +0.08    -0.334 N  
DOCKED: ATOM     20  C   UNL     1     139.222  76.478 222.670 -0.18 -0.02    +0.120 C  
DOCKED: ATOM     21  C   UNL     1     140.765  76.838 220.813 -0.22 -0.04    +0.115 C  
DOCKED: ATOM     22  C   UNL     1     138.882  77.965 222.644 -0.29 -0.00    +0.022 C  
DOCKED: ATOM     23  C   UNL     1     141.260  77.896 221.788 -0.35 -0.01    +0.030 C  
DOCKED: ATOM     24  C   UNL     1     140.188  78.665 222.480 -0.38 -0.00    +0.004 C  
DOCKED: BRANCH  21  25
DOCKED: ATOM     25  C   UNL     1     141.833  75.835 220.611 -0.27 +0.01    -0.025 A  
DOCKED: ATOM     26  C   UNL     1     141.711  74.511 221.016 -0.29 -0.00    +0.007 A  
DOCKED: ATOM     27  C   UNL     1     143.054  76.156 220.014 -0.30 -0.00    +0.007 A  
DOCKED: ATOM     28  C   UNL     1     142.714  73.581 220.843 -0.27 -0.00    +0.021 A  
DOCKED: ATOM     29  C   UNL     1     144.059  75.233 219.838 -0.38 -0.01    +0.021 A  
DOCKED: ATOM     30  C   UNL     1     143.909  73.928 220.250 -0.38 -0.01    +0.041 A  
DOCKED: ATOM     31  Cl  UNL     1     145.211  72.784 220.009 -0.60 -0.00    -0.084 Cl 
DOCKED: ENDBRANCH  21  25
DOCKED: ENDBRANCH  17  19
DOCKED: ENDBRANCH   1  17
DOCKED: TORSDOF 5
DOCKED: TER
DOCKED: ENDMDL
________________________________________________________________________________


    FINAL DOCKED STATE:
    ________________________


Run:   9 / 20
Time taken for this run:   0.047s

DOCKED: MODEL        9
DOCKED: USER    Run = 9
DOCKED: USER
DOCKED: USER    Estimated Free Energy of Binding    =  -8.39 kcal/mol  [=(1)+(2)+(3)-(4)]
DOCKED: USER
DOCKED: USER    (1) Final Intermolecular Energy     =  -9.88 kcal/mol
DOCKED: USER        vdW + Hbond + desolv Energy     =  -9.82 kcal/mol
DOCKED: USER        Electrostatic Energy            =  -0.06 kcal/mol
DOCKED: USER        Moving Ligand-Fixed Receptor    =  -9.88 kcal/mol
DOCKED: USER        Moving Ligand-Moving Receptor   =  +0.00 kcal/mol
DOCKED: USER    (2) Final Total Internal Energy     =  -1.86 kcal/mol
DOCKED: USER    (3) Torsional Free Energy           =  +1.49 kcal/mol
DOCKED: USER    (4) Unbound System's Energy         =  -1.86 kcal/mol
DOCKED: USER
DOCKED: USER
DOCKED: REMARK SMILES O=C(NCC(=O)N1CCCC[C@H]1c1ccc(Cl)cc1)c1ccc2cc(Cl)ccc2n1
DOCKED: REMARK SMILES IDX 4 1 3 2 2 3 1 4 20 6 21 7 30 8 22 9 29 10 23 11 28 12 24 13
DOCKED: REMARK SMILES IDX 27 14 25 15 26 16 5 17 6 18 7 19 8 20 12 21 9 22 11 23 10 24
DOCKED: REMARK SMILES IDX 13 25 14 26 19 27 15 28 18 29 16 30 17 31
DOCKED: REMARK H PARENT 3 5
DOCKED: USER                              x       y       z     vdW  Elec       q    Type
DOCKED: USER                           _______ _______ _______ _____ _____    ______ ____
DOCKED: ROOT
DOCKED: ATOM      1  C   UNL     1     137.801  74.055 220.862 -0.07 -0.05    +0.216 C  
DOCKED: ENDROOT
DOCKED: BRANCH   1   2
DOCKED: ATOM      2  N   UNL     1     138.042  73.295 222.041 -0.06 +0.11    -0.342 N  
DOCKED: ATOM      3  C   UNL     1     139.033  72.237 221.915 -0.13 -0.06    +0.270 C  
DOCKED: ATOM      4  O   UNL     1     139.577  72.095 220.788 -0.06 +0.05    -0.268 OA 
DOCKED: ATOM      5  H   UNL     1     137.631  73.376 222.972 -0.47 -0.09    +0.164 HD 
DOCKED: BRANCH   3   6
DOCKED: ATOM      6  C   UNL     1     139.348  71.408 223.066 -0.26 -0.03    +0.128 A  
DOCKED: ATOM      7  C   UNL     1     139.013  70.071 222.989 -0.22 -0.01    +0.035 A  
DOCKED: ATOM      8  N   UNL     1     139.938  71.874 224.182 -0.24 +0.05    -0.243 NA 
DOCKED: ATOM      9  C   UNL     1     139.279  69.229 224.034 -0.29 -0.00    +0.013 A  
DOCKED: ATOM     10  C   UNL     1     140.216  71.074 225.234 -0.48 -0.01    +0.071 A  
DOCKED: ATOM     11  C   UNL     1     139.891  69.728 225.181 -0.42 -0.00    +0.002 A  
DOCKED: ATOM     12  C   UNL     1     140.820  71.593 226.352 -0.65 -0.00    +0.030 A  
DOCKED: ATOM     13  C   UNL     1     140.156  68.868 226.234 -0.52 -0.01    +0.030 A  
DOCKED: ATOM     14  C   UNL     1     141.098  70.761 227.420 -0.62 -0.00    +0.023 A  
DOCKED: ATOM     15  C   UNL     1     140.768  69.404 227.363 -0.57 -0.01    +0.041 A  
DOCKED: ATOM     16  Cl  UNL     1     141.120  68.334 228.725 -0.68 +0.02    -0.084 Cl 
DOCKED: ENDBRANCH   3   6
DOCKED: ENDBRANCH   1   2
DOCKED: BRANCH   1  17
DOCKED: ATOM     17  C   UNL     1     138.641  75.186 220.528 -0.07 -0.05    +0.242 C  
DOCKED: ATOM     18  O   UNL     1     138.535  75.538 219.252 -0.01 +0.06    -0.273 OA 
DOCKED: BRANCH  17  19
DOCKED: ATOM     19  N   UNL     1     139.533  75.994 221.219 -0.10 +0.08    -0.334 N  
DOCKED: ATOM     20  C   UNL     1     139.171  76.189 222.673 -0.18 -0.02    +0.120 C  
DOCKED: ATOM     21  C   UNL     1     140.714  76.671 220.844 -0.22 -0.04    +0.115 C  
DOCKED: ATOM     22  C   UNL     1     138.747  77.655 222.670 -0.29 -0.00    +0.022 C  
DOCKED: ATOM     23  C   UNL     1     141.136  77.736 221.845 -0.36 -0.01    +0.030 C  
DOCKED: ATOM     24  C   UNL     1     140.014  78.430 222.536 -0.38 -0.00    +0.004 C  
DOCKED: BRANCH  21  25
DOCKED: ATOM     25  C   UNL     1     141.840  75.733 220.639 -0.27 +0.01    -0.025 A  
DOCKED: ATOM     26  C   UNL     1     143.027  76.104 220.019 -0.30 -0.00    +0.007 A  
DOCKED: ATOM     27  C   UNL     1     141.778  74.397 221.040 -0.28 -0.00    +0.007 A  
DOCKED: ATOM     28  C   UNL     1     144.069  75.224 219.813 -0.38 -0.01    +0.021 A  
DOCKED: ATOM     29  C   UNL     1     142.814  73.514 220.837 -0.27 -0.00    +0.021 A  
DOCKED: ATOM     30  C   UNL     1     143.979  73.910 220.220 -0.38 -0.01    +0.041 A  
DOCKED: ATOM     31  Cl  UNL     1     145.273  72.757 219.982 -0.59 -0.01    -0.084 Cl 
DOCKED: ENDBRANCH  21  25
DOCKED: ENDBRANCH  17  19
DOCKED: ENDBRANCH   1  17
DOCKED: TORSDOF 5
DOCKED: TER
DOCKED: ENDMDL
________________________________________________________________________________


    FINAL DOCKED STATE:
    ________________________


Run:   10 / 20
Time taken for this run:   0.047s

DOCKED: MODEL        10
DOCKED: USER    Run = 10
DOCKED: USER
DOCKED: USER    Estimated Free Energy of Binding    =  -8.51 kcal/mol  [=(1)+(2)+(3)-(4)]
DOCKED: USER
DOCKED: USER    (1) Final Intermolecular Energy     = -10.00 kcal/mol
DOCKED: USER        vdW + Hbond + desolv Energy     =  -9.90 kcal/mol
DOCKED: USER        Electrostatic Energy            =  -0.09 kcal/mol
DOCKED: USER        Moving Ligand-Fixed Receptor    = -10.00 kcal/mol
DOCKED: USER        Moving Ligand-Moving Receptor   =  +0.00 kcal/mol
DOCKED: USER    (2) Final Total Internal Energy     =  -1.79 kcal/mol
DOCKED: USER    (3) Torsional Free Energy           =  +1.49 kcal/mol
DOCKED: USER    (4) Unbound System's Energy         =  -1.79 kcal/mol
DOCKED: USER
DOCKED: USER
DOCKED: REMARK SMILES O=C(NCC(=O)N1CCCC[C@H]1c1ccc(Cl)cc1)c1ccc2cc(Cl)ccc2n1
DOCKED: REMARK SMILES IDX 4 1 3 2 2 3 1 4 20 6 21 7 30 8 22 9 29 10 23 11 28 12 24 13
DOCKED: REMARK SMILES IDX 27 14 25 15 26 16 5 17 6 18 7 19 8 20 12 21 9 22 11 23 10 24
DOCKED: REMARK SMILES IDX 13 25 14 26 19 27 15 28 18 29 16 30 17 31
DOCKED: REMARK H PARENT 3 5
DOCKED: USER                              x       y       z     vdW  Elec       q    Type
DOCKED: USER                           _______ _______ _______ _____ _____    ______ ____
DOCKED: ROOT
DOCKED: ATOM      1  C   UNL     1     138.437  74.355 220.878 -0.09 -0.05    +0.216 C  
DOCKED: ENDROOT
DOCKED: BRANCH   1   2
DOCKED: ATOM      2  N   UNL     1     138.667  73.609 222.068 -0.07 +0.10    -0.342 N  
DOCKED: ATOM      3  C   UNL     1     139.231  72.281 221.878 -0.14 -0.06    +0.270 C  
DOCKED: ATOM      4  O   UNL     1     139.460  71.923 220.692 -0.05 +0.05    -0.268 OA 
DOCKED: ATOM      5  H   UNL     1     138.501  73.858 223.044 -0.55 -0.12    +0.164 HD 
DOCKED: BRANCH   3   6
DOCKED: ATOM      6  C   UNL     1     139.502  71.444 223.034 -0.26 -0.03    +0.128 A  
DOCKED: ATOM      7  C   UNL     1     139.166  70.109 222.937 -0.22 -0.01    +0.035 A  
DOCKED: ATOM      8  N   UNL     1     140.053  71.900 224.174 -0.24 +0.05    -0.243 NA 
DOCKED: ATOM      9  C   UNL     1     139.391  69.259 223.984 -0.27 -0.00    +0.013 A  
DOCKED: ATOM     10  C   UNL     1     140.290  71.093 225.230 -0.49 -0.01    +0.071 A  
DOCKED: ATOM     11  C   UNL     1     139.963  69.749 225.157 -0.42 -0.00    +0.002 A  
DOCKED: ATOM     12  C   UNL     1     140.854  71.603 226.373 -0.65 -0.00    +0.030 A  
DOCKED: ATOM     13  C   UNL     1     140.187  68.881 226.213 -0.52 -0.01    +0.030 A  
DOCKED: ATOM     14  C   UNL     1     141.091  70.763 227.445 -0.63 -0.00    +0.023 A  
DOCKED: ATOM     15  C   UNL     1     140.760  69.408 227.367 -0.57 -0.01    +0.041 A  
DOCKED: ATOM     16  Cl  UNL     1     141.058  68.328 228.734 -0.69 +0.02    -0.084 Cl 
DOCKED: ENDBRANCH   3   6
DOCKED: ENDBRANCH   1   2
DOCKED: BRANCH   1  17
DOCKED: ATOM     17  C   UNL     1     138.766  75.764 220.817 -0.09 -0.05    +0.242 C  
DOCKED: ATOM     18  O   UNL     1     137.792  76.489 220.277 -0.02 +0.06    -0.273 OA 
DOCKED: BRANCH  17  19
DOCKED: ATOM     19  N   UNL     1     139.852  76.544 221.184 -0.09 +0.09    -0.334 N  
DOCKED: ATOM     20  C   UNL     1     139.752  77.098 222.586 -0.21 -0.02    +0.120 C  
DOCKED: ATOM     21  C   UNL     1     141.038  76.926 220.518 -0.22 -0.05    +0.115 C  
DOCKED: ATOM     22  C   UNL     1     139.528  78.579 222.295 -0.30 -0.00    +0.022 C  
DOCKED: ATOM     23  C   UNL     1     141.747  78.095 221.185 -0.30 -0.02    +0.030 C  
DOCKED: ATOM     24  C   UNL     1     140.848  79.093 221.829 -0.36 -0.00    +0.004 C  
DOCKED: BRANCH  21  25
DOCKED: ATOM     25  C   UNL     1     141.986  75.796 220.399 -0.27 +0.01    -0.025 A  
DOCKED: ATOM     26  C   UNL     1     141.736  74.542 220.942 -0.29 -0.00    +0.007 A  
DOCKED: ATOM     27  C   UNL     1     143.213  75.919 219.744 -0.39 -0.00    +0.007 A  
DOCKED: ATOM     28  C   UNL     1     142.628  73.494 220.846 -0.27 -0.00    +0.021 A  
DOCKED: ATOM     29  C   UNL     1     144.107  74.878 219.643 -0.35 -0.01    +0.021 A  
DOCKED: ATOM     30  C   UNL     1     143.832  73.646 220.192 -0.35 -0.01    +0.041 A  
DOCKED: ATOM     31  Cl  UNL     1     144.996  72.348 220.043 -0.51 -0.00    -0.084 Cl 
DOCKED: ENDBRANCH  21  25
DOCKED: ENDBRANCH  17  19
DOCKED: ENDBRANCH   1  17
DOCKED: TORSDOF 5
DOCKED: TER
DOCKED: ENDMDL
________________________________________________________________________________


    FINAL DOCKED STATE:
    ________________________


Run:   11 / 20
Time taken for this run:   0.047s

DOCKED: MODEL        11
DOCKED: USER    Run = 11
DOCKED: USER
DOCKED: USER    Estimated Free Energy of Binding    =  -8.50 kcal/mol  [=(1)+(2)+(3)-(4)]
DOCKED: USER
DOCKED: USER    (1) Final Intermolecular Energy     =  -9.99 kcal/mol
DOCKED: USER        vdW + Hbond + desolv Energy     =  -9.90 kcal/mol
DOCKED: USER        Electrostatic Energy            =  -0.08 kcal/mol
DOCKED: USER        Moving Ligand-Fixed Receptor    =  -9.99 kcal/mol
DOCKED: USER        Moving Ligand-Moving Receptor   =  +0.00 kcal/mol
DOCKED: USER    (2) Final Total Internal Energy     =  -1.80 kcal/mol
DOCKED: USER    (3) Torsional Free Energy           =  +1.49 kcal/mol
DOCKED: USER    (4) Unbound System's Energy         =  -1.80 kcal/mol
DOCKED: USER
DOCKED: USER
DOCKED: REMARK SMILES O=C(NCC(=O)N1CCCC[C@H]1c1ccc(Cl)cc1)c1ccc2cc(Cl)ccc2n1
DOCKED: REMARK SMILES IDX 4 1 3 2 2 3 1 4 20 6 21 7 30 8 22 9 29 10 23 11 28 12 24 13
DOCKED: REMARK SMILES IDX 27 14 25 15 26 16 5 17 6 18 7 19 8 20 12 21 9 22 11 23 10 24
DOCKED: REMARK SMILES IDX 13 25 14 26 19 27 15 28 18 29 16 30 17 31
DOCKED: REMARK H PARENT 3 5
DOCKED: USER                              x       y       z     vdW  Elec       q    Type
DOCKED: USER                           _______ _______ _______ _____ _____    ______ ____
DOCKED: ROOT
DOCKED: ATOM      1  C   UNL     1     138.331  74.234 220.753 -0.08 -0.05    +0.216 C  
DOCKED: ENDROOT
DOCKED: BRANCH   1   2
DOCKED: ATOM      2  N   UNL     1     138.506  73.479 221.946 -0.09 +0.10    -0.342 N  
DOCKED: ATOM      3  C   UNL     1     139.320  72.280 221.817 -0.14 -0.05    +0.270 C  
DOCKED: ATOM      4  O   UNL     1     139.788  72.027 220.675 -0.06 +0.05    -0.268 OA 
DOCKED: ATOM      5  H   UNL     1     138.152  73.646 222.889 -0.53 -0.10    +0.164 HD 
DOCKED: BRANCH   3   6
DOCKED: ATOM      6  C   UNL     1     139.557  71.444 222.982 -0.26 -0.03    +0.128 A  
DOCKED: ATOM      7  C   UNL     1     139.182  70.119 222.893 -0.21 -0.01    +0.035 A  
DOCKED: ATOM      8  N   UNL     1     140.113  71.892 224.123 -0.26 +0.05    -0.243 NA 
DOCKED: ATOM      9  C   UNL     1     139.372  69.271 223.948 -0.27 -0.00    +0.013 A  
DOCKED: ATOM     10  C   UNL     1     140.317  71.087 225.186 -0.48 -0.01    +0.071 A  
DOCKED: ATOM     11  C   UNL     1     139.950  69.753 225.121 -0.42 -0.00    +0.002 A  
DOCKED: ATOM     12  C   UNL     1     140.888  71.588 226.330 -0.65 -0.00    +0.030 A  
DOCKED: ATOM     13  C   UNL     1     140.139  68.887 226.185 -0.52 -0.01    +0.030 A  
DOCKED: ATOM     14  C   UNL     1     141.091  70.750 227.410 -0.63 -0.00    +0.023 A  
DOCKED: ATOM     15  C   UNL     1     140.719  69.405 227.340 -0.57 -0.01    +0.041 A  
DOCKED: ATOM     16  Cl  UNL     1     140.975  68.327 228.717 -0.70 +0.02    -0.084 Cl 
DOCKED: ENDBRANCH   3   6
DOCKED: ENDBRANCH   1   2
DOCKED: BRANCH   1  17
DOCKED: ATOM     17  C   UNL     1     138.659  75.644 220.718 -0.08 -0.05    +0.242 C  
DOCKED: ATOM     18  O   UNL     1     137.772  76.354 220.030 -0.02 +0.06    -0.273 OA 
DOCKED: BRANCH  17  19
DOCKED: ATOM     19  N   UNL     1     139.677  76.436 221.228 -0.09 +0.08    -0.334 N  
DOCKED: ATOM     20  C   UNL     1     139.464  76.842 222.668 -0.16 -0.02    +0.120 C  
DOCKED: ATOM     21  C   UNL     1     140.876  76.942 220.679 -0.22 -0.05    +0.115 C  
DOCKED: ATOM     22  C   UNL     1     139.174  78.332 222.508 -0.30 -0.00    +0.022 C  
DOCKED: ATOM     23  C   UNL     1     141.479  78.073 221.500 -0.34 -0.02    +0.030 C  
DOCKED: ATOM     24  C   UNL     1     140.488  78.955 222.179 -0.36 -0.00    +0.004 C  
DOCKED: BRANCH  21  25
DOCKED: ATOM     25  C   UNL     1     141.891  75.878 220.512 -0.27 +0.01    -0.025 A  
DOCKED: ATOM     26  C   UNL     1     141.722  74.590 221.004 -0.29 -0.00    +0.007 A  
DOCKED: ATOM     27  C   UNL     1     143.105  76.104 219.860 -0.35 -0.00    +0.007 A  
DOCKED: ATOM     28  C   UNL     1     142.676  73.605 220.862 -0.25 -0.00    +0.021 A  
DOCKED: ATOM     29  C   UNL     1     144.062  75.126 219.715 -0.37 -0.01    +0.021 A  
DOCKED: ATOM     30  C   UNL     1     143.866  73.857 220.213 -0.37 -0.01    +0.041 A  
DOCKED: ATOM     31  Cl  UNL     1     145.107  72.641 220.008 -0.57 -0.00    -0.084 Cl 
DOCKED: ENDBRANCH  21  25
DOCKED: ENDBRANCH  17  19
DOCKED: ENDBRANCH   1  17
DOCKED: TORSDOF 5
DOCKED: TER
DOCKED: ENDMDL
________________________________________________________________________________


    FINAL DOCKED STATE:
    ________________________


Run:   12 / 20
Time taken for this run:   0.047s

DOCKED: MODEL        12
DOCKED: USER    Run = 12
DOCKED: USER
DOCKED: USER    Estimated Free Energy of Binding    =  -8.78 kcal/mol  [=(1)+(2)+(3)-(4)]
DOCKED: USER
DOCKED: USER    (1) Final Intermolecular Energy     = -10.27 kcal/mol
DOCKED: USER        vdW + Hbond + desolv Energy     = -10.27 kcal/mol
DOCKED: USER        Electrostatic Energy            =  +0.01 kcal/mol
DOCKED: USER        Moving Ligand-Fixed Receptor    = -10.27 kcal/mol
DOCKED: USER        Moving Ligand-Moving Receptor   =  +0.00 kcal/mol
DOCKED: USER    (2) Final Total Internal Energy     =  -1.50 kcal/mol
DOCKED: USER    (3) Torsional Free Energy           =  +1.49 kcal/mol
DOCKED: USER    (4) Unbound System's Energy         =  -1.50 kcal/mol
DOCKED: USER
DOCKED: USER
DOCKED: REMARK SMILES O=C(NCC(=O)N1CCCC[C@H]1c1ccc(Cl)cc1)c1ccc2cc(Cl)ccc2n1
DOCKED: REMARK SMILES IDX 4 1 3 2 2 3 1 4 20 6 21 7 30 8 22 9 29 10 23 11 28 12 24 13
DOCKED: REMARK SMILES IDX 27 14 25 15 26 16 5 17 6 18 7 19 8 20 12 21 9 22 11 23 10 24
DOCKED: REMARK SMILES IDX 13 25 14 26 19 27 15 28 18 29 16 30 17 31
DOCKED: REMARK H PARENT 3 5
DOCKED: USER                              x       y       z     vdW  Elec       q    Type
DOCKED: USER                           _______ _______ _______ _____ _____    ______ ____
DOCKED: ROOT
DOCKED: ATOM      1  C   UNL     1     139.404  74.848 221.109 -0.16 -0.05    +0.216 C  
DOCKED: ENDROOT
DOCKED: BRANCH   1   2
DOCKED: ATOM      2  N   UNL     1     139.545  74.035 222.268 -0.11 +0.05    -0.342 N  
DOCKED: ATOM      3  C   UNL     1     139.677  72.607 222.022 -0.18 -0.05    +0.270 C  
DOCKED: ATOM      4  O   UNL     1     139.654  72.230 220.821 -0.06 +0.05    -0.268 OA 
DOCKED: ATOM      5  H   UNL     1     139.573  74.295 223.256 -0.49 -0.01    +0.164 HD 
DOCKED: BRANCH   3   6
DOCKED: ATOM      6  C   UNL     1     139.827  71.696 223.145 -0.29 -0.02    +0.128 A  
DOCKED: ATOM      7  C   UNL     1     139.440  70.386 222.948 -0.23 -0.01    +0.035 A  
DOCKED: ATOM      8  N   UNL     1     140.315  72.063 224.344 -0.17 +0.04    -0.243 NA 
DOCKED: ATOM      9  C   UNL     1     139.551  69.471 223.958 -0.27 -0.00    +0.013 A  
DOCKED: ATOM     10  C   UNL     1     140.440  71.189 225.365 -0.51 -0.01    +0.071 A  
DOCKED: ATOM     11  C   UNL     1     140.060  69.868 225.193 -0.43 -0.00    +0.002 A  
DOCKED: ATOM     12  C   UNL     1     140.943  71.608 226.572 -0.69 -0.00    +0.030 A  
DOCKED: ATOM     13  C   UNL     1     140.168  68.934 226.210 -0.52 -0.01    +0.030 A  
DOCKED: ATOM     14  C   UNL     1     141.065  70.701 227.607 -0.64 -0.00    +0.023 A  
DOCKED: ATOM     15  C   UNL     1     140.680  69.370 227.429 -0.58 -0.01    +0.041 A  
DOCKED: ATOM     16  Cl  UNL     1     140.832  68.203 228.749 -0.64 +0.02    -0.084 Cl 
DOCKED: ENDBRANCH   3   6
DOCKED: ENDBRANCH   1   2
DOCKED: BRANCH   1  17
DOCKED: ATOM     17  C   UNL     1     138.417  75.906 221.066 -0.10 -0.05    +0.242 C  
DOCKED: ATOM     18  O   UNL     1     137.993  76.155 219.832 -0.01 +0.06    -0.273 OA 
DOCKED: BRANCH  17  19
DOCKED: ATOM     19  N   UNL     1     137.804  76.726 222.002 -0.10 +0.07    -0.334 N  
DOCKED: ATOM     20  C   UNL     1     137.094  75.967 223.098 -0.19 -0.03    +0.120 C  
DOCKED: ATOM     21  C   UNL     1     137.708  78.128 222.143 -0.17 -0.02    +0.115 C  
DOCKED: ATOM     22  C   UNL     1     135.636  76.256 222.750 -0.18 -0.00    +0.022 C  
DOCKED: ATOM     23  C   UNL     1     136.616  78.558 223.111 -0.13 -0.00    +0.030 C  
DOCKED: ATOM     24  C   UNL     1     135.414  77.679 223.134 -0.16 -0.00    +0.004 C  
DOCKED: BRANCH  21  25
DOCKED: ATOM     25  C   UNL     1     138.993  78.722 222.576 -0.28 +0.00    -0.025 A  
DOCKED: ATOM     26  C   UNL     1     139.094  80.010 223.086 -0.35 -0.00    +0.007 A  
DOCKED: ATOM     27  C   UNL     1     140.202  78.030 222.482 -0.38 -0.00    +0.007 A  
DOCKED: ATOM     28  C   UNL     1     140.294  80.569 223.473 -0.44 -0.00    +0.021 A  
DOCKED: ATOM     29  C   UNL     1     141.403  78.581 222.866 -0.52 -0.01    +0.021 A  
DOCKED: ATOM     30  C   UNL     1     141.472  79.862 223.369 -0.54 -0.01    +0.041 A  
DOCKED: ATOM     31  Cl  UNL     1     143.019  80.526 223.846 -0.76 +0.02    -0.084 Cl 
DOCKED: ENDBRANCH  21  25
DOCKED: ENDBRANCH  17  19
DOCKED: ENDBRANCH   1  17
DOCKED: TORSDOF 5
DOCKED: TER
DOCKED: ENDMDL
________________________________________________________________________________


    FINAL DOCKED STATE:
    ________________________


Run:   13 / 20
Time taken for this run:   0.047s

DOCKED: MODEL        13
DOCKED: USER    Run = 13
DOCKED: USER
DOCKED: USER    Estimated Free Energy of Binding    =  -8.79 kcal/mol  [=(1)+(2)+(3)-(4)]
DOCKED: USER
DOCKED: USER    (1) Final Intermolecular Energy     = -10.28 kcal/mol
DOCKED: USER        vdW + Hbond + desolv Energy     = -10.29 kcal/mol
DOCKED: USER        Electrostatic Energy            =  +0.00 kcal/mol
DOCKED: USER        Moving Ligand-Fixed Receptor    = -10.28 kcal/mol
DOCKED: USER        Moving Ligand-Moving Receptor   =  +0.00 kcal/mol
DOCKED: USER    (2) Final Total Internal Energy     =  -1.49 kcal/mol
DOCKED: USER    (3) Torsional Free Energy           =  +1.49 kcal/mol
DOCKED: USER    (4) Unbound System's Energy         =  -1.49 kcal/mol
DOCKED: USER
DOCKED: USER
DOCKED: REMARK SMILES O=C(NCC(=O)N1CCCC[C@H]1c1ccc(Cl)cc1)c1ccc2cc(Cl)ccc2n1
DOCKED: REMARK SMILES IDX 4 1 3 2 2 3 1 4 20 6 21 7 30 8 22 9 29 10 23 11 28 12 24 13
DOCKED: REMARK SMILES IDX 27 14 25 15 26 16 5 17 6 18 7 19 8 20 12 21 9 22 11 23 10 24
DOCKED: REMARK SMILES IDX 13 25 14 26 19 27 15 28 18 29 16 30 17 31
DOCKED: REMARK H PARENT 3 5
DOCKED: USER                              x       y       z     vdW  Elec       q    Type
DOCKED: USER                           _______ _______ _______ _____ _____    ______ ____
DOCKED: ROOT
DOCKED: ATOM      1  C   UNL     1     139.394  74.871 221.127 -0.16 -0.05    +0.216 C  
DOCKED: ENDROOT
DOCKED: BRANCH   1   2
DOCKED: ATOM      2  N   UNL     1     139.530  74.051 222.282 -0.10 +0.05    -0.342 N  
DOCKED: ATOM      3  C   UNL     1     139.678  72.626 222.027 -0.18 -0.05    +0.270 C  
DOCKED: ATOM      4  O   UNL     1     139.672  72.258 220.823 -0.06 +0.05    -0.268 OA 
DOCKED: ATOM      5  H   UNL     1     139.544  74.303 223.272 -0.49 -0.02    +0.164 HD 
DOCKED: BRANCH   3   6
DOCKED: ATOM      6  C   UNL     1     139.825  71.708 223.144 -0.29 -0.02    +0.128 A  
DOCKED: ATOM      7  C   UNL     1     139.424  70.403 222.943 -0.23 -0.01    +0.035 A  
DOCKED: ATOM      8  N   UNL     1     140.322  72.064 224.343 -0.17 +0.04    -0.243 NA 
DOCKED: ATOM      9  C   UNL     1     139.531  69.481 223.948 -0.27 -0.00    +0.013 A  
DOCKED: ATOM     10  C   UNL     1     140.443  71.184 225.359 -0.51 -0.01    +0.071 A  
DOCKED: ATOM     11  C   UNL     1     140.049  69.868 225.183 -0.43 -0.00    +0.002 A  
DOCKED: ATOM     12  C   UNL     1     140.956  71.592 226.566 -0.69 -0.00    +0.030 A  
DOCKED: ATOM     13  C   UNL     1     140.153  68.928 226.194 -0.52 -0.01    +0.030 A  
DOCKED: ATOM     14  C   UNL     1     141.074  70.679 227.596 -0.63 -0.00    +0.023 A  
DOCKED: ATOM     15  C   UNL     1     140.675  69.352 227.414 -0.58 -0.01    +0.041 A  
DOCKED: ATOM     16  Cl  UNL     1     140.822  68.178 228.726 -0.65 +0.02    -0.084 Cl 
DOCKED: ENDBRANCH   3   6
DOCKED: ENDBRANCH   1   2
DOCKED: BRANCH   1  17
DOCKED: ATOM     17  C   UNL     1     138.376  75.899 221.069 -0.10 -0.05    +0.242 C  
DOCKED: ATOM     18  O   UNL     1     137.922  76.093 219.836 -0.01 +0.06    -0.273 OA 
DOCKED: BRANCH  17  19
DOCKED: ATOM     19  N   UNL     1     137.759  76.734 221.989 -0.10 +0.07    -0.334 N  
DOCKED: ATOM     20  C   UNL     1     137.034  75.992 223.087 -0.21 -0.03    +0.120 C  
DOCKED: ATOM     21  C   UNL     1     137.670  78.138 222.113 -0.16 -0.02    +0.115 C  
DOCKED: ATOM     22  C   UNL     1     135.581  76.284 222.722 -0.17 -0.00    +0.022 C  
DOCKED: ATOM     23  C   UNL     1     136.571  78.585 223.065 -0.15 -0.00    +0.030 C  
DOCKED: ATOM     24  C   UNL     1     135.363  77.713 223.086 -0.16 -0.00    +0.004 C  
DOCKED: BRANCH  21  25
DOCKED: ATOM     25  C   UNL     1     138.953  78.730 222.551 -0.28 +0.00    -0.025 A  
DOCKED: ATOM     26  C   UNL     1     139.057  80.024 223.046 -0.34 -0.00    +0.007 A  
DOCKED: ATOM     27  C   UNL     1     140.159  78.030 222.478 -0.38 -0.00    +0.007 A  
DOCKED: ATOM     28  C   UNL     1     140.256  80.581 223.437 -0.43 -0.00    +0.021 A  
DOCKED: ATOM     29  C   UNL     1     141.360  78.580 222.867 -0.51 -0.01    +0.021 A  
DOCKED: ATOM     30  C   UNL     1     141.431  79.865 223.354 -0.53 -0.01    +0.041 A  
DOCKED: ATOM     31  Cl  UNL     1     142.977  80.527 223.838 -0.78 +0.02    -0.084 Cl 
DOCKED: ENDBRANCH  21  25
DOCKED: ENDBRANCH  17  19
DOCKED: ENDBRANCH   1  17
DOCKED: TORSDOF 5
DOCKED: TER
DOCKED: ENDMDL
________________________________________________________________________________


    FINAL DOCKED STATE:
    ________________________


Run:   14 / 20
Time taken for this run:   0.047s

DOCKED: MODEL        14
DOCKED: USER    Run = 14
DOCKED: USER
DOCKED: USER    Estimated Free Energy of Binding    =  -8.45 kcal/mol  [=(1)+(2)+(3)-(4)]
DOCKED: USER
DOCKED: USER    (1) Final Intermolecular Energy     =  -9.94 kcal/mol
DOCKED: USER        vdW + Hbond + desolv Energy     =  -9.88 kcal/mol
DOCKED: USER        Electrostatic Energy            =  -0.06 kcal/mol
DOCKED: USER        Moving Ligand-Fixed Receptor    =  -9.94 kcal/mol
DOCKED: USER        Moving Ligand-Moving Receptor   =  +0.00 kcal/mol
DOCKED: USER    (2) Final Total Internal Energy     =  -1.85 kcal/mol
DOCKED: USER    (3) Torsional Free Energy           =  +1.49 kcal/mol
DOCKED: USER    (4) Unbound System's Energy         =  -1.85 kcal/mol
DOCKED: USER
DOCKED: USER
DOCKED: REMARK SMILES O=C(NCC(=O)N1CCCC[C@H]1c1ccc(Cl)cc1)c1ccc2cc(Cl)ccc2n1
DOCKED: REMARK SMILES IDX 4 1 3 2 2 3 1 4 20 6 21 7 30 8 22 9 29 10 23 11 28 12 24 13
DOCKED: REMARK SMILES IDX 27 14 25 15 26 16 5 17 6 18 7 19 8 20 12 21 9 22 11 23 10 24
DOCKED: REMARK SMILES IDX 13 25 14 26 19 27 15 28 18 29 16 30 17 31
DOCKED: REMARK H PARENT 3 5
DOCKED: USER                              x       y       z     vdW  Elec       q    Type
DOCKED: USER                           _______ _______ _______ _____ _____    ______ ____
DOCKED: ROOT
DOCKED: ATOM      1  C   UNL     1     137.695  74.046 220.962 -0.07 -0.05    +0.216 C  
DOCKED: ENDROOT
DOCKED: BRANCH   1   2
DOCKED: ATOM      2  N   UNL     1     137.941  73.266 222.127 -0.05 +0.11    -0.342 N  
DOCKED: ATOM      3  C   UNL     1     138.967  72.243 221.992 -0.14 -0.06    +0.270 C  
DOCKED: ATOM      4  O   UNL     1     139.533  72.146 220.871 -0.06 +0.05    -0.268 OA 
DOCKED: ATOM      5  H   UNL     1     137.512  73.311 223.052 -0.48 -0.09    +0.164 HD 
DOCKED: BRANCH   3   6
DOCKED: ATOM      6  C   UNL     1     139.289  71.396 223.128 -0.26 -0.03    +0.128 A  
DOCKED: ATOM      7  C   UNL     1     138.938  70.064 223.040 -0.22 -0.01    +0.035 A  
DOCKED: ATOM      8  N   UNL     1     139.901  71.841 224.241 -0.22 +0.06    -0.243 NA 
DOCKED: ATOM      9  C   UNL     1     139.209  69.206 224.070 -0.31 -0.00    +0.013 A  
DOCKED: ATOM     10  C   UNL     1     140.185  71.024 225.279 -0.48 -0.01    +0.071 A  
DOCKED: ATOM     11  C   UNL     1     139.844  69.683 225.214 -0.42 -0.00    +0.002 A  
DOCKED: ATOM     12  C   UNL     1     140.811  71.522 226.395 -0.66 -0.00    +0.030 A  
DOCKED: ATOM     13  C   UNL     1     140.114  68.807 226.252 -0.53 -0.01    +0.030 A  
DOCKED: ATOM     14  C   UNL     1     141.095  70.674 227.448 -0.61 -0.00    +0.023 A  
DOCKED: ATOM     15  C   UNL     1     140.749  69.322 227.379 -0.57 -0.01    +0.041 A  
DOCKED: ATOM     16  Cl  UNL     1     141.108  68.231 228.722 -0.69 +0.02    -0.084 Cl 
DOCKED: ENDBRANCH   3   6
DOCKED: ENDBRANCH   1   2
DOCKED: BRANCH   1  17
DOCKED: ATOM     17  C   UNL     1     138.616  75.092 220.567 -0.07 -0.05    +0.242 C  
DOCKED: ATOM     18  O   UNL     1     138.607  75.307 219.257 -0.01 +0.06    -0.273 OA 
DOCKED: BRANCH  17  19
DOCKED: ATOM     19  N   UNL     1     139.508  75.925 221.226 -0.10 +0.08    -0.334 N  
DOCKED: ATOM     20  C   UNL     1     139.162  76.153 222.679 -0.18 -0.02    +0.120 C  
DOCKED: ATOM     21  C   UNL     1     140.676  76.606 220.818 -0.22 -0.04    +0.115 C  
DOCKED: ATOM     22  C   UNL     1     138.723  77.614 222.646 -0.29 -0.00    +0.022 C  
DOCKED: ATOM     23  C   UNL     1     141.100  77.699 221.788 -0.37 -0.01    +0.030 C  
DOCKED: ATOM     24  C   UNL     1     139.979  78.399 222.476 -0.37 -0.00    +0.004 C  
DOCKED: BRANCH  21  25
DOCKED: ATOM     25  C   UNL     1     141.810  75.675 220.622 -0.28 +0.01    -0.025 A  
DOCKED: ATOM     26  C   UNL     1     141.773  74.346 221.025 -0.28 -0.00    +0.007 A  
DOCKED: ATOM     27  C   UNL     1     143.009  76.077 220.029 -0.31 -0.00    +0.007 A  
DOCKED: ATOM     28  C   UNL     1     142.837  73.484 220.857 -0.26 -0.00    +0.021 A  
DOCKED: ATOM     29  C   UNL     1     144.074  75.222 219.858 -0.39 -0.01    +0.021 A  
DOCKED: ATOM     30  C   UNL     1     144.008  73.910 220.269 -0.39 -0.01    +0.041 A  
DOCKED: ATOM     31  Cl  UNL     1     145.385  72.855 220.033 -0.63 -0.01    -0.084 Cl 
DOCKED: ENDBRANCH  21  25
DOCKED: ENDBRANCH  17  19
DOCKED: ENDBRANCH   1  17
DOCKED: TORSDOF 5
DOCKED: TER
DOCKED: ENDMDL
________________________________________________________________________________


    FINAL DOCKED STATE:
    ________________________


Run:   15 / 20
Time taken for this run:   0.047s

DOCKED: MODEL        15
DOCKED: USER    Run = 15
DOCKED: USER
DOCKED: USER    Estimated Free Energy of Binding    =  -8.66 kcal/mol  [=(1)+(2)+(3)-(4)]
DOCKED: USER
DOCKED: USER    (1) Final Intermolecular Energy     = -10.15 kcal/mol
DOCKED: USER        vdW + Hbond + desolv Energy     = -10.13 kcal/mol
DOCKED: USER        Electrostatic Energy            =  -0.02 kcal/mol
DOCKED: USER        Moving Ligand-Fixed Receptor    = -10.15 kcal/mol
DOCKED: USER        Moving Ligand-Moving Receptor   =  +0.00 kcal/mol
DOCKED: USER    (2) Final Total Internal Energy     =  -1.44 kcal/mol
DOCKED: USER    (3) Torsional Free Energy           =  +1.49 kcal/mol
DOCKED: USER    (4) Unbound System's Energy         =  -1.44 kcal/mol
DOCKED: USER
DOCKED: USER
DOCKED: REMARK SMILES O=C(NCC(=O)N1CCCC[C@H]1c1ccc(Cl)cc1)c1ccc2cc(Cl)ccc2n1
DOCKED: REMARK SMILES IDX 4 1 3 2 2 3 1 4 20 6 21 7 30 8 22 9 29 10 23 11 28 12 24 13
DOCKED: REMARK SMILES IDX 27 14 25 15 26 16 5 17 6 18 7 19 8 20 12 21 9 22 11 23 10 24
DOCKED: REMARK SMILES IDX 13 25 14 26 19 27 15 28 18 29 16 30 17 31
DOCKED: REMARK H PARENT 3 5
DOCKED: USER                              x       y       z     vdW  Elec       q    Type
DOCKED: USER                           _______ _______ _______ _____ _____    ______ ____
DOCKED: ROOT
DOCKED: ATOM      1  C   UNL     1     139.313  74.679 220.866 -0.13 -0.05    +0.216 C  
DOCKED: ENDROOT
DOCKED: BRANCH   1   2
DOCKED: ATOM      2  N   UNL     1     139.430  73.903 222.052 -0.14 +0.06    -0.342 N  
DOCKED: ATOM      3  C   UNL     1     139.695  72.486 221.853 -0.17 -0.05    +0.270 C  
DOCKED: ATOM      4  O   UNL     1     139.794  72.086 220.663 -0.06 +0.05    -0.268 OA 
DOCKED: ATOM      5  H   UNL     1     139.361  74.183 223.032 -0.52 -0.04    +0.164 HD 
DOCKED: BRANCH   3   6
DOCKED: ATOM      6  C   UNL     1     139.832  71.612 223.006 -0.28 -0.02    +0.128 A  
DOCKED: ATOM      7  C   UNL     1     139.416  70.305 222.858 -0.22 -0.01    +0.035 A  
DOCKED: ATOM      8  N   UNL     1     140.336  72.010 224.189 -0.23 +0.04    -0.243 NA 
DOCKED: ATOM      9  C   UNL     1     139.513  69.424 223.899 -0.26 -0.00    +0.013 A  
DOCKED: ATOM     10  C   UNL     1     140.448  71.170 225.240 -0.50 -0.01    +0.071 A  
DOCKED: ATOM     11  C   UNL     1     140.038  69.853 225.117 -0.42 -0.00    +0.002 A  
DOCKED: ATOM     12  C   UNL     1     140.968  71.621 226.428 -0.67 -0.00    +0.030 A  
DOCKED: ATOM     13  C   UNL     1     140.133  68.954 226.165 -0.51 -0.01    +0.030 A  
DOCKED: ATOM     14  C   UNL     1     141.077  70.748 227.494 -0.64 -0.00    +0.023 A  
DOCKED: ATOM     15  C   UNL     1     140.662  69.420 227.366 -0.57 -0.01    +0.041 A  
DOCKED: ATOM     16  Cl  UNL     1     140.797  68.299 228.725 -0.67 +0.02    -0.084 Cl 
DOCKED: ENDBRANCH   3   6
DOCKED: ENDBRANCH   1   2
DOCKED: BRANCH   1  17
DOCKED: ATOM     17  C   UNL     1     138.605  75.943 220.878 -0.09 -0.05    +0.242 C  
DOCKED: ATOM     18  O   UNL     1     138.446  76.446 219.659 -0.01 +0.06    -0.273 OA 
DOCKED: BRANCH  17  19
DOCKED: ATOM     19  N   UNL     1     138.051  76.757 221.854 -0.10 +0.07    -0.334 N  
DOCKED: ATOM     20  C   UNL     1     137.393  75.992 222.978 -0.17 -0.03    +0.120 C  
DOCKED: ATOM     21  C   UNL     1     137.977  78.158 222.017 -0.17 -0.02    +0.115 C  
DOCKED: ATOM     22  C   UNL     1     135.922  76.298 222.712 -0.19 -0.00    +0.022 C  
DOCKED: ATOM     23  C   UNL     1     136.943  78.586 223.047 -0.14 -0.00    +0.030 C  
DOCKED: ATOM     24  C   UNL     1     135.734  77.718 223.124 -0.17 -0.00    +0.004 C  
DOCKED: BRANCH  21  25
DOCKED: ATOM     25  C   UNL     1     139.289  78.735 222.387 -0.28 +0.01    -0.025 A  
DOCKED: ATOM     26  C   UNL     1     140.462  78.440 221.704 -0.30 -0.00    +0.007 A  
DOCKED: ATOM     27  C   UNL     1     139.440  79.607 223.467 -0.41 -0.00    +0.007 A  
DOCKED: ATOM     28  C   UNL     1     141.687  78.965 222.061 -0.45 -0.01    +0.021 A  
DOCKED: ATOM     29  C   UNL     1     140.659  80.134 223.829 -0.44 -0.00    +0.021 A  
DOCKED: ATOM     30  C   UNL     1     141.806  79.823 223.133 -0.56 -0.01    +0.041 A  
DOCKED: ATOM     31  Cl  UNL     1     143.336  80.515 223.624 -0.65 +0.02    -0.084 Cl 
DOCKED: ENDBRANCH  21  25
DOCKED: ENDBRANCH  17  19
DOCKED: ENDBRANCH   1  17
DOCKED: TORSDOF 5
DOCKED: TER
DOCKED: ENDMDL
________________________________________________________________________________


    FINAL DOCKED STATE:
    ________________________


Run:   16 / 20
Time taken for this run:   0.047s

DOCKED: MODEL        16
DOCKED: USER    Run = 16
DOCKED: USER
DOCKED: USER    Estimated Free Energy of Binding    =  -8.12 kcal/mol  [=(1)+(2)+(3)-(4)]
DOCKED: USER
DOCKED: USER    (1) Final Intermolecular Energy     =  -9.62 kcal/mol
DOCKED: USER        vdW + Hbond + desolv Energy     =  -9.59 kcal/mol
DOCKED: USER        Electrostatic Energy            =  -0.03 kcal/mol
DOCKED: USER        Moving Ligand-Fixed Receptor    =  -9.62 kcal/mol
DOCKED: USER        Moving Ligand-Moving Receptor   =  +0.00 kcal/mol
DOCKED: USER    (2) Final Total Internal Energy     =  -1.72 kcal/mol
DOCKED: USER    (3) Torsional Free Energy           =  +1.49 kcal/mol
DOCKED: USER    (4) Unbound System's Energy         =  -1.72 kcal/mol
DOCKED: USER
DOCKED: USER
DOCKED: REMARK SMILES O=C(NCC(=O)N1CCCC[C@H]1c1ccc(Cl)cc1)c1ccc2cc(Cl)ccc2n1
DOCKED: REMARK SMILES IDX 4 1 3 2 2 3 1 4 20 6 21 7 30 8 22 9 29 10 23 11 28 12 24 13
DOCKED: REMARK SMILES IDX 27 14 25 15 26 16 5 17 6 18 7 19 8 20 12 21 9 22 11 23 10 24
DOCKED: REMARK SMILES IDX 13 25 14 26 19 27 15 28 18 29 16 30 17 31
DOCKED: REMARK H PARENT 3 5
DOCKED: USER                              x       y       z     vdW  Elec       q    Type
DOCKED: USER                           _______ _______ _______ _____ _____    ______ ____
DOCKED: ROOT
DOCKED: ATOM      1  C   UNL     1     139.524  73.285 219.586 -0.03 -0.04    +0.216 C  
DOCKED: ENDROOT
DOCKED: BRANCH   1   2
DOCKED: ATOM      2  N   UNL     1     139.545  72.323 220.635 -0.03 +0.06    -0.342 N  
DOCKED: ATOM      3  C   UNL     1     139.965  72.822 221.935 -0.19 -0.04    +0.270 C  
DOCKED: ATOM      4  O   UNL     1     140.266  74.043 222.009 -0.82 +0.01    -0.268 OA 
DOCKED: ATOM      5  H   UNL     1     139.306  71.330 220.623 +0.03 -0.03    +0.164 HD 
DOCKED: BRANCH   3   6
DOCKED: ATOM      6  C   UNL     1     140.017  71.915 223.070 -0.30 -0.02    +0.128 A  
DOCKED: ATOM      7  C   UNL     1     139.557  70.629 222.869 -0.25 -0.01    +0.035 A  
DOCKED: ATOM      8  N   UNL     1     140.483  72.263 224.283 -0.06 +0.03    -0.243 NA 
DOCKED: ATOM      9  C   UNL     1     139.574  69.719 223.890 -0.28 -0.00    +0.013 A  
DOCKED: ATOM     10  C   UNL     1     140.516  71.393 225.315 -0.50 -0.01    +0.071 A  
DOCKED: ATOM     11  C   UNL     1     140.061  70.097 225.140 -0.44 -0.00    +0.002 A  
DOCKED: ATOM     12  C   UNL     1     141.001  71.792 226.536 -0.69 -0.00    +0.030 A  
DOCKED: ATOM     13  C   UNL     1     140.075  69.169 226.167 -0.50 -0.01    +0.030 A  
DOCKED: ATOM     14  C   UNL     1     141.028  70.890 227.583 -0.67 -0.00    +0.023 A  
DOCKED: ATOM     15  C   UNL     1     140.568  69.584 227.401 -0.57 -0.01    +0.041 A  
DOCKED: ATOM     16  Cl  UNL     1     140.599  68.424 228.735 -0.65 +0.02    -0.084 Cl 
DOCKED: ENDBRANCH   3   6
DOCKED: ENDBRANCH   1   2
DOCKED: BRANCH   1  17
DOCKED: ATOM     17  C   UNL     1     140.737  73.624 218.872 -0.02 -0.05    +0.242 C  
DOCKED: ATOM     18  O   UNL     1     140.558  73.661 217.556 -0.00 +0.06    -0.273 OA 
DOCKED: BRANCH  17  19
DOCKED: ATOM     19  N   UNL     1     142.044  73.920 219.228 -0.02 +0.08    -0.334 N  
DOCKED: ATOM     20  C   UNL     1     143.073  73.093 218.492 -0.08 -0.02    +0.120 C  
DOCKED: ATOM     21  C   UNL     1     142.615  74.837 220.137 -0.26 -0.04    +0.115 C  
DOCKED: ATOM     22  C   UNL     1     143.584  72.198 219.618 -0.22 -0.00    +0.022 C  
DOCKED: ATOM     23  C   UNL     1     144.070  74.532 220.461 -0.40 -0.01    +0.030 C  
DOCKED: ATOM     24  C   UNL     1     144.421  73.084 220.476 -0.45 -0.00    +0.004 C  
DOCKED: BRANCH  21  25
DOCKED: ATOM     25  C   UNL     1     142.515  76.229 219.644 -0.33 +0.01    -0.025 A  
DOCKED: ATOM     26  C   UNL     1     143.039  76.635 218.423 -0.32 -0.00    +0.007 A  
DOCKED: ATOM     27  C   UNL     1     141.900  77.239 220.386 -0.30 -0.00    +0.007 A  
DOCKED: ATOM     28  C   UNL     1     142.961  77.936 217.972 -0.29 -0.02    +0.021 A  
DOCKED: ATOM     29  C   UNL     1     141.819  78.539 219.942 -0.28 -0.01    +0.021 A  
DOCKED: ATOM     30  C   UNL     1     142.347  78.913 218.727 -0.26 -0.03    +0.041 A  
DOCKED: ATOM     31  Cl  UNL     1     142.223  80.576 218.198 -0.41 +0.06    -0.084 Cl 
DOCKED: ENDBRANCH  21  25
DOCKED: ENDBRANCH  17  19
DOCKED: ENDBRANCH   1  17
DOCKED: TORSDOF 5
DOCKED: TER
DOCKED: ENDMDL
________________________________________________________________________________


    FINAL DOCKED STATE:
    ________________________


Run:   17 / 20
Time taken for this run:   0.047s

DOCKED: MODEL        17
DOCKED: USER    Run = 17
DOCKED: USER
DOCKED: USER    Estimated Free Energy of Binding    =  -8.04 kcal/mol  [=(1)+(2)+(3)-(4)]
DOCKED: USER
DOCKED: USER    (1) Final Intermolecular Energy     =  -9.53 kcal/mol
DOCKED: USER        vdW + Hbond + desolv Energy     =  -9.47 kcal/mol
DOCKED: USER        Electrostatic Energy            =  -0.06 kcal/mol
DOCKED: USER        Moving Ligand-Fixed Receptor    =  -9.53 kcal/mol
DOCKED: USER        Moving Ligand-Moving Receptor   =  +0.00 kcal/mol
DOCKED: USER    (2) Final Total Internal Energy     =  -1.94 kcal/mol
DOCKED: USER    (3) Torsional Free Energy           =  +1.49 kcal/mol
DOCKED: USER    (4) Unbound System's Energy         =  -1.94 kcal/mol
DOCKED: USER
DOCKED: USER
DOCKED: REMARK SMILES O=C(NCC(=O)N1CCCC[C@H]1c1ccc(Cl)cc1)c1ccc2cc(Cl)ccc2n1
DOCKED: REMARK SMILES IDX 4 1 3 2 2 3 1 4 20 6 21 7 30 8 22 9 29 10 23 11 28 12 24 13
DOCKED: REMARK SMILES IDX 27 14 25 15 26 16 5 17 6 18 7 19 8 20 12 21 9 22 11 23 10 24
DOCKED: REMARK SMILES IDX 13 25 14 26 19 27 15 28 18 29 16 30 17 31
DOCKED: REMARK H PARENT 3 5
DOCKED: USER                              x       y       z     vdW  Elec       q    Type
DOCKED: USER                           _______ _______ _______ _____ _____    ______ ____
DOCKED: ROOT
DOCKED: ATOM      1  C   UNL     1     137.992  74.157 220.753 -0.07 -0.05    +0.216 C  
DOCKED: ENDROOT
DOCKED: BRANCH   1   2
DOCKED: ATOM      2  N   UNL     1     138.275  73.460 221.961 -0.09 +0.10    -0.342 N  
DOCKED: ATOM      3  C   UNL     1     138.923  72.168 221.803 -0.12 -0.06    +0.270 C  
DOCKED: ATOM      4  O   UNL     1     139.169  71.792 220.626 -0.04 +0.05    -0.268 OA 
DOCKED: ATOM      5  H   UNL     1     138.098  73.726 222.931 -0.53 -0.11    +0.164 HD 
DOCKED: BRANCH   3   6
DOCKED: ATOM      6  C   UNL     1     139.253  71.381 222.980 -0.24 -0.03    +0.128 A  
DOCKED: ATOM      7  C   UNL     1     138.915  70.044 222.959 -0.21 -0.01    +0.035 A  
DOCKED: ATOM      8  N   UNL     1     139.860  71.887 224.069 -0.22 +0.06    -0.243 NA 
DOCKED: ATOM      9  C   UNL     1     139.194  69.241 224.030 -0.31 -0.00    +0.013 A  
DOCKED: ATOM     10  C   UNL     1     140.152  71.127 225.146 -0.47 -0.01    +0.071 A  
DOCKED: ATOM     11  C   UNL     1     139.824  69.781 225.149 -0.42 -0.00    +0.002 A  
DOCKED: ATOM     12  C   UNL     1     140.773  71.686 226.236 -0.62 -0.00    +0.030 A  
DOCKED: ATOM     13  C   UNL     1     140.102  68.961 226.229 -0.52 -0.01    +0.030 A  
DOCKED: ATOM     14  C   UNL     1     141.064  70.895 227.330 -0.66 -0.00    +0.023 A  
DOCKED: ATOM     15  C   UNL     1     140.732  69.538 227.329 -0.56 -0.01    +0.041 A  
DOCKED: ATOM     16  Cl  UNL     1     141.101  68.519 228.725 -0.69 +0.02    -0.084 Cl 
DOCKED: ENDBRANCH   3   6
DOCKED: ENDBRANCH   1   2
DOCKED: BRANCH   1  17
DOCKED: ATOM     17  C   UNL     1     139.063  74.716 219.955 -0.04 -0.05    +0.242 C  
DOCKED: ATOM     18  O   UNL     1     138.615  75.368 218.888 -0.01 +0.06    -0.273 OA 
DOCKED: BRANCH  17  19
DOCKED: ATOM     19  N   UNL     1     140.448  74.736 220.033 -0.03 +0.08    -0.334 N  
DOCKED: ATOM     20  C   UNL     1     141.132  74.403 218.728 -0.05 -0.03    +0.120 C  
DOCKED: ATOM     21  C   UNL     1     141.353  75.006 221.083 -0.26 -0.03    +0.115 C  
DOCKED: ATOM     22  C   UNL     1     141.715  73.030 219.050 -0.08 -0.00    +0.022 C  
DOCKED: ATOM     23  C   UNL     1     142.769  74.533 220.788 -0.23 -0.01    +0.030 C  
DOCKED: ATOM     24  C   UNL     1     142.860  73.293 219.967 -0.25 -0.00    +0.004 C  
DOCKED: BRANCH  21  25
DOCKED: ATOM     25  C   UNL     1     141.390  76.447 221.416 -0.23 +0.01    -0.025 A  
DOCKED: ATOM     26  C   UNL     1     141.786  77.421 220.508 -0.31 -0.00    +0.007 A  
DOCKED: ATOM     27  C   UNL     1     141.044  76.928 222.681 -0.37 -0.00    +0.007 A  
DOCKED: ATOM     28  C   UNL     1     141.836  78.762 220.825 -0.32 -0.01    +0.021 A  
DOCKED: ATOM     29  C   UNL     1     141.091  78.265 223.004 -0.50 -0.01    +0.021 A  
DOCKED: ATOM     30  C   UNL     1     141.488  79.208 222.082 -0.42 -0.02    +0.041 A  
DOCKED: ATOM     31  Cl  UNL     1     141.535  80.898 222.532 -0.62 +0.02    -0.084 Cl 
DOCKED: ENDBRANCH  21  25
DOCKED: ENDBRANCH  17  19
DOCKED: ENDBRANCH   1  17
DOCKED: TORSDOF 5
DOCKED: TER
DOCKED: ENDMDL
________________________________________________________________________________


    FINAL DOCKED STATE:
    ________________________


Run:   18 / 20
Time taken for this run:   0.047s

DOCKED: MODEL        18
DOCKED: USER    Run = 18
DOCKED: USER
DOCKED: USER    Estimated Free Energy of Binding    =  -8.76 kcal/mol  [=(1)+(2)+(3)-(4)]
DOCKED: USER
DOCKED: USER    (1) Final Intermolecular Energy     = -10.25 kcal/mol
DOCKED: USER        vdW + Hbond + desolv Energy     = -10.26 kcal/mol
DOCKED: USER        Electrostatic Energy            =  +0.01 kcal/mol
DOCKED: USER        Moving Ligand-Fixed Receptor    = -10.25 kcal/mol
DOCKED: USER        Moving Ligand-Moving Receptor   =  +0.00 kcal/mol
DOCKED: USER    (2) Final Total Internal Energy     =  -1.51 kcal/mol
DOCKED: USER    (3) Torsional Free Energy           =  +1.49 kcal/mol
DOCKED: USER    (4) Unbound System's Energy         =  -1.51 kcal/mol
DOCKED: USER
DOCKED: USER
DOCKED: REMARK SMILES O=C(NCC(=O)N1CCCC[C@H]1c1ccc(Cl)cc1)c1ccc2cc(Cl)ccc2n1
DOCKED: REMARK SMILES IDX 4 1 3 2 2 3 1 4 20 6 21 7 30 8 22 9 29 10 23 11 28 12 24 13
DOCKED: REMARK SMILES IDX 27 14 25 15 26 16 5 17 6 18 7 19 8 20 12 21 9 22 11 23 10 24
DOCKED: REMARK SMILES IDX 13 25 14 26 19 27 15 28 18 29 16 30 17 31
DOCKED: REMARK H PARENT 3 5
DOCKED: USER                              x       y       z     vdW  Elec       q    Type
DOCKED: USER                           _______ _______ _______ _____ _____    ______ ____
DOCKED: ROOT
DOCKED: ATOM      1  C   UNL     1     139.422  74.868 220.945 -0.14 -0.05    +0.216 C  
DOCKED: ENDROOT
DOCKED: BRANCH   1   2
DOCKED: ATOM      2  N   UNL     1     139.559  74.072 222.116 -0.13 +0.05    -0.342 N  
DOCKED: ATOM      3  C   UNL     1     139.687  72.640 221.891 -0.18 -0.05    +0.270 C  
DOCKED: ATOM      4  O   UNL     1     139.665  72.246 220.695 -0.06 +0.05    -0.268 OA 
DOCKED: ATOM      5  H   UNL     1     139.585  74.346 223.100 -0.52 -0.01    +0.164 HD 
DOCKED: BRANCH   3   6
DOCKED: ATOM      6  C   UNL     1     139.832  71.745 223.027 -0.29 -0.02    +0.128 A  
DOCKED: ATOM      7  C   UNL     1     139.428  70.437 222.853 -0.23 -0.01    +0.035 A  
DOCKED: ATOM      8  N   UNL     1     140.332  72.125 224.217 -0.18 +0.04    -0.243 NA 
DOCKED: ATOM      9  C   UNL     1     139.534  69.536 223.877 -0.27 -0.00    +0.013 A  
DOCKED: ATOM     10  C   UNL     1     140.452  71.265 225.252 -0.49 -0.01    +0.071 A  
DOCKED: ATOM     11  C   UNL     1     140.055  69.947 225.103 -0.43 -0.00    +0.002 A  
DOCKED: ATOM     12  C   UNL     1     140.968  71.697 226.449 -0.67 -0.00    +0.030 A  
DOCKED: ATOM     13  C   UNL     1     140.158  69.028 226.134 -0.51 -0.01    +0.030 A  
DOCKED: ATOM     14  C   UNL     1     141.085  70.805 227.498 -0.64 -0.00    +0.023 A  
DOCKED: ATOM     15  C   UNL     1     140.683  69.476 227.343 -0.57 -0.01    +0.041 A  
DOCKED: ATOM     16  Cl  UNL     1     140.828  68.329 228.680 -0.69 +0.02    -0.084 Cl 
DOCKED: ENDBRANCH   3   6
DOCKED: ENDBRANCH   1   2
DOCKED: BRANCH   1  17
DOCKED: ATOM     17  C   UNL     1     138.555  76.029 220.939 -0.09 -0.05    +0.242 C  
DOCKED: ATOM     18  O   UNL     1     138.273  76.444 219.710 -0.01 +0.06    -0.273 OA 
DOCKED: BRANCH  17  19
DOCKED: ATOM     19  N   UNL     1     137.948  76.814 221.907 -0.10 +0.07    -0.334 N  
DOCKED: ATOM     20  C   UNL     1     137.271  76.016 222.997 -0.20 -0.03    +0.120 C  
DOCKED: ATOM     21  C   UNL     1     137.831  78.210 222.086 -0.16 -0.02    +0.115 C  
DOCKED: ATOM     22  C   UNL     1     135.802  76.287 222.684 -0.18 -0.00    +0.022 C  
DOCKED: ATOM     23  C   UNL     1     136.751  78.597 223.085 -0.15 -0.00    +0.030 C  
DOCKED: ATOM     24  C   UNL     1     135.564  77.696 223.108 -0.17 -0.00    +0.004 C  
DOCKED: BRANCH  21  25
DOCKED: ATOM     25  C   UNL     1     139.113  78.815 222.509 -0.28 +0.00    -0.025 A  
DOCKED: ATOM     26  C   UNL     1     140.291  78.087 222.618 -0.40 -0.00    +0.007 A  
DOCKED: ATOM     27  C   UNL     1     139.223  80.166 222.848 -0.32 -0.00    +0.007 A  
DOCKED: ATOM     28  C   UNL     1     141.482  78.649 223.029 -0.54 -0.01    +0.021 A  
DOCKED: ATOM     29  C   UNL     1     140.408  80.733 223.259 -0.42 -0.00    +0.021 A  
DOCKED: ATOM     30  C   UNL     1     141.560  79.985 223.358 -0.54 -0.01    +0.041 A  
DOCKED: ATOM     31  Cl  UNL     1     143.046  80.744 223.884 -0.69 +0.02    -0.084 Cl 
DOCKED: ENDBRANCH  21  25
DOCKED: ENDBRANCH  17  19
DOCKED: ENDBRANCH   1  17
DOCKED: TORSDOF 5
DOCKED: TER
DOCKED: ENDMDL
________________________________________________________________________________


    FINAL DOCKED STATE:
    ________________________


Run:   19 / 20
Time taken for this run:   0.047s

DOCKED: MODEL        19
DOCKED: USER    Run = 19
DOCKED: USER
DOCKED: USER    Estimated Free Energy of Binding    =  -8.53 kcal/mol  [=(1)+(2)+(3)-(4)]
DOCKED: USER
DOCKED: USER    (1) Final Intermolecular Energy     = -10.03 kcal/mol
DOCKED: USER        vdW + Hbond + desolv Energy     =  -9.94 kcal/mol
DOCKED: USER        Electrostatic Energy            =  -0.09 kcal/mol
DOCKED: USER        Moving Ligand-Fixed Receptor    = -10.03 kcal/mol
DOCKED: USER        Moving Ligand-Moving Receptor   =  +0.00 kcal/mol
DOCKED: USER    (2) Final Total Internal Energy     =  -1.77 kcal/mol
DOCKED: USER    (3) Torsional Free Energy           =  +1.49 kcal/mol
DOCKED: USER    (4) Unbound System's Energy         =  -1.77 kcal/mol
DOCKED: USER
DOCKED: USER
DOCKED: REMARK SMILES O=C(NCC(=O)N1CCCC[C@H]1c1ccc(Cl)cc1)c1ccc2cc(Cl)ccc2n1
DOCKED: REMARK SMILES IDX 4 1 3 2 2 3 1 4 20 6 21 7 30 8 22 9 29 10 23 11 28 12 24 13
DOCKED: REMARK SMILES IDX 27 14 25 15 26 16 5 17 6 18 7 19 8 20 12 21 9 22 11 23 10 24
DOCKED: REMARK SMILES IDX 13 25 14 26 19 27 15 28 18 29 16 30 17 31
DOCKED: REMARK H PARENT 3 5
DOCKED: USER                              x       y       z     vdW  Elec       q    Type
DOCKED: USER                           _______ _______ _______ _____ _____    ______ ____
DOCKED: ROOT
DOCKED: ATOM      1  C   UNL     1     138.390  74.292 220.794 -0.08 -0.05    +0.216 C  
DOCKED: ENDROOT
DOCKED: BRANCH   1   2
DOCKED: ATOM      2  N   UNL     1     138.573  73.534 221.984 -0.09 +0.10    -0.342 N  
DOCKED: ATOM      3  C   UNL     1     139.319  72.295 221.832 -0.14 -0.05    +0.270 C  
DOCKED: ATOM      4  O   UNL     1     139.729  72.013 220.674 -0.06 +0.05    -0.268 OA 
DOCKED: ATOM      5  H   UNL     1     138.264  73.723 222.939 -0.54 -0.11    +0.164 HD 
DOCKED: BRANCH   3   6
DOCKED: ATOM      6  C   UNL     1     139.558  71.453 222.992 -0.27 -0.03    +0.128 A  
DOCKED: ATOM      7  C   UNL     1     139.192  70.126 222.892 -0.21 -0.01    +0.035 A  
DOCKED: ATOM      8  N   UNL     1     140.107  71.898 224.137 -0.26 +0.05    -0.243 NA 
DOCKED: ATOM      9  C   UNL     1     139.385  69.272 223.943 -0.27 -0.00    +0.013 A  
DOCKED: ATOM     10  C   UNL     1     140.314  71.086 225.196 -0.49 -0.01    +0.071 A  
DOCKED: ATOM     11  C   UNL     1     139.956  69.750 225.121 -0.42 -0.00    +0.002 A  
DOCKED: ATOM     12  C   UNL     1     140.877  71.584 226.345 -0.65 -0.00    +0.030 A  
DOCKED: ATOM     13  C   UNL     1     140.148  68.879 226.180 -0.52 -0.01    +0.030 A  
DOCKED: ATOM     14  C   UNL     1     141.083  70.741 227.420 -0.63 -0.00    +0.023 A  
DOCKED: ATOM     15  C   UNL     1     140.721  69.394 227.340 -0.57 -0.01    +0.041 A  
DOCKED: ATOM     16  Cl  UNL     1     140.979  68.309 228.711 -0.70 +0.02    -0.084 Cl 
DOCKED: ENDBRANCH   3   6
DOCKED: ENDBRANCH   1   2
DOCKED: BRANCH   1  17
DOCKED: ATOM     17  C   UNL     1     138.678  75.711 220.772 -0.08 -0.05    +0.242 C  
DOCKED: ATOM     18  O   UNL     1     137.739  76.409 220.144 -0.02 +0.06    -0.273 OA 
DOCKED: BRANCH  17  19
DOCKED: ATOM     19  N   UNL     1     139.698  76.521 221.248 -0.09 +0.09    -0.334 N  
DOCKED: ATOM     20  C   UNL     1     139.508  76.953 222.683 -0.16 -0.02    +0.120 C  
DOCKED: ATOM     21  C   UNL     1     140.883  77.026 220.667 -0.22 -0.05    +0.115 C  
DOCKED: ATOM     22  C   UNL     1     139.203  78.437 222.499 -0.30 -0.00    +0.022 C  
DOCKED: ATOM     23  C   UNL     1     141.491  78.177 221.454 -0.35 -0.02    +0.030 C  
DOCKED: ATOM     24  C   UNL     1     140.505  79.064 222.134 -0.35 -0.00    +0.004 C  
DOCKED: BRANCH  21  25
DOCKED: ATOM     25  C   UNL     1     141.903  75.967 220.502 -0.27 +0.01    -0.025 A  
DOCKED: ATOM     26  C   UNL     1     141.739  74.677 220.991 -0.29 -0.00    +0.007 A  
DOCKED: ATOM     27  C   UNL     1     143.119  76.200 219.854 -0.34 -0.00    +0.007 A  
DOCKED: ATOM     28  C   UNL     1     142.698  73.697 220.851 -0.26 -0.00    +0.021 A  
DOCKED: ATOM     29  C   UNL     1     144.080  75.226 219.711 -0.36 -0.01    +0.021 A  
DOCKED: ATOM     30  C   UNL     1     143.889  73.955 220.207 -0.37 -0.01    +0.041 A  
DOCKED: ATOM     31  Cl  UNL     1     145.136  72.745 220.004 -0.58 -0.00    -0.084 Cl 
DOCKED: ENDBRANCH  21  25
DOCKED: ENDBRANCH  17  19
DOCKED: ENDBRANCH   1  17
DOCKED: TORSDOF 5
DOCKED: TER
DOCKED: ENDMDL
________________________________________________________________________________


    FINAL DOCKED STATE:
    ________________________


Run:   20 / 20
Time taken for this run:   0.047s

DOCKED: MODEL        20
DOCKED: USER    Run = 20
DOCKED: USER
DOCKED: USER    Estimated Free Energy of Binding    =  -8.56 kcal/mol  [=(1)+(2)+(3)-(4)]
DOCKED: USER
DOCKED: USER    (1) Final Intermolecular Energy     = -10.05 kcal/mol
DOCKED: USER        vdW + Hbond + desolv Energy     =  -9.95 kcal/mol
DOCKED: USER        Electrostatic Energy            =  -0.10 kcal/mol
DOCKED: USER        Moving Ligand-Fixed Receptor    = -10.05 kcal/mol
DOCKED: USER        Moving Ligand-Moving Receptor   =  +0.00 kcal/mol
DOCKED: USER    (2) Final Total Internal Energy     =  -1.74 kcal/mol
DOCKED: USER    (3) Torsional Free Energy           =  +1.49 kcal/mol
DOCKED: USER    (4) Unbound System's Energy         =  -1.74 kcal/mol
DOCKED: USER
DOCKED: USER
DOCKED: REMARK SMILES O=C(NCC(=O)N1CCCC[C@H]1c1ccc(Cl)cc1)c1ccc2cc(Cl)ccc2n1
DOCKED: REMARK SMILES IDX 4 1 3 2 2 3 1 4 20 6 21 7 30 8 22 9 29 10 23 11 28 12 24 13
DOCKED: REMARK SMILES IDX 27 14 25 15 26 16 5 17 6 18 7 19 8 20 12 21 9 22 11 23 10 24
DOCKED: REMARK SMILES IDX 13 25 14 26 19 27 15 28 18 29 16 30 17 31
DOCKED: REMARK H PARENT 3 5
DOCKED: USER                              x       y       z     vdW  Elec       q    Type
DOCKED: USER                           _______ _______ _______ _____ _____    ______ ____
DOCKED: ROOT
DOCKED: ATOM      1  C   UNL     1     138.569  74.399 220.918 -0.10 -0.05    +0.216 C  
DOCKED: ENDROOT
DOCKED: BRANCH   1   2
DOCKED: ATOM      2  N   UNL     1     138.739  73.617 222.095 -0.07 +0.10    -0.342 N  
DOCKED: ATOM      3  C   UNL     1     139.410  72.340 221.908 -0.16 -0.05    +0.270 C  
DOCKED: ATOM      4  O   UNL     1     139.772  72.050 220.737 -0.06 +0.05    -0.268 OA 
DOCKED: ATOM      5  H   UNL     1     138.467  73.811 223.060 -0.55 -0.12    +0.164 HD 
DOCKED: BRANCH   3   6
DOCKED: ATOM      6  C   UNL     1     139.631  71.470 223.052 -0.27 -0.02    +0.128 A  
DOCKED: ATOM      7  C   UNL     1     139.290  70.141 222.907 -0.22 -0.01    +0.035 A  
DOCKED: ATOM      8  N   UNL     1     140.140  71.893 224.223 -0.26 +0.05    -0.243 NA 
DOCKED: ATOM      9  C   UNL     1     139.469  69.263 223.940 -0.25 -0.00    +0.013 A  
DOCKED: ATOM     10  C   UNL     1     140.332  71.057 225.266 -0.49 -0.01    +0.071 A  
DOCKED: ATOM     11  C   UNL     1     139.999  69.718 225.146 -0.42 -0.00    +0.002 A  
DOCKED: ATOM     12  C   UNL     1     140.855  71.533 226.442 -0.67 -0.00    +0.030 A  
DOCKED: ATOM     13  C   UNL     1     140.176  68.822 226.186 -0.53 -0.01    +0.030 A  
DOCKED: ATOM     14  C   UNL     1     141.045  70.664 227.500 -0.63 -0.00    +0.023 A  
DOCKED: ATOM     15  C   UNL     1     140.708  69.314 227.375 -0.58 -0.01    +0.041 A  
DOCKED: ATOM     16  Cl  UNL     1     140.947  68.197 228.723 -0.68 +0.02    -0.084 Cl 
DOCKED: ENDBRANCH   3   6
DOCKED: ENDBRANCH   1   2
DOCKED: BRANCH   1  17
DOCKED: ATOM     17  C   UNL     1     138.838  75.822 220.934 -0.10 -0.05    +0.242 C  
DOCKED: ATOM     18  O   UNL     1     137.786  76.542 220.560 -0.03 +0.06    -0.273 OA 
DOCKED: BRANCH  17  19
DOCKED: ATOM     19  N   UNL     1     139.930  76.619 221.244 -0.10 +0.09    -0.334 N  
DOCKED: ATOM     20  C   UNL     1     139.865  77.223 222.628 -0.22 -0.03    +0.120 C  
DOCKED: ATOM     21  C   UNL     1     141.095  76.983 220.533 -0.22 -0.05    +0.115 C  
DOCKED: ATOM     22  C   UNL     1     139.625  78.692 222.291 -0.30 -0.00    +0.022 C  
DOCKED: ATOM     23  C   UNL     1     141.816  78.178 221.138 -0.31 -0.02    +0.030 C  
DOCKED: ATOM     24  C   UNL     1     140.929  79.194 221.771 -0.36 -0.00    +0.004 C  
DOCKED: BRANCH  21  25
DOCKED: ATOM     25  C   UNL     1     142.045  75.853 220.428 -0.27 +0.01    -0.025 A  
DOCKED: ATOM     26  C   UNL     1     143.257  75.947 219.755 -0.39 -0.00    +0.007 A  
DOCKED: ATOM     27  C   UNL     1     141.778  74.601 220.985 -0.29 -0.00    +0.007 A  
DOCKED: ATOM     28  C   UNL     1     144.134  74.889 219.643 -0.33 -0.01    +0.021 A  
DOCKED: ATOM     29  C   UNL     1     142.649  73.541 220.878 -0.24 -0.00    +0.021 A  
DOCKED: ATOM     30  C   UNL     1     143.843  73.664 220.204 -0.36 -0.01    +0.041 A  
DOCKED: ATOM     31  Cl  UNL     1     144.923  72.292 220.090 -0.50 -0.00    -0.084 Cl 
DOCKED: ENDBRANCH  21  25
DOCKED: ENDBRANCH  17  19
DOCKED: ENDBRANCH   1  17
DOCKED: TORSDOF 5
DOCKED: TER
DOCKED: ENDMDL
________________________________________________________________________________


    CLUSTERING HISTOGRAM
    ____________________


________________________________________________________________________________
     |           |     |           |     |
Clus | Lowest    | Run | Mean      | Num | Histogram
-ter | Binding   |     | Binding   | in  |
Rank | Energy    |     | Energy    | Clus|    5    10   15   20   25   30   35
_____|___________|_____|___________|_____|____:____|____:____|____:____|____:___
   1 |     -8.79 |  13 |     -8.58 |   8 |########
   2 |     -8.59 |   3 |     -8.49 |  11 |###########
   3 |     -8.12 |  16 |     -8.12 |   1 |#
_____|___________|_____|___________|_____|______________________________________


    RMSD TABLE
    __________


_______________________________________________________________________
     |      |      |           |         |                 |
Rank | Sub- | Run  | Binding   | Cluster | Reference       | Grep
     | Rank |      | Energy    | RMSD    | RMSD            | Pattern
_____|______|______|___________|_________|_________________|___________
   1      1     13       -8.79      0.00    270.71           RANKING
   1      2      1       -8.78      0.27    270.74           RANKING
   1      3     12       -8.78      0.04    270.73           RANKING
   1      4      2       -8.77      0.41    270.72           RANKING
   1      5     18       -8.76      0.20    270.72           RANKING
   1      6     15       -8.66      0.41    270.68           RANKING
   1      7      4       -8.04      1.82    270.12           RANKING
   1      8     17       -8.04      1.76    270.14           RANKING
   2      1      3       -8.59      0.00    270.32           RANKING
   2      2     20       -8.56      0.08    270.32           RANKING
   2      3     19       -8.53      0.24    270.26           RANKING
   2      4      7       -8.53      0.10    270.30           RANKING
   2      5     10       -8.51      0.16    270.27           RANKING
   2      6     11       -8.50      0.28    270.24           RANKING
   2      7      6       -8.46      0.40    270.21           RANKING
   2      8      8       -8.45      0.49    270.18           RANKING
   2      9      5       -8.45      0.70    270.16           RANKING
   2     10     14       -8.45      0.68    270.17           RANKING
   2     11      9       -8.39      0.64    270.17           RANKING
   3      1     16       -8.12      0.00    269.87           RANKING

Run time 0.904 sec
Idle time 0.000 sec
