AutoDock-GPU version: v1.6

**********************************************************
**    AutoDock-GPU AUTODOCKTOOLS-COMPATIBLE DLG FILE    **
**********************************************************


    DOCKING PARAMETERS
    ________________________


Ligand file:                               /home/a/REINVENT4/ReinventStudies/pleaseWork/justmol2mol_4_Compounds_ontop/graph-dock-amy28i/graph-DockGPU/node-autodockgpu/inputs/BJGQPMZDASVXPM-GOANIERMNA-N.pdbqt
Grid fld file:                             /home/a/REINVENT4/ReinventStudies/mols/Rad51/maps/rad51_receptor.maps.fld

Random seed:                               42
Number of runs:                            20
Number of energy evaluations:              1132076
Number of generations:                     42000
Size of population:                        150
Rate of crossover:                         80.000000%
Tournament selection probability limit:    60.000000%
Rate of mutation:                          2.000000%
Maximal allowed delta movement:            +/- 6.000000A
Maximal allowed delta angle:               +/- 90.000000

Rate of local search:                      100.000000%
Maximal number of local search iterations: 300
Rho lower bound:                           0.010000
Spread of local search delta movement:     2.000000A
Spread of local search delta angle:        74.999999
Limit of consecutive successes/failures:   4

Handle symmetry during clustering:         YES
RMSD tolerance:                            2.000000A

Program call in command line was:          /home/a/REINVENT4/ReinventStudies/adgpu-v1.6_linux_x64_cuda12_128wi --filelist batch.txt --heuristics 1 --nrun 20 --psize 150 --lsit 300 --seed 42 --heurmax 12000000 


    GRID PARAMETERS
    ________________________


Receptor name:                             rad51_receptor
Number of grid points (x, y, z):           53, 53, 53
Grid center (x, y, z):                     139.950000, 75.640000, 221.970000A
Grid size (x, y, z):                       19.500000, 19.500000, 19.500000A
Grid spacing:                              0.375000A


    LIGAND PARAMETERS
    ________________________


Ligand name:                               /home/a/REINVENT4/ReinventStudies/pleaseWork/justmol2mol_4_Compounds_ontop/graph-dock-amy28i/graph-DockGPU/node-autodockgpu/inputs/BJGQPMZDASVXPM-GOANIERMNA-N
Number of atoms:                           29
Number of rotatable bonds:                 5
Number of atom types:                      7


    DUMMY DATA (only for ADT-compatibility)
    ________________________


DPF> outlev 1
DPF> ga_run 20
DPF> fld /home/a/REINVENT4/ReinventStudies/mols/Rad51/maps/rad51_receptor.maps.fld
DPF> move /home/a/REINVENT4/ReinventStudies/pleaseWork/justmol2mol_4_Compounds_ontop/graph-dock-amy28i/graph-DockGPU/node-autodockgpu/inputs/BJGQPMZDASVXPM-GOANIERMNA-N.pdbqt


    COUNTER STATES
    ________________________


Number of energy evaluations performed:    479599
Number of generations used:                30


    INPUT LIGAND PDBQT FILE:
    ________________________


INPUT-LIGAND-PDBQT: REMARK SMILES O=C(NCC(=O)N1CCC[C@@H]1c1ccc(Cl)cc1)c1ccc2ccccc2n1
INPUT-LIGAND-PDBQT: REMARK SMILES IDX 5 1 6 2 4 3 3 4 2 5 1 6 19 8 20 9 28 10 21 11 27 12 22 13
INPUT-LIGAND-PDBQT: REMARK SMILES IDX 26 14 23 15 25 16 24 17 7 18 8 19 11 20 9 21 10 22 12 23
INPUT-LIGAND-PDBQT: REMARK SMILES IDX 13 24 18 25 14 26 17 27 15 28 16 29
INPUT-LIGAND-PDBQT: REMARK H PARENT 3 7
INPUT-LIGAND-PDBQT: ROOT
INPUT-LIGAND-PDBQT: ATOM      1  C   UNL     1       1.216   1.126  -0.026  1.00  0.00     0.242 C 
INPUT-LIGAND-PDBQT: ATOM      2  O   UNL     1       0.937  -0.107  -0.015  1.00  0.00    -0.273 OA
INPUT-LIGAND-PDBQT: ENDROOT
INPUT-LIGAND-PDBQT: BRANCH   1   3
INPUT-LIGAND-PDBQT: ATOM      3  C   UNL     1       0.052   2.051  -0.075  1.00  0.00     0.216 C 
INPUT-LIGAND-PDBQT: BRANCH   3   4
INPUT-LIGAND-PDBQT: ATOM      4  N   UNL     1      -1.201   1.367  -0.101  1.00  0.00    -0.342 N 
INPUT-LIGAND-PDBQT: ATOM      5  C   UNL     1      -1.587   0.506   0.943  1.00  0.00     0.270 C 
INPUT-LIGAND-PDBQT: ATOM      6  O   UNL     1      -0.811   0.343   1.907  1.00  0.00    -0.268 OA
INPUT-LIGAND-PDBQT: ATOM      7  H   UNL     1      -1.891   1.477  -0.899  1.00  0.00     0.164 HD
INPUT-LIGAND-PDBQT: BRANCH   5   8
INPUT-LIGAND-PDBQT: ATOM      8  C   UNL     1      -2.890  -0.189   0.892  1.00  0.00     0.128 A 
INPUT-LIGAND-PDBQT: ATOM      9  C   UNL     1      -3.227  -1.031   1.947  1.00  0.00     0.035 A 
INPUT-LIGAND-PDBQT: ATOM     10  N   UNL     1      -3.695   0.005  -0.148  1.00  0.00    -0.243 NA
INPUT-LIGAND-PDBQT: ATOM     11  C   UNL     1      -4.464  -1.663   1.854  1.00  0.00     0.013 A 
INPUT-LIGAND-PDBQT: ATOM     12  C   UNL     1      -4.883  -0.612  -0.222  1.00  0.00     0.071 A 
INPUT-LIGAND-PDBQT: ATOM     13  C   UNL     1      -5.300  -1.466   0.781  1.00  0.00     0.000 A 
INPUT-LIGAND-PDBQT: ATOM     14  C   UNL     1      -5.662  -0.360  -1.332  1.00  0.00     0.029 A 
INPUT-LIGAND-PDBQT: ATOM     15  C   UNL     1      -6.532  -2.071   0.648  1.00  0.00     0.010 A 
INPUT-LIGAND-PDBQT: ATOM     16  C   UNL     1      -6.902  -0.961  -1.480  1.00  0.00     0.002 A 
INPUT-LIGAND-PDBQT: ATOM     17  C   UNL     1      -7.300  -1.815  -0.459  1.00  0.00     0.001 A 
INPUT-LIGAND-PDBQT: ENDBRANCH   5   8
INPUT-LIGAND-PDBQT: ENDBRANCH   3   4
INPUT-LIGAND-PDBQT: ENDBRANCH   1   3
INPUT-LIGAND-PDBQT: BRANCH   1  18
INPUT-LIGAND-PDBQT: ATOM     18  N   UNL     1       2.512   1.661   0.003  1.00  0.00    -0.334 N 
INPUT-LIGAND-PDBQT: ATOM     19  C   UNL     1       2.836   3.112  -0.032  1.00  0.00     0.120 C 
INPUT-LIGAND-PDBQT: ATOM     20  C   UNL     1       3.827   1.061   0.055  1.00  0.00     0.115 C 
INPUT-LIGAND-PDBQT: ATOM     21  C   UNL     1       4.102   3.200  -0.843  1.00  0.00     0.024 C 
INPUT-LIGAND-PDBQT: ATOM     22  C   UNL     1       4.458   1.748  -1.136  1.00  0.00     0.032 C 
INPUT-LIGAND-PDBQT: BRANCH  20  23
INPUT-LIGAND-PDBQT: ATOM     23  C   UNL     1       3.899  -0.381   0.048  1.00  0.00    -0.025 A 
INPUT-LIGAND-PDBQT: ATOM     24  C   UNL     1       3.282  -1.134   1.021  1.00  0.00     0.007 A 
INPUT-LIGAND-PDBQT: ATOM     25  C   UNL     1       4.596  -1.023  -0.980  1.00  0.00     0.007 A 
INPUT-LIGAND-PDBQT: ATOM     26  C   UNL     1       3.344  -2.531   0.991  1.00  0.00     0.021 A 
INPUT-LIGAND-PDBQT: ATOM     27  C   UNL     1       4.648  -2.400  -0.995  1.00  0.00     0.021 A 
INPUT-LIGAND-PDBQT: ATOM     28  C   UNL     1       4.032  -3.183  -0.023  1.00  0.00     0.041 A 
INPUT-LIGAND-PDBQT: ATOM     29  Cl  UNL     1       4.121  -4.932  -0.078  1.00  0.00    -0.084 Cl
INPUT-LIGAND-PDBQT: ENDBRANCH  20  23
INPUT-LIGAND-PDBQT: ENDBRANCH   1  18
INPUT-LIGAND-PDBQT: TORSDOF 5


    FINAL DOCKED STATE:
    ________________________


Run:   1 / 20
Time taken for this run:   0.019s

DOCKED: MODEL        1
DOCKED: USER    Run = 1
DOCKED: USER
DOCKED: USER    Estimated Free Energy of Binding    =  -7.88 kcal/mol  [=(1)+(2)+(3)-(4)]
DOCKED: USER
DOCKED: USER    (1) Final Intermolecular Energy     =  -9.37 kcal/mol
DOCKED: USER        vdW + Hbond + desolv Energy     =  -9.43 kcal/mol
DOCKED: USER        Electrostatic Energy            =  +0.06 kcal/mol
DOCKED: USER        Moving Ligand-Fixed Receptor    =  -9.37 kcal/mol
DOCKED: USER        Moving Ligand-Moving Receptor   =  +0.00 kcal/mol
DOCKED: USER    (2) Final Total Internal Energy     =  -1.79 kcal/mol
DOCKED: USER    (3) Torsional Free Energy           =  +1.49 kcal/mol
DOCKED: USER    (4) Unbound System's Energy         =  -1.79 kcal/mol
DOCKED: USER
DOCKED: USER
DOCKED: REMARK SMILES O=C(NCC(=O)N1CCC[C@@H]1c1ccc(Cl)cc1)c1ccc2ccccc2n1
DOCKED: REMARK SMILES IDX 5 1 6 2 4 3 3 4 2 5 1 6 19 8 20 9 28 10 21 11 27 12 22 13
DOCKED: REMARK SMILES IDX 26 14 23 15 25 16 24 17 7 18 8 19 11 20 9 21 10 22 12 23
DOCKED: REMARK SMILES IDX 13 24 18 25 14 26 17 27 15 28 16 29
DOCKED: REMARK H PARENT 3 7
DOCKED: USER                              x       y       z     vdW  Elec       q    Type
DOCKED: USER                           _______ _______ _______ _____ _____    ______ ____
DOCKED: ROOT
DOCKED: ATOM      1  C   UNL     1     139.987  75.052 220.740 -0.14 -0.06    +0.242 C  
DOCKED: ATOM      2  O   UNL     1     140.384  75.909 219.900 -0.06 +0.08    -0.273 OA 
DOCKED: ENDROOT
DOCKED: BRANCH   1   3
DOCKED: ATOM      3  C   UNL     1     140.772  73.790 220.794 -0.16 -0.04    +0.216 C  
DOCKED: BRANCH   3   4
DOCKED: ATOM      4  N   UNL     1     140.711  73.151 222.069 -0.15 +0.01    -0.342 N  
DOCKED: ATOM      5  C   UNL     1     140.092  71.897 222.231 -0.20 -0.04    +0.270 C  
DOCKED: ATOM      6  O   UNL     1     139.588  71.341 221.234 -0.08 +0.05    -0.268 OA 
DOCKED: ATOM      7  H   UNL     1     141.127  73.586 222.942 +0.13 +0.07    +0.164 HD 
DOCKED: BRANCH   5   8
DOCKED: ATOM      8  C   UNL     1     140.043  71.257 223.562 -0.32 -0.02    +0.128 A  
DOCKED: ATOM      9  C   UNL     1     139.430  70.013 223.670 -0.27 -0.01    +0.035 A  
DOCKED: ATOM     10  N   UNL     1     140.578  71.880 224.608 -0.26 +0.03    -0.243 NA 
DOCKED: ATOM     11  C   UNL     1     139.409  69.450 224.944 -0.38 -0.00    +0.013 A  
DOCKED: ATOM     12  C   UNL     1     140.549  71.324 225.827 -0.54 -0.01    +0.071 A  
DOCKED: ATOM     13  C   UNL     1     139.960  70.090 226.028 -0.51 -0.00    +0.000 A  
DOCKED: ATOM     14  C   UNL     1     141.125  72.031 226.862 -0.73 -0.00    +0.029 A  
DOCKED: ATOM     15  C   UNL     1     139.962  69.570 227.305 -0.58 -0.00    +0.010 A  
DOCKED: ATOM     16  C   UNL     1     141.133  71.522 228.151 -0.77 -0.00    +0.002 A  
DOCKED: ATOM     17  C   UNL     1     140.536  70.280 228.328 -0.58 -0.00    +0.001 A  
DOCKED: ENDBRANCH   5   8
DOCKED: ENDBRANCH   3   4
DOCKED: ENDBRANCH   1   3
DOCKED: BRANCH   1  18
DOCKED: ATOM     18  N   UNL     1     138.889  75.210 221.597 -0.12 +0.08    -0.334 N  
DOCKED: ATOM     19  C   UNL     1     137.739  74.271 221.691 -0.14 -0.03    +0.120 C  
DOCKED: ATOM     20  C   UNL     1     138.527  76.225 222.562 -0.24 -0.03    +0.115 C  
DOCKED: ATOM     21  C   UNL     1     136.545  75.155 221.940 -0.15 -0.01    +0.024 C  
DOCKED: ATOM     22  C   UNL     1     137.137  76.553 222.063 -0.20 -0.01    +0.032 C  
DOCKED: BRANCH  20  23
DOCKED: ATOM     23  C   UNL     1     139.417  77.353 222.704 -0.28 +0.00    -0.025 A  
DOCKED: ATOM     24  C   UNL     1     140.783  77.191 222.714 -0.41 -0.00    +0.007 A  
DOCKED: ATOM     25  C   UNL     1     138.875  78.637 222.814 -0.31 -0.00    +0.007 A  
DOCKED: ATOM     26  C   UNL     1     141.634  78.295 222.833 -0.43 -0.01    +0.021 A  
DOCKED: ATOM     27  C   UNL     1     139.727  79.714 222.931 -0.36 -0.00    +0.021 A  
DOCKED: ATOM     28  C   UNL     1     141.112  79.576 222.944 -0.46 -0.01    +0.041 A  
DOCKED: ATOM     29  Cl  UNL     1     142.161  80.972 223.093 -0.73 +0.02    -0.084 Cl 
DOCKED: ENDBRANCH  20  23
DOCKED: ENDBRANCH   1  18
DOCKED: TORSDOF 5
DOCKED: TER
DOCKED: ENDMDL
________________________________________________________________________________


    FINAL DOCKED STATE:
    ________________________


Run:   2 / 20
Time taken for this run:   0.019s

DOCKED: MODEL        2
DOCKED: USER    Run = 2
DOCKED: USER
DOCKED: USER    Estimated Free Energy of Binding    =  -8.36 kcal/mol  [=(1)+(2)+(3)-(4)]
DOCKED: USER
DOCKED: USER    (1) Final Intermolecular Energy     =  -9.85 kcal/mol
DOCKED: USER        vdW + Hbond + desolv Energy     =  -9.83 kcal/mol
DOCKED: USER        Electrostatic Energy            =  -0.02 kcal/mol
DOCKED: USER        Moving Ligand-Fixed Receptor    =  -9.85 kcal/mol
DOCKED: USER        Moving Ligand-Moving Receptor   =  +0.00 kcal/mol
DOCKED: USER    (2) Final Total Internal Energy     =  -1.53 kcal/mol
DOCKED: USER    (3) Torsional Free Energy           =  +1.49 kcal/mol
DOCKED: USER    (4) Unbound System's Energy         =  -1.53 kcal/mol
DOCKED: USER
DOCKED: USER
DOCKED: REMARK SMILES O=C(NCC(=O)N1CCC[C@@H]1c1ccc(Cl)cc1)c1ccc2ccccc2n1
DOCKED: REMARK SMILES IDX 5 1 6 2 4 3 3 4 2 5 1 6 19 8 20 9 28 10 21 11 27 12 22 13
DOCKED: REMARK SMILES IDX 26 14 23 15 25 16 24 17 7 18 8 19 11 20 9 21 10 22 12 23
DOCKED: REMARK SMILES IDX 13 24 18 25 14 26 17 27 15 28 16 29
DOCKED: REMARK H PARENT 3 7
DOCKED: USER                              x       y       z     vdW  Elec       q    Type
DOCKED: USER                           _______ _______ _______ _____ _____    ______ ____
DOCKED: ROOT
DOCKED: ATOM      1  C   UNL     1     138.954  75.031 220.758 -0.10 -0.05    +0.242 C  
DOCKED: ATOM      2  O   UNL     1     138.875  75.503 219.588 -0.02 +0.06    -0.273 OA 
DOCKED: ENDROOT
DOCKED: BRANCH   1   3
DOCKED: ATOM      3  C   UNL     1     140.082  74.093 221.002 -0.17 -0.04    +0.216 C  
DOCKED: BRANCH   3   4
DOCKED: ATOM      4  N   UNL     1     139.954  73.377 222.231 -0.15 +0.04    -0.342 N  
DOCKED: ATOM      5  C   UNL     1     140.327  72.024 222.332 -0.21 -0.03    +0.270 C  
DOCKED: ATOM      6  O   UNL     1     140.777  71.446 221.321 -0.12 +0.03    -0.268 OA 
DOCKED: ATOM      7  H   UNL     1     139.579  73.829 223.114 -0.51 -0.03    +0.164 HD 
DOCKED: BRANCH   5   8
DOCKED: ATOM      8  C   UNL     1     140.186  71.307 223.616 -0.32 -0.02    +0.128 A  
DOCKED: ATOM      9  C   UNL     1     139.550  70.070 223.611 -0.27 -0.01    +0.035 A  
DOCKED: ATOM     10  N   UNL     1     140.663  71.856 224.729 -0.27 +0.03    -0.243 NA 
DOCKED: ATOM     11  C   UNL     1     139.441  69.432 224.844 -0.38 -0.00    +0.013 A  
DOCKED: ATOM     12  C   UNL     1     140.549  71.229 225.908 -0.55 -0.01    +0.071 A  
DOCKED: ATOM     13  C   UNL     1     139.932  69.996 225.997 -0.50 -0.00    +0.000 A  
DOCKED: ATOM     14  C   UNL     1     141.069  71.863 227.018 -0.77 -0.01    +0.029 A  
DOCKED: ATOM     15  C   UNL     1     139.846  69.401 227.238 -0.57 -0.00    +0.010 A  
DOCKED: ATOM     16  C   UNL     1     140.989  71.278 228.272 -0.72 -0.00    +0.002 A  
DOCKED: ATOM     17  C   UNL     1     140.365  70.038 228.336 -0.59 -0.00    +0.001 A  
DOCKED: ENDBRANCH   5   8
DOCKED: ENDBRANCH   3   4
DOCKED: ENDBRANCH   1   3
DOCKED: BRANCH   1  18
DOCKED: ATOM     18  N   UNL     1     138.072  75.325 221.808 -0.11 +0.08    -0.334 N  
DOCKED: ATOM     19  C   UNL     1     136.839  74.557 222.127 -0.14 -0.03    +0.120 C  
DOCKED: ATOM     20  C   UNL     1     138.047  76.363 222.816 -0.22 -0.03    +0.115 C  
DOCKED: ATOM     21  C   UNL     1     135.852  75.595 222.592 -0.18 -0.00    +0.024 C  
DOCKED: ATOM     22  C   UNL     1     136.649  76.893 222.589 -0.21 -0.01    +0.032 C  
DOCKED: BRANCH  20  23
DOCKED: ATOM     23  C   UNL     1     139.099  77.351 222.776 -0.23 +0.00    -0.025 A  
DOCKED: ATOM     24  C   UNL     1     140.424  76.985 222.698 -0.34 -0.00    +0.007 A  
DOCKED: ATOM     25  C   UNL     1     138.760  78.707 222.800 -0.30 -0.00    +0.007 A  
DOCKED: ATOM     26  C   UNL     1     141.431  77.954 222.641 -0.41 -0.01    +0.021 A  
DOCKED: ATOM     27  C   UNL     1     139.764  79.649 222.743 -0.34 -0.00    +0.021 A  
DOCKED: ATOM     28  C   UNL     1     141.111  79.304 222.664 -0.44 -0.01    +0.041 A  
DOCKED: ATOM     29  Cl  UNL     1     142.358  80.533 222.593 -0.72 +0.02    -0.084 Cl 
DOCKED: ENDBRANCH  20  23
DOCKED: ENDBRANCH   1  18
DOCKED: TORSDOF 5
DOCKED: TER
DOCKED: ENDMDL
________________________________________________________________________________


    FINAL DOCKED STATE:
    ________________________


Run:   3 / 20
Time taken for this run:   0.019s

DOCKED: MODEL        3
DOCKED: USER    Run = 3
DOCKED: USER
DOCKED: USER    Estimated Free Energy of Binding    =  -8.45 kcal/mol  [=(1)+(2)+(3)-(4)]
DOCKED: USER
DOCKED: USER    (1) Final Intermolecular Energy     =  -9.95 kcal/mol
DOCKED: USER        vdW + Hbond + desolv Energy     =  -9.95 kcal/mol
DOCKED: USER        Electrostatic Energy            =  -0.00 kcal/mol
DOCKED: USER        Moving Ligand-Fixed Receptor    =  -9.95 kcal/mol
DOCKED: USER        Moving Ligand-Moving Receptor   =  +0.00 kcal/mol
DOCKED: USER    (2) Final Total Internal Energy     =  -1.64 kcal/mol
DOCKED: USER    (3) Torsional Free Energy           =  +1.49 kcal/mol
DOCKED: USER    (4) Unbound System's Energy         =  -1.64 kcal/mol
DOCKED: USER
DOCKED: USER
DOCKED: REMARK SMILES O=C(NCC(=O)N1CCC[C@@H]1c1ccc(Cl)cc1)c1ccc2ccccc2n1
DOCKED: REMARK SMILES IDX 5 1 6 2 4 3 3 4 2 5 1 6 19 8 20 9 28 10 21 11 27 12 22 13
DOCKED: REMARK SMILES IDX 26 14 23 15 25 16 24 17 7 18 8 19 11 20 9 21 10 22 12 23
DOCKED: REMARK SMILES IDX 13 24 18 25 14 26 17 27 15 28 16 29
DOCKED: REMARK H PARENT 3 7
DOCKED: USER                              x       y       z     vdW  Elec       q    Type
DOCKED: USER                           _______ _______ _______ _____ _____    ______ ____
DOCKED: ROOT
DOCKED: ATOM      1  C   UNL     1     139.568  75.179 221.873 -0.21 -0.04    +0.242 C  
DOCKED: ATOM      2  O   UNL     1     140.697  75.504 222.339 -0.50 +0.03    -0.273 OA 
DOCKED: ENDROOT
DOCKED: BRANCH   1   3
DOCKED: ATOM      3  C   UNL     1     139.383  73.733 221.577 -0.18 -0.04    +0.216 C  
DOCKED: BRANCH   3   4
DOCKED: ATOM      4  N   UNL     1     139.576  72.902 222.722 -0.09 +0.07    -0.342 N  
DOCKED: ATOM      5  C   UNL     1     139.304  71.522 222.679 -0.18 -0.06    +0.270 C  
DOCKED: ATOM      6  O   UNL     1     138.886  71.023 221.614 -0.07 +0.05    -0.268 OA 
DOCKED: ATOM      7  H   UNL     1     139.931  73.283 223.646 -0.34 -0.01    +0.164 HD 
DOCKED: BRANCH   5   8
DOCKED: ATOM      8  C   UNL     1     139.514  70.684 223.878 -0.29 -0.02    +0.128 A  
DOCKED: ATOM      9  C   UNL     1     139.124  69.349 223.823 -0.28 -0.01    +0.035 A  
DOCKED: ATOM     10  N   UNL     1     140.060  71.221 224.964 -0.30 +0.04    -0.243 NA 
DOCKED: ATOM     11  C   UNL     1     139.342  68.601 224.976 -0.40 -0.00    +0.013 A  
DOCKED: ATOM     12  C   UNL     1     140.262  70.486 226.067 -0.50 -0.01    +0.071 A  
DOCKED: ATOM     13  C   UNL     1     139.906  69.151 226.102 -0.51 -0.00    +0.000 A  
DOCKED: ATOM     14  C   UNL     1     140.834  71.113 227.153 -0.68 -0.00    +0.029 A  
DOCKED: ATOM     15  C   UNL     1     140.139  68.447 227.265 -0.65 -0.00    +0.010 A  
DOCKED: ATOM     16  C   UNL     1     141.074  70.420 228.329 -0.57 -0.00    +0.002 A  
DOCKED: ATOM     17  C   UNL     1     140.708  69.079 228.340 -0.64 -0.00    +0.001 A  
DOCKED: ENDBRANCH   5   8
DOCKED: ENDBRANCH   3   4
DOCKED: ENDBRANCH   1   3
DOCKED: BRANCH   1  18
DOCKED: ATOM     18  N   UNL     1     138.511  76.067 221.624 -0.10 +0.07    -0.334 N  
DOCKED: ATOM     19  C   UNL     1     137.168  75.674 221.121 -0.09 -0.03    +0.120 C  
DOCKED: ATOM     20  C   UNL     1     138.380  77.503 221.740 -0.17 -0.02    +0.115 C  
DOCKED: ATOM     21  C   UNL     1     136.756  76.803 220.213 -0.04 -0.00    +0.024 C  
DOCKED: ATOM     22  C   UNL     1     137.884  77.818 220.346 -0.06 -0.01    +0.032 C  
DOCKED: BRANCH  20  23
DOCKED: ATOM     23  C   UNL     1     139.544  78.243 222.165 -0.28 +0.01    -0.025 A  
DOCKED: ATOM     24  C   UNL     1     139.575  78.895 223.377 -0.35 -0.00    +0.007 A  
DOCKED: ATOM     25  C   UNL     1     140.668  78.282 221.334 -0.29 -0.00    +0.007 A  
DOCKED: ATOM     26  C   UNL     1     140.717  79.593 223.785 -0.50 -0.00    +0.021 A  
DOCKED: ATOM     27  C   UNL     1     141.785  78.974 221.751 -0.43 -0.01    +0.021 A  
DOCKED: ATOM     28  C   UNL     1     141.840  79.640 222.971 -0.55 -0.01    +0.041 A  
DOCKED: ATOM     29  Cl  UNL     1     143.280  80.509 223.464 -0.71 +0.02    -0.084 Cl 
DOCKED: ENDBRANCH  20  23
DOCKED: ENDBRANCH   1  18
DOCKED: TORSDOF 5
DOCKED: TER
DOCKED: ENDMDL
________________________________________________________________________________


    FINAL DOCKED STATE:
    ________________________


Run:   4 / 20
Time taken for this run:   0.019s

DOCKED: MODEL        4
DOCKED: USER    Run = 4
DOCKED: USER
DOCKED: USER    Estimated Free Energy of Binding    =  -8.10 kcal/mol  [=(1)+(2)+(3)-(4)]
DOCKED: USER
DOCKED: USER    (1) Final Intermolecular Energy     =  -9.59 kcal/mol
DOCKED: USER        vdW + Hbond + desolv Energy     =  -9.54 kcal/mol
DOCKED: USER        Electrostatic Energy            =  -0.05 kcal/mol
DOCKED: USER        Moving Ligand-Fixed Receptor    =  -9.59 kcal/mol
DOCKED: USER        Moving Ligand-Moving Receptor   =  +0.00 kcal/mol
DOCKED: USER    (2) Final Total Internal Energy     =  -2.05 kcal/mol
DOCKED: USER    (3) Torsional Free Energy           =  +1.49 kcal/mol
DOCKED: USER    (4) Unbound System's Energy         =  -2.05 kcal/mol
DOCKED: USER
DOCKED: USER
DOCKED: REMARK SMILES O=C(NCC(=O)N1CCC[C@@H]1c1ccc(Cl)cc1)c1ccc2ccccc2n1
DOCKED: REMARK SMILES IDX 5 1 6 2 4 3 3 4 2 5 1 6 19 8 20 9 28 10 21 11 27 12 22 13
DOCKED: REMARK SMILES IDX 26 14 23 15 25 16 24 17 7 18 8 19 11 20 9 21 10 22 12 23
DOCKED: REMARK SMILES IDX 13 24 18 25 14 26 17 27 15 28 16 29
DOCKED: REMARK H PARENT 3 7
DOCKED: USER                              x       y       z     vdW  Elec       q    Type
DOCKED: USER                           _______ _______ _______ _____ _____    ______ ____
DOCKED: ROOT
DOCKED: ATOM      1  C   UNL     1     140.927  75.601 221.390 -0.24 -0.07    +0.242 C  
DOCKED: ATOM      2  O   UNL     1     140.392  76.077 222.432 -0.41 +0.05    -0.273 OA 
DOCKED: ENDROOT
DOCKED: BRANCH   1   3
DOCKED: ATOM      3  C   UNL     1     140.617  74.175 221.098 -0.20 -0.04    +0.216 C  
DOCKED: BRANCH   3   4
DOCKED: ATOM      4  N   UNL     1     140.303  73.424 222.271 -0.11 +0.01    -0.342 N  
DOCKED: ATOM      5  C   UNL     1     140.674  72.072 222.395 -0.20 -0.02    +0.270 C  
DOCKED: ATOM      6  O   UNL     1     141.288  71.527 221.455 -0.14 +0.03    -0.268 OA 
DOCKED: ATOM      7  H   UNL     1     139.784  73.846 223.094 -0.42 +0.01    +0.164 HD 
DOCKED: BRANCH   5   8
DOCKED: ATOM      8  C   UNL     1     140.338  71.317 223.620 -0.32 -0.02    +0.128 A  
DOCKED: ATOM      9  C   UNL     1     139.636  70.123 223.485 -0.25 -0.01    +0.035 A  
DOCKED: ATOM     10  N   UNL     1     140.709  71.793 224.805 -0.28 +0.03    -0.243 NA 
DOCKED: ATOM     11  C   UNL     1     139.343  69.448 224.667 -0.36 -0.00    +0.013 A  
DOCKED: ATOM     12  C   UNL     1     140.419  71.130 225.933 -0.54 -0.01    +0.071 A  
DOCKED: ATOM     13  C   UNL     1     139.725  69.936 225.894 -0.47 -0.00    +0.000 A  
DOCKED: ATOM     14  C   UNL     1     140.838  71.687 227.123 -0.74 -0.01    +0.029 A  
DOCKED: ATOM     15  C   UNL     1     139.456  69.301 227.088 -0.52 -0.00    +0.010 A  
DOCKED: ATOM     16  C   UNL     1     140.575  71.061 228.332 -0.66 -0.00    +0.002 A  
DOCKED: ATOM     17  C   UNL     1     139.876  69.862 228.267 -0.62 -0.00    +0.001 A  
DOCKED: ENDBRANCH   5   8
DOCKED: ENDBRANCH   3   4
DOCKED: ENDBRANCH   1   3
DOCKED: BRANCH   1  18
DOCKED: ATOM     18  N   UNL     1     141.768  76.308 220.518 -0.13 +0.17    -0.334 N  
DOCKED: ATOM     19  C   UNL     1     141.652  77.759 220.213 -0.25 -0.07    +0.120 C  
DOCKED: ATOM     20  C   UNL     1     142.894  75.918 219.699 -0.31 -0.06    +0.115 C  
DOCKED: ATOM     21  C   UNL     1     142.029  77.873 218.759 -0.27 -0.01    +0.024 C  
DOCKED: ATOM     22  C   UNL     1     142.427  76.456 218.365 -0.24 -0.02    +0.032 C  
DOCKED: BRANCH  20  23
DOCKED: ATOM     23  C   UNL     1     143.268  74.523 219.707 -0.32 +0.01    -0.025 A  
DOCKED: ATOM     24  C   UNL     1     144.133  74.019 220.652 -0.42 -0.00    +0.007 A  
DOCKED: ATOM     25  C   UNL     1     142.725  73.667 218.745 -0.13 -0.00    +0.007 A  
DOCKED: ATOM     26  C   UNL     1     144.472  72.662 220.659 -0.42 -0.00    +0.021 A  
DOCKED: ATOM     27  C   UNL     1     143.070  72.333 218.765 -0.10 -0.00    +0.021 A  
DOCKED: ATOM     28  C   UNL     1     143.941  71.799 219.710 -0.24 -0.00    +0.041 A  
DOCKED: ATOM     29  Cl  UNL     1     144.353  70.096 219.703 -0.24 -0.01    -0.084 Cl 
DOCKED: ENDBRANCH  20  23
DOCKED: ENDBRANCH   1  18
DOCKED: TORSDOF 5
DOCKED: TER
DOCKED: ENDMDL
________________________________________________________________________________


    FINAL DOCKED STATE:
    ________________________


Run:   5 / 20
Time taken for this run:   0.019s

DOCKED: MODEL        5
DOCKED: USER    Run = 5
DOCKED: USER
DOCKED: USER    Estimated Free Energy of Binding    =  -8.08 kcal/mol  [=(1)+(2)+(3)-(4)]
DOCKED: USER
DOCKED: USER    (1) Final Intermolecular Energy     =  -9.57 kcal/mol
DOCKED: USER        vdW + Hbond + desolv Energy     =  -9.54 kcal/mol
DOCKED: USER        Electrostatic Energy            =  -0.03 kcal/mol
DOCKED: USER        Moving Ligand-Fixed Receptor    =  -9.57 kcal/mol
DOCKED: USER        Moving Ligand-Moving Receptor   =  +0.00 kcal/mol
DOCKED: USER    (2) Final Total Internal Energy     =  -2.02 kcal/mol
DOCKED: USER    (3) Torsional Free Energy           =  +1.49 kcal/mol
DOCKED: USER    (4) Unbound System's Energy         =  -2.02 kcal/mol
DOCKED: USER
DOCKED: USER
DOCKED: REMARK SMILES O=C(NCC(=O)N1CCC[C@@H]1c1ccc(Cl)cc1)c1ccc2ccccc2n1
DOCKED: REMARK SMILES IDX 5 1 6 2 4 3 3 4 2 5 1 6 19 8 20 9 28 10 21 11 27 12 22 13
DOCKED: REMARK SMILES IDX 26 14 23 15 25 16 24 17 7 18 8 19 11 20 9 21 10 22 12 23
DOCKED: REMARK SMILES IDX 13 24 18 25 14 26 17 27 15 28 16 29
DOCKED: REMARK H PARENT 3 7
DOCKED: USER                              x       y       z     vdW  Elec       q    Type
DOCKED: USER                           _______ _______ _______ _____ _____    ______ ____
DOCKED: ROOT
DOCKED: ATOM      1  C   UNL     1     139.507  75.181 221.582 -0.21 -0.05    +0.242 C  
DOCKED: ATOM      2  O   UNL     1     139.942  75.563 222.706 -0.43 +0.02    -0.273 OA 
DOCKED: ENDROOT
DOCKED: BRANCH   1   3
DOCKED: ATOM      3  C   UNL     1     139.570  73.717 221.328 -0.17 -0.04    +0.216 C  
DOCKED: BRANCH   3   4
DOCKED: ATOM      4  N   UNL     1     139.711  72.951 222.525 -0.13 +0.06    -0.342 N  
DOCKED: ATOM      5  C   UNL     1     139.578  71.550 222.518 -0.19 -0.05    +0.270 C  
DOCKED: ATOM      6  O   UNL     1     139.332  70.974 221.439 -0.08 +0.05    -0.268 OA 
DOCKED: ATOM      7  H   UNL     1     139.922  73.399 223.463 -0.40 -0.00    +0.164 HD 
DOCKED: BRANCH   5   8
DOCKED: ATOM      8  C   UNL     1     139.731  70.782 223.771 -0.30 -0.02    +0.128 A  
DOCKED: ATOM      9  C   UNL     1     139.335  69.448 223.775 -0.25 -0.01    +0.035 A  
DOCKED: ATOM     10  N   UNL     1     140.233  71.377 224.848 -0.31 +0.04    -0.243 NA 
DOCKED: ATOM     11  C   UNL     1     139.498  68.765 224.978 -0.40 -0.00    +0.013 A  
DOCKED: ATOM     12  C   UNL     1     140.383  70.706 225.998 -0.52 -0.01    +0.071 A  
DOCKED: ATOM     13  C   UNL     1     140.017  69.377 226.094 -0.50 -0.00    +0.000 A  
DOCKED: ATOM     14  C   UNL     1     140.912  71.392 227.071 -0.71 -0.00    +0.029 A  
DOCKED: ATOM     15  C   UNL     1     140.195  68.740 227.304 -0.63 -0.00    +0.010 A  
DOCKED: ATOM     16  C   UNL     1     141.096  70.766 228.293 -0.60 -0.00    +0.002 A  
DOCKED: ATOM     17  C   UNL     1     140.721  69.430 228.365 -0.60 -0.00    +0.001 A  
DOCKED: ENDBRANCH   5   8
DOCKED: ENDBRANCH   3   4
DOCKED: ENDBRANCH   1   3
DOCKED: BRANCH   1  18
DOCKED: ATOM     18  N   UNL     1     138.986  76.024 220.589 -0.03 +0.08    -0.334 N  
DOCKED: ATOM     19  C   UNL     1     138.083  75.589 219.490 -0.03 -0.03    +0.120 C  
DOCKED: ATOM     20  C   UNL     1     139.140  77.435 220.311 -0.08 -0.03    +0.115 C  
DOCKED: ATOM     21  C   UNL     1     138.495  76.424 218.306 -0.01 -0.01    +0.024 C  
DOCKED: ATOM     22  C   UNL     1     139.565  77.355 218.861 -0.05 -0.01    +0.032 C  
DOCKED: BRANCH  20  23
DOCKED: ATOM     23  C   UNL     1     140.019  78.189 221.173 -0.20 +0.01    -0.025 A  
DOCKED: ATOM     24  C   UNL     1     139.597  78.648 222.400 -0.31 -0.00    +0.007 A  
DOCKED: ATOM     25  C   UNL     1     141.330  78.441 220.757 -0.30 -0.00    +0.007 A  
DOCKED: ATOM     26  C   UNL     1     140.465  79.361 223.234 -0.45 -0.00    +0.021 A  
DOCKED: ATOM     27  C   UNL     1     142.172  79.145 221.590 -0.36 -0.01    +0.021 A  
DOCKED: ATOM     28  C   UNL     1     141.769  79.620 222.835 -0.53 -0.01    +0.041 A  
DOCKED: ATOM     29  Cl  UNL     1     142.872  80.511 223.865 -0.78 +0.02    -0.084 Cl 
DOCKED: ENDBRANCH  20  23
DOCKED: ENDBRANCH   1  18
DOCKED: TORSDOF 5
DOCKED: TER
DOCKED: ENDMDL
________________________________________________________________________________


    FINAL DOCKED STATE:
    ________________________


Run:   6 / 20
Time taken for this run:   0.019s

DOCKED: MODEL        6
DOCKED: USER    Run = 6
DOCKED: USER
DOCKED: USER    Estimated Free Energy of Binding    =  -7.97 kcal/mol  [=(1)+(2)+(3)-(4)]
DOCKED: USER
DOCKED: USER    (1) Final Intermolecular Energy     =  -9.46 kcal/mol
DOCKED: USER        vdW + Hbond + desolv Energy     =  -9.43 kcal/mol
DOCKED: USER        Electrostatic Energy            =  -0.04 kcal/mol
DOCKED: USER        Moving Ligand-Fixed Receptor    =  -9.46 kcal/mol
DOCKED: USER        Moving Ligand-Moving Receptor   =  +0.00 kcal/mol
DOCKED: USER    (2) Final Total Internal Energy     =  -1.93 kcal/mol
DOCKED: USER    (3) Torsional Free Energy           =  +1.49 kcal/mol
DOCKED: USER    (4) Unbound System's Energy         =  -1.93 kcal/mol
DOCKED: USER
DOCKED: USER
DOCKED: REMARK SMILES O=C(NCC(=O)N1CCC[C@@H]1c1ccc(Cl)cc1)c1ccc2ccccc2n1
DOCKED: REMARK SMILES IDX 5 1 6 2 4 3 3 4 2 5 1 6 19 8 20 9 28 10 21 11 27 12 22 13
DOCKED: REMARK SMILES IDX 26 14 23 15 25 16 24 17 7 18 8 19 11 20 9 21 10 22 12 23
DOCKED: REMARK SMILES IDX 13 24 18 25 14 26 17 27 15 28 16 29
DOCKED: REMARK H PARENT 3 7
DOCKED: USER                              x       y       z     vdW  Elec       q    Type
DOCKED: USER                           _______ _______ _______ _____ _____    ______ ____
DOCKED: ROOT
DOCKED: ATOM      1  C   UNL     1     139.798  74.731 221.051 -0.16 -0.05    +0.242 C  
DOCKED: ATOM      2  O   UNL     1     140.594  75.011 221.992 -0.67 +0.03    -0.273 OA 
DOCKED: ENDROOT
DOCKED: BRANCH   1   3
DOCKED: ATOM      3  C   UNL     1     138.984  73.500 221.238 -0.13 -0.05    +0.216 C  
DOCKED: BRANCH   3   4
DOCKED: ATOM      4  N   UNL     1     139.301  72.801 222.442 -0.11 +0.08    -0.342 N  
DOCKED: ATOM      5  C   UNL     1     139.103  71.413 222.557 -0.16 -0.06    +0.270 C  
DOCKED: ATOM      6  O   UNL     1     138.639  70.788 221.581 -0.06 +0.05    -0.268 OA 
DOCKED: ATOM      7  H   UNL     1     139.698  73.291 223.295 -0.39 -0.03    +0.164 HD 
DOCKED: BRANCH   5   8
DOCKED: ATOM      8  C   UNL     1     139.441  70.713 223.814 -0.29 -0.02    +0.128 A  
DOCKED: ATOM      9  C   UNL     1     139.207  69.344 223.887 -0.28 -0.01    +0.035 A  
DOCKED: ATOM     10  N   UNL     1     139.953  71.402 224.829 -0.29 +0.05    -0.243 NA 
DOCKED: ATOM     11  C   UNL     1     139.542  68.730 225.090 -0.41 -0.00    +0.013 A  
DOCKED: ATOM     12  C   UNL     1     140.269  70.795 225.981 -0.51 -0.01    +0.071 A  
DOCKED: ATOM     13  C   UNL     1     140.071  69.437 226.143 -0.51 -0.00    +0.000 A  
DOCKED: ATOM     14  C   UNL     1     140.796  71.577 226.988 -0.72 -0.01    +0.029 A  
DOCKED: ATOM     15  C   UNL     1     140.416  68.870 227.352 -0.63 -0.00    +0.010 A  
DOCKED: ATOM     16  C   UNL     1     141.147  71.022 228.209 -0.65 -0.00    +0.002 A  
DOCKED: ATOM     17  C   UNL     1     140.938  69.655 228.348 -0.58 -0.00    +0.001 A  
DOCKED: ENDBRANCH   5   8
DOCKED: ENDBRANCH   3   4
DOCKED: ENDBRANCH   1   3
DOCKED: BRANCH   1  18
DOCKED: ATOM     18  N   UNL     1     139.639  75.482 219.878 -0.01 +0.08    -0.334 N  
DOCKED: ATOM     19  C   UNL     1     139.142  74.946 218.583 -0.02 -0.03    +0.120 C  
DOCKED: ATOM     20  C   UNL     1     139.888  76.870 219.552 -0.07 -0.03    +0.115 C  
DOCKED: ATOM     21  C   UNL     1     139.927  75.691 217.535 -0.02 -0.01    +0.024 C  
DOCKED: ATOM     22  C   UNL     1     140.764  76.683 218.333 -0.08 -0.01    +0.032 C  
DOCKED: BRANCH  20  23
DOCKED: ATOM     23  C   UNL     1     140.441  77.706 220.591 -0.19 +0.01    -0.025 A  
DOCKED: ATOM     24  C   UNL     1     139.801  77.866 221.799 -0.27 -0.00    +0.007 A  
DOCKED: ATOM     25  C   UNL     1     141.661  78.351 220.368 -0.30 -0.00    +0.007 A  
DOCKED: ATOM     26  C   UNL     1     140.359  78.664 222.803 -0.41 -0.01    +0.021 A  
DOCKED: ATOM     27  C   UNL     1     142.197  79.134 221.367 -0.27 -0.01    +0.021 A  
DOCKED: ATOM     28  C   UNL     1     141.569  79.311 222.597 -0.48 -0.01    +0.041 A  
DOCKED: ATOM     29  Cl  UNL     1     142.284  80.315 223.842 -0.77 +0.02    -0.084 Cl 
DOCKED: ENDBRANCH  20  23
DOCKED: ENDBRANCH   1  18
DOCKED: TORSDOF 5
DOCKED: TER
DOCKED: ENDMDL
________________________________________________________________________________


    FINAL DOCKED STATE:
    ________________________


Run:   7 / 20
Time taken for this run:   0.019s

DOCKED: MODEL        7
DOCKED: USER    Run = 7
DOCKED: USER
DOCKED: USER    Estimated Free Energy of Binding    =  -8.46 kcal/mol  [=(1)+(2)+(3)-(4)]
DOCKED: USER
DOCKED: USER    (1) Final Intermolecular Energy     =  -9.95 kcal/mol
DOCKED: USER        vdW + Hbond + desolv Energy     =  -9.93 kcal/mol
DOCKED: USER        Electrostatic Energy            =  -0.02 kcal/mol
DOCKED: USER        Moving Ligand-Fixed Receptor    =  -9.95 kcal/mol
DOCKED: USER        Moving Ligand-Moving Receptor   =  +0.00 kcal/mol
DOCKED: USER    (2) Final Total Internal Energy     =  -1.48 kcal/mol
DOCKED: USER    (3) Torsional Free Energy           =  +1.49 kcal/mol
DOCKED: USER    (4) Unbound System's Energy         =  -1.48 kcal/mol
DOCKED: USER
DOCKED: USER
DOCKED: REMARK SMILES O=C(NCC(=O)N1CCC[C@@H]1c1ccc(Cl)cc1)c1ccc2ccccc2n1
DOCKED: REMARK SMILES IDX 5 1 6 2 4 3 3 4 2 5 1 6 19 8 20 9 28 10 21 11 27 12 22 13
DOCKED: REMARK SMILES IDX 26 14 23 15 25 16 24 17 7 18 8 19 11 20 9 21 10 22 12 23
DOCKED: REMARK SMILES IDX 13 24 18 25 14 26 17 27 15 28 16 29
DOCKED: REMARK H PARENT 3 7
DOCKED: USER                              x       y       z     vdW  Elec       q    Type
DOCKED: USER                           _______ _______ _______ _____ _____    ______ ____
DOCKED: ROOT
DOCKED: ATOM      1  C   UNL     1     139.171  75.188 220.763 -0.10 -0.05    +0.242 C  
DOCKED: ATOM      2  O   UNL     1     139.212  75.769 219.640 -0.02 +0.07    -0.273 OA 
DOCKED: ENDROOT
DOCKED: BRANCH   1   3
DOCKED: ATOM      3  C   UNL     1     140.216  74.154 220.993 -0.17 -0.04    +0.216 C  
DOCKED: BRANCH   3   4
DOCKED: ATOM      4  N   UNL     1     140.026  73.434 222.211 -0.14 +0.03    -0.342 N  
DOCKED: ATOM      5  C   UNL     1     140.443  72.097 222.343 -0.21 -0.03    +0.270 C  
DOCKED: ATOM      6  O   UNL     1     140.988  71.537 221.370 -0.14 +0.03    -0.268 OA 
DOCKED: ATOM      7  H   UNL     1     139.570  73.871 223.063 -0.50 -0.02    +0.164 HD 
DOCKED: BRANCH   5   8
DOCKED: ATOM      8  C   UNL     1     140.236  71.374 223.616 -0.33 -0.02    +0.128 A  
DOCKED: ATOM      9  C   UNL     1     139.555  70.162 223.579 -0.28 -0.01    +0.035 A  
DOCKED: ATOM     10  N   UNL     1     140.699  71.896 224.747 -0.26 +0.03    -0.243 NA 
DOCKED: ATOM     11  C   UNL     1     139.384  69.519 224.802 -0.37 -0.00    +0.013 A  
DOCKED: ATOM     12  C   UNL     1     140.526  71.264 225.917 -0.54 -0.01    +0.071 A  
DOCKED: ATOM     13  C   UNL     1     139.861  70.054 225.975 -0.49 -0.00    +0.000 A  
DOCKED: ATOM     14  C   UNL     1     141.035  71.869 227.047 -0.77 -0.01    +0.029 A  
DOCKED: ATOM     15  C   UNL     1     139.715  69.453 227.207 -0.56 -0.00    +0.010 A  
DOCKED: ATOM     16  C   UNL     1     140.895  71.277 228.293 -0.72 -0.00    +0.002 A  
DOCKED: ATOM     17  C   UNL     1     140.224  70.061 228.326 -0.60 -0.00    +0.001 A  
DOCKED: ENDBRANCH   5   8
DOCKED: ENDBRANCH   3   4
DOCKED: ENDBRANCH   1   3
DOCKED: BRANCH   1  18
DOCKED: ATOM     18  N   UNL     1     138.233  75.447 221.772 -0.11 +0.08    -0.334 N  
DOCKED: ATOM     19  C   UNL     1     137.017  74.633 222.034 -0.14 -0.03    +0.120 C  
DOCKED: ATOM     20  C   UNL     1     138.126  76.480 222.779 -0.23 -0.02    +0.115 C  
DOCKED: ATOM     21  C   UNL     1     135.973  75.633 222.456 -0.17 -0.00    +0.024 C  
DOCKED: ATOM     22  C   UNL     1     136.721  76.960 222.490 -0.21 -0.01    +0.032 C  
DOCKED: BRANCH  20  23
DOCKED: ATOM     23  C   UNL     1     139.141  77.506 222.788 -0.24 +0.00    -0.025 A  
DOCKED: ATOM     24  C   UNL     1     140.478  77.192 222.697 -0.37 -0.00    +0.007 A  
DOCKED: ATOM     25  C   UNL     1     138.754  78.847 222.873 -0.30 -0.00    +0.007 A  
DOCKED: ATOM     26  C   UNL     1     141.450  78.198 222.687 -0.47 -0.01    +0.021 A  
DOCKED: ATOM     27  C   UNL     1     139.724  79.826 222.863 -0.35 -0.00    +0.021 A  
DOCKED: ATOM     28  C   UNL     1     141.081  79.533 222.771 -0.44 -0.01    +0.041 A  
DOCKED: ATOM     29  Cl  UNL     1     142.284  80.808 222.760 -0.70 +0.02    -0.084 Cl 
DOCKED: ENDBRANCH  20  23
DOCKED: ENDBRANCH   1  18
DOCKED: TORSDOF 5
DOCKED: TER
DOCKED: ENDMDL
________________________________________________________________________________


    FINAL DOCKED STATE:
    ________________________


Run:   8 / 20
Time taken for this run:   0.019s

DOCKED: MODEL        8
DOCKED: USER    Run = 8
DOCKED: USER
DOCKED: USER    Estimated Free Energy of Binding    =  -8.20 kcal/mol  [=(1)+(2)+(3)-(4)]
DOCKED: USER
DOCKED: USER    (1) Final Intermolecular Energy     =  -9.69 kcal/mol
DOCKED: USER        vdW + Hbond + desolv Energy     =  -9.64 kcal/mol
DOCKED: USER        Electrostatic Energy            =  -0.05 kcal/mol
DOCKED: USER        Moving Ligand-Fixed Receptor    =  -9.69 kcal/mol
DOCKED: USER        Moving Ligand-Moving Receptor   =  +0.00 kcal/mol
DOCKED: USER    (2) Final Total Internal Energy     =  -1.91 kcal/mol
DOCKED: USER    (3) Torsional Free Energy           =  +1.49 kcal/mol
DOCKED: USER    (4) Unbound System's Energy         =  -1.91 kcal/mol
DOCKED: USER
DOCKED: USER
DOCKED: REMARK SMILES O=C(NCC(=O)N1CCC[C@@H]1c1ccc(Cl)cc1)c1ccc2ccccc2n1
DOCKED: REMARK SMILES IDX 5 1 6 2 4 3 3 4 2 5 1 6 19 8 20 9 28 10 21 11 27 12 22 13
DOCKED: REMARK SMILES IDX 26 14 23 15 25 16 24 17 7 18 8 19 11 20 9 21 10 22 12 23
DOCKED: REMARK SMILES IDX 13 24 18 25 14 26 17 27 15 28 16 29
DOCKED: REMARK H PARENT 3 7
DOCKED: USER                              x       y       z     vdW  Elec       q    Type
DOCKED: USER                           _______ _______ _______ _____ _____    ______ ____
DOCKED: ROOT
DOCKED: ATOM      1  C   UNL     1     140.160  75.194 221.593 -0.23 -0.05    +0.242 C  
DOCKED: ATOM      2  O   UNL     1     139.788  75.577 222.739 -0.42 +0.03    -0.273 OA 
DOCKED: ENDROOT
DOCKED: BRANCH   1   3
DOCKED: ATOM      3  C   UNL     1     140.008  73.740 221.317 -0.19 -0.04    +0.216 C  
DOCKED: BRANCH   3   4
DOCKED: ATOM      4  N   UNL     1     139.936  72.953 222.506 -0.15 +0.04    -0.342 N  
DOCKED: ATOM      5  C   UNL     1     139.991  71.547 222.458 -0.20 -0.04    +0.270 C  
DOCKED: ATOM      6  O   UNL     1     140.104  70.987 221.349 -0.10 +0.04    -0.268 OA 
DOCKED: ATOM      7  H   UNL     1     139.841  73.387 223.469 -0.41 -0.02    +0.164 HD 
DOCKED: BRANCH   5   8
DOCKED: ATOM      8  C   UNL     1     139.915  70.756 223.704 -0.29 -0.02    +0.128 A  
DOCKED: ATOM      9  C   UNL     1     139.361  69.482 223.640 -0.24 -0.01    +0.035 A  
DOCKED: ATOM     10  N   UNL     1     140.372  71.277 224.839 -0.31 +0.04    -0.243 NA 
DOCKED: ATOM     11  C   UNL     1     139.312  68.775 224.839 -0.38 -0.00    +0.013 A  
DOCKED: ATOM     12  C   UNL     1     140.316  70.583 225.984 -0.51 -0.01    +0.071 A  
DOCKED: ATOM     13  C   UNL     1     139.782  69.309 226.014 -0.49 -0.00    +0.000 A  
DOCKED: ATOM     14  C   UNL     1     140.810  71.191 227.120 -0.69 -0.00    +0.029 A  
DOCKED: ATOM     15  C   UNL     1     139.753  68.646 227.223 -0.60 -0.00    +0.010 A  
DOCKED: ATOM     16  C   UNL     1     140.787  70.537 228.342 -0.58 -0.00    +0.002 A  
DOCKED: ATOM     17  C   UNL     1     140.246  69.258 228.347 -0.64 -0.00    +0.001 A  
DOCKED: ENDBRANCH   5   8
DOCKED: ENDBRANCH   3   4
DOCKED: ENDBRANCH   1   3
DOCKED: BRANCH   1  18
DOCKED: ATOM     18  N   UNL     1     140.692  76.025 220.597 -0.09 +0.11    -0.334 N  
DOCKED: ATOM     19  C   UNL     1     141.448  75.553 219.406 -0.13 -0.04    +0.120 C  
DOCKED: ATOM     20  C   UNL     1     140.704  77.459 220.411 -0.18 -0.04    +0.115 C  
DOCKED: ATOM     21  C   UNL     1     142.497  76.609 219.178 -0.31 -0.01    +0.024 C  
DOCKED: ATOM     22  C   UNL     1     142.191  77.671 220.226 -0.25 -0.02    +0.032 C  
DOCKED: BRANCH  20  23
DOCKED: ATOM     23  C   UNL     1     140.086  78.267 221.436 -0.23 +0.01    -0.025 A  
DOCKED: ATOM     24  C   UNL     1     140.805  78.730 222.514 -0.42 -0.00    +0.007 A  
DOCKED: ATOM     25  C   UNL     1     138.733  78.598 221.318 -0.14 -0.00    +0.007 A  
DOCKED: ATOM     26  C   UNL     1     140.198  79.527 223.490 -0.45 -0.00    +0.021 A  
DOCKED: ATOM     27  C   UNL     1     138.150  79.384 222.288 -0.20 -0.00    +0.021 A  
DOCKED: ATOM     28  C   UNL     1     138.856  79.865 223.387 -0.35 -0.01    +0.041 A  
DOCKED: ATOM     29  Cl  UNL     1     138.077  80.862 224.598 -0.46 +0.01    -0.084 Cl 
DOCKED: ENDBRANCH  20  23
DOCKED: ENDBRANCH   1  18
DOCKED: TORSDOF 5
DOCKED: TER
DOCKED: ENDMDL
________________________________________________________________________________


    FINAL DOCKED STATE:
    ________________________


Run:   9 / 20
Time taken for this run:   0.019s

DOCKED: MODEL        9
DOCKED: USER    Run = 9
DOCKED: USER
DOCKED: USER    Estimated Free Energy of Binding    =  -8.28 kcal/mol  [=(1)+(2)+(3)-(4)]
DOCKED: USER
DOCKED: USER    (1) Final Intermolecular Energy     =  -9.78 kcal/mol
DOCKED: USER        vdW + Hbond + desolv Energy     =  -9.72 kcal/mol
DOCKED: USER        Electrostatic Energy            =  -0.06 kcal/mol
DOCKED: USER        Moving Ligand-Fixed Receptor    =  -9.78 kcal/mol
DOCKED: USER        Moving Ligand-Moving Receptor   =  +0.00 kcal/mol
DOCKED: USER    (2) Final Total Internal Energy     =  -1.87 kcal/mol
DOCKED: USER    (3) Torsional Free Energy           =  +1.49 kcal/mol
DOCKED: USER    (4) Unbound System's Energy         =  -1.87 kcal/mol
DOCKED: USER
DOCKED: USER
DOCKED: REMARK SMILES O=C(NCC(=O)N1CCC[C@@H]1c1ccc(Cl)cc1)c1ccc2ccccc2n1
DOCKED: REMARK SMILES IDX 5 1 6 2 4 3 3 4 2 5 1 6 19 8 20 9 28 10 21 11 27 12 22 13
DOCKED: REMARK SMILES IDX 26 14 23 15 25 16 24 17 7 18 8 19 11 20 9 21 10 22 12 23
DOCKED: REMARK SMILES IDX 13 24 18 25 14 26 17 27 15 28 16 29
DOCKED: REMARK H PARENT 3 7
DOCKED: USER                              x       y       z     vdW  Elec       q    Type
DOCKED: USER                           _______ _______ _______ _____ _____    ______ ____
DOCKED: ROOT
DOCKED: ATOM      1  C   UNL     1     140.079  75.210 221.592 -0.23 -0.05    +0.242 C  
DOCKED: ATOM      2  O   UNL     1     139.653  75.597 222.718 -0.47 +0.03    -0.273 OA 
DOCKED: ENDROOT
DOCKED: BRANCH   1   3
DOCKED: ATOM      3  C   UNL     1     139.949  73.754 221.318 -0.18 -0.04    +0.216 C  
DOCKED: BRANCH   3   4
DOCKED: ATOM      4  N   UNL     1     139.891  72.967 222.508 -0.15 +0.05    -0.342 N  
DOCKED: ATOM      5  C   UNL     1     139.995  71.564 222.465 -0.20 -0.04    +0.270 C  
DOCKED: ATOM      6  O   UNL     1     140.140  71.006 221.358 -0.10 +0.04    -0.268 OA 
DOCKED: ATOM      7  H   UNL     1     139.771  73.400 223.469 -0.41 -0.02    +0.164 HD 
DOCKED: BRANCH   5   8
DOCKED: ATOM      8  C   UNL     1     139.933  70.774 223.712 -0.29 -0.02    +0.128 A  
DOCKED: ATOM      9  C   UNL     1     139.359  69.508 223.659 -0.24 -0.01    +0.035 A  
DOCKED: ATOM     10  N   UNL     1     140.421  71.287 224.837 -0.31 +0.04    -0.243 NA 
DOCKED: ATOM     11  C   UNL     1     139.323  68.802 224.858 -0.38 -0.00    +0.013 A  
DOCKED: ATOM     12  C   UNL     1     140.378  70.594 225.984 -0.51 -0.01    +0.071 A  
DOCKED: ATOM     13  C   UNL     1     139.826  69.328 226.024 -0.49 -0.00    +0.000 A  
DOCKED: ATOM     14  C   UNL     1     140.904  71.193 227.109 -0.69 -0.00    +0.029 A  
DOCKED: ATOM     15  C   UNL     1     139.811  68.664 227.233 -0.60 -0.00    +0.010 A  
DOCKED: ATOM     16  C   UNL     1     140.896  70.539 228.331 -0.58 -0.00    +0.002 A  
DOCKED: ATOM     17  C   UNL     1     140.336  69.268 228.347 -0.64 -0.00    +0.001 A  
DOCKED: ENDBRANCH   5   8
DOCKED: ENDBRANCH   3   4
DOCKED: ENDBRANCH   1   3
DOCKED: BRANCH   1  18
DOCKED: ATOM     18  N   UNL     1     140.650  76.040 220.616 -0.08 +0.11    -0.334 N  
DOCKED: ATOM     19  C   UNL     1     141.420  75.563 219.436 -0.14 -0.04    +0.120 C  
DOCKED: ATOM     20  C   UNL     1     140.697  77.475 220.445 -0.18 -0.04    +0.115 C  
DOCKED: ATOM     21  C   UNL     1     142.496  76.598 219.240 -0.32 -0.01    +0.024 C  
DOCKED: ATOM     22  C   UNL     1     142.192  77.656 220.293 -0.24 -0.02    +0.032 C  
DOCKED: BRANCH  20  23
DOCKED: ATOM     23  C   UNL     1     140.076  78.286 221.466 -0.24 +0.01    -0.025 A  
DOCKED: ATOM     24  C   UNL     1     140.805  78.801 222.514 -0.42 -0.00    +0.007 A  
DOCKED: ATOM     25  C   UNL     1     138.710  78.565 221.376 -0.15 -0.00    +0.007 A  
DOCKED: ATOM     26  C   UNL     1     140.194  79.600 223.485 -0.45 -0.00    +0.021 A  
DOCKED: ATOM     27  C   UNL     1     138.122  79.354 222.341 -0.20 -0.00    +0.021 A  
DOCKED: ATOM     28  C   UNL     1     138.838  79.887 223.409 -0.35 -0.01    +0.041 A  
DOCKED: ATOM     29  Cl  UNL     1     138.054  80.887 224.616 -0.46 +0.01    -0.084 Cl 
DOCKED: ENDBRANCH  20  23
DOCKED: ENDBRANCH   1  18
DOCKED: TORSDOF 5
DOCKED: TER
DOCKED: ENDMDL
________________________________________________________________________________


    FINAL DOCKED STATE:
    ________________________


Run:   10 / 20
Time taken for this run:   0.019s

DOCKED: MODEL        10
DOCKED: USER    Run = 10
DOCKED: USER
DOCKED: USER    Estimated Free Energy of Binding    =  -8.28 kcal/mol  [=(1)+(2)+(3)-(4)]
DOCKED: USER
DOCKED: USER    (1) Final Intermolecular Energy     =  -9.78 kcal/mol
DOCKED: USER        vdW + Hbond + desolv Energy     =  -9.70 kcal/mol
DOCKED: USER        Electrostatic Energy            =  -0.07 kcal/mol
DOCKED: USER        Moving Ligand-Fixed Receptor    =  -9.78 kcal/mol
DOCKED: USER        Moving Ligand-Moving Receptor   =  +0.00 kcal/mol
DOCKED: USER    (2) Final Total Internal Energy     =  -1.85 kcal/mol
DOCKED: USER    (3) Torsional Free Energy           =  +1.49 kcal/mol
DOCKED: USER    (4) Unbound System's Energy         =  -1.85 kcal/mol
DOCKED: USER
DOCKED: USER
DOCKED: REMARK SMILES O=C(NCC(=O)N1CCC[C@@H]1c1ccc(Cl)cc1)c1ccc2ccccc2n1
DOCKED: REMARK SMILES IDX 5 1 6 2 4 3 3 4 2 5 1 6 19 8 20 9 28 10 21 11 27 12 22 13
DOCKED: REMARK SMILES IDX 26 14 23 15 25 16 24 17 7 18 8 19 11 20 9 21 10 22 12 23
DOCKED: REMARK SMILES IDX 13 24 18 25 14 26 17 27 15 28 16 29
DOCKED: REMARK H PARENT 3 7
DOCKED: USER                              x       y       z     vdW  Elec       q    Type
DOCKED: USER                           _______ _______ _______ _____ _____    ______ ____
DOCKED: ROOT
DOCKED: ATOM      1  C   UNL     1     140.067  75.204 221.582 -0.23 -0.05    +0.242 C  
DOCKED: ATOM      2  O   UNL     1     139.662  75.597 222.713 -0.47 +0.03    -0.273 OA 
DOCKED: ENDROOT
DOCKED: BRANCH   1   3
DOCKED: ATOM      3  C   UNL     1     139.909  73.751 221.308 -0.18 -0.04    +0.216 C  
DOCKED: BRANCH   3   4
DOCKED: ATOM      4  N   UNL     1     139.840  72.965 222.499 -0.14 +0.05    -0.342 N  
DOCKED: ATOM      5  C   UNL     1     140.029  71.571 222.468 -0.20 -0.04    +0.270 C  
DOCKED: ATOM      6  O   UNL     1     140.261  71.019 221.373 -0.10 +0.04    -0.268 OA 
DOCKED: ATOM      7  H   UNL     1     139.647  73.393 223.450 -0.43 -0.04    +0.164 HD 
DOCKED: BRANCH   5   8
DOCKED: ATOM      8  C   UNL     1     139.954  70.782 223.715 -0.30 -0.02    +0.128 A  
DOCKED: ATOM      9  C   UNL     1     139.380  69.516 223.657 -0.24 -0.01    +0.035 A  
DOCKED: ATOM     10  N   UNL     1     140.428  71.297 224.845 -0.31 +0.04    -0.243 NA 
DOCKED: ATOM     11  C   UNL     1     139.331  68.811 224.857 -0.38 -0.00    +0.013 A  
DOCKED: ATOM     12  C   UNL     1     140.373  70.604 225.992 -0.51 -0.01    +0.071 A  
DOCKED: ATOM     13  C   UNL     1     139.821  69.338 226.028 -0.49 -0.00    +0.000 A  
DOCKED: ATOM     14  C   UNL     1     140.886  71.205 227.123 -0.69 -0.00    +0.029 A  
DOCKED: ATOM     15  C   UNL     1     139.793  68.676 227.237 -0.60 -0.00    +0.010 A  
DOCKED: ATOM     16  C   UNL     1     140.865  70.552 228.345 -0.58 -0.00    +0.002 A  
DOCKED: ATOM     17  C   UNL     1     140.305  69.281 228.356 -0.64 -0.00    +0.001 A  
DOCKED: ENDBRANCH   5   8
DOCKED: ENDBRANCH   3   4
DOCKED: ENDBRANCH   1   3
DOCKED: BRANCH   1  18
DOCKED: ATOM     18  N   UNL     1     140.639  76.025 220.599 -0.08 +0.11    -0.334 N  
DOCKED: ATOM     19  C   UNL     1     141.404  75.538 219.421 -0.13 -0.04    +0.120 C  
DOCKED: ATOM     20  C   UNL     1     140.690  77.460 220.418 -0.18 -0.04    +0.115 C  
DOCKED: ATOM     21  C   UNL     1     142.484  76.568 219.215 -0.31 -0.01    +0.024 C  
DOCKED: ATOM     22  C   UNL     1     142.185  77.634 220.262 -0.25 -0.02    +0.032 C  
DOCKED: BRANCH  20  23
DOCKED: ATOM     23  C   UNL     1     140.074  78.279 221.434 -0.23 +0.01    -0.025 A  
DOCKED: ATOM     24  C   UNL     1     140.802  78.781 222.489 -0.42 -0.00    +0.007 A  
DOCKED: ATOM     25  C   UNL     1     138.713  78.581 221.333 -0.14 -0.00    +0.007 A  
DOCKED: ATOM     26  C   UNL     1     140.196  79.590 223.456 -0.45 -0.00    +0.021 A  
DOCKED: ATOM     27  C   UNL     1     138.130  79.379 222.294 -0.20 -0.00    +0.021 A  
DOCKED: ATOM     28  C   UNL     1     138.846  79.899 223.369 -0.35 -0.01    +0.041 A  
DOCKED: ATOM     29  Cl  UNL     1     138.068  80.910 224.570 -0.46 +0.01    -0.084 Cl 
DOCKED: ENDBRANCH  20  23
DOCKED: ENDBRANCH   1  18
DOCKED: TORSDOF 5
DOCKED: TER
DOCKED: ENDMDL
________________________________________________________________________________


    FINAL DOCKED STATE:
    ________________________


Run:   11 / 20
Time taken for this run:   0.019s

DOCKED: MODEL        11
DOCKED: USER    Run = 11
DOCKED: USER
DOCKED: USER    Estimated Free Energy of Binding    =  -8.15 kcal/mol  [=(1)+(2)+(3)-(4)]
DOCKED: USER
DOCKED: USER    (1) Final Intermolecular Energy     =  -9.65 kcal/mol
DOCKED: USER        vdW + Hbond + desolv Energy     =  -9.58 kcal/mol
DOCKED: USER        Electrostatic Energy            =  -0.06 kcal/mol
DOCKED: USER        Moving Ligand-Fixed Receptor    =  -9.65 kcal/mol
DOCKED: USER        Moving Ligand-Moving Receptor   =  +0.00 kcal/mol
DOCKED: USER    (2) Final Total Internal Energy     =  -1.78 kcal/mol
DOCKED: USER    (3) Torsional Free Energy           =  +1.49 kcal/mol
DOCKED: USER    (4) Unbound System's Energy         =  -1.78 kcal/mol
DOCKED: USER
DOCKED: USER
DOCKED: REMARK SMILES O=C(NCC(=O)N1CCC[C@@H]1c1ccc(Cl)cc1)c1ccc2ccccc2n1
DOCKED: REMARK SMILES IDX 5 1 6 2 4 3 3 4 2 5 1 6 19 8 20 9 28 10 21 11 27 12 22 13
DOCKED: REMARK SMILES IDX 26 14 23 15 25 16 24 17 7 18 8 19 11 20 9 21 10 22 12 23
DOCKED: REMARK SMILES IDX 13 24 18 25 14 26 17 27 15 28 16 29
DOCKED: REMARK H PARENT 3 7
DOCKED: USER                              x       y       z     vdW  Elec       q    Type
DOCKED: USER                           _______ _______ _______ _____ _____    ______ ____
DOCKED: ROOT
DOCKED: ATOM      1  C   UNL     1     139.927  75.650 221.448 -0.22 -0.05    +0.242 C  
DOCKED: ATOM      2  O   UNL     1     139.194  75.923 222.441 -0.33 +0.05    -0.273 OA 
DOCKED: ENDROOT
DOCKED: BRANCH   1   3
DOCKED: ATOM      3  C   UNL     1     140.202  74.205 221.227 -0.20 -0.04    +0.216 C  
DOCKED: BRANCH   3   4
DOCKED: ATOM      4  N   UNL     1     140.016  73.417 222.403 -0.08 +0.03    -0.342 N  
DOCKED: ATOM      5  C   UNL     1     140.391  72.061 222.442 -0.21 -0.03    +0.270 C  
DOCKED: ATOM      6  O   UNL     1     140.895  71.546 221.423 -0.14 +0.03    -0.268 OA 
DOCKED: ATOM      7  H   UNL     1     139.594  73.814 223.291 -0.47 -0.03    +0.164 HD 
DOCKED: BRANCH   5   8
DOCKED: ATOM      8  C   UNL     1     140.189  71.268 223.673 -0.33 -0.02    +0.128 A  
DOCKED: ATOM      9  C   UNL     1     139.537  70.044 223.566 -0.27 -0.01    +0.035 A  
DOCKED: ATOM     10  N   UNL     1     140.629  71.740 224.835 -0.29 +0.03    -0.243 NA 
DOCKED: ATOM     11  C   UNL     1     139.370  69.334 224.751 -0.37 -0.00    +0.013 A  
DOCKED: ATOM     12  C   UNL     1     140.459  71.043 225.968 -0.54 -0.01    +0.071 A  
DOCKED: ATOM     13  C   UNL     1     139.823  69.817 225.956 -0.48 -0.00    +0.000 A  
DOCKED: ATOM     14  C   UNL     1     140.943  71.599 227.134 -0.74 -0.01    +0.029 A  
DOCKED: ATOM     15  C   UNL     1     139.679  69.148 227.153 -0.57 -0.00    +0.010 A  
DOCKED: ATOM     16  C   UNL     1     140.805  70.939 228.345 -0.64 -0.00    +0.002 A  
DOCKED: ATOM     17  C   UNL     1     140.162  69.708 228.308 -0.61 -0.00    +0.001 A  
DOCKED: ENDBRANCH   5   8
DOCKED: ENDBRANCH   3   4
DOCKED: ENDBRANCH   1   3
DOCKED: BRANCH   1  18
DOCKED: ATOM     18  N   UNL     1     140.482  76.593 220.570 -0.07 +0.11    -0.334 N  
DOCKED: ATOM     19  C   UNL     1     141.279  76.263 219.359 -0.14 -0.05    +0.120 C  
DOCKED: ATOM     20  C   UNL     1     140.485  78.039 220.548 -0.17 -0.04    +0.115 C  
DOCKED: ATOM     21  C   UNL     1     142.324  77.345 219.285 -0.30 -0.02    +0.024 C  
DOCKED: ATOM     22  C   UNL     1     141.975  78.279 220.437 -0.19 -0.02    +0.032 C  
DOCKED: BRANCH  20  23
DOCKED: ATOM     23  C   UNL     1     139.828  78.721 221.638 -0.22 +0.01    -0.025 A  
DOCKED: ATOM     24  C   UNL     1     140.512  79.075 222.778 -0.42 -0.00    +0.007 A  
DOCKED: ATOM     25  C   UNL     1     138.472  79.042 221.521 -0.15 -0.00    +0.007 A  
DOCKED: ATOM     26  C   UNL     1     139.866  79.752 223.818 -0.44 -0.00    +0.021 A  
DOCKED: ATOM     27  C   UNL     1     137.851  79.709 222.554 -0.20 -0.00    +0.021 A  
DOCKED: ATOM     28  C   UNL     1     138.521  80.078 223.717 -0.36 -0.01    +0.041 A  
DOCKED: ATOM     29  Cl  UNL     1     137.695  80.927 225.008 -0.45 +0.01    -0.084 Cl 
DOCKED: ENDBRANCH  20  23
DOCKED: ENDBRANCH   1  18
DOCKED: TORSDOF 5
DOCKED: TER
DOCKED: ENDMDL
________________________________________________________________________________


    FINAL DOCKED STATE:
    ________________________


Run:   12 / 20
Time taken for this run:   0.019s

DOCKED: MODEL        12
DOCKED: USER    Run = 12
DOCKED: USER
DOCKED: USER    Estimated Free Energy of Binding    =  -8.26 kcal/mol  [=(1)+(2)+(3)-(4)]
DOCKED: USER
DOCKED: USER    (1) Final Intermolecular Energy     =  -9.76 kcal/mol
DOCKED: USER        vdW + Hbond + desolv Energy     =  -9.69 kcal/mol
DOCKED: USER        Electrostatic Energy            =  -0.06 kcal/mol
DOCKED: USER        Moving Ligand-Fixed Receptor    =  -9.76 kcal/mol
DOCKED: USER        Moving Ligand-Moving Receptor   =  +0.00 kcal/mol
DOCKED: USER    (2) Final Total Internal Energy     =  -1.87 kcal/mol
DOCKED: USER    (3) Torsional Free Energy           =  +1.49 kcal/mol
DOCKED: USER    (4) Unbound System's Energy         =  -1.87 kcal/mol
DOCKED: USER
DOCKED: USER
DOCKED: REMARK SMILES O=C(NCC(=O)N1CCC[C@@H]1c1ccc(Cl)cc1)c1ccc2ccccc2n1
DOCKED: REMARK SMILES IDX 5 1 6 2 4 3 3 4 2 5 1 6 19 8 20 9 28 10 21 11 27 12 22 13
DOCKED: REMARK SMILES IDX 26 14 23 15 25 16 24 17 7 18 8 19 11 20 9 21 10 22 12 23
DOCKED: REMARK SMILES IDX 13 24 18 25 14 26 17 27 15 28 16 29
DOCKED: REMARK H PARENT 3 7
DOCKED: USER                              x       y       z     vdW  Elec       q    Type
DOCKED: USER                           _______ _______ _______ _____ _____    ______ ____
DOCKED: ROOT
DOCKED: ATOM      1  C   UNL     1     140.090  75.193 221.603 -0.23 -0.05    +0.242 C  
DOCKED: ATOM      2  O   UNL     1     139.664  75.577 222.729 -0.46 +0.03    -0.273 OA 
DOCKED: ENDROOT
DOCKED: BRANCH   1   3
DOCKED: ATOM      3  C   UNL     1     139.960  73.737 221.325 -0.18 -0.04    +0.216 C  
DOCKED: BRANCH   3   4
DOCKED: ATOM      4  N   UNL     1     139.879  72.950 222.513 -0.15 +0.05    -0.342 N  
DOCKED: ATOM      5  C   UNL     1     139.995  71.548 222.471 -0.20 -0.04    +0.270 C  
DOCKED: ATOM      6  O   UNL     1     140.172  70.991 221.368 -0.10 +0.04    -0.268 OA 
DOCKED: ATOM      7  H   UNL     1     139.730  73.381 223.470 -0.42 -0.03    +0.164 HD 
DOCKED: BRANCH   5   8
DOCKED: ATOM      8  C   UNL     1     139.908  70.756 223.715 -0.29 -0.02    +0.128 A  
DOCKED: ATOM      9  C   UNL     1     139.313  69.500 223.654 -0.25 -0.01    +0.035 A  
DOCKED: ATOM     10  N   UNL     1     140.394  71.258 224.846 -0.31 +0.04    -0.243 NA 
DOCKED: ATOM     11  C   UNL     1     139.255  68.792 224.852 -0.39 -0.00    +0.013 A  
DOCKED: ATOM     12  C   UNL     1     140.329  70.563 225.991 -0.51 -0.01    +0.071 A  
DOCKED: ATOM     13  C   UNL     1     139.755  69.307 226.024 -0.49 -0.00    +0.000 A  
DOCKED: ATOM     14  C   UNL     1     140.854  71.152 227.122 -0.68 -0.00    +0.029 A  
DOCKED: ATOM     15  C   UNL     1     139.718  68.641 227.231 -0.59 -0.00    +0.010 A  
DOCKED: ATOM     16  C   UNL     1     140.824  70.495 228.343 -0.57 -0.00    +0.002 A  
DOCKED: ATOM     17  C   UNL     1     140.242  69.234 228.351 -0.64 -0.00    +0.001 A  
DOCKED: ENDBRANCH   5   8
DOCKED: ENDBRANCH   3   4
DOCKED: ENDBRANCH   1   3
DOCKED: BRANCH   1  18
DOCKED: ATOM     18  N   UNL     1     140.661  76.025 220.629 -0.09 +0.11    -0.334 N  
DOCKED: ATOM     19  C   UNL     1     141.434  75.552 219.450 -0.14 -0.04    +0.120 C  
DOCKED: ATOM     20  C   UNL     1     140.705  77.461 220.461 -0.18 -0.04    +0.115 C  
DOCKED: ATOM     21  C   UNL     1     142.509  76.590 219.258 -0.32 -0.01    +0.024 C  
DOCKED: ATOM     22  C   UNL     1     142.199  77.646 220.312 -0.24 -0.02    +0.032 C  
DOCKED: BRANCH  20  23
DOCKED: ATOM     23  C   UNL     1     140.080  78.269 221.481 -0.24 +0.01    -0.025 A  
DOCKED: ATOM     24  C   UNL     1     140.805  78.784 222.531 -0.42 -0.00    +0.007 A  
DOCKED: ATOM     25  C   UNL     1     138.713  78.546 221.387 -0.15 -0.00    +0.007 A  
DOCKED: ATOM     26  C   UNL     1     140.190  79.581 223.503 -0.45 -0.00    +0.021 A  
DOCKED: ATOM     27  C   UNL     1     138.121  79.332 222.353 -0.20 -0.00    +0.021 A  
DOCKED: ATOM     28  C   UNL     1     138.833  79.865 223.424 -0.35 -0.01    +0.041 A  
DOCKED: ATOM     29  Cl  UNL     1     138.044  80.860 224.630 -0.45 +0.01    -0.084 Cl 
DOCKED: ENDBRANCH  20  23
DOCKED: ENDBRANCH   1  18
DOCKED: TORSDOF 5
DOCKED: TER
DOCKED: ENDMDL
________________________________________________________________________________


    FINAL DOCKED STATE:
    ________________________


Run:   13 / 20
Time taken for this run:   0.019s

DOCKED: MODEL        13
DOCKED: USER    Run = 13
DOCKED: USER
DOCKED: USER    Estimated Free Energy of Binding    =  -8.15 kcal/mol  [=(1)+(2)+(3)-(4)]
DOCKED: USER
DOCKED: USER    (1) Final Intermolecular Energy     =  -9.64 kcal/mol
DOCKED: USER        vdW + Hbond + desolv Energy     =  -9.58 kcal/mol
DOCKED: USER        Electrostatic Energy            =  -0.06 kcal/mol
DOCKED: USER        Moving Ligand-Fixed Receptor    =  -9.64 kcal/mol
DOCKED: USER        Moving Ligand-Moving Receptor   =  +0.00 kcal/mol
DOCKED: USER    (2) Final Total Internal Energy     =  -2.00 kcal/mol
DOCKED: USER    (3) Torsional Free Energy           =  +1.49 kcal/mol
DOCKED: USER    (4) Unbound System's Energy         =  -2.00 kcal/mol
DOCKED: USER
DOCKED: USER
DOCKED: REMARK SMILES O=C(NCC(=O)N1CCC[C@@H]1c1ccc(Cl)cc1)c1ccc2ccccc2n1
DOCKED: REMARK SMILES IDX 5 1 6 2 4 3 3 4 2 5 1 6 19 8 20 9 28 10 21 11 27 12 22 13
DOCKED: REMARK SMILES IDX 26 14 23 15 25 16 24 17 7 18 8 19 11 20 9 21 10 22 12 23
DOCKED: REMARK SMILES IDX 13 24 18 25 14 26 17 27 15 28 16 29
DOCKED: REMARK H PARENT 3 7
DOCKED: USER                              x       y       z     vdW  Elec       q    Type
DOCKED: USER                           _______ _______ _______ _____ _____    ______ ____
DOCKED: ROOT
DOCKED: ATOM      1  C   UNL     1     140.921  75.572 221.417 -0.24 -0.07    +0.242 C  
DOCKED: ATOM      2  O   UNL     1     140.348  76.064 222.431 -0.41 +0.05    -0.273 OA 
DOCKED: ENDROOT
DOCKED: BRANCH   1   3
DOCKED: ATOM      3  C   UNL     1     140.591  74.153 221.115 -0.20 -0.04    +0.216 C  
DOCKED: BRANCH   3   4
DOCKED: ATOM      4  N   UNL     1     140.280  73.394 222.283 -0.12 +0.01    -0.342 N  
DOCKED: ATOM      5  C   UNL     1     140.668  72.047 222.405 -0.20 -0.02    +0.270 C  
DOCKED: ATOM      6  O   UNL     1     141.296  71.513 221.467 -0.14 +0.03    -0.268 OA 
DOCKED: ATOM      7  H   UNL     1     139.750  73.807 223.103 -0.43 -0.00    +0.164 HD 
DOCKED: BRANCH   5   8
DOCKED: ATOM      8  C   UNL     1     140.334  71.283 223.625 -0.32 -0.02    +0.128 A  
DOCKED: ATOM      9  C   UNL     1     139.635  70.088 223.482 -0.25 -0.01    +0.035 A  
DOCKED: ATOM     10  N   UNL     1     140.703  71.753 224.813 -0.29 +0.03    -0.243 NA 
DOCKED: ATOM     11  C   UNL     1     139.344  69.405 224.660 -0.36 -0.00    +0.013 A  
DOCKED: ATOM     12  C   UNL     1     140.414  71.083 225.937 -0.54 -0.01    +0.071 A  
DOCKED: ATOM     13  C   UNL     1     139.724  69.887 225.890 -0.47 -0.00    +0.000 A  
DOCKED: ATOM     14  C   UNL     1     140.831  71.634 227.131 -0.74 -0.01    +0.029 A  
DOCKED: ATOM     15  C   UNL     1     139.456  69.244 227.080 -0.53 -0.00    +0.010 A  
DOCKED: ATOM     16  C   UNL     1     140.569  71.000 228.335 -0.65 -0.00    +0.002 A  
DOCKED: ATOM     17  C   UNL     1     139.874  69.799 228.263 -0.62 -0.00    +0.001 A  
DOCKED: ENDBRANCH   5   8
DOCKED: ENDBRANCH   3   4
DOCKED: ENDBRANCH   1   3
DOCKED: BRANCH   1  18
DOCKED: ATOM     18  N   UNL     1     141.819  76.256 220.586 -0.13 +0.17    -0.334 N  
DOCKED: ATOM     19  C   UNL     1     141.790  77.719 220.321 -0.26 -0.07    +0.120 C  
DOCKED: ATOM     20  C   UNL     1     142.942  75.828 219.781 -0.30 -0.06    +0.115 C  
DOCKED: ATOM     21  C   UNL     1     142.207  77.854 218.880 -0.29 -0.02    +0.024 C  
DOCKED: ATOM     22  C   UNL     1     142.536  76.429 218.453 -0.26 -0.02    +0.032 C  
DOCKED: BRANCH  20  23
DOCKED: ATOM     23  C   UNL     1     143.239  74.415 219.756 -0.31 +0.01    -0.025 A  
DOCKED: ATOM     24  C   UNL     1     142.683  73.582 218.811 -0.13 -0.00    +0.007 A  
DOCKED: ATOM     25  C   UNL     1     144.125  73.889 220.701 -0.42 -0.00    +0.007 A  
DOCKED: ATOM     26  C   UNL     1     142.995  72.219 218.787 -0.10 -0.00    +0.021 A  
DOCKED: ATOM     27  C   UNL     1     144.421  72.544 220.664 -0.40 -0.00    +0.021 A  
DOCKED: ATOM     28  C   UNL     1     143.872  71.682 219.719 -0.23 -0.00    +0.041 A  
DOCKED: ATOM     29  Cl  UNL     1     144.276  69.977 219.705 -0.26 -0.01    -0.084 Cl 
DOCKED: ENDBRANCH  20  23
DOCKED: ENDBRANCH   1  18
DOCKED: TORSDOF 5
DOCKED: TER
DOCKED: ENDMDL
________________________________________________________________________________


    FINAL DOCKED STATE:
    ________________________


Run:   14 / 20
Time taken for this run:   0.019s

DOCKED: MODEL        14
DOCKED: USER    Run = 14
DOCKED: USER
DOCKED: USER    Estimated Free Energy of Binding    =  -8.00 kcal/mol  [=(1)+(2)+(3)-(4)]
DOCKED: USER
DOCKED: USER    (1) Final Intermolecular Energy     =  -9.49 kcal/mol
DOCKED: USER        vdW + Hbond + desolv Energy     =  -9.46 kcal/mol
DOCKED: USER        Electrostatic Energy            =  -0.03 kcal/mol
DOCKED: USER        Moving Ligand-Fixed Receptor    =  -9.49 kcal/mol
DOCKED: USER        Moving Ligand-Moving Receptor   =  +0.00 kcal/mol
DOCKED: USER    (2) Final Total Internal Energy     =  -1.85 kcal/mol
DOCKED: USER    (3) Torsional Free Energy           =  +1.49 kcal/mol
DOCKED: USER    (4) Unbound System's Energy         =  -1.85 kcal/mol
DOCKED: USER
DOCKED: USER
DOCKED: REMARK SMILES O=C(NCC(=O)N1CCC[C@@H]1c1ccc(Cl)cc1)c1ccc2ccccc2n1
DOCKED: REMARK SMILES IDX 5 1 6 2 4 3 3 4 2 5 1 6 19 8 20 9 28 10 21 11 27 12 22 13
DOCKED: REMARK SMILES IDX 26 14 23 15 25 16 24 17 7 18 8 19 11 20 9 21 10 22 12 23
DOCKED: REMARK SMILES IDX 13 24 18 25 14 26 17 27 15 28 16 29
DOCKED: REMARK H PARENT 3 7
DOCKED: USER                              x       y       z     vdW  Elec       q    Type
DOCKED: USER                           _______ _______ _______ _____ _____    ______ ____
DOCKED: ROOT
DOCKED: ATOM      1  C   UNL     1     139.633  72.868 221.977 -0.19 -0.04    +0.242 C  
DOCKED: ATOM      2  O   UNL     1     140.828  73.210 222.211 -0.62 +0.00    -0.273 OA 
DOCKED: ENDROOT
DOCKED: BRANCH   1   3
DOCKED: ATOM      3  C   UNL     1     138.641  73.976 221.932 -0.12 -0.06    +0.216 C  
DOCKED: BRANCH   3   4
DOCKED: ATOM      4  N   UNL     1     139.215  75.249 222.233 -0.16 +0.07    -0.342 N  
DOCKED: ATOM      5  C   UNL     1     138.413  76.393 222.395 -0.20 -0.06    +0.270 C  
DOCKED: ATOM      6  O   UNL     1     137.176  76.284 222.270 -0.15 +0.06    -0.268 OA 
DOCKED: ATOM      7  H   UNL     1     140.260  75.387 222.349 +0.03 -0.01    +0.164 HD 
DOCKED: BRANCH   5   8
DOCKED: ATOM      8  C   UNL     1     139.032  77.698 222.708 -0.25 -0.02    +0.128 A  
DOCKED: ATOM      9  C   UNL     1     138.193  78.775 222.978 -0.25 -0.01    +0.035 A  
DOCKED: ATOM     10  N   UNL     1     140.356  77.808 222.722 -0.25 +0.06    -0.243 NA 
DOCKED: ATOM     11  C   UNL     1     138.822  79.983 223.267 -0.35 -0.00    +0.013 A  
DOCKED: ATOM     12  C   UNL     1     140.946  78.979 223.002 -0.45 -0.02    +0.071 A  
DOCKED: ATOM     13  C   UNL     1     140.191  80.102 223.283 -0.44 -0.00    +0.000 A  
DOCKED: ATOM     14  C   UNL     1     142.325  79.013 222.997 -0.53 -0.01    +0.029 A  
DOCKED: ATOM     15  C   UNL     1     140.856  81.277 223.563 -0.39 -0.00    +0.010 A  
DOCKED: ATOM     16  C   UNL     1     143.007  80.187 223.277 -0.66 -0.00    +0.002 A  
DOCKED: ATOM     17  C   UNL     1     142.227  81.302 223.556 -0.61 -0.00    +0.001 A  
DOCKED: ENDBRANCH   5   8
DOCKED: ENDBRANCH   3   4
DOCKED: ENDBRANCH   1   3
DOCKED: BRANCH   1  18
DOCKED: ATOM     18  N   UNL     1     139.196  71.553 221.766 -0.07 +0.06    -0.334 N  
DOCKED: ATOM     19  C   UNL     1     138.606  71.043 220.500 -0.05 -0.02    +0.120 C  
DOCKED: ATOM     20  C   UNL     1     139.158  70.378 222.609 -0.18 -0.02    +0.115 C  
DOCKED: ATOM     21  C   UNL     1     137.557  70.056 220.939 -0.06 -0.00    +0.024 C  
DOCKED: ATOM     22  C   UNL     1     137.698  70.013 222.455 -0.14 -0.01    +0.032 C  
DOCKED: BRANCH  20  23
DOCKED: ATOM     23  C   UNL     1     139.620  70.522 223.970 -0.35 +0.00    -0.025 A  
DOCKED: ATOM     24  C   UNL     1     140.686  71.334 224.282 -0.44 -0.00    +0.007 A  
DOCKED: ATOM     25  C   UNL     1     138.956  69.835 224.990 -0.38 -0.00    +0.007 A  
DOCKED: ATOM     26  C   UNL     1     141.111  71.479 225.607 -0.57 -0.00    +0.021 A  
DOCKED: ATOM     27  C   UNL     1     139.387  69.988 226.290 -0.39 -0.00    +0.021 A  
DOCKED: ATOM     28  C   UNL     1     140.462  70.804 226.631 -0.58 -0.01    +0.041 A  
DOCKED: ATOM     29  Cl  UNL     1     140.979  70.972 228.297 -0.70 +0.02    -0.084 Cl 
DOCKED: ENDBRANCH  20  23
DOCKED: ENDBRANCH   1  18
DOCKED: TORSDOF 5
DOCKED: TER
DOCKED: ENDMDL
________________________________________________________________________________


    FINAL DOCKED STATE:
    ________________________


Run:   15 / 20
Time taken for this run:   0.019s

DOCKED: MODEL        15
DOCKED: USER    Run = 15
DOCKED: USER
DOCKED: USER    Estimated Free Energy of Binding    =  -8.50 kcal/mol  [=(1)+(2)+(3)-(4)]
DOCKED: USER
DOCKED: USER    (1) Final Intermolecular Energy     =  -9.99 kcal/mol
DOCKED: USER        vdW + Hbond + desolv Energy     = -10.02 kcal/mol
DOCKED: USER        Electrostatic Energy            =  +0.03 kcal/mol
DOCKED: USER        Moving Ligand-Fixed Receptor    =  -9.99 kcal/mol
DOCKED: USER        Moving Ligand-Moving Receptor   =  +0.00 kcal/mol
DOCKED: USER    (2) Final Total Internal Energy     =  -1.57 kcal/mol
DOCKED: USER    (3) Torsional Free Energy           =  +1.49 kcal/mol
DOCKED: USER    (4) Unbound System's Energy         =  -1.57 kcal/mol
DOCKED: USER
DOCKED: USER
DOCKED: REMARK SMILES O=C(NCC(=O)N1CCC[C@@H]1c1ccc(Cl)cc1)c1ccc2ccccc2n1
DOCKED: REMARK SMILES IDX 5 1 6 2 4 3 3 4 2 5 1 6 19 8 20 9 28 10 21 11 27 12 22 13
DOCKED: REMARK SMILES IDX 26 14 23 15 25 16 24 17 7 18 8 19 11 20 9 21 10 22 12 23
DOCKED: REMARK SMILES IDX 13 24 18 25 14 26 17 27 15 28 16 29
DOCKED: REMARK H PARENT 3 7
DOCKED: USER                              x       y       z     vdW  Elec       q    Type
DOCKED: USER                           _______ _______ _______ _____ _____    ______ ____
DOCKED: ROOT
DOCKED: ATOM      1  C   UNL     1     139.520  75.204 221.738 -0.21 -0.05    +0.242 C  
DOCKED: ATOM      2  O   UNL     1     140.715  75.500 222.028 -0.52 +0.05    -0.273 OA 
DOCKED: ENDROOT
DOCKED: BRANCH   1   3
DOCKED: ATOM      3  C   UNL     1     139.252  73.760 221.501 -0.17 -0.04    +0.216 C  
DOCKED: BRANCH   3   4
DOCKED: ATOM      4  N   UNL     1     139.510  72.951 222.649 -0.08 +0.08    -0.342 N  
DOCKED: ATOM      5  C   UNL     1     139.200  71.579 222.663 -0.18 -0.06    +0.270 C  
DOCKED: ATOM      6  O   UNL     1     138.690  71.067 221.645 -0.06 +0.05    -0.268 OA 
DOCKED: ATOM      7  H   UNL     1     139.943  73.344 223.534 -0.37 -0.01    +0.164 HD 
DOCKED: BRANCH   5   8
DOCKED: ATOM      8  C   UNL     1     139.478  70.764 223.864 -0.30 -0.02    +0.128 A  
DOCKED: ATOM      9  C   UNL     1     139.192  69.403 223.815 -0.28 -0.01    +0.035 A  
DOCKED: ATOM     10  N   UNL     1     139.987  71.345 224.945 -0.29 +0.05    -0.243 NA 
DOCKED: ATOM     11  C   UNL     1     139.471  68.678 224.970 -0.39 -0.00    +0.013 A  
DOCKED: ATOM     12  C   UNL     1     140.249  70.632 226.050 -0.50 -0.01    +0.071 A  
DOCKED: ATOM     13  C   UNL     1     139.997  69.274 226.091 -0.50 -0.00    +0.000 A  
DOCKED: ATOM     14  C   UNL     1     140.776  71.306 227.132 -0.70 -0.01    +0.029 A  
DOCKED: ATOM     15  C   UNL     1     140.288  68.595 227.255 -0.64 -0.00    +0.010 A  
DOCKED: ATOM     16  C   UNL     1     141.073  70.637 228.309 -0.59 -0.00    +0.002 A  
DOCKED: ATOM     17  C   UNL     1     140.811  69.273 228.326 -0.62 -0.00    +0.001 A  
DOCKED: ENDBRANCH   5   8
DOCKED: ENDBRANCH   3   4
DOCKED: ENDBRANCH   1   3
DOCKED: BRANCH   1  18
DOCKED: ATOM     18  N   UNL     1     138.466  76.121 221.627 -0.10 +0.07    -0.334 N  
DOCKED: ATOM     19  C   UNL     1     137.082  75.781 221.201 -0.09 -0.02    +0.120 C  
DOCKED: ATOM     20  C   UNL     1     138.370  77.548 221.847 -0.18 -0.02    +0.115 C  
DOCKED: ATOM     21  C   UNL     1     136.625  76.974 220.403 -0.04 -0.00    +0.024 C  
DOCKED: ATOM     22  C   UNL     1     137.779  77.962 220.517 -0.06 -0.01    +0.032 C  
DOCKED: BRANCH  20  23
DOCKED: ATOM     23  C   UNL     1     139.576  78.242 222.232 -0.29 +0.01    -0.025 A  
DOCKED: ATOM     24  C   UNL     1     140.679  78.274 221.409 -0.29 -0.00    +0.007 A  
DOCKED: ATOM     25  C   UNL     1     139.615  78.909 223.460 -0.35 -0.00    +0.007 A  
DOCKED: ATOM     26  C   UNL     1     141.834  78.966 221.787 -0.43 -0.01    +0.021 A  
DOCKED: ATOM     27  C   UNL     1     140.761  79.586 223.818 -0.50 -0.00    +0.021 A  
DOCKED: ATOM     28  C   UNL     1     141.888  79.633 223.003 -0.55 -0.01    +0.041 A  
DOCKED: ATOM     29  Cl  UNL     1     143.325  80.506 223.494 -0.69 +0.02    -0.084 Cl 
DOCKED: ENDBRANCH  20  23
DOCKED: ENDBRANCH   1  18
DOCKED: TORSDOF 5
DOCKED: TER
DOCKED: ENDMDL
________________________________________________________________________________


    FINAL DOCKED STATE:
    ________________________


Run:   16 / 20
Time taken for this run:   0.019s

DOCKED: MODEL        16
DOCKED: USER    Run = 16
DOCKED: USER
DOCKED: USER    Estimated Free Energy of Binding    =  -8.30 kcal/mol  [=(1)+(2)+(3)-(4)]
DOCKED: USER
DOCKED: USER    (1) Final Intermolecular Energy     =  -9.80 kcal/mol
DOCKED: USER        vdW + Hbond + desolv Energy     =  -9.79 kcal/mol
DOCKED: USER        Electrostatic Energy            =  -0.01 kcal/mol
DOCKED: USER        Moving Ligand-Fixed Receptor    =  -9.80 kcal/mol
DOCKED: USER        Moving Ligand-Moving Receptor   =  +0.00 kcal/mol
DOCKED: USER    (2) Final Total Internal Energy     =  -1.84 kcal/mol
DOCKED: USER    (3) Torsional Free Energy           =  +1.49 kcal/mol
DOCKED: USER    (4) Unbound System's Energy         =  -1.84 kcal/mol
DOCKED: USER
DOCKED: USER
DOCKED: REMARK SMILES O=C(NCC(=O)N1CCC[C@@H]1c1ccc(Cl)cc1)c1ccc2ccccc2n1
DOCKED: REMARK SMILES IDX 5 1 6 2 4 3 3 4 2 5 1 6 19 8 20 9 28 10 21 11 27 12 22 13
DOCKED: REMARK SMILES IDX 26 14 23 15 25 16 24 17 7 18 8 19 11 20 9 21 10 22 12 23
DOCKED: REMARK SMILES IDX 13 24 18 25 14 26 17 27 15 28 16 29
DOCKED: REMARK H PARENT 3 7
DOCKED: USER                              x       y       z     vdW  Elec       q    Type
DOCKED: USER                           _______ _______ _______ _____ _____    ______ ____
DOCKED: ROOT
DOCKED: ATOM      1  C   UNL     1     139.539  75.164 221.597 -0.21 -0.05    +0.242 C  
DOCKED: ATOM      2  O   UNL     1     140.516  75.467 222.339 -0.53 +0.03    -0.273 OA 
DOCKED: ENDROOT
DOCKED: BRANCH   1   3
DOCKED: ATOM      3  C   UNL     1     139.305  73.708 221.400 -0.16 -0.04    +0.216 C  
DOCKED: BRANCH   3   4
DOCKED: ATOM      4  N   UNL     1     139.533  72.943 222.583 -0.10 +0.07    -0.342 N  
DOCKED: ATOM      5  C   UNL     1     139.306  71.554 222.612 -0.18 -0.06    +0.270 C  
DOCKED: ATOM      6  O   UNL     1     138.898  70.989 221.577 -0.07 +0.05    -0.268 OA 
DOCKED: ATOM      7  H   UNL     1     139.880  73.381 223.484 -0.40 -0.01    +0.164 HD 
DOCKED: BRANCH   5   8
DOCKED: ATOM      8  C   UNL     1     139.551  70.785 223.850 -0.30 -0.02    +0.128 A  
DOCKED: ATOM      9  C   UNL     1     139.232  69.431 223.856 -0.28 -0.01    +0.035 A  
DOCKED: ATOM     10  N   UNL     1     140.062  71.400 224.912 -0.30 +0.05    -0.243 NA 
DOCKED: ATOM     11  C   UNL     1     139.480  68.749 225.044 -0.40 -0.00    +0.013 A  
DOCKED: ATOM     12  C   UNL     1     140.295  70.728 226.049 -0.52 -0.01    +0.071 A  
DOCKED: ATOM     13  C   UNL     1     140.008  69.380 226.145 -0.50 -0.00    +0.000 A  
DOCKED: ATOM     14  C   UNL     1     140.827  71.435 227.107 -0.72 -0.01    +0.029 A  
DOCKED: ATOM     15  C   UNL     1     140.270  68.745 227.340 -0.63 -0.00    +0.010 A  
DOCKED: ATOM     16  C   UNL     1     141.095  70.811 228.315 -0.61 -0.00    +0.002 A  
DOCKED: ATOM     17  C   UNL     1     140.799  69.455 228.388 -0.58 -0.00    +0.001 A  
DOCKED: ENDBRANCH   5   8
DOCKED: ENDBRANCH   3   4
DOCKED: ENDBRANCH   1   3
DOCKED: BRANCH   1  18
DOCKED: ATOM     18  N   UNL     1     138.688  76.083 220.967 -0.05 +0.08    -0.334 N  
DOCKED: ATOM     19  C   UNL     1     137.525  75.722 220.113 -0.04 -0.02    +0.120 C  
DOCKED: ATOM     20  C   UNL     1     138.656  77.529 220.921 -0.10 -0.03    +0.115 C  
DOCKED: ATOM     21  C   UNL     1     137.503  76.773 219.035 -0.02 -0.00    +0.024 C  
DOCKED: ATOM     22  C   UNL     1     138.628  77.726 219.421 -0.04 -0.01    +0.032 C  
DOCKED: BRANCH  20  23
DOCKED: ATOM     23  C   UNL     1     139.703  78.238 221.619 -0.23 +0.01    -0.025 A  
DOCKED: ATOM     24  C   UNL     1     140.919  78.487 221.025 -0.28 -0.00    +0.007 A  
DOCKED: ATOM     25  C   UNL     1     139.466  78.694 222.919 -0.35 -0.00    +0.007 A  
DOCKED: ATOM     26  C   UNL     1     141.917  79.191 221.706 -0.42 -0.01    +0.021 A  
DOCKED: ATOM     27  C   UNL     1     140.459  79.387 223.577 -0.48 -0.00    +0.021 A  
DOCKED: ATOM     28  C   UNL     1     141.697  79.651 222.997 -0.53 -0.01    +0.041 A  
DOCKED: ATOM     29  Cl  UNL     1     142.934  80.536 223.867 -0.78 +0.02    -0.084 Cl 
DOCKED: ENDBRANCH  20  23
DOCKED: ENDBRANCH   1  18
DOCKED: TORSDOF 5
DOCKED: TER
DOCKED: ENDMDL
________________________________________________________________________________


    FINAL DOCKED STATE:
    ________________________


Run:   17 / 20
Time taken for this run:   0.019s

DOCKED: MODEL        17
DOCKED: USER    Run = 17
DOCKED: USER
DOCKED: USER    Estimated Free Energy of Binding    =  -7.99 kcal/mol  [=(1)+(2)+(3)-(4)]
DOCKED: USER
DOCKED: USER    (1) Final Intermolecular Energy     =  -9.48 kcal/mol
DOCKED: USER        vdW + Hbond + desolv Energy     =  -9.39 kcal/mol
DOCKED: USER        Electrostatic Energy            =  -0.09 kcal/mol
DOCKED: USER        Moving Ligand-Fixed Receptor    =  -9.48 kcal/mol
DOCKED: USER        Moving Ligand-Moving Receptor   =  +0.00 kcal/mol
DOCKED: USER    (2) Final Total Internal Energy     =  -2.01 kcal/mol
DOCKED: USER    (3) Torsional Free Energy           =  +1.49 kcal/mol
DOCKED: USER    (4) Unbound System's Energy         =  -2.01 kcal/mol
DOCKED: USER
DOCKED: USER
DOCKED: REMARK SMILES O=C(NCC(=O)N1CCC[C@@H]1c1ccc(Cl)cc1)c1ccc2ccccc2n1
DOCKED: REMARK SMILES IDX 5 1 6 2 4 3 3 4 2 5 1 6 19 8 20 9 28 10 21 11 27 12 22 13
DOCKED: REMARK SMILES IDX 26 14 23 15 25 16 24 17 7 18 8 19 11 20 9 21 10 22 12 23
DOCKED: REMARK SMILES IDX 13 24 18 25 14 26 17 27 15 28 16 29
DOCKED: REMARK H PARENT 3 7
DOCKED: USER                              x       y       z     vdW  Elec       q    Type
DOCKED: USER                           _______ _______ _______ _____ _____    ______ ____
DOCKED: ROOT
DOCKED: ATOM      1  C   UNL     1     139.612  74.124 221.279 -0.17 -0.05    +0.242 C  
DOCKED: ATOM      2  O   UNL     1     140.151  74.565 222.334 -0.77 -0.00    -0.273 OA 
DOCKED: ENDROOT
DOCKED: BRANCH   1   3
DOCKED: ATOM      3  C   UNL     1     138.812  72.880 221.435 -0.12 -0.05    +0.216 C  
DOCKED: BRANCH   3   4
DOCKED: ATOM      4  N   UNL     1     139.103  72.179 222.644 -0.12 +0.09    -0.342 N  
DOCKED: ATOM      5  C   UNL     1     138.937  70.785 222.741 -0.14 -0.05    +0.270 C  
DOCKED: ATOM      6  O   UNL     1     138.525  70.157 221.744 -0.06 +0.05    -0.268 OA 
DOCKED: ATOM      7  H   UNL     1     139.456  72.671 223.515 -0.31 -0.06    +0.164 HD 
DOCKED: BRANCH   5   8
DOCKED: ATOM      8  C   UNL     1     139.247  70.083 224.004 -0.26 -0.02    +0.128 A  
DOCKED: ATOM      9  C   UNL     1     138.902  68.740 224.111 -0.31 -0.00    +0.035 A  
DOCKED: ATOM     10  N   UNL     1     139.839  70.747 224.993 -0.27 +0.04    -0.243 NA 
DOCKED: ATOM     11  C   UNL     1     139.214  68.123 225.319 -0.47 -0.00    +0.013 A  
DOCKED: ATOM     12  C   UNL     1     140.132  70.137 226.150 -0.47 -0.01    +0.071 A  
DOCKED: ATOM     13  C   UNL     1     139.826  68.804 226.345 -0.55 -0.00    +0.000 A  
DOCKED: ATOM     14  C   UNL     1     140.746  70.891 227.128 -0.65 -0.00    +0.029 A  
DOCKED: ATOM     15  C   UNL     1     140.152  68.233 227.557 -0.65 -0.00    +0.010 A  
DOCKED: ATOM     16  C   UNL     1     141.080  70.331 228.351 -0.55 -0.00    +0.002 A  
DOCKED: ATOM     17  C   UNL     1     140.762  68.990 228.523 -0.60 -0.00    +0.001 A  
DOCKED: ENDBRANCH   5   8
DOCKED: ENDBRANCH   3   4
DOCKED: ENDBRANCH   1   3
DOCKED: BRANCH   1  18
DOCKED: ATOM     18  N   UNL     1     139.719  74.712 220.011 -0.02 +0.08    -0.334 N  
DOCKED: ATOM     19  C   UNL     1     138.572  75.190 219.194 -0.02 -0.03    +0.120 C  
DOCKED: ATOM     20  C   UNL     1     140.844  75.010 219.152 -0.07 -0.03    +0.115 C  
DOCKED: ATOM     21  C   UNL     1     138.962  74.883 217.772 -0.01 -0.01    +0.024 C  
DOCKED: ATOM     22  C   UNL     1     140.375  74.325 217.887 -0.02 -0.01    +0.032 C  
DOCKED: BRANCH  20  23
DOCKED: ATOM     23  C   UNL     1     142.154  74.622 219.617 -0.20 +0.01    -0.025 A  
DOCKED: ATOM     24  C   UNL     1     143.188  75.529 219.683 -0.38 -0.00    +0.007 A  
DOCKED: ATOM     25  C   UNL     1     142.370  73.302 220.023 -0.21 -0.00    +0.007 A  
DOCKED: ATOM     26  C   UNL     1     144.448  75.144 220.154 -0.31 -0.01    +0.021 A  
DOCKED: ATOM     27  C   UNL     1     143.617  72.939 220.484 -0.34 -0.00    +0.021 A  
DOCKED: ATOM     28  C   UNL     1     144.677  73.837 220.562 -0.49 -0.01    +0.041 A  
DOCKED: ATOM     29  Cl  UNL     1     146.248  73.336 221.154 -0.85 +0.00    -0.084 Cl 
DOCKED: ENDBRANCH  20  23
DOCKED: ENDBRANCH   1  18
DOCKED: TORSDOF 5
DOCKED: TER
DOCKED: ENDMDL
________________________________________________________________________________


    FINAL DOCKED STATE:
    ________________________


Run:   18 / 20
Time taken for this run:   0.019s

DOCKED: MODEL        18
DOCKED: USER    Run = 18
DOCKED: USER
DOCKED: USER    Estimated Free Energy of Binding    =  -8.12 kcal/mol  [=(1)+(2)+(3)-(4)]
DOCKED: USER
DOCKED: USER    (1) Final Intermolecular Energy     =  -9.61 kcal/mol
DOCKED: USER        vdW + Hbond + desolv Energy     =  -9.55 kcal/mol
DOCKED: USER        Electrostatic Energy            =  -0.06 kcal/mol
DOCKED: USER        Moving Ligand-Fixed Receptor    =  -9.61 kcal/mol
DOCKED: USER        Moving Ligand-Moving Receptor   =  +0.00 kcal/mol
DOCKED: USER    (2) Final Total Internal Energy     =  -2.04 kcal/mol
DOCKED: USER    (3) Torsional Free Energy           =  +1.49 kcal/mol
DOCKED: USER    (4) Unbound System's Energy         =  -2.04 kcal/mol
DOCKED: USER
DOCKED: USER
DOCKED: REMARK SMILES O=C(NCC(=O)N1CCC[C@@H]1c1ccc(Cl)cc1)c1ccc2ccccc2n1
DOCKED: REMARK SMILES IDX 5 1 6 2 4 3 3 4 2 5 1 6 19 8 20 9 28 10 21 11 27 12 22 13
DOCKED: REMARK SMILES IDX 26 14 23 15 25 16 24 17 7 18 8 19 11 20 9 21 10 22 12 23
DOCKED: REMARK SMILES IDX 13 24 18 25 14 26 17 27 15 28 16 29
DOCKED: REMARK H PARENT 3 7
DOCKED: USER                              x       y       z     vdW  Elec       q    Type
DOCKED: USER                           _______ _______ _______ _____ _____    ______ ____
DOCKED: ROOT
DOCKED: ATOM      1  C   UNL     1     140.943  75.707 221.451 -0.24 -0.07    +0.242 C  
DOCKED: ATOM      2  O   UNL     1     140.485  76.180 222.529 -0.37 +0.06    -0.273 OA 
DOCKED: ENDROOT
DOCKED: BRANCH   1   3
DOCKED: ATOM      3  C   UNL     1     140.521  74.318 221.123 -0.20 -0.04    +0.216 C  
DOCKED: BRANCH   3   4
DOCKED: ATOM      4  N   UNL     1     140.229  73.538 222.283 -0.08 +0.01    -0.342 N  
DOCKED: ATOM      5  C   UNL     1     140.651  72.200 222.390 -0.20 -0.02    +0.270 C  
DOCKED: ATOM      6  O   UNL     1     141.291  71.693 221.446 -0.15 +0.03    -0.268 OA 
DOCKED: ATOM      7  H   UNL     1     139.689  73.928 223.108 -0.45 -0.00    +0.164 HD 
DOCKED: BRANCH   5   8
DOCKED: ATOM      8  C   UNL     1     140.336  71.414 223.601 -0.33 -0.02    +0.128 A  
DOCKED: ATOM      9  C   UNL     1     139.667  70.205 223.445 -0.25 -0.01    +0.035 A  
DOCKED: ATOM     10  N   UNL     1     140.696  71.879 224.794 -0.27 +0.03    -0.243 NA 
DOCKED: ATOM     11  C   UNL     1     139.393  69.502 224.615 -0.35 -0.00    +0.013 A  
DOCKED: ATOM     12  C   UNL     1     140.425  71.189 225.911 -0.54 -0.01    +0.071 A  
DOCKED: ATOM     13  C   UNL     1     139.763  69.977 225.850 -0.47 -0.00    +0.000 A  
DOCKED: ATOM     14  C   UNL     1     140.830  71.736 227.110 -0.74 -0.01    +0.029 A  
DOCKED: ATOM     15  C   UNL     1     139.512  69.315 227.033 -0.53 -0.00    +0.010 A  
DOCKED: ATOM     16  C   UNL     1     140.585  71.082 228.307 -0.67 -0.00    +0.002 A  
DOCKED: ATOM     17  C   UNL     1     139.919  69.866 228.222 -0.62 -0.00    +0.001 A  
DOCKED: ENDBRANCH   5   8
DOCKED: ENDBRANCH   3   4
DOCKED: ENDBRANCH   1   3
DOCKED: BRANCH   1  18
DOCKED: ATOM     18  N   UNL     1     141.799  76.385 220.570 -0.12 +0.18    -0.334 N  
DOCKED: ATOM     19  C   UNL     1     141.731  77.839 220.267 -0.25 -0.07    +0.120 C  
DOCKED: ATOM     20  C   UNL     1     142.903  75.956 219.739 -0.31 -0.07    +0.115 C  
DOCKED: ATOM     21  C   UNL     1     142.095  77.941 218.809 -0.28 -0.02    +0.024 C  
DOCKED: ATOM     22  C   UNL     1     142.440  76.512 218.411 -0.25 -0.02    +0.032 C  
DOCKED: BRANCH  20  23
DOCKED: ATOM     23  C   UNL     1     143.228  74.550 219.743 -0.32 +0.01    -0.025 A  
DOCKED: ATOM     24  C   UNL     1     144.086  74.015 220.677 -0.41 -0.00    +0.007 A  
DOCKED: ATOM     25  C   UNL     1     142.645  73.713 218.787 -0.13 -0.00    +0.007 A  
DOCKED: ATOM     26  C   UNL     1     144.378  72.647 220.680 -0.40 -0.00    +0.021 A  
DOCKED: ATOM     27  C   UNL     1     142.943  72.368 218.803 -0.10 -0.00    +0.021 A  
DOCKED: ATOM     28  C   UNL     1     143.807  71.804 219.738 -0.23 -0.00    +0.041 A  
DOCKED: ATOM     29  Cl  UNL     1     144.160  70.088 219.726 -0.28 -0.01    -0.084 Cl 
DOCKED: ENDBRANCH  20  23
DOCKED: ENDBRANCH   1  18
DOCKED: TORSDOF 5
DOCKED: TER
DOCKED: ENDMDL
________________________________________________________________________________


    FINAL DOCKED STATE:
    ________________________


Run:   19 / 20
Time taken for this run:   0.019s

DOCKED: MODEL        19
DOCKED: USER    Run = 19
DOCKED: USER
DOCKED: USER    Estimated Free Energy of Binding    =  -6.64 kcal/mol  [=(1)+(2)+(3)-(4)]
DOCKED: USER
DOCKED: USER    (1) Final Intermolecular Energy     =  -8.14 kcal/mol
DOCKED: USER        vdW + Hbond + desolv Energy     =  -8.13 kcal/mol
DOCKED: USER        Electrostatic Energy            =  -0.00 kcal/mol
DOCKED: USER        Moving Ligand-Fixed Receptor    =  -8.14 kcal/mol
DOCKED: USER        Moving Ligand-Moving Receptor   =  +0.00 kcal/mol
DOCKED: USER    (2) Final Total Internal Energy     =  -3.18 kcal/mol
DOCKED: USER    (3) Torsional Free Energy           =  +1.49 kcal/mol
DOCKED: USER    (4) Unbound System's Energy         =  -3.18 kcal/mol
DOCKED: USER
DOCKED: USER
DOCKED: REMARK SMILES O=C(NCC(=O)N1CCC[C@@H]1c1ccc(Cl)cc1)c1ccc2ccccc2n1
DOCKED: REMARK SMILES IDX 5 1 6 2 4 3 3 4 2 5 1 6 19 8 20 9 28 10 21 11 27 12 22 13
DOCKED: REMARK SMILES IDX 26 14 23 15 25 16 24 17 7 18 8 19 11 20 9 21 10 22 12 23
DOCKED: REMARK SMILES IDX 13 24 18 25 14 26 17 27 15 28 16 29
DOCKED: REMARK H PARENT 3 7
DOCKED: USER                              x       y       z     vdW  Elec       q    Type
DOCKED: USER                           _______ _______ _______ _____ _____    ______ ____
DOCKED: ROOT
DOCKED: ATOM      1  C   UNL     1     141.727  73.020 220.185 -0.11 -0.04    +0.242 C  
DOCKED: ATOM      2  O   UNL     1     140.970  72.362 219.415 -0.03 +0.05    -0.273 OA 
DOCKED: ENDROOT
DOCKED: BRANCH   1   3
DOCKED: ATOM      3  C   UNL     1     141.159  73.353 221.519 -0.18 -0.02    +0.216 C  
DOCKED: BRANCH   3   4
DOCKED: ATOM      4  N   UNL     1     141.225  74.748 221.818 -0.09 +0.04    -0.342 N  
DOCKED: ATOM      5  C   UNL     1     140.060  75.505 222.037 -0.16 -0.04    +0.270 C  
DOCKED: ATOM      6  O   UNL     1     138.950  74.938 221.965 -0.30 +0.06    -0.268 OA 
DOCKED: ATOM      7  H   UNL     1     142.146  75.270 221.890 -0.42 -0.07    +0.164 HD 
DOCKED: BRANCH   5   8
DOCKED: ATOM      8  C   UNL     1     140.155  76.947 222.346 -0.33 -0.03    +0.128 A  
DOCKED: ATOM      9  C   UNL     1     138.980  77.691 222.380 -0.29 -0.01    +0.035 A  
DOCKED: ATOM     10  N   UNL     1     141.347  77.489 222.580 -0.21 +0.11    -0.243 NA 
DOCKED: ATOM     11  C   UNL     1     139.121  79.044 222.676 -0.30 -0.00    +0.013 A  
DOCKED: ATOM     12  C   UNL     1     141.465  78.794 222.864 -0.49 -0.03    +0.071 A  
DOCKED: ATOM     13  C   UNL     1     140.351  79.609 222.918 -0.41 -0.00    +0.000 A  
DOCKED: ATOM     14  C   UNL     1     142.734  79.281 223.095 -0.49 -0.01    +0.029 A  
DOCKED: ATOM     15  C   UNL     1     140.537  80.943 223.215 -0.43 -0.00    +0.010 A  
DOCKED: ATOM     16  C   UNL     1     142.937  80.620 223.393 -0.66 -0.00    +0.002 A  
DOCKED: ATOM     17  C   UNL     1     141.802  81.420 223.443 -0.57 -0.00    +0.001 A  
DOCKED: ENDBRANCH   5   8
DOCKED: ENDBRANCH   3   4
DOCKED: ENDBRANCH   1   3
DOCKED: BRANCH   1  18
DOCKED: ATOM     18  N   UNL     1     143.027  73.444 219.871 -0.09 +0.07    -0.334 N  
DOCKED: ATOM     19  C   UNL     1     144.247  72.602 219.978 -0.29 -0.01    +0.120 C  
DOCKED: ATOM     20  C   UNL     1     143.569  74.701 219.405 -0.28 -0.05    +0.115 C  
DOCKED: ATOM     21  C   UNL     1     145.327  73.551 220.427 -0.58 -0.00    +0.024 C  
DOCKED: ATOM     22  C   UNL     1     144.640  74.910 220.453 -0.25 -0.02    +0.032 C  
DOCKED: BRANCH  20  23
DOCKED: ATOM     23  C   UNL     1     142.648  75.799 219.233 -0.29 +0.01    -0.025 A  
DOCKED: ATOM     24  C   UNL     1     141.439  75.628 218.597 -0.11 -0.00    +0.007 A  
DOCKED: ATOM     25  C   UNL     1     142.985  77.057 219.741 -0.25 -0.01    +0.007 A  
DOCKED: ATOM     26  C   UNL     1     140.548  76.696 218.455 -0.07 -0.01    +0.021 A  
DOCKED: ATOM     27  C   UNL     1     142.096  78.100 219.593 -0.27 -0.01    +0.021 A  
DOCKED: ATOM     28  C   UNL     1     140.868  77.951 218.954 -0.13 -0.02    +0.041 A  
DOCKED: ATOM     29  Cl  UNL     1     139.765  79.302 218.786 -0.08 +0.03    -0.084 Cl 
DOCKED: ENDBRANCH  20  23
DOCKED: ENDBRANCH   1  18
DOCKED: TORSDOF 5
DOCKED: TER
DOCKED: ENDMDL
________________________________________________________________________________


    FINAL DOCKED STATE:
    ________________________


Run:   20 / 20
Time taken for this run:   0.019s

DOCKED: MODEL        20
DOCKED: USER    Run = 20
DOCKED: USER
DOCKED: USER    Estimated Free Energy of Binding    =  -7.74 kcal/mol  [=(1)+(2)+(3)-(4)]
DOCKED: USER
DOCKED: USER    (1) Final Intermolecular Energy     =  -9.23 kcal/mol
DOCKED: USER        vdW + Hbond + desolv Energy     =  -9.24 kcal/mol
DOCKED: USER        Electrostatic Energy            =  +0.01 kcal/mol
DOCKED: USER        Moving Ligand-Fixed Receptor    =  -9.23 kcal/mol
DOCKED: USER        Moving Ligand-Moving Receptor   =  +0.00 kcal/mol
DOCKED: USER    (2) Final Total Internal Energy     =  -2.49 kcal/mol
DOCKED: USER    (3) Torsional Free Energy           =  +1.49 kcal/mol
DOCKED: USER    (4) Unbound System's Energy         =  -2.49 kcal/mol
DOCKED: USER
DOCKED: USER
DOCKED: REMARK SMILES O=C(NCC(=O)N1CCC[C@@H]1c1ccc(Cl)cc1)c1ccc2ccccc2n1
DOCKED: REMARK SMILES IDX 5 1 6 2 4 3 3 4 2 5 1 6 19 8 20 9 28 10 21 11 27 12 22 13
DOCKED: REMARK SMILES IDX 26 14 23 15 25 16 24 17 7 18 8 19 11 20 9 21 10 22 12 23
DOCKED: REMARK SMILES IDX 13 24 18 25 14 26 17 27 15 28 16 29
DOCKED: REMARK H PARENT 3 7
DOCKED: USER                              x       y       z     vdW  Elec       q    Type
DOCKED: USER                           _______ _______ _______ _____ _____    ______ ____
DOCKED: ROOT
DOCKED: ATOM      1  C   UNL     1     141.796  73.298 219.991 -0.10 -0.05    +0.242 C  
DOCKED: ATOM      2  O   UNL     1     140.981  73.046 219.058 -0.02 +0.05    -0.273 OA 
DOCKED: ENDROOT
DOCKED: BRANCH   1   3
DOCKED: ATOM      3  C   UNL     1     141.193  73.522 221.333 -0.19 -0.03    +0.216 C  
DOCKED: BRANCH   3   4
DOCKED: ATOM      4  N   UNL     1     141.264  74.885 221.754 -0.11 +0.06    -0.342 N  
DOCKED: ATOM      5  C   UNL     1     140.101  75.651 221.954 -0.22 -0.05    +0.270 C  
DOCKED: ATOM      6  O   UNL     1     138.989  75.121 221.756 -0.24 +0.06    -0.268 OA 
DOCKED: ATOM      7  H   UNL     1     142.187  75.375 221.935 -0.48 -0.08    +0.164 HD 
DOCKED: BRANCH   5   8
DOCKED: ATOM      8  C   UNL     1     140.203  77.059 222.391 -0.33 -0.03    +0.128 A  
DOCKED: ATOM      9  C   UNL     1     139.025  77.761 222.626 -0.29 -0.01    +0.035 A  
DOCKED: ATOM     10  N   UNL     1     141.403  77.611 222.546 -0.21 +0.12    -0.243 NA 
DOCKED: ATOM     11  C   UNL     1     139.172  79.083 223.036 -0.34 -0.00    +0.013 A  
DOCKED: ATOM     12  C   UNL     1     141.527  78.886 222.941 -0.50 -0.03    +0.071 A  
DOCKED: ATOM     13  C   UNL     1     140.410  79.659 223.197 -0.45 -0.00    +0.000 A  
DOCKED: ATOM     14  C   UNL     1     142.804  79.388 223.079 -0.54 -0.01    +0.029 A  
DOCKED: ATOM     15  C   UNL     1     140.602  80.963 223.601 -0.42 -0.00    +0.010 A  
DOCKED: ATOM     16  C   UNL     1     143.013  80.697 223.483 -0.64 -0.00    +0.002 A  
DOCKED: ATOM     17  C   UNL     1     141.876  81.454 223.735 -0.57 -0.00    +0.001 A  
DOCKED: ENDBRANCH   5   8
DOCKED: ENDBRANCH   3   4
DOCKED: ENDBRANCH   1   3
DOCKED: BRANCH   1  18
DOCKED: ATOM     18  N   UNL     1     143.189  73.378 219.848 -0.09 +0.07    -0.334 N  
DOCKED: ATOM     19  C   UNL     1     144.146  72.298 220.206 -0.28 -0.01    +0.120 C  
DOCKED: ATOM     20  C   UNL     1     144.074  74.418 219.373 -0.27 -0.04    +0.115 C  
DOCKED: ATOM     21  C   UNL     1     145.354  73.022 220.740 -0.57 -0.00    +0.024 C  
DOCKED: ATOM     22  C   UNL     1     145.018  74.496 220.553 -0.39 -0.01    +0.032 C  
DOCKED: BRANCH  20  23
DOCKED: ATOM     23  C   UNL     1     143.474  75.671 218.977 -0.32 +0.01    -0.025 A  
DOCKED: ATOM     24  C   UNL     1     142.892  76.510 219.899 -0.32 -0.00    +0.007 A  
DOCKED: ATOM     25  C   UNL     1     143.503  76.043 217.630 -0.24 -0.00    +0.007 A  
DOCKED: ATOM     26  C   UNL     1     142.332  77.729 219.504 -0.26 -0.01    +0.021 A  
DOCKED: ATOM     27  C   UNL     1     142.946  77.247 217.256 -0.27 -0.02    +0.021 A  
DOCKED: ATOM     28  C   UNL     1     142.352  78.113 218.170 -0.28 -0.03    +0.041 A  
DOCKED: ATOM     29  Cl  UNL     1     141.656  79.636 217.655 -0.28 +0.06    -0.084 Cl 
DOCKED: ENDBRANCH  20  23
DOCKED: ENDBRANCH   1  18
DOCKED: TORSDOF 5
DOCKED: TER
DOCKED: ENDMDL
________________________________________________________________________________


    CLUSTERING HISTOGRAM
    ____________________


________________________________________________________________________________
     |           |     |           |     |
Clus | Lowest    | Run | Mean      | Num | Histogram
-ter | Binding   |     | Binding   | in  |
Rank | Energy    |     | Energy    | Clus|    5    10   15   20   25   30   35
_____|___________|_____|___________|_____|____:____|____:____|____:____|____:___
   1 |     -8.50 |  15 |     -8.25 |  12 |############
   2 |     -8.15 |  11 |     -8.15 |   1 |#
   3 |     -8.15 |  13 |     -8.09 |   4 |####
   4 |     -8.00 |  14 |     -8.00 |   1 |#
   5 |     -7.74 |  20 |     -7.19 |   2 |##
_____|___________|_____|___________|_____|______________________________________


    RMSD TABLE
    __________


_______________________________________________________________________
     |      |      |           |         |                 |
Rank | Sub- | Run  | Binding   | Cluster | Reference       | Grep
     | Rank |      | Energy    | RMSD    | RMSD            | Pattern
_____|______|______|___________|_________|_________________|___________
   1      1     15       -8.50      0.00    272.11           RANKING
   1      2      7       -8.46      1.26    272.06           RANKING
   1      3      3       -8.45      0.16    272.09           RANKING
   1      4      2       -8.36      1.29    272.00           RANKING
   1      5     16       -8.30      0.57    271.97           RANKING
   1      6      9       -8.28      1.85    272.08           RANKING
   1      7     10       -8.28      1.85    272.07           RANKING
   1      8     12       -8.26      1.85    272.08           RANKING
   1      9      8       -8.20      1.86    272.07           RANKING
   1     10      5       -8.08      0.95    271.91           RANKING
   1     11      6       -7.97      1.48    271.69           RANKING
   1     12      1       -7.88      1.16    272.11           RANKING
   2      1     11       -8.15      0.00    272.20           RANKING
   3      1     13       -8.15      0.00    271.67           RANKING
   3      2     18       -8.12      0.14    271.68           RANKING
   3      3      4       -8.10      0.10    271.67           RANKING
   3      4     17       -7.99      1.92    271.24           RANKING
   4      1     14       -8.00      0.00    272.06           RANKING
   5      1     20       -7.74      0.00    271.83           RANKING
   5      2     19       -6.64      0.85    271.72           RANKING

Run time 0.389 sec
Idle time 0.000 sec
