AutoDock-GPU version: v1.6

**********************************************************
**    AutoDock-GPU AUTODOCKTOOLS-COMPATIBLE DLG FILE    **
**********************************************************


    DOCKING PARAMETERS
    ________________________


Ligand file:                               /home/a/REINVENT4/ReinventStudies/pleaseWork/justmol2mol_4_Compounds_ontop/graph-dock-amy28i/graph-DockGPU/node-autodockgpu/inputs/BJGQPMZDASVXPM-ZSWWDKBRNA-N.pdbqt
Grid fld file:                             /home/a/REINVENT4/ReinventStudies/mols/Rad51/maps/rad51_receptor.maps.fld

Random seed:                               42
Number of runs:                            20
Number of energy evaluations:              1132076
Number of generations:                     42000
Size of population:                        150
Rate of crossover:                         80.000000%
Tournament selection probability limit:    60.000000%
Rate of mutation:                          2.000000%
Maximal allowed delta movement:            +/- 6.000000A
Maximal allowed delta angle:               +/- 90.000000

Rate of local search:                      100.000000%
Maximal number of local search iterations: 300
Rho lower bound:                           0.010000
Spread of local search delta movement:     2.000000A
Spread of local search delta angle:        74.999999
Limit of consecutive successes/failures:   4

Handle symmetry during clustering:         YES
RMSD tolerance:                            2.000000A

Program call in command line was:          /home/a/REINVENT4/ReinventStudies/adgpu-v1.6_linux_x64_cuda12_128wi --filelist batch.txt --heuristics 1 --nrun 20 --psize 150 --lsit 300 --seed 42 --heurmax 12000000 


    GRID PARAMETERS
    ________________________


Receptor name:                             rad51_receptor
Number of grid points (x, y, z):           53, 53, 53
Grid center (x, y, z):                     139.950000, 75.640000, 221.970000A
Grid size (x, y, z):                       19.500000, 19.500000, 19.500000A
Grid spacing:                              0.375000A


    LIGAND PARAMETERS
    ________________________


Ligand name:                               /home/a/REINVENT4/ReinventStudies/pleaseWork/justmol2mol_4_Compounds_ontop/graph-dock-amy28i/graph-DockGPU/node-autodockgpu/inputs/BJGQPMZDASVXPM-ZSWWDKBRNA-N
Number of atoms:                           29
Number of rotatable bonds:                 5
Number of atom types:                      7


    DUMMY DATA (only for ADT-compatibility)
    ________________________


DPF> outlev 1
DPF> ga_run 20
DPF> fld /home/a/REINVENT4/ReinventStudies/mols/Rad51/maps/rad51_receptor.maps.fld
DPF> move /home/a/REINVENT4/ReinventStudies/pleaseWork/justmol2mol_4_Compounds_ontop/graph-dock-amy28i/graph-DockGPU/node-autodockgpu/inputs/BJGQPMZDASVXPM-ZSWWDKBRNA-N.pdbqt


    COUNTER STATES
    ________________________


Number of energy evaluations performed:    617853
Number of generations used:                35


    INPUT LIGAND PDBQT FILE:
    ________________________


INPUT-LIGAND-PDBQT: REMARK SMILES O=C(NCC(=O)N1CCC[C@H]1c1ccc(Cl)cc1)c1ccc2ccccc2n1
INPUT-LIGAND-PDBQT: REMARK SMILES IDX 5 1 6 2 4 3 3 4 2 5 1 6 19 8 20 9 28 10 21 11 27 12 22 13
INPUT-LIGAND-PDBQT: REMARK SMILES IDX 26 14 23 15 25 16 24 17 7 18 8 19 11 20 9 21 10 22 12 23
INPUT-LIGAND-PDBQT: REMARK SMILES IDX 13 24 18 25 14 26 17 27 15 28 16 29
INPUT-LIGAND-PDBQT: REMARK H PARENT 3 7
INPUT-LIGAND-PDBQT: ROOT
INPUT-LIGAND-PDBQT: ATOM      1  C   UNL     1      -1.082   1.044   0.424  1.00  0.00     0.242 C 
INPUT-LIGAND-PDBQT: ATOM      2  O   UNL     1      -0.065   1.839   0.390  1.00  0.00    -0.273 OA
INPUT-LIGAND-PDBQT: ENDROOT
INPUT-LIGAND-PDBQT: BRANCH   1   3
INPUT-LIGAND-PDBQT: ATOM      3  C   UNL     1      -0.754  -0.377   0.532  1.00  0.00     0.216 C 
INPUT-LIGAND-PDBQT: BRANCH   3   4
INPUT-LIGAND-PDBQT: ATOM      4  N   UNL     1       0.713  -0.531   0.526  1.00  0.00    -0.342 N 
INPUT-LIGAND-PDBQT: ATOM      5  C   UNL     1       1.485  -0.078  -0.601  1.00  0.00     0.270 C 
INPUT-LIGAND-PDBQT: ATOM      6  O   UNL     1       0.945   0.458  -1.607  1.00  0.00    -0.268 OA
INPUT-LIGAND-PDBQT: ATOM      7  H   UNL     1       1.237  -0.960   1.307  1.00  0.00     0.164 HD
INPUT-LIGAND-PDBQT: BRANCH   5   8
INPUT-LIGAND-PDBQT: ATOM      8  C   UNL     1       2.951  -0.254  -0.561  1.00  0.00     0.128 A 
INPUT-LIGAND-PDBQT: ATOM      9  C   UNL     1       3.706   0.174  -1.631  1.00  0.00     0.035 A 
INPUT-LIGAND-PDBQT: ATOM     10  N   UNL     1       3.561  -0.814   0.479  1.00  0.00    -0.243 NA
INPUT-LIGAND-PDBQT: ATOM     11  C   UNL     1       5.078   0.037  -1.651  1.00  0.00     0.013 A 
INPUT-LIGAND-PDBQT: ATOM     12  C   UNL     1       4.895  -0.970   0.507  1.00  0.00     0.071 A 
INPUT-LIGAND-PDBQT: ATOM     13  C   UNL     1       5.678  -0.543  -0.567  1.00  0.00     0.000 A 
INPUT-LIGAND-PDBQT: ATOM     14  C   UNL     1       5.563  -1.542   1.558  1.00  0.00     0.029 A 
INPUT-LIGAND-PDBQT: ATOM     15  C   UNL     1       7.038  -0.716  -0.508  1.00  0.00     0.010 A 
INPUT-LIGAND-PDBQT: ATOM     16  C   UNL     1       6.920  -1.717   1.621  1.00  0.00     0.002 A 
INPUT-LIGAND-PDBQT: ATOM     17  C   UNL     1       7.688  -1.292   0.555  1.00  0.00     0.001 A 
INPUT-LIGAND-PDBQT: ENDBRANCH   5   8
INPUT-LIGAND-PDBQT: ENDBRANCH   3   4
INPUT-LIGAND-PDBQT: ENDBRANCH   1   3
INPUT-LIGAND-PDBQT: BRANCH   1  18
INPUT-LIGAND-PDBQT: ATOM     18  N   UNL     1      -2.325   1.662   0.351  1.00  0.00    -0.334 N 
INPUT-LIGAND-PDBQT: ATOM     19  C   UNL     1      -2.400   3.161   0.265  1.00  0.00     0.120 C 
INPUT-LIGAND-PDBQT: ATOM     20  C   UNL     1      -3.703   1.290   0.297  1.00  0.00     0.115 C 
INPUT-LIGAND-PDBQT: ATOM     21  C   UNL     1      -3.619   3.430  -0.592  1.00  0.00     0.024 C 
INPUT-LIGAND-PDBQT: ATOM     22  C   UNL     1      -4.125   2.029  -0.967  1.00  0.00     0.032 C 
INPUT-LIGAND-PDBQT: BRANCH  20  23
INPUT-LIGAND-PDBQT: ATOM     23  C   UNL     1      -4.066  -0.109   0.286  1.00  0.00    -0.025 A 
INPUT-LIGAND-PDBQT: ATOM     24  C   UNL     1      -3.811  -1.044   1.257  1.00  0.00     0.007 A 
INPUT-LIGAND-PDBQT: ATOM     25  C   UNL     1      -4.746  -0.592  -0.842  1.00  0.00     0.007 A 
INPUT-LIGAND-PDBQT: ATOM     26  C   UNL     1      -4.166  -2.362   1.188  1.00  0.00     0.021 A 
INPUT-LIGAND-PDBQT: ATOM     27  C   UNL     1      -5.118  -1.924  -0.937  1.00  0.00     0.021 A 
INPUT-LIGAND-PDBQT: ATOM     28  C   UNL     1      -4.839  -2.833   0.067  1.00  0.00     0.041 A 
INPUT-LIGAND-PDBQT: ATOM     29  Cl  UNL     1      -5.299  -4.507  -0.039  1.00  0.00    -0.084 Cl
INPUT-LIGAND-PDBQT: ENDBRANCH  20  23
INPUT-LIGAND-PDBQT: ENDBRANCH   1  18
INPUT-LIGAND-PDBQT: TORSDOF 5


    FINAL DOCKED STATE:
    ________________________


Run:   1 / 20
Time taken for this run:   0.026s

DOCKED: MODEL        1
DOCKED: USER    Run = 1
DOCKED: USER
DOCKED: USER    Estimated Free Energy of Binding    =  -8.18 kcal/mol  [=(1)+(2)+(3)-(4)]
DOCKED: USER
DOCKED: USER    (1) Final Intermolecular Energy     =  -9.67 kcal/mol
DOCKED: USER        vdW + Hbond + desolv Energy     =  -9.63 kcal/mol
DOCKED: USER        Electrostatic Energy            =  -0.04 kcal/mol
DOCKED: USER        Moving Ligand-Fixed Receptor    =  -9.67 kcal/mol
DOCKED: USER        Moving Ligand-Moving Receptor   =  +0.00 kcal/mol
DOCKED: USER    (2) Final Total Internal Energy     =  -2.03 kcal/mol
DOCKED: USER    (3) Torsional Free Energy           =  +1.49 kcal/mol
DOCKED: USER    (4) Unbound System's Energy         =  -2.03 kcal/mol
DOCKED: USER
DOCKED: USER
DOCKED: REMARK SMILES O=C(NCC(=O)N1CCC[C@H]1c1ccc(Cl)cc1)c1ccc2ccccc2n1
DOCKED: REMARK SMILES IDX 5 1 6 2 4 3 3 4 2 5 1 6 19 8 20 9 28 10 21 11 27 12 22 13
DOCKED: REMARK SMILES IDX 26 14 23 15 25 16 24 17 7 18 8 19 11 20 9 21 10 22 12 23
DOCKED: REMARK SMILES IDX 13 24 18 25 14 26 17 27 15 28 16 29
DOCKED: REMARK H PARENT 3 7
DOCKED: USER                              x       y       z     vdW  Elec       q    Type
DOCKED: USER                           _______ _______ _______ _____ _____    ______ ____
DOCKED: ROOT
DOCKED: ATOM      1  C   UNL     1     139.101  73.113 221.970 -0.15 -0.06    +0.242 C  
DOCKED: ATOM      2  O   UNL     1     140.326  73.389 222.271 -0.77 +0.01    -0.273 OA 
DOCKED: ENDROOT
DOCKED: BRANCH   1   3
DOCKED: ATOM      3  C   UNL     1     138.229  74.274 221.797 -0.12 -0.06    +0.216 C  
DOCKED: BRANCH   3   4
DOCKED: ATOM      4  N   UNL     1     138.979  75.493 222.152 -0.16 +0.08    -0.342 N  
DOCKED: ATOM      5  C   UNL     1     138.279  76.713 222.456 -0.19 -0.05    +0.270 C  
DOCKED: ATOM      6  O   UNL     1     137.020  76.783 222.431 -0.15 +0.05    -0.268 OA 
DOCKED: ATOM      7  H   UNL     1     140.012  75.526 222.195 +0.03 -0.02    +0.164 HD 
DOCKED: BRANCH   5   8
DOCKED: ATOM      8  C   UNL     1     139.074  77.908 222.805 -0.22 -0.02    +0.128 A  
DOCKED: ATOM      9  C   UNL     1     138.421  79.049 223.217 -0.27 -0.00    +0.035 A  
DOCKED: ATOM     10  N   UNL     1     140.401  77.912 222.733 -0.25 +0.06    -0.243 NA 
DOCKED: ATOM     11  C   UNL     1     139.109  80.195 223.557 -0.40 -0.00    +0.013 A  
DOCKED: ATOM     12  C   UNL     1     141.116  79.003 223.053 -0.47 -0.02    +0.071 A  
DOCKED: ATOM     13  C   UNL     1     140.474  80.169 223.473 -0.47 -0.00    +0.000 A  
DOCKED: ATOM     14  C   UNL     1     142.485  79.049 222.992 -0.50 -0.01    +0.029 A  
DOCKED: ATOM     15  C   UNL     1     141.233  81.267 223.793 -0.46 -0.00    +0.010 A  
DOCKED: ATOM     16  C   UNL     1     143.246  80.143 223.310 -0.61 -0.00    +0.002 A  
DOCKED: ATOM     17  C   UNL     1     142.604  81.293 223.724 -0.58 -0.00    +0.001 A  
DOCKED: ENDBRANCH   5   8
DOCKED: ENDBRANCH   3   4
DOCKED: ENDBRANCH   1   3
DOCKED: BRANCH   1  18
DOCKED: ATOM     18  N   UNL     1     138.805  71.759 221.860 -0.06 +0.07    -0.334 N  
DOCKED: ATOM     19  C   UNL     1     138.254  71.227 220.566 -0.04 -0.02    +0.120 C  
DOCKED: ATOM     20  C   UNL     1     138.891  70.577 222.657 -0.18 -0.02    +0.115 C  
DOCKED: ATOM     21  C   UNL     1     138.815  69.824 220.465 -0.08 -0.00    +0.024 C  
DOCKED: ATOM     22  C   UNL     1     139.693  69.685 221.718 -0.10 -0.01    +0.032 C  
DOCKED: BRANCH  20  23
DOCKED: ATOM     23  C   UNL     1     139.450  70.651 223.987 -0.35 +0.00    -0.025 A  
DOCKED: ATOM     24  C   UNL     1     140.437  71.495 224.431 -0.47 -0.00    +0.007 A  
DOCKED: ATOM     25  C   UNL     1     138.952  69.759 224.949 -0.38 -0.00    +0.007 A  
DOCKED: ATOM     26  C   UNL     1     140.940  71.512 225.702 -0.60 -0.00    +0.021 A  
DOCKED: ATOM     27  C   UNL     1     139.445  69.756 226.245 -0.44 -0.00    +0.021 A  
DOCKED: ATOM     28  C   UNL     1     140.442  70.625 226.648 -0.57 -0.01    +0.041 A  
DOCKED: ATOM     29  Cl  UNL     1     141.070  70.632 228.270 -0.62 +0.02    -0.084 Cl 
DOCKED: ENDBRANCH  20  23
DOCKED: ENDBRANCH   1  18
DOCKED: TORSDOF 5
DOCKED: TER
DOCKED: ENDMDL
________________________________________________________________________________


    FINAL DOCKED STATE:
    ________________________


Run:   2 / 20
Time taken for this run:   0.026s

DOCKED: MODEL        2
DOCKED: USER    Run = 2
DOCKED: USER
DOCKED: USER    Estimated Free Energy of Binding    =  -8.76 kcal/mol  [=(1)+(2)+(3)-(4)]
DOCKED: USER
DOCKED: USER    (1) Final Intermolecular Energy     = -10.25 kcal/mol
DOCKED: USER        vdW + Hbond + desolv Energy     = -10.24 kcal/mol
DOCKED: USER        Electrostatic Energy            =  -0.01 kcal/mol
DOCKED: USER        Moving Ligand-Fixed Receptor    = -10.25 kcal/mol
DOCKED: USER        Moving Ligand-Moving Receptor   =  +0.00 kcal/mol
DOCKED: USER    (2) Final Total Internal Energy     =  -1.68 kcal/mol
DOCKED: USER    (3) Torsional Free Energy           =  +1.49 kcal/mol
DOCKED: USER    (4) Unbound System's Energy         =  -1.68 kcal/mol
DOCKED: USER
DOCKED: USER
DOCKED: REMARK SMILES O=C(NCC(=O)N1CCC[C@H]1c1ccc(Cl)cc1)c1ccc2ccccc2n1
DOCKED: REMARK SMILES IDX 5 1 6 2 4 3 3 4 2 5 1 6 19 8 20 9 28 10 21 11 27 12 22 13
DOCKED: REMARK SMILES IDX 26 14 23 15 25 16 24 17 7 18 8 19 11 20 9 21 10 22 12 23
DOCKED: REMARK SMILES IDX 13 24 18 25 14 26 17 27 15 28 16 29
DOCKED: REMARK H PARENT 3 7
DOCKED: USER                              x       y       z     vdW  Elec       q    Type
DOCKED: USER                           _______ _______ _______ _____ _____    ______ ____
DOCKED: ROOT
DOCKED: ATOM      1  C   UNL     1     139.393  75.069 221.780 -0.20 -0.05    +0.242 C  
DOCKED: ATOM      2  O   UNL     1     140.507  75.426 222.328 -0.54 +0.02    -0.273 OA 
DOCKED: ENDROOT
DOCKED: BRANCH   1   3
DOCKED: ATOM      3  C   UNL     1     139.305  73.655 221.419 -0.16 -0.04    +0.216 C  
DOCKED: BRANCH   3   4
DOCKED: ATOM      4  N   UNL     1     139.546  72.838 222.623 -0.11 +0.07    -0.342 N  
DOCKED: ATOM      5  C   UNL     1     139.248  71.430 222.616 -0.17 -0.06    +0.270 C  
DOCKED: ATOM      6  O   UNL     1     138.778  70.853 221.598 -0.06 +0.05    -0.268 OA 
DOCKED: ATOM      7  H   UNL     1     139.927  73.229 223.501 -0.36 -0.01    +0.164 HD 
DOCKED: BRANCH   5   8
DOCKED: ATOM      8  C   UNL     1     139.506  70.654 223.846 -0.29 -0.02    +0.128 A  
DOCKED: ATOM      9  C   UNL     1     139.173  69.318 223.876 -0.28 -0.01    +0.035 A  
DOCKED: ATOM     10  N   UNL     1     140.049  71.211 224.924 -0.30 +0.04    -0.243 NA 
DOCKED: ATOM     11  C   UNL     1     139.390  68.542 224.996 -0.40 -0.00    +0.013 A  
DOCKED: ATOM     12  C   UNL     1     140.280  70.497 226.039 -0.50 -0.01    +0.071 A  
DOCKED: ATOM     13  C   UNL     1     139.951  69.142 226.090 -0.51 -0.00    +0.000 A  
DOCKED: ATOM     14  C   UNL     1     140.837  71.031 227.171 -0.67 -0.00    +0.029 A  
DOCKED: ATOM     15  C   UNL     1     140.200  68.440 227.243 -0.65 -0.00    +0.010 A  
DOCKED: ATOM     16  C   UNL     1     141.087  70.335 228.324 -0.56 -0.00    +0.002 A  
DOCKED: ATOM     17  C   UNL     1     140.759  68.995 228.367 -0.64 -0.00    +0.001 A  
DOCKED: ENDBRANCH   5   8
DOCKED: ENDBRANCH   3   4
DOCKED: ENDBRANCH   1   3
DOCKED: BRANCH   1  18
DOCKED: ATOM     18  N   UNL     1     138.457  76.084 221.617 -0.10 +0.07    -0.334 N  
DOCKED: ATOM     19  C   UNL     1     137.059  75.736 221.186 -0.09 -0.02    +0.120 C  
DOCKED: ATOM     20  C   UNL     1     138.378  77.501 221.772 -0.18 -0.02    +0.115 C  
DOCKED: ATOM     21  C   UNL     1     136.184  76.758 221.880 -0.12 -0.00    +0.024 C  
DOCKED: ATOM     22  C   UNL     1     137.174  77.597 222.701 -0.21 -0.01    +0.032 C  
DOCKED: BRANCH  20  23
DOCKED: ATOM     23  C   UNL     1     139.528  78.233 222.253 -0.29 +0.01    -0.025 A  
DOCKED: ATOM     24  C   UNL     1     139.631  78.952 223.417 -0.37 -0.00    +0.007 A  
DOCKED: ATOM     25  C   UNL     1     140.677  78.234 221.449 -0.30 -0.00    +0.007 A  
DOCKED: ATOM     26  C   UNL     1     140.742  79.639 223.818 -0.50 -0.00    +0.021 A  
DOCKED: ATOM     27  C   UNL     1     141.818  78.922 221.832 -0.43 -0.01    +0.021 A  
DOCKED: ATOM     28  C   UNL     1     141.877  79.636 223.015 -0.55 -0.01    +0.041 A  
DOCKED: ATOM     29  Cl  UNL     1     143.301  80.505 223.508 -0.69 +0.02    -0.084 Cl 
DOCKED: ENDBRANCH  20  23
DOCKED: ENDBRANCH   1  18
DOCKED: TORSDOF 5
DOCKED: TER
DOCKED: ENDMDL
________________________________________________________________________________


    FINAL DOCKED STATE:
    ________________________


Run:   3 / 20
Time taken for this run:   0.026s

DOCKED: MODEL        3
DOCKED: USER    Run = 3
DOCKED: USER
DOCKED: USER    Estimated Free Energy of Binding    =  -8.08 kcal/mol  [=(1)+(2)+(3)-(4)]
DOCKED: USER
DOCKED: USER    (1) Final Intermolecular Energy     =  -9.57 kcal/mol
DOCKED: USER        vdW + Hbond + desolv Energy     =  -9.55 kcal/mol
DOCKED: USER        Electrostatic Energy            =  -0.02 kcal/mol
DOCKED: USER        Moving Ligand-Fixed Receptor    =  -9.57 kcal/mol
DOCKED: USER        Moving Ligand-Moving Receptor   =  +0.00 kcal/mol
DOCKED: USER    (2) Final Total Internal Energy     =  -1.98 kcal/mol
DOCKED: USER    (3) Torsional Free Energy           =  +1.49 kcal/mol
DOCKED: USER    (4) Unbound System's Energy         =  -1.98 kcal/mol
DOCKED: USER
DOCKED: USER
DOCKED: REMARK SMILES O=C(NCC(=O)N1CCC[C@H]1c1ccc(Cl)cc1)c1ccc2ccccc2n1
DOCKED: REMARK SMILES IDX 5 1 6 2 4 3 3 4 2 5 1 6 19 8 20 9 28 10 21 11 27 12 22 13
DOCKED: REMARK SMILES IDX 26 14 23 15 25 16 24 17 7 18 8 19 11 20 9 21 10 22 12 23
DOCKED: REMARK SMILES IDX 13 24 18 25 14 26 17 27 15 28 16 29
DOCKED: REMARK H PARENT 3 7
DOCKED: USER                              x       y       z     vdW  Elec       q    Type
DOCKED: USER                           _______ _______ _______ _____ _____    ______ ____
DOCKED: ROOT
DOCKED: ATOM      1  C   UNL     1     139.245  73.090 221.923 -0.16 -0.05    +0.242 C  
DOCKED: ATOM      2  O   UNL     1     140.483  73.406 222.111 -0.71 +0.01    -0.273 OA 
DOCKED: ENDROOT
DOCKED: BRANCH   1   3
DOCKED: ATOM      3  C   UNL     1     138.310  74.214 221.938 -0.11 -0.06    +0.216 C  
DOCKED: BRANCH   3   4
DOCKED: ATOM      4  N   UNL     1     139.041  75.440 222.310 -0.17 +0.08    -0.342 N  
DOCKED: ATOM      5  C   UNL     1     138.347  76.696 222.412 -0.19 -0.05    +0.270 C  
DOCKED: ATOM      6  O   UNL     1     137.109  76.793 222.191 -0.13 +0.05    -0.268 OA 
DOCKED: ATOM      7  H   UNL     1     140.056  75.452 222.507 +0.01 -0.01    +0.164 HD 
DOCKED: BRANCH   5   8
DOCKED: ATOM      8  C   UNL     1     139.122  77.896 222.788 -0.23 -0.02    +0.128 A  
DOCKED: ATOM      9  C   UNL     1     138.449  79.033 223.178 -0.27 -0.01    +0.035 A  
DOCKED: ATOM     10  N   UNL     1     140.451  77.908 222.759 -0.25 +0.07    -0.243 NA 
DOCKED: ATOM     11  C   UNL     1     139.118  80.183 223.540 -0.40 -0.00    +0.013 A  
DOCKED: ATOM     12  C   UNL     1     141.148  79.004 223.102 -0.48 -0.02    +0.071 A  
DOCKED: ATOM     13  C   UNL     1     140.485  80.166 223.501 -0.47 -0.00    +0.000 A  
DOCKED: ATOM     14  C   UNL     1     142.517  79.059 223.086 -0.50 -0.01    +0.029 A  
DOCKED: ATOM     15  C   UNL     1     141.226  81.269 223.845 -0.45 -0.00    +0.010 A  
DOCKED: ATOM     16  C   UNL     1     143.261  80.158 223.429 -0.58 -0.00    +0.002 A  
DOCKED: ATOM     17  C   UNL     1     142.598  81.303 223.822 -0.60 -0.00    +0.001 A  
DOCKED: ENDBRANCH   5   8
DOCKED: ENDBRANCH   3   4
DOCKED: ENDBRANCH   1   3
DOCKED: BRANCH   1  18
DOCKED: ATOM     18  N   UNL     1     138.997  71.735 221.738 -0.06 +0.07    -0.334 N  
DOCKED: ATOM     19  C   UNL     1     138.571  71.241 220.383 -0.04 -0.02    +0.120 C  
DOCKED: ATOM     20  C   UNL     1     139.048  70.525 222.495 -0.17 -0.02    +0.115 C  
DOCKED: ATOM     21  C   UNL     1     139.177  69.857 220.278 -0.08 -0.00    +0.024 C  
DOCKED: ATOM     22  C   UNL     1     139.951  69.690 221.594 -0.05 -0.01    +0.032 C  
DOCKED: BRANCH  20  23
DOCKED: ATOM     23  C   UNL     1     139.493  70.560 223.870 -0.34 +0.00    -0.025 A  
DOCKED: ATOM     24  C   UNL     1     138.987  69.848 224.928 -0.38 -0.00    +0.007 A  
DOCKED: ATOM     25  C   UNL     1     140.552  71.423 224.185 -0.43 -0.00    +0.007 A  
DOCKED: ATOM     26  C   UNL     1     139.438  69.931 226.215 -0.42 -0.00    +0.021 A  
DOCKED: ATOM     27  C   UNL     1     141.029  71.526 225.483 -0.55 -0.00    +0.021 A  
DOCKED: ATOM     28  C   UNL     1     140.488  70.789 226.520 -0.58 -0.01    +0.041 A  
DOCKED: ATOM     29  Cl  UNL     1     141.075  70.908 228.153 -0.74 +0.02    -0.084 Cl 
DOCKED: ENDBRANCH  20  23
DOCKED: ENDBRANCH   1  18
DOCKED: TORSDOF 5
DOCKED: TER
DOCKED: ENDMDL
________________________________________________________________________________


    FINAL DOCKED STATE:
    ________________________


Run:   4 / 20
Time taken for this run:   0.026s

DOCKED: MODEL        4
DOCKED: USER    Run = 4
DOCKED: USER
DOCKED: USER    Estimated Free Energy of Binding    =  -8.85 kcal/mol  [=(1)+(2)+(3)-(4)]
DOCKED: USER
DOCKED: USER    (1) Final Intermolecular Energy     = -10.34 kcal/mol
DOCKED: USER        vdW + Hbond + desolv Energy     = -10.27 kcal/mol
DOCKED: USER        Electrostatic Energy            =  -0.07 kcal/mol
DOCKED: USER        Moving Ligand-Fixed Receptor    = -10.34 kcal/mol
DOCKED: USER        Moving Ligand-Moving Receptor   =  +0.00 kcal/mol
DOCKED: USER    (2) Final Total Internal Energy     =  -1.71 kcal/mol
DOCKED: USER    (3) Torsional Free Energy           =  +1.49 kcal/mol
DOCKED: USER    (4) Unbound System's Energy         =  -1.71 kcal/mol
DOCKED: USER
DOCKED: USER
DOCKED: REMARK SMILES O=C(NCC(=O)N1CCC[C@H]1c1ccc(Cl)cc1)c1ccc2ccccc2n1
DOCKED: REMARK SMILES IDX 5 1 6 2 4 3 3 4 2 5 1 6 19 8 20 9 28 10 21 11 27 12 22 13
DOCKED: REMARK SMILES IDX 26 14 23 15 25 16 24 17 7 18 8 19 11 20 9 21 10 22 12 23
DOCKED: REMARK SMILES IDX 13 24 18 25 14 26 17 27 15 28 16 29
DOCKED: REMARK H PARENT 3 7
DOCKED: USER                              x       y       z     vdW  Elec       q    Type
DOCKED: USER                           _______ _______ _______ _____ _____    ______ ____
DOCKED: ROOT
DOCKED: ATOM      1  C   UNL     1     140.616  75.566 221.532 -0.25 -0.06    +0.242 C  
DOCKED: ATOM      2  O   UNL     1     139.993  75.954 222.594 -0.41 +0.04    -0.273 OA 
DOCKED: ENDROOT
DOCKED: BRANCH   1   3
DOCKED: ATOM      3  C   UNL     1     140.352  74.186 221.128 -0.19 -0.04    +0.216 C  
DOCKED: BRANCH   3   4
DOCKED: ATOM      4  N   UNL     1     140.104  73.374 222.335 -0.14 +0.02    -0.342 N  
DOCKED: ATOM      5  C   UNL     1     140.562  72.011 222.398 -0.20 -0.03    +0.270 C  
DOCKED: ATOM      6  O   UNL     1     141.181  71.470 221.441 -0.14 +0.03    -0.268 OA 
DOCKED: ATOM      7  H   UNL     1     139.605  73.736 223.164 -0.48 -0.03    +0.164 HD 
DOCKED: BRANCH   5   8
DOCKED: ATOM      8  C   UNL     1     140.291  71.238 223.627 -0.32 -0.02    +0.128 A  
DOCKED: ATOM      9  C   UNL     1     139.624  70.036 223.528 -0.25 -0.01    +0.035 A  
DOCKED: ATOM     10  N   UNL     1     140.672  71.670 224.825 -0.30 +0.03    -0.243 NA 
DOCKED: ATOM     11  C   UNL     1     139.342  69.270 224.640 -0.36 -0.00    +0.013 A  
DOCKED: ATOM     12  C   UNL     1     140.421  70.961 225.937 -0.53 -0.01    +0.071 A  
DOCKED: ATOM     13  C   UNL     1     139.747  69.741 225.859 -0.47 -0.00    +0.000 A  
DOCKED: ATOM     14  C   UNL     1     140.796  71.370 227.190 -0.72 -0.01    +0.029 A  
DOCKED: ATOM     15  C   UNL     1     139.506  69.039 227.014 -0.54 -0.00    +0.010 A  
DOCKED: ATOM     16  C   UNL     1     140.557  70.673 228.345 -0.60 -0.00    +0.002 A  
DOCKED: ATOM     17  C   UNL     1     139.890  69.467 228.260 -0.63 -0.00    +0.001 A  
DOCKED: ENDBRANCH   5   8
DOCKED: ENDBRANCH   3   4
DOCKED: ENDBRANCH   1   3
DOCKED: BRANCH   1  18
DOCKED: ATOM     18  N   UNL     1     141.440  76.518 220.942 -0.14 +0.16    -0.334 N  
DOCKED: ATOM     19  C   UNL     1     142.409  76.095 219.873 -0.26 -0.06    +0.120 C  
DOCKED: ATOM     20  C   UNL     1     141.667  77.926 221.011 -0.25 -0.07    +0.115 C  
DOCKED: ATOM     21  C   UNL     1     142.482  77.284 218.938 -0.32 -0.02    +0.024 C  
DOCKED: ATOM     22  C   UNL     1     141.495  78.293 219.542 -0.24 -0.02    +0.032 C  
DOCKED: BRANCH  20  23
DOCKED: ATOM     23  C   UNL     1     140.864  78.737 221.898 -0.34 +0.01    -0.025 A  
DOCKED: ATOM     24  C   UNL     1     141.296  79.488 222.962 -0.51 -0.00    +0.007 A  
DOCKED: ATOM     25  C   UNL     1     139.479  78.766 221.672 -0.21 -0.00    +0.007 A  
DOCKED: ATOM     26  C   UNL     1     140.487  80.227 223.779 -0.43 -0.00    +0.021 A  
DOCKED: ATOM     27  C   UNL     1     138.637  79.508 222.485 -0.24 -0.00    +0.021 A  
DOCKED: ATOM     28  C   UNL     1     139.117  80.250 223.549 -0.38 -0.01    +0.041 A  
DOCKED: ATOM     29  Cl  UNL     1     138.072  81.185 224.578 -0.40 +0.01    -0.084 Cl 
DOCKED: ENDBRANCH  20  23
DOCKED: ENDBRANCH   1  18
DOCKED: TORSDOF 5
DOCKED: TER
DOCKED: ENDMDL
________________________________________________________________________________


    FINAL DOCKED STATE:
    ________________________


Run:   5 / 20
Time taken for this run:   0.026s

DOCKED: MODEL        5
DOCKED: USER    Run = 5
DOCKED: USER
DOCKED: USER    Estimated Free Energy of Binding    =  -8.84 kcal/mol  [=(1)+(2)+(3)-(4)]
DOCKED: USER
DOCKED: USER    (1) Final Intermolecular Energy     = -10.34 kcal/mol
DOCKED: USER        vdW + Hbond + desolv Energy     = -10.26 kcal/mol
DOCKED: USER        Electrostatic Energy            =  -0.08 kcal/mol
DOCKED: USER        Moving Ligand-Fixed Receptor    = -10.34 kcal/mol
DOCKED: USER        Moving Ligand-Moving Receptor   =  +0.00 kcal/mol
DOCKED: USER    (2) Final Total Internal Energy     =  -1.70 kcal/mol
DOCKED: USER    (3) Torsional Free Energy           =  +1.49 kcal/mol
DOCKED: USER    (4) Unbound System's Energy         =  -1.70 kcal/mol
DOCKED: USER
DOCKED: USER
DOCKED: REMARK SMILES O=C(NCC(=O)N1CCC[C@H]1c1ccc(Cl)cc1)c1ccc2ccccc2n1
DOCKED: REMARK SMILES IDX 5 1 6 2 4 3 3 4 2 5 1 6 19 8 20 9 28 10 21 11 27 12 22 13
DOCKED: REMARK SMILES IDX 26 14 23 15 25 16 24 17 7 18 8 19 11 20 9 21 10 22 12 23
DOCKED: REMARK SMILES IDX 13 24 18 25 14 26 17 27 15 28 16 29
DOCKED: REMARK H PARENT 3 7
DOCKED: USER                              x       y       z     vdW  Elec       q    Type
DOCKED: USER                           _______ _______ _______ _____ _____    ______ ____
DOCKED: ROOT
DOCKED: ATOM      1  C   UNL     1     140.601  75.590 221.546 -0.25 -0.06    +0.242 C  
DOCKED: ATOM      2  O   UNL     1     139.994  75.974 222.619 -0.41 +0.04    -0.273 OA 
DOCKED: ENDROOT
DOCKED: BRANCH   1   3
DOCKED: ATOM      3  C   UNL     1     140.328  74.212 221.139 -0.19 -0.04    +0.216 C  
DOCKED: BRANCH   3   4
DOCKED: ATOM      4  N   UNL     1     140.072  73.400 222.343 -0.13 +0.03    -0.342 N  
DOCKED: ATOM      5  C   UNL     1     140.519  72.033 222.403 -0.20 -0.03    +0.270 C  
DOCKED: ATOM      6  O   UNL     1     141.135  71.490 221.446 -0.14 +0.03    -0.268 OA 
DOCKED: ATOM      7  H   UNL     1     139.574  73.764 223.172 -0.50 -0.03    +0.164 HD 
DOCKED: BRANCH   5   8
DOCKED: ATOM      8  C   UNL     1     140.239  71.259 223.630 -0.32 -0.02    +0.128 A  
DOCKED: ATOM      9  C   UNL     1     139.551  70.070 223.529 -0.27 -0.01    +0.035 A  
DOCKED: ATOM     10  N   UNL     1     140.634  71.679 224.828 -0.30 +0.03    -0.243 NA 
DOCKED: ATOM     11  C   UNL     1     139.260  69.304 224.638 -0.36 -0.00    +0.013 A  
DOCKED: ATOM     12  C   UNL     1     140.375  70.968 225.939 -0.53 -0.01    +0.071 A  
DOCKED: ATOM     13  C   UNL     1     139.679  69.761 225.858 -0.47 -0.00    +0.000 A  
DOCKED: ATOM     14  C   UNL     1     140.763  71.365 227.192 -0.72 -0.01    +0.029 A  
DOCKED: ATOM     15  C   UNL     1     139.430  69.059 227.010 -0.52 -0.00    +0.010 A  
DOCKED: ATOM     16  C   UNL     1     140.517  70.667 228.345 -0.60 -0.00    +0.002 A  
DOCKED: ATOM     17  C   UNL     1     139.828  69.474 228.257 -0.62 -0.00    +0.001 A  
DOCKED: ENDBRANCH   5   8
DOCKED: ENDBRANCH   3   4
DOCKED: ENDBRANCH   1   3
DOCKED: BRANCH   1  18
DOCKED: ATOM     18  N   UNL     1     141.418  76.544 220.950 -0.14 +0.16    -0.334 N  
DOCKED: ATOM     19  C   UNL     1     142.379  76.123 219.873 -0.26 -0.06    +0.120 C  
DOCKED: ATOM     20  C   UNL     1     141.643  77.953 221.017 -0.26 -0.07    +0.115 C  
DOCKED: ATOM     21  C   UNL     1     142.443  77.312 218.937 -0.31 -0.02    +0.024 C  
DOCKED: ATOM     22  C   UNL     1     141.458  78.319 219.550 -0.24 -0.02    +0.032 C  
DOCKED: BRANCH  20  23
DOCKED: ATOM     23  C   UNL     1     140.845  78.762 221.911 -0.34 +0.01    -0.025 A  
DOCKED: ATOM     24  C   UNL     1     141.285  79.512 222.972 -0.51 -0.00    +0.007 A  
DOCKED: ATOM     25  C   UNL     1     139.459  78.789 221.695 -0.21 -0.00    +0.007 A  
DOCKED: ATOM     26  C   UNL     1     140.481  80.250 223.796 -0.43 -0.00    +0.021 A  
DOCKED: ATOM     27  C   UNL     1     138.622  79.529 222.515 -0.25 -0.00    +0.021 A  
DOCKED: ATOM     28  C   UNL     1     139.109  80.271 223.576 -0.38 -0.01    +0.041 A  
DOCKED: ATOM     29  Cl  UNL     1     138.071  81.204 224.613 -0.40 +0.01    -0.084 Cl 
DOCKED: ENDBRANCH  20  23
DOCKED: ENDBRANCH   1  18
DOCKED: TORSDOF 5
DOCKED: TER
DOCKED: ENDMDL
________________________________________________________________________________


    FINAL DOCKED STATE:
    ________________________


Run:   6 / 20
Time taken for this run:   0.026s

DOCKED: MODEL        6
DOCKED: USER    Run = 6
DOCKED: USER
DOCKED: USER    Estimated Free Energy of Binding    =  -8.20 kcal/mol  [=(1)+(2)+(3)-(4)]
DOCKED: USER
DOCKED: USER    (1) Final Intermolecular Energy     =  -9.69 kcal/mol
DOCKED: USER        vdW + Hbond + desolv Energy     =  -9.66 kcal/mol
DOCKED: USER        Electrostatic Energy            =  -0.03 kcal/mol
DOCKED: USER        Moving Ligand-Fixed Receptor    =  -9.69 kcal/mol
DOCKED: USER        Moving Ligand-Moving Receptor   =  +0.00 kcal/mol
DOCKED: USER    (2) Final Total Internal Energy     =  -2.01 kcal/mol
DOCKED: USER    (3) Torsional Free Energy           =  +1.49 kcal/mol
DOCKED: USER    (4) Unbound System's Energy         =  -2.01 kcal/mol
DOCKED: USER
DOCKED: USER
DOCKED: REMARK SMILES O=C(NCC(=O)N1CCC[C@H]1c1ccc(Cl)cc1)c1ccc2ccccc2n1
DOCKED: REMARK SMILES IDX 5 1 6 2 4 3 3 4 2 5 1 6 19 8 20 9 28 10 21 11 27 12 22 13
DOCKED: REMARK SMILES IDX 26 14 23 15 25 16 24 17 7 18 8 19 11 20 9 21 10 22 12 23
DOCKED: REMARK SMILES IDX 13 24 18 25 14 26 17 27 15 28 16 29
DOCKED: REMARK H PARENT 3 7
DOCKED: USER                              x       y       z     vdW  Elec       q    Type
DOCKED: USER                           _______ _______ _______ _____ _____    ______ ____
DOCKED: ROOT
DOCKED: ATOM      1  C   UNL     1     139.095  73.124 221.927 -0.15 -0.06    +0.242 C  
DOCKED: ATOM      2  O   UNL     1     140.309  73.390 222.278 -0.77 +0.01    -0.273 OA 
DOCKED: ENDROOT
DOCKED: BRANCH   1   3
DOCKED: ATOM      3  C   UNL     1     138.250  74.293 221.685 -0.13 -0.06    +0.216 C  
DOCKED: BRANCH   3   4
DOCKED: ATOM      4  N   UNL     1     138.991  75.508 222.075 -0.16 +0.08    -0.342 N  
DOCKED: ATOM      5  C   UNL     1     138.282  76.725 222.373 -0.19 -0.05    +0.270 C  
DOCKED: ATOM      6  O   UNL     1     137.025  76.796 222.314 -0.13 +0.05    -0.268 OA 
DOCKED: ATOM      7  H   UNL     1     140.021  75.539 222.148 +0.04 -0.02    +0.164 HD 
DOCKED: BRANCH   5   8
DOCKED: ATOM      8  C   UNL     1     139.068  77.915 222.759 -0.24 -0.02    +0.128 A  
DOCKED: ATOM      9  C   UNL     1     138.405  79.045 223.184 -0.27 -0.01    +0.035 A  
DOCKED: ATOM     10  N   UNL     1     140.396  77.924 222.706 -0.25 +0.06    -0.243 NA 
DOCKED: ATOM     11  C   UNL     1     139.084  80.186 223.558 -0.40 -0.00    +0.013 A  
DOCKED: ATOM     12  C   UNL     1     141.103  79.011 223.059 -0.47 -0.02    +0.071 A  
DOCKED: ATOM     13  C   UNL     1     140.450  80.167 223.493 -0.47 -0.00    +0.000 A  
DOCKED: ATOM     14  C   UNL     1     142.471  79.064 223.019 -0.51 -0.01    +0.029 A  
DOCKED: ATOM     15  C   UNL     1     141.200  81.260 223.846 -0.45 -0.00    +0.010 A  
DOCKED: ATOM     16  C   UNL     1     143.224  80.153 223.370 -0.60 -0.00    +0.002 A  
DOCKED: ATOM     17  C   UNL     1     142.571  81.292 223.799 -0.61 -0.00    +0.001 A  
DOCKED: ENDBRANCH   5   8
DOCKED: ENDBRANCH   3   4
DOCKED: ENDBRANCH   1   3
DOCKED: BRANCH   1  18
DOCKED: ATOM     18  N   UNL     1     138.782  71.773 221.837 -0.06 +0.07    -0.334 N  
DOCKED: ATOM     19  C   UNL     1     138.225  71.229 220.551 -0.04 -0.02    +0.120 C  
DOCKED: ATOM     20  C   UNL     1     138.855  70.601 222.651 -0.18 -0.02    +0.115 C  
DOCKED: ATOM     21  C   UNL     1     138.769  69.818 220.470 -0.08 -0.00    +0.024 C  
DOCKED: ATOM     22  C   UNL     1     139.646  69.686 221.724 -0.11 -0.01    +0.032 C  
DOCKED: BRANCH  20  23
DOCKED: ATOM     23  C   UNL     1     139.416  70.688 223.980 -0.35 +0.00    -0.025 A  
DOCKED: ATOM     24  C   UNL     1     140.428  71.510 224.406 -0.47 -0.00    +0.007 A  
DOCKED: ATOM     25  C   UNL     1     138.890  69.834 224.961 -0.38 -0.00    +0.007 A  
DOCKED: ATOM     26  C   UNL     1     140.931  71.540 225.676 -0.59 -0.00    +0.021 A  
DOCKED: ATOM     27  C   UNL     1     139.381  69.845 226.257 -0.41 -0.00    +0.021 A  
DOCKED: ATOM     28  C   UNL     1     140.405  70.691 226.642 -0.57 -0.01    +0.041 A  
DOCKED: ATOM     29  Cl  UNL     1     141.032  70.715 228.264 -0.64 +0.02    -0.084 Cl 
DOCKED: ENDBRANCH  20  23
DOCKED: ENDBRANCH   1  18
DOCKED: TORSDOF 5
DOCKED: TER
DOCKED: ENDMDL
________________________________________________________________________________


    FINAL DOCKED STATE:
    ________________________


Run:   7 / 20
Time taken for this run:   0.026s

DOCKED: MODEL        7
DOCKED: USER    Run = 7
DOCKED: USER
DOCKED: USER    Estimated Free Energy of Binding    =  -8.12 kcal/mol  [=(1)+(2)+(3)-(4)]
DOCKED: USER
DOCKED: USER    (1) Final Intermolecular Energy     =  -9.62 kcal/mol
DOCKED: USER        vdW + Hbond + desolv Energy     =  -9.47 kcal/mol
DOCKED: USER        Electrostatic Energy            =  -0.15 kcal/mol
DOCKED: USER        Moving Ligand-Fixed Receptor    =  -9.62 kcal/mol
DOCKED: USER        Moving Ligand-Moving Receptor   =  +0.00 kcal/mol
DOCKED: USER    (2) Final Total Internal Energy     =  -1.99 kcal/mol
DOCKED: USER    (3) Torsional Free Energy           =  +1.49 kcal/mol
DOCKED: USER    (4) Unbound System's Energy         =  -1.99 kcal/mol
DOCKED: USER
DOCKED: USER
DOCKED: REMARK SMILES O=C(NCC(=O)N1CCC[C@H]1c1ccc(Cl)cc1)c1ccc2ccccc2n1
DOCKED: REMARK SMILES IDX 5 1 6 2 4 3 3 4 2 5 1 6 19 8 20 9 28 10 21 11 27 12 22 13
DOCKED: REMARK SMILES IDX 26 14 23 15 25 16 24 17 7 18 8 19 11 20 9 21 10 22 12 23
DOCKED: REMARK SMILES IDX 13 24 18 25 14 26 17 27 15 28 16 29
DOCKED: REMARK H PARENT 3 7
DOCKED: USER                              x       y       z     vdW  Elec       q    Type
DOCKED: USER                           _______ _______ _______ _____ _____    ______ ____
DOCKED: ROOT
DOCKED: ATOM      1  C   UNL     1     139.846  75.313 221.489 -0.21 -0.05    +0.242 C  
DOCKED: ATOM      2  O   UNL     1     139.557  75.658 222.700 -0.47 +0.04    -0.273 OA 
DOCKED: ENDROOT
DOCKED: BRANCH   1   3
DOCKED: ATOM      3  C   UNL     1     139.577  73.913 221.164 -0.16 -0.04    +0.216 C  
DOCKED: BRANCH   3   4
DOCKED: ATOM      4  N   UNL     1     139.584  73.122 222.409 -0.13 +0.06    -0.342 N  
DOCKED: ATOM      5  C   UNL     1     140.018  71.750 222.395 -0.20 -0.04    +0.270 C  
DOCKED: ATOM      6  O   UNL     1     140.401  71.183 221.336 -0.11 +0.04    -0.268 OA 
DOCKED: ATOM      7  H   UNL     1     139.285  73.507 223.321 -0.46 -0.08    +0.164 HD 
DOCKED: BRANCH   5   8
DOCKED: ATOM      8  C   UNL     1     140.007  71.000 223.667 -0.31 -0.02    +0.128 A  
DOCKED: ATOM      9  C   UNL     1     139.479  69.727 223.689 -0.26 -0.01    +0.035 A  
DOCKED: ATOM     10  N   UNL     1     140.493  71.519 224.791 -0.31 +0.04    -0.243 NA 
DOCKED: ATOM     11  C   UNL     1     139.442  68.978 224.846 -0.38 -0.00    +0.013 A  
DOCKED: ATOM     12  C   UNL     1     140.479  70.829 225.943 -0.53 -0.01    +0.071 A  
DOCKED: ATOM     13  C   UNL     1     139.949  69.538 225.987 -0.49 -0.00    +0.000 A  
DOCKED: ATOM     14  C   UNL     1     140.968  71.326 227.123 -0.71 -0.00    +0.029 A  
DOCKED: ATOM     15  C   UNL     1     139.949  68.859 227.179 -0.61 -0.00    +0.010 A  
DOCKED: ATOM     16  C   UNL     1     140.971  70.652 228.315 -0.60 -0.00    +0.002 A  
DOCKED: ATOM     17  C   UNL     1     140.445  69.376 228.351 -0.63 -0.00    +0.001 A  
DOCKED: ENDBRANCH   5   8
DOCKED: ENDBRANCH   3   4
DOCKED: ENDBRANCH   1   3
DOCKED: BRANCH   1  18
DOCKED: ATOM     18  N   UNL     1     140.366  76.323 220.689 -0.07 +0.10    -0.334 N  
DOCKED: ATOM     19  C   UNL     1     139.655  77.646 220.614 -0.11 -0.03    +0.120 C  
DOCKED: ATOM     20  C   UNL     1     141.497  76.543 219.844 -0.20 -0.05    +0.115 C  
DOCKED: ATOM     21  C   UNL     1     140.764  78.661 220.438 -0.22 -0.01    +0.024 C  
DOCKED: ATOM     22  C   UNL     1     142.048  77.818 220.470 -0.24 -0.02    +0.032 C  
DOCKED: BRANCH  20  23
DOCKED: ATOM     23  C   UNL     1     142.492  75.505 219.697 -0.29 +0.01    -0.025 A  
DOCKED: ATOM     24  C   UNL     1     143.168  75.154 218.556 -0.24 -0.00    +0.007 A  
DOCKED: ATOM     25  C   UNL     1     142.811  74.749 220.835 -0.22 -0.00    +0.007 A  
DOCKED: ATOM     26  C   UNL     1     144.092  74.151 218.470 -0.21 -0.01    +0.021 A  
DOCKED: ATOM     27  C   UNL     1     143.745  73.727 220.775 -0.34 -0.01    +0.021 A  
DOCKED: ATOM     28  C   UNL     1     144.402  73.406 219.602 -0.33 -0.01    +0.041 A  
DOCKED: ATOM     29  Cl  UNL     1     145.576  72.125 219.512 -0.45 -0.04    -0.084 Cl 
DOCKED: ENDBRANCH  20  23
DOCKED: ENDBRANCH   1  18
DOCKED: TORSDOF 5
DOCKED: TER
DOCKED: ENDMDL
________________________________________________________________________________


    FINAL DOCKED STATE:
    ________________________


Run:   8 / 20
Time taken for this run:   0.026s

DOCKED: MODEL        8
DOCKED: USER    Run = 8
DOCKED: USER
DOCKED: USER    Estimated Free Energy of Binding    =  -8.39 kcal/mol  [=(1)+(2)+(3)-(4)]
DOCKED: USER
DOCKED: USER    (1) Final Intermolecular Energy     =  -9.88 kcal/mol
DOCKED: USER        vdW + Hbond + desolv Energy     =  -9.84 kcal/mol
DOCKED: USER        Electrostatic Energy            =  -0.04 kcal/mol
DOCKED: USER        Moving Ligand-Fixed Receptor    =  -9.88 kcal/mol
DOCKED: USER        Moving Ligand-Moving Receptor   =  +0.00 kcal/mol
DOCKED: USER    (2) Final Total Internal Energy     =  -1.71 kcal/mol
DOCKED: USER    (3) Torsional Free Energy           =  +1.49 kcal/mol
DOCKED: USER    (4) Unbound System's Energy         =  -1.71 kcal/mol
DOCKED: USER
DOCKED: USER
DOCKED: REMARK SMILES O=C(NCC(=O)N1CCC[C@H]1c1ccc(Cl)cc1)c1ccc2ccccc2n1
DOCKED: REMARK SMILES IDX 5 1 6 2 4 3 3 4 2 5 1 6 19 8 20 9 28 10 21 11 27 12 22 13
DOCKED: REMARK SMILES IDX 26 14 23 15 25 16 24 17 7 18 8 19 11 20 9 21 10 22 12 23
DOCKED: REMARK SMILES IDX 13 24 18 25 14 26 17 27 15 28 16 29
DOCKED: REMARK H PARENT 3 7
DOCKED: USER                              x       y       z     vdW  Elec       q    Type
DOCKED: USER                           _______ _______ _______ _____ _____    ______ ____
DOCKED: ROOT
DOCKED: ATOM      1  C   UNL     1     139.534  75.516 221.211 -0.17 -0.05    +0.242 C  
DOCKED: ATOM      2  O   UNL     1     139.383  75.834 222.454 -0.38 +0.05    -0.273 OA 
DOCKED: ENDROOT
DOCKED: BRANCH   1   3
DOCKED: ATOM      3  C   UNL     1     139.903  74.122 220.970 -0.16 -0.04    +0.216 C  
DOCKED: BRANCH   3   4
DOCKED: ATOM      4  N   UNL     1     139.853  73.386 222.247 -0.15 +0.04    -0.342 N  
DOCKED: ATOM      5  C   UNL     1     140.207  71.991 222.295 -0.20 -0.04    +0.270 C  
DOCKED: ATOM      6  O   UNL     1     140.567  71.359 221.264 -0.11 +0.04    -0.268 OA 
DOCKED: ATOM      7  H   UNL     1     139.568  73.824 223.139 -0.51 -0.03    +0.164 HD 
DOCKED: BRANCH   5   8
DOCKED: ATOM      8  C   UNL     1     140.141  71.297 223.597 -0.32 -0.02    +0.128 A  
DOCKED: ATOM      9  C   UNL     1     139.592  70.035 223.655 -0.27 -0.01    +0.035 A  
DOCKED: ATOM     10  N   UNL     1     140.597  71.857 224.713 -0.27 +0.03    -0.243 NA 
DOCKED: ATOM     11  C   UNL     1     139.503  69.337 224.841 -0.38 -0.00    +0.013 A  
DOCKED: ATOM     12  C   UNL     1     140.533  71.218 225.893 -0.55 -0.01    +0.071 A  
DOCKED: ATOM     13  C   UNL     1     139.980  69.938 225.973 -0.50 -0.00    +0.000 A  
DOCKED: ATOM     14  C   UNL     1     140.990  71.758 227.066 -0.75 -0.01    +0.029 A  
DOCKED: ATOM     15  C   UNL     1     139.930  69.311 227.193 -0.58 -0.00    +0.010 A  
DOCKED: ATOM     16  C   UNL     1     140.941  71.137 228.286 -0.69 -0.00    +0.002 A  
DOCKED: ATOM     17  C   UNL     1     140.393  69.871 228.357 -0.58 -0.00    +0.001 A  
DOCKED: ENDBRANCH   5   8
DOCKED: ENDBRANCH   3   4
DOCKED: ENDBRANCH   1   3
DOCKED: BRANCH   1  18
DOCKED: ATOM     18  N   UNL     1     139.324  76.546 220.302 -0.02 +0.09    -0.334 N  
DOCKED: ATOM     19  C   UNL     1     138.458  76.302 219.098 -0.02 -0.03    +0.120 C  
DOCKED: ATOM     20  C   UNL     1     139.682  77.919 220.139 -0.09 -0.03    +0.115 C  
DOCKED: ATOM     21  C   UNL     1     137.781  77.633 218.843 -0.01 -0.01    +0.024 C  
DOCKED: ATOM     22  C   UNL     1     138.298  78.534 219.975 -0.05 -0.01    +0.032 C  
DOCKED: BRANCH  20  23
DOCKED: ATOM     23  C   UNL     1     140.479  78.575 221.152 -0.24 +0.01    -0.025 A  
DOCKED: ATOM     24  C   UNL     1     140.990  78.021 222.298 -0.44 -0.00    +0.007 A  
DOCKED: ATOM     25  C   UNL     1     140.763  79.936 220.969 -0.26 -0.00    +0.007 A  
DOCKED: ATOM     26  C   UNL     1     141.728  78.694 223.231 -0.57 -0.01    +0.021 A  
DOCKED: ATOM     27  C   UNL     1     141.510  80.642 221.900 -0.42 -0.01    +0.021 A  
DOCKED: ATOM     28  C   UNL     1     142.005  80.043 223.044 -0.57 -0.01    +0.041 A  
DOCKED: ATOM     29  Cl  UNL     1     142.943  80.916 224.221 -0.61 +0.01    -0.084 Cl 
DOCKED: ENDBRANCH  20  23
DOCKED: ENDBRANCH   1  18
DOCKED: TORSDOF 5
DOCKED: TER
DOCKED: ENDMDL
________________________________________________________________________________


    FINAL DOCKED STATE:
    ________________________


Run:   9 / 20
Time taken for this run:   0.026s

DOCKED: MODEL        9
DOCKED: USER    Run = 9
DOCKED: USER
DOCKED: USER    Estimated Free Energy of Binding    =  -8.07 kcal/mol  [=(1)+(2)+(3)-(4)]
DOCKED: USER
DOCKED: USER    (1) Final Intermolecular Energy     =  -9.56 kcal/mol
DOCKED: USER        vdW + Hbond + desolv Energy     =  -9.52 kcal/mol
DOCKED: USER        Electrostatic Energy            =  -0.04 kcal/mol
DOCKED: USER        Moving Ligand-Fixed Receptor    =  -9.56 kcal/mol
DOCKED: USER        Moving Ligand-Moving Receptor   =  +0.00 kcal/mol
DOCKED: USER    (2) Final Total Internal Energy     =  -2.11 kcal/mol
DOCKED: USER    (3) Torsional Free Energy           =  +1.49 kcal/mol
DOCKED: USER    (4) Unbound System's Energy         =  -2.11 kcal/mol
DOCKED: USER
DOCKED: USER
DOCKED: REMARK SMILES O=C(NCC(=O)N1CCC[C@H]1c1ccc(Cl)cc1)c1ccc2ccccc2n1
DOCKED: REMARK SMILES IDX 5 1 6 2 4 3 3 4 2 5 1 6 19 8 20 9 28 10 21 11 27 12 22 13
DOCKED: REMARK SMILES IDX 26 14 23 15 25 16 24 17 7 18 8 19 11 20 9 21 10 22 12 23
DOCKED: REMARK SMILES IDX 13 24 18 25 14 26 17 27 15 28 16 29
DOCKED: REMARK H PARENT 3 7
DOCKED: USER                              x       y       z     vdW  Elec       q    Type
DOCKED: USER                           _______ _______ _______ _____ _____    ______ ____
DOCKED: ROOT
DOCKED: ATOM      1  C   UNL     1     136.202  69.912 224.032 -0.14 -0.03    +0.242 C  
DOCKED: ATOM      2  O   UNL     1     136.207  71.087 223.497 -0.10 +0.05    -0.273 OA 
DOCKED: ENDROOT
DOCKED: BRANCH   1   3
DOCKED: ATOM      3  C   UNL     1     135.154  69.688 225.028 -0.17 -0.01    +0.216 C  
DOCKED: BRANCH   3   4
DOCKED: ATOM      4  N   UNL     1     134.634  70.994 225.475 -0.09 +0.02    -0.342 N  
DOCKED: ATOM      5  C   UNL     1     133.494  71.058 226.352 -0.23 -0.02    +0.270 C  
DOCKED: ATOM      6  O   UNL     1     132.909  70.019 226.762 -0.37 -0.01    -0.268 OA 
DOCKED: ATOM      7  H   UNL     1     135.051  71.895 225.187 +0.05 -0.01    +0.164 HD 
DOCKED: BRANCH   5   8
DOCKED: ATOM      8  C   UNL     1     133.009  72.389 226.773 -0.34 -0.01    +0.128 A  
DOCKED: ATOM      9  C   UNL     1     131.847  72.476 227.507 -0.39 -0.01    +0.035 A  
DOCKED: ATOM     10  N   UNL     1     133.664  73.503 226.462 -0.77 -0.02    -0.243 NA 
DOCKED: ATOM     11  C   UNL     1     131.345  73.689 227.928 -0.27 -0.00    +0.013 A  
DOCKED: ATOM     12  C   UNL     1     133.216  74.709 226.849 -0.29 +0.01    +0.071 A  
DOCKED: ATOM     13  C   UNL     1     132.040  74.819 227.594 -0.42 -0.00    +0.000 A  
DOCKED: ATOM     14  C   UNL     1     133.859  75.881 226.550 -0.40 -0.00    +0.029 A  
DOCKED: ATOM     15  C   UNL     1     131.609  76.065 227.974 -0.34 +0.00    +0.010 A  
DOCKED: ATOM     16  C   UNL     1     133.433  77.127 226.927 -0.34 -0.00    +0.002 A  
DOCKED: ATOM     17  C   UNL     1     132.269  77.228 227.664 -0.33 +0.00    +0.001 A  
DOCKED: ENDBRANCH   5   8
DOCKED: ENDBRANCH   3   4
DOCKED: ENDBRANCH   1   3
DOCKED: BRANCH   1  18
DOCKED: ATOM     18  N   UNL     1     137.192  69.046 223.580 -0.09 +0.03    -0.334 N  
DOCKED: ATOM     19  C   UNL     1     136.915  68.162 222.396 -0.12 -0.02    +0.120 C  
DOCKED: ATOM     20  C   UNL     1     138.544  68.710 223.895 -0.26 -0.01    +0.115 C  
DOCKED: ATOM     21  C   UNL     1     138.251  68.042 221.694 -0.17 -0.00    +0.024 C  
DOCKED: ATOM     22  C   UNL     1     139.191  68.922 222.531 -0.17 -0.01    +0.032 C  
DOCKED: BRANCH  20  23
DOCKED: ATOM     23  C   UNL     1     139.225  69.409 224.961 -0.38 +0.00    -0.025 A  
DOCKED: ATOM     24  C   UNL     1     139.467  68.955 226.233 -0.51 -0.00    +0.007 A  
DOCKED: ATOM     25  C   UNL     1     139.687  70.706 224.694 -0.43 -0.00    +0.007 A  
DOCKED: ATOM     26  C   UNL     1     140.106  69.665 227.210 -0.57 -0.00    +0.021 A  
DOCKED: ATOM     27  C   UNL     1     140.338  71.448 225.667 -0.54 -0.00    +0.021 A  
DOCKED: ATOM     28  C   UNL     1     140.561  70.950 226.937 -0.62 -0.01    +0.041 A  
DOCKED: ATOM     29  Cl  UNL     1     141.375  71.870 228.168 -0.76 +0.02    -0.084 Cl 
DOCKED: ENDBRANCH  20  23
DOCKED: ENDBRANCH   1  18
DOCKED: TORSDOF 5
DOCKED: TER
DOCKED: ENDMDL
________________________________________________________________________________


    FINAL DOCKED STATE:
    ________________________


Run:   10 / 20
Time taken for this run:   0.026s

DOCKED: MODEL        10
DOCKED: USER    Run = 10
DOCKED: USER
DOCKED: USER    Estimated Free Energy of Binding    =  -8.12 kcal/mol  [=(1)+(2)+(3)-(4)]
DOCKED: USER
DOCKED: USER    (1) Final Intermolecular Energy     =  -9.61 kcal/mol
DOCKED: USER        vdW + Hbond + desolv Energy     =  -9.58 kcal/mol
DOCKED: USER        Electrostatic Energy            =  -0.03 kcal/mol
DOCKED: USER        Moving Ligand-Fixed Receptor    =  -9.61 kcal/mol
DOCKED: USER        Moving Ligand-Moving Receptor   =  +0.00 kcal/mol
DOCKED: USER    (2) Final Total Internal Energy     =  -2.05 kcal/mol
DOCKED: USER    (3) Torsional Free Energy           =  +1.49 kcal/mol
DOCKED: USER    (4) Unbound System's Energy         =  -2.05 kcal/mol
DOCKED: USER
DOCKED: USER
DOCKED: REMARK SMILES O=C(NCC(=O)N1CCC[C@H]1c1ccc(Cl)cc1)c1ccc2ccccc2n1
DOCKED: REMARK SMILES IDX 5 1 6 2 4 3 3 4 2 5 1 6 19 8 20 9 28 10 21 11 27 12 22 13
DOCKED: REMARK SMILES IDX 26 14 23 15 25 16 24 17 7 18 8 19 11 20 9 21 10 22 12 23
DOCKED: REMARK SMILES IDX 13 24 18 25 14 26 17 27 15 28 16 29
DOCKED: REMARK H PARENT 3 7
DOCKED: USER                              x       y       z     vdW  Elec       q    Type
DOCKED: USER                           _______ _______ _______ _____ _____    ______ ____
DOCKED: ROOT
DOCKED: ATOM      1  C   UNL     1     139.075  73.128 221.948 -0.15 -0.06    +0.242 C  
DOCKED: ATOM      2  O   UNL     1     140.317  73.410 222.164 -0.74 +0.01    -0.273 OA 
DOCKED: ENDROOT
DOCKED: BRANCH   1   3
DOCKED: ATOM      3  C   UNL     1     138.186  74.285 221.843 -0.11 -0.06    +0.216 C  
DOCKED: BRANCH   3   4
DOCKED: ATOM      4  N   UNL     1     138.939  75.501 222.204 -0.16 +0.08    -0.342 N  
DOCKED: ATOM      5  C   UNL     1     138.246  76.741 222.435 -0.19 -0.05    +0.270 C  
DOCKED: ATOM      6  O   UNL     1     136.992  76.831 222.340 -0.13 +0.05    -0.268 OA 
DOCKED: ATOM      7  H   UNL     1     139.968  75.517 222.302 +0.03 -0.02    +0.164 HD 
DOCKED: BRANCH   5   8
DOCKED: ATOM      8  C   UNL     1     139.043  77.931 222.794 -0.23 -0.02    +0.128 A  
DOCKED: ATOM      9  C   UNL     1     138.393  79.073 223.208 -0.27 -0.00    +0.035 A  
DOCKED: ATOM     10  N   UNL     1     140.371  77.931 222.729 -0.25 +0.06    -0.243 NA 
DOCKED: ATOM     11  C   UNL     1     139.082  80.215 223.556 -0.40 -0.00    +0.013 A  
DOCKED: ATOM     12  C   UNL     1     141.088  79.018 223.057 -0.47 -0.02    +0.071 A  
DOCKED: ATOM     13  C   UNL     1     140.448  80.185 223.478 -0.47 -0.00    +0.000 A  
DOCKED: ATOM     14  C   UNL     1     142.457  79.061 223.003 -0.51 -0.01    +0.029 A  
DOCKED: ATOM     15  C   UNL     1     141.209  81.279 223.807 -0.44 -0.00    +0.010 A  
DOCKED: ATOM     16  C   UNL     1     143.220  80.150 223.330 -0.61 -0.00    +0.002 A  
DOCKED: ATOM     17  C   UNL     1     142.580  81.300 223.746 -0.59 -0.00    +0.001 A  
DOCKED: ENDBRANCH   5   8
DOCKED: ENDBRANCH   3   4
DOCKED: ENDBRANCH   1   3
DOCKED: BRANCH   1  18
DOCKED: ATOM     18  N   UNL     1     138.779  71.773 221.850 -0.06 +0.07    -0.334 N  
DOCKED: ATOM     19  C   UNL     1     138.230  71.229 220.561 -0.04 -0.02    +0.120 C  
DOCKED: ATOM     20  C   UNL     1     138.865  70.599 222.659 -0.18 -0.02    +0.115 C  
DOCKED: ATOM     21  C   UNL     1     138.791  69.825 220.474 -0.08 -0.00    +0.024 C  
DOCKED: ATOM     22  C   UNL     1     139.668  69.698 221.729 -0.11 -0.01    +0.032 C  
DOCKED: BRANCH  20  23
DOCKED: ATOM     23  C   UNL     1     139.424  70.686 223.989 -0.35 +0.00    -0.025 A  
DOCKED: ATOM     24  C   UNL     1     140.418  71.526 224.422 -0.47 -0.00    +0.007 A  
DOCKED: ATOM     25  C   UNL     1     138.916  69.812 224.962 -0.38 -0.00    +0.007 A  
DOCKED: ATOM     26  C   UNL     1     140.920  71.556 225.693 -0.58 -0.00    +0.021 A  
DOCKED: ATOM     27  C   UNL     1     139.407  69.822 226.258 -0.42 -0.00    +0.021 A  
DOCKED: ATOM     28  C   UNL     1     140.412  70.687 226.651 -0.57 -0.01    +0.041 A  
DOCKED: ATOM     29  Cl  UNL     1     141.038  70.711 228.274 -0.64 +0.02    -0.084 Cl 
DOCKED: ENDBRANCH  20  23
DOCKED: ENDBRANCH   1  18
DOCKED: TORSDOF 5
DOCKED: TER
DOCKED: ENDMDL
________________________________________________________________________________


    FINAL DOCKED STATE:
    ________________________


Run:   11 / 20
Time taken for this run:   0.026s

DOCKED: MODEL        11
DOCKED: USER    Run = 11
DOCKED: USER
DOCKED: USER    Estimated Free Energy of Binding    =  -8.17 kcal/mol  [=(1)+(2)+(3)-(4)]
DOCKED: USER
DOCKED: USER    (1) Final Intermolecular Energy     =  -9.66 kcal/mol
DOCKED: USER        vdW + Hbond + desolv Energy     =  -9.51 kcal/mol
DOCKED: USER        Electrostatic Energy            =  -0.15 kcal/mol
DOCKED: USER        Moving Ligand-Fixed Receptor    =  -9.66 kcal/mol
DOCKED: USER        Moving Ligand-Moving Receptor   =  +0.00 kcal/mol
DOCKED: USER    (2) Final Total Internal Energy     =  -1.94 kcal/mol
DOCKED: USER    (3) Torsional Free Energy           =  +1.49 kcal/mol
DOCKED: USER    (4) Unbound System's Energy         =  -1.94 kcal/mol
DOCKED: USER
DOCKED: USER
DOCKED: REMARK SMILES O=C(NCC(=O)N1CCC[C@H]1c1ccc(Cl)cc1)c1ccc2ccccc2n1
DOCKED: REMARK SMILES IDX 5 1 6 2 4 3 3 4 2 5 1 6 19 8 20 9 28 10 21 11 27 12 22 13
DOCKED: REMARK SMILES IDX 26 14 23 15 25 16 24 17 7 18 8 19 11 20 9 21 10 22 12 23
DOCKED: REMARK SMILES IDX 13 24 18 25 14 26 17 27 15 28 16 29
DOCKED: REMARK H PARENT 3 7
DOCKED: USER                              x       y       z     vdW  Elec       q    Type
DOCKED: USER                           _______ _______ _______ _____ _____    ______ ____
DOCKED: ROOT
DOCKED: ATOM      1  C   UNL     1     139.837  75.332 221.208 -0.19 -0.05    +0.242 C  
DOCKED: ATOM      2  O   UNL     1     139.544  75.772 222.386 -0.43 +0.05    -0.273 OA 
DOCKED: ENDROOT
DOCKED: BRANCH   1   3
DOCKED: ATOM      3  C   UNL     1     139.465  73.940 220.956 -0.13 -0.04    +0.216 C  
DOCKED: BRANCH   3   4
DOCKED: ATOM      4  N   UNL     1     139.489  73.201 222.233 -0.14 +0.07    -0.342 N  
DOCKED: ATOM      5  C   UNL     1     140.102  71.901 222.306 -0.20 -0.04    +0.270 C  
DOCKED: ATOM      6  O   UNL     1     140.631  71.355 221.299 -0.12 +0.04    -0.268 OA 
DOCKED: ATOM      7  H   UNL     1     139.078  73.571 223.106 -0.50 -0.08    +0.164 HD 
DOCKED: BRANCH   5   8
DOCKED: ATOM      8  C   UNL     1     140.101  71.199 223.606 -0.32 -0.02    +0.128 A  
DOCKED: ATOM      9  C   UNL     1     139.589  69.922 223.677 -0.26 -0.01    +0.035 A  
DOCKED: ATOM     10  N   UNL     1     140.582  71.766 224.708 -0.28 +0.03    -0.243 NA 
DOCKED: ATOM     11  C   UNL     1     139.562  69.217 224.862 -0.38 -0.00    +0.013 A  
DOCKED: ATOM     12  C   UNL     1     140.578  71.121 225.886 -0.55 -0.01    +0.071 A  
DOCKED: ATOM     13  C   UNL     1     140.063  69.826 225.979 -0.49 -0.00    +0.000 A  
DOCKED: ATOM     14  C   UNL     1     141.062  71.668 227.045 -0.75 -0.00    +0.029 A  
DOCKED: ATOM     15  C   UNL     1     140.073  69.193 227.197 -0.59 -0.00    +0.010 A  
DOCKED: ATOM     16  C   UNL     1     141.074  71.041 228.262 -0.67 -0.00    +0.002 A  
DOCKED: ATOM     17  C   UNL     1     140.563  69.760 228.347 -0.59 -0.00    +0.001 A  
DOCKED: ENDBRANCH   5   8
DOCKED: ENDBRANCH   3   4
DOCKED: ENDBRANCH   1   3
DOCKED: BRANCH   1  18
DOCKED: ATOM     18  N   UNL     1     140.459  76.247 220.367 -0.05 +0.11    -0.334 N  
DOCKED: ATOM     19  C   UNL     1     139.779  77.554 220.065 -0.09 -0.04    +0.120 C  
DOCKED: ATOM     20  C   UNL     1     141.682  76.372 219.640 -0.20 -0.05    +0.115 C  
DOCKED: ATOM     21  C   UNL     1     140.915  78.543 219.909 -0.20 -0.01    +0.024 C  
DOCKED: ATOM     22  C   UNL     1     142.175  77.708 220.181 -0.25 -0.02    +0.032 C  
DOCKED: BRANCH  20  23
DOCKED: ATOM     23  C   UNL     1     142.674  75.323 219.724 -0.30 +0.01    -0.025 A  
DOCKED: ATOM     24  C   UNL     1     142.960  74.531 220.807 -0.27 -0.00    +0.007 A  
DOCKED: ATOM     25  C   UNL     1     143.455  75.079 218.584 -0.25 -0.00    +0.007 A  
DOCKED: ATOM     26  C   UNL     1     143.922  73.561 220.835 -0.36 -0.00    +0.021 A  
DOCKED: ATOM     27  C   UNL     1     144.437  74.100 218.586 -0.17 -0.01    +0.021 A  
DOCKED: ATOM     28  C   UNL     1     144.691  73.325 219.703 -0.37 -0.00    +0.041 A  
DOCKED: ATOM     29  Cl  UNL     1     145.921  72.094 219.720 -0.39 -0.05    -0.084 Cl 
DOCKED: ENDBRANCH  20  23
DOCKED: ENDBRANCH   1  18
DOCKED: TORSDOF 5
DOCKED: TER
DOCKED: ENDMDL
________________________________________________________________________________


    FINAL DOCKED STATE:
    ________________________


Run:   12 / 20
Time taken for this run:   0.026s

DOCKED: MODEL        12
DOCKED: USER    Run = 12
DOCKED: USER
DOCKED: USER    Estimated Free Energy of Binding    =  -8.82 kcal/mol  [=(1)+(2)+(3)-(4)]
DOCKED: USER
DOCKED: USER    (1) Final Intermolecular Energy     = -10.31 kcal/mol
DOCKED: USER        vdW + Hbond + desolv Energy     = -10.24 kcal/mol
DOCKED: USER        Electrostatic Energy            =  -0.07 kcal/mol
DOCKED: USER        Moving Ligand-Fixed Receptor    = -10.31 kcal/mol
DOCKED: USER        Moving Ligand-Moving Receptor   =  +0.00 kcal/mol
DOCKED: USER    (2) Final Total Internal Energy     =  -1.72 kcal/mol
DOCKED: USER    (3) Torsional Free Energy           =  +1.49 kcal/mol
DOCKED: USER    (4) Unbound System's Energy         =  -1.72 kcal/mol
DOCKED: USER
DOCKED: USER
DOCKED: REMARK SMILES O=C(NCC(=O)N1CCC[C@H]1c1ccc(Cl)cc1)c1ccc2ccccc2n1
DOCKED: REMARK SMILES IDX 5 1 6 2 4 3 3 4 2 5 1 6 19 8 20 9 28 10 21 11 27 12 22 13
DOCKED: REMARK SMILES IDX 26 14 23 15 25 16 24 17 7 18 8 19 11 20 9 21 10 22 12 23
DOCKED: REMARK SMILES IDX 13 24 18 25 14 26 17 27 15 28 16 29
DOCKED: REMARK H PARENT 3 7
DOCKED: USER                              x       y       z     vdW  Elec       q    Type
DOCKED: USER                           _______ _______ _______ _____ _____    ______ ____
DOCKED: ROOT
DOCKED: ATOM      1  C   UNL     1     140.646  75.578 221.551 -0.25 -0.06    +0.242 C  
DOCKED: ATOM      2  O   UNL     1     140.062  75.950 222.641 -0.40 +0.04    -0.273 OA 
DOCKED: ENDROOT
DOCKED: BRANCH   1   3
DOCKED: ATOM      3  C   UNL     1     140.372  74.202 221.139 -0.19 -0.04    +0.216 C  
DOCKED: BRANCH   3   4
DOCKED: ATOM      4  N   UNL     1     140.112  73.386 222.340 -0.13 +0.02    -0.342 N  
DOCKED: ATOM      5  C   UNL     1     140.564  72.021 222.401 -0.20 -0.03    +0.270 C  
DOCKED: ATOM      6  O   UNL     1     141.188  71.482 221.447 -0.14 +0.03    -0.268 OA 
DOCKED: ATOM      7  H   UNL     1     139.606  73.747 223.166 -0.48 -0.03    +0.164 HD 
DOCKED: BRANCH   5   8
DOCKED: ATOM      8  C   UNL     1     140.279  71.244 223.625 -0.32 -0.02    +0.128 A  
DOCKED: ATOM      9  C   UNL     1     139.595  70.054 223.517 -0.26 -0.01    +0.035 A  
DOCKED: ATOM     10  N   UNL     1     140.666  71.663 224.826 -0.30 +0.03    -0.243 NA 
DOCKED: ATOM     11  C   UNL     1     139.300  69.285 224.624 -0.36 -0.00    +0.013 A  
DOCKED: ATOM     12  C   UNL     1     140.403  70.950 225.933 -0.53 -0.01    +0.071 A  
DOCKED: ATOM     13  C   UNL     1     139.710  69.741 225.846 -0.47 -0.00    +0.000 A  
DOCKED: ATOM     14  C   UNL     1     140.783  71.345 227.190 -0.71 -0.01    +0.029 A  
DOCKED: ATOM     15  C   UNL     1     139.458  69.035 226.996 -0.53 -0.00    +0.010 A  
DOCKED: ATOM     16  C   UNL     1     140.532  70.644 228.340 -0.60 -0.00    +0.002 A  
DOCKED: ATOM     17  C   UNL     1     139.847  69.449 228.246 -0.63 -0.00    +0.001 A  
DOCKED: ENDBRANCH   5   8
DOCKED: ENDBRANCH   3   4
DOCKED: ENDBRANCH   1   3
DOCKED: BRANCH   1  18
DOCKED: ATOM     18  N   UNL     1     141.443  76.542 220.943 -0.14 +0.16    -0.334 N  
DOCKED: ATOM     19  C   UNL     1     142.399  76.131 219.858 -0.27 -0.06    +0.120 C  
DOCKED: ATOM     20  C   UNL     1     141.648  77.954 221.004 -0.26 -0.07    +0.115 C  
DOCKED: ATOM     21  C   UNL     1     142.436  77.318 218.918 -0.31 -0.02    +0.024 C  
DOCKED: ATOM     22  C   UNL     1     141.443  78.313 219.538 -0.24 -0.02    +0.032 C  
DOCKED: BRANCH  20  23
DOCKED: ATOM     23  C   UNL     1     140.848  78.754 221.903 -0.34 +0.01    -0.025 A  
DOCKED: ATOM     24  C   UNL     1     141.285  79.496 222.972 -0.51 -0.00    +0.007 A  
DOCKED: ATOM     25  C   UNL     1     139.462  78.781 221.686 -0.21 -0.00    +0.007 A  
DOCKED: ATOM     26  C   UNL     1     140.479  80.226 223.800 -0.43 -0.00    +0.021 A  
DOCKED: ATOM     27  C   UNL     1     138.623  79.514 222.511 -0.24 -0.00    +0.021 A  
DOCKED: ATOM     28  C   UNL     1     139.107  80.247 223.579 -0.38 -0.01    +0.041 A  
DOCKED: ATOM     29  Cl  UNL     1     138.066  81.170 224.623 -0.40 +0.01    -0.084 Cl 
DOCKED: ENDBRANCH  20  23
DOCKED: ENDBRANCH   1  18
DOCKED: TORSDOF 5
DOCKED: TER
DOCKED: ENDMDL
________________________________________________________________________________


    FINAL DOCKED STATE:
    ________________________


Run:   13 / 20
Time taken for this run:   0.026s

DOCKED: MODEL        13
DOCKED: USER    Run = 13
DOCKED: USER
DOCKED: USER    Estimated Free Energy of Binding    =  -8.74 kcal/mol  [=(1)+(2)+(3)-(4)]
DOCKED: USER
DOCKED: USER    (1) Final Intermolecular Energy     = -10.23 kcal/mol
DOCKED: USER        vdW + Hbond + desolv Energy     = -10.15 kcal/mol
DOCKED: USER        Electrostatic Energy            =  -0.08 kcal/mol
DOCKED: USER        Moving Ligand-Fixed Receptor    = -10.23 kcal/mol
DOCKED: USER        Moving Ligand-Moving Receptor   =  +0.00 kcal/mol
DOCKED: USER    (2) Final Total Internal Energy     =  -1.73 kcal/mol
DOCKED: USER    (3) Torsional Free Energy           =  +1.49 kcal/mol
DOCKED: USER    (4) Unbound System's Energy         =  -1.73 kcal/mol
DOCKED: USER
DOCKED: USER
DOCKED: REMARK SMILES O=C(NCC(=O)N1CCC[C@H]1c1ccc(Cl)cc1)c1ccc2ccccc2n1
DOCKED: REMARK SMILES IDX 5 1 6 2 4 3 3 4 2 5 1 6 19 8 20 9 28 10 21 11 27 12 22 13
DOCKED: REMARK SMILES IDX 26 14 23 15 25 16 24 17 7 18 8 19 11 20 9 21 10 22 12 23
DOCKED: REMARK SMILES IDX 13 24 18 25 14 26 17 27 15 28 16 29
DOCKED: REMARK H PARENT 3 7
DOCKED: USER                              x       y       z     vdW  Elec       q    Type
DOCKED: USER                           _______ _______ _______ _____ _____    ______ ____
DOCKED: ROOT
DOCKED: ATOM      1  C   UNL     1     140.476  75.618 221.592 -0.25 -0.06    +0.242 C  
DOCKED: ATOM      2  O   UNL     1     139.781  75.921 222.638 -0.41 +0.04    -0.273 OA 
DOCKED: ENDROOT
DOCKED: BRANCH   1   3
DOCKED: ATOM      3  C   UNL     1     140.381  74.222 221.169 -0.20 -0.04    +0.216 C  
DOCKED: BRANCH   3   4
DOCKED: ATOM      4  N   UNL     1     140.091  73.383 222.347 -0.13 +0.02    -0.342 N  
DOCKED: ATOM      5  C   UNL     1     140.567  72.026 222.406 -0.20 -0.03    +0.270 C  
DOCKED: ATOM      6  O   UNL     1     141.238  71.514 221.469 -0.14 +0.03    -0.268 OA 
DOCKED: ATOM      7  H   UNL     1     139.547  73.722 223.158 -0.50 -0.03    +0.164 HD 
DOCKED: BRANCH   5   8
DOCKED: ATOM      8  C   UNL     1     140.250  71.225 223.606 -0.32 -0.02    +0.128 A  
DOCKED: ATOM      9  C   UNL     1     139.549  70.049 223.460 -0.26 -0.01    +0.035 A  
DOCKED: ATOM     10  N   UNL     1     140.624  71.609 224.822 -0.31 +0.03    -0.243 NA 
DOCKED: ATOM     11  C   UNL     1     139.224  69.259 224.542 -0.35 -0.00    +0.013 A  
DOCKED: ATOM     12  C   UNL     1     140.333  70.875 225.908 -0.52 -0.01    +0.071 A  
DOCKED: ATOM     13  C   UNL     1     139.622  69.679 225.782 -0.46 -0.00    +0.000 A  
DOCKED: ATOM     14  C   UNL     1     140.699  71.234 227.179 -0.70 -0.01    +0.029 A  
DOCKED: ATOM     15  C   UNL     1     139.340  68.951 226.910 -0.50 -0.00    +0.010 A  
DOCKED: ATOM     16  C   UNL     1     140.419  70.510 228.308 -0.60 -0.00    +0.002 A  
DOCKED: ATOM     17  C   UNL     1     139.716  69.329 228.175 -0.62 -0.00    +0.001 A  
DOCKED: ENDBRANCH   5   8
DOCKED: ENDBRANCH   3   4
DOCKED: ENDBRANCH   1   3
DOCKED: BRANCH   1  18
DOCKED: ATOM     18  N   UNL     1     141.204  76.664 221.037 -0.14 +0.15    -0.334 N  
DOCKED: ATOM     19  C   UNL     1     142.239  76.368 219.988 -0.26 -0.07    +0.120 C  
DOCKED: ATOM     20  C   UNL     1     141.273  78.088 221.132 -0.28 -0.06    +0.115 C  
DOCKED: ATOM     21  C   UNL     1     142.204  77.573 219.071 -0.30 -0.02    +0.024 C  
DOCKED: ATOM     22  C   UNL     1     141.097  78.457 219.664 -0.21 -0.01    +0.032 C  
DOCKED: BRANCH  20  23
DOCKED: ATOM     23  C   UNL     1     140.365  78.791 222.009 -0.30 +0.01    -0.025 A  
DOCKED: ATOM     24  C   UNL     1     138.994  78.732 222.010 -0.23 -0.00    +0.007 A  
DOCKED: ATOM     25  C   UNL     1     140.925  79.649 222.967 -0.47 -0.00    +0.007 A  
DOCKED: ATOM     26  C   UNL     1     138.181  79.432 222.856 -0.26 -0.00    +0.021 A  
DOCKED: ATOM     27  C   UNL     1     140.122  80.371 223.837 -0.41 -0.00    +0.021 A  
DOCKED: ATOM     28  C   UNL     1     138.743  80.280 223.802 -0.39 -0.00    +0.041 A  
DOCKED: ATOM     29  Cl  UNL     1     137.724  81.180 224.887 -0.46 +0.01    -0.084 Cl 
DOCKED: ENDBRANCH  20  23
DOCKED: ENDBRANCH   1  18
DOCKED: TORSDOF 5
DOCKED: TER
DOCKED: ENDMDL
________________________________________________________________________________


    FINAL DOCKED STATE:
    ________________________


Run:   14 / 20
Time taken for this run:   0.026s

DOCKED: MODEL        14
DOCKED: USER    Run = 14
DOCKED: USER
DOCKED: USER    Estimated Free Energy of Binding    =  -8.31 kcal/mol  [=(1)+(2)+(3)-(4)]
DOCKED: USER
DOCKED: USER    (1) Final Intermolecular Energy     =  -9.80 kcal/mol
DOCKED: USER        vdW + Hbond + desolv Energy     =  -9.77 kcal/mol
DOCKED: USER        Electrostatic Energy            =  -0.03 kcal/mol
DOCKED: USER        Moving Ligand-Fixed Receptor    =  -9.80 kcal/mol
DOCKED: USER        Moving Ligand-Moving Receptor   =  +0.00 kcal/mol
DOCKED: USER    (2) Final Total Internal Energy     =  -2.02 kcal/mol
DOCKED: USER    (3) Torsional Free Energy           =  +1.49 kcal/mol
DOCKED: USER    (4) Unbound System's Energy         =  -2.02 kcal/mol
DOCKED: USER
DOCKED: USER
DOCKED: REMARK SMILES O=C(NCC(=O)N1CCC[C@H]1c1ccc(Cl)cc1)c1ccc2ccccc2n1
DOCKED: REMARK SMILES IDX 5 1 6 2 4 3 3 4 2 5 1 6 19 8 20 9 28 10 21 11 27 12 22 13
DOCKED: REMARK SMILES IDX 26 14 23 15 25 16 24 17 7 18 8 19 11 20 9 21 10 22 12 23
DOCKED: REMARK SMILES IDX 13 24 18 25 14 26 17 27 15 28 16 29
DOCKED: REMARK H PARENT 3 7
DOCKED: USER                              x       y       z     vdW  Elec       q    Type
DOCKED: USER                           _______ _______ _______ _____ _____    ______ ____
DOCKED: ROOT
DOCKED: ATOM      1  C   UNL     1     139.249  75.133 221.325 -0.17 -0.05    +0.242 C  
DOCKED: ATOM      2  O   UNL     1     139.913  75.464 222.381 -0.57 +0.03    -0.273 OA 
DOCKED: ENDROOT
DOCKED: BRANCH   1   3
DOCKED: ATOM      3  C   UNL     1     139.152  73.695 221.079 -0.13 -0.04    +0.216 C  
DOCKED: BRANCH   3   4
DOCKED: ATOM      4  N   UNL     1     139.388  72.977 222.346 -0.14 +0.08    -0.342 N  
DOCKED: ATOM      5  C   UNL     1     139.340  71.539 222.384 -0.16 -0.05    +0.270 C  
DOCKED: ATOM      6  O   UNL     1     139.098  70.852 221.354 -0.06 +0.05    -0.268 OA 
DOCKED: ATOM      7  H   UNL     1     139.591  73.459 223.237 -0.46 -0.04    +0.164 HD 
DOCKED: BRANCH   5   8
DOCKED: ATOM      8  C   UNL     1     139.583  70.864 223.676 -0.29 -0.02    +0.128 A  
DOCKED: ATOM      9  C   UNL     1     139.284  69.525 223.798 -0.27 -0.01    +0.035 A  
DOCKED: ATOM     10  N   UNL     1     140.081  71.515 224.722 -0.29 +0.05    -0.243 NA 
DOCKED: ATOM     11  C   UNL     1     139.490  68.842 224.978 -0.40 -0.00    +0.013 A  
DOCKED: ATOM     12  C   UNL     1     140.299  70.894 225.893 -0.52 -0.01    +0.071 A  
DOCKED: ATOM     13  C   UNL     1     140.004  69.537 226.038 -0.49 -0.00    +0.000 A  
DOCKED: ATOM     14  C   UNL     1     140.811  71.526 226.996 -0.72 -0.01    +0.029 A  
DOCKED: ATOM     15  C   UNL     1     140.238  68.931 227.247 -0.62 -0.00    +0.010 A  
DOCKED: ATOM     16  C   UNL     1     141.046  70.926 228.204 -0.66 -0.00    +0.002 A  
DOCKED: ATOM     17  C   UNL     1     140.751  69.584 228.340 -0.60 -0.00    +0.001 A  
DOCKED: ENDBRANCH   5   8
DOCKED: ENDBRANCH   3   4
DOCKED: ENDBRANCH   1   3
DOCKED: BRANCH   1  18
DOCKED: ATOM     18  N   UNL     1     138.733  76.193 220.588 -0.03 +0.08    -0.334 N  
DOCKED: ATOM     19  C   UNL     1     137.649  75.932 219.579 -0.02 -0.02    +0.120 C  
DOCKED: ATOM     20  C   UNL     1     138.899  77.608 220.489 -0.08 -0.03    +0.115 C  
DOCKED: ATOM     21  C   UNL     1     136.797  77.184 219.608 -0.02 -0.00    +0.024 C  
DOCKED: ATOM     22  C   UNL     1     137.456  78.056 220.687 -0.06 -0.01    +0.032 C  
DOCKED: BRANCH  20  23
DOCKED: ATOM     23  C   UNL     1     139.829  78.282 221.367 -0.21 +0.01    -0.025 A  
DOCKED: ATOM     24  C   UNL     1     139.732  78.431 222.727 -0.36 -0.00    +0.007 A  
DOCKED: ATOM     25  C   UNL     1     140.962  78.869 220.783 -0.27 -0.00    +0.007 A  
DOCKED: ATOM     26  C   UNL     1     140.637  79.093 223.509 -0.48 -0.00    +0.021 A  
DOCKED: ATOM     27  C   UNL     1     141.895  79.545 221.553 -0.41 -0.01    +0.021 A  
DOCKED: ATOM     28  C   UNL     1     141.756  79.672 222.923 -0.53 -0.01    +0.041 A  
DOCKED: ATOM     29  Cl  UNL     1     142.919  80.518 223.901 -0.76 +0.02    -0.084 Cl 
DOCKED: ENDBRANCH  20  23
DOCKED: ENDBRANCH   1  18
DOCKED: TORSDOF 5
DOCKED: TER
DOCKED: ENDMDL
________________________________________________________________________________


    FINAL DOCKED STATE:
    ________________________


Run:   15 / 20
Time taken for this run:   0.026s

DOCKED: MODEL        15
DOCKED: USER    Run = 15
DOCKED: USER
DOCKED: USER    Estimated Free Energy of Binding    =  -8.74 kcal/mol  [=(1)+(2)+(3)-(4)]
DOCKED: USER
DOCKED: USER    (1) Final Intermolecular Energy     = -10.23 kcal/mol
DOCKED: USER        vdW + Hbond + desolv Energy     = -10.18 kcal/mol
DOCKED: USER        Electrostatic Energy            =  -0.04 kcal/mol
DOCKED: USER        Moving Ligand-Fixed Receptor    = -10.23 kcal/mol
DOCKED: USER        Moving Ligand-Moving Receptor   =  +0.00 kcal/mol
DOCKED: USER    (2) Final Total Internal Energy     =  -1.70 kcal/mol
DOCKED: USER    (3) Torsional Free Energy           =  +1.49 kcal/mol
DOCKED: USER    (4) Unbound System's Energy         =  -1.70 kcal/mol
DOCKED: USER
DOCKED: USER
DOCKED: REMARK SMILES O=C(NCC(=O)N1CCC[C@H]1c1ccc(Cl)cc1)c1ccc2ccccc2n1
DOCKED: REMARK SMILES IDX 5 1 6 2 4 3 3 4 2 5 1 6 19 8 20 9 28 10 21 11 27 12 22 13
DOCKED: REMARK SMILES IDX 26 14 23 15 25 16 24 17 7 18 8 19 11 20 9 21 10 22 12 23
DOCKED: REMARK SMILES IDX 13 24 18 25 14 26 17 27 15 28 16 29
DOCKED: REMARK H PARENT 3 7
DOCKED: USER                              x       y       z     vdW  Elec       q    Type
DOCKED: USER                           _______ _______ _______ _____ _____    ______ ____
DOCKED: ROOT
DOCKED: ATOM      1  C   UNL     1     140.448  75.303 221.427 -0.23 -0.05    +0.242 C  
DOCKED: ATOM      2  O   UNL     1     139.683  75.741 222.370 -0.46 +0.05    -0.273 OA 
DOCKED: ENDROOT
DOCKED: BRANCH   1   3
DOCKED: ATOM      3  C   UNL     1     140.268  73.892 221.087 -0.18 -0.04    +0.216 C  
DOCKED: BRANCH   3   4
DOCKED: ATOM      4  N   UNL     1     140.084  73.121 222.331 -0.16 +0.03    -0.342 N  
DOCKED: ATOM      5  C   UNL     1     140.340  71.705 222.351 -0.20 -0.03    +0.270 C  
DOCKED: ATOM      6  O   UNL     1     140.724  71.082 221.323 -0.11 +0.04    -0.268 OA 
DOCKED: ATOM      7  H   UNL     1     139.771  73.550 223.218 -0.39 -0.01    +0.164 HD 
DOCKED: BRANCH   5   8
DOCKED: ATOM      8  C   UNL     1     140.141  70.975 223.620 -0.29 -0.02    +0.128 A  
DOCKED: ATOM      9  C   UNL     1     139.515  69.749 223.596 -0.25 -0.01    +0.035 A  
DOCKED: ATOM     10  N   UNL     1     140.551  71.470 224.783 -0.31 +0.04    -0.243 NA 
DOCKED: ATOM     11  C   UNL     1     139.302  69.021 224.747 -0.37 -0.00    +0.013 A  
DOCKED: ATOM     12  C   UNL     1     140.367  70.800 225.933 -0.52 -0.01    +0.071 A  
DOCKED: ATOM     13  C   UNL     1     139.734  69.556 225.930 -0.47 -0.00    +0.000 A  
DOCKED: ATOM     14  C   UNL     1     140.773  71.274 227.153 -0.70 -0.01    +0.029 A  
DOCKED: ATOM     15  C   UNL     1     139.561  68.895 227.121 -0.56 -0.00    +0.010 A  
DOCKED: ATOM     16  C   UNL     1     140.602  70.619 228.343 -0.59 -0.00    +0.002 A  
DOCKED: ATOM     17  C   UNL     1     139.975  69.388 228.333 -0.63 -0.00    +0.001 A  
DOCKED: ENDBRANCH   5   8
DOCKED: ENDBRANCH   3   4
DOCKED: ENDBRANCH   1   3
DOCKED: BRANCH   1  18
DOCKED: ATOM     18  N   UNL     1     141.323  76.239 220.885 -0.14 +0.14    -0.334 N  
DOCKED: ATOM     19  C   UNL     1     142.303  75.808 219.830 -0.25 -0.06    +0.120 C  
DOCKED: ATOM     20  C   UNL     1     141.601  77.635 221.001 -0.22 -0.07    +0.115 C  
DOCKED: ATOM     21  C   UNL     1     142.447  77.018 218.931 -0.31 -0.01    +0.024 C  
DOCKED: ATOM     22  C   UNL     1     141.482  78.048 219.539 -0.24 -0.02    +0.032 C  
DOCKED: BRANCH  20  23
DOCKED: ATOM     23  C   UNL     1     140.806  78.451 221.889 -0.34 +0.01    -0.025 A  
DOCKED: ATOM     24  C   UNL     1     141.227  79.111 223.016 -0.52 -0.00    +0.007 A  
DOCKED: ATOM     25  C   UNL     1     139.441  78.590 221.593 -0.21 -0.00    +0.007 A  
DOCKED: ATOM     26  C   UNL     1     140.425  79.860 223.831 -0.45 -0.00    +0.021 A  
DOCKED: ATOM     27  C   UNL     1     138.607  79.345 222.402 -0.23 -0.00    +0.021 A  
DOCKED: ATOM     28  C   UNL     1     139.075  79.992 223.531 -0.38 -0.01    +0.041 A  
DOCKED: ATOM     29  Cl  UNL     1     138.039  80.942 224.555 -0.46 +0.01    -0.084 Cl 
DOCKED: ENDBRANCH  20  23
DOCKED: ENDBRANCH   1  18
DOCKED: TORSDOF 5
DOCKED: TER
DOCKED: ENDMDL
________________________________________________________________________________


    FINAL DOCKED STATE:
    ________________________


Run:   16 / 20
Time taken for this run:   0.026s

DOCKED: MODEL        16
DOCKED: USER    Run = 16
DOCKED: USER
DOCKED: USER    Estimated Free Energy of Binding    =  -8.12 kcal/mol  [=(1)+(2)+(3)-(4)]
DOCKED: USER
DOCKED: USER    (1) Final Intermolecular Energy     =  -9.61 kcal/mol
DOCKED: USER        vdW + Hbond + desolv Energy     =  -9.64 kcal/mol
DOCKED: USER        Electrostatic Energy            =  +0.03 kcal/mol
DOCKED: USER        Moving Ligand-Fixed Receptor    =  -9.61 kcal/mol
DOCKED: USER        Moving Ligand-Moving Receptor   =  +0.00 kcal/mol
DOCKED: USER    (2) Final Total Internal Energy     =  -1.62 kcal/mol
DOCKED: USER    (3) Torsional Free Energy           =  +1.49 kcal/mol
DOCKED: USER    (4) Unbound System's Energy         =  -1.62 kcal/mol
DOCKED: USER
DOCKED: USER
DOCKED: REMARK SMILES O=C(NCC(=O)N1CCC[C@H]1c1ccc(Cl)cc1)c1ccc2ccccc2n1
DOCKED: REMARK SMILES IDX 5 1 6 2 4 3 3 4 2 5 1 6 19 8 20 9 28 10 21 11 27 12 22 13
DOCKED: REMARK SMILES IDX 26 14 23 15 25 16 24 17 7 18 8 19 11 20 9 21 10 22 12 23
DOCKED: REMARK SMILES IDX 13 24 18 25 14 26 17 27 15 28 16 29
DOCKED: REMARK H PARENT 3 7
DOCKED: USER                              x       y       z     vdW  Elec       q    Type
DOCKED: USER                           _______ _______ _______ _____ _____    ______ ____
DOCKED: ROOT
DOCKED: ATOM      1  C   UNL     1     138.062  71.618 222.157 -0.10 -0.06    +0.242 C  
DOCKED: ATOM      2  O   UNL     1     136.989  72.333 222.085 -0.07 +0.07    -0.273 OA 
DOCKED: ENDROOT
DOCKED: BRANCH   1   3
DOCKED: ATOM      3  C   UNL     1     139.295  72.313 221.787 -0.16 -0.04    +0.216 C  
DOCKED: BRANCH   3   4
DOCKED: ATOM      4  N   UNL     1     139.180  73.731 222.178 -0.09 +0.08    -0.342 N  
DOCKED: ATOM      5  C   UNL     1     140.201  74.672 221.798 -0.14 -0.03    +0.270 C  
DOCKED: ATOM      6  O   UNL     1     141.213  74.325 221.130 -0.26 +0.05    -0.268 OA 
DOCKED: ATOM      7  H   UNL     1     138.386  74.101 222.726 -0.55 -0.08    +0.164 HD 
DOCKED: BRANCH   5   8
DOCKED: ATOM      8  C   UNL     1     140.042  76.081 222.213 -0.30 -0.03    +0.128 A  
DOCKED: ATOM      9  C   UNL     1     138.774  76.608 222.321 -0.30 -0.01    +0.035 A  
DOCKED: ATOM     10  N   UNL     1     141.090  76.853 222.483 -0.25 +0.09    -0.243 NA 
DOCKED: ATOM     11  C   UNL     1     138.563  77.916 222.704 -0.29 -0.00    +0.013 A  
DOCKED: ATOM     12  C   UNL     1     140.936  78.134 222.859 -0.43 -0.02    +0.071 A  
DOCKED: ATOM     13  C   UNL     1     139.660  78.687 222.975 -0.37 -0.00    +0.000 A  
DOCKED: ATOM     14  C   UNL     1     141.988  78.964 223.146 -0.56 -0.01    +0.029 A  
DOCKED: ATOM     15  C   UNL     1     139.536  79.998 223.362 -0.40 -0.00    +0.010 A  
DOCKED: ATOM     16  C   UNL     1     141.869  80.273 223.532 -0.61 -0.00    +0.002 A  
DOCKED: ATOM     17  C   UNL     1     140.603  80.813 223.645 -0.44 -0.00    +0.001 A  
DOCKED: ENDBRANCH   5   8
DOCKED: ENDBRANCH   3   4
DOCKED: ENDBRANCH   1   3
DOCKED: BRANCH   1  18
DOCKED: ATOM     18  N   UNL     1     137.877  70.304 222.572 -0.04 +0.06    -0.334 N  
DOCKED: ATOM     19  C   UNL     1     137.141  69.345 221.678 -0.07 -0.02    +0.120 C  
DOCKED: ATOM     20  C   UNL     1     138.223  69.474 223.681 -0.23 -0.02    +0.115 C  
DOCKED: ATOM     21  C   UNL     1     137.799  68.007 221.936 -0.17 -0.00    +0.024 C  
DOCKED: ATOM     22  C   UNL     1     138.910  68.329 222.947 -0.20 -0.01    +0.032 C  
DOCKED: BRANCH  20  23
DOCKED: ATOM     23  C   UNL     1     139.018  70.016 224.759 -0.36 +0.00    -0.025 A  
DOCKED: ATOM     24  C   UNL     1     139.917  71.050 224.694 -0.47 -0.00    +0.007 A  
DOCKED: ATOM     25  C   UNL     1     138.881  69.425 226.024 -0.41 -0.00    +0.007 A  
DOCKED: ATOM     26  C   UNL     1     140.655  71.514 225.747 -0.59 -0.00    +0.021 A  
DOCKED: ATOM     27  C   UNL     1     139.617  69.877 227.109 -0.50 -0.00    +0.021 A  
DOCKED: ATOM     28  C   UNL     1     140.514  70.924 226.997 -0.62 -0.01    +0.041 A  
DOCKED: ATOM     29  Cl  UNL     1     141.444  71.501 228.348 -0.64 +0.02    -0.084 Cl 
DOCKED: ENDBRANCH  20  23
DOCKED: ENDBRANCH   1  18
DOCKED: TORSDOF 5
DOCKED: TER
DOCKED: ENDMDL
________________________________________________________________________________


    FINAL DOCKED STATE:
    ________________________


Run:   17 / 20
Time taken for this run:   0.026s

DOCKED: MODEL        17
DOCKED: USER    Run = 17
DOCKED: USER
DOCKED: USER    Estimated Free Energy of Binding    =  -8.10 kcal/mol  [=(1)+(2)+(3)-(4)]
DOCKED: USER
DOCKED: USER    (1) Final Intermolecular Energy     =  -9.59 kcal/mol
DOCKED: USER        vdW + Hbond + desolv Energy     =  -9.56 kcal/mol
DOCKED: USER        Electrostatic Energy            =  -0.04 kcal/mol
DOCKED: USER        Moving Ligand-Fixed Receptor    =  -9.59 kcal/mol
DOCKED: USER        Moving Ligand-Moving Receptor   =  +0.00 kcal/mol
DOCKED: USER    (2) Final Total Internal Energy     =  -1.97 kcal/mol
DOCKED: USER    (3) Torsional Free Energy           =  +1.49 kcal/mol
DOCKED: USER    (4) Unbound System's Energy         =  -1.97 kcal/mol
DOCKED: USER
DOCKED: USER
DOCKED: REMARK SMILES O=C(NCC(=O)N1CCC[C@H]1c1ccc(Cl)cc1)c1ccc2ccccc2n1
DOCKED: REMARK SMILES IDX 5 1 6 2 4 3 3 4 2 5 1 6 19 8 20 9 28 10 21 11 27 12 22 13
DOCKED: REMARK SMILES IDX 26 14 23 15 25 16 24 17 7 18 8 19 11 20 9 21 10 22 12 23
DOCKED: REMARK SMILES IDX 13 24 18 25 14 26 17 27 15 28 16 29
DOCKED: REMARK H PARENT 3 7
DOCKED: USER                              x       y       z     vdW  Elec       q    Type
DOCKED: USER                           _______ _______ _______ _____ _____    ______ ____
DOCKED: ROOT
DOCKED: ATOM      1  C   UNL     1     139.163  73.107 221.903 -0.16 -0.05    +0.242 C  
DOCKED: ATOM      2  O   UNL     1     140.350  73.379 222.334 -0.78 +0.01    -0.273 OA 
DOCKED: ENDROOT
DOCKED: BRANCH   1   3
DOCKED: ATOM      3  C   UNL     1     138.286  74.265 221.731 -0.13 -0.06    +0.216 C  
DOCKED: BRANCH   3   4
DOCKED: ATOM      4  N   UNL     1     139.020  75.483 222.124 -0.16 +0.08    -0.342 N  
DOCKED: ATOM      5  C   UNL     1     138.313  76.719 222.331 -0.20 -0.05    +0.270 C  
DOCKED: ATOM      6  O   UNL     1     137.063  76.805 222.187 -0.12 +0.05    -0.268 OA 
DOCKED: ATOM      7  H   UNL     1     140.044  75.503 222.262 +0.03 -0.02    +0.164 HD 
DOCKED: BRANCH   5   8
DOCKED: ATOM      8  C   UNL     1     139.091  77.912 222.724 -0.25 -0.02    +0.128 A  
DOCKED: ATOM      9  C   UNL     1     138.420  79.043 223.135 -0.28 -0.01    +0.035 A  
DOCKED: ATOM     10  N   UNL     1     140.420  77.924 222.692 -0.25 +0.07    -0.243 NA 
DOCKED: ATOM     11  C   UNL     1     139.091  80.187 223.513 -0.39 -0.00    +0.013 A  
DOCKED: ATOM     12  C   UNL     1     141.119  79.013 223.051 -0.47 -0.02    +0.071 A  
DOCKED: ATOM     13  C   UNL     1     140.458  80.169 223.470 -0.47 -0.00    +0.000 A  
DOCKED: ATOM     14  C   UNL     1     142.488  79.067 223.031 -0.51 -0.01    +0.029 A  
DOCKED: ATOM     15  C   UNL     1     141.201  81.265 223.830 -0.45 -0.00    +0.010 A  
DOCKED: ATOM     16  C   UNL     1     143.234  80.159 223.390 -0.60 -0.00    +0.002 A  
DOCKED: ATOM     17  C   UNL     1     142.573  81.299 223.804 -0.61 -0.00    +0.001 A  
DOCKED: ENDBRANCH   5   8
DOCKED: ENDBRANCH   3   4
DOCKED: ENDBRANCH   1   3
DOCKED: BRANCH   1  18
DOCKED: ATOM     18  N   UNL     1     138.906  71.760 221.674 -0.06 +0.07    -0.334 N  
DOCKED: ATOM     19  C   UNL     1     138.485  71.313 220.302 -0.04 -0.02    +0.120 C  
DOCKED: ATOM     20  C   UNL     1     138.943  70.527 222.393 -0.16 -0.02    +0.115 C  
DOCKED: ATOM     21  C   UNL     1     139.081  69.929 220.156 -0.07 -0.00    +0.024 C  
DOCKED: ATOM     22  C   UNL     1     139.845  69.714 221.471 -0.09 -0.01    +0.032 C  
DOCKED: BRANCH  20  23
DOCKED: ATOM     23  C   UNL     1     139.379  70.515 223.771 -0.32 +0.00    -0.025 A  
DOCKED: ATOM     24  C   UNL     1     138.784  69.875 224.828 -0.36 -0.00    +0.007 A  
DOCKED: ATOM     25  C   UNL     1     140.534  71.245 224.090 -0.42 -0.00    +0.007 A  
DOCKED: ATOM     26  C   UNL     1     139.232  69.910 226.118 -0.37 -0.00    +0.021 A  
DOCKED: ATOM     27  C   UNL     1     141.011  71.296 225.391 -0.55 -0.00    +0.021 A  
DOCKED: ATOM     28  C   UNL     1     140.377  70.636 226.427 -0.56 -0.01    +0.041 A  
DOCKED: ATOM     29  Cl  UNL     1     140.963  70.692 228.063 -0.76 +0.02    -0.084 Cl 
DOCKED: ENDBRANCH  20  23
DOCKED: ENDBRANCH   1  18
DOCKED: TORSDOF 5
DOCKED: TER
DOCKED: ENDMDL
________________________________________________________________________________


    FINAL DOCKED STATE:
    ________________________


Run:   18 / 20
Time taken for this run:   0.026s

DOCKED: MODEL        18
DOCKED: USER    Run = 18
DOCKED: USER
DOCKED: USER    Estimated Free Energy of Binding    =  -8.85 kcal/mol  [=(1)+(2)+(3)-(4)]
DOCKED: USER
DOCKED: USER    (1) Final Intermolecular Energy     = -10.35 kcal/mol
DOCKED: USER        vdW + Hbond + desolv Energy     = -10.27 kcal/mol
DOCKED: USER        Electrostatic Energy            =  -0.08 kcal/mol
DOCKED: USER        Moving Ligand-Fixed Receptor    = -10.35 kcal/mol
DOCKED: USER        Moving Ligand-Moving Receptor   =  +0.00 kcal/mol
DOCKED: USER    (2) Final Total Internal Energy     =  -1.70 kcal/mol
DOCKED: USER    (3) Torsional Free Energy           =  +1.49 kcal/mol
DOCKED: USER    (4) Unbound System's Energy         =  -1.70 kcal/mol
DOCKED: USER
DOCKED: USER
DOCKED: REMARK SMILES O=C(NCC(=O)N1CCC[C@H]1c1ccc(Cl)cc1)c1ccc2ccccc2n1
DOCKED: REMARK SMILES IDX 5 1 6 2 4 3 3 4 2 5 1 6 19 8 20 9 28 10 21 11 27 12 22 13
DOCKED: REMARK SMILES IDX 26 14 23 15 25 16 24 17 7 18 8 19 11 20 9 21 10 22 12 23
DOCKED: REMARK SMILES IDX 13 24 18 25 14 26 17 27 15 28 16 29
DOCKED: REMARK H PARENT 3 7
DOCKED: USER                              x       y       z     vdW  Elec       q    Type
DOCKED: USER                           _______ _______ _______ _____ _____    ______ ____
DOCKED: ROOT
DOCKED: ATOM      1  C   UNL     1     140.575  75.578 221.551 -0.25 -0.06    +0.242 C  
DOCKED: ATOM      2  O   UNL     1     139.946  75.963 222.611 -0.41 +0.04    -0.273 OA 
DOCKED: ENDROOT
DOCKED: BRANCH   1   3
DOCKED: ATOM      3  C   UNL     1     140.316  74.197 221.145 -0.19 -0.04    +0.216 C  
DOCKED: BRANCH   3   4
DOCKED: ATOM      4  N   UNL     1     140.074  73.381 222.350 -0.13 +0.03    -0.342 N  
DOCKED: ATOM      5  C   UNL     1     140.522  72.015 222.403 -0.20 -0.03    +0.270 C  
DOCKED: ATOM      6  O   UNL     1     141.129  71.474 221.438 -0.14 +0.03    -0.268 OA 
DOCKED: ATOM      7  H   UNL     1     139.584  73.743 223.185 -0.49 -0.03    +0.164 HD 
DOCKED: BRANCH   5   8
DOCKED: ATOM      8  C   UNL     1     140.256  71.238 223.631 -0.32 -0.02    +0.128 A  
DOCKED: ATOM      9  C   UNL     1     139.576  70.044 223.533 -0.26 -0.01    +0.035 A  
DOCKED: ATOM     10  N   UNL     1     140.654  71.661 224.827 -0.30 +0.03    -0.243 NA 
DOCKED: ATOM     11  C   UNL     1     139.299  69.275 224.644 -0.36 -0.00    +0.013 A  
DOCKED: ATOM     12  C   UNL     1     140.408  70.948 225.938 -0.53 -0.01    +0.071 A  
DOCKED: ATOM     13  C   UNL     1     139.721  69.735 225.861 -0.47 -0.00    +0.000 A  
DOCKED: ATOM     14  C   UNL     1     140.800  71.347 227.189 -0.71 -0.01    +0.029 A  
DOCKED: ATOM     15  C   UNL     1     139.485  69.030 227.014 -0.53 -0.00    +0.010 A  
DOCKED: ATOM     16  C   UNL     1     140.567  70.646 228.343 -0.60 -0.00    +0.002 A  
DOCKED: ATOM     17  C   UNL     1     139.886  69.448 228.259 -0.63 -0.00    +0.001 A  
DOCKED: ENDBRANCH   5   8
DOCKED: ENDBRANCH   3   4
DOCKED: ENDBRANCH   1   3
DOCKED: BRANCH   1  18
DOCKED: ATOM     18  N   UNL     1     141.397  76.533 220.965 -0.14 +0.16    -0.334 N  
DOCKED: ATOM     19  C   UNL     1     142.369  76.115 219.897 -0.26 -0.06    +0.120 C  
DOCKED: ATOM     20  C   UNL     1     141.621  77.942 221.039 -0.26 -0.07    +0.115 C  
DOCKED: ATOM     21  C   UNL     1     142.443  77.307 218.966 -0.31 -0.02    +0.024 C  
DOCKED: ATOM     22  C   UNL     1     141.451  78.312 219.571 -0.24 -0.02    +0.032 C  
DOCKED: BRANCH  20  23
DOCKED: ATOM     23  C   UNL     1     140.814  78.749 221.926 -0.34 +0.01    -0.025 A  
DOCKED: ATOM     24  C   UNL     1     141.242  79.495 222.995 -0.51 -0.00    +0.007 A  
DOCKED: ATOM     25  C   UNL     1     139.431  78.777 221.696 -0.21 -0.00    +0.007 A  
DOCKED: ATOM     26  C   UNL     1     140.430  80.230 223.812 -0.43 -0.00    +0.021 A  
DOCKED: ATOM     27  C   UNL     1     138.585  79.515 222.509 -0.24 -0.00    +0.021 A  
DOCKED: ATOM     28  C   UNL     1     139.061  80.253 223.578 -0.38 -0.01    +0.041 A  
DOCKED: ATOM     29  Cl  UNL     1     138.012  81.184 224.607 -0.41 +0.01    -0.084 Cl 
DOCKED: ENDBRANCH  20  23
DOCKED: ENDBRANCH   1  18
DOCKED: TORSDOF 5
DOCKED: TER
DOCKED: ENDMDL
________________________________________________________________________________


    FINAL DOCKED STATE:
    ________________________


Run:   19 / 20
Time taken for this run:   0.026s

DOCKED: MODEL        19
DOCKED: USER    Run = 19
DOCKED: USER
DOCKED: USER    Estimated Free Energy of Binding    =  -8.33 kcal/mol  [=(1)+(2)+(3)-(4)]
DOCKED: USER
DOCKED: USER    (1) Final Intermolecular Energy     =  -9.83 kcal/mol
DOCKED: USER        vdW + Hbond + desolv Energy     =  -9.79 kcal/mol
DOCKED: USER        Electrostatic Energy            =  -0.04 kcal/mol
DOCKED: USER        Moving Ligand-Fixed Receptor    =  -9.83 kcal/mol
DOCKED: USER        Moving Ligand-Moving Receptor   =  +0.00 kcal/mol
DOCKED: USER    (2) Final Total Internal Energy     =  -1.86 kcal/mol
DOCKED: USER    (3) Torsional Free Energy           =  +1.49 kcal/mol
DOCKED: USER    (4) Unbound System's Energy         =  -1.86 kcal/mol
DOCKED: USER
DOCKED: USER
DOCKED: REMARK SMILES O=C(NCC(=O)N1CCC[C@H]1c1ccc(Cl)cc1)c1ccc2ccccc2n1
DOCKED: REMARK SMILES IDX 5 1 6 2 4 3 3 4 2 5 1 6 19 8 20 9 28 10 21 11 27 12 22 13
DOCKED: REMARK SMILES IDX 26 14 23 15 25 16 24 17 7 18 8 19 11 20 9 21 10 22 12 23
DOCKED: REMARK SMILES IDX 13 24 18 25 14 26 17 27 15 28 16 29
DOCKED: REMARK H PARENT 3 7
DOCKED: USER                              x       y       z     vdW  Elec       q    Type
DOCKED: USER                           _______ _______ _______ _____ _____    ______ ____
DOCKED: ROOT
DOCKED: ATOM      1  C   UNL     1     139.420  75.477 221.410 -0.19 -0.05    +0.242 C  
DOCKED: ATOM      2  O   UNL     1     139.174  75.735 222.651 -0.40 +0.05    -0.273 OA 
DOCKED: ENDROOT
DOCKED: BRANCH   1   3
DOCKED: ATOM      3  C   UNL     1     139.956  74.142 221.149 -0.18 -0.04    +0.216 C  
DOCKED: BRANCH   3   4
DOCKED: ATOM      4  N   UNL     1     139.892  73.350 222.392 -0.12 +0.04    -0.342 N  
DOCKED: ATOM      5  C   UNL     1     140.240  71.954 222.381 -0.21 -0.04    +0.270 C  
DOCKED: ATOM      6  O   UNL     1     140.606  71.366 221.327 -0.12 +0.04    -0.268 OA 
DOCKED: ATOM      7  H   UNL     1     139.601  73.750 223.300 -0.47 -0.03    +0.164 HD 
DOCKED: BRANCH   5   8
DOCKED: ATOM      8  C   UNL     1     140.160  71.203 223.650 -0.32 -0.02    +0.128 A  
DOCKED: ATOM      9  C   UNL     1     139.595  69.946 223.650 -0.26 -0.01    +0.035 A  
DOCKED: ATOM     10  N   UNL     1     140.618  71.706 224.792 -0.29 +0.03    -0.243 NA 
DOCKED: ATOM     11  C   UNL     1     139.493  69.197 224.803 -0.37 -0.00    +0.013 A  
DOCKED: ATOM     12  C   UNL     1     140.542  71.016 225.942 -0.54 -0.01    +0.071 A  
DOCKED: ATOM     13  C   UNL     1     139.973  69.741 225.963 -0.49 -0.00    +0.000 A  
DOCKED: ATOM     14  C   UNL     1     141.001  71.498 227.140 -0.74 -0.00    +0.029 A  
DOCKED: ATOM     15  C   UNL     1     139.910  69.061 227.154 -0.59 -0.00    +0.010 A  
DOCKED: ATOM     16  C   UNL     1     140.940  70.823 228.330 -0.62 -0.00    +0.002 A  
DOCKED: ATOM     17  C   UNL     1     140.376  69.562 228.343 -0.61 -0.00    +0.001 A  
DOCKED: ENDBRANCH   5   8
DOCKED: ENDBRANCH   3   4
DOCKED: ENDBRANCH   1   3
DOCKED: BRANCH   1  18
DOCKED: ATOM     18  N   UNL     1     139.139  76.507 220.519 -0.02 +0.08    -0.334 N  
DOCKED: ATOM     19  C   UNL     1     138.229  76.245 219.352 -0.02 -0.03    +0.120 C  
DOCKED: ATOM     20  C   UNL     1     139.447  77.892 220.354 -0.09 -0.03    +0.115 C  
DOCKED: ATOM     21  C   UNL     1     137.501  77.556 219.139 -0.02 -0.01    +0.024 C  
DOCKED: ATOM     22  C   UNL     1     138.038  78.464 220.255 -0.05 -0.01    +0.032 C  
DOCKED: BRANCH  20  23
DOCKED: ATOM     23  C   UNL     1     140.267  78.564 221.336 -0.23 +0.01    -0.025 A  
DOCKED: ATOM     24  C   UNL     1     140.182  78.465 222.702 -0.40 -0.00    +0.007 A  
DOCKED: ATOM     25  C   UNL     1     141.261  79.434 220.863 -0.31 -0.00    +0.007 A  
DOCKED: ATOM     26  C   UNL     1     140.976  79.137 223.587 -0.53 -0.00    +0.021 A  
DOCKED: ATOM     27  C   UNL     1     142.081  80.128 221.740 -0.46 -0.01    +0.021 A  
DOCKED: ATOM     28  C   UNL     1     141.959  79.997 223.111 -0.57 -0.01    +0.041 A  
DOCKED: ATOM     29  Cl  UNL     1     142.979  80.862 224.223 -0.59 +0.01    -0.084 Cl 
DOCKED: ENDBRANCH  20  23
DOCKED: ENDBRANCH   1  18
DOCKED: TORSDOF 5
DOCKED: TER
DOCKED: ENDMDL
________________________________________________________________________________


    FINAL DOCKED STATE:
    ________________________


Run:   20 / 20
Time taken for this run:   0.026s

DOCKED: MODEL        20
DOCKED: USER    Run = 20
DOCKED: USER
DOCKED: USER    Estimated Free Energy of Binding    =  -8.82 kcal/mol  [=(1)+(2)+(3)-(4)]
DOCKED: USER
DOCKED: USER    (1) Final Intermolecular Energy     = -10.31 kcal/mol
DOCKED: USER        vdW + Hbond + desolv Energy     = -10.23 kcal/mol
DOCKED: USER        Electrostatic Energy            =  -0.08 kcal/mol
DOCKED: USER        Moving Ligand-Fixed Receptor    = -10.31 kcal/mol
DOCKED: USER        Moving Ligand-Moving Receptor   =  +0.00 kcal/mol
DOCKED: USER    (2) Final Total Internal Energy     =  -1.73 kcal/mol
DOCKED: USER    (3) Torsional Free Energy           =  +1.49 kcal/mol
DOCKED: USER    (4) Unbound System's Energy         =  -1.73 kcal/mol
DOCKED: USER
DOCKED: USER
DOCKED: REMARK SMILES O=C(NCC(=O)N1CCC[C@H]1c1ccc(Cl)cc1)c1ccc2ccccc2n1
DOCKED: REMARK SMILES IDX 5 1 6 2 4 3 3 4 2 5 1 6 19 8 20 9 28 10 21 11 27 12 22 13
DOCKED: REMARK SMILES IDX 26 14 23 15 25 16 24 17 7 18 8 19 11 20 9 21 10 22 12 23
DOCKED: REMARK SMILES IDX 13 24 18 25 14 26 17 27 15 28 16 29
DOCKED: REMARK H PARENT 3 7
DOCKED: USER                              x       y       z     vdW  Elec       q    Type
DOCKED: USER                           _______ _______ _______ _____ _____    ______ ____
DOCKED: ROOT
DOCKED: ATOM      1  C   UNL     1     140.641  75.585 221.533 -0.25 -0.06    +0.242 C  
DOCKED: ATOM      2  O   UNL     1     140.074  75.960 222.631 -0.40 +0.04    -0.273 OA 
DOCKED: ENDROOT
DOCKED: BRANCH   1   3
DOCKED: ATOM      3  C   UNL     1     140.350  74.212 221.123 -0.19 -0.04    +0.216 C  
DOCKED: BRANCH   3   4
DOCKED: ATOM      4  N   UNL     1     140.089  73.399 222.326 -0.13 +0.02    -0.342 N  
DOCKED: ATOM      5  C   UNL     1     140.545  72.035 222.393 -0.20 -0.03    +0.270 C  
DOCKED: ATOM      6  O   UNL     1     141.174  71.495 221.443 -0.14 +0.03    -0.268 OA 
DOCKED: ATOM      7  H   UNL     1     139.580  73.760 223.150 -0.50 -0.03    +0.164 HD 
DOCKED: BRANCH   5   8
DOCKED: ATOM      8  C   UNL     1     140.260  71.261 223.618 -0.32 -0.02    +0.128 A  
DOCKED: ATOM      9  C   UNL     1     139.574  70.071 223.513 -0.27 -0.01    +0.035 A  
DOCKED: ATOM     10  N   UNL     1     140.646  71.682 224.819 -0.30 +0.03    -0.243 NA 
DOCKED: ATOM     11  C   UNL     1     139.279  69.304 224.621 -0.36 -0.00    +0.013 A  
DOCKED: ATOM     12  C   UNL     1     140.382  70.972 225.928 -0.53 -0.01    +0.071 A  
DOCKED: ATOM     13  C   UNL     1     139.689  69.763 225.843 -0.47 -0.00    +0.000 A  
DOCKED: ATOM     14  C   UNL     1     140.761  71.369 227.183 -0.72 -0.01    +0.029 A  
DOCKED: ATOM     15  C   UNL     1     139.435  69.060 226.994 -0.52 -0.00    +0.010 A  
DOCKED: ATOM     16  C   UNL     1     140.510  70.671 228.335 -0.61 -0.00    +0.002 A  
DOCKED: ATOM     17  C   UNL     1     139.824  69.476 228.243 -0.62 -0.00    +0.001 A  
DOCKED: ENDBRANCH   5   8
DOCKED: ENDBRANCH   3   4
DOCKED: ENDBRANCH   1   3
DOCKED: BRANCH   1  18
DOCKED: ATOM     18  N   UNL     1     141.437  76.543 220.916 -0.14 +0.16    -0.334 N  
DOCKED: ATOM     19  C   UNL     1     142.390  76.123 219.832 -0.27 -0.06    +0.120 C  
DOCKED: ATOM     20  C   UNL     1     141.644  77.955 220.966 -0.26 -0.07    +0.115 C  
DOCKED: ATOM     21  C   UNL     1     142.426  77.302 218.883 -0.31 -0.02    +0.024 C  
DOCKED: ATOM     22  C   UNL     1     141.436  78.303 219.497 -0.24 -0.02    +0.032 C  
DOCKED: BRANCH  20  23
DOCKED: ATOM     23  C   UNL     1     140.847  78.764 221.860 -0.34 +0.01    -0.025 A  
DOCKED: ATOM     24  C   UNL     1     141.288  79.523 222.915 -0.51 -0.00    +0.007 A  
DOCKED: ATOM     25  C   UNL     1     139.459  78.779 221.655 -0.21 -0.00    +0.007 A  
DOCKED: ATOM     26  C   UNL     1     140.485  80.259 223.740 -0.43 -0.00    +0.021 A  
DOCKED: ATOM     27  C   UNL     1     138.623  79.518 222.477 -0.24 -0.00    +0.021 A  
DOCKED: ATOM     28  C   UNL     1     139.112  80.269 223.530 -0.38 -0.01    +0.041 A  
DOCKED: ATOM     29  Cl  UNL     1     138.074  81.200 224.570 -0.40 +0.01    -0.084 Cl 
DOCKED: ENDBRANCH  20  23
DOCKED: ENDBRANCH   1  18
DOCKED: TORSDOF 5
DOCKED: TER
DOCKED: ENDMDL
________________________________________________________________________________


    CLUSTERING HISTOGRAM
    ____________________


________________________________________________________________________________
     |           |     |           |     |
Clus | Lowest    | Run | Mean      | Num | Histogram
-ter | Binding   |     | Binding   | in  |
Rank | Energy    |     | Energy    | Clus|    5    10   15   20   25   30   35
_____|___________|_____|___________|_____|____:____|____:____|____:____|____:___
   1 |     -8.85 |  18 |     -8.67 |  10 |##########
   2 |     -8.76 |   2 |     -8.76 |   1 |#
   3 |     -8.20 |   6 |     -8.13 |   6 |######
   4 |     -8.17 |  11 |     -8.15 |   2 |##
   5 |     -8.07 |   9 |     -8.07 |   1 |#
_____|___________|_____|___________|_____|______________________________________


    RMSD TABLE
    __________


_______________________________________________________________________
     |      |      |           |         |                 |
Rank | Sub- | Run  | Binding   | Cluster | Reference       | Grep
     | Rank |      | Energy    | RMSD    | RMSD            | Pattern
_____|______|______|___________|_________|_________________|___________
   1      1     18       -8.85      0.00    271.75           RANKING
   1      2      4       -8.85      0.05    271.76           RANKING
   1      3      5       -8.84      0.04    271.75           RANKING
   1      4     12       -8.82      0.05    271.76           RANKING
   1      5     20       -8.82      0.06    271.74           RANKING
   1      6     13       -8.74      0.28    271.71           RANKING
   1      7     15       -8.74      0.29    271.65           RANKING
   1      8      8       -8.39      1.67    271.49           RANKING
   1      9     19       -8.33      1.72    271.52           RANKING
   1     10     14       -8.31      1.95    271.29           RANKING
   2      1      2       -8.76      0.00    271.58           RANKING
   3      1      6       -8.20      0.00    271.53           RANKING
   3      2      1       -8.18      0.06    271.54           RANKING
   3      3     10       -8.12      0.06    271.54           RANKING
   3      4     16       -8.12      1.51    271.21           RANKING
   3      5     17       -8.10      0.20    271.46           RANKING
   3      6      3       -8.08      0.21    271.56           RANKING
   4      1     11       -8.17      0.00    271.10           RANKING
   4      2      7       -8.12      0.33    271.11           RANKING
   5      1      9       -8.07      0.00    270.78           RANKING

Run time 0.480 sec
Idle time 0.000 sec
