AutoDock-GPU version: v1.6

**********************************************************
**    AutoDock-GPU AUTODOCKTOOLS-COMPATIBLE DLG FILE    **
**********************************************************


    DOCKING PARAMETERS
    ________________________


Ligand file:                               /home/a/REINVENT4/ReinventStudies/pleaseWork/justmol2mol_4_Compounds_ontop/graph-dock-amy28i/graph-DockGPU/node-autodockgpu/inputs/DIHKYIOISBIWEH-IUMHHLBDNA-N.pdbqt
Grid fld file:                             /home/a/REINVENT4/ReinventStudies/mols/Rad51/maps/rad51_receptor.maps.fld

Random seed:                               42
Number of runs:                            20
Number of energy evaluations:              1132076
Number of generations:                     42000
Size of population:                        150
Rate of crossover:                         80.000000%
Tournament selection probability limit:    60.000000%
Rate of mutation:                          2.000000%
Maximal allowed delta movement:            +/- 6.000000A
Maximal allowed delta angle:               +/- 90.000000

Rate of local search:                      100.000000%
Maximal number of local search iterations: 300
Rho lower bound:                           0.010000
Spread of local search delta movement:     2.000000A
Spread of local search delta angle:        74.999999
Limit of consecutive successes/failures:   4

Handle symmetry during clustering:         YES
RMSD tolerance:                            2.000000A

Program call in command line was:          /home/a/REINVENT4/ReinventStudies/adgpu-v1.6_linux_x64_cuda12_128wi --filelist batch.txt --heuristics 1 --nrun 20 --psize 150 --lsit 300 --seed 42 --heurmax 12000000 


    GRID PARAMETERS
    ________________________


Receptor name:                             rad51_receptor
Number of grid points (x, y, z):           53, 53, 53
Grid center (x, y, z):                     139.950000, 75.640000, 221.970000A
Grid size (x, y, z):                       19.500000, 19.500000, 19.500000A
Grid spacing:                              0.375000A


    LIGAND PARAMETERS
    ________________________


Ligand name:                               /home/a/REINVENT4/ReinventStudies/pleaseWork/justmol2mol_4_Compounds_ontop/graph-dock-amy28i/graph-DockGPU/node-autodockgpu/inputs/DIHKYIOISBIWEH-IUMHHLBDNA-N
Number of atoms:                           33
Number of rotatable bonds:                 6
Number of atom types:                      6


    DUMMY DATA (only for ADT-compatibility)
    ________________________


DPF> outlev 1
DPF> ga_run 20
DPF> fld /home/a/REINVENT4/ReinventStudies/mols/Rad51/maps/rad51_receptor.maps.fld
DPF> move /home/a/REINVENT4/ReinventStudies/pleaseWork/justmol2mol_4_Compounds_ontop/graph-dock-amy28i/graph-DockGPU/node-autodockgpu/inputs/DIHKYIOISBIWEH-IUMHHLBDNA-N.pdbqt


    COUNTER STATES
    ________________________


Number of energy evaluations performed:    501000
Number of generations used:                40


    INPUT LIGAND PDBQT FILE:
    ________________________


INPUT-LIGAND-PDBQT: REMARK SMILES C[C@@H](NC(=O)CNC(=O)c1ccc2ccccc2n1)c1ccc(-c2ccccc2)cc1
INPUT-LIGAND-PDBQT: REMARK SMILES IDX 3 1 4 2 5 3 2 5 1 6 20 7 21 8 31 9 22 10 30 11 23 12 24 13
INPUT-LIGAND-PDBQT: REMARK SMILES IDX 25 14 29 15 26 16 28 17 27 18 6 19 7 20 8 21 9 23 10 24
INPUT-LIGAND-PDBQT: REMARK SMILES IDX 11 25 19 26 12 27 18 28 13 29 17 30 14 31 16 32 15 33
INPUT-LIGAND-PDBQT: REMARK H PARENT 3 4 7 22
INPUT-LIGAND-PDBQT: ROOT
INPUT-LIGAND-PDBQT: ATOM      1  N   UNL     1      -0.664  -1.723   0.394  1.00  0.00    -0.348 N 
INPUT-LIGAND-PDBQT: ATOM      2  C   UNL     1       0.613  -1.172   0.132  1.00  0.00     0.239 C 
INPUT-LIGAND-PDBQT: ATOM      3  O   UNL     1       1.114  -0.316   0.929  1.00  0.00    -0.273 OA
INPUT-LIGAND-PDBQT: ATOM      4  H   UNL     1      -1.125  -2.425  -0.219  1.00  0.00     0.164 HD
INPUT-LIGAND-PDBQT: ENDROOT
INPUT-LIGAND-PDBQT: BRANCH   1   5
INPUT-LIGAND-PDBQT: ATOM      5  C   UNL     1      -1.365  -1.292   1.568  1.00  0.00     0.109 C 
INPUT-LIGAND-PDBQT: ATOM      6  C   UNL     1      -1.672  -2.408   2.528  1.00  0.00     0.036 C 
INPUT-LIGAND-PDBQT: BRANCH   5   7
INPUT-LIGAND-PDBQT: ATOM      7  C   UNL     1      -2.642  -0.674   1.128  1.00  0.00    -0.026 A 
INPUT-LIGAND-PDBQT: ATOM      8  C   UNL     1      -3.439  -1.265   0.168  1.00  0.00     0.006 A 
INPUT-LIGAND-PDBQT: ATOM      9  C   UNL     1      -3.056   0.525   1.684  1.00  0.00     0.006 A 
INPUT-LIGAND-PDBQT: ATOM     10  C   UNL     1      -4.629  -0.689  -0.243  1.00  0.00     0.009 A 
INPUT-LIGAND-PDBQT: ATOM     11  C   UNL     1      -4.235   1.139   1.307  1.00  0.00     0.009 A 
INPUT-LIGAND-PDBQT: ATOM     12  C   UNL     1      -5.003   0.505   0.338  1.00  0.00    -0.018 A 
INPUT-LIGAND-PDBQT: BRANCH  12  13
INPUT-LIGAND-PDBQT: ATOM     13  C   UNL     1      -6.264   1.110  -0.101  1.00  0.00    -0.018 A 
INPUT-LIGAND-PDBQT: ATOM     14  C   UNL     1      -6.970   1.859   0.837  1.00  0.00     0.009 A 
INPUT-LIGAND-PDBQT: ATOM     15  C   UNL     1      -6.765   0.972  -1.368  1.00  0.00     0.009 A 
INPUT-LIGAND-PDBQT: ATOM     16  C   UNL     1      -8.165   2.470   0.530  1.00  0.00     0.001 A 
INPUT-LIGAND-PDBQT: ATOM     17  C   UNL     1      -7.955   1.569  -1.707  1.00  0.00     0.001 A 
INPUT-LIGAND-PDBQT: ATOM     18  C   UNL     1      -8.653   2.318  -0.756  1.00  0.00     0.000 A 
INPUT-LIGAND-PDBQT: ENDBRANCH  12  13
INPUT-LIGAND-PDBQT: ENDBRANCH   5   7
INPUT-LIGAND-PDBQT: ENDBRANCH   1   5
INPUT-LIGAND-PDBQT: BRANCH   2  19
INPUT-LIGAND-PDBQT: ATOM     19  C   UNL     1       1.362  -1.609  -1.091  1.00  0.00     0.216 C 
INPUT-LIGAND-PDBQT: BRANCH  19  20
INPUT-LIGAND-PDBQT: ATOM     20  N   UNL     1       2.627  -0.953  -1.195  1.00  0.00    -0.342 N 
INPUT-LIGAND-PDBQT: ATOM     21  C   UNL     1       3.569  -1.140  -0.133  1.00  0.00     0.270 C 
INPUT-LIGAND-PDBQT: ATOM     22  H   UNL     1       2.874  -0.345  -2.025  1.00  0.00     0.164 HD
INPUT-LIGAND-PDBQT: ATOM     23  O   UNL     1       3.244  -1.866   0.836  1.00  0.00    -0.268 OA
INPUT-LIGAND-PDBQT: BRANCH  21  24
INPUT-LIGAND-PDBQT: ATOM     24  C   UNL     1       4.872  -0.486  -0.202  1.00  0.00     0.128 A 
INPUT-LIGAND-PDBQT: ATOM     25  C   UNL     1       5.763  -0.679   0.831  1.00  0.00     0.035 A 
INPUT-LIGAND-PDBQT: ATOM     26  N   UNL     1       5.251   0.298  -1.224  1.00  0.00    -0.243 NA
INPUT-LIGAND-PDBQT: ATOM     27  C   UNL     1       7.020  -0.107   0.862  1.00  0.00     0.013 A 
INPUT-LIGAND-PDBQT: ATOM     28  C   UNL     1       6.460   0.896  -1.274  1.00  0.00     0.071 A 
INPUT-LIGAND-PDBQT: ATOM     29  C   UNL     1       7.359   0.699  -0.228  1.00  0.00     0.000 A 
INPUT-LIGAND-PDBQT: ATOM     30  C   UNL     1       6.807   1.697  -2.349  1.00  0.00     0.029 A 
INPUT-LIGAND-PDBQT: ATOM     31  C   UNL     1       8.592   1.304  -0.270  1.00  0.00     0.010 A 
INPUT-LIGAND-PDBQT: ATOM     32  C   UNL     1       8.066   2.287  -2.346  1.00  0.00     0.002 A 
INPUT-LIGAND-PDBQT: ATOM     33  C   UNL     1       8.966   2.109  -1.333  1.00  0.00     0.001 A 
INPUT-LIGAND-PDBQT: ENDBRANCH  21  24
INPUT-LIGAND-PDBQT: ENDBRANCH  19  20
INPUT-LIGAND-PDBQT: ENDBRANCH   2  19
INPUT-LIGAND-PDBQT: TORSDOF 6


    FINAL DOCKED STATE:
    ________________________


Run:   1 / 20
Time taken for this run:   0.025s

DOCKED: MODEL        1
DOCKED: USER    Run = 1
DOCKED: USER
DOCKED: USER    Estimated Free Energy of Binding    =  -8.84 kcal/mol  [=(1)+(2)+(3)-(4)]
DOCKED: USER
DOCKED: USER    (1) Final Intermolecular Energy     = -10.63 kcal/mol
DOCKED: USER        vdW + Hbond + desolv Energy     = -10.62 kcal/mol
DOCKED: USER        Electrostatic Energy            =  -0.01 kcal/mol
DOCKED: USER        Moving Ligand-Fixed Receptor    = -10.63 kcal/mol
DOCKED: USER        Moving Ligand-Moving Receptor   =  +0.00 kcal/mol
DOCKED: USER    (2) Final Total Internal Energy     =  -2.16 kcal/mol
DOCKED: USER    (3) Torsional Free Energy           =  +1.79 kcal/mol
DOCKED: USER    (4) Unbound System's Energy         =  -2.16 kcal/mol
DOCKED: USER
DOCKED: USER
DOCKED: REMARK SMILES C[C@@H](NC(=O)CNC(=O)c1ccc2ccccc2n1)c1ccc(-c2ccccc2)cc1
DOCKED: REMARK SMILES IDX 3 1 4 2 5 3 2 5 1 6 20 7 21 8 31 9 22 10 30 11 23 12 24 13
DOCKED: REMARK SMILES IDX 25 14 29 15 26 16 28 17 27 18 6 19 7 20 8 21 9 23 10 24
DOCKED: REMARK SMILES IDX 11 25 19 26 12 27 18 28 13 29 17 30 14 31 16 32 15 33
DOCKED: REMARK H PARENT 3 4 7 22
DOCKED: USER                              x       y       z     vdW  Elec       q    Type
DOCKED: USER                           _______ _______ _______ _____ _____    ______ ____
DOCKED: ROOT
DOCKED: ATOM      1  N   UNL     1     138.822  73.581 221.036 -0.05 +0.07    -0.348 N  
DOCKED: ATOM      2  C   UNL     1     138.214  72.343 220.714 -0.04 -0.05    +0.239 C  
DOCKED: ATOM      3  O   UNL     1     136.984  72.301 220.392 -0.01 +0.05    -0.273 OA 
DOCKED: ATOM      4  H   UNL     1     139.821  73.678 221.306 +0.04 -0.03    +0.164 HD 
DOCKED: ENDROOT
DOCKED: BRANCH   1   5
DOCKED: ATOM      5  C   UNL     1     138.019  74.767 220.988 -0.11 -0.02    +0.109 C  
DOCKED: ATOM      6  C   UNL     1     137.517  75.098 219.609 -0.03 -0.01    +0.036 C  
DOCKED: BRANCH   5   7
DOCKED: ATOM      7  C   UNL     1     138.853  75.895 221.477 -0.22 +0.01    -0.026 A  
DOCKED: ATOM      8  C   UNL     1     138.325  76.896 222.267 -0.28 -0.00    +0.006 A  
DOCKED: ATOM      9  C   UNL     1     140.195  75.958 221.139 -0.27 -0.00    +0.006 A  
DOCKED: ATOM     10  C   UNL     1     139.102  77.948 222.723 -0.31 -0.00    +0.009 A  
DOCKED: ATOM     11  C   UNL     1     141.011  76.986 221.569 -0.36 -0.00    +0.009 A  
DOCKED: ATOM     12  C   UNL     1     140.434  77.970 222.363 -0.39 +0.01    -0.018 A  
DOCKED: BRANCH  12  13
DOCKED: ATOM     13  C   UNL     1     141.251  79.086 222.848 -0.49 +0.01    -0.018 A  
DOCKED: ATOM     14  C   UNL     1     140.580  80.167 223.413 -0.47 -0.00    +0.009 A  
DOCKED: ATOM     15  C   UNL     1     142.618  79.107 222.771 -0.48 -0.00    +0.009 A  
DOCKED: ATOM     16  C   UNL     1     141.251  81.266 223.899 -0.42 -0.00    +0.001 A  
DOCKED: ATOM     17  C   UNL     1     143.318  80.189 223.248 -0.61 -0.00    +0.001 A  
DOCKED: ATOM     18  C   UNL     1     142.632  81.267 223.812 -0.61 -0.00    +0.000 A  
DOCKED: ENDBRANCH  12  13
DOCKED: ENDBRANCH   5   7
DOCKED: ENDBRANCH   1   5
DOCKED: BRANCH   2  19
DOCKED: ATOM     19  C   UNL     1     139.036  71.090 220.759 -0.05 -0.04    +0.216 C  
DOCKED: BRANCH  19  20
DOCKED: ATOM     20  N   UNL     1     139.234  70.639 222.100 -0.06 +0.06    -0.342 N  
DOCKED: ATOM     21  C   UNL     1     140.092  71.412 222.948 -0.21 -0.04    +0.270 C  
DOCKED: ATOM     22  H   UNL     1     138.768  69.764 222.469 +0.05 -0.03    +0.164 HD 
DOCKED: ATOM     23  O   UNL     1     140.628  72.443 222.479 -0.41 +0.02    -0.268 OA 
DOCKED: BRANCH  21  24
DOCKED: ATOM     24  C   UNL     1     140.320  70.983 224.325 -0.37 -0.02    +0.128 A  
DOCKED: ATOM     25  C   UNL     1     140.882  71.877 225.210 -0.33 -0.00    +0.035 A  
DOCKED: ATOM     26  N   UNL     1     140.008  69.758 224.778 -0.19 +0.04    -0.243 NA 
DOCKED: ATOM     27  C   UNL     1     141.138  71.572 226.532 -0.71 -0.00    +0.013 A  
DOCKED: ATOM     28  C   UNL     1     140.225  69.376 226.054 -0.45 -0.01    +0.071 A  
DOCKED: ATOM     29  C   UNL     1     140.794  70.282 226.947 -0.60 -0.00    +0.000 A  
DOCKED: ATOM     30  C   UNL     1     139.888  68.101 226.476 -0.61 -0.00    +0.029 A  
DOCKED: ATOM     31  C   UNL     1     141.018  69.902 228.248 -0.57 -0.00    +0.010 A  
DOCKED: ATOM     32  C   UNL     1     140.134  67.764 227.802 -0.33 -0.00    +0.002 A  
DOCKED: ATOM     33  C   UNL     1     140.690  68.634 228.697 -0.63 -0.00    +0.001 A  
DOCKED: ENDBRANCH  21  24
DOCKED: ENDBRANCH  19  20
DOCKED: ENDBRANCH   2  19
DOCKED: TORSDOF 6
DOCKED: TER
DOCKED: ENDMDL
________________________________________________________________________________


    FINAL DOCKED STATE:
    ________________________


Run:   2 / 20
Time taken for this run:   0.025s

DOCKED: MODEL        2
DOCKED: USER    Run = 2
DOCKED: USER
DOCKED: USER    Estimated Free Energy of Binding    =  -8.55 kcal/mol  [=(1)+(2)+(3)-(4)]
DOCKED: USER
DOCKED: USER    (1) Final Intermolecular Energy     = -10.34 kcal/mol
DOCKED: USER        vdW + Hbond + desolv Energy     = -10.34 kcal/mol
DOCKED: USER        Electrostatic Energy            =  +0.01 kcal/mol
DOCKED: USER        Moving Ligand-Fixed Receptor    = -10.34 kcal/mol
DOCKED: USER        Moving Ligand-Moving Receptor   =  +0.00 kcal/mol
DOCKED: USER    (2) Final Total Internal Energy     =  -2.26 kcal/mol
DOCKED: USER    (3) Torsional Free Energy           =  +1.79 kcal/mol
DOCKED: USER    (4) Unbound System's Energy         =  -2.26 kcal/mol
DOCKED: USER
DOCKED: USER
DOCKED: REMARK SMILES C[C@@H](NC(=O)CNC(=O)c1ccc2ccccc2n1)c1ccc(-c2ccccc2)cc1
DOCKED: REMARK SMILES IDX 3 1 4 2 5 3 2 5 1 6 20 7 21 8 31 9 22 10 30 11 23 12 24 13
DOCKED: REMARK SMILES IDX 25 14 29 15 26 16 28 17 27 18 6 19 7 20 8 21 9 23 10 24
DOCKED: REMARK SMILES IDX 11 25 19 26 12 27 18 28 13 29 17 30 14 31 16 32 15 33
DOCKED: REMARK H PARENT 3 4 7 22
DOCKED: USER                              x       y       z     vdW  Elec       q    Type
DOCKED: USER                           _______ _______ _______ _____ _____    ______ ____
DOCKED: ROOT
DOCKED: ATOM      1  N   UNL     1     138.255  74.682 222.138 -0.07 +0.11    -0.348 N  
DOCKED: ATOM      2  C   UNL     1     139.235  74.856 221.132 -0.15 -0.05    +0.239 C  
DOCKED: ATOM      3  O   UNL     1     139.187  75.870 220.364 -0.05 +0.07    -0.273 OA 
DOCKED: ATOM      4  H   UNL     1     138.241  73.876 222.795 -0.54 -0.09    +0.164 HD 
DOCKED: ENDROOT
DOCKED: BRANCH   1   5
DOCKED: ATOM      5  C   UNL     1     137.221  75.668 222.262 -0.20 -0.03    +0.109 C  
DOCKED: ATOM      6  C   UNL     1     137.723  77.009 222.723 -0.26 -0.01    +0.036 C  
DOCKED: BRANCH   5   7
DOCKED: ATOM      7  C   UNL     1     136.232  75.162 223.247 -0.22 +0.01    -0.026 A  
DOCKED: ATOM      8  C   UNL     1     135.656  75.993 224.187 -0.25 -0.00    +0.006 A  
DOCKED: ATOM      9  C   UNL     1     135.869  73.825 223.236 -0.19 -0.00    +0.006 A  
DOCKED: ATOM     10  C   UNL     1     134.735  75.522 225.106 -0.36 -0.00    +0.009 A  
DOCKED: ATOM     11  C   UNL     1     134.954  73.307 224.133 -0.22 -0.00    +0.009 A  
DOCKED: ATOM     12  C   UNL     1     134.402  74.184 225.059 -0.30 +0.00    -0.018 A  
DOCKED: BRANCH  12  13
DOCKED: ATOM     13  C   UNL     1     133.425  73.690 226.034 -0.32 +0.00    -0.018 A  
DOCKED: ATOM     14  C   UNL     1     132.663  74.641 226.708 -0.36 -0.00    +0.009 A  
DOCKED: ATOM     15  C   UNL     1     133.236  72.361 226.305 -0.35 -0.00    +0.009 A  
DOCKED: ATOM     16  C   UNL     1     131.718  74.287 227.644 -0.41 -0.00    +0.001 A  
DOCKED: ATOM     17  C   UNL     1     132.301  71.973 227.233 -0.40 -0.00    +0.001 A  
DOCKED: ATOM     18  C   UNL     1     131.543  72.938 227.901 -0.32 -0.00    +0.000 A  
DOCKED: ENDBRANCH  12  13
DOCKED: ENDBRANCH   5   7
DOCKED: ENDBRANCH   1   5
DOCKED: BRANCH   2  19
DOCKED: ATOM     19  C   UNL     1     140.323  73.836 220.985 -0.17 -0.04    +0.216 C  
DOCKED: BRANCH  19  20
DOCKED: ATOM     20  N   UNL     1     140.530  73.110 222.199 -0.15 +0.02    -0.342 N  
DOCKED: ATOM     21  C   UNL     1     139.552  72.132 222.570 -0.19 -0.06    +0.270 C  
DOCKED: ATOM     22  H   UNL     1     141.374  73.279 222.813 +0.08 +0.04    +0.164 HD 
DOCKED: ATOM     23  O   UNL     1     138.563  71.958 221.819 -0.09 +0.06    -0.268 OA 
DOCKED: BRANCH  21  24
DOCKED: ATOM     24  C   UNL     1     139.726  71.370 223.802 -0.33 -0.03    +0.128 A  
DOCKED: ATOM     25  C   UNL     1     139.277  70.068 223.843 -0.29 -0.01    +0.035 A  
DOCKED: ATOM     26  N   UNL     1     140.305  71.872 224.905 -0.25 +0.04    -0.243 NA 
DOCKED: ATOM     27  C   UNL     1     139.394  69.262 224.958 -0.39 -0.00    +0.013 A  
DOCKED: ATOM     28  C   UNL     1     140.460  71.155 226.037 -0.55 -0.01    +0.071 A  
DOCKED: ATOM     29  C   UNL     1     140.004  69.839 226.076 -0.50 -0.00    +0.000 A  
DOCKED: ATOM     30  C   UNL     1     141.063  71.716 227.151 -0.76 -0.01    +0.029 A  
DOCKED: ATOM     31  C   UNL     1     140.157  69.101 227.225 -0.60 -0.00    +0.010 A  
DOCKED: ATOM     32  C   UNL     1     141.195  70.929 228.290 -0.60 -0.00    +0.002 A  
DOCKED: ATOM     33  C   UNL     1     140.757  69.636 228.352 -0.59 -0.00    +0.001 A  
DOCKED: ENDBRANCH  21  24
DOCKED: ENDBRANCH  19  20
DOCKED: ENDBRANCH   2  19
DOCKED: TORSDOF 6
DOCKED: TER
DOCKED: ENDMDL
________________________________________________________________________________


    FINAL DOCKED STATE:
    ________________________


Run:   3 / 20
Time taken for this run:   0.025s

DOCKED: MODEL        3
DOCKED: USER    Run = 3
DOCKED: USER
DOCKED: USER    Estimated Free Energy of Binding    =  -9.33 kcal/mol  [=(1)+(2)+(3)-(4)]
DOCKED: USER
DOCKED: USER    (1) Final Intermolecular Energy     = -11.12 kcal/mol
DOCKED: USER        vdW + Hbond + desolv Energy     = -11.08 kcal/mol
DOCKED: USER        Electrostatic Energy            =  -0.04 kcal/mol
DOCKED: USER        Moving Ligand-Fixed Receptor    = -11.12 kcal/mol
DOCKED: USER        Moving Ligand-Moving Receptor   =  +0.00 kcal/mol
DOCKED: USER    (2) Final Total Internal Energy     =  -2.18 kcal/mol
DOCKED: USER    (3) Torsional Free Energy           =  +1.79 kcal/mol
DOCKED: USER    (4) Unbound System's Energy         =  -2.18 kcal/mol
DOCKED: USER
DOCKED: USER
DOCKED: REMARK SMILES C[C@@H](NC(=O)CNC(=O)c1ccc2ccccc2n1)c1ccc(-c2ccccc2)cc1
DOCKED: REMARK SMILES IDX 3 1 4 2 5 3 2 5 1 6 20 7 21 8 31 9 22 10 30 11 23 12 24 13
DOCKED: REMARK SMILES IDX 25 14 29 15 26 16 28 17 27 18 6 19 7 20 8 21 9 23 10 24
DOCKED: REMARK SMILES IDX 11 25 19 26 12 27 18 28 13 29 17 30 14 31 16 32 15 33
DOCKED: REMARK H PARENT 3 4 7 22
DOCKED: USER                              x       y       z     vdW  Elec       q    Type
DOCKED: USER                           _______ _______ _______ _____ _____    ______ ____
DOCKED: ROOT
DOCKED: ATOM      1  N   UNL     1     140.018  73.368 220.732 -0.06 +0.06    -0.348 N  
DOCKED: ATOM      2  C   UNL     1     138.670  73.737 220.506 -0.06 -0.05    +0.239 C  
DOCKED: ATOM      3  O   UNL     1     138.396  74.699 219.721 -0.02 +0.06    -0.273 OA 
DOCKED: ATOM      4  H   UNL     1     140.305  72.592 221.362 +0.05 -0.02    +0.164 HD 
DOCKED: ENDROOT
DOCKED: BRANCH   1   5
DOCKED: ATOM      5  C   UNL     1     141.048  74.103 220.059 -0.14 -0.02    +0.109 C  
DOCKED: ATOM      6  C   UNL     1     142.389  73.423 220.089 -0.22 -0.01    +0.036 C  
DOCKED: BRANCH   5   7
DOCKED: ATOM      7  C   UNL     1     141.167  75.425 220.726 -0.27 +0.01    -0.026 A  
DOCKED: ATOM      8  C   UNL     1     140.706  75.631 222.011 -0.33 -0.00    +0.006 A  
DOCKED: ATOM      9  C   UNL     1     141.750  76.487 220.054 -0.28 -0.00    +0.006 A  
DOCKED: ATOM     10  C   UNL     1     140.815  76.864 222.633 -0.37 -0.00    +0.009 A  
DOCKED: ATOM     11  C   UNL     1     141.882  77.735 220.632 -0.30 -0.01    +0.009 A  
DOCKED: ATOM     12  C   UNL     1     141.404  77.893 221.927 -0.36 +0.01    -0.018 A  
DOCKED: BRANCH  12  13
DOCKED: ATOM     13  C   UNL     1     141.517  79.195 222.591 -0.49 +0.01    -0.018 A  
DOCKED: ATOM     14  C   UNL     1     142.774  79.558 223.069 -0.59 -0.00    +0.009 A  
DOCKED: ATOM     15  C   UNL     1     140.461  80.051 222.755 -0.39 -0.00    +0.009 A  
DOCKED: ATOM     16  C   UNL     1     142.991  80.758 223.707 -0.66 -0.00    +0.001 A  
DOCKED: ATOM     17  C   UNL     1     140.643  81.257 223.388 -0.40 -0.00    +0.001 A  
DOCKED: ATOM     18  C   UNL     1     141.910  81.608 223.863 -0.54 -0.00    +0.000 A  
DOCKED: ENDBRANCH  12  13
DOCKED: ENDBRANCH   5   7
DOCKED: ENDBRANCH   1   5
DOCKED: BRANCH   2  19
DOCKED: ATOM     19  C   UNL     1     137.578  72.981 221.201 -0.07 -0.05    +0.216 C  
DOCKED: BRANCH  19  20
DOCKED: ATOM     20  N   UNL     1     138.006  72.488 222.472 -0.05 +0.11    -0.342 N  
DOCKED: ATOM     21  C   UNL     1     138.821  71.311 222.496 -0.14 -0.06    +0.270 C  
DOCKED: ATOM     22  H   UNL     1     137.738  72.968 223.376 -0.49 -0.11    +0.164 HD 
DOCKED: ATOM     23  O   UNL     1     139.120  70.767 221.407 -0.07 +0.05    -0.268 OA 
DOCKED: BRANCH  21  24
DOCKED: ATOM     24  C   UNL     1     139.278  70.776 223.775 -0.28 -0.03    +0.128 A  
DOCKED: ATOM     25  C   UNL     1     139.166  69.422 224.002 -0.29 -0.01    +0.035 A  
DOCKED: ATOM     26  N   UNL     1     139.804  71.538 224.747 -0.25 +0.05    -0.243 NA 
DOCKED: ATOM     27  C   UNL     1     139.569  68.817 225.176 -0.42 -0.00    +0.013 A  
DOCKED: ATOM     28  C   UNL     1     140.223  71.029 225.925 -0.51 -0.01    +0.071 A  
DOCKED: ATOM     29  C   UNL     1     140.109  69.659 226.152 -0.50 -0.00    +0.000 A  
DOCKED: ATOM     30  C   UNL     1     140.760  71.854 226.899 -0.71 -0.01    +0.029 A  
DOCKED: ATOM     31  C   UNL     1     140.532  69.132 227.348 -0.61 -0.00    +0.010 A  
DOCKED: ATOM     32  C   UNL     1     141.174  71.274 228.093 -0.71 -0.00    +0.002 A  
DOCKED: ATOM     33  C   UNL     1     141.074  69.933 228.340 -0.57 -0.00    +0.001 A  
DOCKED: ENDBRANCH  21  24
DOCKED: ENDBRANCH  19  20
DOCKED: ENDBRANCH   2  19
DOCKED: TORSDOF 6
DOCKED: TER
DOCKED: ENDMDL
________________________________________________________________________________


    FINAL DOCKED STATE:
    ________________________


Run:   4 / 20
Time taken for this run:   0.025s

DOCKED: MODEL        4
DOCKED: USER    Run = 4
DOCKED: USER
DOCKED: USER    Estimated Free Energy of Binding    =  -9.38 kcal/mol  [=(1)+(2)+(3)-(4)]
DOCKED: USER
DOCKED: USER    (1) Final Intermolecular Energy     = -11.17 kcal/mol
DOCKED: USER        vdW + Hbond + desolv Energy     = -11.12 kcal/mol
DOCKED: USER        Electrostatic Energy            =  -0.05 kcal/mol
DOCKED: USER        Moving Ligand-Fixed Receptor    = -11.17 kcal/mol
DOCKED: USER        Moving Ligand-Moving Receptor   =  +0.00 kcal/mol
DOCKED: USER    (2) Final Total Internal Energy     =  -2.17 kcal/mol
DOCKED: USER    (3) Torsional Free Energy           =  +1.79 kcal/mol
DOCKED: USER    (4) Unbound System's Energy         =  -2.17 kcal/mol
DOCKED: USER
DOCKED: USER
DOCKED: REMARK SMILES C[C@@H](NC(=O)CNC(=O)c1ccc2ccccc2n1)c1ccc(-c2ccccc2)cc1
DOCKED: REMARK SMILES IDX 3 1 4 2 5 3 2 5 1 6 20 7 21 8 31 9 22 10 30 11 23 12 24 13
DOCKED: REMARK SMILES IDX 25 14 29 15 26 16 28 17 27 18 6 19 7 20 8 21 9 23 10 24
DOCKED: REMARK SMILES IDX 11 25 19 26 12 27 18 28 13 29 17 30 14 31 16 32 15 33
DOCKED: REMARK H PARENT 3 4 7 22
DOCKED: USER                              x       y       z     vdW  Elec       q    Type
DOCKED: USER                           _______ _______ _______ _____ _____    ______ ____
DOCKED: ROOT
DOCKED: ATOM      1  N   UNL     1     140.313  73.273 220.694 -0.06 +0.06    -0.348 N  
DOCKED: ATOM      2  C   UNL     1     138.935  73.455 220.429 -0.06 -0.05    +0.239 C  
DOCKED: ATOM      3  O   UNL     1     138.558  74.323 219.578 -0.02 +0.06    -0.273 OA 
DOCKED: ATOM      4  H   UNL     1     140.682  72.581 221.377 +0.05 -0.02    +0.164 HD 
DOCKED: ENDROOT
DOCKED: BRANCH   1   5
DOCKED: ATOM      5  C   UNL     1     141.257  74.087 219.985 -0.14 -0.03    +0.109 C  
DOCKED: ATOM      6  C   UNL     1     142.641  73.500 219.939 -0.22 -0.01    +0.036 C  
DOCKED: BRANCH   5   7
DOCKED: ATOM      7  C   UNL     1     141.318  75.404 220.668 -0.27 +0.01    -0.026 A  
DOCKED: ATOM      8  C   UNL     1     140.842  75.576 221.952 -0.35 -0.00    +0.006 A  
DOCKED: ATOM      9  C   UNL     1     141.862  76.497 220.013 -0.28 -0.00    +0.006 A  
DOCKED: ATOM     10  C   UNL     1     140.898  76.804 222.589 -0.37 -0.00    +0.009 A  
DOCKED: ATOM     11  C   UNL     1     141.940  77.742 220.606 -0.29 -0.01    +0.009 A  
DOCKED: ATOM     12  C   UNL     1     141.448  77.865 221.899 -0.35 +0.01    -0.018 A  
DOCKED: BRANCH  12  13
DOCKED: ATOM     13  C   UNL     1     141.505  79.162 222.579 -0.49 +0.01    -0.018 A  
DOCKED: ATOM     14  C   UNL     1     142.754  79.597 223.016 -0.60 -0.00    +0.009 A  
DOCKED: ATOM     15  C   UNL     1     140.404  79.948 222.797 -0.39 -0.00    +0.009 A  
DOCKED: ATOM     16  C   UNL     1     142.920  80.800 223.665 -0.66 -0.00    +0.001 A  
DOCKED: ATOM     17  C   UNL     1     140.535  81.154 223.441 -0.40 -0.00    +0.001 A  
DOCKED: ATOM     18  C   UNL     1     141.795  81.578 223.874 -0.51 -0.00    +0.000 A  
DOCKED: ENDBRANCH  12  13
DOCKED: ENDBRANCH   5   7
DOCKED: ENDBRANCH   1   5
DOCKED: BRANCH   2  19
DOCKED: ATOM     19  C   UNL     1     137.932  72.615 221.160 -0.07 -0.05    +0.216 C  
DOCKED: BRANCH  19  20
DOCKED: ATOM     20  N   UNL     1     138.353  72.337 222.497 -0.07 +0.10    -0.342 N  
DOCKED: ATOM     21  C   UNL     1     139.310  71.290 222.695 -0.17 -0.05    +0.270 C  
DOCKED: ATOM     22  H   UNL     1     137.979  72.880 223.325 -0.46 -0.11    +0.164 HD 
DOCKED: ATOM     23  O   UNL     1     139.733  70.667 221.692 -0.10 +0.04    -0.268 OA 
DOCKED: BRANCH  21  24
DOCKED: ATOM     24  C   UNL     1     139.766  70.976 224.045 -0.33 -0.02    +0.128 A  
DOCKED: ATOM     25  C   UNL     1     140.548  71.895 224.709 -0.33 -0.01    +0.035 A  
DOCKED: ATOM     26  N   UNL     1     139.461  69.832 224.679 -0.19 +0.04    -0.243 NA 
DOCKED: ATOM     27  C   UNL     1     141.030  71.695 225.988 -0.62 -0.00    +0.013 A  
DOCKED: ATOM     28  C   UNL     1     139.889  69.556 225.929 -0.43 -0.01    +0.071 A  
DOCKED: ATOM     29  C   UNL     1     140.681  70.487 226.598 -0.60 -0.00    +0.000 A  
DOCKED: ATOM     30  C   UNL     1     139.550  68.362 226.543 -0.57 -0.00    +0.029 A  
DOCKED: ATOM     31  C   UNL     1     141.122  70.214 227.870 -0.58 -0.00    +0.010 A  
DOCKED: ATOM     32  C   UNL     1     140.020  68.132 227.831 -0.61 -0.00    +0.002 A  
DOCKED: ATOM     33  C   UNL     1     140.797  69.029 228.509 -0.59 -0.00    +0.001 A  
DOCKED: ENDBRANCH  21  24
DOCKED: ENDBRANCH  19  20
DOCKED: ENDBRANCH   2  19
DOCKED: TORSDOF 6
DOCKED: TER
DOCKED: ENDMDL
________________________________________________________________________________


    FINAL DOCKED STATE:
    ________________________


Run:   5 / 20
Time taken for this run:   0.025s

DOCKED: MODEL        5
DOCKED: USER    Run = 5
DOCKED: USER
DOCKED: USER    Estimated Free Energy of Binding    =  -8.82 kcal/mol  [=(1)+(2)+(3)-(4)]
DOCKED: USER
DOCKED: USER    (1) Final Intermolecular Energy     = -10.61 kcal/mol
DOCKED: USER        vdW + Hbond + desolv Energy     = -10.54 kcal/mol
DOCKED: USER        Electrostatic Energy            =  -0.07 kcal/mol
DOCKED: USER        Moving Ligand-Fixed Receptor    = -10.61 kcal/mol
DOCKED: USER        Moving Ligand-Moving Receptor   =  +0.00 kcal/mol
DOCKED: USER    (2) Final Total Internal Energy     =  -2.36 kcal/mol
DOCKED: USER    (3) Torsional Free Energy           =  +1.79 kcal/mol
DOCKED: USER    (4) Unbound System's Energy         =  -2.36 kcal/mol
DOCKED: USER
DOCKED: USER
DOCKED: REMARK SMILES C[C@@H](NC(=O)CNC(=O)c1ccc2ccccc2n1)c1ccc(-c2ccccc2)cc1
DOCKED: REMARK SMILES IDX 3 1 4 2 5 3 2 5 1 6 20 7 21 8 31 9 22 10 30 11 23 12 24 13
DOCKED: REMARK SMILES IDX 25 14 29 15 26 16 28 17 27 18 6 19 7 20 8 21 9 23 10 24
DOCKED: REMARK SMILES IDX 11 25 19 26 12 27 18 28 13 29 17 30 14 31 16 32 15 33
DOCKED: REMARK H PARENT 3 4 7 22
DOCKED: USER                              x       y       z     vdW  Elec       q    Type
DOCKED: USER                           _______ _______ _______ _____ _____    ______ ____
DOCKED: ROOT
DOCKED: ATOM      1  N   UNL     1     138.134  74.088 222.002 -0.07 +0.11    -0.348 N  
DOCKED: ATOM      2  C   UNL     1     138.150  73.367 220.785 -0.06 -0.05    +0.239 C  
DOCKED: ATOM      3  O   UNL     1     137.403  73.728 219.820 -0.01 +0.05    -0.273 OA 
DOCKED: ATOM      4  H   UNL     1     138.721  73.843 222.825 -0.55 -0.08    +0.164 HD 
DOCKED: ENDROOT
DOCKED: BRANCH   1   5
DOCKED: ATOM      5  C   UNL     1     137.262  75.221 222.113 -0.17 -0.03    +0.109 C  
DOCKED: ATOM      6  C   UNL     1     137.970  76.489 222.500 -0.28 -0.01    +0.036 C  
DOCKED: BRANCH   5   7
DOCKED: ATOM      7  C   UNL     1     136.244  74.905 223.148 -0.19 +0.01    -0.026 A  
DOCKED: ATOM      8  C   UNL     1     135.694  75.889 223.945 -0.27 -0.00    +0.006 A  
DOCKED: ATOM      9  C   UNL     1     135.828  73.597 223.330 -0.20 -0.00    +0.006 A  
DOCKED: ATOM     10  C   UNL     1     134.746  75.595 224.911 -0.34 -0.00    +0.009 A  
DOCKED: ATOM     11  C   UNL     1     134.885  73.254 224.280 -0.23 -0.00    +0.009 A  
DOCKED: ATOM     12  C   UNL     1     134.360  74.279 225.057 -0.30 +0.00    -0.018 A  
DOCKED: BRANCH  12  13
DOCKED: ATOM     13  C   UNL     1     133.356  73.974 226.081 -0.33 -0.00    -0.018 A  
DOCKED: ATOM     14  C   UNL     1     133.034  72.633 226.275 -0.33 -0.00    +0.009 A  
DOCKED: ATOM     15  C   UNL     1     132.735  74.932 226.837 -0.38 +0.00    +0.009 A  
DOCKED: ATOM     16  C   UNL     1     132.104  72.236 227.210 -0.41 -0.00    +0.001 A  
DOCKED: ATOM     17  C   UNL     1     131.803  74.570 227.778 -0.40 -0.00    +0.001 A  
DOCKED: ATOM     18  C   UNL     1     131.489  73.221 227.964 -0.31 -0.00    +0.000 A  
DOCKED: ENDBRANCH  12  13
DOCKED: ENDBRANCH   5   7
DOCKED: ENDBRANCH   1   5
DOCKED: BRANCH   2  19
DOCKED: ATOM     19  C   UNL     1     139.055  72.180 220.649 -0.06 -0.04    +0.216 C  
DOCKED: BRANCH  19  20
DOCKED: ATOM     20  N   UNL     1     139.157  71.454 221.876 -0.07 +0.07    -0.342 N  
DOCKED: ATOM     21  C   UNL     1     140.042  71.958 222.882 -0.22 -0.04    +0.270 C  
DOCKED: ATOM     22  H   UNL     1     138.602  70.570 222.049 +0.04 -0.03    +0.164 HD 
DOCKED: ATOM     23  O   UNL     1     140.686  73.007 222.643 -0.63 -0.01    -0.268 OA 
DOCKED: BRANCH  21  24
DOCKED: ATOM     24  C   UNL     1     140.175  71.245 224.148 -0.37 -0.02    +0.128 A  
DOCKED: ATOM     25  C   UNL     1     140.766  71.892 225.211 -0.37 -0.00    +0.035 A  
DOCKED: ATOM     26  N   UNL     1     139.749  69.985 224.334 -0.18 +0.04    -0.243 NA 
DOCKED: ATOM     27  C   UNL     1     140.939  71.307 226.451 -0.67 -0.00    +0.013 A  
DOCKED: ATOM     28  C   UNL     1     139.878  69.338 225.511 -0.40 -0.01    +0.071 A  
DOCKED: ATOM     29  C   UNL     1     140.477  69.995 226.585 -0.56 -0.00    +0.000 A  
DOCKED: ATOM     30  C   UNL     1     139.424  68.038 225.656 -0.51 -0.00    +0.029 A  
DOCKED: ATOM     31  C   UNL     1     140.613  69.344 227.787 -0.62 -0.00    +0.010 A  
DOCKED: ATOM     32  C   UNL     1     139.584  67.423 226.892 -0.57 -0.00    +0.002 A  
DOCKED: ATOM     33  C   UNL     1     140.167  68.045 227.961 -0.52 -0.00    +0.001 A  
DOCKED: ENDBRANCH  21  24
DOCKED: ENDBRANCH  19  20
DOCKED: ENDBRANCH   2  19
DOCKED: TORSDOF 6
DOCKED: TER
DOCKED: ENDMDL
________________________________________________________________________________


    FINAL DOCKED STATE:
    ________________________


Run:   6 / 20
Time taken for this run:   0.025s

DOCKED: MODEL        6
DOCKED: USER    Run = 6
DOCKED: USER
DOCKED: USER    Estimated Free Energy of Binding    =  -9.33 kcal/mol  [=(1)+(2)+(3)-(4)]
DOCKED: USER
DOCKED: USER    (1) Final Intermolecular Energy     = -11.12 kcal/mol
DOCKED: USER        vdW + Hbond + desolv Energy     = -11.07 kcal/mol
DOCKED: USER        Electrostatic Energy            =  -0.05 kcal/mol
DOCKED: USER        Moving Ligand-Fixed Receptor    = -11.12 kcal/mol
DOCKED: USER        Moving Ligand-Moving Receptor   =  +0.00 kcal/mol
DOCKED: USER    (2) Final Total Internal Energy     =  -2.16 kcal/mol
DOCKED: USER    (3) Torsional Free Energy           =  +1.79 kcal/mol
DOCKED: USER    (4) Unbound System's Energy         =  -2.16 kcal/mol
DOCKED: USER
DOCKED: USER
DOCKED: REMARK SMILES C[C@@H](NC(=O)CNC(=O)c1ccc2ccccc2n1)c1ccc(-c2ccccc2)cc1
DOCKED: REMARK SMILES IDX 3 1 4 2 5 3 2 5 1 6 20 7 21 8 31 9 22 10 30 11 23 12 24 13
DOCKED: REMARK SMILES IDX 25 14 29 15 26 16 28 17 27 18 6 19 7 20 8 21 9 23 10 24
DOCKED: REMARK SMILES IDX 11 25 19 26 12 27 18 28 13 29 17 30 14 31 16 32 15 33
DOCKED: REMARK H PARENT 3 4 7 22
DOCKED: USER                              x       y       z     vdW  Elec       q    Type
DOCKED: USER                           _______ _______ _______ _____ _____    ______ ____
DOCKED: ROOT
DOCKED: ATOM      1  N   UNL     1     140.230  73.406 220.570 -0.05 +0.06    -0.348 N  
DOCKED: ATOM      2  C   UNL     1     138.897  73.868 220.459 -0.06 -0.05    +0.239 C  
DOCKED: ATOM      3  O   UNL     1     138.644  74.938 219.818 -0.02 +0.06    -0.273 OA 
DOCKED: ATOM      4  H   UNL     1     140.499  72.540 221.080 +0.05 -0.02    +0.164 HD 
DOCKED: ENDROOT
DOCKED: BRANCH   1   5
DOCKED: ATOM      5  C   UNL     1     141.271  74.170 219.947 -0.14 -0.03    +0.109 C  
DOCKED: ATOM      6  C   UNL     1     142.622  73.513 220.016 -0.23 -0.01    +0.036 C  
DOCKED: BRANCH   5   7
DOCKED: ATOM      7  C   UNL     1     141.341  75.482 220.639 -0.27 +0.01    -0.026 A  
DOCKED: ATOM      8  C   UNL     1     141.803  76.615 219.998 -0.28 -0.00    +0.006 A  
DOCKED: ATOM      9  C   UNL     1     140.938  75.589 221.959 -0.34 -0.00    +0.006 A  
DOCKED: ATOM     10  C   UNL     1     141.869  77.838 220.642 -0.31 -0.01    +0.009 A  
DOCKED: ATOM     11  C   UNL     1     140.985  76.787 222.645 -0.35 -0.00    +0.009 A  
DOCKED: ATOM     12  C   UNL     1     141.456  77.898 221.957 -0.35 +0.01    -0.018 A  
DOCKED: BRANCH  12  13
DOCKED: ATOM     13  C   UNL     1     141.528  79.197 222.634 -0.50 +0.01    -0.018 A  
DOCKED: ATOM     14  C   UNL     1     142.776  79.599 223.105 -0.60 -0.00    +0.009 A  
DOCKED: ATOM     15  C   UNL     1     140.443  80.012 222.818 -0.40 -0.00    +0.009 A  
DOCKED: ATOM     16  C   UNL     1     142.955  80.800 223.755 -0.67 -0.00    +0.001 A  
DOCKED: ATOM     17  C   UNL     1     140.588  81.216 223.463 -0.39 -0.00    +0.001 A  
DOCKED: ATOM     18  C   UNL     1     141.845  81.608 223.930 -0.51 -0.00    +0.000 A  
DOCKED: ENDBRANCH  12  13
DOCKED: ENDBRANCH   5   7
DOCKED: ENDBRANCH   1   5
DOCKED: BRANCH   2  19
DOCKED: ATOM     19  C   UNL     1     137.794  73.084 221.104 -0.07 -0.05    +0.216 C  
DOCKED: BRANCH  19  20
DOCKED: ATOM     20  N   UNL     1     138.182  72.588 222.387 -0.06 +0.11    -0.342 N  
DOCKED: ATOM     21  C   UNL     1     138.952  71.382 222.435 -0.14 -0.06    +0.270 C  
DOCKED: ATOM     22  H   UNL     1     137.917  73.086 223.281 -0.45 -0.12    +0.164 HD 
DOCKED: ATOM     23  O   UNL     1     139.249  70.816 221.356 -0.07 +0.05    -0.268 OA 
DOCKED: BRANCH  21  24
DOCKED: ATOM     24  C   UNL     1     139.368  70.843 223.726 -0.28 -0.03    +0.128 A  
DOCKED: ATOM     25  C   UNL     1     139.212  69.494 223.959 -0.29 -0.01    +0.035 A  
DOCKED: ATOM     26  N   UNL     1     139.896  71.595 224.704 -0.24 +0.05    -0.243 NA 
DOCKED: ATOM     27  C   UNL     1     139.573  68.885 225.146 -0.42 -0.00    +0.013 A  
DOCKED: ATOM     28  C   UNL     1     140.276  71.083 225.894 -0.52 -0.01    +0.071 A  
DOCKED: ATOM     29  C   UNL     1     140.118  69.718 226.127 -0.50 -0.00    +0.000 A  
DOCKED: ATOM     30  C   UNL     1     140.817  71.898 226.873 -0.71 -0.01    +0.029 A  
DOCKED: ATOM     31  C   UNL     1     140.501  69.187 227.335 -0.61 -0.00    +0.010 A  
DOCKED: ATOM     32  C   UNL     1     141.190  71.314 228.079 -0.71 -0.00    +0.002 A  
DOCKED: ATOM     33  C   UNL     1     141.045  69.979 228.332 -0.57 -0.00    +0.001 A  
DOCKED: ENDBRANCH  21  24
DOCKED: ENDBRANCH  19  20
DOCKED: ENDBRANCH   2  19
DOCKED: TORSDOF 6
DOCKED: TER
DOCKED: ENDMDL
________________________________________________________________________________


    FINAL DOCKED STATE:
    ________________________


Run:   7 / 20
Time taken for this run:   0.025s

DOCKED: MODEL        7
DOCKED: USER    Run = 7
DOCKED: USER
DOCKED: USER    Estimated Free Energy of Binding    =  -9.11 kcal/mol  [=(1)+(2)+(3)-(4)]
DOCKED: USER
DOCKED: USER    (1) Final Intermolecular Energy     = -10.90 kcal/mol
DOCKED: USER        vdW + Hbond + desolv Energy     = -10.89 kcal/mol
DOCKED: USER        Electrostatic Energy            =  -0.01 kcal/mol
DOCKED: USER        Moving Ligand-Fixed Receptor    = -10.90 kcal/mol
DOCKED: USER        Moving Ligand-Moving Receptor   =  +0.00 kcal/mol
DOCKED: USER    (2) Final Total Internal Energy     =  -2.02 kcal/mol
DOCKED: USER    (3) Torsional Free Energy           =  +1.79 kcal/mol
DOCKED: USER    (4) Unbound System's Energy         =  -2.02 kcal/mol
DOCKED: USER
DOCKED: USER
DOCKED: REMARK SMILES C[C@@H](NC(=O)CNC(=O)c1ccc2ccccc2n1)c1ccc(-c2ccccc2)cc1
DOCKED: REMARK SMILES IDX 3 1 4 2 5 3 2 5 1 6 20 7 21 8 31 9 22 10 30 11 23 12 24 13
DOCKED: REMARK SMILES IDX 25 14 29 15 26 16 28 17 27 18 6 19 7 20 8 21 9 23 10 24
DOCKED: REMARK SMILES IDX 11 25 19 26 12 27 18 28 13 29 17 30 14 31 16 32 15 33
DOCKED: REMARK H PARENT 3 4 7 22
DOCKED: USER                              x       y       z     vdW  Elec       q    Type
DOCKED: USER                           _______ _______ _______ _____ _____    ______ ____
DOCKED: ROOT
DOCKED: ATOM      1  N   UNL     1     138.008  73.880 221.803 -0.07 +0.10    -0.348 N  
DOCKED: ATOM      2  C   UNL     1     137.370  72.749 221.241 -0.06 -0.05    +0.239 C  
DOCKED: ATOM      3  O   UNL     1     136.166  72.831 220.837 -0.01 +0.05    -0.273 OA 
DOCKED: ATOM      4  H   UNL     1     138.988  73.875 222.151 -0.12 -0.04    +0.164 HD 
DOCKED: ENDROOT
DOCKED: BRANCH   1   5
DOCKED: ATOM      5  C   UNL     1     137.265  75.103 221.902 -0.16 -0.03    +0.109 C  
DOCKED: ATOM      6  C   UNL     1     136.524  75.459 220.643 -0.05 -0.01    +0.036 C  
DOCKED: BRANCH   5   7
DOCKED: ATOM      7  C   UNL     1     138.229  76.190 222.214 -0.27 +0.01    -0.026 A  
DOCKED: ATOM      8  C   UNL     1     139.588  76.024 222.042 -0.34 -0.00    +0.006 A  
DOCKED: ATOM      9  C   UNL     1     137.767  77.405 222.693 -0.26 -0.00    +0.006 A  
DOCKED: ATOM     10  C   UNL     1     140.486  77.036 222.333 -0.42 -0.00    +0.009 A  
DOCKED: ATOM     11  C   UNL     1     138.623  78.445 222.998 -0.28 -0.00    +0.009 A  
DOCKED: ATOM     12  C   UNL     1     139.983  78.230 222.807 -0.36 +0.00    -0.018 A  
DOCKED: BRANCH  12  13
DOCKED: ATOM     13  C   UNL     1     140.938  79.298 223.113 -0.49 +0.00    -0.018 A  
DOCKED: ATOM     14  C   UNL     1     142.281  79.047 222.843 -0.54 -0.00    +0.009 A  
DOCKED: ATOM     15  C   UNL     1     140.573  80.507 223.643 -0.45 -0.00    +0.009 A  
DOCKED: ATOM     16  C   UNL     1     143.261  79.981 223.093 -0.59 -0.00    +0.001 A  
DOCKED: ATOM     17  C   UNL     1     141.526  81.461 223.905 -0.42 -0.00    +0.001 A  
DOCKED: ATOM     18  C   UNL     1     142.870  81.195 223.628 -0.47 -0.00    +0.000 A  
DOCKED: ENDBRANCH  12  13
DOCKED: ENDBRANCH   5   7
DOCKED: ENDBRANCH   1   5
DOCKED: BRANCH   2  19
DOCKED: ATOM     19  C   UNL     1     138.128  71.461 221.130 -0.05 -0.04    +0.216 C  
DOCKED: BRANCH  19  20
DOCKED: ATOM     20  N   UNL     1     138.486  70.948 222.415 -0.06 +0.07    -0.342 N  
DOCKED: ATOM     21  C   UNL     1     139.558  71.587 223.117 -0.22 -0.06    +0.270 C  
DOCKED: ATOM     22  H   UNL     1     137.983  70.124 222.846 +0.05 -0.03    +0.164 HD 
DOCKED: ATOM     23  O   UNL     1     140.132  72.562 222.576 -0.47 +0.03    -0.268 OA 
DOCKED: BRANCH  21  24
DOCKED: ATOM     24  C   UNL     1     139.953  71.093 224.432 -0.38 -0.02    +0.128 A  
DOCKED: ATOM     25  C   UNL     1     140.734  71.898 225.232 -0.37 -0.00    +0.035 A  
DOCKED: ATOM     26  N   UNL     1     139.595  69.889 224.906 -0.21 +0.04    -0.243 NA 
DOCKED: ATOM     27  C   UNL     1     141.161  71.525 226.492 -0.70 -0.00    +0.013 A  
DOCKED: ATOM     28  C   UNL     1     139.969  69.446 226.125 -0.45 -0.01    +0.071 A  
DOCKED: ATOM     29  C   UNL     1     140.758  70.262 226.932 -0.60 -0.00    +0.000 A  
DOCKED: ATOM     30  C   UNL     1     139.575  68.196 226.572 -0.59 -0.00    +0.029 A  
DOCKED: ATOM     31  C   UNL     1     141.144  69.819 228.175 -0.55 -0.00    +0.010 A  
DOCKED: ATOM     32  C   UNL     1     139.990  67.792 227.836 -0.30 -0.00    +0.002 A  
DOCKED: ATOM     33  C   UNL     1     140.764  68.574 228.648 -0.64 -0.00    +0.001 A  
DOCKED: ENDBRANCH  21  24
DOCKED: ENDBRANCH  19  20
DOCKED: ENDBRANCH   2  19
DOCKED: TORSDOF 6
DOCKED: TER
DOCKED: ENDMDL
________________________________________________________________________________


    FINAL DOCKED STATE:
    ________________________


Run:   8 / 20
Time taken for this run:   0.025s

DOCKED: MODEL        8
DOCKED: USER    Run = 8
DOCKED: USER
DOCKED: USER    Estimated Free Energy of Binding    =  -9.19 kcal/mol  [=(1)+(2)+(3)-(4)]
DOCKED: USER
DOCKED: USER    (1) Final Intermolecular Energy     = -10.98 kcal/mol
DOCKED: USER        vdW + Hbond + desolv Energy     = -10.94 kcal/mol
DOCKED: USER        Electrostatic Energy            =  -0.04 kcal/mol
DOCKED: USER        Moving Ligand-Fixed Receptor    = -10.98 kcal/mol
DOCKED: USER        Moving Ligand-Moving Receptor   =  +0.00 kcal/mol
DOCKED: USER    (2) Final Total Internal Energy     =  -2.19 kcal/mol
DOCKED: USER    (3) Torsional Free Energy           =  +1.79 kcal/mol
DOCKED: USER    (4) Unbound System's Energy         =  -2.19 kcal/mol
DOCKED: USER
DOCKED: USER
DOCKED: REMARK SMILES C[C@@H](NC(=O)CNC(=O)c1ccc2ccccc2n1)c1ccc(-c2ccccc2)cc1
DOCKED: REMARK SMILES IDX 3 1 4 2 5 3 2 5 1 6 20 7 21 8 31 9 22 10 30 11 23 12 24 13
DOCKED: REMARK SMILES IDX 25 14 29 15 26 16 28 17 27 18 6 19 7 20 8 21 9 23 10 24
DOCKED: REMARK SMILES IDX 11 25 19 26 12 27 18 28 13 29 17 30 14 31 16 32 15 33
DOCKED: REMARK H PARENT 3 4 7 22
DOCKED: USER                              x       y       z     vdW  Elec       q    Type
DOCKED: USER                           _______ _______ _______ _____ _____    ______ ____
DOCKED: ROOT
DOCKED: ATOM      1  N   UNL     1     139.988  73.349 220.700 -0.05 +0.06    -0.348 N  
DOCKED: ATOM      2  C   UNL     1     138.640  73.699 220.446 -0.06 -0.05    +0.239 C  
DOCKED: ATOM      3  O   UNL     1     138.367  74.633 219.626 -0.02 +0.06    -0.273 OA 
DOCKED: ATOM      4  H   UNL     1     140.273  72.596 221.358 +0.05 -0.02    +0.164 HD 
DOCKED: ENDROOT
DOCKED: BRANCH   1   5
DOCKED: ATOM      5  C   UNL     1     141.020  74.071 220.016 -0.13 -0.02    +0.109 C  
DOCKED: ATOM      6  C   UNL     1     142.349  73.366 220.018 -0.20 -0.01    +0.036 C  
DOCKED: BRANCH   5   7
DOCKED: ATOM      7  C   UNL     1     141.174  75.385 220.691 -0.26 +0.01    -0.026 A  
DOCKED: ATOM      8  C   UNL     1     141.791  76.451 220.068 -0.28 -0.00    +0.006 A  
DOCKED: ATOM      9  C   UNL     1     140.693  75.559 221.978 -0.34 -0.00    +0.006 A  
DOCKED: ATOM     10  C   UNL     1     141.935  77.676 220.698 -0.27 -0.01    +0.009 A  
DOCKED: ATOM     11  C   UNL     1     140.814  76.762 222.648 -0.36 -0.00    +0.009 A  
DOCKED: ATOM     12  C   UNL     1     141.441  77.805 221.979 -0.33 +0.01    -0.018 A  
DOCKED: BRANCH  12  13
DOCKED: ATOM     13  C   UNL     1     141.596  79.104 222.640 -0.51 +0.01    -0.018 A  
DOCKED: ATOM     14  C   UNL     1     140.442  79.856 222.844 -0.40 -0.00    +0.009 A  
DOCKED: ATOM     15  C   UNL     1     142.804  79.598 223.057 -0.60 -0.00    +0.009 A  
DOCKED: ATOM     16  C   UNL     1     140.475  81.089 223.456 -0.40 -0.00    +0.001 A  
DOCKED: ATOM     17  C   UNL     1     142.872  80.825 223.670 -0.66 -0.00    +0.001 A  
DOCKED: ATOM     18  C   UNL     1     141.705  81.569 223.869 -0.48 -0.00    +0.000 A  
DOCKED: ENDBRANCH  12  13
DOCKED: ENDBRANCH   5   7
DOCKED: ENDBRANCH   1   5
DOCKED: BRANCH   2  19
DOCKED: ATOM     19  C   UNL     1     137.545  72.956 221.152 -0.06 -0.05    +0.216 C  
DOCKED: BRANCH  19  20
DOCKED: ATOM     20  N   UNL     1     137.968  72.493 222.435 -0.06 +0.11    -0.342 N  
DOCKED: ATOM     21  C   UNL     1     138.790  71.322 222.489 -0.14 -0.06    +0.270 C  
DOCKED: ATOM     22  H   UNL     1     137.689  72.990 223.327 -0.49 -0.11    +0.164 HD 
DOCKED: ATOM     23  O   UNL     1     139.100  70.758 221.413 -0.07 +0.05    -0.268 OA 
DOCKED: BRANCH  21  24
DOCKED: ATOM     24  C   UNL     1     139.241  70.817 223.782 -0.28 -0.03    +0.128 A  
DOCKED: ATOM     25  C   UNL     1     139.041  69.486 224.077 -0.30 -0.01    +0.035 A  
DOCKED: ATOM     26  N   UNL     1     139.845  71.584 224.704 -0.24 +0.05    -0.243 NA 
DOCKED: ATOM     27  C   UNL     1     139.431  68.909 225.270 -0.43 -0.00    +0.013 A  
DOCKED: ATOM     28  C   UNL     1     140.257  71.102 225.895 -0.51 -0.01    +0.071 A  
DOCKED: ATOM     29  C   UNL     1     140.053  69.756 226.191 -0.51 -0.00    +0.000 A  
DOCKED: ATOM     30  C   UNL     1     140.875  71.932 226.816 -0.70 -0.01    +0.029 A  
DOCKED: ATOM     31  C   UNL     1     140.470  69.257 227.402 -0.61 -0.00    +0.010 A  
DOCKED: ATOM     32  C   UNL     1     141.279  71.380 228.027 -0.70 -0.00    +0.002 A  
DOCKED: ATOM     33  C   UNL     1     141.091  70.063 228.341 -0.56 -0.00    +0.001 A  
DOCKED: ENDBRANCH  21  24
DOCKED: ENDBRANCH  19  20
DOCKED: ENDBRANCH   2  19
DOCKED: TORSDOF 6
DOCKED: TER
DOCKED: ENDMDL
________________________________________________________________________________


    FINAL DOCKED STATE:
    ________________________


Run:   9 / 20
Time taken for this run:   0.025s

DOCKED: MODEL        9
DOCKED: USER    Run = 9
DOCKED: USER
DOCKED: USER    Estimated Free Energy of Binding    =  -9.60 kcal/mol  [=(1)+(2)+(3)-(4)]
DOCKED: USER
DOCKED: USER    (1) Final Intermolecular Energy     = -11.39 kcal/mol
DOCKED: USER        vdW + Hbond + desolv Energy     = -11.35 kcal/mol
DOCKED: USER        Electrostatic Energy            =  -0.04 kcal/mol
DOCKED: USER        Moving Ligand-Fixed Receptor    = -11.39 kcal/mol
DOCKED: USER        Moving Ligand-Moving Receptor   =  +0.00 kcal/mol
DOCKED: USER    (2) Final Total Internal Energy     =  -1.52 kcal/mol
DOCKED: USER    (3) Torsional Free Energy           =  +1.79 kcal/mol
DOCKED: USER    (4) Unbound System's Energy         =  -1.52 kcal/mol
DOCKED: USER
DOCKED: USER
DOCKED: REMARK SMILES C[C@@H](NC(=O)CNC(=O)c1ccc2ccccc2n1)c1ccc(-c2ccccc2)cc1
DOCKED: REMARK SMILES IDX 3 1 4 2 5 3 2 5 1 6 20 7 21 8 31 9 22 10 30 11 23 12 24 13
DOCKED: REMARK SMILES IDX 25 14 29 15 26 16 28 17 27 18 6 19 7 20 8 21 9 23 10 24
DOCKED: REMARK SMILES IDX 11 25 19 26 12 27 18 28 13 29 17 30 14 31 16 32 15 33
DOCKED: REMARK H PARENT 3 4 7 22
DOCKED: USER                              x       y       z     vdW  Elec       q    Type
DOCKED: USER                           _______ _______ _______ _____ _____    ______ ____
DOCKED: ROOT
DOCKED: ATOM      1  N   UNL     1     137.424  73.643 222.243 -0.04 +0.12    -0.348 N  
DOCKED: ATOM      2  C   UNL     1     137.933  73.310 220.965 -0.07 -0.05    +0.239 C  
DOCKED: ATOM      3  O   UNL     1     137.830  74.135 220.003 -0.02 +0.06    -0.273 OA 
DOCKED: ATOM      4  H   UNL     1     137.479  73.011 223.067 -0.46 -0.08    +0.164 HD 
DOCKED: ENDROOT
DOCKED: BRANCH   1   5
DOCKED: ATOM      5  C   UNL     1     136.797  74.920 222.416 -0.15 -0.03    +0.109 C  
DOCKED: ATOM      6  C   UNL     1     135.858  75.284 221.299 -0.07 -0.01    +0.036 C  
DOCKED: BRANCH   5   7
DOCKED: ATOM      7  C   UNL     1     137.872  75.943 222.490 -0.26 +0.01    -0.026 A  
DOCKED: ATOM      8  C   UNL     1     137.588  77.277 222.705 -0.26 -0.00    +0.006 A  
DOCKED: ATOM      9  C   UNL     1     139.195  75.565 222.340 -0.32 -0.00    +0.006 A  
DOCKED: ATOM     10  C   UNL     1     138.589  78.230 222.774 -0.29 -0.00    +0.009 A  
DOCKED: ATOM     11  C   UNL     1     140.230  76.479 222.401 -0.37 -0.00    +0.009 A  
DOCKED: ATOM     12  C   UNL     1     139.894  77.809 222.620 -0.35 +0.00    -0.018 A  
DOCKED: BRANCH  12  13
DOCKED: ATOM     13  C   UNL     1     140.950  78.823 222.694 -0.45 +0.01    -0.018 A  
DOCKED: ATOM     14  C   UNL     1     141.254  79.511 221.522 -0.36 -0.00    +0.009 A  
DOCKED: ATOM     15  C   UNL     1     141.634  79.116 223.843 -0.61 -0.00    +0.009 A  
DOCKED: ATOM     16  C   UNL     1     142.228  80.482 221.480 -0.42 -0.00    +0.001 A  
DOCKED: ATOM     17  C   UNL     1     142.612  80.080 223.836 -0.63 -0.00    +0.001 A  
DOCKED: ATOM     18  C   UNL     1     142.907  80.763 222.653 -0.49 -0.00    +0.000 A  
DOCKED: ENDBRANCH  12  13
DOCKED: ENDBRANCH   5   7
DOCKED: ENDBRANCH   1   5
DOCKED: BRANCH   2  19
DOCKED: ATOM     19  C   UNL     1     138.592  71.978 220.764 -0.05 -0.04    +0.216 C  
DOCKED: BRANCH  19  20
DOCKED: ATOM     20  N   UNL     1     138.809  71.306 222.006 -0.06 +0.07    -0.342 N  
DOCKED: ATOM     21  C   UNL     1     139.761  71.868 222.915 -0.22 -0.05    +0.270 C  
DOCKED: ATOM     22  H   UNL     1     138.289  70.420 222.259 +0.05 -0.03    +0.164 HD 
DOCKED: ATOM     23  O   UNL     1     140.360  72.918 222.584 -0.65 +0.01    -0.268 OA 
DOCKED: BRANCH  21  24
DOCKED: ATOM     24  C   UNL     1     140.011  71.210 224.194 -0.37 -0.02    +0.128 A  
DOCKED: ATOM     25  C   UNL     1     140.751  71.877 225.146 -0.37 -0.00    +0.035 A  
DOCKED: ATOM     26  N   UNL     1     139.557  69.983 224.494 -0.19 +0.04    -0.243 NA 
DOCKED: ATOM     27  C   UNL     1     141.043  71.344 226.386 -0.68 -0.00    +0.013 A  
DOCKED: ATOM     28  C   UNL     1     139.796  69.388 225.682 -0.41 -0.01    +0.071 A  
DOCKED: ATOM     29  C   UNL     1     140.544  70.064 226.642 -0.57 -0.00    +0.000 A  
DOCKED: ATOM     30  C   UNL     1     139.306  68.119 225.946 -0.53 -0.00    +0.029 A  
DOCKED: ATOM     31  C   UNL     1     140.793  69.466 227.854 -0.61 -0.00    +0.010 A  
DOCKED: ATOM     32  C   UNL     1     139.584  67.556 227.187 -0.46 -0.00    +0.002 A  
DOCKED: ATOM     33  C   UNL     1     140.315  68.200 228.146 -0.62 -0.00    +0.001 A  
DOCKED: ENDBRANCH  21  24
DOCKED: ENDBRANCH  19  20
DOCKED: ENDBRANCH   2  19
DOCKED: TORSDOF 6
DOCKED: TER
DOCKED: ENDMDL
________________________________________________________________________________


    FINAL DOCKED STATE:
    ________________________


Run:   10 / 20
Time taken for this run:   0.025s

DOCKED: MODEL        10
DOCKED: USER    Run = 10
DOCKED: USER
DOCKED: USER    Estimated Free Energy of Binding    =  -9.40 kcal/mol  [=(1)+(2)+(3)-(4)]
DOCKED: USER
DOCKED: USER    (1) Final Intermolecular Energy     = -11.19 kcal/mol
DOCKED: USER        vdW + Hbond + desolv Energy     = -11.14 kcal/mol
DOCKED: USER        Electrostatic Energy            =  -0.05 kcal/mol
DOCKED: USER        Moving Ligand-Fixed Receptor    = -11.19 kcal/mol
DOCKED: USER        Moving Ligand-Moving Receptor   =  +0.00 kcal/mol
DOCKED: USER    (2) Final Total Internal Energy     =  -2.15 kcal/mol
DOCKED: USER    (3) Torsional Free Energy           =  +1.79 kcal/mol
DOCKED: USER    (4) Unbound System's Energy         =  -2.15 kcal/mol
DOCKED: USER
DOCKED: USER
DOCKED: REMARK SMILES C[C@@H](NC(=O)CNC(=O)c1ccc2ccccc2n1)c1ccc(-c2ccccc2)cc1
DOCKED: REMARK SMILES IDX 3 1 4 2 5 3 2 5 1 6 20 7 21 8 31 9 22 10 30 11 23 12 24 13
DOCKED: REMARK SMILES IDX 25 14 29 15 26 16 28 17 27 18 6 19 7 20 8 21 9 23 10 24
DOCKED: REMARK SMILES IDX 11 25 19 26 12 27 18 28 13 29 17 30 14 31 16 32 15 33
DOCKED: REMARK H PARENT 3 4 7 22
DOCKED: USER                              x       y       z     vdW  Elec       q    Type
DOCKED: USER                           _______ _______ _______ _____ _____    ______ ____
DOCKED: ROOT
DOCKED: ATOM      1  N   UNL     1     140.182  73.299 220.760 -0.06 +0.06    -0.348 N  
DOCKED: ATOM      2  C   UNL     1     138.808  73.443 220.452 -0.06 -0.05    +0.239 C  
DOCKED: ATOM      3  O   UNL     1     138.438  74.260 219.550 -0.01 +0.06    -0.273 OA 
DOCKED: ATOM      4  H   UNL     1     140.544  72.649 221.486 +0.05 -0.02    +0.164 HD 
DOCKED: ENDROOT
DOCKED: BRANCH   1   5
DOCKED: ATOM      5  C   UNL     1     141.130  74.093 220.034 -0.14 -0.03    +0.109 C  
DOCKED: ATOM      6  C   UNL     1     142.503  73.483 219.975 -0.21 -0.01    +0.036 C  
DOCKED: BRANCH   5   7
DOCKED: ATOM      7  C   UNL     1     141.221  75.413 220.708 -0.27 +0.01    -0.026 A  
DOCKED: ATOM      8  C   UNL     1     140.716  75.615 221.977 -0.36 -0.00    +0.006 A  
DOCKED: ATOM      9  C   UNL     1     141.822  76.479 220.059 -0.28 -0.00    +0.006 A  
DOCKED: ATOM     10  C   UNL     1     140.800  76.846 222.605 -0.38 -0.00    +0.009 A  
DOCKED: ATOM     11  C   UNL     1     141.930  77.726 220.644 -0.28 -0.01    +0.009 A  
DOCKED: ATOM     12  C   UNL     1     141.408  77.879 221.922 -0.36 +0.01    -0.018 A  
DOCKED: BRANCH  12  13
DOCKED: ATOM     13  C   UNL     1     141.494  79.180 222.592 -0.49 +0.01    -0.018 A  
DOCKED: ATOM     14  C   UNL     1     142.751  79.586 223.033 -0.60 -0.00    +0.009 A  
DOCKED: ATOM     15  C   UNL     1     140.412  79.994 222.798 -0.39 -0.00    +0.009 A  
DOCKED: ATOM     16  C   UNL     1     142.943  80.789 223.674 -0.66 -0.00    +0.001 A  
DOCKED: ATOM     17  C   UNL     1     140.570  81.202 223.434 -0.39 -0.00    +0.001 A  
DOCKED: ATOM     18  C   UNL     1     141.837  81.597 223.871 -0.53 -0.00    +0.000 A  
DOCKED: ENDBRANCH  12  13
DOCKED: ENDBRANCH   5   7
DOCKED: ENDBRANCH   1   5
DOCKED: BRANCH   2  19
DOCKED: ATOM     19  C   UNL     1     137.800  72.623 221.201 -0.07 -0.05    +0.216 C  
DOCKED: BRANCH  19  20
DOCKED: ATOM     20  N   UNL     1     138.239  72.336 222.530 -0.06 +0.11    -0.342 N  
DOCKED: ATOM     21  C   UNL     1     139.210  71.299 222.708 -0.17 -0.06    +0.270 C  
DOCKED: ATOM     22  H   UNL     1     137.867  72.866 223.367 -0.47 -0.11    +0.164 HD 
DOCKED: ATOM     23  O   UNL     1     139.629  70.691 221.695 -0.10 +0.05    -0.268 OA 
DOCKED: BRANCH  21  24
DOCKED: ATOM     24  C   UNL     1     139.683  70.977 224.050 -0.33 -0.02    +0.128 A  
DOCKED: ATOM     25  C   UNL     1     140.486  71.886 224.704 -0.34 -0.01    +0.035 A  
DOCKED: ATOM     26  N   UNL     1     139.375  69.835 224.687 -0.19 +0.04    -0.243 NA 
DOCKED: ATOM     27  C   UNL     1     140.984  71.677 225.975 -0.61 -0.00    +0.013 A  
DOCKED: ATOM     28  C   UNL     1     139.819  69.551 225.929 -0.42 -0.01    +0.071 A  
DOCKED: ATOM     29  C   UNL     1     140.631  70.472 226.587 -0.60 -0.00    +0.000 A  
DOCKED: ATOM     30  C   UNL     1     139.476  68.360 226.546 -0.56 -0.00    +0.029 A  
DOCKED: ATOM     31  C   UNL     1     141.089  70.191 227.852 -0.60 -0.00    +0.010 A  
DOCKED: ATOM     32  C   UNL     1     139.963  68.121 227.826 -0.60 -0.00    +0.002 A  
DOCKED: ATOM     33  C   UNL     1     140.760  69.008 228.493 -0.60 -0.00    +0.001 A  
DOCKED: ENDBRANCH  21  24
DOCKED: ENDBRANCH  19  20
DOCKED: ENDBRANCH   2  19
DOCKED: TORSDOF 6
DOCKED: TER
DOCKED: ENDMDL
________________________________________________________________________________


    FINAL DOCKED STATE:
    ________________________


Run:   11 / 20
Time taken for this run:   0.025s

DOCKED: MODEL        11
DOCKED: USER    Run = 11
DOCKED: USER
DOCKED: USER    Estimated Free Energy of Binding    =  -9.37 kcal/mol  [=(1)+(2)+(3)-(4)]
DOCKED: USER
DOCKED: USER    (1) Final Intermolecular Energy     = -11.16 kcal/mol
DOCKED: USER        vdW + Hbond + desolv Energy     = -11.11 kcal/mol
DOCKED: USER        Electrostatic Energy            =  -0.06 kcal/mol
DOCKED: USER        Moving Ligand-Fixed Receptor    = -11.16 kcal/mol
DOCKED: USER        Moving Ligand-Moving Receptor   =  +0.00 kcal/mol
DOCKED: USER    (2) Final Total Internal Energy     =  -2.17 kcal/mol
DOCKED: USER    (3) Torsional Free Energy           =  +1.79 kcal/mol
DOCKED: USER    (4) Unbound System's Energy         =  -2.17 kcal/mol
DOCKED: USER
DOCKED: USER
DOCKED: REMARK SMILES C[C@@H](NC(=O)CNC(=O)c1ccc2ccccc2n1)c1ccc(-c2ccccc2)cc1
DOCKED: REMARK SMILES IDX 3 1 4 2 5 3 2 5 1 6 20 7 21 8 31 9 22 10 30 11 23 12 24 13
DOCKED: REMARK SMILES IDX 25 14 29 15 26 16 28 17 27 18 6 19 7 20 8 21 9 23 10 24
DOCKED: REMARK SMILES IDX 11 25 19 26 12 27 18 28 13 29 17 30 14 31 16 32 15 33
DOCKED: REMARK H PARENT 3 4 7 22
DOCKED: USER                              x       y       z     vdW  Elec       q    Type
DOCKED: USER                           _______ _______ _______ _____ _____    ______ ____
DOCKED: ROOT
DOCKED: ATOM      1  N   UNL     1     140.318  73.333 220.681 -0.06 +0.06    -0.348 N  
DOCKED: ATOM      2  C   UNL     1     138.944  73.565 220.436 -0.06 -0.05    +0.239 C  
DOCKED: ATOM      3  O   UNL     1     138.586  74.462 219.607 -0.02 +0.06    -0.273 OA 
DOCKED: ATOM      4  H   UNL     1     140.671  72.616 221.346 +0.05 -0.02    +0.164 HD 
DOCKED: ENDROOT
DOCKED: BRANCH   1   5
DOCKED: ATOM      5  C   UNL     1     141.281  74.128 219.976 -0.14 -0.03    +0.109 C  
DOCKED: ATOM      6  C   UNL     1     142.658  73.525 219.955 -0.23 -0.01    +0.036 C  
DOCKED: BRANCH   5   7
DOCKED: ATOM      7  C   UNL     1     141.347  75.452 220.645 -0.27 +0.01    -0.026 A  
DOCKED: ATOM      8  C   UNL     1     141.814  76.573 219.987 -0.28 -0.00    +0.006 A  
DOCKED: ATOM      9  C   UNL     1     140.936  75.582 221.961 -0.34 -0.00    +0.006 A  
DOCKED: ATOM     10  C   UNL     1     141.877  77.807 220.611 -0.31 -0.01    +0.009 A  
DOCKED: ATOM     11  C   UNL     1     140.979  76.792 222.627 -0.36 -0.00    +0.009 A  
DOCKED: ATOM     12  C   UNL     1     141.456  77.891 221.922 -0.35 +0.01    -0.018 A  
DOCKED: BRANCH  12  13
DOCKED: ATOM     13  C   UNL     1     141.525  79.200 222.577 -0.49 +0.01    -0.018 A  
DOCKED: ATOM     14  C   UNL     1     142.749  79.574 223.124 -0.59 -0.00    +0.009 A  
DOCKED: ATOM     15  C   UNL     1     140.457  80.053 222.671 -0.38 -0.00    +0.009 A  
DOCKED: ATOM     16  C   UNL     1     142.924  80.782 223.761 -0.67 -0.00    +0.001 A  
DOCKED: ATOM     17  C   UNL     1     140.597  81.266 223.300 -0.39 -0.00    +0.001 A  
DOCKED: ATOM     18  C   UNL     1     141.832  81.628 223.844 -0.52 -0.00    +0.000 A  
DOCKED: ENDBRANCH  12  13
DOCKED: ENDBRANCH   5   7
DOCKED: ENDBRANCH   1   5
DOCKED: BRANCH   2  19
DOCKED: ATOM     19  C   UNL     1     137.922  72.745 221.164 -0.07 -0.05    +0.216 C  
DOCKED: BRANCH  19  20
DOCKED: ATOM     20  N   UNL     1     138.347  72.432 222.492 -0.06 +0.11    -0.342 N  
DOCKED: ATOM     21  C   UNL     1     139.269  71.350 222.663 -0.17 -0.05    +0.270 C  
DOCKED: ATOM     22  H   UNL     1     138.001  72.974 223.332 -0.47 -0.12    +0.164 HD 
DOCKED: ATOM     23  O   UNL     1     139.659  70.727 221.647 -0.10 +0.04    -0.268 OA 
DOCKED: BRANCH  21  24
DOCKED: ATOM     24  C   UNL     1     139.727  70.998 224.004 -0.33 -0.02    +0.128 A  
DOCKED: ATOM     25  C   UNL     1     140.517  71.896 224.687 -0.33 -0.01    +0.035 A  
DOCKED: ATOM     26  N   UNL     1     139.418  69.841 224.609 -0.19 +0.04    -0.243 NA 
DOCKED: ATOM     27  C   UNL     1     141.002  71.661 225.960 -0.61 -0.00    +0.013 A  
DOCKED: ATOM     28  C   UNL     1     139.849  69.530 225.850 -0.42 -0.01    +0.071 A  
DOCKED: ATOM     29  C   UNL     1     140.648  70.440 226.539 -0.59 -0.00    +0.000 A  
DOCKED: ATOM     30  C   UNL     1     139.505  68.323 226.435 -0.56 -0.00    +0.029 A  
DOCKED: ATOM     31  C   UNL     1     141.092  70.132 227.803 -0.59 -0.00    +0.010 A  
DOCKED: ATOM     32  C   UNL     1     139.978  68.057 227.715 -0.57 -0.00    +0.002 A  
DOCKED: ATOM     33  C   UNL     1     140.762  68.933 228.412 -0.63 -0.00    +0.001 A  
DOCKED: ENDBRANCH  21  24
DOCKED: ENDBRANCH  19  20
DOCKED: ENDBRANCH   2  19
DOCKED: TORSDOF 6
DOCKED: TER
DOCKED: ENDMDL
________________________________________________________________________________


    FINAL DOCKED STATE:
    ________________________


Run:   12 / 20
Time taken for this run:   0.025s

DOCKED: MODEL        12
DOCKED: USER    Run = 12
DOCKED: USER
DOCKED: USER    Estimated Free Energy of Binding    =  -8.81 kcal/mol  [=(1)+(2)+(3)-(4)]
DOCKED: USER
DOCKED: USER    (1) Final Intermolecular Energy     = -10.60 kcal/mol
DOCKED: USER        vdW + Hbond + desolv Energy     = -10.55 kcal/mol
DOCKED: USER        Electrostatic Energy            =  -0.05 kcal/mol
DOCKED: USER        Moving Ligand-Fixed Receptor    = -10.60 kcal/mol
DOCKED: USER        Moving Ligand-Moving Receptor   =  +0.00 kcal/mol
DOCKED: USER    (2) Final Total Internal Energy     =  -2.35 kcal/mol
DOCKED: USER    (3) Torsional Free Energy           =  +1.79 kcal/mol
DOCKED: USER    (4) Unbound System's Energy         =  -2.35 kcal/mol
DOCKED: USER
DOCKED: USER
DOCKED: REMARK SMILES C[C@@H](NC(=O)CNC(=O)c1ccc2ccccc2n1)c1ccc(-c2ccccc2)cc1
DOCKED: REMARK SMILES IDX 3 1 4 2 5 3 2 5 1 6 20 7 21 8 31 9 22 10 30 11 23 12 24 13
DOCKED: REMARK SMILES IDX 25 14 29 15 26 16 28 17 27 18 6 19 7 20 8 21 9 23 10 24
DOCKED: REMARK SMILES IDX 11 25 19 26 12 27 18 28 13 29 17 30 14 31 16 32 15 33
DOCKED: REMARK H PARENT 3 4 7 22
DOCKED: USER                              x       y       z     vdW  Elec       q    Type
DOCKED: USER                           _______ _______ _______ _____ _____    ______ ____
DOCKED: ROOT
DOCKED: ATOM      1  N   UNL     1     138.114  74.237 222.032 -0.07 +0.11    -0.348 N  
DOCKED: ATOM      2  C   UNL     1     137.893  73.369 220.936 -0.06 -0.05    +0.239 C  
DOCKED: ATOM      3  O   UNL     1     136.917  73.576 220.146 -0.01 +0.05    -0.273 OA 
DOCKED: ATOM      4  H   UNL     1     138.893  74.120 222.711 -0.55 -0.06    +0.164 HD 
DOCKED: ENDROOT
DOCKED: BRANCH   1   5
DOCKED: ATOM      5  C   UNL     1     137.218  75.340 222.221 -0.18 -0.03    +0.109 C  
DOCKED: ATOM      6  C   UNL     1     137.898  76.591 222.704 -0.28 -0.01    +0.036 C  
DOCKED: BRANCH   5   7
DOCKED: ATOM      7  C   UNL     1     136.203  74.928 223.224 -0.21 +0.01    -0.026 A  
DOCKED: ATOM      8  C   UNL     1     135.716  73.637 223.273 -0.19 -0.00    +0.006 A  
DOCKED: ATOM      9  C   UNL     1     135.722  75.851 224.138 -0.27 -0.00    +0.006 A  
DOCKED: ATOM     10  C   UNL     1     134.769  73.254 224.207 -0.22 -0.00    +0.009 A  
DOCKED: ATOM     11  C   UNL     1     134.778  75.517 225.089 -0.36 -0.00    +0.009 A  
DOCKED: ATOM     12  C   UNL     1     134.319  74.205 225.099 -0.30 +0.00    -0.018 A  
DOCKED: BRANCH  12  13
DOCKED: ATOM     13  C   UNL     1     133.317  73.793 226.086 -0.32 +0.00    -0.018 A  
DOCKED: ATOM     14  C   UNL     1     132.654  74.803 226.779 -0.37 -0.00    +0.009 A  
DOCKED: ATOM     15  C   UNL     1     133.012  72.484 226.348 -0.34 -0.00    +0.009 A  
DOCKED: ATOM     16  C   UNL     1     131.695  74.526 227.727 -0.39 -0.00    +0.001 A  
DOCKED: ATOM     17  C   UNL     1     132.059  72.174 227.288 -0.40 -0.00    +0.001 A  
DOCKED: ATOM     18  C   UNL     1     131.402  73.197 227.976 -0.32 -0.00    +0.000 A  
DOCKED: ENDBRANCH  12  13
DOCKED: ENDBRANCH   5   7
DOCKED: ENDBRANCH   1   5
DOCKED: BRANCH   2  19
DOCKED: ATOM     19  C   UNL     1     138.818  72.209 220.722 -0.06 -0.04    +0.216 C  
DOCKED: BRANCH  19  20
DOCKED: ATOM     20  N   UNL     1     139.004  71.456 221.923 -0.07 +0.07    -0.342 N  
DOCKED: ATOM     21  C   UNL     1     139.893  71.983 222.914 -0.21 -0.05    +0.270 C  
DOCKED: ATOM     22  H   UNL     1     138.506  70.537 222.088 +0.04 -0.03    +0.164 HD 
DOCKED: ATOM     23  O   UNL     1     140.467  73.074 222.685 -0.67 -0.00    -0.268 OA 
DOCKED: BRANCH  21  24
DOCKED: ATOM     24  C   UNL     1     140.110  71.243 224.153 -0.36 -0.02    +0.128 A  
DOCKED: ATOM     25  C   UNL     1     140.786  71.862 225.182 -0.37 -0.00    +0.035 A  
DOCKED: ATOM     26  N   UNL     1     139.684  69.984 224.345 -0.18 +0.04    -0.243 NA 
DOCKED: ATOM     27  C   UNL     1     141.042  71.251 226.394 -0.67 -0.00    +0.013 A  
DOCKED: ATOM     28  C   UNL     1     139.892  69.313 225.498 -0.40 -0.01    +0.071 A  
DOCKED: ATOM     29  C   UNL     1     140.576  69.942 226.536 -0.56 -0.00    +0.000 A  
DOCKED: ATOM     30  C   UNL     1     139.434  68.015 225.651 -0.51 -0.00    +0.029 A  
DOCKED: ATOM     31  C   UNL     1     140.792  69.266 227.713 -0.61 -0.00    +0.010 A  
DOCKED: ATOM     32  C   UNL     1     139.678  67.374 226.860 -0.57 -0.00    +0.002 A  
DOCKED: ATOM     33  C   UNL     1     140.345  67.968 227.894 -0.50 -0.00    +0.001 A  
DOCKED: ENDBRANCH  21  24
DOCKED: ENDBRANCH  19  20
DOCKED: ENDBRANCH   2  19
DOCKED: TORSDOF 6
DOCKED: TER
DOCKED: ENDMDL
________________________________________________________________________________


    FINAL DOCKED STATE:
    ________________________


Run:   13 / 20
Time taken for this run:   0.025s

DOCKED: MODEL        13
DOCKED: USER    Run = 13
DOCKED: USER
DOCKED: USER    Estimated Free Energy of Binding    =  -8.84 kcal/mol  [=(1)+(2)+(3)-(4)]
DOCKED: USER
DOCKED: USER    (1) Final Intermolecular Energy     = -10.63 kcal/mol
DOCKED: USER        vdW + Hbond + desolv Energy     = -10.58 kcal/mol
DOCKED: USER        Electrostatic Energy            =  -0.06 kcal/mol
DOCKED: USER        Moving Ligand-Fixed Receptor    = -10.63 kcal/mol
DOCKED: USER        Moving Ligand-Moving Receptor   =  +0.00 kcal/mol
DOCKED: USER    (2) Final Total Internal Energy     =  -2.38 kcal/mol
DOCKED: USER    (3) Torsional Free Energy           =  +1.79 kcal/mol
DOCKED: USER    (4) Unbound System's Energy         =  -2.38 kcal/mol
DOCKED: USER
DOCKED: USER
DOCKED: REMARK SMILES C[C@@H](NC(=O)CNC(=O)c1ccc2ccccc2n1)c1ccc(-c2ccccc2)cc1
DOCKED: REMARK SMILES IDX 3 1 4 2 5 3 2 5 1 6 20 7 21 8 31 9 22 10 30 11 23 12 24 13
DOCKED: REMARK SMILES IDX 25 14 29 15 26 16 28 17 27 18 6 19 7 20 8 21 9 23 10 24
DOCKED: REMARK SMILES IDX 11 25 19 26 12 27 18 28 13 29 17 30 14 31 16 32 15 33
DOCKED: REMARK H PARENT 3 4 7 22
DOCKED: USER                              x       y       z     vdW  Elec       q    Type
DOCKED: USER                           _______ _______ _______ _____ _____    ______ ____
DOCKED: ROOT
DOCKED: ATOM      1  N   UNL     1     138.041  74.275 222.051 -0.06 +0.11    -0.348 N  
DOCKED: ATOM      2  C   UNL     1     137.859  73.434 220.927 -0.06 -0.05    +0.239 C  
DOCKED: ATOM      3  O   UNL     1     136.919  73.667 220.102 -0.01 +0.05    -0.273 OA 
DOCKED: ATOM      4  H   UNL     1     138.790  74.136 222.759 -0.56 -0.07    +0.164 HD 
DOCKED: ENDROOT
DOCKED: BRANCH   1   5
DOCKED: ATOM      5  C   UNL     1     137.147  75.382 222.226 -0.18 -0.03    +0.109 C  
DOCKED: ATOM      6  C   UNL     1     137.830  76.639 222.688 -0.28 -0.01    +0.036 C  
DOCKED: BRANCH   5   7
DOCKED: ATOM      7  C   UNL     1     136.136  74.987 223.240 -0.22 +0.01    -0.026 A  
DOCKED: ATOM      8  C   UNL     1     135.518  75.920 224.048 -0.28 -0.00    +0.006 A  
DOCKED: ATOM      9  C   UNL     1     135.796  73.653 223.392 -0.20 -0.00    +0.006 A  
DOCKED: ATOM     10  C   UNL     1     134.576  75.552 224.994 -0.33 -0.00    +0.009 A  
DOCKED: ATOM     11  C   UNL     1     134.862  73.236 224.321 -0.23 -0.00    +0.009 A  
DOCKED: ATOM     12  C   UNL     1     134.267  74.213 225.110 -0.30 +0.00    -0.018 A  
DOCKED: BRANCH  12  13
DOCKED: ATOM     13  C   UNL     1     133.269  73.829 226.113 -0.32 +0.00    -0.018 A  
DOCKED: ATOM     14  C   UNL     1     132.972  72.474 226.228 -0.32 -0.00    +0.009 A  
DOCKED: ATOM     15  C   UNL     1     132.631  74.730 226.924 -0.38 -0.00    +0.009 A  
DOCKED: ATOM     16  C   UNL     1     132.050  72.005 227.137 -0.39 -0.00    +0.001 A  
DOCKED: ATOM     17  C   UNL     1     131.706  74.296 227.842 -0.39 -0.00    +0.001 A  
DOCKED: ATOM     18  C   UNL     1     131.418  72.932 227.947 -0.35 -0.00    +0.000 A  
DOCKED: ENDBRANCH  12  13
DOCKED: ENDBRANCH   5   7
DOCKED: ENDBRANCH   1   5
DOCKED: BRANCH   2  19
DOCKED: ATOM     19  C   UNL     1     138.783  72.271 220.726 -0.06 -0.04    +0.216 C  
DOCKED: BRANCH  19  20
DOCKED: ATOM     20  N   UNL     1     138.949  71.517 221.929 -0.06 +0.07    -0.342 N  
DOCKED: ATOM     21  C   UNL     1     139.856  72.020 222.916 -0.21 -0.05    +0.270 C  
DOCKED: ATOM     22  H   UNL     1     138.425  70.614 222.098 +0.04 -0.03    +0.164 HD 
DOCKED: ATOM     23  O   UNL     1     140.462  73.092 222.683 -0.67 -0.00    -0.268 OA 
DOCKED: BRANCH  21  24
DOCKED: ATOM     24  C   UNL     1     140.053  71.278 224.157 -0.36 -0.02    +0.128 A  
DOCKED: ATOM     25  C   UNL     1     140.720  71.893 225.195 -0.38 -0.00    +0.035 A  
DOCKED: ATOM     26  N   UNL     1     139.618  70.022 224.344 -0.18 +0.04    -0.243 NA 
DOCKED: ATOM     27  C   UNL     1     140.958  71.280 226.409 -0.67 -0.00    +0.013 A  
DOCKED: ATOM     28  C   UNL     1     139.807  69.349 225.498 -0.40 -0.01    +0.071 A  
DOCKED: ATOM     29  C   UNL     1     140.482  69.973 226.546 -0.55 -0.00    +0.000 A  
DOCKED: ATOM     30  C   UNL     1     139.340  68.054 225.645 -0.51 -0.00    +0.029 A  
DOCKED: ATOM     31  C   UNL     1     140.680  69.296 227.724 -0.62 -0.00    +0.010 A  
DOCKED: ATOM     32  C   UNL     1     139.565  67.410 226.857 -0.59 -0.00    +0.002 A  
DOCKED: ATOM     33  C   UNL     1     140.223  68.000 227.899 -0.51 -0.00    +0.001 A  
DOCKED: ENDBRANCH  21  24
DOCKED: ENDBRANCH  19  20
DOCKED: ENDBRANCH   2  19
DOCKED: TORSDOF 6
DOCKED: TER
DOCKED: ENDMDL
________________________________________________________________________________


    FINAL DOCKED STATE:
    ________________________


Run:   14 / 20
Time taken for this run:   0.025s

DOCKED: MODEL        14
DOCKED: USER    Run = 14
DOCKED: USER
DOCKED: USER    Estimated Free Energy of Binding    =  -9.50 kcal/mol  [=(1)+(2)+(3)-(4)]
DOCKED: USER
DOCKED: USER    (1) Final Intermolecular Energy     = -11.29 kcal/mol
DOCKED: USER        vdW + Hbond + desolv Energy     = -11.26 kcal/mol
DOCKED: USER        Electrostatic Energy            =  -0.04 kcal/mol
DOCKED: USER        Moving Ligand-Fixed Receptor    = -11.29 kcal/mol
DOCKED: USER        Moving Ligand-Moving Receptor   =  +0.00 kcal/mol
DOCKED: USER    (2) Final Total Internal Energy     =  -1.53 kcal/mol
DOCKED: USER    (3) Torsional Free Energy           =  +1.79 kcal/mol
DOCKED: USER    (4) Unbound System's Energy         =  -1.53 kcal/mol
DOCKED: USER
DOCKED: USER
DOCKED: REMARK SMILES C[C@@H](NC(=O)CNC(=O)c1ccc2ccccc2n1)c1ccc(-c2ccccc2)cc1
DOCKED: REMARK SMILES IDX 3 1 4 2 5 3 2 5 1 6 20 7 21 8 31 9 22 10 30 11 23 12 24 13
DOCKED: REMARK SMILES IDX 25 14 29 15 26 16 28 17 27 18 6 19 7 20 8 21 9 23 10 24
DOCKED: REMARK SMILES IDX 11 25 19 26 12 27 18 28 13 29 17 30 14 31 16 32 15 33
DOCKED: REMARK H PARENT 3 4 7 22
DOCKED: USER                              x       y       z     vdW  Elec       q    Type
DOCKED: USER                           _______ _______ _______ _____ _____    ______ ____
DOCKED: ROOT
DOCKED: ATOM      1  N   UNL     1     138.727  73.517 221.790 -0.10 +0.09    -0.348 N  
DOCKED: ATOM      2  C   UNL     1     137.552  72.851 221.366 -0.07 -0.05    +0.239 C  
DOCKED: ATOM      3  O   UNL     1     137.311  72.712 220.125 -0.01 +0.05    -0.273 OA 
DOCKED: ATOM      4  H   UNL     1     138.978  73.662 222.789 -0.52 -0.07    +0.164 HD 
DOCKED: ENDROOT
DOCKED: BRANCH   1   5
DOCKED: ATOM      5  C   UNL     1     139.623  74.023 220.792 -0.15 -0.02    +0.109 C  
DOCKED: ATOM      6  C   UNL     1     140.826  73.149 220.566 -0.18 -0.01    +0.036 C  
DOCKED: BRANCH   5   7
DOCKED: ATOM      7  C   UNL     1     140.082  75.364 221.236 -0.27 +0.01    -0.026 A  
DOCKED: ATOM      8  C   UNL     1     141.170  75.985 220.657 -0.27 -0.00    +0.006 A  
DOCKED: ATOM      9  C   UNL     1     139.412  76.019 222.256 -0.34 -0.00    +0.006 A  
DOCKED: ATOM     10  C   UNL     1     141.599  77.234 221.071 -0.22 -0.01    +0.009 A  
DOCKED: ATOM     11  C   UNL     1     139.801  77.267 222.704 -0.29 -0.00    +0.009 A  
DOCKED: ATOM     12  C   UNL     1     140.902  77.851 222.090 -0.40 +0.01    -0.018 A  
DOCKED: BRANCH  12  13
DOCKED: ATOM     13  C   UNL     1     141.360  79.174 222.524 -0.47 +0.01    -0.018 A  
DOCKED: ATOM     14  C   UNL     1     140.909  80.273 221.798 -0.34 -0.00    +0.009 A  
DOCKED: ATOM     15  C   UNL     1     142.196  79.369 223.592 -0.61 -0.00    +0.009 A  
DOCKED: ATOM     16  C   UNL     1     141.278  81.560 222.120 -0.43 -0.00    +0.001 A  
DOCKED: ATOM     17  C   UNL     1     142.583  80.640 223.940 -0.66 -0.00    +0.001 A  
DOCKED: ATOM     18  C   UNL     1     142.122  81.734 223.203 -0.39 -0.00    +0.000 A  
DOCKED: ENDBRANCH  12  13
DOCKED: ENDBRANCH   5   7
DOCKED: ENDBRANCH   1   5
DOCKED: BRANCH   2  19
DOCKED: ATOM     19  C   UNL     1     136.602  72.316 222.395 -0.09 -0.05    +0.216 C  
DOCKED: BRANCH  19  20
DOCKED: ATOM     20  N   UNL     1     137.297  71.771 223.519 -0.07 +0.10    -0.342 N  
DOCKED: ATOM     21  C   UNL     1     137.982  70.526 223.344 -0.14 -0.05    +0.270 C  
DOCKED: ATOM     22  H   UNL     1     137.313  72.261 224.456 -0.48 -0.08    +0.164 HD 
DOCKED: ATOM     23  O   UNL     1     137.942  69.972 222.220 -0.06 +0.05    -0.268 OA 
DOCKED: BRANCH  21  24
DOCKED: ATOM     24  C   UNL     1     138.702  69.936 224.468 -0.28 -0.02    +0.128 A  
DOCKED: ATOM     25  C   UNL     1     138.678  68.567 224.622 -0.35 -0.00    +0.035 A  
DOCKED: ATOM     26  N   UNL     1     139.390  70.660 225.365 -0.22 +0.04    -0.243 NA 
DOCKED: ATOM     27  C   UNL     1     139.327  67.911 225.650 -0.52 -0.00    +0.013 A  
DOCKED: ATOM     28  C   UNL     1     140.052  70.100 226.400 -0.47 -0.01    +0.071 A  
DOCKED: ATOM     29  C   UNL     1     140.026  68.716 226.553 -0.59 -0.00    +0.000 A  
DOCKED: ATOM     30  C   UNL     1     140.748  70.888 227.301 -0.66 -0.01    +0.029 A  
DOCKED: ATOM     31  C   UNL     1     140.697  68.137 227.604 -0.67 -0.00    +0.010 A  
DOCKED: ATOM     32  C   UNL     1     141.411  70.256 228.347 -0.43 -0.00    +0.002 A  
DOCKED: ATOM     33  C   UNL     1     141.402  68.900 228.519 -0.51 -0.00    +0.001 A  
DOCKED: ENDBRANCH  21  24
DOCKED: ENDBRANCH  19  20
DOCKED: ENDBRANCH   2  19
DOCKED: TORSDOF 6
DOCKED: TER
DOCKED: ENDMDL
________________________________________________________________________________


    FINAL DOCKED STATE:
    ________________________


Run:   15 / 20
Time taken for this run:   0.025s

DOCKED: MODEL        15
DOCKED: USER    Run = 15
DOCKED: USER
DOCKED: USER    Estimated Free Energy of Binding    =  -9.39 kcal/mol  [=(1)+(2)+(3)-(4)]
DOCKED: USER
DOCKED: USER    (1) Final Intermolecular Energy     = -11.18 kcal/mol
DOCKED: USER        vdW + Hbond + desolv Energy     = -11.12 kcal/mol
DOCKED: USER        Electrostatic Energy            =  -0.05 kcal/mol
DOCKED: USER        Moving Ligand-Fixed Receptor    = -11.18 kcal/mol
DOCKED: USER        Moving Ligand-Moving Receptor   =  +0.00 kcal/mol
DOCKED: USER    (2) Final Total Internal Energy     =  -2.16 kcal/mol
DOCKED: USER    (3) Torsional Free Energy           =  +1.79 kcal/mol
DOCKED: USER    (4) Unbound System's Energy         =  -2.16 kcal/mol
DOCKED: USER
DOCKED: USER
DOCKED: REMARK SMILES C[C@@H](NC(=O)CNC(=O)c1ccc2ccccc2n1)c1ccc(-c2ccccc2)cc1
DOCKED: REMARK SMILES IDX 3 1 4 2 5 3 2 5 1 6 20 7 21 8 31 9 22 10 30 11 23 12 24 13
DOCKED: REMARK SMILES IDX 25 14 29 15 26 16 28 17 27 18 6 19 7 20 8 21 9 23 10 24
DOCKED: REMARK SMILES IDX 11 25 19 26 12 27 18 28 13 29 17 30 14 31 16 32 15 33
DOCKED: REMARK H PARENT 3 4 7 22
DOCKED: USER                              x       y       z     vdW  Elec       q    Type
DOCKED: USER                           _______ _______ _______ _____ _____    ______ ____
DOCKED: ROOT
DOCKED: ATOM      1  N   UNL     1     140.210  73.304 220.739 -0.06 +0.06    -0.348 N  
DOCKED: ATOM      2  C   UNL     1     138.837  73.481 220.449 -0.06 -0.05    +0.239 C  
DOCKED: ATOM      3  O   UNL     1     138.475  74.321 219.564 -0.02 +0.06    -0.273 OA 
DOCKED: ATOM      4  H   UNL     1     140.567  72.634 221.450 +0.05 -0.02    +0.164 HD 
DOCKED: ENDROOT
DOCKED: BRANCH   1   5
DOCKED: ATOM      5  C   UNL     1     141.167  74.091 220.017 -0.14 -0.03    +0.109 C  
DOCKED: ATOM      6  C   UNL     1     142.540  73.480 219.978 -0.22 -0.01    +0.036 C  
DOCKED: BRANCH   5   7
DOCKED: ATOM      7  C   UNL     1     141.252  75.417 220.681 -0.27 +0.01    -0.026 A  
DOCKED: ATOM      8  C   UNL     1     141.817  76.507 220.051 -0.28 -0.00    +0.006 A  
DOCKED: ATOM      9  C   UNL     1     140.758  75.579 221.965 -0.35 -0.00    +0.006 A  
DOCKED: ATOM     10  C   UNL     1     141.897  77.743 220.670 -0.29 -0.01    +0.009 A  
DOCKED: ATOM     11  C   UNL     1     140.815  76.791 222.625 -0.37 -0.00    +0.009 A  
DOCKED: ATOM     12  C   UNL     1     141.392  77.859 221.948 -0.35 +0.01    -0.018 A  
DOCKED: BRANCH  12  13
DOCKED: ATOM     13  C   UNL     1     141.480  79.170 222.598 -0.49 +0.01    -0.018 A  
DOCKED: ATOM     14  C   UNL     1     142.722  79.548 223.101 -0.60 -0.00    +0.009 A  
DOCKED: ATOM     15  C   UNL     1     140.413  80.019 222.728 -0.38 -0.00    +0.009 A  
DOCKED: ATOM     16  C   UNL     1     142.915  80.758 223.730 -0.67 -0.00    +0.001 A  
DOCKED: ATOM     17  C   UNL     1     140.572  81.234 223.350 -0.39 -0.00    +0.001 A  
DOCKED: ATOM     18  C   UNL     1     141.824  81.601 223.850 -0.53 -0.00    +0.000 A  
DOCKED: ENDBRANCH  12  13
DOCKED: ENDBRANCH   5   7
DOCKED: ENDBRANCH   1   5
DOCKED: BRANCH   2  19
DOCKED: ATOM     19  C   UNL     1     137.820  72.668 221.193 -0.07 -0.05    +0.216 C  
DOCKED: BRANCH  19  20
DOCKED: ATOM     20  N   UNL     1     138.254  72.374 222.522 -0.06 +0.11    -0.342 N  
DOCKED: ATOM     21  C   UNL     1     139.207  71.319 222.699 -0.17 -0.06    +0.270 C  
DOCKED: ATOM     22  H   UNL     1     137.892  72.909 223.360 -0.47 -0.11    +0.164 HD 
DOCKED: ATOM     23  O   UNL     1     139.615  70.704 221.686 -0.10 +0.05    -0.268 OA 
DOCKED: BRANCH  21  24
DOCKED: ATOM     24  C   UNL     1     139.674  70.988 224.041 -0.33 -0.02    +0.128 A  
DOCKED: ATOM     25  C   UNL     1     140.480  71.889 224.701 -0.34 -0.01    +0.035 A  
DOCKED: ATOM     26  N   UNL     1     139.359  69.844 224.671 -0.19 +0.04    -0.243 NA 
DOCKED: ATOM     27  C   UNL     1     140.974  71.672 225.972 -0.61 -0.00    +0.013 A  
DOCKED: ATOM     28  C   UNL     1     139.799  69.552 225.913 -0.42 -0.01    +0.071 A  
DOCKED: ATOM     29  C   UNL     1     140.614  70.465 226.578 -0.60 -0.00    +0.000 A  
DOCKED: ATOM     30  C   UNL     1     139.448  68.359 226.523 -0.55 -0.00    +0.029 A  
DOCKED: ATOM     31  C   UNL     1     141.066  70.176 227.842 -0.60 -0.00    +0.010 A  
DOCKED: ATOM     32  C   UNL     1     139.931  68.112 227.803 -0.59 -0.00    +0.002 A  
DOCKED: ATOM     33  C   UNL     1     140.730  68.992 228.477 -0.61 -0.00    +0.001 A  
DOCKED: ENDBRANCH  21  24
DOCKED: ENDBRANCH  19  20
DOCKED: ENDBRANCH   2  19
DOCKED: TORSDOF 6
DOCKED: TER
DOCKED: ENDMDL
________________________________________________________________________________


    FINAL DOCKED STATE:
    ________________________


Run:   16 / 20
Time taken for this run:   0.025s

DOCKED: MODEL        16
DOCKED: USER    Run = 16
DOCKED: USER
DOCKED: USER    Estimated Free Energy of Binding    =  -8.78 kcal/mol  [=(1)+(2)+(3)-(4)]
DOCKED: USER
DOCKED: USER    (1) Final Intermolecular Energy     = -10.57 kcal/mol
DOCKED: USER        vdW + Hbond + desolv Energy     = -10.52 kcal/mol
DOCKED: USER        Electrostatic Energy            =  -0.06 kcal/mol
DOCKED: USER        Moving Ligand-Fixed Receptor    = -10.57 kcal/mol
DOCKED: USER        Moving Ligand-Moving Receptor   =  +0.00 kcal/mol
DOCKED: USER    (2) Final Total Internal Energy     =  -2.39 kcal/mol
DOCKED: USER    (3) Torsional Free Energy           =  +1.79 kcal/mol
DOCKED: USER    (4) Unbound System's Energy         =  -2.39 kcal/mol
DOCKED: USER
DOCKED: USER
DOCKED: REMARK SMILES C[C@@H](NC(=O)CNC(=O)c1ccc2ccccc2n1)c1ccc(-c2ccccc2)cc1
DOCKED: REMARK SMILES IDX 3 1 4 2 5 3 2 5 1 6 20 7 21 8 31 9 22 10 30 11 23 12 24 13
DOCKED: REMARK SMILES IDX 25 14 29 15 26 16 28 17 27 18 6 19 7 20 8 21 9 23 10 24
DOCKED: REMARK SMILES IDX 11 25 19 26 12 27 18 28 13 29 17 30 14 31 16 32 15 33
DOCKED: REMARK H PARENT 3 4 7 22
DOCKED: USER                              x       y       z     vdW  Elec       q    Type
DOCKED: USER                           _______ _______ _______ _____ _____    ______ ____
DOCKED: ROOT
DOCKED: ATOM      1  N   UNL     1     138.123  74.212 221.976 -0.09 +0.11    -0.348 N  
DOCKED: ATOM      2  C   UNL     1     138.029  73.381 220.834 -0.06 -0.05    +0.239 C  
DOCKED: ATOM      3  O   UNL     1     137.139  73.606 219.953 -0.01 +0.05    -0.273 OA 
DOCKED: ATOM      4  H   UNL     1     138.828  74.078 222.728 -0.56 -0.07    +0.164 HD 
DOCKED: ENDROOT
DOCKED: BRANCH   1   5
DOCKED: ATOM      5  C   UNL     1     137.196  75.298 222.107 -0.18 -0.03    +0.109 C  
DOCKED: ATOM      6  C   UNL     1     137.840  76.589 222.532 -0.27 -0.01    +0.036 C  
DOCKED: BRANCH   5   7
DOCKED: ATOM      7  C   UNL     1     136.188  74.908 223.126 -0.21 +0.01    -0.026 A  
DOCKED: ATOM      8  C   UNL     1     135.631  75.835 223.984 -0.28 -0.00    +0.006 A  
DOCKED: ATOM      9  C   UNL     1     135.788  73.586 223.231 -0.19 -0.00    +0.006 A  
DOCKED: ATOM     10  C   UNL     1     134.692  75.473 224.935 -0.34 -0.00    +0.009 A  
DOCKED: ATOM     11  C   UNL     1     134.854  73.175 224.163 -0.21 -0.00    +0.009 A  
DOCKED: ATOM     12  C   UNL     1     134.322  74.145 225.003 -0.29 +0.00    -0.018 A  
DOCKED: BRANCH  12  13
DOCKED: ATOM     13  C   UNL     1     133.327  73.767 226.011 -0.32 +0.00    -0.018 A  
DOCKED: ATOM     14  C   UNL     1     132.669  74.801 226.673 -0.35 -0.00    +0.009 A  
DOCKED: ATOM     15  C   UNL     1     133.024  72.468 226.321 -0.34 -0.00    +0.009 A  
DOCKED: ATOM     16  C   UNL     1     131.717  74.557 227.637 -0.40 -0.00    +0.001 A  
DOCKED: ATOM     17  C   UNL     1     132.079  72.191 227.278 -0.40 -0.00    +0.001 A  
DOCKED: ATOM     18  C   UNL     1     131.426  73.237 227.935 -0.33 -0.00    +0.000 A  
DOCKED: ENDBRANCH  12  13
DOCKED: ENDBRANCH   5   7
DOCKED: ENDBRANCH   1   5
DOCKED: BRANCH   2  19
DOCKED: ATOM     19  C   UNL     1     138.988  72.239 220.678 -0.06 -0.04    +0.216 C  
DOCKED: BRANCH  19  20
DOCKED: ATOM     20  N   UNL     1     139.111  71.487 221.887 -0.07 +0.07    -0.342 N  
DOCKED: ATOM     21  C   UNL     1     139.985  71.990 222.904 -0.22 -0.04    +0.270 C  
DOCKED: ATOM     22  H   UNL     1     138.579  70.586 222.040 +0.04 -0.03    +0.164 HD 
DOCKED: ATOM     23  O   UNL     1     140.600  73.061 222.690 -0.64 -0.01    -0.268 OA 
DOCKED: BRANCH  21  24
DOCKED: ATOM     24  C   UNL     1     140.137  71.250 224.153 -0.37 -0.02    +0.128 A  
DOCKED: ATOM     25  C   UNL     1     140.771  71.865 225.211 -0.38 -0.00    +0.035 A  
DOCKED: ATOM     26  N   UNL     1     139.691  69.996 224.327 -0.18 +0.04    -0.243 NA 
DOCKED: ATOM     27  C   UNL     1     140.966  71.253 226.434 -0.67 -0.00    +0.013 A  
DOCKED: ATOM     28  C   UNL     1     139.839  69.325 225.489 -0.40 -0.01    +0.071 A  
DOCKED: ATOM     29  C   UNL     1     140.481  69.948 226.556 -0.55 -0.00    +0.000 A  
DOCKED: ATOM     30  C   UNL     1     139.363  68.031 225.622 -0.50 -0.00    +0.029 A  
DOCKED: ATOM     31  C   UNL     1     140.637  69.273 227.743 -0.62 -0.00    +0.010 A  
DOCKED: ATOM     32  C   UNL     1     139.544  67.389 226.842 -0.59 -0.00    +0.002 A  
DOCKED: ATOM     33  C   UNL     1     140.169  67.979 227.904 -0.48 -0.00    +0.001 A  
DOCKED: ENDBRANCH  21  24
DOCKED: ENDBRANCH  19  20
DOCKED: ENDBRANCH   2  19
DOCKED: TORSDOF 6
DOCKED: TER
DOCKED: ENDMDL
________________________________________________________________________________


    FINAL DOCKED STATE:
    ________________________


Run:   17 / 20
Time taken for this run:   0.025s

DOCKED: MODEL        17
DOCKED: USER    Run = 17
DOCKED: USER
DOCKED: USER    Estimated Free Energy of Binding    =  -9.34 kcal/mol  [=(1)+(2)+(3)-(4)]
DOCKED: USER
DOCKED: USER    (1) Final Intermolecular Energy     = -11.13 kcal/mol
DOCKED: USER        vdW + Hbond + desolv Energy     = -11.09 kcal/mol
DOCKED: USER        Electrostatic Energy            =  -0.04 kcal/mol
DOCKED: USER        Moving Ligand-Fixed Receptor    = -11.13 kcal/mol
DOCKED: USER        Moving Ligand-Moving Receptor   =  +0.00 kcal/mol
DOCKED: USER    (2) Final Total Internal Energy     =  -2.18 kcal/mol
DOCKED: USER    (3) Torsional Free Energy           =  +1.79 kcal/mol
DOCKED: USER    (4) Unbound System's Energy         =  -2.18 kcal/mol
DOCKED: USER
DOCKED: USER
DOCKED: REMARK SMILES C[C@@H](NC(=O)CNC(=O)c1ccc2ccccc2n1)c1ccc(-c2ccccc2)cc1
DOCKED: REMARK SMILES IDX 3 1 4 2 5 3 2 5 1 6 20 7 21 8 31 9 22 10 30 11 23 12 24 13
DOCKED: REMARK SMILES IDX 25 14 29 15 26 16 28 17 27 18 6 19 7 20 8 21 9 23 10 24
DOCKED: REMARK SMILES IDX 11 25 19 26 12 27 18 28 13 29 17 30 14 31 16 32 15 33
DOCKED: REMARK H PARENT 3 4 7 22
DOCKED: USER                              x       y       z     vdW  Elec       q    Type
DOCKED: USER                           _______ _______ _______ _____ _____    ______ ____
DOCKED: ROOT
DOCKED: ATOM      1  N   UNL     1     140.143  73.344 220.646 -0.05 +0.06    -0.348 N  
DOCKED: ATOM      2  C   UNL     1     138.802  73.752 220.456 -0.06 -0.05    +0.239 C  
DOCKED: ATOM      3  O   UNL     1     138.538  74.758 219.723 -0.02 +0.06    -0.273 OA 
DOCKED: ATOM      4  H   UNL     1     140.421  72.532 221.232 +0.05 -0.02    +0.164 HD 
DOCKED: ENDROOT
DOCKED: BRANCH   1   5
DOCKED: ATOM      5  C   UNL     1     141.181  74.089 219.995 -0.14 -0.03    +0.109 C  
DOCKED: ATOM      6  C   UNL     1     142.526  73.418 220.048 -0.22 -0.01    +0.036 C  
DOCKED: BRANCH   5   7
DOCKED: ATOM      7  C   UNL     1     141.278  75.409 220.670 -0.27 +0.01    -0.026 A  
DOCKED: ATOM      8  C   UNL     1     141.817  76.509 220.034 -0.28 -0.00    +0.006 A  
DOCKED: ATOM      9  C   UNL     1     140.822  75.555 221.970 -0.34 -0.00    +0.006 A  
DOCKED: ATOM     10  C   UNL     1     141.908  77.739 220.663 -0.29 -0.01    +0.009 A  
DOCKED: ATOM     11  C   UNL     1     140.890  76.761 222.639 -0.35 -0.00    +0.009 A  
DOCKED: ATOM     12  C   UNL     1     141.440  77.839 221.957 -0.34 +0.01    -0.018 A  
DOCKED: BRANCH  12  13
DOCKED: ATOM     13  C   UNL     1     141.539  79.144 222.617 -0.50 +0.01    -0.018 A  
DOCKED: ATOM     14  C   UNL     1     142.796  79.532 223.074 -0.58 -0.00    +0.009 A  
DOCKED: ATOM     15  C   UNL     1     140.469  79.979 222.799 -0.40 -0.00    +0.009 A  
DOCKED: ATOM     16  C   UNL     1     143.000  80.737 223.708 -0.66 -0.00    +0.001 A  
DOCKED: ATOM     17  C   UNL     1     140.638  81.189 223.428 -0.41 -0.00    +0.001 A  
DOCKED: ATOM     18  C   UNL     1     141.905  81.566 223.881 -0.54 -0.00    +0.000 A  
DOCKED: ENDBRANCH  12  13
DOCKED: ENDBRANCH   5   7
DOCKED: ENDBRANCH   1   5
DOCKED: BRANCH   2  19
DOCKED: ATOM     19  C   UNL     1     137.702  72.986 221.128 -0.07 -0.05    +0.216 C  
DOCKED: BRANCH  19  20
DOCKED: ATOM     20  N   UNL     1     138.103  72.509 222.414 -0.06 +0.11    -0.342 N  
DOCKED: ATOM     21  C   UNL     1     138.899  71.320 222.470 -0.14 -0.06    +0.270 C  
DOCKED: ATOM     22  H   UNL     1     137.828  73.008 223.305 -0.48 -0.11    +0.164 HD 
DOCKED: ATOM     23  O   UNL     1     139.206  70.753 221.395 -0.07 +0.05    -0.268 OA 
DOCKED: BRANCH  21  24
DOCKED: ATOM     24  C   UNL     1     139.328  70.801 223.764 -0.28 -0.03    +0.128 A  
DOCKED: ATOM     25  C   UNL     1     139.149  69.461 224.030 -0.30 -0.01    +0.035 A  
DOCKED: ATOM     26  N   UNL     1     139.891  71.563 224.715 -0.26 +0.05    -0.243 NA 
DOCKED: ATOM     27  C   UNL     1     139.521  68.870 225.222 -0.43 -0.00    +0.013 A  
DOCKED: ATOM     28  C   UNL     1     140.284  71.068 225.908 -0.52 -0.01    +0.071 A  
DOCKED: ATOM     29  C   UNL     1     140.101  69.712 226.174 -0.51 -0.00    +0.000 A  
DOCKED: ATOM     30  C   UNL     1     140.860  71.893 226.859 -0.72 -0.01    +0.029 A  
DOCKED: ATOM     31  C   UNL     1     140.497  69.200 227.386 -0.61 -0.00    +0.010 A  
DOCKED: ATOM     32  C   UNL     1     141.245  71.327 228.070 -0.69 -0.00    +0.002 A  
DOCKED: ATOM     33  C   UNL     1     141.077  70.001 228.355 -0.55 -0.00    +0.001 A  
DOCKED: ENDBRANCH  21  24
DOCKED: ENDBRANCH  19  20
DOCKED: ENDBRANCH   2  19
DOCKED: TORSDOF 6
DOCKED: TER
DOCKED: ENDMDL
________________________________________________________________________________


    FINAL DOCKED STATE:
    ________________________


Run:   18 / 20
Time taken for this run:   0.025s

DOCKED: MODEL        18
DOCKED: USER    Run = 18
DOCKED: USER
DOCKED: USER    Estimated Free Energy of Binding    =  -9.65 kcal/mol  [=(1)+(2)+(3)-(4)]
DOCKED: USER
DOCKED: USER    (1) Final Intermolecular Energy     = -11.44 kcal/mol
DOCKED: USER        vdW + Hbond + desolv Energy     = -11.41 kcal/mol
DOCKED: USER        Electrostatic Energy            =  -0.03 kcal/mol
DOCKED: USER        Moving Ligand-Fixed Receptor    = -11.44 kcal/mol
DOCKED: USER        Moving Ligand-Moving Receptor   =  +0.00 kcal/mol
DOCKED: USER    (2) Final Total Internal Energy     =  -1.54 kcal/mol
DOCKED: USER    (3) Torsional Free Energy           =  +1.79 kcal/mol
DOCKED: USER    (4) Unbound System's Energy         =  -1.54 kcal/mol
DOCKED: USER
DOCKED: USER
DOCKED: REMARK SMILES C[C@@H](NC(=O)CNC(=O)c1ccc2ccccc2n1)c1ccc(-c2ccccc2)cc1
DOCKED: REMARK SMILES IDX 3 1 4 2 5 3 2 5 1 6 20 7 21 8 31 9 22 10 30 11 23 12 24 13
DOCKED: REMARK SMILES IDX 25 14 29 15 26 16 28 17 27 18 6 19 7 20 8 21 9 23 10 24
DOCKED: REMARK SMILES IDX 11 25 19 26 12 27 18 28 13 29 17 30 14 31 16 32 15 33
DOCKED: REMARK H PARENT 3 4 7 22
DOCKED: USER                              x       y       z     vdW  Elec       q    Type
DOCKED: USER                           _______ _______ _______ _____ _____    ______ ____
DOCKED: ROOT
DOCKED: ATOM      1  N   UNL     1     139.009  73.572 221.721 -0.11 +0.08    -0.348 N  
DOCKED: ATOM      2  C   UNL     1     137.846  72.961 221.195 -0.07 -0.05    +0.239 C  
DOCKED: ATOM      3  O   UNL     1     137.685  72.873 219.936 -0.01 +0.05    -0.273 OA 
DOCKED: ATOM      4  H   UNL     1     139.197  73.673 222.738 -0.48 -0.05    +0.164 HD 
DOCKED: ENDROOT
DOCKED: BRANCH   1   5
DOCKED: ATOM      5  C   UNL     1     139.985  74.082 220.803 -0.17 -0.02    +0.109 C  
DOCKED: ATOM      6  C   UNL     1     141.236  73.250 220.733 -0.22 -0.01    +0.036 C  
DOCKED: BRANCH   5   7
DOCKED: ATOM      7  C   UNL     1     140.346  75.453 221.246 -0.29 +0.01    -0.026 A  
DOCKED: ATOM      8  C   UNL     1     139.704  76.063 222.305 -0.36 -0.00    +0.006 A  
DOCKED: ATOM      9  C   UNL     1     141.348  76.149 220.591 -0.28 -0.00    +0.006 A  
DOCKED: ATOM     10  C   UNL     1     140.040  77.342 222.718 -0.32 -0.00    +0.009 A  
DOCKED: ATOM     11  C   UNL     1     141.718  77.426 220.965 -0.24 -0.01    +0.009 A  
DOCKED: ATOM     12  C   UNL     1     141.044  77.998 222.037 -0.40 +0.01    -0.018 A  
DOCKED: BRANCH  12  13
DOCKED: ATOM     13  C   UNL     1     141.395  79.351 222.479 -0.46 +0.01    -0.018 A  
DOCKED: ATOM     14  C   UNL     1     142.189  79.461 223.617 -0.61 -0.00    +0.009 A  
DOCKED: ATOM     15  C   UNL     1     140.982  80.485 221.832 -0.36 -0.00    +0.009 A  
DOCKED: ATOM     16  C   UNL     1     142.577  80.684 224.118 -0.62 -0.00    +0.001 A  
DOCKED: ATOM     17  C   UNL     1     141.351  81.721 222.306 -0.44 -0.00    +0.001 A  
DOCKED: ATOM     18  C   UNL     1     142.149  81.817 223.449 -0.37 -0.00    +0.000 A  
DOCKED: ENDBRANCH  12  13
DOCKED: ENDBRANCH   5   7
DOCKED: ENDBRANCH   1   5
DOCKED: BRANCH   2  19
DOCKED: ATOM     19  C   UNL     1     136.812  72.422 222.138 -0.09 -0.05    +0.216 C  
DOCKED: BRANCH  19  20
DOCKED: ATOM     20  N   UNL     1     137.411  71.848 223.301 -0.08 +0.11    -0.342 N  
DOCKED: ATOM     21  C   UNL     1     138.131  70.620 223.149 -0.14 -0.05    +0.270 C  
DOCKED: ATOM     22  H   UNL     1     137.332  72.304 224.253 -0.49 -0.08    +0.164 HD 
DOCKED: ATOM     23  O   UNL     1     138.204  70.105 222.008 -0.06 +0.05    -0.268 OA 
DOCKED: BRANCH  21  24
DOCKED: ATOM     24  C   UNL     1     138.756  70.001 224.314 -0.27 -0.02    +0.128 A  
DOCKED: ATOM     25  C   UNL     1     138.694  68.631 224.447 -0.34 -0.00    +0.035 A  
DOCKED: ATOM     26  N   UNL     1     139.392  70.700 225.268 -0.23 +0.04    -0.243 NA 
DOCKED: ATOM     27  C   UNL     1     139.253  67.949 225.510 -0.49 -0.00    +0.013 A  
DOCKED: ATOM     28  C   UNL     1     139.966  70.114 226.340 -0.47 -0.01    +0.071 A  
DOCKED: ATOM     29  C   UNL     1     139.902  68.728 226.472 -0.57 -0.00    +0.000 A  
DOCKED: ATOM     30  C   UNL     1     140.612  70.876 227.299 -0.65 -0.01    +0.029 A  
DOCKED: ATOM     31  C   UNL     1     140.482  68.123 227.560 -0.66 -0.00    +0.010 A  
DOCKED: ATOM     32  C   UNL     1     141.184  70.217 228.381 -0.47 -0.00    +0.002 A  
DOCKED: ATOM     33  C   UNL     1     141.136  68.860 228.534 -0.59 -0.00    +0.001 A  
DOCKED: ENDBRANCH  21  24
DOCKED: ENDBRANCH  19  20
DOCKED: ENDBRANCH   2  19
DOCKED: TORSDOF 6
DOCKED: TER
DOCKED: ENDMDL
________________________________________________________________________________


    FINAL DOCKED STATE:
    ________________________


Run:   19 / 20
Time taken for this run:   0.025s

DOCKED: MODEL        19
DOCKED: USER    Run = 19
DOCKED: USER
DOCKED: USER    Estimated Free Energy of Binding    =  -9.36 kcal/mol  [=(1)+(2)+(3)-(4)]
DOCKED: USER
DOCKED: USER    (1) Final Intermolecular Energy     = -11.15 kcal/mol
DOCKED: USER        vdW + Hbond + desolv Energy     = -11.09 kcal/mol
DOCKED: USER        Electrostatic Energy            =  -0.06 kcal/mol
DOCKED: USER        Moving Ligand-Fixed Receptor    = -11.15 kcal/mol
DOCKED: USER        Moving Ligand-Moving Receptor   =  +0.00 kcal/mol
DOCKED: USER    (2) Final Total Internal Energy     =  -2.15 kcal/mol
DOCKED: USER    (3) Torsional Free Energy           =  +1.79 kcal/mol
DOCKED: USER    (4) Unbound System's Energy         =  -2.15 kcal/mol
DOCKED: USER
DOCKED: USER
DOCKED: REMARK SMILES C[C@@H](NC(=O)CNC(=O)c1ccc2ccccc2n1)c1ccc(-c2ccccc2)cc1
DOCKED: REMARK SMILES IDX 3 1 4 2 5 3 2 5 1 6 20 7 21 8 31 9 22 10 30 11 23 12 24 13
DOCKED: REMARK SMILES IDX 25 14 29 15 26 16 28 17 27 18 6 19 7 20 8 21 9 23 10 24
DOCKED: REMARK SMILES IDX 11 25 19 26 12 27 18 28 13 29 17 30 14 31 16 32 15 33
DOCKED: REMARK H PARENT 3 4 7 22
DOCKED: USER                              x       y       z     vdW  Elec       q    Type
DOCKED: USER                           _______ _______ _______ _____ _____    ______ ____
DOCKED: ROOT
DOCKED: ATOM      1  N   UNL     1     140.285  73.373 220.680 -0.06 +0.06    -0.348 N  
DOCKED: ATOM      2  C   UNL     1     138.910  73.640 220.476 -0.06 -0.05    +0.239 C  
DOCKED: ATOM      3  O   UNL     1     138.551  74.568 219.683 -0.02 +0.06    -0.273 OA 
DOCKED: ATOM      4  H   UNL     1     140.639  72.629 221.315 +0.05 -0.02    +0.164 HD 
DOCKED: ENDROOT
DOCKED: BRANCH   1   5
DOCKED: ATOM      5  C   UNL     1     141.246  74.169 219.976 -0.14 -0.03    +0.109 C  
DOCKED: ATOM      6  C   UNL     1     142.620  73.559 219.939 -0.22 -0.01    +0.036 C  
DOCKED: BRANCH   5   7
DOCKED: ATOM      7  C   UNL     1     141.325  75.486 220.659 -0.27 +0.01    -0.026 A  
DOCKED: ATOM      8  C   UNL     1     141.845  76.598 220.027 -0.29 -0.00    +0.006 A  
DOCKED: ATOM      9  C   UNL     1     140.872  75.617 221.961 -0.35 -0.00    +0.006 A  
DOCKED: ATOM     10  C   UNL     1     141.920  77.826 220.663 -0.29 -0.01    +0.009 A  
DOCKED: ATOM     11  C   UNL     1     140.926  76.820 222.638 -0.36 -0.00    +0.009 A  
DOCKED: ATOM     12  C   UNL     1     141.456  77.911 221.959 -0.35 +0.01    -0.018 A  
DOCKED: BRANCH  12  13
DOCKED: ATOM     13  C   UNL     1     141.538  79.213 222.627 -0.50 +0.01    -0.018 A  
DOCKED: ATOM     14  C   UNL     1     142.789  79.613 223.089 -0.60 -0.00    +0.009 A  
DOCKED: ATOM     15  C   UNL     1     140.458  80.034 222.812 -0.40 -0.00    +0.009 A  
DOCKED: ATOM     16  C   UNL     1     142.978  80.817 223.730 -0.66 -0.00    +0.001 A  
DOCKED: ATOM     17  C   UNL     1     140.611  81.242 223.448 -0.39 -0.00    +0.001 A  
DOCKED: ATOM     18  C   UNL     1     141.873  81.632 223.906 -0.52 -0.00    +0.000 A  
DOCKED: ENDBRANCH  12  13
DOCKED: ENDBRANCH   5   7
DOCKED: ENDBRANCH   1   5
DOCKED: BRANCH   2  19
DOCKED: ATOM     19  C   UNL     1     137.888  72.818 221.204 -0.07 -0.05    +0.216 C  
DOCKED: BRANCH  19  20
DOCKED: ATOM     20  N   UNL     1     138.325  72.485 222.523 -0.04 +0.11    -0.342 N  
DOCKED: ATOM     21  C   UNL     1     139.265  71.416 222.669 -0.17 -0.06    +0.270 C  
DOCKED: ATOM     22  H   UNL     1     137.972  73.005 223.375 -0.47 -0.12    +0.164 HD 
DOCKED: ATOM     23  O   UNL     1     139.661  70.821 221.639 -0.10 +0.04    -0.268 OA 
DOCKED: BRANCH  21  24
DOCKED: ATOM     24  C   UNL     1     139.734  71.045 224.000 -0.33 -0.02    +0.128 A  
DOCKED: ATOM     25  C   UNL     1     140.596  71.896 224.657 -0.33 -0.00    +0.035 A  
DOCKED: ATOM     26  N   UNL     1     139.369  69.913 224.623 -0.19 +0.04    -0.243 NA 
DOCKED: ATOM     27  C   UNL     1     141.097  71.639 225.919 -0.61 -0.00    +0.013 A  
DOCKED: ATOM     28  C   UNL     1     139.811  69.584 225.855 -0.42 -0.01    +0.071 A  
DOCKED: ATOM     29  C   UNL     1     140.682  70.446 226.517 -0.59 -0.00    +0.000 A  
DOCKED: ATOM     30  C   UNL     1     139.408  68.404 226.458 -0.54 -0.00    +0.029 A  
DOCKED: ATOM     31  C   UNL     1     141.138  70.119 227.771 -0.55 -0.00    +0.010 A  
DOCKED: ATOM     32  C   UNL     1     139.896  68.118 227.728 -0.60 -0.00    +0.002 A  
DOCKED: ATOM     33  C   UNL     1     140.750  68.947 228.398 -0.63 -0.00    +0.001 A  
DOCKED: ENDBRANCH  21  24
DOCKED: ENDBRANCH  19  20
DOCKED: ENDBRANCH   2  19
DOCKED: TORSDOF 6
DOCKED: TER
DOCKED: ENDMDL
________________________________________________________________________________


    FINAL DOCKED STATE:
    ________________________


Run:   20 / 20
Time taken for this run:   0.025s

DOCKED: MODEL        20
DOCKED: USER    Run = 20
DOCKED: USER
DOCKED: USER    Estimated Free Energy of Binding    =  -8.79 kcal/mol  [=(1)+(2)+(3)-(4)]
DOCKED: USER
DOCKED: USER    (1) Final Intermolecular Energy     = -10.58 kcal/mol
DOCKED: USER        vdW + Hbond + desolv Energy     = -10.53 kcal/mol
DOCKED: USER        Electrostatic Energy            =  -0.05 kcal/mol
DOCKED: USER        Moving Ligand-Fixed Receptor    = -10.58 kcal/mol
DOCKED: USER        Moving Ligand-Moving Receptor   =  +0.00 kcal/mol
DOCKED: USER    (2) Final Total Internal Energy     =  -2.37 kcal/mol
DOCKED: USER    (3) Torsional Free Energy           =  +1.79 kcal/mol
DOCKED: USER    (4) Unbound System's Energy         =  -2.37 kcal/mol
DOCKED: USER
DOCKED: USER
DOCKED: REMARK SMILES C[C@@H](NC(=O)CNC(=O)c1ccc2ccccc2n1)c1ccc(-c2ccccc2)cc1
DOCKED: REMARK SMILES IDX 3 1 4 2 5 3 2 5 1 6 20 7 21 8 31 9 22 10 30 11 23 12 24 13
DOCKED: REMARK SMILES IDX 25 14 29 15 26 16 28 17 27 18 6 19 7 20 8 21 9 23 10 24
DOCKED: REMARK SMILES IDX 11 25 19 26 12 27 18 28 13 29 17 30 14 31 16 32 15 33
DOCKED: REMARK H PARENT 3 4 7 22
DOCKED: USER                              x       y       z     vdW  Elec       q    Type
DOCKED: USER                           _______ _______ _______ _____ _____    ______ ____
DOCKED: ROOT
DOCKED: ATOM      1  N   UNL     1     138.080  74.299 222.011 -0.08 +0.11    -0.348 N  
DOCKED: ATOM      2  C   UNL     1     137.954  73.582 220.797 -0.06 -0.05    +0.239 C  
DOCKED: ATOM      3  O   UNL     1     137.096  73.942 219.930 -0.01 +0.05    -0.273 OA 
DOCKED: ATOM      4  H   UNL     1     138.762  74.053 222.756 -0.56 -0.07    +0.164 HD 
DOCKED: ENDROOT
DOCKED: BRANCH   1   5
DOCKED: ATOM      5  C   UNL     1     137.222  75.427 222.229 -0.19 -0.03    +0.109 C  
DOCKED: ATOM      6  C   UNL     1     137.949  76.648 222.718 -0.28 -0.01    +0.036 C  
DOCKED: BRANCH   5   7
DOCKED: ATOM      7  C   UNL     1     136.211  75.033 223.242 -0.21 +0.01    -0.026 A  
DOCKED: ATOM      8  C   UNL     1     135.629  75.961 224.083 -0.26 -0.00    +0.006 A  
DOCKED: ATOM      9  C   UNL     1     135.832  73.706 223.361 -0.20 -0.00    +0.006 A  
DOCKED: ATOM     10  C   UNL     1     134.686  75.595 225.028 -0.35 -0.00    +0.009 A  
DOCKED: ATOM     11  C   UNL     1     134.896  73.291 224.288 -0.23 -0.00    +0.009 A  
DOCKED: ATOM     12  C   UNL     1     134.339  74.262 225.111 -0.30 +0.00    -0.018 A  
DOCKED: BRANCH  12  13
DOCKED: ATOM     13  C   UNL     1     133.340  73.880 226.114 -0.33 -0.00    -0.018 A  
DOCKED: ATOM     14  C   UNL     1     133.106  72.519 226.290 -0.34 -0.00    +0.009 A  
DOCKED: ATOM     15  C   UNL     1     132.644  74.787 226.867 -0.38 -0.00    +0.009 A  
DOCKED: ATOM     16  C   UNL     1     132.189  72.051 227.205 -0.40 -0.00    +0.001 A  
DOCKED: ATOM     17  C   UNL     1     131.722  74.354 227.789 -0.40 -0.00    +0.001 A  
DOCKED: ATOM     18  C   UNL     1     131.497  72.985 227.957 -0.31 -0.00    +0.000 A  
DOCKED: ENDBRANCH  12  13
DOCKED: ENDBRANCH   5   7
DOCKED: ENDBRANCH   1   5
DOCKED: BRANCH   2  19
DOCKED: ATOM     19  C   UNL     1     138.841  72.399 220.550 -0.05 -0.04    +0.216 C  
DOCKED: BRANCH  19  20
DOCKED: ATOM     20  N   UNL     1     139.002  71.607 221.729 -0.06 +0.07    -0.342 N  
DOCKED: ATOM     21  C   UNL     1     139.898  72.082 222.739 -0.21 -0.05    +0.270 C  
DOCKED: ATOM     22  H   UNL     1     138.481  70.696 221.865 +0.04 -0.03    +0.164 HD 
DOCKED: ATOM     23  O   UNL     1     140.500  73.165 222.546 -0.69 -0.00    -0.268 OA 
DOCKED: BRANCH  21  24
DOCKED: ATOM     24  C   UNL     1     140.090  71.302 223.957 -0.35 -0.02    +0.128 A  
DOCKED: ATOM     25  C   UNL     1     140.787  71.869 225.002 -0.33 -0.00    +0.035 A  
DOCKED: ATOM     26  N   UNL     1     139.622  70.054 224.116 -0.17 +0.04    -0.243 NA 
DOCKED: ATOM     27  C   UNL     1     141.022  71.217 226.196 -0.65 -0.00    +0.013 A  
DOCKED: ATOM     28  C   UNL     1     139.807  69.344 225.249 -0.37 -0.01    +0.071 A  
DOCKED: ATOM     29  C   UNL     1     140.512  69.921 226.304 -0.54 -0.00    +0.000 A  
DOCKED: ATOM     30  C   UNL     1     139.305  68.059 225.366 -0.46 -0.00    +0.029 A  
DOCKED: ATOM     31  C   UNL     1     140.705  69.206 227.461 -0.61 -0.00    +0.010 A  
DOCKED: ATOM     32  C   UNL     1     139.527  67.376 226.557 -0.62 -0.00    +0.002 A  
DOCKED: ATOM     33  C   UNL     1     140.214  67.919 227.607 -0.57 -0.00    +0.001 A  
DOCKED: ENDBRANCH  21  24
DOCKED: ENDBRANCH  19  20
DOCKED: ENDBRANCH   2  19
DOCKED: TORSDOF 6
DOCKED: TER
DOCKED: ENDMDL
________________________________________________________________________________


    CLUSTERING HISTOGRAM
    ____________________


________________________________________________________________________________
     |           |     |           |     |
Clus | Lowest    | Run | Mean      | Num | Histogram
-ter | Binding   |     | Binding   | in  |
Rank | Energy    |     | Energy    | Clus|    5    10   15   20   25   30   35
_____|___________|_____|___________|_____|____:____|____:____|____:____|____:___
   1 |     -9.65 |  18 |     -9.34 |  14 |##############
   2 |     -8.84 |  13 |     -8.76 |   6 |######
_____|___________|_____|___________|_____|______________________________________


    RMSD TABLE
    __________


_______________________________________________________________________
     |      |      |           |         |                 |
Rank | Sub- | Run  | Binding   | Cluster | Reference       | Grep
     | Rank |      | Energy    | RMSD    | RMSD            | Pattern
_____|______|______|___________|_________|_________________|___________
   1      1     18       -9.65      0.00    270.64           RANKING
   1      2      9       -9.60      1.63    270.50           RANKING
   1      3     14       -9.50      0.26    270.61           RANKING
   1      4     10       -9.40      1.15    270.71           RANKING
   1      5     15       -9.39      1.16    270.71           RANKING
   1      6      4       -9.38      1.20    270.73           RANKING
   1      7     11       -9.37      1.20    270.72           RANKING
   1      8     19       -9.36      1.22    270.74           RANKING
   1      9     17       -9.34      1.12    270.66           RANKING
   1     10      3       -9.33      1.06    270.65           RANKING
   1     11      6       -9.33      1.17    270.68           RANKING
   1     12      8       -9.19      1.08    270.63           RANKING
   1     13      7       -9.11      1.52    270.76           RANKING
   1     14      1       -8.84      1.58    270.67           RANKING
   2      1     13       -8.84      0.00    269.88           RANKING
   2      2      5       -8.82      0.22    269.90           RANKING
   2      3     12       -8.81      0.13    269.90           RANKING
   2      4     20       -8.79      0.19    269.82           RANKING
   2      5     16       -8.78      0.16    269.86           RANKING
   2      6      2       -8.55      1.25    270.18           RANKING

Run time 0.477 sec
Idle time 0.000 sec
