AutoDock-GPU version: v1.6

**********************************************************
**    AutoDock-GPU AUTODOCKTOOLS-COMPATIBLE DLG FILE    **
**********************************************************


    DOCKING PARAMETERS
    ________________________


Ligand file:                               /home/a/REINVENT4/ReinventStudies/pleaseWork/justmol2mol_4_Compounds_ontop/graph-dock-amy28i/graph-DockGPU/node-autodockgpu/inputs/DIHKYIOISBIWEH-IGLNYXIVNA-N.pdbqt
Grid fld file:                             /home/a/REINVENT4/ReinventStudies/mols/Rad51/maps/rad51_receptor.maps.fld

Random seed:                               42
Number of runs:                            20
Number of energy evaluations:              1132076
Number of generations:                     42000
Size of population:                        150
Rate of crossover:                         80.000000%
Tournament selection probability limit:    60.000000%
Rate of mutation:                          2.000000%
Maximal allowed delta movement:            +/- 6.000000A
Maximal allowed delta angle:               +/- 90.000000

Rate of local search:                      100.000000%
Maximal number of local search iterations: 300
Rho lower bound:                           0.010000
Spread of local search delta movement:     2.000000A
Spread of local search delta angle:        74.999999
Limit of consecutive successes/failures:   4

Handle symmetry during clustering:         YES
RMSD tolerance:                            2.000000A

Program call in command line was:          /home/a/REINVENT4/ReinventStudies/adgpu-v1.6_linux_x64_cuda12_128wi --filelist batch.txt --heuristics 1 --nrun 20 --psize 150 --lsit 300 --seed 42 --heurmax 12000000 


    GRID PARAMETERS
    ________________________


Receptor name:                             rad51_receptor
Number of grid points (x, y, z):           53, 53, 53
Grid center (x, y, z):                     139.950000, 75.640000, 221.970000A
Grid size (x, y, z):                       19.500000, 19.500000, 19.500000A
Grid spacing:                              0.375000A


    LIGAND PARAMETERS
    ________________________


Ligand name:                               /home/a/REINVENT4/ReinventStudies/pleaseWork/justmol2mol_4_Compounds_ontop/graph-dock-amy28i/graph-DockGPU/node-autodockgpu/inputs/DIHKYIOISBIWEH-IGLNYXIVNA-N
Number of atoms:                           33
Number of rotatable bonds:                 6
Number of atom types:                      6


    DUMMY DATA (only for ADT-compatibility)
    ________________________


DPF> outlev 1
DPF> ga_run 20
DPF> fld /home/a/REINVENT4/ReinventStudies/mols/Rad51/maps/rad51_receptor.maps.fld
DPF> move /home/a/REINVENT4/ReinventStudies/pleaseWork/justmol2mol_4_Compounds_ontop/graph-dock-amy28i/graph-DockGPU/node-autodockgpu/inputs/DIHKYIOISBIWEH-IGLNYXIVNA-N.pdbqt


    COUNTER STATES
    ________________________


Number of energy evaluations performed:    616286
Number of generations used:                45


    INPUT LIGAND PDBQT FILE:
    ________________________


INPUT-LIGAND-PDBQT: REMARK SMILES C[C@H](NC(=O)CNC(=O)c1ccc2ccccc2n1)c1ccc(-c2ccccc2)cc1
INPUT-LIGAND-PDBQT: REMARK SMILES IDX 3 1 4 2 5 3 2 5 1 6 20 7 21 8 31 9 22 10 30 11 23 12 24 13
INPUT-LIGAND-PDBQT: REMARK SMILES IDX 25 14 29 15 26 16 28 17 27 18 6 19 7 20 8 21 9 23 10 24
INPUT-LIGAND-PDBQT: REMARK SMILES IDX 11 25 19 26 12 27 18 28 13 29 17 30 14 31 16 32 15 33
INPUT-LIGAND-PDBQT: REMARK H PARENT 3 4 7 22
INPUT-LIGAND-PDBQT: ROOT
INPUT-LIGAND-PDBQT: ATOM      1  N   UNL     1      -0.162   2.316  -1.948  1.00  0.00    -0.348 N 
INPUT-LIGAND-PDBQT: ATOM      2  C   UNL     1       0.811   3.269  -2.296  1.00  0.00     0.239 C 
INPUT-LIGAND-PDBQT: ATOM      3  O   UNL     1       0.485   4.504  -2.261  1.00  0.00    -0.273 OA
INPUT-LIGAND-PDBQT: ATOM      4  H   UNL     1       0.035   1.294  -1.976  1.00  0.00     0.164 HD
INPUT-LIGAND-PDBQT: ENDROOT
INPUT-LIGAND-PDBQT: BRANCH   1   5
INPUT-LIGAND-PDBQT: ATOM      5  C   UNL     1      -1.493   2.748  -1.552  1.00  0.00     0.109 C 
INPUT-LIGAND-PDBQT: ATOM      6  C   UNL     1      -2.540   2.208  -2.527  1.00  0.00     0.036 C 
INPUT-LIGAND-PDBQT: BRANCH   5   7
INPUT-LIGAND-PDBQT: ATOM      7  C   UNL     1      -1.806   2.114  -0.246  1.00  0.00    -0.026 A 
INPUT-LIGAND-PDBQT: ATOM      8  C   UNL     1      -2.317   2.854   0.774  1.00  0.00     0.006 A 
INPUT-LIGAND-PDBQT: ATOM      9  C   UNL     1      -1.582   0.768  -0.083  1.00  0.00     0.006 A 
INPUT-LIGAND-PDBQT: ATOM     10  C   UNL     1      -2.631   2.292   2.009  1.00  0.00     0.009 A 
INPUT-LIGAND-PDBQT: ATOM     11  C   UNL     1      -1.876   0.152   1.128  1.00  0.00     0.009 A 
INPUT-LIGAND-PDBQT: ATOM     12  C   UNL     1      -2.389   0.937   2.127  1.00  0.00    -0.018 A 
INPUT-LIGAND-PDBQT: BRANCH  12  13
INPUT-LIGAND-PDBQT: ATOM     13  C   UNL     1      -2.714   0.330   3.413  1.00  0.00    -0.018 A 
INPUT-LIGAND-PDBQT: ATOM     14  C   UNL     1      -3.756   0.792   4.205  1.00  0.00     0.009 A 
INPUT-LIGAND-PDBQT: ATOM     15  C   UNL     1      -1.997  -0.743   3.889  1.00  0.00     0.009 A 
INPUT-LIGAND-PDBQT: ATOM     16  C   UNL     1      -4.033   0.180   5.407  1.00  0.00     0.001 A 
INPUT-LIGAND-PDBQT: ATOM     17  C   UNL     1      -2.253  -1.373   5.086  1.00  0.00     0.001 A 
INPUT-LIGAND-PDBQT: ATOM     18  C   UNL     1      -3.306  -0.902   5.881  1.00  0.00     0.000 A 
INPUT-LIGAND-PDBQT: ENDBRANCH  12  13
INPUT-LIGAND-PDBQT: ENDBRANCH   5   7
INPUT-LIGAND-PDBQT: ENDBRANCH   1   5
INPUT-LIGAND-PDBQT: BRANCH   2  19
INPUT-LIGAND-PDBQT: ATOM     19  C   UNL     1       2.197   2.966  -2.708  1.00  0.00     0.216 C 
INPUT-LIGAND-PDBQT: BRANCH  19  20
INPUT-LIGAND-PDBQT: ATOM     20  N   UNL     1       2.454   1.566  -2.642  1.00  0.00    -0.342 N 
INPUT-LIGAND-PDBQT: ATOM     21  C   UNL     1       2.377   0.946  -1.339  1.00  0.00     0.270 C 
INPUT-LIGAND-PDBQT: ATOM     22  H   UNL     1       2.694   0.952  -3.466  1.00  0.00     0.164 HD
INPUT-LIGAND-PDBQT: ATOM     23  O   UNL     1       2.099   1.669  -0.341  1.00  0.00    -0.268 OA
INPUT-LIGAND-PDBQT: BRANCH  21  24
INPUT-LIGAND-PDBQT: ATOM     24  C   UNL     1       2.614  -0.484  -1.163  1.00  0.00     0.128 A 
INPUT-LIGAND-PDBQT: ATOM     25  C   UNL     1       2.551  -1.012   0.118  1.00  0.00     0.035 A 
INPUT-LIGAND-PDBQT: ATOM     26  N   UNL     1       2.902  -1.304  -2.219  1.00  0.00    -0.243 NA
INPUT-LIGAND-PDBQT: ATOM     27  C   UNL     1       2.775  -2.359   0.336  1.00  0.00     0.013 A 
INPUT-LIGAND-PDBQT: ATOM     28  C   UNL     1       3.122  -2.636  -1.990  1.00  0.00     0.071 A 
INPUT-LIGAND-PDBQT: ATOM     29  C   UNL     1       3.065  -3.186  -0.734  1.00  0.00     0.000 A 
INPUT-LIGAND-PDBQT: ATOM     30  C   UNL     1       3.418  -3.481  -3.068  1.00  0.00     0.029 A 
INPUT-LIGAND-PDBQT: ATOM     31  C   UNL     1       3.281  -4.518  -0.457  1.00  0.00     0.010 A 
INPUT-LIGAND-PDBQT: ATOM     32  C   UNL     1       3.642  -4.842  -2.810  1.00  0.00     0.002 A 
INPUT-LIGAND-PDBQT: ATOM     33  C   UNL     1       3.572  -5.342  -1.517  1.00  0.00     0.001 A 
INPUT-LIGAND-PDBQT: ENDBRANCH  21  24
INPUT-LIGAND-PDBQT: ENDBRANCH  19  20
INPUT-LIGAND-PDBQT: ENDBRANCH   2  19
INPUT-LIGAND-PDBQT: TORSDOF 6


    FINAL DOCKED STATE:
    ________________________


Run:   1 / 20
Time taken for this run:   0.031s

DOCKED: MODEL        1
DOCKED: USER    Run = 1
DOCKED: USER
DOCKED: USER    Estimated Free Energy of Binding    =  -9.77 kcal/mol  [=(1)+(2)+(3)-(4)]
DOCKED: USER
DOCKED: USER    (1) Final Intermolecular Energy     = -11.56 kcal/mol
DOCKED: USER        vdW + Hbond + desolv Energy     = -11.51 kcal/mol
DOCKED: USER        Electrostatic Energy            =  -0.06 kcal/mol
DOCKED: USER        Moving Ligand-Fixed Receptor    = -11.56 kcal/mol
DOCKED: USER        Moving Ligand-Moving Receptor   =  +0.00 kcal/mol
DOCKED: USER    (2) Final Total Internal Energy     =  -2.29 kcal/mol
DOCKED: USER    (3) Torsional Free Energy           =  +1.79 kcal/mol
DOCKED: USER    (4) Unbound System's Energy         =  -2.29 kcal/mol
DOCKED: USER
DOCKED: USER
DOCKED: REMARK SMILES C[C@H](NC(=O)CNC(=O)c1ccc2ccccc2n1)c1ccc(-c2ccccc2)cc1
DOCKED: REMARK SMILES IDX 3 1 4 2 5 3 2 5 1 6 20 7 21 8 31 9 22 10 30 11 23 12 24 13
DOCKED: REMARK SMILES IDX 25 14 29 15 26 16 28 17 27 18 6 19 7 20 8 21 9 23 10 24
DOCKED: REMARK SMILES IDX 11 25 19 26 12 27 18 28 13 29 17 30 14 31 16 32 15 33
DOCKED: REMARK H PARENT 3 4 7 22
DOCKED: USER                              x       y       z     vdW  Elec       q    Type
DOCKED: USER                           _______ _______ _______ _____ _____    ______ ____
DOCKED: ROOT
DOCKED: ATOM      1  N   UNL     1     137.855  73.855 221.897 -0.07 +0.10    -0.348 N  
DOCKED: ATOM      2  C   UNL     1     138.077  73.256 220.645 -0.05 -0.05    +0.239 C  
DOCKED: ATOM      3  O   UNL     1     137.563  73.806 219.613 -0.01 +0.05    -0.273 OA 
DOCKED: ATOM      4  H   UNL     1     138.229  73.444 222.777 -0.52 -0.09    +0.164 HD 
DOCKED: ENDROOT
DOCKED: BRANCH   1   5
DOCKED: ATOM      5  C   UNL     1     137.067  75.074 221.989 -0.16 -0.03    +0.109 C  
DOCKED: ATOM      6  C   UNL     1     136.142  75.019 223.206 -0.20 -0.01    +0.036 C  
DOCKED: BRANCH   5   7
DOCKED: ATOM      7  C   UNL     1     138.000  76.198 222.254 -0.27 +0.01    -0.026 A  
DOCKED: ATOM      8  C   UNL     1     137.524  77.455 222.460 -0.23 -0.00    +0.006 A  
DOCKED: ATOM      9  C   UNL     1     139.352  75.952 222.298 -0.34 -0.00    +0.006 A  
DOCKED: ATOM     10  C   UNL     1     138.368  78.532 222.720 -0.27 -0.00    +0.009 A  
DOCKED: ATOM     11  C   UNL     1     140.243  76.988 222.552 -0.35 -0.00    +0.009 A  
DOCKED: ATOM     12  C   UNL     1     139.718  78.237 222.754 -0.34 +0.00    -0.018 A  
DOCKED: BRANCH  12  13
DOCKED: ATOM     13  C   UNL     1     140.618  79.352 223.027 -0.44 +0.00    -0.018 A  
DOCKED: ATOM     14  C   UNL     1     141.809  79.187 223.720 -0.62 -0.00    +0.009 A  
DOCKED: ATOM     15  C   UNL     1     140.320  80.623 222.593 -0.36 -0.00    +0.009 A  
DOCKED: ATOM     16  C   UNL     1     142.633  80.267 223.945 -0.62 -0.00    +0.001 A  
DOCKED: ATOM     17  C   UNL     1     141.126  81.719 222.804 -0.40 -0.00    +0.001 A  
DOCKED: ATOM     18  C   UNL     1     142.326  81.546 223.504 -0.47 -0.00    +0.000 A  
DOCKED: ENDBRANCH  12  13
DOCKED: ENDBRANCH   5   7
DOCKED: ENDBRANCH   1   5
DOCKED: BRANCH   2  19
DOCKED: ATOM     19  C   UNL     1     138.861  72.025 220.412 -0.04 -0.04    +0.216 C  
DOCKED: BRANCH  19  20
DOCKED: ATOM     20  N   UNL     1     139.012  71.281 221.618 -0.05 +0.06    -0.342 N  
DOCKED: ATOM     21  C   UNL     1     139.812  71.880 222.662 -0.21 -0.05    +0.270 C  
DOCKED: ATOM     22  H   UNL     1     138.587  70.333 221.805 +0.04 -0.03    +0.164 HD 
DOCKED: ATOM     23  O   UNL     1     140.334  73.010 222.450 -0.70 +0.01    -0.268 OA 
DOCKED: BRANCH  21  24
DOCKED: ATOM     24  C   UNL     1     140.022  71.205 223.939 -0.35 -0.02    +0.128 A  
DOCKED: ATOM     25  C   UNL     1     140.703  71.881 224.941 -0.36 -0.00    +0.035 A  
DOCKED: ATOM     26  N   UNL     1     139.575  69.932 224.166 -0.17 +0.04    -0.243 NA 
DOCKED: ATOM     27  C   UNL     1     140.933  71.281 226.165 -0.65 -0.00    +0.013 A  
DOCKED: ATOM     28  C   UNL     1     139.809  69.349 225.383 -0.39 -0.01    +0.071 A  
DOCKED: ATOM     29  C   UNL     1     140.479  69.994 226.392 -0.55 -0.00    +0.000 A  
DOCKED: ATOM     30  C   UNL     1     139.355  68.045 225.621 -0.50 -0.00    +0.029 A  
DOCKED: ATOM     31  C   UNL     1     140.738  69.446 227.629 -0.61 -0.00    +0.010 A  
DOCKED: ATOM     32  C   UNL     1     139.607  67.466 226.874 -0.59 -0.00    +0.002 A  
DOCKED: ATOM     33  C   UNL     1     140.292  68.167 227.857 -0.65 -0.00    +0.001 A  
DOCKED: ENDBRANCH  21  24
DOCKED: ENDBRANCH  19  20
DOCKED: ENDBRANCH   2  19
DOCKED: TORSDOF 6
DOCKED: TER
DOCKED: ENDMDL
________________________________________________________________________________


    FINAL DOCKED STATE:
    ________________________


Run:   2 / 20
Time taken for this run:   0.031s

DOCKED: MODEL        2
DOCKED: USER    Run = 2
DOCKED: USER
DOCKED: USER    Estimated Free Energy of Binding    =  -9.76 kcal/mol  [=(1)+(2)+(3)-(4)]
DOCKED: USER
DOCKED: USER    (1) Final Intermolecular Energy     = -11.55 kcal/mol
DOCKED: USER        vdW + Hbond + desolv Energy     = -11.50 kcal/mol
DOCKED: USER        Electrostatic Energy            =  -0.05 kcal/mol
DOCKED: USER        Moving Ligand-Fixed Receptor    = -11.55 kcal/mol
DOCKED: USER        Moving Ligand-Moving Receptor   =  +0.00 kcal/mol
DOCKED: USER    (2) Final Total Internal Energy     =  -2.31 kcal/mol
DOCKED: USER    (3) Torsional Free Energy           =  +1.79 kcal/mol
DOCKED: USER    (4) Unbound System's Energy         =  -2.31 kcal/mol
DOCKED: USER
DOCKED: USER
DOCKED: REMARK SMILES C[C@H](NC(=O)CNC(=O)c1ccc2ccccc2n1)c1ccc(-c2ccccc2)cc1
DOCKED: REMARK SMILES IDX 3 1 4 2 5 3 2 5 1 6 20 7 21 8 31 9 22 10 30 11 23 12 24 13
DOCKED: REMARK SMILES IDX 25 14 29 15 26 16 28 17 27 18 6 19 7 20 8 21 9 23 10 24
DOCKED: REMARK SMILES IDX 11 25 19 26 12 27 18 28 13 29 17 30 14 31 16 32 15 33
DOCKED: REMARK H PARENT 3 4 7 22
DOCKED: USER                              x       y       z     vdW  Elec       q    Type
DOCKED: USER                           _______ _______ _______ _____ _____    ______ ____
DOCKED: ROOT
DOCKED: ATOM      1  N   UNL     1     137.864  73.874 221.977 -0.07 +0.11    -0.348 N  
DOCKED: ATOM      2  C   UNL     1     137.675  72.975 220.913 -0.05 -0.05    +0.239 C  
DOCKED: ATOM      3  O   UNL     1     136.877  73.311 219.974 -0.01 +0.05    -0.273 OA 
DOCKED: ATOM      4  H   UNL     1     138.485  73.651 222.782 -0.54 -0.09    +0.164 HD 
DOCKED: ENDROOT
DOCKED: BRANCH   1   5
DOCKED: ATOM      5  C   UNL     1     137.167  75.151 221.982 -0.17 -0.03    +0.109 C  
DOCKED: ATOM      6  C   UNL     1     136.167  75.207 223.138 -0.23 -0.01    +0.036 C  
DOCKED: BRANCH   5   7
DOCKED: ATOM      7  C   UNL     1     138.164  76.212 222.272 -0.27 +0.01    -0.026 A  
DOCKED: ATOM      8  C   UNL     1     137.761  77.441 222.690 -0.26 -0.00    +0.006 A  
DOCKED: ATOM      9  C   UNL     1     139.502  75.934 222.120 -0.34 -0.00    +0.006 A  
DOCKED: ATOM     10  C   UNL     1     138.668  78.457 222.980 -0.29 -0.00    +0.009 A  
DOCKED: ATOM     11  C   UNL     1     140.454  76.909 222.394 -0.41 -0.00    +0.009 A  
DOCKED: ATOM     12  C   UNL     1     140.001  78.133 222.813 -0.34 +0.00    -0.018 A  
DOCKED: BRANCH  12  13
DOCKED: ATOM     13  C   UNL     1     140.966  79.184 223.114 -0.49 +0.00    -0.018 A  
DOCKED: ATOM     14  C   UNL     1     140.592  80.383 223.704 -0.45 -0.00    +0.009 A  
DOCKED: ATOM     15  C   UNL     1     142.302  79.019 222.829 -0.53 -0.00    +0.009 A  
DOCKED: ATOM     16  C   UNL     1     141.541  81.342 223.980 -0.44 -0.00    +0.001 A  
DOCKED: ATOM     17  C   UNL     1     143.270  79.961 223.094 -0.58 -0.00    +0.001 A  
DOCKED: ATOM     18  C   UNL     1     142.886  81.169 223.690 -0.50 -0.00    +0.000 A  
DOCKED: ENDBRANCH  12  13
DOCKED: ENDBRANCH   5   7
DOCKED: ENDBRANCH   1   5
DOCKED: BRANCH   2  19
DOCKED: ATOM     19  C   UNL     1     138.325  71.655 220.783 -0.04 -0.04    +0.216 C  
DOCKED: BRANCH  19  20
DOCKED: ATOM     20  N   UNL     1     138.557  71.072 222.063 -0.05 +0.07    -0.342 N  
DOCKED: ATOM     21  C   UNL     1     139.620  71.642 222.859 -0.21 -0.05    +0.270 C  
DOCKED: ATOM     22  H   UNL     1     138.016  70.263 222.470 +0.05 -0.03    +0.164 HD 
DOCKED: ATOM     23  O   UNL     1     140.283  72.606 222.382 -0.44 +0.03    -0.268 OA 
DOCKED: BRANCH  21  24
DOCKED: ATOM     24  C   UNL     1     139.934  71.125 224.188 -0.36 -0.02    +0.128 A  
DOCKED: ATOM     25  C   UNL     1     140.713  71.902 225.033 -0.34 -0.00    +0.035 A  
DOCKED: ATOM     26  N   UNL     1     139.491  69.902 224.611 -0.19 +0.04    -0.243 NA 
DOCKED: ATOM     27  C   UNL     1     141.043  71.452 226.298 -0.68 -0.00    +0.013 A  
DOCKED: ATOM     28  C   UNL     1     139.824  69.468 225.866 -0.42 -0.01    +0.071 A  
DOCKED: ATOM     29  C   UNL     1     140.592  70.215 226.723 -0.58 -0.00    +0.000 A  
DOCKED: ATOM     30  C   UNL     1     139.373  68.216 226.305 -0.55 -0.00    +0.029 A  
DOCKED: ATOM     31  C   UNL     1     140.953  69.818 227.992 -0.60 -0.00    +0.010 A  
DOCKED: ATOM     32  C   UNL     1     139.728  67.790 227.594 -0.44 -0.00    +0.002 A  
DOCKED: ATOM     33  C   UNL     1     140.509  68.590 228.417 -0.66 -0.00    +0.001 A  
DOCKED: ENDBRANCH  21  24
DOCKED: ENDBRANCH  19  20
DOCKED: ENDBRANCH   2  19
DOCKED: TORSDOF 6
DOCKED: TER
DOCKED: ENDMDL
________________________________________________________________________________


    FINAL DOCKED STATE:
    ________________________


Run:   3 / 20
Time taken for this run:   0.031s

DOCKED: MODEL        3
DOCKED: USER    Run = 3
DOCKED: USER
DOCKED: USER    Estimated Free Energy of Binding    =  -9.83 kcal/mol  [=(1)+(2)+(3)-(4)]
DOCKED: USER
DOCKED: USER    (1) Final Intermolecular Energy     = -11.62 kcal/mol
DOCKED: USER        vdW + Hbond + desolv Energy     = -11.56 kcal/mol
DOCKED: USER        Electrostatic Energy            =  -0.06 kcal/mol
DOCKED: USER        Moving Ligand-Fixed Receptor    = -11.62 kcal/mol
DOCKED: USER        Moving Ligand-Moving Receptor   =  +0.00 kcal/mol
DOCKED: USER    (2) Final Total Internal Energy     =  -2.31 kcal/mol
DOCKED: USER    (3) Torsional Free Energy           =  +1.79 kcal/mol
DOCKED: USER    (4) Unbound System's Energy         =  -2.31 kcal/mol
DOCKED: USER
DOCKED: USER
DOCKED: REMARK SMILES C[C@H](NC(=O)CNC(=O)c1ccc2ccccc2n1)c1ccc(-c2ccccc2)cc1
DOCKED: REMARK SMILES IDX 3 1 4 2 5 3 2 5 1 6 20 7 21 8 31 9 22 10 30 11 23 12 24 13
DOCKED: REMARK SMILES IDX 25 14 29 15 26 16 28 17 27 18 6 19 7 20 8 21 9 23 10 24
DOCKED: REMARK SMILES IDX 11 25 19 26 12 27 18 28 13 29 17 30 14 31 16 32 15 33
DOCKED: REMARK H PARENT 3 4 7 22
DOCKED: USER                              x       y       z     vdW  Elec       q    Type
DOCKED: USER                           _______ _______ _______ _____ _____    ______ ____
DOCKED: ROOT
DOCKED: ATOM      1  N   UNL     1     138.055  73.780 221.952 -0.08 +0.11    -0.348 N  
DOCKED: ATOM      2  C   UNL     1     138.079  72.955 220.814 -0.06 -0.05    +0.239 C  
DOCKED: ATOM      3  O   UNL     1     137.456  73.349 219.770 -0.01 +0.05    -0.273 OA 
DOCKED: ATOM      4  H   UNL     1     138.526  73.505 222.839 -0.53 -0.09    +0.164 HD 
DOCKED: ENDROOT
DOCKED: BRANCH   1   5
DOCKED: ATOM      5  C   UNL     1     137.344  75.048 221.915 -0.17 -0.03    +0.109 C  
DOCKED: ATOM      6  C   UNL     1     136.300  75.105 223.031 -0.19 -0.01    +0.036 C  
DOCKED: BRANCH   5   7
DOCKED: ATOM      7  C   UNL     1     138.318  76.123 222.231 -0.28 +0.01    -0.026 A  
DOCKED: ATOM      8  C   UNL     1     137.885  77.345 222.642 -0.27 -0.00    +0.006 A  
DOCKED: ATOM      9  C   UNL     1     139.663  75.867 222.111 -0.34 -0.00    +0.006 A  
DOCKED: ATOM     10  C   UNL     1     138.770  78.375 222.955 -0.29 -0.00    +0.009 A  
DOCKED: ATOM     11  C   UNL     1     140.592  76.856 222.410 -0.41 -0.00    +0.009 A  
DOCKED: ATOM     12  C   UNL     1     140.111  78.071 222.820 -0.34 +0.00    -0.018 A  
DOCKED: BRANCH  12  13
DOCKED: ATOM     13  C   UNL     1     141.052  79.137 223.146 -0.51 +0.00    -0.018 A  
DOCKED: ATOM     14  C   UNL     1     140.661  80.288 223.817 -0.45 -0.00    +0.009 A  
DOCKED: ATOM     15  C   UNL     1     142.381  79.034 222.806 -0.52 -0.00    +0.009 A  
DOCKED: ATOM     16  C   UNL     1     141.588  81.262 224.113 -0.42 -0.00    +0.001 A  
DOCKED: ATOM     17  C   UNL     1     143.327  79.992 223.090 -0.58 -0.00    +0.001 A  
DOCKED: ATOM     18  C   UNL     1     142.927  81.152 223.767 -0.53 -0.00    +0.000 A  
DOCKED: ENDBRANCH  12  13
DOCKED: ENDBRANCH   5   7
DOCKED: ENDBRANCH   1   5
DOCKED: BRANCH   2  19
DOCKED: ATOM     19  C   UNL     1     138.767  71.651 220.716 -0.05 -0.04    +0.216 C  
DOCKED: BRANCH  19  20
DOCKED: ATOM     20  N   UNL     1     138.909  71.051 222.001 -0.06 +0.07    -0.342 N  
DOCKED: ATOM     21  C   UNL     1     139.856  71.659 222.906 -0.22 -0.05    +0.270 C  
DOCKED: ATOM     22  H   UNL     1     138.378  70.204 222.339 +0.05 -0.03    +0.164 HD 
DOCKED: ATOM     23  O   UNL     1     140.506  72.669 222.514 -0.52 +0.02    -0.268 OA 
DOCKED: BRANCH  21  24
DOCKED: ATOM     24  C   UNL     1     140.071  71.128 224.250 -0.37 -0.02    +0.128 A  
DOCKED: ATOM     25  C   UNL     1     140.793  71.892 225.155 -0.34 -0.00    +0.035 A  
DOCKED: ATOM     26  N   UNL     1     139.590  69.905 224.629 -0.19 +0.04    -0.243 NA 
DOCKED: ATOM     27  C   UNL     1     141.028  71.429 226.436 -0.69 -0.00    +0.013 A  
DOCKED: ATOM     28  C   UNL     1     139.830  69.458 225.900 -0.43 -0.01    +0.071 A  
DOCKED: ATOM     29  C   UNL     1     140.539  70.192 226.817 -0.58 -0.00    +0.000 A  
DOCKED: ATOM     30  C   UNL     1     139.340  68.205 226.294 -0.54 -0.00    +0.029 A  
DOCKED: ATOM     31  C   UNL     1     140.806  69.781 228.105 -0.60 -0.00    +0.010 A  
DOCKED: ATOM     32  C   UNL     1     139.600  67.765 227.601 -0.40 -0.00    +0.002 A  
DOCKED: ATOM     33  C   UNL     1     140.325  68.552 228.485 -0.65 -0.00    +0.001 A  
DOCKED: ENDBRANCH  21  24
DOCKED: ENDBRANCH  19  20
DOCKED: ENDBRANCH   2  19
DOCKED: TORSDOF 6
DOCKED: TER
DOCKED: ENDMDL
________________________________________________________________________________


    FINAL DOCKED STATE:
    ________________________


Run:   4 / 20
Time taken for this run:   0.031s

DOCKED: MODEL        4
DOCKED: USER    Run = 4
DOCKED: USER
DOCKED: USER    Estimated Free Energy of Binding    =  -9.82 kcal/mol  [=(1)+(2)+(3)-(4)]
DOCKED: USER
DOCKED: USER    (1) Final Intermolecular Energy     = -11.61 kcal/mol
DOCKED: USER        vdW + Hbond + desolv Energy     = -11.56 kcal/mol
DOCKED: USER        Electrostatic Energy            =  -0.06 kcal/mol
DOCKED: USER        Moving Ligand-Fixed Receptor    = -11.61 kcal/mol
DOCKED: USER        Moving Ligand-Moving Receptor   =  +0.00 kcal/mol
DOCKED: USER    (2) Final Total Internal Energy     =  -2.29 kcal/mol
DOCKED: USER    (3) Torsional Free Energy           =  +1.79 kcal/mol
DOCKED: USER    (4) Unbound System's Energy         =  -2.29 kcal/mol
DOCKED: USER
DOCKED: USER
DOCKED: REMARK SMILES C[C@H](NC(=O)CNC(=O)c1ccc2ccccc2n1)c1ccc(-c2ccccc2)cc1
DOCKED: REMARK SMILES IDX 3 1 4 2 5 3 2 5 1 6 20 7 21 8 31 9 22 10 30 11 23 12 24 13
DOCKED: REMARK SMILES IDX 25 14 29 15 26 16 28 17 27 18 6 19 7 20 8 21 9 23 10 24
DOCKED: REMARK SMILES IDX 11 25 19 26 12 27 18 28 13 29 17 30 14 31 16 32 15 33
DOCKED: REMARK H PARENT 3 4 7 22
DOCKED: USER                              x       y       z     vdW  Elec       q    Type
DOCKED: USER                           _______ _______ _______ _____ _____    ______ ____
DOCKED: ROOT
DOCKED: ATOM      1  N   UNL     1     137.895  73.678 221.971 -0.07 +0.11    -0.348 N  
DOCKED: ATOM      2  C   UNL     1     137.986  72.903 220.802 -0.05 -0.05    +0.239 C  
DOCKED: ATOM      3  O   UNL     1     137.417  73.338 219.744 -0.01 +0.05    -0.273 OA 
DOCKED: ATOM      4  H   UNL     1     138.320  73.369 222.870 -0.51 -0.09    +0.164 HD 
DOCKED: ENDROOT
DOCKED: BRANCH   1   5
DOCKED: ATOM      5  C   UNL     1     137.178  74.943 221.950 -0.16 -0.03    +0.109 C  
DOCKED: ATOM      6  C   UNL     1     136.170  75.002 223.099 -0.21 -0.01    +0.036 C  
DOCKED: BRANCH   5   7
DOCKED: ATOM      7  C   UNL     1     138.156  76.025 222.227 -0.27 +0.01    -0.026 A  
DOCKED: ATOM      8  C   UNL     1     137.730  77.256 222.617 -0.26 -0.00    +0.006 A  
DOCKED: ATOM      9  C   UNL     1     139.499  75.765 222.094 -0.33 -0.00    +0.006 A  
DOCKED: ATOM     10  C   UNL     1     138.619  78.292 222.894 -0.28 -0.00    +0.009 A  
DOCKED: ATOM     11  C   UNL     1     140.433  76.760 222.357 -0.41 -0.00    +0.009 A  
DOCKED: ATOM     12  C   UNL     1     139.958  77.985 222.746 -0.35 +0.00    -0.018 A  
DOCKED: BRANCH  12  13
DOCKED: ATOM     13  C   UNL     1     140.904  79.057 223.034 -0.48 +0.00    -0.018 A  
DOCKED: ATOM     14  C   UNL     1     142.248  78.964 222.702 -0.49 -0.00    +0.009 A  
DOCKED: ATOM     15  C   UNL     1     140.491  80.218 223.645 -0.45 -0.00    +0.009 A  
DOCKED: ATOM     16  C   UNL     1     143.103  80.006 222.983 -0.62 -0.00    +0.001 A  
DOCKED: ATOM     17  C   UNL     1     141.324  81.275 223.937 -0.42 -0.00    +0.001 A  
DOCKED: ATOM     18  C   UNL     1     142.680  81.175 223.599 -0.55 -0.00    +0.000 A  
DOCKED: ENDBRANCH  12  13
DOCKED: ENDBRANCH   5   7
DOCKED: ENDBRANCH   1   5
DOCKED: BRANCH   2  19
DOCKED: ATOM     19  C   UNL     1     138.689  71.608 220.686 -0.04 -0.04    +0.216 C  
DOCKED: BRANCH  19  20
DOCKED: ATOM     20  N   UNL     1     138.861  71.005 221.966 -0.05 +0.07    -0.342 N  
DOCKED: ATOM     21  C   UNL     1     139.769  71.658 222.881 -0.21 -0.05    +0.270 C  
DOCKED: ATOM     22  H   UNL     1     138.379  70.125 222.294 +0.05 -0.03    +0.164 HD 
DOCKED: ATOM     23  O   UNL     1     140.360  72.708 222.501 -0.54 +0.02    -0.268 OA 
DOCKED: BRANCH  21  24
DOCKED: ATOM     24  C   UNL     1     140.010  71.127 224.220 -0.37 -0.02    +0.128 A  
DOCKED: ATOM     25  C   UNL     1     140.757  71.886 225.108 -0.36 -0.00    +0.035 A  
DOCKED: ATOM     26  N   UNL     1     139.528  69.908 224.611 -0.19 +0.04    -0.243 NA 
DOCKED: ATOM     27  C   UNL     1     141.018  71.423 226.384 -0.68 -0.00    +0.013 A  
DOCKED: ATOM     28  C   UNL     1     139.793  69.461 225.878 -0.42 -0.01    +0.071 A  
DOCKED: ATOM     29  C   UNL     1     140.529  70.191 226.778 -0.58 -0.00    +0.000 A  
DOCKED: ATOM     30  C   UNL     1     139.303  68.212 226.285 -0.54 -0.00    +0.029 A  
DOCKED: ATOM     31  C   UNL     1     140.822  69.779 228.059 -0.60 -0.00    +0.010 A  
DOCKED: ATOM     32  C   UNL     1     139.589  67.772 227.586 -0.41 -0.00    +0.002 A  
DOCKED: ATOM     33  C   UNL     1     140.340  68.555 228.453 -0.65 -0.00    +0.001 A  
DOCKED: ENDBRANCH  21  24
DOCKED: ENDBRANCH  19  20
DOCKED: ENDBRANCH   2  19
DOCKED: TORSDOF 6
DOCKED: TER
DOCKED: ENDMDL
________________________________________________________________________________


    FINAL DOCKED STATE:
    ________________________


Run:   5 / 20
Time taken for this run:   0.031s

DOCKED: MODEL        5
DOCKED: USER    Run = 5
DOCKED: USER
DOCKED: USER    Estimated Free Energy of Binding    =  -9.85 kcal/mol  [=(1)+(2)+(3)-(4)]
DOCKED: USER
DOCKED: USER    (1) Final Intermolecular Energy     = -11.64 kcal/mol
DOCKED: USER        vdW + Hbond + desolv Energy     = -11.59 kcal/mol
DOCKED: USER        Electrostatic Energy            =  -0.05 kcal/mol
DOCKED: USER        Moving Ligand-Fixed Receptor    = -11.64 kcal/mol
DOCKED: USER        Moving Ligand-Moving Receptor   =  +0.00 kcal/mol
DOCKED: USER    (2) Final Total Internal Energy     =  -2.24 kcal/mol
DOCKED: USER    (3) Torsional Free Energy           =  +1.79 kcal/mol
DOCKED: USER    (4) Unbound System's Energy         =  -2.24 kcal/mol
DOCKED: USER
DOCKED: USER
DOCKED: REMARK SMILES C[C@H](NC(=O)CNC(=O)c1ccc2ccccc2n1)c1ccc(-c2ccccc2)cc1
DOCKED: REMARK SMILES IDX 3 1 4 2 5 3 2 5 1 6 20 7 21 8 31 9 22 10 30 11 23 12 24 13
DOCKED: REMARK SMILES IDX 25 14 29 15 26 16 28 17 27 18 6 19 7 20 8 21 9 23 10 24
DOCKED: REMARK SMILES IDX 11 25 19 26 12 27 18 28 13 29 17 30 14 31 16 32 15 33
DOCKED: REMARK H PARENT 3 4 7 22
DOCKED: USER                              x       y       z     vdW  Elec       q    Type
DOCKED: USER                           _______ _______ _______ _____ _____    ______ ____
DOCKED: ROOT
DOCKED: ATOM      1  N   UNL     1     137.892  73.802 221.834 -0.07 +0.10    -0.348 N  
DOCKED: ATOM      2  C   UNL     1     138.152  73.209 220.587 -0.05 -0.05    +0.239 C  
DOCKED: ATOM      3  O   UNL     1     137.720  73.797 219.538 -0.01 +0.05    -0.273 OA 
DOCKED: ATOM      4  H   UNL     1     138.200  73.362 222.727 -0.51 -0.08    +0.164 HD 
DOCKED: ENDROOT
DOCKED: BRANCH   1   5
DOCKED: ATOM      5  C   UNL     1     137.159  75.056 221.904 -0.16 -0.03    +0.109 C  
DOCKED: ATOM      6  C   UNL     1     136.188  75.040 223.085 -0.21 -0.01    +0.036 C  
DOCKED: BRANCH   5   7
DOCKED: ATOM      7  C   UNL     1     138.133  76.135 222.209 -0.27 +0.01    -0.026 A  
DOCKED: ATOM      8  C   UNL     1     139.468  75.918 222.067 -0.33 -0.00    +0.006 A  
DOCKED: ATOM      9  C   UNL     1     137.669  77.358 222.627 -0.26 -0.00    +0.006 A  
DOCKED: ATOM     10  C   UNL     1     140.409  76.908 222.334 -0.41 -0.00    +0.009 A  
DOCKED: ATOM     11  C   UNL     1     138.562  78.385 222.910 -0.28 -0.00    +0.009 A  
DOCKED: ATOM     12  C   UNL     1     139.897  78.121 222.752 -0.35 +0.00    -0.018 A  
DOCKED: BRANCH  12  13
DOCKED: ATOM     13  C   UNL     1     140.869  79.172 223.035 -0.48 +0.00    -0.018 A  
DOCKED: ATOM     14  C   UNL     1     142.213  79.039 222.718 -0.54 -0.00    +0.009 A  
DOCKED: ATOM     15  C   UNL     1     140.481  80.352 223.625 -0.45 -0.00    +0.009 A  
DOCKED: ATOM     16  C   UNL     1     143.092  80.063 222.994 -0.63 -0.00    +0.001 A  
DOCKED: ATOM     17  C   UNL     1     141.338  81.391 223.912 -0.36 -0.00    +0.001 A  
DOCKED: ATOM     18  C   UNL     1     142.694  81.251 223.589 -0.52 -0.00    +0.000 A  
DOCKED: ENDBRANCH  12  13
DOCKED: ENDBRANCH   5   7
DOCKED: ENDBRANCH   1   5
DOCKED: BRANCH   2  19
DOCKED: ATOM     19  C   UNL     1     138.889  71.945 220.376 -0.04 -0.04    +0.216 C  
DOCKED: BRANCH  19  20
DOCKED: ATOM     20  N   UNL     1     139.029  71.227 221.599 -0.04 +0.06    -0.342 N  
DOCKED: ATOM     21  C   UNL     1     139.817  71.849 222.638 -0.21 -0.05    +0.270 C  
DOCKED: ATOM     22  H   UNL     1     138.603  70.283 221.802 +0.04 -0.03    +0.164 HD 
DOCKED: ATOM     23  O   UNL     1     140.340  72.976 222.408 -0.68 +0.02    -0.268 OA 
DOCKED: BRANCH  21  24
DOCKED: ATOM     24  C   UNL     1     140.015  71.201 223.932 -0.35 -0.02    +0.128 A  
DOCKED: ATOM     25  C   UNL     1     140.697  71.895 224.921 -0.35 -0.00    +0.035 A  
DOCKED: ATOM     26  N   UNL     1     139.557  69.938 224.185 -0.17 +0.04    -0.243 NA 
DOCKED: ATOM     27  C   UNL     1     140.915  71.321 226.160 -0.65 -0.00    +0.013 A  
DOCKED: ATOM     28  C   UNL     1     139.780  69.380 225.416 -0.39 -0.01    +0.071 A  
DOCKED: ATOM     29  C   UNL     1     140.450  70.043 226.413 -0.55 -0.00    +0.000 A  
DOCKED: ATOM     30  C   UNL     1     139.313  68.086 225.681 -0.51 -0.00    +0.029 A  
DOCKED: ATOM     31  C   UNL     1     140.698  69.521 227.664 -0.61 -0.00    +0.010 A  
DOCKED: ATOM     32  C   UNL     1     139.555  67.533 226.948 -0.56 -0.00    +0.002 A  
DOCKED: ATOM     33  C   UNL     1     140.240  68.252 227.918 -0.64 -0.00    +0.001 A  
DOCKED: ENDBRANCH  21  24
DOCKED: ENDBRANCH  19  20
DOCKED: ENDBRANCH   2  19
DOCKED: TORSDOF 6
DOCKED: TER
DOCKED: ENDMDL
________________________________________________________________________________


    FINAL DOCKED STATE:
    ________________________


Run:   6 / 20
Time taken for this run:   0.031s

DOCKED: MODEL        6
DOCKED: USER    Run = 6
DOCKED: USER
DOCKED: USER    Estimated Free Energy of Binding    =  -9.86 kcal/mol  [=(1)+(2)+(3)-(4)]
DOCKED: USER
DOCKED: USER    (1) Final Intermolecular Energy     = -11.65 kcal/mol
DOCKED: USER        vdW + Hbond + desolv Energy     = -11.59 kcal/mol
DOCKED: USER        Electrostatic Energy            =  -0.06 kcal/mol
DOCKED: USER        Moving Ligand-Fixed Receptor    = -11.65 kcal/mol
DOCKED: USER        Moving Ligand-Moving Receptor   =  +0.00 kcal/mol
DOCKED: USER    (2) Final Total Internal Energy     =  -2.29 kcal/mol
DOCKED: USER    (3) Torsional Free Energy           =  +1.79 kcal/mol
DOCKED: USER    (4) Unbound System's Energy         =  -2.29 kcal/mol
DOCKED: USER
DOCKED: USER
DOCKED: REMARK SMILES C[C@H](NC(=O)CNC(=O)c1ccc2ccccc2n1)c1ccc(-c2ccccc2)cc1
DOCKED: REMARK SMILES IDX 3 1 4 2 5 3 2 5 1 6 20 7 21 8 31 9 22 10 30 11 23 12 24 13
DOCKED: REMARK SMILES IDX 25 14 29 15 26 16 28 17 27 18 6 19 7 20 8 21 9 23 10 24
DOCKED: REMARK SMILES IDX 11 25 19 26 12 27 18 28 13 29 17 30 14 31 16 32 15 33
DOCKED: REMARK H PARENT 3 4 7 22
DOCKED: USER                              x       y       z     vdW  Elec       q    Type
DOCKED: USER                           _______ _______ _______ _____ _____    ______ ____
DOCKED: ROOT
DOCKED: ATOM      1  N   UNL     1     137.914  73.905 221.930 -0.08 +0.11    -0.348 N  
DOCKED: ATOM      2  C   UNL     1     137.987  73.195 220.719 -0.05 -0.05    +0.239 C  
DOCKED: ATOM      3  O   UNL     1     137.413  73.694 219.692 -0.01 +0.05    -0.273 OA 
DOCKED: ATOM      4  H   UNL     1     138.343  73.542 222.806 -0.53 -0.09    +0.164 HD 
DOCKED: ENDROOT
DOCKED: BRANCH   1   5
DOCKED: ATOM      5  C   UNL     1     137.209  75.176 221.985 -0.17 -0.03    +0.109 C  
DOCKED: ATOM      6  C   UNL     1     136.240  75.196 223.168 -0.21 -0.01    +0.036 C  
DOCKED: BRANCH   5   7
DOCKED: ATOM      7  C   UNL     1     138.208  76.236 222.276 -0.28 +0.01    -0.026 A  
DOCKED: ATOM      8  C   UNL     1     137.804  77.470 222.681 -0.26 -0.00    +0.006 A  
DOCKED: ATOM      9  C   UNL     1     139.545  75.953 222.139 -0.34 -0.00    +0.006 A  
DOCKED: ATOM     10  C   UNL     1     138.712  78.486 222.971 -0.29 -0.00    +0.009 A  
DOCKED: ATOM     11  C   UNL     1     140.498  76.928 222.415 -0.41 -0.00    +0.009 A  
DOCKED: ATOM     12  C   UNL     1     140.045  78.156 222.819 -0.35 +0.00    -0.018 A  
DOCKED: BRANCH  12  13
DOCKED: ATOM     13  C   UNL     1     141.011  79.207 223.121 -0.50 +0.00    -0.018 A  
DOCKED: ATOM     14  C   UNL     1     140.640  80.397 223.732 -0.45 -0.00    +0.009 A  
DOCKED: ATOM     15  C   UNL     1     142.343  79.050 222.816 -0.53 -0.00    +0.009 A  
DOCKED: ATOM     16  C   UNL     1     141.589  81.355 224.007 -0.44 -0.00    +0.001 A  
DOCKED: ATOM     17  C   UNL     1     143.311  79.992 223.081 -0.58 -0.00    +0.001 A  
DOCKED: ATOM     18  C   UNL     1     142.931  81.191 223.698 -0.48 -0.00    +0.000 A  
DOCKED: ENDBRANCH  12  13
DOCKED: ENDBRANCH   5   7
DOCKED: ENDBRANCH   1   5
DOCKED: BRANCH   2  19
DOCKED: ATOM     19  C   UNL     1     138.674  71.902 220.525 -0.04 -0.04    +0.216 C  
DOCKED: BRANCH  19  20
DOCKED: ATOM     20  N   UNL     1     138.835  71.219 221.765 -0.05 +0.07    -0.342 N  
DOCKED: ATOM     21  C   UNL     1     139.751  71.800 222.720 -0.21 -0.05    +0.270 C  
DOCKED: ATOM     22  H   UNL     1     138.339  70.328 222.038 +0.04 -0.03    +0.164 HD 
DOCKED: ATOM     23  O   UNL     1     140.359  72.861 222.405 -0.61 +0.02    -0.268 OA 
DOCKED: BRANCH  21  24
DOCKED: ATOM     24  C   UNL     1     139.982  71.184 224.024 -0.35 -0.02    +0.128 A  
DOCKED: ATOM     25  C   UNL     1     140.705  71.893 224.971 -0.36 -0.00    +0.035 A  
DOCKED: ATOM     26  N   UNL     1     139.513  69.935 224.326 -0.18 +0.04    -0.243 NA 
DOCKED: ATOM     27  C   UNL     1     140.955  71.349 226.218 -0.66 -0.00    +0.013 A  
DOCKED: ATOM     28  C   UNL     1     139.767  69.407 225.563 -0.40 -0.01    +0.071 A  
DOCKED: ATOM     29  C   UNL     1     140.479  70.086 226.521 -0.56 -0.00    +0.000 A  
DOCKED: ATOM     30  C   UNL     1     139.290  68.128 225.878 -0.53 -0.00    +0.029 A  
DOCKED: ATOM     31  C   UNL     1     140.760  69.594 227.776 -0.61 -0.00    +0.010 A  
DOCKED: ATOM     32  C   UNL     1     139.565  67.606 227.152 -0.50 -0.00    +0.002 A  
DOCKED: ATOM     33  C   UNL     1     140.291  68.339 228.080 -0.64 -0.00    +0.001 A  
DOCKED: ENDBRANCH  21  24
DOCKED: ENDBRANCH  19  20
DOCKED: ENDBRANCH   2  19
DOCKED: TORSDOF 6
DOCKED: TER
DOCKED: ENDMDL
________________________________________________________________________________


    FINAL DOCKED STATE:
    ________________________


Run:   7 / 20
Time taken for this run:   0.031s

DOCKED: MODEL        7
DOCKED: USER    Run = 7
DOCKED: USER
DOCKED: USER    Estimated Free Energy of Binding    =  -9.85 kcal/mol  [=(1)+(2)+(3)-(4)]
DOCKED: USER
DOCKED: USER    (1) Final Intermolecular Energy     = -11.64 kcal/mol
DOCKED: USER        vdW + Hbond + desolv Energy     = -11.58 kcal/mol
DOCKED: USER        Electrostatic Energy            =  -0.06 kcal/mol
DOCKED: USER        Moving Ligand-Fixed Receptor    = -11.64 kcal/mol
DOCKED: USER        Moving Ligand-Moving Receptor   =  +0.00 kcal/mol
DOCKED: USER    (2) Final Total Internal Energy     =  -2.30 kcal/mol
DOCKED: USER    (3) Torsional Free Energy           =  +1.79 kcal/mol
DOCKED: USER    (4) Unbound System's Energy         =  -2.30 kcal/mol
DOCKED: USER
DOCKED: USER
DOCKED: REMARK SMILES C[C@H](NC(=O)CNC(=O)c1ccc2ccccc2n1)c1ccc(-c2ccccc2)cc1
DOCKED: REMARK SMILES IDX 3 1 4 2 5 3 2 5 1 6 20 7 21 8 31 9 22 10 30 11 23 12 24 13
DOCKED: REMARK SMILES IDX 25 14 29 15 26 16 28 17 27 18 6 19 7 20 8 21 9 23 10 24
DOCKED: REMARK SMILES IDX 11 25 19 26 12 27 18 28 13 29 17 30 14 31 16 32 15 33
DOCKED: REMARK H PARENT 3 4 7 22
DOCKED: USER                              x       y       z     vdW  Elec       q    Type
DOCKED: USER                           _______ _______ _______ _____ _____    ______ ____
DOCKED: ROOT
DOCKED: ATOM      1  N   UNL     1     137.949  73.965 221.942 -0.08 +0.11    -0.348 N  
DOCKED: ATOM      2  C   UNL     1     137.994  73.241 220.738 -0.05 -0.05    +0.239 C  
DOCKED: ATOM      3  O   UNL     1     137.393  73.725 219.720 -0.01 +0.05    -0.273 OA 
DOCKED: ATOM      4  H   UNL     1     138.401  73.614 222.812 -0.54 -0.09    +0.164 HD 
DOCKED: ENDROOT
DOCKED: BRANCH   1   5
DOCKED: ATOM      5  C   UNL     1     137.240  75.233 222.000 -0.17 -0.03    +0.109 C  
DOCKED: ATOM      6  C   UNL     1     136.267  75.246 223.180 -0.21 -0.01    +0.036 C  
DOCKED: BRANCH   5   7
DOCKED: ATOM      7  C   UNL     1     138.234  76.296 222.298 -0.28 +0.01    -0.026 A  
DOCKED: ATOM      8  C   UNL     1     137.826  77.522 222.720 -0.27 -0.00    +0.006 A  
DOCKED: ATOM      9  C   UNL     1     139.573  76.022 222.149 -0.34 -0.00    +0.006 A  
DOCKED: ATOM     10  C   UNL     1     138.730  78.539 223.017 -0.30 -0.00    +0.009 A  
DOCKED: ATOM     11  C   UNL     1     140.521  76.999 222.430 -0.41 -0.00    +0.009 A  
DOCKED: ATOM     12  C   UNL     1     140.064  78.219 222.853 -0.35 +0.00    -0.018 A  
DOCKED: BRANCH  12  13
DOCKED: ATOM     13  C   UNL     1     141.025  79.272 223.162 -0.50 +0.00    -0.018 A  
DOCKED: ATOM     14  C   UNL     1     140.655  80.446 223.802 -0.44 -0.00    +0.009 A  
DOCKED: ATOM     15  C   UNL     1     142.354  79.133 222.834 -0.54 -0.00    +0.009 A  
DOCKED: ATOM     16  C   UNL     1     141.600  81.407 224.083 -0.38 -0.00    +0.001 A  
DOCKED: ATOM     17  C   UNL     1     143.319  80.077 223.103 -0.61 -0.00    +0.001 A  
DOCKED: ATOM     18  C   UNL     1     142.938  81.260 223.750 -0.46 -0.00    +0.000 A  
DOCKED: ENDBRANCH  12  13
DOCKED: ENDBRANCH   5   7
DOCKED: ENDBRANCH   1   5
DOCKED: BRANCH   2  19
DOCKED: ATOM     19  C   UNL     1     138.683  71.948 220.542 -0.04 -0.04    +0.216 C  
DOCKED: BRANCH  19  20
DOCKED: ATOM     20  N   UNL     1     138.842  71.262 221.781 -0.05 +0.07    -0.342 N  
DOCKED: ATOM     21  C   UNL     1     139.771  71.831 222.731 -0.21 -0.05    +0.270 C  
DOCKED: ATOM     22  H   UNL     1     138.337  70.378 222.056 +0.04 -0.03    +0.164 HD 
DOCKED: ATOM     23  O   UNL     1     140.390  72.886 222.414 -0.62 +0.02    -0.268 OA 
DOCKED: BRANCH  21  24
DOCKED: ATOM     24  C   UNL     1     140.000  71.212 224.033 -0.35 -0.02    +0.128 A  
DOCKED: ATOM     25  C   UNL     1     140.720  71.919 224.984 -0.29 -0.00    +0.035 A  
DOCKED: ATOM     26  N   UNL     1     139.535  69.960 224.330 -0.18 +0.04    -0.243 NA 
DOCKED: ATOM     27  C   UNL     1     140.970  71.371 226.229 -0.66 -0.00    +0.013 A  
DOCKED: ATOM     28  C   UNL     1     139.788  69.429 225.566 -0.40 -0.01    +0.071 A  
DOCKED: ATOM     29  C   UNL     1     140.497  70.106 226.527 -0.56 -0.00    +0.000 A  
DOCKED: ATOM     30  C   UNL     1     139.314  68.147 225.876 -0.53 -0.00    +0.029 A  
DOCKED: ATOM     31  C   UNL     1     140.777  69.611 227.781 -0.61 -0.00    +0.010 A  
DOCKED: ATOM     32  C   UNL     1     139.588  67.622 227.148 -0.51 -0.00    +0.002 A  
DOCKED: ATOM     33  C   UNL     1     140.311  68.354 228.080 -0.65 -0.00    +0.001 A  
DOCKED: ENDBRANCH  21  24
DOCKED: ENDBRANCH  19  20
DOCKED: ENDBRANCH   2  19
DOCKED: TORSDOF 6
DOCKED: TER
DOCKED: ENDMDL
________________________________________________________________________________


    FINAL DOCKED STATE:
    ________________________


Run:   8 / 20
Time taken for this run:   0.031s

DOCKED: MODEL        8
DOCKED: USER    Run = 8
DOCKED: USER
DOCKED: USER    Estimated Free Energy of Binding    =  -8.78 kcal/mol  [=(1)+(2)+(3)-(4)]
DOCKED: USER
DOCKED: USER    (1) Final Intermolecular Energy     = -10.57 kcal/mol
DOCKED: USER        vdW + Hbond + desolv Energy     = -10.57 kcal/mol
DOCKED: USER        Electrostatic Energy            =  -0.00 kcal/mol
DOCKED: USER        Moving Ligand-Fixed Receptor    = -10.57 kcal/mol
DOCKED: USER        Moving Ligand-Moving Receptor   =  +0.00 kcal/mol
DOCKED: USER    (2) Final Total Internal Energy     =  -2.18 kcal/mol
DOCKED: USER    (3) Torsional Free Energy           =  +1.79 kcal/mol
DOCKED: USER    (4) Unbound System's Energy         =  -2.18 kcal/mol
DOCKED: USER
DOCKED: USER
DOCKED: REMARK SMILES C[C@H](NC(=O)CNC(=O)c1ccc2ccccc2n1)c1ccc(-c2ccccc2)cc1
DOCKED: REMARK SMILES IDX 3 1 4 2 5 3 2 5 1 6 20 7 21 8 31 9 22 10 30 11 23 12 24 13
DOCKED: REMARK SMILES IDX 25 14 29 15 26 16 28 17 27 18 6 19 7 20 8 21 9 23 10 24
DOCKED: REMARK SMILES IDX 11 25 19 26 12 27 18 28 13 29 17 30 14 31 16 32 15 33
DOCKED: REMARK H PARENT 3 4 7 22
DOCKED: USER                              x       y       z     vdW  Elec       q    Type
DOCKED: USER                           _______ _______ _______ _____ _____    ______ ____
DOCKED: ROOT
DOCKED: ATOM      1  N   UNL     1     140.361  73.016 220.284 -0.03 +0.06    -0.348 N  
DOCKED: ATOM      2  C   UNL     1     140.388  71.625 220.088 -0.06 -0.04    +0.239 C  
DOCKED: ATOM      3  O   UNL     1     141.331  71.134 219.378 -0.04 +0.04    -0.273 OA 
DOCKED: ATOM      4  H   UNL     1     139.609  73.479 220.835 +0.04 -0.03    +0.164 HD 
DOCKED: ENDROOT
DOCKED: BRANCH   1   5
DOCKED: ATOM      5  C   UNL     1     141.394  73.853 219.695 -0.11 -0.03    +0.109 C  
DOCKED: ATOM      6  C   UNL     1     141.045  74.188 218.245 -0.04 -0.01    +0.036 C  
DOCKED: BRANCH   5   7
DOCKED: ATOM      7  C   UNL     1     141.389  75.153 220.413 -0.24 +0.01    -0.026 A  
DOCKED: ATOM      8  C   UNL     1     140.821  75.258 221.644 -0.35 -0.00    +0.006 A  
DOCKED: ATOM      9  C   UNL     1     141.974  76.248 219.822 -0.28 -0.00    +0.006 A  
DOCKED: ATOM     10  C   UNL     1     140.805  76.459 222.350 -0.39 -0.00    +0.009 A  
DOCKED: ATOM     11  C   UNL     1     141.988  77.473 220.480 -0.29 -0.01    +0.009 A  
DOCKED: ATOM     12  C   UNL     1     141.404  77.531 221.718 -0.29 +0.01    -0.018 A  
DOCKED: BRANCH  12  13
DOCKED: ATOM     13  C   UNL     1     141.399  78.797 222.443 -0.47 +0.01    -0.018 A  
DOCKED: ATOM     14  C   UNL     1     142.571  79.463 222.773 -0.60 -0.00    +0.009 A  
DOCKED: ATOM     15  C   UNL     1     140.217  79.389 222.823 -0.39 -0.00    +0.009 A  
DOCKED: ATOM     16  C   UNL     1     142.517  80.661 223.449 -0.66 -0.00    +0.001 A  
DOCKED: ATOM     17  C   UNL     1     140.135  80.585 223.499 -0.44 -0.00    +0.001 A  
DOCKED: ATOM     18  C   UNL     1     141.322  81.253 223.829 -0.49 -0.00    +0.000 A  
DOCKED: ENDBRANCH  12  13
DOCKED: ENDBRANCH   5   7
DOCKED: ENDBRANCH   1   5
DOCKED: BRANCH   2  19
DOCKED: ATOM     19  C   UNL     1     139.408  70.664 220.634 -0.06 -0.04    +0.216 C  
DOCKED: BRANCH  19  20
DOCKED: ATOM     20  N   UNL     1     139.794  70.224 221.933 -0.05 +0.06    -0.342 N  
DOCKED: ATOM     21  C   UNL     1     139.832  71.221 222.978 -0.21 -0.05    +0.270 C  
DOCKED: ATOM     22  H   UNL     1     140.052  69.233 222.188 -0.01 -0.03    +0.164 HD 
DOCKED: ATOM     23  O   UNL     1     139.534  72.414 222.687 -0.32 +0.06    -0.268 OA 
DOCKED: BRANCH  21  24
DOCKED: ATOM     24  C   UNL     1     140.206  70.874 224.346 -0.36 -0.02    +0.128 A  
DOCKED: ATOM     25  C   UNL     1     140.635  71.886 225.192 -0.38 -0.01    +0.035 A  
DOCKED: ATOM     26  N   UNL     1     140.151  69.587 224.805 -0.17 +0.04    -0.243 NA 
DOCKED: ATOM     27  C   UNL     1     141.007  71.605 226.494 -0.70 -0.00    +0.013 A  
DOCKED: ATOM     28  C   UNL     1     140.522  69.322 226.097 -0.46 -0.01    +0.071 A  
DOCKED: ATOM     29  C   UNL     1     140.949  70.303 226.956 -0.60 -0.00    +0.000 A  
DOCKED: ATOM     30  C   UNL     1     140.468  68.005 226.573 -0.64 -0.01    +0.029 A  
DOCKED: ATOM     31  C   UNL     1     141.333  70.082 228.260 -0.45 -0.00    +0.010 A  
DOCKED: ATOM     32  C   UNL     1     140.855  67.756 227.898 -0.47 -0.00    +0.002 A  
DOCKED: ATOM     33  C   UNL     1     141.280  68.790 228.721 -0.56 -0.00    +0.001 A  
DOCKED: ENDBRANCH  21  24
DOCKED: ENDBRANCH  19  20
DOCKED: ENDBRANCH   2  19
DOCKED: TORSDOF 6
DOCKED: TER
DOCKED: ENDMDL
________________________________________________________________________________


    FINAL DOCKED STATE:
    ________________________


Run:   9 / 20
Time taken for this run:   0.031s

DOCKED: MODEL        9
DOCKED: USER    Run = 9
DOCKED: USER
DOCKED: USER    Estimated Free Energy of Binding    =  -9.76 kcal/mol  [=(1)+(2)+(3)-(4)]
DOCKED: USER
DOCKED: USER    (1) Final Intermolecular Energy     = -11.55 kcal/mol
DOCKED: USER        vdW + Hbond + desolv Energy     = -11.49 kcal/mol
DOCKED: USER        Electrostatic Energy            =  -0.06 kcal/mol
DOCKED: USER        Moving Ligand-Fixed Receptor    = -11.55 kcal/mol
DOCKED: USER        Moving Ligand-Moving Receptor   =  +0.00 kcal/mol
DOCKED: USER    (2) Final Total Internal Energy     =  -2.30 kcal/mol
DOCKED: USER    (3) Torsional Free Energy           =  +1.79 kcal/mol
DOCKED: USER    (4) Unbound System's Energy         =  -2.30 kcal/mol
DOCKED: USER
DOCKED: USER
DOCKED: REMARK SMILES C[C@H](NC(=O)CNC(=O)c1ccc2ccccc2n1)c1ccc(-c2ccccc2)cc1
DOCKED: REMARK SMILES IDX 3 1 4 2 5 3 2 5 1 6 20 7 21 8 31 9 22 10 30 11 23 12 24 13
DOCKED: REMARK SMILES IDX 25 14 29 15 26 16 28 17 27 18 6 19 7 20 8 21 9 23 10 24
DOCKED: REMARK SMILES IDX 11 25 19 26 12 27 18 28 13 29 17 30 14 31 16 32 15 33
DOCKED: REMARK H PARENT 3 4 7 22
DOCKED: USER                              x       y       z     vdW  Elec       q    Type
DOCKED: USER                           _______ _______ _______ _____ _____    ______ ____
DOCKED: ROOT
DOCKED: ATOM      1  N   UNL     1     137.985  73.812 221.932 -0.08 +0.11    -0.348 N  
DOCKED: ATOM      2  C   UNL     1     138.147  73.094 220.734 -0.06 -0.05    +0.239 C  
DOCKED: ATOM      3  O   UNL     1     137.567  73.534 219.684 -0.01 +0.05    -0.273 OA 
DOCKED: ATOM      4  H   UNL     1     138.414  73.495 222.825 -0.53 -0.09    +0.164 HD 
DOCKED: ENDROOT
DOCKED: BRANCH   1   5
DOCKED: ATOM      5  C   UNL     1     137.184  75.026 221.948 -0.16 -0.03    +0.109 C  
DOCKED: ATOM      6  C   UNL     1     136.187  74.990 223.107 -0.21 -0.01    +0.036 C  
DOCKED: BRANCH   5   7
DOCKED: ATOM      7  C   UNL     1     138.091  76.164 222.243 -0.27 +0.01    -0.026 A  
DOCKED: ATOM      8  C   UNL     1     139.436  76.028 222.100 -0.33 -0.00    +0.006 A  
DOCKED: ATOM      9  C   UNL     1     137.554  77.361 222.654 -0.25 -0.00    +0.006 A  
DOCKED: ATOM     10  C   UNL     1     140.316  77.076 222.359 -0.41 -0.00    +0.009 A  
DOCKED: ATOM     11  C   UNL     1     138.383  78.442 222.927 -0.26 -0.00    +0.009 A  
DOCKED: ATOM     12  C   UNL     1     139.732  78.259 222.769 -0.34 +0.00    -0.018 A  
DOCKED: BRANCH  12  13
DOCKED: ATOM     13  C   UNL     1     140.638  79.369 223.043 -0.45 +0.00    -0.018 A  
DOCKED: ATOM     14  C   UNL     1     141.774  79.218 223.826 -0.62 -0.00    +0.009 A  
DOCKED: ATOM     15  C   UNL     1     140.402  80.618 222.519 -0.36 -0.00    +0.009 A  
DOCKED: ATOM     16  C   UNL     1     142.607  80.293 224.048 -0.59 -0.00    +0.001 A  
DOCKED: ATOM     17  C   UNL     1     141.218  81.708 222.725 -0.44 -0.00    +0.001 A  
DOCKED: ATOM     18  C   UNL     1     142.363  81.550 223.516 -0.45 -0.00    +0.000 A  
DOCKED: ENDBRANCH  12  13
DOCKED: ENDBRANCH   5   7
DOCKED: ENDBRANCH   1   5
DOCKED: BRANCH   2  19
DOCKED: ATOM     19  C   UNL     1     138.936  71.855 220.579 -0.05 -0.04    +0.216 C  
DOCKED: BRANCH  19  20
DOCKED: ATOM     20  N   UNL     1     139.057  71.169 221.822 -0.06 +0.06    -0.342 N  
DOCKED: ATOM     21  C   UNL     1     139.885  71.784 222.834 -0.22 -0.05    +0.270 C  
DOCKED: ATOM     22  H   UNL     1     138.590  70.252 222.059 +0.04 -0.03    +0.164 HD 
DOCKED: ATOM     23  O   UNL     1     140.458  72.877 222.563 -0.62 +0.01    -0.268 OA 
DOCKED: BRANCH  21  24
DOCKED: ATOM     24  C   UNL     1     140.068  71.167 224.145 -0.36 -0.02    +0.128 A  
DOCKED: ATOM     25  C   UNL     1     140.705  71.898 225.136 -0.37 -0.00    +0.035 A  
DOCKED: ATOM     26  N   UNL     1     139.638  69.897 224.411 -0.18 +0.04    -0.243 NA 
DOCKED: ATOM     27  C   UNL     1     140.907  71.354 226.392 -0.67 -0.00    +0.013 A  
DOCKED: ATOM     28  C   UNL     1     139.845  69.369 225.658 -0.41 -0.01    +0.071 A  
DOCKED: ATOM     29  C   UNL     1     140.470  70.070 226.659 -0.56 -0.00    +0.000 A  
DOCKED: ATOM     30  C   UNL     1     139.407  68.068 225.937 -0.54 -0.00    +0.029 A  
DOCKED: ATOM     31  C   UNL     1     140.701  69.579 227.925 -0.62 -0.00    +0.010 A  
DOCKED: ATOM     32  C   UNL     1     139.631  67.547 227.221 -0.43 -0.00    +0.002 A  
DOCKED: ATOM     33  C   UNL     1     140.271  68.303 228.194 -0.62 -0.00    +0.001 A  
DOCKED: ENDBRANCH  21  24
DOCKED: ENDBRANCH  19  20
DOCKED: ENDBRANCH   2  19
DOCKED: TORSDOF 6
DOCKED: TER
DOCKED: ENDMDL
________________________________________________________________________________


    FINAL DOCKED STATE:
    ________________________


Run:   10 / 20
Time taken for this run:   0.031s

DOCKED: MODEL        10
DOCKED: USER    Run = 10
DOCKED: USER
DOCKED: USER    Estimated Free Energy of Binding    =  -9.80 kcal/mol  [=(1)+(2)+(3)-(4)]
DOCKED: USER
DOCKED: USER    (1) Final Intermolecular Energy     = -11.59 kcal/mol
DOCKED: USER        vdW + Hbond + desolv Energy     = -11.53 kcal/mol
DOCKED: USER        Electrostatic Energy            =  -0.06 kcal/mol
DOCKED: USER        Moving Ligand-Fixed Receptor    = -11.59 kcal/mol
DOCKED: USER        Moving Ligand-Moving Receptor   =  +0.00 kcal/mol
DOCKED: USER    (2) Final Total Internal Energy     =  -2.29 kcal/mol
DOCKED: USER    (3) Torsional Free Energy           =  +1.79 kcal/mol
DOCKED: USER    (4) Unbound System's Energy         =  -2.29 kcal/mol
DOCKED: USER
DOCKED: USER
DOCKED: REMARK SMILES C[C@H](NC(=O)CNC(=O)c1ccc2ccccc2n1)c1ccc(-c2ccccc2)cc1
DOCKED: REMARK SMILES IDX 3 1 4 2 5 3 2 5 1 6 20 7 21 8 31 9 22 10 30 11 23 12 24 13
DOCKED: REMARK SMILES IDX 25 14 29 15 26 16 28 17 27 18 6 19 7 20 8 21 9 23 10 24
DOCKED: REMARK SMILES IDX 11 25 19 26 12 27 18 28 13 29 17 30 14 31 16 32 15 33
DOCKED: REMARK H PARENT 3 4 7 22
DOCKED: USER                              x       y       z     vdW  Elec       q    Type
DOCKED: USER                           _______ _______ _______ _____ _____    ______ ____
DOCKED: ROOT
DOCKED: ATOM      1  N   UNL     1     138.129  73.693 221.929 -0.08 +0.10    -0.348 N  
DOCKED: ATOM      2  C   UNL     1     138.271  72.922 220.763 -0.06 -0.05    +0.239 C  
DOCKED: ATOM      3  O   UNL     1     137.731  73.351 219.687 -0.01 +0.05    -0.273 OA 
DOCKED: ATOM      4  H   UNL     1     138.528  73.389 222.842 -0.52 -0.09    +0.164 HD 
DOCKED: ENDROOT
DOCKED: BRANCH   1   5
DOCKED: ATOM      5  C   UNL     1     137.393  74.947 221.887 -0.16 -0.03    +0.109 C  
DOCKED: ATOM      6  C   UNL     1     136.328  74.976 222.984 -0.17 -0.01    +0.036 C  
DOCKED: BRANCH   5   7
DOCKED: ATOM      7  C   UNL     1     138.338  76.041 222.225 -0.28 +0.01    -0.026 A  
DOCKED: ATOM      8  C   UNL     1     139.676  75.874 222.048 -0.34 -0.00    +0.006 A  
DOCKED: ATOM      9  C   UNL     1     137.845  77.228 222.710 -0.28 -0.00    +0.006 A  
DOCKED: ATOM     10  C   UNL     1     140.592  76.880 222.346 -0.42 -0.00    +0.009 A  
DOCKED: ATOM     11  C   UNL     1     138.711  78.268 223.025 -0.28 -0.00    +0.009 A  
DOCKED: ATOM     12  C   UNL     1     140.050  78.055 222.831 -0.33 +0.00    -0.018 A  
DOCKED: BRANCH  12  13
DOCKED: ATOM     13  C   UNL     1     140.994  79.122 223.146 -0.50 +0.00    -0.018 A  
DOCKED: ATOM     14  C   UNL     1     140.600  80.293 223.777 -0.45 -0.00    +0.009 A  
DOCKED: ATOM     15  C   UNL     1     142.328  79.000 222.834 -0.51 -0.00    +0.009 A  
DOCKED: ATOM     16  C   UNL     1     141.528  81.269 224.065 -0.42 -0.00    +0.001 A  
DOCKED: ATOM     17  C   UNL     1     143.277  79.959 223.110 -0.57 -0.00    +0.001 A  
DOCKED: ATOM     18  C   UNL     1     142.872  81.139 223.748 -0.55 -0.00    +0.000 A  
DOCKED: ENDBRANCH  12  13
DOCKED: ENDBRANCH   5   7
DOCKED: ENDBRANCH   1   5
DOCKED: BRANCH   2  19
DOCKED: ATOM     19  C   UNL     1     138.997  71.639 220.668 -0.05 -0.04    +0.216 C  
DOCKED: BRANCH  19  20
DOCKED: ATOM     20  N   UNL     1     139.117  71.025 221.948 -0.06 +0.06    -0.342 N  
DOCKED: ATOM     21  C   UNL     1     139.982  71.674 222.907 -0.22 -0.04    +0.270 C  
DOCKED: ATOM     22  H   UNL     1     138.627  70.141 222.247 +0.05 -0.03    +0.164 HD 
DOCKED: ATOM     23  O   UNL     1     140.584  72.730 222.562 -0.56 +0.01    -0.268 OA 
DOCKED: BRANCH  21  24
DOCKED: ATOM     24  C   UNL     1     140.168  71.132 224.251 -0.37 -0.02    +0.128 A  
DOCKED: ATOM     25  C   UNL     1     140.868  71.889 225.178 -0.32 -0.00    +0.035 A  
DOCKED: ATOM     26  N   UNL     1     139.680  69.905 224.609 -0.19 +0.04    -0.243 NA 
DOCKED: ATOM     27  C   UNL     1     141.075  71.416 226.461 -0.69 -0.00    +0.013 A  
DOCKED: ATOM     28  C   UNL     1     139.893  69.447 225.881 -0.43 -0.01    +0.071 A  
DOCKED: ATOM     29  C   UNL     1     140.580  70.175 226.820 -0.58 -0.00    +0.000 A  
DOCKED: ATOM     30  C   UNL     1     139.396  68.191 226.254 -0.55 -0.00    +0.029 A  
DOCKED: ATOM     31  C   UNL     1     140.819  69.754 228.110 -0.60 -0.00    +0.010 A  
DOCKED: ATOM     32  C   UNL     1     139.628  67.741 227.563 -0.37 -0.00    +0.002 A  
DOCKED: ATOM     33  C   UNL     1     140.332  68.521 228.470 -0.65 -0.00    +0.001 A  
DOCKED: ENDBRANCH  21  24
DOCKED: ENDBRANCH  19  20
DOCKED: ENDBRANCH   2  19
DOCKED: TORSDOF 6
DOCKED: TER
DOCKED: ENDMDL
________________________________________________________________________________


    FINAL DOCKED STATE:
    ________________________


Run:   11 / 20
Time taken for this run:   0.031s

DOCKED: MODEL        11
DOCKED: USER    Run = 11
DOCKED: USER
DOCKED: USER    Estimated Free Energy of Binding    =  -9.80 kcal/mol  [=(1)+(2)+(3)-(4)]
DOCKED: USER
DOCKED: USER    (1) Final Intermolecular Energy     = -11.59 kcal/mol
DOCKED: USER        vdW + Hbond + desolv Energy     = -11.53 kcal/mol
DOCKED: USER        Electrostatic Energy            =  -0.06 kcal/mol
DOCKED: USER        Moving Ligand-Fixed Receptor    = -11.59 kcal/mol
DOCKED: USER        Moving Ligand-Moving Receptor   =  +0.00 kcal/mol
DOCKED: USER    (2) Final Total Internal Energy     =  -2.30 kcal/mol
DOCKED: USER    (3) Torsional Free Energy           =  +1.79 kcal/mol
DOCKED: USER    (4) Unbound System's Energy         =  -2.30 kcal/mol
DOCKED: USER
DOCKED: USER
DOCKED: REMARK SMILES C[C@H](NC(=O)CNC(=O)c1ccc2ccccc2n1)c1ccc(-c2ccccc2)cc1
DOCKED: REMARK SMILES IDX 3 1 4 2 5 3 2 5 1 6 20 7 21 8 31 9 22 10 30 11 23 12 24 13
DOCKED: REMARK SMILES IDX 25 14 29 15 26 16 28 17 27 18 6 19 7 20 8 21 9 23 10 24
DOCKED: REMARK SMILES IDX 11 25 19 26 12 27 18 28 13 29 17 30 14 31 16 32 15 33
DOCKED: REMARK H PARENT 3 4 7 22
DOCKED: USER                              x       y       z     vdW  Elec       q    Type
DOCKED: USER                           _______ _______ _______ _____ _____    ______ ____
DOCKED: ROOT
DOCKED: ATOM      1  N   UNL     1     137.933  73.859 221.896 -0.08 +0.10    -0.348 N  
DOCKED: ATOM      2  C   UNL     1     138.099  73.200 220.666 -0.05 -0.05    +0.239 C  
DOCKED: ATOM      3  O   UNL     1     137.544  73.705 219.632 -0.01 +0.05    -0.273 OA 
DOCKED: ATOM      4  H   UNL     1     138.343  73.488 222.778 -0.53 -0.09    +0.164 HD 
DOCKED: ENDROOT
DOCKED: BRANCH   1   5
DOCKED: ATOM      5  C   UNL     1     137.154  75.085 221.964 -0.16 -0.03    +0.109 C  
DOCKED: ATOM      6  C   UNL     1     136.198  75.043 223.157 -0.21 -0.01    +0.036 C  
DOCKED: BRANCH   5   7
DOCKED: ATOM      7  C   UNL     1     138.091  76.202 222.248 -0.27 +0.01    -0.026 A  
DOCKED: ATOM      8  C   UNL     1     137.620  77.404 222.677 -0.25 -0.00    +0.006 A  
DOCKED: ATOM      9  C   UNL     1     139.440  76.005 222.082 -0.33 -0.00    +0.006 A  
DOCKED: ATOM     10  C   UNL     1     138.468  78.471 222.962 -0.27 -0.00    +0.009 A  
DOCKED: ATOM     11  C   UNL     1     140.336  77.034 222.351 -0.41 -0.00    +0.009 A  
DOCKED: ATOM     12  C   UNL     1     139.816  78.227 222.780 -0.35 +0.00    -0.018 A  
DOCKED: BRANCH  12  13
DOCKED: ATOM     13  C   UNL     1     140.721  79.332 223.076 -0.46 +0.00    -0.018 A  
DOCKED: ATOM     14  C   UNL     1     141.849  79.170 223.867 -0.61 -0.00    +0.009 A  
DOCKED: ATOM     15  C   UNL     1     140.491  80.589 222.566 -0.37 -0.00    +0.009 A  
DOCKED: ATOM     16  C   UNL     1     142.681  80.240 224.110 -0.55 -0.00    +0.001 A  
DOCKED: ATOM     17  C   UNL     1     141.306  81.675 222.793 -0.45 -0.00    +0.001 A  
DOCKED: ATOM     18  C   UNL     1     142.443  81.505 223.593 -0.46 -0.00    +0.000 A  
DOCKED: ENDBRANCH  12  13
DOCKED: ENDBRANCH   5   7
DOCKED: ENDBRANCH   1   5
DOCKED: BRANCH   2  19
DOCKED: ATOM     19  C   UNL     1     138.869  71.956 220.458 -0.04 -0.04    +0.216 C  
DOCKED: BRANCH  19  20
DOCKED: ATOM     20  N   UNL     1     139.016  71.238 221.680 -0.05 +0.06    -0.342 N  
DOCKED: ATOM     21  C   UNL     1     139.861  71.830 222.691 -0.21 -0.05    +0.270 C  
DOCKED: ATOM     22  H   UNL     1     138.557  70.313 221.901 +0.04 -0.03    +0.164 HD 
DOCKED: ATOM     23  O   UNL     1     140.424  72.933 222.438 -0.65 +0.01    -0.268 OA 
DOCKED: BRANCH  21  24
DOCKED: ATOM     24  C   UNL     1     140.071  71.180 223.981 -0.35 -0.02    +0.128 A  
DOCKED: ATOM     25  C   UNL     1     140.713  71.892 224.984 -0.35 -0.00    +0.035 A  
DOCKED: ATOM     26  N   UNL     1     139.662  69.897 224.219 -0.17 +0.04    -0.243 NA 
DOCKED: ATOM     27  C   UNL     1     140.942  71.317 226.220 -0.65 -0.00    +0.013 A  
DOCKED: ATOM     28  C   UNL     1     139.894  69.339 225.448 -0.39 -0.01    +0.071 A  
DOCKED: ATOM     29  C   UNL     1     140.526  70.019 226.458 -0.55 -0.00    +0.000 A  
DOCKED: ATOM     30  C   UNL     1     139.478  68.024 225.697 -0.52 -0.00    +0.029 A  
DOCKED: ATOM     31  C   UNL     1     140.782  69.498 227.707 -0.61 -0.00    +0.010 A  
DOCKED: ATOM     32  C   UNL     1     139.728  67.471 226.963 -0.54 -0.00    +0.002 A  
DOCKED: ATOM     33  C   UNL     1     140.373  68.208 227.946 -0.65 -0.00    +0.001 A  
DOCKED: ENDBRANCH  21  24
DOCKED: ENDBRANCH  19  20
DOCKED: ENDBRANCH   2  19
DOCKED: TORSDOF 6
DOCKED: TER
DOCKED: ENDMDL
________________________________________________________________________________


    FINAL DOCKED STATE:
    ________________________


Run:   12 / 20
Time taken for this run:   0.031s

DOCKED: MODEL        12
DOCKED: USER    Run = 12
DOCKED: USER
DOCKED: USER    Estimated Free Energy of Binding    =  -9.88 kcal/mol  [=(1)+(2)+(3)-(4)]
DOCKED: USER
DOCKED: USER    (1) Final Intermolecular Energy     = -11.67 kcal/mol
DOCKED: USER        vdW + Hbond + desolv Energy     = -11.62 kcal/mol
DOCKED: USER        Electrostatic Energy            =  -0.05 kcal/mol
DOCKED: USER        Moving Ligand-Fixed Receptor    = -11.67 kcal/mol
DOCKED: USER        Moving Ligand-Moving Receptor   =  +0.00 kcal/mol
DOCKED: USER    (2) Final Total Internal Energy     =  -2.27 kcal/mol
DOCKED: USER    (3) Torsional Free Energy           =  +1.79 kcal/mol
DOCKED: USER    (4) Unbound System's Energy         =  -2.27 kcal/mol
DOCKED: USER
DOCKED: USER
DOCKED: REMARK SMILES C[C@H](NC(=O)CNC(=O)c1ccc2ccccc2n1)c1ccc(-c2ccccc2)cc1
DOCKED: REMARK SMILES IDX 3 1 4 2 5 3 2 5 1 6 20 7 21 8 31 9 22 10 30 11 23 12 24 13
DOCKED: REMARK SMILES IDX 25 14 29 15 26 16 28 17 27 18 6 19 7 20 8 21 9 23 10 24
DOCKED: REMARK SMILES IDX 11 25 19 26 12 27 18 28 13 29 17 30 14 31 16 32 15 33
DOCKED: REMARK H PARENT 3 4 7 22
DOCKED: USER                              x       y       z     vdW  Elec       q    Type
DOCKED: USER                           _______ _______ _______ _____ _____    ______ ____
DOCKED: ROOT
DOCKED: ATOM      1  N   UNL     1     138.032  73.868 221.856 -0.08 +0.10    -0.348 N  
DOCKED: ATOM      2  C   UNL     1     138.205  73.215 220.624 -0.05 -0.05    +0.239 C  
DOCKED: ATOM      3  O   UNL     1     137.685  73.743 219.583 -0.01 +0.05    -0.273 OA 
DOCKED: ATOM      4  H   UNL     1     138.413  73.478 222.743 -0.53 -0.08    +0.164 HD 
DOCKED: ENDROOT
DOCKED: BRANCH   1   5
DOCKED: ATOM      5  C   UNL     1     137.287  75.115 221.919 -0.17 -0.03    +0.109 C  
DOCKED: ATOM      6  C   UNL     1     136.297  75.087 223.085 -0.19 -0.01    +0.036 C  
DOCKED: BRANCH   5   7
DOCKED: ATOM      7  C   UNL     1     138.246  76.201 222.243 -0.28 +0.01    -0.026 A  
DOCKED: ATOM      8  C   UNL     1     139.584  76.006 222.093 -0.34 -0.00    +0.006 A  
DOCKED: ATOM      9  C   UNL     1     137.767  77.410 222.686 -0.26 -0.00    +0.006 A  
DOCKED: ATOM     10  C   UNL     1     140.512  77.004 222.378 -0.42 -0.00    +0.009 A  
DOCKED: ATOM     11  C   UNL     1     138.646  78.444 222.987 -0.29 -0.00    +0.009 A  
DOCKED: ATOM     12  C   UNL     1     139.985  78.201 222.821 -0.35 +0.00    -0.018 A  
DOCKED: BRANCH  12  13
DOCKED: ATOM     13  C   UNL     1     140.942  79.260 223.122 -0.49 +0.00    -0.018 A  
DOCKED: ATOM     14  C   UNL     1     140.560  80.454 223.718 -0.44 -0.00    +0.009 A  
DOCKED: ATOM     15  C   UNL     1     142.278  79.107 222.833 -0.55 -0.00    +0.009 A  
DOCKED: ATOM     16  C   UNL     1     141.501  81.420 223.994 -0.38 -0.00    +0.001 A  
DOCKED: ATOM     17  C   UNL     1     143.239  80.057 223.098 -0.62 -0.00    +0.001 A  
DOCKED: ATOM     18  C   UNL     1     142.847  81.259 223.700 -0.48 -0.00    +0.000 A  
DOCKED: ENDBRANCH  12  13
DOCKED: ENDBRANCH   5   7
DOCKED: ENDBRANCH   1   5
DOCKED: BRANCH   2  19
DOCKED: ATOM     19  C   UNL     1     138.943  71.951 220.421 -0.04 -0.04    +0.216 C  
DOCKED: BRANCH  19  20
DOCKED: ATOM     20  N   UNL     1     139.070  71.233 221.645 -0.05 +0.06    -0.342 N  
DOCKED: ATOM     21  C   UNL     1     139.917  71.815 222.662 -0.21 -0.04    +0.270 C  
DOCKED: ATOM     22  H   UNL     1     138.596  70.316 221.865 +0.04 -0.03    +0.164 HD 
DOCKED: ATOM     23  O   UNL     1     140.498  72.908 222.411 -0.63 +0.01    -0.268 OA 
DOCKED: BRANCH  21  24
DOCKED: ATOM     24  C   UNL     1     140.108  71.164 223.955 -0.35 -0.02    +0.128 A  
DOCKED: ATOM     25  C   UNL     1     140.701  71.889 224.978 -0.37 -0.00    +0.035 A  
DOCKED: ATOM     26  N   UNL     1     139.728  69.869 224.175 -0.16 +0.04    -0.243 NA 
DOCKED: ATOM     27  C   UNL     1     140.909  71.314 226.218 -0.65 -0.00    +0.013 A  
DOCKED: ATOM     28  C   UNL     1     139.940  69.311 225.408 -0.39 -0.01    +0.071 A  
DOCKED: ATOM     29  C   UNL     1     140.523  70.004 226.439 -0.55 -0.00    +0.000 A  
DOCKED: ATOM     30  C   UNL     1     139.554  67.984 225.639 -0.52 -0.00    +0.029 A  
DOCKED: ATOM     31  C   UNL     1     140.758  69.483 227.692 -0.61 -0.00    +0.010 A  
DOCKED: ATOM     32  C   UNL     1     139.783  67.432 226.909 -0.56 -0.00    +0.002 A  
DOCKED: ATOM     33  C   UNL     1     140.378  68.182 227.914 -0.65 -0.00    +0.001 A  
DOCKED: ENDBRANCH  21  24
DOCKED: ENDBRANCH  19  20
DOCKED: ENDBRANCH   2  19
DOCKED: TORSDOF 6
DOCKED: TER
DOCKED: ENDMDL
________________________________________________________________________________


    FINAL DOCKED STATE:
    ________________________


Run:   13 / 20
Time taken for this run:   0.031s

DOCKED: MODEL        13
DOCKED: USER    Run = 13
DOCKED: USER
DOCKED: USER    Estimated Free Energy of Binding    =  -9.91 kcal/mol  [=(1)+(2)+(3)-(4)]
DOCKED: USER
DOCKED: USER    (1) Final Intermolecular Energy     = -11.70 kcal/mol
DOCKED: USER        vdW + Hbond + desolv Energy     = -11.65 kcal/mol
DOCKED: USER        Electrostatic Energy            =  -0.05 kcal/mol
DOCKED: USER        Moving Ligand-Fixed Receptor    = -11.70 kcal/mol
DOCKED: USER        Moving Ligand-Moving Receptor   =  +0.00 kcal/mol
DOCKED: USER    (2) Final Total Internal Energy     =  -2.26 kcal/mol
DOCKED: USER    (3) Torsional Free Energy           =  +1.79 kcal/mol
DOCKED: USER    (4) Unbound System's Energy         =  -2.26 kcal/mol
DOCKED: USER
DOCKED: USER
DOCKED: REMARK SMILES C[C@H](NC(=O)CNC(=O)c1ccc2ccccc2n1)c1ccc(-c2ccccc2)cc1
DOCKED: REMARK SMILES IDX 3 1 4 2 5 3 2 5 1 6 20 7 21 8 31 9 22 10 30 11 23 12 24 13
DOCKED: REMARK SMILES IDX 25 14 29 15 26 16 28 17 27 18 6 19 7 20 8 21 9 23 10 24
DOCKED: REMARK SMILES IDX 11 25 19 26 12 27 18 28 13 29 17 30 14 31 16 32 15 33
DOCKED: REMARK H PARENT 3 4 7 22
DOCKED: USER                              x       y       z     vdW  Elec       q    Type
DOCKED: USER                           _______ _______ _______ _____ _____    ______ ____
DOCKED: ROOT
DOCKED: ATOM      1  N   UNL     1     137.947  73.906 221.867 -0.08 +0.10    -0.348 N  
DOCKED: ATOM      2  C   UNL     1     138.134  73.294 220.615 -0.05 -0.05    +0.239 C  
DOCKED: ATOM      3  O   UNL     1     137.643  73.867 219.584 -0.01 +0.05    -0.273 OA 
DOCKED: ATOM      4  H   UNL     1     138.305  73.479 222.746 -0.53 -0.08    +0.164 HD 
DOCKED: ENDROOT
DOCKED: BRANCH   1   5
DOCKED: ATOM      5  C   UNL     1     137.221  75.163 221.959 -0.17 -0.03    +0.109 C  
DOCKED: ATOM      6  C   UNL     1     136.256  75.133 223.145 -0.20 -0.01    +0.036 C  
DOCKED: BRANCH   5   7
DOCKED: ATOM      7  C   UNL     1     138.202  76.232 222.276 -0.28 +0.01    -0.026 A  
DOCKED: ATOM      8  C   UNL     1     139.535  76.011 222.122 -0.34 -0.00    +0.006 A  
DOCKED: ATOM      9  C   UNL     1     137.747  77.451 222.718 -0.26 -0.00    +0.006 A  
DOCKED: ATOM     10  C   UNL     1     140.483  76.992 222.400 -0.41 -0.00    +0.009 A  
DOCKED: ATOM     11  C   UNL     1     138.647  78.468 223.012 -0.29 -0.00    +0.009 A  
DOCKED: ATOM     12  C   UNL     1     139.980  78.201 222.841 -0.34 +0.00    -0.018 A  
DOCKED: BRANCH  12  13
DOCKED: ATOM     13  C   UNL     1     140.958  79.242 223.136 -0.49 +0.00    -0.018 A  
DOCKED: ATOM     14  C   UNL     1     140.603  80.438 223.744 -0.44 -0.00    +0.009 A  
DOCKED: ATOM     15  C   UNL     1     142.287  79.070 222.827 -0.54 -0.00    +0.009 A  
DOCKED: ATOM     16  C   UNL     1     141.563  81.387 224.012 -0.41 -0.00    +0.001 A  
DOCKED: ATOM     17  C   UNL     1     143.267  80.002 223.084 -0.60 -0.00    +0.001 A  
DOCKED: ATOM     18  C   UNL     1     142.902  81.207 223.698 -0.48 -0.00    +0.000 A  
DOCKED: ENDBRANCH  12  13
DOCKED: ENDBRANCH   5   7
DOCKED: ENDBRANCH   1   5
DOCKED: BRANCH   2  19
DOCKED: ATOM     19  C   UNL     1     138.855  72.026 220.382 -0.04 -0.04    +0.216 C  
DOCKED: BRANCH  19  20
DOCKED: ATOM     20  N   UNL     1     138.995  71.288 221.593 -0.04 +0.06    -0.342 N  
DOCKED: ATOM     21  C   UNL     1     139.833  71.865 222.619 -0.21 -0.05    +0.270 C  
DOCKED: ATOM     22  H   UNL     1     138.535  70.360 221.796 +0.04 -0.03    +0.164 HD 
DOCKED: ATOM     23  O   UNL     1     140.397  72.971 222.387 -0.67 +0.02    -0.268 OA 
DOCKED: BRANCH  21  24
DOCKED: ATOM     24  C   UNL     1     140.036  71.194 223.900 -0.34 -0.02    +0.128 A  
DOCKED: ATOM     25  C   UNL     1     140.689  71.883 224.911 -0.36 -0.00    +0.035 A  
DOCKED: ATOM     26  N   UNL     1     139.608  69.914 224.121 -0.17 +0.04    -0.243 NA 
DOCKED: ATOM     27  C   UNL     1     140.910  71.288 226.139 -0.64 -0.00    +0.013 A  
DOCKED: ATOM     28  C   UNL     1     139.833  69.336 225.342 -0.38 -0.01    +0.071 A  
DOCKED: ATOM     29  C   UNL     1     140.476  69.994 226.360 -0.54 -0.00    +0.000 A  
DOCKED: ATOM     30  C   UNL     1     139.398  68.024 225.574 -0.50 -0.00    +0.029 A  
DOCKED: ATOM     31  C   UNL     1     140.726  69.451 227.602 -0.61 -0.00    +0.010 A  
DOCKED: ATOM     32  C   UNL     1     139.641  67.451 226.831 -0.61 -0.00    +0.002 A  
DOCKED: ATOM     33  C   UNL     1     140.298  68.165 227.824 -0.65 -0.00    +0.001 A  
DOCKED: ENDBRANCH  21  24
DOCKED: ENDBRANCH  19  20
DOCKED: ENDBRANCH   2  19
DOCKED: TORSDOF 6
DOCKED: TER
DOCKED: ENDMDL
________________________________________________________________________________


    FINAL DOCKED STATE:
    ________________________


Run:   14 / 20
Time taken for this run:   0.031s

DOCKED: MODEL        14
DOCKED: USER    Run = 14
DOCKED: USER
DOCKED: USER    Estimated Free Energy of Binding    =  -9.78 kcal/mol  [=(1)+(2)+(3)-(4)]
DOCKED: USER
DOCKED: USER    (1) Final Intermolecular Energy     = -11.57 kcal/mol
DOCKED: USER        vdW + Hbond + desolv Energy     = -11.51 kcal/mol
DOCKED: USER        Electrostatic Energy            =  -0.06 kcal/mol
DOCKED: USER        Moving Ligand-Fixed Receptor    = -11.57 kcal/mol
DOCKED: USER        Moving Ligand-Moving Receptor   =  +0.00 kcal/mol
DOCKED: USER    (2) Final Total Internal Energy     =  -2.29 kcal/mol
DOCKED: USER    (3) Torsional Free Energy           =  +1.79 kcal/mol
DOCKED: USER    (4) Unbound System's Energy         =  -2.29 kcal/mol
DOCKED: USER
DOCKED: USER
DOCKED: REMARK SMILES C[C@H](NC(=O)CNC(=O)c1ccc2ccccc2n1)c1ccc(-c2ccccc2)cc1
DOCKED: REMARK SMILES IDX 3 1 4 2 5 3 2 5 1 6 20 7 21 8 31 9 22 10 30 11 23 12 24 13
DOCKED: REMARK SMILES IDX 25 14 29 15 26 16 28 17 27 18 6 19 7 20 8 21 9 23 10 24
DOCKED: REMARK SMILES IDX 11 25 19 26 12 27 18 28 13 29 17 30 14 31 16 32 15 33
DOCKED: REMARK H PARENT 3 4 7 22
DOCKED: USER                              x       y       z     vdW  Elec       q    Type
DOCKED: USER                           _______ _______ _______ _____ _____    ______ ____
DOCKED: ROOT
DOCKED: ATOM      1  N   UNL     1     137.976  73.876 221.892 -0.08 +0.10    -0.348 N  
DOCKED: ATOM      2  C   UNL     1     138.191  73.232 220.661 -0.05 -0.05    +0.239 C  
DOCKED: ATOM      3  O   UNL     1     137.666  73.743 219.614 -0.01 +0.05    -0.273 OA 
DOCKED: ATOM      4  H   UNL     1     138.360  73.499 222.784 -0.53 -0.09    +0.164 HD 
DOCKED: ENDROOT
DOCKED: BRANCH   1   5
DOCKED: ATOM      5  C   UNL     1     137.184  75.094 221.947 -0.16 -0.03    +0.109 C  
DOCKED: ATOM      6  C   UNL     1     136.201  75.038 223.116 -0.21 -0.01    +0.036 C  
DOCKED: BRANCH   5   7
DOCKED: ATOM      7  C   UNL     1     138.102  76.219 222.257 -0.27 +0.01    -0.026 A  
DOCKED: ATOM      8  C   UNL     1     139.449  76.027 222.266 -0.34 -0.00    +0.006 A  
DOCKED: ATOM      9  C   UNL     1     137.576  77.460 222.526 -0.24 -0.00    +0.006 A  
DOCKED: ATOM     10  C   UNL     1     140.340  77.060 222.544 -0.37 -0.00    +0.009 A  
DOCKED: ATOM     11  C   UNL     1     138.418  78.529 222.810 -0.27 -0.00    +0.009 A  
DOCKED: ATOM     12  C   UNL     1     139.767  78.289 222.808 -0.34 +0.00    -0.018 A  
DOCKED: BRANCH  12  13
DOCKED: ATOM     13  C   UNL     1     140.685  79.384 223.099 -0.46 +0.00    -0.018 A  
DOCKED: ATOM     14  C   UNL     1     140.461  80.676 222.643 -0.38 -0.00    +0.009 A  
DOCKED: ATOM     15  C   UNL     1     141.816  79.176 223.854 -0.62 -0.00    +0.009 A  
DOCKED: ATOM     16  C   UNL     1     141.351  81.681 222.952 -0.44 -0.00    +0.001 A  
DOCKED: ATOM     17  C   UNL     1     142.721  80.162 224.177 -0.48 -0.00    +0.001 A  
DOCKED: ATOM     18  C   UNL     1     142.489  81.464 223.714 -0.51 -0.00    +0.000 A  
DOCKED: ENDBRANCH  12  13
DOCKED: ENDBRANCH   5   7
DOCKED: ENDBRANCH   1   5
DOCKED: BRANCH   2  19
DOCKED: ATOM     19  C   UNL     1     138.978  71.997 220.467 -0.04 -0.04    +0.216 C  
DOCKED: BRANCH  19  20
DOCKED: ATOM     20  N   UNL     1     139.087  71.265 221.684 -0.05 +0.06    -0.342 N  
DOCKED: ATOM     21  C   UNL     1     139.885  71.854 222.735 -0.22 -0.05    +0.270 C  
DOCKED: ATOM     22  H   UNL     1     138.632  70.332 221.876 +0.04 -0.03    +0.164 HD 
DOCKED: ATOM     23  O   UNL     1     140.443  72.967 222.518 -0.66 +0.01    -0.268 OA 
DOCKED: BRANCH  21  24
DOCKED: ATOM     24  C   UNL     1     140.053  71.190 224.024 -0.35 -0.02    +0.128 A  
DOCKED: ATOM     25  C   UNL     1     140.683  71.883 225.048 -0.37 -0.00    +0.035 A  
DOCKED: ATOM     26  N   UNL     1     139.617  69.912 224.241 -0.17 +0.04    -0.243 NA 
DOCKED: ATOM     27  C   UNL     1     140.872  71.293 226.284 -0.65 -0.00    +0.013 A  
DOCKED: ATOM     28  C   UNL     1     139.810  69.340 225.470 -0.39 -0.01    +0.071 A  
DOCKED: ATOM     29  C   UNL     1     140.429  70.001 226.501 -0.55 -0.00    +0.000 A  
DOCKED: ATOM     30  C   UNL     1     139.365  68.031 225.698 -0.52 -0.00    +0.029 A  
DOCKED: ATOM     31  C   UNL     1     140.646  69.465 227.751 -0.62 -0.00    +0.010 A  
DOCKED: ATOM     32  C   UNL     1     139.575  67.463 226.964 -0.53 -0.00    +0.002 A  
DOCKED: ATOM     33  C   UNL     1     140.209  68.181 227.969 -0.63 -0.00    +0.001 A  
DOCKED: ENDBRANCH  21  24
DOCKED: ENDBRANCH  19  20
DOCKED: ENDBRANCH   2  19
DOCKED: TORSDOF 6
DOCKED: TER
DOCKED: ENDMDL
________________________________________________________________________________


    FINAL DOCKED STATE:
    ________________________


Run:   15 / 20
Time taken for this run:   0.031s

DOCKED: MODEL        15
DOCKED: USER    Run = 15
DOCKED: USER
DOCKED: USER    Estimated Free Energy of Binding    =  -9.95 kcal/mol  [=(1)+(2)+(3)-(4)]
DOCKED: USER
DOCKED: USER    (1) Final Intermolecular Energy     = -11.74 kcal/mol
DOCKED: USER        vdW + Hbond + desolv Energy     = -11.68 kcal/mol
DOCKED: USER        Electrostatic Energy            =  -0.06 kcal/mol
DOCKED: USER        Moving Ligand-Fixed Receptor    = -11.74 kcal/mol
DOCKED: USER        Moving Ligand-Moving Receptor   =  +0.00 kcal/mol
DOCKED: USER    (2) Final Total Internal Energy     =  -1.95 kcal/mol
DOCKED: USER    (3) Torsional Free Energy           =  +1.79 kcal/mol
DOCKED: USER    (4) Unbound System's Energy         =  -1.95 kcal/mol
DOCKED: USER
DOCKED: USER
DOCKED: REMARK SMILES C[C@H](NC(=O)CNC(=O)c1ccc2ccccc2n1)c1ccc(-c2ccccc2)cc1
DOCKED: REMARK SMILES IDX 3 1 4 2 5 3 2 5 1 6 20 7 21 8 31 9 22 10 30 11 23 12 24 13
DOCKED: REMARK SMILES IDX 25 14 29 15 26 16 28 17 27 18 6 19 7 20 8 21 9 23 10 24
DOCKED: REMARK SMILES IDX 11 25 19 26 12 27 18 28 13 29 17 30 14 31 16 32 15 33
DOCKED: REMARK H PARENT 3 4 7 22
DOCKED: USER                              x       y       z     vdW  Elec       q    Type
DOCKED: USER                           _______ _______ _______ _____ _____    ______ ____
DOCKED: ROOT
DOCKED: ATOM      1  N   UNL     1     137.797  74.032 221.870 -0.07 +0.10    -0.348 N  
DOCKED: ATOM      2  C   UNL     1     138.112  73.567 220.581 -0.05 -0.05    +0.239 C  
DOCKED: ATOM      3  O   UNL     1     137.758  74.279 219.581 -0.01 +0.05    -0.273 OA 
DOCKED: ATOM      4  H   UNL     1     138.040  73.488 222.724 -0.51 -0.08    +0.164 HD 
DOCKED: ENDROOT
DOCKED: BRANCH   1   5
DOCKED: ATOM      5  C   UNL     1     137.097  75.295 222.036 -0.17 -0.03    +0.109 C  
DOCKED: ATOM      6  C   UNL     1     136.190  75.244 223.266 -0.23 -0.01    +0.036 C  
DOCKED: BRANCH   5   7
DOCKED: ATOM      7  C   UNL     1     138.110  76.339 222.337 -0.28 +0.01    -0.026 A  
DOCKED: ATOM      8  C   UNL     1     139.437  76.063 222.227 -0.34 -0.00    +0.006 A  
DOCKED: ATOM      9  C   UNL     1     137.690  77.591 222.719 -0.25 -0.00    +0.006 A  
DOCKED: ATOM     10  C   UNL     1     140.414  77.019 222.492 -0.39 -0.00    +0.009 A  
DOCKED: ATOM     11  C   UNL     1     138.621  78.585 222.996 -0.29 -0.00    +0.009 A  
DOCKED: ATOM     12  C   UNL     1     139.946  78.262 222.872 -0.34 +0.00    -0.018 A  
DOCKED: BRANCH  12  13
DOCKED: ATOM     13  C   UNL     1     140.956  79.277 223.152 -0.49 +0.00    -0.018 A  
DOCKED: ATOM     14  C   UNL     1     140.640  80.485 223.757 -0.44 -0.00    +0.009 A  
DOCKED: ATOM     15  C   UNL     1     142.277  79.067 222.831 -0.55 -0.00    +0.009 A  
DOCKED: ATOM     16  C   UNL     1     141.628  81.409 224.012 -0.43 -0.00    +0.001 A  
DOCKED: ATOM     17  C   UNL     1     143.284  79.973 223.074 -0.58 -0.00    +0.001 A  
DOCKED: ATOM     18  C   UNL     1     142.959  81.191 223.686 -0.45 -0.00    +0.000 A  
DOCKED: ENDBRANCH  12  13
DOCKED: ENDBRANCH   5   7
DOCKED: ENDBRANCH   1   5
DOCKED: BRANCH   2  19
DOCKED: ATOM     19  C   UNL     1     138.823  72.309 220.274 -0.04 -0.04    +0.216 C  
DOCKED: BRANCH  19  20
DOCKED: ATOM     20  N   UNL     1     138.883  71.465 221.420 -0.04 +0.07    -0.342 N  
DOCKED: ATOM     21  C   UNL     1     139.630  71.955 222.557 -0.20 -0.05    +0.270 C  
DOCKED: ATOM     22  H   UNL     1     138.427  70.517 221.502 +0.04 -0.03    +0.164 HD 
DOCKED: ATOM     23  O   UNL     1     140.188  73.085 222.472 -0.70 +0.02    -0.268 OA 
DOCKED: BRANCH  21  24
DOCKED: ATOM     24  C   UNL     1     139.746  71.172 223.784 -0.32 -0.02    +0.128 A  
DOCKED: ATOM     25  C   UNL     1     139.247  69.878 223.792 -0.28 -0.01    +0.035 A  
DOCKED: ATOM     26  N   UNL     1     140.321  71.682 224.915 -0.29 +0.04    -0.243 NA 
DOCKED: ATOM     27  C   UNL     1     139.327  69.100 224.932 -0.39 -0.00    +0.013 A  
DOCKED: ATOM     28  C   UNL     1     140.394  70.902 226.037 -0.53 -0.01    +0.071 A  
DOCKED: ATOM     29  C   UNL     1     139.910  69.618 226.074 -0.49 -0.00    +0.000 A  
DOCKED: ATOM     30  C   UNL     1     140.982  71.419 227.199 -0.73 -0.00    +0.029 A  
DOCKED: ATOM     31  C   UNL     1     139.961  68.799 227.180 -0.61 -0.00    +0.010 A  
DOCKED: ATOM     32  C   UNL     1     141.044  70.603 228.339 -0.58 -0.00    +0.002 A  
DOCKED: ATOM     33  C   UNL     1     140.537  69.311 228.317 -0.63 -0.00    +0.001 A  
DOCKED: ENDBRANCH  21  24
DOCKED: ENDBRANCH  19  20
DOCKED: ENDBRANCH   2  19
DOCKED: TORSDOF 6
DOCKED: TER
DOCKED: ENDMDL
________________________________________________________________________________


    FINAL DOCKED STATE:
    ________________________


Run:   16 / 20
Time taken for this run:   0.031s

DOCKED: MODEL        16
DOCKED: USER    Run = 16
DOCKED: USER
DOCKED: USER    Estimated Free Energy of Binding    =  -8.72 kcal/mol  [=(1)+(2)+(3)-(4)]
DOCKED: USER
DOCKED: USER    (1) Final Intermolecular Energy     = -10.51 kcal/mol
DOCKED: USER        vdW + Hbond + desolv Energy     = -10.52 kcal/mol
DOCKED: USER        Electrostatic Energy            =  +0.01 kcal/mol
DOCKED: USER        Moving Ligand-Fixed Receptor    = -10.51 kcal/mol
DOCKED: USER        Moving Ligand-Moving Receptor   =  +0.00 kcal/mol
DOCKED: USER    (2) Final Total Internal Energy     =  -2.05 kcal/mol
DOCKED: USER    (3) Torsional Free Energy           =  +1.79 kcal/mol
DOCKED: USER    (4) Unbound System's Energy         =  -2.05 kcal/mol
DOCKED: USER
DOCKED: USER
DOCKED: REMARK SMILES C[C@H](NC(=O)CNC(=O)c1ccc2ccccc2n1)c1ccc(-c2ccccc2)cc1
DOCKED: REMARK SMILES IDX 3 1 4 2 5 3 2 5 1 6 20 7 21 8 31 9 22 10 30 11 23 12 24 13
DOCKED: REMARK SMILES IDX 25 14 29 15 26 16 28 17 27 18 6 19 7 20 8 21 9 23 10 24
DOCKED: REMARK SMILES IDX 11 25 19 26 12 27 18 28 13 29 17 30 14 31 16 32 15 33
DOCKED: REMARK H PARENT 3 4 7 22
DOCKED: USER                              x       y       z     vdW  Elec       q    Type
DOCKED: USER                           _______ _______ _______ _____ _____    ______ ____
DOCKED: ROOT
DOCKED: ATOM      1  N   UNL     1     138.221  73.734 221.627 -0.07 +0.09    -0.348 N  
DOCKED: ATOM      2  C   UNL     1     136.961  73.695 222.248 -0.07 -0.07    +0.239 C  
DOCKED: ATOM      3  O   UNL     1     136.432  72.552 222.466 -0.08 +0.07    -0.273 OA 
DOCKED: ATOM      4  H   UNL     1     138.696  74.634 221.404 +0.03 -0.04    +0.164 HD 
DOCKED: ENDROOT
DOCKED: BRANCH   1   5
DOCKED: ATOM      5  C   UNL     1     138.890  72.496 221.261 -0.12 -0.02    +0.109 C  
DOCKED: ATOM      6  C   UNL     1     140.217  72.794 220.562 -0.14 -0.01    +0.036 C  
DOCKED: BRANCH   5   7
DOCKED: ATOM      7  C   UNL     1     139.254  71.789 222.515 -0.25 +0.01    -0.026 A  
DOCKED: ATOM      8  C   UNL     1     138.544  70.704 222.926 -0.22 -0.00    +0.006 A  
DOCKED: ATOM      9  C   UNL     1     140.324  72.238 223.251 -0.34 -0.00    +0.006 A  
DOCKED: ATOM     10  C   UNL     1     138.862  70.011 224.091 -0.32 -0.00    +0.009 A  
DOCKED: ATOM     11  C   UNL     1     140.688  71.586 224.424 -0.43 -0.00    +0.009 A  
DOCKED: ATOM     12  C   UNL     1     139.944  70.498 224.799 -0.43 +0.00    -0.018 A  
DOCKED: BRANCH  12  13
DOCKED: ATOM     13  C   UNL     1     140.294  69.784 226.021 -0.49 +0.00    -0.018 A  
DOCKED: ATOM     14  C   UNL     1     140.288  68.398 226.094 -0.58 -0.00    +0.009 A  
DOCKED: ATOM     15  C   UNL     1     140.658  70.466 227.159 -0.62 -0.00    +0.009 A  
DOCKED: ATOM     16  C   UNL     1     140.636  67.766 227.266 -0.65 -0.00    +0.001 A  
DOCKED: ATOM     17  C   UNL     1     141.011  69.860 228.343 -0.57 -0.00    +0.001 A  
DOCKED: ATOM     18  C   UNL     1     141.003  68.460 228.410 -0.66 -0.00    +0.000 A  
DOCKED: ENDBRANCH  12  13
DOCKED: ENDBRANCH   5   7
DOCKED: ENDBRANCH   1   5
DOCKED: BRANCH   2  19
DOCKED: ATOM     19  C   UNL     1     136.180  74.874 222.676 -0.14 -0.06    +0.216 C  
DOCKED: BRANCH  19  20
DOCKED: ATOM     20  N   UNL     1     137.035  75.897 223.177 -0.13 +0.09    -0.342 N  
DOCKED: ATOM     21  C   UNL     1     137.745  76.693 222.202 -0.17 -0.05    +0.270 C  
DOCKED: ATOM     22  H   UNL     1     137.188  76.117 224.197 -0.01 -0.04    +0.164 HD 
DOCKED: ATOM     23  O   UNL     1     137.580  76.437 220.976 -0.05 +0.05    -0.268 OA 
DOCKED: BRANCH  21  24
DOCKED: ATOM     24  C   UNL     1     138.640  77.773 222.609 -0.24 -0.02    +0.128 A  
DOCKED: ATOM     25  C   UNL     1     138.085  78.920 223.157 -0.22 -0.00    +0.035 A  
DOCKED: ATOM     26  N   UNL     1     139.996  77.685 222.456 -0.21 +0.06    -0.243 NA 
DOCKED: ATOM     27  C   UNL     1     138.890  79.973 223.552 -0.39 -0.00    +0.013 A  
DOCKED: ATOM     28  C   UNL     1     140.783  78.734 222.851 -0.42 -0.02    +0.071 A  
DOCKED: ATOM     29  C   UNL     1     140.262  79.880 223.397 -0.46 -0.00    +0.000 A  
DOCKED: ATOM     30  C   UNL     1     142.173  78.649 222.696 -0.33 -0.02    +0.029 A  
DOCKED: ATOM     31  C   UNL     1     141.014  80.959 223.805 -0.45 -0.00    +0.010 A  
DOCKED: ATOM     32  C   UNL     1     142.960  79.737 223.105 -0.62 -0.00    +0.002 A  
DOCKED: ATOM     33  C   UNL     1     142.376  80.872 223.651 -0.66 -0.00    +0.001 A  
DOCKED: ENDBRANCH  21  24
DOCKED: ENDBRANCH  19  20
DOCKED: ENDBRANCH   2  19
DOCKED: TORSDOF 6
DOCKED: TER
DOCKED: ENDMDL
________________________________________________________________________________


    FINAL DOCKED STATE:
    ________________________


Run:   17 / 20
Time taken for this run:   0.031s

DOCKED: MODEL        17
DOCKED: USER    Run = 17
DOCKED: USER
DOCKED: USER    Estimated Free Energy of Binding    =  -9.89 kcal/mol  [=(1)+(2)+(3)-(4)]
DOCKED: USER
DOCKED: USER    (1) Final Intermolecular Energy     = -11.68 kcal/mol
DOCKED: USER        vdW + Hbond + desolv Energy     = -11.63 kcal/mol
DOCKED: USER        Electrostatic Energy            =  -0.06 kcal/mol
DOCKED: USER        Moving Ligand-Fixed Receptor    = -11.68 kcal/mol
DOCKED: USER        Moving Ligand-Moving Receptor   =  +0.00 kcal/mol
DOCKED: USER    (2) Final Total Internal Energy     =  -2.24 kcal/mol
DOCKED: USER    (3) Torsional Free Energy           =  +1.79 kcal/mol
DOCKED: USER    (4) Unbound System's Energy         =  -2.24 kcal/mol
DOCKED: USER
DOCKED: USER
DOCKED: REMARK SMILES C[C@H](NC(=O)CNC(=O)c1ccc2ccccc2n1)c1ccc(-c2ccccc2)cc1
DOCKED: REMARK SMILES IDX 3 1 4 2 5 3 2 5 1 6 20 7 21 8 31 9 22 10 30 11 23 12 24 13
DOCKED: REMARK SMILES IDX 25 14 29 15 26 16 28 17 27 18 6 19 7 20 8 21 9 23 10 24
DOCKED: REMARK SMILES IDX 11 25 19 26 12 27 18 28 13 29 17 30 14 31 16 32 15 33
DOCKED: REMARK H PARENT 3 4 7 22
DOCKED: USER                              x       y       z     vdW  Elec       q    Type
DOCKED: USER                           _______ _______ _______ _____ _____    ______ ____
DOCKED: ROOT
DOCKED: ATOM      1  N   UNL     1     138.010  73.919 221.849 -0.08 +0.10    -0.348 N  
DOCKED: ATOM      2  C   UNL     1     138.249  73.325 220.598 -0.05 -0.05    +0.239 C  
DOCKED: ATOM      3  O   UNL     1     137.826  73.927 219.554 -0.01 +0.05    -0.273 OA 
DOCKED: ATOM      4  H   UNL     1     138.311  73.469 222.738 -0.53 -0.08    +0.164 HD 
DOCKED: ENDROOT
DOCKED: BRANCH   1   5
DOCKED: ATOM      5  C   UNL     1     137.306  75.189 221.927 -0.17 -0.03    +0.109 C  
DOCKED: ATOM      6  C   UNL     1     136.337  75.189 223.110 -0.19 -0.01    +0.036 C  
DOCKED: BRANCH   5   7
DOCKED: ATOM      7  C   UNL     1     138.306  76.243 222.236 -0.28 +0.01    -0.026 A  
DOCKED: ATOM      8  C   UNL     1     137.903  77.495 222.581 -0.26 -0.00    +0.006 A  
DOCKED: ATOM      9  C   UNL     1     139.644  75.936 222.180 -0.34 -0.00    +0.006 A  
DOCKED: ATOM     10  C   UNL     1     138.811  78.506 222.886 -0.30 -0.00    +0.009 A  
DOCKED: ATOM     11  C   UNL     1     140.597  76.904 222.474 -0.40 -0.00    +0.009 A  
DOCKED: ATOM     12  C   UNL     1     140.144  78.152 222.815 -0.36 +0.00    -0.018 A  
DOCKED: BRANCH  12  13
DOCKED: ATOM     13  C   UNL     1     141.111  79.197 223.134 -0.51 +0.00    -0.018 A  
DOCKED: ATOM     14  C   UNL     1     142.445  79.106 222.763 -0.52 -0.00    +0.009 A  
DOCKED: ATOM     15  C   UNL     1     140.728  80.329 223.814 -0.45 -0.00    +0.009 A  
DOCKED: ATOM     16  C   UNL     1     143.319  80.123 223.076 -0.63 -0.00    +0.001 A  
DOCKED: ATOM     17  C   UNL     1     141.580  81.360 224.139 -0.36 -0.00    +0.001 A  
DOCKED: ATOM     18  C   UNL     1     142.926  81.263 223.761 -0.47 -0.00    +0.000 A  
DOCKED: ENDBRANCH  12  13
DOCKED: ENDBRANCH   5   7
DOCKED: ENDBRANCH   1   5
DOCKED: BRANCH   2  19
DOCKED: ATOM     19  C   UNL     1     138.955  72.045 220.379 -0.04 -0.04    +0.216 C  
DOCKED: BRANCH  19  20
DOCKED: ATOM     20  N   UNL     1     139.070  71.312 221.595 -0.05 +0.06    -0.342 N  
DOCKED: ATOM     21  C   UNL     1     139.878  71.898 222.641 -0.21 -0.05    +0.270 C  
DOCKED: ATOM     22  H   UNL     1     138.613  70.381 221.790 +0.04 -0.03    +0.164 HD 
DOCKED: ATOM     23  O   UNL     1     140.439  73.008 222.421 -0.69 +0.01    -0.268 OA 
DOCKED: BRANCH  21  24
DOCKED: ATOM     24  C   UNL     1     140.053  71.232 223.928 -0.35 -0.02    +0.128 A  
DOCKED: ATOM     25  C   UNL     1     140.699  71.919 224.945 -0.30 -0.00    +0.035 A  
DOCKED: ATOM     26  N   UNL     1     139.608  69.958 224.150 -0.17 +0.04    -0.243 NA 
DOCKED: ATOM     27  C   UNL     1     140.895  71.329 226.180 -0.65 -0.00    +0.013 A  
DOCKED: ATOM     28  C   UNL     1     139.809  69.384 225.377 -0.39 -0.01    +0.071 A  
DOCKED: ATOM     29  C   UNL     1     140.443  70.040 226.401 -0.55 -0.00    +0.000 A  
DOCKED: ATOM     30  C   UNL     1     139.355  68.079 225.609 -0.50 -0.00    +0.029 A  
DOCKED: ATOM     31  C   UNL     1     140.668  69.502 227.649 -0.61 -0.00    +0.010 A  
DOCKED: ATOM     32  C   UNL     1     139.573  67.509 226.873 -0.60 -0.00    +0.002 A  
DOCKED: ATOM     33  C   UNL     1     140.222  68.222 227.872 -0.64 -0.00    +0.001 A  
DOCKED: ENDBRANCH  21  24
DOCKED: ENDBRANCH  19  20
DOCKED: ENDBRANCH   2  19
DOCKED: TORSDOF 6
DOCKED: TER
DOCKED: ENDMDL
________________________________________________________________________________


    FINAL DOCKED STATE:
    ________________________


Run:   18 / 20
Time taken for this run:   0.031s

DOCKED: MODEL        18
DOCKED: USER    Run = 18
DOCKED: USER
DOCKED: USER    Estimated Free Energy of Binding    =  -9.94 kcal/mol  [=(1)+(2)+(3)-(4)]
DOCKED: USER
DOCKED: USER    (1) Final Intermolecular Energy     = -11.73 kcal/mol
DOCKED: USER        vdW + Hbond + desolv Energy     = -11.66 kcal/mol
DOCKED: USER        Electrostatic Energy            =  -0.06 kcal/mol
DOCKED: USER        Moving Ligand-Fixed Receptor    = -11.73 kcal/mol
DOCKED: USER        Moving Ligand-Moving Receptor   =  +0.00 kcal/mol
DOCKED: USER    (2) Final Total Internal Energy     =  -2.21 kcal/mol
DOCKED: USER    (3) Torsional Free Energy           =  +1.79 kcal/mol
DOCKED: USER    (4) Unbound System's Energy         =  -2.21 kcal/mol
DOCKED: USER
DOCKED: USER
DOCKED: REMARK SMILES C[C@H](NC(=O)CNC(=O)c1ccc2ccccc2n1)c1ccc(-c2ccccc2)cc1
DOCKED: REMARK SMILES IDX 3 1 4 2 5 3 2 5 1 6 20 7 21 8 31 9 22 10 30 11 23 12 24 13
DOCKED: REMARK SMILES IDX 25 14 29 15 26 16 28 17 27 18 6 19 7 20 8 21 9 23 10 24
DOCKED: REMARK SMILES IDX 11 25 19 26 12 27 18 28 13 29 17 30 14 31 16 32 15 33
DOCKED: REMARK H PARENT 3 4 7 22
DOCKED: USER                              x       y       z     vdW  Elec       q    Type
DOCKED: USER                           _______ _______ _______ _____ _____    ______ ____
DOCKED: ROOT
DOCKED: ATOM      1  N   UNL     1     137.909  73.865 221.927 -0.08 +0.11    -0.348 N  
DOCKED: ATOM      2  C   UNL     1     138.199  73.320 220.664 -0.06 -0.05    +0.239 C  
DOCKED: ATOM      3  O   UNL     1     137.790  73.947 219.629 -0.01 +0.05    -0.273 OA 
DOCKED: ATOM      4  H   UNL     1     138.196  73.392 222.809 -0.52 -0.09    +0.164 HD 
DOCKED: ENDROOT
DOCKED: BRANCH   1   5
DOCKED: ATOM      5  C   UNL     1     137.172  75.115 222.027 -0.16 -0.03    +0.109 C  
DOCKED: ATOM      6  C   UNL     1     136.231  75.083 223.232 -0.19 -0.01    +0.036 C  
DOCKED: BRANCH   5   7
DOCKED: ATOM      7  C   UNL     1     138.148  76.196 222.317 -0.28 +0.01    -0.026 A  
DOCKED: ATOM      8  C   UNL     1     139.483  75.971 222.187 -0.34 -0.00    +0.006 A  
DOCKED: ATOM      9  C   UNL     1     137.687  77.429 222.709 -0.26 -0.00    +0.006 A  
DOCKED: ATOM     10  C   UNL     1     140.427  76.963 222.441 -0.39 -0.00    +0.009 A  
DOCKED: ATOM     11  C   UNL     1     138.583  78.458 222.977 -0.28 -0.00    +0.009 A  
DOCKED: ATOM     12  C   UNL     1     139.918  78.185 222.833 -0.34 +0.00    -0.018 A  
DOCKED: BRANCH  12  13
DOCKED: ATOM     13  C   UNL     1     140.892  79.238 223.101 -0.48 +0.00    -0.018 A  
DOCKED: ATOM     14  C   UNL     1     140.524  80.465 223.634 -0.45 -0.00    +0.009 A  
DOCKED: ATOM     15  C   UNL     1     142.229  79.045 222.842 -0.55 -0.00    +0.009 A  
DOCKED: ATOM     16  C   UNL     1     141.480  81.425 223.881 -0.43 -0.00    +0.001 A  
DOCKED: ATOM     17  C   UNL     1     143.205  79.987 223.080 -0.60 -0.00    +0.001 A  
DOCKED: ATOM     18  C   UNL     1     142.827  81.224 223.618 -0.47 -0.00    +0.000 A  
DOCKED: ENDBRANCH  12  13
DOCKED: ENDBRANCH   5   7
DOCKED: ENDBRANCH   1   5
DOCKED: BRANCH   2  19
DOCKED: ATOM     19  C   UNL     1     138.943  72.066 220.424 -0.04 -0.04    +0.216 C  
DOCKED: BRANCH  19  20
DOCKED: ATOM     20  N   UNL     1     139.075  71.313 221.626 -0.05 +0.06    -0.342 N  
DOCKED: ATOM     21  C   UNL     1     139.848  71.910 222.692 -0.21 -0.05    +0.270 C  
DOCKED: ATOM     22  H   UNL     1     138.655  70.360 221.797 +0.04 -0.03    +0.164 HD 
DOCKED: ATOM     23  O   UNL     1     140.364  73.047 222.500 -0.70 +0.01    -0.268 OA 
DOCKED: BRANCH  21  24
DOCKED: ATOM     24  C   UNL     1     140.037  71.226 223.968 -0.35 -0.02    +0.128 A  
DOCKED: ATOM     25  C   UNL     1     140.704  71.895 224.984 -0.35 -0.00    +0.035 A  
DOCKED: ATOM     26  N   UNL     1     139.586  69.953 224.179 -0.17 +0.04    -0.243 NA 
DOCKED: ATOM     27  C   UNL     1     140.914  71.286 226.207 -0.65 -0.00    +0.013 A  
DOCKED: ATOM     28  C   UNL     1     139.800  69.361 225.395 -0.39 -0.01    +0.071 A  
DOCKED: ATOM     29  C   UNL     1     140.455  69.998 226.419 -0.55 -0.00    +0.000 A  
DOCKED: ATOM     30  C   UNL     1     139.340  68.056 225.617 -0.50 -0.00    +0.029 A  
DOCKED: ATOM     31  C   UNL     1     140.695  69.442 227.656 -0.61 -0.00    +0.010 A  
DOCKED: ATOM     32  C   UNL     1     139.573  67.468 226.870 -0.59 -0.00    +0.002 A  
DOCKED: ATOM     33  C   UNL     1     140.243  68.162 227.868 -0.64 -0.00    +0.001 A  
DOCKED: ENDBRANCH  21  24
DOCKED: ENDBRANCH  19  20
DOCKED: ENDBRANCH   2  19
DOCKED: TORSDOF 6
DOCKED: TER
DOCKED: ENDMDL
________________________________________________________________________________


    FINAL DOCKED STATE:
    ________________________


Run:   19 / 20
Time taken for this run:   0.031s

DOCKED: MODEL        19
DOCKED: USER    Run = 19
DOCKED: USER
DOCKED: USER    Estimated Free Energy of Binding    =  -9.73 kcal/mol  [=(1)+(2)+(3)-(4)]
DOCKED: USER
DOCKED: USER    (1) Final Intermolecular Energy     = -11.52 kcal/mol
DOCKED: USER        vdW + Hbond + desolv Energy     = -11.46 kcal/mol
DOCKED: USER        Electrostatic Energy            =  -0.05 kcal/mol
DOCKED: USER        Moving Ligand-Fixed Receptor    = -11.52 kcal/mol
DOCKED: USER        Moving Ligand-Moving Receptor   =  +0.00 kcal/mol
DOCKED: USER    (2) Final Total Internal Energy     =  -2.31 kcal/mol
DOCKED: USER    (3) Torsional Free Energy           =  +1.79 kcal/mol
DOCKED: USER    (4) Unbound System's Energy         =  -2.31 kcal/mol
DOCKED: USER
DOCKED: USER
DOCKED: REMARK SMILES C[C@H](NC(=O)CNC(=O)c1ccc2ccccc2n1)c1ccc(-c2ccccc2)cc1
DOCKED: REMARK SMILES IDX 3 1 4 2 5 3 2 5 1 6 20 7 21 8 31 9 22 10 30 11 23 12 24 13
DOCKED: REMARK SMILES IDX 25 14 29 15 26 16 28 17 27 18 6 19 7 20 8 21 9 23 10 24
DOCKED: REMARK SMILES IDX 11 25 19 26 12 27 18 28 13 29 17 30 14 31 16 32 15 33
DOCKED: REMARK H PARENT 3 4 7 22
DOCKED: USER                              x       y       z     vdW  Elec       q    Type
DOCKED: USER                           _______ _______ _______ _____ _____    ______ ____
DOCKED: ROOT
DOCKED: ATOM      1  N   UNL     1     137.893  73.785 221.973 -0.08 +0.11    -0.348 N  
DOCKED: ATOM      2  C   UNL     1     137.848  72.928 220.859 -0.05 -0.05    +0.239 C  
DOCKED: ATOM      3  O   UNL     1     137.110  73.262 219.871 -0.01 +0.05    -0.273 OA 
DOCKED: ATOM      4  H   UNL     1     138.459  73.560 222.817 -0.53 -0.09    +0.164 HD 
DOCKED: ENDROOT
DOCKED: BRANCH   1   5
DOCKED: ATOM      5  C   UNL     1     137.120  75.017 221.973 -0.16 -0.03    +0.109 C  
DOCKED: ATOM      6  C   UNL     1     136.133  75.026 223.141 -0.21 -0.01    +0.036 C  
DOCKED: BRANCH   5   7
DOCKED: ATOM      7  C   UNL     1     138.055  76.139 222.239 -0.27 +0.01    -0.026 A  
DOCKED: ATOM      8  C   UNL     1     137.581  77.359 222.606 -0.25 -0.00    +0.006 A  
DOCKED: ATOM      9  C   UNL     1     139.408  75.928 222.118 -0.33 -0.00    +0.006 A  
DOCKED: ATOM     10  C   UNL     1     138.428  78.432 222.872 -0.27 -0.00    +0.009 A  
DOCKED: ATOM     11  C   UNL     1     140.302  76.962 222.370 -0.40 -0.00    +0.009 A  
DOCKED: ATOM     12  C   UNL     1     139.778  78.174 222.737 -0.35 +0.00    -0.018 A  
DOCKED: BRANCH  12  13
DOCKED: ATOM     13  C   UNL     1     140.682  79.285 223.014 -0.45 +0.00    -0.018 A  
DOCKED: ATOM     14  C   UNL     1     140.316  80.606 222.795 -0.38 -0.00    +0.009 A  
DOCKED: ATOM     15  C   UNL     1     141.942  79.062 223.518 -0.60 -0.00    +0.009 A  
DOCKED: ATOM     16  C   UNL     1     141.199  81.623 223.082 -0.43 -0.00    +0.001 A  
DOCKED: ATOM     17  C   UNL     1     142.843  80.060 223.813 -0.56 -0.00    +0.001 A  
DOCKED: ATOM     18  C   UNL     1     142.468  81.391 223.590 -0.52 -0.00    +0.000 A  
DOCKED: ENDBRANCH  12  13
DOCKED: ENDBRANCH   5   7
DOCKED: ENDBRANCH   1   5
DOCKED: BRANCH   2  19
DOCKED: ATOM     19  C   UNL     1     138.587  71.656 220.728 -0.04 -0.04    +0.216 C  
DOCKED: BRANCH  19  20
DOCKED: ATOM     20  N   UNL     1     138.786  71.048 222.002 -0.05 +0.07    -0.342 N  
DOCKED: ATOM     21  C   UNL     1     139.746  71.673 222.883 -0.21 -0.05    +0.270 C  
DOCKED: ATOM     22  H   UNL     1     138.290  70.184 222.348 +0.05 -0.03    +0.164 HD 
DOCKED: ATOM     23  O   UNL     1     140.356  72.704 222.479 -0.53 +0.02    -0.268 OA 
DOCKED: BRANCH  21  24
DOCKED: ATOM     24  C   UNL     1     140.019  71.136 224.213 -0.37 -0.02    +0.128 A  
DOCKED: ATOM     25  C   UNL     1     140.794  71.887 225.083 -0.33 -0.00    +0.035 A  
DOCKED: ATOM     26  N   UNL     1     139.540  69.919 224.612 -0.19 +0.04    -0.243 NA 
DOCKED: ATOM     27  C   UNL     1     141.085  71.417 226.351 -0.68 -0.00    +0.013 A  
DOCKED: ATOM     28  C   UNL     1     139.835  69.465 225.870 -0.42 -0.01    +0.071 A  
DOCKED: ATOM     29  C   UNL     1     140.598  70.187 226.753 -0.58 -0.00    +0.000 A  
DOCKED: ATOM     30  C   UNL     1     139.347  68.218 226.285 -0.54 -0.00    +0.029 A  
DOCKED: ATOM     31  C   UNL     1     140.921  69.769 228.025 -0.60 -0.00    +0.010 A  
DOCKED: ATOM     32  C   UNL     1     139.664  67.772 227.577 -0.43 -0.00    +0.002 A  
DOCKED: ATOM     33  C   UNL     1     140.442  68.546 228.427 -0.66 -0.00    +0.001 A  
DOCKED: ENDBRANCH  21  24
DOCKED: ENDBRANCH  19  20
DOCKED: ENDBRANCH   2  19
DOCKED: TORSDOF 6
DOCKED: TER
DOCKED: ENDMDL
________________________________________________________________________________


    FINAL DOCKED STATE:
    ________________________


Run:   20 / 20
Time taken for this run:   0.031s

DOCKED: MODEL        20
DOCKED: USER    Run = 20
DOCKED: USER
DOCKED: USER    Estimated Free Energy of Binding    =  -9.89 kcal/mol  [=(1)+(2)+(3)-(4)]
DOCKED: USER
DOCKED: USER    (1) Final Intermolecular Energy     = -11.68 kcal/mol
DOCKED: USER        vdW + Hbond + desolv Energy     = -11.62 kcal/mol
DOCKED: USER        Electrostatic Energy            =  -0.06 kcal/mol
DOCKED: USER        Moving Ligand-Fixed Receptor    = -11.68 kcal/mol
DOCKED: USER        Moving Ligand-Moving Receptor   =  +0.00 kcal/mol
DOCKED: USER    (2) Final Total Internal Energy     =  -2.27 kcal/mol
DOCKED: USER    (3) Torsional Free Energy           =  +1.79 kcal/mol
DOCKED: USER    (4) Unbound System's Energy         =  -2.27 kcal/mol
DOCKED: USER
DOCKED: USER
DOCKED: REMARK SMILES C[C@H](NC(=O)CNC(=O)c1ccc2ccccc2n1)c1ccc(-c2ccccc2)cc1
DOCKED: REMARK SMILES IDX 3 1 4 2 5 3 2 5 1 6 20 7 21 8 31 9 22 10 30 11 23 12 24 13
DOCKED: REMARK SMILES IDX 25 14 29 15 26 16 28 17 27 18 6 19 7 20 8 21 9 23 10 24
DOCKED: REMARK SMILES IDX 11 25 19 26 12 27 18 28 13 29 17 30 14 31 16 32 15 33
DOCKED: REMARK H PARENT 3 4 7 22
DOCKED: USER                              x       y       z     vdW  Elec       q    Type
DOCKED: USER                           _______ _______ _______ _____ _____    ______ ____
DOCKED: ROOT
DOCKED: ATOM      1  N   UNL     1     137.970  73.630 221.946 -0.07 +0.11    -0.348 N  
DOCKED: ATOM      2  C   UNL     1     138.169  72.904 220.759 -0.05 -0.05    +0.239 C  
DOCKED: ATOM      3  O   UNL     1     137.670  73.367 219.678 -0.01 +0.05    -0.273 OA 
DOCKED: ATOM      4  H   UNL     1     138.333  73.295 222.862 -0.49 -0.09    +0.164 HD 
DOCKED: ENDROOT
DOCKED: BRANCH   1   5
DOCKED: ATOM      5  C   UNL     1     137.222  74.877 221.918 -0.16 -0.03    +0.109 C  
DOCKED: ATOM      6  C   UNL     1     136.203  74.912 223.058 -0.20 -0.01    +0.036 C  
DOCKED: BRANCH   5   7
DOCKED: ATOM      7  C   UNL     1     138.172  75.982 222.204 -0.27 +0.01    -0.026 A  
DOCKED: ATOM      8  C   UNL     1     137.717  77.180 222.660 -0.27 -0.00    +0.006 A  
DOCKED: ATOM      9  C   UNL     1     139.517  75.777 222.013 -0.33 -0.00    +0.006 A  
DOCKED: ATOM     10  C   UNL     1     138.579  78.236 222.947 -0.27 -0.00    +0.009 A  
DOCKED: ATOM     11  C   UNL     1     140.425  76.794 222.283 -0.41 -0.00    +0.009 A  
DOCKED: ATOM     12  C   UNL     1     139.922  77.984 222.739 -0.35 +0.00    -0.018 A  
DOCKED: BRANCH  12  13
DOCKED: ATOM     13  C   UNL     1     140.840  79.078 223.037 -0.48 +0.00    -0.018 A  
DOCKED: ATOM     14  C   UNL     1     140.401  80.292 223.547 -0.45 -0.00    +0.009 A  
DOCKED: ATOM     15  C   UNL     1     142.193  78.940 222.832 -0.51 -0.00    +0.009 A  
DOCKED: ATOM     16  C   UNL     1     141.307  81.292 223.823 -0.47 -0.00    +0.001 A  
DOCKED: ATOM     17  C   UNL     1     143.119  79.922 223.100 -0.61 -0.00    +0.001 A  
DOCKED: ATOM     18  C   UNL     1     142.670  81.146 223.614 -0.57 -0.00    +0.000 A  
DOCKED: ENDBRANCH  12  13
DOCKED: ENDBRANCH   5   7
DOCKED: ENDBRANCH   1   5
DOCKED: BRANCH   2  19
DOCKED: ATOM     19  C   UNL     1     138.912  71.632 220.648 -0.05 -0.04    +0.216 C  
DOCKED: BRANCH  19  20
DOCKED: ATOM     20  N   UNL     1     139.058  71.013 221.923 -0.06 +0.06    -0.342 N  
DOCKED: ATOM     21  C   UNL     1     139.886  71.695 222.892 -0.22 -0.05    +0.270 C  
DOCKED: ATOM     22  H   UNL     1     138.610  70.103 222.212 +0.05 -0.03    +0.164 HD 
DOCKED: ATOM     23  O   UNL     1     140.436  72.782 222.559 -0.58 +0.01    -0.268 OA 
DOCKED: BRANCH  21  24
DOCKED: ATOM     24  C   UNL     1     140.093  71.151 224.231 -0.37 -0.02    +0.128 A  
DOCKED: ATOM     25  C   UNL     1     140.825  71.897 225.142 -0.31 -0.00    +0.035 A  
DOCKED: ATOM     26  N   UNL     1     139.594  69.932 224.601 -0.19 +0.04    -0.243 NA 
DOCKED: ATOM     27  C   UNL     1     141.054  71.421 226.420 -0.69 -0.00    +0.013 A  
DOCKED: ATOM     28  C   UNL     1     139.828  69.472 225.869 -0.42 -0.01    +0.071 A  
DOCKED: ATOM     29  C   UNL     1     140.548  70.189 226.791 -0.58 -0.00    +0.000 A  
DOCKED: ATOM     30  C   UNL     1     139.320  68.223 226.253 -0.54 -0.00    +0.029 A  
DOCKED: ATOM     31  C   UNL     1     140.809  69.765 228.076 -0.60 -0.00    +0.010 A  
DOCKED: ATOM     32  C   UNL     1     139.573  67.770 227.557 -0.42 -0.00    +0.002 A  
DOCKED: ATOM     33  C   UNL     1     140.310  68.540 228.447 -0.65 -0.00    +0.001 A  
DOCKED: ENDBRANCH  21  24
DOCKED: ENDBRANCH  19  20
DOCKED: ENDBRANCH   2  19
DOCKED: TORSDOF 6
DOCKED: TER
DOCKED: ENDMDL
________________________________________________________________________________


    CLUSTERING HISTOGRAM
    ____________________


________________________________________________________________________________
     |           |     |           |     |
Clus | Lowest    | Run | Mean      | Num | Histogram
-ter | Binding   |     | Binding   | in  |
Rank | Energy    |     | Energy    | Clus|    5    10   15   20   25   30   35
_____|___________|_____|___________|_____|____:____|____:____|____:____|____:___
   1 |     -9.95 |  15 |     -9.73 |  20 |####################
_____|___________|_____|___________|_____|______________________________________


    RMSD TABLE
    __________


_______________________________________________________________________
     |      |      |           |         |                 |
Rank | Sub- | Run  | Binding   | Cluster | Reference       | Grep
     | Rank |      | Energy    | RMSD    | RMSD            | Pattern
_____|______|______|___________|_________|_________________|___________
   1      1     15       -9.95      0.00    272.07           RANKING
   1      2     18       -9.94      0.65    271.99           RANKING
   1      3     13       -9.91      0.66    271.98           RANKING
   1      4     20       -9.89      0.72    272.08           RANKING
   1      5     17       -9.89      0.66    272.02           RANKING
   1      6     12       -9.88      0.68    272.02           RANKING
   1      7      6       -9.86      0.67    272.04           RANKING
   1      8      5       -9.85      0.67    271.93           RANKING
   1      9      7       -9.85      0.67    272.07           RANKING
   1     10      3       -9.83      0.71    272.16           RANKING
   1     11      4       -9.82      0.72    272.06           RANKING
   1     12     10       -9.80      0.72    272.17           RANKING
   1     13     11       -9.80      0.80    271.97           RANKING
   1     14     14       -9.78      0.78    271.99           RANKING
   1     15      1       -9.77      0.79    271.90           RANKING
   1     16      2       -9.76      0.74    272.10           RANKING
   1     17      9       -9.76      0.82    272.01           RANKING
   1     18     19       -9.73      0.80    272.05           RANKING
   1     19      8       -8.78      1.83    272.08           RANKING
   1     20     16       -8.72      1.83    272.09           RANKING

Run time 0.572 sec
Idle time 0.000 sec
