AutoDock-GPU version: v1.6

**********************************************************
**    AutoDock-GPU AUTODOCKTOOLS-COMPATIBLE DLG FILE    **
**********************************************************


    DOCKING PARAMETERS
    ________________________


Ligand file:                               /home/a/REINVENT4/ReinventStudies/pleaseWork/justmol2mol_4_Compounds_ontop/graph-dock-amy28i/graph-DockGPU/node-autodockgpu/inputs/FZWQMCRGAOFRRU-NAUSHLRJNA-N.pdbqt
Grid fld file:                             /home/a/REINVENT4/ReinventStudies/mols/Rad51/maps/rad51_receptor.maps.fld

Random seed:                               42
Number of runs:                            20
Number of energy evaluations:              1132076
Number of generations:                     42000
Size of population:                        150
Rate of crossover:                         80.000000%
Tournament selection probability limit:    60.000000%
Rate of mutation:                          2.000000%
Maximal allowed delta movement:            +/- 6.000000A
Maximal allowed delta angle:               +/- 90.000000

Rate of local search:                      100.000000%
Maximal number of local search iterations: 300
Rho lower bound:                           0.010000
Spread of local search delta movement:     2.000000A
Spread of local search delta angle:        74.999999
Limit of consecutive successes/failures:   4

Handle symmetry during clustering:         YES
RMSD tolerance:                            2.000000A

Program call in command line was:          /home/a/REINVENT4/ReinventStudies/adgpu-v1.6_linux_x64_cuda12_128wi --filelist batch.txt --heuristics 1 --nrun 20 --psize 150 --lsit 300 --seed 42 --heurmax 12000000 


    GRID PARAMETERS
    ________________________


Receptor name:                             rad51_receptor
Number of grid points (x, y, z):           53, 53, 53
Grid center (x, y, z):                     139.950000, 75.640000, 221.970000A
Grid size (x, y, z):                       19.500000, 19.500000, 19.500000A
Grid spacing:                              0.375000A


    LIGAND PARAMETERS
    ________________________


Ligand name:                               /home/a/REINVENT4/ReinventStudies/pleaseWork/justmol2mol_4_Compounds_ontop/graph-dock-amy28i/graph-DockGPU/node-autodockgpu/inputs/FZWQMCRGAOFRRU-NAUSHLRJNA-N
Number of atoms:                           30
Number of rotatable bonds:                 5
Number of atom types:                      7


    DUMMY DATA (only for ADT-compatibility)
    ________________________


DPF> outlev 1
DPF> ga_run 20
DPF> fld /home/a/REINVENT4/ReinventStudies/mols/Rad51/maps/rad51_receptor.maps.fld
DPF> move /home/a/REINVENT4/ReinventStudies/pleaseWork/justmol2mol_4_Compounds_ontop/graph-dock-amy28i/graph-DockGPU/node-autodockgpu/inputs/FZWQMCRGAOFRRU-NAUSHLRJNA-N.pdbqt


    COUNTER STATES
    ________________________


Number of energy evaluations performed:    574421
Number of generations used:                30


    INPUT LIGAND PDBQT FILE:
    ________________________


INPUT-LIGAND-PDBQT: REMARK SMILES O=C(NCC(=O)N1CCCC[C@H]1c1ccccc1)c1ccc2cc(F)ccc2n1
INPUT-LIGAND-PDBQT: REMARK SMILES IDX 4 1 3 2 2 3 1 4 19 6 20 7 29 8 21 9 28 10 22 11 27 12 23 13
INPUT-LIGAND-PDBQT: REMARK SMILES IDX 26 14 24 15 25 16 5 17 6 18 7 19 8 20 12 21 9 22 11 23 10 24
INPUT-LIGAND-PDBQT: REMARK SMILES IDX 13 25 14 26 18 27 15 28 17 29 16 30
INPUT-LIGAND-PDBQT: REMARK H PARENT 3 5
INPUT-LIGAND-PDBQT: ROOT
INPUT-LIGAND-PDBQT: ATOM      1  C   UNL     1      -0.372  -0.690   1.914  1.00  0.00     0.216 C 
INPUT-LIGAND-PDBQT: ENDROOT
INPUT-LIGAND-PDBQT: BRANCH   1   2
INPUT-LIGAND-PDBQT: ATOM      2  N   UNL     1       0.860  -0.489   1.238  1.00  0.00    -0.342 N 
INPUT-LIGAND-PDBQT: ATOM      3  C   UNL     1       2.025  -1.090   1.854  1.00  0.00     0.270 C 
INPUT-LIGAND-PDBQT: ATOM      4  O   UNL     1       1.845  -1.738   2.933  1.00  0.00    -0.268 OA
INPUT-LIGAND-PDBQT: ATOM      5  H   UNL     1       1.062   0.006   0.359  1.00  0.00     0.164 HD
INPUT-LIGAND-PDBQT: BRANCH   3   6
INPUT-LIGAND-PDBQT: ATOM      6  C   UNL     1       3.334  -0.939   1.237  1.00  0.00     0.128 A 
INPUT-LIGAND-PDBQT: ATOM      7  C   UNL     1       4.403  -1.534   1.869  1.00  0.00     0.035 A 
INPUT-LIGAND-PDBQT: ATOM      8  N   UNL     1       3.496  -0.247   0.093  1.00  0.00    -0.243 NA
INPUT-LIGAND-PDBQT: ATOM      9  C   UNL     1       5.647  -1.393   1.287  1.00  0.00     0.013 A 
INPUT-LIGAND-PDBQT: ATOM     10  C   UNL     1       4.697  -0.093  -0.498  1.00  0.00     0.071 A 
INPUT-LIGAND-PDBQT: ATOM     11  C   UNL     1       5.788  -0.675   0.109  1.00  0.00     0.003 A 
INPUT-LIGAND-PDBQT: ATOM     12  C   UNL     1       4.778   0.632  -1.670  1.00  0.00     0.032 A 
INPUT-LIGAND-PDBQT: ATOM     13  C   UNL     1       7.019  -0.512  -0.505  1.00  0.00     0.049 A 
INPUT-LIGAND-PDBQT: ATOM     14  C   UNL     1       5.993   0.786  -2.265  1.00  0.00     0.041 A 
INPUT-LIGAND-PDBQT: ATOM     15  C   UNL     1       7.106   0.214  -1.681  1.00  0.00     0.123 A 
INPUT-LIGAND-PDBQT: ATOM     16  F   UNL     1       8.293   0.405  -2.325  1.00  0.00    -0.207 F 
INPUT-LIGAND-PDBQT: ENDBRANCH   3   6
INPUT-LIGAND-PDBQT: ENDBRANCH   1   2
INPUT-LIGAND-PDBQT: BRANCH   1  17
INPUT-LIGAND-PDBQT: ATOM     17  C   UNL     1      -1.597  -0.097   1.394  1.00  0.00     0.242 C 
INPUT-LIGAND-PDBQT: ATOM     18  O   UNL     1      -2.651  -0.450   2.104  1.00  0.00    -0.273 OA
INPUT-LIGAND-PDBQT: BRANCH  17  19
INPUT-LIGAND-PDBQT: ATOM     19  N   UNL     1      -1.875   0.743   0.326  1.00  0.00    -0.334 N 
INPUT-LIGAND-PDBQT: ATOM     20  C   UNL     1      -0.916   1.413  -0.531  1.00  0.00     0.120 C 
INPUT-LIGAND-PDBQT: ATOM     21  C   UNL     1      -3.283   0.966  -0.020  1.00  0.00     0.115 C 
INPUT-LIGAND-PDBQT: ATOM     22  C   UNL     1      -1.505   2.701  -1.104  1.00  0.00     0.022 C 
INPUT-LIGAND-PDBQT: ATOM     23  C   UNL     1      -3.317   1.060  -1.558  1.00  0.00     0.030 C 
INPUT-LIGAND-PDBQT: ATOM     24  C   UNL     1      -2.767   2.433  -1.882  1.00  0.00     0.004 C 
INPUT-LIGAND-PDBQT: BRANCH  21  25
INPUT-LIGAND-PDBQT: ATOM     25  C   UNL     1      -4.170  -0.147   0.405  1.00  0.00    -0.025 A 
INPUT-LIGAND-PDBQT: ATOM     26  C   UNL     1      -3.852  -1.442  -0.032  1.00  0.00     0.006 A 
INPUT-LIGAND-PDBQT: ATOM     27  C   UNL     1      -5.267   0.098   1.204  1.00  0.00     0.006 A 
INPUT-LIGAND-PDBQT: ATOM     28  C   UNL     1      -4.695  -2.478   0.376  1.00  0.00     0.000 A 
INPUT-LIGAND-PDBQT: ATOM     29  C   UNL     1      -6.103  -0.941   1.606  1.00  0.00     0.000 A 
INPUT-LIGAND-PDBQT: ATOM     30  C   UNL     1      -5.786  -2.213   1.173  1.00  0.00     0.000 A 
INPUT-LIGAND-PDBQT: ENDBRANCH  21  25
INPUT-LIGAND-PDBQT: ENDBRANCH  17  19
INPUT-LIGAND-PDBQT: ENDBRANCH   1  17
INPUT-LIGAND-PDBQT: TORSDOF 5


    FINAL DOCKED STATE:
    ________________________


Run:   1 / 20
Time taken for this run:   0.024s

DOCKED: MODEL        1
DOCKED: USER    Run = 1
DOCKED: USER
DOCKED: USER    Estimated Free Energy of Binding    =  -7.86 kcal/mol  [=(1)+(2)+(3)-(4)]
DOCKED: USER
DOCKED: USER    (1) Final Intermolecular Energy     =  -9.35 kcal/mol
DOCKED: USER        vdW + Hbond + desolv Energy     =  -9.32 kcal/mol
DOCKED: USER        Electrostatic Energy            =  -0.03 kcal/mol
DOCKED: USER        Moving Ligand-Fixed Receptor    =  -9.35 kcal/mol
DOCKED: USER        Moving Ligand-Moving Receptor   =  +0.00 kcal/mol
DOCKED: USER    (2) Final Total Internal Energy     =  -1.71 kcal/mol
DOCKED: USER    (3) Torsional Free Energy           =  +1.49 kcal/mol
DOCKED: USER    (4) Unbound System's Energy         =  -1.71 kcal/mol
DOCKED: USER
DOCKED: USER
DOCKED: REMARK SMILES O=C(NCC(=O)N1CCCC[C@H]1c1ccccc1)c1ccc2cc(F)ccc2n1
DOCKED: REMARK SMILES IDX 4 1 3 2 2 3 1 4 19 6 20 7 29 8 21 9 28 10 22 11 27 12 23 13
DOCKED: REMARK SMILES IDX 26 14 24 15 25 16 5 17 6 18 7 19 8 20 12 21 9 22 11 23 10 24
DOCKED: REMARK SMILES IDX 13 25 14 26 18 27 15 28 17 29 16 30
DOCKED: REMARK H PARENT 3 5
DOCKED: USER                              x       y       z     vdW  Elec       q    Type
DOCKED: USER                           _______ _______ _______ _____ _____    ______ ____
DOCKED: ROOT
DOCKED: ATOM      1  C   UNL     1     139.944  72.935 220.033 -0.05 -0.04    +0.216 C  
DOCKED: ENDROOT
DOCKED: BRANCH   1   2
DOCKED: ATOM      2  N   UNL     1     139.945  71.958 221.062 -0.06 +0.06    -0.342 N  
DOCKED: ATOM      3  C   UNL     1     139.945  72.467 222.418 -0.20 -0.04    +0.270 C  
DOCKED: ATOM      4  O   UNL     1     139.942  73.729 222.567 -0.78 +0.01    -0.268 OA 
DOCKED: ATOM      5  H   UNL     1     139.928  70.931 221.003 +0.04 -0.03    +0.164 HD 
DOCKED: BRANCH   3   6
DOCKED: ATOM      6  C   UNL     1     139.947  71.543 223.543 -0.33 -0.02    +0.128 A  
DOCKED: ATOM      7  C   UNL     1     139.388  70.301 223.341 -0.26 -0.01    +0.035 A  
DOCKED: ATOM      8  N   UNL     1     140.475  71.886 224.733 -0.27 +0.04    -0.243 NA 
DOCKED: ATOM      9  C   UNL     1     139.388  69.421 224.405 -0.33 -0.00    +0.013 A  
DOCKED: ATOM     10  C   UNL     1     140.490  71.049 225.789 -0.53 -0.01    +0.071 A  
DOCKED: ATOM     11  C   UNL     1     139.938  69.798 225.621 -0.46 -0.00    +0.003 A  
DOCKED: ATOM     12  C   UNL     1     141.050  71.478 226.975 -0.72 -0.01    +0.032 A  
DOCKED: ATOM     13  C   UNL     1     139.957  68.944 226.711 -0.53 -0.01    +0.049 A  
DOCKED: ATOM     14  C   UNL     1     141.063  70.630 228.040 -0.61 -0.01    +0.041 A  
DOCKED: ATOM     15  C   UNL     1     140.518  69.369 227.904 -0.52 -0.02    +0.123 A  
DOCKED: ATOM     16  F   UNL     1     140.561  68.568 229.007 -0.16 +0.04    -0.207 F  
DOCKED: ENDBRANCH   3   6
DOCKED: ENDBRANCH   1   2
DOCKED: BRANCH   1  17
DOCKED: ATOM     17  C   UNL     1     141.196  73.343 219.410 -0.04 -0.05    +0.242 C  
DOCKED: ATOM     18  O   UNL     1     140.994  73.939 218.251 -0.01 +0.07    -0.273 OA 
DOCKED: BRANCH  17  19
DOCKED: ATOM     19  N   UNL     1     142.529  73.233 219.779 -0.05 +0.07    -0.334 N  
DOCKED: ATOM     20  C   UNL     1     143.456  72.184 219.399 -0.15 -0.01    +0.120 C  
DOCKED: ATOM     21  C   UNL     1     143.098  74.298 220.612 -0.24 -0.04    +0.115 C  
DOCKED: ATOM     22  C   UNL     1     144.542  72.009 220.459 -0.29 -0.00    +0.022 C  
DOCKED: ATOM     23  C   UNL     1     144.548  74.472 220.119 -0.42 -0.01    +0.030 C  
DOCKED: ATOM     24  C   UNL     1     145.303  73.289 220.687 -0.60 -0.00    +0.004 C  
DOCKED: BRANCH  21  25
DOCKED: ATOM     25  C   UNL     1     142.390  75.595 220.463 -0.25 +0.01    -0.025 A  
DOCKED: ATOM     26  C   UNL     1     142.790  76.445 219.421 -0.36 -0.00    +0.006 A  
DOCKED: ATOM     27  C   UNL     1     141.372  75.939 221.328 -0.30 -0.00    +0.006 A  
DOCKED: ATOM     28  C   UNL     1     142.114  77.660 219.294 -0.30 -0.00    +0.000 A  
DOCKED: ATOM     29  C   UNL     1     140.704  77.154 221.195 -0.29 -0.00    +0.000 A  
DOCKED: ATOM     30  C   UNL     1     141.102  77.987 220.168 -0.24 -0.00    +0.000 A  
DOCKED: ENDBRANCH  21  25
DOCKED: ENDBRANCH  17  19
DOCKED: ENDBRANCH   1  17
DOCKED: TORSDOF 5
DOCKED: TER
DOCKED: ENDMDL
________________________________________________________________________________


    FINAL DOCKED STATE:
    ________________________


Run:   2 / 20
Time taken for this run:   0.024s

DOCKED: MODEL        2
DOCKED: USER    Run = 2
DOCKED: USER
DOCKED: USER    Estimated Free Energy of Binding    =  -8.19 kcal/mol  [=(1)+(2)+(3)-(4)]
DOCKED: USER
DOCKED: USER    (1) Final Intermolecular Energy     =  -9.68 kcal/mol
DOCKED: USER        vdW + Hbond + desolv Energy     =  -9.65 kcal/mol
DOCKED: USER        Electrostatic Energy            =  -0.03 kcal/mol
DOCKED: USER        Moving Ligand-Fixed Receptor    =  -9.68 kcal/mol
DOCKED: USER        Moving Ligand-Moving Receptor   =  +0.00 kcal/mol
DOCKED: USER    (2) Final Total Internal Energy     =  -1.85 kcal/mol
DOCKED: USER    (3) Torsional Free Energy           =  +1.49 kcal/mol
DOCKED: USER    (4) Unbound System's Energy         =  -1.85 kcal/mol
DOCKED: USER
DOCKED: USER
DOCKED: REMARK SMILES O=C(NCC(=O)N1CCCC[C@H]1c1ccccc1)c1ccc2cc(F)ccc2n1
DOCKED: REMARK SMILES IDX 4 1 3 2 2 3 1 4 19 6 20 7 29 8 21 9 28 10 22 11 27 12 23 13
DOCKED: REMARK SMILES IDX 26 14 24 15 25 16 5 17 6 18 7 19 8 20 12 21 9 22 11 23 10 24
DOCKED: REMARK SMILES IDX 13 25 14 26 18 27 15 28 17 29 16 30
DOCKED: REMARK H PARENT 3 5
DOCKED: USER                              x       y       z     vdW  Elec       q    Type
DOCKED: USER                           _______ _______ _______ _____ _____    ______ ____
DOCKED: ROOT
DOCKED: ATOM      1  C   UNL     1     140.056  74.168 221.135 -0.18 -0.04    +0.216 C  
DOCKED: ENDROOT
DOCKED: BRANCH   1   2
DOCKED: ATOM      2  N   UNL     1     139.883  73.429 222.334 -0.14 +0.04    -0.342 N  
DOCKED: ATOM      3  C   UNL     1     140.224  72.023 222.266 -0.20 -0.04    +0.270 C  
DOCKED: ATOM      4  O   UNL     1     140.645  71.578 221.151 -0.11 +0.04    -0.268 OA 
DOCKED: ATOM      5  H   UNL     1     139.567  73.736 223.264 -0.49 -0.03    +0.164 HD 
DOCKED: BRANCH   3   6
DOCKED: ATOM      6  C   UNL     1     140.080  71.181 223.444 -0.30 -0.02    +0.128 A  
DOCKED: ATOM      7  C   UNL     1     139.481  69.953 223.273 -0.23 -0.01    +0.035 A  
DOCKED: ATOM      8  N   UNL     1     140.516  71.583 224.653 -0.30 +0.04    -0.243 NA 
DOCKED: ATOM      9  C   UNL     1     139.342  69.150 224.388 -0.32 -0.00    +0.013 A  
DOCKED: ATOM     10  C   UNL     1     140.395  70.822 225.758 -0.52 -0.01    +0.071 A  
DOCKED: ATOM     11  C   UNL     1     139.799  69.588 225.623 -0.45 -0.00    +0.003 A  
DOCKED: ATOM     12  C   UNL     1     140.868  71.308 226.960 -0.69 -0.01    +0.032 A  
DOCKED: ATOM     13  C   UNL     1     139.678  68.812 226.764 -0.53 -0.01    +0.049 A  
DOCKED: ATOM     14  C   UNL     1     140.744  70.537 228.076 -0.61 -0.01    +0.041 A  
DOCKED: ATOM     15  C   UNL     1     140.150  69.294 227.972 -0.53 -0.02    +0.123 A  
DOCKED: ATOM     16  F   UNL     1     140.055  68.571 229.125 -0.13 +0.04    -0.207 F  
DOCKED: ENDBRANCH   3   6
DOCKED: ENDBRANCH   1   2
DOCKED: BRANCH   1  17
DOCKED: ATOM     17  C   UNL     1     140.925  75.337 221.115 -0.22 -0.07    +0.242 C  
DOCKED: ATOM     18  O   UNL     1     141.351  75.650 222.323 -0.31 +0.07    -0.273 OA 
DOCKED: BRANCH  17  19
DOCKED: ATOM     19  N   UNL     1     141.383  76.171 220.106 -0.08 +0.14    -0.334 N  
DOCKED: ATOM     20  C   UNL     1     141.013  77.555 219.881 -0.17 -0.05    +0.120 C  
DOCKED: ATOM     21  C   UNL     1     142.379  75.633 219.173 -0.21 -0.05    +0.115 C  
DOCKED: ATOM     22  C   UNL     1     141.148  77.922 218.404 -0.15 -0.01    +0.022 C  
DOCKED: ATOM     23  C   UNL     1     143.324  76.808 218.859 -0.32 -0.02    +0.030 C  
DOCKED: ATOM     24  C   UNL     1     142.551  77.693 217.904 -0.30 -0.00    +0.004 C  
DOCKED: BRANCH  21  25
DOCKED: ATOM     25  C   UNL     1     143.180  74.524 219.752 -0.31 +0.01    -0.025 A  
DOCKED: ATOM     26  C   UNL     1     142.711  73.214 219.573 -0.18 -0.00    +0.006 A  
DOCKED: ATOM     27  C   UNL     1     144.345  74.788 220.441 -0.41 -0.00    +0.006 A  
DOCKED: ATOM     28  C   UNL     1     143.475  72.182 220.124 -0.27 -0.00    +0.000 A  
DOCKED: ATOM     29  C   UNL     1     145.101  73.753 220.987 -0.56 -0.00    +0.000 A  
DOCKED: ATOM     30  C   UNL     1     144.635  72.466 220.809 -0.41 -0.00    +0.000 A  
DOCKED: ENDBRANCH  21  25
DOCKED: ENDBRANCH  17  19
DOCKED: ENDBRANCH   1  17
DOCKED: TORSDOF 5
DOCKED: TER
DOCKED: ENDMDL
________________________________________________________________________________


    FINAL DOCKED STATE:
    ________________________


Run:   3 / 20
Time taken for this run:   0.024s

DOCKED: MODEL        3
DOCKED: USER    Run = 3
DOCKED: USER
DOCKED: USER    Estimated Free Energy of Binding    =  -7.52 kcal/mol  [=(1)+(2)+(3)-(4)]
DOCKED: USER
DOCKED: USER    (1) Final Intermolecular Energy     =  -9.01 kcal/mol
DOCKED: USER        vdW + Hbond + desolv Energy     =  -9.00 kcal/mol
DOCKED: USER        Electrostatic Energy            =  -0.01 kcal/mol
DOCKED: USER        Moving Ligand-Fixed Receptor    =  -9.01 kcal/mol
DOCKED: USER        Moving Ligand-Moving Receptor   =  +0.00 kcal/mol
DOCKED: USER    (2) Final Total Internal Energy     =  -1.91 kcal/mol
DOCKED: USER    (3) Torsional Free Energy           =  +1.49 kcal/mol
DOCKED: USER    (4) Unbound System's Energy         =  -1.91 kcal/mol
DOCKED: USER
DOCKED: USER
DOCKED: REMARK SMILES O=C(NCC(=O)N1CCCC[C@H]1c1ccccc1)c1ccc2cc(F)ccc2n1
DOCKED: REMARK SMILES IDX 4 1 3 2 2 3 1 4 19 6 20 7 29 8 21 9 28 10 22 11 27 12 23 13
DOCKED: REMARK SMILES IDX 26 14 24 15 25 16 5 17 6 18 7 19 8 20 12 21 9 22 11 23 10 24
DOCKED: REMARK SMILES IDX 13 25 14 26 18 27 15 28 17 29 16 30
DOCKED: REMARK H PARENT 3 5
DOCKED: USER                              x       y       z     vdW  Elec       q    Type
DOCKED: USER                           _______ _______ _______ _____ _____    ______ ____
DOCKED: ROOT
DOCKED: ATOM      1  C   UNL     1     139.212  73.955 221.106 -0.14 -0.04    +0.216 C  
DOCKED: ENDROOT
DOCKED: BRANCH   1   2
DOCKED: ATOM      2  N   UNL     1     139.391  73.256 222.329 -0.12 +0.07    -0.342 N  
DOCKED: ATOM      3  C   UNL     1     139.420  71.811 222.234 -0.17 -0.05    +0.270 C  
DOCKED: ATOM      4  O   UNL     1     139.285  71.301 221.077 -0.06 +0.05    -0.268 OA 
DOCKED: ATOM      5  H   UNL     1     139.523  73.614 223.285 -0.47 -0.05    +0.164 HD 
DOCKED: BRANCH   3   6
DOCKED: ATOM      6  C   UNL     1     139.598  71.006 223.433 -0.28 -0.02    +0.128 A  
DOCKED: ATOM      7  C   UNL     1     139.210  69.686 223.371 -0.24 -0.01    +0.035 A  
DOCKED: ATOM      8  N   UNL     1     140.122  71.528 224.558 -0.29 +0.05    -0.243 NA 
DOCKED: ATOM      9  C   UNL     1     139.377  68.919 224.506 -0.33 -0.00    +0.013 A  
DOCKED: ATOM     10  C   UNL     1     140.297  70.804 225.681 -0.51 -0.01    +0.071 A  
DOCKED: ATOM     11  C   UNL     1     139.918  69.480 225.653 -0.46 -0.00    +0.003 A  
DOCKED: ATOM     12  C   UNL     1     140.840  71.415 226.793 -0.69 -0.01    +0.032 A  
DOCKED: ATOM     13  C   UNL     1     140.101  68.742 226.811 -0.57 -0.01    +0.049 A  
DOCKED: ATOM     14  C   UNL     1     141.016  70.681 227.926 -0.63 -0.01    +0.041 A  
DOCKED: ATOM     15  C   UNL     1     140.647  69.350 227.930 -0.52 -0.02    +0.123 A  
DOCKED: ATOM     16  F   UNL     1     140.847  68.670 229.095 -0.13 +0.05    -0.207 F  
DOCKED: ENDBRANCH   3   6
DOCKED: ENDBRANCH   1   2
DOCKED: BRANCH   1  17
DOCKED: ATOM     17  C   UNL     1     140.272  73.963 220.106 -0.07 -0.05    +0.242 C  
DOCKED: ATOM     18  O   UNL     1     139.802  74.201 218.897 -0.01 +0.06    -0.273 OA 
DOCKED: BRANCH  17  19
DOCKED: ATOM     19  N   UNL     1     141.644  73.772 220.165 -0.07 +0.07    -0.334 N  
DOCKED: ATOM     20  C   UNL     1     142.398  72.672 219.596 -0.12 -0.02    +0.120 C  
DOCKED: ATOM     21  C   UNL     1     142.449  74.798 220.837 -0.18 -0.04    +0.115 C  
DOCKED: ATOM     22  C   UNL     1     143.684  72.429 220.385 -0.32 -0.00    +0.022 C  
DOCKED: ATOM     23  C   UNL     1     143.757  74.888 220.028 -0.40 -0.01    +0.030 C  
DOCKED: ATOM     24  C   UNL     1     144.551  73.661 220.422 -0.50 -0.00    +0.004 C  
DOCKED: BRANCH  21  25
DOCKED: ATOM     25  C   UNL     1     141.802  76.135 220.840 -0.23 +0.01    -0.025 A  
DOCKED: ATOM     26  C   UNL     1     141.993  76.958 219.719 -0.29 -0.00    +0.006 A  
DOCKED: ATOM     27  C   UNL     1     141.040  76.543 221.915 -0.37 -0.00    +0.006 A  
DOCKED: ATOM     28  C   UNL     1     141.379  78.212 219.736 -0.25 -0.00    +0.000 A  
DOCKED: ATOM     29  C   UNL     1     140.431  77.795 221.924 -0.35 -0.00    +0.000 A  
DOCKED: ATOM     30  C   UNL     1     140.623  78.601 220.819 -0.24 -0.00    +0.000 A  
DOCKED: ENDBRANCH  21  25
DOCKED: ENDBRANCH  17  19
DOCKED: ENDBRANCH   1  17
DOCKED: TORSDOF 5
DOCKED: TER
DOCKED: ENDMDL
________________________________________________________________________________


    FINAL DOCKED STATE:
    ________________________


Run:   4 / 20
Time taken for this run:   0.024s

DOCKED: MODEL        4
DOCKED: USER    Run = 4
DOCKED: USER
DOCKED: USER    Estimated Free Energy of Binding    =  -8.21 kcal/mol  [=(1)+(2)+(3)-(4)]
DOCKED: USER
DOCKED: USER    (1) Final Intermolecular Energy     =  -9.70 kcal/mol
DOCKED: USER        vdW + Hbond + desolv Energy     =  -9.67 kcal/mol
DOCKED: USER        Electrostatic Energy            =  -0.04 kcal/mol
DOCKED: USER        Moving Ligand-Fixed Receptor    =  -9.70 kcal/mol
DOCKED: USER        Moving Ligand-Moving Receptor   =  +0.00 kcal/mol
DOCKED: USER    (2) Final Total Internal Energy     =  -1.82 kcal/mol
DOCKED: USER    (3) Torsional Free Energy           =  +1.49 kcal/mol
DOCKED: USER    (4) Unbound System's Energy         =  -1.82 kcal/mol
DOCKED: USER
DOCKED: USER
DOCKED: REMARK SMILES O=C(NCC(=O)N1CCCC[C@H]1c1ccccc1)c1ccc2cc(F)ccc2n1
DOCKED: REMARK SMILES IDX 4 1 3 2 2 3 1 4 19 6 20 7 29 8 21 9 28 10 22 11 27 12 23 13
DOCKED: REMARK SMILES IDX 26 14 24 15 25 16 5 17 6 18 7 19 8 20 12 21 9 22 11 23 10 24
DOCKED: REMARK SMILES IDX 13 25 14 26 18 27 15 28 17 29 16 30
DOCKED: REMARK H PARENT 3 5
DOCKED: USER                              x       y       z     vdW  Elec       q    Type
DOCKED: USER                           _______ _______ _______ _____ _____    ______ ____
DOCKED: ROOT
DOCKED: ATOM      1  C   UNL     1     140.099  74.139 221.131 -0.18 -0.04    +0.216 C  
DOCKED: ENDROOT
DOCKED: BRANCH   1   2
DOCKED: ATOM      2  N   UNL     1     139.910  73.408 222.333 -0.14 +0.04    -0.342 N  
DOCKED: ATOM      3  C   UNL     1     140.261  72.004 222.280 -0.20 -0.04    +0.270 C  
DOCKED: ATOM      4  O   UNL     1     140.702  71.554 221.176 -0.12 +0.04    -0.268 OA 
DOCKED: ATOM      5  H   UNL     1     139.577  73.720 223.255 -0.49 -0.03    +0.164 HD 
DOCKED: BRANCH   3   6
DOCKED: ATOM      6  C   UNL     1     140.101  71.169 223.462 -0.30 -0.02    +0.128 A  
DOCKED: ATOM      7  C   UNL     1     139.489  69.947 223.294 -0.23 -0.01    +0.035 A  
DOCKED: ATOM      8  N   UNL     1     140.536  71.573 224.671 -0.30 +0.04    -0.243 NA 
DOCKED: ATOM      9  C   UNL     1     139.335  69.152 224.412 -0.33 -0.00    +0.013 A  
DOCKED: ATOM     10  C   UNL     1     140.400  70.819 225.779 -0.52 -0.01    +0.071 A  
DOCKED: ATOM     11  C   UNL     1     139.791  69.590 225.647 -0.45 -0.00    +0.003 A  
DOCKED: ATOM     12  C   UNL     1     140.873  71.305 226.981 -0.69 -0.01    +0.032 A  
DOCKED: ATOM     13  C   UNL     1     139.655  68.821 226.791 -0.53 -0.01    +0.049 A  
DOCKED: ATOM     14  C   UNL     1     140.734  70.541 228.100 -0.60 -0.01    +0.041 A  
DOCKED: ATOM     15  C   UNL     1     140.128  69.305 228.000 -0.53 -0.02    +0.123 A  
DOCKED: ATOM     16  F   UNL     1     140.019  68.589 229.155 -0.12 +0.04    -0.207 F  
DOCKED: ENDBRANCH   3   6
DOCKED: ENDBRANCH   1   2
DOCKED: BRANCH   1  17
DOCKED: ATOM     17  C   UNL     1     140.937  75.332 221.124 -0.22 -0.07    +0.242 C  
DOCKED: ATOM     18  O   UNL     1     141.334  75.657 222.339 -0.31 +0.07    -0.273 OA 
DOCKED: BRANCH  17  19
DOCKED: ATOM     19  N   UNL     1     141.389  76.177 220.123 -0.09 +0.14    -0.334 N  
DOCKED: ATOM     20  C   UNL     1     141.013  77.562 219.912 -0.17 -0.05    +0.120 C  
DOCKED: ATOM     21  C   UNL     1     142.386  75.652 219.183 -0.22 -0.05    +0.115 C  
DOCKED: ATOM     22  C   UNL     1     141.143  77.943 218.438 -0.15 -0.01    +0.022 C  
DOCKED: ATOM     23  C   UNL     1     143.325  76.836 218.878 -0.31 -0.02    +0.030 C  
DOCKED: ATOM     24  C   UNL     1     142.546  77.725 217.933 -0.30 -0.00    +0.004 C  
DOCKED: BRANCH  21  25
DOCKED: ATOM     25  C   UNL     1     143.193  74.542 219.751 -0.31 +0.01    -0.025 A  
DOCKED: ATOM     26  C   UNL     1     142.728  73.232 219.565 -0.19 -0.00    +0.006 A  
DOCKED: ATOM     27  C   UNL     1     144.361  74.805 220.436 -0.41 -0.00    +0.006 A  
DOCKED: ATOM     28  C   UNL     1     143.497  72.199 220.104 -0.27 -0.00    +0.000 A  
DOCKED: ATOM     29  C   UNL     1     145.122  73.769 220.971 -0.57 -0.00    +0.000 A  
DOCKED: ATOM     30  C   UNL     1     144.660  72.481 220.786 -0.41 -0.00    +0.000 A  
DOCKED: ENDBRANCH  21  25
DOCKED: ENDBRANCH  17  19
DOCKED: ENDBRANCH   1  17
DOCKED: TORSDOF 5
DOCKED: TER
DOCKED: ENDMDL
________________________________________________________________________________


    FINAL DOCKED STATE:
    ________________________


Run:   5 / 20
Time taken for this run:   0.024s

DOCKED: MODEL        5
DOCKED: USER    Run = 5
DOCKED: USER
DOCKED: USER    Estimated Free Energy of Binding    =  -8.24 kcal/mol  [=(1)+(2)+(3)-(4)]
DOCKED: USER
DOCKED: USER    (1) Final Intermolecular Energy     =  -9.73 kcal/mol
DOCKED: USER        vdW + Hbond + desolv Energy     =  -9.66 kcal/mol
DOCKED: USER        Electrostatic Energy            =  -0.07 kcal/mol
DOCKED: USER        Moving Ligand-Fixed Receptor    =  -9.73 kcal/mol
DOCKED: USER        Moving Ligand-Moving Receptor   =  +0.00 kcal/mol
DOCKED: USER    (2) Final Total Internal Energy     =  -1.75 kcal/mol
DOCKED: USER    (3) Torsional Free Energy           =  +1.49 kcal/mol
DOCKED: USER    (4) Unbound System's Energy         =  -1.75 kcal/mol
DOCKED: USER
DOCKED: USER
DOCKED: REMARK SMILES O=C(NCC(=O)N1CCCC[C@H]1c1ccccc1)c1ccc2cc(F)ccc2n1
DOCKED: REMARK SMILES IDX 4 1 3 2 2 3 1 4 19 6 20 7 29 8 21 9 28 10 22 11 27 12 23 13
DOCKED: REMARK SMILES IDX 26 14 24 15 25 16 5 17 6 18 7 19 8 20 12 21 9 22 11 23 10 24
DOCKED: REMARK SMILES IDX 13 25 14 26 18 27 15 28 17 29 16 30
DOCKED: REMARK H PARENT 3 5
DOCKED: USER                              x       y       z     vdW  Elec       q    Type
DOCKED: USER                           _______ _______ _______ _____ _____    ______ ____
DOCKED: ROOT
DOCKED: ATOM      1  C   UNL     1     139.934  74.239 220.875 -0.15 -0.04    +0.216 C  
DOCKED: ENDROOT
DOCKED: BRANCH   1   2
DOCKED: ATOM      2  N   UNL     1     139.630  73.497 222.047 -0.15 +0.06    -0.342 N  
DOCKED: ATOM      3  C   UNL     1     140.459  72.335 222.293 -0.20 -0.03    +0.270 C  
DOCKED: ATOM      4  O   UNL     1     141.376  72.084 221.449 -0.17 +0.03    -0.268 OA 
DOCKED: ATOM      5  H   UNL     1     138.918  73.662 222.771 -0.52 -0.07    +0.164 HD 
DOCKED: BRANCH   3   6
DOCKED: ATOM      6  C   UNL     1     140.224  71.509 223.467 -0.32 -0.02    +0.128 A  
DOCKED: ATOM      7  C   UNL     1     139.507  70.347 223.290 -0.26 -0.01    +0.035 A  
DOCKED: ATOM      8  N   UNL     1     140.691  71.864 224.680 -0.27 +0.03    -0.243 NA 
DOCKED: ATOM      9  C   UNL     1     139.282  69.561 224.403 -0.34 -0.00    +0.013 A  
DOCKED: ATOM     10  C   UNL     1     140.487  71.117 225.783 -0.54 -0.01    +0.071 A  
DOCKED: ATOM     11  C   UNL     1     139.772  69.948 225.641 -0.46 -0.00    +0.003 A  
DOCKED: ATOM     12  C   UNL     1     140.999  71.551 226.989 -0.73 -0.01    +0.032 A  
DOCKED: ATOM     13  C   UNL     1     139.567  69.186 226.779 -0.50 -0.01    +0.049 A  
DOCKED: ATOM     14  C   UNL     1     140.792  70.794 228.102 -0.63 -0.01    +0.041 A  
DOCKED: ATOM     15  C   UNL     1     140.078  69.617 227.992 -0.52 -0.02    +0.123 A  
DOCKED: ATOM     16  F   UNL     1     139.904  68.905 229.142 -0.11 +0.03    -0.207 F  
DOCKED: ENDBRANCH   3   6
DOCKED: ENDBRANCH   1   2
DOCKED: BRANCH   1  17
DOCKED: ATOM     17  C   UNL     1     140.905  75.325 220.929 -0.20 -0.07    +0.242 C  
DOCKED: ATOM     18  O   UNL     1     141.436  75.447 222.130 -0.31 +0.07    -0.273 OA 
DOCKED: BRANCH  17  19
DOCKED: ATOM     19  N   UNL     1     141.371  76.238 219.995 -0.08 +0.14    -0.334 N  
DOCKED: ATOM     20  C   UNL     1     140.993  77.632 219.872 -0.17 -0.05    +0.120 C  
DOCKED: ATOM     21  C   UNL     1     142.385  75.780 219.039 -0.21 -0.05    +0.115 C  
DOCKED: ATOM     22  C   UNL     1     141.147  78.113 218.430 -0.15 -0.01    +0.022 C  
DOCKED: ATOM     23  C   UNL     1     143.325  76.984 218.831 -0.26 -0.02    +0.030 C  
DOCKED: ATOM     24  C   UNL     1     142.559  77.934 217.936 -0.31 -0.00    +0.004 C  
DOCKED: BRANCH  21  25
DOCKED: ATOM     25  C   UNL     1     143.186  74.636 219.543 -0.30 +0.01    -0.025 A  
DOCKED: ATOM     26  C   UNL     1     142.815  73.345 219.137 -0.15 -0.00    +0.006 A  
DOCKED: ATOM     27  C   UNL     1     144.259  74.849 220.383 -0.40 -0.00    +0.006 A  
DOCKED: ATOM     28  C   UNL     1     143.578  72.280 219.619 -0.23 -0.00    +0.000 A  
DOCKED: ATOM     29  C   UNL     1     145.015  73.781 220.860 -0.58 -0.00    +0.000 A  
DOCKED: ATOM     30  C   UNL     1     144.645  72.513 220.458 -0.43 -0.00    +0.000 A  
DOCKED: ENDBRANCH  21  25
DOCKED: ENDBRANCH  17  19
DOCKED: ENDBRANCH   1  17
DOCKED: TORSDOF 5
DOCKED: TER
DOCKED: ENDMDL
________________________________________________________________________________


    FINAL DOCKED STATE:
    ________________________


Run:   6 / 20
Time taken for this run:   0.024s

DOCKED: MODEL        6
DOCKED: USER    Run = 6
DOCKED: USER
DOCKED: USER    Estimated Free Energy of Binding    =  -8.16 kcal/mol  [=(1)+(2)+(3)-(4)]
DOCKED: USER
DOCKED: USER    (1) Final Intermolecular Energy     =  -9.65 kcal/mol
DOCKED: USER        vdW + Hbond + desolv Energy     =  -9.62 kcal/mol
DOCKED: USER        Electrostatic Energy            =  -0.03 kcal/mol
DOCKED: USER        Moving Ligand-Fixed Receptor    =  -9.65 kcal/mol
DOCKED: USER        Moving Ligand-Moving Receptor   =  +0.00 kcal/mol
DOCKED: USER    (2) Final Total Internal Energy     =  -1.87 kcal/mol
DOCKED: USER    (3) Torsional Free Energy           =  +1.49 kcal/mol
DOCKED: USER    (4) Unbound System's Energy         =  -1.87 kcal/mol
DOCKED: USER
DOCKED: USER
DOCKED: REMARK SMILES O=C(NCC(=O)N1CCCC[C@H]1c1ccccc1)c1ccc2cc(F)ccc2n1
DOCKED: REMARK SMILES IDX 4 1 3 2 2 3 1 4 19 6 20 7 29 8 21 9 28 10 22 11 27 12 23 13
DOCKED: REMARK SMILES IDX 26 14 24 15 25 16 5 17 6 18 7 19 8 20 12 21 9 22 11 23 10 24
DOCKED: REMARK SMILES IDX 13 25 14 26 18 27 15 28 17 29 16 30
DOCKED: REMARK H PARENT 3 5
DOCKED: USER                              x       y       z     vdW  Elec       q    Type
DOCKED: USER                           _______ _______ _______ _____ _____    ______ ____
DOCKED: ROOT
DOCKED: ATOM      1  C   UNL     1     139.976  74.258 221.143 -0.18 -0.04    +0.216 C  
DOCKED: ENDROOT
DOCKED: BRANCH   1   2
DOCKED: ATOM      2  N   UNL     1     139.837  73.515 222.345 -0.13 +0.04    -0.342 N  
DOCKED: ATOM      3  C   UNL     1     140.166  72.107 222.260 -0.20 -0.04    +0.270 C  
DOCKED: ATOM      4  O   UNL     1     140.547  71.665 221.130 -0.11 +0.04    -0.268 OA 
DOCKED: ATOM      5  H   UNL     1     139.553  73.821 223.286 -0.49 -0.03    +0.164 HD 
DOCKED: BRANCH   3   6
DOCKED: ATOM      6  C   UNL     1     140.053  71.261 223.438 -0.31 -0.02    +0.128 A  
DOCKED: ATOM      7  C   UNL     1     139.519  70.004 223.265 -0.24 -0.01    +0.035 A  
DOCKED: ATOM      8  N   UNL     1     140.456  71.688 224.650 -0.29 +0.04    -0.243 NA 
DOCKED: ATOM      9  C   UNL     1     139.411  69.198 224.380 -0.32 -0.00    +0.013 A  
DOCKED: ATOM     10  C   UNL     1     140.363  70.924 225.756 -0.52 -0.01    +0.071 A  
DOCKED: ATOM     11  C   UNL     1     139.832  69.660 225.618 -0.45 -0.00    +0.003 A  
DOCKED: ATOM     12  C   UNL     1     140.799  71.436 226.962 -0.70 -0.01    +0.032 A  
DOCKED: ATOM     13  C   UNL     1     139.740  68.881 226.760 -0.53 -0.01    +0.049 A  
DOCKED: ATOM     14  C   UNL     1     140.703  70.661 228.078 -0.62 -0.01    +0.041 A  
DOCKED: ATOM     15  C   UNL     1     140.175  69.389 227.972 -0.53 -0.02    +0.123 A  
DOCKED: ATOM     16  F   UNL     1     140.106  68.665 229.125 -0.13 +0.04    -0.207 F  
DOCKED: ENDBRANCH   3   6
DOCKED: ENDBRANCH   1   2
DOCKED: BRANCH   1  17
DOCKED: ATOM     17  C   UNL     1     140.908  75.376 221.079 -0.21 -0.07    +0.242 C  
DOCKED: ATOM     18  O   UNL     1     141.408  75.666 222.265 -0.30 +0.08    -0.273 OA 
DOCKED: BRANCH  17  19
DOCKED: ATOM     19  N   UNL     1     141.366  76.182 220.047 -0.08 +0.14    -0.334 N  
DOCKED: ATOM     20  C   UNL     1     141.013  77.566 219.797 -0.17 -0.05    +0.120 C  
DOCKED: ATOM     21  C   UNL     1     142.342  75.609 219.114 -0.20 -0.05    +0.115 C  
DOCKED: ATOM     22  C   UNL     1     141.134  77.899 218.311 -0.14 -0.01    +0.022 C  
DOCKED: ATOM     23  C   UNL     1     143.300  76.765 218.763 -0.32 -0.02    +0.030 C  
DOCKED: ATOM     24  C   UNL     1     142.527  77.640 217.799 -0.29 -0.00    +0.004 C  
DOCKED: BRANCH  21  25
DOCKED: ATOM     25  C   UNL     1     143.135  74.502 219.707 -0.30 +0.01    -0.025 A  
DOCKED: ATOM     26  C   UNL     1     144.346  74.827 220.336 -0.41 -0.00    +0.006 A  
DOCKED: ATOM     27  C   UNL     1     142.683  73.201 219.636 -0.19 -0.00    +0.006 A  
DOCKED: ATOM     28  C   UNL     1     145.080  73.776 220.890 -0.58 -0.00    +0.000 A  
DOCKED: ATOM     29  C   UNL     1     143.421  72.158 220.191 -0.28 -0.00    +0.000 A  
DOCKED: ATOM     30  C   UNL     1     144.612  72.484 220.808 -0.41 -0.00    +0.000 A  
DOCKED: ENDBRANCH  21  25
DOCKED: ENDBRANCH  17  19
DOCKED: ENDBRANCH   1  17
DOCKED: TORSDOF 5
DOCKED: TER
DOCKED: ENDMDL
________________________________________________________________________________


    FINAL DOCKED STATE:
    ________________________


Run:   7 / 20
Time taken for this run:   0.024s

DOCKED: MODEL        7
DOCKED: USER    Run = 7
DOCKED: USER
DOCKED: USER    Estimated Free Energy of Binding    =  -8.23 kcal/mol  [=(1)+(2)+(3)-(4)]
DOCKED: USER
DOCKED: USER    (1) Final Intermolecular Energy     =  -9.72 kcal/mol
DOCKED: USER        vdW + Hbond + desolv Energy     =  -9.66 kcal/mol
DOCKED: USER        Electrostatic Energy            =  -0.07 kcal/mol
DOCKED: USER        Moving Ligand-Fixed Receptor    =  -9.72 kcal/mol
DOCKED: USER        Moving Ligand-Moving Receptor   =  +0.00 kcal/mol
DOCKED: USER    (2) Final Total Internal Energy     =  -1.76 kcal/mol
DOCKED: USER    (3) Torsional Free Energy           =  +1.49 kcal/mol
DOCKED: USER    (4) Unbound System's Energy         =  -1.76 kcal/mol
DOCKED: USER
DOCKED: USER
DOCKED: REMARK SMILES O=C(NCC(=O)N1CCCC[C@H]1c1ccccc1)c1ccc2cc(F)ccc2n1
DOCKED: REMARK SMILES IDX 4 1 3 2 2 3 1 4 19 6 20 7 29 8 21 9 28 10 22 11 27 12 23 13
DOCKED: REMARK SMILES IDX 26 14 24 15 25 16 5 17 6 18 7 19 8 20 12 21 9 22 11 23 10 24
DOCKED: REMARK SMILES IDX 13 25 14 26 18 27 15 28 17 29 16 30
DOCKED: REMARK H PARENT 3 5
DOCKED: USER                              x       y       z     vdW  Elec       q    Type
DOCKED: USER                           _______ _______ _______ _____ _____    ______ ____
DOCKED: ROOT
DOCKED: ATOM      1  C   UNL     1     139.812  74.246 220.839 -0.14 -0.04    +0.216 C  
DOCKED: ENDROOT
DOCKED: BRANCH   1   2
DOCKED: ATOM      2  N   UNL     1     139.529  73.496 222.010 -0.15 +0.06    -0.342 N  
DOCKED: ATOM      3  C   UNL     1     140.393  72.360 222.259 -0.21 -0.03    +0.270 C  
DOCKED: ATOM      4  O   UNL     1     141.320  72.138 221.417 -0.17 +0.03    -0.268 OA 
DOCKED: ATOM      5  H   UNL     1     138.810  73.639 222.732 -0.53 -0.07    +0.164 HD 
DOCKED: BRANCH   3   6
DOCKED: ATOM      6  C   UNL     1     140.182  71.528 223.434 -0.32 -0.02    +0.128 A  
DOCKED: ATOM      7  C   UNL     1     139.441  70.379 223.269 -0.26 -0.01    +0.035 A  
DOCKED: ATOM      8  N   UNL     1     140.691  71.866 224.634 -0.26 +0.03    -0.243 NA 
DOCKED: ATOM      9  C   UNL     1     139.238  69.587 224.382 -0.34 -0.00    +0.013 A  
DOCKED: ATOM     10  C   UNL     1     140.509  71.112 225.737 -0.53 -0.01    +0.071 A  
DOCKED: ATOM     11  C   UNL     1     139.772  69.956 225.607 -0.46 -0.00    +0.003 A  
DOCKED: ATOM     12  C   UNL     1     141.064  71.529 226.930 -0.72 -0.01    +0.032 A  
DOCKED: ATOM     13  C   UNL     1     139.590  69.187 226.745 -0.50 -0.01    +0.049 A  
DOCKED: ATOM     14  C   UNL     1     140.879  70.765 228.043 -0.64 -0.01    +0.041 A  
DOCKED: ATOM     15  C   UNL     1     140.145  69.600 227.945 -0.52 -0.02    +0.123 A  
DOCKED: ATOM     16  F   UNL     1     139.995  68.881 229.094 -0.14 +0.03    -0.207 F  
DOCKED: ENDBRANCH   3   6
DOCKED: ENDBRANCH   1   2
DOCKED: BRANCH   1  17
DOCKED: ATOM     17  C   UNL     1     140.879  75.239 220.847 -0.19 -0.07    +0.242 C  
DOCKED: ATOM     18  O   UNL     1     141.512  75.267 222.003 -0.34 +0.07    -0.273 OA 
DOCKED: BRANCH  17  19
DOCKED: ATOM     19  N   UNL     1     141.352  76.142 219.907 -0.07 +0.13    -0.334 N  
DOCKED: ATOM     20  C   UNL     1     140.966  77.532 219.760 -0.16 -0.05    +0.120 C  
DOCKED: ATOM     21  C   UNL     1     142.382  75.679 218.971 -0.20 -0.05    +0.115 C  
DOCKED: ATOM     22  C   UNL     1     141.136  77.995 218.314 -0.14 -0.01    +0.022 C  
DOCKED: ATOM     23  C   UNL     1     143.317  76.886 218.760 -0.29 -0.02    +0.030 C  
DOCKED: ATOM     24  C   UNL     1     142.556  77.819 217.841 -0.30 -0.00    +0.004 C  
DOCKED: BRANCH  21  25
DOCKED: ATOM     25  C   UNL     1     143.185  74.548 219.503 -0.29 +0.01    -0.025 A  
DOCKED: ATOM     26  C   UNL     1     142.838  73.250 219.096 -0.15 -0.00    +0.006 A  
DOCKED: ATOM     27  C   UNL     1     144.234  74.779 220.367 -0.41 -0.00    +0.006 A  
DOCKED: ATOM     28  C   UNL     1     143.602  72.197 219.603 -0.23 -0.00    +0.000 A  
DOCKED: ATOM     29  C   UNL     1     144.990  73.723 220.870 -0.57 -0.00    +0.000 A  
DOCKED: ATOM     30  C   UNL     1     144.645  72.448 220.466 -0.42 -0.00    +0.000 A  
DOCKED: ENDBRANCH  21  25
DOCKED: ENDBRANCH  17  19
DOCKED: ENDBRANCH   1  17
DOCKED: TORSDOF 5
DOCKED: TER
DOCKED: ENDMDL
________________________________________________________________________________


    FINAL DOCKED STATE:
    ________________________


Run:   8 / 20
Time taken for this run:   0.024s

DOCKED: MODEL        8
DOCKED: USER    Run = 8
DOCKED: USER
DOCKED: USER    Estimated Free Energy of Binding    =  -8.22 kcal/mol  [=(1)+(2)+(3)-(4)]
DOCKED: USER
DOCKED: USER    (1) Final Intermolecular Energy     =  -9.71 kcal/mol
DOCKED: USER        vdW + Hbond + desolv Energy     =  -9.65 kcal/mol
DOCKED: USER        Electrostatic Energy            =  -0.06 kcal/mol
DOCKED: USER        Moving Ligand-Fixed Receptor    =  -9.71 kcal/mol
DOCKED: USER        Moving Ligand-Moving Receptor   =  +0.00 kcal/mol
DOCKED: USER    (2) Final Total Internal Energy     =  -1.76 kcal/mol
DOCKED: USER    (3) Torsional Free Energy           =  +1.49 kcal/mol
DOCKED: USER    (4) Unbound System's Energy         =  -1.76 kcal/mol
DOCKED: USER
DOCKED: USER
DOCKED: REMARK SMILES O=C(NCC(=O)N1CCCC[C@H]1c1ccccc1)c1ccc2cc(F)ccc2n1
DOCKED: REMARK SMILES IDX 4 1 3 2 2 3 1 4 19 6 20 7 29 8 21 9 28 10 22 11 27 12 23 13
DOCKED: REMARK SMILES IDX 26 14 24 15 25 16 5 17 6 18 7 19 8 20 12 21 9 22 11 23 10 24
DOCKED: REMARK SMILES IDX 13 25 14 26 18 27 15 28 17 29 16 30
DOCKED: REMARK H PARENT 3 5
DOCKED: USER                              x       y       z     vdW  Elec       q    Type
DOCKED: USER                           _______ _______ _______ _____ _____    ______ ____
DOCKED: ROOT
DOCKED: ATOM      1  C   UNL     1     139.821  74.254 220.814 -0.14 -0.04    +0.216 C  
DOCKED: ENDROOT
DOCKED: BRANCH   1   2
DOCKED: ATOM      2  N   UNL     1     139.539  73.507 221.988 -0.15 +0.06    -0.342 N  
DOCKED: ATOM      3  C   UNL     1     140.393  72.362 222.230 -0.20 -0.03    +0.270 C  
DOCKED: ATOM      4  O   UNL     1     141.310  72.129 221.380 -0.17 +0.03    -0.268 OA 
DOCKED: ATOM      5  H   UNL     1     138.829  73.658 222.716 -0.53 -0.07    +0.164 HD 
DOCKED: BRANCH   3   6
DOCKED: ATOM      6  C   UNL     1     140.182  71.533 223.406 -0.32 -0.02    +0.128 A  
DOCKED: ATOM      7  C   UNL     1     139.470  70.367 223.238 -0.26 -0.01    +0.035 A  
DOCKED: ATOM      8  N   UNL     1     140.666  71.888 224.612 -0.26 +0.03    -0.243 NA 
DOCKED: ATOM      9  C   UNL     1     139.267  69.577 224.352 -0.33 -0.00    +0.013 A  
DOCKED: ATOM     10  C   UNL     1     140.485  71.138 225.716 -0.53 -0.01    +0.071 A  
DOCKED: ATOM     11  C   UNL     1     139.775  69.965 225.583 -0.46 -0.00    +0.003 A  
DOCKED: ATOM     12  C   UNL     1     141.012  71.573 226.915 -0.72 -0.01    +0.032 A  
DOCKED: ATOM     13  C   UNL     1     139.593  69.199 226.723 -0.50 -0.01    +0.049 A  
DOCKED: ATOM     14  C   UNL     1     140.828  70.813 228.030 -0.65 -0.01    +0.041 A  
DOCKED: ATOM     15  C   UNL     1     140.120  69.631 227.929 -0.52 -0.02    +0.123 A  
DOCKED: ATOM     16  F   UNL     1     139.970  68.916 229.080 -0.14 +0.03    -0.207 F  
DOCKED: ENDBRANCH   3   6
DOCKED: ENDBRANCH   1   2
DOCKED: BRANCH   1  17
DOCKED: ATOM     17  C   UNL     1     140.877  75.258 220.822 -0.19 -0.07    +0.242 C  
DOCKED: ATOM     18  O   UNL     1     141.494  75.310 221.987 -0.36 +0.07    -0.273 OA 
DOCKED: BRANCH  17  19
DOCKED: ATOM     19  N   UNL     1     141.353  76.154 219.876 -0.07 +0.13    -0.334 N  
DOCKED: ATOM     20  C   UNL     1     140.959  77.539 219.709 -0.15 -0.05    +0.120 C  
DOCKED: ATOM     21  C   UNL     1     142.395  75.686 218.956 -0.20 -0.05    +0.115 C  
DOCKED: ATOM     22  C   UNL     1     141.141  77.986 218.259 -0.14 -0.01    +0.022 C  
DOCKED: ATOM     23  C   UNL     1     143.324  76.897 218.739 -0.29 -0.02    +0.030 C  
DOCKED: ATOM     24  C   UNL     1     142.566  77.814 217.802 -0.30 -0.00    +0.004 C  
DOCKED: BRANCH  21  25
DOCKED: ATOM     25  C   UNL     1     143.200  74.567 219.508 -0.29 +0.01    -0.025 A  
DOCKED: ATOM     26  C   UNL     1     142.871  73.263 219.107 -0.15 -0.00    +0.006 A  
DOCKED: ATOM     27  C   UNL     1     144.234  74.814 220.387 -0.40 -0.00    +0.006 A  
DOCKED: ATOM     28  C   UNL     1     143.637  72.221 219.634 -0.23 -0.00    +0.000 A  
DOCKED: ATOM     29  C   UNL     1     144.992  73.769 220.909 -0.56 -0.00    +0.000 A  
DOCKED: ATOM     30  C   UNL     1     144.665  72.488 220.510 -0.43 -0.00    +0.000 A  
DOCKED: ENDBRANCH  21  25
DOCKED: ENDBRANCH  17  19
DOCKED: ENDBRANCH   1  17
DOCKED: TORSDOF 5
DOCKED: TER
DOCKED: ENDMDL
________________________________________________________________________________


    FINAL DOCKED STATE:
    ________________________


Run:   9 / 20
Time taken for this run:   0.024s

DOCKED: MODEL        9
DOCKED: USER    Run = 9
DOCKED: USER
DOCKED: USER    Estimated Free Energy of Binding    =  -8.23 kcal/mol  [=(1)+(2)+(3)-(4)]
DOCKED: USER
DOCKED: USER    (1) Final Intermolecular Energy     =  -9.72 kcal/mol
DOCKED: USER        vdW + Hbond + desolv Energy     =  -9.65 kcal/mol
DOCKED: USER        Electrostatic Energy            =  -0.07 kcal/mol
DOCKED: USER        Moving Ligand-Fixed Receptor    =  -9.72 kcal/mol
DOCKED: USER        Moving Ligand-Moving Receptor   =  +0.00 kcal/mol
DOCKED: USER    (2) Final Total Internal Energy     =  -1.68 kcal/mol
DOCKED: USER    (3) Torsional Free Energy           =  +1.49 kcal/mol
DOCKED: USER    (4) Unbound System's Energy         =  -1.68 kcal/mol
DOCKED: USER
DOCKED: USER
DOCKED: REMARK SMILES O=C(NCC(=O)N1CCCC[C@H]1c1ccccc1)c1ccc2cc(F)ccc2n1
DOCKED: REMARK SMILES IDX 4 1 3 2 2 3 1 4 19 6 20 7 29 8 21 9 28 10 22 11 27 12 23 13
DOCKED: REMARK SMILES IDX 26 14 24 15 25 16 5 17 6 18 7 19 8 20 12 21 9 22 11 23 10 24
DOCKED: REMARK SMILES IDX 13 25 14 26 18 27 15 28 17 29 16 30
DOCKED: REMARK H PARENT 3 5
DOCKED: USER                              x       y       z     vdW  Elec       q    Type
DOCKED: USER                           _______ _______ _______ _____ _____    ______ ____
DOCKED: ROOT
DOCKED: ATOM      1  C   UNL     1     139.729  74.359 221.011 -0.16 -0.04    +0.216 C  
DOCKED: ENDROOT
DOCKED: BRANCH   1   2
DOCKED: ATOM      2  N   UNL     1     139.518  73.604 222.194 -0.13 +0.06    -0.342 N  
DOCKED: ATOM      3  C   UNL     1     140.185  72.319 222.252 -0.21 -0.04    +0.270 C  
DOCKED: ATOM      4  O   UNL     1     140.893  71.984 221.251 -0.14 +0.03    -0.268 OA 
DOCKED: ATOM      5  H   UNL     1     138.975  73.830 223.038 -0.54 -0.09    +0.164 HD 
DOCKED: BRANCH   3   6
DOCKED: ATOM      6  C   UNL     1     140.028  71.471 223.424 -0.32 -0.02    +0.128 A  
DOCKED: ATOM      7  C   UNL     1     139.398  70.260 223.247 -0.25 -0.01    +0.035 A  
DOCKED: ATOM      8  N   UNL     1     140.483  71.852 224.633 -0.27 +0.04    -0.243 NA 
DOCKED: ATOM      9  C   UNL     1     139.247  69.451 224.357 -0.33 -0.00    +0.013 A  
DOCKED: ATOM     10  C   UNL     1     140.351  71.085 225.733 -0.52 -0.01    +0.071 A  
DOCKED: ATOM     11  C   UNL     1     139.723  69.867 225.591 -0.45 -0.00    +0.003 A  
DOCKED: ATOM     12  C   UNL     1     140.844  71.549 226.936 -0.71 -0.01    +0.032 A  
DOCKED: ATOM     13  C   UNL     1     139.592  69.084 226.726 -0.51 -0.01    +0.049 A  
DOCKED: ATOM     14  C   UNL     1     140.709  70.771 228.045 -0.65 -0.01    +0.041 A  
DOCKED: ATOM     15  C   UNL     1     140.085  69.544 227.936 -0.52 -0.02    +0.123 A  
DOCKED: ATOM     16  F   UNL     1     139.981  68.814 229.083 -0.14 +0.03    -0.207 F  
DOCKED: ENDBRANCH   3   6
DOCKED: ENDBRANCH   1   2
DOCKED: BRANCH   1  17
DOCKED: ATOM     17  C   UNL     1     140.897  75.223 220.893 -0.19 -0.07    +0.242 C  
DOCKED: ATOM     18  O   UNL     1     141.658  75.166 221.969 -0.23 +0.07    -0.273 OA 
DOCKED: BRANCH  17  19
DOCKED: ATOM     19  N   UNL     1     141.359  76.077 219.903 -0.07 +0.13    -0.334 N  
DOCKED: ATOM     20  C   UNL     1     140.938  77.444 219.661 -0.15 -0.05    +0.120 C  
DOCKED: ATOM     21  C   UNL     1     142.416  75.583 219.013 -0.20 -0.05    +0.115 C  
DOCKED: ATOM     22  C   UNL     1     141.118  77.816 218.191 -0.13 -0.01    +0.022 C  
DOCKED: ATOM     23  C   UNL     1     143.320  76.800 218.737 -0.31 -0.02    +0.030 C  
DOCKED: ATOM     24  C   UNL     1     142.549  77.650 217.749 -0.29 -0.00    +0.004 C  
DOCKED: BRANCH  21  25
DOCKED: ATOM     25  C   UNL     1     143.240  74.511 219.627 -0.30 +0.01    -0.025 A  
DOCKED: ATOM     26  C   UNL     1     144.411  74.890 220.302 -0.41 -0.00    +0.006 A  
DOCKED: ATOM     27  C   UNL     1     142.856  73.191 219.531 -0.19 -0.00    +0.006 A  
DOCKED: ATOM     28  C   UNL     1     145.175  73.871 220.874 -0.59 -0.00    +0.000 A  
DOCKED: ATOM     29  C   UNL     1     143.624  72.180 220.104 -0.28 -0.00    +0.000 A  
DOCKED: ATOM     30  C   UNL     1     144.775  72.558 220.766 -0.44 -0.00    +0.000 A  
DOCKED: ENDBRANCH  21  25
DOCKED: ENDBRANCH  17  19
DOCKED: ENDBRANCH   1  17
DOCKED: TORSDOF 5
DOCKED: TER
DOCKED: ENDMDL
________________________________________________________________________________


    FINAL DOCKED STATE:
    ________________________


Run:   10 / 20
Time taken for this run:   0.024s

DOCKED: MODEL        10
DOCKED: USER    Run = 10
DOCKED: USER
DOCKED: USER    Estimated Free Energy of Binding    =  -8.15 kcal/mol  [=(1)+(2)+(3)-(4)]
DOCKED: USER
DOCKED: USER    (1) Final Intermolecular Energy     =  -9.64 kcal/mol
DOCKED: USER        vdW + Hbond + desolv Energy     =  -9.62 kcal/mol
DOCKED: USER        Electrostatic Energy            =  -0.01 kcal/mol
DOCKED: USER        Moving Ligand-Fixed Receptor    =  -9.64 kcal/mol
DOCKED: USER        Moving Ligand-Moving Receptor   =  +0.00 kcal/mol
DOCKED: USER    (2) Final Total Internal Energy     =  -1.88 kcal/mol
DOCKED: USER    (3) Torsional Free Energy           =  +1.49 kcal/mol
DOCKED: USER    (4) Unbound System's Energy         =  -1.88 kcal/mol
DOCKED: USER
DOCKED: USER
DOCKED: REMARK SMILES O=C(NCC(=O)N1CCCC[C@H]1c1ccccc1)c1ccc2cc(F)ccc2n1
DOCKED: REMARK SMILES IDX 4 1 3 2 2 3 1 4 19 6 20 7 29 8 21 9 28 10 22 11 27 12 23 13
DOCKED: REMARK SMILES IDX 26 14 24 15 25 16 5 17 6 18 7 19 8 20 12 21 9 22 11 23 10 24
DOCKED: REMARK SMILES IDX 13 25 14 26 18 27 15 28 17 29 16 30
DOCKED: REMARK H PARENT 3 5
DOCKED: USER                              x       y       z     vdW  Elec       q    Type
DOCKED: USER                           _______ _______ _______ _____ _____    ______ ____
DOCKED: ROOT
DOCKED: ATOM      1  C   UNL     1     139.956  74.309 221.091 -0.17 -0.04    +0.216 C  
DOCKED: ENDROOT
DOCKED: BRANCH   1   2
DOCKED: ATOM      2  N   UNL     1     139.833  73.563 222.292 -0.12 +0.04    -0.342 N  
DOCKED: ATOM      3  C   UNL     1     140.156  72.154 222.197 -0.20 -0.04    +0.270 C  
DOCKED: ATOM      4  O   UNL     1     140.517  71.714 221.060 -0.10 +0.04    -0.268 OA 
DOCKED: ATOM      5  H   UNL     1     139.566  73.867 223.238 -0.49 -0.03    +0.164 HD 
DOCKED: BRANCH   3   6
DOCKED: ATOM      6  C   UNL     1     140.060  71.305 223.375 -0.30 -0.02    +0.128 A  
DOCKED: ATOM      7  C   UNL     1     139.547  70.039 223.200 -0.23 -0.01    +0.035 A  
DOCKED: ATOM      8  N   UNL     1     140.458  71.737 224.587 -0.28 +0.04    -0.243 NA 
DOCKED: ATOM      9  C   UNL     1     139.454  69.230 224.315 -0.31 -0.00    +0.013 A  
DOCKED: ATOM     10  C   UNL     1     140.379  70.970 225.692 -0.52 -0.01    +0.071 A  
DOCKED: ATOM     11  C   UNL     1     139.869  69.697 225.553 -0.45 -0.00    +0.003 A  
DOCKED: ATOM     12  C   UNL     1     140.808  71.487 226.898 -0.71 -0.01    +0.032 A  
DOCKED: ATOM     13  C   UNL     1     139.792  68.915 226.693 -0.53 -0.01    +0.049 A  
DOCKED: ATOM     14  C   UNL     1     140.727  70.710 228.013 -0.65 -0.01    +0.041 A  
DOCKED: ATOM     15  C   UNL     1     140.221  69.430 227.906 -0.52 -0.02    +0.123 A  
DOCKED: ATOM     16  F   UNL     1     140.166  68.702 229.058 -0.14 +0.04    -0.207 F  
DOCKED: ENDBRANCH   3   6
DOCKED: ENDBRANCH   1   2
DOCKED: BRANCH   1  17
DOCKED: ATOM     17  C   UNL     1     140.913  75.404 221.004 -0.21 -0.07    +0.242 C  
DOCKED: ATOM     18  O   UNL     1     141.438  75.689 222.180 -0.30 +0.08    -0.273 OA 
DOCKED: BRANCH  17  19
DOCKED: ATOM     19  N   UNL     1     141.373  76.193 219.960 -0.08 +0.14    -0.334 N  
DOCKED: ATOM     20  C   UNL     1     141.005  77.566 219.674 -0.16 -0.05    +0.120 C  
DOCKED: ATOM     21  C   UNL     1     142.369  75.612 219.052 -0.20 -0.05    +0.115 C  
DOCKED: ATOM     22  C   UNL     1     141.141  77.867 218.183 -0.14 -0.01    +0.022 C  
DOCKED: ATOM     23  C   UNL     1     143.316  76.772 218.687 -0.31 -0.02    +0.030 C  
DOCKED: ATOM     24  C   UNL     1     142.544  77.615 217.694 -0.29 -0.00    +0.004 C  
DOCKED: BRANCH  21  25
DOCKED: ATOM     25  C   UNL     1     143.168  74.530 219.681 -0.30 +0.01    -0.025 A  
DOCKED: ATOM     26  C   UNL     1     144.382  74.881 220.291 -0.41 -0.00    +0.006 A  
DOCKED: ATOM     27  C   UNL     1     142.720  73.226 219.658 -0.19 -0.00    +0.006 A  
DOCKED: ATOM     28  C   UNL     1     145.122  73.852 220.878 -0.58 -0.00    +0.000 A  
DOCKED: ATOM     29  C   UNL     1     143.465  72.205 220.245 -0.29 -0.00    +0.000 A  
DOCKED: ATOM     30  C   UNL     1     144.658  72.556 220.844 -0.43 -0.00    +0.000 A  
DOCKED: ENDBRANCH  21  25
DOCKED: ENDBRANCH  17  19
DOCKED: ENDBRANCH   1  17
DOCKED: TORSDOF 5
DOCKED: TER
DOCKED: ENDMDL
________________________________________________________________________________


    FINAL DOCKED STATE:
    ________________________


Run:   11 / 20
Time taken for this run:   0.024s

DOCKED: MODEL        11
DOCKED: USER    Run = 11
DOCKED: USER
DOCKED: USER    Estimated Free Energy of Binding    =  -7.56 kcal/mol  [=(1)+(2)+(3)-(4)]
DOCKED: USER
DOCKED: USER    (1) Final Intermolecular Energy     =  -9.05 kcal/mol
DOCKED: USER        vdW + Hbond + desolv Energy     =  -9.03 kcal/mol
DOCKED: USER        Electrostatic Energy            =  -0.02 kcal/mol
DOCKED: USER        Moving Ligand-Fixed Receptor    =  -9.05 kcal/mol
DOCKED: USER        Moving Ligand-Moving Receptor   =  +0.00 kcal/mol
DOCKED: USER    (2) Final Total Internal Energy     =  -1.68 kcal/mol
DOCKED: USER    (3) Torsional Free Energy           =  +1.49 kcal/mol
DOCKED: USER    (4) Unbound System's Energy         =  -1.68 kcal/mol
DOCKED: USER
DOCKED: USER
DOCKED: REMARK SMILES O=C(NCC(=O)N1CCCC[C@H]1c1ccccc1)c1ccc2cc(F)ccc2n1
DOCKED: REMARK SMILES IDX 4 1 3 2 2 3 1 4 19 6 20 7 29 8 21 9 28 10 22 11 27 12 23 13
DOCKED: REMARK SMILES IDX 26 14 24 15 25 16 5 17 6 18 7 19 8 20 12 21 9 22 11 23 10 24
DOCKED: REMARK SMILES IDX 13 25 14 26 18 27 15 28 17 29 16 30
DOCKED: REMARK H PARENT 3 5
DOCKED: USER                              x       y       z     vdW  Elec       q    Type
DOCKED: USER                           _______ _______ _______ _____ _____    ______ ____
DOCKED: ROOT
DOCKED: ATOM      1  C   UNL     1     138.594  74.066 220.843 -0.09 -0.05    +0.216 C  
DOCKED: ENDROOT
DOCKED: BRANCH   1   2
DOCKED: ATOM      2  N   UNL     1     138.898  73.426 222.073 -0.09 +0.09    -0.342 N  
DOCKED: ATOM      3  C   UNL     1     139.141  72.000 222.002 -0.14 -0.06    +0.270 C  
DOCKED: ATOM      4  O   UNL     1     139.062  71.452 220.857 -0.04 +0.05    -0.268 OA 
DOCKED: ATOM      5  H   UNL     1     138.994  73.818 223.020 -0.54 -0.08    +0.164 HD 
DOCKED: BRANCH   3   6
DOCKED: ATOM      6  C   UNL     1     139.460  71.255 223.210 -0.27 -0.03    +0.128 A  
DOCKED: ATOM      7  C   UNL     1     139.221  69.899 223.197 -0.23 -0.01    +0.035 A  
DOCKED: ATOM      8  N   UNL     1     139.971  71.864 224.297 -0.23 +0.05    -0.243 NA 
DOCKED: ATOM      9  C   UNL     1     139.522  69.187 224.342 -0.30 -0.00    +0.013 A  
DOCKED: ATOM     10  C   UNL     1     140.275  71.196 225.427 -0.49 -0.01    +0.071 A  
DOCKED: ATOM     11  C   UNL     1     140.046  69.838 225.449 -0.45 -0.00    +0.003 A  
DOCKED: ATOM     12  C   UNL     1     140.794  71.895 226.498 -0.64 -0.01    +0.032 A  
DOCKED: ATOM     13  C   UNL     1     140.361  69.158 226.614 -0.53 -0.01    +0.049 A  
DOCKED: ATOM     14  C   UNL     1     141.100  71.217 227.639 -0.69 -0.01    +0.041 A  
DOCKED: ATOM     15  C   UNL     1     140.883  69.855 227.692 -0.49 -0.02    +0.123 A  
DOCKED: ATOM     16  F   UNL     1     141.209  69.234 228.862 -0.10 +0.04    -0.207 F  
DOCKED: ENDBRANCH   3   6
DOCKED: ENDBRANCH   1   2
DOCKED: BRANCH   1  17
DOCKED: ATOM     17  C   UNL     1     139.016  75.441 220.609 -0.08 -0.05    +0.242 C  
DOCKED: ATOM     18  O   UNL     1     139.138  75.702 219.322 -0.01 +0.07    -0.273 OA 
DOCKED: BRANCH  17  19
DOCKED: ATOM     19  N   UNL     1     139.311  76.506 221.446 -0.10 +0.08    -0.334 N  
DOCKED: ATOM     20  C   UNL     1     138.475  77.047 222.501 -0.25 -0.02    +0.120 C  
DOCKED: ATOM     21  C   UNL     1     140.619  77.152 221.296 -0.26 -0.04    +0.115 C  
DOCKED: ATOM     22  C   UNL     1     138.775  78.527 222.729 -0.30 -0.00    +0.022 C  
DOCKED: ATOM     23  C   UNL     1     141.055  77.534 222.724 -0.42 -0.01    +0.030 C  
DOCKED: ATOM     24  C   UNL     1     140.224  78.749 223.078 -0.43 -0.00    +0.004 C  
DOCKED: BRANCH  21  25
DOCKED: ATOM     25  C   UNL     1     141.648  76.253 220.713 -0.26 +0.01    -0.025 A  
DOCKED: ATOM     26  C   UNL     1     142.394  76.729 219.624 -0.33 -0.00    +0.006 A  
DOCKED: ATOM     27  C   UNL     1     141.854  74.993 221.235 -0.25 -0.00    +0.006 A  
DOCKED: ATOM     28  C   UNL     1     143.358  75.873 219.087 -0.36 -0.00    +0.000 A  
DOCKED: ATOM     29  C   UNL     1     142.817  74.145 220.693 -0.30 -0.00    +0.000 A  
DOCKED: ATOM     30  C   UNL     1     143.548  74.618 219.622 -0.35 -0.00    +0.000 A  
DOCKED: ENDBRANCH  21  25
DOCKED: ENDBRANCH  17  19
DOCKED: ENDBRANCH   1  17
DOCKED: TORSDOF 5
DOCKED: TER
DOCKED: ENDMDL
________________________________________________________________________________


    FINAL DOCKED STATE:
    ________________________


Run:   12 / 20
Time taken for this run:   0.024s

DOCKED: MODEL        12
DOCKED: USER    Run = 12
DOCKED: USER
DOCKED: USER    Estimated Free Energy of Binding    =  -8.19 kcal/mol  [=(1)+(2)+(3)-(4)]
DOCKED: USER
DOCKED: USER    (1) Final Intermolecular Energy     =  -9.68 kcal/mol
DOCKED: USER        vdW + Hbond + desolv Energy     =  -9.65 kcal/mol
DOCKED: USER        Electrostatic Energy            =  -0.03 kcal/mol
DOCKED: USER        Moving Ligand-Fixed Receptor    =  -9.68 kcal/mol
DOCKED: USER        Moving Ligand-Moving Receptor   =  +0.00 kcal/mol
DOCKED: USER    (2) Final Total Internal Energy     =  -1.84 kcal/mol
DOCKED: USER    (3) Torsional Free Energy           =  +1.49 kcal/mol
DOCKED: USER    (4) Unbound System's Energy         =  -1.84 kcal/mol
DOCKED: USER
DOCKED: USER
DOCKED: REMARK SMILES O=C(NCC(=O)N1CCCC[C@H]1c1ccccc1)c1ccc2cc(F)ccc2n1
DOCKED: REMARK SMILES IDX 4 1 3 2 2 3 1 4 19 6 20 7 29 8 21 9 28 10 22 11 27 12 23 13
DOCKED: REMARK SMILES IDX 26 14 24 15 25 16 5 17 6 18 7 19 8 20 12 21 9 22 11 23 10 24
DOCKED: REMARK SMILES IDX 13 25 14 26 18 27 15 28 17 29 16 30
DOCKED: REMARK H PARENT 3 5
DOCKED: USER                              x       y       z     vdW  Elec       q    Type
DOCKED: USER                           _______ _______ _______ _____ _____    ______ ____
DOCKED: ROOT
DOCKED: ATOM      1  C   UNL     1     140.058  74.169 221.134 -0.18 -0.04    +0.216 C  
DOCKED: ENDROOT
DOCKED: BRANCH   1   2
DOCKED: ATOM      2  N   UNL     1     139.883  73.430 222.333 -0.14 +0.04    -0.342 N  
DOCKED: ATOM      3  C   UNL     1     140.214  72.021 222.263 -0.20 -0.04    +0.270 C  
DOCKED: ATOM      4  O   UNL     1     140.627  71.575 221.146 -0.11 +0.04    -0.268 OA 
DOCKED: ATOM      5  H   UNL     1     139.573  73.739 223.264 -0.49 -0.03    +0.164 HD 
DOCKED: BRANCH   3   6
DOCKED: ATOM      6  C   UNL     1     140.067  71.179 223.440 -0.30 -0.02    +0.128 A  
DOCKED: ATOM      7  C   UNL     1     139.469  69.951 223.268 -0.23 -0.01    +0.035 A  
DOCKED: ATOM      8  N   UNL     1     140.500  71.582 224.650 -0.30 +0.04    -0.243 NA 
DOCKED: ATOM      9  C   UNL     1     139.328  69.149 224.383 -0.32 -0.00    +0.013 A  
DOCKED: ATOM     10  C   UNL     1     140.377  70.821 225.755 -0.52 -0.01    +0.071 A  
DOCKED: ATOM     11  C   UNL     1     139.781  69.586 225.618 -0.45 -0.00    +0.003 A  
DOCKED: ATOM     12  C   UNL     1     140.846  71.308 226.959 -0.69 -0.01    +0.032 A  
DOCKED: ATOM     13  C   UNL     1     139.658  68.810 226.759 -0.53 -0.01    +0.049 A  
DOCKED: ATOM     14  C   UNL     1     140.720  70.536 228.074 -0.61 -0.01    +0.041 A  
DOCKED: ATOM     15  C   UNL     1     140.128  69.293 227.969 -0.53 -0.02    +0.123 A  
DOCKED: ATOM     16  F   UNL     1     140.030  68.570 229.121 -0.13 +0.04    -0.207 F  
DOCKED: ENDBRANCH   3   6
DOCKED: ENDBRANCH   1   2
DOCKED: BRANCH   1  17
DOCKED: ATOM     17  C   UNL     1     140.930  75.335 221.113 -0.22 -0.07    +0.242 C  
DOCKED: ATOM     18  O   UNL     1     141.358  75.647 222.321 -0.31 +0.07    -0.273 OA 
DOCKED: BRANCH  17  19
DOCKED: ATOM     19  N   UNL     1     141.391  76.167 220.104 -0.08 +0.14    -0.334 N  
DOCKED: ATOM     20  C   UNL     1     141.025  77.552 219.878 -0.17 -0.05    +0.120 C  
DOCKED: ATOM     21  C   UNL     1     142.387  75.626 219.173 -0.21 -0.05    +0.115 C  
DOCKED: ATOM     22  C   UNL     1     141.162  77.917 218.401 -0.15 -0.01    +0.022 C  
DOCKED: ATOM     23  C   UNL     1     143.335  76.799 218.859 -0.31 -0.02    +0.030 C  
DOCKED: ATOM     24  C   UNL     1     142.565  77.685 217.903 -0.30 -0.00    +0.004 C  
DOCKED: BRANCH  21  25
DOCKED: ATOM     25  C   UNL     1     143.185  74.516 219.754 -0.31 +0.01    -0.025 A  
DOCKED: ATOM     26  C   UNL     1     142.704  73.208 219.591 -0.19 -0.00    +0.006 A  
DOCKED: ATOM     27  C   UNL     1     144.359  74.777 220.429 -0.41 -0.00    +0.006 A  
DOCKED: ATOM     28  C   UNL     1     143.466  72.175 220.143 -0.28 -0.00    +0.000 A  
DOCKED: ATOM     29  C   UNL     1     145.112  73.741 220.977 -0.57 -0.00    +0.000 A  
DOCKED: ATOM     30  C   UNL     1     144.634  72.456 220.814 -0.41 -0.00    +0.000 A  
DOCKED: ENDBRANCH  21  25
DOCKED: ENDBRANCH  17  19
DOCKED: ENDBRANCH   1  17
DOCKED: TORSDOF 5
DOCKED: TER
DOCKED: ENDMDL
________________________________________________________________________________


    FINAL DOCKED STATE:
    ________________________


Run:   13 / 20
Time taken for this run:   0.024s

DOCKED: MODEL        13
DOCKED: USER    Run = 13
DOCKED: USER
DOCKED: USER    Estimated Free Energy of Binding    =  -8.21 kcal/mol  [=(1)+(2)+(3)-(4)]
DOCKED: USER
DOCKED: USER    (1) Final Intermolecular Energy     =  -9.70 kcal/mol
DOCKED: USER        vdW + Hbond + desolv Energy     =  -9.67 kcal/mol
DOCKED: USER        Electrostatic Energy            =  -0.03 kcal/mol
DOCKED: USER        Moving Ligand-Fixed Receptor    =  -9.70 kcal/mol
DOCKED: USER        Moving Ligand-Moving Receptor   =  +0.00 kcal/mol
DOCKED: USER    (2) Final Total Internal Energy     =  -1.82 kcal/mol
DOCKED: USER    (3) Torsional Free Energy           =  +1.49 kcal/mol
DOCKED: USER    (4) Unbound System's Energy         =  -1.82 kcal/mol
DOCKED: USER
DOCKED: USER
DOCKED: REMARK SMILES O=C(NCC(=O)N1CCCC[C@H]1c1ccccc1)c1ccc2cc(F)ccc2n1
DOCKED: REMARK SMILES IDX 4 1 3 2 2 3 1 4 19 6 20 7 29 8 21 9 28 10 22 11 27 12 23 13
DOCKED: REMARK SMILES IDX 26 14 24 15 25 16 5 17 6 18 7 19 8 20 12 21 9 22 11 23 10 24
DOCKED: REMARK SMILES IDX 13 25 14 26 18 27 15 28 17 29 16 30
DOCKED: REMARK H PARENT 3 5
DOCKED: USER                              x       y       z     vdW  Elec       q    Type
DOCKED: USER                           _______ _______ _______ _____ _____    ______ ____
DOCKED: ROOT
DOCKED: ATOM      1  C   UNL     1     140.033  74.199 221.009 -0.17 -0.04    +0.216 C  
DOCKED: ENDROOT
DOCKED: BRANCH   1   2
DOCKED: ATOM      2  N   UNL     1     139.836  73.482 222.218 -0.14 +0.04    -0.342 N  
DOCKED: ATOM      3  C   UNL     1     140.245  72.093 222.204 -0.20 -0.04    +0.270 C  
DOCKED: ATOM      4  O   UNL     1     140.739  71.641 221.123 -0.12 +0.04    -0.268 OA 
DOCKED: ATOM      5  H   UNL     1     139.461  73.797 223.123 -0.51 -0.04    +0.164 HD 
DOCKED: BRANCH   3   6
DOCKED: ATOM      6  C   UNL     1     140.082  71.274 223.396 -0.30 -0.02    +0.128 A  
DOCKED: ATOM      7  C   UNL     1     139.479  70.046 223.242 -0.24 -0.01    +0.035 A  
DOCKED: ATOM      8  N   UNL     1     140.505  71.698 224.603 -0.28 +0.04    -0.243 NA 
DOCKED: ATOM      9  C   UNL     1     139.323  69.266 224.370 -0.33 -0.00    +0.013 A  
DOCKED: ATOM     10  C   UNL     1     140.366  70.959 225.721 -0.52 -0.01    +0.071 A  
DOCKED: ATOM     11  C   UNL     1     139.766  69.725 225.602 -0.45 -0.00    +0.003 A  
DOCKED: ATOM     12  C   UNL     1     140.826  71.467 226.919 -0.71 -0.01    +0.032 A  
DOCKED: ATOM     13  C   UNL     1     139.627  68.972 226.756 -0.52 -0.01    +0.049 A  
DOCKED: ATOM     14  C   UNL     1     140.684  70.718 228.048 -0.64 -0.01    +0.041 A  
DOCKED: ATOM     15  C   UNL     1     140.087  69.476 227.961 -0.52 -0.02    +0.123 A  
DOCKED: ATOM     16  F   UNL     1     139.974  68.776 229.126 -0.13 +0.03    -0.207 F  
DOCKED: ENDBRANCH   3   6
DOCKED: ENDBRANCH   1   2
DOCKED: BRANCH   1  17
DOCKED: ATOM     17  C   UNL     1     140.936  75.341 220.974 -0.20 -0.07    +0.242 C  
DOCKED: ATOM     18  O   UNL     1     141.403  75.632 222.173 -0.32 +0.08    -0.273 OA 
DOCKED: BRANCH  17  19
DOCKED: ATOM     19  N   UNL     1     141.393  76.169 219.960 -0.08 +0.14    -0.334 N  
DOCKED: ATOM     20  C   UNL     1     141.009  77.546 219.716 -0.16 -0.05    +0.120 C  
DOCKED: ATOM     21  C   UNL     1     142.403  75.632 219.041 -0.21 -0.05    +0.115 C  
DOCKED: ATOM     22  C   UNL     1     141.152  77.897 218.236 -0.14 -0.01    +0.022 C  
DOCKED: ATOM     23  C   UNL     1     143.337  76.815 218.722 -0.29 -0.02    +0.030 C  
DOCKED: ATOM     24  C   UNL     1     142.562  77.680 217.750 -0.30 -0.00    +0.004 C  
DOCKED: BRANCH  21  25
DOCKED: ATOM     25  C   UNL     1     143.212  74.540 219.641 -0.30 +0.01    -0.025 A  
DOCKED: ATOM     26  C   UNL     1     144.398  74.890 220.304 -0.41 -0.00    +0.006 A  
DOCKED: ATOM     27  C   UNL     1     142.799  73.227 219.542 -0.19 -0.00    +0.006 A  
DOCKED: ATOM     28  C   UNL     1     145.147  73.853 220.863 -0.59 -0.00    +0.000 A  
DOCKED: ATOM     29  C   UNL     1     143.553  72.198 220.101 -0.28 -0.00    +0.000 A  
DOCKED: ATOM     30  C   UNL     1     144.719  72.549 220.752 -0.44 -0.00    +0.000 A  
DOCKED: ENDBRANCH  21  25
DOCKED: ENDBRANCH  17  19
DOCKED: ENDBRANCH   1  17
DOCKED: TORSDOF 5
DOCKED: TER
DOCKED: ENDMDL
________________________________________________________________________________


    FINAL DOCKED STATE:
    ________________________


Run:   14 / 20
Time taken for this run:   0.024s

DOCKED: MODEL        14
DOCKED: USER    Run = 14
DOCKED: USER
DOCKED: USER    Estimated Free Energy of Binding    =  -8.19 kcal/mol  [=(1)+(2)+(3)-(4)]
DOCKED: USER
DOCKED: USER    (1) Final Intermolecular Energy     =  -9.69 kcal/mol
DOCKED: USER        vdW + Hbond + desolv Energy     =  -9.65 kcal/mol
DOCKED: USER        Electrostatic Energy            =  -0.03 kcal/mol
DOCKED: USER        Moving Ligand-Fixed Receptor    =  -9.69 kcal/mol
DOCKED: USER        Moving Ligand-Moving Receptor   =  +0.00 kcal/mol
DOCKED: USER    (2) Final Total Internal Energy     =  -1.84 kcal/mol
DOCKED: USER    (3) Torsional Free Energy           =  +1.49 kcal/mol
DOCKED: USER    (4) Unbound System's Energy         =  -1.84 kcal/mol
DOCKED: USER
DOCKED: USER
DOCKED: REMARK SMILES O=C(NCC(=O)N1CCCC[C@H]1c1ccccc1)c1ccc2cc(F)ccc2n1
DOCKED: REMARK SMILES IDX 4 1 3 2 2 3 1 4 19 6 20 7 29 8 21 9 28 10 22 11 27 12 23 13
DOCKED: REMARK SMILES IDX 26 14 24 15 25 16 5 17 6 18 7 19 8 20 12 21 9 22 11 23 10 24
DOCKED: REMARK SMILES IDX 13 25 14 26 18 27 15 28 17 29 16 30
DOCKED: REMARK H PARENT 3 5
DOCKED: USER                              x       y       z     vdW  Elec       q    Type
DOCKED: USER                           _______ _______ _______ _____ _____    ______ ____
DOCKED: ROOT
DOCKED: ATOM      1  C   UNL     1     140.061  74.179 221.128 -0.18 -0.04    +0.216 C  
DOCKED: ENDROOT
DOCKED: BRANCH   1   2
DOCKED: ATOM      2  N   UNL     1     139.888  73.441 222.328 -0.14 +0.04    -0.342 N  
DOCKED: ATOM      3  C   UNL     1     140.231  72.035 222.261 -0.20 -0.04    +0.270 C  
DOCKED: ATOM      4  O   UNL     1     140.653  71.590 221.148 -0.11 +0.04    -0.268 OA 
DOCKED: ATOM      5  H   UNL     1     139.570  73.749 223.257 -0.49 -0.03    +0.164 HD 
DOCKED: BRANCH   3   6
DOCKED: ATOM      6  C   UNL     1     140.086  71.194 223.440 -0.30 -0.02    +0.128 A  
DOCKED: ATOM      7  C   UNL     1     139.499  69.961 223.268 -0.23 -0.01    +0.035 A  
DOCKED: ATOM      8  N   UNL     1     140.511  71.603 224.651 -0.30 +0.04    -0.243 NA 
DOCKED: ATOM      9  C   UNL     1     139.360  69.160 224.384 -0.32 -0.00    +0.013 A  
DOCKED: ATOM     10  C   UNL     1     140.389  70.843 225.757 -0.52 -0.01    +0.071 A  
DOCKED: ATOM     11  C   UNL     1     139.804  69.603 225.620 -0.45 -0.00    +0.003 A  
DOCKED: ATOM     12  C   UNL     1     140.850  71.336 226.961 -0.69 -0.01    +0.032 A  
DOCKED: ATOM     13  C   UNL     1     139.683  68.828 226.762 -0.53 -0.01    +0.049 A  
DOCKED: ATOM     14  C   UNL     1     140.725  70.565 228.077 -0.61 -0.01    +0.041 A  
DOCKED: ATOM     15  C   UNL     1     140.144  69.317 227.973 -0.53 -0.02    +0.123 A  
DOCKED: ATOM     16  F   UNL     1     140.047  68.596 229.126 -0.13 +0.04    -0.207 F  
DOCKED: ENDBRANCH   3   6
DOCKED: ENDBRANCH   1   2
DOCKED: BRANCH   1  17
DOCKED: ATOM     17  C   UNL     1     140.939  75.341 221.104 -0.22 -0.07    +0.242 C  
DOCKED: ATOM     18  O   UNL     1     141.381  75.645 222.309 -0.30 +0.07    -0.273 OA 
DOCKED: BRANCH  17  19
DOCKED: ATOM     19  N   UNL     1     141.393  76.177 220.095 -0.08 +0.14    -0.334 N  
DOCKED: ATOM     20  C   UNL     1     141.022  77.561 219.874 -0.17 -0.05    +0.120 C  
DOCKED: ATOM     21  C   UNL     1     142.385  75.640 219.157 -0.21 -0.05    +0.115 C  
DOCKED: ATOM     22  C   UNL     1     141.151  77.930 218.397 -0.15 -0.01    +0.022 C  
DOCKED: ATOM     23  C   UNL     1     143.329  76.816 218.841 -0.31 -0.02    +0.030 C  
DOCKED: ATOM     24  C   UNL     1     142.551  77.702 217.890 -0.30 -0.00    +0.004 C  
DOCKED: BRANCH  21  25
DOCKED: ATOM     25  C   UNL     1     143.188  74.531 219.732 -0.31 +0.01    -0.025 A  
DOCKED: ATOM     26  C   UNL     1     142.710  73.222 219.569 -0.18 -0.00    +0.006 A  
DOCKED: ATOM     27  C   UNL     1     144.365  74.793 220.401 -0.41 -0.00    +0.006 A  
DOCKED: ATOM     28  C   UNL     1     143.476  72.190 220.114 -0.27 -0.00    +0.000 A  
DOCKED: ATOM     29  C   UNL     1     145.124  73.757 220.943 -0.58 -0.00    +0.000 A  
DOCKED: ATOM     30  C   UNL     1     144.648  72.472 220.780 -0.41 -0.00    +0.000 A  
DOCKED: ENDBRANCH  21  25
DOCKED: ENDBRANCH  17  19
DOCKED: ENDBRANCH   1  17
DOCKED: TORSDOF 5
DOCKED: TER
DOCKED: ENDMDL
________________________________________________________________________________


    FINAL DOCKED STATE:
    ________________________


Run:   15 / 20
Time taken for this run:   0.024s

DOCKED: MODEL        15
DOCKED: USER    Run = 15
DOCKED: USER
DOCKED: USER    Estimated Free Energy of Binding    =  -8.19 kcal/mol  [=(1)+(2)+(3)-(4)]
DOCKED: USER
DOCKED: USER    (1) Final Intermolecular Energy     =  -9.68 kcal/mol
DOCKED: USER        vdW + Hbond + desolv Energy     =  -9.65 kcal/mol
DOCKED: USER        Electrostatic Energy            =  -0.03 kcal/mol
DOCKED: USER        Moving Ligand-Fixed Receptor    =  -9.68 kcal/mol
DOCKED: USER        Moving Ligand-Moving Receptor   =  +0.00 kcal/mol
DOCKED: USER    (2) Final Total Internal Energy     =  -1.85 kcal/mol
DOCKED: USER    (3) Torsional Free Energy           =  +1.49 kcal/mol
DOCKED: USER    (4) Unbound System's Energy         =  -1.85 kcal/mol
DOCKED: USER
DOCKED: USER
DOCKED: REMARK SMILES O=C(NCC(=O)N1CCCC[C@H]1c1ccccc1)c1ccc2cc(F)ccc2n1
DOCKED: REMARK SMILES IDX 4 1 3 2 2 3 1 4 19 6 20 7 29 8 21 9 28 10 22 11 27 12 23 13
DOCKED: REMARK SMILES IDX 26 14 24 15 25 16 5 17 6 18 7 19 8 20 12 21 9 22 11 23 10 24
DOCKED: REMARK SMILES IDX 13 25 14 26 18 27 15 28 17 29 16 30
DOCKED: REMARK H PARENT 3 5
DOCKED: USER                              x       y       z     vdW  Elec       q    Type
DOCKED: USER                           _______ _______ _______ _____ _____    ______ ____
DOCKED: ROOT
DOCKED: ATOM      1  C   UNL     1     140.038  74.191 221.140 -0.18 -0.04    +0.216 C  
DOCKED: ENDROOT
DOCKED: BRANCH   1   2
DOCKED: ATOM      2  N   UNL     1     139.883  73.452 222.342 -0.14 +0.04    -0.342 N  
DOCKED: ATOM      3  C   UNL     1     140.256  72.054 222.277 -0.20 -0.04    +0.270 C  
DOCKED: ATOM      4  O   UNL     1     140.685  71.616 221.163 -0.12 +0.04    -0.268 OA 
DOCKED: ATOM      5  H   UNL     1     139.561  73.755 223.271 -0.49 -0.04    +0.164 HD 
DOCKED: BRANCH   3   6
DOCKED: ATOM      6  C   UNL     1     140.132  71.212 223.457 -0.30 -0.02    +0.128 A  
DOCKED: ATOM      7  C   UNL     1     139.523  69.987 223.299 -0.24 -0.01    +0.035 A  
DOCKED: ATOM      8  N   UNL     1     140.595  71.612 224.657 -0.29 +0.03    -0.243 NA 
DOCKED: ATOM      9  C   UNL     1     139.403  69.185 224.417 -0.32 -0.00    +0.013 A  
DOCKED: ATOM     10  C   UNL     1     140.493  70.851 225.765 -0.52 -0.01    +0.071 A  
DOCKED: ATOM     11  C   UNL     1     139.888  69.620 225.641 -0.45 -0.00    +0.003 A  
DOCKED: ATOM     12  C   UNL     1     140.992  71.335 226.957 -0.70 -0.01    +0.032 A  
DOCKED: ATOM     13  C   UNL     1     139.786  68.844 226.785 -0.54 -0.01    +0.049 A  
DOCKED: ATOM     14  C   UNL     1     140.888  70.564 228.075 -0.60 -0.01    +0.041 A  
DOCKED: ATOM     15  C   UNL     1     140.287  69.324 227.983 -0.53 -0.02    +0.123 A  
DOCKED: ATOM     16  F   UNL     1     140.212  68.602 229.138 -0.13 +0.04    -0.207 F  
DOCKED: ENDBRANCH   3   6
DOCKED: ENDBRANCH   1   2
DOCKED: BRANCH   1  17
DOCKED: ATOM     17  C   UNL     1     140.935  75.338 221.097 -0.21 -0.07    +0.242 C  
DOCKED: ATOM     18  O   UNL     1     141.397  75.643 222.294 -0.30 +0.07    -0.273 OA 
DOCKED: BRANCH  17  19
DOCKED: ATOM     19  N   UNL     1     141.391  76.158 220.075 -0.08 +0.14    -0.334 N  
DOCKED: ATOM     20  C   UNL     1     141.017  77.538 219.830 -0.17 -0.05    +0.120 C  
DOCKED: ATOM     21  C   UNL     1     142.388  75.609 219.151 -0.21 -0.05    +0.115 C  
DOCKED: ATOM     22  C   UNL     1     141.151  77.883 218.348 -0.14 -0.01    +0.022 C  
DOCKED: ATOM     23  C   UNL     1     143.330  76.783 218.819 -0.32 -0.02    +0.030 C  
DOCKED: ATOM     24  C   UNL     1     142.554  77.651 217.851 -0.30 -0.00    +0.004 C  
DOCKED: BRANCH  21  25
DOCKED: ATOM     25  C   UNL     1     143.193  74.512 219.747 -0.31 +0.01    -0.025 A  
DOCKED: ATOM     26  C   UNL     1     142.727  73.197 219.589 -0.19 -0.00    +0.006 A  
DOCKED: ATOM     27  C   UNL     1     144.358  74.790 220.431 -0.41 -0.00    +0.006 A  
DOCKED: ATOM     28  C   UNL     1     143.494  72.177 220.155 -0.28 -0.00    +0.000 A  
DOCKED: ATOM     29  C   UNL     1     145.117  73.766 220.993 -0.56 -0.00    +0.000 A  
DOCKED: ATOM     30  C   UNL     1     144.654  72.474 220.835 -0.41 -0.00    +0.000 A  
DOCKED: ENDBRANCH  21  25
DOCKED: ENDBRANCH  17  19
DOCKED: ENDBRANCH   1  17
DOCKED: TORSDOF 5
DOCKED: TER
DOCKED: ENDMDL
________________________________________________________________________________


    FINAL DOCKED STATE:
    ________________________


Run:   16 / 20
Time taken for this run:   0.024s

DOCKED: MODEL        16
DOCKED: USER    Run = 16
DOCKED: USER
DOCKED: USER    Estimated Free Energy of Binding    =  -7.56 kcal/mol  [=(1)+(2)+(3)-(4)]
DOCKED: USER
DOCKED: USER    (1) Final Intermolecular Energy     =  -9.05 kcal/mol
DOCKED: USER        vdW + Hbond + desolv Energy     =  -9.03 kcal/mol
DOCKED: USER        Electrostatic Energy            =  -0.02 kcal/mol
DOCKED: USER        Moving Ligand-Fixed Receptor    =  -9.05 kcal/mol
DOCKED: USER        Moving Ligand-Moving Receptor   =  +0.00 kcal/mol
DOCKED: USER    (2) Final Total Internal Energy     =  -1.80 kcal/mol
DOCKED: USER    (3) Torsional Free Energy           =  +1.49 kcal/mol
DOCKED: USER    (4) Unbound System's Energy         =  -1.80 kcal/mol
DOCKED: USER
DOCKED: USER
DOCKED: REMARK SMILES O=C(NCC(=O)N1CCCC[C@H]1c1ccccc1)c1ccc2cc(F)ccc2n1
DOCKED: REMARK SMILES IDX 4 1 3 2 2 3 1 4 19 6 20 7 29 8 21 9 28 10 22 11 27 12 23 13
DOCKED: REMARK SMILES IDX 26 14 24 15 25 16 5 17 6 18 7 19 8 20 12 21 9 22 11 23 10 24
DOCKED: REMARK SMILES IDX 13 25 14 26 18 27 15 28 17 29 16 30
DOCKED: REMARK H PARENT 3 5
DOCKED: USER                              x       y       z     vdW  Elec       q    Type
DOCKED: USER                           _______ _______ _______ _____ _____    ______ ____
DOCKED: ROOT
DOCKED: ATOM      1  C   UNL     1     139.063  73.118 220.859 -0.09 -0.04    +0.216 C  
DOCKED: ENDROOT
DOCKED: BRANCH   1   2
DOCKED: ATOM      2  N   UNL     1     139.264  72.785 222.224 -0.13 +0.08    -0.342 N  
DOCKED: ATOM      3  C   UNL     1     139.823  71.474 222.480 -0.19 -0.05    +0.270 C  
DOCKED: ATOM      4  O   UNL     1     140.082  70.743 221.472 -0.10 +0.04    -0.268 OA 
DOCKED: ATOM      5  H   UNL     1     139.093  73.338 223.075 -0.49 -0.08    +0.164 HD 
DOCKED: BRANCH   3   6
DOCKED: ATOM      6  C   UNL     1     140.066  71.040 223.848 -0.33 -0.02    +0.128 A  
DOCKED: ATOM      7  C   UNL     1     140.707  71.924 224.687 -0.27 -0.00    +0.035 A  
DOCKED: ATOM      8  N   UNL     1     139.678  69.824 224.279 -0.17 +0.04    -0.243 NA 
DOCKED: ATOM      9  C   UNL     1     140.940  71.516 225.985 -0.64 -0.00    +0.013 A  
DOCKED: ATOM     10  C   UNL     1     139.891  69.400 225.540 -0.40 -0.01    +0.071 A  
DOCKED: ATOM     11  C   UNL     1     140.531  70.259 226.405 -0.56 -0.00    +0.003 A  
DOCKED: ATOM     12  C   UNL     1     139.462  68.138 225.902 -0.54 -0.00    +0.032 A  
DOCKED: ATOM     13  C   UNL     1     140.746  69.815 227.699 -0.57 -0.01    +0.049 A  
DOCKED: ATOM     14  C   UNL     1     139.679  67.712 227.177 -0.53 -0.01    +0.041 A  
DOCKED: ATOM     15  C   UNL     1     140.318  68.551 228.068 -0.55 -0.03    +0.123 A  
DOCKED: ATOM     16  F   UNL     1     140.506  68.065 229.329 -0.12 +0.05    -0.207 F  
DOCKED: ENDBRANCH   3   6
DOCKED: ENDBRANCH   1   2
DOCKED: BRANCH   1  17
DOCKED: ATOM     17  C   UNL     1     140.198  73.471 220.017 -0.06 -0.05    +0.242 C  
DOCKED: ATOM     18  O   UNL     1     139.821  74.139 218.944 -0.01 +0.06    -0.273 OA 
DOCKED: BRANCH  17  19
DOCKED: ATOM     19  N   UNL     1     141.564  73.251 220.111 -0.05 +0.06    -0.334 N  
DOCKED: ATOM     20  C   UNL     1     142.314  72.156 219.528 -0.11 -0.02    +0.120 C  
DOCKED: ATOM     21  C   UNL     1     142.366  74.238 220.842 -0.21 -0.03    +0.115 C  
DOCKED: ATOM     22  C   UNL     1     143.570  71.861 220.346 -0.28 -0.00    +0.022 C  
DOCKED: ATOM     23  C   UNL     1     143.701  74.329 220.076 -0.38 -0.01    +0.030 C  
DOCKED: ATOM     24  C   UNL     1     144.458  73.073 220.452 -0.45 -0.00    +0.004 C  
DOCKED: BRANCH  21  25
DOCKED: ATOM     25  C   UNL     1     141.745  75.587 220.870 -0.28 +0.01    -0.025 A  
DOCKED: ATOM     26  C   UNL     1     142.067  76.479 219.836 -0.29 -0.00    +0.006 A  
DOCKED: ATOM     27  C   UNL     1     140.882  75.939 221.887 -0.37 -0.00    +0.006 A  
DOCKED: ATOM     28  C   UNL     1     141.475  77.743 219.876 -0.26 -0.00    +0.000 A  
DOCKED: ATOM     29  C   UNL     1     140.296  77.202 221.920 -0.36 -0.00    +0.000 A  
DOCKED: ATOM     30  C   UNL     1     140.616  78.076 220.900 -0.24 -0.00    +0.000 A  
DOCKED: ENDBRANCH  21  25
DOCKED: ENDBRANCH  17  19
DOCKED: ENDBRANCH   1  17
DOCKED: TORSDOF 5
DOCKED: TER
DOCKED: ENDMDL
________________________________________________________________________________


    FINAL DOCKED STATE:
    ________________________


Run:   17 / 20
Time taken for this run:   0.024s

DOCKED: MODEL        17
DOCKED: USER    Run = 17
DOCKED: USER
DOCKED: USER    Estimated Free Energy of Binding    =  -8.22 kcal/mol  [=(1)+(2)+(3)-(4)]
DOCKED: USER
DOCKED: USER    (1) Final Intermolecular Energy     =  -9.71 kcal/mol
DOCKED: USER        vdW + Hbond + desolv Energy     =  -9.67 kcal/mol
DOCKED: USER        Electrostatic Energy            =  -0.03 kcal/mol
DOCKED: USER        Moving Ligand-Fixed Receptor    =  -9.71 kcal/mol
DOCKED: USER        Moving Ligand-Moving Receptor   =  +0.00 kcal/mol
DOCKED: USER    (2) Final Total Internal Energy     =  -1.84 kcal/mol
DOCKED: USER    (3) Torsional Free Energy           =  +1.49 kcal/mol
DOCKED: USER    (4) Unbound System's Energy         =  -1.84 kcal/mol
DOCKED: USER
DOCKED: USER
DOCKED: REMARK SMILES O=C(NCC(=O)N1CCCC[C@H]1c1ccccc1)c1ccc2cc(F)ccc2n1
DOCKED: REMARK SMILES IDX 4 1 3 2 2 3 1 4 19 6 20 7 29 8 21 9 28 10 22 11 27 12 23 13
DOCKED: REMARK SMILES IDX 26 14 24 15 25 16 5 17 6 18 7 19 8 20 12 21 9 22 11 23 10 24
DOCKED: REMARK SMILES IDX 13 25 14 26 18 27 15 28 17 29 16 30
DOCKED: REMARK H PARENT 3 5
DOCKED: USER                              x       y       z     vdW  Elec       q    Type
DOCKED: USER                           _______ _______ _______ _____ _____    ______ ____
DOCKED: ROOT
DOCKED: ATOM      1  C   UNL     1     140.053  74.160 221.121 -0.18 -0.04    +0.216 C  
DOCKED: ENDROOT
DOCKED: BRANCH   1   2
DOCKED: ATOM      2  N   UNL     1     139.880  73.424 222.323 -0.14 +0.04    -0.342 N  
DOCKED: ATOM      3  C   UNL     1     140.205  72.014 222.253 -0.20 -0.04    +0.270 C  
DOCKED: ATOM      4  O   UNL     1     140.612  71.564 221.136 -0.11 +0.04    -0.268 OA 
DOCKED: ATOM      5  H   UNL     1     139.575  73.736 223.254 -0.49 -0.03    +0.164 HD 
DOCKED: BRANCH   3   6
DOCKED: ATOM      6  C   UNL     1     140.060  71.175 223.433 -0.30 -0.02    +0.128 A  
DOCKED: ATOM      7  C   UNL     1     139.459  69.948 223.266 -0.23 -0.01    +0.035 A  
DOCKED: ATOM      8  N   UNL     1     140.498  71.579 224.641 -0.30 +0.04    -0.243 NA 
DOCKED: ATOM      9  C   UNL     1     139.319  69.149 224.383 -0.33 -0.00    +0.013 A  
DOCKED: ATOM     10  C   UNL     1     140.376  70.821 225.748 -0.52 -0.01    +0.071 A  
DOCKED: ATOM     11  C   UNL     1     139.777  69.588 225.616 -0.45 -0.00    +0.003 A  
DOCKED: ATOM     12  C   UNL     1     140.850  71.309 226.949 -0.69 -0.01    +0.032 A  
DOCKED: ATOM     13  C   UNL     1     139.655  68.814 226.759 -0.53 -0.01    +0.049 A  
DOCKED: ATOM     14  C   UNL     1     140.725  70.541 228.066 -0.61 -0.01    +0.041 A  
DOCKED: ATOM     15  C   UNL     1     140.130  69.299 227.966 -0.53 -0.02    +0.123 A  
DOCKED: ATOM     16  F   UNL     1     140.034  68.579 229.120 -0.13 +0.04    -0.207 F  
DOCKED: ENDBRANCH   3   6
DOCKED: ENDBRANCH   1   2
DOCKED: BRANCH   1  17
DOCKED: ATOM     17  C   UNL     1     140.924  75.327 221.096 -0.21 -0.07    +0.242 C  
DOCKED: ATOM     18  O   UNL     1     141.351  75.644 222.303 -0.31 +0.07    -0.273 OA 
DOCKED: BRANCH  17  19
DOCKED: ATOM     19  N   UNL     1     141.383  76.157 220.085 -0.08 +0.14    -0.334 N  
DOCKED: ATOM     20  C   UNL     1     141.018  77.542 219.857 -0.17 -0.05    +0.120 C  
DOCKED: ATOM     21  C   UNL     1     142.375  75.612 219.151 -0.21 -0.05    +0.115 C  
DOCKED: ATOM     22  C   UNL     1     141.152  77.904 218.379 -0.15 -0.01    +0.022 C  
DOCKED: ATOM     23  C   UNL     1     143.325  76.784 218.833 -0.32 -0.02    +0.030 C  
DOCKED: ATOM     24  C   UNL     1     142.553  77.669 217.877 -0.30 -0.00    +0.004 C  
DOCKED: BRANCH  21  25
DOCKED: ATOM     25  C   UNL     1     143.173  74.502 219.733 -0.31 +0.01    -0.025 A  
DOCKED: ATOM     26  C   UNL     1     144.377  74.827 220.376 -0.41 -0.00    +0.006 A  
DOCKED: ATOM     27  C   UNL     1     142.733  73.199 219.637 -0.19 -0.00    +0.006 A  
DOCKED: ATOM     28  C   UNL     1     145.116  73.773 220.917 -0.58 -0.00    +0.000 A  
DOCKED: ATOM     29  C   UNL     1     143.476  72.153 220.180 -0.28 -0.00    +0.000 A  
DOCKED: ATOM     30  C   UNL     1     144.660  72.479 220.811 -0.41 -0.00    +0.000 A  
DOCKED: ENDBRANCH  21  25
DOCKED: ENDBRANCH  17  19
DOCKED: ENDBRANCH   1  17
DOCKED: TORSDOF 5
DOCKED: TER
DOCKED: ENDMDL
________________________________________________________________________________


    FINAL DOCKED STATE:
    ________________________


Run:   18 / 20
Time taken for this run:   0.024s

DOCKED: MODEL        18
DOCKED: USER    Run = 18
DOCKED: USER
DOCKED: USER    Estimated Free Energy of Binding    =  -8.22 kcal/mol  [=(1)+(2)+(3)-(4)]
DOCKED: USER
DOCKED: USER    (1) Final Intermolecular Energy     =  -9.71 kcal/mol
DOCKED: USER        vdW + Hbond + desolv Energy     =  -9.67 kcal/mol
DOCKED: USER        Electrostatic Energy            =  -0.04 kcal/mol
DOCKED: USER        Moving Ligand-Fixed Receptor    =  -9.71 kcal/mol
DOCKED: USER        Moving Ligand-Moving Receptor   =  +0.00 kcal/mol
DOCKED: USER    (2) Final Total Internal Energy     =  -1.83 kcal/mol
DOCKED: USER    (3) Torsional Free Energy           =  +1.49 kcal/mol
DOCKED: USER    (4) Unbound System's Energy         =  -1.83 kcal/mol
DOCKED: USER
DOCKED: USER
DOCKED: REMARK SMILES O=C(NCC(=O)N1CCCC[C@H]1c1ccccc1)c1ccc2cc(F)ccc2n1
DOCKED: REMARK SMILES IDX 4 1 3 2 2 3 1 4 19 6 20 7 29 8 21 9 28 10 22 11 27 12 23 13
DOCKED: REMARK SMILES IDX 26 14 24 15 25 16 5 17 6 18 7 19 8 20 12 21 9 22 11 23 10 24
DOCKED: REMARK SMILES IDX 13 25 14 26 18 27 15 28 17 29 16 30
DOCKED: REMARK H PARENT 3 5
DOCKED: USER                              x       y       z     vdW  Elec       q    Type
DOCKED: USER                           _______ _______ _______ _____ _____    ______ ____
DOCKED: ROOT
DOCKED: ATOM      1  C   UNL     1     140.062  74.129 221.135 -0.18 -0.04    +0.216 C  
DOCKED: ENDROOT
DOCKED: BRANCH   1   2
DOCKED: ATOM      2  N   UNL     1     139.885  73.393 222.336 -0.15 +0.04    -0.342 N  
DOCKED: ATOM      3  C   UNL     1     140.215  71.984 222.270 -0.20 -0.04    +0.270 C  
DOCKED: ATOM      4  O   UNL     1     140.630  71.535 221.155 -0.11 +0.04    -0.268 OA 
DOCKED: ATOM      5  H   UNL     1     139.573  73.705 223.265 -0.48 -0.04    +0.164 HD 
DOCKED: BRANCH   3   6
DOCKED: ATOM      6  C   UNL     1     140.066  71.146 223.449 -0.30 -0.02    +0.128 A  
DOCKED: ATOM      7  C   UNL     1     139.459  69.921 223.281 -0.23 -0.01    +0.035 A  
DOCKED: ATOM      8  N   UNL     1     140.504  71.548 224.658 -0.30 +0.04    -0.243 NA 
DOCKED: ATOM      9  C   UNL     1     139.315  69.122 224.397 -0.33 -0.00    +0.013 A  
DOCKED: ATOM     10  C   UNL     1     140.377  70.790 225.764 -0.52 -0.01    +0.071 A  
DOCKED: ATOM     11  C   UNL     1     139.774  69.559 225.631 -0.45 -0.00    +0.003 A  
DOCKED: ATOM     12  C   UNL     1     140.853  71.276 226.966 -0.69 -0.01    +0.032 A  
DOCKED: ATOM     13  C   UNL     1     139.648  68.786 226.774 -0.53 -0.01    +0.049 A  
DOCKED: ATOM     14  C   UNL     1     140.723  70.507 228.083 -0.60 -0.01    +0.041 A  
DOCKED: ATOM     15  C   UNL     1     140.123  69.268 227.982 -0.53 -0.02    +0.123 A  
DOCKED: ATOM     16  F   UNL     1     140.023  68.548 229.136 -0.13 +0.04    -0.207 F  
DOCKED: ENDBRANCH   3   6
DOCKED: ENDBRANCH   1   2
DOCKED: BRANCH   1  17
DOCKED: ATOM     17  C   UNL     1     140.912  75.312 221.120 -0.22 -0.06    +0.242 C  
DOCKED: ATOM     18  O   UNL     1     141.315  75.640 222.333 -0.32 +0.07    -0.273 OA 
DOCKED: BRANCH  17  19
DOCKED: ATOM     19  N   UNL     1     141.373  76.147 220.113 -0.08 +0.14    -0.334 N  
DOCKED: ATOM     20  C   UNL     1     141.009  77.533 219.893 -0.17 -0.05    +0.120 C  
DOCKED: ATOM     21  C   UNL     1     142.365  75.606 219.177 -0.21 -0.05    +0.115 C  
DOCKED: ATOM     22  C   UNL     1     141.143  77.903 218.417 -0.15 -0.01    +0.022 C  
DOCKED: ATOM     23  C   UNL     1     143.315  76.779 218.865 -0.33 -0.02    +0.030 C  
DOCKED: ATOM     24  C   UNL     1     142.544  77.670 217.914 -0.30 -0.00    +0.004 C  
DOCKED: BRANCH  21  25
DOCKED: ATOM     25  C   UNL     1     143.162  74.493 219.753 -0.31 +0.01    -0.025 A  
DOCKED: ATOM     26  C   UNL     1     144.362  74.814 220.405 -0.41 -0.00    +0.006 A  
DOCKED: ATOM     27  C   UNL     1     142.724  73.189 219.643 -0.19 -0.00    +0.006 A  
DOCKED: ATOM     28  C   UNL     1     145.100  73.757 220.941 -0.57 -0.00    +0.000 A  
DOCKED: ATOM     29  C   UNL     1     143.467  72.140 220.180 -0.28 -0.00    +0.000 A  
DOCKED: ATOM     30  C   UNL     1     144.647  72.462 220.820 -0.41 -0.00    +0.000 A  
DOCKED: ENDBRANCH  21  25
DOCKED: ENDBRANCH  17  19
DOCKED: ENDBRANCH   1  17
DOCKED: TORSDOF 5
DOCKED: TER
DOCKED: ENDMDL
________________________________________________________________________________


    FINAL DOCKED STATE:
    ________________________


Run:   19 / 20
Time taken for this run:   0.024s

DOCKED: MODEL        19
DOCKED: USER    Run = 19
DOCKED: USER
DOCKED: USER    Estimated Free Energy of Binding    =  -8.20 kcal/mol  [=(1)+(2)+(3)-(4)]
DOCKED: USER
DOCKED: USER    (1) Final Intermolecular Energy     =  -9.69 kcal/mol
DOCKED: USER        vdW + Hbond + desolv Energy     =  -9.66 kcal/mol
DOCKED: USER        Electrostatic Energy            =  -0.03 kcal/mol
DOCKED: USER        Moving Ligand-Fixed Receptor    =  -9.69 kcal/mol
DOCKED: USER        Moving Ligand-Moving Receptor   =  +0.00 kcal/mol
DOCKED: USER    (2) Final Total Internal Energy     =  -1.85 kcal/mol
DOCKED: USER    (3) Torsional Free Energy           =  +1.49 kcal/mol
DOCKED: USER    (4) Unbound System's Energy         =  -1.85 kcal/mol
DOCKED: USER
DOCKED: USER
DOCKED: REMARK SMILES O=C(NCC(=O)N1CCCC[C@H]1c1ccccc1)c1ccc2cc(F)ccc2n1
DOCKED: REMARK SMILES IDX 4 1 3 2 2 3 1 4 19 6 20 7 29 8 21 9 28 10 22 11 27 12 23 13
DOCKED: REMARK SMILES IDX 26 14 24 15 25 16 5 17 6 18 7 19 8 20 12 21 9 22 11 23 10 24
DOCKED: REMARK SMILES IDX 13 25 14 26 18 27 15 28 17 29 16 30
DOCKED: REMARK H PARENT 3 5
DOCKED: USER                              x       y       z     vdW  Elec       q    Type
DOCKED: USER                           _______ _______ _______ _____ _____    ______ ____
DOCKED: ROOT
DOCKED: ATOM      1  C   UNL     1     140.058  74.194 221.139 -0.18 -0.04    +0.216 C  
DOCKED: ENDROOT
DOCKED: BRANCH   1   2
DOCKED: ATOM      2  N   UNL     1     139.886  73.454 222.338 -0.14 +0.04    -0.342 N  
DOCKED: ATOM      3  C   UNL     1     140.232  72.049 222.269 -0.20 -0.04    +0.270 C  
DOCKED: ATOM      4  O   UNL     1     140.654  71.606 221.155 -0.11 +0.04    -0.268 OA 
DOCKED: ATOM      5  H   UNL     1     139.569  73.760 223.267 -0.49 -0.03    +0.164 HD 
DOCKED: BRANCH   3   6
DOCKED: ATOM      6  C   UNL     1     140.089  71.206 223.446 -0.30 -0.02    +0.128 A  
DOCKED: ATOM      7  C   UNL     1     139.513  69.967 223.271 -0.23 -0.01    +0.035 A  
DOCKED: ATOM      8  N   UNL     1     140.504  71.618 224.660 -0.29 +0.04    -0.243 NA 
DOCKED: ATOM      9  C   UNL     1     139.376  69.164 224.385 -0.32 -0.00    +0.013 A  
DOCKED: ATOM     10  C   UNL     1     140.383  70.856 225.765 -0.52 -0.01    +0.071 A  
DOCKED: ATOM     11  C   UNL     1     139.810  69.611 225.624 -0.45 -0.00    +0.003 A  
DOCKED: ATOM     12  C   UNL     1     140.833  71.352 226.972 -0.70 -0.01    +0.032 A  
DOCKED: ATOM     13  C   UNL     1     139.690  68.835 226.765 -0.53 -0.01    +0.049 A  
DOCKED: ATOM     14  C   UNL     1     140.710  70.580 228.087 -0.61 -0.01    +0.041 A  
DOCKED: ATOM     15  C   UNL     1     140.140  69.327 227.978 -0.53 -0.02    +0.123 A  
DOCKED: ATOM     16  F   UNL     1     140.045  68.604 229.131 -0.13 +0.04    -0.207 F  
DOCKED: ENDBRANCH   3   6
DOCKED: ENDBRANCH   1   2
DOCKED: BRANCH   1  17
DOCKED: ATOM     17  C   UNL     1     140.931  75.360 221.117 -0.22 -0.07    +0.242 C  
DOCKED: ATOM     18  O   UNL     1     141.362  75.670 222.325 -0.30 +0.07    -0.273 OA 
DOCKED: BRANCH  17  19
DOCKED: ATOM     19  N   UNL     1     141.388  76.195 220.108 -0.09 +0.14    -0.334 N  
DOCKED: ATOM     20  C   UNL     1     141.019  77.579 219.885 -0.17 -0.05    +0.120 C  
DOCKED: ATOM     21  C   UNL     1     142.382  75.656 219.174 -0.22 -0.05    +0.115 C  
DOCKED: ATOM     22  C   UNL     1     141.152  77.947 218.409 -0.15 -0.01    +0.022 C  
DOCKED: ATOM     23  C   UNL     1     143.328  76.831 218.859 -0.31 -0.02    +0.030 C  
DOCKED: ATOM     24  C   UNL     1     142.554  77.717 217.906 -0.30 -0.00    +0.004 C  
DOCKED: BRANCH  21  25
DOCKED: ATOM     25  C   UNL     1     143.183  74.546 219.751 -0.31 +0.01    -0.025 A  
DOCKED: ATOM     26  C   UNL     1     144.379  74.874 220.408 -0.40 -0.00    +0.006 A  
DOCKED: ATOM     27  C   UNL     1     142.753  73.241 219.640 -0.20 -0.00    +0.006 A  
DOCKED: ATOM     28  C   UNL     1     145.121  73.820 220.946 -0.56 -0.00    +0.000 A  
DOCKED: ATOM     29  C   UNL     1     143.499  72.195 220.179 -0.28 -0.00    +0.000 A  
DOCKED: ATOM     30  C   UNL     1     144.675  72.523 220.824 -0.43 -0.00    +0.000 A  
DOCKED: ENDBRANCH  21  25
DOCKED: ENDBRANCH  17  19
DOCKED: ENDBRANCH   1  17
DOCKED: TORSDOF 5
DOCKED: TER
DOCKED: ENDMDL
________________________________________________________________________________


    FINAL DOCKED STATE:
    ________________________


Run:   20 / 20
Time taken for this run:   0.024s

DOCKED: MODEL        20
DOCKED: USER    Run = 20
DOCKED: USER
DOCKED: USER    Estimated Free Energy of Binding    =  -8.17 kcal/mol  [=(1)+(2)+(3)-(4)]
DOCKED: USER
DOCKED: USER    (1) Final Intermolecular Energy     =  -9.66 kcal/mol
DOCKED: USER        vdW + Hbond + desolv Energy     =  -9.63 kcal/mol
DOCKED: USER        Electrostatic Energy            =  -0.03 kcal/mol
DOCKED: USER        Moving Ligand-Fixed Receptor    =  -9.66 kcal/mol
DOCKED: USER        Moving Ligand-Moving Receptor   =  +0.00 kcal/mol
DOCKED: USER    (2) Final Total Internal Energy     =  -1.88 kcal/mol
DOCKED: USER    (3) Torsional Free Energy           =  +1.49 kcal/mol
DOCKED: USER    (4) Unbound System's Energy         =  -1.88 kcal/mol
DOCKED: USER
DOCKED: USER
DOCKED: REMARK SMILES O=C(NCC(=O)N1CCCC[C@H]1c1ccccc1)c1ccc2cc(F)ccc2n1
DOCKED: REMARK SMILES IDX 4 1 3 2 2 3 1 4 19 6 20 7 29 8 21 9 28 10 22 11 27 12 23 13
DOCKED: REMARK SMILES IDX 26 14 24 15 25 16 5 17 6 18 7 19 8 20 12 21 9 22 11 23 10 24
DOCKED: REMARK SMILES IDX 13 25 14 26 18 27 15 28 17 29 16 30
DOCKED: REMARK H PARENT 3 5
DOCKED: USER                              x       y       z     vdW  Elec       q    Type
DOCKED: USER                           _______ _______ _______ _____ _____    ______ ____
DOCKED: ROOT
DOCKED: ATOM      1  C   UNL     1     140.038  74.187 221.147 -0.18 -0.04    +0.216 C  
DOCKED: ENDROOT
DOCKED: BRANCH   1   2
DOCKED: ATOM      2  N   UNL     1     139.881  73.445 222.348 -0.13 +0.04    -0.342 N  
DOCKED: ATOM      3  C   UNL     1     140.198  72.034 222.265 -0.20 -0.04    +0.270 C  
DOCKED: ATOM      4  O   UNL     1     140.585  71.588 221.139 -0.11 +0.04    -0.268 OA 
DOCKED: ATOM      5  H   UNL     1     139.592  73.753 223.286 -0.48 -0.03    +0.164 HD 
DOCKED: BRANCH   3   6
DOCKED: ATOM      6  C   UNL     1     140.068  71.189 223.442 -0.30 -0.02    +0.128 A  
DOCKED: ATOM      7  C   UNL     1     139.508  69.943 223.267 -0.23 -0.01    +0.035 A  
DOCKED: ATOM      8  N   UNL     1     140.478  71.606 224.656 -0.30 +0.04    -0.243 NA 
DOCKED: ATOM      9  C   UNL     1     139.383  69.138 224.382 -0.32 -0.00    +0.013 A  
DOCKED: ATOM     10  C   UNL     1     140.369  70.843 225.760 -0.52 -0.01    +0.071 A  
DOCKED: ATOM     11  C   UNL     1     139.813  69.590 225.620 -0.45 -0.00    +0.003 A  
DOCKED: ATOM     12  C   UNL     1     140.814  71.344 226.967 -0.70 -0.01    +0.032 A  
DOCKED: ATOM     13  C   UNL     1     139.704  68.812 226.761 -0.53 -0.01    +0.049 A  
DOCKED: ATOM     14  C   UNL     1     140.702  70.571 228.082 -0.61 -0.01    +0.041 A  
DOCKED: ATOM     15  C   UNL     1     140.149  69.310 227.974 -0.53 -0.02    +0.123 A  
DOCKED: ATOM     16  F   UNL     1     140.064  68.585 229.126 -0.13 +0.04    -0.207 F  
DOCKED: ENDBRANCH   3   6
DOCKED: ENDBRANCH   1   2
DOCKED: BRANCH   1  17
DOCKED: ATOM     17  C   UNL     1     140.901  75.360 221.120 -0.22 -0.07    +0.242 C  
DOCKED: ATOM     18  O   UNL     1     141.306  75.698 222.329 -0.32 +0.07    -0.273 OA 
DOCKED: BRANCH  17  19
DOCKED: ATOM     19  N   UNL     1     141.371  76.179 220.104 -0.08 +0.14    -0.334 N  
DOCKED: ATOM     20  C   UNL     1     141.024  77.567 219.869 -0.17 -0.05    +0.120 C  
DOCKED: ATOM     21  C   UNL     1     142.355  75.616 219.173 -0.21 -0.05    +0.115 C  
DOCKED: ATOM     22  C   UNL     1     141.162  77.920 218.389 -0.15 -0.01    +0.022 C  
DOCKED: ATOM     23  C   UNL     1     143.320  76.774 218.848 -0.33 -0.02    +0.030 C  
DOCKED: ATOM     24  C   UNL     1     142.559  77.664 217.888 -0.30 -0.00    +0.004 C  
DOCKED: BRANCH  21  25
DOCKED: ATOM     25  C   UNL     1     143.139  74.499 219.759 -0.31 +0.01    -0.025 A  
DOCKED: ATOM     26  C   UNL     1     144.328  74.816 220.433 -0.40 -0.00    +0.006 A  
DOCKED: ATOM     27  C   UNL     1     142.700  73.197 219.639 -0.19 -0.00    +0.006 A  
DOCKED: ATOM     28  C   UNL     1     145.054  73.755 220.980 -0.55 -0.00    +0.000 A  
DOCKED: ATOM     29  C   UNL     1     143.430  72.145 220.186 -0.28 -0.00    +0.000 A  
DOCKED: ATOM     30  C   UNL     1     144.599  72.462 220.848 -0.41 -0.00    +0.000 A  
DOCKED: ENDBRANCH  21  25
DOCKED: ENDBRANCH  17  19
DOCKED: ENDBRANCH   1  17
DOCKED: TORSDOF 5
DOCKED: TER
DOCKED: ENDMDL
________________________________________________________________________________


    CLUSTERING HISTOGRAM
    ____________________


________________________________________________________________________________
     |           |     |           |     |
Clus | Lowest    | Run | Mean      | Num | Histogram
-ter | Binding   |     | Binding   | in  |
Rank | Energy    |     | Energy    | Clus|    5    10   15   20   25   30   35
_____|___________|_____|___________|_____|____:____|____:____|____:____|____:___
   1 |     -8.24 |   5 |     -8.16 |  17 |#################
   2 |     -7.86 |   1 |     -7.64 |   3 |###
_____|___________|_____|___________|_____|______________________________________


    RMSD TABLE
    __________


_______________________________________________________________________
     |      |      |           |         |                 |
Rank | Sub- | Run  | Binding   | Cluster | Reference       | Grep
     | Rank |      | Energy    | RMSD    | RMSD            | Pattern
_____|______|______|___________|_________|_________________|___________
   1      1      5       -8.24      0.00    270.71           RANKING
   1      2      9       -8.23      0.26    270.66           RANKING
   1      3      7       -8.23      0.11    270.65           RANKING
   1      4      8       -8.22      0.11    270.64           RANKING
   1      5     18       -8.22      0.40    270.72           RANKING
   1      6     17       -8.22      0.39    270.71           RANKING
   1      7     13       -8.21      0.31    270.68           RANKING
   1      8      4       -8.21      0.37    270.74           RANKING
   1      9     19       -8.20      0.37    270.74           RANKING
   1     10     14       -8.19      0.37    270.73           RANKING
   1     11     12       -8.19      0.38    270.72           RANKING
   1     12     15       -8.19      0.37    270.75           RANKING
   1     13      2       -8.19      0.38    270.73           RANKING
   1     14     20       -8.17      0.40    270.73           RANKING
   1     15      6       -8.16      0.37    270.71           RANKING
   1     16     10       -8.15      0.38    270.68           RANKING
   1     17     11       -7.56      1.88    270.70           RANKING
   2      1      1       -7.86      0.00    270.61           RANKING
   2      2     16       -7.56      1.30    270.61           RANKING
   2      3      3       -7.52      1.20    270.63           RANKING

Run time 0.453 sec
Idle time 0.000 sec
