AutoDock-GPU version: v1.6

**********************************************************
**    AutoDock-GPU AUTODOCKTOOLS-COMPATIBLE DLG FILE    **
**********************************************************


    DOCKING PARAMETERS
    ________________________


Ligand file:                               /home/a/REINVENT4/ReinventStudies/pleaseWork/justmol2mol_4_Compounds_ontop/graph-dock-amy28i/graph-DockGPU/node-autodockgpu/inputs/FZWQMCRGAOFRRU-BAKOIFDKNA-N.pdbqt
Grid fld file:                             /home/a/REINVENT4/ReinventStudies/mols/Rad51/maps/rad51_receptor.maps.fld

Random seed:                               42
Number of runs:                            20
Number of energy evaluations:              1132076
Number of generations:                     42000
Size of population:                        150
Rate of crossover:                         80.000000%
Tournament selection probability limit:    60.000000%
Rate of mutation:                          2.000000%
Maximal allowed delta movement:            +/- 6.000000A
Maximal allowed delta angle:               +/- 90.000000

Rate of local search:                      100.000000%
Maximal number of local search iterations: 300
Rho lower bound:                           0.010000
Spread of local search delta movement:     2.000000A
Spread of local search delta angle:        74.999999
Limit of consecutive successes/failures:   4

Handle symmetry during clustering:         YES
RMSD tolerance:                            2.000000A

Program call in command line was:          /home/a/REINVENT4/ReinventStudies/adgpu-v1.6_linux_x64_cuda12_128wi --filelist batch.txt --heuristics 1 --nrun 20 --psize 150 --lsit 300 --seed 42 --heurmax 12000000 


    GRID PARAMETERS
    ________________________


Receptor name:                             rad51_receptor
Number of grid points (x, y, z):           53, 53, 53
Grid center (x, y, z):                     139.950000, 75.640000, 221.970000A
Grid size (x, y, z):                       19.500000, 19.500000, 19.500000A
Grid spacing:                              0.375000A


    LIGAND PARAMETERS
    ________________________


Ligand name:                               /home/a/REINVENT4/ReinventStudies/pleaseWork/justmol2mol_4_Compounds_ontop/graph-dock-amy28i/graph-DockGPU/node-autodockgpu/inputs/FZWQMCRGAOFRRU-BAKOIFDKNA-N
Number of atoms:                           30
Number of rotatable bonds:                 5
Number of atom types:                      7


    DUMMY DATA (only for ADT-compatibility)
    ________________________


DPF> outlev 1
DPF> ga_run 20
DPF> fld /home/a/REINVENT4/ReinventStudies/mols/Rad51/maps/rad51_receptor.maps.fld
DPF> move /home/a/REINVENT4/ReinventStudies/pleaseWork/justmol2mol_4_Compounds_ontop/graph-dock-amy28i/graph-DockGPU/node-autodockgpu/inputs/FZWQMCRGAOFRRU-BAKOIFDKNA-N.pdbqt


    COUNTER STATES
    ________________________


Number of energy evaluations performed:    676371
Number of generations used:                35


    INPUT LIGAND PDBQT FILE:
    ________________________


INPUT-LIGAND-PDBQT: REMARK SMILES O=C(NCC(=O)N1CCCC[C@@H]1c1ccccc1)c1ccc2cc(F)ccc2n1
INPUT-LIGAND-PDBQT: REMARK SMILES IDX 4 1 3 2 2 3 1 4 19 6 20 7 29 8 21 9 28 10 22 11 27 12 23 13
INPUT-LIGAND-PDBQT: REMARK SMILES IDX 26 14 24 15 25 16 5 17 6 18 7 19 8 20 12 21 9 22 11 23 10 24
INPUT-LIGAND-PDBQT: REMARK SMILES IDX 13 25 14 26 18 27 15 28 17 29 16 30
INPUT-LIGAND-PDBQT: REMARK H PARENT 3 5
INPUT-LIGAND-PDBQT: ROOT
INPUT-LIGAND-PDBQT: ATOM      1  C   UNL     1      -0.074  -0.239   0.754  1.00  0.00     0.216 C 
INPUT-LIGAND-PDBQT: ENDROOT
INPUT-LIGAND-PDBQT: BRANCH   1   2
INPUT-LIGAND-PDBQT: ATOM      2  N   UNL     1       1.336  -0.019   0.525  1.00  0.00    -0.342 N 
INPUT-LIGAND-PDBQT: ATOM      3  C   UNL     1       2.124  -0.920  -0.241  1.00  0.00     0.270 C 
INPUT-LIGAND-PDBQT: ATOM      4  O   UNL     1       1.586  -1.960  -0.749  1.00  0.00    -0.268 OA
INPUT-LIGAND-PDBQT: ATOM      5  H   UNL     1       1.843   0.826   0.920  1.00  0.00     0.164 HD
INPUT-LIGAND-PDBQT: BRANCH   3   6
INPUT-LIGAND-PDBQT: ATOM      6  C   UNL     1       3.546  -0.658  -0.448  1.00  0.00     0.128 A 
INPUT-LIGAND-PDBQT: ATOM      7  C   UNL     1       4.298  -1.544  -1.195  1.00  0.00     0.035 A 
INPUT-LIGAND-PDBQT: ATOM      8  N   UNL     1       4.113   0.444   0.091  1.00  0.00    -0.243 NA
INPUT-LIGAND-PDBQT: ATOM      9  C   UNL     1       5.645  -1.301  -1.393  1.00  0.00     0.013 A 
INPUT-LIGAND-PDBQT: ATOM     10  C   UNL     1       5.426   0.661  -0.115  1.00  0.00     0.071 A 
INPUT-LIGAND-PDBQT: ATOM     11  C   UNL     1       6.232  -0.176  -0.845  1.00  0.00     0.003 A 
INPUT-LIGAND-PDBQT: ATOM     12  C   UNL     1       5.951   1.809   0.464  1.00  0.00     0.032 A 
INPUT-LIGAND-PDBQT: ATOM     13  C   UNL     1       7.590   0.089  -1.034  1.00  0.00     0.049 A 
INPUT-LIGAND-PDBQT: ATOM     14  C   UNL     1       7.283   2.091   0.293  1.00  0.00     0.041 A 
INPUT-LIGAND-PDBQT: ATOM     15  C   UNL     1       8.080   1.237  -0.445  1.00  0.00     0.123 A 
INPUT-LIGAND-PDBQT: ATOM     16  F   UNL     1       9.401   1.508  -0.620  1.00  0.00    -0.207 F 
INPUT-LIGAND-PDBQT: ENDBRANCH   3   6
INPUT-LIGAND-PDBQT: ENDBRANCH   1   2
INPUT-LIGAND-PDBQT: BRANCH   1  17
INPUT-LIGAND-PDBQT: ATOM     17  C   UNL     1      -0.851  -0.290  -0.492  1.00  0.00     0.242 C 
INPUT-LIGAND-PDBQT: ATOM     18  O   UNL     1      -0.356  -0.159  -1.634  1.00  0.00    -0.273 OA
INPUT-LIGAND-PDBQT: BRANCH  17  19
INPUT-LIGAND-PDBQT: ATOM     19  N   UNL     1      -2.254  -0.501  -0.413  1.00  0.00    -0.334 N 
INPUT-LIGAND-PDBQT: ATOM     20  C   UNL     1      -3.098  -0.569  -1.615  1.00  0.00     0.120 C 
INPUT-LIGAND-PDBQT: ATOM     21  C   UNL     1      -2.963  -0.665   0.847  1.00  0.00     0.115 C 
INPUT-LIGAND-PDBQT: ATOM     22  C   UNL     1      -3.702  -1.940  -1.624  1.00  0.00     0.022 C 
INPUT-LIGAND-PDBQT: ATOM     23  C   UNL     1      -3.750  -1.942   0.884  1.00  0.00     0.030 C 
INPUT-LIGAND-PDBQT: ATOM     24  C   UNL     1      -4.507  -2.220  -0.380  1.00  0.00     0.004 C 
INPUT-LIGAND-PDBQT: BRANCH  21  25
INPUT-LIGAND-PDBQT: ATOM     25  C   UNL     1      -3.769   0.562   1.021  1.00  0.00    -0.025 A 
INPUT-LIGAND-PDBQT: ATOM     26  C   UNL     1      -3.126   1.769   0.757  1.00  0.00     0.006 A 
INPUT-LIGAND-PDBQT: ATOM     27  C   UNL     1      -5.064   0.616   1.409  1.00  0.00     0.006 A 
INPUT-LIGAND-PDBQT: ATOM     28  C   UNL     1      -3.798   2.971   0.891  1.00  0.00     0.000 A 
INPUT-LIGAND-PDBQT: ATOM     29  C   UNL     1      -5.739   1.820   1.544  1.00  0.00     0.000 A 
INPUT-LIGAND-PDBQT: ATOM     30  C   UNL     1      -5.115   3.023   1.287  1.00  0.00     0.000 A 
INPUT-LIGAND-PDBQT: ENDBRANCH  21  25
INPUT-LIGAND-PDBQT: ENDBRANCH  17  19
INPUT-LIGAND-PDBQT: ENDBRANCH   1  17
INPUT-LIGAND-PDBQT: TORSDOF 5


    FINAL DOCKED STATE:
    ________________________


Run:   1 / 20
Time taken for this run:   0.028s

DOCKED: MODEL        1
DOCKED: USER    Run = 1
DOCKED: USER
DOCKED: USER    Estimated Free Energy of Binding    =  -9.17 kcal/mol  [=(1)+(2)+(3)-(4)]
DOCKED: USER
DOCKED: USER    (1) Final Intermolecular Energy     = -10.66 kcal/mol
DOCKED: USER        vdW + Hbond + desolv Energy     = -10.56 kcal/mol
DOCKED: USER        Electrostatic Energy            =  -0.10 kcal/mol
DOCKED: USER        Moving Ligand-Fixed Receptor    = -10.66 kcal/mol
DOCKED: USER        Moving Ligand-Moving Receptor   =  +0.00 kcal/mol
DOCKED: USER    (2) Final Total Internal Energy     =  -1.50 kcal/mol
DOCKED: USER    (3) Torsional Free Energy           =  +1.49 kcal/mol
DOCKED: USER    (4) Unbound System's Energy         =  -1.50 kcal/mol
DOCKED: USER
DOCKED: USER
DOCKED: REMARK SMILES O=C(NCC(=O)N1CCCC[C@@H]1c1ccccc1)c1ccc2cc(F)ccc2n1
DOCKED: REMARK SMILES IDX 4 1 3 2 2 3 1 4 19 6 20 7 29 8 21 9 28 10 22 11 27 12 23 13
DOCKED: REMARK SMILES IDX 26 14 24 15 25 16 5 17 6 18 7 19 8 20 12 21 9 22 11 23 10 24
DOCKED: REMARK SMILES IDX 13 25 14 26 18 27 15 28 17 29 16 30
DOCKED: REMARK H PARENT 3 5
DOCKED: USER                              x       y       z     vdW  Elec       q    Type
DOCKED: USER                           _______ _______ _______ _____ _____    ______ ____
DOCKED: ROOT
DOCKED: ATOM      1  C   UNL     1     139.759  74.515 221.199 -0.18 -0.04    +0.216 C  
DOCKED: ENDROOT
DOCKED: BRANCH   1   2
DOCKED: ATOM      2  N   UNL     1     139.602  73.595 222.303 -0.13 +0.06    -0.342 N  
DOCKED: ATOM      3  C   UNL     1     140.428  72.448 222.451 -0.20 -0.02    +0.270 C  
DOCKED: ATOM      4  O   UNL     1     141.341  72.208 221.592 -0.19 +0.02    -0.268 OA 
DOCKED: ATOM      5  H   UNL     1     138.861  73.738 223.050 -0.54 -0.10    +0.164 HD 
DOCKED: BRANCH   3   6
DOCKED: ATOM      6  C   UNL     1     140.234  71.546 223.583 -0.33 -0.02    +0.128 A  
DOCKED: ATOM      7  C   UNL     1     139.568  70.350 223.392 -0.28 -0.01    +0.035 A  
DOCKED: ATOM      8  N   UNL     1     140.704  71.886 224.804 -0.27 +0.03    -0.243 NA 
DOCKED: ATOM      9  C   UNL     1     139.381  69.493 224.461 -0.34 -0.00    +0.013 A  
DOCKED: ATOM     10  C   UNL     1     140.511  71.035 225.830 -0.54 -0.01    +0.071 A  
DOCKED: ATOM     11  C   UNL     1     139.860  69.833 225.712 -0.47 -0.00    +0.003 A  
DOCKED: ATOM     12  C   UNL     1     141.017  71.440 227.058 -0.72 -0.01    +0.032 A  
DOCKED: ATOM     13  C   UNL     1     139.683  68.981 226.804 -0.52 -0.01    +0.049 A  
DOCKED: ATOM     14  C   UNL     1     140.855  70.620 228.147 -0.60 -0.01    +0.041 A  
DOCKED: ATOM     15  C   UNL     1     140.196  69.414 228.010 -0.52 -0.02    +0.123 A  
DOCKED: ATOM     16  F   UNL     1     140.031  68.594 229.083 -0.14 +0.04    -0.207 F  
DOCKED: ENDBRANCH   3   6
DOCKED: ENDBRANCH   1   2
DOCKED: BRANCH   1  17
DOCKED: ATOM     17  C   UNL     1     139.653  75.921 221.611 -0.22 -0.05    +0.242 C  
DOCKED: ATOM     18  O   UNL     1     138.830  76.345 222.454 -0.25 +0.06    -0.273 OA 
DOCKED: BRANCH  17  19
DOCKED: ATOM     19  N   UNL     1     140.532  76.872 221.027 -0.10 +0.12    -0.334 N  
DOCKED: ATOM     20  C   UNL     1     141.859  76.494 220.519 -0.19 -0.07    +0.120 C  
DOCKED: ATOM     21  C   UNL     1     140.197  78.281 220.884 -0.17 -0.04    +0.115 C  
DOCKED: ATOM     22  C   UNL     1     141.846  76.797 219.052 -0.23 -0.01    +0.022 C  
DOCKED: ATOM     23  C   UNL     1     140.317  78.743 219.461 -0.12 -0.01    +0.030 C  
DOCKED: ATOM     24  C   UNL     1     141.552  78.249 218.769 -0.22 -0.00    +0.004 C  
DOCKED: BRANCH  21  25
DOCKED: ATOM     25  C   UNL     1     141.062  79.002 221.842 -0.36 +0.01    -0.025 A  
DOCKED: ATOM     26  C   UNL     1     141.044  78.546 223.158 -0.52 -0.00    +0.006 A  
DOCKED: ATOM     27  C   UNL     1     141.863  80.054 221.556 -0.43 -0.00    +0.006 A  
DOCKED: ATOM     28  C   UNL     1     141.820  79.157 224.127 -0.58 -0.00    +0.000 A  
DOCKED: ATOM     29  C   UNL     1     142.641  80.667 222.526 -0.56 -0.00    +0.000 A  
DOCKED: ATOM     30  C   UNL     1     142.633  80.228 223.834 -0.65 -0.00    +0.000 A  
DOCKED: ENDBRANCH  21  25
DOCKED: ENDBRANCH  17  19
DOCKED: ENDBRANCH   1  17
DOCKED: TORSDOF 5
DOCKED: TER
DOCKED: ENDMDL
________________________________________________________________________________


    FINAL DOCKED STATE:
    ________________________


Run:   2 / 20
Time taken for this run:   0.028s

DOCKED: MODEL        2
DOCKED: USER    Run = 2
DOCKED: USER
DOCKED: USER    Estimated Free Energy of Binding    =  -9.21 kcal/mol  [=(1)+(2)+(3)-(4)]
DOCKED: USER
DOCKED: USER    (1) Final Intermolecular Energy     = -10.71 kcal/mol
DOCKED: USER        vdW + Hbond + desolv Energy     = -10.61 kcal/mol
DOCKED: USER        Electrostatic Energy            =  -0.09 kcal/mol
DOCKED: USER        Moving Ligand-Fixed Receptor    = -10.71 kcal/mol
DOCKED: USER        Moving Ligand-Moving Receptor   =  +0.00 kcal/mol
DOCKED: USER    (2) Final Total Internal Energy     =  -1.46 kcal/mol
DOCKED: USER    (3) Torsional Free Energy           =  +1.49 kcal/mol
DOCKED: USER    (4) Unbound System's Energy         =  -1.46 kcal/mol
DOCKED: USER
DOCKED: USER
DOCKED: REMARK SMILES O=C(NCC(=O)N1CCCC[C@@H]1c1ccccc1)c1ccc2cc(F)ccc2n1
DOCKED: REMARK SMILES IDX 4 1 3 2 2 3 1 4 19 6 20 7 29 8 21 9 28 10 22 11 27 12 23 13
DOCKED: REMARK SMILES IDX 26 14 24 15 25 16 5 17 6 18 7 19 8 20 12 21 9 22 11 23 10 24
DOCKED: REMARK SMILES IDX 13 25 14 26 18 27 15 28 17 29 16 30
DOCKED: REMARK H PARENT 3 5
DOCKED: USER                              x       y       z     vdW  Elec       q    Type
DOCKED: USER                           _______ _______ _______ _____ _____    ______ ____
DOCKED: ROOT
DOCKED: ATOM      1  C   UNL     1     139.307  74.392 221.240 -0.16 -0.04    +0.216 C  
DOCKED: ENDROOT
DOCKED: BRANCH   1   2
DOCKED: ATOM      2  N   UNL     1     139.265  73.451 222.336 -0.10 +0.08    -0.342 N  
DOCKED: ATOM      3  C   UNL     1     140.268  72.460 222.515 -0.20 -0.03    +0.270 C  
DOCKED: ATOM      4  O   UNL     1     141.241  72.385 221.693 -0.21 +0.02    -0.268 OA 
DOCKED: ATOM      5  H   UNL     1     138.483  73.460 223.053 -0.52 -0.11    +0.164 HD 
DOCKED: BRANCH   3   6
DOCKED: ATOM      6  C   UNL     1     140.187  71.529 223.638 -0.33 -0.02    +0.128 A  
DOCKED: ATOM      7  C   UNL     1     139.613  70.287 223.450 -0.27 -0.01    +0.035 A  
DOCKED: ATOM      8  N   UNL     1     140.672  71.889 224.847 -0.28 +0.03    -0.243 NA 
DOCKED: ATOM      9  C   UNL     1     139.533  69.402 224.510 -0.34 -0.00    +0.013 A  
DOCKED: ATOM     10  C   UNL     1     140.585  71.011 225.865 -0.54 -0.01    +0.071 A  
DOCKED: ATOM     11  C   UNL     1     140.027  69.763 225.749 -0.47 -0.00    +0.003 A  
DOCKED: ATOM     12  C   UNL     1     141.100  71.438 227.082 -0.71 -0.01    +0.032 A  
DOCKED: ATOM     13  C   UNL     1     139.958  68.884 226.833 -0.55 -0.01    +0.049 A  
DOCKED: ATOM     14  C   UNL     1     141.043  70.593 228.161 -0.58 -0.01    +0.041 A  
DOCKED: ATOM     15  C   UNL     1     140.478  69.339 228.027 -0.52 -0.02    +0.123 A  
DOCKED: ATOM     16  F   UNL     1     140.417  68.494 229.091 -0.16 +0.04    -0.207 F  
DOCKED: ENDBRANCH   3   6
DOCKED: ENDBRANCH   1   2
DOCKED: BRANCH   1  17
DOCKED: ATOM     17  C   UNL     1     139.458  75.783 221.690 -0.21 -0.05    +0.242 C  
DOCKED: ATOM     18  O   UNL     1     138.734  76.323 222.557 -0.26 +0.06    -0.273 OA 
DOCKED: BRANCH  17  19
DOCKED: ATOM     19  N   UNL     1     140.487  76.577 221.116 -0.11 +0.11    -0.334 N  
DOCKED: ATOM     20  C   UNL     1     141.825  76.035 220.840 -0.15 -0.06    +0.120 C  
DOCKED: ATOM     21  C   UNL     1     140.304  77.976 220.759 -0.17 -0.04    +0.115 C  
DOCKED: ATOM     22  C   UNL     1     142.021  76.140 219.359 -0.24 -0.01    +0.022 C  
DOCKED: ATOM     23  C   UNL     1     140.640  78.234 219.319 -0.14 -0.01    +0.030 C  
DOCKED: ATOM     24  C   UNL     1     141.899  77.560 218.864 -0.26 -0.00    +0.004 C  
DOCKED: BRANCH  21  25
DOCKED: ATOM     25  C   UNL     1     141.107  78.750 221.728 -0.35 +0.01    -0.025 A  
DOCKED: ATOM     26  C   UNL     1     141.064  78.321 223.053 -0.51 -0.00    +0.006 A  
DOCKED: ATOM     27  C   UNL     1     141.875  79.828 221.446 -0.41 -0.00    +0.006 A  
DOCKED: ATOM     28  C   UNL     1     141.783  78.982 224.033 -0.60 -0.00    +0.000 A  
DOCKED: ATOM     29  C   UNL     1     142.597  80.491 222.427 -0.58 -0.00    +0.000 A  
DOCKED: ATOM     30  C   UNL     1     142.562  80.078 223.743 -0.65 -0.00    +0.000 A  
DOCKED: ENDBRANCH  21  25
DOCKED: ENDBRANCH  17  19
DOCKED: ENDBRANCH   1  17
DOCKED: TORSDOF 5
DOCKED: TER
DOCKED: ENDMDL
________________________________________________________________________________


    FINAL DOCKED STATE:
    ________________________


Run:   3 / 20
Time taken for this run:   0.028s

DOCKED: MODEL        3
DOCKED: USER    Run = 3
DOCKED: USER
DOCKED: USER    Estimated Free Energy of Binding    =  -9.18 kcal/mol  [=(1)+(2)+(3)-(4)]
DOCKED: USER
DOCKED: USER    (1) Final Intermolecular Energy     = -10.67 kcal/mol
DOCKED: USER        vdW + Hbond + desolv Energy     = -10.57 kcal/mol
DOCKED: USER        Electrostatic Energy            =  -0.10 kcal/mol
DOCKED: USER        Moving Ligand-Fixed Receptor    = -10.67 kcal/mol
DOCKED: USER        Moving Ligand-Moving Receptor   =  +0.00 kcal/mol
DOCKED: USER    (2) Final Total Internal Energy     =  -1.46 kcal/mol
DOCKED: USER    (3) Torsional Free Energy           =  +1.49 kcal/mol
DOCKED: USER    (4) Unbound System's Energy         =  -1.46 kcal/mol
DOCKED: USER
DOCKED: USER
DOCKED: REMARK SMILES O=C(NCC(=O)N1CCCC[C@@H]1c1ccccc1)c1ccc2cc(F)ccc2n1
DOCKED: REMARK SMILES IDX 4 1 3 2 2 3 1 4 19 6 20 7 29 8 21 9 28 10 22 11 27 12 23 13
DOCKED: REMARK SMILES IDX 26 14 24 15 25 16 5 17 6 18 7 19 8 20 12 21 9 22 11 23 10 24
DOCKED: REMARK SMILES IDX 13 25 14 26 18 27 15 28 17 29 16 30
DOCKED: REMARK H PARENT 3 5
DOCKED: USER                              x       y       z     vdW  Elec       q    Type
DOCKED: USER                           _______ _______ _______ _____ _____    ______ ____
DOCKED: ROOT
DOCKED: ATOM      1  C   UNL     1     139.559  74.451 221.220 -0.17 -0.04    +0.216 C  
DOCKED: ENDROOT
DOCKED: BRANCH   1   2
DOCKED: ATOM      2  N   UNL     1     139.439  73.513 222.314 -0.12 +0.07    -0.342 N  
DOCKED: ATOM      3  C   UNL     1     140.376  72.464 222.512 -0.19 -0.03    +0.270 C  
DOCKED: ATOM      4  O   UNL     1     141.360  72.331 221.710 -0.21 +0.02    -0.268 OA 
DOCKED: ATOM      5  H   UNL     1     138.644  73.569 223.015 -0.53 -0.10    +0.164 HD 
DOCKED: BRANCH   3   6
DOCKED: ATOM      6  C   UNL     1     140.217  71.539 223.632 -0.33 -0.02    +0.128 A  
DOCKED: ATOM      7  C   UNL     1     139.573  70.334 223.430 -0.28 -0.01    +0.035 A  
DOCKED: ATOM      8  N   UNL     1     140.697  71.869 224.851 -0.28 +0.03    -0.243 NA 
DOCKED: ATOM      9  C   UNL     1     139.418  69.455 224.487 -0.34 -0.00    +0.013 A  
DOCKED: ATOM     10  C   UNL     1     140.536  70.998 225.865 -0.54 -0.01    +0.071 A  
DOCKED: ATOM     11  C   UNL     1     139.907  69.785 225.737 -0.47 -0.00    +0.003 A  
DOCKED: ATOM     12  C   UNL     1     141.050  71.392 227.094 -0.72 -0.01    +0.032 A  
DOCKED: ATOM     13  C   UNL     1     139.763  68.912 226.817 -0.53 -0.01    +0.049 A  
DOCKED: ATOM     14  C   UNL     1     140.920  70.552 228.170 -0.58 -0.01    +0.041 A  
DOCKED: ATOM     15  C   UNL     1     140.284  69.334 228.023 -0.53 -0.02    +0.123 A  
DOCKED: ATOM     16  F   UNL     1     140.151  68.495 229.084 -0.15 +0.04    -0.207 F  
DOCKED: ENDBRANCH   3   6
DOCKED: ENDBRANCH   1   2
DOCKED: BRANCH   1  17
DOCKED: ATOM     17  C   UNL     1     139.582  75.849 221.671 -0.22 -0.05    +0.242 C  
DOCKED: ATOM     18  O   UNL     1     138.828  76.314 222.555 -0.26 +0.06    -0.273 OA 
DOCKED: BRANCH  17  19
DOCKED: ATOM     19  N   UNL     1     140.512  76.743 221.075 -0.11 +0.11    -0.334 N  
DOCKED: ATOM     20  C   UNL     1     141.840  76.297 220.628 -0.16 -0.06    +0.120 C  
DOCKED: ATOM     21  C   UNL     1     140.233  78.155 220.861 -0.17 -0.04    +0.115 C  
DOCKED: ATOM     22  C   UNL     1     141.885  76.536 219.150 -0.23 -0.01    +0.022 C  
DOCKED: ATOM     23  C   UNL     1     140.414  78.550 219.425 -0.13 -0.01    +0.030 C  
DOCKED: ATOM     24  C   UNL     1     141.652  77.984 218.796 -0.23 -0.00    +0.004 C  
DOCKED: BRANCH  21  25
DOCKED: ATOM     25  C   UNL     1     141.092  78.887 221.816 -0.36 +0.01    -0.025 A  
DOCKED: ATOM     26  C   UNL     1     141.050  78.461 223.141 -0.51 -0.00    +0.006 A  
DOCKED: ATOM     27  C   UNL     1     141.910  79.923 221.518 -0.42 -0.00    +0.006 A  
DOCKED: ATOM     28  C   UNL     1     141.820  79.083 224.108 -0.59 -0.00    +0.000 A  
DOCKED: ATOM     29  C   UNL     1     142.682  80.549 222.486 -0.57 -0.00    +0.000 A  
DOCKED: ATOM     30  C   UNL     1     142.649  80.138 223.803 -0.64 -0.00    +0.000 A  
DOCKED: ENDBRANCH  21  25
DOCKED: ENDBRANCH  17  19
DOCKED: ENDBRANCH   1  17
DOCKED: TORSDOF 5
DOCKED: TER
DOCKED: ENDMDL
________________________________________________________________________________


    FINAL DOCKED STATE:
    ________________________


Run:   4 / 20
Time taken for this run:   0.028s

DOCKED: MODEL        4
DOCKED: USER    Run = 4
DOCKED: USER
DOCKED: USER    Estimated Free Energy of Binding    =  -8.90 kcal/mol  [=(1)+(2)+(3)-(4)]
DOCKED: USER
DOCKED: USER    (1) Final Intermolecular Energy     = -10.39 kcal/mol
DOCKED: USER        vdW + Hbond + desolv Energy     = -10.29 kcal/mol
DOCKED: USER        Electrostatic Energy            =  -0.11 kcal/mol
DOCKED: USER        Moving Ligand-Fixed Receptor    = -10.39 kcal/mol
DOCKED: USER        Moving Ligand-Moving Receptor   =  +0.00 kcal/mol
DOCKED: USER    (2) Final Total Internal Energy     =  -1.68 kcal/mol
DOCKED: USER    (3) Torsional Free Energy           =  +1.49 kcal/mol
DOCKED: USER    (4) Unbound System's Energy         =  -1.68 kcal/mol
DOCKED: USER
DOCKED: USER
DOCKED: REMARK SMILES O=C(NCC(=O)N1CCCC[C@@H]1c1ccccc1)c1ccc2cc(F)ccc2n1
DOCKED: REMARK SMILES IDX 4 1 3 2 2 3 1 4 19 6 20 7 29 8 21 9 28 10 22 11 27 12 23 13
DOCKED: REMARK SMILES IDX 26 14 24 15 25 16 5 17 6 18 7 19 8 20 12 21 9 22 11 23 10 24
DOCKED: REMARK SMILES IDX 13 25 14 26 18 27 15 28 17 29 16 30
DOCKED: REMARK H PARENT 3 5
DOCKED: USER                              x       y       z     vdW  Elec       q    Type
DOCKED: USER                           _______ _______ _______ _____ _____    ______ ____
DOCKED: ROOT
DOCKED: ATOM      1  C   UNL     1     139.089  72.754 221.944 -0.16 -0.05    +0.216 C  
DOCKED: ENDROOT
DOCKED: BRANCH   1   2
DOCKED: ATOM      2  N   UNL     1     139.557  74.119 222.026 -0.15 +0.06    -0.342 N  
DOCKED: ATOM      3  C   UNL     1     140.515  74.642 221.117 -0.19 -0.05    +0.270 C  
DOCKED: ATOM      4  O   UNL     1     140.986  73.899 220.193 -0.09 +0.06    -0.268 OA 
DOCKED: ATOM      5  H   UNL     1     139.205  74.788 222.771 -0.40 -0.04    +0.164 HD 
DOCKED: BRANCH   3   6
DOCKED: ATOM      6  C   UNL     1     140.960  76.029 221.236 -0.27 -0.04    +0.128 A  
DOCKED: ATOM      7  C   UNL     1     141.757  76.574 220.249 -0.27 -0.02    +0.035 A  
DOCKED: ATOM      8  N   UNL     1     140.590  76.764 222.308 -0.27 +0.07    -0.243 NA 
DOCKED: ATOM      9  C   UNL     1     142.181  77.885 220.358 -0.26 -0.01    +0.013 A  
DOCKED: ATOM     10  C   UNL     1     141.015  78.039 222.394 -0.41 -0.03    +0.071 A  
DOCKED: ATOM     11  C   UNL     1     141.808  78.644 221.451 -0.40 -0.00    +0.003 A  
DOCKED: ATOM     12  C   UNL     1     140.603  78.743 223.518 -0.39 -0.01    +0.032 A  
DOCKED: ATOM     13  C   UNL     1     142.224  79.971 221.580 -0.39 -0.02    +0.049 A  
DOCKED: ATOM     14  C   UNL     1     140.999  80.048 223.668 -0.48 -0.01    +0.041 A  
DOCKED: ATOM     15  C   UNL     1     141.798  80.641 222.709 -0.46 -0.03    +0.123 A  
DOCKED: ATOM     16  F   UNL     1     142.196  81.934 222.848 -0.10 +0.03    -0.207 F  
DOCKED: ENDBRANCH   3   6
DOCKED: ENDBRANCH   1   2
DOCKED: BRANCH   1  17
DOCKED: ATOM     17  C   UNL     1     139.914  71.822 222.724 -0.23 -0.04    +0.242 C  
DOCKED: ATOM     18  O   UNL     1     141.137  71.636 222.532 -0.18 +0.02    -0.273 OA 
DOCKED: BRANCH  17  19
DOCKED: ATOM     19  N   UNL     1     139.300  71.076 223.767 -0.17 +0.07    -0.334 N  
DOCKED: ATOM     20  C   UNL     1     137.921  71.340 224.203 -0.00 -0.03    +0.120 C  
DOCKED: ATOM     21  C   UNL     1     139.977  70.003 224.481 -0.29 -0.02    +0.115 C  
DOCKED: ATOM     22  C   UNL     1     137.152  70.082 223.940 -0.24 -0.00    +0.022 C  
DOCKED: ATOM     23  C   UNL     1     139.201  68.720 224.427 -0.33 -0.00    +0.030 C  
DOCKED: ATOM     24  C   UNL     1     137.731  68.893 224.665 -0.28 -0.00    +0.004 C  
DOCKED: BRANCH  21  25
DOCKED: ATOM     25  C   UNL     1     140.225  70.518 225.844 -0.52 +0.00    -0.025 A  
DOCKED: ATOM     26  C   UNL     1     140.986  71.680 225.939 -0.61 -0.00    +0.006 A  
DOCKED: ATOM     27  C   UNL     1     139.782  69.965 226.997 -0.53 -0.00    +0.006 A  
DOCKED: ATOM     28  C   UNL     1     141.271  72.239 227.173 -0.81 -0.00    +0.000 A  
DOCKED: ATOM     29  C   UNL     1     140.067  70.523 228.234 -0.63 -0.00    +0.000 A  
DOCKED: ATOM     30  C   UNL     1     140.820  71.674 228.344 -0.77 -0.00    +0.000 A  
DOCKED: ENDBRANCH  21  25
DOCKED: ENDBRANCH  17  19
DOCKED: ENDBRANCH   1  17
DOCKED: TORSDOF 5
DOCKED: TER
DOCKED: ENDMDL
________________________________________________________________________________


    FINAL DOCKED STATE:
    ________________________


Run:   5 / 20
Time taken for this run:   0.028s

DOCKED: MODEL        5
DOCKED: USER    Run = 5
DOCKED: USER
DOCKED: USER    Estimated Free Energy of Binding    =  -8.84 kcal/mol  [=(1)+(2)+(3)-(4)]
DOCKED: USER
DOCKED: USER    (1) Final Intermolecular Energy     = -10.33 kcal/mol
DOCKED: USER        vdW + Hbond + desolv Energy     = -10.29 kcal/mol
DOCKED: USER        Electrostatic Energy            =  -0.04 kcal/mol
DOCKED: USER        Moving Ligand-Fixed Receptor    = -10.33 kcal/mol
DOCKED: USER        Moving Ligand-Moving Receptor   =  +0.00 kcal/mol
DOCKED: USER    (2) Final Total Internal Energy     =  -1.41 kcal/mol
DOCKED: USER    (3) Torsional Free Energy           =  +1.49 kcal/mol
DOCKED: USER    (4) Unbound System's Energy         =  -1.41 kcal/mol
DOCKED: USER
DOCKED: USER
DOCKED: REMARK SMILES O=C(NCC(=O)N1CCCC[C@@H]1c1ccccc1)c1ccc2cc(F)ccc2n1
DOCKED: REMARK SMILES IDX 4 1 3 2 2 3 1 4 19 6 20 7 29 8 21 9 28 10 22 11 27 12 23 13
DOCKED: REMARK SMILES IDX 26 14 24 15 25 16 5 17 6 18 7 19 8 20 12 21 9 22 11 23 10 24
DOCKED: REMARK SMILES IDX 13 25 14 26 18 27 15 28 17 29 16 30
DOCKED: REMARK H PARENT 3 5
DOCKED: USER                              x       y       z     vdW  Elec       q    Type
DOCKED: USER                           _______ _______ _______ _____ _____    ______ ____
DOCKED: ROOT
DOCKED: ATOM      1  C   UNL     1     139.930  74.565 221.208 -0.19 -0.04    +0.216 C  
DOCKED: ENDROOT
DOCKED: BRANCH   1   2
DOCKED: ATOM      2  N   UNL     1     139.846  73.677 222.346 -0.10 +0.03    -0.342 N  
DOCKED: ATOM      3  C   UNL     1     140.116  72.286 222.236 -0.20 -0.04    +0.270 C  
DOCKED: ATOM      4  O   UNL     1     140.442  71.789 221.107 -0.11 +0.04    -0.268 OA 
DOCKED: ATOM      5  H   UNL     1     139.580  74.027 223.312 -0.48 -0.02    +0.164 HD 
DOCKED: BRANCH   3   6
DOCKED: ATOM      6  C   UNL     1     140.020  71.425 223.413 -0.31 -0.02    +0.128 A  
DOCKED: ATOM      7  C   UNL     1     139.460  70.168 223.291 -0.25 -0.01    +0.035 A  
DOCKED: ATOM      8  N   UNL     1     140.478  71.863 224.606 -0.27 +0.04    -0.243 NA 
DOCKED: ATOM      9  C   UNL     1     139.366  69.350 224.402 -0.33 -0.00    +0.013 A  
DOCKED: ATOM     10  C   UNL     1     140.377  71.050 225.675 -0.52 -0.01    +0.071 A  
DOCKED: ATOM     11  C   UNL     1     139.832  69.791 225.626 -0.46 -0.00    +0.003 A  
DOCKED: ATOM     12  C   UNL     1     140.864  71.555 226.873 -0.71 -0.01    +0.032 A  
DOCKED: ATOM     13  C   UNL     1     139.748  68.980 226.760 -0.52 -0.01    +0.049 A  
DOCKED: ATOM     14  C   UNL     1     140.792  70.778 228.001 -0.66 -0.01    +0.041 A  
DOCKED: ATOM     15  C   UNL     1     140.240  69.513 227.934 -0.52 -0.02    +0.123 A  
DOCKED: ATOM     16  F   UNL     1     140.165  68.735 229.047 -0.14 +0.04    -0.207 F  
DOCKED: ENDBRANCH   3   6
DOCKED: ENDBRANCH   1   2
DOCKED: BRANCH   1  17
DOCKED: ATOM     17  C   UNL     1     141.311  74.777 220.753 -0.19 -0.06    +0.242 C  
DOCKED: ATOM     18  O   UNL     1     142.168  73.869 220.662 -0.19 +0.06    -0.273 OA 
DOCKED: BRANCH  17  19
DOCKED: ATOM     19  N   UNL     1     141.715  76.090 220.389 -0.12 +0.16    -0.334 N  
DOCKED: ATOM     20  C   UNL     1     143.080  76.382 219.927 -0.18 -0.08    +0.120 C  
DOCKED: ATOM     21  C   UNL     1     140.824  77.239 220.443 -0.19 -0.05    +0.115 C  
DOCKED: ATOM     22  C   UNL     1     142.944  76.901 218.528 -0.33 -0.01    +0.022 C  
DOCKED: ATOM     23  C   UNL     1     140.743  77.947 219.123 -0.13 -0.01    +0.030 C  
DOCKED: ATOM     24  C   UNL     1     142.072  78.130 218.454 -0.28 -0.00    +0.004 C  
DOCKED: BRANCH  21  25
DOCKED: ATOM     25  C   UNL     1     141.308  78.075 221.562 -0.35 +0.01    -0.025 A  
DOCKED: ATOM     26  C   UNL     1     141.817  79.327 221.226 -0.38 -0.00    +0.006 A  
DOCKED: ATOM     27  C   UNL     1     141.300  77.735 222.872 -0.40 -0.00    +0.006 A  
DOCKED: ATOM     28  C   UNL     1     142.293  80.182 222.205 -0.54 -0.00    +0.000 A  
DOCKED: ATOM     29  C   UNL     1     141.777  78.590 223.854 -0.60 -0.00    +0.000 A  
DOCKED: ATOM     30  C   UNL     1     142.285  79.833 223.536 -0.64 -0.00    +0.000 A  
DOCKED: ENDBRANCH  21  25
DOCKED: ENDBRANCH  17  19
DOCKED: ENDBRANCH   1  17
DOCKED: TORSDOF 5
DOCKED: TER
DOCKED: ENDMDL
________________________________________________________________________________


    FINAL DOCKED STATE:
    ________________________


Run:   6 / 20
Time taken for this run:   0.028s

DOCKED: MODEL        6
DOCKED: USER    Run = 6
DOCKED: USER
DOCKED: USER    Estimated Free Energy of Binding    =  -9.07 kcal/mol  [=(1)+(2)+(3)-(4)]
DOCKED: USER
DOCKED: USER    (1) Final Intermolecular Energy     = -10.56 kcal/mol
DOCKED: USER        vdW + Hbond + desolv Energy     = -10.47 kcal/mol
DOCKED: USER        Electrostatic Energy            =  -0.09 kcal/mol
DOCKED: USER        Moving Ligand-Fixed Receptor    = -10.56 kcal/mol
DOCKED: USER        Moving Ligand-Moving Receptor   =  +0.00 kcal/mol
DOCKED: USER    (2) Final Total Internal Energy     =  -1.55 kcal/mol
DOCKED: USER    (3) Torsional Free Energy           =  +1.49 kcal/mol
DOCKED: USER    (4) Unbound System's Energy         =  -1.55 kcal/mol
DOCKED: USER
DOCKED: USER
DOCKED: REMARK SMILES O=C(NCC(=O)N1CCCC[C@@H]1c1ccccc1)c1ccc2cc(F)ccc2n1
DOCKED: REMARK SMILES IDX 4 1 3 2 2 3 1 4 19 6 20 7 29 8 21 9 28 10 22 11 27 12 23 13
DOCKED: REMARK SMILES IDX 26 14 24 15 25 16 5 17 6 18 7 19 8 20 12 21 9 22 11 23 10 24
DOCKED: REMARK SMILES IDX 13 25 14 26 18 27 15 28 17 29 16 30
DOCKED: REMARK H PARENT 3 5
DOCKED: USER                              x       y       z     vdW  Elec       q    Type
DOCKED: USER                           _______ _______ _______ _____ _____    ______ ____
DOCKED: ROOT
DOCKED: ATOM      1  C   UNL     1     139.987  74.540 221.159 -0.19 -0.04    +0.216 C  
DOCKED: ENDROOT
DOCKED: BRANCH   1   2
DOCKED: ATOM      2  N   UNL     1     139.815  73.647 222.283 -0.12 +0.04    -0.342 N  
DOCKED: ATOM      3  C   UNL     1     140.437  72.371 222.332 -0.21 -0.03    +0.270 C  
DOCKED: ATOM      4  O   UNL     1     141.174  71.986 221.363 -0.16 +0.03    -0.268 OA 
DOCKED: ATOM      5  H   UNL     1     139.215  73.908 223.119 -0.53 -0.07    +0.164 HD 
DOCKED: BRANCH   3   6
DOCKED: ATOM      6  C   UNL     1     140.236  71.500 223.488 -0.32 -0.02    +0.128 A  
DOCKED: ATOM      7  C   UNL     1     139.605  70.283 223.319 -0.26 -0.01    +0.035 A  
DOCKED: ATOM      8  N   UNL     1     140.666  71.891 224.708 -0.27 +0.03    -0.243 NA 
DOCKED: ATOM      9  C   UNL     1     139.411  69.456 224.411 -0.33 -0.00    +0.013 A  
DOCKED: ATOM     10  C   UNL     1     140.467  71.070 225.756 -0.53 -0.01    +0.071 A  
DOCKED: ATOM     11  C   UNL     1     139.848  69.849 225.662 -0.46 -0.00    +0.003 A  
DOCKED: ATOM     12  C   UNL     1     140.931  71.526 226.983 -0.72 -0.01    +0.032 A  
DOCKED: ATOM     13  C   UNL     1     139.664  69.028 226.776 -0.52 -0.01    +0.049 A  
DOCKED: ATOM     14  C   UNL     1     140.761  70.738 228.094 -0.63 -0.01    +0.041 A  
DOCKED: ATOM     15  C   UNL     1     140.136  69.511 227.980 -0.52 -0.02    +0.123 A  
DOCKED: ATOM     16  F   UNL     1     139.963  68.724 229.075 -0.14 +0.04    -0.207 F  
DOCKED: ENDBRANCH   3   6
DOCKED: ENDBRANCH   1   2
DOCKED: BRANCH   1  17
DOCKED: ATOM     17  C   UNL     1     139.826  75.954 221.527 -0.22 -0.06    +0.242 C  
DOCKED: ATOM     18  O   UNL     1     138.968  76.376 222.334 -0.25 +0.06    -0.273 OA 
DOCKED: BRANCH  17  19
DOCKED: ATOM     19  N   UNL     1     140.691  76.915 220.938 -0.10 +0.12    -0.334 N  
DOCKED: ATOM     20  C   UNL     1     142.038  76.561 220.465 -0.16 -0.07    +0.120 C  
DOCKED: ATOM     21  C   UNL     1     140.322  78.311 220.757 -0.17 -0.04    +0.115 C  
DOCKED: ATOM     22  C   UNL     1     142.047  76.832 218.991 -0.26 -0.01    +0.022 C  
DOCKED: ATOM     23  C   UNL     1     140.459  78.744 219.327 -0.13 -0.01    +0.030 C  
DOCKED: ATOM     24  C   UNL     1     141.720  78.269 218.671 -0.24 -0.00    +0.004 C  
DOCKED: BRANCH  21  25
DOCKED: ATOM     25  C   UNL     1     141.148  79.076 221.715 -0.35 +0.01    -0.025 A  
DOCKED: ATOM     26  C   UNL     1     141.182  78.599 223.023 -0.53 -0.00    +0.006 A  
DOCKED: ATOM     27  C   UNL     1     141.869  80.186 221.436 -0.42 -0.00    +0.006 A  
DOCKED: ATOM     28  C   UNL     1     141.928  79.247 223.992 -0.58 -0.00    +0.000 A  
DOCKED: ATOM     29  C   UNL     1     142.617  80.837 222.406 -0.51 -0.00    +0.000 A  
DOCKED: ATOM     30  C   UNL     1     142.659  80.377 223.706 -0.67 -0.00    +0.000 A  
DOCKED: ENDBRANCH  21  25
DOCKED: ENDBRANCH  17  19
DOCKED: ENDBRANCH   1  17
DOCKED: TORSDOF 5
DOCKED: TER
DOCKED: ENDMDL
________________________________________________________________________________


    FINAL DOCKED STATE:
    ________________________


Run:   7 / 20
Time taken for this run:   0.028s

DOCKED: MODEL        7
DOCKED: USER    Run = 7
DOCKED: USER
DOCKED: USER    Estimated Free Energy of Binding    =  -9.03 kcal/mol  [=(1)+(2)+(3)-(4)]
DOCKED: USER
DOCKED: USER    (1) Final Intermolecular Energy     = -10.52 kcal/mol
DOCKED: USER        vdW + Hbond + desolv Energy     = -10.48 kcal/mol
DOCKED: USER        Electrostatic Energy            =  -0.04 kcal/mol
DOCKED: USER        Moving Ligand-Fixed Receptor    = -10.52 kcal/mol
DOCKED: USER        Moving Ligand-Moving Receptor   =  +0.00 kcal/mol
DOCKED: USER    (2) Final Total Internal Energy     =  -1.43 kcal/mol
DOCKED: USER    (3) Torsional Free Energy           =  +1.49 kcal/mol
DOCKED: USER    (4) Unbound System's Energy         =  -1.43 kcal/mol
DOCKED: USER
DOCKED: USER
DOCKED: REMARK SMILES O=C(NCC(=O)N1CCCC[C@@H]1c1ccccc1)c1ccc2cc(F)ccc2n1
DOCKED: REMARK SMILES IDX 4 1 3 2 2 3 1 4 19 6 20 7 29 8 21 9 28 10 22 11 27 12 23 13
DOCKED: REMARK SMILES IDX 26 14 24 15 25 16 5 17 6 18 7 19 8 20 12 21 9 22 11 23 10 24
DOCKED: REMARK SMILES IDX 13 25 14 26 18 27 15 28 17 29 16 30
DOCKED: REMARK H PARENT 3 5
DOCKED: USER                              x       y       z     vdW  Elec       q    Type
DOCKED: USER                           _______ _______ _______ _____ _____    ______ ____
DOCKED: ROOT
DOCKED: ATOM      1  C   UNL     1     140.090  74.545 221.055 -0.18 -0.04    +0.216 C  
DOCKED: ENDROOT
DOCKED: BRANCH   1   2
DOCKED: ATOM      2  N   UNL     1     139.934  73.678 222.201 -0.12 +0.03    -0.342 N  
DOCKED: ATOM      3  C   UNL     1     140.360  72.322 222.183 -0.20 -0.03    +0.270 C  
DOCKED: ATOM      4  O   UNL     1     140.898  71.840 221.131 -0.13 +0.04    -0.268 OA 
DOCKED: ATOM      5  H   UNL     1     139.494  74.018 223.105 -0.52 -0.03    +0.164 HD 
DOCKED: BRANCH   3   6
DOCKED: ATOM      6  C   UNL     1     140.183  71.482 223.364 -0.31 -0.02    +0.128 A  
DOCKED: ATOM      7  C   UNL     1     139.527  70.272 223.245 -0.25 -0.01    +0.035 A  
DOCKED: ATOM      8  N   UNL     1     140.661  71.892 224.560 -0.26 +0.03    -0.243 NA 
DOCKED: ATOM      9  C   UNL     1     139.356  69.473 224.360 -0.33 -0.00    +0.013 A  
DOCKED: ATOM     10  C   UNL     1     140.484  71.098 225.633 -0.53 -0.01    +0.071 A  
DOCKED: ATOM     11  C   UNL     1     139.842  69.886 225.587 -0.46 -0.00    +0.003 A  
DOCKED: ATOM     12  C   UNL     1     140.996  71.573 226.833 -0.72 -0.01    +0.032 A  
DOCKED: ATOM     13  C   UNL     1     139.682  69.093 226.726 -0.51 -0.01    +0.049 A  
DOCKED: ATOM     14  C   UNL     1     140.850  70.813 227.966 -0.67 -0.01    +0.041 A  
DOCKED: ATOM     15  C   UNL     1     140.201  69.595 227.902 -0.52 -0.02    +0.123 A  
DOCKED: ATOM     16  F   UNL     1     140.052  68.835 229.019 -0.15 +0.04    -0.207 F  
DOCKED: ENDBRANCH   3   6
DOCKED: ENDBRANCH   1   2
DOCKED: BRANCH   1  17
DOCKED: ATOM     17  C   UNL     1     141.474  75.002 220.873 -0.21 -0.07    +0.242 C  
DOCKED: ATOM     18  O   UNL     1     142.482  74.297 221.104 -0.19 +0.07    -0.273 OA 
DOCKED: BRANCH  17  19
DOCKED: ATOM     19  N   UNL     1     141.700  76.324 220.404 -0.12 +0.16    -0.334 N  
DOCKED: ATOM     20  C   UNL     1     142.947  76.705 219.724 -0.30 -0.08    +0.120 C  
DOCKED: ATOM     21  C   UNL     1     140.730  77.398 220.558 -0.19 -0.04    +0.115 C  
DOCKED: ATOM     22  C   UNL     1     142.553  77.144 218.347 -0.30 -0.01    +0.022 C  
DOCKED: ATOM     23  C   UNL     1     140.385  78.032 219.242 -0.11 -0.01    +0.030 C  
DOCKED: ATOM     24  C   UNL     1     141.575  78.291 218.368 -0.21 -0.00    +0.004 C  
DOCKED: BRANCH  21  25
DOCKED: ATOM     25  C   UNL     1     141.304  78.323 221.557 -0.36 +0.01    -0.025 A  
DOCKED: ATOM     26  C   UNL     1     141.293  77.891 222.881 -0.45 -0.00    +0.006 A  
DOCKED: ATOM     27  C   UNL     1     141.836  79.541 221.303 -0.39 -0.00    +0.006 A  
DOCKED: ATOM     28  C   UNL     1     141.809  78.687 223.889 -0.61 -0.00    +0.000 A  
DOCKED: ATOM     29  C   UNL     1     142.354  80.340 222.311 -0.56 -0.00    +0.000 A  
DOCKED: ATOM     30  C   UNL     1     142.348  79.926 223.627 -0.64 -0.00    +0.000 A  
DOCKED: ENDBRANCH  21  25
DOCKED: ENDBRANCH  17  19
DOCKED: ENDBRANCH   1  17
DOCKED: TORSDOF 5
DOCKED: TER
DOCKED: ENDMDL
________________________________________________________________________________


    FINAL DOCKED STATE:
    ________________________


Run:   8 / 20
Time taken for this run:   0.028s

DOCKED: MODEL        8
DOCKED: USER    Run = 8
DOCKED: USER
DOCKED: USER    Estimated Free Energy of Binding    =  -9.10 kcal/mol  [=(1)+(2)+(3)-(4)]
DOCKED: USER
DOCKED: USER    (1) Final Intermolecular Energy     = -10.59 kcal/mol
DOCKED: USER        vdW + Hbond + desolv Energy     = -10.51 kcal/mol
DOCKED: USER        Electrostatic Energy            =  -0.08 kcal/mol
DOCKED: USER        Moving Ligand-Fixed Receptor    = -10.59 kcal/mol
DOCKED: USER        Moving Ligand-Moving Receptor   =  +0.00 kcal/mol
DOCKED: USER    (2) Final Total Internal Energy     =  -1.55 kcal/mol
DOCKED: USER    (3) Torsional Free Energy           =  +1.49 kcal/mol
DOCKED: USER    (4) Unbound System's Energy         =  -1.55 kcal/mol
DOCKED: USER
DOCKED: USER
DOCKED: REMARK SMILES O=C(NCC(=O)N1CCCC[C@@H]1c1ccccc1)c1ccc2cc(F)ccc2n1
DOCKED: REMARK SMILES IDX 4 1 3 2 2 3 1 4 19 6 20 7 29 8 21 9 28 10 22 11 27 12 23 13
DOCKED: REMARK SMILES IDX 26 14 24 15 25 16 5 17 6 18 7 19 8 20 12 21 9 22 11 23 10 24
DOCKED: REMARK SMILES IDX 13 25 14 26 18 27 15 28 17 29 16 30
DOCKED: REMARK H PARENT 3 5
DOCKED: USER                              x       y       z     vdW  Elec       q    Type
DOCKED: USER                           _______ _______ _______ _____ _____    ______ ____
DOCKED: ROOT
DOCKED: ATOM      1  C   UNL     1     140.058  74.491 221.145 -0.19 -0.04    +0.216 C  
DOCKED: ENDROOT
DOCKED: BRANCH   1   2
DOCKED: ATOM      2  N   UNL     1     139.874  73.615 222.280 -0.12 +0.03    -0.342 N  
DOCKED: ATOM      3  C   UNL     1     140.469  72.326 222.340 -0.21 -0.03    +0.270 C  
DOCKED: ATOM      4  O   UNL     1     141.192  71.914 221.372 -0.16 +0.03    -0.268 OA 
DOCKED: ATOM      5  H   UNL     1     139.285  73.897 223.116 -0.52 -0.06    +0.164 HD 
DOCKED: BRANCH   3   6
DOCKED: ATOM      6  C   UNL     1     140.257  71.473 223.507 -0.32 -0.02    +0.128 A  
DOCKED: ATOM      7  C   UNL     1     139.609  70.263 223.355 -0.26 -0.01    +0.035 A  
DOCKED: ATOM      8  N   UNL     1     140.693  71.874 224.722 -0.27 +0.03    -0.243 NA 
DOCKED: ATOM      9  C   UNL     1     139.404  69.452 224.457 -0.34 -0.00    +0.013 A  
DOCKED: ATOM     10  C   UNL     1     140.484  71.069 225.781 -0.53 -0.01    +0.071 A  
DOCKED: ATOM     11  C   UNL     1     139.848  69.855 225.703 -0.46 -0.00    +0.003 A  
DOCKED: ATOM     12  C   UNL     1     140.954  71.534 227.002 -0.72 -0.01    +0.032 A  
DOCKED: ATOM     13  C   UNL     1     139.653  69.052 226.828 -0.52 -0.01    +0.049 A  
DOCKED: ATOM     14  C   UNL     1     140.774  70.763 228.123 -0.62 -0.01    +0.041 A  
DOCKED: ATOM     15  C   UNL     1     140.131  69.544 228.025 -0.52 -0.02    +0.123 A  
DOCKED: ATOM     16  F   UNL     1     139.948  68.772 229.130 -0.12 +0.03    -0.207 F  
DOCKED: ENDBRANCH   3   6
DOCKED: ENDBRANCH   1   2
DOCKED: BRANCH   1  17
DOCKED: ATOM     17  C   UNL     1     139.819  75.903 221.473 -0.21 -0.06    +0.242 C  
DOCKED: ATOM     18  O   UNL     1     138.890  76.305 222.208 -0.23 +0.06    -0.273 OA 
DOCKED: BRANCH  17  19
DOCKED: ATOM     19  N   UNL     1     140.688  76.887 220.929 -0.10 +0.12    -0.334 N  
DOCKED: ATOM     20  C   UNL     1     142.040  76.553 220.457 -0.16 -0.07    +0.120 C  
DOCKED: ATOM     21  C   UNL     1     140.318  78.287 220.795 -0.17 -0.04    +0.115 C  
DOCKED: ATOM     22  C   UNL     1     142.064  76.877 218.995 -0.26 -0.01    +0.022 C  
DOCKED: ATOM     23  C   UNL     1     140.468  78.773 219.383 -0.13 -0.01    +0.030 C  
DOCKED: ATOM     24  C   UNL     1     141.737  78.324 218.723 -0.25 -0.00    +0.004 C  
DOCKED: BRANCH  21  25
DOCKED: ATOM     25  C   UNL     1     141.132  79.018 221.789 -0.36 +0.01    -0.025 A  
DOCKED: ATOM     26  C   UNL     1     141.103  78.531 223.093 -0.53 -0.00    +0.006 A  
DOCKED: ATOM     27  C   UNL     1     141.896  80.108 221.546 -0.43 -0.00    +0.006 A  
DOCKED: ATOM     28  C   UNL     1     141.833  79.148 224.094 -0.58 -0.00    +0.000 A  
DOCKED: ATOM     29  C   UNL     1     142.629  80.728 222.548 -0.55 -0.00    +0.000 A  
DOCKED: ATOM     30  C   UNL     1     142.609  80.257 223.844 -0.66 -0.00    +0.000 A  
DOCKED: ENDBRANCH  21  25
DOCKED: ENDBRANCH  17  19
DOCKED: ENDBRANCH   1  17
DOCKED: TORSDOF 5
DOCKED: TER
DOCKED: ENDMDL
________________________________________________________________________________


    FINAL DOCKED STATE:
    ________________________


Run:   9 / 20
Time taken for this run:   0.028s

DOCKED: MODEL        9
DOCKED: USER    Run = 9
DOCKED: USER
DOCKED: USER    Estimated Free Energy of Binding    =  -9.07 kcal/mol  [=(1)+(2)+(3)-(4)]
DOCKED: USER
DOCKED: USER    (1) Final Intermolecular Energy     = -10.57 kcal/mol
DOCKED: USER        vdW + Hbond + desolv Energy     = -10.51 kcal/mol
DOCKED: USER        Electrostatic Energy            =  -0.06 kcal/mol
DOCKED: USER        Moving Ligand-Fixed Receptor    = -10.57 kcal/mol
DOCKED: USER        Moving Ligand-Moving Receptor   =  +0.00 kcal/mol
DOCKED: USER    (2) Final Total Internal Energy     =  -1.37 kcal/mol
DOCKED: USER    (3) Torsional Free Energy           =  +1.49 kcal/mol
DOCKED: USER    (4) Unbound System's Energy         =  -1.37 kcal/mol
DOCKED: USER
DOCKED: USER
DOCKED: REMARK SMILES O=C(NCC(=O)N1CCCC[C@@H]1c1ccccc1)c1ccc2cc(F)ccc2n1
DOCKED: REMARK SMILES IDX 4 1 3 2 2 3 1 4 19 6 20 7 29 8 21 9 28 10 22 11 27 12 23 13
DOCKED: REMARK SMILES IDX 26 14 24 15 25 16 5 17 6 18 7 19 8 20 12 21 9 22 11 23 10 24
DOCKED: REMARK SMILES IDX 13 25 14 26 18 27 15 28 17 29 16 30
DOCKED: REMARK H PARENT 3 5
DOCKED: USER                              x       y       z     vdW  Elec       q    Type
DOCKED: USER                           _______ _______ _______ _____ _____    ______ ____
DOCKED: ROOT
DOCKED: ATOM      1  C   UNL     1     140.022  74.568 221.088 -0.18 -0.04    +0.216 C  
DOCKED: ENDROOT
DOCKED: BRANCH   1   2
DOCKED: ATOM      2  N   UNL     1     139.835  73.703 222.231 -0.12 +0.04    -0.342 N  
DOCKED: ATOM      3  C   UNL     1     140.361  72.384 222.270 -0.21 -0.03    +0.270 C  
DOCKED: ATOM      4  O   UNL     1     141.021  71.933 221.275 -0.14 +0.03    -0.268 OA 
DOCKED: ATOM      5  H   UNL     1     139.296  74.017 223.090 -0.54 -0.05    +0.164 HD 
DOCKED: BRANCH   3   6
DOCKED: ATOM      6  C   UNL     1     140.149  71.544 223.446 -0.32 -0.02    +0.128 A  
DOCKED: ATOM      7  C   UNL     1     139.404  70.386 223.328 -0.27 -0.01    +0.035 A  
DOCKED: ATOM      8  N   UNL     1     140.679  71.904 224.636 -0.25 +0.03    -0.243 NA 
DOCKED: ATOM      9  C   UNL     1     139.200  69.588 224.439 -0.34 -0.00    +0.013 A  
DOCKED: ATOM     10  C   UNL     1     140.467  71.112 225.704 -0.53 -0.01    +0.071 A  
DOCKED: ATOM     11  C   UNL     1     139.739  69.950 225.659 -0.46 -0.00    +0.003 A  
DOCKED: ATOM     12  C   UNL     1     141.037  71.535 226.898 -0.72 -0.01    +0.032 A  
DOCKED: ATOM     13  C   UNL     1     139.545  69.157 226.792 -0.50 -0.01    +0.049 A  
DOCKED: ATOM     14  C   UNL     1     140.861  70.774 228.026 -0.65 -0.01    +0.041 A  
DOCKED: ATOM     15  C   UNL     1     140.124  69.607 227.962 -0.52 -0.02    +0.123 A  
DOCKED: ATOM     16  F   UNL     1     139.944  68.846 229.075 -0.14 +0.03    -0.207 F  
DOCKED: ENDBRANCH   3   6
DOCKED: ENDBRANCH   1   2
DOCKED: BRANCH   1  17
DOCKED: ATOM     17  C   UNL     1     141.413  75.016 220.936 -0.21 -0.07    +0.242 C  
DOCKED: ATOM     18  O   UNL     1     142.411  74.307 221.196 -0.18 +0.07    -0.273 OA 
DOCKED: BRANCH  17  19
DOCKED: ATOM     19  N   UNL     1     141.658  76.333 220.463 -0.12 +0.16    -0.334 N  
DOCKED: ATOM     20  C   UNL     1     142.909  76.692 219.778 -0.27 -0.08    +0.120 C  
DOCKED: ATOM     21  C   UNL     1     140.705  77.422 220.616 -0.20 -0.04    +0.115 C  
DOCKED: ATOM     22  C   UNL     1     142.518  77.133 218.400 -0.30 -0.01    +0.022 C  
DOCKED: ATOM     23  C   UNL     1     140.367  78.058 219.299 -0.11 -0.01    +0.030 C  
DOCKED: ATOM     24  C   UNL     1     141.558  78.296 218.421 -0.21 -0.00    +0.004 C  
DOCKED: BRANCH  21  25
DOCKED: ATOM     25  C   UNL     1     141.297  78.341 221.611 -0.36 +0.01    -0.025 A  
DOCKED: ATOM     26  C   UNL     1     141.280  77.914 222.937 -0.46 -0.00    +0.006 A  
DOCKED: ATOM     27  C   UNL     1     141.849  79.548 221.351 -0.40 -0.00    +0.006 A  
DOCKED: ATOM     28  C   UNL     1     141.811  78.705 223.940 -0.60 -0.00    +0.000 A  
DOCKED: ATOM     29  C   UNL     1     142.382  80.343 222.356 -0.57 -0.00    +0.000 A  
DOCKED: ATOM     30  C   UNL     1     142.371  79.933 223.673 -0.64 -0.00    +0.000 A  
DOCKED: ENDBRANCH  21  25
DOCKED: ENDBRANCH  17  19
DOCKED: ENDBRANCH   1  17
DOCKED: TORSDOF 5
DOCKED: TER
DOCKED: ENDMDL
________________________________________________________________________________


    FINAL DOCKED STATE:
    ________________________


Run:   10 / 20
Time taken for this run:   0.028s

DOCKED: MODEL        10
DOCKED: USER    Run = 10
DOCKED: USER
DOCKED: USER    Estimated Free Energy of Binding    =  -9.17 kcal/mol  [=(1)+(2)+(3)-(4)]
DOCKED: USER
DOCKED: USER    (1) Final Intermolecular Energy     = -10.66 kcal/mol
DOCKED: USER        vdW + Hbond + desolv Energy     = -10.58 kcal/mol
DOCKED: USER        Electrostatic Energy            =  -0.07 kcal/mol
DOCKED: USER        Moving Ligand-Fixed Receptor    = -10.66 kcal/mol
DOCKED: USER        Moving Ligand-Moving Receptor   =  +0.00 kcal/mol
DOCKED: USER    (2) Final Total Internal Energy     =  -1.49 kcal/mol
DOCKED: USER    (3) Torsional Free Energy           =  +1.49 kcal/mol
DOCKED: USER    (4) Unbound System's Energy         =  -1.49 kcal/mol
DOCKED: USER
DOCKED: USER
DOCKED: REMARK SMILES O=C(NCC(=O)N1CCCC[C@@H]1c1ccccc1)c1ccc2cc(F)ccc2n1
DOCKED: REMARK SMILES IDX 4 1 3 2 2 3 1 4 19 6 20 7 29 8 21 9 28 10 22 11 27 12 23 13
DOCKED: REMARK SMILES IDX 26 14 24 15 25 16 5 17 6 18 7 19 8 20 12 21 9 22 11 23 10 24
DOCKED: REMARK SMILES IDX 13 25 14 26 18 27 15 28 17 29 16 30
DOCKED: REMARK H PARENT 3 5
DOCKED: USER                              x       y       z     vdW  Elec       q    Type
DOCKED: USER                           _______ _______ _______ _____ _____    ______ ____
DOCKED: ROOT
DOCKED: ATOM      1  C   UNL     1     139.066  74.269 221.250 -0.15 -0.05    +0.216 C  
DOCKED: ENDROOT
DOCKED: BRANCH   1   2
DOCKED: ATOM      2  N   UNL     1     139.049  73.312 222.333 -0.07 +0.10    -0.342 N  
DOCKED: ATOM      3  C   UNL     1     140.172  72.495 222.633 -0.19 -0.03    +0.270 C  
DOCKED: ATOM      4  O   UNL     1     141.236  72.596 221.935 -0.27 +0.01    -0.268 OA 
DOCKED: ATOM      5  H   UNL     1     138.195  73.179 222.950 -0.47 -0.09    +0.164 HD 
DOCKED: BRANCH   3   6
DOCKED: ATOM      6  C   UNL     1     140.111  71.540 223.737 -0.34 -0.02    +0.128 A  
DOCKED: ATOM      7  C   UNL     1     139.552  70.295 223.528 -0.28 -0.01    +0.035 A  
DOCKED: ATOM      8  N   UNL     1     140.600  71.882 224.950 -0.28 +0.04    -0.243 NA 
DOCKED: ATOM      9  C   UNL     1     139.491  69.388 224.571 -0.35 -0.00    +0.013 A  
DOCKED: ATOM     10  C   UNL     1     140.531  70.983 225.951 -0.54 -0.01    +0.071 A  
DOCKED: ATOM     11  C   UNL     1     139.989  69.730 225.814 -0.47 -0.00    +0.003 A  
DOCKED: ATOM     12  C   UNL     1     141.048  71.392 227.173 -0.72 -0.01    +0.032 A  
DOCKED: ATOM     13  C   UNL     1     139.938  68.829 226.880 -0.56 -0.01    +0.049 A  
DOCKED: ATOM     14  C   UNL     1     141.010  70.525 228.235 -0.56 -0.01    +0.041 A  
DOCKED: ATOM     15  C   UNL     1     140.461  69.267 228.080 -0.53 -0.02    +0.123 A  
DOCKED: ATOM     16  F   UNL     1     140.418  68.400 229.127 -0.15 +0.04    -0.207 F  
DOCKED: ENDBRANCH   3   6
DOCKED: ENDBRANCH   1   2
DOCKED: BRANCH   1  17
DOCKED: ATOM     17  C   UNL     1     139.293  75.646 221.712 -0.21 -0.05    +0.242 C  
DOCKED: ATOM     18  O   UNL     1     138.528  76.262 222.487 -0.24 +0.06    -0.273 OA 
DOCKED: BRANCH  17  19
DOCKED: ATOM     19  N   UNL     1     140.451  76.334 221.261 -0.13 +0.10    -0.334 N  
DOCKED: ATOM     20  C   UNL     1     141.772  75.690 221.220 -0.03 -0.05    +0.120 C  
DOCKED: ATOM     21  C   UNL     1     140.426  77.716 220.806 -0.19 -0.04    +0.115 C  
DOCKED: ATOM     22  C   UNL     1     142.192  75.689 219.782 -0.28 -0.01    +0.022 C  
DOCKED: ATOM     23  C   UNL     1     140.990  77.861 219.423 -0.17 -0.01    +0.030 C  
DOCKED: ATOM     24  C   UNL     1     142.250  77.079 219.201 -0.31 -0.00    +0.004 C  
DOCKED: BRANCH  21  25
DOCKED: ATOM     25  C   UNL     1     141.132  78.497 221.845 -0.37 +0.01    -0.025 A  
DOCKED: ATOM     26  C   UNL     1     141.847  79.609 221.406 -0.41 -0.00    +0.006 A  
DOCKED: ATOM     27  C   UNL     1     141.145  78.230 223.171 -0.50 -0.00    +0.006 A  
DOCKED: ATOM     28  C   UNL     1     142.540  80.402 222.304 -0.57 -0.00    +0.000 A  
DOCKED: ATOM     29  C   UNL     1     141.839  79.023 224.072 -0.59 -0.00    +0.000 A  
DOCKED: ATOM     30  C   UNL     1     142.552  80.127 223.652 -0.66 -0.00    +0.000 A  
DOCKED: ENDBRANCH  21  25
DOCKED: ENDBRANCH  17  19
DOCKED: ENDBRANCH   1  17
DOCKED: TORSDOF 5
DOCKED: TER
DOCKED: ENDMDL
________________________________________________________________________________


    FINAL DOCKED STATE:
    ________________________


Run:   11 / 20
Time taken for this run:   0.028s

DOCKED: MODEL        11
DOCKED: USER    Run = 11
DOCKED: USER
DOCKED: USER    Estimated Free Energy of Binding    =  -8.89 kcal/mol  [=(1)+(2)+(3)-(4)]
DOCKED: USER
DOCKED: USER    (1) Final Intermolecular Energy     = -10.39 kcal/mol
DOCKED: USER        vdW + Hbond + desolv Energy     = -10.28 kcal/mol
DOCKED: USER        Electrostatic Energy            =  -0.11 kcal/mol
DOCKED: USER        Moving Ligand-Fixed Receptor    = -10.39 kcal/mol
DOCKED: USER        Moving Ligand-Moving Receptor   =  +0.00 kcal/mol
DOCKED: USER    (2) Final Total Internal Energy     =  -1.69 kcal/mol
DOCKED: USER    (3) Torsional Free Energy           =  +1.49 kcal/mol
DOCKED: USER    (4) Unbound System's Energy         =  -1.69 kcal/mol
DOCKED: USER
DOCKED: USER
DOCKED: REMARK SMILES O=C(NCC(=O)N1CCCC[C@@H]1c1ccccc1)c1ccc2cc(F)ccc2n1
DOCKED: REMARK SMILES IDX 4 1 3 2 2 3 1 4 19 6 20 7 29 8 21 9 28 10 22 11 27 12 23 13
DOCKED: REMARK SMILES IDX 26 14 24 15 25 16 5 17 6 18 7 19 8 20 12 21 9 22 11 23 10 24
DOCKED: REMARK SMILES IDX 13 25 14 26 18 27 15 28 17 29 16 30
DOCKED: REMARK H PARENT 3 5
DOCKED: USER                              x       y       z     vdW  Elec       q    Type
DOCKED: USER                           _______ _______ _______ _____ _____    ______ ____
DOCKED: ROOT
DOCKED: ATOM      1  C   UNL     1     139.067  72.657 221.977 -0.16 -0.05    +0.216 C  
DOCKED: ENDROOT
DOCKED: BRANCH   1   2
DOCKED: ATOM      2  N   UNL     1     139.525  74.026 222.040 -0.14 +0.06    -0.342 N  
DOCKED: ATOM      3  C   UNL     1     140.534  74.524 221.172 -0.19 -0.05    +0.270 C  
DOCKED: ATOM      4  O   UNL     1     141.062  73.751 220.304 -0.10 +0.05    -0.268 OA 
DOCKED: ATOM      5  H   UNL     1     139.127  74.719 222.739 -0.43 -0.04    +0.164 HD 
DOCKED: BRANCH   3   6
DOCKED: ATOM      6  C   UNL     1     140.966  75.916 221.270 -0.28 -0.04    +0.128 A  
DOCKED: ATOM      7  C   UNL     1     141.787  76.442 220.292 -0.27 -0.02    +0.035 A  
DOCKED: ATOM      8  N   UNL     1     140.562  76.674 222.313 -0.28 +0.07    -0.243 NA 
DOCKED: ATOM      9  C   UNL     1     142.200  77.759 220.381 -0.27 -0.01    +0.013 A  
DOCKED: ATOM     10  C   UNL     1     140.975  77.954 222.379 -0.41 -0.03    +0.071 A  
DOCKED: ATOM     11  C   UNL     1     141.790  78.541 221.445 -0.38 -0.00    +0.003 A  
DOCKED: ATOM     12  C   UNL     1     140.527  78.682 223.474 -0.38 -0.01    +0.032 A  
DOCKED: ATOM     13  C   UNL     1     142.195  79.874 221.553 -0.39 -0.02    +0.049 A  
DOCKED: ATOM     14  C   UNL     1     140.911  79.993 223.603 -0.48 -0.01    +0.041 A  
DOCKED: ATOM     15  C   UNL     1     141.732  80.569 222.652 -0.45 -0.03    +0.123 A  
DOCKED: ATOM     16  F   UNL     1     142.118  81.867 222.771 -0.11 +0.03    -0.207 F  
DOCKED: ENDBRANCH   3   6
DOCKED: ENDBRANCH   1   2
DOCKED: BRANCH   1  17
DOCKED: ATOM     17  C   UNL     1     139.933  71.733 222.722 -0.23 -0.04    +0.242 C  
DOCKED: ATOM     18  O   UNL     1     141.147  71.557 222.478 -0.17 +0.02    -0.273 OA 
DOCKED: BRANCH  17  19
DOCKED: ATOM     19  N   UNL     1     139.371  70.985 223.792 -0.17 +0.07    -0.334 N  
DOCKED: ATOM     20  C   UNL     1     137.980  71.176 224.227 -0.12 -0.03    +0.120 C  
DOCKED: ATOM     21  C   UNL     1     140.115  69.979 224.535 -0.26 -0.02    +0.115 C  
DOCKED: ATOM     22  C   UNL     1     137.289  69.865 224.009 -0.25 -0.00    +0.022 C  
DOCKED: ATOM     23  C   UNL     1     139.421  68.649 224.527 -0.26 -0.00    +0.030 C  
DOCKED: ATOM     24  C   UNL     1     137.944  68.739 224.768 -0.22 -0.00    +0.004 C  
DOCKED: BRANCH  21  25
DOCKED: ATOM     25  C   UNL     1     140.337  70.552 225.880 -0.53 +0.00    -0.025 A  
DOCKED: ATOM     26  C   UNL     1     141.111  71.708 225.942 -0.61 -0.00    +0.006 A  
DOCKED: ATOM     27  C   UNL     1     139.857  70.057 227.045 -0.54 -0.00    +0.006 A  
DOCKED: ATOM     28  C   UNL     1     141.372  72.317 227.157 -0.79 -0.00    +0.000 A  
DOCKED: ATOM     29  C   UNL     1     140.119  70.667 228.263 -0.63 -0.00    +0.000 A  
DOCKED: ATOM     30  C   UNL     1     140.885  71.812 228.340 -0.77 -0.00    +0.000 A  
DOCKED: ENDBRANCH  21  25
DOCKED: ENDBRANCH  17  19
DOCKED: ENDBRANCH   1  17
DOCKED: TORSDOF 5
DOCKED: TER
DOCKED: ENDMDL
________________________________________________________________________________


    FINAL DOCKED STATE:
    ________________________


Run:   12 / 20
Time taken for this run:   0.028s

DOCKED: MODEL        12
DOCKED: USER    Run = 12
DOCKED: USER
DOCKED: USER    Estimated Free Energy of Binding    =  -9.01 kcal/mol  [=(1)+(2)+(3)-(4)]
DOCKED: USER
DOCKED: USER    (1) Final Intermolecular Energy     = -10.50 kcal/mol
DOCKED: USER        vdW + Hbond + desolv Energy     = -10.47 kcal/mol
DOCKED: USER        Electrostatic Energy            =  -0.04 kcal/mol
DOCKED: USER        Moving Ligand-Fixed Receptor    = -10.50 kcal/mol
DOCKED: USER        Moving Ligand-Moving Receptor   =  +0.00 kcal/mol
DOCKED: USER    (2) Final Total Internal Energy     =  -1.33 kcal/mol
DOCKED: USER    (3) Torsional Free Energy           =  +1.49 kcal/mol
DOCKED: USER    (4) Unbound System's Energy         =  -1.33 kcal/mol
DOCKED: USER
DOCKED: USER
DOCKED: REMARK SMILES O=C(NCC(=O)N1CCCC[C@@H]1c1ccccc1)c1ccc2cc(F)ccc2n1
DOCKED: REMARK SMILES IDX 4 1 3 2 2 3 1 4 19 6 20 7 29 8 21 9 28 10 22 11 27 12 23 13
DOCKED: REMARK SMILES IDX 26 14 24 15 25 16 5 17 6 18 7 19 8 20 12 21 9 22 11 23 10 24
DOCKED: REMARK SMILES IDX 13 25 14 26 18 27 15 28 17 29 16 30
DOCKED: REMARK H PARENT 3 5
DOCKED: USER                              x       y       z     vdW  Elec       q    Type
DOCKED: USER                           _______ _______ _______ _____ _____    ______ ____
DOCKED: ROOT
DOCKED: ATOM      1  C   UNL     1     140.040  74.539 221.088 -0.18 -0.04    +0.216 C  
DOCKED: ENDROOT
DOCKED: BRANCH   1   2
DOCKED: ATOM      2  N   UNL     1     139.926  73.669 222.237 -0.12 +0.03    -0.342 N  
DOCKED: ATOM      3  C   UNL     1     140.309  72.302 222.187 -0.20 -0.03    +0.270 C  
DOCKED: ATOM      4  O   UNL     1     140.769  71.810 221.102 -0.12 +0.04    -0.268 OA 
DOCKED: ATOM      5  H   UNL     1     139.551  74.016 223.167 -0.51 -0.02    +0.164 HD 
DOCKED: BRANCH   3   6
DOCKED: ATOM      6  C   UNL     1     140.178  71.459 223.373 -0.31 -0.02    +0.128 A  
DOCKED: ATOM      7  C   UNL     1     139.563  70.226 223.265 -0.25 -0.01    +0.035 A  
DOCKED: ATOM      8  N   UNL     1     140.656  71.890 224.561 -0.26 +0.03    -0.243 NA 
DOCKED: ATOM      9  C   UNL     1     139.436  69.425 224.386 -0.33 -0.00    +0.013 A  
DOCKED: ATOM     10  C   UNL     1     140.521  71.094 225.639 -0.53 -0.01    +0.071 A  
DOCKED: ATOM     11  C   UNL     1     139.922  69.859 225.604 -0.46 -0.00    +0.003 A  
DOCKED: ATOM     12  C   UNL     1     141.031  71.591 226.831 -0.72 -0.01    +0.032 A  
DOCKED: ATOM     13  C   UNL     1     139.805  69.066 226.747 -0.52 -0.01    +0.049 A  
DOCKED: ATOM     14  C   UNL     1     140.928  70.830 227.968 -0.66 -0.01    +0.041 A  
DOCKED: ATOM     15  C   UNL     1     140.321  69.590 227.915 -0.52 -0.02    +0.123 A  
DOCKED: ATOM     16  F   UNL     1     140.214  68.828 229.037 -0.14 +0.04    -0.207 F  
DOCKED: ENDBRANCH   3   6
DOCKED: ENDBRANCH   1   2
DOCKED: BRANCH   1  17
DOCKED: ATOM     17  C   UNL     1     141.427  74.933 220.809 -0.20 -0.07    +0.242 C  
DOCKED: ATOM     18  O   UNL     1     142.408  74.161 220.896 -0.21 +0.07    -0.273 OA 
DOCKED: BRANCH  17  19
DOCKED: ATOM     19  N   UNL     1     141.689  76.273 220.413 -0.12 +0.16    -0.334 N  
DOCKED: ATOM     20  C   UNL     1     142.969  76.668 219.809 -0.24 -0.09    +0.120 C  
DOCKED: ATOM     21  C   UNL     1     140.724  77.351 220.572 -0.19 -0.04    +0.115 C  
DOCKED: ATOM     22  C   UNL     1     142.645  77.175 218.437 -0.31 -0.01    +0.022 C  
DOCKED: ATOM     23  C   UNL     1     140.447  78.049 219.273 -0.12 -0.01    +0.030 C  
DOCKED: ATOM     24  C   UNL     1     141.679  78.333 218.467 -0.23 -0.00    +0.004 C  
DOCKED: BRANCH  21  25
DOCKED: ATOM     25  C   UNL     1     141.262  78.222 221.639 -0.36 +0.01    -0.025 A  
DOCKED: ATOM     26  C   UNL     1     141.772  79.454 221.235 -0.38 -0.00    +0.006 A  
DOCKED: ATOM     27  C   UNL     1     141.302  77.932 222.960 -0.46 -0.00    +0.006 A  
DOCKED: ATOM     28  C   UNL     1     142.297  80.338 222.161 -0.53 -0.00    +0.000 A  
DOCKED: ATOM     29  C   UNL     1     141.827  78.817 223.889 -0.62 -0.00    +0.000 A  
DOCKED: ATOM     30  C   UNL     1     142.336  80.040 223.504 -0.65 -0.00    +0.000 A  
DOCKED: ENDBRANCH  21  25
DOCKED: ENDBRANCH  17  19
DOCKED: ENDBRANCH   1  17
DOCKED: TORSDOF 5
DOCKED: TER
DOCKED: ENDMDL
________________________________________________________________________________


    FINAL DOCKED STATE:
    ________________________


Run:   13 / 20
Time taken for this run:   0.028s

DOCKED: MODEL        13
DOCKED: USER    Run = 13
DOCKED: USER
DOCKED: USER    Estimated Free Energy of Binding    =  -8.92 kcal/mol  [=(1)+(2)+(3)-(4)]
DOCKED: USER
DOCKED: USER    (1) Final Intermolecular Energy     = -10.41 kcal/mol
DOCKED: USER        vdW + Hbond + desolv Energy     = -10.30 kcal/mol
DOCKED: USER        Electrostatic Energy            =  -0.11 kcal/mol
DOCKED: USER        Moving Ligand-Fixed Receptor    = -10.41 kcal/mol
DOCKED: USER        Moving Ligand-Moving Receptor   =  +0.00 kcal/mol
DOCKED: USER    (2) Final Total Internal Energy     =  -1.69 kcal/mol
DOCKED: USER    (3) Torsional Free Energy           =  +1.49 kcal/mol
DOCKED: USER    (4) Unbound System's Energy         =  -1.69 kcal/mol
DOCKED: USER
DOCKED: USER
DOCKED: REMARK SMILES O=C(NCC(=O)N1CCCC[C@@H]1c1ccccc1)c1ccc2cc(F)ccc2n1
DOCKED: REMARK SMILES IDX 4 1 3 2 2 3 1 4 19 6 20 7 29 8 21 9 28 10 22 11 27 12 23 13
DOCKED: REMARK SMILES IDX 26 14 24 15 25 16 5 17 6 18 7 19 8 20 12 21 9 22 11 23 10 24
DOCKED: REMARK SMILES IDX 13 25 14 26 18 27 15 28 17 29 16 30
DOCKED: REMARK H PARENT 3 5
DOCKED: USER                              x       y       z     vdW  Elec       q    Type
DOCKED: USER                           _______ _______ _______ _____ _____    ______ ____
DOCKED: ROOT
DOCKED: ATOM      1  C   UNL     1     139.011  72.811 221.978 -0.16 -0.05    +0.216 C  
DOCKED: ENDROOT
DOCKED: BRANCH   1   2
DOCKED: ATOM      2  N   UNL     1     139.487  74.172 222.070 -0.14 +0.06    -0.342 N  
DOCKED: ATOM      3  C   UNL     1     140.487  74.681 221.197 -0.19 -0.05    +0.270 C  
DOCKED: ATOM      4  O   UNL     1     140.990  73.925 220.300 -0.10 +0.06    -0.268 OA 
DOCKED: ATOM      5  H   UNL     1     139.111  74.851 222.794 -0.41 -0.04    +0.164 HD 
DOCKED: BRANCH   3   6
DOCKED: ATOM      6  C   UNL     1     140.939  76.064 221.325 -0.28 -0.04    +0.128 A  
DOCKED: ATOM      7  C   UNL     1     141.762  76.602 220.354 -0.28 -0.02    +0.035 A  
DOCKED: ATOM      8  N   UNL     1     140.552  76.803 222.388 -0.27 +0.07    -0.243 NA 
DOCKED: ATOM      9  C   UNL     1     142.193  77.910 220.471 -0.25 -0.01    +0.013 A  
DOCKED: ATOM     10  C   UNL     1     140.983  78.075 222.481 -0.42 -0.03    +0.071 A  
DOCKED: ATOM     11  C   UNL     1     141.801  78.673 221.555 -0.41 -0.00    +0.003 A  
DOCKED: ATOM     12  C   UNL     1     140.552  78.784 223.595 -0.34 -0.01    +0.032 A  
DOCKED: ATOM     13  C   UNL     1     142.224  79.997 221.692 -0.42 -0.02    +0.049 A  
DOCKED: ATOM     14  C   UNL     1     140.954  80.086 223.752 -0.47 -0.01    +0.041 A  
DOCKED: ATOM     15  C   UNL     1     141.778  80.672 222.810 -0.47 -0.03    +0.123 A  
DOCKED: ATOM     16  F   UNL     1     142.182  81.962 222.957 -0.10 +0.03    -0.207 F  
DOCKED: ENDBRANCH   3   6
DOCKED: ENDBRANCH   1   2
DOCKED: BRANCH   1  17
DOCKED: ATOM     17  C   UNL     1     139.846  71.864 222.730 -0.23 -0.04    +0.242 C  
DOCKED: ATOM     18  O   UNL     1     141.065  71.678 222.514 -0.21 +0.02    -0.273 OA 
DOCKED: BRANCH  17  19
DOCKED: ATOM     19  N   UNL     1     139.248  71.104 223.771 -0.16 +0.07    -0.334 N  
DOCKED: ATOM     20  C   UNL     1     137.867  71.347 224.214 +0.01 -0.03    +0.120 C  
DOCKED: ATOM     21  C   UNL     1     139.943  70.038 224.475 -0.31 -0.02    +0.115 C  
DOCKED: ATOM     22  C   UNL     1     137.115  70.079 223.948 -0.24 -0.00    +0.022 C  
DOCKED: ATOM     23  C   UNL     1     139.185  68.744 224.418 -0.33 -0.00    +0.030 C  
DOCKED: ATOM     24  C   UNL     1     137.714  68.895 224.664 -0.28 -0.00    +0.004 C  
DOCKED: BRANCH  21  25
DOCKED: ATOM     25  C   UNL     1     140.190  70.548 225.841 -0.52 +0.00    -0.025 A  
DOCKED: ATOM     26  C   UNL     1     140.979  71.691 225.942 -0.61 -0.00    +0.006 A  
DOCKED: ATOM     27  C   UNL     1     139.721  70.009 226.990 -0.51 -0.00    +0.006 A  
DOCKED: ATOM     28  C   UNL     1     141.266  72.244 227.177 -0.81 -0.00    +0.000 A  
DOCKED: ATOM     29  C   UNL     1     140.008  70.562 228.229 -0.63 -0.00    +0.000 A  
DOCKED: ATOM     30  C   UNL     1     140.789  71.693 228.345 -0.77 -0.00    +0.000 A  
DOCKED: ENDBRANCH  21  25
DOCKED: ENDBRANCH  17  19
DOCKED: ENDBRANCH   1  17
DOCKED: TORSDOF 5
DOCKED: TER
DOCKED: ENDMDL
________________________________________________________________________________


    FINAL DOCKED STATE:
    ________________________


Run:   14 / 20
Time taken for this run:   0.028s

DOCKED: MODEL        14
DOCKED: USER    Run = 14
DOCKED: USER
DOCKED: USER    Estimated Free Energy of Binding    =  -8.99 kcal/mol  [=(1)+(2)+(3)-(4)]
DOCKED: USER
DOCKED: USER    (1) Final Intermolecular Energy     = -10.48 kcal/mol
DOCKED: USER        vdW + Hbond + desolv Energy     = -10.44 kcal/mol
DOCKED: USER        Electrostatic Energy            =  -0.03 kcal/mol
DOCKED: USER        Moving Ligand-Fixed Receptor    = -10.48 kcal/mol
DOCKED: USER        Moving Ligand-Moving Receptor   =  +0.00 kcal/mol
DOCKED: USER    (2) Final Total Internal Energy     =  -1.32 kcal/mol
DOCKED: USER    (3) Torsional Free Energy           =  +1.49 kcal/mol
DOCKED: USER    (4) Unbound System's Energy         =  -1.32 kcal/mol
DOCKED: USER
DOCKED: USER
DOCKED: REMARK SMILES O=C(NCC(=O)N1CCCC[C@@H]1c1ccccc1)c1ccc2cc(F)ccc2n1
DOCKED: REMARK SMILES IDX 4 1 3 2 2 3 1 4 19 6 20 7 29 8 21 9 28 10 22 11 27 12 23 13
DOCKED: REMARK SMILES IDX 26 14 24 15 25 16 5 17 6 18 7 19 8 20 12 21 9 22 11 23 10 24
DOCKED: REMARK SMILES IDX 13 25 14 26 18 27 15 28 17 29 16 30
DOCKED: REMARK H PARENT 3 5
DOCKED: USER                              x       y       z     vdW  Elec       q    Type
DOCKED: USER                           _______ _______ _______ _____ _____    ______ ____
DOCKED: ROOT
DOCKED: ATOM      1  C   UNL     1     139.324  74.563 221.304 -0.17 -0.04    +0.216 C  
DOCKED: ENDROOT
DOCKED: BRANCH   1   2
DOCKED: ATOM      2  N   UNL     1     139.241  73.564 222.345 -0.08 +0.08    -0.342 N  
DOCKED: ATOM      3  C   UNL     1     140.274  72.612 222.560 -0.18 -0.03    +0.270 C  
DOCKED: ATOM      4  O   UNL     1     141.313  72.626 221.819 -0.25 +0.02    -0.268 OA 
DOCKED: ATOM      5  H   UNL     1     138.404  73.500 222.994 -0.52 -0.11    +0.164 HD 
DOCKED: BRANCH   3   6
DOCKED: ATOM      6  C   UNL     1     140.149  71.621 223.625 -0.33 -0.02    +0.128 A  
DOCKED: ATOM      7  C   UNL     1     139.505  70.426 223.368 -0.28 -0.01    +0.035 A  
DOCKED: ATOM      8  N   UNL     1     140.660  71.879 224.849 -0.28 +0.03    -0.243 NA 
DOCKED: ATOM      9  C   UNL     1     139.383  69.484 224.373 -0.33 -0.00    +0.013 A  
DOCKED: ATOM     10  C   UNL     1     140.530  70.947 225.813 -0.53 -0.01    +0.071 A  
DOCKED: ATOM     11  C   UNL     1     139.903  69.741 225.627 -0.46 -0.00    +0.003 A  
DOCKED: ATOM     12  C   UNL     1     141.075  71.270 227.048 -0.70 -0.01    +0.032 A  
DOCKED: ATOM     13  C   UNL     1     139.792  68.803 226.656 -0.53 -0.01    +0.049 A  
DOCKED: ATOM     14  C   UNL     1     140.978  70.366 228.075 -0.58 -0.01    +0.041 A  
DOCKED: ATOM     15  C   UNL     1     140.344  69.155 227.871 -0.53 -0.02    +0.123 A  
DOCKED: ATOM     16  F   UNL     1     140.243  68.252 228.883 -0.17 +0.05    -0.207 F  
DOCKED: ENDBRANCH   3   6
DOCKED: ENDBRANCH   1   2
DOCKED: BRANCH   1  17
DOCKED: ATOM     17  C   UNL     1     140.276  75.637 221.621 -0.24 -0.05    +0.242 C  
DOCKED: ATOM     18  O   UNL     1     141.465  75.444 221.960 -0.37 +0.08    -0.273 OA 
DOCKED: BRANCH  17  19
DOCKED: ATOM     19  N   UNL     1     139.833  76.985 221.543 -0.11 +0.09    -0.334 N  
DOCKED: ATOM     20  C   UNL     1     139.784  77.714 220.267 -0.10 -0.04    +0.120 C  
DOCKED: ATOM     21  C   UNL     1     139.399  77.747 222.704 -0.25 -0.02    +0.115 C  
DOCKED: ATOM     22  C   UNL     1     138.346  78.072 220.046 -0.05 -0.01    +0.022 C  
DOCKED: ATOM     23  C   UNL     1     138.018  78.305 222.522 -0.23 -0.00    +0.030 C  
DOCKED: ATOM     24  C   UNL     1     137.784  78.907 221.169 -0.10 -0.00    +0.004 C  
DOCKED: BRANCH  21  25
DOCKED: ATOM     25  C   UNL     1     140.448  78.762 222.939 -0.42 +0.01    -0.025 A  
DOCKED: ATOM     26  C   UNL     1     140.017  80.007 223.391 -0.44 -0.00    +0.006 A  
DOCKED: ATOM     27  C   UNL     1     141.777  78.590 222.756 -0.49 -0.00    +0.006 A  
DOCKED: ATOM     28  C   UNL     1     140.925  81.021 223.640 -0.46 -0.00    +0.000 A  
DOCKED: ATOM     29  C   UNL     1     142.689  79.606 223.004 -0.62 -0.00    +0.000 A  
DOCKED: ATOM     30  C   UNL     1     142.276  80.843 223.452 -0.65 -0.00    +0.000 A  
DOCKED: ENDBRANCH  21  25
DOCKED: ENDBRANCH  17  19
DOCKED: ENDBRANCH   1  17
DOCKED: TORSDOF 5
DOCKED: TER
DOCKED: ENDMDL
________________________________________________________________________________


    FINAL DOCKED STATE:
    ________________________


Run:   15 / 20
Time taken for this run:   0.028s

DOCKED: MODEL        15
DOCKED: USER    Run = 15
DOCKED: USER
DOCKED: USER    Estimated Free Energy of Binding    =  -9.03 kcal/mol  [=(1)+(2)+(3)-(4)]
DOCKED: USER
DOCKED: USER    (1) Final Intermolecular Energy     = -10.53 kcal/mol
DOCKED: USER        vdW + Hbond + desolv Energy     = -10.45 kcal/mol
DOCKED: USER        Electrostatic Energy            =  -0.08 kcal/mol
DOCKED: USER        Moving Ligand-Fixed Receptor    = -10.53 kcal/mol
DOCKED: USER        Moving Ligand-Moving Receptor   =  +0.00 kcal/mol
DOCKED: USER    (2) Final Total Internal Energy     =  -1.57 kcal/mol
DOCKED: USER    (3) Torsional Free Energy           =  +1.49 kcal/mol
DOCKED: USER    (4) Unbound System's Energy         =  -1.57 kcal/mol
DOCKED: USER
DOCKED: USER
DOCKED: REMARK SMILES O=C(NCC(=O)N1CCCC[C@@H]1c1ccccc1)c1ccc2cc(F)ccc2n1
DOCKED: REMARK SMILES IDX 4 1 3 2 2 3 1 4 19 6 20 7 29 8 21 9 28 10 22 11 27 12 23 13
DOCKED: REMARK SMILES IDX 26 14 24 15 25 16 5 17 6 18 7 19 8 20 12 21 9 22 11 23 10 24
DOCKED: REMARK SMILES IDX 13 25 14 26 18 27 15 28 17 29 16 30
DOCKED: REMARK H PARENT 3 5
DOCKED: USER                              x       y       z     vdW  Elec       q    Type
DOCKED: USER                           _______ _______ _______ _____ _____    ______ ____
DOCKED: ROOT
DOCKED: ATOM      1  C   UNL     1     139.942  74.483 221.136 -0.18 -0.04    +0.216 C  
DOCKED: ENDROOT
DOCKED: BRANCH   1   2
DOCKED: ATOM      2  N   UNL     1     139.802  73.613 222.282 -0.12 +0.04    -0.342 N  
DOCKED: ATOM      3  C   UNL     1     140.320  72.290 222.291 -0.21 -0.03    +0.270 C  
DOCKED: ATOM      4  O   UNL     1     140.930  71.840 221.264 -0.14 +0.03    -0.268 OA 
DOCKED: ATOM      5  H   UNL     1     139.306  73.927 223.167 -0.50 -0.06    +0.164 HD 
DOCKED: BRANCH   3   6
DOCKED: ATOM      6  C   UNL     1     140.157  71.445 223.472 -0.32 -0.02    +0.128 A  
DOCKED: ATOM      7  C   UNL     1     139.586  70.194 223.338 -0.26 -0.01    +0.035 A  
DOCKED: ATOM      8  N   UNL     1     140.563  71.893 224.681 -0.26 +0.04    -0.243 NA 
DOCKED: ATOM      9  C   UNL     1     139.428  69.392 224.453 -0.34 -0.00    +0.013 A  
DOCKED: ATOM     10  C   UNL     1     140.400  71.094 225.752 -0.53 -0.01    +0.071 A  
DOCKED: ATOM     11  C   UNL     1     139.841  69.842 225.693 -0.46 -0.00    +0.003 A  
DOCKED: ATOM     12  C   UNL     1     140.836  71.608 226.966 -0.72 -0.01    +0.032 A  
DOCKED: ATOM     13  C   UNL     1     139.693  69.047 226.831 -0.52 -0.01    +0.049 A  
DOCKED: ATOM     14  C   UNL     1     140.701  70.846 228.099 -0.64 -0.01    +0.041 A  
DOCKED: ATOM     15  C   UNL     1     140.135  69.588 228.021 -0.52 -0.02    +0.123 A  
DOCKED: ATOM     16  F   UNL     1     139.997  68.825 229.138 -0.12 +0.03    -0.207 F  
DOCKED: ENDBRANCH   3   6
DOCKED: ENDBRANCH   1   2
DOCKED: BRANCH   1  17
DOCKED: ATOM     17  C   UNL     1     139.748  75.900 221.471 -0.21 -0.06    +0.242 C  
DOCKED: ATOM     18  O   UNL     1     138.832  76.328 222.209 -0.23 +0.06    -0.273 OA 
DOCKED: BRANCH  17  19
DOCKED: ATOM     19  N   UNL     1     140.649  76.858 220.932 -0.10 +0.12    -0.334 N  
DOCKED: ATOM     20  C   UNL     1     142.000  76.489 220.487 -0.15 -0.07    +0.120 C  
DOCKED: ATOM     21  C   UNL     1     140.313  78.265 220.779 -0.17 -0.04    +0.115 C  
DOCKED: ATOM     22  C   UNL     1     142.056  76.798 219.022 -0.26 -0.01    +0.022 C  
DOCKED: ATOM     23  C   UNL     1     140.498  78.733 219.365 -0.13 -0.01    +0.030 C  
DOCKED: ATOM     24  C   UNL     1     141.767  78.249 218.731 -0.25 -0.00    +0.004 C  
DOCKED: BRANCH  21  25
DOCKED: ATOM     25  C   UNL     1     141.127  78.988 221.779 -0.36 +0.01    -0.025 A  
DOCKED: ATOM     26  C   UNL     1     141.096  78.490 223.080 -0.52 -0.00    +0.006 A  
DOCKED: ATOM     27  C   UNL     1     141.894  80.078 221.546 -0.43 -0.00    +0.006 A  
DOCKED: ATOM     28  C   UNL     1     141.826  79.098 224.086 -0.59 -0.00    +0.000 A  
DOCKED: ATOM     29  C   UNL     1     142.626  80.689 222.553 -0.56 -0.00    +0.000 A  
DOCKED: ATOM     30  C   UNL     1     142.604  80.208 223.845 -0.66 -0.00    +0.000 A  
DOCKED: ENDBRANCH  21  25
DOCKED: ENDBRANCH  17  19
DOCKED: ENDBRANCH   1  17
DOCKED: TORSDOF 5
DOCKED: TER
DOCKED: ENDMDL
________________________________________________________________________________


    FINAL DOCKED STATE:
    ________________________


Run:   16 / 20
Time taken for this run:   0.028s

DOCKED: MODEL        16
DOCKED: USER    Run = 16
DOCKED: USER
DOCKED: USER    Estimated Free Energy of Binding    =  -9.19 kcal/mol  [=(1)+(2)+(3)-(4)]
DOCKED: USER
DOCKED: USER    (1) Final Intermolecular Energy     = -10.68 kcal/mol
DOCKED: USER        vdW + Hbond + desolv Energy     = -10.58 kcal/mol
DOCKED: USER        Electrostatic Energy            =  -0.10 kcal/mol
DOCKED: USER        Moving Ligand-Fixed Receptor    = -10.68 kcal/mol
DOCKED: USER        Moving Ligand-Moving Receptor   =  +0.00 kcal/mol
DOCKED: USER    (2) Final Total Internal Energy     =  -1.46 kcal/mol
DOCKED: USER    (3) Torsional Free Energy           =  +1.49 kcal/mol
DOCKED: USER    (4) Unbound System's Energy         =  -1.46 kcal/mol
DOCKED: USER
DOCKED: USER
DOCKED: REMARK SMILES O=C(NCC(=O)N1CCCC[C@@H]1c1ccccc1)c1ccc2cc(F)ccc2n1
DOCKED: REMARK SMILES IDX 4 1 3 2 2 3 1 4 19 6 20 7 29 8 21 9 28 10 22 11 27 12 23 13
DOCKED: REMARK SMILES IDX 26 14 24 15 25 16 5 17 6 18 7 19 8 20 12 21 9 22 11 23 10 24
DOCKED: REMARK SMILES IDX 13 25 14 26 18 27 15 28 17 29 16 30
DOCKED: REMARK H PARENT 3 5
DOCKED: USER                              x       y       z     vdW  Elec       q    Type
DOCKED: USER                           _______ _______ _______ _____ _____    ______ ____
DOCKED: ROOT
DOCKED: ATOM      1  C   UNL     1     139.465  74.444 221.226 -0.17 -0.04    +0.216 C  
DOCKED: ENDROOT
DOCKED: BRANCH   1   2
DOCKED: ATOM      2  N   UNL     1     139.378  73.504 222.320 -0.11 +0.07    -0.342 N  
DOCKED: ATOM      3  C   UNL     1     140.335  72.469 222.501 -0.20 -0.03    +0.270 C  
DOCKED: ATOM      4  O   UNL     1     141.306  72.351 221.681 -0.21 +0.02    -0.268 OA 
DOCKED: ATOM      5  H   UNL     1     138.595  73.547 223.035 -0.53 -0.11    +0.164 HD 
DOCKED: BRANCH   3   6
DOCKED: ATOM      6  C   UNL     1     140.208  71.540 223.621 -0.33 -0.02    +0.128 A  
DOCKED: ATOM      7  C   UNL     1     139.590  70.321 223.426 -0.27 -0.01    +0.035 A  
DOCKED: ATOM      8  N   UNL     1     140.695  71.881 224.835 -0.28 +0.03    -0.243 NA 
DOCKED: ATOM      9  C   UNL     1     139.467  69.439 224.484 -0.34 -0.00    +0.013 A  
DOCKED: ATOM     10  C   UNL     1     140.565  71.006 225.851 -0.54 -0.01    +0.071 A  
DOCKED: ATOM     11  C   UNL     1     139.962  69.779 225.729 -0.47 -0.00    +0.003 A  
DOCKED: ATOM     12  C   UNL     1     141.083  71.412 227.074 -0.71 -0.01    +0.032 A  
DOCKED: ATOM     13  C   UNL     1     139.850  68.903 226.811 -0.54 -0.01    +0.049 A  
DOCKED: ATOM     14  C   UNL     1     140.985  70.569 228.152 -0.58 -0.01    +0.041 A  
DOCKED: ATOM     15  C   UNL     1     140.375  69.337 228.011 -0.53 -0.02    +0.123 A  
DOCKED: ATOM     16  F   UNL     1     140.272  68.495 229.073 -0.16 +0.04    -0.207 F  
DOCKED: ENDBRANCH   3   6
DOCKED: ENDBRANCH   1   2
DOCKED: BRANCH   1  17
DOCKED: ATOM     17  C   UNL     1     139.529  75.840 221.680 -0.22 -0.05    +0.242 C  
DOCKED: ATOM     18  O   UNL     1     138.779  76.329 222.555 -0.26 +0.06    -0.273 OA 
DOCKED: BRANCH  17  19
DOCKED: ATOM     19  N   UNL     1     140.497  76.703 221.099 -0.11 +0.11    -0.334 N  
DOCKED: ATOM     20  C   UNL     1     141.832  76.225 220.713 -0.15 -0.06    +0.120 C  
DOCKED: ATOM     21  C   UNL     1     140.250  78.114 220.841 -0.17 -0.04    +0.115 C  
DOCKED: ATOM     22  C   UNL     1     141.937  76.427 219.233 -0.24 -0.01    +0.022 C  
DOCKED: ATOM     23  C   UNL     1     140.492  78.471 219.404 -0.13 -0.01    +0.030 C  
DOCKED: ATOM     24  C   UNL     1     141.743  77.869 218.836 -0.24 -0.00    +0.004 C  
DOCKED: BRANCH  21  25
DOCKED: ATOM     25  C   UNL     1     141.086  78.855 221.810 -0.36 +0.01    -0.025 A  
DOCKED: ATOM     26  C   UNL     1     140.997  78.452 223.140 -0.50 -0.00    +0.006 A  
DOCKED: ATOM     27  C   UNL     1     141.922  79.879 221.521 -0.42 -0.00    +0.006 A  
DOCKED: ATOM     28  C   UNL     1     141.742  79.085 224.120 -0.58 -0.00    +0.000 A  
DOCKED: ATOM     29  C   UNL     1     142.669  80.514 222.502 -0.58 -0.00    +0.000 A  
DOCKED: ATOM     30  C   UNL     1     142.591  80.127 223.824 -0.65 -0.00    +0.000 A  
DOCKED: ENDBRANCH  21  25
DOCKED: ENDBRANCH  17  19
DOCKED: ENDBRANCH   1  17
DOCKED: TORSDOF 5
DOCKED: TER
DOCKED: ENDMDL
________________________________________________________________________________


    FINAL DOCKED STATE:
    ________________________


Run:   17 / 20
Time taken for this run:   0.028s

DOCKED: MODEL        17
DOCKED: USER    Run = 17
DOCKED: USER
DOCKED: USER    Estimated Free Energy of Binding    =  -9.12 kcal/mol  [=(1)+(2)+(3)-(4)]
DOCKED: USER
DOCKED: USER    (1) Final Intermolecular Energy     = -10.61 kcal/mol
DOCKED: USER        vdW + Hbond + desolv Energy     = -10.53 kcal/mol
DOCKED: USER        Electrostatic Energy            =  -0.08 kcal/mol
DOCKED: USER        Moving Ligand-Fixed Receptor    = -10.61 kcal/mol
DOCKED: USER        Moving Ligand-Moving Receptor   =  +0.00 kcal/mol
DOCKED: USER    (2) Final Total Internal Energy     =  -1.54 kcal/mol
DOCKED: USER    (3) Torsional Free Energy           =  +1.49 kcal/mol
DOCKED: USER    (4) Unbound System's Energy         =  -1.54 kcal/mol
DOCKED: USER
DOCKED: USER
DOCKED: REMARK SMILES O=C(NCC(=O)N1CCCC[C@@H]1c1ccccc1)c1ccc2cc(F)ccc2n1
DOCKED: REMARK SMILES IDX 4 1 3 2 2 3 1 4 19 6 20 7 29 8 21 9 28 10 22 11 27 12 23 13
DOCKED: REMARK SMILES IDX 26 14 24 15 25 16 5 17 6 18 7 19 8 20 12 21 9 22 11 23 10 24
DOCKED: REMARK SMILES IDX 13 25 14 26 18 27 15 28 17 29 16 30
DOCKED: REMARK H PARENT 3 5
DOCKED: USER                              x       y       z     vdW  Elec       q    Type
DOCKED: USER                           _______ _______ _______ _____ _____    ______ ____
DOCKED: ROOT
DOCKED: ATOM      1  C   UNL     1     140.018  74.513 221.124 -0.18 -0.04    +0.216 C  
DOCKED: ENDROOT
DOCKED: BRANCH   1   2
DOCKED: ATOM      2  N   UNL     1     139.842  73.634 222.258 -0.12 +0.04    -0.342 N  
DOCKED: ATOM      3  C   UNL     1     140.449  72.350 222.317 -0.21 -0.03    +0.270 C  
DOCKED: ATOM      4  O   UNL     1     141.174  71.946 221.348 -0.15 +0.03    -0.268 OA 
DOCKED: ATOM      5  H   UNL     1     139.250  73.910 223.095 -0.54 -0.06    +0.164 HD 
DOCKED: BRANCH   3   6
DOCKED: ATOM      6  C   UNL     1     140.245  71.495 223.483 -0.32 -0.02    +0.128 A  
DOCKED: ATOM      7  C   UNL     1     139.594  70.285 223.332 -0.26 -0.01    +0.035 A  
DOCKED: ATOM      8  N   UNL     1     140.691  71.892 224.695 -0.26 +0.03    -0.243 NA 
DOCKED: ATOM      9  C   UNL     1     139.397  69.472 224.434 -0.34 -0.00    +0.013 A  
DOCKED: ATOM     10  C   UNL     1     140.489  71.084 225.754 -0.53 -0.01    +0.071 A  
DOCKED: ATOM     11  C   UNL     1     139.851  69.871 225.677 -0.46 -0.00    +0.003 A  
DOCKED: ATOM     12  C   UNL     1     140.969  71.546 226.972 -0.72 -0.01    +0.032 A  
DOCKED: ATOM     13  C   UNL     1     139.664  69.065 226.801 -0.52 -0.01    +0.049 A  
DOCKED: ATOM     14  C   UNL     1     140.797  70.772 228.092 -0.63 -0.01    +0.041 A  
DOCKED: ATOM     15  C   UNL     1     140.152  69.553 227.996 -0.52 -0.02    +0.123 A  
DOCKED: ATOM     16  F   UNL     1     139.977  68.779 229.100 -0.14 +0.03    -0.207 F  
DOCKED: ENDBRANCH   3   6
DOCKED: ENDBRANCH   1   2
DOCKED: BRANCH   1  17
DOCKED: ATOM     17  C   UNL     1     139.784  75.925 221.458 -0.21 -0.06    +0.242 C  
DOCKED: ATOM     18  O   UNL     1     138.856  76.328 222.194 -0.23 +0.06    -0.273 OA 
DOCKED: BRANCH  17  19
DOCKED: ATOM     19  N   UNL     1     140.659  76.907 220.919 -0.10 +0.12    -0.334 N  
DOCKED: ATOM     20  C   UNL     1     142.014  76.571 220.457 -0.17 -0.07    +0.120 C  
DOCKED: ATOM     21  C   UNL     1     140.291  78.308 220.781 -0.17 -0.04    +0.115 C  
DOCKED: ATOM     22  C   UNL     1     142.048  76.894 218.995 -0.26 -0.01    +0.022 C  
DOCKED: ATOM     23  C   UNL     1     140.452  78.792 219.370 -0.13 -0.01    +0.030 C  
DOCKED: ATOM     24  C   UNL     1     141.725  78.341 218.720 -0.25 -0.00    +0.004 C  
DOCKED: BRANCH  21  25
DOCKED: ATOM     25  C   UNL     1     141.099  79.039 221.780 -0.35 +0.01    -0.025 A  
DOCKED: ATOM     26  C   UNL     1     141.074  78.542 223.081 -0.52 -0.00    +0.006 A  
DOCKED: ATOM     27  C   UNL     1     141.855  80.136 221.545 -0.43 -0.00    +0.006 A  
DOCKED: ATOM     28  C   UNL     1     141.799  79.157 224.086 -0.59 -0.00    +0.000 A  
DOCKED: ATOM     29  C   UNL     1     142.582  80.754 222.552 -0.56 -0.00    +0.000 A  
DOCKED: ATOM     30  C   UNL     1     142.566  80.274 223.845 -0.66 -0.00    +0.000 A  
DOCKED: ENDBRANCH  21  25
DOCKED: ENDBRANCH  17  19
DOCKED: ENDBRANCH   1  17
DOCKED: TORSDOF 5
DOCKED: TER
DOCKED: ENDMDL
________________________________________________________________________________


    FINAL DOCKED STATE:
    ________________________


Run:   18 / 20
Time taken for this run:   0.028s

DOCKED: MODEL        18
DOCKED: USER    Run = 18
DOCKED: USER
DOCKED: USER    Estimated Free Energy of Binding    =  -9.20 kcal/mol  [=(1)+(2)+(3)-(4)]
DOCKED: USER
DOCKED: USER    (1) Final Intermolecular Energy     = -10.69 kcal/mol
DOCKED: USER        vdW + Hbond + desolv Energy     = -10.59 kcal/mol
DOCKED: USER        Electrostatic Energy            =  -0.10 kcal/mol
DOCKED: USER        Moving Ligand-Fixed Receptor    = -10.69 kcal/mol
DOCKED: USER        Moving Ligand-Moving Receptor   =  +0.00 kcal/mol
DOCKED: USER    (2) Final Total Internal Energy     =  -1.48 kcal/mol
DOCKED: USER    (3) Torsional Free Energy           =  +1.49 kcal/mol
DOCKED: USER    (4) Unbound System's Energy         =  -1.48 kcal/mol
DOCKED: USER
DOCKED: USER
DOCKED: REMARK SMILES O=C(NCC(=O)N1CCCC[C@@H]1c1ccccc1)c1ccc2cc(F)ccc2n1
DOCKED: REMARK SMILES IDX 4 1 3 2 2 3 1 4 19 6 20 7 29 8 21 9 28 10 22 11 27 12 23 13
DOCKED: REMARK SMILES IDX 26 14 24 15 25 16 5 17 6 18 7 19 8 20 12 21 9 22 11 23 10 24
DOCKED: REMARK SMILES IDX 13 25 14 26 18 27 15 28 17 29 16 30
DOCKED: REMARK H PARENT 3 5
DOCKED: USER                              x       y       z     vdW  Elec       q    Type
DOCKED: USER                           _______ _______ _______ _____ _____    ______ ____
DOCKED: ROOT
DOCKED: ATOM      1  C   UNL     1     139.519  74.433 221.215 -0.17 -0.04    +0.216 C  
DOCKED: ENDROOT
DOCKED: BRANCH   1   2
DOCKED: ATOM      2  N   UNL     1     139.429  73.506 222.320 -0.12 +0.07    -0.342 N  
DOCKED: ATOM      3  C   UNL     1     140.324  72.411 222.460 -0.21 -0.03    +0.270 C  
DOCKED: ATOM      4  O   UNL     1     141.241  72.226 221.591 -0.19 +0.03    -0.268 OA 
DOCKED: ATOM      5  H   UNL     1     138.689  73.604 223.075 -0.53 -0.11    +0.164 HD 
DOCKED: BRANCH   3   6
DOCKED: ATOM      6  C   UNL     1     140.197  71.500 223.594 -0.33 -0.02    +0.128 A  
DOCKED: ATOM      7  C   UNL     1     139.578  70.277 223.416 -0.27 -0.01    +0.035 A  
DOCKED: ATOM      8  N   UNL     1     140.683  71.857 224.803 -0.28 +0.03    -0.243 NA 
DOCKED: ATOM      9  C   UNL     1     139.454  69.411 224.487 -0.34 -0.00    +0.013 A  
DOCKED: ATOM     10  C   UNL     1     140.552  70.998 225.831 -0.54 -0.01    +0.071 A  
DOCKED: ATOM     11  C   UNL     1     139.949  69.770 225.727 -0.47 -0.00    +0.003 A  
DOCKED: ATOM     12  C   UNL     1     141.071  71.422 227.048 -0.72 -0.01    +0.032 A  
DOCKED: ATOM     13  C   UNL     1     139.836  68.909 226.821 -0.54 -0.01    +0.049 A  
DOCKED: ATOM     14  C   UNL     1     140.971  70.594 228.138 -0.59 -0.01    +0.041 A  
DOCKED: ATOM     15  C   UNL     1     140.361  69.361 228.015 -0.53 -0.02    +0.123 A  
DOCKED: ATOM     16  F   UNL     1     140.258  68.534 229.089 -0.16 +0.04    -0.207 F  
DOCKED: ENDBRANCH   3   6
DOCKED: ENDBRANCH   1   2
DOCKED: BRANCH   1  17
DOCKED: ATOM     17  C   UNL     1     139.537  75.836 221.649 -0.21 -0.05    +0.242 C  
DOCKED: ATOM     18  O   UNL     1     138.761  76.316 222.506 -0.25 +0.06    -0.273 OA 
DOCKED: BRANCH  17  19
DOCKED: ATOM     19  N   UNL     1     140.490  76.717 221.071 -0.11 +0.11    -0.334 N  
DOCKED: ATOM     20  C   UNL     1     141.829  76.259 220.671 -0.16 -0.06    +0.120 C  
DOCKED: ATOM     21  C   UNL     1     140.224  78.127 220.829 -0.16 -0.04    +0.115 C  
DOCKED: ATOM     22  C   UNL     1     141.920  76.478 219.192 -0.24 -0.01    +0.022 C  
DOCKED: ATOM     23  C   UNL     1     140.451  78.501 219.394 -0.13 -0.01    +0.030 C  
DOCKED: ATOM     24  C   UNL     1     141.705  77.921 218.811 -0.24 -0.00    +0.004 C  
DOCKED: BRANCH  21  25
DOCKED: ATOM     25  C   UNL     1     141.057  78.869 221.799 -0.35 +0.01    -0.025 A  
DOCKED: ATOM     26  C   UNL     1     141.035  78.410 223.114 -0.51 -0.00    +0.006 A  
DOCKED: ATOM     27  C   UNL     1     141.833  79.943 221.526 -0.43 -0.00    +0.006 A  
DOCKED: ATOM     28  C   UNL     1     141.783  79.038 224.094 -0.59 -0.00    +0.000 A  
DOCKED: ATOM     29  C   UNL     1     142.583  80.574 222.507 -0.58 -0.00    +0.000 A  
DOCKED: ATOM     30  C   UNL     1     142.570  80.131 223.813 -0.65 -0.00    +0.000 A  
DOCKED: ENDBRANCH  21  25
DOCKED: ENDBRANCH  17  19
DOCKED: ENDBRANCH   1  17
DOCKED: TORSDOF 5
DOCKED: TER
DOCKED: ENDMDL
________________________________________________________________________________


    FINAL DOCKED STATE:
    ________________________


Run:   19 / 20
Time taken for this run:   0.028s

DOCKED: MODEL        19
DOCKED: USER    Run = 19
DOCKED: USER
DOCKED: USER    Estimated Free Energy of Binding    =  -8.93 kcal/mol  [=(1)+(2)+(3)-(4)]
DOCKED: USER
DOCKED: USER    (1) Final Intermolecular Energy     = -10.42 kcal/mol
DOCKED: USER        vdW + Hbond + desolv Energy     = -10.31 kcal/mol
DOCKED: USER        Electrostatic Energy            =  -0.11 kcal/mol
DOCKED: USER        Moving Ligand-Fixed Receptor    = -10.42 kcal/mol
DOCKED: USER        Moving Ligand-Moving Receptor   =  +0.00 kcal/mol
DOCKED: USER    (2) Final Total Internal Energy     =  -1.67 kcal/mol
DOCKED: USER    (3) Torsional Free Energy           =  +1.49 kcal/mol
DOCKED: USER    (4) Unbound System's Energy         =  -1.67 kcal/mol
DOCKED: USER
DOCKED: USER
DOCKED: REMARK SMILES O=C(NCC(=O)N1CCCC[C@@H]1c1ccccc1)c1ccc2cc(F)ccc2n1
DOCKED: REMARK SMILES IDX 4 1 3 2 2 3 1 4 19 6 20 7 29 8 21 9 28 10 22 11 27 12 23 13
DOCKED: REMARK SMILES IDX 26 14 24 15 25 16 5 17 6 18 7 19 8 20 12 21 9 22 11 23 10 24
DOCKED: REMARK SMILES IDX 13 25 14 26 18 27 15 28 17 29 16 30
DOCKED: REMARK H PARENT 3 5
DOCKED: USER                              x       y       z     vdW  Elec       q    Type
DOCKED: USER                           _______ _______ _______ _____ _____    ______ ____
DOCKED: ROOT
DOCKED: ATOM      1  C   UNL     1     139.078  72.750 221.952 -0.16 -0.05    +0.216 C  
DOCKED: ENDROOT
DOCKED: BRANCH   1   2
DOCKED: ATOM      2  N   UNL     1     139.532  74.119 222.044 -0.14 +0.06    -0.342 N  
DOCKED: ATOM      3  C   UNL     1     140.544  74.635 221.190 -0.19 -0.05    +0.270 C  
DOCKED: ATOM      4  O   UNL     1     141.077  73.881 220.309 -0.10 +0.06    -0.268 OA 
DOCKED: ATOM      5  H   UNL     1     139.130  74.797 222.755 -0.41 -0.04    +0.164 HD 
DOCKED: BRANCH   3   6
DOCKED: ATOM      6  C   UNL     1     140.972  76.026 221.317 -0.28 -0.04    +0.128 A  
DOCKED: ATOM      7  C   UNL     1     141.726  76.599 220.311 -0.27 -0.02    +0.035 A  
DOCKED: ATOM      8  N   UNL     1     140.630  76.738 222.413 -0.28 +0.07    -0.243 NA 
DOCKED: ATOM      9  C   UNL     1     142.135  77.915 220.427 -0.26 -0.01    +0.013 A  
DOCKED: ATOM     10  C   UNL     1     141.039  78.018 222.505 -0.42 -0.03    +0.071 A  
DOCKED: ATOM     11  C   UNL     1     141.790  78.650 221.545 -0.40 -0.00    +0.003 A  
DOCKED: ATOM     12  C   UNL     1     140.657  78.698 223.654 -0.30 -0.01    +0.032 A  
DOCKED: ATOM     13  C   UNL     1     142.191  79.980 221.682 -0.43 -0.02    +0.049 A  
DOCKED: ATOM     14  C   UNL     1     141.040  80.006 223.812 -0.48 -0.01    +0.041 A  
DOCKED: ATOM     15  C   UNL     1     141.796  80.626 222.835 -0.47 -0.03    +0.123 A  
DOCKED: ATOM     16  F   UNL     1     142.180  81.923 222.982 -0.11 +0.03    -0.207 F  
DOCKED: ENDBRANCH   3   6
DOCKED: ENDBRANCH   1   2
DOCKED: BRANCH   1  17
DOCKED: ATOM     17  C   UNL     1     139.900  71.824 222.742 -0.23 -0.04    +0.242 C  
DOCKED: ATOM     18  O   UNL     1     141.126  71.645 222.562 -0.19 +0.02    -0.273 OA 
DOCKED: BRANCH  17  19
DOCKED: ATOM     19  N   UNL     1     139.281  71.077 223.780 -0.17 +0.07    -0.334 N  
DOCKED: ATOM     20  C   UNL     1     137.894  71.331 224.199 -0.01 -0.03    +0.120 C  
DOCKED: ATOM     21  C   UNL     1     139.957  70.012 224.505 -0.31 -0.02    +0.115 C  
DOCKED: ATOM     22  C   UNL     1     137.138  70.066 223.932 -0.24 -0.00    +0.022 C  
DOCKED: ATOM     23  C   UNL     1     139.193  68.722 224.447 -0.34 -0.00    +0.030 C  
DOCKED: ATOM     24  C   UNL     1     137.719  68.885 224.668 -0.28 -0.00    +0.004 C  
DOCKED: BRANCH  21  25
DOCKED: ATOM     25  C   UNL     1     140.185  70.533 225.870 -0.52 +0.00    -0.025 A  
DOCKED: ATOM     26  C   UNL     1     140.965  71.683 225.973 -0.62 -0.00    +0.006 A  
DOCKED: ATOM     27  C   UNL     1     139.708  69.998 227.017 -0.51 -0.00    +0.006 A  
DOCKED: ATOM     28  C   UNL     1     141.234  72.246 227.208 -0.82 -0.00    +0.000 A  
DOCKED: ATOM     29  C   UNL     1     139.976  70.561 228.256 -0.63 -0.00    +0.000 A  
DOCKED: ATOM     30  C   UNL     1     140.747  71.698 228.373 -0.74 -0.00    +0.000 A  
DOCKED: ENDBRANCH  21  25
DOCKED: ENDBRANCH  17  19
DOCKED: ENDBRANCH   1  17
DOCKED: TORSDOF 5
DOCKED: TER
DOCKED: ENDMDL
________________________________________________________________________________


    FINAL DOCKED STATE:
    ________________________


Run:   20 / 20
Time taken for this run:   0.028s

DOCKED: MODEL        20
DOCKED: USER    Run = 20
DOCKED: USER
DOCKED: USER    Estimated Free Energy of Binding    =  -8.93 kcal/mol  [=(1)+(2)+(3)-(4)]
DOCKED: USER
DOCKED: USER    (1) Final Intermolecular Energy     = -10.42 kcal/mol
DOCKED: USER        vdW + Hbond + desolv Energy     = -10.31 kcal/mol
DOCKED: USER        Electrostatic Energy            =  -0.11 kcal/mol
DOCKED: USER        Moving Ligand-Fixed Receptor    = -10.42 kcal/mol
DOCKED: USER        Moving Ligand-Moving Receptor   =  +0.00 kcal/mol
DOCKED: USER    (2) Final Total Internal Energy     =  -1.68 kcal/mol
DOCKED: USER    (3) Torsional Free Energy           =  +1.49 kcal/mol
DOCKED: USER    (4) Unbound System's Energy         =  -1.68 kcal/mol
DOCKED: USER
DOCKED: USER
DOCKED: REMARK SMILES O=C(NCC(=O)N1CCCC[C@@H]1c1ccccc1)c1ccc2cc(F)ccc2n1
DOCKED: REMARK SMILES IDX 4 1 3 2 2 3 1 4 19 6 20 7 29 8 21 9 28 10 22 11 27 12 23 13
DOCKED: REMARK SMILES IDX 26 14 24 15 25 16 5 17 6 18 7 19 8 20 12 21 9 22 11 23 10 24
DOCKED: REMARK SMILES IDX 13 25 14 26 18 27 15 28 17 29 16 30
DOCKED: REMARK H PARENT 3 5
DOCKED: USER                              x       y       z     vdW  Elec       q    Type
DOCKED: USER                           _______ _______ _______ _____ _____    ______ ____
DOCKED: ROOT
DOCKED: ATOM      1  C   UNL     1     139.085  72.727 221.953 -0.16 -0.05    +0.216 C  
DOCKED: ENDROOT
DOCKED: BRANCH   1   2
DOCKED: ATOM      2  N   UNL     1     139.548  74.093 222.043 -0.14 +0.06    -0.342 N  
DOCKED: ATOM      3  C   UNL     1     140.508  74.623 221.139 -0.19 -0.05    +0.270 C  
DOCKED: ATOM      4  O   UNL     1     140.985  73.884 220.214 -0.09 +0.06    -0.268 OA 
DOCKED: ATOM      5  H   UNL     1     139.190  74.759 222.788 -0.42 -0.04    +0.164 HD 
DOCKED: BRANCH   3   6
DOCKED: ATOM      6  C   UNL     1     140.947  76.011 221.265 -0.28 -0.04    +0.128 A  
DOCKED: ATOM      7  C   UNL     1     141.742  76.564 220.280 -0.27 -0.02    +0.035 A  
DOCKED: ATOM      8  N   UNL     1     140.575  76.739 222.341 -0.28 +0.07    -0.243 NA 
DOCKED: ATOM      9  C   UNL     1     142.161  77.876 220.395 -0.26 -0.01    +0.013 A  
DOCKED: ATOM     10  C   UNL     1     140.995  78.016 222.432 -0.41 -0.03    +0.071 A  
DOCKED: ATOM     11  C   UNL     1     141.785  78.628 221.492 -0.40 -0.00    +0.003 A  
DOCKED: ATOM     12  C   UNL     1     140.580  78.713 223.560 -0.34 -0.01    +0.032 A  
DOCKED: ATOM     13  C   UNL     1     142.196  79.956 221.628 -0.42 -0.02    +0.049 A  
DOCKED: ATOM     14  C   UNL     1     140.972  80.019 223.716 -0.48 -0.01    +0.041 A  
DOCKED: ATOM     15  C   UNL     1     141.768  80.619 222.759 -0.46 -0.03    +0.123 A  
DOCKED: ATOM     16  F   UNL     1     142.161  81.913 222.905 -0.11 +0.03    -0.207 F  
DOCKED: ENDBRANCH   3   6
DOCKED: ENDBRANCH   1   2
DOCKED: BRANCH   1  17
DOCKED: ATOM     17  C   UNL     1     139.906  71.796 222.739 -0.23 -0.04    +0.242 C  
DOCKED: ATOM     18  O   UNL     1     141.126  71.598 222.543 -0.18 +0.02    -0.273 OA 
DOCKED: BRANCH  17  19
DOCKED: ATOM     19  N   UNL     1     139.291  71.067 223.793 -0.17 +0.07    -0.334 N  
DOCKED: ATOM     20  C   UNL     1     137.910  71.334 224.219 -0.00 -0.03    +0.120 C  
DOCKED: ATOM     21  C   UNL     1     139.968  70.009 224.527 -0.31 -0.02    +0.115 C  
DOCKED: ATOM     22  C   UNL     1     137.145  70.069 223.976 -0.24 -0.00    +0.022 C  
DOCKED: ATOM     23  C   UNL     1     139.197  68.722 224.493 -0.34 -0.00    +0.030 C  
DOCKED: ATOM     24  C   UNL     1     137.726  68.895 224.723 -0.28 -0.00    +0.004 C  
DOCKED: BRANCH  21  25
DOCKED: ATOM     25  C   UNL     1     140.211  70.547 225.882 -0.52 +0.00    -0.025 A  
DOCKED: ATOM     26  C   UNL     1     140.998  71.693 225.963 -0.62 -0.00    +0.006 A  
DOCKED: ATOM     27  C   UNL     1     139.738  70.031 227.040 -0.52 -0.00    +0.006 A  
DOCKED: ATOM     28  C   UNL     1     141.280  72.272 227.187 -0.81 -0.00    +0.000 A  
DOCKED: ATOM     29  C   UNL     1     140.020  70.610 228.269 -0.63 -0.00    +0.000 A  
DOCKED: ATOM     30  C   UNL     1     140.799  71.744 228.364 -0.75 -0.00    +0.000 A  
DOCKED: ENDBRANCH  21  25
DOCKED: ENDBRANCH  17  19
DOCKED: ENDBRANCH   1  17
DOCKED: TORSDOF 5
DOCKED: TER
DOCKED: ENDMDL
________________________________________________________________________________


    CLUSTERING HISTOGRAM
    ____________________


________________________________________________________________________________
     |           |     |           |     |
Clus | Lowest    | Run | Mean      | Num | Histogram
-ter | Binding   |     | Binding   | in  |
Rank | Energy    |     | Energy    | Clus|    5    10   15   20   25   30   35
_____|___________|_____|___________|_____|____:____|____:____|____:____|____:___
   1 |     -9.21 |   2 |     -9.09 |  15 |###############
   2 |     -8.93 |  20 |     -8.91 |   5 |#####
_____|___________|_____|___________|_____|______________________________________


    RMSD TABLE
    __________


_______________________________________________________________________
     |      |      |           |         |                 |
Rank | Sub- | Run  | Binding   | Cluster | Reference       | Grep
     | Rank |      | Energy    | RMSD    | RMSD            | Pattern
_____|______|______|___________|_________|_________________|___________
   1      1      2       -9.21      0.00    271.45           RANKING
   1      2     18       -9.20      0.18    271.45           RANKING
   1      3     16       -9.19      0.15    271.47           RANKING
   1      4      3       -9.18      0.21    271.47           RANKING
   1      5      1       -9.17      0.35    271.47           RANKING
   1      6     10       -9.17      0.28    271.48           RANKING
   1      7     17       -9.12      0.44    271.45           RANKING
   1      8      8       -9.10      0.45    271.47           RANKING
   1      9      9       -9.07      0.74    271.36           RANKING
   1     10      6       -9.07      0.44    271.45           RANKING
   1     11     15       -9.03      0.44    271.44           RANKING
   1     12      7       -9.03      0.77    271.32           RANKING
   1     13     12       -9.01      0.77    271.33           RANKING
   1     14     14       -8.99      1.25    271.53           RANKING
   1     15      5       -8.84      0.81    271.29           RANKING
   2      1     20       -8.93      0.00    271.41           RANKING
   2      2     19       -8.93      0.07    271.43           RANKING
   2      3     13       -8.92      0.08    271.42           RANKING
   2      4      4       -8.90      0.05    271.39           RANKING
   2      5     11       -8.89      0.14    271.40           RANKING

Run time 0.530 sec
Idle time 0.000 sec
