AutoDock-GPU version: v1.6

**********************************************************
**    AutoDock-GPU AUTODOCKTOOLS-COMPATIBLE DLG FILE    **
**********************************************************


    DOCKING PARAMETERS
    ________________________


Ligand file:                               /home/a/REINVENT4/ReinventStudies/pleaseWork/justmol2mol_4_Compounds_ontop/graph-dock-amy28i/graph-DockGPU/node-autodockgpu/inputs/GABYHMWSGGSGHB-LVSCZHILNA-N.pdbqt
Grid fld file:                             /home/a/REINVENT4/ReinventStudies/mols/Rad51/maps/rad51_receptor.maps.fld

Random seed:                               42
Number of runs:                            20
Number of energy evaluations:              1132076
Number of generations:                     42000
Size of population:                        150
Rate of crossover:                         80.000000%
Tournament selection probability limit:    60.000000%
Rate of mutation:                          2.000000%
Maximal allowed delta movement:            +/- 6.000000A
Maximal allowed delta angle:               +/- 90.000000

Rate of local search:                      100.000000%
Maximal number of local search iterations: 300
Rho lower bound:                           0.010000
Spread of local search delta movement:     2.000000A
Spread of local search delta angle:        74.999999
Limit of consecutive successes/failures:   4

Handle symmetry during clustering:         YES
RMSD tolerance:                            2.000000A

Program call in command line was:          /home/a/REINVENT4/ReinventStudies/adgpu-v1.6_linux_x64_cuda12_128wi --filelist batch.txt --heuristics 1 --nrun 20 --psize 150 --lsit 300 --seed 42 --heurmax 12000000 


    GRID PARAMETERS
    ________________________


Receptor name:                             rad51_receptor
Number of grid points (x, y, z):           53, 53, 53
Grid center (x, y, z):                     139.950000, 75.640000, 221.970000A
Grid size (x, y, z):                       19.500000, 19.500000, 19.500000A
Grid spacing:                              0.375000A


    LIGAND PARAMETERS
    ________________________


Ligand name:                               /home/a/REINVENT4/ReinventStudies/pleaseWork/justmol2mol_4_Compounds_ontop/graph-dock-amy28i/graph-DockGPU/node-autodockgpu/inputs/GABYHMWSGGSGHB-LVSCZHILNA-N
Number of atoms:                           29
Number of rotatable bonds:                 5
Number of atom types:                      6


    DUMMY DATA (only for ADT-compatibility)
    ________________________


DPF> outlev 1
DPF> ga_run 20
DPF> fld /home/a/REINVENT4/ReinventStudies/mols/Rad51/maps/rad51_receptor.maps.fld
DPF> move /home/a/REINVENT4/ReinventStudies/pleaseWork/justmol2mol_4_Compounds_ontop/graph-dock-amy28i/graph-DockGPU/node-autodockgpu/inputs/GABYHMWSGGSGHB-LVSCZHILNA-N.pdbqt


    COUNTER STATES
    ________________________


Number of energy evaluations performed:    616296
Number of generations used:                30


    INPUT LIGAND PDBQT FILE:
    ________________________


INPUT-LIGAND-PDBQT: REMARK SMILES O=C(NCC(=O)N1CCCC[C@H]1C1CCOCC1)c1ccc2ccccc2n1
INPUT-LIGAND-PDBQT: REMARK SMILES IDX 4 1 3 2 2 3 1 4 19 6 20 7 28 8 21 9 27 10 22 11 26 12 23 13
INPUT-LIGAND-PDBQT: REMARK SMILES IDX 25 14 24 15 5 16 6 17 7 18 8 19 12 20 9 21 11 22 10 23 13 24
INPUT-LIGAND-PDBQT: REMARK SMILES IDX 14 25 18 26 15 27 17 28 16 29
INPUT-LIGAND-PDBQT: REMARK H PARENT 3 5
INPUT-LIGAND-PDBQT: ROOT
INPUT-LIGAND-PDBQT: ATOM      1  C   UNL     1       0.565  -1.794   0.296  1.00  0.00     0.216 C 
INPUT-LIGAND-PDBQT: ENDROOT
INPUT-LIGAND-PDBQT: BRANCH   1   2
INPUT-LIGAND-PDBQT: ATOM      2  N   UNL     1       1.853  -1.163   0.124  1.00  0.00    -0.342 N 
INPUT-LIGAND-PDBQT: ATOM      3  C   UNL     1       2.218   0.005   0.808  1.00  0.00     0.270 C 
INPUT-LIGAND-PDBQT: ATOM      4  O   UNL     1       1.399   0.539   1.610  1.00  0.00    -0.268 OA
INPUT-LIGAND-PDBQT: ATOM      5  H   UNL     1       2.555  -1.583  -0.536  1.00  0.00     0.164 HD
INPUT-LIGAND-PDBQT: BRANCH   3   6
INPUT-LIGAND-PDBQT: ATOM      6  C   UNL     1       3.537   0.603   0.597  1.00  0.00     0.128 A 
INPUT-LIGAND-PDBQT: ATOM      7  C   UNL     1       3.872   1.769   1.294  1.00  0.00     0.035 A 
INPUT-LIGAND-PDBQT: ATOM      8  N   UNL     1       4.404   0.033  -0.256  1.00  0.00    -0.243 NA
INPUT-LIGAND-PDBQT: ATOM      9  C   UNL     1       5.127   2.286   1.054  1.00  0.00     0.013 A 
INPUT-LIGAND-PDBQT: ATOM     10  C   UNL     1       5.623   0.551  -0.478  1.00  0.00     0.071 A 
INPUT-LIGAND-PDBQT: ATOM     11  C   UNL     1       6.018   1.699   0.177  1.00  0.00     0.000 A 
INPUT-LIGAND-PDBQT: ATOM     12  C   UNL     1       6.488  -0.051  -1.354  1.00  0.00     0.029 A 
INPUT-LIGAND-PDBQT: ATOM     13  C   UNL     1       7.270   2.200  -0.074  1.00  0.00     0.010 A 
INPUT-LIGAND-PDBQT: ATOM     14  C   UNL     1       7.753   0.424  -1.630  1.00  0.00     0.002 A 
INPUT-LIGAND-PDBQT: ATOM     15  C   UNL     1       8.145   1.582  -0.967  1.00  0.00     0.001 A 
INPUT-LIGAND-PDBQT: ENDBRANCH   3   6
INPUT-LIGAND-PDBQT: ENDBRANCH   1   2
INPUT-LIGAND-PDBQT: BRANCH   1  16
INPUT-LIGAND-PDBQT: ATOM     16  C   UNL     1      -0.493  -0.828  -0.096  1.00  0.00     0.242 C 
INPUT-LIGAND-PDBQT: ATOM     17  O   UNL     1      -0.243   0.340  -0.505  1.00  0.00    -0.273 OA
INPUT-LIGAND-PDBQT: BRANCH  16  18
INPUT-LIGAND-PDBQT: ATOM     18  N   UNL     1      -1.854  -1.243  -0.004  1.00  0.00    -0.338 N 
INPUT-LIGAND-PDBQT: ATOM     19  C   UNL     1      -2.216  -2.572   0.458  1.00  0.00     0.120 C 
INPUT-LIGAND-PDBQT: ATOM     20  C   UNL     1      -2.944  -0.359  -0.368  1.00  0.00     0.088 C 
INPUT-LIGAND-PDBQT: ATOM     21  C   UNL     1      -3.398  -3.131  -0.287  1.00  0.00     0.022 C 
INPUT-LIGAND-PDBQT: ATOM     22  C   UNL     1      -3.594  -0.946  -1.562  1.00  0.00     0.025 C 
INPUT-LIGAND-PDBQT: ATOM     23  C   UNL     1      -3.760  -2.435  -1.542  1.00  0.00     0.004 C 
INPUT-LIGAND-PDBQT: BRANCH  20  24
INPUT-LIGAND-PDBQT: ATOM     24  C   UNL     1      -3.833  -0.065   0.803  1.00  0.00     0.016 C 
INPUT-LIGAND-PDBQT: ATOM     25  C   UNL     1      -3.045   0.591   1.882  1.00  0.00     0.034 C 
INPUT-LIGAND-PDBQT: ATOM     26  C   UNL     1      -5.056   0.703   0.470  1.00  0.00     0.034 C 
INPUT-LIGAND-PDBQT: ATOM     27  C   UNL     1      -3.131   2.094   1.877  1.00  0.00     0.160 C 
INPUT-LIGAND-PDBQT: ATOM     28  C   UNL     1      -4.732   2.181   0.306  1.00  0.00     0.160 C 
INPUT-LIGAND-PDBQT: ATOM     29  O   UNL     1      -4.373   2.606   1.603  1.00  0.00    -0.381 OA
INPUT-LIGAND-PDBQT: ENDBRANCH  20  24
INPUT-LIGAND-PDBQT: ENDBRANCH  16  18
INPUT-LIGAND-PDBQT: ENDBRANCH   1  16
INPUT-LIGAND-PDBQT: TORSDOF 5


    FINAL DOCKED STATE:
    ________________________


Run:   1 / 20
Time taken for this run:   0.019s

DOCKED: MODEL        1
DOCKED: USER    Run = 1
DOCKED: USER
DOCKED: USER    Estimated Free Energy of Binding    =  -8.84 kcal/mol  [=(1)+(2)+(3)-(4)]
DOCKED: USER
DOCKED: USER    (1) Final Intermolecular Energy     = -10.33 kcal/mol
DOCKED: USER        vdW + Hbond + desolv Energy     = -10.26 kcal/mol
DOCKED: USER        Electrostatic Energy            =  -0.07 kcal/mol
DOCKED: USER        Moving Ligand-Fixed Receptor    = -10.33 kcal/mol
DOCKED: USER        Moving Ligand-Moving Receptor   =  +0.00 kcal/mol
DOCKED: USER    (2) Final Total Internal Energy     =  -1.32 kcal/mol
DOCKED: USER    (3) Torsional Free Energy           =  +1.49 kcal/mol
DOCKED: USER    (4) Unbound System's Energy         =  -1.32 kcal/mol
DOCKED: USER
DOCKED: USER
DOCKED: REMARK SMILES O=C(NCC(=O)N1CCCC[C@H]1C1CCOCC1)c1ccc2ccccc2n1
DOCKED: REMARK SMILES IDX 4 1 3 2 2 3 1 4 19 6 20 7 28 8 21 9 27 10 22 11 26 12 23 13
DOCKED: REMARK SMILES IDX 25 14 24 15 5 16 6 17 7 18 8 19 12 20 9 21 11 22 10 23 13 24
DOCKED: REMARK SMILES IDX 14 25 18 26 15 27 17 28 16 29
DOCKED: REMARK H PARENT 3 5
DOCKED: USER                              x       y       z     vdW  Elec       q    Type
DOCKED: USER                           _______ _______ _______ _____ _____    ______ ____
DOCKED: ROOT
DOCKED: ATOM      1  C   UNL     1     139.399  74.418 221.267 -0.17 -0.04    +0.216 C  
DOCKED: ENDROOT
DOCKED: BRANCH   1   2
DOCKED: ATOM      2  N   UNL     1     139.300  73.462 222.346 -0.10 +0.08    -0.342 N  
DOCKED: ATOM      3  C   UNL     1     140.317  72.541 222.632 -0.18 -0.02    +0.270 C  
DOCKED: ATOM      4  O   UNL     1     141.368  72.534 221.929 -0.24 +0.01    -0.268 OA 
DOCKED: ATOM      5  H   UNL     1     138.439  73.443 222.948 -0.52 -0.10    +0.164 HD 
DOCKED: BRANCH   3   6
DOCKED: ATOM      6  C   UNL     1     140.166  71.594 223.738 -0.34 -0.02    +0.128 A  
DOCKED: ATOM      7  C   UNL     1     139.482  70.394 223.514 -0.29 -0.01    +0.035 A  
DOCKED: ATOM      8  N   UNL     1     140.678  71.884 224.945 -0.28 +0.03    -0.243 NA 
DOCKED: ATOM      9  C   UNL     1     139.371  69.542 224.592 -0.35 -0.00    +0.013 A  
DOCKED: ATOM     10  C   UNL     1     140.560  71.042 225.985 -0.55 -0.01    +0.071 A  
DOCKED: ATOM     11  C   UNL     1     139.899  69.841 225.833 -0.48 -0.00    +0.000 A  
DOCKED: ATOM     12  C   UNL     1     141.092  71.363 227.207 -0.71 -0.00    +0.029 A  
DOCKED: ATOM     13  C   UNL     1     139.797  69.006 226.917 -0.57 -0.00    +0.010 A  
DOCKED: ATOM     14  C   UNL     1     141.010  70.549 228.316 -0.58 -0.00    +0.002 A  
DOCKED: ATOM     15  C   UNL     1     140.341  69.340 228.157 -0.64 -0.00    +0.001 A  
DOCKED: ENDBRANCH   3   6
DOCKED: ENDBRANCH   1   2
DOCKED: BRANCH   1  16
DOCKED: ATOM     16  C   UNL     1     140.227  75.564 221.723 -0.23 -0.05    +0.242 C  
DOCKED: ATOM     17  O   UNL     1     141.485  75.515 221.806 -0.33 +0.09    -0.273 OA 
DOCKED: BRANCH  16  18
DOCKED: ATOM     18  N   UNL     1     139.565  76.774 222.082 -0.17 +0.08    -0.338 N  
DOCKED: ATOM     19  C   UNL     1     138.259  76.769 222.719 -0.25 -0.02    +0.120 C  
DOCKED: ATOM     20  C   UNL     1     140.162  78.071 221.830 -0.28 -0.03    +0.088 C  
DOCKED: ATOM     21  C   UNL     1     137.388  77.899 222.240 -0.20 -0.00    +0.022 C  
DOCKED: ATOM     22  C   UNL     1     139.314  78.748 220.823 -0.13 -0.01    +0.025 C  
DOCKED: ATOM     23  C   UNL     1     137.836  78.583 221.006 -0.09 -0.00    +0.004 C  
DOCKED: BRANCH  20  24
DOCKED: ATOM     24  C   UNL     1     140.418  78.820 223.104 -0.45 -0.00    +0.016 C  
DOCKED: ATOM     25  C   UNL     1     141.839  78.649 223.513 -0.57 -0.01    +0.034 C  
DOCKED: ATOM     26  C   UNL     1     140.024  80.248 223.067 -0.40 -0.01    +0.034 C  
DOCKED: ATOM     27  C   UNL     1     142.743  79.769 223.074 -0.50 -0.06    +0.160 C  
DOCKED: ATOM     28  C   UNL     1     141.073  81.074 222.335 -0.35 -0.03    +0.160 C  
DOCKED: ATOM     29  O   UNL     1     142.205  81.026 223.176 -0.32 +0.07    -0.381 OA 
DOCKED: ENDBRANCH  20  24
DOCKED: ENDBRANCH  16  18
DOCKED: ENDBRANCH   1  16
DOCKED: TORSDOF 5
DOCKED: TER
DOCKED: ENDMDL
________________________________________________________________________________


    FINAL DOCKED STATE:
    ________________________


Run:   2 / 20
Time taken for this run:   0.019s

DOCKED: MODEL        2
DOCKED: USER    Run = 2
DOCKED: USER
DOCKED: USER    Estimated Free Energy of Binding    =  -8.34 kcal/mol  [=(1)+(2)+(3)-(4)]
DOCKED: USER
DOCKED: USER    (1) Final Intermolecular Energy     =  -9.83 kcal/mol
DOCKED: USER        vdW + Hbond + desolv Energy     =  -9.70 kcal/mol
DOCKED: USER        Electrostatic Energy            =  -0.13 kcal/mol
DOCKED: USER        Moving Ligand-Fixed Receptor    =  -9.83 kcal/mol
DOCKED: USER        Moving Ligand-Moving Receptor   =  +0.00 kcal/mol
DOCKED: USER    (2) Final Total Internal Energy     =  -1.85 kcal/mol
DOCKED: USER    (3) Torsional Free Energy           =  +1.49 kcal/mol
DOCKED: USER    (4) Unbound System's Energy         =  -1.85 kcal/mol
DOCKED: USER
DOCKED: USER
DOCKED: REMARK SMILES O=C(NCC(=O)N1CCCC[C@H]1C1CCOCC1)c1ccc2ccccc2n1
DOCKED: REMARK SMILES IDX 4 1 3 2 2 3 1 4 19 6 20 7 28 8 21 9 27 10 22 11 26 12 23 13
DOCKED: REMARK SMILES IDX 25 14 24 15 5 16 6 17 7 18 8 19 12 20 9 21 11 22 10 23 13 24
DOCKED: REMARK SMILES IDX 14 25 18 26 15 27 17 28 16 29
DOCKED: REMARK H PARENT 3 5
DOCKED: USER                              x       y       z     vdW  Elec       q    Type
DOCKED: USER                           _______ _______ _______ _____ _____    ______ ____
DOCKED: ROOT
DOCKED: ATOM      1  C   UNL     1     139.972  74.468 221.195 -0.19 -0.04    +0.216 C  
DOCKED: ENDROOT
DOCKED: BRANCH   1   2
DOCKED: ATOM      2  N   UNL     1     139.826  73.589 222.331 -0.12 +0.04    -0.342 N  
DOCKED: ATOM      3  C   UNL     1     140.421  72.321 222.385 -0.21 -0.03    +0.270 C  
DOCKED: ATOM      4  O   UNL     1     141.116  71.917 221.409 -0.16 +0.03    -0.268 OA 
DOCKED: ATOM      5  H   UNL     1     139.254  73.896 223.158 -0.51 -0.07    +0.164 HD 
DOCKED: BRANCH   3   6
DOCKED: ATOM      6  C   UNL     1     140.241  71.469 223.562 -0.33 -0.02    +0.128 A  
DOCKED: ATOM      7  C   UNL     1     139.602  70.233 223.413 -0.26 -0.01    +0.035 A  
DOCKED: ATOM      8  N   UNL     1     140.685  71.879 224.761 -0.27 +0.03    -0.243 NA 
DOCKED: ATOM      9  C   UNL     1     139.461  69.476 224.556 -0.35 -0.00    +0.013 A  
DOCKED: ATOM     10  C   UNL     1     140.539  71.128 225.865 -0.55 -0.01    +0.071 A  
DOCKED: ATOM     11  C   UNL     1     139.918  69.898 225.789 -0.48 -0.00    +0.000 A  
DOCKED: ATOM     12  C   UNL     1     141.001  71.570 227.077 -0.74 -0.00    +0.029 A  
DOCKED: ATOM     13  C   UNL     1     139.786  69.158 226.937 -0.56 -0.00    +0.010 A  
DOCKED: ATOM     14  C   UNL     1     140.886  70.854 228.249 -0.64 -0.00    +0.002 A  
DOCKED: ATOM     15  C   UNL     1     140.259  69.615 228.166 -0.62 -0.00    +0.001 A  
DOCKED: ENDBRANCH   3   6
DOCKED: ENDBRANCH   1   2
DOCKED: BRANCH   1  16
DOCKED: ATOM     16  C   UNL     1     139.680  75.858 221.630 -0.22 -0.05    +0.242 C  
DOCKED: ATOM     17  O   UNL     1     139.059  76.131 222.695 -0.30 +0.05    -0.273 OA 
DOCKED: BRANCH  16  18
DOCKED: ATOM     18  N   UNL     1     140.123  76.932 220.803 -0.06 +0.10    -0.338 N  
DOCKED: ATOM     19  C   UNL     1     139.404  77.313 219.599 -0.05 -0.03    +0.120 C  
DOCKED: ATOM     20  C   UNL     1     141.313  77.695 221.121 -0.28 -0.04    +0.088 C  
DOCKED: ATOM     21  C   UNL     1     140.332  77.725 218.488 -0.07 -0.01    +0.022 C  
DOCKED: ATOM     22  C   UNL     1     142.303  77.415 220.056 -0.26 -0.02    +0.025 C  
DOCKED: ATOM     23  C   UNL     1     141.754  77.355 218.663 -0.22 -0.00    +0.004 C  
DOCKED: BRANCH  20  24
DOCKED: ATOM     24  C   UNL     1     140.994  79.138 221.377 -0.32 -0.01    +0.016 C  
DOCKED: ATOM     25  C   UNL     1     140.141  79.258 222.591 -0.36 -0.01    +0.034 C  
DOCKED: ATOM     26  C   UNL     1     142.177  80.027 221.446 -0.38 -0.02    +0.034 C  
DOCKED: ATOM     27  C   UNL     1     140.907  79.559 223.851 -0.40 -0.03    +0.160 C  
DOCKED: ATOM     28  C   UNL     1     142.860  79.907 222.801 -0.49 -0.06    +0.160 C  
DOCKED: ATOM     29  O   UNL     1     141.932  80.459 223.710 -0.31 +0.08    -0.381 OA 
DOCKED: ENDBRANCH  20  24
DOCKED: ENDBRANCH  16  18
DOCKED: ENDBRANCH   1  16
DOCKED: TORSDOF 5
DOCKED: TER
DOCKED: ENDMDL
________________________________________________________________________________


    FINAL DOCKED STATE:
    ________________________


Run:   3 / 20
Time taken for this run:   0.019s

DOCKED: MODEL        3
DOCKED: USER    Run = 3
DOCKED: USER
DOCKED: USER    Estimated Free Energy of Binding    =  -8.26 kcal/mol  [=(1)+(2)+(3)-(4)]
DOCKED: USER
DOCKED: USER    (1) Final Intermolecular Energy     =  -9.75 kcal/mol
DOCKED: USER        vdW + Hbond + desolv Energy     =  -9.62 kcal/mol
DOCKED: USER        Electrostatic Energy            =  -0.12 kcal/mol
DOCKED: USER        Moving Ligand-Fixed Receptor    =  -9.75 kcal/mol
DOCKED: USER        Moving Ligand-Moving Receptor   =  +0.00 kcal/mol
DOCKED: USER    (2) Final Total Internal Energy     =  -1.83 kcal/mol
DOCKED: USER    (3) Torsional Free Energy           =  +1.49 kcal/mol
DOCKED: USER    (4) Unbound System's Energy         =  -1.83 kcal/mol
DOCKED: USER
DOCKED: USER
DOCKED: REMARK SMILES O=C(NCC(=O)N1CCCC[C@H]1C1CCOCC1)c1ccc2ccccc2n1
DOCKED: REMARK SMILES IDX 4 1 3 2 2 3 1 4 19 6 20 7 28 8 21 9 27 10 22 11 26 12 23 13
DOCKED: REMARK SMILES IDX 25 14 24 15 5 16 6 17 7 18 8 19 12 20 9 21 11 22 10 23 13 24
DOCKED: REMARK SMILES IDX 14 25 18 26 15 27 17 28 16 29
DOCKED: REMARK H PARENT 3 5
DOCKED: USER                              x       y       z     vdW  Elec       q    Type
DOCKED: USER                           _______ _______ _______ _____ _____    ______ ____
DOCKED: ROOT
DOCKED: ATOM      1  C   UNL     1     140.236  74.556 221.265 -0.21 -0.04    +0.216 C  
DOCKED: ENDROOT
DOCKED: BRANCH   1   2
DOCKED: ATOM      2  N   UNL     1     139.971  73.637 222.348 -0.09 +0.02    -0.342 N  
DOCKED: ATOM      3  C   UNL     1     140.647  72.416 222.483 -0.17 -0.02    +0.270 C  
DOCKED: ATOM      4  O   UNL     1     141.525  72.092 221.632 -0.18 +0.02    -0.268 OA 
DOCKED: ATOM      5  H   UNL     1     139.247  73.877 223.071 -0.53 -0.06    +0.164 HD 
DOCKED: BRANCH   3   6
DOCKED: ATOM      6  C   UNL     1     140.340  71.521 223.600 -0.33 -0.02    +0.128 A  
DOCKED: ATOM      7  C   UNL     1     139.643  70.335 223.347 -0.26 -0.01    +0.035 A  
DOCKED: ATOM      8  N   UNL     1     140.726  71.846 224.845 -0.27 +0.03    -0.243 NA 
DOCKED: ATOM      9  C   UNL     1     139.383  69.534 224.438 -0.34 -0.00    +0.013 A  
DOCKED: ATOM     10  C   UNL     1     140.463  71.053 225.897 -0.54 -0.01    +0.071 A  
DOCKED: ATOM     11  C   UNL     1     139.780  69.868 225.718 -0.47 -0.00    +0.000 A  
DOCKED: ATOM     12  C   UNL     1     140.868  71.408 227.157 -0.72 -0.01    +0.029 A  
DOCKED: ATOM     13  C   UNL     1     139.529  69.083 226.814 -0.53 -0.00    +0.010 A  
DOCKED: ATOM     14  C   UNL     1     140.634  70.644 228.281 -0.61 -0.00    +0.002 A  
DOCKED: ATOM     15  C   UNL     1     139.945  69.451 228.094 -0.63 -0.00    +0.001 A  
DOCKED: ENDBRANCH   3   6
DOCKED: ENDBRANCH   1   2
DOCKED: BRANCH   1  16
DOCKED: ATOM     16  C   UNL     1     139.567  75.848 221.566 -0.21 -0.05    +0.242 C  
DOCKED: ATOM     17  O   UNL     1     138.636  75.962 222.410 -0.25 +0.06    -0.273 OA 
DOCKED: BRANCH  16  18
DOCKED: ATOM     18  N   UNL     1     140.001  77.011 220.865 -0.06 +0.10    -0.338 N  
DOCKED: ATOM     19  C   UNL     1     139.260  77.539 219.732 -0.05 -0.03    +0.120 C  
DOCKED: ATOM     20  C   UNL     1     141.204  77.725 221.248 -0.29 -0.04    +0.088 C  
DOCKED: ATOM     21  C   UNL     1     140.168  78.077 218.659 -0.08 -0.01    +0.022 C  
DOCKED: ATOM     22  C   UNL     1     142.169  77.570 220.135 -0.28 -0.02    +0.025 C  
DOCKED: ATOM     23  C   UNL     1     141.591  77.682 218.757 -0.22 -0.00    +0.004 C  
DOCKED: BRANCH  20  24
DOCKED: ATOM     24  C   UNL     1     140.901  79.127 221.682 -0.34 -0.01    +0.016 C  
DOCKED: ATOM     25  C   UNL     1     140.301  79.114 223.045 -0.43 -0.01    +0.034 C  
DOCKED: ATOM     26  C   UNL     1     142.049  80.061 221.595 -0.42 -0.01    +0.034 C  
DOCKED: ATOM     27  C   UNL     1     141.292  79.351 224.153 -0.32 -0.03    +0.160 C  
DOCKED: ATOM     28  C   UNL     1     142.988  79.865 222.776 -0.46 -0.07    +0.160 C  
DOCKED: ATOM     29  O   UNL     1     142.243  80.303 223.892 -0.32 +0.08    -0.381 OA 
DOCKED: ENDBRANCH  20  24
DOCKED: ENDBRANCH  16  18
DOCKED: ENDBRANCH   1  16
DOCKED: TORSDOF 5
DOCKED: TER
DOCKED: ENDMDL
________________________________________________________________________________


    FINAL DOCKED STATE:
    ________________________


Run:   4 / 20
Time taken for this run:   0.019s

DOCKED: MODEL        4
DOCKED: USER    Run = 4
DOCKED: USER
DOCKED: USER    Estimated Free Energy of Binding    =  -8.30 kcal/mol  [=(1)+(2)+(3)-(4)]
DOCKED: USER
DOCKED: USER    (1) Final Intermolecular Energy     =  -9.79 kcal/mol
DOCKED: USER        vdW + Hbond + desolv Energy     =  -9.67 kcal/mol
DOCKED: USER        Electrostatic Energy            =  -0.12 kcal/mol
DOCKED: USER        Moving Ligand-Fixed Receptor    =  -9.79 kcal/mol
DOCKED: USER        Moving Ligand-Moving Receptor   =  +0.00 kcal/mol
DOCKED: USER    (2) Final Total Internal Energy     =  -1.87 kcal/mol
DOCKED: USER    (3) Torsional Free Energy           =  +1.49 kcal/mol
DOCKED: USER    (4) Unbound System's Energy         =  -1.87 kcal/mol
DOCKED: USER
DOCKED: USER
DOCKED: REMARK SMILES O=C(NCC(=O)N1CCCC[C@H]1C1CCOCC1)c1ccc2ccccc2n1
DOCKED: REMARK SMILES IDX 4 1 3 2 2 3 1 4 19 6 20 7 28 8 21 9 27 10 22 11 26 12 23 13
DOCKED: REMARK SMILES IDX 25 14 24 15 5 16 6 17 7 18 8 19 12 20 9 21 11 22 10 23 13 24
DOCKED: REMARK SMILES IDX 14 25 18 26 15 27 17 28 16 29
DOCKED: REMARK H PARENT 3 5
DOCKED: USER                              x       y       z     vdW  Elec       q    Type
DOCKED: USER                           _______ _______ _______ _____ _____    ______ ____
DOCKED: ROOT
DOCKED: ATOM      1  C   UNL     1     139.911  74.452 221.196 -0.19 -0.04    +0.216 C  
DOCKED: ENDROOT
DOCKED: BRANCH   1   2
DOCKED: ATOM      2  N   UNL     1     139.818  73.581 222.344 -0.12 +0.04    -0.342 N  
DOCKED: ATOM      3  C   UNL     1     140.341  72.280 222.347 -0.21 -0.03    +0.270 C  
DOCKED: ATOM      4  O   UNL     1     140.920  71.838 221.313 -0.14 +0.03    -0.268 OA 
DOCKED: ATOM      5  H   UNL     1     139.343  73.919 223.218 -0.49 -0.06    +0.164 HD 
DOCKED: BRANCH   3   6
DOCKED: ATOM      6  C   UNL     1     140.220  71.438 223.539 -0.32 -0.02    +0.128 A  
DOCKED: ATOM      7  C   UNL     1     139.620  70.179 223.421 -0.26 -0.01    +0.035 A  
DOCKED: ATOM      8  N   UNL     1     140.680  71.878 224.721 -0.27 +0.03    -0.243 NA 
DOCKED: ATOM      9  C   UNL     1     139.534  69.433 224.576 -0.35 -0.00    +0.013 A  
DOCKED: ATOM     10  C   UNL     1     140.587  71.137 225.837 -0.55 -0.01    +0.071 A  
DOCKED: ATOM     11  C   UNL     1     140.008  69.886 225.792 -0.48 -0.00    +0.000 A  
DOCKED: ATOM     12  C   UNL     1     141.064  71.611 227.031 -0.74 -0.00    +0.029 A  
DOCKED: ATOM     13  C   UNL     1     139.929  69.157 226.951 -0.57 -0.00    +0.010 A  
DOCKED: ATOM     14  C   UNL     1     141.003  70.905 228.215 -0.66 -0.00    +0.002 A  
DOCKED: ATOM     15  C   UNL     1     140.417  69.645 228.163 -0.62 -0.00    +0.001 A  
DOCKED: ENDBRANCH   3   6
DOCKED: ENDBRANCH   1   2
DOCKED: BRANCH   1  16
DOCKED: ATOM     16  C   UNL     1     139.660  75.848 221.638 -0.22 -0.05    +0.242 C  
DOCKED: ATOM     17  O   UNL     1     139.060  76.134 222.712 -0.31 +0.05    -0.273 OA 
DOCKED: BRANCH  16  18
DOCKED: ATOM     18  N   UNL     1     140.119  76.912 220.808 -0.06 +0.10    -0.338 N  
DOCKED: ATOM     19  C   UNL     1     139.423  77.280 219.587 -0.05 -0.03    +0.120 C  
DOCKED: ATOM     20  C   UNL     1     141.303  77.680 221.141 -0.29 -0.04    +0.088 C  
DOCKED: ATOM     21  C   UNL     1     140.372  77.680 218.489 -0.08 -0.01    +0.022 C  
DOCKED: ATOM     22  C   UNL     1     142.313  77.387 220.098 -0.25 -0.02    +0.025 C  
DOCKED: ATOM     23  C   UNL     1     141.791  77.313 218.695 -0.23 -0.00    +0.004 C  
DOCKED: BRANCH  20  24
DOCKED: ATOM     24  C   UNL     1     140.979  79.125 221.374 -0.32 -0.01    +0.016 C  
DOCKED: ATOM     25  C   UNL     1     140.055  79.253 222.534 -0.34 -0.01    +0.034 C  
DOCKED: ATOM     26  C   UNL     1     142.162  80.006 221.514 -0.39 -0.02    +0.034 C  
DOCKED: ATOM     27  C   UNL     1     140.745  79.551 223.838 -0.39 -0.03    +0.160 C  
DOCKED: ATOM     28  C   UNL     1     142.760  79.883 222.908 -0.50 -0.06    +0.160 C  
DOCKED: ATOM     29  O   UNL     1     141.783  80.443 223.758 -0.30 +0.07    -0.381 OA 
DOCKED: ENDBRANCH  20  24
DOCKED: ENDBRANCH  16  18
DOCKED: ENDBRANCH   1  16
DOCKED: TORSDOF 5
DOCKED: TER
DOCKED: ENDMDL
________________________________________________________________________________


    FINAL DOCKED STATE:
    ________________________


Run:   5 / 20
Time taken for this run:   0.019s

DOCKED: MODEL        5
DOCKED: USER    Run = 5
DOCKED: USER
DOCKED: USER    Estimated Free Energy of Binding    =  -8.23 kcal/mol  [=(1)+(2)+(3)-(4)]
DOCKED: USER
DOCKED: USER    (1) Final Intermolecular Energy     =  -9.72 kcal/mol
DOCKED: USER        vdW + Hbond + desolv Energy     =  -9.61 kcal/mol
DOCKED: USER        Electrostatic Energy            =  -0.11 kcal/mol
DOCKED: USER        Moving Ligand-Fixed Receptor    =  -9.72 kcal/mol
DOCKED: USER        Moving Ligand-Moving Receptor   =  +0.00 kcal/mol
DOCKED: USER    (2) Final Total Internal Energy     =  -1.94 kcal/mol
DOCKED: USER    (3) Torsional Free Energy           =  +1.49 kcal/mol
DOCKED: USER    (4) Unbound System's Energy         =  -1.94 kcal/mol
DOCKED: USER
DOCKED: USER
DOCKED: REMARK SMILES O=C(NCC(=O)N1CCCC[C@H]1C1CCOCC1)c1ccc2ccccc2n1
DOCKED: REMARK SMILES IDX 4 1 3 2 2 3 1 4 19 6 20 7 28 8 21 9 27 10 22 11 26 12 23 13
DOCKED: REMARK SMILES IDX 25 14 24 15 5 16 6 17 7 18 8 19 12 20 9 21 11 22 10 23 13 24
DOCKED: REMARK SMILES IDX 14 25 18 26 15 27 17 28 16 29
DOCKED: REMARK H PARENT 3 5
DOCKED: USER                              x       y       z     vdW  Elec       q    Type
DOCKED: USER                           _______ _______ _______ _____ _____    ______ ____
DOCKED: ROOT
DOCKED: ATOM      1  C   UNL     1     140.108  74.197 221.230 -0.19 -0.04    +0.216 C  
DOCKED: ENDROOT
DOCKED: BRANCH   1   2
DOCKED: ATOM      2  N   UNL     1     139.957  73.352 222.391 -0.12 +0.03    -0.342 N  
DOCKED: ATOM      3  C   UNL     1     140.334  72.001 222.396 -0.21 -0.03    +0.270 C  
DOCKED: ATOM      4  O   UNL     1     140.826  71.488 221.350 -0.13 +0.03    -0.268 OA 
DOCKED: ATOM      5  H   UNL     1     139.551  73.749 223.276 -0.48 -0.04    +0.164 HD 
DOCKED: BRANCH   3   6
DOCKED: ATOM      6  C   UNL     1     140.160  71.190 223.601 -0.32 -0.02    +0.128 A  
DOCKED: ATOM      7  C   UNL     1     139.571  69.926 223.488 -0.25 -0.01    +0.035 A  
DOCKED: ATOM      8  N   UNL     1     140.562  71.662 224.792 -0.30 +0.04    -0.243 NA 
DOCKED: ATOM      9  C   UNL     1     139.433  69.208 224.657 -0.36 -0.00    +0.013 A  
DOCKED: ATOM     10  C   UNL     1     140.420  70.949 225.922 -0.53 -0.01    +0.071 A  
DOCKED: ATOM     11  C   UNL     1     139.848  69.695 225.882 -0.47 -0.00    +0.000 A  
DOCKED: ATOM     12  C   UNL     1     140.839  71.455 227.124 -0.72 -0.01    +0.029 A  
DOCKED: ATOM     13  C   UNL     1     139.718  68.995 227.054 -0.57 -0.00    +0.010 A  
DOCKED: ATOM     14  C   UNL     1     140.725  70.780 228.321 -0.61 -0.00    +0.002 A  
DOCKED: ATOM     15  C   UNL     1     140.147  69.516 228.274 -0.63 -0.00    +0.001 A  
DOCKED: ENDBRANCH   3   6
DOCKED: ENDBRANCH   1   2
DOCKED: BRANCH   1  16
DOCKED: ATOM     16  C   UNL     1     139.883  75.607 221.636 -0.23 -0.05    +0.242 C  
DOCKED: ATOM     17  O   UNL     1     139.321  75.931 222.720 -0.38 +0.05    -0.273 OA 
DOCKED: BRANCH  16  18
DOCKED: ATOM     18  N   UNL     1     140.323  76.642 220.759 -0.07 +0.11    -0.338 N  
DOCKED: ATOM     19  C   UNL     1     139.652  76.908 219.498 -0.06 -0.03    +0.120 C  
DOCKED: ATOM     20  C   UNL     1     141.463  77.478 221.081 -0.26 -0.05    +0.088 C  
DOCKED: ATOM     21  C   UNL     1     140.618  77.286 218.408 -0.08 -0.01    +0.022 C  
DOCKED: ATOM     22  C   UNL     1     142.516  77.171 220.087 -0.24 -0.02    +0.025 C  
DOCKED: ATOM     23  C   UNL     1     142.043  76.993 218.677 -0.25 -0.00    +0.004 C  
DOCKED: BRANCH  20  24
DOCKED: ATOM     24  C   UNL     1     141.071  78.918 221.220 -0.32 -0.01    +0.016 C  
DOCKED: ATOM     25  C   UNL     1     139.996  79.052 222.241 -0.31 -0.01    +0.034 C  
DOCKED: ATOM     26  C   UNL     1     142.200  79.840 221.485 -0.36 -0.02    +0.034 C  
DOCKED: ATOM     27  C   UNL     1     140.497  79.412 223.615 -0.39 -0.03    +0.160 C  
DOCKED: ATOM     28  C   UNL     1     142.609  79.779 222.950 -0.51 -0.06    +0.160 C  
DOCKED: ATOM     29  O   UNL     1     141.511  80.333 223.643 -0.27 +0.07    -0.381 OA 
DOCKED: ENDBRANCH  20  24
DOCKED: ENDBRANCH  16  18
DOCKED: ENDBRANCH   1  16
DOCKED: TORSDOF 5
DOCKED: TER
DOCKED: ENDMDL
________________________________________________________________________________


    FINAL DOCKED STATE:
    ________________________


Run:   6 / 20
Time taken for this run:   0.019s

DOCKED: MODEL        6
DOCKED: USER    Run = 6
DOCKED: USER
DOCKED: USER    Estimated Free Energy of Binding    =  -8.26 kcal/mol  [=(1)+(2)+(3)-(4)]
DOCKED: USER
DOCKED: USER    (1) Final Intermolecular Energy     =  -9.75 kcal/mol
DOCKED: USER        vdW + Hbond + desolv Energy     =  -9.65 kcal/mol
DOCKED: USER        Electrostatic Energy            =  -0.10 kcal/mol
DOCKED: USER        Moving Ligand-Fixed Receptor    =  -9.75 kcal/mol
DOCKED: USER        Moving Ligand-Moving Receptor   =  +0.00 kcal/mol
DOCKED: USER    (2) Final Total Internal Energy     =  -1.92 kcal/mol
DOCKED: USER    (3) Torsional Free Energy           =  +1.49 kcal/mol
DOCKED: USER    (4) Unbound System's Energy         =  -1.92 kcal/mol
DOCKED: USER
DOCKED: USER
DOCKED: REMARK SMILES O=C(NCC(=O)N1CCCC[C@H]1C1CCOCC1)c1ccc2ccccc2n1
DOCKED: REMARK SMILES IDX 4 1 3 2 2 3 1 4 19 6 20 7 28 8 21 9 27 10 22 11 26 12 23 13
DOCKED: REMARK SMILES IDX 25 14 24 15 5 16 6 17 7 18 8 19 12 20 9 21 11 22 10 23 13 24
DOCKED: REMARK SMILES IDX 14 25 18 26 15 27 17 28 16 29
DOCKED: REMARK H PARENT 3 5
DOCKED: USER                              x       y       z     vdW  Elec       q    Type
DOCKED: USER                           _______ _______ _______ _____ _____    ______ ____
DOCKED: ROOT
DOCKED: ATOM      1  C   UNL     1     139.994  74.473 221.206 -0.19 -0.04    +0.216 C  
DOCKED: ENDROOT
DOCKED: BRANCH   1   2
DOCKED: ATOM      2  N   UNL     1     139.900  73.599 222.352 -0.10 +0.03    -0.342 N  
DOCKED: ATOM      3  C   UNL     1     140.308  72.258 222.313 -0.21 -0.03    +0.270 C  
DOCKED: ATOM      4  O   UNL     1     140.776  71.780 221.240 -0.13 +0.04    -0.268 OA 
DOCKED: ATOM      5  H   UNL     1     139.515  73.967 223.258 -0.49 -0.03    +0.164 HD 
DOCKED: BRANCH   3   6
DOCKED: ATOM      6  C   UNL     1     140.192  71.416 223.505 -0.32 -0.02    +0.128 A  
DOCKED: ATOM      7  C   UNL     1     139.589  70.159 223.390 -0.26 -0.01    +0.035 A  
DOCKED: ATOM      8  N   UNL     1     140.660  71.854 224.685 -0.27 +0.03    -0.243 NA 
DOCKED: ATOM      9  C   UNL     1     139.508  69.411 224.546 -0.35 -0.00    +0.013 A  
DOCKED: ATOM     10  C   UNL     1     140.572  71.112 225.801 -0.54 -0.01    +0.071 A  
DOCKED: ATOM     11  C   UNL     1     139.990  69.863 225.759 -0.48 -0.00    +0.000 A  
DOCKED: ATOM     12  C   UNL     1     141.058  71.584 226.992 -0.74 -0.00    +0.029 A  
DOCKED: ATOM     13  C   UNL     1     139.917  69.133 226.918 -0.56 -0.00    +0.010 A  
DOCKED: ATOM     14  C   UNL     1     141.003  70.878 228.176 -0.66 -0.00    +0.002 A  
DOCKED: ATOM     15  C   UNL     1     140.414  69.619 228.127 -0.62 -0.00    +0.001 A  
DOCKED: ENDBRANCH   3   6
DOCKED: ENDBRANCH   1   2
DOCKED: BRANCH   1  16
DOCKED: ATOM     16  C   UNL     1     139.699  75.862 221.643 -0.22 -0.05    +0.242 C  
DOCKED: ATOM     17  O   UNL     1     139.090  76.133 222.715 -0.31 +0.05    -0.273 OA 
DOCKED: BRANCH  16  18
DOCKED: ATOM     18  N   UNL     1     140.126  76.937 220.809 -0.06 +0.10    -0.338 N  
DOCKED: ATOM     19  C   UNL     1     139.385  77.319 219.620 -0.05 -0.03    +0.120 C  
DOCKED: ATOM     20  C   UNL     1     141.321  77.701 221.108 -0.28 -0.04    +0.088 C  
DOCKED: ATOM     21  C   UNL     1     140.292  77.734 218.493 -0.07 -0.01    +0.022 C  
DOCKED: ATOM     22  C   UNL     1     142.292  77.423 220.024 -0.26 -0.02    +0.025 C  
DOCKED: ATOM     23  C   UNL     1     141.718  77.365 218.641 -0.22 -0.00    +0.004 C  
DOCKED: BRANCH  20  24
DOCKED: ATOM     24  C   UNL     1     141.005  79.143 221.371 -0.32 -0.01    +0.016 C  
DOCKED: ATOM     25  C   UNL     1     140.150  79.258 222.584 -0.36 -0.01    +0.034 C  
DOCKED: ATOM     26  C   UNL     1     142.191  80.029 221.448 -0.37 -0.02    +0.034 C  
DOCKED: ATOM     27  C   UNL     1     140.914  79.550 223.848 -0.41 -0.03    +0.160 C  
DOCKED: ATOM     28  C   UNL     1     142.870  79.899 222.804 -0.49 -0.06    +0.160 C  
DOCKED: ATOM     29  O   UNL     1     141.941  80.448 223.714 -0.31 +0.08    -0.381 OA 
DOCKED: ENDBRANCH  20  24
DOCKED: ENDBRANCH  16  18
DOCKED: ENDBRANCH   1  16
DOCKED: TORSDOF 5
DOCKED: TER
DOCKED: ENDMDL
________________________________________________________________________________


    FINAL DOCKED STATE:
    ________________________


Run:   7 / 20
Time taken for this run:   0.019s

DOCKED: MODEL        7
DOCKED: USER    Run = 7
DOCKED: USER
DOCKED: USER    Estimated Free Energy of Binding    =  -8.13 kcal/mol  [=(1)+(2)+(3)-(4)]
DOCKED: USER
DOCKED: USER    (1) Final Intermolecular Energy     =  -9.62 kcal/mol
DOCKED: USER        vdW + Hbond + desolv Energy     =  -9.36 kcal/mol
DOCKED: USER        Electrostatic Energy            =  -0.25 kcal/mol
DOCKED: USER        Moving Ligand-Fixed Receptor    =  -9.62 kcal/mol
DOCKED: USER        Moving Ligand-Moving Receptor   =  +0.00 kcal/mol
DOCKED: USER    (2) Final Total Internal Energy     =  -1.84 kcal/mol
DOCKED: USER    (3) Torsional Free Energy           =  +1.49 kcal/mol
DOCKED: USER    (4) Unbound System's Energy         =  -1.84 kcal/mol
DOCKED: USER
DOCKED: USER
DOCKED: REMARK SMILES O=C(NCC(=O)N1CCCC[C@H]1C1CCOCC1)c1ccc2ccccc2n1
DOCKED: REMARK SMILES IDX 4 1 3 2 2 3 1 4 19 6 20 7 28 8 21 9 27 10 22 11 26 12 23 13
DOCKED: REMARK SMILES IDX 25 14 24 15 5 16 6 17 7 18 8 19 12 20 9 21 11 22 10 23 13 24
DOCKED: REMARK SMILES IDX 14 25 18 26 15 27 17 28 16 29
DOCKED: REMARK H PARENT 3 5
DOCKED: USER                              x       y       z     vdW  Elec       q    Type
DOCKED: USER                           _______ _______ _______ _____ _____    ______ ____
DOCKED: ROOT
DOCKED: ATOM      1  C   UNL     1     139.208  73.504 221.666 -0.17 -0.05    +0.216 C  
DOCKED: ENDROOT
DOCKED: BRANCH   1   2
DOCKED: ATOM      2  N   UNL     1     139.355  72.614 222.794 -0.06 +0.09    -0.342 N  
DOCKED: ATOM      3  C   UNL     1     139.351  71.219 222.660 -0.17 -0.05    +0.270 C  
DOCKED: ATOM      4  O   UNL     1     139.214  70.704 221.513 -0.08 +0.05    -0.268 OA 
DOCKED: ATOM      5  H   UNL     1     139.471  73.013 223.760 -0.32 -0.08    +0.164 HD 
DOCKED: BRANCH   3   6
DOCKED: ATOM      6  C   UNL     1     139.505  70.363 223.837 -0.27 -0.02    +0.128 A  
DOCKED: ATOM      7  C   UNL     1     139.053  69.040 223.778 -0.27 -0.01    +0.035 A  
DOCKED: ATOM      8  N   UNL     1     140.072  70.851 224.953 -0.28 +0.04    -0.243 NA 
DOCKED: ATOM      9  C   UNL     1     139.224  68.283 224.917 -0.41 -0.00    +0.013 A  
DOCKED: ATOM     10  C   UNL     1     140.231  70.099 226.054 -0.47 -0.01    +0.071 A  
DOCKED: ATOM     11  C   UNL     1     139.808  68.786 226.063 -0.53 -0.00    +0.000 A  
DOCKED: ATOM     12  C   UNL     1     140.813  70.622 227.179 -0.62 -0.00    +0.029 A  
DOCKED: ATOM     13  C   UNL     1     139.986  68.047 227.205 -0.65 -0.00    +0.010 A  
DOCKED: ATOM     14  C   UNL     1     141.008  69.909 228.343 -0.57 -0.00    +0.002 A  
DOCKED: ATOM     15  C   UNL     1     140.579  68.587 228.346 -0.67 -0.00    +0.001 A  
DOCKED: ENDBRANCH   3   6
DOCKED: ENDBRANCH   1   2
DOCKED: BRANCH   1  16
DOCKED: ATOM     16  C   UNL     1     140.541  74.062 221.324 -0.20 -0.04    +0.242 C  
DOCKED: ATOM     17  O   UNL     1     141.011  75.104 221.859 -0.54 +0.04    -0.273 OA 
DOCKED: BRANCH  16  18
DOCKED: ATOM     18  N   UNL     1     141.325  73.385 220.343 -0.06 +0.06    -0.338 N  
DOCKED: ATOM     19  C   UNL     1     140.788  73.055 219.034 -0.04 -0.02    +0.120 C  
DOCKED: ATOM     20  C   UNL     1     142.695  72.992 220.605 -0.23 -0.01    +0.088 C  
DOCKED: ATOM     21  C   UNL     1     141.278  71.721 218.538 -0.04 -0.00    +0.022 C  
DOCKED: ATOM     22  C   UNL     1     142.725  71.511 220.611 -0.21 -0.00    +0.025 C  
DOCKED: ATOM     23  C   UNL     1     141.902  70.843 219.553 -0.12 -0.00    +0.004 C  
DOCKED: BRANCH  20  24
DOCKED: ATOM     24  C   UNL     1     143.655  73.677 219.679 -0.31 -0.00    +0.016 C  
DOCKED: ATOM     25  C   UNL     1     144.640  74.466 220.467 -0.45 -0.01    +0.034 C  
DOCKED: ATOM     26  C   UNL     1     144.321  72.779 218.706 -0.20 -0.00    +0.034 C  
DOCKED: ATOM     27  C   UNL     1     145.937  73.746 220.724 -0.55 -0.02    +0.160 C  
DOCKED: ATOM     28  C   UNL     1     145.459  72.019 219.372 -0.25 +0.07    +0.160 C  
DOCKED: ATOM     29  O   UNL     1     146.416  73.013 219.669 -0.63 -0.27    -0.381 OA 
DOCKED: ENDBRANCH  20  24
DOCKED: ENDBRANCH  16  18
DOCKED: ENDBRANCH   1  16
DOCKED: TORSDOF 5
DOCKED: TER
DOCKED: ENDMDL
________________________________________________________________________________


    FINAL DOCKED STATE:
    ________________________


Run:   8 / 20
Time taken for this run:   0.019s

DOCKED: MODEL        8
DOCKED: USER    Run = 8
DOCKED: USER
DOCKED: USER    Estimated Free Energy of Binding    =  -8.32 kcal/mol  [=(1)+(2)+(3)-(4)]
DOCKED: USER
DOCKED: USER    (1) Final Intermolecular Energy     =  -9.81 kcal/mol
DOCKED: USER        vdW + Hbond + desolv Energy     =  -9.69 kcal/mol
DOCKED: USER        Electrostatic Energy            =  -0.12 kcal/mol
DOCKED: USER        Moving Ligand-Fixed Receptor    =  -9.81 kcal/mol
DOCKED: USER        Moving Ligand-Moving Receptor   =  +0.00 kcal/mol
DOCKED: USER    (2) Final Total Internal Energy     =  -1.87 kcal/mol
DOCKED: USER    (3) Torsional Free Energy           =  +1.49 kcal/mol
DOCKED: USER    (4) Unbound System's Energy         =  -1.87 kcal/mol
DOCKED: USER
DOCKED: USER
DOCKED: REMARK SMILES O=C(NCC(=O)N1CCCC[C@H]1C1CCOCC1)c1ccc2ccccc2n1
DOCKED: REMARK SMILES IDX 4 1 3 2 2 3 1 4 19 6 20 7 28 8 21 9 27 10 22 11 26 12 23 13
DOCKED: REMARK SMILES IDX 25 14 24 15 5 16 6 17 7 18 8 19 12 20 9 21 11 22 10 23 13 24
DOCKED: REMARK SMILES IDX 14 25 18 26 15 27 17 28 16 29
DOCKED: REMARK H PARENT 3 5
DOCKED: USER                              x       y       z     vdW  Elec       q    Type
DOCKED: USER                           _______ _______ _______ _____ _____    ______ ____
DOCKED: ROOT
DOCKED: ATOM      1  C   UNL     1     140.070  74.435 221.201 -0.19 -0.04    +0.216 C  
DOCKED: ENDROOT
DOCKED: BRANCH   1   2
DOCKED: ATOM      2  N   UNL     1     139.890  73.573 222.346 -0.11 +0.03    -0.342 N  
DOCKED: ATOM      3  C   UNL     1     140.471  72.300 222.431 -0.20 -0.03    +0.270 C  
DOCKED: ATOM      4  O   UNL     1     141.182  71.875 221.476 -0.16 +0.03    -0.268 OA 
DOCKED: ATOM      5  H   UNL     1     139.304  73.898 223.156 -0.51 -0.06    +0.164 HD 
DOCKED: BRANCH   3   6
DOCKED: ATOM      6  C   UNL     1     140.257  71.468 223.616 -0.33 -0.02    +0.128 A  
DOCKED: ATOM      7  C   UNL     1     139.612  70.235 223.470 -0.27 -0.01    +0.035 A  
DOCKED: ATOM      8  N   UNL     1     140.677  71.892 224.819 -0.27 +0.03    -0.243 NA 
DOCKED: ATOM      9  C   UNL     1     139.438  69.496 224.621 -0.36 -0.00    +0.013 A  
DOCKED: ATOM     10  C   UNL     1     140.499  71.159 225.930 -0.55 -0.01    +0.071 A  
DOCKED: ATOM     11  C   UNL     1     139.871  69.933 225.858 -0.48 -0.00    +0.000 A  
DOCKED: ATOM     12  C   UNL     1     140.937  71.616 227.145 -0.74 -0.01    +0.029 A  
DOCKED: ATOM     13  C   UNL     1     139.706  69.211 227.012 -0.55 -0.00    +0.010 A  
DOCKED: ATOM     14  C   UNL     1     140.789  70.917 228.325 -0.64 -0.00    +0.002 A  
DOCKED: ATOM     15  C   UNL     1     140.154  69.682 228.246 -0.62 -0.00    +0.001 A  
DOCKED: ENDBRANCH   3   6
DOCKED: ENDBRANCH   1   2
DOCKED: BRANCH   1  16
DOCKED: ATOM     16  C   UNL     1     139.669  75.815 221.577 -0.21 -0.05    +0.242 C  
DOCKED: ATOM     17  O   UNL     1     138.946  76.074 222.579 -0.29 +0.06    -0.273 OA 
DOCKED: BRANCH  16  18
DOCKED: ATOM     18  N   UNL     1     140.125  76.895 220.766 -0.06 +0.10    -0.338 N  
DOCKED: ATOM     19  C   UNL     1     139.427  77.286 219.554 -0.05 -0.03    +0.120 C  
DOCKED: ATOM     20  C   UNL     1     141.310  77.656 221.111 -0.28 -0.04    +0.088 C  
DOCKED: ATOM     21  C   UNL     1     140.373  77.707 218.463 -0.08 -0.01    +0.022 C  
DOCKED: ATOM     22  C   UNL     1     142.317  77.385 220.061 -0.25 -0.02    +0.025 C  
DOCKED: ATOM     23  C   UNL     1     141.792  77.337 218.658 -0.23 -0.00    +0.004 C  
DOCKED: BRANCH  20  24
DOCKED: ATOM     24  C   UNL     1     140.985  79.097 221.373 -0.32 -0.01    +0.016 C  
DOCKED: ATOM     25  C   UNL     1     140.009  79.198 222.492 -0.34 -0.01    +0.034 C  
DOCKED: ATOM     26  C   UNL     1     142.167  79.964 221.593 -0.41 -0.02    +0.034 C  
DOCKED: ATOM     27  C   UNL     1     140.640  79.452 223.835 -0.39 -0.03    +0.160 C  
DOCKED: ATOM     28  C   UNL     1     142.699  79.795 223.009 -0.51 -0.06    +0.160 C  
DOCKED: ATOM     29  O   UNL     1     141.687  80.337 223.830 -0.29 +0.07    -0.381 OA 
DOCKED: ENDBRANCH  20  24
DOCKED: ENDBRANCH  16  18
DOCKED: ENDBRANCH   1  16
DOCKED: TORSDOF 5
DOCKED: TER
DOCKED: ENDMDL
________________________________________________________________________________


    FINAL DOCKED STATE:
    ________________________


Run:   9 / 20
Time taken for this run:   0.019s

DOCKED: MODEL        9
DOCKED: USER    Run = 9
DOCKED: USER
DOCKED: USER    Estimated Free Energy of Binding    =  -8.25 kcal/mol  [=(1)+(2)+(3)-(4)]
DOCKED: USER
DOCKED: USER    (1) Final Intermolecular Energy     =  -9.74 kcal/mol
DOCKED: USER        vdW + Hbond + desolv Energy     =  -9.64 kcal/mol
DOCKED: USER        Electrostatic Energy            =  -0.10 kcal/mol
DOCKED: USER        Moving Ligand-Fixed Receptor    =  -9.74 kcal/mol
DOCKED: USER        Moving Ligand-Moving Receptor   =  +0.00 kcal/mol
DOCKED: USER    (2) Final Total Internal Energy     =  -1.93 kcal/mol
DOCKED: USER    (3) Torsional Free Energy           =  +1.49 kcal/mol
DOCKED: USER    (4) Unbound System's Energy         =  -1.93 kcal/mol
DOCKED: USER
DOCKED: USER
DOCKED: REMARK SMILES O=C(NCC(=O)N1CCCC[C@H]1C1CCOCC1)c1ccc2ccccc2n1
DOCKED: REMARK SMILES IDX 4 1 3 2 2 3 1 4 19 6 20 7 28 8 21 9 27 10 22 11 26 12 23 13
DOCKED: REMARK SMILES IDX 25 14 24 15 5 16 6 17 7 18 8 19 12 20 9 21 11 22 10 23 13 24
DOCKED: REMARK SMILES IDX 14 25 18 26 15 27 17 28 16 29
DOCKED: REMARK H PARENT 3 5
DOCKED: USER                              x       y       z     vdW  Elec       q    Type
DOCKED: USER                           _______ _______ _______ _____ _____    ______ ____
DOCKED: ROOT
DOCKED: ATOM      1  C   UNL     1     140.043  74.193 221.228 -0.19 -0.04    +0.216 C  
DOCKED: ENDROOT
DOCKED: BRANCH   1   2
DOCKED: ATOM      2  N   UNL     1     139.939  73.354 222.399 -0.12 +0.03    -0.342 N  
DOCKED: ATOM      3  C   UNL     1     140.309  72.001 222.393 -0.21 -0.03    +0.270 C  
DOCKED: ATOM      4  O   UNL     1     140.752  71.481 221.329 -0.13 +0.04    -0.268 OA 
DOCKED: ATOM      5  H   UNL     1     139.574  73.757 223.298 -0.48 -0.03    +0.164 HD 
DOCKED: BRANCH   3   6
DOCKED: ATOM      6  C   UNL     1     140.184  71.196 223.609 -0.32 -0.02    +0.128 A  
DOCKED: ATOM      7  C   UNL     1     139.581  69.936 223.528 -0.25 -0.01    +0.035 A  
DOCKED: ATOM      8  N   UNL     1     140.643  71.671 224.779 -0.30 +0.03    -0.243 NA 
DOCKED: ATOM      9  C   UNL     1     139.491  69.225 224.705 -0.36 -0.00    +0.013 A  
DOCKED: ATOM     10  C   UNL     1     140.546  70.963 225.916 -0.54 -0.01    +0.071 A  
DOCKED: ATOM     11  C   UNL     1     139.964  69.713 225.908 -0.48 -0.00    +0.000 A  
DOCKED: ATOM     12  C   UNL     1     141.023  71.471 227.096 -0.73 -0.00    +0.029 A  
DOCKED: ATOM     13  C   UNL     1     139.882  69.019 227.088 -0.58 -0.00    +0.010 A  
DOCKED: ATOM     14  C   UNL     1     140.959  70.802 228.300 -0.62 -0.00    +0.002 A  
DOCKED: ATOM     15  C   UNL     1     140.370  69.542 228.285 -0.62 -0.00    +0.001 A  
DOCKED: ENDBRANCH   3   6
DOCKED: ENDBRANCH   1   2
DOCKED: BRANCH   1  16
DOCKED: ATOM     16  C   UNL     1     139.831  75.605 221.635 -0.23 -0.05    +0.242 C  
DOCKED: ATOM     17  O   UNL     1     139.274  75.934 222.720 -0.37 +0.05    -0.273 OA 
DOCKED: BRANCH  16  18
DOCKED: ATOM     18  N   UNL     1     140.279  76.636 220.758 -0.07 +0.11    -0.338 N  
DOCKED: ATOM     19  C   UNL     1     139.612  76.906 219.496 -0.05 -0.03    +0.120 C  
DOCKED: ATOM     20  C   UNL     1     141.424  77.464 221.082 -0.27 -0.05    +0.088 C  
DOCKED: ATOM     21  C   UNL     1     140.583  77.277 218.407 -0.08 -0.01    +0.022 C  
DOCKED: ATOM     22  C   UNL     1     142.478  77.150 220.090 -0.26 -0.02    +0.025 C  
DOCKED: ATOM     23  C   UNL     1     142.006  76.974 218.678 -0.24 -0.00    +0.004 C  
DOCKED: BRANCH  20  24
DOCKED: ATOM     24  C   UNL     1     141.042  78.908 221.219 -0.31 -0.01    +0.016 C  
DOCKED: ATOM     25  C   UNL     1     139.937  79.045 222.207 -0.30 -0.01    +0.034 C  
DOCKED: ATOM     26  C   UNL     1     142.172  79.817 221.526 -0.37 -0.02    +0.034 C  
DOCKED: ATOM     27  C   UNL     1     140.398  79.390 223.598 -0.38 -0.03    +0.160 C  
DOCKED: ATOM     28  C   UNL     1     142.534  79.741 223.003 -0.52 -0.06    +0.160 C  
DOCKED: ATOM     29  O   UNL     1     141.420  80.301 223.665 -0.26 +0.07    -0.381 OA 
DOCKED: ENDBRANCH  20  24
DOCKED: ENDBRANCH  16  18
DOCKED: ENDBRANCH   1  16
DOCKED: TORSDOF 5
DOCKED: TER
DOCKED: ENDMDL
________________________________________________________________________________


    FINAL DOCKED STATE:
    ________________________


Run:   10 / 20
Time taken for this run:   0.019s

DOCKED: MODEL        10
DOCKED: USER    Run = 10
DOCKED: USER
DOCKED: USER    Estimated Free Energy of Binding    =  -8.31 kcal/mol  [=(1)+(2)+(3)-(4)]
DOCKED: USER
DOCKED: USER    (1) Final Intermolecular Energy     =  -9.81 kcal/mol
DOCKED: USER        vdW + Hbond + desolv Energy     =  -9.68 kcal/mol
DOCKED: USER        Electrostatic Energy            =  -0.13 kcal/mol
DOCKED: USER        Moving Ligand-Fixed Receptor    =  -9.81 kcal/mol
DOCKED: USER        Moving Ligand-Moving Receptor   =  +0.00 kcal/mol
DOCKED: USER    (2) Final Total Internal Energy     =  -1.86 kcal/mol
DOCKED: USER    (3) Torsional Free Energy           =  +1.49 kcal/mol
DOCKED: USER    (4) Unbound System's Energy         =  -1.86 kcal/mol
DOCKED: USER
DOCKED: USER
DOCKED: REMARK SMILES O=C(NCC(=O)N1CCCC[C@H]1C1CCOCC1)c1ccc2ccccc2n1
DOCKED: REMARK SMILES IDX 4 1 3 2 2 3 1 4 19 6 20 7 28 8 21 9 27 10 22 11 26 12 23 13
DOCKED: REMARK SMILES IDX 25 14 24 15 5 16 6 17 7 18 8 19 12 20 9 21 11 22 10 23 13 24
DOCKED: REMARK SMILES IDX 14 25 18 26 15 27 17 28 16 29
DOCKED: REMARK H PARENT 3 5
DOCKED: USER                              x       y       z     vdW  Elec       q    Type
DOCKED: USER                           _______ _______ _______ _____ _____    ______ ____
DOCKED: ROOT
DOCKED: ATOM      1  C   UNL     1     140.139  74.402 221.234 -0.20 -0.04    +0.216 C  
DOCKED: ENDROOT
DOCKED: BRANCH   1   2
DOCKED: ATOM      2  N   UNL     1     139.924  73.513 222.352 -0.12 +0.03    -0.342 N  
DOCKED: ATOM      3  C   UNL     1     140.514  72.244 222.432 -0.20 -0.03    +0.270 C  
DOCKED: ATOM      4  O   UNL     1     141.267  71.847 221.496 -0.16 +0.03    -0.268 OA 
DOCKED: ATOM      5  H   UNL     1     139.304  73.815 223.145 -0.51 -0.06    +0.164 HD 
DOCKED: BRANCH   3   6
DOCKED: ATOM      6  C   UNL     1     140.263  71.384 223.588 -0.32 -0.02    +0.128 A  
DOCKED: ATOM      7  C   UNL     1     139.586  70.174 223.399 -0.26 -0.01    +0.035 A  
DOCKED: ATOM      8  N   UNL     1     140.680  71.760 224.809 -0.29 +0.03    -0.243 NA 
DOCKED: ATOM      9  C   UNL     1     139.378  69.406 224.525 -0.35 -0.00    +0.013 A  
DOCKED: ATOM     10  C   UNL     1     140.468  71.000 225.895 -0.54 -0.01    +0.071 A  
DOCKED: ATOM     11  C   UNL     1     139.807  69.794 225.779 -0.47 -0.00    +0.000 A  
DOCKED: ATOM     12  C   UNL     1     140.903  71.409 227.128 -0.72 -0.00    +0.029 A  
DOCKED: ATOM     13  C   UNL     1     139.609  69.044 226.910 -0.55 -0.00    +0.010 A  
DOCKED: ATOM     14  C   UNL     1     140.722  70.680 228.285 -0.61 -0.00    +0.002 A  
DOCKED: ATOM     15  C   UNL     1     140.054  69.466 228.162 -0.63 -0.00    +0.001 A  
DOCKED: ENDBRANCH   3   6
DOCKED: ENDBRANCH   1   2
DOCKED: BRANCH   1  16
DOCKED: ATOM     16  C   UNL     1     139.749  75.777 221.638 -0.22 -0.05    +0.242 C  
DOCKED: ATOM     17  O   UNL     1     139.079  76.025 222.679 -0.32 +0.05    -0.273 OA 
DOCKED: BRANCH  16  18
DOCKED: ATOM     18  N   UNL     1     140.151  76.864 220.808 -0.06 +0.10    -0.338 N  
DOCKED: ATOM     19  C   UNL     1     139.391  77.246 219.630 -0.05 -0.03    +0.120 C  
DOCKED: ATOM     20  C   UNL     1     141.339  77.643 221.100 -0.28 -0.04    +0.088 C  
DOCKED: ATOM     21  C   UNL     1     140.280  77.682 218.497 -0.07 -0.01    +0.022 C  
DOCKED: ATOM     22  C   UNL     1     142.301  77.388 220.003 -0.27 -0.02    +0.025 C  
DOCKED: ATOM     23  C   UNL     1     141.712  77.332 218.626 -0.21 -0.00    +0.004 C  
DOCKED: BRANCH  20  24
DOCKED: ATOM     24  C   UNL     1     141.005  79.078 221.378 -0.32 -0.01    +0.016 C  
DOCKED: ATOM     25  C   UNL     1     140.201  79.176 222.626 -0.37 -0.01    +0.034 C  
DOCKED: ATOM     26  C   UNL     1     142.175  79.988 221.405 -0.36 -0.02    +0.034 C  
DOCKED: ATOM     27  C   UNL     1     141.012  79.483 223.857 -0.42 -0.03    +0.160 C  
DOCKED: ATOM     28  C   UNL     1     142.914  79.871 222.730 -0.48 -0.07    +0.160 C  
DOCKED: ATOM     29  O   UNL     1     142.015  80.401 223.680 -0.31 +0.08    -0.381 OA 
DOCKED: ENDBRANCH  20  24
DOCKED: ENDBRANCH  16  18
DOCKED: ENDBRANCH   1  16
DOCKED: TORSDOF 5
DOCKED: TER
DOCKED: ENDMDL
________________________________________________________________________________


    FINAL DOCKED STATE:
    ________________________


Run:   11 / 20
Time taken for this run:   0.019s

DOCKED: MODEL        11
DOCKED: USER    Run = 11
DOCKED: USER
DOCKED: USER    Estimated Free Energy of Binding    =  -8.71 kcal/mol  [=(1)+(2)+(3)-(4)]
DOCKED: USER
DOCKED: USER    (1) Final Intermolecular Energy     = -10.20 kcal/mol
DOCKED: USER        vdW + Hbond + desolv Energy     = -10.19 kcal/mol
DOCKED: USER        Electrostatic Energy            =  -0.01 kcal/mol
DOCKED: USER        Moving Ligand-Fixed Receptor    = -10.20 kcal/mol
DOCKED: USER        Moving Ligand-Moving Receptor   =  +0.00 kcal/mol
DOCKED: USER    (2) Final Total Internal Energy     =  -1.41 kcal/mol
DOCKED: USER    (3) Torsional Free Energy           =  +1.49 kcal/mol
DOCKED: USER    (4) Unbound System's Energy         =  -1.41 kcal/mol
DOCKED: USER
DOCKED: USER
DOCKED: REMARK SMILES O=C(NCC(=O)N1CCCC[C@H]1C1CCOCC1)c1ccc2ccccc2n1
DOCKED: REMARK SMILES IDX 4 1 3 2 2 3 1 4 19 6 20 7 28 8 21 9 27 10 22 11 26 12 23 13
DOCKED: REMARK SMILES IDX 25 14 24 15 5 16 6 17 7 18 8 19 12 20 9 21 11 22 10 23 13 24
DOCKED: REMARK SMILES IDX 14 25 18 26 15 27 17 28 16 29
DOCKED: REMARK H PARENT 3 5
DOCKED: USER                              x       y       z     vdW  Elec       q    Type
DOCKED: USER                           _______ _______ _______ _____ _____    ______ ____
DOCKED: ROOT
DOCKED: ATOM      1  C   UNL     1     139.872  74.274 221.116 -0.17 -0.04    +0.216 C  
DOCKED: ENDROOT
DOCKED: BRANCH   1   2
DOCKED: ATOM      2  N   UNL     1     139.804  73.477 222.319 -0.13 +0.04    -0.342 N  
DOCKED: ATOM      3  C   UNL     1     140.261  72.153 222.374 -0.21 -0.03    +0.270 C  
DOCKED: ATOM      4  O   UNL     1     140.754  71.621 221.338 -0.13 +0.03    -0.268 OA 
DOCKED: ATOM      5  H   UNL     1     139.399  73.891 223.196 -0.50 -0.05    +0.164 HD 
DOCKED: BRANCH   3   6
DOCKED: ATOM      6  C   UNL     1     140.169  71.390 223.619 -0.33 -0.02    +0.128 A  
DOCKED: ATOM      7  C   UNL     1     139.575  70.124 223.597 -0.28 -0.01    +0.035 A  
DOCKED: ATOM      8  N   UNL     1     140.650  71.909 224.761 -0.25 +0.03    -0.243 NA 
DOCKED: ATOM      9  C   UNL     1     139.517  69.454 224.800 -0.37 -0.00    +0.013 A  
DOCKED: ATOM     10  C   UNL     1     140.584  71.242 225.925 -0.55 -0.01    +0.071 A  
DOCKED: ATOM     11  C   UNL     1     140.012  69.988 225.973 -0.50 -0.00    +0.000 A  
DOCKED: ATOM     12  C   UNL     1     141.082  71.795 227.076 -0.76 -0.01    +0.029 A  
DOCKED: ATOM     13  C   UNL     1     139.961  69.335 227.179 -0.58 -0.00    +0.010 A  
DOCKED: ATOM     14  C   UNL     1     141.049  71.168 228.304 -0.69 -0.00    +0.002 A  
DOCKED: ATOM     15  C   UNL     1     140.470  69.904 228.346 -0.59 -0.00    +0.001 A  
DOCKED: ENDBRANCH   3   6
DOCKED: ENDBRANCH   1   2
DOCKED: BRANCH   1  16
DOCKED: ATOM     16  C   UNL     1     140.546  75.559 221.435 -0.24 -0.06    +0.242 C  
DOCKED: ATOM     17  O   UNL     1     141.778  75.756 221.245 -0.21 +0.13    -0.273 OA 
DOCKED: BRANCH  16  18
DOCKED: ATOM     18  N   UNL     1     139.761  76.616 221.982 -0.17 +0.08    -0.338 N  
DOCKED: ATOM     19  C   UNL     1     138.527  76.354 222.703 -0.24 -0.03    +0.120 C  
DOCKED: ATOM     20  C   UNL     1     140.155  78.004 221.846 -0.28 -0.03    +0.088 C  
DOCKED: ATOM     21  C   UNL     1     137.474  77.393 222.425 -0.23 -0.00    +0.022 C  
DOCKED: ATOM     22  C   UNL     1     139.140  78.657 220.988 -0.14 -0.01    +0.025 C  
DOCKED: ATOM     23  C   UNL     1     137.719  78.264 221.254 -0.11 -0.00    +0.004 C  
DOCKED: BRANCH  20  24
DOCKED: ATOM     24  C   UNL     1     140.416  78.639 223.179 -0.41 -0.00    +0.016 C  
DOCKED: ATOM     25  C   UNL     1     141.878  78.635 223.461 -0.55 -0.01    +0.034 C  
DOCKED: ATOM     26  C   UNL     1     139.828  79.990 223.343 -0.41 -0.01    +0.034 C  
DOCKED: ATOM     27  C   UNL     1     142.577  79.917 223.098 -0.53 -0.05    +0.160 C  
DOCKED: ATOM     28  C   UNL     1     140.684  81.035 222.643 -0.33 -0.03    +0.160 C  
DOCKED: ATOM     29  O   UNL     1     141.882  81.063 223.389 -0.30 +0.06    -0.381 OA 
DOCKED: ENDBRANCH  20  24
DOCKED: ENDBRANCH  16  18
DOCKED: ENDBRANCH   1  16
DOCKED: TORSDOF 5
DOCKED: TER
DOCKED: ENDMDL
________________________________________________________________________________


    FINAL DOCKED STATE:
    ________________________


Run:   12 / 20
Time taken for this run:   0.019s

DOCKED: MODEL        12
DOCKED: USER    Run = 12
DOCKED: USER
DOCKED: USER    Estimated Free Energy of Binding    =  -8.34 kcal/mol  [=(1)+(2)+(3)-(4)]
DOCKED: USER
DOCKED: USER    (1) Final Intermolecular Energy     =  -9.83 kcal/mol
DOCKED: USER        vdW + Hbond + desolv Energy     =  -9.70 kcal/mol
DOCKED: USER        Electrostatic Energy            =  -0.13 kcal/mol
DOCKED: USER        Moving Ligand-Fixed Receptor    =  -9.83 kcal/mol
DOCKED: USER        Moving Ligand-Moving Receptor   =  +0.00 kcal/mol
DOCKED: USER    (2) Final Total Internal Energy     =  -1.86 kcal/mol
DOCKED: USER    (3) Torsional Free Energy           =  +1.49 kcal/mol
DOCKED: USER    (4) Unbound System's Energy         =  -1.86 kcal/mol
DOCKED: USER
DOCKED: USER
DOCKED: REMARK SMILES O=C(NCC(=O)N1CCCC[C@H]1C1CCOCC1)c1ccc2ccccc2n1
DOCKED: REMARK SMILES IDX 4 1 3 2 2 3 1 4 19 6 20 7 28 8 21 9 27 10 22 11 26 12 23 13
DOCKED: REMARK SMILES IDX 25 14 24 15 5 16 6 17 7 18 8 19 12 20 9 21 11 22 10 23 13 24
DOCKED: REMARK SMILES IDX 14 25 18 26 15 27 17 28 16 29
DOCKED: REMARK H PARENT 3 5
DOCKED: USER                              x       y       z     vdW  Elec       q    Type
DOCKED: USER                           _______ _______ _______ _____ _____    ______ ____
DOCKED: ROOT
DOCKED: ATOM      1  C   UNL     1     139.970  74.395 221.206 -0.19 -0.04    +0.216 C  
DOCKED: ENDROOT
DOCKED: BRANCH   1   2
DOCKED: ATOM      2  N   UNL     1     139.835  73.530 222.354 -0.11 +0.04    -0.342 N  
DOCKED: ATOM      3  C   UNL     1     140.427  72.261 222.416 -0.21 -0.03    +0.270 C  
DOCKED: ATOM      4  O   UNL     1     141.110  71.843 221.436 -0.16 +0.03    -0.268 OA 
DOCKED: ATOM      5  H   UNL     1     139.273  73.848 223.183 -0.50 -0.07    +0.164 HD 
DOCKED: BRANCH   3   6
DOCKED: ATOM      6  C   UNL     1     140.259  71.424 223.605 -0.33 -0.02    +0.128 A  
DOCKED: ATOM      7  C   UNL     1     139.631  70.180 223.475 -0.26 -0.01    +0.035 A  
DOCKED: ATOM      8  N   UNL     1     140.703  71.854 224.797 -0.28 +0.03    -0.243 NA 
DOCKED: ATOM      9  C   UNL     1     139.500  69.438 224.628 -0.36 -0.00    +0.013 A  
DOCKED: ATOM     10  C   UNL     1     140.566  71.117 225.911 -0.55 -0.01    +0.071 A  
DOCKED: ATOM     11  C   UNL     1     139.957  69.881 225.854 -0.48 -0.00    +0.000 A  
DOCKED: ATOM     12  C   UNL     1     141.029  71.580 227.115 -0.74 -0.00    +0.029 A  
DOCKED: ATOM     13  C   UNL     1     139.835  69.155 227.012 -0.57 -0.00    +0.010 A  
DOCKED: ATOM     14  C   UNL     1     140.923  70.878 228.298 -0.64 -0.00    +0.002 A  
DOCKED: ATOM     15  C   UNL     1     140.308  69.633 228.234 -0.62 -0.00    +0.001 A  
DOCKED: ENDBRANCH   3   6
DOCKED: ENDBRANCH   1   2
DOCKED: BRANCH   1  16
DOCKED: ATOM     16  C   UNL     1     139.669  75.789 221.623 -0.22 -0.05    +0.242 C  
DOCKED: ATOM     17  O   UNL     1     139.021  76.070 222.669 -0.30 +0.05    -0.273 OA 
DOCKED: BRANCH  16  18
DOCKED: ATOM     18  N   UNL     1     140.136  76.856 220.801 -0.06 +0.10    -0.338 N  
DOCKED: ATOM     19  C   UNL     1     139.446  77.236 219.581 -0.05 -0.03    +0.120 C  
DOCKED: ATOM     20  C   UNL     1     141.324  77.614 221.142 -0.28 -0.04    +0.088 C  
DOCKED: ATOM     21  C   UNL     1     140.400  77.638 218.488 -0.08 -0.01    +0.022 C  
DOCKED: ATOM     22  C   UNL     1     142.335  77.323 220.099 -0.25 -0.02    +0.025 C  
DOCKED: ATOM     23  C   UNL     1     141.816  77.260 218.695 -0.23 -0.00    +0.004 C  
DOCKED: BRANCH  20  24
DOCKED: ATOM     24  C   UNL     1     141.008  79.059 221.384 -0.33 -0.01    +0.016 C  
DOCKED: ATOM     25  C   UNL     1     140.028  79.181 222.498 -0.34 -0.01    +0.034 C  
DOCKED: ATOM     26  C   UNL     1     142.194  79.922 221.598 -0.41 -0.02    +0.034 C  
DOCKED: ATOM     27  C   UNL     1     140.655  79.448 223.840 -0.39 -0.03    +0.160 C  
DOCKED: ATOM     28  C   UNL     1     142.719  79.767 223.018 -0.50 -0.06    +0.160 C  
DOCKED: ATOM     29  O   UNL     1     141.708  80.326 223.828 -0.29 +0.07    -0.381 OA 
DOCKED: ENDBRANCH  20  24
DOCKED: ENDBRANCH  16  18
DOCKED: ENDBRANCH   1  16
DOCKED: TORSDOF 5
DOCKED: TER
DOCKED: ENDMDL
________________________________________________________________________________


    FINAL DOCKED STATE:
    ________________________


Run:   13 / 20
Time taken for this run:   0.019s

DOCKED: MODEL        13
DOCKED: USER    Run = 13
DOCKED: USER
DOCKED: USER    Estimated Free Energy of Binding    =  -7.43 kcal/mol  [=(1)+(2)+(3)-(4)]
DOCKED: USER
DOCKED: USER    (1) Final Intermolecular Energy     =  -8.92 kcal/mol
DOCKED: USER        vdW + Hbond + desolv Energy     =  -8.85 kcal/mol
DOCKED: USER        Electrostatic Energy            =  -0.07 kcal/mol
DOCKED: USER        Moving Ligand-Fixed Receptor    =  -8.92 kcal/mol
DOCKED: USER        Moving Ligand-Moving Receptor   =  +0.00 kcal/mol
DOCKED: USER    (2) Final Total Internal Energy     =  -1.70 kcal/mol
DOCKED: USER    (3) Torsional Free Energy           =  +1.49 kcal/mol
DOCKED: USER    (4) Unbound System's Energy         =  -1.70 kcal/mol
DOCKED: USER
DOCKED: USER
DOCKED: REMARK SMILES O=C(NCC(=O)N1CCCC[C@H]1C1CCOCC1)c1ccc2ccccc2n1
DOCKED: REMARK SMILES IDX 4 1 3 2 2 3 1 4 19 6 20 7 28 8 21 9 27 10 22 11 26 12 23 13
DOCKED: REMARK SMILES IDX 25 14 24 15 5 16 6 17 7 18 8 19 12 20 9 21 11 22 10 23 13 24
DOCKED: REMARK SMILES IDX 14 25 18 26 15 27 17 28 16 29
DOCKED: REMARK H PARENT 3 5
DOCKED: USER                              x       y       z     vdW  Elec       q    Type
DOCKED: USER                           _______ _______ _______ _____ _____    ______ ____
DOCKED: ROOT
DOCKED: ATOM      1  C   UNL     1     137.873  73.789 221.188 -0.09 -0.05    +0.216 C  
DOCKED: ENDROOT
DOCKED: BRANCH   1   2
DOCKED: ATOM      2  N   UNL     1     138.191  72.978 222.340 -0.05 +0.12    -0.342 N  
DOCKED: ATOM      3  C   UNL     1     139.267  72.080 222.356 -0.17 -0.06    +0.270 C  
DOCKED: ATOM      4  O   UNL     1     139.997  71.963 221.330 -0.11 +0.04    -0.268 OA 
DOCKED: ATOM      5  H   UNL     1     137.603  73.053 223.208 -0.49 -0.10    +0.164 HD 
DOCKED: BRANCH   3   6
DOCKED: ATOM      6  C   UNL     1     139.546  71.282 223.551 -0.30 -0.03    +0.128 A  
DOCKED: ATOM      7  C   UNL     1     139.291  69.907 223.523 -0.26 -0.01    +0.035 A  
DOCKED: ATOM      8  N   UNL     1     140.038  71.873 224.653 -0.19 +0.05    -0.243 NA 
DOCKED: ATOM      9  C   UNL     1     139.572  69.209 224.678 -0.35 -0.00    +0.013 A  
DOCKED: ATOM     10  C   UNL     1     140.306  71.177 225.769 -0.52 -0.01    +0.071 A  
DOCKED: ATOM     11  C   UNL     1     140.079  69.817 225.810 -0.48 -0.00    +0.000 A  
DOCKED: ATOM     12  C   UNL     1     140.808  71.804 226.880 -0.71 -0.01    +0.029 A  
DOCKED: ATOM     13  C   UNL     1     140.364  69.137 226.967 -0.59 -0.00    +0.010 A  
DOCKED: ATOM     14  C   UNL     1     141.107  71.154 228.058 -0.72 -0.00    +0.002 A  
DOCKED: ATOM     15  C   UNL     1     140.874  69.783 228.093 -0.61 -0.00    +0.001 A  
DOCKED: ENDBRANCH   3   6
DOCKED: ENDBRANCH   1   2
DOCKED: BRANCH   1  16
DOCKED: ATOM     16  C   UNL     1     138.065  75.218 221.545 -0.13 -0.06    +0.242 C  
DOCKED: ATOM     17  O   UNL     1     137.254  75.863 222.267 -0.15 +0.07    -0.273 OA 
DOCKED: BRANCH  16  18
DOCKED: ATOM     18  N   UNL     1     139.220  75.889 221.047 -0.07 +0.08    -0.338 N  
DOCKED: ATOM     19  C   UNL     1     139.526  75.929 219.628 -0.05 -0.03    +0.120 C  
DOCKED: ATOM     20  C   UNL     1     140.148  76.565 221.934 -0.33 -0.02    +0.088 C  
DOCKED: ATOM     21  C   UNL     1     141.004  75.828 219.361 -0.13 -0.01    +0.022 C  
DOCKED: ATOM     22  C   UNL     1     141.428  75.824 221.862 -0.05 -0.01    +0.025 C  
DOCKED: ATOM     23  C   UNL     1     141.836  75.368 220.495 -0.29 -0.00    +0.004 C  
DOCKED: BRANCH  20  24
DOCKED: ATOM     24  C   UNL     1     140.207  78.037 221.655 -0.29 -0.00    +0.016 C  
DOCKED: ATOM     25  C   UNL     1     139.133  78.737 222.411 -0.28 -0.01    +0.034 C  
DOCKED: ATOM     26  C   UNL     1     141.535  78.654 221.887 -0.41 -0.02    +0.034 C  
DOCKED: ATOM     27  C   UNL     1     139.585  79.315 223.726 -0.29 -0.02    +0.160 C  
DOCKED: ATOM     28  C   UNL     1     141.762  78.894 223.372 -0.48 -0.06    +0.160 C  
DOCKED: ATOM     29  O   UNL     1     140.827  79.896 223.710 -0.24 +0.07    -0.381 OA 
DOCKED: ENDBRANCH  20  24
DOCKED: ENDBRANCH  16  18
DOCKED: ENDBRANCH   1  16
DOCKED: TORSDOF 5
DOCKED: TER
DOCKED: ENDMDL
________________________________________________________________________________


    FINAL DOCKED STATE:
    ________________________


Run:   14 / 20
Time taken for this run:   0.019s

DOCKED: MODEL        14
DOCKED: USER    Run = 14
DOCKED: USER
DOCKED: USER    Estimated Free Energy of Binding    =  -8.35 kcal/mol  [=(1)+(2)+(3)-(4)]
DOCKED: USER
DOCKED: USER    (1) Final Intermolecular Energy     =  -9.84 kcal/mol
DOCKED: USER        vdW + Hbond + desolv Energy     =  -9.71 kcal/mol
DOCKED: USER        Electrostatic Energy            =  -0.13 kcal/mol
DOCKED: USER        Moving Ligand-Fixed Receptor    =  -9.84 kcal/mol
DOCKED: USER        Moving Ligand-Moving Receptor   =  +0.00 kcal/mol
DOCKED: USER    (2) Final Total Internal Energy     =  -1.84 kcal/mol
DOCKED: USER    (3) Torsional Free Energy           =  +1.49 kcal/mol
DOCKED: USER    (4) Unbound System's Energy         =  -1.84 kcal/mol
DOCKED: USER
DOCKED: USER
DOCKED: REMARK SMILES O=C(NCC(=O)N1CCCC[C@H]1C1CCOCC1)c1ccc2ccccc2n1
DOCKED: REMARK SMILES IDX 4 1 3 2 2 3 1 4 19 6 20 7 28 8 21 9 27 10 22 11 26 12 23 13
DOCKED: REMARK SMILES IDX 25 14 24 15 5 16 6 17 7 18 8 19 12 20 9 21 11 22 10 23 13 24
DOCKED: REMARK SMILES IDX 14 25 18 26 15 27 17 28 16 29
DOCKED: REMARK H PARENT 3 5
DOCKED: USER                              x       y       z     vdW  Elec       q    Type
DOCKED: USER                           _______ _______ _______ _____ _____    ______ ____
DOCKED: ROOT
DOCKED: ATOM      1  C   UNL     1     140.081  74.504 221.212 -0.20 -0.04    +0.216 C  
DOCKED: ENDROOT
DOCKED: BRANCH   1   2
DOCKED: ATOM      2  N   UNL     1     139.880  73.617 222.334 -0.11 +0.03    -0.342 N  
DOCKED: ATOM      3  C   UNL     1     140.506  72.366 222.428 -0.20 -0.02    +0.270 C  
DOCKED: ATOM      4  O   UNL     1     141.280  71.986 221.502 -0.17 +0.03    -0.268 OA 
DOCKED: ATOM      5  H   UNL     1     139.242  73.905 223.118 -0.53 -0.07    +0.164 HD 
DOCKED: BRANCH   3   6
DOCKED: ATOM      6  C   UNL     1     140.268  71.506 223.587 -0.33 -0.02    +0.128 A  
DOCKED: ATOM      7  C   UNL     1     139.590  70.295 223.405 -0.27 -0.01    +0.035 A  
DOCKED: ATOM      8  N   UNL     1     140.697  71.883 224.803 -0.27 +0.03    -0.243 NA 
DOCKED: ATOM      9  C   UNL     1     139.394  69.528 224.534 -0.35 -0.00    +0.013 A  
DOCKED: ATOM     10  C   UNL     1     140.497  71.123 225.892 -0.54 -0.01    +0.071 A  
DOCKED: ATOM     11  C   UNL     1     139.836  69.917 225.783 -0.47 -0.00    +0.000 A  
DOCKED: ATOM     12  C   UNL     1     140.945  71.532 227.120 -0.74 -0.01    +0.029 A  
DOCKED: ATOM     13  C   UNL     1     139.650  69.166 226.916 -0.55 -0.00    +0.010 A  
DOCKED: ATOM     14  C   UNL     1     140.776  70.804 228.279 -0.63 -0.00    +0.002 A  
DOCKED: ATOM     15  C   UNL     1     140.109  69.589 228.163 -0.63 -0.00    +0.001 A  
DOCKED: ENDBRANCH   3   6
DOCKED: ENDBRANCH   1   2
DOCKED: BRANCH   1  16
DOCKED: ATOM     16  C   UNL     1     139.689  75.878 221.618 -0.22 -0.05    +0.242 C  
DOCKED: ATOM     17  O   UNL     1     139.017  76.125 222.658 -0.30 +0.05    -0.273 OA 
DOCKED: BRANCH  16  18
DOCKED: ATOM     18  N   UNL     1     140.092  76.968 220.790 -0.06 +0.10    -0.338 N  
DOCKED: ATOM     19  C   UNL     1     139.317  77.369 219.628 -0.05 -0.03    +0.120 C  
DOCKED: ATOM     20  C   UNL     1     141.294  77.728 221.068 -0.28 -0.04    +0.088 C  
DOCKED: ATOM     21  C   UNL     1     140.193  77.803 218.483 -0.07 -0.01    +0.022 C  
DOCKED: ATOM     22  C   UNL     1     142.234  77.469 219.953 -0.29 -0.02    +0.025 C  
DOCKED: ATOM     23  C   UNL     1     141.622  77.433 218.586 -0.20 -0.00    +0.004 C  
DOCKED: BRANCH  20  24
DOCKED: ATOM     24  C   UNL     1     140.985  79.165 221.363 -0.32 -0.01    +0.016 C  
DOCKED: ATOM     25  C   UNL     1     140.184  79.261 222.615 -0.36 -0.01    +0.034 C  
DOCKED: ATOM     26  C   UNL     1     142.169  80.055 221.398 -0.37 -0.02    +0.034 C  
DOCKED: ATOM     27  C   UNL     1     141.003  79.540 223.847 -0.42 -0.03    +0.160 C  
DOCKED: ATOM     28  C   UNL     1     142.909  79.911 222.720 -0.49 -0.07    +0.160 C  
DOCKED: ATOM     29  O   UNL     1     142.020  80.444 223.678 -0.31 +0.08    -0.381 OA 
DOCKED: ENDBRANCH  20  24
DOCKED: ENDBRANCH  16  18
DOCKED: ENDBRANCH   1  16
DOCKED: TORSDOF 5
DOCKED: TER
DOCKED: ENDMDL
________________________________________________________________________________


    FINAL DOCKED STATE:
    ________________________


Run:   15 / 20
Time taken for this run:   0.019s

DOCKED: MODEL        15
DOCKED: USER    Run = 15
DOCKED: USER
DOCKED: USER    Estimated Free Energy of Binding    =  -8.75 kcal/mol  [=(1)+(2)+(3)-(4)]
DOCKED: USER
DOCKED: USER    (1) Final Intermolecular Energy     = -10.24 kcal/mol
DOCKED: USER        vdW + Hbond + desolv Energy     = -10.21 kcal/mol
DOCKED: USER        Electrostatic Energy            =  -0.03 kcal/mol
DOCKED: USER        Moving Ligand-Fixed Receptor    = -10.24 kcal/mol
DOCKED: USER        Moving Ligand-Moving Receptor   =  +0.00 kcal/mol
DOCKED: USER    (2) Final Total Internal Energy     =  -1.39 kcal/mol
DOCKED: USER    (3) Torsional Free Energy           =  +1.49 kcal/mol
DOCKED: USER    (4) Unbound System's Energy         =  -1.39 kcal/mol
DOCKED: USER
DOCKED: USER
DOCKED: REMARK SMILES O=C(NCC(=O)N1CCCC[C@H]1C1CCOCC1)c1ccc2ccccc2n1
DOCKED: REMARK SMILES IDX 4 1 3 2 2 3 1 4 19 6 20 7 28 8 21 9 27 10 22 11 26 12 23 13
DOCKED: REMARK SMILES IDX 25 14 24 15 5 16 6 17 7 18 8 19 12 20 9 21 11 22 10 23 13 24
DOCKED: REMARK SMILES IDX 14 25 18 26 15 27 17 28 16 29
DOCKED: REMARK H PARENT 3 5
DOCKED: USER                              x       y       z     vdW  Elec       q    Type
DOCKED: USER                           _______ _______ _______ _____ _____    ______ ____
DOCKED: ROOT
DOCKED: ATOM      1  C   UNL     1     139.844  74.271 221.092 -0.17 -0.04    +0.216 C  
DOCKED: ENDROOT
DOCKED: BRANCH   1   2
DOCKED: ATOM      2  N   UNL     1     139.744  73.460 222.283 -0.14 +0.05    -0.342 N  
DOCKED: ATOM      3  C   UNL     1     140.343  72.197 222.387 -0.21 -0.03    +0.270 C  
DOCKED: ATOM      4  O   UNL     1     140.998  71.735 221.410 -0.15 +0.03    -0.268 OA 
DOCKED: ATOM      5  H   UNL     1     139.206  73.816 223.112 -0.53 -0.07    +0.164 HD 
DOCKED: BRANCH   3   6
DOCKED: ATOM      6  C   UNL     1     140.211  71.417 223.619 -0.33 -0.02    +0.128 A  
DOCKED: ATOM      7  C   UNL     1     139.575  70.172 223.568 -0.28 -0.01    +0.035 A  
DOCKED: ATOM      8  N   UNL     1     140.697  71.899 224.774 -0.26 +0.03    -0.243 NA 
DOCKED: ATOM      9  C   UNL     1     139.480  69.484 224.758 -0.37 -0.00    +0.013 A  
DOCKED: ATOM     10  C   UNL     1     140.595  71.215 225.926 -0.55 -0.01    +0.071 A  
DOCKED: ATOM     11  C   UNL     1     139.980  69.980 225.946 -0.50 -0.00    +0.000 A  
DOCKED: ATOM     12  C   UNL     1     141.099  71.731 227.091 -0.76 -0.00    +0.029 A  
DOCKED: ATOM     13  C   UNL     1     139.894  69.309 227.139 -0.57 -0.00    +0.010 A  
DOCKED: ATOM     14  C   UNL     1     141.031  71.085 228.307 -0.67 -0.00    +0.002 A  
DOCKED: ATOM     15  C   UNL     1     140.409  69.841 228.321 -0.60 -0.00    +0.001 A  
DOCKED: ENDBRANCH   3   6
DOCKED: ENDBRANCH   1   2
DOCKED: BRANCH   1  16
DOCKED: ATOM     16  C   UNL     1     140.524  75.545 221.440 -0.24 -0.06    +0.242 C  
DOCKED: ATOM     17  O   UNL     1     141.763  75.731 221.282 -0.21 +0.13    -0.273 OA 
DOCKED: BRANCH  16  18
DOCKED: ATOM     18  N   UNL     1     139.737  76.605 221.978 -0.17 +0.08    -0.338 N  
DOCKED: ATOM     19  C   UNL     1     138.505  76.347 222.704 -0.24 -0.03    +0.120 C  
DOCKED: ATOM     20  C   UNL     1     140.128  77.993 221.827 -0.28 -0.03    +0.088 C  
DOCKED: ATOM     21  C   UNL     1     137.449  77.381 222.418 -0.23 -0.00    +0.022 C  
DOCKED: ATOM     22  C   UNL     1     139.109  78.636 220.966 -0.13 -0.01    +0.025 C  
DOCKED: ATOM     23  C   UNL     1     137.689  78.241 221.238 -0.11 -0.00    +0.004 C  
DOCKED: BRANCH  20  24
DOCKED: ATOM     24  C   UNL     1     140.390  78.642 223.153 -0.41 -0.00    +0.016 C  
DOCKED: ATOM     25  C   UNL     1     141.842  78.572 223.470 -0.54 -0.01    +0.034 C  
DOCKED: ATOM     26  C   UNL     1     139.865  80.023 223.278 -0.41 -0.01    +0.034 C  
DOCKED: ATOM     27  C   UNL     1     142.612  79.811 223.098 -0.52 -0.06    +0.160 C  
DOCKED: ATOM     28  C   UNL     1     140.787  81.011 222.578 -0.33 -0.03    +0.160 C  
DOCKED: ATOM     29  O   UNL     1     141.968  80.995 223.351 -0.31 +0.07    -0.381 OA 
DOCKED: ENDBRANCH  20  24
DOCKED: ENDBRANCH  16  18
DOCKED: ENDBRANCH   1  16
DOCKED: TORSDOF 5
DOCKED: TER
DOCKED: ENDMDL
________________________________________________________________________________


    FINAL DOCKED STATE:
    ________________________


Run:   16 / 20
Time taken for this run:   0.019s

DOCKED: MODEL        16
DOCKED: USER    Run = 16
DOCKED: USER
DOCKED: USER    Estimated Free Energy of Binding    =  -8.80 kcal/mol  [=(1)+(2)+(3)-(4)]
DOCKED: USER
DOCKED: USER    (1) Final Intermolecular Energy     = -10.29 kcal/mol
DOCKED: USER        vdW + Hbond + desolv Energy     = -10.23 kcal/mol
DOCKED: USER        Electrostatic Energy            =  -0.06 kcal/mol
DOCKED: USER        Moving Ligand-Fixed Receptor    = -10.29 kcal/mol
DOCKED: USER        Moving Ligand-Moving Receptor   =  +0.00 kcal/mol
DOCKED: USER    (2) Final Total Internal Energy     =  -1.34 kcal/mol
DOCKED: USER    (3) Torsional Free Energy           =  +1.49 kcal/mol
DOCKED: USER    (4) Unbound System's Energy         =  -1.34 kcal/mol
DOCKED: USER
DOCKED: USER
DOCKED: REMARK SMILES O=C(NCC(=O)N1CCCC[C@H]1C1CCOCC1)c1ccc2ccccc2n1
DOCKED: REMARK SMILES IDX 4 1 3 2 2 3 1 4 19 6 20 7 28 8 21 9 27 10 22 11 26 12 23 13
DOCKED: REMARK SMILES IDX 25 14 24 15 5 16 6 17 7 18 8 19 12 20 9 21 11 22 10 23 13 24
DOCKED: REMARK SMILES IDX 14 25 18 26 15 27 17 28 16 29
DOCKED: REMARK H PARENT 3 5
DOCKED: USER                              x       y       z     vdW  Elec       q    Type
DOCKED: USER                           _______ _______ _______ _____ _____    ______ ____
DOCKED: ROOT
DOCKED: ATOM      1  C   UNL     1     139.519  74.365 221.176 -0.16 -0.04    +0.216 C  
DOCKED: ENDROOT
DOCKED: BRANCH   1   2
DOCKED: ATOM      2  N   UNL     1     139.399  73.467 222.302 -0.12 +0.07    -0.342 N  
DOCKED: ATOM      3  C   UNL     1     140.305  72.422 222.532 -0.20 -0.03    +0.270 C  
DOCKED: ATOM      4  O   UNL     1     141.269  72.246 221.734 -0.20 +0.02    -0.268 OA 
DOCKED: ATOM      5  H   UNL     1     138.608  73.588 222.983 -0.53 -0.10    +0.164 HD 
DOCKED: BRANCH   3   6
DOCKED: ATOM      6  C   UNL     1     140.137  71.541 223.689 -0.34 -0.02    +0.128 A  
DOCKED: ATOM      7  C   UNL     1     139.426  70.347 223.534 -0.29 -0.01    +0.035 A  
DOCKED: ATOM      8  N   UNL     1     140.661  71.885 224.877 -0.28 +0.03    -0.243 NA 
DOCKED: ATOM      9  C   UNL     1     139.300  69.559 224.658 -0.36 -0.00    +0.013 A  
DOCKED: ATOM     10  C   UNL     1     140.529  71.105 225.962 -0.55 -0.01    +0.071 A  
DOCKED: ATOM     11  C   UNL     1     139.840  69.913 225.879 -0.48 -0.00    +0.000 A  
DOCKED: ATOM     12  C   UNL     1     141.074  71.481 227.162 -0.74 -0.00    +0.029 A  
DOCKED: ATOM     13  C   UNL     1     139.724  69.142 227.007 -0.56 -0.00    +0.010 A  
DOCKED: ATOM     14  C   UNL     1     140.978  70.731 228.315 -0.61 -0.00    +0.002 A  
DOCKED: ATOM     15  C   UNL     1     140.281  69.530 228.225 -0.62 -0.00    +0.001 A  
DOCKED: ENDBRANCH   3   6
DOCKED: ENDBRANCH   1   2
DOCKED: BRANCH   1  16
DOCKED: ATOM     16  C   UNL     1     140.307  75.552 221.598 -0.24 -0.05    +0.242 C  
DOCKED: ATOM     17  O   UNL     1     141.569  75.578 221.597 -0.27 +0.10    -0.273 OA 
DOCKED: BRANCH  16  18
DOCKED: ATOM     18  N   UNL     1     139.600  76.715 222.024 -0.16 +0.08    -0.338 N  
DOCKED: ATOM     19  C   UNL     1     138.316  76.622 222.697 -0.25 -0.02    +0.120 C  
DOCKED: ATOM     20  C   UNL     1     140.128  78.047 221.805 -0.27 -0.03    +0.088 C  
DOCKED: ATOM     21  C   UNL     1     137.378  77.726 222.288 -0.21 -0.00    +0.022 C  
DOCKED: ATOM     22  C   UNL     1     139.217  78.719 220.850 -0.13 -0.01    +0.025 C  
DOCKED: ATOM     23  C   UNL     1     137.755  78.477 221.070 -0.10 -0.00    +0.004 C  
DOCKED: BRANCH  20  24
DOCKED: ATOM     24  C   UNL     1     140.387  78.759 223.098 -0.44 -0.00    +0.016 C  
DOCKED: ATOM     25  C   UNL     1     141.825  78.637 223.462 -0.58 -0.01    +0.034 C  
DOCKED: ATOM     26  C   UNL     1     139.930  80.169 223.127 -0.40 -0.01    +0.034 C  
DOCKED: ATOM     27  C   UNL     1     142.666  79.813 223.042 -0.51 -0.06    +0.160 C  
DOCKED: ATOM     28  C   UNL     1     140.919  81.068 222.399 -0.33 -0.03    +0.160 C  
DOCKED: ATOM     29  O   UNL     1     142.077  81.040 223.206 -0.31 +0.07    -0.381 OA 
DOCKED: ENDBRANCH  20  24
DOCKED: ENDBRANCH  16  18
DOCKED: ENDBRANCH   1  16
DOCKED: TORSDOF 5
DOCKED: TER
DOCKED: ENDMDL
________________________________________________________________________________


    FINAL DOCKED STATE:
    ________________________


Run:   17 / 20
Time taken for this run:   0.019s

DOCKED: MODEL        17
DOCKED: USER    Run = 17
DOCKED: USER
DOCKED: USER    Estimated Free Energy of Binding    =  -8.49 kcal/mol  [=(1)+(2)+(3)-(4)]
DOCKED: USER
DOCKED: USER    (1) Final Intermolecular Energy     =  -9.98 kcal/mol
DOCKED: USER        vdW + Hbond + desolv Energy     =  -9.99 kcal/mol
DOCKED: USER        Electrostatic Energy            =  +0.01 kcal/mol
DOCKED: USER        Moving Ligand-Fixed Receptor    =  -9.98 kcal/mol
DOCKED: USER        Moving Ligand-Moving Receptor   =  +0.00 kcal/mol
DOCKED: USER    (2) Final Total Internal Energy     =  -1.52 kcal/mol
DOCKED: USER    (3) Torsional Free Energy           =  +1.49 kcal/mol
DOCKED: USER    (4) Unbound System's Energy         =  -1.52 kcal/mol
DOCKED: USER
DOCKED: USER
DOCKED: REMARK SMILES O=C(NCC(=O)N1CCCC[C@H]1C1CCOCC1)c1ccc2ccccc2n1
DOCKED: REMARK SMILES IDX 4 1 3 2 2 3 1 4 19 6 20 7 28 8 21 9 27 10 22 11 26 12 23 13
DOCKED: REMARK SMILES IDX 25 14 24 15 5 16 6 17 7 18 8 19 12 20 9 21 11 22 10 23 13 24
DOCKED: REMARK SMILES IDX 14 25 18 26 15 27 17 28 16 29
DOCKED: REMARK H PARENT 3 5
DOCKED: USER                              x       y       z     vdW  Elec       q    Type
DOCKED: USER                           _______ _______ _______ _____ _____    ______ ____
DOCKED: ROOT
DOCKED: ATOM      1  C   UNL     1     139.810  74.237 221.130 -0.17 -0.04    +0.216 C  
DOCKED: ENDROOT
DOCKED: BRANCH   1   2
DOCKED: ATOM      2  N   UNL     1     139.808  73.446 222.339 -0.14 +0.04    -0.342 N  
DOCKED: ATOM      3  C   UNL     1     140.113  72.078 222.346 -0.21 -0.04    +0.270 C  
DOCKED: ATOM      4  O   UNL     1     140.402  71.499 221.260 -0.11 +0.04    -0.268 OA 
DOCKED: ATOM      5  H   UNL     1     139.572  73.899 223.257 -0.49 -0.03    +0.164 HD 
DOCKED: BRANCH   3   6
DOCKED: ATOM      6  C   UNL     1     140.098  71.324 223.600 -0.32 -0.02    +0.128 A  
DOCKED: ATOM      7  C   UNL     1     139.583  70.023 223.603 -0.27 -0.01    +0.035 A  
DOCKED: ATOM      8  N   UNL     1     140.571  71.883 224.726 -0.27 +0.04    -0.243 NA 
DOCKED: ATOM      9  C   UNL     1     139.594  69.363 224.813 -0.37 -0.00    +0.013 A  
DOCKED: ATOM     10  C   UNL     1     140.574  71.225 225.896 -0.55 -0.01    +0.071 A  
DOCKED: ATOM     11  C   UNL     1     140.082  69.939 225.969 -0.50 -0.00    +0.000 A  
DOCKED: ATOM     12  C   UNL     1     141.063  71.820 227.030 -0.76 -0.01    +0.029 A  
DOCKED: ATOM     13  C   UNL     1     140.100  69.297 227.182 -0.58 -0.00    +0.010 A  
DOCKED: ATOM     14  C   UNL     1     141.098  71.205 228.264 -0.70 -0.00    +0.002 A  
DOCKED: ATOM     15  C   UNL     1     140.600  69.908 228.331 -0.58 -0.00    +0.001 A  
DOCKED: ENDBRANCH   3   6
DOCKED: ENDBRANCH   1   2
DOCKED: BRANCH   1  16
DOCKED: ATOM     16  C   UNL     1     140.437  75.551 221.422 -0.23 -0.06    +0.242 C  
DOCKED: ATOM     17  O   UNL     1     141.660  75.790 221.222 -0.22 +0.12    -0.273 OA 
DOCKED: BRANCH  16  18
DOCKED: ATOM     18  N   UNL     1     139.616  76.587 221.956 -0.16 +0.08    -0.338 N  
DOCKED: ATOM     19  C   UNL     1     138.438  76.292 222.753 -0.21 -0.03    +0.120 C  
DOCKED: ATOM     20  C   UNL     1     139.917  77.987 221.728 -0.25 -0.02    +0.088 C  
DOCKED: ATOM     21  C   UNL     1     137.311  77.251 222.478 -0.23 -0.00    +0.022 C  
DOCKED: ATOM     22  C   UNL     1     138.822  78.532 220.893 -0.12 -0.01    +0.025 C  
DOCKED: ATOM     23  C   UNL     1     137.443  78.071 221.253 -0.11 -0.00    +0.004 C  
DOCKED: BRANCH  20  24
DOCKED: ATOM     24  C   UNL     1     140.204  78.708 223.012 -0.41 -0.00    +0.016 C  
DOCKED: ATOM     25  C   UNL     1     141.595  78.415 223.454 -0.51 -0.01    +0.034 C  
DOCKED: ATOM     26  C   UNL     1     139.933  80.164 222.974 -0.38 -0.01    +0.034 C  
DOCKED: ATOM     27  C   UNL     1     142.601  79.457 223.043 -0.48 -0.07    +0.160 C  
DOCKED: ATOM     28  C   UNL     1     141.065  80.901 222.272 -0.34 -0.04    +0.160 C  
DOCKED: ATOM     29  O   UNL     1     142.168  80.755 223.139 -0.31 +0.08    -0.381 OA 
DOCKED: ENDBRANCH  20  24
DOCKED: ENDBRANCH  16  18
DOCKED: ENDBRANCH   1  16
DOCKED: TORSDOF 5
DOCKED: TER
DOCKED: ENDMDL
________________________________________________________________________________


    FINAL DOCKED STATE:
    ________________________


Run:   18 / 20
Time taken for this run:   0.019s

DOCKED: MODEL        18
DOCKED: USER    Run = 18
DOCKED: USER
DOCKED: USER    Estimated Free Energy of Binding    =  -8.09 kcal/mol  [=(1)+(2)+(3)-(4)]
DOCKED: USER
DOCKED: USER    (1) Final Intermolecular Energy     =  -9.58 kcal/mol
DOCKED: USER        vdW + Hbond + desolv Energy     =  -9.34 kcal/mol
DOCKED: USER        Electrostatic Energy            =  -0.23 kcal/mol
DOCKED: USER        Moving Ligand-Fixed Receptor    =  -9.58 kcal/mol
DOCKED: USER        Moving Ligand-Moving Receptor   =  +0.00 kcal/mol
DOCKED: USER    (2) Final Total Internal Energy     =  -1.86 kcal/mol
DOCKED: USER    (3) Torsional Free Energy           =  +1.49 kcal/mol
DOCKED: USER    (4) Unbound System's Energy         =  -1.86 kcal/mol
DOCKED: USER
DOCKED: USER
DOCKED: REMARK SMILES O=C(NCC(=O)N1CCCC[C@H]1C1CCOCC1)c1ccc2ccccc2n1
DOCKED: REMARK SMILES IDX 4 1 3 2 2 3 1 4 19 6 20 7 28 8 21 9 27 10 22 11 26 12 23 13
DOCKED: REMARK SMILES IDX 25 14 24 15 5 16 6 17 7 18 8 19 12 20 9 21 11 22 10 23 13 24
DOCKED: REMARK SMILES IDX 14 25 18 26 15 27 17 28 16 29
DOCKED: REMARK H PARENT 3 5
DOCKED: USER                              x       y       z     vdW  Elec       q    Type
DOCKED: USER                           _______ _______ _______ _____ _____    ______ ____
DOCKED: ROOT
DOCKED: ATOM      1  C   UNL     1     139.277  73.548 221.665 -0.17 -0.04    +0.216 C  
DOCKED: ENDROOT
DOCKED: BRANCH   1   2
DOCKED: ATOM      2  N   UNL     1     139.438  72.656 222.790 -0.07 +0.09    -0.342 N  
DOCKED: ATOM      3  C   UNL     1     139.336  71.263 222.668 -0.17 -0.05    +0.270 C  
DOCKED: ATOM      4  O   UNL     1     139.093  70.753 221.537 -0.07 +0.05    -0.268 OA 
DOCKED: ATOM      5  H   UNL     1     139.641  73.050 223.743 -0.33 -0.06    +0.164 HD 
DOCKED: BRANCH   3   6
DOCKED: ATOM      6  C   UNL     1     139.509  70.404 223.840 -0.27 -0.02    +0.128 A  
DOCKED: ATOM      7  C   UNL     1     139.074  69.076 223.778 -0.27 -0.01    +0.035 A  
DOCKED: ATOM      8  N   UNL     1     140.077  70.895 224.954 -0.29 +0.04    -0.243 NA 
DOCKED: ATOM      9  C   UNL     1     139.264  68.316 224.912 -0.40 -0.00    +0.013 A  
DOCKED: ATOM     10  C   UNL     1     140.253  70.140 226.051 -0.47 -0.01    +0.071 A  
DOCKED: ATOM     11  C   UNL     1     139.848  68.822 226.057 -0.53 -0.00    +0.000 A  
DOCKED: ATOM     12  C   UNL     1     140.836  70.667 227.174 -0.62 -0.00    +0.029 A  
DOCKED: ATOM     13  C   UNL     1     140.044  68.080 227.194 -0.65 -0.00    +0.010 A  
DOCKED: ATOM     14  C   UNL     1     141.048  69.952 228.334 -0.57 -0.00    +0.002 A  
DOCKED: ATOM     15  C   UNL     1     140.637  68.623 228.334 -0.67 -0.00    +0.001 A  
DOCKED: ENDBRANCH   3   6
DOCKED: ENDBRANCH   1   2
DOCKED: BRANCH   1  16
DOCKED: ATOM     16  C   UNL     1     140.605  74.110 221.310 -0.20 -0.04    +0.242 C  
DOCKED: ATOM     17  O   UNL     1     141.084  75.144 221.854 -0.51 +0.05    -0.273 OA 
DOCKED: BRANCH  16  18
DOCKED: ATOM     18  N   UNL     1     141.372  73.448 220.307 -0.06 +0.06    -0.338 N  
DOCKED: ATOM     19  C   UNL     1     140.825  73.169 218.990 -0.04 -0.02    +0.120 C  
DOCKED: ATOM     20  C   UNL     1     142.736  73.021 220.551 -0.24 -0.01    +0.088 C  
DOCKED: ATOM     21  C   UNL     1     141.287  71.841 218.453 -0.03 -0.00    +0.022 C  
DOCKED: ATOM     22  C   UNL     1     142.736  71.540 220.513 -0.22 -0.00    +0.025 C  
DOCKED: ATOM     23  C   UNL     1     141.897  70.921 219.438 -0.11 -0.00    +0.004 C  
DOCKED: BRANCH  20  24
DOCKED: ATOM     24  C   UNL     1     143.705  73.715 219.643 -0.31 -0.00    +0.016 C  
DOCKED: ATOM     25  C   UNL     1     144.681  74.497 220.450 -0.44 -0.01    +0.034 C  
DOCKED: ATOM     26  C   UNL     1     144.383  72.826 218.670 -0.21 +0.00    +0.034 C  
DOCKED: ATOM     27  C   UNL     1     145.975  73.776 220.715 -0.54 -0.01    +0.160 C  
DOCKED: ATOM     28  C   UNL     1     145.514  72.061 219.342 -0.25 +0.08    +0.160 C  
DOCKED: ATOM     29  O   UNL     1     146.466  73.052 219.659 -0.61 -0.28    -0.381 OA 
DOCKED: ENDBRANCH  20  24
DOCKED: ENDBRANCH  16  18
DOCKED: ENDBRANCH   1  16
DOCKED: TORSDOF 5
DOCKED: TER
DOCKED: ENDMDL
________________________________________________________________________________


    FINAL DOCKED STATE:
    ________________________


Run:   19 / 20
Time taken for this run:   0.019s

DOCKED: MODEL        19
DOCKED: USER    Run = 19
DOCKED: USER
DOCKED: USER    Estimated Free Energy of Binding    =  -8.24 kcal/mol  [=(1)+(2)+(3)-(4)]
DOCKED: USER
DOCKED: USER    (1) Final Intermolecular Energy     =  -9.73 kcal/mol
DOCKED: USER        vdW + Hbond + desolv Energy     =  -9.64 kcal/mol
DOCKED: USER        Electrostatic Energy            =  -0.09 kcal/mol
DOCKED: USER        Moving Ligand-Fixed Receptor    =  -9.73 kcal/mol
DOCKED: USER        Moving Ligand-Moving Receptor   =  +0.00 kcal/mol
DOCKED: USER    (2) Final Total Internal Energy     =  -1.86 kcal/mol
DOCKED: USER    (3) Torsional Free Energy           =  +1.49 kcal/mol
DOCKED: USER    (4) Unbound System's Energy         =  -1.86 kcal/mol
DOCKED: USER
DOCKED: USER
DOCKED: REMARK SMILES O=C(NCC(=O)N1CCCC[C@H]1C1CCOCC1)c1ccc2ccccc2n1
DOCKED: REMARK SMILES IDX 4 1 3 2 2 3 1 4 19 6 20 7 28 8 21 9 27 10 22 11 26 12 23 13
DOCKED: REMARK SMILES IDX 25 14 24 15 5 16 6 17 7 18 8 19 12 20 9 21 11 22 10 23 13 24
DOCKED: REMARK SMILES IDX 14 25 18 26 15 27 17 28 16 29
DOCKED: REMARK H PARENT 3 5
DOCKED: USER                              x       y       z     vdW  Elec       q    Type
DOCKED: USER                           _______ _______ _______ _____ _____    ______ ____
DOCKED: ROOT
DOCKED: ATOM      1  C   UNL     1     139.964  74.390 221.196 -0.19 -0.04    +0.216 C  
DOCKED: ENDROOT
DOCKED: BRANCH   1   2
DOCKED: ATOM      2  N   UNL     1     139.897  73.543 222.364 -0.10 +0.03    -0.342 N  
DOCKED: ATOM      3  C   UNL     1     140.276  72.194 222.340 -0.21 -0.03    +0.270 C  
DOCKED: ATOM      4  O   UNL     1     140.693  71.683 221.261 -0.12 +0.04    -0.268 OA 
DOCKED: ATOM      5  H   UNL     1     139.554  73.939 223.275 -0.49 -0.03    +0.164 HD 
DOCKED: BRANCH   3   6
DOCKED: ATOM      6  C   UNL     1     140.189  71.381 223.553 -0.32 -0.02    +0.128 A  
DOCKED: ATOM      7  C   UNL     1     139.616  70.106 223.476 -0.26 -0.01    +0.035 A  
DOCKED: ATOM      8  N   UNL     1     140.654  71.861 224.718 -0.27 +0.03    -0.243 NA 
DOCKED: ATOM      9  C   UNL     1     139.562  69.388 224.651 -0.36 -0.00    +0.013 A  
DOCKED: ATOM     10  C   UNL     1     140.592  71.147 225.854 -0.55 -0.01    +0.071 A  
DOCKED: ATOM     11  C   UNL     1     140.040  69.882 225.848 -0.49 -0.00    +0.000 A  
DOCKED: ATOM     12  C   UNL     1     141.074  71.661 227.029 -0.75 -0.00    +0.029 A  
DOCKED: ATOM     13  C   UNL     1     139.994  69.181 227.027 -0.57 -0.00    +0.010 A  
DOCKED: ATOM     14  C   UNL     1     141.044  70.986 228.231 -0.67 -0.00    +0.002 A  
DOCKED: ATOM     15  C   UNL     1     140.486  69.712 228.219 -0.61 -0.00    +0.001 A  
DOCKED: ENDBRANCH   3   6
DOCKED: ENDBRANCH   1   2
DOCKED: BRANCH   1  16
DOCKED: ATOM     16  C   UNL     1     139.545  75.763 221.579 -0.21 -0.05    +0.242 C  
DOCKED: ATOM     17  O   UNL     1     138.777  76.002 222.552 -0.27 +0.06    -0.273 OA 
DOCKED: BRANCH  16  18
DOCKED: ATOM     18  N   UNL     1     140.035  76.858 220.810 -0.06 +0.10    -0.338 N  
DOCKED: ATOM     19  C   UNL     1     139.360  77.304 219.603 -0.05 -0.03    +0.120 C  
DOCKED: ATOM     20  C   UNL     1     141.232  77.581 221.193 -0.29 -0.04    +0.088 C  
DOCKED: ATOM     21  C   UNL     1     140.329  77.739 218.537 -0.08 -0.01    +0.022 C  
DOCKED: ATOM     22  C   UNL     1     142.246  77.321 220.146 -0.27 -0.02    +0.025 C  
DOCKED: ATOM     23  C   UNL     1     141.738  77.331 218.737 -0.22 -0.00    +0.004 C  
DOCKED: BRANCH  20  24
DOCKED: ATOM     24  C   UNL     1     140.936  79.019 221.499 -0.33 -0.01    +0.016 C  
DOCKED: ATOM     25  C   UNL     1     140.217  79.121 222.798 -0.39 -0.01    +0.034 C  
DOCKED: ATOM     26  C   UNL     1     142.116  79.914 221.451 -0.37 -0.02    +0.034 C  
DOCKED: ATOM     27  C   UNL     1     141.112  79.412 223.973 -0.37 -0.03    +0.160 C  
DOCKED: ATOM     28  C   UNL     1     142.940  79.781 222.724 -0.47 -0.07    +0.160 C  
DOCKED: ATOM     29  O   UNL     1     142.113  80.318 223.733 -0.32 +0.08    -0.381 OA 
DOCKED: ENDBRANCH  20  24
DOCKED: ENDBRANCH  16  18
DOCKED: ENDBRANCH   1  16
DOCKED: TORSDOF 5
DOCKED: TER
DOCKED: ENDMDL
________________________________________________________________________________


    FINAL DOCKED STATE:
    ________________________


Run:   20 / 20
Time taken for this run:   0.019s

DOCKED: MODEL        20
DOCKED: USER    Run = 20
DOCKED: USER
DOCKED: USER    Estimated Free Energy of Binding    =  -8.09 kcal/mol  [=(1)+(2)+(3)-(4)]
DOCKED: USER
DOCKED: USER    (1) Final Intermolecular Energy     =  -9.58 kcal/mol
DOCKED: USER        vdW + Hbond + desolv Energy     =  -9.35 kcal/mol
DOCKED: USER        Electrostatic Energy            =  -0.23 kcal/mol
DOCKED: USER        Moving Ligand-Fixed Receptor    =  -9.58 kcal/mol
DOCKED: USER        Moving Ligand-Moving Receptor   =  +0.00 kcal/mol
DOCKED: USER    (2) Final Total Internal Energy     =  -1.86 kcal/mol
DOCKED: USER    (3) Torsional Free Energy           =  +1.49 kcal/mol
DOCKED: USER    (4) Unbound System's Energy         =  -1.86 kcal/mol
DOCKED: USER
DOCKED: USER
DOCKED: REMARK SMILES O=C(NCC(=O)N1CCCC[C@H]1C1CCOCC1)c1ccc2ccccc2n1
DOCKED: REMARK SMILES IDX 4 1 3 2 2 3 1 4 19 6 20 7 28 8 21 9 27 10 22 11 26 12 23 13
DOCKED: REMARK SMILES IDX 25 14 24 15 5 16 6 17 7 18 8 19 12 20 9 21 11 22 10 23 13 24
DOCKED: REMARK SMILES IDX 14 25 18 26 15 27 17 28 16 29
DOCKED: REMARK H PARENT 3 5
DOCKED: USER                              x       y       z     vdW  Elec       q    Type
DOCKED: USER                           _______ _______ _______ _____ _____    ______ ____
DOCKED: ROOT
DOCKED: ATOM      1  C   UNL     1     139.226  73.543 221.689 -0.17 -0.05    +0.216 C  
DOCKED: ENDROOT
DOCKED: BRANCH   1   2
DOCKED: ATOM      2  N   UNL     1     139.393  72.642 222.805 -0.05 +0.09    -0.342 N  
DOCKED: ATOM      3  C   UNL     1     139.251  71.253 222.681 -0.17 -0.05    +0.270 C  
DOCKED: ATOM      4  O   UNL     1     138.965  70.754 221.555 -0.07 +0.05    -0.268 OA 
DOCKED: ATOM      5  H   UNL     1     139.631  73.026 223.754 -0.32 -0.06    +0.164 HD 
DOCKED: BRANCH   3   6
DOCKED: ATOM      6  C   UNL     1     139.432  70.385 223.845 -0.27 -0.02    +0.128 A  
DOCKED: ATOM      7  C   UNL     1     138.995  69.057 223.775 -0.27 -0.01    +0.035 A  
DOCKED: ATOM      8  N   UNL     1     140.009  70.866 224.959 -0.28 +0.04    -0.243 NA 
DOCKED: ATOM      9  C   UNL     1     139.192  68.288 224.903 -0.41 -0.00    +0.013 A  
DOCKED: ATOM     10  C   UNL     1     140.192  70.102 226.048 -0.47 -0.01    +0.071 A  
DOCKED: ATOM     11  C   UNL     1     139.786  68.784 226.047 -0.53 -0.00    +0.000 A  
DOCKED: ATOM     12  C   UNL     1     140.783  70.619 227.171 -0.62 -0.00    +0.029 A  
DOCKED: ATOM     13  C   UNL     1     139.988  68.034 227.177 -0.65 -0.00    +0.010 A  
DOCKED: ATOM     14  C   UNL     1     141.003  69.895 228.324 -0.57 -0.00    +0.002 A  
DOCKED: ATOM     15  C   UNL     1     140.591  68.567 228.316 -0.67 -0.00    +0.001 A  
DOCKED: ENDBRANCH   3   6
DOCKED: ENDBRANCH   1   2
DOCKED: BRANCH   1  16
DOCKED: ATOM     16  C   UNL     1     140.554  74.101 221.326 -0.20 -0.04    +0.242 C  
DOCKED: ATOM     17  O   UNL     1     141.022  75.156 221.839 -0.52 +0.05    -0.273 OA 
DOCKED: BRANCH  16  18
DOCKED: ATOM     18  N   UNL     1     141.334  73.411 220.352 -0.06 +0.06    -0.338 N  
DOCKED: ATOM     19  C   UNL     1     140.796  73.072 219.046 -0.04 -0.02    +0.120 C  
DOCKED: ATOM     20  C   UNL     1     142.702  73.013 220.618 -0.23 -0.01    +0.088 C  
DOCKED: ATOM     21  C   UNL     1     141.278  71.731 218.563 -0.04 -0.00    +0.022 C  
DOCKED: ATOM     22  C   UNL     1     142.724  71.533 220.638 -0.21 -0.00    +0.025 C  
DOCKED: ATOM     23  C   UNL     1     141.897  70.859 219.586 -0.12 -0.00    +0.004 C  
DOCKED: BRANCH  20  24
DOCKED: ATOM     24  C   UNL     1     143.665  73.685 219.686 -0.31 -0.00    +0.016 C  
DOCKED: ATOM     25  C   UNL     1     144.655  74.476 220.467 -0.45 -0.01    +0.034 C  
DOCKED: ATOM     26  C   UNL     1     144.327  72.774 218.722 -0.20 -0.00    +0.034 C  
DOCKED: ATOM     27  C   UNL     1     145.948  73.751 220.731 -0.55 -0.02    +0.160 C  
DOCKED: ATOM     28  C   UNL     1     145.461  72.014 219.395 -0.25 +0.07    +0.160 C  
DOCKED: ATOM     29  O   UNL     1     146.423  73.006 219.683 -0.63 -0.27    -0.381 OA 
DOCKED: ENDBRANCH  20  24
DOCKED: ENDBRANCH  16  18
DOCKED: ENDBRANCH   1  16
DOCKED: TORSDOF 5
DOCKED: TER
DOCKED: ENDMDL
________________________________________________________________________________


    CLUSTERING HISTOGRAM
    ____________________


________________________________________________________________________________
     |           |     |           |     |
Clus | Lowest    | Run | Mean      | Num | Histogram
-ter | Binding   |     | Binding   | in  |
Rank | Energy    |     | Energy    | Clus|    5    10   15   20   25   30   35
_____|___________|_____|___________|_____|____:____|____:____|____:____|____:___
   1 |     -8.84 |   1 |     -8.37 |  17 |#################
   2 |     -8.13 |   7 |     -8.10 |   3 |###
_____|___________|_____|___________|_____|______________________________________


    RMSD TABLE
    __________


_______________________________________________________________________
     |      |      |           |         |                 |
Rank | Sub- | Run  | Binding   | Cluster | Reference       | Grep
     | Rank |      | Energy    | RMSD    | RMSD            | Pattern
_____|______|______|___________|_________|_________________|___________
   1      1      1       -8.84      0.00    271.82           RANKING
   1      2     16       -8.80      0.15    271.79           RANKING
   1      3     15       -8.75      0.43    271.83           RANKING
   1      4     11       -8.71      0.50    271.85           RANKING
   1      5     17       -8.49      0.57    271.76           RANKING
   1      6     14       -8.35      1.35    271.58           RANKING
   1      7     12       -8.34      1.37    271.60           RANKING
   1      8      2       -8.34      1.36    271.59           RANKING
   1      9      8       -8.32      1.38    271.59           RANKING
   1     10     10       -8.31      1.37    271.57           RANKING
   1     11      4       -8.30      1.37    271.58           RANKING
   1     12      6       -8.26      1.38    271.58           RANKING
   1     13      3       -8.26      1.30    271.63           RANKING
   1     14      9       -8.25      1.47    271.54           RANKING
   1     15     19       -8.24      1.38    271.60           RANKING
   1     16      5       -8.23      1.47    271.53           RANKING
   1     17     13       -7.43      1.46    271.23           RANKING
   2      1      7       -8.13      0.00    270.78           RANKING
   2      2     20       -8.09      0.07    270.78           RANKING
   2      3     18       -8.09      0.09    270.80           RANKING

Run time 0.545 sec
Idle time 0.000 sec
