AutoDock-GPU version: v1.6

**********************************************************
**    AutoDock-GPU AUTODOCKTOOLS-COMPATIBLE DLG FILE    **
**********************************************************


    DOCKING PARAMETERS
    ________________________


Ligand file:                               /home/a/REINVENT4/ReinventStudies/pleaseWork/justmol2mol_4_Compounds_ontop/graph-dock-amy28i/graph-DockGPU/node-autodockgpu/inputs/GABYHMWSGGSGHB-ZHBKPSIFNA-N.pdbqt
Grid fld file:                             /home/a/REINVENT4/ReinventStudies/mols/Rad51/maps/rad51_receptor.maps.fld

Random seed:                               42
Number of runs:                            20
Number of energy evaluations:              1132076
Number of generations:                     42000
Size of population:                        150
Rate of crossover:                         80.000000%
Tournament selection probability limit:    60.000000%
Rate of mutation:                          2.000000%
Maximal allowed delta movement:            +/- 6.000000A
Maximal allowed delta angle:               +/- 90.000000

Rate of local search:                      100.000000%
Maximal number of local search iterations: 300
Rho lower bound:                           0.010000
Spread of local search delta movement:     2.000000A
Spread of local search delta angle:        74.999999
Limit of consecutive successes/failures:   4

Handle symmetry during clustering:         YES
RMSD tolerance:                            2.000000A

Program call in command line was:          /home/a/REINVENT4/ReinventStudies/adgpu-v1.6_linux_x64_cuda12_128wi --filelist batch.txt --heuristics 1 --nrun 20 --psize 150 --lsit 300 --seed 42 --heurmax 12000000 


    GRID PARAMETERS
    ________________________


Receptor name:                             rad51_receptor
Number of grid points (x, y, z):           53, 53, 53
Grid center (x, y, z):                     139.950000, 75.640000, 221.970000A
Grid size (x, y, z):                       19.500000, 19.500000, 19.500000A
Grid spacing:                              0.375000A


    LIGAND PARAMETERS
    ________________________


Ligand name:                               /home/a/REINVENT4/ReinventStudies/pleaseWork/justmol2mol_4_Compounds_ontop/graph-dock-amy28i/graph-DockGPU/node-autodockgpu/inputs/GABYHMWSGGSGHB-ZHBKPSIFNA-N
Number of atoms:                           29
Number of rotatable bonds:                 5
Number of atom types:                      6


    DUMMY DATA (only for ADT-compatibility)
    ________________________


DPF> outlev 1
DPF> ga_run 20
DPF> fld /home/a/REINVENT4/ReinventStudies/mols/Rad51/maps/rad51_receptor.maps.fld
DPF> move /home/a/REINVENT4/ReinventStudies/pleaseWork/justmol2mol_4_Compounds_ontop/graph-dock-amy28i/graph-DockGPU/node-autodockgpu/inputs/GABYHMWSGGSGHB-ZHBKPSIFNA-N.pdbqt


    COUNTER STATES
    ________________________


Number of energy evaluations performed:    753131
Number of generations used:                35


    INPUT LIGAND PDBQT FILE:
    ________________________


INPUT-LIGAND-PDBQT: REMARK SMILES O=C(NCC(=O)N1CCCC[C@@H]1C1CCOCC1)c1ccc2ccccc2n1
INPUT-LIGAND-PDBQT: REMARK SMILES IDX 4 1 3 2 2 3 1 4 19 6 20 7 28 8 21 9 27 10 22 11 26 12 23 13
INPUT-LIGAND-PDBQT: REMARK SMILES IDX 25 14 24 15 5 16 6 17 7 18 8 19 12 20 9 21 11 22 10 23 13 24
INPUT-LIGAND-PDBQT: REMARK SMILES IDX 14 25 18 26 15 27 17 28 16 29
INPUT-LIGAND-PDBQT: REMARK H PARENT 3 5
INPUT-LIGAND-PDBQT: ROOT
INPUT-LIGAND-PDBQT: ATOM      1  C   UNL     1       0.239  -2.697   0.244  1.00  0.00     0.216 C 
INPUT-LIGAND-PDBQT: ENDROOT
INPUT-LIGAND-PDBQT: BRANCH   1   2
INPUT-LIGAND-PDBQT: ATOM      2  N   UNL     1       1.436  -1.917   0.286  1.00  0.00    -0.342 N 
INPUT-LIGAND-PDBQT: ATOM      3  C   UNL     1       1.679  -0.845   1.189  1.00  0.00     0.270 C 
INPUT-LIGAND-PDBQT: ATOM      4  O   UNL     1       0.806  -0.528   2.040  1.00  0.00    -0.268 OA
INPUT-LIGAND-PDBQT: ATOM      5  H   UNL     1       2.211  -2.144  -0.406  1.00  0.00     0.164 HD
INPUT-LIGAND-PDBQT: BRANCH   3   6
INPUT-LIGAND-PDBQT: ATOM      6  C   UNL     1       2.966  -0.120   1.106  1.00  0.00     0.128 A 
INPUT-LIGAND-PDBQT: ATOM      7  C   UNL     1       3.208   0.918   1.977  1.00  0.00     0.035 A 
INPUT-LIGAND-PDBQT: ATOM      8  N   UNL     1       3.893  -0.467   0.193  1.00  0.00    -0.243 NA
INPUT-LIGAND-PDBQT: ATOM      9  C   UNL     1       4.429   1.597   1.890  1.00  0.00     0.013 A 
INPUT-LIGAND-PDBQT: ATOM     10  C   UNL     1       5.083   0.146   0.060  1.00  0.00     0.071 A 
INPUT-LIGAND-PDBQT: ATOM     11  C   UNL     1       5.351   1.191   0.921  1.00  0.00     0.000 A 
INPUT-LIGAND-PDBQT: ATOM     12  C   UNL     1       5.967  -0.284  -0.908  1.00  0.00     0.029 A 
INPUT-LIGAND-PDBQT: ATOM     13  C   UNL     1       6.581   1.839   0.799  1.00  0.00     0.010 A 
INPUT-LIGAND-PDBQT: ATOM     14  C   UNL     1       7.182   0.361  -1.024  1.00  0.00     0.002 A 
INPUT-LIGAND-PDBQT: ATOM     15  C   UNL     1       7.479   1.418  -0.170  1.00  0.00     0.001 A 
INPUT-LIGAND-PDBQT: ENDBRANCH   3   6
INPUT-LIGAND-PDBQT: ENDBRANCH   1   2
INPUT-LIGAND-PDBQT: BRANCH   1  16
INPUT-LIGAND-PDBQT: ATOM     16  C   UNL     1      -1.021  -2.102  -0.134  1.00  0.00     0.242 C 
INPUT-LIGAND-PDBQT: ATOM     17  O   UNL     1      -2.043  -2.922  -0.018  1.00  0.00    -0.273 OA
INPUT-LIGAND-PDBQT: BRANCH  16  18
INPUT-LIGAND-PDBQT: ATOM     18  N   UNL     1      -1.367  -0.830  -0.603  1.00  0.00    -0.338 N 
INPUT-LIGAND-PDBQT: ATOM     19  C   UNL     1      -0.482   0.262  -0.917  1.00  0.00     0.120 C 
INPUT-LIGAND-PDBQT: ATOM     20  C   UNL     1      -2.804  -0.529  -0.804  1.00  0.00     0.088 C 
INPUT-LIGAND-PDBQT: ATOM     21  C   UNL     1      -0.959   1.179  -2.003  1.00  0.00     0.022 C 
INPUT-LIGAND-PDBQT: ATOM     22  C   UNL     1      -2.967  -0.319  -2.265  1.00  0.00     0.025 C 
INPUT-LIGAND-PDBQT: ATOM     23  C   UNL     1      -2.088   0.753  -2.835  1.00  0.00     0.004 C 
INPUT-LIGAND-PDBQT: BRANCH  20  24
INPUT-LIGAND-PDBQT: ATOM     24  C   UNL     1      -3.311   0.530   0.098  1.00  0.00     0.016 C 
INPUT-LIGAND-PDBQT: ATOM     25  C   UNL     1      -4.771   0.826  -0.122  1.00  0.00     0.034 C 
INPUT-LIGAND-PDBQT: ATOM     26  C   UNL     1      -3.233  -0.044   1.521  1.00  0.00     0.034 C 
INPUT-LIGAND-PDBQT: ATOM     27  C   UNL     1      -5.605  -0.197   0.584  1.00  0.00     0.160 C 
INPUT-LIGAND-PDBQT: ATOM     28  C   UNL     1      -4.352   0.590   2.354  1.00  0.00     0.160 C 
INPUT-LIGAND-PDBQT: ATOM     29  O   UNL     1      -5.597   0.107   1.946  1.00  0.00    -0.381 OA
INPUT-LIGAND-PDBQT: ENDBRANCH  20  24
INPUT-LIGAND-PDBQT: ENDBRANCH  16  18
INPUT-LIGAND-PDBQT: ENDBRANCH   1  16
INPUT-LIGAND-PDBQT: TORSDOF 5


    FINAL DOCKED STATE:
    ________________________


Run:   1 / 20
Time taken for this run:   0.031s

DOCKED: MODEL        1
DOCKED: USER    Run = 1
DOCKED: USER
DOCKED: USER    Estimated Free Energy of Binding    =  -8.17 kcal/mol  [=(1)+(2)+(3)-(4)]
DOCKED: USER
DOCKED: USER    (1) Final Intermolecular Energy     =  -9.66 kcal/mol
DOCKED: USER        vdW + Hbond + desolv Energy     =  -9.64 kcal/mol
DOCKED: USER        Electrostatic Energy            =  -0.02 kcal/mol
DOCKED: USER        Moving Ligand-Fixed Receptor    =  -9.66 kcal/mol
DOCKED: USER        Moving Ligand-Moving Receptor   =  +0.00 kcal/mol
DOCKED: USER    (2) Final Total Internal Energy     =  -1.59 kcal/mol
DOCKED: USER    (3) Torsional Free Energy           =  +1.49 kcal/mol
DOCKED: USER    (4) Unbound System's Energy         =  -1.59 kcal/mol
DOCKED: USER
DOCKED: USER
DOCKED: REMARK SMILES O=C(NCC(=O)N1CCCC[C@@H]1C1CCOCC1)c1ccc2ccccc2n1
DOCKED: REMARK SMILES IDX 4 1 3 2 2 3 1 4 19 6 20 7 28 8 21 9 27 10 22 11 26 12 23 13
DOCKED: REMARK SMILES IDX 25 14 24 15 5 16 6 17 7 18 8 19 12 20 9 21 11 22 10 23 13 24
DOCKED: REMARK SMILES IDX 14 25 18 26 15 27 17 28 16 29
DOCKED: REMARK H PARENT 3 5
DOCKED: USER                              x       y       z     vdW  Elec       q    Type
DOCKED: USER                           _______ _______ _______ _____ _____    ______ ____
DOCKED: ROOT
DOCKED: ATOM      1  C   UNL     1     140.816  73.932 221.235 -0.21 -0.03    +0.216 C  
DOCKED: ENDROOT
DOCKED: BRANCH   1   2
DOCKED: ATOM      2  N   UNL     1     140.683  73.045 222.349 -0.15 +0.00    -0.342 N  
DOCKED: ATOM      3  C   UNL     1     140.022  71.786 222.313 -0.20 -0.04    +0.270 C  
DOCKED: ATOM      4  O   UNL     1     139.507  71.375 221.240 -0.07 +0.05    -0.268 OA 
DOCKED: ATOM      5  H   UNL     1     141.105  73.338 223.280 +0.14 +0.06    +0.164 HD 
DOCKED: BRANCH   3   6
DOCKED: ATOM      6  C   UNL     1     139.955  70.980 223.552 -0.30 -0.02    +0.128 A  
DOCKED: ATOM      7  C   UNL     1     139.336  69.751 223.520 -0.25 -0.01    +0.035 A  
DOCKED: ATOM      8  N   UNL     1     140.491  71.438 224.700 -0.31 +0.04    -0.243 NA 
DOCKED: ATOM      9  C   UNL     1     139.279  68.997 224.698 -0.37 -0.00    +0.013 A  
DOCKED: ATOM     10  C   UNL     1     140.468  70.761 225.862 -0.52 -0.01    +0.071 A  
DOCKED: ATOM     11  C   UNL     1     139.853  69.526 225.858 -0.47 -0.00    +0.000 A  
DOCKED: ATOM     12  C   UNL     1     141.046  71.316 226.985 -0.70 -0.00    +0.029 A  
DOCKED: ATOM     13  C   UNL     1     139.819  68.808 227.054 -0.59 -0.00    +0.010 A  
DOCKED: ATOM     14  C   UNL     1     141.010  70.601 228.166 -0.62 -0.00    +0.002 A  
DOCKED: ATOM     15  C   UNL     1     140.396  69.353 228.191 -0.63 -0.00    +0.001 A  
DOCKED: ENDBRANCH   3   6
DOCKED: ENDBRANCH   1   2
DOCKED: BRANCH   1  16
DOCKED: ATOM     16  C   UNL     1     140.771  75.363 221.418 -0.24 -0.06    +0.242 C  
DOCKED: ATOM     17  O   UNL     1     139.952  75.744 222.374 -0.50 +0.04    -0.273 OA 
DOCKED: BRANCH  16  18
DOCKED: ATOM     18  N   UNL     1     141.422  76.423 220.776 -0.13 +0.16    -0.338 N  
DOCKED: ATOM     19  C   UNL     1     142.550  76.350 219.884 -0.27 -0.07    +0.120 C  
DOCKED: ATOM     20  C   UNL     1     140.929  77.797 221.027 -0.26 -0.04    +0.088 C  
DOCKED: ATOM     21  C   UNL     1     142.603  77.419 218.834 -0.32 -0.01    +0.022 C  
DOCKED: ATOM     22  C   UNL     1     140.409  78.279 219.722 -0.14 -0.01    +0.025 C  
DOCKED: ATOM     23  C   UNL     1     141.410  78.241 218.608 -0.20 -0.00    +0.004 C  
DOCKED: BRANCH  20  24
DOCKED: ATOM     24  C   UNL     1     141.914  78.654 221.726 -0.36 -0.01    +0.016 C  
DOCKED: ATOM     25  C   UNL     1     141.795  80.104 221.341 -0.40 -0.01    +0.034 C  
DOCKED: ATOM     26  C   UNL     1     141.542  78.607 223.216 -0.55 -0.01    +0.034 C  
DOCKED: ATOM     27  C   UNL     1     140.676  80.739 222.106 -0.29 -0.04    +0.160 C  
DOCKED: ATOM     28  C   UNL     1     141.953  79.939 223.853 -0.48 -0.04    +0.160 C  
DOCKED: ATOM     29  O   UNL     1     141.121  80.969 223.409 -0.24 +0.06    -0.381 OA 
DOCKED: ENDBRANCH  20  24
DOCKED: ENDBRANCH  16  18
DOCKED: ENDBRANCH   1  16
DOCKED: TORSDOF 5
DOCKED: TER
DOCKED: ENDMDL
________________________________________________________________________________


    FINAL DOCKED STATE:
    ________________________


Run:   2 / 20
Time taken for this run:   0.031s

DOCKED: MODEL        2
DOCKED: USER    Run = 2
DOCKED: USER
DOCKED: USER    Estimated Free Energy of Binding    =  -8.90 kcal/mol  [=(1)+(2)+(3)-(4)]
DOCKED: USER
DOCKED: USER    (1) Final Intermolecular Energy     = -10.39 kcal/mol
DOCKED: USER        vdW + Hbond + desolv Energy     = -10.29 kcal/mol
DOCKED: USER        Electrostatic Energy            =  -0.10 kcal/mol
DOCKED: USER        Moving Ligand-Fixed Receptor    = -10.39 kcal/mol
DOCKED: USER        Moving Ligand-Moving Receptor   =  +0.00 kcal/mol
DOCKED: USER    (2) Final Total Internal Energy     =  -1.50 kcal/mol
DOCKED: USER    (3) Torsional Free Energy           =  +1.49 kcal/mol
DOCKED: USER    (4) Unbound System's Energy         =  -1.50 kcal/mol
DOCKED: USER
DOCKED: USER
DOCKED: REMARK SMILES O=C(NCC(=O)N1CCCC[C@@H]1C1CCOCC1)c1ccc2ccccc2n1
DOCKED: REMARK SMILES IDX 4 1 3 2 2 3 1 4 19 6 20 7 28 8 21 9 27 10 22 11 26 12 23 13
DOCKED: REMARK SMILES IDX 25 14 24 15 5 16 6 17 7 18 8 19 12 20 9 21 11 22 10 23 13 24
DOCKED: REMARK SMILES IDX 14 25 18 26 15 27 17 28 16 29
DOCKED: REMARK H PARENT 3 5
DOCKED: USER                              x       y       z     vdW  Elec       q    Type
DOCKED: USER                           _______ _______ _______ _____ _____    ______ ____
DOCKED: ROOT
DOCKED: ATOM      1  C   UNL     1     140.289  74.478 221.236 -0.21 -0.04    +0.216 C  
DOCKED: ENDROOT
DOCKED: BRANCH   1   2
DOCKED: ATOM      2  N   UNL     1     140.105  73.592 222.343 -0.07 +0.02    -0.342 N  
DOCKED: ATOM      3  C   UNL     1     140.586  72.255 222.406 -0.20 -0.02    +0.270 C  
DOCKED: ATOM      4  O   UNL     1     141.237  71.774 221.441 -0.15 +0.03    -0.268 OA 
DOCKED: ATOM      5  H   UNL     1     139.568  73.947 223.190 -0.50 -0.02    +0.164 HD 
DOCKED: BRANCH   3   6
DOCKED: ATOM      6  C   UNL     1     140.308  71.452 223.617 -0.33 -0.02    +0.128 A  
DOCKED: ATOM      7  C   UNL     1     139.636  70.258 223.490 -0.27 -0.01    +0.035 A  
DOCKED: ATOM      8  N   UNL     1     140.704  71.880 224.831 -0.28 +0.03    -0.243 NA 
DOCKED: ATOM      9  C   UNL     1     139.378  69.506 224.643 -0.36 -0.00    +0.013 A  
DOCKED: ATOM     10  C   UNL     1     140.486  71.204 225.974 -0.55 -0.01    +0.071 A  
DOCKED: ATOM     11  C   UNL     1     139.814  70.003 225.875 -0.48 -0.00    +0.000 A  
DOCKED: ATOM     12  C   UNL     1     140.932  71.726 227.170 -0.76 -0.01    +0.029 A  
DOCKED: ATOM     13  C   UNL     1     139.579  69.286 227.049 -0.55 -0.00    +0.010 A  
DOCKED: ATOM     14  C   UNL     1     140.697  71.013 228.329 -0.65 -0.00    +0.002 A  
DOCKED: ATOM     15  C   UNL     1     140.021  69.799 228.259 -0.62 -0.00    +0.001 A  
DOCKED: ENDBRANCH   3   6
DOCKED: ENDBRANCH   1   2
DOCKED: BRANCH   1  16
DOCKED: ATOM     16  C   UNL     1     140.507  75.890 221.445 -0.24 -0.07    +0.242 C  
DOCKED: ATOM     17  O   UNL     1     139.841  76.377 222.469 -0.32 +0.05    -0.273 OA 
DOCKED: BRANCH  16  18
DOCKED: ATOM     18  N   UNL     1     141.281  76.840 220.770 -0.12 +0.16    -0.338 N  
DOCKED: ATOM     19  C   UNL     1     142.384  76.601 219.876 -0.27 -0.07    +0.120 C  
DOCKED: ATOM     20  C   UNL     1     140.965  78.273 220.982 -0.26 -0.04    +0.088 C  
DOCKED: ATOM     21  C   UNL     1     142.563  77.624 218.794 -0.32 -0.02    +0.022 C  
DOCKED: ATOM     22  C   UNL     1     140.500  78.777 219.665 -0.15 -0.01    +0.025 C  
DOCKED: ATOM     23  C   UNL     1     141.481  78.582 218.549 -0.21 -0.00    +0.004 C  
DOCKED: BRANCH  20  24
DOCKED: ATOM     24  C   UNL     1     142.055  79.018 221.652 -0.36 -0.01    +0.016 C  
DOCKED: ATOM     25  C   UNL     1     142.002  80.496 221.370 -0.39 -0.01    +0.034 C  
DOCKED: ATOM     26  C   UNL     1     141.795  78.894 223.161 -0.56 -0.01    +0.034 C  
DOCKED: ATOM     27  C   UNL     1     140.988  81.144 222.261 -0.33 -0.03    +0.160 C  
DOCKED: ATOM     28  C   UNL     1     142.340  80.152 223.845 -0.51 -0.04    +0.160 C  
DOCKED: ATOM     29  O   UNL     1     141.546  81.258 223.535 -0.28 +0.05    -0.381 OA 
DOCKED: ENDBRANCH  20  24
DOCKED: ENDBRANCH  16  18
DOCKED: ENDBRANCH   1  16
DOCKED: TORSDOF 5
DOCKED: TER
DOCKED: ENDMDL
________________________________________________________________________________


    FINAL DOCKED STATE:
    ________________________


Run:   3 / 20
Time taken for this run:   0.031s

DOCKED: MODEL        3
DOCKED: USER    Run = 3
DOCKED: USER
DOCKED: USER    Estimated Free Energy of Binding    =  -8.90 kcal/mol  [=(1)+(2)+(3)-(4)]
DOCKED: USER
DOCKED: USER    (1) Final Intermolecular Energy     = -10.39 kcal/mol
DOCKED: USER        vdW + Hbond + desolv Energy     = -10.29 kcal/mol
DOCKED: USER        Electrostatic Energy            =  -0.10 kcal/mol
DOCKED: USER        Moving Ligand-Fixed Receptor    = -10.39 kcal/mol
DOCKED: USER        Moving Ligand-Moving Receptor   =  +0.00 kcal/mol
DOCKED: USER    (2) Final Total Internal Energy     =  -1.49 kcal/mol
DOCKED: USER    (3) Torsional Free Energy           =  +1.49 kcal/mol
DOCKED: USER    (4) Unbound System's Energy         =  -1.49 kcal/mol
DOCKED: USER
DOCKED: USER
DOCKED: REMARK SMILES O=C(NCC(=O)N1CCCC[C@@H]1C1CCOCC1)c1ccc2ccccc2n1
DOCKED: REMARK SMILES IDX 4 1 3 2 2 3 1 4 19 6 20 7 28 8 21 9 27 10 22 11 26 12 23 13
DOCKED: REMARK SMILES IDX 25 14 24 15 5 16 6 17 7 18 8 19 12 20 9 21 11 22 10 23 13 24
DOCKED: REMARK SMILES IDX 14 25 18 26 15 27 17 28 16 29
DOCKED: REMARK H PARENT 3 5
DOCKED: USER                              x       y       z     vdW  Elec       q    Type
DOCKED: USER                           _______ _______ _______ _____ _____    ______ ____
DOCKED: ROOT
DOCKED: ATOM      1  C   UNL     1     140.326  74.520 221.250 -0.21 -0.04    +0.216 C  
DOCKED: ENDROOT
DOCKED: BRANCH   1   2
DOCKED: ATOM      2  N   UNL     1     140.115  73.626 222.345 -0.06 +0.01    -0.342 N  
DOCKED: ATOM      3  C   UNL     1     140.592  72.287 222.407 -0.20 -0.02    +0.270 C  
DOCKED: ATOM      4  O   UNL     1     141.263  71.812 221.453 -0.16 +0.03    -0.268 OA 
DOCKED: ATOM      5  H   UNL     1     139.560  73.975 223.182 -0.50 -0.02    +0.164 HD 
DOCKED: BRANCH   3   6
DOCKED: ATOM      6  C   UNL     1     140.284  71.475 223.605 -0.33 -0.02    +0.128 A  
DOCKED: ATOM      7  C   UNL     1     139.591  70.295 223.455 -0.28 -0.01    +0.035 A  
DOCKED: ATOM      8  N   UNL     1     140.675  71.879 224.829 -0.28 +0.03    -0.243 NA 
DOCKED: ATOM      9  C   UNL     1     139.305  69.535 224.595 -0.35 -0.00    +0.013 A  
DOCKED: ATOM     10  C   UNL     1     140.431  71.194 225.960 -0.54 -0.01    +0.071 A  
DOCKED: ATOM     11  C   UNL     1     139.737  70.007 225.838 -0.47 -0.00    +0.000 A  
DOCKED: ATOM     12  C   UNL     1     140.873  71.692 227.168 -0.75 -0.01    +0.029 A  
DOCKED: ATOM     13  C   UNL     1     139.475  69.281 227.001 -0.53 -0.00    +0.010 A  
DOCKED: ATOM     14  C   UNL     1     140.611  70.970 228.315 -0.65 -0.00    +0.002 A  
DOCKED: ATOM     15  C   UNL     1     139.913  69.771 228.222 -0.62 -0.00    +0.001 A  
DOCKED: ENDBRANCH   3   6
DOCKED: ENDBRANCH   1   2
DOCKED: BRANCH   1  16
DOCKED: ATOM     16  C   UNL     1     140.526  75.932 221.474 -0.24 -0.07    +0.242 C  
DOCKED: ATOM     17  O   UNL     1     139.857  76.399 222.505 -0.32 +0.05    -0.273 OA 
DOCKED: BRANCH  16  18
DOCKED: ATOM     18  N   UNL     1     141.286  76.900 220.808 -0.12 +0.16    -0.338 N  
DOCKED: ATOM     19  C   UNL     1     142.345  76.685 219.856 -0.27 -0.07    +0.120 C  
DOCKED: ATOM     20  C   UNL     1     141.005  78.326 221.097 -0.27 -0.04    +0.088 C  
DOCKED: ATOM     21  C   UNL     1     142.495  77.753 218.814 -0.30 -0.02    +0.022 C  
DOCKED: ATOM     22  C   UNL     1     140.491  78.897 219.826 -0.16 -0.01    +0.025 C  
DOCKED: ATOM     23  C   UNL     1     141.420  78.737 218.660 -0.21 -0.00    +0.004 C  
DOCKED: BRANCH  20  24
DOCKED: ATOM     24  C   UNL     1     142.135  79.024 221.751 -0.37 -0.01    +0.016 C  
DOCKED: ATOM     25  C   UNL     1     142.195  80.486 221.394 -0.38 -0.01    +0.034 C  
DOCKED: ATOM     26  C   UNL     1     141.843  78.996 223.259 -0.58 -0.01    +0.034 C  
DOCKED: ATOM     27  C   UNL     1     141.217  81.250 222.232 -0.35 -0.03    +0.160 C  
DOCKED: ATOM     28  C   UNL     1     142.467  80.245 223.890 -0.49 -0.04    +0.160 C  
DOCKED: ATOM     29  O   UNL     1     141.761  81.388 223.510 -0.30 +0.05    -0.381 OA 
DOCKED: ENDBRANCH  20  24
DOCKED: ENDBRANCH  16  18
DOCKED: ENDBRANCH   1  16
DOCKED: TORSDOF 5
DOCKED: TER
DOCKED: ENDMDL
________________________________________________________________________________


    FINAL DOCKED STATE:
    ________________________


Run:   4 / 20
Time taken for this run:   0.031s

DOCKED: MODEL        4
DOCKED: USER    Run = 4
DOCKED: USER
DOCKED: USER    Estimated Free Energy of Binding    =  -8.96 kcal/mol  [=(1)+(2)+(3)-(4)]
DOCKED: USER
DOCKED: USER    (1) Final Intermolecular Energy     = -10.45 kcal/mol
DOCKED: USER        vdW + Hbond + desolv Energy     = -10.30 kcal/mol
DOCKED: USER        Electrostatic Energy            =  -0.15 kcal/mol
DOCKED: USER        Moving Ligand-Fixed Receptor    = -10.45 kcal/mol
DOCKED: USER        Moving Ligand-Moving Receptor   =  +0.00 kcal/mol
DOCKED: USER    (2) Final Total Internal Energy     =  -1.33 kcal/mol
DOCKED: USER    (3) Torsional Free Energy           =  +1.49 kcal/mol
DOCKED: USER    (4) Unbound System's Energy         =  -1.33 kcal/mol
DOCKED: USER
DOCKED: USER
DOCKED: REMARK SMILES O=C(NCC(=O)N1CCCC[C@@H]1C1CCOCC1)c1ccc2ccccc2n1
DOCKED: REMARK SMILES IDX 4 1 3 2 2 3 1 4 19 6 20 7 28 8 21 9 27 10 22 11 26 12 23 13
DOCKED: REMARK SMILES IDX 25 14 24 15 5 16 6 17 7 18 8 19 12 20 9 21 11 22 10 23 13 24
DOCKED: REMARK SMILES IDX 14 25 18 26 15 27 17 28 16 29
DOCKED: REMARK H PARENT 3 5
DOCKED: USER                              x       y       z     vdW  Elec       q    Type
DOCKED: USER                           _______ _______ _______ _____ _____    ______ ____
DOCKED: ROOT
DOCKED: ATOM      1  C   UNL     1     139.730  74.637 221.301 -0.19 -0.04    +0.216 C  
DOCKED: ENDROOT
DOCKED: BRANCH   1   2
DOCKED: ATOM      2  N   UNL     1     139.627  73.661 222.339 -0.12 +0.05    -0.342 N  
DOCKED: ATOM      3  C   UNL     1     140.499  72.548 222.501 -0.17 -0.02    +0.270 C  
DOCKED: ATOM      4  O   UNL     1     141.454  72.374 221.698 -0.21 +0.02    -0.268 OA 
DOCKED: ATOM      5  H   UNL     1     138.843  73.760 223.050 -0.55 -0.10    +0.164 HD 
DOCKED: BRANCH   3   6
DOCKED: ATOM      6  C   UNL     1     140.261  71.612 223.622 -0.33 -0.02    +0.128 A  
DOCKED: ATOM      7  C   UNL     1     139.570  70.446 223.385 -0.28 -0.01    +0.035 A  
DOCKED: ATOM      8  N   UNL     1     140.713  71.891 224.859 -0.27 +0.03    -0.243 NA 
DOCKED: ATOM      9  C   UNL     1     139.350  69.567 224.452 -0.34 -0.00    +0.013 A  
DOCKED: ATOM     10  C   UNL     1     140.534  71.089 225.924 -0.55 -0.01    +0.071 A  
DOCKED: ATOM     11  C   UNL     1     139.843  69.912 225.714 -0.47 -0.00    +0.000 A  
DOCKED: ATOM     12  C   UNL     1     141.036  71.464 227.153 -0.73 -0.00    +0.029 A  
DOCKED: ATOM     13  C   UNL     1     139.648  69.066 226.806 -0.55 -0.00    +0.010 A  
DOCKED: ATOM     14  C   UNL     1     140.840  70.622 228.229 -0.62 -0.00    +0.002 A  
DOCKED: ATOM     15  C   UNL     1     140.146  69.430 228.048 -0.63 -0.00    +0.001 A  
DOCKED: ENDBRANCH   3   6
DOCKED: ENDBRANCH   1   2
DOCKED: BRANCH   1  16
DOCKED: ATOM     16  C   UNL     1     140.234  75.962 221.576 -0.24 -0.06    +0.242 C  
DOCKED: ATOM     17  O   UNL     1     139.768  76.478 222.693 -0.31 +0.05    -0.273 OA 
DOCKED: BRANCH  16  18
DOCKED: ATOM     18  N   UNL     1     141.114  76.804 220.887 -0.12 +0.15    -0.338 N  
DOCKED: ATOM     19  C   UNL     1     142.257  76.425 220.097 -0.25 -0.07    +0.120 C  
DOCKED: ATOM     20  C   UNL     1     140.881  78.266 220.963 -0.25 -0.04    +0.088 C  
DOCKED: ATOM     21  C   UNL     1     142.577  77.343 218.956 -0.33 -0.01    +0.022 C  
DOCKED: ATOM     22  C   UNL     1     140.541  78.688 219.581 -0.15 -0.01    +0.025 C  
DOCKED: ATOM     23  C   UNL     1     141.581  78.342 218.558 -0.22 -0.00    +0.004 C  
DOCKED: BRANCH  20  24
DOCKED: ATOM     24  C   UNL     1     141.970  78.996 221.651 -0.38 -0.01    +0.016 C  
DOCKED: ATOM     25  C   UNL     1     141.916  80.481 221.405 -0.40 -0.01    +0.034 C  
DOCKED: ATOM     26  C   UNL     1     141.711  78.834 223.157 -0.56 -0.01    +0.034 C  
DOCKED: ATOM     27  C   UNL     1     140.902  81.106 222.312 -0.33 -0.03    +0.160 C  
DOCKED: ATOM     28  C   UNL     1     142.255  80.076 223.871 -0.49 -0.04    +0.160 C  
DOCKED: ATOM     29  O   UNL     1     141.460  81.189 223.588 -0.28 +0.05    -0.381 OA 
DOCKED: ENDBRANCH  20  24
DOCKED: ENDBRANCH  16  18
DOCKED: ENDBRANCH   1  16
DOCKED: TORSDOF 5
DOCKED: TER
DOCKED: ENDMDL
________________________________________________________________________________


    FINAL DOCKED STATE:
    ________________________


Run:   5 / 20
Time taken for this run:   0.031s

DOCKED: MODEL        5
DOCKED: USER    Run = 5
DOCKED: USER
DOCKED: USER    Estimated Free Energy of Binding    =  -7.76 kcal/mol  [=(1)+(2)+(3)-(4)]
DOCKED: USER
DOCKED: USER    (1) Final Intermolecular Energy     =  -9.26 kcal/mol
DOCKED: USER        vdW + Hbond + desolv Energy     =  -8.89 kcal/mol
DOCKED: USER        Electrostatic Energy            =  -0.36 kcal/mol
DOCKED: USER        Moving Ligand-Fixed Receptor    =  -9.26 kcal/mol
DOCKED: USER        Moving Ligand-Moving Receptor   =  +0.00 kcal/mol
DOCKED: USER    (2) Final Total Internal Energy     =  -1.84 kcal/mol
DOCKED: USER    (3) Torsional Free Energy           =  +1.49 kcal/mol
DOCKED: USER    (4) Unbound System's Energy         =  -1.84 kcal/mol
DOCKED: USER
DOCKED: USER
DOCKED: REMARK SMILES O=C(NCC(=O)N1CCCC[C@@H]1C1CCOCC1)c1ccc2ccccc2n1
DOCKED: REMARK SMILES IDX 4 1 3 2 2 3 1 4 19 6 20 7 28 8 21 9 27 10 22 11 26 12 23 13
DOCKED: REMARK SMILES IDX 25 14 24 15 5 16 6 17 7 18 8 19 12 20 9 21 11 22 10 23 13 24
DOCKED: REMARK SMILES IDX 14 25 18 26 15 27 17 28 16 29
DOCKED: REMARK H PARENT 3 5
DOCKED: USER                              x       y       z     vdW  Elec       q    Type
DOCKED: USER                           _______ _______ _______ _____ _____    ______ ____
DOCKED: ROOT
DOCKED: ATOM      1  C   UNL     1     140.035  71.371 220.312 -0.06 -0.04    +0.216 C  
DOCKED: ENDROOT
DOCKED: BRANCH   1   2
DOCKED: ATOM      2  N   UNL     1     140.090  70.926 221.669 -0.07 +0.05    -0.342 N  
DOCKED: ATOM      3  C   UNL     1     140.259  71.773 222.799 -0.22 -0.04    +0.270 C  
DOCKED: ATOM      4  O   UNL     1     140.364  73.018 222.643 -0.68 +0.01    -0.268 OA 
DOCKED: ATOM      5  H   UNL     1     140.000  69.884 221.862 +0.04 -0.03    +0.164 HD 
DOCKED: BRANCH   3   6
DOCKED: ATOM      6  C   UNL     1     140.307  71.164 224.147 -0.37 -0.02    +0.128 A  
DOCKED: ATOM      7  C   UNL     1     140.753  71.919 225.208 -0.31 -0.00    +0.035 A  
DOCKED: ATOM      8  N   UNL     1     139.921  69.888 224.339 -0.17 +0.04    -0.243 NA 
DOCKED: ATOM      9  C   UNL     1     140.794  71.333 226.478 -0.67 -0.00    +0.013 A  
DOCKED: ATOM     10  C   UNL     1     139.938  69.270 225.534 -0.40 -0.01    +0.071 A  
DOCKED: ATOM     11  C   UNL     1     140.381  70.005 226.615 -0.56 -0.00    +0.000 A  
DOCKED: ATOM     12  C   UNL     1     139.522  67.958 225.628 -0.52 -0.00    +0.029 A  
DOCKED: ATOM     13  C   UNL     1     140.405  69.381 227.863 -0.62 -0.00    +0.010 A  
DOCKED: ATOM     14  C   UNL     1     139.548  67.346 226.865 -0.54 -0.00    +0.002 A  
DOCKED: ATOM     15  C   UNL     1     139.990  68.062 227.973 -0.51 -0.00    +0.001 A  
DOCKED: ENDBRANCH   3   6
DOCKED: ENDBRANCH   1   2
DOCKED: BRANCH   1  16
DOCKED: ATOM     16  C   UNL     1     141.168  72.024 219.700 -0.05 -0.04    +0.242 C  
DOCKED: ATOM     17  O   UNL     1     142.070  71.185 219.240 -0.05 +0.04    -0.273 OA 
DOCKED: BRANCH  16  18
DOCKED: ATOM     18  N   UNL     1     141.497  73.370 219.505 -0.02 +0.07    -0.338 N  
DOCKED: ATOM     19  C   UNL     1     140.945  74.278 218.532 -0.04 -0.03    +0.120 C  
DOCKED: ATOM     20  C   UNL     1     142.537  73.966 220.375 -0.25 -0.02    +0.088 C  
DOCKED: ATOM     21  C   UNL     1     140.903  75.716 218.952 -0.10 -0.01    +0.022 C  
DOCKED: ATOM     22  C   UNL     1     141.840  75.002 221.179 -0.22 -0.01    +0.025 C  
DOCKED: ATOM     23  C   UNL     1     141.133  76.042 220.363 -0.25 -0.00    +0.004 C  
DOCKED: BRANCH  20  24
DOCKED: ATOM     24  C   UNL     1     143.751  74.380 219.636 -0.35 -0.01    +0.016 C  
DOCKED: ATOM     25  C   UNL     1     144.999  74.285 220.474 -0.48 -0.01    +0.034 C  
DOCKED: ATOM     26  C   UNL     1     143.946  73.345 218.517 -0.17 -0.00    +0.034 C  
DOCKED: ATOM     27  C   UNL     1     145.480  72.868 220.505 -0.44 -0.00    +0.160 C  
DOCKED: ATOM     28  C   UNL     1     145.447  73.232 218.227 -0.13 +0.04    +0.160 C  
DOCKED: ATOM     29  O   UNL     1     146.102  72.599 219.285 -0.67 -0.34    -0.381 OA 
DOCKED: ENDBRANCH  20  24
DOCKED: ENDBRANCH  16  18
DOCKED: ENDBRANCH   1  16
DOCKED: TORSDOF 5
DOCKED: TER
DOCKED: ENDMDL
________________________________________________________________________________


    FINAL DOCKED STATE:
    ________________________


Run:   6 / 20
Time taken for this run:   0.031s

DOCKED: MODEL        6
DOCKED: USER    Run = 6
DOCKED: USER
DOCKED: USER    Estimated Free Energy of Binding    =  -8.88 kcal/mol  [=(1)+(2)+(3)-(4)]
DOCKED: USER
DOCKED: USER    (1) Final Intermolecular Energy     = -10.37 kcal/mol
DOCKED: USER        vdW + Hbond + desolv Energy     = -10.27 kcal/mol
DOCKED: USER        Electrostatic Energy            =  -0.10 kcal/mol
DOCKED: USER        Moving Ligand-Fixed Receptor    = -10.37 kcal/mol
DOCKED: USER        Moving Ligand-Moving Receptor   =  +0.00 kcal/mol
DOCKED: USER    (2) Final Total Internal Energy     =  -1.48 kcal/mol
DOCKED: USER    (3) Torsional Free Energy           =  +1.49 kcal/mol
DOCKED: USER    (4) Unbound System's Energy         =  -1.48 kcal/mol
DOCKED: USER
DOCKED: USER
DOCKED: REMARK SMILES O=C(NCC(=O)N1CCCC[C@@H]1C1CCOCC1)c1ccc2ccccc2n1
DOCKED: REMARK SMILES IDX 4 1 3 2 2 3 1 4 19 6 20 7 28 8 21 9 27 10 22 11 26 12 23 13
DOCKED: REMARK SMILES IDX 25 14 24 15 5 16 6 17 7 18 8 19 12 20 9 21 11 22 10 23 13 24
DOCKED: REMARK SMILES IDX 14 25 18 26 15 27 17 28 16 29
DOCKED: REMARK H PARENT 3 5
DOCKED: USER                              x       y       z     vdW  Elec       q    Type
DOCKED: USER                           _______ _______ _______ _____ _____    ______ ____
DOCKED: ROOT
DOCKED: ATOM      1  C   UNL     1     140.316  74.595 221.262 -0.21 -0.04    +0.216 C  
DOCKED: ENDROOT
DOCKED: BRANCH   1   2
DOCKED: ATOM      2  N   UNL     1     140.105  73.679 222.340 -0.05 +0.01    -0.342 N  
DOCKED: ATOM      3  C   UNL     1     140.587  72.342 222.378 -0.20 -0.02    +0.270 C  
DOCKED: ATOM      4  O   UNL     1     141.263  71.887 221.418 -0.16 +0.03    -0.268 OA 
DOCKED: ATOM      5  H   UNL     1     139.546  74.011 223.181 -0.51 -0.02    +0.164 HD 
DOCKED: BRANCH   3   6
DOCKED: ATOM      6  C   UNL     1     140.279  71.506 223.560 -0.33 -0.02    +0.128 A  
DOCKED: ATOM      7  C   UNL     1     139.581  70.332 223.388 -0.27 -0.01    +0.035 A  
DOCKED: ATOM      8  N   UNL     1     140.675  71.884 224.791 -0.27 +0.03    -0.243 NA 
DOCKED: ATOM      9  C   UNL     1     139.296  69.550 224.513 -0.35 -0.00    +0.013 A  
DOCKED: ATOM     10  C   UNL     1     140.431  71.176 225.909 -0.54 -0.01    +0.071 A  
DOCKED: ATOM     11  C   UNL     1     139.732  69.995 225.764 -0.47 -0.00    +0.000 A  
DOCKED: ATOM     12  C   UNL     1     140.878  71.648 227.125 -0.74 -0.01    +0.029 A  
DOCKED: ATOM     13  C   UNL     1     139.470  69.246 226.912 -0.52 -0.00    +0.010 A  
DOCKED: ATOM     14  C   UNL     1     140.616  70.903 228.258 -0.65 -0.00    +0.002 A  
DOCKED: ATOM     15  C   UNL     1     139.913  69.708 228.142 -0.63 -0.00    +0.001 A  
DOCKED: ENDBRANCH   3   6
DOCKED: ENDBRANCH   1   2
DOCKED: BRANCH   1  16
DOCKED: ATOM     16  C   UNL     1     140.435  76.013 221.507 -0.24 -0.07    +0.242 C  
DOCKED: ATOM     17  O   UNL     1     139.719  76.430 222.529 -0.30 +0.05    -0.273 OA 
DOCKED: BRANCH  16  18
DOCKED: ATOM     18  N   UNL     1     141.155  77.028 220.869 -0.12 +0.15    -0.338 N  
DOCKED: ATOM     19  C   UNL     1     142.141  76.887 219.828 -0.27 -0.07    +0.120 C  
DOCKED: ATOM     20  C   UNL     1     140.911  78.427 221.292 -0.28 -0.04    +0.088 C  
DOCKED: ATOM     21  C   UNL     1     142.227  78.036 218.868 -0.29 -0.01    +0.022 C  
DOCKED: ATOM     22  C   UNL     1     140.314  79.103 220.112 -0.15 -0.01    +0.025 C  
DOCKED: ATOM     23  C   UNL     1     141.154  79.035 218.873 -0.19 -0.00    +0.004 C  
DOCKED: BRANCH  20  24
DOCKED: ATOM     24  C   UNL     1     142.093  79.064 221.917 -0.43 -0.01    +0.016 C  
DOCKED: ATOM     25  C   UNL     1     142.195  80.532 221.598 -0.43 -0.01    +0.034 C  
DOCKED: ATOM     26  C   UNL     1     141.862  79.003 223.434 -0.60 -0.01    +0.034 C  
DOCKED: ATOM     27  C   UNL     1     141.283  81.308 222.496 -0.37 -0.03    +0.160 C  
DOCKED: ATOM     28  C   UNL     1     142.559  80.209 224.073 -0.40 -0.03    +0.160 C  
DOCKED: ATOM     29  O   UNL     1     141.883  81.388 223.753 -0.31 +0.05    -0.381 OA 
DOCKED: ENDBRANCH  20  24
DOCKED: ENDBRANCH  16  18
DOCKED: ENDBRANCH   1  16
DOCKED: TORSDOF 5
DOCKED: TER
DOCKED: ENDMDL
________________________________________________________________________________


    FINAL DOCKED STATE:
    ________________________


Run:   7 / 20
Time taken for this run:   0.031s

DOCKED: MODEL        7
DOCKED: USER    Run = 7
DOCKED: USER
DOCKED: USER    Estimated Free Energy of Binding    =  -8.91 kcal/mol  [=(1)+(2)+(3)-(4)]
DOCKED: USER
DOCKED: USER    (1) Final Intermolecular Energy     = -10.40 kcal/mol
DOCKED: USER        vdW + Hbond + desolv Energy     = -10.30 kcal/mol
DOCKED: USER        Electrostatic Energy            =  -0.10 kcal/mol
DOCKED: USER        Moving Ligand-Fixed Receptor    = -10.40 kcal/mol
DOCKED: USER        Moving Ligand-Moving Receptor   =  +0.00 kcal/mol
DOCKED: USER    (2) Final Total Internal Energy     =  -1.49 kcal/mol
DOCKED: USER    (3) Torsional Free Energy           =  +1.49 kcal/mol
DOCKED: USER    (4) Unbound System's Energy         =  -1.49 kcal/mol
DOCKED: USER
DOCKED: USER
DOCKED: REMARK SMILES O=C(NCC(=O)N1CCCC[C@@H]1C1CCOCC1)c1ccc2ccccc2n1
DOCKED: REMARK SMILES IDX 4 1 3 2 2 3 1 4 19 6 20 7 28 8 21 9 27 10 22 11 26 12 23 13
DOCKED: REMARK SMILES IDX 25 14 24 15 5 16 6 17 7 18 8 19 12 20 9 21 11 22 10 23 13 24
DOCKED: REMARK SMILES IDX 14 25 18 26 15 27 17 28 16 29
DOCKED: REMARK H PARENT 3 5
DOCKED: USER                              x       y       z     vdW  Elec       q    Type
DOCKED: USER                           _______ _______ _______ _____ _____    ______ ____
DOCKED: ROOT
DOCKED: ATOM      1  C   UNL     1     140.284  74.558 221.247 -0.21 -0.04    +0.216 C  
DOCKED: ENDROOT
DOCKED: BRANCH   1   2
DOCKED: ATOM      2  N   UNL     1     140.096  73.651 222.335 -0.06 +0.01    -0.342 N  
DOCKED: ATOM      3  C   UNL     1     140.570  72.311 222.371 -0.20 -0.02    +0.270 C  
DOCKED: ATOM      4  O   UNL     1     141.218  71.846 221.395 -0.15 +0.03    -0.268 OA 
DOCKED: ATOM      5  H   UNL     1     139.561  73.992 223.189 -0.50 -0.02    +0.164 HD 
DOCKED: BRANCH   3   6
DOCKED: ATOM      6  C   UNL     1     140.289  71.485 223.566 -0.33 -0.02    +0.128 A  
DOCKED: ATOM      7  C   UNL     1     139.611  70.297 223.415 -0.27 -0.01    +0.035 A  
DOCKED: ATOM      8  N   UNL     1     140.689  71.886 224.788 -0.27 +0.03    -0.243 NA 
DOCKED: ATOM      9  C   UNL     1     139.350  69.524 224.552 -0.35 -0.00    +0.013 A  
DOCKED: ATOM     10  C   UNL     1     140.468  71.188 225.916 -0.54 -0.01    +0.071 A  
DOCKED: ATOM     11  C   UNL     1     139.789  69.992 225.793 -0.47 -0.00    +0.000 A  
DOCKED: ATOM     12  C   UNL     1     140.918  71.683 227.123 -0.75 -0.01    +0.029 A  
DOCKED: ATOM     13  C   UNL     1     139.552  69.254 226.953 -0.54 -0.00    +0.010 A  
DOCKED: ATOM     14  C   UNL     1     140.680  70.948 228.267 -0.66 -0.00    +0.002 A  
DOCKED: ATOM     15  C   UNL     1     139.998  69.739 228.173 -0.62 -0.00    +0.001 A  
DOCKED: ENDBRANCH   3   6
DOCKED: ENDBRANCH   1   2
DOCKED: BRANCH   1  16
DOCKED: ATOM     16  C   UNL     1     140.530  75.961 221.484 -0.24 -0.07    +0.242 C  
DOCKED: ATOM     17  O   UNL     1     139.885  76.437 222.528 -0.31 +0.05    -0.273 OA 
DOCKED: BRANCH  16  18
DOCKED: ATOM     18  N   UNL     1     141.314  76.912 220.822 -0.12 +0.16    -0.338 N  
DOCKED: ATOM     19  C   UNL     1     142.395  76.673 219.901 -0.27 -0.07    +0.120 C  
DOCKED: ATOM     20  C   UNL     1     141.035  78.345 221.078 -0.27 -0.04    +0.088 C  
DOCKED: ATOM     21  C   UNL     1     142.579  77.722 218.845 -0.30 -0.02    +0.022 C  
DOCKED: ATOM     22  C   UNL     1     140.558  78.897 219.784 -0.16 -0.01    +0.025 C  
DOCKED: ATOM     23  C   UNL     1     141.515  78.710 218.646 -0.22 -0.00    +0.004 C  
DOCKED: BRANCH  20  24
DOCKED: ATOM     24  C   UNL     1     142.153  79.047 221.749 -0.37 -0.01    +0.016 C  
DOCKED: ATOM     25  C   UNL     1     142.194  80.515 221.418 -0.39 -0.01    +0.034 C  
DOCKED: ATOM     26  C   UNL     1     141.855  78.988 223.255 -0.58 -0.01    +0.034 C  
DOCKED: ATOM     27  C   UNL     1     141.203  81.251 222.265 -0.35 -0.03    +0.160 C  
DOCKED: ATOM     28  C   UNL     1     142.460  80.234 223.910 -0.48 -0.04    +0.160 C  
DOCKED: ATOM     29  O   UNL     1     141.740  81.374 223.547 -0.30 +0.05    -0.381 OA 
DOCKED: ENDBRANCH  20  24
DOCKED: ENDBRANCH  16  18
DOCKED: ENDBRANCH   1  16
DOCKED: TORSDOF 5
DOCKED: TER
DOCKED: ENDMDL
________________________________________________________________________________


    FINAL DOCKED STATE:
    ________________________


Run:   8 / 20
Time taken for this run:   0.031s

DOCKED: MODEL        8
DOCKED: USER    Run = 8
DOCKED: USER
DOCKED: USER    Estimated Free Energy of Binding    =  -8.90 kcal/mol  [=(1)+(2)+(3)-(4)]
DOCKED: USER
DOCKED: USER    (1) Final Intermolecular Energy     = -10.39 kcal/mol
DOCKED: USER        vdW + Hbond + desolv Energy     = -10.29 kcal/mol
DOCKED: USER        Electrostatic Energy            =  -0.10 kcal/mol
DOCKED: USER        Moving Ligand-Fixed Receptor    = -10.39 kcal/mol
DOCKED: USER        Moving Ligand-Moving Receptor   =  +0.00 kcal/mol
DOCKED: USER    (2) Final Total Internal Energy     =  -1.48 kcal/mol
DOCKED: USER    (3) Torsional Free Energy           =  +1.49 kcal/mol
DOCKED: USER    (4) Unbound System's Energy         =  -1.48 kcal/mol
DOCKED: USER
DOCKED: USER
DOCKED: REMARK SMILES O=C(NCC(=O)N1CCCC[C@@H]1C1CCOCC1)c1ccc2ccccc2n1
DOCKED: REMARK SMILES IDX 4 1 3 2 2 3 1 4 19 6 20 7 28 8 21 9 27 10 22 11 26 12 23 13
DOCKED: REMARK SMILES IDX 25 14 24 15 5 16 6 17 7 18 8 19 12 20 9 21 11 22 10 23 13 24
DOCKED: REMARK SMILES IDX 14 25 18 26 15 27 17 28 16 29
DOCKED: REMARK H PARENT 3 5
DOCKED: USER                              x       y       z     vdW  Elec       q    Type
DOCKED: USER                           _______ _______ _______ _____ _____    ______ ____
DOCKED: ROOT
DOCKED: ATOM      1  C   UNL     1     140.262  74.517 221.244 -0.21 -0.04    +0.216 C  
DOCKED: ENDROOT
DOCKED: BRANCH   1   2
DOCKED: ATOM      2  N   UNL     1     140.080  73.624 222.345 -0.07 +0.02    -0.342 N  
DOCKED: ATOM      3  C   UNL     1     140.545  72.280 222.391 -0.20 -0.03    +0.270 C  
DOCKED: ATOM      4  O   UNL     1     141.177  71.799 221.413 -0.15 +0.03    -0.268 OA 
DOCKED: ATOM      5  H   UNL     1     139.557  73.978 223.201 -0.50 -0.02    +0.164 HD 
DOCKED: BRANCH   3   6
DOCKED: ATOM      6  C   UNL     1     140.271  71.471 223.598 -0.33 -0.02    +0.128 A  
DOCKED: ATOM      7  C   UNL     1     139.588  70.283 223.468 -0.28 -0.01    +0.035 A  
DOCKED: ATOM      8  N   UNL     1     140.682  71.886 224.812 -0.27 +0.03    -0.243 NA 
DOCKED: ATOM      9  C   UNL     1     139.334  69.525 224.617 -0.35 -0.00    +0.013 A  
DOCKED: ATOM     10  C   UNL     1     140.468  71.203 225.951 -0.54 -0.01    +0.071 A  
DOCKED: ATOM     11  C   UNL     1     139.786  70.008 225.849 -0.48 -0.00    +0.000 A  
DOCKED: ATOM     12  C   UNL     1     140.930  71.712 227.148 -0.75 -0.01    +0.029 A  
DOCKED: ATOM     13  C   UNL     1     139.555  69.285 227.020 -0.54 -0.00    +0.010 A  
DOCKED: ATOM     14  C   UNL     1     140.699  70.993 228.303 -0.66 -0.00    +0.002 A  
DOCKED: ATOM     15  C   UNL     1     140.013  69.785 228.230 -0.62 -0.00    +0.001 A  
DOCKED: ENDBRANCH   3   6
DOCKED: ENDBRANCH   1   2
DOCKED: BRANCH   1  16
DOCKED: ATOM     16  C   UNL     1     140.478  75.928 221.461 -0.24 -0.07    +0.242 C  
DOCKED: ATOM     17  O   UNL     1     139.784  76.415 222.467 -0.31 +0.05    -0.273 OA 
DOCKED: BRANCH  16  18
DOCKED: ATOM     18  N   UNL     1     141.273  76.877 220.811 -0.12 +0.16    -0.338 N  
DOCKED: ATOM     19  C   UNL     1     142.364  76.636 219.902 -0.27 -0.07    +0.120 C  
DOCKED: ATOM     20  C   UNL     1     140.999  78.310 221.069 -0.27 -0.04    +0.088 C  
DOCKED: ATOM     21  C   UNL     1     142.565  77.687 218.851 -0.31 -0.02    +0.022 C  
DOCKED: ATOM     22  C   UNL     1     140.541  78.869 219.772 -0.16 -0.01    +0.025 C  
DOCKED: ATOM     23  C   UNL     1     141.509  78.682 218.644 -0.22 -0.00    +0.004 C  
DOCKED: BRANCH  20  24
DOCKED: ATOM     24  C   UNL     1     142.114  79.004 221.755 -0.37 -0.01    +0.016 C  
DOCKED: ATOM     25  C   UNL     1     142.166  80.474 221.431 -0.39 -0.01    +0.034 C  
DOCKED: ATOM     26  C   UNL     1     141.800  78.940 223.257 -0.58 -0.01    +0.034 C  
DOCKED: ATOM     27  C   UNL     1     141.169  81.211 222.270 -0.35 -0.03    +0.160 C  
DOCKED: ATOM     28  C   UNL     1     142.403  80.181 223.924 -0.47 -0.04    +0.160 C  
DOCKED: ATOM     29  O   UNL     1     141.693  81.326 223.558 -0.29 +0.05    -0.381 OA 
DOCKED: ENDBRANCH  20  24
DOCKED: ENDBRANCH  16  18
DOCKED: ENDBRANCH   1  16
DOCKED: TORSDOF 5
DOCKED: TER
DOCKED: ENDMDL
________________________________________________________________________________


    FINAL DOCKED STATE:
    ________________________


Run:   9 / 20
Time taken for this run:   0.031s

DOCKED: MODEL        9
DOCKED: USER    Run = 9
DOCKED: USER
DOCKED: USER    Estimated Free Energy of Binding    =  -7.06 kcal/mol  [=(1)+(2)+(3)-(4)]
DOCKED: USER
DOCKED: USER    (1) Final Intermolecular Energy     =  -8.55 kcal/mol
DOCKED: USER        vdW + Hbond + desolv Energy     =  -8.55 kcal/mol
DOCKED: USER        Electrostatic Energy            =  +0.00 kcal/mol
DOCKED: USER        Moving Ligand-Fixed Receptor    =  -8.55 kcal/mol
DOCKED: USER        Moving Ligand-Moving Receptor   =  +0.00 kcal/mol
DOCKED: USER    (2) Final Total Internal Energy     =  -2.16 kcal/mol
DOCKED: USER    (3) Torsional Free Energy           =  +1.49 kcal/mol
DOCKED: USER    (4) Unbound System's Energy         =  -2.16 kcal/mol
DOCKED: USER
DOCKED: USER
DOCKED: REMARK SMILES O=C(NCC(=O)N1CCCC[C@@H]1C1CCOCC1)c1ccc2ccccc2n1
DOCKED: REMARK SMILES IDX 4 1 3 2 2 3 1 4 19 6 20 7 28 8 21 9 27 10 22 11 26 12 23 13
DOCKED: REMARK SMILES IDX 25 14 24 15 5 16 6 17 7 18 8 19 12 20 9 21 11 22 10 23 13 24
DOCKED: REMARK SMILES IDX 14 25 18 26 15 27 17 28 16 29
DOCKED: REMARK H PARENT 3 5
DOCKED: USER                              x       y       z     vdW  Elec       q    Type
DOCKED: USER                           _______ _______ _______ _____ _____    ______ ____
DOCKED: ROOT
DOCKED: ATOM      1  C   UNL     1     141.040  73.594 221.516 -0.20 -0.02    +0.216 C  
DOCKED: ENDROOT
DOCKED: BRANCH   1   2
DOCKED: ATOM      2  N   UNL     1     141.073  74.967 221.913 -0.14 +0.04    -0.342 N  
DOCKED: ATOM      3  C   UNL     1     139.933  75.808 222.037 -0.22 -0.05    +0.270 C  
DOCKED: ATOM      4  O   UNL     1     138.784  75.350 221.797 -0.21 +0.06    -0.268 OA 
DOCKED: ATOM      5  H   UNL     1     142.017  75.406 222.134 -0.40 -0.07    +0.164 HD 
DOCKED: BRANCH   3   6
DOCKED: ATOM      6  C   UNL     1     140.125  77.215 222.449 -0.31 -0.03    +0.128 A  
DOCKED: ATOM      7  C   UNL     1     139.020  78.003 222.680 -0.29 -0.01    +0.035 A  
DOCKED: ATOM      8  N   UNL     1     141.362  77.725 222.599 -0.25 +0.11    -0.243 NA 
DOCKED: ATOM      9  C   UNL     1     139.214  79.334 223.069 -0.35 -0.00    +0.013 A  
DOCKED: ATOM     10  C   UNL     1     141.613  78.993 222.970 -0.50 -0.03    +0.071 A  
DOCKED: ATOM     11  C   UNL     1     140.522  79.805 223.208 -0.46 -0.00    +0.000 A  
DOCKED: ATOM     12  C   UNL     1     142.918  79.422 223.097 -0.52 -0.01    +0.029 A  
DOCKED: ATOM     13  C   UNL     1     140.762  81.125 223.595 -0.40 -0.00    +0.010 A  
DOCKED: ATOM     14  C   UNL     1     143.149  80.728 223.480 -0.60 -0.00    +0.002 A  
DOCKED: ATOM     15  C   UNL     1     142.069  81.569 223.725 -0.56 -0.00    +0.001 A  
DOCKED: ENDBRANCH   3   6
DOCKED: ENDBRANCH   1   2
DOCKED: BRANCH   1  16
DOCKED: ATOM     16  C   UNL     1     142.186  72.974 220.895 -0.15 -0.03    +0.242 C  
DOCKED: ATOM     17  O   UNL     1     142.121  71.660 220.870 -0.14 +0.03    -0.273 OA 
DOCKED: BRANCH  16  18
DOCKED: ATOM     18  N   UNL     1     143.352  73.493 220.321 -0.13 +0.07    -0.338 N  
DOCKED: ATOM     19  C   UNL     1     144.690  73.445 220.851 -0.43 -0.03    +0.120 C  
DOCKED: ATOM     20  C   UNL     1     143.235  74.191 219.019 -0.20 -0.03    +0.088 C  
DOCKED: ATOM     21  C   UNL     1     145.782  73.404 219.825 -0.48 +0.00    +0.022 C  
DOCKED: ATOM     22  C   UNL     1     143.995  73.359 218.051 -0.15 -0.00    +0.025 C  
DOCKED: ATOM     23  C   UNL     1     145.425  73.124 218.431 -0.24 +0.00    +0.004 C  
DOCKED: BRANCH  20  24
DOCKED: ATOM     24  C   UNL     1     143.574  75.630 219.094 -0.31 -0.01    +0.016 C  
DOCKED: ATOM     25  C   UNL     1     143.696  76.267 217.736 -0.16 -0.02    +0.034 C  
DOCKED: ATOM     26  C   UNL     1     142.369  76.322 219.750 -0.31 -0.02    +0.034 C  
DOCKED: ATOM     27  C   UNL     1     142.334  76.600 217.210 -0.14 -0.09    +0.160 C  
DOCKED: ATOM     28  C   UNL     1     142.286  77.753 219.208 -0.22 -0.11    +0.160 C  
DOCKED: ATOM     29  O   UNL     1     141.886  77.745 217.870 -0.09 +0.23    -0.381 OA 
DOCKED: ENDBRANCH  20  24
DOCKED: ENDBRANCH  16  18
DOCKED: ENDBRANCH   1  16
DOCKED: TORSDOF 5
DOCKED: TER
DOCKED: ENDMDL
________________________________________________________________________________


    FINAL DOCKED STATE:
    ________________________


Run:   10 / 20
Time taken for this run:   0.031s

DOCKED: MODEL        10
DOCKED: USER    Run = 10
DOCKED: USER
DOCKED: USER    Estimated Free Energy of Binding    =  -8.88 kcal/mol  [=(1)+(2)+(3)-(4)]
DOCKED: USER
DOCKED: USER    (1) Final Intermolecular Energy     = -10.37 kcal/mol
DOCKED: USER        vdW + Hbond + desolv Energy     = -10.27 kcal/mol
DOCKED: USER        Electrostatic Energy            =  -0.10 kcal/mol
DOCKED: USER        Moving Ligand-Fixed Receptor    = -10.37 kcal/mol
DOCKED: USER        Moving Ligand-Moving Receptor   =  +0.00 kcal/mol
DOCKED: USER    (2) Final Total Internal Energy     =  -1.51 kcal/mol
DOCKED: USER    (3) Torsional Free Energy           =  +1.49 kcal/mol
DOCKED: USER    (4) Unbound System's Energy         =  -1.51 kcal/mol
DOCKED: USER
DOCKED: USER
DOCKED: REMARK SMILES O=C(NCC(=O)N1CCCC[C@@H]1C1CCOCC1)c1ccc2ccccc2n1
DOCKED: REMARK SMILES IDX 4 1 3 2 2 3 1 4 19 6 20 7 28 8 21 9 27 10 22 11 26 12 23 13
DOCKED: REMARK SMILES IDX 25 14 24 15 5 16 6 17 7 18 8 19 12 20 9 21 11 22 10 23 13 24
DOCKED: REMARK SMILES IDX 14 25 18 26 15 27 17 28 16 29
DOCKED: REMARK H PARENT 3 5
DOCKED: USER                              x       y       z     vdW  Elec       q    Type
DOCKED: USER                           _______ _______ _______ _____ _____    ______ ____
DOCKED: ROOT
DOCKED: ATOM      1  C   UNL     1     140.242  74.485 221.236 -0.20 -0.04    +0.216 C  
DOCKED: ENDROOT
DOCKED: BRANCH   1   2
DOCKED: ATOM      2  N   UNL     1     140.071  73.602 222.346 -0.07 +0.02    -0.342 N  
DOCKED: ATOM      3  C   UNL     1     140.519  72.252 222.391 -0.20 -0.03    +0.270 C  
DOCKED: ATOM      4  O   UNL     1     141.124  71.756 221.404 -0.15 +0.03    -0.268 OA 
DOCKED: ATOM      5  H   UNL     1     139.572  73.969 223.211 -0.50 -0.02    +0.164 HD 
DOCKED: BRANCH   3   6
DOCKED: ATOM      6  C   UNL     1     140.260  71.455 223.610 -0.33 -0.02    +0.128 A  
DOCKED: ATOM      7  C   UNL     1     139.598  70.253 223.496 -0.27 -0.01    +0.035 A  
DOCKED: ATOM      8  N   UNL     1     140.665  71.892 224.817 -0.27 +0.03    -0.243 NA 
DOCKED: ATOM      9  C   UNL     1     139.358  69.506 224.656 -0.36 -0.00    +0.013 A  
DOCKED: ATOM     10  C   UNL     1     140.464  71.222 225.966 -0.54 -0.01    +0.071 A  
DOCKED: ATOM     11  C   UNL     1     139.802  70.014 225.880 -0.48 -0.00    +0.000 A  
DOCKED: ATOM     12  C   UNL     1     140.918  71.755 227.155 -0.76 -0.01    +0.029 A  
DOCKED: ATOM     13  C   UNL     1     139.586  69.302 227.061 -0.55 -0.00    +0.010 A  
DOCKED: ATOM     14  C   UNL     1     140.700  71.047 228.320 -0.66 -0.00    +0.002 A  
DOCKED: ATOM     15  C   UNL     1     140.035  69.827 228.264 -0.62 -0.00    +0.001 A  
DOCKED: ENDBRANCH   3   6
DOCKED: ENDBRANCH   1   2
DOCKED: BRANCH   1  16
DOCKED: ATOM     16  C   UNL     1     140.470  75.896 221.438 -0.23 -0.06    +0.242 C  
DOCKED: ATOM     17  O   UNL     1     139.793  76.396 222.449 -0.31 +0.05    -0.273 OA 
DOCKED: BRANCH  16  18
DOCKED: ATOM     18  N   UNL     1     141.264  76.835 220.770 -0.12 +0.16    -0.338 N  
DOCKED: ATOM     19  C   UNL     1     142.383  76.580 219.900 -0.26 -0.07    +0.120 C  
DOCKED: ATOM     20  C   UNL     1     140.953  78.271 220.961 -0.25 -0.04    +0.088 C  
DOCKED: ATOM     21  C   UNL     1     142.590  77.591 218.812 -0.32 -0.02    +0.022 C  
DOCKED: ATOM     22  C   UNL     1     140.518  78.766 219.630 -0.15 -0.01    +0.025 C  
DOCKED: ATOM     23  C   UNL     1     141.520  78.553 218.536 -0.22 -0.00    +0.004 C  
DOCKED: BRANCH  20  24
DOCKED: ATOM     24  C   UNL     1     142.034  79.016 221.645 -0.37 -0.01    +0.016 C  
DOCKED: ATOM     25  C   UNL     1     141.986  80.494 221.362 -0.39 -0.01    +0.034 C  
DOCKED: ATOM     26  C   UNL     1     141.755  78.892 223.151 -0.56 -0.01    +0.034 C  
DOCKED: ATOM     27  C   UNL     1     140.961  81.143 222.239 -0.33 -0.03    +0.160 C  
DOCKED: ATOM     28  C   UNL     1     142.291  80.150 223.842 -0.51 -0.04    +0.160 C  
DOCKED: ATOM     29  O   UNL     1     141.502  81.257 223.521 -0.28 +0.05    -0.381 OA 
DOCKED: ENDBRANCH  20  24
DOCKED: ENDBRANCH  16  18
DOCKED: ENDBRANCH   1  16
DOCKED: TORSDOF 5
DOCKED: TER
DOCKED: ENDMDL
________________________________________________________________________________


    FINAL DOCKED STATE:
    ________________________


Run:   11 / 20
Time taken for this run:   0.031s

DOCKED: MODEL        11
DOCKED: USER    Run = 11
DOCKED: USER
DOCKED: USER    Estimated Free Energy of Binding    =  -8.89 kcal/mol  [=(1)+(2)+(3)-(4)]
DOCKED: USER
DOCKED: USER    (1) Final Intermolecular Energy     = -10.38 kcal/mol
DOCKED: USER        vdW + Hbond + desolv Energy     = -10.29 kcal/mol
DOCKED: USER        Electrostatic Energy            =  -0.10 kcal/mol
DOCKED: USER        Moving Ligand-Fixed Receptor    = -10.38 kcal/mol
DOCKED: USER        Moving Ligand-Moving Receptor   =  +0.00 kcal/mol
DOCKED: USER    (2) Final Total Internal Energy     =  -1.50 kcal/mol
DOCKED: USER    (3) Torsional Free Energy           =  +1.49 kcal/mol
DOCKED: USER    (4) Unbound System's Energy         =  -1.50 kcal/mol
DOCKED: USER
DOCKED: USER
DOCKED: REMARK SMILES O=C(NCC(=O)N1CCCC[C@@H]1C1CCOCC1)c1ccc2ccccc2n1
DOCKED: REMARK SMILES IDX 4 1 3 2 2 3 1 4 19 6 20 7 28 8 21 9 27 10 22 11 26 12 23 13
DOCKED: REMARK SMILES IDX 25 14 24 15 5 16 6 17 7 18 8 19 12 20 9 21 11 22 10 23 13 24
DOCKED: REMARK SMILES IDX 14 25 18 26 15 27 17 28 16 29
DOCKED: REMARK H PARENT 3 5
DOCKED: USER                              x       y       z     vdW  Elec       q    Type
DOCKED: USER                           _______ _______ _______ _____ _____    ______ ____
DOCKED: ROOT
DOCKED: ATOM      1  C   UNL     1     140.254  74.511 221.230 -0.21 -0.04    +0.216 C  
DOCKED: ENDROOT
DOCKED: BRANCH   1   2
DOCKED: ATOM      2  N   UNL     1     140.077  73.623 222.336 -0.07 +0.02    -0.342 N  
DOCKED: ATOM      3  C   UNL     1     140.540  72.279 222.383 -0.20 -0.03    +0.270 C  
DOCKED: ATOM      4  O   UNL     1     141.165  71.792 221.404 -0.15 +0.03    -0.268 OA 
DOCKED: ATOM      5  H   UNL     1     139.562  73.982 223.194 -0.50 -0.02    +0.164 HD 
DOCKED: BRANCH   3   6
DOCKED: ATOM      6  C   UNL     1     140.272  71.474 223.596 -0.33 -0.02    +0.128 A  
DOCKED: ATOM      7  C   UNL     1     139.581  70.290 223.476 -0.28 -0.01    +0.035 A  
DOCKED: ATOM      8  N   UNL     1     140.697  71.890 224.804 -0.27 +0.03    -0.243 NA 
DOCKED: ATOM      9  C   UNL     1     139.333  69.537 224.629 -0.36 -0.00    +0.013 A  
DOCKED: ATOM     10  C   UNL     1     140.490  71.212 225.947 -0.54 -0.01    +0.071 A  
DOCKED: ATOM     11  C   UNL     1     139.799  70.021 225.855 -0.48 -0.00    +0.000 A  
DOCKED: ATOM     12  C   UNL     1     140.965  71.722 227.138 -0.75 -0.01    +0.029 A  
DOCKED: ATOM     13  C   UNL     1     139.575  69.303 227.031 -0.55 -0.00    +0.010 A  
DOCKED: ATOM     14  C   UNL     1     140.741  71.007 228.297 -0.66 -0.00    +0.002 A  
DOCKED: ATOM     15  C   UNL     1     140.047  69.803 228.235 -0.62 -0.00    +0.001 A  
DOCKED: ENDBRANCH   3   6
DOCKED: ENDBRANCH   1   2
DOCKED: BRANCH   1  16
DOCKED: ATOM     16  C   UNL     1     140.492  75.920 221.441 -0.24 -0.07    +0.242 C  
DOCKED: ATOM     17  O   UNL     1     139.839  76.412 222.471 -0.31 +0.05    -0.273 OA 
DOCKED: BRANCH  16  18
DOCKED: ATOM     18  N   UNL     1     141.273  76.862 220.763 -0.12 +0.16    -0.338 N  
DOCKED: ATOM     19  C   UNL     1     142.376  76.612 219.872 -0.27 -0.07    +0.120 C  
DOCKED: ATOM     20  C   UNL     1     140.967  78.297 220.968 -0.26 -0.04    +0.088 C  
DOCKED: ATOM     21  C   UNL     1     142.564  77.629 218.786 -0.32 -0.02    +0.022 C  
DOCKED: ATOM     22  C   UNL     1     140.508  78.800 219.649 -0.15 -0.01    +0.025 C  
DOCKED: ATOM     23  C   UNL     1     141.490  78.593 218.535 -0.21 -0.00    +0.004 C  
DOCKED: BRANCH  20  24
DOCKED: ATOM     24  C   UNL     1     142.060  79.038 221.637 -0.36 -0.01    +0.016 C  
DOCKED: ATOM     25  C   UNL     1     142.003  80.519 221.370 -0.39 -0.01    +0.034 C  
DOCKED: ATOM     26  C   UNL     1     141.813  78.898 223.147 -0.56 -0.01    +0.034 C  
DOCKED: ATOM     27  C   UNL     1     140.995  81.156 222.275 -0.33 -0.03    +0.160 C  
DOCKED: ATOM     28  C   UNL     1     142.361  80.151 223.839 -0.51 -0.04    +0.160 C  
DOCKED: ATOM     29  O   UNL     1     141.563  81.258 223.546 -0.28 +0.05    -0.381 OA 
DOCKED: ENDBRANCH  20  24
DOCKED: ENDBRANCH  16  18
DOCKED: ENDBRANCH   1  16
DOCKED: TORSDOF 5
DOCKED: TER
DOCKED: ENDMDL
________________________________________________________________________________


    FINAL DOCKED STATE:
    ________________________


Run:   12 / 20
Time taken for this run:   0.031s

DOCKED: MODEL        12
DOCKED: USER    Run = 12
DOCKED: USER
DOCKED: USER    Estimated Free Energy of Binding    =  -7.90 kcal/mol  [=(1)+(2)+(3)-(4)]
DOCKED: USER
DOCKED: USER    (1) Final Intermolecular Energy     =  -9.39 kcal/mol
DOCKED: USER        vdW + Hbond + desolv Energy     =  -9.39 kcal/mol
DOCKED: USER        Electrostatic Energy            =  -0.01 kcal/mol
DOCKED: USER        Moving Ligand-Fixed Receptor    =  -9.39 kcal/mol
DOCKED: USER        Moving Ligand-Moving Receptor   =  +0.00 kcal/mol
DOCKED: USER    (2) Final Total Internal Energy     =  -1.59 kcal/mol
DOCKED: USER    (3) Torsional Free Energy           =  +1.49 kcal/mol
DOCKED: USER    (4) Unbound System's Energy         =  -1.59 kcal/mol
DOCKED: USER
DOCKED: USER
DOCKED: REMARK SMILES O=C(NCC(=O)N1CCCC[C@@H]1C1CCOCC1)c1ccc2ccccc2n1
DOCKED: REMARK SMILES IDX 4 1 3 2 2 3 1 4 19 6 20 7 28 8 21 9 27 10 22 11 26 12 23 13
DOCKED: REMARK SMILES IDX 25 14 24 15 5 16 6 17 7 18 8 19 12 20 9 21 11 22 10 23 13 24
DOCKED: REMARK SMILES IDX 14 25 18 26 15 27 17 28 16 29
DOCKED: REMARK H PARENT 3 5
DOCKED: USER                              x       y       z     vdW  Elec       q    Type
DOCKED: USER                           _______ _______ _______ _____ _____    ______ ____
DOCKED: ROOT
DOCKED: ATOM      1  C   UNL     1     139.321  73.722 221.794 -0.18 -0.04    +0.216 C  
DOCKED: ENDROOT
DOCKED: BRANCH   1   2
DOCKED: ATOM      2  N   UNL     1     139.683  75.070 222.100 -0.15 +0.05    -0.342 N  
DOCKED: ATOM      3  C   UNL     1     138.763  76.114 222.394 -0.20 -0.06    +0.270 C  
DOCKED: ATOM      4  O   UNL     1     137.525  75.879 222.405 -0.19 +0.07    -0.268 OA 
DOCKED: ATOM      5  H   UNL     1     140.715  75.325 222.112 +0.04 -0.02    +0.164 HD 
DOCKED: BRANCH   3   6
DOCKED: ATOM      6  C   UNL     1     139.287  77.467 222.683 -0.24 -0.02    +0.128 A  
DOCKED: ATOM      7  C   UNL     1     138.401  78.498 222.898 -0.26 -0.01    +0.035 A  
DOCKED: ATOM      8  N   UNL     1     140.614  77.693 222.738 -0.26 +0.07    -0.243 NA 
DOCKED: ATOM      9  C   UNL     1     138.908  79.774 223.171 -0.34 -0.00    +0.013 A  
DOCKED: ATOM     10  C   UNL     1     141.161  78.894 222.996 -0.47 -0.02    +0.071 A  
DOCKED: ATOM     11  C   UNL     1     140.294  79.946 223.214 -0.44 -0.00    +0.000 A  
DOCKED: ATOM     12  C   UNL     1     142.534  79.024 223.031 -0.49 -0.01    +0.029 A  
DOCKED: ATOM     13  C   UNL     1     140.844  81.200 223.483 -0.43 -0.00    +0.010 A  
DOCKED: ATOM     14  C   UNL     1     143.072  80.268 223.297 -0.65 -0.00    +0.002 A  
DOCKED: ATOM     15  C   UNL     1     142.222  81.346 223.521 -0.60 -0.00    +0.001 A  
DOCKED: ENDBRANCH   3   6
DOCKED: ENDBRANCH   1   2
DOCKED: BRANCH   1  16
DOCKED: ATOM     16  C   UNL     1     139.743  72.630 222.638 -0.15 -0.04    +0.242 C  
DOCKED: ATOM     17  O   UNL     1     141.050  72.520 222.737 -0.38 -0.00    -0.273 OA 
DOCKED: BRANCH  16  18
DOCKED: ATOM     18  N   UNL     1     139.037  71.665 223.366 -0.13 +0.09    -0.338 N  
DOCKED: ATOM     19  C   UNL     1     137.609  71.499 223.452 -0.17 -0.03    +0.120 C  
DOCKED: ATOM     20  C   UNL     1     139.815  70.688 224.163 -0.35 -0.02    +0.088 C  
DOCKED: ATOM     21  C   UNL     1     137.141  70.090 223.660 -0.22 -0.00    +0.022 C  
DOCKED: ATOM     22  C   UNL     1     139.551  69.365 223.541 -0.15 -0.00    +0.025 C  
DOCKED: ATOM     23  C   UNL     1     138.099  68.998 223.469 -0.27 -0.00    +0.004 C  
DOCKED: BRANCH  20  24
DOCKED: ATOM     24  C   UNL     1     139.590  70.812 225.621 -0.37 -0.00    +0.016 C  
DOCKED: ATOM     25  C   UNL     1     139.529  69.476 226.313 -0.48 -0.00    +0.034 C  
DOCKED: ATOM     26  C   UNL     1     140.843  71.496 226.192 -0.64 -0.01    +0.034 C  
DOCKED: ATOM     27  C   UNL     1     140.916  68.968 226.553 -0.46 -0.03    +0.160 C  
DOCKED: ATOM     28  C   UNL     1     141.042  71.004 227.629 -0.56 -0.03    +0.160 C  
DOCKED: ATOM     29  O   UNL     1     141.449  69.668 227.636 -0.20 +0.08    -0.381 OA 
DOCKED: ENDBRANCH  20  24
DOCKED: ENDBRANCH  16  18
DOCKED: ENDBRANCH   1  16
DOCKED: TORSDOF 5
DOCKED: TER
DOCKED: ENDMDL
________________________________________________________________________________


    FINAL DOCKED STATE:
    ________________________


Run:   13 / 20
Time taken for this run:   0.031s

DOCKED: MODEL        13
DOCKED: USER    Run = 13
DOCKED: USER
DOCKED: USER    Estimated Free Energy of Binding    =  -8.91 kcal/mol  [=(1)+(2)+(3)-(4)]
DOCKED: USER
DOCKED: USER    (1) Final Intermolecular Energy     = -10.40 kcal/mol
DOCKED: USER        vdW + Hbond + desolv Energy     = -10.30 kcal/mol
DOCKED: USER        Electrostatic Energy            =  -0.11 kcal/mol
DOCKED: USER        Moving Ligand-Fixed Receptor    = -10.40 kcal/mol
DOCKED: USER        Moving Ligand-Moving Receptor   =  +0.00 kcal/mol
DOCKED: USER    (2) Final Total Internal Energy     =  -1.47 kcal/mol
DOCKED: USER    (3) Torsional Free Energy           =  +1.49 kcal/mol
DOCKED: USER    (4) Unbound System's Energy         =  -1.47 kcal/mol
DOCKED: USER
DOCKED: USER
DOCKED: REMARK SMILES O=C(NCC(=O)N1CCCC[C@@H]1C1CCOCC1)c1ccc2ccccc2n1
DOCKED: REMARK SMILES IDX 4 1 3 2 2 3 1 4 19 6 20 7 28 8 21 9 27 10 22 11 26 12 23 13
DOCKED: REMARK SMILES IDX 25 14 24 15 5 16 6 17 7 18 8 19 12 20 9 21 11 22 10 23 13 24
DOCKED: REMARK SMILES IDX 14 25 18 26 15 27 17 28 16 29
DOCKED: REMARK H PARENT 3 5
DOCKED: USER                              x       y       z     vdW  Elec       q    Type
DOCKED: USER                           _______ _______ _______ _____ _____    ______ ____
DOCKED: ROOT
DOCKED: ATOM      1  C   UNL     1     140.211  74.534 221.253 -0.21 -0.04    +0.216 C  
DOCKED: ENDROOT
DOCKED: BRANCH   1   2
DOCKED: ATOM      2  N   UNL     1     140.042  73.627 222.345 -0.08 +0.02    -0.342 N  
DOCKED: ATOM      3  C   UNL     1     140.552  72.299 222.388 -0.20 -0.02    +0.270 C  
DOCKED: ATOM      4  O   UNL     1     141.216  71.848 221.418 -0.16 +0.03    -0.268 OA 
DOCKED: ATOM      5  H   UNL     1     139.494  73.956 223.195 -0.50 -0.03    +0.164 HD 
DOCKED: BRANCH   3   6
DOCKED: ATOM      6  C   UNL     1     140.287  71.472 223.586 -0.33 -0.02    +0.128 A  
DOCKED: ATOM      7  C   UNL     1     139.614  70.280 223.441 -0.27 -0.01    +0.035 A  
DOCKED: ATOM      8  N   UNL     1     140.697  71.874 224.804 -0.28 +0.03    -0.243 NA 
DOCKED: ATOM      9  C   UNL     1     139.368  69.505 224.580 -0.35 -0.00    +0.013 A  
DOCKED: ATOM     10  C   UNL     1     140.491  71.175 225.934 -0.54 -0.01    +0.071 A  
DOCKED: ATOM     11  C   UNL     1     139.818  69.975 225.817 -0.48 -0.00    +0.000 A  
DOCKED: ATOM     12  C   UNL     1     140.951  71.672 227.136 -0.75 -0.01    +0.029 A  
DOCKED: ATOM     13  C   UNL     1     139.596  69.235 226.979 -0.55 -0.00    +0.010 A  
DOCKED: ATOM     14  C   UNL     1     140.728  70.935 228.282 -0.65 -0.00    +0.002 A  
DOCKED: ATOM     15  C   UNL     1     140.051  69.723 228.195 -0.62 -0.00    +0.001 A  
DOCKED: ENDBRANCH   3   6
DOCKED: ENDBRANCH   1   2
DOCKED: BRANCH   1  16
DOCKED: ATOM     16  C   UNL     1     140.488  75.931 221.486 -0.24 -0.07    +0.242 C  
DOCKED: ATOM     17  O   UNL     1     139.868  76.420 222.539 -0.32 +0.05    -0.273 OA 
DOCKED: BRANCH  16  18
DOCKED: ATOM     18  N   UNL     1     141.279  76.868 220.811 -0.12 +0.16    -0.338 N  
DOCKED: ATOM     19  C   UNL     1     142.377  76.608 219.916 -0.26 -0.07    +0.120 C  
DOCKED: ATOM     20  C   UNL     1     140.990  78.305 221.024 -0.26 -0.04    +0.088 C  
DOCKED: ATOM     21  C   UNL     1     142.575  77.628 218.835 -0.31 -0.02    +0.022 C  
DOCKED: ATOM     22  C   UNL     1     140.534  78.820 219.707 -0.15 -0.01    +0.025 C  
DOCKED: ATOM     23  C   UNL     1     141.511  78.606 218.591 -0.22 -0.00    +0.004 C  
DOCKED: BRANCH  20  24
DOCKED: ATOM     24  C   UNL     1     142.094  79.030 221.694 -0.36 -0.01    +0.016 C  
DOCKED: ATOM     25  C   UNL     1     142.078  80.507 221.400 -0.39 -0.01    +0.034 C  
DOCKED: ATOM     26  C   UNL     1     141.824  78.923 223.203 -0.57 -0.01    +0.034 C  
DOCKED: ATOM     27  C   UNL     1     141.076  81.186 222.280 -0.34 -0.03    +0.160 C  
DOCKED: ATOM     28  C   UNL     1     142.396  80.174 223.880 -0.49 -0.04    +0.160 C  
DOCKED: ATOM     29  O   UNL     1     141.630  81.296 223.557 -0.29 +0.05    -0.381 OA 
DOCKED: ENDBRANCH  20  24
DOCKED: ENDBRANCH  16  18
DOCKED: ENDBRANCH   1  16
DOCKED: TORSDOF 5
DOCKED: TER
DOCKED: ENDMDL
________________________________________________________________________________


    FINAL DOCKED STATE:
    ________________________


Run:   14 / 20
Time taken for this run:   0.031s

DOCKED: MODEL        14
DOCKED: USER    Run = 14
DOCKED: USER
DOCKED: USER    Estimated Free Energy of Binding    =  -8.88 kcal/mol  [=(1)+(2)+(3)-(4)]
DOCKED: USER
DOCKED: USER    (1) Final Intermolecular Energy     = -10.37 kcal/mol
DOCKED: USER        vdW + Hbond + desolv Energy     = -10.27 kcal/mol
DOCKED: USER        Electrostatic Energy            =  -0.10 kcal/mol
DOCKED: USER        Moving Ligand-Fixed Receptor    = -10.37 kcal/mol
DOCKED: USER        Moving Ligand-Moving Receptor   =  +0.00 kcal/mol
DOCKED: USER    (2) Final Total Internal Energy     =  -1.48 kcal/mol
DOCKED: USER    (3) Torsional Free Energy           =  +1.49 kcal/mol
DOCKED: USER    (4) Unbound System's Energy         =  -1.48 kcal/mol
DOCKED: USER
DOCKED: USER
DOCKED: REMARK SMILES O=C(NCC(=O)N1CCCC[C@@H]1C1CCOCC1)c1ccc2ccccc2n1
DOCKED: REMARK SMILES IDX 4 1 3 2 2 3 1 4 19 6 20 7 28 8 21 9 27 10 22 11 26 12 23 13
DOCKED: REMARK SMILES IDX 25 14 24 15 5 16 6 17 7 18 8 19 12 20 9 21 11 22 10 23 13 24
DOCKED: REMARK SMILES IDX 14 25 18 26 15 27 17 28 16 29
DOCKED: REMARK H PARENT 3 5
DOCKED: USER                              x       y       z     vdW  Elec       q    Type
DOCKED: USER                           _______ _______ _______ _____ _____    ______ ____
DOCKED: ROOT
DOCKED: ATOM      1  C   UNL     1     140.307  74.595 221.254 -0.21 -0.04    +0.216 C  
DOCKED: ENDROOT
DOCKED: BRANCH   1   2
DOCKED: ATOM      2  N   UNL     1     140.110  73.676 222.331 -0.05 +0.01    -0.342 N  
DOCKED: ATOM      3  C   UNL     1     140.595  72.339 222.360 -0.20 -0.02    +0.270 C  
DOCKED: ATOM      4  O   UNL     1     141.260  71.888 221.390 -0.16 +0.03    -0.268 OA 
DOCKED: ATOM      5  H   UNL     1     139.561  74.004 223.181 -0.51 -0.02    +0.164 HD 
DOCKED: BRANCH   3   6
DOCKED: ATOM      6  C   UNL     1     140.302  71.499 223.543 -0.33 -0.02    +0.128 A  
DOCKED: ATOM      7  C   UNL     1     139.624  70.314 223.373 -0.26 -0.01    +0.035 A  
DOCKED: ATOM      8  N   UNL     1     140.693  71.885 224.773 -0.27 +0.03    -0.243 NA 
DOCKED: ATOM      9  C   UNL     1     139.353  69.527 224.499 -0.34 -0.00    +0.013 A  
DOCKED: ATOM     10  C   UNL     1     140.462  71.174 225.892 -0.54 -0.01    +0.071 A  
DOCKED: ATOM     11  C   UNL     1     139.783  69.981 225.749 -0.47 -0.00    +0.000 A  
DOCKED: ATOM     12  C   UNL     1     140.903  71.654 227.108 -0.74 -0.01    +0.029 A  
DOCKED: ATOM     13  C   UNL     1     139.535  69.229 226.898 -0.53 -0.00    +0.010 A  
DOCKED: ATOM     14  C   UNL     1     140.654  70.906 228.241 -0.66 -0.00    +0.002 A  
DOCKED: ATOM     15  C   UNL     1     139.972  69.699 228.127 -0.63 -0.00    +0.001 A  
DOCKED: ENDBRANCH   3   6
DOCKED: ENDBRANCH   1   2
DOCKED: BRANCH   1  16
DOCKED: ATOM     16  C   UNL     1     140.462  76.008 221.505 -0.24 -0.07    +0.242 C  
DOCKED: ATOM     17  O   UNL     1     139.781  76.433 222.547 -0.31 +0.05    -0.273 OA 
DOCKED: BRANCH  16  18
DOCKED: ATOM     18  N   UNL     1     141.187  77.013 220.855 -0.12 +0.15    -0.338 N  
DOCKED: ATOM     19  C   UNL     1     142.183  76.854 219.828 -0.27 -0.07    +0.120 C  
DOCKED: ATOM     20  C   UNL     1     140.935  78.419 221.250 -0.27 -0.04    +0.088 C  
DOCKED: ATOM     21  C   UNL     1     142.277  77.985 218.848 -0.29 -0.01    +0.022 C  
DOCKED: ATOM     22  C   UNL     1     140.350  79.071 220.051 -0.15 -0.01    +0.025 C  
DOCKED: ATOM     23  C   UNL     1     141.203  78.981 218.822 -0.20 -0.00    +0.004 C  
DOCKED: BRANCH  20  24
DOCKED: ATOM     24  C   UNL     1     142.109  79.070 221.875 -0.41 -0.01    +0.016 C  
DOCKED: ATOM     25  C   UNL     1     142.198  80.538 221.550 -0.42 -0.01    +0.034 C  
DOCKED: ATOM     26  C   UNL     1     141.875  79.013 223.392 -0.59 -0.01    +0.034 C  
DOCKED: ATOM     27  C   UNL     1     141.276  81.308 222.442 -0.37 -0.03    +0.160 C  
DOCKED: ATOM     28  C   UNL     1     142.559  80.229 224.027 -0.42 -0.03    +0.160 C  
DOCKED: ATOM     29  O   UNL     1     141.872  81.400 223.701 -0.31 +0.05    -0.381 OA 
DOCKED: ENDBRANCH  20  24
DOCKED: ENDBRANCH  16  18
DOCKED: ENDBRANCH   1  16
DOCKED: TORSDOF 5
DOCKED: TER
DOCKED: ENDMDL
________________________________________________________________________________


    FINAL DOCKED STATE:
    ________________________


Run:   15 / 20
Time taken for this run:   0.031s

DOCKED: MODEL        15
DOCKED: USER    Run = 15
DOCKED: USER
DOCKED: USER    Estimated Free Energy of Binding    =  -8.74 kcal/mol  [=(1)+(2)+(3)-(4)]
DOCKED: USER
DOCKED: USER    (1) Final Intermolecular Energy     = -10.23 kcal/mol
DOCKED: USER        vdW + Hbond + desolv Energy     = -10.14 kcal/mol
DOCKED: USER        Electrostatic Energy            =  -0.09 kcal/mol
DOCKED: USER        Moving Ligand-Fixed Receptor    = -10.23 kcal/mol
DOCKED: USER        Moving Ligand-Moving Receptor   =  +0.00 kcal/mol
DOCKED: USER    (2) Final Total Internal Energy     =  -1.56 kcal/mol
DOCKED: USER    (3) Torsional Free Energy           =  +1.49 kcal/mol
DOCKED: USER    (4) Unbound System's Energy         =  -1.56 kcal/mol
DOCKED: USER
DOCKED: USER
DOCKED: REMARK SMILES O=C(NCC(=O)N1CCCC[C@@H]1C1CCOCC1)c1ccc2ccccc2n1
DOCKED: REMARK SMILES IDX 4 1 3 2 2 3 1 4 19 6 20 7 28 8 21 9 27 10 22 11 26 12 23 13
DOCKED: REMARK SMILES IDX 25 14 24 15 5 16 6 17 7 18 8 19 12 20 9 21 11 22 10 23 13 24
DOCKED: REMARK SMILES IDX 14 25 18 26 15 27 17 28 16 29
DOCKED: REMARK H PARENT 3 5
DOCKED: USER                              x       y       z     vdW  Elec       q    Type
DOCKED: USER                           _______ _______ _______ _____ _____    ______ ____
DOCKED: ROOT
DOCKED: ATOM      1  C   UNL     1     140.043  74.291 221.336 -0.20 -0.04    +0.216 C  
DOCKED: ENDROOT
DOCKED: BRANCH   1   2
DOCKED: ATOM      2  N   UNL     1     139.932  73.380 222.431 -0.09 +0.03    -0.342 N  
DOCKED: ATOM      3  C   UNL     1     140.265  71.998 222.378 -0.21 -0.04    +0.270 C  
DOCKED: ATOM      4  O   UNL     1     140.704  71.496 221.309 -0.12 +0.04    -0.268 OA 
DOCKED: ATOM      5  H   UNL     1     139.574  73.749 223.361 -0.48 -0.04    +0.164 HD 
DOCKED: BRANCH   3   6
DOCKED: ATOM      6  C   UNL     1     140.087  71.174 223.594 -0.32 -0.02    +0.128 A  
DOCKED: ATOM      7  C   UNL     1     139.556  69.909 223.474 -0.25 -0.01    +0.035 A  
DOCKED: ATOM      8  N   UNL     1     140.439  71.648 224.804 -0.30 +0.04    -0.243 NA 
DOCKED: ATOM      9  C   UNL     1     139.392  69.138 224.631 -0.35 -0.00    +0.013 A  
DOCKED: ATOM     10  C   UNL     1     140.306  70.957 225.950 -0.52 -0.01    +0.071 A  
DOCKED: ATOM     11  C   UNL     1     139.775  69.686 225.859 -0.47 -0.00    +0.000 A  
DOCKED: ATOM     12  C   UNL     1     140.696  71.532 227.142 -0.73 -0.01    +0.029 A  
DOCKED: ATOM     13  C   UNL     1     139.630  68.953 227.037 -0.56 -0.00    +0.010 A  
DOCKED: ATOM     14  C   UNL     1     140.550  70.801 228.304 -0.63 -0.00    +0.002 A  
DOCKED: ATOM     15  C   UNL     1     140.017  69.518 228.243 -0.63 -0.00    +0.001 A  
DOCKED: ENDBRANCH   3   6
DOCKED: ENDBRANCH   1   2
DOCKED: BRANCH   1  16
DOCKED: ATOM     16  C   UNL     1     140.346  75.685 221.559 -0.24 -0.06    +0.242 C  
DOCKED: ATOM     17  O   UNL     1     139.723  76.196 222.599 -0.35 +0.05    -0.273 OA 
DOCKED: BRANCH  16  18
DOCKED: ATOM     18  N   UNL     1     141.165  76.598 220.885 -0.12 +0.15    -0.338 N  
DOCKED: ATOM     19  C   UNL     1     142.306  76.310 220.055 -0.25 -0.07    +0.120 C  
DOCKED: ATOM     20  C   UNL     1     140.860  78.042 221.025 -0.25 -0.04    +0.088 C  
DOCKED: ATOM     21  C   UNL     1     142.551  77.287 218.944 -0.32 -0.01    +0.022 C  
DOCKED: ATOM     22  C   UNL     1     140.466  78.500 219.669 -0.14 -0.01    +0.025 C  
DOCKED: ATOM     23  C   UNL     1     141.496  78.248 218.610 -0.21 -0.00    +0.004 C  
DOCKED: BRANCH  20  24
DOCKED: ATOM     24  C   UNL     1     141.927  78.800 221.717 -0.38 -0.01    +0.016 C  
DOCKED: ATOM     25  C   UNL     1     141.889  80.271 221.400 -0.40 -0.01    +0.034 C  
DOCKED: ATOM     26  C   UNL     1     141.613  78.710 223.219 -0.56 -0.01    +0.034 C  
DOCKED: ATOM     27  C   UNL     1     140.846  80.941 222.240 -0.32 -0.03    +0.160 C  
DOCKED: ATOM     28  C   UNL     1     142.137  79.982 223.893 -0.47 -0.04    +0.160 C  
DOCKED: ATOM     29  O   UNL     1     141.358  81.082 223.530 -0.27 +0.05    -0.381 OA 
DOCKED: ENDBRANCH  20  24
DOCKED: ENDBRANCH  16  18
DOCKED: ENDBRANCH   1  16
DOCKED: TORSDOF 5
DOCKED: TER
DOCKED: ENDMDL
________________________________________________________________________________


    FINAL DOCKED STATE:
    ________________________


Run:   16 / 20
Time taken for this run:   0.031s

DOCKED: MODEL        16
DOCKED: USER    Run = 16
DOCKED: USER
DOCKED: USER    Estimated Free Energy of Binding    =  -8.22 kcal/mol  [=(1)+(2)+(3)-(4)]
DOCKED: USER
DOCKED: USER    (1) Final Intermolecular Energy     =  -9.71 kcal/mol
DOCKED: USER        vdW + Hbond + desolv Energy     =  -9.47 kcal/mol
DOCKED: USER        Electrostatic Energy            =  -0.24 kcal/mol
DOCKED: USER        Moving Ligand-Fixed Receptor    =  -9.71 kcal/mol
DOCKED: USER        Moving Ligand-Moving Receptor   =  +0.00 kcal/mol
DOCKED: USER    (2) Final Total Internal Energy     =  -1.57 kcal/mol
DOCKED: USER    (3) Torsional Free Energy           =  +1.49 kcal/mol
DOCKED: USER    (4) Unbound System's Energy         =  -1.57 kcal/mol
DOCKED: USER
DOCKED: USER
DOCKED: REMARK SMILES O=C(NCC(=O)N1CCCC[C@@H]1C1CCOCC1)c1ccc2ccccc2n1
DOCKED: REMARK SMILES IDX 4 1 3 2 2 3 1 4 19 6 20 7 28 8 21 9 27 10 22 11 26 12 23 13
DOCKED: REMARK SMILES IDX 25 14 24 15 5 16 6 17 7 18 8 19 12 20 9 21 11 22 10 23 13 24
DOCKED: REMARK SMILES IDX 14 25 18 26 15 27 17 28 16 29
DOCKED: REMARK H PARENT 3 5
DOCKED: USER                              x       y       z     vdW  Elec       q    Type
DOCKED: USER                           _______ _______ _______ _____ _____    ______ ____
DOCKED: ROOT
DOCKED: ATOM      1  C   UNL     1     139.629  73.940 221.342 -0.18 -0.04    +0.216 C  
DOCKED: ENDROOT
DOCKED: BRANCH   1   2
DOCKED: ATOM      2  N   UNL     1     139.653  73.065 222.472 -0.12 +0.06    -0.342 N  
DOCKED: ATOM      3  C   UNL     1     140.041  71.696 222.434 -0.20 -0.04    +0.270 C  
DOCKED: ATOM      4  O   UNL     1     140.407  71.175 221.348 -0.11 +0.04    -0.268 OA 
DOCKED: ATOM      5  H   UNL     1     139.359  73.452 223.418 -0.45 -0.08    +0.164 HD 
DOCKED: BRANCH   3   6
DOCKED: ATOM      6  C   UNL     1     140.004  70.910 223.687 -0.30 -0.02    +0.128 A  
DOCKED: ATOM      7  C   UNL     1     139.485  69.635 223.663 -0.24 -0.01    +0.035 A  
DOCKED: ATOM      8  N   UNL     1     140.472  71.428 224.838 -0.31 +0.04    -0.243 NA 
DOCKED: ATOM      9  C   UNL     1     139.456  68.899 224.853 -0.38 -0.00    +0.013 A  
DOCKED: ATOM     10  C   UNL     1     140.471  70.772 226.013 -0.53 -0.01    +0.071 A  
DOCKED: ATOM     11  C   UNL     1     139.955  69.492 226.017 -0.49 -0.00    +0.000 A  
DOCKED: ATOM     12  C   UNL     1     140.973  71.391 227.139 -0.72 -0.00    +0.029 A  
DOCKED: ATOM     13  C   UNL     1     139.946  68.795 227.226 -0.61 -0.00    +0.010 A  
DOCKED: ATOM     14  C   UNL     1     140.961  70.696 228.332 -0.60 -0.00    +0.002 A  
DOCKED: ATOM     15  C   UNL     1     140.447  69.404 228.366 -0.61 -0.00    +0.001 A  
DOCKED: ENDBRANCH   3   6
DOCKED: ENDBRANCH   1   2
DOCKED: BRANCH   1  16
DOCKED: ATOM     16  C   UNL     1     140.765  74.773 221.025 -0.20 -0.05    +0.242 C  
DOCKED: ATOM     17  O   UNL     1     141.129  75.561 222.014 -0.44 +0.07    -0.273 OA 
DOCKED: BRANCH  16  18
DOCKED: ATOM     18  N   UNL     1     141.550  74.910 219.875 -0.06 +0.10    -0.338 N  
DOCKED: ATOM     19  C   UNL     1     141.116  75.285 218.554 -0.06 -0.04    +0.120 C  
DOCKED: ATOM     20  C   UNL     1     143.002  74.635 219.986 -0.29 -0.03    +0.088 C  
DOCKED: ATOM     21  C   UNL     1     142.130  76.023 217.734 -0.14 -0.01    +0.022 C  
DOCKED: ATOM     22  C   UNL     1     143.674  75.933 219.722 -0.39 -0.02    +0.025 C  
DOCKED: ATOM     23  C   UNL     1     143.323  76.551 218.403 -0.31 -0.00    +0.004 C  
DOCKED: BRANCH  20  24
DOCKED: ATOM     24  C   UNL     1     143.438  73.466 219.189 -0.22 -0.00    +0.016 C  
DOCKED: ATOM     25  C   UNL     1     144.795  73.665 218.568 -0.18 -0.00    +0.034 C  
DOCKED: ATOM     26  C   UNL     1     143.624  72.312 220.186 -0.28 -0.00    +0.034 C  
DOCKED: ATOM     27  C   UNL     1     145.860  73.391 219.583 -0.32 +0.03    +0.160 C  
DOCKED: ATOM     28  C   UNL     1     144.720  71.386 219.647 -0.20 +0.02    +0.160 C  
DOCKED: ATOM     29  O   UNL     1     145.968  72.007 219.731 -0.51 -0.23    -0.381 OA 
DOCKED: ENDBRANCH  20  24
DOCKED: ENDBRANCH  16  18
DOCKED: ENDBRANCH   1  16
DOCKED: TORSDOF 5
DOCKED: TER
DOCKED: ENDMDL
________________________________________________________________________________


    FINAL DOCKED STATE:
    ________________________


Run:   17 / 20
Time taken for this run:   0.031s

DOCKED: MODEL        17
DOCKED: USER    Run = 17
DOCKED: USER
DOCKED: USER    Estimated Free Energy of Binding    =  -8.35 kcal/mol  [=(1)+(2)+(3)-(4)]
DOCKED: USER
DOCKED: USER    (1) Final Intermolecular Energy     =  -9.84 kcal/mol
DOCKED: USER        vdW + Hbond + desolv Energy     =  -9.76 kcal/mol
DOCKED: USER        Electrostatic Energy            =  -0.08 kcal/mol
DOCKED: USER        Moving Ligand-Fixed Receptor    =  -9.84 kcal/mol
DOCKED: USER        Moving Ligand-Moving Receptor   =  +0.00 kcal/mol
DOCKED: USER    (2) Final Total Internal Energy     =  -1.30 kcal/mol
DOCKED: USER    (3) Torsional Free Energy           =  +1.49 kcal/mol
DOCKED: USER    (4) Unbound System's Energy         =  -1.30 kcal/mol
DOCKED: USER
DOCKED: USER
DOCKED: REMARK SMILES O=C(NCC(=O)N1CCCC[C@@H]1C1CCOCC1)c1ccc2ccccc2n1
DOCKED: REMARK SMILES IDX 4 1 3 2 2 3 1 4 19 6 20 7 28 8 21 9 27 10 22 11 26 12 23 13
DOCKED: REMARK SMILES IDX 25 14 24 15 5 16 6 17 7 18 8 19 12 20 9 21 11 22 10 23 13 24
DOCKED: REMARK SMILES IDX 14 25 18 26 15 27 17 28 16 29
DOCKED: REMARK H PARENT 3 5
DOCKED: USER                              x       y       z     vdW  Elec       q    Type
DOCKED: USER                           _______ _______ _______ _____ _____    ______ ____
DOCKED: ROOT
DOCKED: ATOM      1  C   UNL     1     140.150  74.405 221.196 -0.20 -0.04    +0.216 C  
DOCKED: ENDROOT
DOCKED: BRANCH   1   2
DOCKED: ATOM      2  N   UNL     1     140.011  73.548 222.331 -0.11 +0.02    -0.342 N  
DOCKED: ATOM      3  C   UNL     1     140.464  72.201 222.395 -0.21 -0.03    +0.270 C  
DOCKED: ATOM      4  O   UNL     1     141.046  71.684 221.405 -0.15 +0.03    -0.268 OA 
DOCKED: ATOM      5  H   UNL     1     139.532  73.933 223.199 -0.50 -0.03    +0.164 HD 
DOCKED: BRANCH   3   6
DOCKED: ATOM      6  C   UNL     1     140.238  71.431 223.638 -0.33 -0.02    +0.128 A  
DOCKED: ATOM      7  C   UNL     1     139.551  70.240 223.573 -0.28 -0.01    +0.035 A  
DOCKED: ATOM      8  N   UNL     1     140.697  71.883 224.820 -0.28 +0.03    -0.243 NA 
DOCKED: ATOM      9  C   UNL     1     139.343  69.519 224.755 -0.37 -0.00    +0.013 A  
DOCKED: ATOM     10  C   UNL     1     140.529  71.238 225.989 -0.55 -0.01    +0.071 A  
DOCKED: ATOM     11  C   UNL     1     139.843  70.041 225.952 -0.49 -0.00    +0.000 A  
DOCKED: ATOM     12  C   UNL     1     141.038  71.784 227.149 -0.77 -0.01    +0.029 A  
DOCKED: ATOM     13  C   UNL     1     139.659  69.356 227.154 -0.56 -0.00    +0.010 A  
DOCKED: ATOM     14  C   UNL     1     140.853  71.102 228.335 -0.67 -0.00    +0.002 A  
DOCKED: ATOM     15  C   UNL     1     140.164  69.894 228.328 -0.60 -0.00    +0.001 A  
DOCKED: ENDBRANCH   3   6
DOCKED: ENDBRANCH   1   2
DOCKED: BRANCH   1  16
DOCKED: ATOM     16  C   UNL     1     141.412  75.041 220.898 -0.21 -0.07    +0.242 C  
DOCKED: ATOM     17  O   UNL     1     142.455  74.286 221.166 -0.18 +0.07    -0.273 OA 
DOCKED: BRANCH  16  18
DOCKED: ATOM     18  N   UNL     1     141.742  76.301 220.386 -0.12 +0.17    -0.338 N  
DOCKED: ATOM     19  C   UNL     1     142.835  76.634 219.509 -0.31 -0.08    +0.120 C  
DOCKED: ATOM     20  C   UNL     1     140.899  77.454 220.777 -0.24 -0.04    +0.088 C  
DOCKED: ATOM     21  C   UNL     1     142.582  77.786 218.582 -0.32 -0.02    +0.022 C  
DOCKED: ATOM     22  C   UNL     1     140.249  77.916 219.524 -0.11 -0.01    +0.025 C  
DOCKED: ATOM     23  C   UNL     1     141.208  78.273 218.429 -0.17 -0.00    +0.004 C  
DOCKED: BRANCH  20  24
DOCKED: ATOM     24  C   UNL     1     141.625  78.463 221.581 -0.37 -0.01    +0.016 C  
DOCKED: ATOM     25  C   UNL     1     141.008  79.834 221.482 -0.33 -0.01    +0.034 C  
DOCKED: ATOM     26  C   UNL     1     141.445  78.053 223.050 -0.44 -0.01    +0.034 C  
DOCKED: ATOM     27  C   UNL     1     139.831  79.924 222.402 -0.24 -0.03    +0.160 C  
DOCKED: ATOM     28  C   UNL     1     141.472  79.322 223.908 -0.46 -0.04    +0.160 C  
DOCKED: ATOM     29  O   UNL     1     140.312  80.073 223.704 -0.23 +0.06    -0.381 OA 
DOCKED: ENDBRANCH  20  24
DOCKED: ENDBRANCH  16  18
DOCKED: ENDBRANCH   1  16
DOCKED: TORSDOF 5
DOCKED: TER
DOCKED: ENDMDL
________________________________________________________________________________


    FINAL DOCKED STATE:
    ________________________


Run:   18 / 20
Time taken for this run:   0.031s

DOCKED: MODEL        18
DOCKED: USER    Run = 18
DOCKED: USER
DOCKED: USER    Estimated Free Energy of Binding    =  -8.48 kcal/mol  [=(1)+(2)+(3)-(4)]
DOCKED: USER
DOCKED: USER    (1) Final Intermolecular Energy     =  -9.97 kcal/mol
DOCKED: USER        vdW + Hbond + desolv Energy     =  -9.98 kcal/mol
DOCKED: USER        Electrostatic Energy            =  +0.01 kcal/mol
DOCKED: USER        Moving Ligand-Fixed Receptor    =  -9.97 kcal/mol
DOCKED: USER        Moving Ligand-Moving Receptor   =  +0.00 kcal/mol
DOCKED: USER    (2) Final Total Internal Energy     =  -1.16 kcal/mol
DOCKED: USER    (3) Torsional Free Energy           =  +1.49 kcal/mol
DOCKED: USER    (4) Unbound System's Energy         =  -1.16 kcal/mol
DOCKED: USER
DOCKED: USER
DOCKED: REMARK SMILES O=C(NCC(=O)N1CCCC[C@@H]1C1CCOCC1)c1ccc2ccccc2n1
DOCKED: REMARK SMILES IDX 4 1 3 2 2 3 1 4 19 6 20 7 28 8 21 9 27 10 22 11 26 12 23 13
DOCKED: REMARK SMILES IDX 25 14 24 15 5 16 6 17 7 18 8 19 12 20 9 21 11 22 10 23 13 24
DOCKED: REMARK SMILES IDX 14 25 18 26 15 27 17 28 16 29
DOCKED: REMARK H PARENT 3 5
DOCKED: USER                              x       y       z     vdW  Elec       q    Type
DOCKED: USER                           _______ _______ _______ _____ _____    ______ ____
DOCKED: ROOT
DOCKED: ATOM      1  C   UNL     1     139.588  72.853 221.786 -0.19 -0.04    +0.216 C  
DOCKED: ENDROOT
DOCKED: BRANCH   1   2
DOCKED: ATOM      2  N   UNL     1     139.556  74.237 222.144 -0.13 +0.05    -0.342 N  
DOCKED: ATOM      3  C   UNL     1     140.501  75.211 221.718 -0.19 -0.05    +0.270 C  
DOCKED: ATOM      4  O   UNL     1     141.450  74.879 220.960 -0.23 +0.07    -0.268 OA 
DOCKED: ATOM      5  H   UNL     1     138.772  74.576 222.777 -0.54 -0.07    +0.164 HD 
DOCKED: BRANCH   3   6
DOCKED: ATOM      6  C   UNL     1     140.343  76.608 222.180 -0.33 -0.03    +0.128 A  
DOCKED: ATOM      7  C   UNL     1     139.076  77.122 222.340 -0.31 -0.01    +0.035 A  
DOCKED: ATOM      8  N   UNL     1     141.421  77.370 222.444 -0.14 +0.12    -0.243 NA 
DOCKED: ATOM      9  C   UNL     1     138.939  78.445 222.778 -0.30 -0.00    +0.013 A  
DOCKED: ATOM     10  C   UNL     1     141.354  78.646 222.867 -0.48 -0.03    +0.071 A  
DOCKED: ATOM     11  C   UNL     1     140.095  79.186 223.035 -0.41 -0.00    +0.000 A  
DOCKED: ATOM     12  C   UNL     1     142.518  79.345 223.111 -0.58 -0.01    +0.029 A  
DOCKED: ATOM     13  C   UNL     1     140.005  80.508 223.474 -0.44 -0.00    +0.010 A  
DOCKED: ATOM     14  C   UNL     1     142.423  80.652 223.545 -0.66 -0.00    +0.002 A  
DOCKED: ATOM     15  C   UNL     1     141.167  81.223 223.722 -0.47 -0.00    +0.001 A  
DOCKED: ENDBRANCH   3   6
DOCKED: ENDBRANCH   1   2
DOCKED: BRANCH   1  16
DOCKED: ATOM     16  C   UNL     1     139.914  71.842 222.763 -0.23 -0.04    +0.242 C  
DOCKED: ATOM     17  O   UNL     1     141.194  71.537 222.795 -0.14 +0.01    -0.273 OA 
DOCKED: BRANCH  16  18
DOCKED: ATOM     18  N   UNL     1     139.139  71.121 223.678 -0.15 +0.08    -0.338 N  
DOCKED: ATOM     19  C   UNL     1     137.702  71.068 223.762 -0.20 -0.03    +0.120 C  
DOCKED: ATOM     20  C   UNL     1     139.842  70.312 224.701 -0.37 -0.01    +0.088 C  
DOCKED: ATOM     21  C   UNL     1     137.140  69.779 224.282 -0.26 -0.00    +0.022 C  
DOCKED: ATOM     22  C   UNL     1     139.498  68.899 224.399 -0.25 -0.00    +0.025 C  
DOCKED: ATOM     23  C   UNL     1     138.026  68.615 224.377 -0.20 -0.00    +0.004 C  
DOCKED: BRANCH  20  24
DOCKED: ATOM     24  C   UNL     1     139.610  70.789 226.084 -0.24 -0.00    +0.016 C  
DOCKED: ATOM     25  C   UNL     1     139.520  69.661 227.077 -0.50 -0.00    +0.034 C  
DOCKED: ATOM     26  C   UNL     1     140.870  71.571 226.485 -0.67 -0.01    +0.034 C  
DOCKED: ATOM     27  C   UNL     1     140.896  69.204 227.448 -0.48 -0.03    +0.160 C  
DOCKED: ATOM     28  C   UNL     1     141.052  71.439 228.001 -0.63 -0.03    +0.160 C  
DOCKED: ATOM     29  O   UNL     1     141.434  70.138 228.335 -0.25 +0.07    -0.381 OA 
DOCKED: ENDBRANCH  20  24
DOCKED: ENDBRANCH  16  18
DOCKED: ENDBRANCH   1  16
DOCKED: TORSDOF 5
DOCKED: TER
DOCKED: ENDMDL
________________________________________________________________________________


    FINAL DOCKED STATE:
    ________________________


Run:   19 / 20
Time taken for this run:   0.031s

DOCKED: MODEL        19
DOCKED: USER    Run = 19
DOCKED: USER
DOCKED: USER    Estimated Free Energy of Binding    =  -8.91 kcal/mol  [=(1)+(2)+(3)-(4)]
DOCKED: USER
DOCKED: USER    (1) Final Intermolecular Energy     = -10.40 kcal/mol
DOCKED: USER        vdW + Hbond + desolv Energy     = -10.30 kcal/mol
DOCKED: USER        Electrostatic Energy            =  -0.10 kcal/mol
DOCKED: USER        Moving Ligand-Fixed Receptor    = -10.40 kcal/mol
DOCKED: USER        Moving Ligand-Moving Receptor   =  +0.00 kcal/mol
DOCKED: USER    (2) Final Total Internal Energy     =  -1.47 kcal/mol
DOCKED: USER    (3) Torsional Free Energy           =  +1.49 kcal/mol
DOCKED: USER    (4) Unbound System's Energy         =  -1.47 kcal/mol
DOCKED: USER
DOCKED: USER
DOCKED: REMARK SMILES O=C(NCC(=O)N1CCCC[C@@H]1C1CCOCC1)c1ccc2ccccc2n1
DOCKED: REMARK SMILES IDX 4 1 3 2 2 3 1 4 19 6 20 7 28 8 21 9 27 10 22 11 26 12 23 13
DOCKED: REMARK SMILES IDX 25 14 24 15 5 16 6 17 7 18 8 19 12 20 9 21 11 22 10 23 13 24
DOCKED: REMARK SMILES IDX 14 25 18 26 15 27 17 28 16 29
DOCKED: REMARK H PARENT 3 5
DOCKED: USER                              x       y       z     vdW  Elec       q    Type
DOCKED: USER                           _______ _______ _______ _____ _____    ______ ____
DOCKED: ROOT
DOCKED: ATOM      1  C   UNL     1     140.280  74.524 221.244 -0.21 -0.04    +0.216 C  
DOCKED: ENDROOT
DOCKED: BRANCH   1   2
DOCKED: ATOM      2  N   UNL     1     140.096  73.632 222.346 -0.06 +0.01    -0.342 N  
DOCKED: ATOM      3  C   UNL     1     140.570  72.292 222.397 -0.20 -0.02    +0.270 C  
DOCKED: ATOM      4  O   UNL     1     141.213  71.813 221.425 -0.16 +0.03    -0.268 OA 
DOCKED: ATOM      5  H   UNL     1     139.566  73.984 223.198 -0.50 -0.02    +0.164 HD 
DOCKED: BRANCH   3   6
DOCKED: ATOM      6  C   UNL     1     140.293  71.482 223.604 -0.33 -0.02    +0.128 A  
DOCKED: ATOM      7  C   UNL     1     139.610  70.295 223.473 -0.27 -0.01    +0.035 A  
DOCKED: ATOM      8  N   UNL     1     140.703  71.896 224.818 -0.27 +0.03    -0.243 NA 
DOCKED: ATOM      9  C   UNL     1     139.354  69.537 224.621 -0.36 -0.00    +0.013 A  
DOCKED: ATOM     10  C   UNL     1     140.488  71.214 225.957 -0.54 -0.01    +0.071 A  
DOCKED: ATOM     11  C   UNL     1     139.804  70.019 225.854 -0.48 -0.00    +0.000 A  
DOCKED: ATOM     12  C   UNL     1     140.948  71.722 227.154 -0.76 -0.01    +0.029 A  
DOCKED: ATOM     13  C   UNL     1     139.571  69.296 227.024 -0.54 -0.00    +0.010 A  
DOCKED: ATOM     14  C   UNL     1     140.715  71.003 228.309 -0.66 -0.00    +0.002 A  
DOCKED: ATOM     15  C   UNL     1     140.027  69.796 228.235 -0.62 -0.00    +0.001 A  
DOCKED: ENDBRANCH   3   6
DOCKED: ENDBRANCH   1   2
DOCKED: BRANCH   1  16
DOCKED: ATOM     16  C   UNL     1     140.494  75.935 221.461 -0.24 -0.07    +0.242 C  
DOCKED: ATOM     17  O   UNL     1     139.802  76.422 222.469 -0.31 +0.05    -0.273 OA 
DOCKED: BRANCH  16  18
DOCKED: ATOM     18  N   UNL     1     141.286  76.886 220.808 -0.12 +0.16    -0.338 N  
DOCKED: ATOM     19  C   UNL     1     142.373  76.647 219.894 -0.27 -0.07    +0.120 C  
DOCKED: ATOM     20  C   UNL     1     141.012  78.319 221.069 -0.27 -0.04    +0.088 C  
DOCKED: ATOM     21  C   UNL     1     142.569  77.699 218.844 -0.31 -0.02    +0.022 C  
DOCKED: ATOM     22  C   UNL     1     140.547  78.878 219.775 -0.16 -0.01    +0.025 C  
DOCKED: ATOM     23  C   UNL     1     141.511  78.693 218.642 -0.22 -0.00    +0.004 C  
DOCKED: BRANCH  20  24
DOCKED: ATOM     24  C   UNL     1     142.128  79.013 221.751 -0.37 -0.01    +0.016 C  
DOCKED: ATOM     25  C   UNL     1     142.185  80.480 221.418 -0.39 -0.01    +0.034 C  
DOCKED: ATOM     26  C   UNL     1     141.814  78.959 223.254 -0.58 -0.01    +0.034 C  
DOCKED: ATOM     27  C   UNL     1     141.191  81.226 222.253 -0.35 -0.03    +0.160 C  
DOCKED: ATOM     28  C   UNL     1     142.422  80.201 223.913 -0.48 -0.04    +0.160 C  
DOCKED: ATOM     29  O   UNL     1     141.716  81.346 223.540 -0.29 +0.05    -0.381 OA 
DOCKED: ENDBRANCH  20  24
DOCKED: ENDBRANCH  16  18
DOCKED: ENDBRANCH   1  16
DOCKED: TORSDOF 5
DOCKED: TER
DOCKED: ENDMDL
________________________________________________________________________________


    FINAL DOCKED STATE:
    ________________________


Run:   20 / 20
Time taken for this run:   0.031s

DOCKED: MODEL        20
DOCKED: USER    Run = 20
DOCKED: USER
DOCKED: USER    Estimated Free Energy of Binding    =  -8.42 kcal/mol  [=(1)+(2)+(3)-(4)]
DOCKED: USER
DOCKED: USER    (1) Final Intermolecular Energy     =  -9.91 kcal/mol
DOCKED: USER        vdW + Hbond + desolv Energy     =  -9.83 kcal/mol
DOCKED: USER        Electrostatic Energy            =  -0.08 kcal/mol
DOCKED: USER        Moving Ligand-Fixed Receptor    =  -9.91 kcal/mol
DOCKED: USER        Moving Ligand-Moving Receptor   =  +0.00 kcal/mol
DOCKED: USER    (2) Final Total Internal Energy     =  -1.27 kcal/mol
DOCKED: USER    (3) Torsional Free Energy           =  +1.49 kcal/mol
DOCKED: USER    (4) Unbound System's Energy         =  -1.27 kcal/mol
DOCKED: USER
DOCKED: USER
DOCKED: REMARK SMILES O=C(NCC(=O)N1CCCC[C@@H]1C1CCOCC1)c1ccc2ccccc2n1
DOCKED: REMARK SMILES IDX 4 1 3 2 2 3 1 4 19 6 20 7 28 8 21 9 27 10 22 11 26 12 23 13
DOCKED: REMARK SMILES IDX 25 14 24 15 5 16 6 17 7 18 8 19 12 20 9 21 11 22 10 23 13 24
DOCKED: REMARK SMILES IDX 14 25 18 26 15 27 17 28 16 29
DOCKED: REMARK H PARENT 3 5
DOCKED: USER                              x       y       z     vdW  Elec       q    Type
DOCKED: USER                           _______ _______ _______ _____ _____    ______ ____
DOCKED: ROOT
DOCKED: ATOM      1  C   UNL     1     140.106  74.446 221.209 -0.20 -0.04    +0.216 C  
DOCKED: ENDROOT
DOCKED: BRANCH   1   2
DOCKED: ATOM      2  N   UNL     1     139.987  73.583 222.342 -0.10 +0.02    -0.342 N  
DOCKED: ATOM      3  C   UNL     1     140.417  72.227 222.382 -0.21 -0.03    +0.270 C  
DOCKED: ATOM      4  O   UNL     1     140.956  71.707 221.370 -0.14 +0.03    -0.268 OA 
DOCKED: ATOM      5  H   UNL     1     139.544  73.970 223.228 -0.50 -0.03    +0.164 HD 
DOCKED: BRANCH   3   6
DOCKED: ATOM      6  C   UNL     1     140.217  71.452 223.626 -0.33 -0.02    +0.128 A  
DOCKED: ATOM      7  C   UNL     1     139.550  70.249 223.567 -0.28 -0.01    +0.035 A  
DOCKED: ATOM      8  N   UNL     1     140.681  71.911 224.804 -0.25 +0.03    -0.243 NA 
DOCKED: ATOM      9  C   UNL     1     139.367  69.524 224.750 -0.37 -0.00    +0.013 A  
DOCKED: ATOM     10  C   UNL     1     140.537  71.261 225.973 -0.55 -0.01    +0.071 A  
DOCKED: ATOM     11  C   UNL     1     139.871  70.053 225.942 -0.49 -0.00    +0.000 A  
DOCKED: ATOM     12  C   UNL     1     141.048  71.815 227.129 -0.77 -0.01    +0.029 A  
DOCKED: ATOM     13  C   UNL     1     139.712  69.363 227.145 -0.56 -0.00    +0.010 A  
DOCKED: ATOM     14  C   UNL     1     140.888  71.129 228.316 -0.68 -0.00    +0.002 A  
DOCKED: ATOM     15  C   UNL     1     140.220  69.908 228.315 -0.60 -0.00    +0.001 A  
DOCKED: ENDBRANCH   3   6
DOCKED: ENDBRANCH   1   2
DOCKED: BRANCH   1  16
DOCKED: ATOM     16  C   UNL     1     141.384  74.998 220.828 -0.20 -0.07    +0.242 C  
DOCKED: ATOM     17  O   UNL     1     142.381  74.150 220.961 -0.21 +0.07    -0.273 OA 
DOCKED: BRANCH  16  18
DOCKED: ATOM     18  N   UNL     1     141.771  76.255 220.351 -0.12 +0.17    -0.338 N  
DOCKED: ATOM     19  C   UNL     1     142.856  76.560 219.455 -0.31 -0.08    +0.120 C  
DOCKED: ATOM     20  C   UNL     1     141.004  77.439 220.807 -0.25 -0.04    +0.088 C  
DOCKED: ATOM     21  C   UNL     1     142.644  77.756 218.577 -0.31 -0.02    +0.022 C  
DOCKED: ATOM     22  C   UNL     1     140.348  77.981 219.590 -0.12 -0.01    +0.025 C  
DOCKED: ATOM     23  C   UNL     1     141.296  78.324 218.480 -0.18 -0.00    +0.004 C  
DOCKED: BRANCH  20  24
DOCKED: ATOM     24  C   UNL     1     141.808  78.376 221.624 -0.33 -0.01    +0.016 C  
DOCKED: ATOM     25  C   UNL     1     141.419  79.814 221.404 -0.37 -0.01    +0.034 C  
DOCKED: ATOM     26  C   UNL     1     141.446  78.088 223.089 -0.45 -0.01    +0.034 C  
DOCKED: ATOM     27  C   UNL     1     140.197  80.135 222.207 -0.24 -0.04    +0.160 C  
DOCKED: ATOM     28  C   UNL     1     141.596  79.389 223.884 -0.47 -0.04    +0.160 C  
DOCKED: ATOM     29  O   UNL     1     140.587  80.290 223.539 -0.22 +0.06    -0.381 OA 
DOCKED: ENDBRANCH  20  24
DOCKED: ENDBRANCH  16  18
DOCKED: ENDBRANCH   1  16
DOCKED: TORSDOF 5
DOCKED: TER
DOCKED: ENDMDL
________________________________________________________________________________


    CLUSTERING HISTOGRAM
    ____________________


________________________________________________________________________________
     |           |     |           |     |
Clus | Lowest    | Run | Mean      | Num | Histogram
-ter | Binding   |     | Binding   | in  |
Rank | Energy    |     | Energy    | Clus|    5    10   15   20   25   30   35
_____|___________|_____|___________|_____|____:____|____:____|____:____|____:___
   1 |     -8.96 |   4 |     -8.77 |  15 |###############
   2 |     -8.48 |  18 |     -8.19 |   2 |##
   3 |     -8.22 |  16 |     -7.99 |   2 |##
   4 |     -7.06 |   9 |     -7.06 |   1 |#
_____|___________|_____|___________|_____|______________________________________


    RMSD TABLE
    __________


_______________________________________________________________________
     |      |      |           |         |                 |
Rank | Sub- | Run  | Binding   | Cluster | Reference       | Grep
     | Rank |      | Energy    | RMSD    | RMSD            | Pattern
_____|______|______|___________|_________|_________________|___________
   1      1      4       -8.96      0.00    271.81           RANKING
   1      2     13       -8.91      0.29    271.86           RANKING
   1      3     19       -8.91      0.34    271.89           RANKING
   1      4      7       -8.91      0.34    271.89           RANKING
   1      5      8       -8.90      0.33    271.88           RANKING
   1      6      3       -8.90      0.36    271.88           RANKING
   1      7      2       -8.90      0.32    271.85           RANKING
   1      8     11       -8.89      0.32    271.85           RANKING
   1      9     14       -8.88      0.41    271.91           RANKING
   1     10     10       -8.88      0.32    271.84           RANKING
   1     11      6       -8.88      0.43    271.92           RANKING
   1     12     15       -8.74      0.41    271.74           RANKING
   1     13     20       -8.42      0.82    271.67           RANKING
   1     14     17       -8.35      0.88    271.65           RANKING
   1     15      1       -8.17      0.83    271.70           RANKING
   2      1     18       -8.48      0.00    271.92           RANKING
   2      2     12       -7.90      1.21    271.84           RANKING
   3      1     16       -8.22      0.00    270.97           RANKING
   3      2      5       -7.76      1.57    270.73           RANKING
   4      1      9       -7.06      0.00    271.23           RANKING

Run time 0.580 sec
Idle time 0.000 sec
