AutoDock-GPU version: v1.6

**********************************************************
**    AutoDock-GPU AUTODOCKTOOLS-COMPATIBLE DLG FILE    **
**********************************************************


    DOCKING PARAMETERS
    ________________________


Ligand file:                               /home/a/REINVENT4/ReinventStudies/pleaseWork/justmol2mol_4_Compounds_ontop/graph-dock-amy28i/graph-DockGPU/node-autodockgpu/inputs/GIHZVPBTSQJAPB-BBVMTRQKNA-N.pdbqt
Grid fld file:                             /home/a/REINVENT4/ReinventStudies/mols/Rad51/maps/rad51_receptor.maps.fld

Random seed:                               42
Number of runs:                            20
Number of energy evaluations:              1259779
Number of generations:                     42000
Size of population:                        150
Rate of crossover:                         80.000000%
Tournament selection probability limit:    60.000000%
Rate of mutation:                          2.000000%
Maximal allowed delta movement:            +/- 6.000000A
Maximal allowed delta angle:               +/- 90.000000

Rate of local search:                      100.000000%
Maximal number of local search iterations: 300
Rho lower bound:                           0.010000
Spread of local search delta movement:     2.000000A
Spread of local search delta angle:        74.999999
Limit of consecutive successes/failures:   4

Handle symmetry during clustering:         YES
RMSD tolerance:                            2.000000A

Program call in command line was:          /home/a/REINVENT4/ReinventStudies/adgpu-v1.6_linux_x64_cuda12_128wi --filelist batch.txt --heuristics 1 --nrun 20 --psize 150 --lsit 300 --seed 42 --heurmax 12000000 


    GRID PARAMETERS
    ________________________


Receptor name:                             rad51_receptor
Number of grid points (x, y, z):           53, 53, 53
Grid center (x, y, z):                     139.950000, 75.640000, 221.970000A
Grid size (x, y, z):                       19.500000, 19.500000, 19.500000A
Grid spacing:                              0.375000A


    LIGAND PARAMETERS
    ________________________


Ligand name:                               /home/a/REINVENT4/ReinventStudies/pleaseWork/justmol2mol_4_Compounds_ontop/graph-dock-amy28i/graph-DockGPU/node-autodockgpu/inputs/GIHZVPBTSQJAPB-BBVMTRQKNA-N
Number of atoms:                           31
Number of rotatable bonds:                 7
Number of atom types:                      6


    DUMMY DATA (only for ADT-compatibility)
    ________________________


DPF> outlev 1
DPF> ga_run 20
DPF> fld /home/a/REINVENT4/ReinventStudies/mols/Rad51/maps/rad51_receptor.maps.fld
DPF> move /home/a/REINVENT4/ReinventStudies/pleaseWork/justmol2mol_4_Compounds_ontop/graph-dock-amy28i/graph-DockGPU/node-autodockgpu/inputs/GIHZVPBTSQJAPB-BBVMTRQKNA-N.pdbqt


    COUNTER STATES
    ________________________


Number of energy evaluations performed:    508842
Number of generations used:                30


    INPUT LIGAND PDBQT FILE:
    ________________________


INPUT-LIGAND-PDBQT: REMARK SMILES O=C(NCC(=O)N1C[C@H](O)C[C@H]1Cc1ccccc1)c1ccc2ccccc2n1
INPUT-LIGAND-PDBQT: REMARK SMILES IDX 5 1 6 2 4 3 3 4 2 5 1 6 20 8 21 9 29 10 22 11 28 12 23 13
INPUT-LIGAND-PDBQT: REMARK SMILES IDX 27 14 24 15 26 16 25 17 7 18 8 19 12 20 9 21 11 22 13 23
INPUT-LIGAND-PDBQT: REMARK SMILES IDX 14 24 15 25 19 26 16 27 18 28 17 29 10 30
INPUT-LIGAND-PDBQT: REMARK H PARENT 3 7 10 31
INPUT-LIGAND-PDBQT: ROOT
INPUT-LIGAND-PDBQT: ATOM      1  C   UNL     1      -0.826  -1.066  -0.473  1.00  0.00     0.242 C 
INPUT-LIGAND-PDBQT: ATOM      2  O   UNL     1      -0.429  -0.844  -1.658  1.00  0.00    -0.273 OA
INPUT-LIGAND-PDBQT: ENDROOT
INPUT-LIGAND-PDBQT: BRANCH   1   3
INPUT-LIGAND-PDBQT: ATOM      3  C   UNL     1       0.168  -0.930   0.651  1.00  0.00     0.216 C 
INPUT-LIGAND-PDBQT: BRANCH   3   4
INPUT-LIGAND-PDBQT: ATOM      4  N   UNL     1       1.454  -0.551   0.138  1.00  0.00    -0.342 N 
INPUT-LIGAND-PDBQT: ATOM      5  C   UNL     1       2.512  -0.381   1.090  1.00  0.00     0.270 C 
INPUT-LIGAND-PDBQT: ATOM      6  O   UNL     1       2.180  -0.589   2.303  1.00  0.00    -0.268 OA
INPUT-LIGAND-PDBQT: ATOM      7  H   UNL     1       1.644  -0.398  -0.887  1.00  0.00     0.164 HD
INPUT-LIGAND-PDBQT: BRANCH   5   8
INPUT-LIGAND-PDBQT: ATOM      8  C   UNL     1       3.857   0.000   0.702  1.00  0.00     0.128 A 
INPUT-LIGAND-PDBQT: ATOM      9  C   UNL     1       4.794   0.136   1.697  1.00  0.00     0.035 A 
INPUT-LIGAND-PDBQT: ATOM     10  N   UNL     1       4.227   0.225  -0.573  1.00  0.00    -0.243 NA
INPUT-LIGAND-PDBQT: ATOM     11  C   UNL     1       6.096   0.495   1.410  1.00  0.00     0.013 A 
INPUT-LIGAND-PDBQT: ATOM     12  C   UNL     1       5.470   0.574  -0.909  1.00  0.00     0.071 A 
INPUT-LIGAND-PDBQT: ATOM     13  C   UNL     1       6.420   0.713   0.092  1.00  0.00     0.000 A 
INPUT-LIGAND-PDBQT: ATOM     14  C   UNL     1       5.793   0.793  -2.234  1.00  0.00     0.029 A 
INPUT-LIGAND-PDBQT: ATOM     15  C   UNL     1       7.710   1.074  -0.238  1.00  0.00     0.010 A 
INPUT-LIGAND-PDBQT: ATOM     16  C   UNL     1       7.086   1.149  -2.516  1.00  0.00     0.002 A 
INPUT-LIGAND-PDBQT: ATOM     17  C   UNL     1       8.062   1.298  -1.558  1.00  0.00     0.001 A 
INPUT-LIGAND-PDBQT: ENDBRANCH   5   8
INPUT-LIGAND-PDBQT: ENDBRANCH   3   4
INPUT-LIGAND-PDBQT: ENDBRANCH   1   3
INPUT-LIGAND-PDBQT: BRANCH   1  18
INPUT-LIGAND-PDBQT: ATOM     18  N   UNL     1      -2.169  -1.437  -0.183  1.00  0.00    -0.335 N 
INPUT-LIGAND-PDBQT: ATOM     19  C   UNL     1      -2.705  -1.709   1.138  1.00  0.00     0.151 C 
INPUT-LIGAND-PDBQT: ATOM     20  C   UNL     1      -3.193  -1.595  -1.166  1.00  0.00     0.092 C 
INPUT-LIGAND-PDBQT: ATOM     21  C   UNL     1      -4.195  -1.838   0.961  1.00  0.00     0.136 C 
INPUT-LIGAND-PDBQT: ATOM     22  C   UNL     1      -4.346  -2.233  -0.473  1.00  0.00     0.059 C 
INPUT-LIGAND-PDBQT: BRANCH  20  23
INPUT-LIGAND-PDBQT: ATOM     23  C   UNL     1      -3.534  -0.329  -1.914  1.00  0.00     0.060 C 
INPUT-LIGAND-PDBQT: BRANCH  23  24
INPUT-LIGAND-PDBQT: ATOM     24  C   UNL     1      -4.013   0.770  -1.079  1.00  0.00    -0.046 A 
INPUT-LIGAND-PDBQT: ATOM     25  C   UNL     1      -5.333   1.017  -0.768  1.00  0.00     0.004 A 
INPUT-LIGAND-PDBQT: ATOM     26  C   UNL     1      -3.082   1.647  -0.543  1.00  0.00     0.004 A 
INPUT-LIGAND-PDBQT: ATOM     27  C   UNL     1      -5.732   2.077   0.032  1.00  0.00     0.000 A 
INPUT-LIGAND-PDBQT: ATOM     28  C   UNL     1      -3.474   2.719   0.266  1.00  0.00     0.000 A 
INPUT-LIGAND-PDBQT: ATOM     29  C   UNL     1      -4.803   2.943   0.561  1.00  0.00     0.000 A 
INPUT-LIGAND-PDBQT: ENDBRANCH  23  24
INPUT-LIGAND-PDBQT: ENDBRANCH  20  23
INPUT-LIGAND-PDBQT: BRANCH  21  30
INPUT-LIGAND-PDBQT: ATOM     30  O   UNL     1      -4.668  -2.898   1.773  1.00  0.00    -0.391 OA
INPUT-LIGAND-PDBQT: ATOM     31  H   UNL     1      -4.418  -2.761   2.710  1.00  0.00     0.211 HD
INPUT-LIGAND-PDBQT: ENDBRANCH  21  30
INPUT-LIGAND-PDBQT: ENDBRANCH   1  18
INPUT-LIGAND-PDBQT: TORSDOF 7


    FINAL DOCKED STATE:
    ________________________


Run:   1 / 20
Time taken for this run:   0.022s

DOCKED: MODEL        1
DOCKED: USER    Run = 1
DOCKED: USER
DOCKED: USER    Estimated Free Energy of Binding    =  -8.74 kcal/mol  [=(1)+(2)+(3)-(4)]
DOCKED: USER
DOCKED: USER    (1) Final Intermolecular Energy     = -10.83 kcal/mol
DOCKED: USER        vdW + Hbond + desolv Energy     = -10.53 kcal/mol
DOCKED: USER        Electrostatic Energy            =  -0.30 kcal/mol
DOCKED: USER        Moving Ligand-Fixed Receptor    = -10.83 kcal/mol
DOCKED: USER        Moving Ligand-Moving Receptor   =  +0.00 kcal/mol
DOCKED: USER    (2) Final Total Internal Energy     =  -1.54 kcal/mol
DOCKED: USER    (3) Torsional Free Energy           =  +2.09 kcal/mol
DOCKED: USER    (4) Unbound System's Energy         =  -1.54 kcal/mol
DOCKED: USER
DOCKED: USER
DOCKED: REMARK SMILES O=C(NCC(=O)N1C[C@H](O)C[C@H]1Cc1ccccc1)c1ccc2ccccc2n1
DOCKED: REMARK SMILES IDX 5 1 6 2 4 3 3 4 2 5 1 6 20 8 21 9 29 10 22 11 28 12 23 13
DOCKED: REMARK SMILES IDX 27 14 24 15 26 16 25 17 7 18 8 19 12 20 9 21 11 22 13 23
DOCKED: REMARK SMILES IDX 14 24 15 25 19 26 16 27 18 28 17 29 10 30
DOCKED: REMARK H PARENT 3 7 10 31
DOCKED: USER                              x       y       z     vdW  Elec       q    Type
DOCKED: USER                           _______ _______ _______ _____ _____    ______ ____
DOCKED: ROOT
DOCKED: ATOM      1  C   UNL     1     141.586  72.322 219.223 -0.04 -0.04    +0.242 C  
DOCKED: ATOM      2  O   UNL     1     141.304  71.656 218.179 -0.01 +0.05    -0.273 OA 
DOCKED: ENDROOT
DOCKED: BRANCH   1   3
DOCKED: ATOM      3  C   UNL     1     140.471  72.656 220.180 -0.07 -0.04    +0.216 C  
DOCKED: BRANCH   3   4
DOCKED: ATOM      4  N   UNL     1     140.472  71.743 221.287 -0.08 +0.05    -0.342 N  
DOCKED: ATOM      5  C   UNL     1     140.154  72.282 222.577 -0.21 -0.04    +0.270 C  
DOCKED: ATOM      6  O   UNL     1     139.905  73.532 222.589 -0.76 +0.02    -0.268 OA 
DOCKED: ATOM      7  H   UNL     1     140.691  70.717 221.189 +0.05 -0.02    +0.164 HD 
DOCKED: BRANCH   5   8
DOCKED: ATOM      8  C   UNL     1     140.121  71.467 223.777 -0.34 -0.02    +0.128 A  
DOCKED: ATOM      9  C   UNL     1     139.563  70.215 223.683 -0.29 -0.01    +0.035 A  
DOCKED: ATOM     10  N   UNL     1     140.606  71.873 224.965 -0.28 +0.04    -0.243 NA 
DOCKED: ATOM     11  C   UNL     1     139.494  69.378 224.779 -0.37 -0.00    +0.013 A  
DOCKED: ATOM     12  C   UNL     1     140.566  71.107 226.057 -0.56 -0.01    +0.071 A  
DOCKED: ATOM     13  C   UNL     1     140.003  69.843 225.968 -0.49 -0.00    +0.000 A  
DOCKED: ATOM     14  C   UNL     1     141.078  71.577 227.251 -0.75 -0.01    +0.029 A  
DOCKED: ATOM     15  C   UNL     1     139.954  69.038 227.087 -0.59 -0.00    +0.010 A  
DOCKED: ATOM     16  C   UNL     1     141.009  70.744 228.337 -0.60 -0.00    +0.002 A  
DOCKED: ATOM     17  C   UNL     1     140.461  69.483 228.296 -0.62 -0.00    +0.001 A  
DOCKED: ENDBRANCH   5   8
DOCKED: ENDBRANCH   3   4
DOCKED: ENDBRANCH   1   3
DOCKED: BRANCH   1  18
DOCKED: ATOM     18  N   UNL     1     142.911  72.756 219.508 -0.04 +0.05    -0.335 N  
DOCKED: ATOM     19  C   UNL     1     144.128  72.061 219.132 -0.16 +0.00    +0.151 C  
DOCKED: ATOM     20  C   UNL     1     143.233  73.955 220.214 -0.29 -0.03    +0.092 C  
DOCKED: ATOM     21  C   UNL     1     145.258  73.004 219.451 -0.33 +0.02    +0.136 C  
DOCKED: ATOM     22  C   UNL     1     144.689  73.887 220.515 -0.48 -0.02    +0.059 C  
DOCKED: BRANCH  20  23
DOCKED: ATOM     23  C   UNL     1     142.796  75.220 219.516 -0.29 -0.03    +0.060 C  
DOCKED: BRANCH  23  24
DOCKED: ATOM     24  C   UNL     1     142.117  76.192 220.371 -0.24 +0.03    -0.046 A  
DOCKED: ATOM     25  C   UNL     1     142.162  77.560 220.213 -0.31 -0.00    +0.004 A  
DOCKED: ATOM     26  C   UNL     1     141.358  75.722 221.432 -0.31 -0.00    +0.004 A  
DOCKED: ATOM     27  C   UNL     1     141.496  78.438 221.055 -0.34 -0.00    +0.000 A  
DOCKED: ATOM     28  C   UNL     1     140.681  76.598 222.287 -0.42 -0.00    +0.000 A  
DOCKED: ATOM     29  C   UNL     1     140.744  77.964 222.106 -0.40 -0.00    +0.000 A  
DOCKED: ENDBRANCH  23  24
DOCKED: ENDBRANCH  20  23
DOCKED: BRANCH  21  30
DOCKED: ATOM     30  O   UNL     1     146.334  72.267 220.003 -0.48 -0.25    -0.391 OA 
DOCKED: ATOM     31  H   UNL     1     146.082  71.867 220.861 -0.43 -0.04    +0.211 HD 
DOCKED: ENDBRANCH  21  30
DOCKED: ENDBRANCH   1  18
DOCKED: TORSDOF 7
DOCKED: TER
DOCKED: ENDMDL
________________________________________________________________________________


    FINAL DOCKED STATE:
    ________________________


Run:   2 / 20
Time taken for this run:   0.022s

DOCKED: MODEL        2
DOCKED: USER    Run = 2
DOCKED: USER
DOCKED: USER    Estimated Free Energy of Binding    =  -8.87 kcal/mol  [=(1)+(2)+(3)-(4)]
DOCKED: USER
DOCKED: USER    (1) Final Intermolecular Energy     = -10.96 kcal/mol
DOCKED: USER        vdW + Hbond + desolv Energy     = -10.87 kcal/mol
DOCKED: USER        Electrostatic Energy            =  -0.09 kcal/mol
DOCKED: USER        Moving Ligand-Fixed Receptor    = -10.96 kcal/mol
DOCKED: USER        Moving Ligand-Moving Receptor   =  +0.00 kcal/mol
DOCKED: USER    (2) Final Total Internal Energy     =  -1.17 kcal/mol
DOCKED: USER    (3) Torsional Free Energy           =  +2.09 kcal/mol
DOCKED: USER    (4) Unbound System's Energy         =  -1.17 kcal/mol
DOCKED: USER
DOCKED: USER
DOCKED: REMARK SMILES O=C(NCC(=O)N1C[C@H](O)C[C@H]1Cc1ccccc1)c1ccc2ccccc2n1
DOCKED: REMARK SMILES IDX 5 1 6 2 4 3 3 4 2 5 1 6 20 8 21 9 29 10 22 11 28 12 23 13
DOCKED: REMARK SMILES IDX 27 14 24 15 26 16 25 17 7 18 8 19 12 20 9 21 11 22 13 23
DOCKED: REMARK SMILES IDX 14 24 15 25 19 26 16 27 18 28 17 29 10 30
DOCKED: REMARK H PARENT 3 7 10 31
DOCKED: USER                              x       y       z     vdW  Elec       q    Type
DOCKED: USER                           _______ _______ _______ _____ _____    ______ ____
DOCKED: ROOT
DOCKED: ATOM      1  C   UNL     1     139.648  74.666 221.857 -0.19 -0.04    +0.242 C  
DOCKED: ATOM      2  O   UNL     1     140.891  74.428 221.953 -0.69 +0.01    -0.273 OA 
DOCKED: ENDROOT
DOCKED: BRANCH   1   3
DOCKED: ATOM      3  C   UNL     1     138.718  73.512 221.585 -0.14 -0.05    +0.216 C  
DOCKED: BRANCH   3   4
DOCKED: ATOM      4  N   UNL     1     138.661  72.637 222.721 +0.02 +0.12    -0.342 N  
DOCKED: ATOM      5  C   UNL     1     139.744  71.712 222.887 -0.21 -0.05    +0.270 C  
DOCKED: ATOM      6  O   UNL     1     140.646  71.776 221.988 -0.19 +0.03    -0.268 OA 
DOCKED: ATOM      7  H   UNL     1     137.874  72.649 223.421 -0.45 -0.10    +0.164 HD 
DOCKED: BRANCH   5   8
DOCKED: ATOM      8  C   UNL     1     139.808  70.774 223.992 -0.32 -0.02    +0.128 A  
DOCKED: ATOM      9  C   UNL     1     139.228  69.542 223.817 -0.27 -0.01    +0.035 A  
DOCKED: ATOM     10  N   UNL     1     140.401  71.052 225.169 -0.32 +0.04    -0.243 NA 
DOCKED: ATOM     11  C   UNL     1     139.246  68.593 224.820 -0.39 -0.00    +0.013 A  
DOCKED: ATOM     12  C   UNL     1     140.449  70.174 226.173 -0.49 -0.01    +0.071 A  
DOCKED: ATOM     13  C   UNL     1     139.864  68.928 226.001 -0.51 -0.00    +0.000 A  
DOCKED: ATOM     14  C   UNL     1     141.070  70.514 227.359 -0.60 -0.00    +0.029 A  
DOCKED: ATOM     15  C   UNL     1     139.905  68.010 227.030 -0.64 -0.00    +0.010 A  
DOCKED: ATOM     16  C   UNL     1     141.087  69.570 228.352 -0.57 -0.00    +0.002 A  
DOCKED: ATOM     17  C   UNL     1     140.522  68.322 228.228 -0.65 -0.00    +0.001 A  
DOCKED: ENDBRANCH   5   8
DOCKED: ENDBRANCH   3   4
DOCKED: ENDBRANCH   1   3
DOCKED: BRANCH   1  18
DOCKED: ATOM     18  N   UNL     1     139.117  75.979 221.997 -0.16 +0.07    -0.335 N  
DOCKED: ATOM     19  C   UNL     1     137.855  76.319 222.629 -0.23 -0.03    +0.151 C  
DOCKED: ATOM     20  C   UNL     1     139.761  77.164 221.528 -0.24 -0.02    +0.092 C  
DOCKED: ATOM     21  C   UNL     1     137.836  77.822 222.730 -0.19 -0.02    +0.136 C  
DOCKED: ATOM     22  C   UNL     1     138.760  78.260 221.640 -0.18 -0.01    +0.059 C  
DOCKED: BRANCH  20  23
DOCKED: ATOM     23  C   UNL     1     141.085  77.454 222.194 -0.37 -0.03    +0.060 C  
DOCKED: BRANCH  23  24
DOCKED: ATOM     24  C   UNL     1     141.340  78.866 222.467 -0.44 +0.02    -0.046 A  
DOCKED: ATOM     25  C   UNL     1     141.305  79.455 223.713 -0.58 -0.00    +0.004 A  
DOCKED: ATOM     26  C   UNL     1     141.648  79.701 221.403 -0.40 -0.00    +0.004 A  
DOCKED: ATOM     27  C   UNL     1     141.558  80.804 223.916 -0.51 -0.00    +0.000 A  
DOCKED: ATOM     28  C   UNL     1     141.905  81.062 221.596 -0.43 -0.00    +0.000 A  
DOCKED: ATOM     29  C   UNL     1     141.863  81.626 222.855 -0.50 -0.00    +0.000 A  
DOCKED: ENDBRANCH  23  24
DOCKED: ENDBRANCH  20  23
DOCKED: BRANCH  21  30
DOCKED: ATOM     30  O   UNL     1     136.532  78.289 222.432 -0.06 +0.06    -0.391 OA 
DOCKED: ATOM     31  H   UNL     1     135.993  77.584 222.018 +0.04 -0.03    +0.211 HD 
DOCKED: ENDBRANCH  21  30
DOCKED: ENDBRANCH   1  18
DOCKED: TORSDOF 7
DOCKED: TER
DOCKED: ENDMDL
________________________________________________________________________________


    FINAL DOCKED STATE:
    ________________________


Run:   3 / 20
Time taken for this run:   0.022s

DOCKED: MODEL        3
DOCKED: USER    Run = 3
DOCKED: USER
DOCKED: USER    Estimated Free Energy of Binding    =  -8.10 kcal/mol  [=(1)+(2)+(3)-(4)]
DOCKED: USER
DOCKED: USER    (1) Final Intermolecular Energy     = -10.19 kcal/mol
DOCKED: USER        vdW + Hbond + desolv Energy     = -10.18 kcal/mol
DOCKED: USER        Electrostatic Energy            =  -0.02 kcal/mol
DOCKED: USER        Moving Ligand-Fixed Receptor    = -10.19 kcal/mol
DOCKED: USER        Moving Ligand-Moving Receptor   =  +0.00 kcal/mol
DOCKED: USER    (2) Final Total Internal Energy     =  -1.81 kcal/mol
DOCKED: USER    (3) Torsional Free Energy           =  +2.09 kcal/mol
DOCKED: USER    (4) Unbound System's Energy         =  -1.81 kcal/mol
DOCKED: USER
DOCKED: USER
DOCKED: REMARK SMILES O=C(NCC(=O)N1C[C@H](O)C[C@H]1Cc1ccccc1)c1ccc2ccccc2n1
DOCKED: REMARK SMILES IDX 5 1 6 2 4 3 3 4 2 5 1 6 20 8 21 9 29 10 22 11 28 12 23 13
DOCKED: REMARK SMILES IDX 27 14 24 15 26 16 25 17 7 18 8 19 12 20 9 21 11 22 13 23
DOCKED: REMARK SMILES IDX 14 24 15 25 19 26 16 27 18 28 17 29 10 30
DOCKED: REMARK H PARENT 3 7 10 31
DOCKED: USER                              x       y       z     vdW  Elec       q    Type
DOCKED: USER                           _______ _______ _______ _____ _____    ______ ____
DOCKED: ROOT
DOCKED: ATOM      1  C   UNL     1     139.775  72.646 222.098 -0.20 -0.04    +0.242 C  
DOCKED: ATOM      2  O   UNL     1     141.024  72.855 222.011 -0.38 +0.01    -0.273 OA 
DOCKED: ENDROOT
DOCKED: BRANCH   1   3
DOCKED: ATOM      3  C   UNL     1     138.844  73.825 221.982 -0.11 -0.06    +0.216 C  
DOCKED: BRANCH   3   4
DOCKED: ATOM      4  N   UNL     1     139.552  75.048 222.234 -0.15 +0.05    -0.342 N  
DOCKED: ATOM      5  C   UNL     1     138.764  76.226 222.449 -0.19 -0.06    +0.270 C  
DOCKED: ATOM      6  O   UNL     1     137.504  76.046 222.388 -0.18 +0.06    -0.268 OA 
DOCKED: ATOM      7  H   UNL     1     140.603  75.110 222.267 +0.04 -0.01    +0.164 HD 
DOCKED: BRANCH   5   8
DOCKED: ATOM      8  C   UNL     1     139.356  77.524 222.713 -0.24 -0.02    +0.128 A  
DOCKED: ATOM      9  C   UNL     1     138.507  78.584 222.914 -0.27 -0.01    +0.035 A  
DOCKED: ATOM     10  N   UNL     1     140.685  77.736 222.770 -0.26 +0.07    -0.243 NA 
DOCKED: ATOM     11  C   UNL     1     138.992  79.851 223.172 -0.35 -0.00    +0.013 A  
DOCKED: ATOM     12  C   UNL     1     141.210  78.938 223.016 -0.48 -0.02    +0.071 A  
DOCKED: ATOM     13  C   UNL     1     140.356  80.012 223.219 -0.44 -0.00    +0.000 A  
DOCKED: ATOM     14  C   UNL     1     142.581  79.098 223.062 -0.50 -0.01    +0.029 A  
DOCKED: ATOM     15  C   UNL     1     140.882  81.262 223.473 -0.43 -0.00    +0.010 A  
DOCKED: ATOM     16  C   UNL     1     143.059  80.356 223.318 -0.66 -0.00    +0.002 A  
DOCKED: ATOM     17  C   UNL     1     142.253  81.451 223.527 -0.55 -0.00    +0.001 A  
DOCKED: ENDBRANCH   5   8
DOCKED: ENDBRANCH   3   4
DOCKED: ENDBRANCH   1   3
DOCKED: BRANCH   1  18
DOCKED: ATOM     18  N   UNL     1     139.239  71.344 222.301 -0.09 +0.07    -0.335 N  
DOCKED: ATOM     19  C   UNL     1     138.708  70.477 221.265 -0.08 -0.03    +0.151 C  
DOCKED: ATOM     20  C   UNL     1     139.147  70.698 223.571 -0.28 -0.02    +0.092 C  
DOCKED: ATOM     21  C   UNL     1     138.471  69.143 221.923 -0.12 -0.02    +0.136 C  
DOCKED: ATOM     22  C   UNL     1     138.301  69.490 223.368 -0.23 -0.01    +0.059 C  
DOCKED: BRANCH  20  23
DOCKED: ATOM     23  C   UNL     1     140.480  70.426 224.225 -0.17 -0.01    +0.060 C  
DOCKED: BRANCH  23  24
DOCKED: ATOM     24  C   UNL     1     140.539  70.732 225.653 -0.53 +0.01    -0.046 A  
DOCKED: ATOM     25  C   UNL     1     139.956  69.983 226.652 -0.53 -0.00    +0.004 A  
DOCKED: ATOM     26  C   UNL     1     141.235  71.861 226.058 -0.60 -0.00    +0.004 A  
DOCKED: ATOM     27  C   UNL     1     140.045  70.320 227.995 -0.65 -0.00    +0.000 A  
DOCKED: ATOM     28  C   UNL     1     141.332  72.209 227.410 -0.82 -0.00    +0.000 A  
DOCKED: ATOM     29  C   UNL     1     140.738  71.441 228.390 -0.69 -0.00    +0.000 A  
DOCKED: ENDBRANCH  23  24
DOCKED: ENDBRANCH  20  23
DOCKED: BRANCH  21  30
DOCKED: ATOM     30  O   UNL     1     137.254  68.599 221.444 -0.03 +0.06    -0.391 OA 
DOCKED: ATOM     31  H   UNL     1     137.000  69.006 220.590 +0.02 -0.04    +0.211 HD 
DOCKED: ENDBRANCH  21  30
DOCKED: ENDBRANCH   1  18
DOCKED: TORSDOF 7
DOCKED: TER
DOCKED: ENDMDL
________________________________________________________________________________


    FINAL DOCKED STATE:
    ________________________


Run:   4 / 20
Time taken for this run:   0.022s

DOCKED: MODEL        4
DOCKED: USER    Run = 4
DOCKED: USER
DOCKED: USER    Estimated Free Energy of Binding    =  -9.34 kcal/mol  [=(1)+(2)+(3)-(4)]
DOCKED: USER
DOCKED: USER    (1) Final Intermolecular Energy     = -11.43 kcal/mol
DOCKED: USER        vdW + Hbond + desolv Energy     = -11.29 kcal/mol
DOCKED: USER        Electrostatic Energy            =  -0.13 kcal/mol
DOCKED: USER        Moving Ligand-Fixed Receptor    = -11.43 kcal/mol
DOCKED: USER        Moving Ligand-Moving Receptor   =  +0.00 kcal/mol
DOCKED: USER    (2) Final Total Internal Energy     =  -1.50 kcal/mol
DOCKED: USER    (3) Torsional Free Energy           =  +2.09 kcal/mol
DOCKED: USER    (4) Unbound System's Energy         =  -1.50 kcal/mol
DOCKED: USER
DOCKED: USER
DOCKED: REMARK SMILES O=C(NCC(=O)N1C[C@H](O)C[C@H]1Cc1ccccc1)c1ccc2ccccc2n1
DOCKED: REMARK SMILES IDX 5 1 6 2 4 3 3 4 2 5 1 6 20 8 21 9 29 10 22 11 28 12 23 13
DOCKED: REMARK SMILES IDX 27 14 24 15 26 16 25 17 7 18 8 19 12 20 9 21 11 22 13 23
DOCKED: REMARK SMILES IDX 14 24 15 25 19 26 16 27 18 28 17 29 10 30
DOCKED: REMARK H PARENT 3 7 10 31
DOCKED: USER                              x       y       z     vdW  Elec       q    Type
DOCKED: USER                           _______ _______ _______ _____ _____    ______ ____
DOCKED: ROOT
DOCKED: ATOM      1  C   UNL     1     140.599  74.962 221.264 -0.22 -0.05    +0.242 C  
DOCKED: ATOM      2  O   UNL     1     140.259  75.625 222.292 -0.53 +0.04    -0.273 OA 
DOCKED: ENDROOT
DOCKED: BRANCH   1   3
DOCKED: ATOM      3  C   UNL     1     140.051  73.569 221.099 -0.16 -0.04    +0.216 C  
DOCKED: BRANCH   3   4
DOCKED: ATOM      4  N   UNL     1     139.861  72.951 222.381 -0.16 +0.05    -0.342 N  
DOCKED: ATOM      5  C   UNL     1     140.220  71.568 222.498 -0.20 -0.04    +0.270 C  
DOCKED: ATOM      6  O   UNL     1     140.672  71.039 221.430 -0.11 +0.04    -0.268 OA 
DOCKED: ATOM      7  H   UNL     1     139.479  73.464 223.217 -0.47 -0.05    +0.164 HD 
DOCKED: BRANCH   5   8
DOCKED: ATOM      8  C   UNL     1     140.077  70.828 223.737 -0.29 -0.02    +0.128 A  
DOCKED: ATOM      9  C   UNL     1     139.380  69.645 223.697 -0.26 -0.01    +0.035 A  
DOCKED: ATOM     10  N   UNL     1     140.588  71.240 224.913 -0.32 +0.03    -0.243 NA 
DOCKED: ATOM     11  C   UNL     1     139.200  68.881 224.833 -0.39 -0.00    +0.013 A  
DOCKED: ATOM     12  C   UNL     1     140.446  70.543 226.041 -0.51 -0.01    +0.071 A  
DOCKED: ATOM     13  C   UNL     1     139.743  69.348 226.007 -0.48 -0.00    +0.000 A  
DOCKED: ATOM     14  C   UNL     1     140.992  71.015 227.219 -0.67 -0.00    +0.029 A  
DOCKED: ATOM     15  C   UNL     1     139.586  68.616 227.165 -0.58 -0.00    +0.010 A  
DOCKED: ATOM     16  C   UNL     1     140.813  70.255 228.345 -0.56 -0.00    +0.002 A  
DOCKED: ATOM     17  C   UNL     1     140.124  69.064 228.359 -0.64 -0.00    +0.001 A  
DOCKED: ENDBRANCH   5   8
DOCKED: ENDBRANCH   3   4
DOCKED: ENDBRANCH   1   3
DOCKED: BRANCH   1  18
DOCKED: ATOM     18  N   UNL     1     141.475  75.495 220.277 -0.10 +0.12    -0.335 N  
DOCKED: ATOM     19  C   UNL     1     141.777  74.885 218.995 -0.10 -0.05    +0.151 C  
DOCKED: ATOM     20  C   UNL     1     142.191  76.724 220.411 -0.14 -0.06    +0.092 C  
DOCKED: ATOM     21  C   UNL     1     142.562  75.911 218.223 -0.17 -0.06    +0.136 C  
DOCKED: ATOM     22  C   UNL     1     143.169  76.766 219.290 -0.33 -0.04    +0.059 C  
DOCKED: BRANCH  20  23
DOCKED: ATOM     23  C   UNL     1     141.309  77.945 220.520 -0.27 -0.03    +0.060 C  
DOCKED: BRANCH  23  24
DOCKED: ATOM     24  C   UNL     1     141.563  78.787 221.686 -0.38 +0.02    -0.046 A  
DOCKED: ATOM     25  C   UNL     1     141.403  78.397 222.999 -0.54 -0.00    +0.004 A  
DOCKED: ATOM     26  C   UNL     1     142.004  80.085 221.481 -0.43 -0.00    +0.004 A  
DOCKED: ATOM     27  C   UNL     1     141.661  79.240 224.070 -0.57 -0.00    +0.000 A  
DOCKED: ATOM     28  C   UNL     1     142.267  80.943 222.555 -0.55 -0.00    +0.000 A  
DOCKED: ATOM     29  C   UNL     1     142.098  80.527 223.859 -0.63 -0.00    +0.000 A  
DOCKED: ENDBRANCH  23  24
DOCKED: ENDBRANCH  20  23
DOCKED: BRANCH  21  30
DOCKED: ATOM     30  O   UNL     1     143.606  75.262 217.518 -0.09 +0.18    -0.391 OA 
DOCKED: ATOM     31  H   UNL     1     144.483  75.543 217.851 -0.45 -0.15    +0.211 HD 
DOCKED: ENDBRANCH  21  30
DOCKED: ENDBRANCH   1  18
DOCKED: TORSDOF 7
DOCKED: TER
DOCKED: ENDMDL
________________________________________________________________________________


    FINAL DOCKED STATE:
    ________________________


Run:   5 / 20
Time taken for this run:   0.022s

DOCKED: MODEL        5
DOCKED: USER    Run = 5
DOCKED: USER
DOCKED: USER    Estimated Free Energy of Binding    =  -8.53 kcal/mol  [=(1)+(2)+(3)-(4)]
DOCKED: USER
DOCKED: USER    (1) Final Intermolecular Energy     = -10.61 kcal/mol
DOCKED: USER        vdW + Hbond + desolv Energy     = -10.59 kcal/mol
DOCKED: USER        Electrostatic Energy            =  -0.03 kcal/mol
DOCKED: USER        Moving Ligand-Fixed Receptor    = -10.61 kcal/mol
DOCKED: USER        Moving Ligand-Moving Receptor   =  +0.00 kcal/mol
DOCKED: USER    (2) Final Total Internal Energy     =  -1.27 kcal/mol
DOCKED: USER    (3) Torsional Free Energy           =  +2.09 kcal/mol
DOCKED: USER    (4) Unbound System's Energy         =  -1.27 kcal/mol
DOCKED: USER
DOCKED: USER
DOCKED: REMARK SMILES O=C(NCC(=O)N1C[C@H](O)C[C@H]1Cc1ccccc1)c1ccc2ccccc2n1
DOCKED: REMARK SMILES IDX 5 1 6 2 4 3 3 4 2 5 1 6 20 8 21 9 29 10 22 11 28 12 23 13
DOCKED: REMARK SMILES IDX 27 14 24 15 26 16 25 17 7 18 8 19 12 20 9 21 11 22 13 23
DOCKED: REMARK SMILES IDX 14 24 15 25 19 26 16 27 18 28 17 29 10 30
DOCKED: REMARK H PARENT 3 7 10 31
DOCKED: USER                              x       y       z     vdW  Elec       q    Type
DOCKED: USER                           _______ _______ _______ _____ _____    ______ ____
DOCKED: ROOT
DOCKED: ATOM      1  C   UNL     1     139.645  74.522 220.696 -0.11 -0.05    +0.242 C  
DOCKED: ATOM      2  O   UNL     1     140.481  74.814 219.787 -0.05 +0.07    -0.273 OA 
DOCKED: ENDROOT
DOCKED: BRANCH   1   3
DOCKED: ATOM      3  C   UNL     1     139.340  73.068 220.947 -0.11 -0.04    +0.216 C  
DOCKED: BRANCH   3   4
DOCKED: ATOM      4  N   UNL     1     139.484  72.761 222.342 -0.15 +0.07    -0.342 N  
DOCKED: ATOM      5  C   UNL     1     139.945  71.445 222.676 -0.20 -0.04    +0.270 C  
DOCKED: ATOM      6  O   UNL     1     140.176  70.688 221.677 -0.11 +0.04    -0.268 OA 
DOCKED: ATOM      7  H   UNL     1     139.270  73.450 223.109 -0.49 -0.07    +0.164 HD 
DOCKED: BRANCH   5   8
DOCKED: ATOM      8  C   UNL     1     140.132  71.009 224.047 -0.34 -0.02    +0.128 A  
DOCKED: ATOM      9  C   UNL     1     140.716  71.891 224.923 -0.35 -0.00    +0.035 A  
DOCKED: ATOM     10  N   UNL     1     139.766  69.794 224.497 -0.18 +0.04    -0.243 NA 
DOCKED: ATOM     11  C   UNL     1     140.928  71.552 226.245 -0.66 -0.00    +0.013 A  
DOCKED: ATOM     12  C   UNL     1     139.947  69.412 225.762 -0.42 -0.01    +0.071 A  
DOCKED: ATOM     13  C   UNL     1     140.536  70.299 226.651 -0.58 -0.00    +0.000 A  
DOCKED: ATOM     14  C   UNL     1     139.552  68.152 226.168 -0.57 -0.00    +0.029 A  
DOCKED: ATOM     15  C   UNL     1     140.731  69.920 227.963 -0.62 -0.00    +0.010 A  
DOCKED: ATOM     16  C   UNL     1     139.764  67.818 227.480 -0.51 -0.00    +0.002 A  
DOCKED: ATOM     17  C   UNL     1     140.343  68.664 228.398 -0.66 -0.00    +0.001 A  
DOCKED: ENDBRANCH   5   8
DOCKED: ENDBRANCH   3   4
DOCKED: ENDBRANCH   1   3
DOCKED: BRANCH   1  18
DOCKED: ATOM     18  N   UNL     1     138.994  75.521 221.473 -0.11 +0.07    -0.335 N  
DOCKED: ATOM     19  C   UNL     1     137.725  75.365 222.160 -0.17 -0.04    +0.151 C  
DOCKED: ATOM     20  C   UNL     1     139.506  76.836 221.690 -0.26 -0.02    +0.092 C  
DOCKED: ATOM     21  C   UNL     1     137.563  76.595 223.013 -0.17 -0.03    +0.136 C  
DOCKED: ATOM     22  C   UNL     1     138.407  77.617 222.321 -0.25 -0.01    +0.059 C  
DOCKED: BRANCH  20  23
DOCKED: ATOM     23  C   UNL     1     140.815  76.875 222.442 -0.35 -0.02    +0.060 C  
DOCKED: BRANCH  23  24
DOCKED: ATOM     24  C   UNL     1     141.384  78.208 222.620 -0.45 +0.02    -0.046 A  
DOCKED: ATOM     25  C   UNL     1     141.738  78.768 223.828 -0.61 -0.00    +0.004 A  
DOCKED: ATOM     26  C   UNL     1     141.597  78.991 221.495 -0.39 -0.00    +0.004 A  
DOCKED: ATOM     27  C   UNL     1     142.277  80.041 223.939 -0.60 -0.00    +0.000 A  
DOCKED: ATOM     28  C   UNL     1     142.141  80.276 221.595 -0.45 -0.00    +0.000 A  
DOCKED: ATOM     29  C   UNL     1     142.486  80.813 222.818 -0.59 -0.00    +0.000 A  
DOCKED: ENDBRANCH  23  24
DOCKED: ENDBRANCH  20  23
DOCKED: BRANCH  21  30
DOCKED: ATOM     30  O   UNL     1     136.212  77.019 222.964 -0.11 +0.06    -0.391 OA 
DOCKED: ATOM     31  H   UNL     1     135.940  77.218 222.044 +0.04 -0.03    +0.211 HD 
DOCKED: ENDBRANCH  21  30
DOCKED: ENDBRANCH   1  18
DOCKED: TORSDOF 7
DOCKED: TER
DOCKED: ENDMDL
________________________________________________________________________________


    FINAL DOCKED STATE:
    ________________________


Run:   6 / 20
Time taken for this run:   0.022s

DOCKED: MODEL        6
DOCKED: USER    Run = 6
DOCKED: USER
DOCKED: USER    Estimated Free Energy of Binding    =  -9.44 kcal/mol  [=(1)+(2)+(3)-(4)]
DOCKED: USER
DOCKED: USER    (1) Final Intermolecular Energy     = -11.53 kcal/mol
DOCKED: USER        vdW + Hbond + desolv Energy     = -11.40 kcal/mol
DOCKED: USER        Electrostatic Energy            =  -0.14 kcal/mol
DOCKED: USER        Moving Ligand-Fixed Receptor    = -11.53 kcal/mol
DOCKED: USER        Moving Ligand-Moving Receptor   =  +0.00 kcal/mol
DOCKED: USER    (2) Final Total Internal Energy     =  -1.32 kcal/mol
DOCKED: USER    (3) Torsional Free Energy           =  +2.09 kcal/mol
DOCKED: USER    (4) Unbound System's Energy         =  -1.32 kcal/mol
DOCKED: USER
DOCKED: USER
DOCKED: REMARK SMILES O=C(NCC(=O)N1C[C@H](O)C[C@H]1Cc1ccccc1)c1ccc2ccccc2n1
DOCKED: REMARK SMILES IDX 5 1 6 2 4 3 3 4 2 5 1 6 20 8 21 9 29 10 22 11 28 12 23 13
DOCKED: REMARK SMILES IDX 27 14 24 15 26 16 25 17 7 18 8 19 12 20 9 21 11 22 13 23
DOCKED: REMARK SMILES IDX 14 24 15 25 19 26 16 27 18 28 17 29 10 30
DOCKED: REMARK H PARENT 3 7 10 31
DOCKED: USER                              x       y       z     vdW  Elec       q    Type
DOCKED: USER                           _______ _______ _______ _____ _____    ______ ____
DOCKED: ROOT
DOCKED: ATOM      1  C   UNL     1     140.945  75.198 221.136 -0.22 -0.06    +0.242 C  
DOCKED: ATOM      2  O   UNL     1     141.012  75.667 222.313 -0.42 +0.05    -0.273 OA 
DOCKED: ENDROOT
DOCKED: BRANCH   1   3
DOCKED: ATOM      3  C   UNL     1     139.999  74.054 220.875 -0.15 -0.04    +0.216 C  
DOCKED: BRANCH   3   4
DOCKED: ATOM      4  N   UNL     1     139.677  73.382 222.102 -0.15 +0.06    -0.342 N  
DOCKED: ATOM      5  C   UNL     1     140.506  72.273 222.475 -0.20 -0.03    +0.270 C  
DOCKED: ATOM      6  O   UNL     1     141.448  72.009 221.658 -0.18 +0.02    -0.268 OA 
DOCKED: ATOM      7  H   UNL     1     138.875  73.667 222.723 -0.53 -0.07    +0.164 HD 
DOCKED: BRANCH   5   8
DOCKED: ATOM      8  C   UNL     1     140.287  71.510 223.689 -0.34 -0.02    +0.128 A  
DOCKED: ATOM      9  C   UNL     1     139.591  70.331 223.585 -0.29 -0.01    +0.035 A  
DOCKED: ATOM     10  N   UNL     1     140.729  71.898 224.900 -0.26 +0.03    -0.243 NA 
DOCKED: ATOM     11  C   UNL     1     139.342  69.547 224.694 -0.36 -0.00    +0.013 A  
DOCKED: ATOM     12  C   UNL     1     140.518  71.181 226.005 -0.55 -0.01    +0.071 A  
DOCKED: ATOM     13  C   UNL     1     139.815  69.990 225.906 -0.48 -0.00    +0.000 A  
DOCKED: ATOM     14  C   UNL     1     140.995  71.629 227.222 -0.76 -0.01    +0.029 A  
DOCKED: ATOM     15  C   UNL     1     139.588  69.236 227.039 -0.55 -0.00    +0.010 A  
DOCKED: ATOM     16  C   UNL     1     140.746  70.848 228.321 -0.63 -0.00    +0.002 A  
DOCKED: ATOM     17  C   UNL     1     140.055  69.660 228.271 -0.62 -0.00    +0.001 A  
DOCKED: ENDBRANCH   5   8
DOCKED: ENDBRANCH   3   4
DOCKED: ENDBRANCH   1   3
DOCKED: BRANCH   1  18
DOCKED: ATOM     18  N   UNL     1     141.731  75.718 220.069 -0.10 +0.14    -0.335 N  
DOCKED: ATOM     19  C   UNL     1     141.974  75.060 218.799 -0.10 -0.05    +0.151 C  
DOCKED: ATOM     20  C   UNL     1     142.400  76.979 220.100 -0.24 -0.06    +0.092 C  
DOCKED: ATOM     21  C   UNL     1     142.663  76.079 217.930 -0.18 -0.07    +0.136 C  
DOCKED: ATOM     22  C   UNL     1     143.301  77.006 218.915 -0.25 -0.04    +0.059 C  
DOCKED: BRANCH  20  23
DOCKED: ATOM     23  C   UNL     1     141.477  78.168 220.213 -0.26 -0.03    +0.060 C  
DOCKED: BRANCH  23  24
DOCKED: ATOM     24  C   UNL     1     141.637  78.959 221.431 -0.36 +0.02    -0.046 A  
DOCKED: ATOM     25  C   UNL     1     141.442  78.494 222.714 -0.51 -0.00    +0.004 A  
DOCKED: ATOM     26  C   UNL     1     142.017  80.287 221.311 -0.40 -0.00    +0.004 A  
DOCKED: ATOM     27  C   UNL     1     141.609  79.290 223.836 -0.62 -0.00    +0.000 A  
DOCKED: ATOM     28  C   UNL     1     142.189  81.099 222.437 -0.52 -0.00    +0.000 A  
DOCKED: ATOM     29  C   UNL     1     141.987  80.607 223.710 -0.62 -0.00    +0.000 A  
DOCKED: ENDBRANCH  23  24
DOCKED: ENDBRANCH  20  23
DOCKED: BRANCH  21  30
DOCKED: ATOM     30  O   UNL     1     143.684  75.439 217.186 -0.10 +0.19    -0.391 OA 
DOCKED: ATOM     31  H   UNL     1     144.569  75.657 217.545 -0.44 -0.15    +0.211 HD 
DOCKED: ENDBRANCH  21  30
DOCKED: ENDBRANCH   1  18
DOCKED: TORSDOF 7
DOCKED: TER
DOCKED: ENDMDL
________________________________________________________________________________


    FINAL DOCKED STATE:
    ________________________


Run:   7 / 20
Time taken for this run:   0.022s

DOCKED: MODEL        7
DOCKED: USER    Run = 7
DOCKED: USER
DOCKED: USER    Estimated Free Energy of Binding    =  -9.23 kcal/mol  [=(1)+(2)+(3)-(4)]
DOCKED: USER
DOCKED: USER    (1) Final Intermolecular Energy     = -11.32 kcal/mol
DOCKED: USER        vdW + Hbond + desolv Energy     = -11.15 kcal/mol
DOCKED: USER        Electrostatic Energy            =  -0.16 kcal/mol
DOCKED: USER        Moving Ligand-Fixed Receptor    = -11.32 kcal/mol
DOCKED: USER        Moving Ligand-Moving Receptor   =  +0.00 kcal/mol
DOCKED: USER    (2) Final Total Internal Energy     =  -1.36 kcal/mol
DOCKED: USER    (3) Torsional Free Energy           =  +2.09 kcal/mol
DOCKED: USER    (4) Unbound System's Energy         =  -1.36 kcal/mol
DOCKED: USER
DOCKED: USER
DOCKED: REMARK SMILES O=C(NCC(=O)N1C[C@H](O)C[C@H]1Cc1ccccc1)c1ccc2ccccc2n1
DOCKED: REMARK SMILES IDX 5 1 6 2 4 3 3 4 2 5 1 6 20 8 21 9 29 10 22 11 28 12 23 13
DOCKED: REMARK SMILES IDX 27 14 24 15 26 16 25 17 7 18 8 19 12 20 9 21 11 22 13 23
DOCKED: REMARK SMILES IDX 14 24 15 25 19 26 16 27 18 28 17 29 10 30
DOCKED: REMARK H PARENT 3 7 10 31
DOCKED: USER                              x       y       z     vdW  Elec       q    Type
DOCKED: USER                           _______ _______ _______ _____ _____    ______ ____
DOCKED: ROOT
DOCKED: ATOM      1  C   UNL     1     140.030  75.226 220.938 -0.16 -0.06    +0.242 C  
DOCKED: ATOM      2  O   UNL     1     139.485  76.063 221.721 -0.21 +0.06    -0.273 OA 
DOCKED: ENDROOT
DOCKED: BRANCH   1   3
DOCKED: ATOM      3  C   UNL     1     139.425  73.850 220.831 -0.12 -0.04    +0.216 C  
DOCKED: BRANCH   3   4
DOCKED: ATOM      4  N   UNL     1     139.327  73.244 222.128 -0.13 +0.07    -0.342 N  
DOCKED: ATOM      5  C   UNL     1     140.109  72.065 222.359 -0.21 -0.04    +0.270 C  
DOCKED: ATOM      6  O   UNL     1     140.812  71.685 221.366 -0.14 +0.03    -0.268 OA 
DOCKED: ATOM      7  H   UNL     1     138.717  73.625 222.898 -0.53 -0.09    +0.164 HD 
DOCKED: BRANCH   5   8
DOCKED: ATOM      8  C   UNL     1     140.099  71.358 223.626 -0.33 -0.02    +0.128 A  
DOCKED: ATOM      9  C   UNL     1     139.577  70.088 223.644 -0.28 -0.01    +0.035 A  
DOCKED: ATOM     10  N   UNL     1     140.572  71.882 224.773 -0.27 +0.04    -0.243 NA 
DOCKED: ATOM     11  C   UNL     1     139.532  69.349 224.810 -0.37 -0.00    +0.013 A  
DOCKED: ATOM     12  C   UNL     1     140.554  71.215 225.928 -0.55 -0.01    +0.071 A  
DOCKED: ATOM     13  C   UNL     1     140.028  69.932 225.952 -0.50 -0.00    +0.000 A  
DOCKED: ATOM     14  C   UNL     1     141.052  71.803 227.075 -0.76 -0.01    +0.029 A  
DOCKED: ATOM     15  C   UNL     1     140.002  69.228 227.138 -0.58 -0.00    +0.010 A  
DOCKED: ATOM     16  C   UNL     1     141.007  71.067 228.230 -0.69 -0.00    +0.002 A  
DOCKED: ATOM     17  C   UNL     1     140.496  69.792 228.302 -0.60 -0.00    +0.001 A  
DOCKED: ENDBRANCH   5   8
DOCKED: ENDBRANCH   3   4
DOCKED: ENDBRANCH   1   3
DOCKED: BRANCH   1  18
DOCKED: ATOM     18  N   UNL     1     141.183  75.549 220.170 -0.07 +0.11    -0.335 N  
DOCKED: ATOM     19  C   UNL     1     141.615  74.867 218.964 -0.08 -0.05    +0.151 C  
DOCKED: ATOM     20  C   UNL     1     142.091  76.606 220.483 -0.13 -0.06    +0.092 C  
DOCKED: ATOM     21  C   UNL     1     142.738  75.696 218.400 -0.19 -0.06    +0.136 C  
DOCKED: ATOM     22  C   UNL     1     143.270  76.425 219.592 -0.35 -0.04    +0.059 C  
DOCKED: BRANCH  20  23
DOCKED: ATOM     23  C   UNL     1     141.477  77.984 220.438 -0.28 -0.03    +0.060 C  
DOCKED: BRANCH  23  24
DOCKED: ATOM     24  C   UNL     1     141.699  78.797 221.631 -0.38 +0.02    -0.046 A  
DOCKED: ATOM     25  C   UNL     1     141.466  78.389 222.927 -0.53 -0.00    +0.004 A  
DOCKED: ATOM     26  C   UNL     1     142.185  80.086 221.472 -0.42 -0.00    +0.004 A  
DOCKED: ATOM     27  C   UNL     1     141.696  79.204 224.026 -0.59 -0.00    +0.000 A  
DOCKED: ATOM     28  C   UNL     1     142.421  80.916 222.573 -0.54 -0.00    +0.000 A  
DOCKED: ATOM     29  C   UNL     1     142.179  80.482 223.860 -0.64 -0.00    +0.000 A  
DOCKED: ENDBRANCH  23  24
DOCKED: ENDBRANCH  20  23
DOCKED: BRANCH  21  30
DOCKED: ATOM     30  O   UNL     1     143.750  74.834 217.911 -0.08 +0.16    -0.391 OA 
DOCKED: ATOM     31  H   UNL     1     144.618  75.287 217.889 -0.45 -0.15    +0.211 HD 
DOCKED: ENDBRANCH  21  30
DOCKED: ENDBRANCH   1  18
DOCKED: TORSDOF 7
DOCKED: TER
DOCKED: ENDMDL
________________________________________________________________________________


    FINAL DOCKED STATE:
    ________________________


Run:   8 / 20
Time taken for this run:   0.022s

DOCKED: MODEL        8
DOCKED: USER    Run = 8
DOCKED: USER
DOCKED: USER    Estimated Free Energy of Binding    =  -8.14 kcal/mol  [=(1)+(2)+(3)-(4)]
DOCKED: USER
DOCKED: USER    (1) Final Intermolecular Energy     = -10.23 kcal/mol
DOCKED: USER        vdW + Hbond + desolv Energy     = -10.17 kcal/mol
DOCKED: USER        Electrostatic Energy            =  -0.07 kcal/mol
DOCKED: USER        Moving Ligand-Fixed Receptor    = -10.23 kcal/mol
DOCKED: USER        Moving Ligand-Moving Receptor   =  +0.00 kcal/mol
DOCKED: USER    (2) Final Total Internal Energy     =  -1.56 kcal/mol
DOCKED: USER    (3) Torsional Free Energy           =  +2.09 kcal/mol
DOCKED: USER    (4) Unbound System's Energy         =  -1.56 kcal/mol
DOCKED: USER
DOCKED: USER
DOCKED: REMARK SMILES O=C(NCC(=O)N1C[C@H](O)C[C@H]1Cc1ccccc1)c1ccc2ccccc2n1
DOCKED: REMARK SMILES IDX 5 1 6 2 4 3 3 4 2 5 1 6 20 8 21 9 29 10 22 11 28 12 23 13
DOCKED: REMARK SMILES IDX 27 14 24 15 26 16 25 17 7 18 8 19 12 20 9 21 11 22 13 23
DOCKED: REMARK SMILES IDX 14 24 15 25 19 26 16 27 18 28 17 29 10 30
DOCKED: REMARK H PARENT 3 7 10 31
DOCKED: USER                              x       y       z     vdW  Elec       q    Type
DOCKED: USER                           _______ _______ _______ _____ _____    ______ ____
DOCKED: ROOT
DOCKED: ATOM      1  C   UNL     1     137.409  69.382 224.725 -0.18 -0.02    +0.242 C  
DOCKED: ATOM      2  O   UNL     1     138.023  68.536 225.445 -0.36 +0.00    -0.273 OA 
DOCKED: ENDROOT
DOCKED: BRANCH   1   3
DOCKED: ATOM      3  C   UNL     1     135.904  69.336 224.693 -0.15 -0.01    +0.216 C  
DOCKED: BRANCH   3   4
DOCKED: ATOM      4  N   UNL     1     135.357  70.626 225.005 -0.06 +0.03    -0.342 N  
DOCKED: ATOM      5  C   UNL     1     134.314  70.673 225.987 -0.19 -0.01    +0.270 C  
DOCKED: ATOM      6  O   UNL     1     133.988  69.543 226.477 -0.70 -0.00    -0.268 OA 
DOCKED: ATOM      7  H   UNL     1     135.687  71.518 224.550 +0.05 -0.02    +0.164 HD 
DOCKED: BRANCH   5   8
DOCKED: ATOM      8  C   UNL     1     133.678  71.913 226.391 -0.31 -0.01    +0.128 A  
DOCKED: ATOM      9  C   UNL     1     132.512  71.827 227.112 -0.38 -0.01    +0.035 A  
DOCKED: ATOM     10  N   UNL     1     134.170  73.131 226.096 -0.46 -0.01    -0.243 NA 
DOCKED: ATOM     11  C   UNL     1     131.846  72.961 227.534 -0.40 -0.00    +0.013 A  
DOCKED: ATOM     12  C   UNL     1     133.570  74.260 226.478 -0.26 +0.01    +0.071 A  
DOCKED: ATOM     13  C   UNL     1     132.392  74.179 227.206 -0.42 -0.00    +0.000 A  
DOCKED: ATOM     14  C   UNL     1     134.121  75.483 226.146 -0.39 -0.00    +0.029 A  
DOCKED: ATOM     15  C   UNL     1     131.758  75.336 227.608 -0.38 -0.00    +0.010 A  
DOCKED: ATOM     16  C   UNL     1     133.458  76.606 226.567 -0.36 -0.00    +0.002 A  
DOCKED: ATOM     17  C   UNL     1     132.289  76.575 227.291 -0.34 -0.00    +0.001 A  
DOCKED: ENDBRANCH   5   8
DOCKED: ENDBRANCH   3   4
DOCKED: ENDBRANCH   1   3
DOCKED: BRANCH   1  18
DOCKED: ATOM     18  N   UNL     1     138.099  70.361 223.957 -0.11 +0.06    -0.335 N  
DOCKED: ATOM     19  C   UNL     1     137.507  71.208 222.938 -0.15 -0.03    +0.151 C  
DOCKED: ATOM     20  C   UNL     1     139.492  70.653 224.083 -0.33 -0.02    +0.092 C  
DOCKED: ATOM     21  C   UNL     1     138.564  72.216 222.571 -0.12 -0.04    +0.136 C  
DOCKED: ATOM     22  C   UNL     1     139.843  71.531 222.933 -0.31 -0.01    +0.059 C  
DOCKED: BRANCH  20  23
DOCKED: ATOM     23  C   UNL     1     139.890  71.198 225.432 -0.41 -0.01    +0.060 C  
DOCKED: BRANCH  23  24
DOCKED: ATOM     24  C   UNL     1     140.221  70.186 226.433 -0.51 +0.01    -0.046 A  
DOCKED: ATOM     25  C   UNL     1     139.901  70.255 227.772 -0.61 -0.00    +0.004 A  
DOCKED: ATOM     26  C   UNL     1     140.910  69.054 226.025 -0.51 -0.00    +0.004 A  
DOCKED: ATOM     27  C   UNL     1     140.240  69.263 228.679 -0.52 -0.00    +0.000 A  
DOCKED: ATOM     28  C   UNL     1     141.256  68.047 226.932 -0.61 -0.00    +0.000 A  
DOCKED: ATOM     29  C   UNL     1     140.923  68.142 228.267 -0.66 -0.00    +0.000 A  
DOCKED: ENDBRANCH  23  24
DOCKED: ENDBRANCH  20  23
DOCKED: BRANCH  21  30
DOCKED: ATOM     30  O   UNL     1     138.543  72.421 221.170 -0.04 +0.08    -0.391 OA 
DOCKED: ATOM     31  H   UNL     1     138.615  71.571 220.689 +0.04 -0.04    +0.211 HD 
DOCKED: ENDBRANCH  21  30
DOCKED: ENDBRANCH   1  18
DOCKED: TORSDOF 7
DOCKED: TER
DOCKED: ENDMDL
________________________________________________________________________________


    FINAL DOCKED STATE:
    ________________________


Run:   9 / 20
Time taken for this run:   0.022s

DOCKED: MODEL        9
DOCKED: USER    Run = 9
DOCKED: USER
DOCKED: USER    Estimated Free Energy of Binding    =  -8.09 kcal/mol  [=(1)+(2)+(3)-(4)]
DOCKED: USER
DOCKED: USER    (1) Final Intermolecular Energy     = -10.18 kcal/mol
DOCKED: USER        vdW + Hbond + desolv Energy     =  -9.92 kcal/mol
DOCKED: USER        Electrostatic Energy            =  -0.25 kcal/mol
DOCKED: USER        Moving Ligand-Fixed Receptor    = -10.18 kcal/mol
DOCKED: USER        Moving Ligand-Moving Receptor   =  +0.00 kcal/mol
DOCKED: USER    (2) Final Total Internal Energy     =  -1.60 kcal/mol
DOCKED: USER    (3) Torsional Free Energy           =  +2.09 kcal/mol
DOCKED: USER    (4) Unbound System's Energy         =  -1.60 kcal/mol
DOCKED: USER
DOCKED: USER
DOCKED: REMARK SMILES O=C(NCC(=O)N1C[C@H](O)C[C@H]1Cc1ccccc1)c1ccc2ccccc2n1
DOCKED: REMARK SMILES IDX 5 1 6 2 4 3 3 4 2 5 1 6 20 8 21 9 29 10 22 11 28 12 23 13
DOCKED: REMARK SMILES IDX 27 14 24 15 26 16 25 17 7 18 8 19 12 20 9 21 11 22 13 23
DOCKED: REMARK SMILES IDX 14 24 15 25 19 26 16 27 18 28 17 29 10 30
DOCKED: REMARK H PARENT 3 7 10 31
DOCKED: USER                              x       y       z     vdW  Elec       q    Type
DOCKED: USER                           _______ _______ _______ _____ _____    ______ ____
DOCKED: ROOT
DOCKED: ATOM      1  C   UNL     1     141.555  72.323 219.475 -0.05 -0.04    +0.242 C  
DOCKED: ATOM      2  O   UNL     1     141.266  71.456 218.594 -0.01 +0.05    -0.273 OA 
DOCKED: ENDROOT
DOCKED: BRANCH   1   3
DOCKED: ATOM      3  C   UNL     1     140.438  72.897 220.307 -0.08 -0.04    +0.216 C  
DOCKED: BRANCH   3   4
DOCKED: ATOM      4  N   UNL     1     140.591  72.515 221.682 -0.13 +0.04    -0.342 N  
DOCKED: ATOM      5  C   UNL     1     139.811  71.403 222.141 -0.16 -0.04    +0.270 C  
DOCKED: ATOM      6  O   UNL     1     139.058  70.876 221.257 -0.06 +0.05    -0.268 OA 
DOCKED: ATOM      7  H   UNL     1     141.241  73.008 222.349 +0.05 +0.01    +0.164 HD 
DOCKED: BRANCH   5   8
DOCKED: ATOM      8  C   UNL     1     139.874  70.917 223.506 -0.29 -0.02    +0.128 A  
DOCKED: ATOM      9  C   UNL     1     139.355  69.671 223.764 -0.27 -0.01    +0.035 A  
DOCKED: ATOM     10  N   UNL     1     140.409  71.620 224.522 -0.29 +0.04    -0.243 NA 
DOCKED: ATOM     11  C   UNL     1     139.377  69.137 225.037 -0.40 -0.00    +0.013 A  
DOCKED: ATOM     12  C   UNL     1     140.458  71.154 225.771 -0.53 -0.01    +0.071 A  
DOCKED: ATOM     13  C   UNL     1     139.935  69.897 226.037 -0.50 -0.00    +0.000 A  
DOCKED: ATOM     14  C   UNL     1     141.019  71.920 226.774 -0.73 -0.00    +0.029 A  
DOCKED: ATOM     15  C   UNL     1     139.976  69.400 227.323 -0.59 -0.00    +0.010 A  
DOCKED: ATOM     16  C   UNL     1     141.039  71.387 228.036 -0.78 -0.00    +0.002 A  
DOCKED: ATOM     17  C   UNL     1     140.534  70.146 228.348 -0.57 -0.00    +0.001 A  
DOCKED: ENDBRANCH   5   8
DOCKED: ENDBRANCH   3   4
DOCKED: ENDBRANCH   1   3
DOCKED: BRANCH   1  18
DOCKED: ATOM     18  N   UNL     1     142.891  72.763 219.692 -0.05 +0.05    -0.335 N  
DOCKED: ATOM     19  C   UNL     1     144.091  72.051 219.292 -0.17 -0.00    +0.151 C  
DOCKED: ATOM     20  C   UNL     1     143.243  73.984 220.343 -0.29 -0.03    +0.092 C  
DOCKED: ATOM     21  C   UNL     1     145.235  73.001 219.533 -0.34 +0.02    +0.136 C  
DOCKED: ATOM     22  C   UNL     1     144.711  73.922 220.588 -0.47 -0.02    +0.059 C  
DOCKED: BRANCH  20  23
DOCKED: ATOM     23  C   UNL     1     142.781  75.226 219.621 -0.29 -0.03    +0.060 C  
DOCKED: BRANCH  23  24
DOCKED: ATOM     24  C   UNL     1     142.086  76.202 220.457 -0.23 +0.03    -0.046 A  
DOCKED: ATOM     25  C   UNL     1     142.129  77.570 220.289 -0.30 -0.00    +0.004 A  
DOCKED: ATOM     26  C   UNL     1     141.312  75.738 221.510 -0.31 -0.00    +0.004 A  
DOCKED: ATOM     27  C   UNL     1     141.448  78.452 221.114 -0.35 -0.00    +0.000 A  
DOCKED: ATOM     28  C   UNL     1     140.620  76.619 222.348 -0.42 -0.00    +0.000 A  
DOCKED: ATOM     29  C   UNL     1     140.681  77.984 222.156 -0.40 -0.00    +0.000 A  
DOCKED: ENDBRANCH  23  24
DOCKED: ENDBRANCH  20  23
DOCKED: BRANCH  21  30
DOCKED: ATOM     30  O   UNL     1     146.331  72.280 220.068 -0.47 -0.23    -0.391 OA 
DOCKED: ATOM     31  H   UNL     1     146.094  71.864 220.922 -0.43 -0.05    +0.211 HD 
DOCKED: ENDBRANCH  21  30
DOCKED: ENDBRANCH   1  18
DOCKED: TORSDOF 7
DOCKED: TER
DOCKED: ENDMDL
________________________________________________________________________________


    FINAL DOCKED STATE:
    ________________________


Run:   10 / 20
Time taken for this run:   0.022s

DOCKED: MODEL        10
DOCKED: USER    Run = 10
DOCKED: USER
DOCKED: USER    Estimated Free Energy of Binding    =  -9.21 kcal/mol  [=(1)+(2)+(3)-(4)]
DOCKED: USER
DOCKED: USER    (1) Final Intermolecular Energy     = -11.30 kcal/mol
DOCKED: USER        vdW + Hbond + desolv Energy     = -11.19 kcal/mol
DOCKED: USER        Electrostatic Energy            =  -0.10 kcal/mol
DOCKED: USER        Moving Ligand-Fixed Receptor    = -11.30 kcal/mol
DOCKED: USER        Moving Ligand-Moving Receptor   =  +0.00 kcal/mol
DOCKED: USER    (2) Final Total Internal Energy     =  -1.58 kcal/mol
DOCKED: USER    (3) Torsional Free Energy           =  +2.09 kcal/mol
DOCKED: USER    (4) Unbound System's Energy         =  -1.58 kcal/mol
DOCKED: USER
DOCKED: USER
DOCKED: REMARK SMILES O=C(NCC(=O)N1C[C@H](O)C[C@H]1Cc1ccccc1)c1ccc2ccccc2n1
DOCKED: REMARK SMILES IDX 5 1 6 2 4 3 3 4 2 5 1 6 20 8 21 9 29 10 22 11 28 12 23 13
DOCKED: REMARK SMILES IDX 27 14 24 15 26 16 25 17 7 18 8 19 12 20 9 21 11 22 13 23
DOCKED: REMARK SMILES IDX 14 24 15 25 19 26 16 27 18 28 17 29 10 30
DOCKED: REMARK H PARENT 3 7 10 31
DOCKED: USER                              x       y       z     vdW  Elec       q    Type
DOCKED: USER                           _______ _______ _______ _____ _____    ______ ____
DOCKED: ROOT
DOCKED: ATOM      1  C   UNL     1     140.616  74.923 221.310 -0.22 -0.05    +0.242 C  
DOCKED: ATOM      2  O   UNL     1     140.242  75.598 222.317 -0.54 +0.03    -0.273 OA 
DOCKED: ENDROOT
DOCKED: BRANCH   1   3
DOCKED: ATOM      3  C   UNL     1     140.108  73.512 221.166 -0.17 -0.04    +0.216 C  
DOCKED: BRANCH   3   4
DOCKED: ATOM      4  N   UNL     1     139.981  72.893 222.455 -0.16 +0.04    -0.342 N  
DOCKED: ATOM      5  C   UNL     1     140.099  71.465 222.508 -0.19 -0.04    +0.270 C  
DOCKED: ATOM      6  O   UNL     1     140.305  70.902 221.383 -0.10 +0.04    -0.268 OA 
DOCKED: ATOM      7  H   UNL     1     139.810  73.436 223.342 -0.39 -0.01    +0.164 HD 
DOCKED: BRANCH   5   8
DOCKED: ATOM      8  C   UNL     1     139.990  70.718 223.747 -0.28 -0.02    +0.128 A  
DOCKED: ATOM      9  C   UNL     1     139.332  69.514 223.711 -0.25 -0.01    +0.035 A  
DOCKED: ATOM     10  N   UNL     1     140.498  71.146 224.919 -0.32 +0.04    -0.243 NA 
DOCKED: ATOM     11  C   UNL     1     139.186  68.743 224.847 -0.39 -0.00    +0.013 A  
DOCKED: ATOM     12  C   UNL     1     140.387  70.443 226.048 -0.50 -0.01    +0.071 A  
DOCKED: ATOM     13  C   UNL     1     139.723  69.226 226.016 -0.49 -0.00    +0.000 A  
DOCKED: ATOM     14  C   UNL     1     140.927  70.931 227.222 -0.66 -0.00    +0.029 A  
DOCKED: ATOM     15  C   UNL     1     139.600  68.487 227.175 -0.59 -0.00    +0.010 A  
DOCKED: ATOM     16  C   UNL     1     140.782  70.164 228.348 -0.56 -0.00    +0.002 A  
DOCKED: ATOM     17  C   UNL     1     140.132  68.951 228.365 -0.64 -0.00    +0.001 A  
DOCKED: ENDBRANCH   5   8
DOCKED: ENDBRANCH   3   4
DOCKED: ENDBRANCH   1   3
DOCKED: BRANCH   1  18
DOCKED: ATOM     18  N   UNL     1     141.494  75.458 220.325 -0.10 +0.12    -0.335 N  
DOCKED: ATOM     19  C   UNL     1     141.798  74.849 219.043 -0.10 -0.05    +0.151 C  
DOCKED: ATOM     20  C   UNL     1     142.208  76.687 220.463 -0.11 -0.06    +0.092 C  
DOCKED: ATOM     21  C   UNL     1     142.585  75.877 218.274 -0.18 -0.06    +0.136 C  
DOCKED: ATOM     22  C   UNL     1     143.188  76.731 219.343 -0.34 -0.04    +0.059 C  
DOCKED: BRANCH  20  23
DOCKED: ATOM     23  C   UNL     1     141.325  77.907 220.571 -0.27 -0.03    +0.060 C  
DOCKED: BRANCH  23  24
DOCKED: ATOM     24  C   UNL     1     141.597  78.764 221.722 -0.38 +0.02    -0.046 A  
DOCKED: ATOM     25  C   UNL     1     141.487  78.383 223.042 -0.54 -0.00    +0.004 A  
DOCKED: ATOM     26  C   UNL     1     142.003  80.070 221.492 -0.43 -0.00    +0.004 A  
DOCKED: ATOM     27  C   UNL     1     141.760  79.240 224.098 -0.58 -0.00    +0.000 A  
DOCKED: ATOM     28  C   UNL     1     142.281  80.942 222.550 -0.55 -0.00    +0.000 A  
DOCKED: ATOM     29  C   UNL     1     142.162  80.534 223.863 -0.63 -0.00    +0.000 A  
DOCKED: ENDBRANCH  23  24
DOCKED: ENDBRANCH  20  23
DOCKED: BRANCH  21  30
DOCKED: ATOM     30  O   UNL     1     143.630  75.230 217.570 -0.09 +0.18    -0.391 OA 
DOCKED: ATOM     31  H   UNL     1     144.506  75.535 217.884 -0.45 -0.15    +0.211 HD 
DOCKED: ENDBRANCH  21  30
DOCKED: ENDBRANCH   1  18
DOCKED: TORSDOF 7
DOCKED: TER
DOCKED: ENDMDL
________________________________________________________________________________


    FINAL DOCKED STATE:
    ________________________


Run:   11 / 20
Time taken for this run:   0.022s

DOCKED: MODEL        11
DOCKED: USER    Run = 11
DOCKED: USER
DOCKED: USER    Estimated Free Energy of Binding    =  -9.32 kcal/mol  [=(1)+(2)+(3)-(4)]
DOCKED: USER
DOCKED: USER    (1) Final Intermolecular Energy     = -11.41 kcal/mol
DOCKED: USER        vdW + Hbond + desolv Energy     = -11.29 kcal/mol
DOCKED: USER        Electrostatic Energy            =  -0.13 kcal/mol
DOCKED: USER        Moving Ligand-Fixed Receptor    = -11.41 kcal/mol
DOCKED: USER        Moving Ligand-Moving Receptor   =  +0.00 kcal/mol
DOCKED: USER    (2) Final Total Internal Energy     =  -1.50 kcal/mol
DOCKED: USER    (3) Torsional Free Energy           =  +2.09 kcal/mol
DOCKED: USER    (4) Unbound System's Energy         =  -1.50 kcal/mol
DOCKED: USER
DOCKED: USER
DOCKED: REMARK SMILES O=C(NCC(=O)N1C[C@H](O)C[C@H]1Cc1ccccc1)c1ccc2ccccc2n1
DOCKED: REMARK SMILES IDX 5 1 6 2 4 3 3 4 2 5 1 6 20 8 21 9 29 10 22 11 28 12 23 13
DOCKED: REMARK SMILES IDX 27 14 24 15 26 16 25 17 7 18 8 19 12 20 9 21 11 22 13 23
DOCKED: REMARK SMILES IDX 14 24 15 25 19 26 16 27 18 28 17 29 10 30
DOCKED: REMARK H PARENT 3 7 10 31
DOCKED: USER                              x       y       z     vdW  Elec       q    Type
DOCKED: USER                           _______ _______ _______ _____ _____    ______ ____
DOCKED: ROOT
DOCKED: ATOM      1  C   UNL     1     140.500  75.074 221.180 -0.21 -0.05    +0.242 C  
DOCKED: ATOM      2  O   UNL     1     140.072  75.788 222.138 -0.44 +0.05    -0.273 OA 
DOCKED: ENDROOT
DOCKED: BRANCH   1   3
DOCKED: ATOM      3  C   UNL     1     139.992  73.661 221.059 -0.16 -0.04    +0.216 C  
DOCKED: BRANCH   3   4
DOCKED: ATOM      4  N   UNL     1     139.864  73.063 222.358 -0.16 +0.05    -0.342 N  
DOCKED: ATOM      5  C   UNL     1     140.209  71.677 222.475 -0.20 -0.04    +0.270 C  
DOCKED: ATOM      6  O   UNL     1     140.596  71.128 221.392 -0.12 +0.04    -0.268 OA 
DOCKED: ATOM      7  H   UNL     1     139.535  73.593 223.207 -0.48 -0.04    +0.164 HD 
DOCKED: BRANCH   5   8
DOCKED: ATOM      8  C   UNL     1     140.124  70.955 223.730 -0.30 -0.02    +0.128 A  
DOCKED: ATOM      9  C   UNL     1     139.517  69.723 223.718 -0.26 -0.01    +0.035 A  
DOCKED: ATOM     10  N   UNL     1     140.604  71.430 224.895 -0.32 +0.03    -0.243 NA 
DOCKED: ATOM     11  C   UNL     1     139.397  68.973 224.871 -0.38 -0.00    +0.013 A  
DOCKED: ATOM     12  C   UNL     1     140.516  70.750 226.039 -0.53 -0.01    +0.071 A  
DOCKED: ATOM     13  C   UNL     1     139.905  69.505 226.032 -0.49 -0.00    +0.000 A  
DOCKED: ATOM     14  C   UNL     1     141.027  71.287 227.205 -0.71 -0.00    +0.029 A  
DOCKED: ATOM     15  C   UNL     1     139.804  68.788 227.207 -0.60 -0.00    +0.010 A  
DOCKED: ATOM     16  C   UNL     1     140.906  70.540 228.348 -0.57 -0.00    +0.002 A  
DOCKED: ATOM     17  C   UNL     1     140.309  69.302 228.389 -0.62 -0.00    +0.001 A  
DOCKED: ENDBRANCH   5   8
DOCKED: ENDBRANCH   3   4
DOCKED: ENDBRANCH   1   3
DOCKED: BRANCH   1  18
DOCKED: ATOM     18  N   UNL     1     141.438  75.568 220.229 -0.09 +0.12    -0.335 N  
DOCKED: ATOM     19  C   UNL     1     141.758  74.949 218.957 -0.09 -0.05    +0.151 C  
DOCKED: ATOM     20  C   UNL     1     142.205  76.761 220.397 -0.14 -0.06    +0.092 C  
DOCKED: ATOM     21  C   UNL     1     142.620  75.940 218.220 -0.18 -0.06    +0.136 C  
DOCKED: ATOM     22  C   UNL     1     143.226  76.760 219.314 -0.33 -0.04    +0.059 C  
DOCKED: BRANCH  20  23
DOCKED: ATOM     23  C   UNL     1     141.379  78.022 220.479 -0.27 -0.03    +0.060 C  
DOCKED: BRANCH  23  24
DOCKED: ATOM     24  C   UNL     1     141.638  78.853 221.653 -0.38 +0.02    -0.046 A  
DOCKED: ATOM     25  C   UNL     1     141.530  78.436 222.963 -0.52 -0.00    +0.004 A  
DOCKED: ATOM     26  C   UNL     1     142.027  80.170 221.458 -0.43 -0.00    +0.004 A  
DOCKED: ATOM     27  C   UNL     1     141.789  79.269 224.041 -0.59 -0.00    +0.000 A  
DOCKED: ATOM     28  C   UNL     1     142.291  81.018 222.539 -0.52 -0.00    +0.000 A  
DOCKED: ATOM     29  C   UNL     1     142.175  80.574 223.840 -0.64 -0.00    +0.000 A  
DOCKED: ENDBRANCH  23  24
DOCKED: ENDBRANCH  20  23
DOCKED: BRANCH  21  30
DOCKED: ATOM     30  O   UNL     1     143.657  75.244 217.551 -0.10 +0.18    -0.391 OA 
DOCKED: ATOM     31  H   UNL     1     144.536  75.591 217.810 -0.45 -0.15    +0.211 HD 
DOCKED: ENDBRANCH  21  30
DOCKED: ENDBRANCH   1  18
DOCKED: TORSDOF 7
DOCKED: TER
DOCKED: ENDMDL
________________________________________________________________________________


    FINAL DOCKED STATE:
    ________________________


Run:   12 / 20
Time taken for this run:   0.022s

DOCKED: MODEL        12
DOCKED: USER    Run = 12
DOCKED: USER
DOCKED: USER    Estimated Free Energy of Binding    =  -7.96 kcal/mol  [=(1)+(2)+(3)-(4)]
DOCKED: USER
DOCKED: USER    (1) Final Intermolecular Energy     = -10.05 kcal/mol
DOCKED: USER        vdW + Hbond + desolv Energy     =  -9.90 kcal/mol
DOCKED: USER        Electrostatic Energy            =  -0.15 kcal/mol
DOCKED: USER        Moving Ligand-Fixed Receptor    = -10.05 kcal/mol
DOCKED: USER        Moving Ligand-Moving Receptor   =  +0.00 kcal/mol
DOCKED: USER    (2) Final Total Internal Energy     =  -2.37 kcal/mol
DOCKED: USER    (3) Torsional Free Energy           =  +2.09 kcal/mol
DOCKED: USER    (4) Unbound System's Energy         =  -2.37 kcal/mol
DOCKED: USER
DOCKED: USER
DOCKED: REMARK SMILES O=C(NCC(=O)N1C[C@H](O)C[C@H]1Cc1ccccc1)c1ccc2ccccc2n1
DOCKED: REMARK SMILES IDX 5 1 6 2 4 3 3 4 2 5 1 6 20 8 21 9 29 10 22 11 28 12 23 13
DOCKED: REMARK SMILES IDX 27 14 24 15 26 16 25 17 7 18 8 19 12 20 9 21 11 22 13 23
DOCKED: REMARK SMILES IDX 14 24 15 25 19 26 16 27 18 28 17 29 10 30
DOCKED: REMARK H PARENT 3 7 10 31
DOCKED: USER                              x       y       z     vdW  Elec       q    Type
DOCKED: USER                           _______ _______ _______ _____ _____    ______ ____
DOCKED: ROOT
DOCKED: ATOM      1  C   UNL     1     141.799  73.044 220.255 -0.12 -0.04    +0.242 C  
DOCKED: ATOM      2  O   UNL     1     141.302  72.383 219.292 -0.03 +0.05    -0.273 OA 
DOCKED: ENDROOT
DOCKED: BRANCH   1   3
DOCKED: ATOM      3  C   UNL     1     140.875  73.518 221.347 -0.20 -0.03    +0.216 C  
DOCKED: BRANCH   3   4
DOCKED: ATOM      4  N   UNL     1     141.182  74.873 221.709 -0.14 +0.06    -0.342 N  
DOCKED: ATOM      5  C   UNL     1     140.077  75.732 222.017 -0.21 -0.05    +0.270 C  
DOCKED: ATOM      6  O   UNL     1     138.931  75.182 221.931 -0.27 +0.06    -0.268 OA 
DOCKED: ATOM      7  H   UNL     1     142.165  75.248 221.756 -0.38 -0.07    +0.164 HD 
DOCKED: BRANCH   5   8
DOCKED: ATOM      8  C   UNL     1     140.252  77.122 222.396 -0.33 -0.03    +0.128 A  
DOCKED: ATOM      9  C   UNL     1     139.122  77.881 222.575 -0.29 -0.01    +0.035 A  
DOCKED: ATOM     10  N   UNL     1     141.456  77.697 222.578 -0.21 +0.12    -0.243 NA 
DOCKED: ATOM     11  C   UNL     1     139.203  79.211 222.936 -0.33 -0.00    +0.013 A  
DOCKED: ATOM     12  C   UNL     1     141.594  78.977 222.928 -0.50 -0.03    +0.071 A  
DOCKED: ATOM     13  C   UNL     1     140.456  79.748 223.109 -0.44 -0.00    +0.000 A  
DOCKED: ATOM     14  C   UNL     1     142.855  79.514 223.100 -0.55 -0.01    +0.029 A  
DOCKED: ATOM     15  C   UNL     1     140.582  81.074 223.470 -0.42 -0.00    +0.010 A  
DOCKED: ATOM     16  C   UNL     1     142.933  80.834 223.459 -0.62 -0.00    +0.002 A  
DOCKED: ATOM     17  C   UNL     1     141.833  81.638 223.652 -0.53 -0.00    +0.001 A  
DOCKED: ENDBRANCH   5   8
DOCKED: ENDBRANCH   3   4
DOCKED: ENDBRANCH   1   3
DOCKED: BRANCH   1  18
DOCKED: ATOM     18  N   UNL     1     143.187  73.345 220.329 -0.12 +0.07    -0.335 N  
DOCKED: ATOM     19  C   UNL     1     144.241  72.406 220.667 -0.28 -0.02    +0.151 C  
DOCKED: ATOM     20  C   UNL     1     143.748  74.635 220.075 -0.36 -0.04    +0.092 C  
DOCKED: ATOM     21  C   UNL     1     145.537  73.124 220.399 -0.49 -0.00    +0.136 C  
DOCKED: ATOM     22  C   UNL     1     145.169  74.569 220.514 -0.31 -0.02    +0.059 C  
DOCKED: BRANCH  20  23
DOCKED: ATOM     23  C   UNL     1     143.550  75.129 218.662 -0.23 -0.03    +0.060 C  
DOCKED: BRANCH  23  24
DOCKED: ATOM     24  C   UNL     1     143.032  76.490 218.553 -0.30 +0.03    -0.046 A  
DOCKED: ATOM     25  C   UNL     1     143.041  77.256 217.407 -0.27 -0.00    +0.004 A  
DOCKED: ATOM     26  C   UNL     1     142.478  77.079 219.680 -0.34 -0.00    +0.004 A  
DOCKED: ATOM     27  C   UNL     1     142.533  78.545 217.359 -0.28 -0.00    +0.000 A  
DOCKED: ATOM     28  C   UNL     1     141.963  78.379 219.642 -0.27 -0.00    +0.000 A  
DOCKED: ATOM     29  C   UNL     1     141.985  79.124 218.481 -0.28 -0.00    +0.000 A  
DOCKED: ENDBRANCH  23  24
DOCKED: ENDBRANCH  20  23
DOCKED: BRANCH  21  30
DOCKED: ATOM     30  O   UNL     1     146.461  72.811 221.426 -0.35 +0.03    -0.391 OA 
DOCKED: ATOM     31  H   UNL     1     146.223  71.970 221.868 -0.41 -0.17    +0.211 HD 
DOCKED: ENDBRANCH  21  30
DOCKED: ENDBRANCH   1  18
DOCKED: TORSDOF 7
DOCKED: TER
DOCKED: ENDMDL
________________________________________________________________________________


    FINAL DOCKED STATE:
    ________________________


Run:   13 / 20
Time taken for this run:   0.022s

DOCKED: MODEL        13
DOCKED: USER    Run = 13
DOCKED: USER
DOCKED: USER    Estimated Free Energy of Binding    =  -7.97 kcal/mol  [=(1)+(2)+(3)-(4)]
DOCKED: USER
DOCKED: USER    (1) Final Intermolecular Energy     = -10.06 kcal/mol
DOCKED: USER        vdW + Hbond + desolv Energy     =  -9.90 kcal/mol
DOCKED: USER        Electrostatic Energy            =  -0.16 kcal/mol
DOCKED: USER        Moving Ligand-Fixed Receptor    = -10.06 kcal/mol
DOCKED: USER        Moving Ligand-Moving Receptor   =  +0.00 kcal/mol
DOCKED: USER    (2) Final Total Internal Energy     =  -2.37 kcal/mol
DOCKED: USER    (3) Torsional Free Energy           =  +2.09 kcal/mol
DOCKED: USER    (4) Unbound System's Energy         =  -2.37 kcal/mol
DOCKED: USER
DOCKED: USER
DOCKED: REMARK SMILES O=C(NCC(=O)N1C[C@H](O)C[C@H]1Cc1ccccc1)c1ccc2ccccc2n1
DOCKED: REMARK SMILES IDX 5 1 6 2 4 3 3 4 2 5 1 6 20 8 21 9 29 10 22 11 28 12 23 13
DOCKED: REMARK SMILES IDX 27 14 24 15 26 16 25 17 7 18 8 19 12 20 9 21 11 22 13 23
DOCKED: REMARK SMILES IDX 14 24 15 25 19 26 16 27 18 28 17 29 10 30
DOCKED: REMARK H PARENT 3 7 10 31
DOCKED: USER                              x       y       z     vdW  Elec       q    Type
DOCKED: USER                           _______ _______ _______ _____ _____    ______ ____
DOCKED: ROOT
DOCKED: ATOM      1  C   UNL     1     141.791  73.098 220.178 -0.11 -0.04    +0.242 C  
DOCKED: ATOM      2  O   UNL     1     141.299  72.486 219.181 -0.03 +0.05    -0.273 OA 
DOCKED: ENDROOT
DOCKED: BRANCH   1   3
DOCKED: ATOM      3  C   UNL     1     140.857  73.552 221.270 -0.20 -0.03    +0.216 C  
DOCKED: BRANCH   3   4
DOCKED: ATOM      4  N   UNL     1     141.172  74.894 221.671 -0.16 +0.06    -0.342 N  
DOCKED: ATOM      5  C   UNL     1     140.070  75.760 221.971 -0.23 -0.05    +0.270 C  
DOCKED: ATOM      6  O   UNL     1     138.919  75.228 221.843 -0.24 +0.06    -0.268 OA 
DOCKED: ATOM      7  H   UNL     1     142.158  75.256 221.751 -0.38 -0.07    +0.164 HD 
DOCKED: BRANCH   5   8
DOCKED: ATOM      8  C   UNL     1     140.252  77.138 222.387 -0.33 -0.03    +0.128 A  
DOCKED: ATOM      9  C   UNL     1     139.125  77.889 222.617 -0.29 -0.01    +0.035 A  
DOCKED: ATOM     10  N   UNL     1     141.459  77.710 222.555 -0.21 +0.12    -0.243 NA 
DOCKED: ATOM     11  C   UNL     1     139.213  79.208 223.017 -0.34 -0.00    +0.013 A  
DOCKED: ATOM     12  C   UNL     1     141.605  78.980 222.939 -0.50 -0.03    +0.071 A  
DOCKED: ATOM     13  C   UNL     1     140.470  79.743 223.173 -0.45 -0.00    +0.000 A  
DOCKED: ATOM     14  C   UNL     1     142.869  79.515 223.095 -0.55 -0.01    +0.029 A  
DOCKED: ATOM     15  C   UNL     1     140.603  81.057 223.570 -0.40 -0.00    +0.010 A  
DOCKED: ATOM     16  C   UNL     1     142.953  80.824 223.492 -0.63 -0.00    +0.002 A  
DOCKED: ATOM     17  C   UNL     1     141.857  81.619 223.736 -0.53 -0.00    +0.001 A  
DOCKED: ENDBRANCH   5   8
DOCKED: ENDBRANCH   3   4
DOCKED: ENDBRANCH   1   3
DOCKED: BRANCH   1  18
DOCKED: ATOM     18  N   UNL     1     143.185  73.363 220.289 -0.12 +0.07    -0.335 N  
DOCKED: ATOM     19  C   UNL     1     144.204  72.394 220.647 -0.28 -0.02    +0.151 C  
DOCKED: ATOM     20  C   UNL     1     143.784  74.639 220.060 -0.37 -0.04    +0.092 C  
DOCKED: ATOM     21  C   UNL     1     145.525  73.081 220.418 -0.49 -0.00    +0.136 C  
DOCKED: ATOM     22  C   UNL     1     145.191  74.534 220.534 -0.34 -0.02    +0.059 C  
DOCKED: BRANCH  20  23
DOCKED: ATOM     23  C   UNL     1     143.636  75.148 218.646 -0.22 -0.03    +0.060 C  
DOCKED: BRANCH  23  24
DOCKED: ATOM     24  C   UNL     1     143.084  76.496 218.531 -0.31 +0.03    -0.046 A  
DOCKED: ATOM     25  C   UNL     1     143.072  77.256 217.382 -0.27 -0.00    +0.004 A  
DOCKED: ATOM     26  C   UNL     1     142.519  77.077 219.657 -0.35 -0.00    +0.004 A  
DOCKED: ATOM     27  C   UNL     1     142.532  78.532 217.329 -0.28 -0.00    +0.000 A  
DOCKED: ATOM     28  C   UNL     1     141.971  78.363 219.614 -0.27 -0.00    +0.000 A  
DOCKED: ATOM     29  C   UNL     1     141.973  79.102 218.449 -0.28 -0.00    +0.000 A  
DOCKED: ENDBRANCH  23  24
DOCKED: ENDBRANCH  20  23
DOCKED: BRANCH  21  30
DOCKED: ATOM     30  O   UNL     1     146.414  72.737 221.466 -0.33 +0.05    -0.391 OA 
DOCKED: ATOM     31  H   UNL     1     146.111  71.931 221.933 -0.41 -0.19    +0.211 HD 
DOCKED: ENDBRANCH  21  30
DOCKED: ENDBRANCH   1  18
DOCKED: TORSDOF 7
DOCKED: TER
DOCKED: ENDMDL
________________________________________________________________________________


    FINAL DOCKED STATE:
    ________________________


Run:   14 / 20
Time taken for this run:   0.022s

DOCKED: MODEL        14
DOCKED: USER    Run = 14
DOCKED: USER
DOCKED: USER    Estimated Free Energy of Binding    =  -8.61 kcal/mol  [=(1)+(2)+(3)-(4)]
DOCKED: USER
DOCKED: USER    (1) Final Intermolecular Energy     = -10.69 kcal/mol
DOCKED: USER        vdW + Hbond + desolv Energy     = -10.60 kcal/mol
DOCKED: USER        Electrostatic Energy            =  -0.09 kcal/mol
DOCKED: USER        Moving Ligand-Fixed Receptor    = -10.69 kcal/mol
DOCKED: USER        Moving Ligand-Moving Receptor   =  +0.00 kcal/mol
DOCKED: USER    (2) Final Total Internal Energy     =  -1.42 kcal/mol
DOCKED: USER    (3) Torsional Free Energy           =  +2.09 kcal/mol
DOCKED: USER    (4) Unbound System's Energy         =  -1.42 kcal/mol
DOCKED: USER
DOCKED: USER
DOCKED: REMARK SMILES O=C(NCC(=O)N1C[C@H](O)C[C@H]1Cc1ccccc1)c1ccc2ccccc2n1
DOCKED: REMARK SMILES IDX 5 1 6 2 4 3 3 4 2 5 1 6 20 8 21 9 29 10 22 11 28 12 23 13
DOCKED: REMARK SMILES IDX 27 14 24 15 26 16 25 17 7 18 8 19 12 20 9 21 11 22 13 23
DOCKED: REMARK SMILES IDX 14 24 15 25 19 26 16 27 18 28 17 29 10 30
DOCKED: REMARK H PARENT 3 7 10 31
DOCKED: USER                              x       y       z     vdW  Elec       q    Type
DOCKED: USER                           _______ _______ _______ _____ _____    ______ ____
DOCKED: ROOT
DOCKED: ATOM      1  C   UNL     1     140.191  75.330 221.410 -0.22 -0.05    +0.242 C  
DOCKED: ATOM      2  O   UNL     1     141.313  75.162 221.979 -0.47 +0.05    -0.273 OA 
DOCKED: ENDROOT
DOCKED: BRANCH   1   3
DOCKED: ATOM      3  C   UNL     1     139.333  74.119 221.152 -0.15 -0.04    +0.216 C  
DOCKED: BRANCH   3   4
DOCKED: ATOM      4  N   UNL     1     139.182  73.348 222.353 -0.08 +0.09    -0.342 N  
DOCKED: ATOM      5  C   UNL     1     140.172  72.345 222.614 -0.21 -0.03    +0.270 C  
DOCKED: ATOM      6  O   UNL     1     141.087  72.253 221.731 -0.21 +0.02    -0.268 OA 
DOCKED: ATOM      7  H   UNL     1     138.390  73.489 223.034 -0.52 -0.11    +0.164 HD 
DOCKED: BRANCH   5   8
DOCKED: ATOM      8  C   UNL     1     140.134  71.499 223.792 -0.35 -0.02    +0.128 A  
DOCKED: ATOM      9  C   UNL     1     139.584  70.247 223.661 -0.29 -0.01    +0.035 A  
DOCKED: ATOM     10  N   UNL     1     140.607  71.877 224.994 -0.28 +0.04    -0.243 NA 
DOCKED: ATOM     11  C   UNL     1     139.512  69.381 224.734 -0.36 -0.00    +0.013 A  
DOCKED: ATOM     12  C   UNL     1     140.564  71.083 226.065 -0.56 -0.01    +0.071 A  
DOCKED: ATOM     13  C   UNL     1     140.009  69.818 225.939 -0.49 -0.00    +0.000 A  
DOCKED: ATOM     14  C   UNL     1     141.063  71.525 227.275 -0.75 -0.01    +0.029 A  
DOCKED: ATOM     15  C   UNL     1     139.956  68.985 227.037 -0.59 -0.00    +0.010 A  
DOCKED: ATOM     16  C   UNL     1     140.990  70.664 228.338 -0.59 -0.00    +0.002 A  
DOCKED: ATOM     17  C   UNL     1     140.450  69.401 228.261 -0.63 -0.00    +0.001 A  
DOCKED: ENDBRANCH   5   8
DOCKED: ENDBRANCH   3   4
DOCKED: ENDBRANCH   1   3
DOCKED: BRANCH   1  18
DOCKED: ATOM     18  N   UNL     1     139.729  76.616 221.013 -0.07 +0.09    -0.335 N  
DOCKED: ATOM     19  C   UNL     1     138.547  77.285 221.524 -0.15 -0.03    +0.151 C  
DOCKED: ATOM     20  C   UNL     1     140.376  77.442 220.044 -0.13 -0.03    +0.092 C  
DOCKED: ATOM     21  C   UNL     1     138.598  78.688 220.979 -0.09 -0.03    +0.136 C  
DOCKED: ATOM     22  C   UNL     1     139.434  78.556 219.746 -0.07 -0.02    +0.059 C  
DOCKED: BRANCH  20  23
DOCKED: ATOM     23  C   UNL     1     141.766  77.883 220.434 -0.29 -0.04    +0.060 C  
DOCKED: BRANCH  23  24
DOCKED: ATOM     24  C   UNL     1     141.824  78.809 221.562 -0.39 +0.03    -0.046 A  
DOCKED: ATOM     25  C   UNL     1     142.151  80.146 221.480 -0.43 -0.00    +0.004 A  
DOCKED: ATOM     26  C   UNL     1     141.528  78.327 222.829 -0.49 -0.00    +0.004 A  
DOCKED: ATOM     27  C   UNL     1     142.191  80.980 222.586 -0.55 -0.00    +0.000 A  
DOCKED: ATOM     28  C   UNL     1     141.564  79.161 223.951 -0.60 -0.00    +0.000 A  
DOCKED: ATOM     29  C   UNL     1     141.896  80.496 223.840 -0.61 -0.00    +0.000 A  
DOCKED: ENDBRANCH  23  24
DOCKED: ENDBRANCH  20  23
DOCKED: BRANCH  21  30
DOCKED: ATOM     30  O   UNL     1     137.292  79.085 220.597 -0.00 +0.07    -0.391 OA 
DOCKED: ATOM     31  H   UNL     1     137.109  78.840 219.667 +0.01 -0.04    +0.211 HD 
DOCKED: ENDBRANCH  21  30
DOCKED: ENDBRANCH   1  18
DOCKED: TORSDOF 7
DOCKED: TER
DOCKED: ENDMDL
________________________________________________________________________________


    FINAL DOCKED STATE:
    ________________________


Run:   15 / 20
Time taken for this run:   0.022s

DOCKED: MODEL        15
DOCKED: USER    Run = 15
DOCKED: USER
DOCKED: USER    Estimated Free Energy of Binding    =  -9.32 kcal/mol  [=(1)+(2)+(3)-(4)]
DOCKED: USER
DOCKED: USER    (1) Final Intermolecular Energy     = -11.41 kcal/mol
DOCKED: USER        vdW + Hbond + desolv Energy     = -11.29 kcal/mol
DOCKED: USER        Electrostatic Energy            =  -0.12 kcal/mol
DOCKED: USER        Moving Ligand-Fixed Receptor    = -11.41 kcal/mol
DOCKED: USER        Moving Ligand-Moving Receptor   =  +0.00 kcal/mol
DOCKED: USER    (2) Final Total Internal Energy     =  -1.52 kcal/mol
DOCKED: USER    (3) Torsional Free Energy           =  +2.09 kcal/mol
DOCKED: USER    (4) Unbound System's Energy         =  -1.52 kcal/mol
DOCKED: USER
DOCKED: USER
DOCKED: REMARK SMILES O=C(NCC(=O)N1C[C@H](O)C[C@H]1Cc1ccccc1)c1ccc2ccccc2n1
DOCKED: REMARK SMILES IDX 5 1 6 2 4 3 3 4 2 5 1 6 20 8 21 9 29 10 22 11 28 12 23 13
DOCKED: REMARK SMILES IDX 27 14 24 15 26 16 25 17 7 18 8 19 12 20 9 21 11 22 13 23
DOCKED: REMARK SMILES IDX 14 24 15 25 19 26 16 27 18 28 17 29 10 30
DOCKED: REMARK H PARENT 3 7 10 31
DOCKED: USER                              x       y       z     vdW  Elec       q    Type
DOCKED: USER                           _______ _______ _______ _____ _____    ______ ____
DOCKED: ROOT
DOCKED: ATOM      1  C   UNL     1     140.615  75.169 221.222 -0.22 -0.06    +0.242 C  
DOCKED: ATOM      2  O   UNL     1     140.299  75.840 222.253 -0.46 +0.05    -0.273 OA 
DOCKED: ENDROOT
DOCKED: BRANCH   1   3
DOCKED: ATOM      3  C   UNL     1     140.047  73.782 221.071 -0.16 -0.04    +0.216 C  
DOCKED: BRANCH   3   4
DOCKED: ATOM      4  N   UNL     1     139.876  73.168 222.357 -0.15 +0.04    -0.342 N  
DOCKED: ATOM      5  C   UNL     1     140.213  71.779 222.467 -0.21 -0.04    +0.270 C  
DOCKED: ATOM      6  O   UNL     1     140.631  71.242 221.390 -0.12 +0.04    -0.268 OA 
DOCKED: ATOM      7  H   UNL     1     139.523  73.689 223.202 -0.49 -0.04    +0.164 HD 
DOCKED: BRANCH   5   8
DOCKED: ATOM      8  C   UNL     1     140.086  71.042 223.710 -0.31 -0.02    +0.128 A  
DOCKED: ATOM      9  C   UNL     1     139.472  69.814 223.664 -0.26 -0.01    +0.035 A  
DOCKED: ATOM     10  N   UNL     1     140.535  71.499 224.895 -0.32 +0.04    -0.243 NA 
DOCKED: ATOM     11  C   UNL     1     139.314  69.050 224.803 -0.38 -0.00    +0.013 A  
DOCKED: ATOM     12  C   UNL     1     140.409  70.804 226.027 -0.53 -0.01    +0.071 A  
DOCKED: ATOM     13  C   UNL     1     139.790  69.564 225.986 -0.48 -0.00    +0.000 A  
DOCKED: ATOM     14  C   UNL     1     140.889  71.323 227.214 -0.71 -0.01    +0.029 A  
DOCKED: ATOM     15  C   UNL     1     139.651  68.833 227.147 -0.58 -0.00    +0.010 A  
DOCKED: ATOM     16  C   UNL     1     140.730  70.563 228.343 -0.58 -0.00    +0.002 A  
DOCKED: ATOM     17  C   UNL     1     140.124  69.328 228.351 -0.64 -0.00    +0.001 A  
DOCKED: ENDBRANCH   5   8
DOCKED: ENDBRANCH   3   4
DOCKED: ENDBRANCH   1   3
DOCKED: BRANCH   1  18
DOCKED: ATOM     18  N   UNL     1     141.482  75.688 220.220 -0.09 +0.13    -0.335 N  
DOCKED: ATOM     19  C   UNL     1     141.785  75.050 218.952 -0.10 -0.05    +0.151 C  
DOCKED: ATOM     20  C   UNL     1     142.184  76.927 220.322 -0.19 -0.06    +0.092 C  
DOCKED: ATOM     21  C   UNL     1     142.557  76.067 218.152 -0.18 -0.07    +0.136 C  
DOCKED: ATOM     22  C   UNL     1     143.158  76.952 219.196 -0.26 -0.04    +0.059 C  
DOCKED: BRANCH  20  23
DOCKED: ATOM     23  C   UNL     1     141.290  78.140 220.405 -0.26 -0.03    +0.060 C  
DOCKED: BRANCH  23  24
DOCKED: ATOM     24  C   UNL     1     141.553  79.023 221.538 -0.37 +0.02    -0.046 A  
DOCKED: ATOM     25  C   UNL     1     141.868  80.362 221.449 -0.42 -0.00    +0.004 A  
DOCKED: ATOM     26  C   UNL     1     141.483  78.494 222.818 -0.52 -0.00    +0.004 A  
DOCKED: ATOM     27  C   UNL     1     142.108  81.155 222.561 -0.52 -0.00    +0.000 A  
DOCKED: ATOM     28  C   UNL     1     141.723  79.286 223.947 -0.60 -0.00    +0.000 A  
DOCKED: ATOM     29  C   UNL     1     142.037  80.624 223.828 -0.63 -0.00    +0.000 A  
DOCKED: ENDBRANCH  23  24
DOCKED: ENDBRANCH  20  23
DOCKED: BRANCH  21  30
DOCKED: ATOM     30  O   UNL     1     143.604  75.412 217.459 -0.10 +0.19    -0.391 OA 
DOCKED: ATOM     31  H   UNL     1     144.477  75.655 217.830 -0.45 -0.15    +0.211 HD 
DOCKED: ENDBRANCH  21  30
DOCKED: ENDBRANCH   1  18
DOCKED: TORSDOF 7
DOCKED: TER
DOCKED: ENDMDL
________________________________________________________________________________


    FINAL DOCKED STATE:
    ________________________


Run:   16 / 20
Time taken for this run:   0.022s

DOCKED: MODEL        16
DOCKED: USER    Run = 16
DOCKED: USER
DOCKED: USER    Estimated Free Energy of Binding    =  -9.52 kcal/mol  [=(1)+(2)+(3)-(4)]
DOCKED: USER
DOCKED: USER    (1) Final Intermolecular Energy     = -11.61 kcal/mol
DOCKED: USER        vdW + Hbond + desolv Energy     = -11.46 kcal/mol
DOCKED: USER        Electrostatic Energy            =  -0.16 kcal/mol
DOCKED: USER        Moving Ligand-Fixed Receptor    = -11.61 kcal/mol
DOCKED: USER        Moving Ligand-Moving Receptor   =  +0.00 kcal/mol
DOCKED: USER    (2) Final Total Internal Energy     =  -1.33 kcal/mol
DOCKED: USER    (3) Torsional Free Energy           =  +2.09 kcal/mol
DOCKED: USER    (4) Unbound System's Energy         =  -1.33 kcal/mol
DOCKED: USER
DOCKED: USER
DOCKED: REMARK SMILES O=C(NCC(=O)N1C[C@H](O)C[C@H]1Cc1ccccc1)c1ccc2ccccc2n1
DOCKED: REMARK SMILES IDX 5 1 6 2 4 3 3 4 2 5 1 6 20 8 21 9 29 10 22 11 28 12 23 13
DOCKED: REMARK SMILES IDX 27 14 24 15 26 16 25 17 7 18 8 19 12 20 9 21 11 22 13 23
DOCKED: REMARK SMILES IDX 14 24 15 25 19 26 16 27 18 28 17 29 10 30
DOCKED: REMARK H PARENT 3 7 10 31
DOCKED: USER                              x       y       z     vdW  Elec       q    Type
DOCKED: USER                           _______ _______ _______ _____ _____    ______ ____
DOCKED: ROOT
DOCKED: ATOM      1  C   UNL     1     140.506  75.086 221.222 -0.21 -0.05    +0.242 C  
DOCKED: ATOM      2  O   UNL     1     140.323  75.666 222.336 -0.52 +0.04    -0.273 OA 
DOCKED: ENDROOT
DOCKED: BRANCH   1   3
DOCKED: ATOM      3  C   UNL     1     139.709  73.842 220.925 -0.14 -0.04    +0.216 C  
DOCKED: BRANCH   3   4
DOCKED: ATOM      4  N   UNL     1     139.416  73.135 222.139 -0.13 +0.07    -0.342 N  
DOCKED: ATOM      5  C   UNL     1     140.354  72.134 222.555 -0.21 -0.03    +0.270 C  
DOCKED: ATOM      6  O   UNL     1     141.357  71.986 221.782 -0.19 +0.02    -0.268 OA 
DOCKED: ATOM      7  H   UNL     1     138.558  73.320 222.722 -0.49 -0.07    +0.164 HD 
DOCKED: BRANCH   5   8
DOCKED: ATOM      8  C   UNL     1     140.175  71.349 223.762 -0.34 -0.02    +0.128 A  
DOCKED: ATOM      9  C   UNL     1     139.440  70.193 223.668 -0.29 -0.01    +0.035 A  
DOCKED: ATOM     10  N   UNL     1     140.689  71.696 224.957 -0.31 +0.03    -0.243 NA 
DOCKED: ATOM     11  C   UNL     1     139.224  69.390 224.770 -0.37 -0.00    +0.013 A  
DOCKED: ATOM     12  C   UNL     1     140.513  70.959 226.055 -0.55 -0.01    +0.071 A  
DOCKED: ATOM     13  C   UNL     1     139.771  69.791 225.966 -0.48 -0.00    +0.000 A  
DOCKED: ATOM     14  C   UNL     1     141.063  71.365 227.256 -0.72 -0.00    +0.029 A  
DOCKED: ATOM     15  C   UNL     1     139.579  69.018 227.092 -0.56 -0.00    +0.010 A  
DOCKED: ATOM     16  C   UNL     1     140.848  70.566 228.348 -0.58 -0.00    +0.002 A  
DOCKED: ATOM     17  C   UNL     1     140.120  69.399 228.308 -0.63 -0.00    +0.001 A  
DOCKED: ENDBRANCH   5   8
DOCKED: ENDBRANCH   3   4
DOCKED: ENDBRANCH   1   3
DOCKED: BRANCH   1  18
DOCKED: ATOM     18  N   UNL     1     141.434  75.573 220.259 -0.09 +0.12    -0.335 N  
DOCKED: ATOM     19  C   UNL     1     141.736  74.948 218.984 -0.09 -0.05    +0.151 C  
DOCKED: ATOM     20  C   UNL     1     142.208  76.762 220.414 -0.13 -0.06    +0.092 C  
DOCKED: ATOM     21  C   UNL     1     142.594  75.933 218.234 -0.18 -0.06    +0.136 C  
DOCKED: ATOM     22  C   UNL     1     143.216  76.754 219.318 -0.33 -0.04    +0.059 C  
DOCKED: BRANCH  20  23
DOCKED: ATOM     23  C   UNL     1     141.389  78.027 220.502 -0.27 -0.03    +0.060 C  
DOCKED: BRANCH  23  24
DOCKED: ATOM     24  C   UNL     1     141.702  78.886 221.642 -0.39 +0.02    -0.046 A  
DOCKED: ATOM     25  C   UNL     1     142.216  80.162 221.560 -0.44 -0.00    +0.004 A  
DOCKED: ATOM     26  C   UNL     1     141.469  78.400 222.919 -0.53 -0.00    +0.004 A  
DOCKED: ATOM     27  C   UNL     1     142.494  80.935 222.677 -0.54 -0.00    +0.000 A  
DOCKED: ATOM     28  C   UNL     1     141.745  79.171 224.053 -0.59 -0.00    +0.000 A  
DOCKED: ATOM     29  C   UNL     1     142.260  80.446 223.942 -0.61 -0.00    +0.000 A  
DOCKED: ENDBRANCH  23  24
DOCKED: ENDBRANCH  20  23
DOCKED: BRANCH  21  30
DOCKED: ATOM     30  O   UNL     1     143.620  75.231 217.555 -0.09 +0.18    -0.391 OA 
DOCKED: ATOM     31  H   UNL     1     144.505  75.526 217.854 -0.45 -0.15    +0.211 HD 
DOCKED: ENDBRANCH  21  30
DOCKED: ENDBRANCH   1  18
DOCKED: TORSDOF 7
DOCKED: TER
DOCKED: ENDMDL
________________________________________________________________________________


    FINAL DOCKED STATE:
    ________________________


Run:   17 / 20
Time taken for this run:   0.022s

DOCKED: MODEL        17
DOCKED: USER    Run = 17
DOCKED: USER
DOCKED: USER    Estimated Free Energy of Binding    =  -9.35 kcal/mol  [=(1)+(2)+(3)-(4)]
DOCKED: USER
DOCKED: USER    (1) Final Intermolecular Energy     = -11.43 kcal/mol
DOCKED: USER        vdW + Hbond + desolv Energy     = -11.30 kcal/mol
DOCKED: USER        Electrostatic Energy            =  -0.13 kcal/mol
DOCKED: USER        Moving Ligand-Fixed Receptor    = -11.43 kcal/mol
DOCKED: USER        Moving Ligand-Moving Receptor   =  +0.00 kcal/mol
DOCKED: USER    (2) Final Total Internal Energy     =  -1.51 kcal/mol
DOCKED: USER    (3) Torsional Free Energy           =  +2.09 kcal/mol
DOCKED: USER    (4) Unbound System's Energy         =  -1.51 kcal/mol
DOCKED: USER
DOCKED: USER
DOCKED: REMARK SMILES O=C(NCC(=O)N1C[C@H](O)C[C@H]1Cc1ccccc1)c1ccc2ccccc2n1
DOCKED: REMARK SMILES IDX 5 1 6 2 4 3 3 4 2 5 1 6 20 8 21 9 29 10 22 11 28 12 23 13
DOCKED: REMARK SMILES IDX 27 14 24 15 26 16 25 17 7 18 8 19 12 20 9 21 11 22 13 23
DOCKED: REMARK SMILES IDX 14 24 15 25 19 26 16 27 18 28 17 29 10 30
DOCKED: REMARK H PARENT 3 7 10 31
DOCKED: USER                              x       y       z     vdW  Elec       q    Type
DOCKED: USER                           _______ _______ _______ _____ _____    ______ ____
DOCKED: ROOT
DOCKED: ATOM      1  C   UNL     1     140.589  74.971 221.281 -0.22 -0.05    +0.242 C  
DOCKED: ATOM      2  O   UNL     1     140.245  75.646 222.299 -0.52 +0.04    -0.273 OA 
DOCKED: ENDROOT
DOCKED: BRANCH   1   3
DOCKED: ATOM      3  C   UNL     1     140.036  73.579 221.125 -0.17 -0.04    +0.216 C  
DOCKED: BRANCH   3   4
DOCKED: ATOM      4  N   UNL     1     139.874  72.959 222.410 -0.16 +0.05    -0.342 N  
DOCKED: ATOM      5  C   UNL     1     140.196  71.566 222.508 -0.20 -0.04    +0.270 C  
DOCKED: ATOM      6  O   UNL     1     140.596  71.031 221.422 -0.11 +0.04    -0.268 OA 
DOCKED: ATOM      7  H   UNL     1     139.536  73.478 223.262 -0.46 -0.05    +0.164 HD 
DOCKED: BRANCH   5   8
DOCKED: ATOM      8  C   UNL     1     140.076  70.823 223.748 -0.29 -0.02    +0.128 A  
DOCKED: ATOM      9  C   UNL     1     139.395  69.630 223.714 -0.26 -0.01    +0.035 A  
DOCKED: ATOM     10  N   UNL     1     140.594  71.241 224.918 -0.32 +0.03    -0.243 NA 
DOCKED: ATOM     11  C   UNL     1     139.237  68.863 224.851 -0.39 -0.00    +0.013 A  
DOCKED: ATOM     12  C   UNL     1     140.472  70.541 226.048 -0.51 -0.01    +0.071 A  
DOCKED: ATOM     13  C   UNL     1     139.785  69.337 226.019 -0.49 -0.00    +0.000 A  
DOCKED: ATOM     14  C   UNL     1     141.024  71.020 227.221 -0.67 -0.00    +0.029 A  
DOCKED: ATOM     15  C   UNL     1     139.650  68.601 227.178 -0.59 -0.00    +0.010 A  
DOCKED: ATOM     16  C   UNL     1     140.866  70.256 228.348 -0.56 -0.00    +0.002 A  
DOCKED: ATOM     17  C   UNL     1     140.194  69.056 228.368 -0.64 -0.00    +0.001 A  
DOCKED: ENDBRANCH   5   8
DOCKED: ENDBRANCH   3   4
DOCKED: ENDBRANCH   1   3
DOCKED: BRANCH   1  18
DOCKED: ATOM     18  N   UNL     1     141.475  75.490 220.295 -0.10 +0.12    -0.335 N  
DOCKED: ATOM     19  C   UNL     1     141.790  74.861 219.025 -0.10 -0.05    +0.151 C  
DOCKED: ATOM     20  C   UNL     1     142.188  76.722 220.418 -0.14 -0.06    +0.092 C  
DOCKED: ATOM     21  C   UNL     1     142.582  75.877 218.246 -0.18 -0.06    +0.136 C  
DOCKED: ATOM     22  C   UNL     1     143.177  76.748 219.305 -0.34 -0.04    +0.059 C  
DOCKED: BRANCH  20  23
DOCKED: ATOM     23  C   UNL     1     141.304  77.943 220.499 -0.26 -0.03    +0.060 C  
DOCKED: BRANCH  23  24
DOCKED: ATOM     24  C   UNL     1     141.599  78.844 221.610 -0.37 +0.02    -0.046 A  
DOCKED: ATOM     25  C   UNL     1     142.021  80.151 221.485 -0.43 -0.00    +0.004 A  
DOCKED: ATOM     26  C   UNL     1     141.448  78.369 222.904 -0.53 -0.00    +0.004 A  
DOCKED: ATOM     27  C   UNL     1     142.286  80.963 222.577 -0.54 -0.00    +0.000 A  
DOCKED: ATOM     28  C   UNL     1     141.712  79.181 224.012 -0.59 -0.00    +0.000 A  
DOCKED: ATOM     29  C   UNL     1     142.133  80.486 223.858 -0.63 -0.00    +0.000 A  
DOCKED: ENDBRANCH  23  24
DOCKED: ENDBRANCH  20  23
DOCKED: BRANCH  21  30
DOCKED: ATOM     30  O   UNL     1     143.633  75.218 217.561 -0.09 +0.18    -0.391 OA 
DOCKED: ATOM     31  H   UNL     1     144.505  75.571 217.834 -0.45 -0.15    +0.211 HD 
DOCKED: ENDBRANCH  21  30
DOCKED: ENDBRANCH   1  18
DOCKED: TORSDOF 7
DOCKED: TER
DOCKED: ENDMDL
________________________________________________________________________________


    FINAL DOCKED STATE:
    ________________________


Run:   18 / 20
Time taken for this run:   0.022s

DOCKED: MODEL        18
DOCKED: USER    Run = 18
DOCKED: USER
DOCKED: USER    Estimated Free Energy of Binding    =  -8.91 kcal/mol  [=(1)+(2)+(3)-(4)]
DOCKED: USER
DOCKED: USER    (1) Final Intermolecular Energy     = -10.99 kcal/mol
DOCKED: USER        vdW + Hbond + desolv Energy     = -10.88 kcal/mol
DOCKED: USER        Electrostatic Energy            =  -0.12 kcal/mol
DOCKED: USER        Moving Ligand-Fixed Receptor    = -10.99 kcal/mol
DOCKED: USER        Moving Ligand-Moving Receptor   =  +0.00 kcal/mol
DOCKED: USER    (2) Final Total Internal Energy     =  -1.37 kcal/mol
DOCKED: USER    (3) Torsional Free Energy           =  +2.09 kcal/mol
DOCKED: USER    (4) Unbound System's Energy         =  -1.37 kcal/mol
DOCKED: USER
DOCKED: USER
DOCKED: REMARK SMILES O=C(NCC(=O)N1C[C@H](O)C[C@H]1Cc1ccccc1)c1ccc2ccccc2n1
DOCKED: REMARK SMILES IDX 5 1 6 2 4 3 3 4 2 5 1 6 20 8 21 9 29 10 22 11 28 12 23 13
DOCKED: REMARK SMILES IDX 27 14 24 15 26 16 25 17 7 18 8 19 12 20 9 21 11 22 13 23
DOCKED: REMARK SMILES IDX 14 24 15 25 19 26 16 27 18 28 17 29 10 30
DOCKED: REMARK H PARENT 3 7 10 31
DOCKED: USER                              x       y       z     vdW  Elec       q    Type
DOCKED: USER                           _______ _______ _______ _____ _____    ______ ____
DOCKED: ROOT
DOCKED: ATOM      1  C   UNL     1     139.294  75.449 221.048 -0.14 -0.05    +0.242 C  
DOCKED: ATOM      2  O   UNL     1     138.123  75.749 221.435 -0.10 +0.06    -0.273 OA 
DOCKED: ENDROOT
DOCKED: BRANCH   1   3
DOCKED: ATOM      3  C   UNL     1     139.664  73.991 220.953 -0.14 -0.04    +0.216 C  
DOCKED: BRANCH   3   4
DOCKED: ATOM      4  N   UNL     1     139.513  73.353 222.230 -0.14 +0.07    -0.342 N  
DOCKED: ATOM      5  C   UNL     1     140.267  72.155 222.455 -0.21 -0.03    +0.270 C  
DOCKED: ATOM      6  O   UNL     1     140.996  71.789 221.475 -0.15 +0.03    -0.268 OA 
DOCKED: ATOM      7  H   UNL     1     138.885  73.725 222.990 -0.54 -0.09    +0.164 HD 
DOCKED: BRANCH   5   8
DOCKED: ATOM      8  C   UNL     1     140.204  71.415 223.701 -0.34 -0.02    +0.128 A  
DOCKED: ATOM      9  C   UNL     1     139.616  70.174 223.678 -0.28 -0.01    +0.035 A  
DOCKED: ATOM     10  N   UNL     1     140.689  71.882 224.867 -0.28 +0.03    -0.243 NA 
DOCKED: ATOM     11  C   UNL     1     139.518  69.407 224.821 -0.37 -0.00    +0.013 A  
DOCKED: ATOM     12  C   UNL     1     140.622  71.185 226.003 -0.56 -0.01    +0.071 A  
DOCKED: ATOM     13  C   UNL     1     140.029  69.931 225.985 -0.50 -0.00    +0.000 A  
DOCKED: ATOM     14  C   UNL     1     141.136  71.714 227.171 -0.75 -0.01    +0.029 A  
DOCKED: ATOM     15  C   UNL     1     139.951  69.198 227.151 -0.58 -0.00    +0.010 A  
DOCKED: ATOM     16  C   UNL     1     141.037  70.950 228.304 -0.65 -0.00    +0.002 A  
DOCKED: ATOM     17  C   UNL     1     140.459  69.702 228.335 -0.60 -0.00    +0.001 A  
DOCKED: ENDBRANCH   5   8
DOCKED: ENDBRANCH   3   4
DOCKED: ENDBRANCH   1   3
DOCKED: BRANCH   1  18
DOCKED: ATOM     18  N   UNL     1     140.255  76.441 220.707 -0.07 +0.10    -0.335 N  
DOCKED: ATOM     19  C   UNL     1     140.531  76.927 219.368 -0.08 -0.05    +0.151 C  
DOCKED: ATOM     20  C   UNL     1     141.095  77.109 221.650 -0.30 -0.04    +0.092 C  
DOCKED: ATOM     21  C   UNL     1     141.449  78.109 219.537 -0.20 -0.07    +0.136 C  
DOCKED: ATOM     22  C   UNL     1     142.109  77.855 220.855 -0.09 -0.04    +0.059 C  
DOCKED: BRANCH  20  23
DOCKED: ATOM     23  C   UNL     1     140.349  77.948 222.659 -0.37 -0.02    +0.060 C  
DOCKED: BRANCH  23  24
DOCKED: ATOM     24  C   UNL     1     141.012  79.193 223.036 -0.47 +0.01    -0.046 A  
DOCKED: ATOM     25  C   UNL     1     142.115  79.292 223.857 -0.59 -0.00    +0.004 A  
DOCKED: ATOM     26  C   UNL     1     140.511  80.386 222.537 -0.37 -0.00    +0.004 A  
DOCKED: ATOM     27  C   UNL     1     142.706  80.503 224.182 -0.59 -0.00    +0.000 A  
DOCKED: ATOM     28  C   UNL     1     141.100  81.614 222.857 -0.43 -0.00    +0.000 A  
DOCKED: ATOM     29  C   UNL     1     142.204  81.683 223.683 -0.52 -0.00    +0.000 A  
DOCKED: ENDBRANCH  23  24
DOCKED: ENDBRANCH  20  23
DOCKED: BRANCH  21  30
DOCKED: ATOM     30  O   UNL     1     142.438  78.077 218.524 -0.17 +0.28    -0.391 OA 
DOCKED: ATOM     31  H   UNL     1     143.329  78.236 218.898 -0.29 -0.21    +0.211 HD 
DOCKED: ENDBRANCH  21  30
DOCKED: ENDBRANCH   1  18
DOCKED: TORSDOF 7
DOCKED: TER
DOCKED: ENDMDL
________________________________________________________________________________


    FINAL DOCKED STATE:
    ________________________


Run:   19 / 20
Time taken for this run:   0.022s

DOCKED: MODEL        19
DOCKED: USER    Run = 19
DOCKED: USER
DOCKED: USER    Estimated Free Energy of Binding    =  -8.75 kcal/mol  [=(1)+(2)+(3)-(4)]
DOCKED: USER
DOCKED: USER    (1) Final Intermolecular Energy     = -10.84 kcal/mol
DOCKED: USER        vdW + Hbond + desolv Energy     = -10.74 kcal/mol
DOCKED: USER        Electrostatic Energy            =  -0.09 kcal/mol
DOCKED: USER        Moving Ligand-Fixed Receptor    = -10.84 kcal/mol
DOCKED: USER        Moving Ligand-Moving Receptor   =  +0.00 kcal/mol
DOCKED: USER    (2) Final Total Internal Energy     =  -1.41 kcal/mol
DOCKED: USER    (3) Torsional Free Energy           =  +2.09 kcal/mol
DOCKED: USER    (4) Unbound System's Energy         =  -1.41 kcal/mol
DOCKED: USER
DOCKED: USER
DOCKED: REMARK SMILES O=C(NCC(=O)N1C[C@H](O)C[C@H]1Cc1ccccc1)c1ccc2ccccc2n1
DOCKED: REMARK SMILES IDX 5 1 6 2 4 3 3 4 2 5 1 6 20 8 21 9 29 10 22 11 28 12 23 13
DOCKED: REMARK SMILES IDX 27 14 24 15 26 16 25 17 7 18 8 19 12 20 9 21 11 22 13 23
DOCKED: REMARK SMILES IDX 14 24 15 25 19 26 16 27 18 28 17 29 10 30
DOCKED: REMARK H PARENT 3 7 10 31
DOCKED: USER                              x       y       z     vdW  Elec       q    Type
DOCKED: USER                           _______ _______ _______ _____ _____    ______ ____
DOCKED: ROOT
DOCKED: ATOM      1  C   UNL     1     139.495  72.320 222.661 -0.17 -0.05    +0.242 C  
DOCKED: ATOM      2  O   UNL     1     140.689  72.578 223.007 -0.49 +0.00    -0.273 OA 
DOCKED: ENDROOT
DOCKED: BRANCH   1   3
DOCKED: ATOM      3  C   UNL     1     138.712  73.390 221.946 -0.12 -0.06    +0.216 C  
DOCKED: BRANCH   3   4
DOCKED: ATOM      4  N   UNL     1     139.242  74.688 222.254 -0.12 +0.07    -0.342 N  
DOCKED: ATOM      5  C   UNL     1     140.142  75.269 221.302 -0.20 -0.06    +0.270 C  
DOCKED: ATOM      6  O   UNL     1     140.372  74.551 220.274 -0.08 +0.06    -0.268 OA 
DOCKED: ATOM      7  H   UNL     1     138.999  75.217 223.133 -0.48 -0.05    +0.164 HD 
DOCKED: BRANCH   5   8
DOCKED: ATOM      8  C   UNL     1     140.747  76.574 221.495 -0.29 -0.04    +0.128 A  
DOCKED: ATOM      9  C   UNL     1     141.201  77.237 220.381 -0.24 -0.02    +0.035 A  
DOCKED: ATOM     10  N   UNL     1     140.883  77.159 222.699 -0.27 +0.08    -0.243 NA 
DOCKED: ATOM     11  C   UNL     1     141.788  78.483 220.480 -0.30 -0.01    +0.013 A  
DOCKED: ATOM     12  C   UNL     1     141.441  78.361 222.855 -0.47 -0.03    +0.071 A  
DOCKED: ATOM     13  C   UNL     1     141.902  79.035 221.734 -0.43 -0.00    +0.000 A  
DOCKED: ATOM     14  C   UNL     1     141.555  78.913 224.116 -0.53 -0.01    +0.029 A  
DOCKED: ATOM     15  C   UNL     1     142.482  80.278 221.877 -0.45 -0.00    +0.010 A  
DOCKED: ATOM     16  C   UNL     1     142.137  80.150 224.211 -0.47 -0.00    +0.002 A  
DOCKED: ATOM     17  C   UNL     1     142.608  80.856 223.129 -0.62 -0.00    +0.001 A  
DOCKED: ENDBRANCH   5   8
DOCKED: ENDBRANCH   3   4
DOCKED: ENDBRANCH   1   3
DOCKED: BRANCH   1  18
DOCKED: ATOM     18  N   UNL     1     138.885  71.063 222.929 -0.11 +0.07    -0.335 N  
DOCKED: ATOM     19  C   UNL     1     138.151  70.258 221.970 -0.09 -0.03    +0.151 C  
DOCKED: ATOM     20  C   UNL     1     138.911  70.407 224.197 -0.30 -0.02    +0.092 C  
DOCKED: ATOM     21  C   UNL     1     137.894  68.938 222.650 -0.16 -0.02    +0.136 C  
DOCKED: ATOM     22  C   UNL     1     137.948  69.275 224.105 -0.28 -0.01    +0.059 C  
DOCKED: BRANCH  20  23
DOCKED: ATOM     23  C   UNL     1     140.292  70.018 224.665 -0.32 -0.01    +0.060 C  
DOCKED: BRANCH  23  24
DOCKED: ATOM     24  C   UNL     1     140.687  70.579 225.955 -0.54 +0.01    -0.046 A  
DOCKED: ATOM     25  C   UNL     1     141.104  71.875 226.166 -0.65 -0.00    +0.004 A  
DOCKED: ATOM     26  C   UNL     1     140.643  69.759 227.073 -0.58 -0.00    +0.004 A  
DOCKED: ATOM     27  C   UNL     1     141.467  72.356 227.415 -0.79 -0.00    +0.000 A  
DOCKED: ATOM     28  C   UNL     1     141.005  70.234 228.338 -0.56 -0.00    +0.000 A  
DOCKED: ATOM     29  C   UNL     1     141.420  71.537 228.520 -0.58 -0.00    +0.000 A  
DOCKED: ENDBRANCH  23  24
DOCKED: ENDBRANCH  20  23
DOCKED: BRANCH  21  30
DOCKED: ATOM     30  O   UNL     1     136.584  68.502 222.336 -0.05 +0.05    -0.391 OA 
DOCKED: ATOM     31  H   UNL     1     136.016  69.256 222.074 +0.03 -0.03    +0.211 HD 
DOCKED: ENDBRANCH  21  30
DOCKED: ENDBRANCH   1  18
DOCKED: TORSDOF 7
DOCKED: TER
DOCKED: ENDMDL
________________________________________________________________________________


    FINAL DOCKED STATE:
    ________________________


Run:   20 / 20
Time taken for this run:   0.022s

DOCKED: MODEL        20
DOCKED: USER    Run = 20
DOCKED: USER
DOCKED: USER    Estimated Free Energy of Binding    =  -9.40 kcal/mol  [=(1)+(2)+(3)-(4)]
DOCKED: USER
DOCKED: USER    (1) Final Intermolecular Energy     = -11.48 kcal/mol
DOCKED: USER        vdW + Hbond + desolv Energy     = -11.35 kcal/mol
DOCKED: USER        Electrostatic Energy            =  -0.14 kcal/mol
DOCKED: USER        Moving Ligand-Fixed Receptor    = -11.48 kcal/mol
DOCKED: USER        Moving Ligand-Moving Receptor   =  +0.00 kcal/mol
DOCKED: USER    (2) Final Total Internal Energy     =  -1.39 kcal/mol
DOCKED: USER    (3) Torsional Free Energy           =  +2.09 kcal/mol
DOCKED: USER    (4) Unbound System's Energy         =  -1.39 kcal/mol
DOCKED: USER
DOCKED: USER
DOCKED: REMARK SMILES O=C(NCC(=O)N1C[C@H](O)C[C@H]1Cc1ccccc1)c1ccc2ccccc2n1
DOCKED: REMARK SMILES IDX 5 1 6 2 4 3 3 4 2 5 1 6 20 8 21 9 29 10 22 11 28 12 23 13
DOCKED: REMARK SMILES IDX 27 14 24 15 26 16 25 17 7 18 8 19 12 20 9 21 11 22 13 23
DOCKED: REMARK SMILES IDX 14 24 15 25 19 26 16 27 18 28 17 29 10 30
DOCKED: REMARK H PARENT 3 7 10 31
DOCKED: USER                              x       y       z     vdW  Elec       q    Type
DOCKED: USER                           _______ _______ _______ _____ _____    ______ ____
DOCKED: ROOT
DOCKED: ATOM      1  C   UNL     1     140.763  75.327 221.225 -0.22 -0.06    +0.242 C  
DOCKED: ATOM      2  O   UNL     1     140.640  75.929 222.336 -0.44 +0.05    -0.273 OA 
DOCKED: ENDROOT
DOCKED: BRANCH   1   3
DOCKED: ATOM      3  C   UNL     1     140.008  74.039 221.023 -0.16 -0.04    +0.216 C  
DOCKED: BRANCH   3   4
DOCKED: ATOM      4  N   UNL     1     139.770  73.396 222.284 -0.15 +0.05    -0.342 N  
DOCKED: ATOM      5  C   UNL     1     140.376  72.113 222.487 -0.21 -0.03    +0.270 C  
DOCKED: ATOM      6  O   UNL     1     141.067  71.685 221.504 -0.15 +0.03    -0.268 OA 
DOCKED: ATOM      7  H   UNL     1     139.182  73.822 223.047 -0.53 -0.07    +0.164 HD 
DOCKED: BRANCH   5   8
DOCKED: ATOM      8  C   UNL     1     140.214  71.359 223.715 -0.33 -0.02    +0.128 A  
DOCKED: ATOM      9  C   UNL     1     139.554  70.156 223.644 -0.28 -0.01    +0.035 A  
DOCKED: ATOM     10  N   UNL     1     140.674  71.777 224.910 -0.29 +0.03    -0.243 NA 
DOCKED: ATOM     11  C   UNL     1     139.359  69.379 224.768 -0.37 -0.00    +0.013 A  
DOCKED: ATOM     12  C   UNL     1     140.515  71.067 226.029 -0.55 -0.01    +0.071 A  
DOCKED: ATOM     13  C   UNL     1     139.849  69.853 225.962 -0.48 -0.00    +0.000 A  
DOCKED: ATOM     14  C   UNL     1     141.008  71.546 227.227 -0.75 -0.01    +0.029 A  
DOCKED: ATOM     15  C   UNL     1     139.675  69.107 227.110 -0.56 -0.00    +0.010 A  
DOCKED: ATOM     16  C   UNL     1     140.813  70.772 228.341 -0.61 -0.00    +0.002 A  
DOCKED: ATOM     17  C   UNL     1     140.160  69.561 228.324 -0.62 -0.00    +0.001 A  
DOCKED: ENDBRANCH   5   8
DOCKED: ENDBRANCH   3   4
DOCKED: ENDBRANCH   1   3
DOCKED: BRANCH   1  18
DOCKED: ATOM     18  N   UNL     1     141.586  75.832 220.179 -0.10 +0.14    -0.335 N  
DOCKED: ATOM     19  C   UNL     1     141.855  75.165 218.918 -0.11 -0.05    +0.151 C  
DOCKED: ATOM     20  C   UNL     1     142.272  77.083 220.224 -0.20 -0.06    +0.092 C  
DOCKED: ATOM     21  C   UNL     1     142.583  76.171 218.066 -0.18 -0.07    +0.136 C  
DOCKED: ATOM     22  C   UNL     1     143.206  77.093 219.065 -0.22 -0.04    +0.059 C  
DOCKED: BRANCH  20  23
DOCKED: ATOM     23  C   UNL     1     141.363  78.285 220.307 -0.26 -0.03    +0.060 C  
DOCKED: BRANCH  23  24
DOCKED: ATOM     24  C   UNL     1     141.569  79.135 221.477 -0.36 +0.02    -0.046 A  
DOCKED: ATOM     25  C   UNL     1     141.695  78.687 222.775 -0.52 -0.00    +0.004 A  
DOCKED: ATOM     26  C   UNL     1     141.651  80.507 221.292 -0.39 -0.00    +0.004 A  
DOCKED: ATOM     27  C   UNL     1     141.891  79.540 223.850 -0.62 -0.00    +0.000 A  
DOCKED: ATOM     28  C   UNL     1     141.850  81.376 222.370 -0.49 -0.00    +0.000 A  
DOCKED: ATOM     29  C   UNL     1     141.972  80.900 223.659 -0.62 -0.00    +0.000 A  
DOCKED: ENDBRANCH  23  24
DOCKED: ENDBRANCH  20  23
DOCKED: BRANCH  21  30
DOCKED: ATOM     30  O   UNL     1     143.616  75.514 217.353 -0.11 +0.20    -0.391 OA 
DOCKED: ATOM     31  H   UNL     1     144.474  75.606 217.815 -0.45 -0.15    +0.211 HD 
DOCKED: ENDBRANCH  21  30
DOCKED: ENDBRANCH   1  18
DOCKED: TORSDOF 7
DOCKED: TER
DOCKED: ENDMDL
________________________________________________________________________________


    CLUSTERING HISTOGRAM
    ____________________


________________________________________________________________________________
     |           |     |           |     |
Clus | Lowest    | Run | Mean      | Num | Histogram
-ter | Binding   |     | Binding   | in  |
Rank | Energy    |     | Energy    | Clus|    5    10   15   20   25   30   35
_____|___________|_____|___________|_____|____:____|____:____|____:____|____:___
   1 |     -9.52 |  16 |     -9.16 |  13 |#############
   2 |     -8.75 |  19 |     -8.43 |   2 |##
   3 |     -8.74 |   1 |     -8.41 |   2 |##
   4 |     -8.14 |   8 |     -8.14 |   1 |#
   5 |     -7.97 |  13 |     -7.97 |   2 |##
_____|___________|_____|___________|_____|______________________________________


    RMSD TABLE
    __________


_______________________________________________________________________
     |      |      |           |         |                 |
Rank | Sub- | Run  | Binding   | Cluster | Reference       | Grep
     | Rank |      | Energy    | RMSD    | RMSD            | Pattern
_____|______|______|___________|_________|_________________|___________
   1      1     16       -9.52      0.00    270.95           RANKING
   1      2      6       -9.44      0.34    270.91           RANKING
   1      3     20       -9.40      0.39    270.95           RANKING
   1      4     17       -9.35      0.44    270.91           RANKING
   1      5      4       -9.34      0.43    270.89           RANKING
   1      6     11       -9.32      0.39    270.93           RANKING
   1      7     15       -9.32      0.38    270.91           RANKING
   1      8      7       -9.23      0.39    270.89           RANKING
   1      9     10       -9.21      0.54    270.90           RANKING
   1     10     18       -8.91      1.32    271.20           RANKING
   1     11      2       -8.87      1.95    271.01           RANKING
   1     12     14       -8.61      1.77    270.93           RANKING
   1     13      5       -8.53      1.95    270.92           RANKING
   2      1     19       -8.75      0.00    270.90           RANKING
   2      2      3       -8.10      1.47    270.92           RANKING
   3      1      1       -8.74      0.00    270.49           RANKING
   3      2      9       -8.09      0.83    270.48           RANKING
   4      1      8       -8.14      0.00    270.31           RANKING
   5      1     13       -7.97      0.00    270.76           RANKING
   5      2     12       -7.96      0.07    270.76           RANKING

Run time 0.416 sec
Idle time 0.000 sec
