AutoDock-GPU version: v1.6

**********************************************************
**    AutoDock-GPU AUTODOCKTOOLS-COMPATIBLE DLG FILE    **
**********************************************************


    DOCKING PARAMETERS
    ________________________


Ligand file:                               /home/a/REINVENT4/ReinventStudies/pleaseWork/justmol2mol_4_Compounds_ontop/graph-dock-amy28i/graph-DockGPU/node-autodockgpu/inputs/IBIITYRCIARVHL-AMXMARPHNA-N.pdbqt
Grid fld file:                             /home/a/REINVENT4/ReinventStudies/mols/Rad51/maps/rad51_receptor.maps.fld

Random seed:                               42
Number of runs:                            20
Number of energy evaluations:              1259779
Number of generations:                     42000
Size of population:                        150
Rate of crossover:                         80.000000%
Tournament selection probability limit:    60.000000%
Rate of mutation:                          2.000000%
Maximal allowed delta movement:            +/- 6.000000A
Maximal allowed delta angle:               +/- 90.000000

Rate of local search:                      100.000000%
Maximal number of local search iterations: 300
Rho lower bound:                           0.010000
Spread of local search delta movement:     2.000000A
Spread of local search delta angle:        74.999999
Limit of consecutive successes/failures:   4

Handle symmetry during clustering:         YES
RMSD tolerance:                            2.000000A

Program call in command line was:          /home/a/REINVENT4/ReinventStudies/adgpu-v1.6_linux_x64_cuda12_128wi --filelist batch.txt --heuristics 1 --nrun 20 --psize 150 --lsit 300 --seed 42 --heurmax 12000000 


    GRID PARAMETERS
    ________________________


Receptor name:                             rad51_receptor
Number of grid points (x, y, z):           53, 53, 53
Grid center (x, y, z):                     139.950000, 75.640000, 221.970000A
Grid size (x, y, z):                       19.500000, 19.500000, 19.500000A
Grid spacing:                              0.375000A


    LIGAND PARAMETERS
    ________________________


Ligand name:                               /home/a/REINVENT4/ReinventStudies/pleaseWork/justmol2mol_4_Compounds_ontop/graph-dock-amy28i/graph-DockGPU/node-autodockgpu/inputs/IBIITYRCIARVHL-AMXMARPHNA-N
Number of atoms:                           31
Number of rotatable bonds:                 7
Number of atom types:                      7


    DUMMY DATA (only for ADT-compatibility)
    ________________________


DPF> outlev 1
DPF> ga_run 20
DPF> fld /home/a/REINVENT4/ReinventStudies/mols/Rad51/maps/rad51_receptor.maps.fld
DPF> move /home/a/REINVENT4/ReinventStudies/pleaseWork/justmol2mol_4_Compounds_ontop/graph-dock-amy28i/graph-DockGPU/node-autodockgpu/inputs/IBIITYRCIARVHL-AMXMARPHNA-N.pdbqt


    COUNTER STATES
    ________________________


Number of energy evaluations performed:    560566
Number of generations used:                40


    INPUT LIGAND PDBQT FILE:
    ________________________


INPUT-LIGAND-PDBQT: REMARK SMILES CC(C)C[C@H](NC(=O)CNC(=O)c1ccc2cc(Cl)ccc2n1)c1ccccc1
INPUT-LIGAND-PDBQT: REMARK SMILES IDX 6 1 7 2 8 3 5 5 4 6 2 7 1 8 3 9 24 10 25 11 29 12 26 13
INPUT-LIGAND-PDBQT: REMARK SMILES IDX 28 14 27 15 9 16 10 17 11 18 12 20 13 21 14 22 23 23 15 24
INPUT-LIGAND-PDBQT: REMARK SMILES IDX 22 25 16 26 21 27 17 28 20 29 18 30 19 31
INPUT-LIGAND-PDBQT: REMARK H PARENT 6 4 10 19
INPUT-LIGAND-PDBQT: ROOT
INPUT-LIGAND-PDBQT: ATOM      1  N   UNL     1      -0.546  -0.452   1.467  1.00  0.00    -0.348 N 
INPUT-LIGAND-PDBQT: ATOM      2  C   UNL     1       0.142  -1.196   2.451  1.00  0.00     0.239 C 
INPUT-LIGAND-PDBQT: ATOM      3  O   UNL     1      -0.562  -1.623   3.424  1.00  0.00    -0.273 OA
INPUT-LIGAND-PDBQT: ATOM      4  H   UNL     1      -0.034  -0.067   0.657  1.00  0.00     0.164 HD
INPUT-LIGAND-PDBQT: ENDROOT
INPUT-LIGAND-PDBQT: BRANCH   1   5
INPUT-LIGAND-PDBQT: ATOM      5  C   UNL     1      -1.989  -0.190   1.560  1.00  0.00     0.112 C 
INPUT-LIGAND-PDBQT: BRANCH   5   6
INPUT-LIGAND-PDBQT: ATOM      6  C   UNL     1      -2.221   1.285   1.694  1.00  0.00     0.033 C 
INPUT-LIGAND-PDBQT: BRANCH   6   7
INPUT-LIGAND-PDBQT: ATOM      7  C   UNL     1      -3.679   1.672   1.799  1.00  0.00    -0.015 C 
INPUT-LIGAND-PDBQT: ATOM      8  C   UNL     1      -4.337   1.038   3.003  1.00  0.00     0.007 C 
INPUT-LIGAND-PDBQT: ATOM      9  C   UNL     1      -3.698   3.177   2.016  1.00  0.00     0.007 C 
INPUT-LIGAND-PDBQT: ENDBRANCH   6   7
INPUT-LIGAND-PDBQT: ENDBRANCH   5   6
INPUT-LIGAND-PDBQT: BRANCH   5  10
INPUT-LIGAND-PDBQT: ATOM     10  C   UNL     1      -2.740  -0.803   0.455  1.00  0.00    -0.026 A 
INPUT-LIGAND-PDBQT: ATOM     11  C   UNL     1      -3.916  -1.498   0.666  1.00  0.00     0.006 A 
INPUT-LIGAND-PDBQT: ATOM     12  C   UNL     1      -2.302  -0.712  -0.863  1.00  0.00     0.006 A 
INPUT-LIGAND-PDBQT: ATOM     13  C   UNL     1      -4.642  -2.083  -0.349  1.00  0.00     0.000 A 
INPUT-LIGAND-PDBQT: ATOM     14  C   UNL     1      -3.018  -1.292  -1.891  1.00  0.00     0.000 A 
INPUT-LIGAND-PDBQT: ATOM     15  C   UNL     1      -4.191  -1.984  -1.668  1.00  0.00     0.000 A 
INPUT-LIGAND-PDBQT: ENDBRANCH   5  10
INPUT-LIGAND-PDBQT: ENDBRANCH   1   5
INPUT-LIGAND-PDBQT: BRANCH   2  16
INPUT-LIGAND-PDBQT: ATOM     16  C   UNL     1       1.563  -1.514   2.458  1.00  0.00     0.216 C 
INPUT-LIGAND-PDBQT: BRANCH  16  17
INPUT-LIGAND-PDBQT: ATOM     17  N   UNL     1       2.339  -1.056   1.355  1.00  0.00    -0.342 N 
INPUT-LIGAND-PDBQT: ATOM     18  C   UNL     1       2.076  -1.493   0.013  1.00  0.00     0.270 C 
INPUT-LIGAND-PDBQT: ATOM     19  H   UNL     1       3.145  -0.372   1.476  1.00  0.00     0.164 HD
INPUT-LIGAND-PDBQT: ATOM     20  O   UNL     1       1.158  -2.301  -0.270  1.00  0.00    -0.268 OA
INPUT-LIGAND-PDBQT: BRANCH  18  21
INPUT-LIGAND-PDBQT: ATOM     21  C   UNL     1       2.909  -0.976  -1.070  1.00  0.00     0.128 A 
INPUT-LIGAND-PDBQT: ATOM     22  C   UNL     1       2.702  -1.363  -2.376  1.00  0.00     0.035 A 
INPUT-LIGAND-PDBQT: ATOM     23  N   UNL     1       3.904  -0.106  -0.820  1.00  0.00    -0.243 NA
INPUT-LIGAND-PDBQT: ATOM     24  C   UNL     1       3.501  -0.868  -3.410  1.00  0.00     0.013 A 
INPUT-LIGAND-PDBQT: ATOM     25  C   UNL     1       4.703   0.403  -1.769  1.00  0.00     0.071 A 
INPUT-LIGAND-PDBQT: ATOM     26  C   UNL     1       4.521   0.035  -3.089  1.00  0.00     0.002 A 
INPUT-LIGAND-PDBQT: ATOM     27  C   UNL     1       5.707   1.302  -1.394  1.00  0.00     0.030 A 
INPUT-LIGAND-PDBQT: ATOM     28  C   UNL     1       5.344   0.559  -4.072  1.00  0.00     0.030 A 
INPUT-LIGAND-PDBQT: ATOM     29  C   UNL     1       6.535   1.829  -2.383  1.00  0.00     0.023 A 
INPUT-LIGAND-PDBQT: ATOM     30  C   UNL     1       6.337   1.449  -3.693  1.00  0.00     0.041 A 
INPUT-LIGAND-PDBQT: ATOM     31  Cl  UNL     1       7.406   2.142  -4.896  1.00  0.00    -0.084 Cl
INPUT-LIGAND-PDBQT: ENDBRANCH  18  21
INPUT-LIGAND-PDBQT: ENDBRANCH  16  17
INPUT-LIGAND-PDBQT: ENDBRANCH   2  16
INPUT-LIGAND-PDBQT: TORSDOF 7


    FINAL DOCKED STATE:
    ________________________


Run:   1 / 20
Time taken for this run:   0.023s

DOCKED: MODEL        1
DOCKED: USER    Run = 1
DOCKED: USER
DOCKED: USER    Estimated Free Energy of Binding    =  -8.81 kcal/mol  [=(1)+(2)+(3)-(4)]
DOCKED: USER
DOCKED: USER    (1) Final Intermolecular Energy     = -10.90 kcal/mol
DOCKED: USER        vdW + Hbond + desolv Energy     = -10.82 kcal/mol
DOCKED: USER        Electrostatic Energy            =  -0.08 kcal/mol
DOCKED: USER        Moving Ligand-Fixed Receptor    = -10.90 kcal/mol
DOCKED: USER        Moving Ligand-Moving Receptor   =  +0.00 kcal/mol
DOCKED: USER    (2) Final Total Internal Energy     =  -1.64 kcal/mol
DOCKED: USER    (3) Torsional Free Energy           =  +2.09 kcal/mol
DOCKED: USER    (4) Unbound System's Energy         =  -1.64 kcal/mol
DOCKED: USER
DOCKED: USER
DOCKED: REMARK SMILES CC(C)C[C@H](NC(=O)CNC(=O)c1ccc2cc(Cl)ccc2n1)c1ccccc1
DOCKED: REMARK SMILES IDX 6 1 7 2 8 3 5 5 4 6 2 7 1 8 3 9 24 10 25 11 29 12 26 13
DOCKED: REMARK SMILES IDX 28 14 27 15 9 16 10 17 11 18 12 20 13 21 14 22 23 23 15 24
DOCKED: REMARK SMILES IDX 22 25 16 26 21 27 17 28 20 29 18 30 19 31
DOCKED: REMARK H PARENT 6 4 10 19
DOCKED: USER                              x       y       z     vdW  Elec       q    Type
DOCKED: USER                           _______ _______ _______ _____ _____    ______ ____
DOCKED: ROOT
DOCKED: ATOM      1  N   UNL     1     138.254  70.784 224.350 -0.11 +0.07    -0.348 N  
DOCKED: ATOM      2  C   UNL     1     137.413  69.655 224.464 -0.18 -0.02    +0.239 C  
DOCKED: ATOM      3  O   UNL     1     138.001  68.530 224.587 -0.32 +0.00    -0.273 OA 
DOCKED: ATOM      4  H   UNL     1     137.844  71.725 224.236 -0.21 -0.06    +0.164 HD 
DOCKED: ENDROOT
DOCKED: BRANCH   1   5
DOCKED: ATOM      5  C   UNL     1     139.718  70.667 224.375 -0.35 -0.02    +0.112 C  
DOCKED: BRANCH   5   6
DOCKED: ATOM      6  C   UNL     1     140.325  71.850 223.682 -0.36 -0.00    +0.033 C  
DOCKED: BRANCH   6   7
DOCKED: ATOM      7  C   UNL     1     140.017  71.923 222.203 -0.29 +0.00    -0.015 C  
DOCKED: ATOM      8  C   UNL     1     139.043  73.036 221.893 -0.22 -0.00    +0.007 C  
DOCKED: ATOM      9  C   UNL     1     141.330  72.269 221.519 -0.26 -0.00    +0.007 C  
DOCKED: ENDBRANCH   6   7
DOCKED: ENDBRANCH   5   6
DOCKED: BRANCH   5  10
DOCKED: ATOM     10  C   UNL     1     140.238  70.454 225.733 -0.51 +0.00    -0.026 A  
DOCKED: ATOM     11  C   UNL     1     140.375  69.190 226.275 -0.53 -0.00    +0.006 A  
DOCKED: ATOM     12  C   UNL     1     140.621  71.520 226.543 -0.67 -0.00    +0.006 A  
DOCKED: ATOM     13  C   UNL     1     140.859  68.958 227.544 -0.63 -0.00    +0.000 A  
DOCKED: ATOM     14  C   UNL     1     141.108  71.304 227.817 -0.76 -0.00    +0.000 A  
DOCKED: ATOM     15  C   UNL     1     141.240  70.037 228.347 -0.50 -0.00    +0.000 A  
DOCKED: ENDBRANCH   5  10
DOCKED: ENDBRANCH   1   5
DOCKED: BRANCH   2  16
DOCKED: ATOM     16  C   UNL     1     135.957  69.656 224.452 -0.15 -0.02    +0.216 C  
DOCKED: BRANCH  16  17
DOCKED: ATOM     17  N   UNL     1     135.302  70.811 224.965 -0.06 +0.03    -0.342 N  
DOCKED: ATOM     18  C   UNL     1     134.166  70.711 225.838 -0.18 -0.02    +0.270 C  
DOCKED: ATOM     19  H   UNL     1     135.624  71.797 224.725 +0.04 -0.02    +0.164 HD 
DOCKED: ATOM     20  O   UNL     1     133.681  69.611 226.197 -0.58 +0.00    -0.268 OA 
DOCKED: BRANCH  18  21
DOCKED: ATOM     21  C   UNL     1     133.549  71.940 226.331 -0.30 -0.01    +0.128 A  
DOCKED: ATOM     22  C   UNL     1     132.411  71.904 227.108 -0.38 -0.01    +0.035 A  
DOCKED: ATOM     23  N   UNL     1     134.075  73.142 226.037 -0.44 -0.01    -0.243 NA 
DOCKED: ATOM     24  C   UNL     1     131.822  73.081 227.577 -0.40 -0.00    +0.013 A  
DOCKED: ATOM     25  C   UNL     1     133.555  74.305 226.458 -0.28 +0.01    +0.071 A  
DOCKED: ATOM     26  C   UNL     1     132.415  74.303 227.240 -0.42 -0.00    +0.002 A  
DOCKED: ATOM     27  C   UNL     1     134.188  75.498 226.093 -0.40 -0.00    +0.030 A  
DOCKED: ATOM     28  C   UNL     1     131.875  75.502 227.676 -0.36 -0.00    +0.030 A  
DOCKED: ATOM     29  C   UNL     1     133.645  76.703 226.532 -0.33 -0.00    +0.023 A  
DOCKED: ATOM     30  C   UNL     1     132.507  76.680 227.310 -0.33 -0.00    +0.041 A  
DOCKED: ATOM     31  Cl  UNL     1     131.867  78.224 227.835 -0.34 -0.00    -0.084 Cl 
DOCKED: ENDBRANCH  18  21
DOCKED: ENDBRANCH  16  17
DOCKED: ENDBRANCH   2  16
DOCKED: TORSDOF 7
DOCKED: TER
DOCKED: ENDMDL
________________________________________________________________________________


    FINAL DOCKED STATE:
    ________________________


Run:   2 / 20
Time taken for this run:   0.023s

DOCKED: MODEL        2
DOCKED: USER    Run = 2
DOCKED: USER
DOCKED: USER    Estimated Free Energy of Binding    =  -8.02 kcal/mol  [=(1)+(2)+(3)-(4)]
DOCKED: USER
DOCKED: USER    (1) Final Intermolecular Energy     = -10.11 kcal/mol
DOCKED: USER        vdW + Hbond + desolv Energy     = -10.09 kcal/mol
DOCKED: USER        Electrostatic Energy            =  -0.02 kcal/mol
DOCKED: USER        Moving Ligand-Fixed Receptor    = -10.11 kcal/mol
DOCKED: USER        Moving Ligand-Moving Receptor   =  +0.00 kcal/mol
DOCKED: USER    (2) Final Total Internal Energy     =  -2.13 kcal/mol
DOCKED: USER    (3) Torsional Free Energy           =  +2.09 kcal/mol
DOCKED: USER    (4) Unbound System's Energy         =  -2.13 kcal/mol
DOCKED: USER
DOCKED: USER
DOCKED: REMARK SMILES CC(C)C[C@H](NC(=O)CNC(=O)c1ccc2cc(Cl)ccc2n1)c1ccccc1
DOCKED: REMARK SMILES IDX 6 1 7 2 8 3 5 5 4 6 2 7 1 8 3 9 24 10 25 11 29 12 26 13
DOCKED: REMARK SMILES IDX 28 14 27 15 9 16 10 17 11 18 12 20 13 21 14 22 23 23 15 24
DOCKED: REMARK SMILES IDX 22 25 16 26 21 27 17 28 20 29 18 30 19 31
DOCKED: REMARK H PARENT 6 4 10 19
DOCKED: USER                              x       y       z     vdW  Elec       q    Type
DOCKED: USER                           _______ _______ _______ _____ _____    ______ ____
DOCKED: ROOT
DOCKED: ATOM      1  N   UNL     1     140.096  76.207 221.684 -0.16 +0.09    -0.348 N  
DOCKED: ATOM      2  C   UNL     1     138.777  75.945 221.250 -0.14 -0.05    +0.239 C  
DOCKED: ATOM      3  O   UNL     1     138.032  76.964 221.076 -0.06 +0.06    -0.273 OA 
DOCKED: ATOM      4  H   UNL     1     140.749  75.427 221.855 +0.04 -0.03    +0.164 HD 
DOCKED: ENDROOT
DOCKED: BRANCH   1   5
DOCKED: ATOM      5  C   UNL     1     140.578  77.576 221.917 -0.32 -0.04    +0.112 C  
DOCKED: BRANCH   5   6
DOCKED: ATOM      6  C   UNL     1     141.422  77.604 223.155 -0.18 -0.01    +0.033 C  
DOCKED: BRANCH   6   7
DOCKED: ATOM      7  C   UNL     1     141.425  78.937 223.868 -0.58 +0.00    -0.015 C  
DOCKED: ATOM      8  C   UNL     1     142.523  79.840 223.354 -0.65 -0.00    +0.007 C  
DOCKED: ATOM      9  C   UNL     1     140.100  79.598 223.525 -0.46 -0.00    +0.007 C  
DOCKED: ENDBRANCH   6   7
DOCKED: ENDBRANCH   5   6
DOCKED: BRANCH   5  10
DOCKED: ATOM     10  C   UNL     1     141.250  78.139 220.737 -0.28 +0.01    -0.026 A  
DOCKED: ATOM     11  C   UNL     1     141.984  77.353 219.868 -0.30 -0.00    +0.006 A  
DOCKED: ATOM     12  C   UNL     1     141.180  79.496 220.436 -0.27 -0.00    +0.006 A  
DOCKED: ATOM     13  C   UNL     1     142.624  77.852 218.754 -0.31 -0.00    +0.000 A  
DOCKED: ATOM     14  C   UNL     1     141.816  80.011 219.324 -0.30 -0.00    +0.000 A  
DOCKED: ATOM     15  C   UNL     1     142.545  79.216 218.463 -0.31 -0.00    +0.000 A  
DOCKED: ENDBRANCH   5  10
DOCKED: ENDBRANCH   1   5
DOCKED: BRANCH   2  16
DOCKED: ATOM     16  C   UNL     1     138.198  74.635 220.989 -0.09 -0.05    +0.216 C  
DOCKED: BRANCH  16  17
DOCKED: ATOM     17  N   UNL     1     138.410  73.622 221.968 -0.09 +0.10    -0.342 N  
DOCKED: ATOM     18  C   UNL     1     139.687  72.989 222.136 -0.17 -0.05    +0.270 C  
DOCKED: ATOM     19  H   UNL     1     137.633  73.290 222.615 -0.30 -0.07    +0.164 HD 
DOCKED: ATOM     20  O   UNL     1     140.687  73.283 221.436 -0.29 +0.03    -0.268 OA 
DOCKED: BRANCH  18  21
DOCKED: ATOM     21  C   UNL     1     139.833  71.962 223.165 -0.28 -0.02    +0.128 A  
DOCKED: ATOM     22  C   UNL     1     139.454  70.659 222.930 -0.25 -0.01    +0.035 A  
DOCKED: ATOM     23  N   UNL     1     140.342  72.264 224.373 -0.04 +0.04    -0.243 NA 
DOCKED: ATOM     24  C   UNL     1     139.593  69.679 223.916 -0.28 -0.00    +0.013 A  
DOCKED: ATOM     25  C   UNL     1     140.499  71.367 225.358 -0.50 -0.01    +0.071 A  
DOCKED: ATOM     26  C   UNL     1     140.129  70.051 225.154 -0.44 -0.00    +0.002 A  
DOCKED: ATOM     27  C   UNL     1     141.040  71.793 226.576 -0.70 -0.00    +0.030 A  
DOCKED: ATOM     28  C   UNL     1     140.291  69.123 226.169 -0.51 -0.01    +0.030 A  
DOCKED: ATOM     29  C   UNL     1     141.202  70.859 227.597 -0.57 -0.00    +0.023 A  
DOCKED: ATOM     30  C   UNL     1     140.827  69.551 227.373 -0.56 -0.01    +0.041 A  
DOCKED: ATOM     31  Cl  UNL     1     141.053  68.418 228.691 -0.71 +0.02    -0.084 Cl 
DOCKED: ENDBRANCH  18  21
DOCKED: ENDBRANCH  16  17
DOCKED: ENDBRANCH   2  16
DOCKED: TORSDOF 7
DOCKED: TER
DOCKED: ENDMDL
________________________________________________________________________________


    FINAL DOCKED STATE:
    ________________________


Run:   3 / 20
Time taken for this run:   0.023s

DOCKED: MODEL        3
DOCKED: USER    Run = 3
DOCKED: USER
DOCKED: USER    Estimated Free Energy of Binding    =  -7.87 kcal/mol  [=(1)+(2)+(3)-(4)]
DOCKED: USER
DOCKED: USER    (1) Final Intermolecular Energy     =  -9.96 kcal/mol
DOCKED: USER        vdW + Hbond + desolv Energy     =  -9.93 kcal/mol
DOCKED: USER        Electrostatic Energy            =  -0.03 kcal/mol
DOCKED: USER        Moving Ligand-Fixed Receptor    =  -9.96 kcal/mol
DOCKED: USER        Moving Ligand-Moving Receptor   =  +0.00 kcal/mol
DOCKED: USER    (2) Final Total Internal Energy     =  -2.64 kcal/mol
DOCKED: USER    (3) Torsional Free Energy           =  +2.09 kcal/mol
DOCKED: USER    (4) Unbound System's Energy         =  -2.64 kcal/mol
DOCKED: USER
DOCKED: USER
DOCKED: REMARK SMILES CC(C)C[C@H](NC(=O)CNC(=O)c1ccc2cc(Cl)ccc2n1)c1ccccc1
DOCKED: REMARK SMILES IDX 6 1 7 2 8 3 5 5 4 6 2 7 1 8 3 9 24 10 25 11 29 12 26 13
DOCKED: REMARK SMILES IDX 28 14 27 15 9 16 10 17 11 18 12 20 13 21 14 22 23 23 15 24
DOCKED: REMARK SMILES IDX 22 25 16 26 21 27 17 28 20 29 18 30 19 31
DOCKED: REMARK H PARENT 6 4 10 19
DOCKED: USER                              x       y       z     vdW  Elec       q    Type
DOCKED: USER                           _______ _______ _______ _____ _____    ______ ____
DOCKED: ROOT
DOCKED: ATOM      1  N   UNL     1     138.314  70.907 224.165 -0.12 +0.08    -0.348 N  
DOCKED: ATOM      2  C   UNL     1     137.377  69.851 224.141 -0.18 -0.03    +0.239 C  
DOCKED: ATOM      3  O   UNL     1     137.859  68.674 224.227 -0.22 +0.01    -0.273 OA 
DOCKED: ATOM      4  H   UNL     1     137.993  71.886 224.089 -0.29 -0.07    +0.164 HD 
DOCKED: ENDROOT
DOCKED: BRANCH   1   5
DOCKED: ATOM      5  C   UNL     1     139.758  70.662 224.285 -0.35 -0.02    +0.112 C  
DOCKED: BRANCH   5   6
DOCKED: ATOM      6  C   UNL     1     140.496  71.540 223.319 -0.33 -0.00    +0.033 C  
DOCKED: BRANCH   6   7
DOCKED: ATOM      7  C   UNL     1     139.604  72.241 222.319 -0.28 +0.00    -0.015 C  
DOCKED: ATOM      8  C   UNL     1     140.262  73.481 221.760 -0.28 -0.00    +0.007 C  
DOCKED: ATOM      9  C   UNL     1     139.423  71.268 221.165 -0.13 -0.00    +0.007 C  
DOCKED: ENDBRANCH   6   7
DOCKED: ENDBRANCH   5   6
DOCKED: BRANCH   5  10
DOCKED: ATOM     10  C   UNL     1     140.233  70.787 225.670 -0.53 +0.00    -0.026 A  
DOCKED: ATOM     11  C   UNL     1     139.985  69.814 226.620 -0.53 -0.00    +0.006 A  
DOCKED: ATOM     12  C   UNL     1     140.959  71.896 226.095 -0.60 -0.00    +0.006 A  
DOCKED: ATOM     13  C   UNL     1     140.416  69.903 227.926 -0.63 -0.00    +0.000 A  
DOCKED: ATOM     14  C   UNL     1     141.399  72.000 227.399 -0.79 -0.00    +0.000 A  
DOCKED: ATOM     15  C   UNL     1     141.145  71.022 228.339 -0.63 -0.00    +0.000 A  
DOCKED: ENDBRANCH   5  10
DOCKED: ENDBRANCH   1   5
DOCKED: BRANCH   2  16
DOCKED: ATOM     16  C   UNL     1     135.931  69.980 224.027 -0.14 -0.02    +0.216 C  
DOCKED: BRANCH  16  17
DOCKED: ATOM     17  N   UNL     1     135.331  71.129 224.616 -0.07 +0.04    -0.342 N  
DOCKED: ATOM     18  C   UNL     1     135.653  72.458 224.178 -0.11 -0.05    +0.270 C  
DOCKED: ATOM     19  H   UNL     1     134.619  71.055 225.403 +0.06 -0.01    +0.164 HD 
DOCKED: ATOM     20  O   UNL     1     136.479  72.689 223.261 -0.13 +0.08    -0.268 OA 
DOCKED: BRANCH  18  21
DOCKED: ATOM     21  C   UNL     1     134.993  73.590 224.823 -0.22 -0.01    +0.128 A  
DOCKED: ATOM     22  C   UNL     1     135.341  74.887 224.518 -0.33 -0.01    +0.035 A  
DOCKED: ATOM     23  N   UNL     1     134.025  73.395 225.736 -0.31 +0.00    -0.243 NA 
DOCKED: ATOM     24  C   UNL     1     134.709  75.968 225.138 -0.32 -0.00    +0.013 A  
DOCKED: ATOM     25  C   UNL     1     133.382  74.390 226.364 -0.30 +0.00    +0.071 A  
DOCKED: ATOM     26  C   UNL     1     133.708  75.704 226.080 -0.36 -0.00    +0.002 A  
DOCKED: ATOM     27  C   UNL     1     132.390  74.070 227.296 -0.41 -0.00    +0.030 A  
DOCKED: ATOM     28  C   UNL     1     133.047  76.735 226.726 -0.32 -0.00    +0.030 A  
DOCKED: ATOM     29  C   UNL     1     131.725  75.108 227.946 -0.35 -0.00    +0.023 A  
DOCKED: ATOM     30  C   UNL     1     132.065  76.410 227.649 -0.33 +0.00    +0.041 A  
DOCKED: ATOM     31  Cl  UNL     1     131.197  77.676 228.495 -0.36 -0.02    -0.084 Cl 
DOCKED: ENDBRANCH  18  21
DOCKED: ENDBRANCH  16  17
DOCKED: ENDBRANCH   2  16
DOCKED: TORSDOF 7
DOCKED: TER
DOCKED: ENDMDL
________________________________________________________________________________


    FINAL DOCKED STATE:
    ________________________


Run:   4 / 20
Time taken for this run:   0.023s

DOCKED: MODEL        4
DOCKED: USER    Run = 4
DOCKED: USER
DOCKED: USER    Estimated Free Energy of Binding    =  -8.92 kcal/mol  [=(1)+(2)+(3)-(4)]
DOCKED: USER
DOCKED: USER    (1) Final Intermolecular Energy     = -11.01 kcal/mol
DOCKED: USER        vdW + Hbond + desolv Energy     = -10.95 kcal/mol
DOCKED: USER        Electrostatic Energy            =  -0.06 kcal/mol
DOCKED: USER        Moving Ligand-Fixed Receptor    = -11.01 kcal/mol
DOCKED: USER        Moving Ligand-Moving Receptor   =  +0.00 kcal/mol
DOCKED: USER    (2) Final Total Internal Energy     =  -1.42 kcal/mol
DOCKED: USER    (3) Torsional Free Energy           =  +2.09 kcal/mol
DOCKED: USER    (4) Unbound System's Energy         =  -1.42 kcal/mol
DOCKED: USER
DOCKED: USER
DOCKED: REMARK SMILES CC(C)C[C@H](NC(=O)CNC(=O)c1ccc2cc(Cl)ccc2n1)c1ccccc1
DOCKED: REMARK SMILES IDX 6 1 7 2 8 3 5 5 4 6 2 7 1 8 3 9 24 10 25 11 29 12 26 13
DOCKED: REMARK SMILES IDX 28 14 27 15 9 16 10 17 11 18 12 20 13 21 14 22 23 23 15 24
DOCKED: REMARK SMILES IDX 22 25 16 26 21 27 17 28 20 29 18 30 19 31
DOCKED: REMARK H PARENT 6 4 10 19
DOCKED: USER                              x       y       z     vdW  Elec       q    Type
DOCKED: USER                           _______ _______ _______ _____ _____    ______ ____
DOCKED: ROOT
DOCKED: ATOM      1  N   UNL     1     140.490  77.085 220.598 -0.06 +0.12    -0.348 N  
DOCKED: ATOM      2  C   UNL     1     140.484  75.760 221.087 -0.20 -0.07    +0.239 C  
DOCKED: ATOM      3  O   UNL     1     141.603  75.310 221.499 -0.29 +0.09    -0.273 OA 
DOCKED: ATOM      4  H   UNL     1     139.619  77.508 220.239 +0.05 -0.05    +0.164 HD 
DOCKED: ENDROOT
DOCKED: BRANCH   1   5
DOCKED: ATOM      5  C   UNL     1     141.715  77.896 220.570 -0.27 -0.07    +0.112 C  
DOCKED: BRANCH   5   6
DOCKED: ATOM      6  C   UNL     1     141.852  78.548 219.227 -0.27 -0.02    +0.033 C  
DOCKED: BRANCH   6   7
DOCKED: ATOM      7  C   UNL     1     142.035  77.574 218.086 -0.24 +0.01    -0.015 C  
DOCKED: ATOM      8  C   UNL     1     142.575  78.259 216.851 -0.23 -0.01    +0.007 C  
DOCKED: ATOM      9  C   UNL     1     143.090  76.581 218.548 -0.32 -0.00    +0.007 C  
DOCKED: ENDBRANCH   6   7
DOCKED: ENDBRANCH   5   6
DOCKED: BRANCH   5  10
DOCKED: ATOM     10  C   UNL     1     141.782  78.845 221.691 -0.41 +0.01    -0.026 A  
DOCKED: ATOM     11  C   UNL     1     142.136  80.169 221.510 -0.43 -0.00    +0.006 A  
DOCKED: ATOM     12  C   UNL     1     141.489  78.455 222.995 -0.53 -0.00    +0.006 A  
DOCKED: ATOM     13  C   UNL     1     142.207  81.081 222.541 -0.53 -0.00    +0.000 A  
DOCKED: ATOM     14  C   UNL     1     141.555  79.357 224.038 -0.56 -0.00    +0.000 A  
DOCKED: ATOM     15  C   UNL     1     141.911  80.676 223.845 -0.61 -0.00    +0.000 A  
DOCKED: ENDBRANCH   5  10
DOCKED: ENDBRANCH   1   5
DOCKED: BRANCH   2  16
DOCKED: ATOM     16  C   UNL     1     139.333  74.871 221.160 -0.16 -0.05    +0.216 C  
DOCKED: BRANCH  16  17
DOCKED: ATOM     17  N   UNL     1     139.354  73.858 222.161 -0.11 +0.07    -0.342 N  
DOCKED: ATOM     18  C   UNL     1     140.064  72.625 221.973 -0.20 -0.04    +0.270 C  
DOCKED: ATOM     19  H   UNL     1     138.847  73.970 223.090 -0.55 -0.10    +0.164 HD 
DOCKED: ATOM     20  O   UNL     1     140.702  72.362 220.924 -0.12 +0.04    -0.268 OA 
DOCKED: BRANCH  18  21
DOCKED: ATOM     21  C   UNL     1     140.048  71.634 223.046 -0.29 -0.02    +0.128 A  
DOCKED: ATOM     22  C   UNL     1     139.535  70.371 222.844 -0.22 -0.01    +0.035 A  
DOCKED: ATOM     23  N   UNL     1     140.535  71.929 224.265 -0.24 +0.03    -0.243 NA 
DOCKED: ATOM     24  C   UNL     1     139.519  69.426 223.872 -0.25 -0.00    +0.013 A  
DOCKED: ATOM     25  C   UNL     1     140.547  71.064 225.290 -0.50 -0.01    +0.071 A  
DOCKED: ATOM     26  C   UNL     1     140.039  69.790 225.119 -0.42 -0.00    +0.002 A  
DOCKED: ATOM     27  C   UNL     1     141.079  71.479 226.516 -0.69 -0.00    +0.030 A  
DOCKED: ATOM     28  C   UNL     1     140.051  68.894 226.176 -0.51 -0.01    +0.030 A  
DOCKED: ATOM     29  C   UNL     1     141.090  70.578 227.578 -0.61 -0.00    +0.023 A  
DOCKED: ATOM     30  C   UNL     1     140.579  69.313 227.387 -0.58 -0.01    +0.041 A  
DOCKED: ATOM     31  Cl  UNL     1     140.619  68.220 228.756 -0.57 +0.02    -0.084 Cl 
DOCKED: ENDBRANCH  18  21
DOCKED: ENDBRANCH  16  17
DOCKED: ENDBRANCH   2  16
DOCKED: TORSDOF 7
DOCKED: TER
DOCKED: ENDMDL
________________________________________________________________________________


    FINAL DOCKED STATE:
    ________________________


Run:   5 / 20
Time taken for this run:   0.023s

DOCKED: MODEL        5
DOCKED: USER    Run = 5
DOCKED: USER
DOCKED: USER    Estimated Free Energy of Binding    =  -8.37 kcal/mol  [=(1)+(2)+(3)-(4)]
DOCKED: USER
DOCKED: USER    (1) Final Intermolecular Energy     = -10.46 kcal/mol
DOCKED: USER        vdW + Hbond + desolv Energy     = -10.41 kcal/mol
DOCKED: USER        Electrostatic Energy            =  -0.05 kcal/mol
DOCKED: USER        Moving Ligand-Fixed Receptor    = -10.46 kcal/mol
DOCKED: USER        Moving Ligand-Moving Receptor   =  +0.00 kcal/mol
DOCKED: USER    (2) Final Total Internal Energy     =  -1.86 kcal/mol
DOCKED: USER    (3) Torsional Free Energy           =  +2.09 kcal/mol
DOCKED: USER    (4) Unbound System's Energy         =  -1.86 kcal/mol
DOCKED: USER
DOCKED: USER
DOCKED: REMARK SMILES CC(C)C[C@H](NC(=O)CNC(=O)c1ccc2cc(Cl)ccc2n1)c1ccccc1
DOCKED: REMARK SMILES IDX 6 1 7 2 8 3 5 5 4 6 2 7 1 8 3 9 24 10 25 11 29 12 26 13
DOCKED: REMARK SMILES IDX 28 14 27 15 9 16 10 17 11 18 12 20 13 21 14 22 23 23 15 24
DOCKED: REMARK SMILES IDX 22 25 16 26 21 27 17 28 20 29 18 30 19 31
DOCKED: REMARK H PARENT 6 4 10 19
DOCKED: USER                              x       y       z     vdW  Elec       q    Type
DOCKED: USER                           _______ _______ _______ _____ _____    ______ ____
DOCKED: ROOT
DOCKED: ATOM      1  N   UNL     1     142.180  75.700 220.663 -0.09 +0.18    -0.348 N  
DOCKED: ATOM      2  C   UNL     1     140.935  75.185 220.238 -0.13 -0.07    +0.239 C  
DOCKED: ATOM      3  O   UNL     1     140.874  74.798 219.025 -0.03 +0.07    -0.273 OA 
DOCKED: ATOM      4  H   UNL     1     142.296  76.042 221.631 -0.50 -0.14    +0.164 HD 
DOCKED: ENDROOT
DOCKED: BRANCH   1   5
DOCKED: ATOM      5  C   UNL     1     143.336  75.780 219.759 -0.33 -0.07    +0.112 C  
DOCKED: BRANCH   5   6
DOCKED: ATOM      6  C   UNL     1     143.810  74.396 219.432 -0.32 -0.01    +0.033 C  
DOCKED: BRANCH   6   7
DOCKED: ATOM      7  C   UNL     1     144.248  73.594 220.637 -0.43 +0.00    -0.015 C  
DOCKED: ATOM      8  C   UNL     1     143.971  72.119 220.453 -0.34 -0.00    +0.007 C  
DOCKED: ATOM      9  C   UNL     1     145.756  73.761 220.725 -0.66 -0.00    +0.007 C  
DOCKED: ENDBRANCH   6   7
DOCKED: ENDBRANCH   5   6
DOCKED: BRANCH   5  10
DOCKED: ATOM     10  C   UNL     1     143.060  76.601 218.572 -0.32 +0.02    -0.026 A  
DOCKED: ATOM     11  C   UNL     1     143.314  76.145 217.292 -0.24 -0.00    +0.006 A  
DOCKED: ATOM     12  C   UNL     1     142.526  77.882 218.679 -0.32 -0.00    +0.006 A  
DOCKED: ATOM     13  C   UNL     1     143.066  76.891 216.160 -0.20 -0.00    +0.000 A  
DOCKED: ATOM     14  C   UNL     1     142.272  78.642 217.555 -0.28 -0.00    +0.000 A  
DOCKED: ATOM     15  C   UNL     1     142.530  78.176 216.282 -0.19 -0.00    +0.000 A  
DOCKED: ENDBRANCH   5  10
DOCKED: ENDBRANCH   1   5
DOCKED: BRANCH   2  16
DOCKED: ATOM     16  C   UNL     1     139.730  75.060 221.046 -0.17 -0.05    +0.216 C  
DOCKED: BRANCH  16  17
DOCKED: ATOM     17  N   UNL     1     139.732  74.072 222.072 -0.13 +0.04    -0.342 N  
DOCKED: ATOM     18  C   UNL     1     140.028  72.695 221.794 -0.18 -0.04    +0.270 C  
DOCKED: ATOM     19  H   UNL     1     139.516  74.310 223.087 -0.53 -0.02    +0.164 HD 
DOCKED: ATOM     20  O   UNL     1     140.297  72.278 220.641 -0.07 +0.04    -0.268 OA 
DOCKED: BRANCH  18  21
DOCKED: ATOM     21  C   UNL     1     140.019  71.738 222.898 -0.29 -0.02    +0.128 A  
DOCKED: ATOM     22  C   UNL     1     139.526  70.462 222.732 -0.22 -0.01    +0.035 A  
DOCKED: ATOM     23  N   UNL     1     140.493  72.078 224.110 -0.19 +0.03    -0.243 NA 
DOCKED: ATOM     24  C   UNL     1     139.517  69.549 223.789 -0.26 -0.00    +0.013 A  
DOCKED: ATOM     25  C   UNL     1     140.511  71.247 225.162 -0.49 -0.01    +0.071 A  
DOCKED: ATOM     26  C   UNL     1     140.023  69.960 225.028 -0.42 -0.00    +0.002 A  
DOCKED: ATOM     27  C   UNL     1     141.029  71.708 226.377 -0.67 -0.00    +0.030 A  
DOCKED: ATOM     28  C   UNL     1     140.041  69.098 226.112 -0.50 -0.01    +0.030 A  
DOCKED: ATOM     29  C   UNL     1     141.046  70.841 227.467 -0.65 -0.00    +0.023 A  
DOCKED: ATOM     30  C   UNL     1     140.555  69.562 227.313 -0.56 -0.01    +0.041 A  
DOCKED: ATOM     31  Cl  UNL     1     140.601  68.513 228.716 -0.70 +0.02    -0.084 Cl 
DOCKED: ENDBRANCH  18  21
DOCKED: ENDBRANCH  16  17
DOCKED: ENDBRANCH   2  16
DOCKED: TORSDOF 7
DOCKED: TER
DOCKED: ENDMDL
________________________________________________________________________________


    FINAL DOCKED STATE:
    ________________________


Run:   6 / 20
Time taken for this run:   0.023s

DOCKED: MODEL        6
DOCKED: USER    Run = 6
DOCKED: USER
DOCKED: USER    Estimated Free Energy of Binding    =  -8.08 kcal/mol  [=(1)+(2)+(3)-(4)]
DOCKED: USER
DOCKED: USER    (1) Final Intermolecular Energy     = -10.17 kcal/mol
DOCKED: USER        vdW + Hbond + desolv Energy     = -10.12 kcal/mol
DOCKED: USER        Electrostatic Energy            =  -0.05 kcal/mol
DOCKED: USER        Moving Ligand-Fixed Receptor    = -10.17 kcal/mol
DOCKED: USER        Moving Ligand-Moving Receptor   =  +0.00 kcal/mol
DOCKED: USER    (2) Final Total Internal Energy     =  -2.16 kcal/mol
DOCKED: USER    (3) Torsional Free Energy           =  +2.09 kcal/mol
DOCKED: USER    (4) Unbound System's Energy         =  -2.16 kcal/mol
DOCKED: USER
DOCKED: USER
DOCKED: REMARK SMILES CC(C)C[C@H](NC(=O)CNC(=O)c1ccc2cc(Cl)ccc2n1)c1ccccc1
DOCKED: REMARK SMILES IDX 6 1 7 2 8 3 5 5 4 6 2 7 1 8 3 9 24 10 25 11 29 12 26 13
DOCKED: REMARK SMILES IDX 28 14 27 15 9 16 10 17 11 18 12 20 13 21 14 22 23 23 15 24
DOCKED: REMARK SMILES IDX 22 25 16 26 21 27 17 28 20 29 18 30 19 31
DOCKED: REMARK H PARENT 6 4 10 19
DOCKED: USER                              x       y       z     vdW  Elec       q    Type
DOCKED: USER                           _______ _______ _______ _____ _____    ______ ____
DOCKED: ROOT
DOCKED: ATOM      1  N   UNL     1     141.523  74.609 220.496 -0.10 +0.09    -0.348 N  
DOCKED: ATOM      2  C   UNL     1     140.237  75.153 220.283 -0.10 -0.06    +0.239 C  
DOCKED: ATOM      3  O   UNL     1     140.116  75.925 219.276 -0.03 +0.08    -0.273 OA 
DOCKED: ATOM      4  H   UNL     1     141.694  73.984 221.300 +0.05 -0.03    +0.164 HD 
DOCKED: ENDROOT
DOCKED: BRANCH   1   5
DOCKED: ATOM      5  C   UNL     1     142.652  74.913 219.606 -0.24 -0.04    +0.112 C  
DOCKED: BRANCH   5   6
DOCKED: ATOM      6  C   UNL     1     142.960  76.378 219.673 -0.36 -0.02    +0.033 C  
DOCKED: BRANCH   6   7
DOCKED: ATOM      7  C   UNL     1     143.295  76.999 218.335 -0.25 +0.01    -0.015 C  
DOCKED: ATOM      8  C   UNL     1     142.781  76.159 217.188 -0.20 -0.00    +0.007 C  
DOCKED: ATOM      9  C   UNL     1     142.552  78.325 218.291 -0.32 -0.01    +0.007 C  
DOCKED: ENDBRANCH   6   7
DOCKED: ENDBRANCH   5   6
DOCKED: BRANCH   5  10
DOCKED: ATOM     10  C   UNL     1     143.818  74.057 219.870 -0.35 +0.01    -0.026 A  
DOCKED: ATOM     11  C   UNL     1     144.945  74.533 220.511 -0.47 -0.00    +0.006 A  
DOCKED: ATOM     12  C   UNL     1     143.842  72.719 219.486 -0.24 -0.00    +0.006 A  
DOCKED: ATOM     13  C   UNL     1     146.053  73.756 220.773 -0.70 -0.00    +0.000 A  
DOCKED: ATOM     14  C   UNL     1     144.943  71.927 219.741 -0.35 +0.00    +0.000 A  
DOCKED: ATOM     15  C   UNL     1     146.064  72.414 220.382 -0.41 +0.00    +0.000 A  
DOCKED: ENDBRANCH   5  10
DOCKED: ENDBRANCH   1   5
DOCKED: BRANCH   2  16
DOCKED: ATOM     16  C   UNL     1     139.054  74.919 221.098 -0.14 -0.05    +0.216 C  
DOCKED: BRANCH  16  17
DOCKED: ATOM     17  N   UNL     1     139.147  73.924 222.113 -0.10 +0.08    -0.342 N  
DOCKED: ATOM     18  C   UNL     1     139.792  72.664 221.878 -0.18 -0.04    +0.270 C  
DOCKED: ATOM     19  H   UNL     1     138.745  74.071 223.087 -0.56 -0.11    +0.164 HD 
DOCKED: ATOM     20  O   UNL     1     140.305  72.360 220.774 -0.09 +0.04    -0.268 OA 
DOCKED: BRANCH  18  21
DOCKED: ATOM     21  C   UNL     1     139.856  71.693 222.968 -0.28 -0.02    +0.128 A  
DOCKED: ATOM     22  C   UNL     1     139.406  70.402 222.801 -0.22 -0.01    +0.035 A  
DOCKED: ATOM     23  N   UNL     1     140.357  72.036 224.168 -0.22 +0.04    -0.243 NA 
DOCKED: ATOM     24  C   UNL     1     139.467  69.476 223.845 -0.26 -0.00    +0.013 A  
DOCKED: ATOM     25  C   UNL     1     140.442  71.193 225.208 -0.49 -0.01    +0.071 A  
DOCKED: ATOM     26  C   UNL     1     139.999  69.890 225.072 -0.42 -0.00    +0.002 A  
DOCKED: ATOM     27  C   UNL     1     140.982  71.659 226.411 -0.67 -0.00    +0.030 A  
DOCKED: ATOM     28  C   UNL     1     140.085  69.017 226.143 -0.50 -0.01    +0.030 A  
DOCKED: ATOM     29  C   UNL     1     141.068  70.779 227.489 -0.64 -0.00    +0.023 A  
DOCKED: ATOM     30  C   UNL     1     140.621  69.485 227.332 -0.57 -0.01    +0.041 A  
DOCKED: ATOM     31  Cl  UNL     1     140.754  68.422 228.719 -0.70 +0.02    -0.084 Cl 
DOCKED: ENDBRANCH  18  21
DOCKED: ENDBRANCH  16  17
DOCKED: ENDBRANCH   2  16
DOCKED: TORSDOF 7
DOCKED: TER
DOCKED: ENDMDL
________________________________________________________________________________


    FINAL DOCKED STATE:
    ________________________


Run:   7 / 20
Time taken for this run:   0.023s

DOCKED: MODEL        7
DOCKED: USER    Run = 7
DOCKED: USER
DOCKED: USER    Estimated Free Energy of Binding    =  -7.03 kcal/mol  [=(1)+(2)+(3)-(4)]
DOCKED: USER
DOCKED: USER    (1) Final Intermolecular Energy     =  -9.12 kcal/mol
DOCKED: USER        vdW + Hbond + desolv Energy     =  -9.09 kcal/mol
DOCKED: USER        Electrostatic Energy            =  -0.03 kcal/mol
DOCKED: USER        Moving Ligand-Fixed Receptor    =  -9.12 kcal/mol
DOCKED: USER        Moving Ligand-Moving Receptor   =  +0.00 kcal/mol
DOCKED: USER    (2) Final Total Internal Energy     =  -2.47 kcal/mol
DOCKED: USER    (3) Torsional Free Energy           =  +2.09 kcal/mol
DOCKED: USER    (4) Unbound System's Energy         =  -2.47 kcal/mol
DOCKED: USER
DOCKED: USER
DOCKED: REMARK SMILES CC(C)C[C@H](NC(=O)CNC(=O)c1ccc2cc(Cl)ccc2n1)c1ccccc1
DOCKED: REMARK SMILES IDX 6 1 7 2 8 3 5 5 4 6 2 7 1 8 3 9 24 10 25 11 29 12 26 13
DOCKED: REMARK SMILES IDX 28 14 27 15 9 16 10 17 11 18 12 20 13 21 14 22 23 23 15 24
DOCKED: REMARK SMILES IDX 22 25 16 26 21 27 17 28 20 29 18 30 19 31
DOCKED: REMARK H PARENT 6 4 10 19
DOCKED: USER                              x       y       z     vdW  Elec       q    Type
DOCKED: USER                           _______ _______ _______ _____ _____    ______ ____
DOCKED: ROOT
DOCKED: ATOM      1  N   UNL     1     139.000  71.522 223.646 -0.14 +0.10    -0.348 N  
DOCKED: ATOM      2  C   UNL     1     139.825  71.024 222.614 -0.18 -0.04    +0.239 C  
DOCKED: ATOM      3  O   UNL     1     139.934  69.756 222.546 -0.06 +0.05    -0.273 OA 
DOCKED: ATOM      4  H   UNL     1     138.876  72.540 223.765 -0.29 -0.10    +0.164 HD 
DOCKED: ENDROOT
DOCKED: BRANCH   1   5
DOCKED: ATOM      5  C   UNL     1     138.305  70.628 224.583 -0.19 -0.02    +0.112 C  
DOCKED: BRANCH   5   6
DOCKED: ATOM      6  C   UNL     1     137.370  69.736 223.823 -0.23 -0.00    +0.033 C  
DOCKED: BRANCH   6   7
DOCKED: ATOM      7  C   UNL     1     135.911  70.109 223.966 -0.19 +0.00    -0.015 C  
DOCKED: ATOM      8  C   UNL     1     135.364  69.703 225.316 -0.24 -0.00    +0.007 C  
DOCKED: ATOM      9  C   UNL     1     135.858  71.627 223.897 -0.20 -0.00    +0.007 C  
DOCKED: ENDBRANCH   6   7
DOCKED: ENDBRANCH   5   6
DOCKED: BRANCH   5  10
DOCKED: ATOM     10  C   UNL     1     139.238  69.894 225.450 -0.40 +0.00    -0.026 A  
DOCKED: ATOM     11  C   UNL     1     139.188  68.519 225.582 -0.48 -0.00    +0.006 A  
DOCKED: ATOM     12  C   UNL     1     140.222  70.551 226.183 -0.55 -0.00    +0.006 A  
DOCKED: ATOM     13  C   UNL     1     140.049  67.804 226.387 -0.66 -0.00    +0.000 A  
DOCKED: ATOM     14  C   UNL     1     141.093  69.849 226.993 -0.56 -0.00    +0.000 A  
DOCKED: ATOM     15  C   UNL     1     141.033  68.476 227.117 -0.64 -0.00    +0.000 A  
DOCKED: ENDBRANCH   5  10
DOCKED: ENDBRANCH   1   5
DOCKED: BRANCH   2  16
DOCKED: ATOM     16  C   UNL     1     140.556  71.815 221.634 -0.17 -0.03    +0.216 C  
DOCKED: BRANCH  16  17
DOCKED: ATOM     17  N   UNL     1     140.544  73.230 221.799 -0.16 +0.03    -0.342 N  
DOCKED: ATOM     18  C   UNL     1     139.318  73.964 221.932 -0.16 -0.06    +0.270 C  
DOCKED: ATOM     19  H   UNL     1     141.440  73.803 221.830 +0.05 -0.01    +0.164 HD 
DOCKED: ATOM     20  O   UNL     1     138.191  73.413 221.909 -0.13 +0.08    -0.268 OA 
DOCKED: BRANCH  18  21
DOCKED: ATOM     21  C   UNL     1     139.383  75.414 222.105 -0.26 -0.02    +0.128 A  
DOCKED: ATOM     22  C   UNL     1     138.307  76.122 222.594 -0.28 -0.01    +0.035 A  
DOCKED: ATOM     23  N   UNL     1     140.497  76.097 221.789 -0.28 +0.06    -0.243 NA 
DOCKED: ATOM     24  C   UNL     1     138.371  77.509 222.757 -0.28 -0.00    +0.013 A  
DOCKED: ATOM     25  C   UNL     1     140.619  77.426 221.923 -0.34 -0.02    +0.071 A  
DOCKED: ATOM     26  C   UNL     1     139.558  78.165 222.411 -0.32 -0.00    +0.002 A  
DOCKED: ATOM     27  C   UNL     1     141.827  78.032 221.563 -0.21 -0.02    +0.030 A  
DOCKED: ATOM     28  C   UNL     1     139.679  79.538 222.552 -0.30 -0.01    +0.030 A  
DOCKED: ATOM     29  C   UNL     1     141.949  79.413 221.704 -0.42 -0.01    +0.023 A  
DOCKED: ATOM     30  C   UNL     1     140.879  80.132 222.193 -0.35 -0.01    +0.041 A  
DOCKED: ATOM     31  Cl  UNL     1     141.087  81.865 222.350 -0.45 +0.01    -0.084 Cl 
DOCKED: ENDBRANCH  18  21
DOCKED: ENDBRANCH  16  17
DOCKED: ENDBRANCH   2  16
DOCKED: TORSDOF 7
DOCKED: TER
DOCKED: ENDMDL
________________________________________________________________________________


    FINAL DOCKED STATE:
    ________________________


Run:   8 / 20
Time taken for this run:   0.023s

DOCKED: MODEL        8
DOCKED: USER    Run = 8
DOCKED: USER
DOCKED: USER    Estimated Free Energy of Binding    =  -7.84 kcal/mol  [=(1)+(2)+(3)-(4)]
DOCKED: USER
DOCKED: USER    (1) Final Intermolecular Energy     =  -9.92 kcal/mol
DOCKED: USER        vdW + Hbond + desolv Energy     =  -9.89 kcal/mol
DOCKED: USER        Electrostatic Energy            =  -0.03 kcal/mol
DOCKED: USER        Moving Ligand-Fixed Receptor    =  -9.92 kcal/mol
DOCKED: USER        Moving Ligand-Moving Receptor   =  +0.00 kcal/mol
DOCKED: USER    (2) Final Total Internal Energy     =  -2.64 kcal/mol
DOCKED: USER    (3) Torsional Free Energy           =  +2.09 kcal/mol
DOCKED: USER    (4) Unbound System's Energy         =  -2.64 kcal/mol
DOCKED: USER
DOCKED: USER
DOCKED: REMARK SMILES CC(C)C[C@H](NC(=O)CNC(=O)c1ccc2cc(Cl)ccc2n1)c1ccccc1
DOCKED: REMARK SMILES IDX 6 1 7 2 8 3 5 5 4 6 2 7 1 8 3 9 24 10 25 11 29 12 26 13
DOCKED: REMARK SMILES IDX 28 14 27 15 9 16 10 17 11 18 12 20 13 21 14 22 23 23 15 24
DOCKED: REMARK SMILES IDX 22 25 16 26 21 27 17 28 20 29 18 30 19 31
DOCKED: REMARK H PARENT 6 4 10 19
DOCKED: USER                              x       y       z     vdW  Elec       q    Type
DOCKED: USER                           _______ _______ _______ _____ _____    ______ ____
DOCKED: ROOT
DOCKED: ATOM      1  N   UNL     1     138.277  70.903 224.197 -0.12 +0.08    -0.348 N  
DOCKED: ATOM      2  C   UNL     1     137.327  69.870 224.356 -0.17 -0.03    +0.239 C  
DOCKED: ATOM      3  O   UNL     1     137.797  68.709 224.592 -0.24 +0.01    -0.273 OA 
DOCKED: ATOM      4  H   UNL     1     137.965  71.866 223.993 -0.26 -0.07    +0.164 HD 
DOCKED: ENDROOT
DOCKED: BRANCH   1   5
DOCKED: ATOM      5  C   UNL     1     139.721  70.652 224.301 -0.35 -0.02    +0.112 C  
DOCKED: BRANCH   5   6
DOCKED: ATOM      6  C   UNL     1     140.453  71.545 223.345 -0.34 -0.00    +0.033 C  
DOCKED: BRANCH   6   7
DOCKED: ATOM      7  C   UNL     1     139.555  72.269 222.368 -0.28 +0.00    -0.015 C  
DOCKED: ATOM      8  C   UNL     1     140.176  73.565 221.898 -0.27 -0.00    +0.007 C  
DOCKED: ATOM      9  C   UNL     1     139.436  71.360 221.155 -0.13 -0.00    +0.007 C  
DOCKED: ENDBRANCH   6   7
DOCKED: ENDBRANCH   5   6
DOCKED: BRANCH   5  10
DOCKED: ATOM     10  C   UNL     1     140.207  70.754 225.685 -0.53 +0.00    -0.026 A  
DOCKED: ATOM     11  C   UNL     1     139.982  69.756 226.615 -0.53 -0.00    +0.006 A  
DOCKED: ATOM     12  C   UNL     1     140.920  71.863 226.128 -0.62 -0.00    +0.006 A  
DOCKED: ATOM     13  C   UNL     1     140.424  69.822 227.918 -0.63 -0.00    +0.000 A  
DOCKED: ATOM     14  C   UNL     1     141.371  71.945 227.430 -0.79 -0.00    +0.000 A  
DOCKED: ATOM     15  C   UNL     1     141.140  70.942 228.350 -0.61 -0.00    +0.000 A  
DOCKED: ENDBRANCH   5  10
DOCKED: ENDBRANCH   1   5
DOCKED: BRANCH   2  16
DOCKED: ATOM     16  C   UNL     1     135.880  70.006 224.274 -0.15 -0.02    +0.216 C  
DOCKED: BRANCH  16  17
DOCKED: ATOM     17  N   UNL     1     135.302  71.178 224.840 -0.04 +0.03    -0.342 N  
DOCKED: ATOM     18  C   UNL     1     135.587  72.487 224.322 -0.08 -0.05    +0.270 C  
DOCKED: ATOM     19  H   UNL     1     134.635  71.137 225.668 +0.06 -0.01    +0.164 HD 
DOCKED: ATOM     20  O   UNL     1     136.359  72.679 223.351 -0.14 +0.08    -0.268 OA 
DOCKED: BRANCH  18  21
DOCKED: ATOM     21  C   UNL     1     134.953  73.644 224.949 -0.22 -0.01    +0.128 A  
DOCKED: ATOM     22  C   UNL     1     135.321  74.928 224.613 -0.34 -0.01    +0.035 A  
DOCKED: ATOM     23  N   UNL     1     133.990  73.485 225.875 -0.43 -0.00    -0.243 NA 
DOCKED: ATOM     24  C   UNL     1     134.714  76.033 225.215 -0.31 -0.00    +0.013 A  
DOCKED: ATOM     25  C   UNL     1     133.372  74.506 226.487 -0.30 +0.00    +0.071 A  
DOCKED: ATOM     26  C   UNL     1     133.718  75.806 226.172 -0.37 -0.00    +0.002 A  
DOCKED: ATOM     27  C   UNL     1     132.383  74.223 227.435 -0.41 -0.00    +0.030 A  
DOCKED: ATOM     28  C   UNL     1     133.081  76.863 226.801 -0.33 -0.00    +0.030 A  
DOCKED: ATOM     29  C   UNL     1     131.742  75.286 228.069 -0.29 -0.00    +0.023 A  
DOCKED: ATOM     30  C   UNL     1     132.102  76.575 227.740 -0.32 +0.00    +0.041 A  
DOCKED: ATOM     31  Cl  UNL     1     131.264  77.874 228.566 -0.36 -0.02    -0.084 Cl 
DOCKED: ENDBRANCH  18  21
DOCKED: ENDBRANCH  16  17
DOCKED: ENDBRANCH   2  16
DOCKED: TORSDOF 7
DOCKED: TER
DOCKED: ENDMDL
________________________________________________________________________________


    FINAL DOCKED STATE:
    ________________________


Run:   9 / 20
Time taken for this run:   0.023s

DOCKED: MODEL        9
DOCKED: USER    Run = 9
DOCKED: USER
DOCKED: USER    Estimated Free Energy of Binding    =  -7.89 kcal/mol  [=(1)+(2)+(3)-(4)]
DOCKED: USER
DOCKED: USER    (1) Final Intermolecular Energy     =  -9.98 kcal/mol
DOCKED: USER        vdW + Hbond + desolv Energy     =  -9.95 kcal/mol
DOCKED: USER        Electrostatic Energy            =  -0.03 kcal/mol
DOCKED: USER        Moving Ligand-Fixed Receptor    =  -9.98 kcal/mol
DOCKED: USER        Moving Ligand-Moving Receptor   =  +0.00 kcal/mol
DOCKED: USER    (2) Final Total Internal Energy     =  -2.64 kcal/mol
DOCKED: USER    (3) Torsional Free Energy           =  +2.09 kcal/mol
DOCKED: USER    (4) Unbound System's Energy         =  -2.64 kcal/mol
DOCKED: USER
DOCKED: USER
DOCKED: REMARK SMILES CC(C)C[C@H](NC(=O)CNC(=O)c1ccc2cc(Cl)ccc2n1)c1ccccc1
DOCKED: REMARK SMILES IDX 6 1 7 2 8 3 5 5 4 6 2 7 1 8 3 9 24 10 25 11 29 12 26 13
DOCKED: REMARK SMILES IDX 28 14 27 15 9 16 10 17 11 18 12 20 13 21 14 22 23 23 15 24
DOCKED: REMARK SMILES IDX 22 25 16 26 21 27 17 28 20 29 18 30 19 31
DOCKED: REMARK H PARENT 6 4 10 19
DOCKED: USER                              x       y       z     vdW  Elec       q    Type
DOCKED: USER                           _______ _______ _______ _____ _____    ______ ____
DOCKED: ROOT
DOCKED: ATOM      1  N   UNL     1     138.324  70.912 224.225 -0.12 +0.08    -0.348 N  
DOCKED: ATOM      2  C   UNL     1     137.399  69.846 224.250 -0.18 -0.03    +0.239 C  
DOCKED: ATOM      3  O   UNL     1     137.895  68.676 224.354 -0.24 +0.01    -0.273 OA 
DOCKED: ATOM      4  H   UNL     1     137.991  71.885 224.132 -0.30 -0.07    +0.164 HD 
DOCKED: ENDROOT
DOCKED: BRANCH   1   5
DOCKED: ATOM      5  C   UNL     1     139.773  70.685 224.317 -0.35 -0.02    +0.112 C  
DOCKED: BRANCH   5   6
DOCKED: ATOM      6  C   UNL     1     140.485  71.608 223.374 -0.33 -0.00    +0.033 C  
DOCKED: BRANCH   6   7
DOCKED: ATOM      7  C   UNL     1     139.582  72.255 222.348 -0.29 +0.00    -0.015 C  
DOCKED: ATOM      8  C   UNL     1     140.223  73.480 221.738 -0.28 -0.00    +0.007 C  
DOCKED: ATOM      9  C   UNL     1     139.413  71.234 221.235 -0.14 -0.00    +0.007 C  
DOCKED: ENDBRANCH   6   7
DOCKED: ENDBRANCH   5   6
DOCKED: BRANCH   5  10
DOCKED: ATOM     10  C   UNL     1     140.265  70.768 225.700 -0.54 +0.00    -0.026 A  
DOCKED: ATOM     11  C   UNL     1     140.937  71.879 226.172 -0.63 -0.00    +0.006 A  
DOCKED: ATOM     12  C   UNL     1     140.074  69.728 226.605 -0.53 -0.00    +0.006 A  
DOCKED: ATOM     13  C   UNL     1     141.409  71.986 227.463 -0.79 -0.00    +0.000 A  
DOCKED: ATOM     14  C   UNL     1     140.541  69.820 227.901 -0.63 -0.00    +0.000 A  
DOCKED: ATOM     15  C   UNL     1     141.212  70.934 228.361 -0.57 -0.00    +0.000 A  
DOCKED: ENDBRANCH   5  10
DOCKED: ENDBRANCH   1   5
DOCKED: BRANCH   2  16
DOCKED: ATOM     16  C   UNL     1     135.949  69.957 224.167 -0.14 -0.02    +0.216 C  
DOCKED: BRANCH  16  17
DOCKED: ATOM     17  N   UNL     1     135.351  71.122 224.728 -0.06 +0.03    -0.342 N  
DOCKED: ATOM     18  C   UNL     1     135.643  72.436 224.229 -0.11 -0.05    +0.270 C  
DOCKED: ATOM     19  H   UNL     1     134.664  71.070 225.538 +0.06 -0.01    +0.164 HD 
DOCKED: ATOM     20  O   UNL     1     136.439  72.640 223.280 -0.14 +0.08    -0.268 OA 
DOCKED: BRANCH  18  21
DOCKED: ATOM     21  C   UNL     1     134.988  73.584 224.850 -0.22 -0.01    +0.128 A  
DOCKED: ATOM     22  C   UNL     1     135.339  74.873 224.514 -0.33 -0.01    +0.035 A  
DOCKED: ATOM     23  N   UNL     1     134.021  73.413 225.769 -0.34 -0.00    -0.243 NA 
DOCKED: ATOM     24  C   UNL     1     134.711  75.970 225.110 -0.32 -0.00    +0.013 A  
DOCKED: ATOM     25  C   UNL     1     133.382  74.425 226.375 -0.30 +0.00    +0.071 A  
DOCKED: ATOM     26  C   UNL     1     133.711  75.730 226.060 -0.36 -0.00    +0.002 A  
DOCKED: ATOM     27  C   UNL     1     132.391  74.129 227.316 -0.41 -0.00    +0.030 A  
DOCKED: ATOM     28  C   UNL     1     133.054  76.778 226.683 -0.32 -0.00    +0.030 A  
DOCKED: ATOM     29  C   UNL     1     131.730  75.184 227.943 -0.35 -0.00    +0.023 A  
DOCKED: ATOM     30  C   UNL     1     132.073  76.477 227.615 -0.33 +0.00    +0.041 A  
DOCKED: ATOM     31  Cl  UNL     1     131.210  77.765 228.433 -0.37 -0.01    -0.084 Cl 
DOCKED: ENDBRANCH  18  21
DOCKED: ENDBRANCH  16  17
DOCKED: ENDBRANCH   2  16
DOCKED: TORSDOF 7
DOCKED: TER
DOCKED: ENDMDL
________________________________________________________________________________


    FINAL DOCKED STATE:
    ________________________


Run:   10 / 20
Time taken for this run:   0.023s

DOCKED: MODEL        10
DOCKED: USER    Run = 10
DOCKED: USER
DOCKED: USER    Estimated Free Energy of Binding    =  -8.66 kcal/mol  [=(1)+(2)+(3)-(4)]
DOCKED: USER
DOCKED: USER    (1) Final Intermolecular Energy     = -10.75 kcal/mol
DOCKED: USER        vdW + Hbond + desolv Energy     = -10.71 kcal/mol
DOCKED: USER        Electrostatic Energy            =  -0.03 kcal/mol
DOCKED: USER        Moving Ligand-Fixed Receptor    = -10.75 kcal/mol
DOCKED: USER        Moving Ligand-Moving Receptor   =  +0.00 kcal/mol
DOCKED: USER    (2) Final Total Internal Energy     =  -1.64 kcal/mol
DOCKED: USER    (3) Torsional Free Energy           =  +2.09 kcal/mol
DOCKED: USER    (4) Unbound System's Energy         =  -1.64 kcal/mol
DOCKED: USER
DOCKED: USER
DOCKED: REMARK SMILES CC(C)C[C@H](NC(=O)CNC(=O)c1ccc2cc(Cl)ccc2n1)c1ccccc1
DOCKED: REMARK SMILES IDX 6 1 7 2 8 3 5 5 4 6 2 7 1 8 3 9 24 10 25 11 29 12 26 13
DOCKED: REMARK SMILES IDX 28 14 27 15 9 16 10 17 11 18 12 20 13 21 14 22 23 23 15 24
DOCKED: REMARK SMILES IDX 22 25 16 26 21 27 17 28 20 29 18 30 19 31
DOCKED: REMARK H PARENT 6 4 10 19
DOCKED: USER                              x       y       z     vdW  Elec       q    Type
DOCKED: USER                           _______ _______ _______ _____ _____    ______ ____
DOCKED: ROOT
DOCKED: ATOM      1  N   UNL     1     141.006  77.667 220.899 -0.10 +0.15    -0.348 N  
DOCKED: ATOM      2  C   UNL     1     140.240  76.684 221.563 -0.23 -0.07    +0.239 C  
DOCKED: ATOM      3  O   UNL     1     139.711  77.037 222.668 -0.26 +0.05    -0.273 OA 
DOCKED: ATOM      4  H   UNL     1     141.471  77.444 220.004 +0.06 -0.08    +0.164 HD 
DOCKED: ENDROOT
DOCKED: BRANCH   1   5
DOCKED: ATOM      5  C   UNL     1     141.180  79.018 221.450 -0.30 -0.05    +0.112 C  
DOCKED: BRANCH   5   6
DOCKED: ATOM      6  C   UNL     1     142.189  78.980 222.558 -0.47 -0.02    +0.033 C  
DOCKED: BRANCH   6   7
DOCKED: ATOM      7  C   UNL     1     141.779  79.753 223.791 -0.61 +0.00    -0.015 C  
DOCKED: ATOM      8  C   UNL     1     142.446  81.108 223.845 -0.64 -0.00    +0.007 C  
DOCKED: ATOM      9  C   UNL     1     140.283  79.993 223.656 -0.45 -0.00    +0.007 C  
DOCKED: ENDBRANCH   6   7
DOCKED: ENDBRANCH   5   6
DOCKED: BRANCH   5  10
DOCKED: ATOM     10  C   UNL     1     141.490  80.010 220.409 -0.30 +0.01    -0.026 A  
DOCKED: ATOM     11  C   UNL     1     142.137  79.663 219.238 -0.28 -0.00    +0.006 A  
DOCKED: ATOM     12  C   UNL     1     141.145  81.350 220.554 -0.30 -0.00    +0.006 A  
DOCKED: ATOM     13  C   UNL     1     142.441  80.569 218.245 -0.35 -0.00    +0.000 A  
DOCKED: ATOM     14  C   UNL     1     141.443  82.270 219.568 -0.25 -0.00    +0.000 A  
DOCKED: ATOM     15  C   UNL     1     142.089  81.912 218.403 -0.26 -0.00    +0.000 A  
DOCKED: ENDBRANCH   5  10
DOCKED: ENDBRANCH   1   5
DOCKED: BRANCH   2  16
DOCKED: ATOM     16  C   UNL     1     140.003  75.321 221.109 -0.19 -0.05    +0.216 C  
DOCKED: BRANCH  16  17
DOCKED: ATOM     17  N   UNL     1     139.913  74.308 222.107 -0.08 +0.03    -0.342 N  
DOCKED: ATOM     18  C   UNL     1     140.289  72.949 221.840 -0.20 -0.03    +0.270 C  
DOCKED: ATOM     19  H   UNL     1     139.564  74.513 223.091 -0.53 -0.01    +0.164 HD 
DOCKED: ATOM     20  O   UNL     1     140.713  72.569 220.721 -0.10 +0.04    -0.268 OA 
DOCKED: BRANCH  18  21
DOCKED: ATOM     21  C   UNL     1     140.176  71.965 222.914 -0.29 -0.02    +0.128 A  
DOCKED: ATOM     22  C   UNL     1     139.585  70.739 222.698 -0.24 -0.01    +0.035 A  
DOCKED: ATOM     23  N   UNL     1     140.648  72.230 224.145 -0.09 +0.02    -0.243 NA 
DOCKED: ATOM     24  C   UNL     1     139.477  69.800 223.728 -0.28 -0.00    +0.013 A  
DOCKED: ATOM     25  C   UNL     1     140.574  71.370 225.171 -0.49 -0.01    +0.071 A  
DOCKED: ATOM     26  C   UNL     1     139.987  70.132 224.988 -0.43 -0.00    +0.002 A  
DOCKED: ATOM     27  C   UNL     1     141.099  71.753 226.410 -0.68 -0.00    +0.030 A  
DOCKED: ATOM     28  C   UNL     1     139.908  69.241 226.046 -0.47 -0.00    +0.030 A  
DOCKED: ATOM     29  C   UNL     1     141.020  70.856 227.474 -0.66 -0.00    +0.023 A  
DOCKED: ATOM     30  C   UNL     1     140.431  69.627 227.271 -0.56 -0.01    +0.041 A  
DOCKED: ATOM     31  Cl  UNL     1     140.358  68.539 228.642 -0.69 +0.02    -0.084 Cl 
DOCKED: ENDBRANCH  18  21
DOCKED: ENDBRANCH  16  17
DOCKED: ENDBRANCH   2  16
DOCKED: TORSDOF 7
DOCKED: TER
DOCKED: ENDMDL
________________________________________________________________________________


    FINAL DOCKED STATE:
    ________________________


Run:   11 / 20
Time taken for this run:   0.023s

DOCKED: MODEL        11
DOCKED: USER    Run = 11
DOCKED: USER
DOCKED: USER    Estimated Free Energy of Binding    =  -8.85 kcal/mol  [=(1)+(2)+(3)-(4)]
DOCKED: USER
DOCKED: USER    (1) Final Intermolecular Energy     = -10.94 kcal/mol
DOCKED: USER        vdW + Hbond + desolv Energy     = -10.86 kcal/mol
DOCKED: USER        Electrostatic Energy            =  -0.08 kcal/mol
DOCKED: USER        Moving Ligand-Fixed Receptor    = -10.94 kcal/mol
DOCKED: USER        Moving Ligand-Moving Receptor   =  +0.00 kcal/mol
DOCKED: USER    (2) Final Total Internal Energy     =  -1.71 kcal/mol
DOCKED: USER    (3) Torsional Free Energy           =  +2.09 kcal/mol
DOCKED: USER    (4) Unbound System's Energy         =  -1.71 kcal/mol
DOCKED: USER
DOCKED: USER
DOCKED: REMARK SMILES CC(C)C[C@H](NC(=O)CNC(=O)c1ccc2cc(Cl)ccc2n1)c1ccccc1
DOCKED: REMARK SMILES IDX 6 1 7 2 8 3 5 5 4 6 2 7 1 8 3 9 24 10 25 11 29 12 26 13
DOCKED: REMARK SMILES IDX 28 14 27 15 9 16 10 17 11 18 12 20 13 21 14 22 23 23 15 24
DOCKED: REMARK SMILES IDX 22 25 16 26 21 27 17 28 20 29 18 30 19 31
DOCKED: REMARK H PARENT 6 4 10 19
DOCKED: USER                              x       y       z     vdW  Elec       q    Type
DOCKED: USER                           _______ _______ _______ _____ _____    ______ ____
DOCKED: ROOT
DOCKED: ATOM      1  N   UNL     1     138.322  70.772 224.495 -0.10 +0.07    -0.348 N  
DOCKED: ATOM      2  C   UNL     1     137.498  69.628 224.574 -0.19 -0.02    +0.239 C  
DOCKED: ATOM      3  O   UNL     1     138.099  68.513 224.715 -0.36 +0.00    -0.273 OA 
DOCKED: ATOM      4  H   UNL     1     137.901  71.707 224.370 -0.20 -0.06    +0.164 HD 
DOCKED: ENDROOT
DOCKED: BRANCH   1   5
DOCKED: ATOM      5  C   UNL     1     139.787  70.680 224.573 -0.37 -0.02    +0.112 C  
DOCKED: BRANCH   5   6
DOCKED: ATOM      6  C   UNL     1     140.400  71.576 223.540 -0.36 -0.00    +0.033 C  
DOCKED: BRANCH   6   7
DOCKED: ATOM      7  C   UNL     1     139.419  72.088 222.509 -0.27 +0.00    -0.015 C  
DOCKED: ATOM      8  C   UNL     1     139.888  73.386 221.892 -0.28 -0.00    +0.007 C  
DOCKED: ATOM      9  C   UNL     1     139.393  71.046 221.402 -0.15 -0.00    +0.007 C  
DOCKED: ENDBRANCH   6   7
DOCKED: ENDBRANCH   5   6
DOCKED: BRANCH   5  10
DOCKED: ATOM     10  C   UNL     1     140.290  70.925 225.933 -0.55 +0.00    -0.026 A  
DOCKED: ATOM     11  C   UNL     1     140.003  70.074 226.984 -0.56 -0.00    +0.006 A  
DOCKED: ATOM     12  C   UNL     1     141.083  72.030 226.229 -0.55 -0.00    +0.006 A  
DOCKED: ATOM     13  C   UNL     1     140.460  70.276 228.268 -0.59 -0.00    +0.000 A  
DOCKED: ATOM     14  C   UNL     1     141.548  72.246 227.510 -0.76 -0.00    +0.000 A  
DOCKED: ATOM     15  C   UNL     1     141.255  71.390 228.552 -0.52 -0.00    +0.000 A  
DOCKED: ENDBRANCH   5  10
DOCKED: ENDBRANCH   1   5
DOCKED: BRANCH   2  16
DOCKED: ATOM     16  C   UNL     1     136.043  69.605 224.509 -0.16 -0.02    +0.216 C  
DOCKED: BRANCH  16  17
DOCKED: ATOM     17  N   UNL     1     135.351  70.755 224.984 -0.06 +0.03    -0.342 N  
DOCKED: ATOM     18  C   UNL     1     134.298  70.656 225.955 -0.19 -0.02    +0.270 C  
DOCKED: ATOM     19  H   UNL     1     135.581  71.736 224.641 +0.04 -0.02    +0.164 HD 
DOCKED: ATOM     20  O   UNL     1     133.923  69.561 226.440 -0.69 -0.00    -0.268 OA 
DOCKED: BRANCH  18  21
DOCKED: ATOM     21  C   UNL     1     133.637  71.880 226.401 -0.32 -0.01    +0.128 A  
DOCKED: ATOM     22  C   UNL     1     132.489  71.833 227.163 -0.38 -0.01    +0.035 A  
DOCKED: ATOM     23  N   UNL     1     134.131  73.088 226.079 -0.44 -0.01    -0.243 NA 
DOCKED: ATOM     24  C   UNL     1     131.857  73.005 227.587 -0.40 -0.00    +0.013 A  
DOCKED: ATOM     25  C   UNL     1     133.570  74.246 226.457 -0.27 +0.01    +0.071 A  
DOCKED: ATOM     26  C   UNL     1     132.419  74.234 227.221 -0.42 -0.00    +0.002 A  
DOCKED: ATOM     27  C   UNL     1     134.172  75.447 226.064 -0.40 -0.00    +0.030 A  
DOCKED: ATOM     28  C   UNL     1     131.837  75.428 227.613 -0.37 -0.00    +0.030 A  
DOCKED: ATOM     29  C   UNL     1     133.586  76.648 226.458 -0.34 -0.00    +0.023 A  
DOCKED: ATOM     30  C   UNL     1     132.438  76.613 227.220 -0.33 -0.00    +0.041 A  
DOCKED: ATOM     31  Cl  UNL     1     131.744  78.152 227.689 -0.32 -0.00    -0.084 Cl 
DOCKED: ENDBRANCH  18  21
DOCKED: ENDBRANCH  16  17
DOCKED: ENDBRANCH   2  16
DOCKED: TORSDOF 7
DOCKED: TER
DOCKED: ENDMDL
________________________________________________________________________________


    FINAL DOCKED STATE:
    ________________________


Run:   12 / 20
Time taken for this run:   0.023s

DOCKED: MODEL        12
DOCKED: USER    Run = 12
DOCKED: USER
DOCKED: USER    Estimated Free Energy of Binding    =  -7.80 kcal/mol  [=(1)+(2)+(3)-(4)]
DOCKED: USER
DOCKED: USER    (1) Final Intermolecular Energy     =  -9.88 kcal/mol
DOCKED: USER        vdW + Hbond + desolv Energy     =  -9.86 kcal/mol
DOCKED: USER        Electrostatic Energy            =  -0.03 kcal/mol
DOCKED: USER        Moving Ligand-Fixed Receptor    =  -9.88 kcal/mol
DOCKED: USER        Moving Ligand-Moving Receptor   =  +0.00 kcal/mol
DOCKED: USER    (2) Final Total Internal Energy     =  -2.65 kcal/mol
DOCKED: USER    (3) Torsional Free Energy           =  +2.09 kcal/mol
DOCKED: USER    (4) Unbound System's Energy         =  -2.65 kcal/mol
DOCKED: USER
DOCKED: USER
DOCKED: REMARK SMILES CC(C)C[C@H](NC(=O)CNC(=O)c1ccc2cc(Cl)ccc2n1)c1ccccc1
DOCKED: REMARK SMILES IDX 6 1 7 2 8 3 5 5 4 6 2 7 1 8 3 9 24 10 25 11 29 12 26 13
DOCKED: REMARK SMILES IDX 28 14 27 15 9 16 10 17 11 18 12 20 13 21 14 22 23 23 15 24
DOCKED: REMARK SMILES IDX 22 25 16 26 21 27 17 28 20 29 18 30 19 31
DOCKED: REMARK H PARENT 6 4 10 19
DOCKED: USER                              x       y       z     vdW  Elec       q    Type
DOCKED: USER                           _______ _______ _______ _____ _____    ______ ____
DOCKED: ROOT
DOCKED: ATOM      1  N   UNL     1     138.186  70.924 224.425 -0.08 +0.07    -0.348 N  
DOCKED: ATOM      2  C   UNL     1     137.264  69.899 224.115 -0.17 -0.03    +0.239 C  
DOCKED: ATOM      3  O   UNL     1     137.765  68.760 223.841 -0.17 +0.02    -0.273 OA 
DOCKED: ATOM      4  H   UNL     1     137.848  71.874 224.646 -0.33 -0.07    +0.164 HD 
DOCKED: ENDROOT
DOCKED: BRANCH   1   5
DOCKED: ATOM      5  C   UNL     1     139.636  70.686 224.434 -0.36 -0.02    +0.112 C  
DOCKED: BRANCH   5   6
DOCKED: ATOM      6  C   UNL     1     140.341  71.882 223.868 -0.35 -0.00    +0.033 C  
DOCKED: BRANCH   6   7
DOCKED: ATOM      7  C   UNL     1     140.332  71.945 222.357 -0.31 +0.00    -0.015 C  
DOCKED: ATOM      8  C   UNL     1     139.773  70.677 221.752 -0.17 -0.00    +0.007 C  
DOCKED: ATOM      9  C   UNL     1     139.383  73.075 221.991 -0.25 -0.00    +0.007 C  
DOCKED: ENDBRANCH   6   7
DOCKED: ENDBRANCH   5   6
DOCKED: BRANCH   5  10
DOCKED: ATOM     10  C   UNL     1     140.128  70.290 225.761 -0.49 +0.00    -0.026 A  
DOCKED: ATOM     11  C   UNL     1     140.563  71.218 226.688 -0.66 -0.00    +0.006 A  
DOCKED: ATOM     12  C   UNL     1     140.180  68.954 226.151 -0.53 -0.00    +0.006 A  
DOCKED: ATOM     13  C   UNL     1     141.029  70.877 227.940 -0.71 -0.00    +0.000 A  
DOCKED: ATOM     14  C   UNL     1     140.644  68.597 227.401 -0.66 -0.00    +0.000 A  
DOCKED: ATOM     15  C   UNL     1     141.076  69.533 228.318 -0.59 -0.00    +0.000 A  
DOCKED: ENDBRANCH   5  10
DOCKED: ENDBRANCH   1   5
DOCKED: BRANCH   2  16
DOCKED: ATOM     16  C   UNL     1     135.814  70.024 224.077 -0.13 -0.02    +0.216 C  
DOCKED: BRANCH  16  17
DOCKED: ATOM     17  N   UNL     1     135.243  71.182 224.678 -0.06 +0.03    -0.342 N  
DOCKED: ATOM     18  C   UNL     1     135.590  72.506 224.247 -0.11 -0.05    +0.270 C  
DOCKED: ATOM     19  H   UNL     1     134.536  71.117 225.472 +0.06 -0.01    +0.164 HD 
DOCKED: ATOM     20  O   UNL     1     136.412  72.726 223.324 -0.13 +0.08    -0.268 OA 
DOCKED: BRANCH  18  21
DOCKED: ATOM     21  C   UNL     1     134.959  73.647 224.906 -0.22 -0.01    +0.128 A  
DOCKED: ATOM     22  C   UNL     1     135.334  74.939 224.609 -0.34 -0.01    +0.035 A  
DOCKED: ATOM     23  N   UNL     1     133.992  73.466 225.823 -0.39 -0.00    -0.243 NA 
DOCKED: ATOM     24  C   UNL     1     134.730  76.029 225.241 -0.31 -0.00    +0.013 A  
DOCKED: ATOM     25  C   UNL     1     133.376  74.471 226.463 -0.31 +0.00    +0.071 A  
DOCKED: ATOM     26  C   UNL     1     133.730  75.779 226.187 -0.37 -0.00    +0.002 A  
DOCKED: ATOM     27  C   UNL     1     132.382  74.166 227.399 -0.41 -0.00    +0.030 A  
DOCKED: ATOM     28  C   UNL     1     133.096  76.819 226.846 -0.34 -0.00    +0.030 A  
DOCKED: ATOM     29  C   UNL     1     131.745  75.213 228.061 -0.29 -0.00    +0.023 A  
DOCKED: ATOM     30  C   UNL     1     132.112  76.509 227.772 -0.31 +0.00    +0.041 A  
DOCKED: ATOM     31  Cl  UNL     1     131.278  77.787 228.634 -0.35 -0.02    -0.084 Cl 
DOCKED: ENDBRANCH  18  21
DOCKED: ENDBRANCH  16  17
DOCKED: ENDBRANCH   2  16
DOCKED: TORSDOF 7
DOCKED: TER
DOCKED: ENDMDL
________________________________________________________________________________


    FINAL DOCKED STATE:
    ________________________


Run:   13 / 20
Time taken for this run:   0.023s

DOCKED: MODEL        13
DOCKED: USER    Run = 13
DOCKED: USER
DOCKED: USER    Estimated Free Energy of Binding    =  -7.88 kcal/mol  [=(1)+(2)+(3)-(4)]
DOCKED: USER
DOCKED: USER    (1) Final Intermolecular Energy     =  -9.96 kcal/mol
DOCKED: USER        vdW + Hbond + desolv Energy     =  -9.94 kcal/mol
DOCKED: USER        Electrostatic Energy            =  -0.03 kcal/mol
DOCKED: USER        Moving Ligand-Fixed Receptor    =  -9.96 kcal/mol
DOCKED: USER        Moving Ligand-Moving Receptor   =  +0.00 kcal/mol
DOCKED: USER    (2) Final Total Internal Energy     =  -2.62 kcal/mol
DOCKED: USER    (3) Torsional Free Energy           =  +2.09 kcal/mol
DOCKED: USER    (4) Unbound System's Energy         =  -2.62 kcal/mol
DOCKED: USER
DOCKED: USER
DOCKED: REMARK SMILES CC(C)C[C@H](NC(=O)CNC(=O)c1ccc2cc(Cl)ccc2n1)c1ccccc1
DOCKED: REMARK SMILES IDX 6 1 7 2 8 3 5 5 4 6 2 7 1 8 3 9 24 10 25 11 29 12 26 13
DOCKED: REMARK SMILES IDX 28 14 27 15 9 16 10 17 11 18 12 20 13 21 14 22 23 23 15 24
DOCKED: REMARK SMILES IDX 22 25 16 26 21 27 17 28 20 29 18 30 19 31
DOCKED: REMARK H PARENT 6 4 10 19
DOCKED: USER                              x       y       z     vdW  Elec       q    Type
DOCKED: USER                           _______ _______ _______ _____ _____    ______ ____
DOCKED: ROOT
DOCKED: ATOM      1  N   UNL     1     138.439  70.912 224.072 -0.13 +0.08    -0.348 N  
DOCKED: ATOM      2  C   UNL     1     137.483  69.880 224.198 -0.18 -0.03    +0.239 C  
DOCKED: ATOM      3  O   UNL     1     137.941  68.725 224.483 -0.25 +0.01    -0.273 OA 
DOCKED: ATOM      4  H   UNL     1     138.137  71.870 223.831 -0.23 -0.07    +0.164 HD 
DOCKED: ENDROOT
DOCKED: BRANCH   1   5
DOCKED: ATOM      5  C   UNL     1     139.875  70.668 224.262 -0.35 -0.02    +0.112 C  
DOCKED: BRANCH   5   6
DOCKED: ATOM      6  C   UNL     1     140.657  71.518 223.307 -0.30 -0.00    +0.033 C  
DOCKED: BRANCH   6   7
DOCKED: ATOM      7  C   UNL     1     139.908  71.871 222.041 -0.26 +0.00    -0.015 C  
DOCKED: ATOM      8  C   UNL     1     139.597  73.348 221.974 -0.27 -0.00    +0.007 C  
DOCKED: ATOM      9  C   UNL     1     140.855  71.557 220.893 -0.18 -0.00    +0.007 C  
DOCKED: ENDBRANCH   6   7
DOCKED: ENDBRANCH   5   6
DOCKED: BRANCH   5  10
DOCKED: ATOM     10  C   UNL     1     140.288  70.830 225.664 -0.54 +0.00    -0.026 A  
DOCKED: ATOM     11  C   UNL     1     141.055  71.902 226.081 -0.61 -0.00    +0.006 A  
DOCKED: ATOM     12  C   UNL     1     139.924  69.911 226.643 -0.53 -0.00    +0.006 A  
DOCKED: ATOM     13  C   UNL     1     141.458  72.081 227.387 -0.79 -0.00    +0.000 A  
DOCKED: ATOM     14  C   UNL     1     140.318  70.076 227.955 -0.64 -0.00    +0.000 A  
DOCKED: ATOM     15  C   UNL     1     141.085  71.150 228.360 -0.66 -0.00    +0.000 A  
DOCKED: ENDBRANCH   5  10
DOCKED: ENDBRANCH   1   5
DOCKED: BRANCH   2  16
DOCKED: ATOM     16  C   UNL     1     136.042  70.010 224.031 -0.14 -0.02    +0.216 C  
DOCKED: BRANCH  16  17
DOCKED: ATOM     17  N   UNL     1     135.417  71.144 224.626 -0.07 +0.04    -0.342 N  
DOCKED: ATOM     18  C   UNL     1     135.729  72.483 224.212 -0.10 -0.05    +0.270 C  
DOCKED: ATOM     19  H   UNL     1     134.694  71.049 225.400 +0.06 -0.01    +0.164 HD 
DOCKED: ATOM     20  O   UNL     1     136.567  72.737 223.312 -0.13 +0.09    -0.268 OA 
DOCKED: BRANCH  18  21
DOCKED: ATOM     21  C   UNL     1     135.044  73.597 224.862 -0.22 -0.01    +0.128 A  
DOCKED: ATOM     22  C   UNL     1     135.361  74.903 224.560 -0.34 -0.01    +0.035 A  
DOCKED: ATOM     23  N   UNL     1     134.083  73.376 225.777 -0.34 -0.00    -0.243 NA 
DOCKED: ATOM     24  C   UNL     1     134.705  75.967 225.184 -0.32 -0.00    +0.013 A  
DOCKED: ATOM     25  C   UNL     1     133.419  74.355 226.409 -0.30 +0.00    +0.071 A  
DOCKED: ATOM     26  C   UNL     1     133.713  75.676 226.127 -0.37 -0.00    +0.002 A  
DOCKED: ATOM     27  C   UNL     1     132.436  74.009 227.343 -0.40 -0.00    +0.030 A  
DOCKED: ATOM     28  C   UNL     1     133.029  76.689 226.778 -0.33 -0.00    +0.030 A  
DOCKED: ATOM     29  C   UNL     1     131.748  75.028 227.997 -0.34 -0.00    +0.023 A  
DOCKED: ATOM     30  C   UNL     1     132.057  76.339 227.702 -0.33 +0.00    +0.041 A  
DOCKED: ATOM     31  Cl  UNL     1     131.161  77.581 228.554 -0.36 -0.02    -0.084 Cl 
DOCKED: ENDBRANCH  18  21
DOCKED: ENDBRANCH  16  17
DOCKED: ENDBRANCH   2  16
DOCKED: TORSDOF 7
DOCKED: TER
DOCKED: ENDMDL
________________________________________________________________________________


    FINAL DOCKED STATE:
    ________________________


Run:   14 / 20
Time taken for this run:   0.023s

DOCKED: MODEL        14
DOCKED: USER    Run = 14
DOCKED: USER
DOCKED: USER    Estimated Free Energy of Binding    =  -7.87 kcal/mol  [=(1)+(2)+(3)-(4)]
DOCKED: USER
DOCKED: USER    (1) Final Intermolecular Energy     =  -9.96 kcal/mol
DOCKED: USER        vdW + Hbond + desolv Energy     =  -9.93 kcal/mol
DOCKED: USER        Electrostatic Energy            =  -0.04 kcal/mol
DOCKED: USER        Moving Ligand-Fixed Receptor    =  -9.96 kcal/mol
DOCKED: USER        Moving Ligand-Moving Receptor   =  +0.00 kcal/mol
DOCKED: USER    (2) Final Total Internal Energy     =  -2.64 kcal/mol
DOCKED: USER    (3) Torsional Free Energy           =  +2.09 kcal/mol
DOCKED: USER    (4) Unbound System's Energy         =  -2.64 kcal/mol
DOCKED: USER
DOCKED: USER
DOCKED: REMARK SMILES CC(C)C[C@H](NC(=O)CNC(=O)c1ccc2cc(Cl)ccc2n1)c1ccccc1
DOCKED: REMARK SMILES IDX 6 1 7 2 8 3 5 5 4 6 2 7 1 8 3 9 24 10 25 11 29 12 26 13
DOCKED: REMARK SMILES IDX 28 14 27 15 9 16 10 17 11 18 12 20 13 21 14 22 23 23 15 24
DOCKED: REMARK SMILES IDX 22 25 16 26 21 27 17 28 20 29 18 30 19 31
DOCKED: REMARK H PARENT 6 4 10 19
DOCKED: USER                              x       y       z     vdW  Elec       q    Type
DOCKED: USER                           _______ _______ _______ _____ _____    ______ ____
DOCKED: ROOT
DOCKED: ATOM      1  N   UNL     1     138.222  70.915 224.435 -0.09 +0.07    -0.348 N  
DOCKED: ATOM      2  C   UNL     1     137.294  69.861 224.286 -0.17 -0.03    +0.239 C  
DOCKED: ATOM      3  O   UNL     1     137.789  68.692 224.170 -0.20 +0.01    -0.273 OA 
DOCKED: ATOM      4  H   UNL     1     137.889  71.889 224.522 -0.34 -0.07    +0.164 HD 
DOCKED: ENDROOT
DOCKED: BRANCH   1   5
DOCKED: ATOM      5  C   UNL     1     139.672  70.676 224.458 -0.36 -0.02    +0.112 C  
DOCKED: BRANCH   5   6
DOCKED: ATOM      6  C   UNL     1     140.384  71.873 223.905 -0.34 -0.00    +0.033 C  
DOCKED: BRANCH   6   7
DOCKED: ATOM      7  C   UNL     1     140.379  71.949 222.394 -0.31 +0.00    -0.015 C  
DOCKED: ATOM      8  C   UNL     1     139.819  70.688 221.777 -0.17 -0.00    +0.007 C  
DOCKED: ATOM      9  C   UNL     1     139.434  73.085 222.035 -0.25 -0.00    +0.007 C  
DOCKED: ENDBRANCH   6   7
DOCKED: ENDBRANCH   5   6
DOCKED: BRANCH   5  10
DOCKED: ATOM     10  C   UNL     1     140.149  70.274 225.789 -0.49 +0.00    -0.026 A  
DOCKED: ATOM     11  C   UNL     1     140.545  71.200 226.736 -0.66 -0.00    +0.006 A  
DOCKED: ATOM     12  C   UNL     1     140.226  68.935 226.162 -0.53 -0.00    +0.006 A  
DOCKED: ATOM     13  C   UNL     1     140.997  70.854 227.991 -0.70 -0.00    +0.000 A  
DOCKED: ATOM     14  C   UNL     1     140.676  68.572 227.416 -0.66 -0.00    +0.000 A  
DOCKED: ATOM     15  C   UNL     1     141.069  69.506 228.353 -0.59 -0.00    +0.000 A  
DOCKED: ENDBRANCH   5  10
DOCKED: ENDBRANCH   1   5
DOCKED: BRANCH   2  16
DOCKED: ATOM     16  C   UNL     1     135.844  69.984 224.250 -0.14 -0.02    +0.216 C  
DOCKED: BRANCH  16  17
DOCKED: ATOM     17  N   UNL     1     135.275  71.159 224.819 -0.05 +0.03    -0.342 N  
DOCKED: ATOM     18  C   UNL     1     135.567  72.466 224.304 -0.09 -0.05    +0.270 C  
DOCKED: ATOM     19  H   UNL     1     134.610  71.120 225.649 +0.06 -0.01    +0.164 HD 
DOCKED: ATOM     20  O   UNL     1     136.338  72.655 223.331 -0.14 +0.08    -0.268 OA 
DOCKED: BRANCH  18  21
DOCKED: ATOM     21  C   UNL     1     134.942  73.626 224.935 -0.22 -0.01    +0.128 A  
DOCKED: ATOM     22  C   UNL     1     135.332  74.908 224.616 -0.34 -0.01    +0.035 A  
DOCKED: ATOM     23  N   UNL     1     133.966  73.472 225.847 -0.40 -0.00    -0.243 NA 
DOCKED: ATOM     24  C   UNL     1     134.733  76.016 225.221 -0.31 -0.00    +0.013 A  
DOCKED: ATOM     25  C   UNL     1     133.354  74.495 226.462 -0.31 +0.00    +0.071 A  
DOCKED: ATOM     26  C   UNL     1     133.722  75.794 226.164 -0.37 -0.00    +0.002 A  
DOCKED: ATOM     27  C   UNL     1     132.350  74.217 227.395 -0.41 -0.00    +0.030 A  
DOCKED: ATOM     28  C   UNL     1     133.093  76.853 226.796 -0.33 -0.00    +0.030 A  
DOCKED: ATOM     29  C   UNL     1     131.717  75.283 228.032 -0.31 -0.00    +0.023 A  
DOCKED: ATOM     30  C   UNL     1     132.099  76.570 227.720 -0.32 +0.00    +0.041 A  
DOCKED: ATOM     31  Cl  UNL     1     131.269  77.872 228.549 -0.36 -0.02    -0.084 Cl 
DOCKED: ENDBRANCH  18  21
DOCKED: ENDBRANCH  16  17
DOCKED: ENDBRANCH   2  16
DOCKED: TORSDOF 7
DOCKED: TER
DOCKED: ENDMDL
________________________________________________________________________________


    FINAL DOCKED STATE:
    ________________________


Run:   15 / 20
Time taken for this run:   0.023s

DOCKED: MODEL        15
DOCKED: USER    Run = 15
DOCKED: USER
DOCKED: USER    Estimated Free Energy of Binding    =  -8.01 kcal/mol  [=(1)+(2)+(3)-(4)]
DOCKED: USER
DOCKED: USER    (1) Final Intermolecular Energy     = -10.10 kcal/mol
DOCKED: USER        vdW + Hbond + desolv Energy     = -10.11 kcal/mol
DOCKED: USER        Electrostatic Energy            =  +0.02 kcal/mol
DOCKED: USER        Moving Ligand-Fixed Receptor    = -10.10 kcal/mol
DOCKED: USER        Moving Ligand-Moving Receptor   =  +0.00 kcal/mol
DOCKED: USER    (2) Final Total Internal Energy     =  -2.39 kcal/mol
DOCKED: USER    (3) Torsional Free Energy           =  +2.09 kcal/mol
DOCKED: USER    (4) Unbound System's Energy         =  -2.39 kcal/mol
DOCKED: USER
DOCKED: USER
DOCKED: REMARK SMILES CC(C)C[C@H](NC(=O)CNC(=O)c1ccc2cc(Cl)ccc2n1)c1ccccc1
DOCKED: REMARK SMILES IDX 6 1 7 2 8 3 5 5 4 6 2 7 1 8 3 9 24 10 25 11 29 12 26 13
DOCKED: REMARK SMILES IDX 28 14 27 15 9 16 10 17 11 18 12 20 13 21 14 22 23 23 15 24
DOCKED: REMARK SMILES IDX 22 25 16 26 21 27 17 28 20 29 18 30 19 31
DOCKED: REMARK H PARENT 6 4 10 19
DOCKED: USER                              x       y       z     vdW  Elec       q    Type
DOCKED: USER                           _______ _______ _______ _____ _____    ______ ____
DOCKED: ROOT
DOCKED: ATOM      1  N   UNL     1     142.018  74.942 220.135 -0.10 +0.12    -0.348 N  
DOCKED: ATOM      2  C   UNL     1     141.025  75.717 220.774 -0.19 -0.08    +0.239 C  
DOCKED: ATOM      3  O   UNL     1     141.314  76.943 220.972 -0.19 +0.13    -0.273 OA 
DOCKED: ATOM      4  H   UNL     1     141.854  73.938 219.953 +0.06 -0.04    +0.164 HD 
DOCKED: ENDROOT
DOCKED: BRANCH   1   5
DOCKED: ATOM      5  C   UNL     1     143.305  75.517 219.720 -0.34 -0.06    +0.112 C  
DOCKED: BRANCH   5   6
DOCKED: ATOM      6  C   UNL     1     144.327  74.427 219.612 -0.31 -0.01    +0.033 C  
DOCKED: BRANCH   6   7
DOCKED: ATOM      7  C   UNL     1     144.424  73.549 220.839 -0.45 +0.00    -0.015 C  
DOCKED: ATOM      8  C   UNL     1     143.909  72.154 220.567 -0.33 -0.00    +0.007 C  
DOCKED: ATOM      9  C   UNL     1     145.908  73.428 221.152 -0.71 -0.00    +0.007 C  
DOCKED: ENDBRANCH   6   7
DOCKED: ENDBRANCH   5   6
DOCKED: BRANCH   5  10
DOCKED: ATOM     10  C   UNL     1     143.185  76.331 218.502 -0.31 +0.02    -0.026 A  
DOCKED: ATOM     11  C   UNL     1     143.540  75.844 217.258 -0.22 -0.00    +0.006 A  
DOCKED: ATOM     12  C   UNL     1     142.707  77.638 218.542 -0.33 -0.00    +0.006 A  
DOCKED: ATOM     13  C   UNL     1     143.439  76.583 216.099 -0.21 -0.00    +0.000 A  
DOCKED: ATOM     14  C   UNL     1     142.599  78.391 217.390 -0.29 -0.00    +0.000 A  
DOCKED: ATOM     15  C   UNL     1     142.957  77.893 216.153 -0.18 -0.00    +0.000 A  
DOCKED: ENDBRANCH   5  10
DOCKED: ENDBRANCH   1   5
DOCKED: BRANCH   2  16
DOCKED: ATOM     16  C   UNL     1     139.721  75.251 221.225 -0.19 -0.05    +0.216 C  
DOCKED: BRANCH  16  17
DOCKED: ATOM     17  N   UNL     1     139.701  74.230 222.217 -0.08 +0.04    -0.342 N  
DOCKED: ATOM     18  C   UNL     1     140.164  72.900 221.942 -0.20 -0.03    +0.270 C  
DOCKED: ATOM     19  H   UNL     1     139.342  74.407 223.203 -0.52 -0.04    +0.164 HD 
DOCKED: ATOM     20  O   UNL     1     140.609  72.554 220.820 -0.11 +0.04    -0.268 OA 
DOCKED: BRANCH  18  21
DOCKED: ATOM     21  C   UNL     1     140.120  71.905 223.011 -0.30 -0.02    +0.128 A  
DOCKED: ATOM     22  C   UNL     1     139.609  70.644 222.791 -0.24 -0.01    +0.035 A  
DOCKED: ATOM     23  N   UNL     1     140.577  72.195 224.242 -0.09 +0.03    -0.243 NA 
DOCKED: ATOM     24  C   UNL     1     139.567  69.695 223.816 -0.27 -0.00    +0.013 A  
DOCKED: ATOM     25  C   UNL     1     140.562  71.327 225.265 -0.50 -0.01    +0.071 A  
DOCKED: ATOM     26  C   UNL     1     140.057  70.054 225.077 -0.43 -0.00    +0.002 A  
DOCKED: ATOM     27  C   UNL     1     141.065  71.737 226.504 -0.70 -0.00    +0.030 A  
DOCKED: ATOM     28  C   UNL     1     140.041  69.155 226.130 -0.49 -0.01    +0.030 A  
DOCKED: ATOM     29  C   UNL     1     141.049  70.832 227.563 -0.66 -0.00    +0.023 A  
DOCKED: ATOM     30  C   UNL     1     140.540  69.568 227.355 -0.56 -0.01    +0.041 A  
DOCKED: ATOM     31  Cl  UNL     1     140.544  68.470 228.721 -0.68 +0.02    -0.084 Cl 
DOCKED: ENDBRANCH  18  21
DOCKED: ENDBRANCH  16  17
DOCKED: ENDBRANCH   2  16
DOCKED: TORSDOF 7
DOCKED: TER
DOCKED: ENDMDL
________________________________________________________________________________


    FINAL DOCKED STATE:
    ________________________


Run:   16 / 20
Time taken for this run:   0.023s

DOCKED: MODEL        16
DOCKED: USER    Run = 16
DOCKED: USER
DOCKED: USER    Estimated Free Energy of Binding    =  -8.08 kcal/mol  [=(1)+(2)+(3)-(4)]
DOCKED: USER
DOCKED: USER    (1) Final Intermolecular Energy     = -10.17 kcal/mol
DOCKED: USER        vdW + Hbond + desolv Energy     = -10.14 kcal/mol
DOCKED: USER        Electrostatic Energy            =  -0.04 kcal/mol
DOCKED: USER        Moving Ligand-Fixed Receptor    = -10.17 kcal/mol
DOCKED: USER        Moving Ligand-Moving Receptor   =  +0.00 kcal/mol
DOCKED: USER    (2) Final Total Internal Energy     =  -2.30 kcal/mol
DOCKED: USER    (3) Torsional Free Energy           =  +2.09 kcal/mol
DOCKED: USER    (4) Unbound System's Energy         =  -2.30 kcal/mol
DOCKED: USER
DOCKED: USER
DOCKED: REMARK SMILES CC(C)C[C@H](NC(=O)CNC(=O)c1ccc2cc(Cl)ccc2n1)c1ccccc1
DOCKED: REMARK SMILES IDX 6 1 7 2 8 3 5 5 4 6 2 7 1 8 3 9 24 10 25 11 29 12 26 13
DOCKED: REMARK SMILES IDX 28 14 27 15 9 16 10 17 11 18 12 20 13 21 14 22 23 23 15 24
DOCKED: REMARK SMILES IDX 22 25 16 26 21 27 17 28 20 29 18 30 19 31
DOCKED: REMARK H PARENT 6 4 10 19
DOCKED: USER                              x       y       z     vdW  Elec       q    Type
DOCKED: USER                           _______ _______ _______ _____ _____    ______ ____
DOCKED: ROOT
DOCKED: ATOM      1  N   UNL     1     141.736  74.864 220.110 -0.09 +0.11    -0.348 N  
DOCKED: ATOM      2  C   UNL     1     140.705  75.468 220.863 -0.19 -0.07    +0.239 C  
DOCKED: ATOM      3  O   UNL     1     140.937  76.649 221.283 -0.21 +0.11    -0.273 OA 
DOCKED: ATOM      4  H   UNL     1     141.619  73.904 219.748 +0.05 -0.04    +0.164 HD 
DOCKED: ENDROOT
DOCKED: BRANCH   1   5
DOCKED: ATOM      5  C   UNL     1     143.000  75.559 219.827 -0.30 -0.06    +0.112 C  
DOCKED: BRANCH   5   6
DOCKED: ATOM      6  C   UNL     1     144.082  74.549 219.590 -0.35 -0.01    +0.033 C  
DOCKED: BRANCH   6   7
DOCKED: ATOM      7  C   UNL     1     144.453  73.744 220.815 -0.45 +0.00    -0.015 C  
DOCKED: ATOM      8  C   UNL     1     144.017  72.303 220.686 -0.35 -0.00    +0.007 C  
DOCKED: ATOM      9  C   UNL     1     145.973  73.751 220.876 -0.69 -0.00    +0.007 C  
DOCKED: ENDBRANCH   6   7
DOCKED: ENDBRANCH   5   6
DOCKED: BRANCH   5  10
DOCKED: ATOM     10  C   UNL     1     142.866  76.540 218.742 -0.32 +0.02    -0.026 A  
DOCKED: ATOM     11  C   UNL     1     142.554  77.864 218.986 -0.30 -0.00    +0.006 A  
DOCKED: ATOM     12  C   UNL     1     143.050  76.183 217.409 -0.23 -0.00    +0.006 A  
DOCKED: ATOM     13  C   UNL     1     142.422  78.808 217.990 -0.31 -0.00    +0.000 A  
DOCKED: ATOM     14  C   UNL     1     142.922  77.116 216.399 -0.21 -0.00    +0.000 A  
DOCKED: ATOM     15  C   UNL     1     142.609  78.435 216.656 -0.18 -0.00    +0.000 A  
DOCKED: ENDBRANCH   5  10
DOCKED: ENDBRANCH   1   5
DOCKED: BRANCH   2  16
DOCKED: ATOM     16  C   UNL     1     139.419  74.874 221.200 -0.17 -0.05    +0.216 C  
DOCKED: BRANCH  16  17
DOCKED: ATOM     17  N   UNL     1     139.413  73.856 222.196 -0.11 +0.07    -0.342 N  
DOCKED: ATOM     18  C   UNL     1     140.173  72.647 222.046 -0.20 -0.03    +0.270 C  
DOCKED: ATOM     19  H   UNL     1     138.846  73.945 223.092 -0.55 -0.10    +0.164 HD 
DOCKED: ATOM     20  O   UNL     1     140.881  72.412 221.036 -0.14 +0.04    -0.268 OA 
DOCKED: BRANCH  18  21
DOCKED: ATOM     21  C   UNL     1     140.123  71.649 223.111 -0.30 -0.02    +0.128 A  
DOCKED: ATOM     22  C   UNL     1     139.600  70.394 222.889 -0.23 -0.01    +0.035 A  
DOCKED: ATOM     23  N   UNL     1     140.588  71.930 224.342 -0.23 +0.03    -0.243 NA 
DOCKED: ATOM     24  C   UNL     1     139.553  69.442 223.910 -0.26 -0.00    +0.013 A  
DOCKED: ATOM     25  C   UNL     1     140.570  71.059 225.361 -0.51 -0.01    +0.071 A  
DOCKED: ATOM     26  C   UNL     1     140.052  69.791 225.170 -0.43 -0.00    +0.002 A  
DOCKED: ATOM     27  C   UNL     1     141.082  71.459 226.599 -0.69 -0.00    +0.030 A  
DOCKED: ATOM     28  C   UNL     1     140.032  68.888 226.220 -0.52 -0.01    +0.030 A  
DOCKED: ATOM     29  C   UNL     1     141.062  70.551 227.656 -0.62 -0.00    +0.023 A  
DOCKED: ATOM     30  C   UNL     1     140.540  69.292 227.445 -0.58 -0.01    +0.041 A  
DOCKED: ATOM     31  Cl  UNL     1     140.539  68.190 228.807 -0.48 +0.02    -0.084 Cl 
DOCKED: ENDBRANCH  18  21
DOCKED: ENDBRANCH  16  17
DOCKED: ENDBRANCH   2  16
DOCKED: TORSDOF 7
DOCKED: TER
DOCKED: ENDMDL
________________________________________________________________________________


    FINAL DOCKED STATE:
    ________________________


Run:   17 / 20
Time taken for this run:   0.023s

DOCKED: MODEL        17
DOCKED: USER    Run = 17
DOCKED: USER
DOCKED: USER    Estimated Free Energy of Binding    =  -7.90 kcal/mol  [=(1)+(2)+(3)-(4)]
DOCKED: USER
DOCKED: USER    (1) Final Intermolecular Energy     =  -9.99 kcal/mol
DOCKED: USER        vdW + Hbond + desolv Energy     =  -9.93 kcal/mol
DOCKED: USER        Electrostatic Energy            =  -0.05 kcal/mol
DOCKED: USER        Moving Ligand-Fixed Receptor    =  -9.99 kcal/mol
DOCKED: USER        Moving Ligand-Moving Receptor   =  +0.00 kcal/mol
DOCKED: USER    (2) Final Total Internal Energy     =  -2.17 kcal/mol
DOCKED: USER    (3) Torsional Free Energy           =  +2.09 kcal/mol
DOCKED: USER    (4) Unbound System's Energy         =  -2.17 kcal/mol
DOCKED: USER
DOCKED: USER
DOCKED: REMARK SMILES CC(C)C[C@H](NC(=O)CNC(=O)c1ccc2cc(Cl)ccc2n1)c1ccccc1
DOCKED: REMARK SMILES IDX 6 1 7 2 8 3 5 5 4 6 2 7 1 8 3 9 24 10 25 11 29 12 26 13
DOCKED: REMARK SMILES IDX 28 14 27 15 9 16 10 17 11 18 12 20 13 21 14 22 23 23 15 24
DOCKED: REMARK SMILES IDX 22 25 16 26 21 27 17 28 20 29 18 30 19 31
DOCKED: REMARK H PARENT 6 4 10 19
DOCKED: USER                              x       y       z     vdW  Elec       q    Type
DOCKED: USER                           _______ _______ _______ _____ _____    ______ ____
DOCKED: ROOT
DOCKED: ATOM      1  N   UNL     1     140.825  75.753 221.002 -0.13 +0.11    -0.348 N  
DOCKED: ATOM      2  C   UNL     1     139.439  75.970 220.839 -0.12 -0.06    +0.239 C  
DOCKED: ATOM      3  O   UNL     1     139.090  77.156 220.529 -0.04 +0.07    -0.273 OA 
DOCKED: ATOM      4  H   UNL     1     141.175  74.818 221.264 +0.04 -0.04    +0.164 HD 
DOCKED: ENDROOT
DOCKED: BRANCH   1   5
DOCKED: ATOM      5  C   UNL     1     141.806  76.833 220.822 -0.10 -0.07    +0.112 C  
DOCKED: BRANCH   5   6
DOCKED: ATOM      6  C   UNL     1     141.952  77.136 219.361 -0.27 -0.02    +0.033 C  
DOCKED: BRANCH   6   7
DOCKED: ATOM      7  C   UNL     1     143.229  76.607 218.748 -0.34 +0.01    -0.015 C  
DOCKED: ATOM      8  C   UNL     1     143.695  75.344 219.436 -0.37 -0.00    +0.007 C  
DOCKED: ATOM      9  C   UNL     1     142.882  76.236 217.314 -0.22 -0.00    +0.007 C  
DOCKED: ENDBRANCH   6   7
DOCKED: ENDBRANCH   5   6
DOCKED: BRANCH   5  10
DOCKED: ATOM     10  C   UNL     1     141.490  78.015 221.637 -0.34 +0.01    -0.026 A  
DOCKED: ATOM     11  C   UNL     1     141.519  79.294 221.113 -0.35 -0.00    +0.006 A  
DOCKED: ATOM     12  C   UNL     1     141.145  77.904 222.980 -0.47 -0.00    +0.006 A  
DOCKED: ATOM     13  C   UNL     1     141.228  80.421 221.851 -0.40 -0.00    +0.000 A  
DOCKED: ATOM     14  C   UNL     1     140.850  79.023 223.733 -0.51 -0.00    +0.000 A  
DOCKED: ATOM     15  C   UNL     1     140.883  80.295 223.199 -0.48 -0.00    +0.000 A  
DOCKED: ENDBRANCH   5  10
DOCKED: ENDBRANCH   1   5
DOCKED: BRANCH   2  16
DOCKED: ATOM     16  C   UNL     1     138.385  74.977 220.991 -0.10 -0.05    +0.216 C  
DOCKED: BRANCH  16  17
DOCKED: ATOM     17  N   UNL     1     138.585  73.958 221.966 -0.11 +0.10    -0.342 N  
DOCKED: ATOM     18  C   UNL     1     139.587  72.943 221.803 -0.17 -0.05    +0.270 C  
DOCKED: ATOM     19  H   UNL     1     138.003  73.905 222.856 -0.53 -0.10    +0.164 HD 
DOCKED: ATOM     20  O   UNL     1     140.339  72.887 220.800 -0.10 +0.04    -0.268 OA 
DOCKED: BRANCH  18  21
DOCKED: ATOM     21  C   UNL     1     139.740  71.933 222.848 -0.27 -0.02    +0.128 A  
DOCKED: ATOM     22  C   UNL     1     139.383  70.621 222.629 -0.22 -0.01    +0.035 A  
DOCKED: ATOM     23  N   UNL     1     140.236  72.259 224.055 -0.14 +0.04    -0.243 NA 
DOCKED: ATOM     24  C   UNL     1     139.529  69.657 223.630 -0.25 -0.00    +0.013 A  
DOCKED: ATOM     25  C   UNL     1     140.399  71.380 225.054 -0.47 -0.01    +0.071 A  
DOCKED: ATOM     26  C   UNL     1     140.051  70.056 224.866 -0.41 -0.00    +0.002 A  
DOCKED: ATOM     27  C   UNL     1     140.925  71.831 226.270 -0.63 -0.00    +0.030 A  
DOCKED: ATOM     28  C   UNL     1     140.219  69.144 225.896 -0.48 -0.01    +0.030 A  
DOCKED: ATOM     29  C   UNL     1     141.094  70.914 227.305 -0.65 -0.00    +0.023 A  
DOCKED: ATOM     30  C   UNL     1     140.740  69.598 227.097 -0.55 -0.01    +0.041 A  
DOCKED: ATOM     31  Cl  UNL     1     140.973  68.488 228.433 -0.77 +0.02    -0.084 Cl 
DOCKED: ENDBRANCH  18  21
DOCKED: ENDBRANCH  16  17
DOCKED: ENDBRANCH   2  16
DOCKED: TORSDOF 7
DOCKED: TER
DOCKED: ENDMDL
________________________________________________________________________________


    FINAL DOCKED STATE:
    ________________________


Run:   18 / 20
Time taken for this run:   0.023s

DOCKED: MODEL        18
DOCKED: USER    Run = 18
DOCKED: USER
DOCKED: USER    Estimated Free Energy of Binding    =  -8.04 kcal/mol  [=(1)+(2)+(3)-(4)]
DOCKED: USER
DOCKED: USER    (1) Final Intermolecular Energy     = -10.13 kcal/mol
DOCKED: USER        vdW + Hbond + desolv Energy     = -10.08 kcal/mol
DOCKED: USER        Electrostatic Energy            =  -0.05 kcal/mol
DOCKED: USER        Moving Ligand-Fixed Receptor    = -10.13 kcal/mol
DOCKED: USER        Moving Ligand-Moving Receptor   =  +0.00 kcal/mol
DOCKED: USER    (2) Final Total Internal Energy     =  -2.25 kcal/mol
DOCKED: USER    (3) Torsional Free Energy           =  +2.09 kcal/mol
DOCKED: USER    (4) Unbound System's Energy         =  -2.25 kcal/mol
DOCKED: USER
DOCKED: USER
DOCKED: REMARK SMILES CC(C)C[C@H](NC(=O)CNC(=O)c1ccc2cc(Cl)ccc2n1)c1ccccc1
DOCKED: REMARK SMILES IDX 6 1 7 2 8 3 5 5 4 6 2 7 1 8 3 9 24 10 25 11 29 12 26 13
DOCKED: REMARK SMILES IDX 28 14 27 15 9 16 10 17 11 18 12 20 13 21 14 22 23 23 15 24
DOCKED: REMARK SMILES IDX 22 25 16 26 21 27 17 28 20 29 18 30 19 31
DOCKED: REMARK H PARENT 6 4 10 19
DOCKED: USER                              x       y       z     vdW  Elec       q    Type
DOCKED: USER                           _______ _______ _______ _____ _____    ______ ____
DOCKED: ROOT
DOCKED: ATOM      1  N   UNL     1     138.357  75.322 221.916 -0.12 +0.09    -0.348 N  
DOCKED: ATOM      2  C   UNL     1     138.093  74.692 220.679 -0.07 -0.05    +0.239 C  
DOCKED: ATOM      3  O   UNL     1     137.458  75.389 219.820 -0.01 +0.05    -0.273 OA 
DOCKED: ATOM      4  H   UNL     1     138.858  74.812 222.661 -0.42 -0.05    +0.164 HD 
DOCKED: ENDROOT
DOCKED: BRANCH   1   5
DOCKED: ATOM      5  C   UNL     1     137.927  76.700 222.192 -0.23 -0.02    +0.112 C  
DOCKED: BRANCH   5   6
DOCKED: ATOM      6  C   UNL     1     136.791  76.682 223.170 -0.14 -0.01    +0.033 C  
DOCKED: BRANCH   6   7
DOCKED: ATOM      7  C   UNL     1     135.868  75.494 223.019 -0.22 +0.00    -0.015 C  
DOCKED: ATOM      8  C   UNL     1     135.481  74.917 224.362 -0.32 -0.00    +0.007 C  
DOCKED: ATOM      9  C   UNL     1     134.597  76.030 222.377 -0.09 -0.00    +0.007 C  
DOCKED: ENDBRANCH   6   7
DOCKED: ENDBRANCH   5   6
DOCKED: BRANCH   5  10
DOCKED: ATOM     10  C   UNL     1     139.044  77.561 222.608 -0.30 +0.00    -0.026 A  
DOCKED: ATOM     11  C   UNL     1     138.840  78.826 223.124 -0.32 -0.00    +0.006 A  
DOCKED: ATOM     12  C   UNL     1     140.367  77.140 222.502 -0.39 -0.00    +0.006 A  
DOCKED: ATOM     13  C   UNL     1     139.867  79.656 223.523 -0.44 -0.00    +0.000 A  
DOCKED: ATOM     14  C   UNL     1     141.406  77.959 222.897 -0.46 -0.00    +0.000 A  
DOCKED: ATOM     15  C   UNL     1     141.190  79.221 223.411 -0.56 -0.00    +0.000 A  
DOCKED: ENDBRANCH   5  10
DOCKED: ENDBRANCH   1   5
DOCKED: BRANCH   2  16
DOCKED: ATOM     16  C   UNL     1     138.472  73.338 220.301 -0.05 -0.04    +0.216 C  
DOCKED: BRANCH  16  17
DOCKED: ATOM     17  N   UNL     1     138.664  72.397 221.352 -0.05 +0.07    -0.342 N  
DOCKED: ATOM     18  C   UNL     1     139.704  72.557 222.329 -0.19 -0.05    +0.270 C  
DOCKED: ATOM     19  H   UNL     1     138.046  71.537 221.461 +0.03 -0.03    +0.164 HD 
DOCKED: ATOM     20  O   UNL     1     140.505  73.523 222.315 -0.77 -0.00    -0.268 OA 
DOCKED: BRANCH  18  21
DOCKED: ATOM     21  C   UNL     1     139.837  71.555 223.383 -0.31 -0.02    +0.128 A  
DOCKED: ATOM     22  C   UNL     1     139.466  70.245 223.174 -0.24 -0.01    +0.035 A  
DOCKED: ATOM     23  N   UNL     1     140.328  71.886 224.591 -0.27 +0.04    -0.243 NA 
DOCKED: ATOM     24  C   UNL     1     139.593  69.288 224.185 -0.27 -0.00    +0.013 A  
DOCKED: ATOM     25  C   UNL     1     140.474  71.013 225.599 -0.52 -0.01    +0.071 A  
DOCKED: ATOM     26  C   UNL     1     140.110  69.692 225.421 -0.45 -0.00    +0.002 A  
DOCKED: ATOM     27  C   UNL     1     140.996  71.469 226.815 -0.71 -0.00    +0.030 A  
DOCKED: ATOM     28  C   UNL     1     140.260  68.788 226.460 -0.55 -0.01    +0.030 A  
DOCKED: ATOM     29  C   UNL     1     141.146  70.560 227.860 -0.58 -0.00    +0.023 A  
DOCKED: ATOM     30  C   UNL     1     140.777  69.246 227.661 -0.59 -0.01    +0.041 A  
DOCKED: ATOM     31  Cl  UNL     1     140.988  68.145 229.008 -0.49 +0.02    -0.084 Cl 
DOCKED: ENDBRANCH  18  21
DOCKED: ENDBRANCH  16  17
DOCKED: ENDBRANCH   2  16
DOCKED: TORSDOF 7
DOCKED: TER
DOCKED: ENDMDL
________________________________________________________________________________


    FINAL DOCKED STATE:
    ________________________


Run:   19 / 20
Time taken for this run:   0.023s

DOCKED: MODEL        19
DOCKED: USER    Run = 19
DOCKED: USER
DOCKED: USER    Estimated Free Energy of Binding    =  -8.17 kcal/mol  [=(1)+(2)+(3)-(4)]
DOCKED: USER
DOCKED: USER    (1) Final Intermolecular Energy     = -10.26 kcal/mol
DOCKED: USER        vdW + Hbond + desolv Energy     = -10.20 kcal/mol
DOCKED: USER        Electrostatic Energy            =  -0.06 kcal/mol
DOCKED: USER        Moving Ligand-Fixed Receptor    = -10.26 kcal/mol
DOCKED: USER        Moving Ligand-Moving Receptor   =  +0.00 kcal/mol
DOCKED: USER    (2) Final Total Internal Energy     =  -2.32 kcal/mol
DOCKED: USER    (3) Torsional Free Energy           =  +2.09 kcal/mol
DOCKED: USER    (4) Unbound System's Energy         =  -2.32 kcal/mol
DOCKED: USER
DOCKED: USER
DOCKED: REMARK SMILES CC(C)C[C@H](NC(=O)CNC(=O)c1ccc2cc(Cl)ccc2n1)c1ccccc1
DOCKED: REMARK SMILES IDX 6 1 7 2 8 3 5 5 4 6 2 7 1 8 3 9 24 10 25 11 29 12 26 13
DOCKED: REMARK SMILES IDX 28 14 27 15 9 16 10 17 11 18 12 20 13 21 14 22 23 23 15 24
DOCKED: REMARK SMILES IDX 22 25 16 26 21 27 17 28 20 29 18 30 19 31
DOCKED: REMARK H PARENT 6 4 10 19
DOCKED: USER                              x       y       z     vdW  Elec       q    Type
DOCKED: USER                           _______ _______ _______ _____ _____    ______ ____
DOCKED: ROOT
DOCKED: ATOM      1  N   UNL     1     138.151  75.240 221.870 -0.11 +0.09    -0.348 N  
DOCKED: ATOM      2  C   UNL     1     138.146  74.718 220.558 -0.06 -0.05    +0.239 C  
DOCKED: ATOM      3  O   UNL     1     137.786  75.522 219.637 -0.01 +0.06    -0.273 OA 
DOCKED: ATOM      4  H   UNL     1     138.422  74.639 222.665 -0.47 -0.07    +0.164 HD 
DOCKED: ENDROOT
DOCKED: BRANCH   1   5
DOCKED: ATOM      5  C   UNL     1     137.766  76.629 222.154 -0.22 -0.02    +0.112 C  
DOCKED: BRANCH   5   6
DOCKED: ATOM      6  C   UNL     1     136.623  76.642 223.124 -0.20 -0.01    +0.033 C  
DOCKED: BRANCH   6   7
DOCKED: ATOM      7  C   UNL     1     136.119  75.267 223.500 -0.24 +0.00    -0.015 C  
DOCKED: ATOM      8  C   UNL     1     135.437  75.275 224.849 -0.37 -0.00    +0.007 C  
DOCKED: ATOM      9  C   UNL     1     135.064  74.911 222.465 -0.12 -0.00    +0.007 C  
DOCKED: ENDBRANCH   6   7
DOCKED: ENDBRANCH   5   6
DOCKED: BRANCH   5  10
DOCKED: ATOM     10  C   UNL     1     138.909  77.448 222.584 -0.29 +0.00    -0.026 A  
DOCKED: ATOM     11  C   UNL     1     138.741  78.689 223.170 -0.29 -0.00    +0.006 A  
DOCKED: ATOM     12  C   UNL     1     140.220  77.012 222.423 -0.38 -0.00    +0.006 A  
DOCKED: ATOM     13  C   UNL     1     139.792  79.479 223.583 -0.44 -0.00    +0.000 A  
DOCKED: ATOM     14  C   UNL     1     141.284  77.791 222.832 -0.42 -0.00    +0.000 A  
DOCKED: ATOM     15  C   UNL     1     141.104  79.029 223.415 -0.55 -0.00    +0.000 A  
DOCKED: ENDBRANCH   5  10
DOCKED: ENDBRANCH   1   5
DOCKED: BRANCH   2  16
DOCKED: ATOM     16  C   UNL     1     138.508  73.363 220.165 -0.04 -0.04    +0.216 C  
DOCKED: BRANCH  16  17
DOCKED: ATOM     17  N   UNL     1     138.708  72.413 221.207 -0.04 +0.07    -0.342 N  
DOCKED: ATOM     18  C   UNL     1     139.649  72.642 222.267 -0.19 -0.05    +0.270 C  
DOCKED: ATOM     19  H   UNL     1     138.171  71.495 221.247 +0.03 -0.03    +0.164 HD 
DOCKED: ATOM     20  O   UNL     1     140.350  73.681 222.340 -0.82 -0.01    -0.268 OA 
DOCKED: BRANCH  18  21
DOCKED: ATOM     21  C   UNL     1     139.797  71.627 223.307 -0.30 -0.02    +0.128 A  
DOCKED: ATOM     22  C   UNL     1     139.426  70.318 223.084 -0.24 -0.01    +0.035 A  
DOCKED: ATOM     23  N   UNL     1     140.299  71.943 224.514 -0.22 +0.04    -0.243 NA 
DOCKED: ATOM     24  C   UNL     1     139.568  69.349 224.080 -0.27 -0.00    +0.013 A  
DOCKED: ATOM     25  C   UNL     1     140.459  71.058 225.508 -0.51 -0.01    +0.071 A  
DOCKED: ATOM     26  C   UNL     1     140.097  69.737 225.316 -0.44 -0.00    +0.002 A  
DOCKED: ATOM     27  C   UNL     1     140.993  71.498 226.724 -0.70 -0.00    +0.030 A  
DOCKED: ATOM     28  C   UNL     1     140.261  68.820 226.341 -0.54 -0.01    +0.030 A  
DOCKED: ATOM     29  C   UNL     1     141.157  70.575 227.755 -0.57 -0.00    +0.023 A  
DOCKED: ATOM     30  C   UNL     1     140.790  69.264 227.543 -0.58 -0.01    +0.041 A  
DOCKED: ATOM     31  Cl  UNL     1     141.018  68.145 228.872 -0.59 +0.02    -0.084 Cl 
DOCKED: ENDBRANCH  18  21
DOCKED: ENDBRANCH  16  17
DOCKED: ENDBRANCH   2  16
DOCKED: TORSDOF 7
DOCKED: TER
DOCKED: ENDMDL
________________________________________________________________________________


    FINAL DOCKED STATE:
    ________________________


Run:   20 / 20
Time taken for this run:   0.023s

DOCKED: MODEL        20
DOCKED: USER    Run = 20
DOCKED: USER
DOCKED: USER    Estimated Free Energy of Binding    =  -8.13 kcal/mol  [=(1)+(2)+(3)-(4)]
DOCKED: USER
DOCKED: USER    (1) Final Intermolecular Energy     = -10.22 kcal/mol
DOCKED: USER        vdW + Hbond + desolv Energy     = -10.18 kcal/mol
DOCKED: USER        Electrostatic Energy            =  -0.04 kcal/mol
DOCKED: USER        Moving Ligand-Fixed Receptor    = -10.22 kcal/mol
DOCKED: USER        Moving Ligand-Moving Receptor   =  +0.00 kcal/mol
DOCKED: USER    (2) Final Total Internal Energy     =  -1.90 kcal/mol
DOCKED: USER    (3) Torsional Free Energy           =  +2.09 kcal/mol
DOCKED: USER    (4) Unbound System's Energy         =  -1.90 kcal/mol
DOCKED: USER
DOCKED: USER
DOCKED: REMARK SMILES CC(C)C[C@H](NC(=O)CNC(=O)c1ccc2cc(Cl)ccc2n1)c1ccccc1
DOCKED: REMARK SMILES IDX 6 1 7 2 8 3 5 5 4 6 2 7 1 8 3 9 24 10 25 11 29 12 26 13
DOCKED: REMARK SMILES IDX 28 14 27 15 9 16 10 17 11 18 12 20 13 21 14 22 23 23 15 24
DOCKED: REMARK SMILES IDX 22 25 16 26 21 27 17 28 20 29 18 30 19 31
DOCKED: REMARK H PARENT 6 4 10 19
DOCKED: USER                              x       y       z     vdW  Elec       q    Type
DOCKED: USER                           _______ _______ _______ _____ _____    ______ ____
DOCKED: ROOT
DOCKED: ATOM      1  N   UNL     1     141.473  76.678 221.112 -0.12 +0.18    -0.348 N  
DOCKED: ATOM      2  C   UNL     1     141.298  75.680 220.128 -0.14 -0.09    +0.239 C  
DOCKED: ATOM      3  O   UNL     1     140.546  75.987 219.145 -0.04 +0.09    -0.273 OA 
DOCKED: ATOM      4  H   UNL     1     142.060  76.492 221.940 -0.52 -0.14    +0.164 HD 
DOCKED: ENDROOT
DOCKED: BRANCH   1   5
DOCKED: ATOM      5  C   UNL     1     140.829  77.995 221.004 -0.24 -0.05    +0.112 C  
DOCKED: BRANCH   5   6
DOCKED: ATOM      6  C   UNL     1     139.340  77.829 221.070 -0.16 -0.01    +0.033 C  
DOCKED: BRANCH   6   7
DOCKED: ATOM      7  C   UNL     1     138.828  77.401 222.427 -0.30 +0.00    -0.015 C  
DOCKED: ATOM      8  C   UNL     1     137.499  78.045 222.748 -0.21 -0.00    +0.007 C  
DOCKED: ATOM      9  C   UNL     1     138.589  75.902 222.330 -0.30 -0.00    +0.007 C  
DOCKED: ENDBRANCH   6   7
DOCKED: ENDBRANCH   5   6
DOCKED: BRANCH   5  10
DOCKED: ATOM     10  C   UNL     1     141.355  78.955 221.985 -0.40 +0.01    -0.026 A  
DOCKED: ATOM     11  C   UNL     1     141.584  80.280 221.662 -0.42 -0.00    +0.006 A  
DOCKED: ATOM     12  C   UNL     1     141.649  78.577 223.291 -0.57 -0.00    +0.006 A  
DOCKED: ATOM     13  C   UNL     1     142.077  81.203 222.558 -0.52 -0.00    +0.000 A  
DOCKED: ATOM     14  C   UNL     1     142.142  79.490 224.202 -0.48 -0.00    +0.000 A  
DOCKED: ATOM     15  C   UNL     1     142.367  80.810 223.867 -0.66 -0.00    +0.000 A  
DOCKED: ENDBRANCH   5  10
DOCKED: ENDBRANCH   1   5
DOCKED: BRANCH   2  16
DOCKED: ATOM     16  C   UNL     1     141.886  74.348 220.134 -0.16 -0.06    +0.216 C  
DOCKED: BRANCH  16  17
DOCKED: ATOM     17  N   UNL     1     141.568  73.499 221.233 -0.13 +0.04    -0.342 N  
DOCKED: ATOM     18  C   UNL     1     140.248  72.965 221.417 -0.17 -0.04    +0.270 C  
DOCKED: ATOM     19  H   UNL     1     142.291  73.225 221.963 +0.09 +0.00    +0.164 HD 
DOCKED: ATOM     20  O   UNL     1     139.300  73.212 220.632 -0.06 +0.05    -0.268 OA 
DOCKED: BRANCH  18  21
DOCKED: ATOM     21  C   UNL     1     139.996  72.096 222.564 -0.27 -0.02    +0.128 A  
DOCKED: ATOM     22  C   UNL     1     139.052  71.094 222.506 -0.21 -0.01    +0.035 A  
DOCKED: ATOM     23  N   UNL     1     140.680  72.252 223.711 -0.22 +0.01    -0.243 NA 
DOCKED: ATOM     24  C   UNL     1     138.812  70.265 223.604 -0.28 -0.00    +0.013 A  
DOCKED: ATOM     25  C   UNL     1     140.495  71.488 224.798 -0.45 -0.01    +0.071 A  
DOCKED: ATOM     26  C   UNL     1     139.555  70.474 224.771 -0.42 -0.00    +0.002 A  
DOCKED: ATOM     27  C   UNL     1     141.265  71.740 225.938 -0.55 -0.00    +0.030 A  
DOCKED: ATOM     28  C   UNL     1     139.361  69.683 225.892 -0.42 -0.00    +0.030 A  
DOCKED: ATOM     29  C   UNL     1     141.069  70.944 227.065 -0.66 -0.00    +0.023 A  
DOCKED: ATOM     30  C   UNL     1     140.127  69.939 227.018 -0.54 -0.01    +0.041 A  
DOCKED: ATOM     31  Cl  UNL     1     139.922  68.968 228.463 -0.67 +0.01    -0.084 Cl 
DOCKED: ENDBRANCH  18  21
DOCKED: ENDBRANCH  16  17
DOCKED: ENDBRANCH   2  16
DOCKED: TORSDOF 7
DOCKED: TER
DOCKED: ENDMDL
________________________________________________________________________________


    CLUSTERING HISTOGRAM
    ____________________


________________________________________________________________________________
     |           |     |           |     |
Clus | Lowest    | Run | Mean      | Num | Histogram
-ter | Binding   |     | Binding   | in  |
Rank | Energy    |     | Energy    | Clus|    5    10   15   20   25   30   35
_____|___________|_____|___________|_____|____:____|____:____|____:____|____:___
   1 |     -8.92 |   4 |     -8.33 |   5 |#####
   2 |     -8.85 |  11 |     -8.10 |   8 |########
   3 |     -8.37 |   5 |     -8.16 |   3 |###
   4 |     -8.17 |  19 |     -8.11 |   2 |##
   5 |     -8.08 |   6 |     -8.08 |   1 |#
   6 |     -7.03 |   7 |     -7.03 |   1 |#
_____|___________|_____|___________|_____|______________________________________


    RMSD TABLE
    __________


_______________________________________________________________________
     |      |      |           |         |                 |
Rank | Sub- | Run  | Binding   | Cluster | Reference       | Grep
     | Rank |      | Energy    | RMSD    | RMSD            | Pattern
_____|______|______|___________|_________|_________________|___________
   1      1      4       -8.92      0.00    271.82           RANKING
   1      2     10       -8.66      1.95    272.06           RANKING
   1      3     20       -8.13      1.70    271.89           RANKING
   1      4      2       -8.02      1.95    271.76           RANKING
   1      5     17       -7.90      1.15    271.54           RANKING
   2      1     11       -8.85      0.00    271.52           RANKING
   2      2      1       -8.81      0.60    271.44           RANKING
   2      3      9       -7.89      1.24    271.39           RANKING
   2      4     13       -7.88      1.29    271.40           RANKING
   2      5     14       -7.87      1.34    271.42           RANKING
   2      6      3       -7.87      1.25    271.36           RANKING
   2      7      8       -7.84      1.23    271.44           RANKING
   2      8     12       -7.80      1.36    271.39           RANKING
   3      1      5       -8.37      0.00    271.09           RANKING
   3      2     16       -8.08      0.85    271.19           RANKING
   3      3     15       -8.01      0.80    271.19           RANKING
   4      1     19       -8.17      0.00    271.34           RANKING
   4      2     18       -8.04      0.32    271.40           RANKING
   5      1      6       -8.08      0.00    271.21           RANKING
   6      1      7       -7.03      0.00    271.33           RANKING

Run time 0.482 sec
Idle time 0.249 sec
