AutoDock-GPU version: v1.6

**********************************************************
**    AutoDock-GPU AUTODOCKTOOLS-COMPATIBLE DLG FILE    **
**********************************************************


    DOCKING PARAMETERS
    ________________________


Ligand file:                               /home/a/REINVENT4/ReinventStudies/pleaseWork/justmol2mol_4_Compounds_ontop/graph-dock-amy28i/graph-DockGPU/node-autodockgpu/inputs/INDMKQDLEKGXBE-VKDSSWMGNA-N.pdbqt
Grid fld file:                             /home/a/REINVENT4/ReinventStudies/mols/Rad51/maps/rad51_receptor.maps.fld

Random seed:                               42
Number of runs:                            20
Number of energy evaluations:              1132076
Number of generations:                     42000
Size of population:                        150
Rate of crossover:                         80.000000%
Tournament selection probability limit:    60.000000%
Rate of mutation:                          2.000000%
Maximal allowed delta movement:            +/- 6.000000A
Maximal allowed delta angle:               +/- 90.000000

Rate of local search:                      100.000000%
Maximal number of local search iterations: 300
Rho lower bound:                           0.010000
Spread of local search delta movement:     2.000000A
Spread of local search delta angle:        74.999999
Limit of consecutive successes/failures:   4

Handle symmetry during clustering:         YES
RMSD tolerance:                            2.000000A

Program call in command line was:          /home/a/REINVENT4/ReinventStudies/adgpu-v1.6_linux_x64_cuda12_128wi --filelist batch.txt --heuristics 1 --nrun 20 --psize 150 --lsit 300 --seed 42 --heurmax 12000000 


    GRID PARAMETERS
    ________________________


Receptor name:                             rad51_receptor
Number of grid points (x, y, z):           53, 53, 53
Grid center (x, y, z):                     139.950000, 75.640000, 221.970000A
Grid size (x, y, z):                       19.500000, 19.500000, 19.500000A
Grid spacing:                              0.375000A


    LIGAND PARAMETERS
    ________________________


Ligand name:                               /home/a/REINVENT4/ReinventStudies/pleaseWork/justmol2mol_4_Compounds_ontop/graph-dock-amy28i/graph-DockGPU/node-autodockgpu/inputs/INDMKQDLEKGXBE-VKDSSWMGNA-N
Number of atoms:                           26
Number of rotatable bonds:                 6
Number of atom types:                      7


    DUMMY DATA (only for ADT-compatibility)
    ________________________


DPF> outlev 1
DPF> ga_run 20
DPF> fld /home/a/REINVENT4/ReinventStudies/mols/Rad51/maps/rad51_receptor.maps.fld
DPF> move /home/a/REINVENT4/ReinventStudies/pleaseWork/justmol2mol_4_Compounds_ontop/graph-dock-amy28i/graph-DockGPU/node-autodockgpu/inputs/INDMKQDLEKGXBE-VKDSSWMGNA-N.pdbqt


    COUNTER STATES
    ________________________


Number of energy evaluations performed:    436199
Number of generations used:                30


    INPUT LIGAND PDBQT FILE:
    ________________________


INPUT-LIGAND-PDBQT: REMARK SMILES O=C(NCC(=O)N1CCC[C@H]1CO)c1ccc2cc(Cl)ccc2n1
INPUT-LIGAND-PDBQT: REMARK SMILES IDX 5 1 6 2 4 3 3 4 2 5 1 6 14 8 15 9 24 10 16 11 23 12 17 13
INPUT-LIGAND-PDBQT: REMARK SMILES IDX 22 14 18 15 21 16 19 17 20 18 7 19 8 20 11 21 9 22 10 23
INPUT-LIGAND-PDBQT: REMARK SMILES IDX 12 24 13 25
INPUT-LIGAND-PDBQT: REMARK H PARENT 3 7 13 26
INPUT-LIGAND-PDBQT: ROOT
INPUT-LIGAND-PDBQT: ATOM      1  C   UNL     1      -2.012   0.299   0.014  1.00  0.00     0.242 C 
INPUT-LIGAND-PDBQT: ATOM      2  O   UNL     1      -1.423   0.942   0.931  1.00  0.00    -0.273 OA
INPUT-LIGAND-PDBQT: ENDROOT
INPUT-LIGAND-PDBQT: BRANCH   1   3
INPUT-LIGAND-PDBQT: ATOM      3  C   UNL     1      -1.121  -0.425  -0.949  1.00  0.00     0.216 C 
INPUT-LIGAND-PDBQT: BRANCH   3   4
INPUT-LIGAND-PDBQT: ATOM      4  N   UNL     1       0.258  -0.240  -0.627  1.00  0.00    -0.342 N 
INPUT-LIGAND-PDBQT: ATOM      5  C   UNL     1       1.245  -0.861  -1.441  1.00  0.00     0.270 C 
INPUT-LIGAND-PDBQT: ATOM      6  O   UNL     1       0.886  -1.560  -2.426  1.00  0.00    -0.268 OA
INPUT-LIGAND-PDBQT: ATOM      7  H   UNL     1       0.498   0.355   0.208  1.00  0.00     0.164 HD
INPUT-LIGAND-PDBQT: BRANCH   5   8
INPUT-LIGAND-PDBQT: ATOM      8  C   UNL     1       2.660  -0.687  -1.134  1.00  0.00     0.128 A 
INPUT-LIGAND-PDBQT: ATOM      9  C   UNL     1       3.608  -1.298  -1.936  1.00  0.00     0.035 A 
INPUT-LIGAND-PDBQT: ATOM     10  N   UNL     1       3.106   0.046  -0.098  1.00  0.00    -0.243 NA
INPUT-LIGAND-PDBQT: ATOM     11  C   UNL     1       4.946  -1.113  -1.617  1.00  0.00     0.013 A 
INPUT-LIGAND-PDBQT: ATOM     12  C   UNL     1       4.379   0.234   0.222  1.00  0.00     0.071 A 
INPUT-LIGAND-PDBQT: ATOM     13  C   UNL     1       5.363  -0.355  -0.547  1.00  0.00     0.002 A 
INPUT-LIGAND-PDBQT: ATOM     14  C   UNL     1       4.710   1.018   1.323  1.00  0.00     0.030 A 
INPUT-LIGAND-PDBQT: ATOM     15  C   UNL     1       6.708  -0.195  -0.263  1.00  0.00     0.030 A 
INPUT-LIGAND-PDBQT: ATOM     16  C   UNL     1       6.047   1.177   1.607  1.00  0.00     0.023 A 
INPUT-LIGAND-PDBQT: ATOM     17  C   UNL     1       7.039   0.590   0.839  1.00  0.00     0.041 A 
INPUT-LIGAND-PDBQT: ATOM     18  Cl  UNL     1       8.732   0.815   1.231  1.00  0.00    -0.084 Cl
INPUT-LIGAND-PDBQT: ENDBRANCH   5   8
INPUT-LIGAND-PDBQT: ENDBRANCH   3   4
INPUT-LIGAND-PDBQT: ENDBRANCH   1   3
INPUT-LIGAND-PDBQT: BRANCH   1  19
INPUT-LIGAND-PDBQT: ATOM     19  N   UNL     1      -3.407   0.256  -0.112  1.00  0.00    -0.336 N 
INPUT-LIGAND-PDBQT: ATOM     20  C   UNL     1      -4.134  -0.476  -1.159  1.00  0.00     0.120 C 
INPUT-LIGAND-PDBQT: ATOM     21  C   UNL     1      -4.359   0.903   0.740  1.00  0.00     0.110 C 
INPUT-LIGAND-PDBQT: ATOM     22  C   UNL     1      -5.578  -0.085  -0.995  1.00  0.00     0.024 C 
INPUT-LIGAND-PDBQT: ATOM     23  C   UNL     1      -5.635   0.110   0.526  1.00  0.00     0.029 C 
INPUT-LIGAND-PDBQT: BRANCH  21  24
INPUT-LIGAND-PDBQT: ATOM     24  C   UNL     1      -4.008   0.864   2.205  1.00  0.00     0.181 C 
INPUT-LIGAND-PDBQT: BRANCH  24  25
INPUT-LIGAND-PDBQT: ATOM     25  O   UNL     1      -3.895  -0.402   2.724  1.00  0.00    -0.394 OA
INPUT-LIGAND-PDBQT: ATOM     26  H   UNL     1      -4.303  -0.469   3.643  1.00  0.00     0.210 HD
INPUT-LIGAND-PDBQT: ENDBRANCH  24  25
INPUT-LIGAND-PDBQT: ENDBRANCH  21  24
INPUT-LIGAND-PDBQT: ENDBRANCH   1  19
INPUT-LIGAND-PDBQT: TORSDOF 6


    FINAL DOCKED STATE:
    ________________________


Run:   1 / 20
Time taken for this run:   0.018s

DOCKED: MODEL        1
DOCKED: USER    Run = 1
DOCKED: USER
DOCKED: USER    Estimated Free Energy of Binding    =  -6.88 kcal/mol  [=(1)+(2)+(3)-(4)]
DOCKED: USER
DOCKED: USER    (1) Final Intermolecular Energy     =  -8.67 kcal/mol
DOCKED: USER        vdW + Hbond + desolv Energy     =  -8.54 kcal/mol
DOCKED: USER        Electrostatic Energy            =  -0.13 kcal/mol
DOCKED: USER        Moving Ligand-Fixed Receptor    =  -8.67 kcal/mol
DOCKED: USER        Moving Ligand-Moving Receptor   =  +0.00 kcal/mol
DOCKED: USER    (2) Final Total Internal Energy     =  -1.82 kcal/mol
DOCKED: USER    (3) Torsional Free Energy           =  +1.79 kcal/mol
DOCKED: USER    (4) Unbound System's Energy         =  -1.82 kcal/mol
DOCKED: USER
DOCKED: USER
DOCKED: REMARK SMILES O=C(NCC(=O)N1CCC[C@H]1CO)c1ccc2cc(Cl)ccc2n1
DOCKED: REMARK SMILES IDX 5 1 6 2 4 3 3 4 2 5 1 6 14 8 15 9 24 10 16 11 23 12 17 13
DOCKED: REMARK SMILES IDX 22 14 18 15 21 16 19 17 20 18 7 19 8 20 11 21 9 22 10 23
DOCKED: REMARK SMILES IDX 12 24 13 25
DOCKED: REMARK H PARENT 3 7 13 26
DOCKED: USER                              x       y       z     vdW  Elec       q    Type
DOCKED: USER                           _______ _______ _______ _____ _____    ______ ____
DOCKED: ROOT
DOCKED: ATOM      1  C   UNL     1     139.011  70.256 224.506 -0.24 -0.04    +0.242 C  
DOCKED: ATOM      2  O   UNL     1     137.788  69.952 224.621 -0.18 +0.03    -0.273 OA 
DOCKED: ENDROOT
DOCKED: BRANCH   1   3
DOCKED: ATOM      3  C   UNL     1     139.491  70.508 223.109 -0.18 -0.04    +0.216 C  
DOCKED: BRANCH   3   4
DOCKED: ATOM      4  N   UNL     1     139.742  71.895 222.883 -0.17 +0.07    -0.342 N  
DOCKED: ATOM      5  C   UNL     1     140.647  72.273 221.853 -0.19 -0.03    +0.270 C  
DOCKED: ATOM      6  O   UNL     1     141.208  71.380 221.163 -0.12 +0.03    -0.268 OA 
DOCKED: ATOM      7  H   UNL     1     139.245  72.596 223.492 -0.31 -0.07    +0.164 HD 
DOCKED: BRANCH   5   8
DOCKED: ATOM      8  C   UNL     1     140.921  73.683 221.602 -0.25 -0.01    +0.128 A  
DOCKED: ATOM      9  C   UNL     1     141.924  74.032 220.715 -0.26 -0.01    +0.035 A  
DOCKED: ATOM     10  N   UNL     1     140.243  74.683 222.193 -0.67 +0.00    -0.243 NA 
DOCKED: ATOM     11  C   UNL     1     142.159  75.382 220.498 -0.29 -0.01    +0.013 A  
DOCKED: ATOM     12  C   UNL     1     140.454  75.978 221.999 -0.35 -0.02    +0.071 A  
DOCKED: ATOM     13  C   UNL     1     141.444  76.377 221.123 -0.29 -0.00    +0.002 A  
DOCKED: ATOM     14  C   UNL     1     139.680  76.917 222.675 -0.26 -0.01    +0.030 A  
DOCKED: ATOM     15  C   UNL     1     141.710  77.713 220.879 -0.30 -0.02    +0.030 A  
DOCKED: ATOM     16  C   UNL     1     139.944  78.245 222.433 -0.34 -0.01    +0.023 A  
DOCKED: ATOM     17  C   UNL     1     140.935  78.653 221.555 -0.31 -0.02    +0.041 A  
DOCKED: ATOM     18  Cl  UNL     1     141.243  80.354 221.273 -0.43 +0.03    -0.084 Cl 
DOCKED: ENDBRANCH   5   8
DOCKED: ENDBRANCH   3   4
DOCKED: ENDBRANCH   1   3
DOCKED: BRANCH   1  19
DOCKED: ATOM     19  N   UNL     1     139.879  70.354 225.602 -0.20 +0.05    -0.336 N  
DOCKED: ATOM     20  C   UNL     1     140.329  71.616 226.207 -0.39 -0.02    +0.120 C  
DOCKED: ATOM     21  C   UNL     1     140.471  69.265 226.319 -0.47 -0.02    +0.110 C  
DOCKED: ATOM     22  C   UNL     1     141.372  71.227 227.220 -0.52 -0.00    +0.024 C  
DOCKED: ATOM     23  C   UNL     1     140.821  69.867 227.667 -0.60 -0.01    +0.029 C  
DOCKED: BRANCH  21  24
DOCKED: ATOM     24  C   UNL     1     139.550  68.093 226.539 -0.47 -0.02    +0.181 C  
DOCKED: BRANCH  24  25
DOCKED: ATOM     25  O   UNL     1     139.205  67.424 225.391 -0.83 -0.02    -0.394 OA 
DOCKED: ATOM     26  H   UNL     1     138.566  67.957 224.823 +0.09 +0.02    +0.210 HD 
DOCKED: ENDBRANCH  24  25
DOCKED: ENDBRANCH  21  24
DOCKED: ENDBRANCH   1  19
DOCKED: TORSDOF 6
DOCKED: TER
DOCKED: ENDMDL
________________________________________________________________________________


    FINAL DOCKED STATE:
    ________________________


Run:   2 / 20
Time taken for this run:   0.018s

DOCKED: MODEL        2
DOCKED: USER    Run = 2
DOCKED: USER
DOCKED: USER    Estimated Free Energy of Binding    =  -6.83 kcal/mol  [=(1)+(2)+(3)-(4)]
DOCKED: USER
DOCKED: USER    (1) Final Intermolecular Energy     =  -8.62 kcal/mol
DOCKED: USER        vdW + Hbond + desolv Energy     =  -8.48 kcal/mol
DOCKED: USER        Electrostatic Energy            =  -0.14 kcal/mol
DOCKED: USER        Moving Ligand-Fixed Receptor    =  -8.62 kcal/mol
DOCKED: USER        Moving Ligand-Moving Receptor   =  +0.00 kcal/mol
DOCKED: USER    (2) Final Total Internal Energy     =  -1.92 kcal/mol
DOCKED: USER    (3) Torsional Free Energy           =  +1.79 kcal/mol
DOCKED: USER    (4) Unbound System's Energy         =  -1.92 kcal/mol
DOCKED: USER
DOCKED: USER
DOCKED: REMARK SMILES O=C(NCC(=O)N1CCC[C@H]1CO)c1ccc2cc(Cl)ccc2n1
DOCKED: REMARK SMILES IDX 5 1 6 2 4 3 3 4 2 5 1 6 14 8 15 9 24 10 16 11 23 12 17 13
DOCKED: REMARK SMILES IDX 22 14 18 15 21 16 19 17 20 18 7 19 8 20 11 21 9 22 10 23
DOCKED: REMARK SMILES IDX 12 24 13 25
DOCKED: REMARK H PARENT 3 7 13 26
DOCKED: USER                              x       y       z     vdW  Elec       q    Type
DOCKED: USER                           _______ _______ _______ _____ _____    ______ ____
DOCKED: ROOT
DOCKED: ATOM      1  C   UNL     1     139.319  69.882 223.781 -0.19 -0.04    +0.242 C  
DOCKED: ATOM      2  O   UNL     1     139.544  68.787 223.188 -0.07 +0.06    -0.273 OA 
DOCKED: ENDROOT
DOCKED: BRANCH   1   3
DOCKED: ATOM      3  C   UNL     1     138.264  70.751 223.165 -0.16 -0.04    +0.216 C  
DOCKED: BRANCH   3   4
DOCKED: ATOM      4  N   UNL     1     138.757  72.065 222.902 -0.07 +0.10    -0.342 N  
DOCKED: ATOM      5  C   UNL     1     139.804  72.231 221.954 -0.18 -0.05    +0.270 C  
DOCKED: ATOM      6  O   UNL     1     140.275  71.220 221.367 -0.11 +0.04    -0.268 OA 
DOCKED: ATOM      7  H   UNL     1     138.325  72.872 223.422 -0.43 -0.12    +0.164 HD 
DOCKED: BRANCH   5   8
DOCKED: ATOM      8  C   UNL     1     140.324  73.563 221.666 -0.24 -0.01    +0.128 A  
DOCKED: ATOM      9  C   UNL     1     141.384  73.701 220.787 -0.24 -0.01    +0.035 A  
DOCKED: ATOM     10  N   UNL     1     139.826  74.685 222.215 -0.69 +0.02    -0.243 NA 
DOCKED: ATOM     11  C   UNL     1     141.856  74.982 220.534 -0.29 -0.00    +0.013 A  
DOCKED: ATOM     12  C   UNL     1     140.263  75.915 221.986 -0.34 -0.02    +0.071 A  
DOCKED: ATOM     13  C   UNL     1     141.319  76.106 221.117 -0.31 -0.00    +0.002 A  
DOCKED: ATOM     14  C   UNL     1     139.658  76.997 222.620 -0.27 -0.01    +0.030 A  
DOCKED: ATOM     15  C   UNL     1     141.819  77.366 220.838 -0.26 -0.02    +0.030 A  
DOCKED: ATOM     16  C   UNL     1     140.155  78.250 222.344 -0.35 -0.01    +0.023 A  
DOCKED: ATOM     17  C   UNL     1     141.213  78.449 221.472 -0.33 -0.02    +0.041 A  
DOCKED: ATOM     18  Cl  UNL     1     141.819  80.060 221.145 -0.47 +0.04    -0.084 Cl 
DOCKED: ENDBRANCH   5   8
DOCKED: ENDBRANCH   3   4
DOCKED: ENDBRANCH   1   3
DOCKED: BRANCH   1  19
DOCKED: ATOM     19  N   UNL     1     140.003  70.277 224.939 -0.18 +0.06    -0.336 N  
DOCKED: ATOM     20  C   UNL     1     140.445  71.649 225.227 -0.34 -0.02    +0.120 C  
DOCKED: ATOM     21  C   UNL     1     140.386  69.433 226.030 -0.44 -0.02    +0.110 C  
DOCKED: ATOM     22  C   UNL     1     141.277  71.549 226.476 -0.67 -0.00    +0.024 C  
DOCKED: ATOM     23  C   UNL     1     140.559  70.396 227.190 -0.61 -0.00    +0.029 C  
DOCKED: BRANCH  21  24
DOCKED: ATOM     24  C   UNL     1     139.355  68.402 226.410 -0.41 -0.02    +0.181 C  
DOCKED: BRANCH  24  25
DOCKED: ATOM     25  O   UNL     1     139.202  67.393 225.493 -0.84 -0.02    -0.394 OA 
DOCKED: ATOM     26  H   UNL     1     139.615  67.627 224.604 +0.01 -0.03    +0.210 HD 
DOCKED: ENDBRANCH  24  25
DOCKED: ENDBRANCH  21  24
DOCKED: ENDBRANCH   1  19
DOCKED: TORSDOF 6
DOCKED: TER
DOCKED: ENDMDL
________________________________________________________________________________


    FINAL DOCKED STATE:
    ________________________


Run:   3 / 20
Time taken for this run:   0.018s

DOCKED: MODEL        3
DOCKED: USER    Run = 3
DOCKED: USER
DOCKED: USER    Estimated Free Energy of Binding    =  -6.58 kcal/mol  [=(1)+(2)+(3)-(4)]
DOCKED: USER
DOCKED: USER    (1) Final Intermolecular Energy     =  -8.37 kcal/mol
DOCKED: USER        vdW + Hbond + desolv Energy     =  -8.31 kcal/mol
DOCKED: USER        Electrostatic Energy            =  -0.06 kcal/mol
DOCKED: USER        Moving Ligand-Fixed Receptor    =  -8.37 kcal/mol
DOCKED: USER        Moving Ligand-Moving Receptor   =  +0.00 kcal/mol
DOCKED: USER    (2) Final Total Internal Energy     =  -2.09 kcal/mol
DOCKED: USER    (3) Torsional Free Energy           =  +1.79 kcal/mol
DOCKED: USER    (4) Unbound System's Energy         =  -2.09 kcal/mol
DOCKED: USER
DOCKED: USER
DOCKED: REMARK SMILES O=C(NCC(=O)N1CCC[C@H]1CO)c1ccc2cc(Cl)ccc2n1
DOCKED: REMARK SMILES IDX 5 1 6 2 4 3 3 4 2 5 1 6 14 8 15 9 24 10 16 11 23 12 17 13
DOCKED: REMARK SMILES IDX 22 14 18 15 21 16 19 17 20 18 7 19 8 20 11 21 9 22 10 23
DOCKED: REMARK SMILES IDX 12 24 13 25
DOCKED: REMARK H PARENT 3 7 13 26
DOCKED: USER                              x       y       z     vdW  Elec       q    Type
DOCKED: USER                           _______ _______ _______ _____ _____    ______ ____
DOCKED: ROOT
DOCKED: ATOM      1  C   UNL     1     140.096  76.423 221.500 -0.22 -0.07    +0.242 C  
DOCKED: ATOM      2  O   UNL     1     139.835  76.685 222.711 -0.29 +0.05    -0.273 OA 
DOCKED: ENDROOT
DOCKED: BRANCH   1   3
DOCKED: ATOM      3  C   UNL     1     139.773  75.031 221.052 -0.17 -0.05    +0.216 C  
DOCKED: BRANCH   3   4
DOCKED: ATOM      4  N   UNL     1     139.780  74.113 222.146 -0.10 +0.04    -0.342 N  
DOCKED: ATOM      5  C   UNL     1     140.026  72.736 221.889 -0.19 -0.04    +0.270 C  
DOCKED: ATOM      6  O   UNL     1     140.232  72.353 220.706 -0.08 +0.04    -0.268 OA 
DOCKED: ATOM      7  H   UNL     1     139.601  74.491 223.112 -0.50 -0.00    +0.164 HD 
DOCKED: BRANCH   5   8
DOCKED: ATOM      8  C   UNL     1     140.040  71.779 222.989 -0.29 -0.02    +0.128 A  
DOCKED: ATOM      9  C   UNL     1     139.550  70.501 222.782 -0.23 -0.01    +0.035 A  
DOCKED: ATOM     10  N   UNL     1     140.508  72.070 224.216 -0.17 +0.03    -0.243 NA 
DOCKED: ATOM     11  C   UNL     1     139.577  69.614 223.849 -0.27 -0.00    +0.013 A  
DOCKED: ATOM     12  C   UNL     1     140.542  71.237 225.246 -0.50 -0.01    +0.071 A  
DOCKED: ATOM     13  C   UNL     1     140.064  69.951 225.091 -0.43 -0.00    +0.002 A  
DOCKED: ATOM     14  C   UNL     1     141.054  71.663 226.468 -0.69 -0.00    +0.030 A  
DOCKED: ATOM     15  C   UNL     1     140.073  69.036 226.129 -0.50 -0.01    +0.030 A  
DOCKED: ATOM     16  C   UNL     1     141.062  70.755 227.502 -0.64 -0.00    +0.023 A  
DOCKED: ATOM     17  C   UNL     1     140.586  69.462 227.352 -0.57 -0.01    +0.041 A  
DOCKED: ATOM     18  Cl  UNL     1     140.614  68.333 228.691 -0.65 +0.02    -0.084 Cl 
DOCKED: ENDBRANCH   5   8
DOCKED: ENDBRANCH   3   4
DOCKED: ENDBRANCH   1   3
DOCKED: BRANCH   1  19
DOCKED: ATOM     19  N   UNL     1     140.654  77.360 220.620 -0.07 +0.13    -0.336 N  
DOCKED: ATOM     20  C   UNL     1     140.308  77.486 219.197 -0.07 -0.04    +0.120 C  
DOCKED: ATOM     21  C   UNL     1     141.640  78.347 220.941 -0.28 -0.06    +0.110 C  
DOCKED: ATOM     22  C   UNL     1     141.278  78.490 218.635 -0.18 -0.01    +0.024 C  
DOCKED: ATOM     23  C   UNL     1     141.470  79.396 219.858 -0.27 -0.01    +0.029 C  
DOCKED: BRANCH  21  24
DOCKED: ATOM     24  C   UNL     1     141.447  79.005 222.283 -0.37 -0.07    +0.181 C  
DOCKED: BRANCH  24  25
DOCKED: ATOM     25  O   UNL     1     141.866  78.247 223.348 -0.30 +0.17    -0.394 OA 
DOCKED: ATOM     26  H   UNL     1     141.857  77.262 223.135 -0.29 -0.13    +0.210 HD 
DOCKED: ENDBRANCH  24  25
DOCKED: ENDBRANCH  21  24
DOCKED: ENDBRANCH   1  19
DOCKED: TORSDOF 6
DOCKED: TER
DOCKED: ENDMDL
________________________________________________________________________________


    FINAL DOCKED STATE:
    ________________________


Run:   4 / 20
Time taken for this run:   0.018s

DOCKED: MODEL        4
DOCKED: USER    Run = 4
DOCKED: USER
DOCKED: USER    Estimated Free Energy of Binding    =  -6.58 kcal/mol  [=(1)+(2)+(3)-(4)]
DOCKED: USER
DOCKED: USER    (1) Final Intermolecular Energy     =  -8.37 kcal/mol
DOCKED: USER        vdW + Hbond + desolv Energy     =  -8.33 kcal/mol
DOCKED: USER        Electrostatic Energy            =  -0.04 kcal/mol
DOCKED: USER        Moving Ligand-Fixed Receptor    =  -8.37 kcal/mol
DOCKED: USER        Moving Ligand-Moving Receptor   =  +0.00 kcal/mol
DOCKED: USER    (2) Final Total Internal Energy     =  -2.07 kcal/mol
DOCKED: USER    (3) Torsional Free Energy           =  +1.79 kcal/mol
DOCKED: USER    (4) Unbound System's Energy         =  -2.07 kcal/mol
DOCKED: USER
DOCKED: USER
DOCKED: REMARK SMILES O=C(NCC(=O)N1CCC[C@H]1CO)c1ccc2cc(Cl)ccc2n1
DOCKED: REMARK SMILES IDX 5 1 6 2 4 3 3 4 2 5 1 6 14 8 15 9 24 10 16 11 23 12 17 13
DOCKED: REMARK SMILES IDX 22 14 18 15 21 16 19 17 20 18 7 19 8 20 11 21 9 22 10 23
DOCKED: REMARK SMILES IDX 12 24 13 25
DOCKED: REMARK H PARENT 3 7 13 26
DOCKED: USER                              x       y       z     vdW  Elec       q    Type
DOCKED: USER                           _______ _______ _______ _____ _____    ______ ____
DOCKED: ROOT
DOCKED: ATOM      1  C   UNL     1     140.268  70.875 225.243 -0.36 -0.04    +0.242 C  
DOCKED: ATOM      2  O   UNL     1     140.717  71.936 225.765 -0.41 +0.04    -0.273 OA 
DOCKED: ENDROOT
DOCKED: BRANCH   1   3
DOCKED: ATOM      3  C   UNL     1     139.969  70.946 223.776 -0.27 -0.04    +0.216 C  
DOCKED: BRANCH   3   4
DOCKED: ATOM      4  N   UNL     1     140.240  72.246 223.250 -0.19 +0.04    -0.342 N  
DOCKED: ATOM      5  C   UNL     1     140.805  72.359 221.950 -0.18 -0.02    +0.270 C  
DOCKED: ATOM      6  O   UNL     1     141.057  71.315 221.290 -0.12 +0.03    -0.268 OA 
DOCKED: ATOM      7  H   UNL     1     140.008  73.082 223.846 -0.28 -0.02    +0.164 HD 
DOCKED: BRANCH   5   8
DOCKED: ATOM      8  C   UNL     1     141.090  73.675 221.389 -0.24 -0.01    +0.128 A  
DOCKED: ATOM      9  C   UNL     1     141.730  73.766 220.165 -0.19 -0.01    +0.035 A  
DOCKED: ATOM     10  N   UNL     1     140.761  74.826 222.002 -0.60 +0.02    -0.243 NA 
DOCKED: ATOM     11  C   UNL     1     141.987  75.033 219.659 -0.21 -0.00    +0.013 A  
DOCKED: ATOM     12  C   UNL     1     140.998  76.044 221.535 -0.32 -0.02    +0.071 A  
DOCKED: ATOM     13  C   UNL     1     141.635  76.188 220.318 -0.28 -0.00    +0.002 A  
DOCKED: ATOM     14  C   UNL     1     140.606  77.158 222.270 -0.41 -0.01    +0.030 A  
DOCKED: ATOM     15  C   UNL     1     141.909  77.433 219.778 -0.28 -0.02    +0.030 A  
DOCKED: ATOM     16  C   UNL     1     140.879  78.397 221.734 -0.34 -0.01    +0.023 A  
DOCKED: ATOM     17  C   UNL     1     141.516  78.548 220.514 -0.28 -0.02    +0.041 A  
DOCKED: ATOM     18  Cl  UNL     1     141.846  80.142 219.864 -0.37 +0.04    -0.084 Cl 
DOCKED: ENDBRANCH   5   8
DOCKED: ENDBRANCH   3   4
DOCKED: ENDBRANCH   1   3
DOCKED: BRANCH   1  19
DOCKED: ATOM     19  N   UNL     1     140.053  69.698 225.972 -0.19 +0.05    -0.336 N  
DOCKED: ATOM     20  C   UNL     1     139.939  68.355 225.386 -0.33 -0.02    +0.120 C  
DOCKED: ATOM     21  C   UNL     1     139.912  69.591 227.393 -0.52 -0.02    +0.110 C  
DOCKED: ATOM     22  C   UNL     1     139.539  67.452 226.522 -0.59 -0.00    +0.024 C  
DOCKED: ATOM     23  C   UNL     1     140.263  68.144 227.685 -0.63 -0.01    +0.029 C  
DOCKED: BRANCH  21  24
DOCKED: ATOM     24  C   UNL     1     140.842  70.480 228.178 -0.43 -0.03    +0.181 C  
DOCKED: BRANCH  24  25
DOCKED: ATOM     25  O   UNL     1     140.328  71.720 228.465 -0.42 +0.10    -0.394 OA 
DOCKED: ATOM     26  H   UNL     1     140.518  72.384 227.731 +0.12 -0.06    +0.210 HD 
DOCKED: ENDBRANCH  24  25
DOCKED: ENDBRANCH  21  24
DOCKED: ENDBRANCH   1  19
DOCKED: TORSDOF 6
DOCKED: TER
DOCKED: ENDMDL
________________________________________________________________________________


    FINAL DOCKED STATE:
    ________________________


Run:   5 / 20
Time taken for this run:   0.018s

DOCKED: MODEL        5
DOCKED: USER    Run = 5
DOCKED: USER
DOCKED: USER    Estimated Free Energy of Binding    =  -6.88 kcal/mol  [=(1)+(2)+(3)-(4)]
DOCKED: USER
DOCKED: USER    (1) Final Intermolecular Energy     =  -8.67 kcal/mol
DOCKED: USER        vdW + Hbond + desolv Energy     =  -8.53 kcal/mol
DOCKED: USER        Electrostatic Energy            =  -0.14 kcal/mol
DOCKED: USER        Moving Ligand-Fixed Receptor    =  -8.67 kcal/mol
DOCKED: USER        Moving Ligand-Moving Receptor   =  +0.00 kcal/mol
DOCKED: USER    (2) Final Total Internal Energy     =  -1.77 kcal/mol
DOCKED: USER    (3) Torsional Free Energy           =  +1.79 kcal/mol
DOCKED: USER    (4) Unbound System's Energy         =  -1.77 kcal/mol
DOCKED: USER
DOCKED: USER
DOCKED: REMARK SMILES O=C(NCC(=O)N1CCC[C@H]1CO)c1ccc2cc(Cl)ccc2n1
DOCKED: REMARK SMILES IDX 5 1 6 2 4 3 3 4 2 5 1 6 14 8 15 9 24 10 16 11 23 12 17 13
DOCKED: REMARK SMILES IDX 22 14 18 15 21 16 19 17 20 18 7 19 8 20 11 21 9 22 10 23
DOCKED: REMARK SMILES IDX 12 24 13 25
DOCKED: REMARK H PARENT 3 7 13 26
DOCKED: USER                              x       y       z     vdW  Elec       q    Type
DOCKED: USER                           _______ _______ _______ _____ _____    ______ ____
DOCKED: ROOT
DOCKED: ATOM      1  C   UNL     1     138.968  70.156 224.412 -0.23 -0.04    +0.242 C  
DOCKED: ATOM      2  O   UNL     1     137.780  69.757 224.584 -0.18 +0.03    -0.273 OA 
DOCKED: ENDROOT
DOCKED: BRANCH   1   3
DOCKED: ATOM      3  C   UNL     1     139.361  70.439 222.994 -0.17 -0.04    +0.216 C  
DOCKED: BRANCH   3   4
DOCKED: ATOM      4  N   UNL     1     139.646  71.824 222.796 -0.16 +0.07    -0.342 N  
DOCKED: ATOM      5  C   UNL     1     140.556  72.200 221.769 -0.18 -0.03    +0.270 C  
DOCKED: ATOM      6  O   UNL     1     141.090  71.308 221.057 -0.11 +0.03    -0.268 OA 
DOCKED: ATOM      7  H   UNL     1     139.169  72.524 223.421 -0.29 -0.07    +0.164 HD 
DOCKED: BRANCH   5   8
DOCKED: ATOM      8  C   UNL     1     140.863  73.608 221.545 -0.25 -0.01    +0.128 A  
DOCKED: ATOM      9  C   UNL     1     141.901  73.949 220.696 -0.26 -0.01    +0.035 A  
DOCKED: ATOM     10  N   UNL     1     140.185  74.613 222.127 -0.71 +0.01    -0.243 NA 
DOCKED: ATOM     11  C   UNL     1     142.168  75.297 220.504 -0.30 -0.01    +0.013 A  
DOCKED: ATOM     12  C   UNL     1     140.425  75.906 221.957 -0.34 -0.02    +0.071 A  
DOCKED: ATOM     13  C   UNL     1     141.451  76.297 221.119 -0.29 -0.00    +0.002 A  
DOCKED: ATOM     14  C   UNL     1     139.648  76.851 222.619 -0.27 -0.01    +0.030 A  
DOCKED: ATOM     15  C   UNL     1     141.749  77.631 220.901 -0.28 -0.02    +0.030 A  
DOCKED: ATOM     16  C   UNL     1     139.944  78.177 222.404 -0.34 -0.01    +0.023 A  
DOCKED: ATOM     17  C   UNL     1     140.971  78.576 221.564 -0.32 -0.02    +0.041 A  
DOCKED: ATOM     18  Cl  UNL     1     141.319  80.275 221.314 -0.44 +0.03    -0.084 Cl 
DOCKED: ENDBRANCH   5   8
DOCKED: ENDBRANCH   3   4
DOCKED: ENDBRANCH   1   3
DOCKED: BRANCH   1  19
DOCKED: ATOM     19  N   UNL     1     139.875  70.328 225.467 -0.20 +0.05    -0.336 N  
DOCKED: ATOM     20  C   UNL     1     140.331  71.627 225.980 -0.36 -0.02    +0.120 C  
DOCKED: ATOM     21  C   UNL     1     140.509  69.289 226.222 -0.46 -0.02    +0.110 C  
DOCKED: ATOM     22  C   UNL     1     141.417  71.310 226.973 -0.56 -0.00    +0.024 C  
DOCKED: ATOM     23  C   UNL     1     140.902  69.971 227.519 -0.59 -0.01    +0.029 C  
DOCKED: BRANCH  21  24
DOCKED: ATOM     24  C   UNL     1     139.612  68.121 226.545 -0.48 -0.03    +0.181 C  
DOCKED: BRANCH  24  25
DOCKED: ATOM     25  O   UNL     1     139.234  67.382 225.452 -0.83 -0.02    -0.394 OA 
DOCKED: ATOM     26  H   UNL     1     138.977  67.967 224.673 +0.08 -0.00    +0.210 HD 
DOCKED: ENDBRANCH  24  25
DOCKED: ENDBRANCH  21  24
DOCKED: ENDBRANCH   1  19
DOCKED: TORSDOF 6
DOCKED: TER
DOCKED: ENDMDL
________________________________________________________________________________


    FINAL DOCKED STATE:
    ________________________


Run:   6 / 20
Time taken for this run:   0.018s

DOCKED: MODEL        6
DOCKED: USER    Run = 6
DOCKED: USER
DOCKED: USER    Estimated Free Energy of Binding    =  -6.89 kcal/mol  [=(1)+(2)+(3)-(4)]
DOCKED: USER
DOCKED: USER    (1) Final Intermolecular Energy     =  -8.68 kcal/mol
DOCKED: USER        vdW + Hbond + desolv Energy     =  -8.55 kcal/mol
DOCKED: USER        Electrostatic Energy            =  -0.13 kcal/mol
DOCKED: USER        Moving Ligand-Fixed Receptor    =  -8.68 kcal/mol
DOCKED: USER        Moving Ligand-Moving Receptor   =  +0.00 kcal/mol
DOCKED: USER    (2) Final Total Internal Energy     =  -1.80 kcal/mol
DOCKED: USER    (3) Torsional Free Energy           =  +1.79 kcal/mol
DOCKED: USER    (4) Unbound System's Energy         =  -1.80 kcal/mol
DOCKED: USER
DOCKED: USER
DOCKED: REMARK SMILES O=C(NCC(=O)N1CCC[C@H]1CO)c1ccc2cc(Cl)ccc2n1
DOCKED: REMARK SMILES IDX 5 1 6 2 4 3 3 4 2 5 1 6 14 8 15 9 24 10 16 11 23 12 17 13
DOCKED: REMARK SMILES IDX 22 14 18 15 21 16 19 17 20 18 7 19 8 20 11 21 9 22 10 23
DOCKED: REMARK SMILES IDX 12 24 13 25
DOCKED: REMARK H PARENT 3 7 13 26
DOCKED: USER                              x       y       z     vdW  Elec       q    Type
DOCKED: USER                           _______ _______ _______ _____ _____    ______ ____
DOCKED: ROOT
DOCKED: ATOM      1  C   UNL     1     139.067  70.257 224.438 -0.24 -0.04    +0.242 C  
DOCKED: ATOM      2  O   UNL     1     137.843  69.942 224.504 -0.18 +0.04    -0.273 OA 
DOCKED: ENDROOT
DOCKED: BRANCH   1   3
DOCKED: ATOM      3  C   UNL     1     139.598  70.520 223.062 -0.18 -0.04    +0.216 C  
DOCKED: BRANCH   3   4
DOCKED: ATOM      4  N   UNL     1     139.830  71.913 222.848 -0.17 +0.06    -0.342 N  
DOCKED: ATOM      5  C   UNL     1     140.697  72.313 221.794 -0.18 -0.03    +0.270 C  
DOCKED: ATOM      6  O   UNL     1     141.241  71.435 221.073 -0.12 +0.03    -0.268 OA 
DOCKED: ATOM      7  H   UNL     1     139.348  72.601 223.483 -0.30 -0.06    +0.164 HD 
DOCKED: BRANCH   5   8
DOCKED: ATOM      8  C   UNL     1     140.950  73.729 221.555 -0.25 -0.01    +0.128 A  
DOCKED: ATOM      9  C   UNL     1     141.949  74.099 220.670 -0.26 -0.01    +0.035 A  
DOCKED: ATOM     10  N   UNL     1     140.258  74.715 222.153 -0.67 +0.01    -0.243 NA 
DOCKED: ATOM     11  C   UNL     1     142.165  75.455 220.464 -0.30 -0.01    +0.013 A  
DOCKED: ATOM     12  C   UNL     1     140.450  76.014 221.969 -0.35 -0.02    +0.071 A  
DOCKED: ATOM     13  C   UNL     1     141.434  76.434 221.097 -0.29 -0.00    +0.002 A  
DOCKED: ATOM     14  C   UNL     1     139.663  76.936 222.652 -0.26 -0.01    +0.030 A  
DOCKED: ATOM     15  C   UNL     1     141.681  77.776 220.864 -0.31 -0.02    +0.030 A  
DOCKED: ATOM     16  C   UNL     1     139.908  78.270 222.421 -0.34 -0.01    +0.023 A  
DOCKED: ATOM     17  C   UNL     1     140.893  78.699 221.547 -0.30 -0.02    +0.041 A  
DOCKED: ATOM     18  Cl  UNL     1     141.177  80.407 221.278 -0.42 +0.03    -0.084 Cl 
DOCKED: ENDBRANCH   5   8
DOCKED: ENDBRANCH   3   4
DOCKED: ENDBRANCH   1   3
DOCKED: BRANCH   1  19
DOCKED: ATOM     19  N   UNL     1     139.890  70.357 225.568 -0.20 +0.05    -0.336 N  
DOCKED: ATOM     20  C   UNL     1     140.323  71.619 226.183 -0.38 -0.02    +0.120 C  
DOCKED: ATOM     21  C   UNL     1     140.447  69.268 226.314 -0.47 -0.02    +0.110 C  
DOCKED: ATOM     22  C   UNL     1     141.323  71.230 227.239 -0.56 -0.00    +0.024 C  
DOCKED: ATOM     23  C   UNL     1     140.747  69.875 227.672 -0.61 -0.01    +0.029 C  
DOCKED: BRANCH  21  24
DOCKED: ATOM     24  C   UNL     1     139.512  68.103 226.503 -0.46 -0.02    +0.181 C  
DOCKED: BRANCH  24  25
DOCKED: ATOM     25  O   UNL     1     139.225  67.416 225.349 -0.83 -0.02    -0.394 OA 
DOCKED: ATOM     26  H   UNL     1     138.666  67.965 224.715 +0.09 +0.01    +0.210 HD 
DOCKED: ENDBRANCH  24  25
DOCKED: ENDBRANCH  21  24
DOCKED: ENDBRANCH   1  19
DOCKED: TORSDOF 6
DOCKED: TER
DOCKED: ENDMDL
________________________________________________________________________________


    FINAL DOCKED STATE:
    ________________________


Run:   7 / 20
Time taken for this run:   0.018s

DOCKED: MODEL        7
DOCKED: USER    Run = 7
DOCKED: USER
DOCKED: USER    Estimated Free Energy of Binding    =  -5.98 kcal/mol  [=(1)+(2)+(3)-(4)]
DOCKED: USER
DOCKED: USER    (1) Final Intermolecular Energy     =  -7.77 kcal/mol
DOCKED: USER        vdW + Hbond + desolv Energy     =  -7.77 kcal/mol
DOCKED: USER        Electrostatic Energy            =  +0.00 kcal/mol
DOCKED: USER        Moving Ligand-Fixed Receptor    =  -7.77 kcal/mol
DOCKED: USER        Moving Ligand-Moving Receptor   =  +0.00 kcal/mol
DOCKED: USER    (2) Final Total Internal Energy     =  -2.30 kcal/mol
DOCKED: USER    (3) Torsional Free Energy           =  +1.79 kcal/mol
DOCKED: USER    (4) Unbound System's Energy         =  -2.30 kcal/mol
DOCKED: USER
DOCKED: USER
DOCKED: REMARK SMILES O=C(NCC(=O)N1CCC[C@H]1CO)c1ccc2cc(Cl)ccc2n1
DOCKED: REMARK SMILES IDX 5 1 6 2 4 3 3 4 2 5 1 6 14 8 15 9 24 10 16 11 23 12 17 13
DOCKED: REMARK SMILES IDX 22 14 18 15 21 16 19 17 20 18 7 19 8 20 11 21 9 22 10 23
DOCKED: REMARK SMILES IDX 12 24 13 25
DOCKED: REMARK H PARENT 3 7 13 26
DOCKED: USER                              x       y       z     vdW  Elec       q    Type
DOCKED: USER                           _______ _______ _______ _____ _____    ______ ____
DOCKED: ROOT
DOCKED: ATOM      1  C   UNL     1     141.159  78.204 221.704 -0.25 -0.11    +0.242 C  
DOCKED: ATOM      2  O   UNL     1     142.112  78.186 220.871 -0.23 +0.20    -0.273 OA 
DOCKED: ENDROOT
DOCKED: BRANCH   1   3
DOCKED: ATOM      3  C   UNL     1     140.637  76.864 222.125 -0.30 -0.07    +0.216 C  
DOCKED: BRANCH   3   4
DOCKED: ATOM      4  N   UNL     1     141.438  75.803 221.603 -0.15 +0.13    -0.342 N  
DOCKED: ATOM      5  C   UNL     1     140.919  74.479 221.614 -0.17 -0.03    +0.270 C  
DOCKED: ATOM      6  O   UNL     1     139.768  74.268 222.083 -0.77 +0.03    -0.268 OA 
DOCKED: ATOM      7  H   UNL     1     142.391  76.040 221.224 -0.47 -0.13    +0.164 HD 
DOCKED: BRANCH   5   8
DOCKED: ATOM      8  C   UNL     1     141.716  73.378 221.086 -0.21 -0.02    +0.128 A  
DOCKED: ATOM      9  C   UNL     1     141.111  72.156 220.848 -0.18 -0.00    +0.035 A  
DOCKED: ATOM     10  N   UNL     1     143.029  73.482 220.812 -0.17 +0.05    -0.243 NA 
DOCKED: ATOM     11  C   UNL     1     141.897  71.128 220.345 -0.15 -0.00    +0.013 A  
DOCKED: ATOM     12  C   UNL     1     143.795  72.512 220.332 -0.29 -0.01    +0.071 A  
DOCKED: ATOM     13  C   UNL     1     143.239  71.274 220.078 -0.24 -0.00    +0.002 A  
DOCKED: ATOM     14  C   UNL     1     145.145  72.749 220.090 -0.45 +0.00    +0.030 A  
DOCKED: ATOM     15  C   UNL     1     143.988  70.224 219.576 -0.23 +0.00    +0.030 A  
DOCKED: ATOM     16  C   UNL     1     145.891  71.705 219.592 -0.28 +0.01    +0.023 A  
DOCKED: ATOM     17  C   UNL     1     145.339  70.461 219.334 -0.26 +0.02    +0.041 A  
DOCKED: ATOM     18  Cl  UNL     1     146.320  69.155 218.700 -0.39 -0.04    -0.084 Cl 
DOCKED: ENDBRANCH   5   8
DOCKED: ENDBRANCH   3   4
DOCKED: ENDBRANCH   1   3
DOCKED: BRANCH   1  19
DOCKED: ATOM     19  N   UNL     1     140.611  79.390 222.210 -0.12 +0.09    -0.336 N  
DOCKED: ATOM     20  C   UNL     1     139.172  79.666 222.334 -0.22 -0.02    +0.120 C  
DOCKED: ATOM     21  C   UNL     1     141.338  80.527 222.691 -0.44 -0.03    +0.110 C  
DOCKED: ATOM     22  C   UNL     1     139.073  81.108 222.751 -0.28 -0.00    +0.024 C  
DOCKED: ATOM     23  C   UNL     1     140.347  81.235 223.597 -0.21 -0.00    +0.029 C  
DOCKED: BRANCH  21  24
DOCKED: ATOM     24  C   UNL     1     142.565  80.184 223.495 -0.53 -0.05    +0.181 C  
DOCKED: BRANCH  24  25
DOCKED: ATOM     25  O   UNL     1     143.698  79.997 222.743 -0.32 +0.17    -0.394 OA 
DOCKED: ATOM     26  H   UNL     1     143.545  79.347 221.989 -0.46 -0.19    +0.210 HD 
DOCKED: ENDBRANCH  24  25
DOCKED: ENDBRANCH  21  24
DOCKED: ENDBRANCH   1  19
DOCKED: TORSDOF 6
DOCKED: TER
DOCKED: ENDMDL
________________________________________________________________________________


    FINAL DOCKED STATE:
    ________________________


Run:   8 / 20
Time taken for this run:   0.018s

DOCKED: MODEL        8
DOCKED: USER    Run = 8
DOCKED: USER
DOCKED: USER    Estimated Free Energy of Binding    =  -7.04 kcal/mol  [=(1)+(2)+(3)-(4)]
DOCKED: USER
DOCKED: USER    (1) Final Intermolecular Energy     =  -8.83 kcal/mol
DOCKED: USER        vdW + Hbond + desolv Energy     =  -8.85 kcal/mol
DOCKED: USER        Electrostatic Energy            =  +0.02 kcal/mol
DOCKED: USER        Moving Ligand-Fixed Receptor    =  -8.83 kcal/mol
DOCKED: USER        Moving Ligand-Moving Receptor   =  +0.00 kcal/mol
DOCKED: USER    (2) Final Total Internal Energy     =  -1.61 kcal/mol
DOCKED: USER    (3) Torsional Free Energy           =  +1.79 kcal/mol
DOCKED: USER    (4) Unbound System's Energy         =  -1.61 kcal/mol
DOCKED: USER
DOCKED: USER
DOCKED: REMARK SMILES O=C(NCC(=O)N1CCC[C@H]1CO)c1ccc2cc(Cl)ccc2n1
DOCKED: REMARK SMILES IDX 5 1 6 2 4 3 3 4 2 5 1 6 14 8 15 9 24 10 16 11 23 12 17 13
DOCKED: REMARK SMILES IDX 22 14 18 15 21 16 19 17 20 18 7 19 8 20 11 21 9 22 10 23
DOCKED: REMARK SMILES IDX 12 24 13 25
DOCKED: REMARK H PARENT 3 7 13 26
DOCKED: USER                              x       y       z     vdW  Elec       q    Type
DOCKED: USER                           _______ _______ _______ _____ _____    ______ ____
DOCKED: ROOT
DOCKED: ATOM      1  C   UNL     1     140.288  76.531 221.547 -0.23 -0.07    +0.242 C  
DOCKED: ATOM      2  O   UNL     1     141.527  76.570 221.296 -0.19 +0.14    -0.273 OA 
DOCKED: ENDROOT
DOCKED: BRANCH   1   3
DOCKED: ATOM      3  C   UNL     1     139.591  75.254 221.191 -0.18 -0.05    +0.216 C  
DOCKED: BRANCH   3   4
DOCKED: ATOM      4  N   UNL     1     139.634  74.316 222.268 -0.08 +0.04    -0.342 N  
DOCKED: ATOM      5  C   UNL     1     139.925  72.954 221.984 -0.19 -0.04    +0.270 C  
DOCKED: ATOM      6  O   UNL     1     140.137  72.600 220.793 -0.08 +0.05    -0.268 OA 
DOCKED: ATOM      7  H   UNL     1     139.448  74.670 223.242 -0.50 -0.02    +0.164 HD 
DOCKED: BRANCH   5   8
DOCKED: ATOM      8  C   UNL     1     139.976  71.977 223.066 -0.29 -0.02    +0.128 A  
DOCKED: ATOM      9  C   UNL     1     139.515  70.691 222.841 -0.25 -0.01    +0.035 A  
DOCKED: ATOM     10  N   UNL     1     140.452  72.257 224.292 -0.06 +0.03    -0.243 NA 
DOCKED: ATOM     11  C   UNL     1     139.577  69.786 223.890 -0.29 -0.00    +0.013 A  
DOCKED: ATOM     12  C   UNL     1     140.519  71.406 225.306 -0.50 -0.01    +0.071 A  
DOCKED: ATOM     13  C   UNL     1     140.072  70.111 225.132 -0.44 -0.00    +0.002 A  
DOCKED: ATOM     14  C   UNL     1     141.036  71.822 226.529 -0.70 -0.00    +0.030 A  
DOCKED: ATOM     15  C   UNL     1     140.117  69.178 226.153 -0.50 -0.01    +0.030 A  
DOCKED: ATOM     16  C   UNL     1     141.080  70.895 227.546 -0.66 -0.00    +0.023 A  
DOCKED: ATOM     17  C   UNL     1     140.634  69.595 227.377 -0.56 -0.01    +0.041 A  
DOCKED: ATOM     18  Cl  UNL     1     140.706  68.442 228.695 -0.71 +0.02    -0.084 Cl 
DOCKED: ENDBRANCH   5   8
DOCKED: ENDBRANCH   3   4
DOCKED: ENDBRANCH   1   3
DOCKED: BRANCH   1  19
DOCKED: ATOM     19  N   UNL     1     139.592  77.605 222.119 -0.13 +0.08    -0.336 N  
DOCKED: ATOM     20  C   UNL     1     138.150  77.616 222.402 -0.22 -0.02    +0.120 C  
DOCKED: ATOM     21  C   UNL     1     140.149  78.861 222.524 -0.32 -0.03    +0.110 C  
DOCKED: ATOM     22  C   UNL     1     137.836  79.022 222.838 -0.23 -0.00    +0.024 C  
DOCKED: ATOM     23  C   UNL     1     139.151  79.389 223.539 -0.38 -0.00    +0.029 C  
DOCKED: BRANCH  21  24
DOCKED: ATOM     24  C   UNL     1     141.499  78.757 223.186 -0.45 -0.06    +0.181 C  
DOCKED: BRANCH  24  25
DOCKED: ATOM     25  O   UNL     1     142.557  79.016 222.351 -0.28 +0.24    -0.394 OA 
DOCKED: ATOM     26  H   UNL     1     142.835  78.198 221.832 -0.43 -0.23    +0.210 HD 
DOCKED: ENDBRANCH  24  25
DOCKED: ENDBRANCH  21  24
DOCKED: ENDBRANCH   1  19
DOCKED: TORSDOF 6
DOCKED: TER
DOCKED: ENDMDL
________________________________________________________________________________


    FINAL DOCKED STATE:
    ________________________


Run:   9 / 20
Time taken for this run:   0.018s

DOCKED: MODEL        9
DOCKED: USER    Run = 9
DOCKED: USER
DOCKED: USER    Estimated Free Energy of Binding    =  -6.60 kcal/mol  [=(1)+(2)+(3)-(4)]
DOCKED: USER
DOCKED: USER    (1) Final Intermolecular Energy     =  -8.39 kcal/mol
DOCKED: USER        vdW + Hbond + desolv Energy     =  -8.28 kcal/mol
DOCKED: USER        Electrostatic Energy            =  -0.11 kcal/mol
DOCKED: USER        Moving Ligand-Fixed Receptor    =  -8.39 kcal/mol
DOCKED: USER        Moving Ligand-Moving Receptor   =  +0.00 kcal/mol
DOCKED: USER    (2) Final Total Internal Energy     =  -1.74 kcal/mol
DOCKED: USER    (3) Torsional Free Energy           =  +1.79 kcal/mol
DOCKED: USER    (4) Unbound System's Energy         =  -1.74 kcal/mol
DOCKED: USER
DOCKED: USER
DOCKED: REMARK SMILES O=C(NCC(=O)N1CCC[C@H]1CO)c1ccc2cc(Cl)ccc2n1
DOCKED: REMARK SMILES IDX 5 1 6 2 4 3 3 4 2 5 1 6 14 8 15 9 24 10 16 11 23 12 17 13
DOCKED: REMARK SMILES IDX 22 14 18 15 21 16 19 17 20 18 7 19 8 20 11 21 9 22 10 23
DOCKED: REMARK SMILES IDX 12 24 13 25
DOCKED: REMARK H PARENT 3 7 13 26
DOCKED: USER                              x       y       z     vdW  Elec       q    Type
DOCKED: USER                           _______ _______ _______ _____ _____    ______ ____
DOCKED: ROOT
DOCKED: ATOM      1  C   UNL     1     140.570  76.177 221.269 -0.22 -0.07    +0.242 C  
DOCKED: ATOM      2  O   UNL     1     141.148  76.147 222.395 -0.33 +0.09    -0.273 OA 
DOCKED: ENDROOT
DOCKED: BRANCH   1   3
DOCKED: ATOM      3  C   UNL     1     139.522  75.130 221.048 -0.16 -0.05    +0.216 C  
DOCKED: BRANCH   3   4
DOCKED: ATOM      4  N   UNL     1     139.480  74.195 222.127 -0.13 +0.06    -0.342 N  
DOCKED: ATOM      5  C   UNL     1     140.141  72.944 221.981 -0.20 -0.03    +0.270 C  
DOCKED: ATOM      6  O   UNL     1     140.748  72.685 220.908 -0.12 +0.04    -0.268 OA 
DOCKED: ATOM      7  H   UNL     1     138.957  74.466 223.000 -0.55 -0.07    +0.164 HD 
DOCKED: BRANCH   5   8
DOCKED: ATOM      8  C   UNL     1     140.114  71.972 223.068 -0.30 -0.02    +0.128 A  
DOCKED: ATOM      9  C   UNL     1     139.591  70.712 222.838 -0.25 -0.01    +0.035 A  
DOCKED: ATOM     10  N   UNL     1     140.576  72.234 224.304 -0.05 +0.03    -0.243 NA 
DOCKED: ATOM     11  C   UNL     1     139.580  69.810 223.893 -0.29 -0.00    +0.013 A  
DOCKED: ATOM     12  C   UNL     1     140.573  71.386 225.324 -0.51 -0.01    +0.071 A  
DOCKED: ATOM     13  C   UNL     1     140.062  70.116 225.145 -0.45 -0.00    +0.002 A  
DOCKED: ATOM     14  C   UNL     1     141.082  71.782 226.557 -0.71 -0.00    +0.030 A  
DOCKED: ATOM     15  C   UNL     1     140.032  69.188 226.171 -0.49 -0.01    +0.030 A  
DOCKED: ATOM     16  C   UNL     1     141.052  70.860 227.578 -0.66 -0.00    +0.023 A  
DOCKED: ATOM     17  C   UNL     1     140.542  69.584 227.405 -0.57 -0.01    +0.041 A  
DOCKED: ATOM     18  Cl  UNL     1     140.521  68.436 228.729 -0.64 +0.02    -0.084 Cl 
DOCKED: ENDBRANCH   5   8
DOCKED: ENDBRANCH   3   4
DOCKED: ENDBRANCH   1   3
DOCKED: BRANCH   1  19
DOCKED: ATOM     19  N   UNL     1     140.879  77.119 220.279 -0.07 +0.14    -0.336 N  
DOCKED: ATOM     20  C   UNL     1     140.227  78.428 220.132 -0.12 -0.04    +0.120 C  
DOCKED: ATOM     21  C   UNL     1     141.866  76.981 219.251 -0.22 -0.06    +0.110 C  
DOCKED: ATOM     22  C   UNL     1     140.755  78.998 218.843 -0.14 -0.01    +0.024 C  
DOCKED: ATOM     23  C   UNL     1     142.172  78.411 218.848 -0.28 -0.02    +0.029 C  
DOCKED: BRANCH  21  24
DOCKED: ATOM     24  C   UNL     1     143.145  76.323 219.702 -0.29 -0.12    +0.181 C  
DOCKED: BRANCH  24  25
DOCKED: ATOM     25  O   UNL     1     142.962  75.150 220.391 -0.18 +0.19    -0.394 OA 
DOCKED: ATOM     26  H   UNL     1     142.827  75.310 221.377 -0.37 -0.14    +0.210 HD 
DOCKED: ENDBRANCH  24  25
DOCKED: ENDBRANCH  21  24
DOCKED: ENDBRANCH   1  19
DOCKED: TORSDOF 6
DOCKED: TER
DOCKED: ENDMDL
________________________________________________________________________________


    FINAL DOCKED STATE:
    ________________________


Run:   10 / 20
Time taken for this run:   0.018s

DOCKED: MODEL        10
DOCKED: USER    Run = 10
DOCKED: USER
DOCKED: USER    Estimated Free Energy of Binding    =  -6.65 kcal/mol  [=(1)+(2)+(3)-(4)]
DOCKED: USER
DOCKED: USER    (1) Final Intermolecular Energy     =  -8.44 kcal/mol
DOCKED: USER        vdW + Hbond + desolv Energy     =  -8.41 kcal/mol
DOCKED: USER        Electrostatic Energy            =  -0.04 kcal/mol
DOCKED: USER        Moving Ligand-Fixed Receptor    =  -8.44 kcal/mol
DOCKED: USER        Moving Ligand-Moving Receptor   =  +0.00 kcal/mol
DOCKED: USER    (2) Final Total Internal Energy     =  -2.02 kcal/mol
DOCKED: USER    (3) Torsional Free Energy           =  +1.79 kcal/mol
DOCKED: USER    (4) Unbound System's Energy         =  -2.02 kcal/mol
DOCKED: USER
DOCKED: USER
DOCKED: REMARK SMILES O=C(NCC(=O)N1CCC[C@H]1CO)c1ccc2cc(Cl)ccc2n1
DOCKED: REMARK SMILES IDX 5 1 6 2 4 3 3 4 2 5 1 6 14 8 15 9 24 10 16 11 23 12 17 13
DOCKED: REMARK SMILES IDX 22 14 18 15 21 16 19 17 20 18 7 19 8 20 11 21 9 22 10 23
DOCKED: REMARK SMILES IDX 12 24 13 25
DOCKED: REMARK H PARENT 3 7 13 26
DOCKED: USER                              x       y       z     vdW  Elec       q    Type
DOCKED: USER                           _______ _______ _______ _____ _____    ______ ____
DOCKED: ROOT
DOCKED: ATOM      1  C   UNL     1     140.323  70.877 225.234 -0.37 -0.04    +0.242 C  
DOCKED: ATOM      2  O   UNL     1     140.842  71.916 225.736 -0.43 +0.04    -0.273 OA 
DOCKED: ENDROOT
DOCKED: BRANCH   1   3
DOCKED: ATOM      3  C   UNL     1     139.947  70.972 223.786 -0.27 -0.04    +0.216 C  
DOCKED: BRANCH   3   4
DOCKED: ATOM      4  N   UNL     1     140.220  72.271 223.259 -0.18 +0.04    -0.342 N  
DOCKED: ATOM      5  C   UNL     1     140.807  72.382 221.968 -0.18 -0.02    +0.270 C  
DOCKED: ATOM      6  O   UNL     1     141.075  71.336 221.317 -0.13 +0.03    -0.268 OA 
DOCKED: ATOM      7  H   UNL     1     139.974  73.108 223.848 -0.29 -0.02    +0.164 HD 
DOCKED: BRANCH   5   8
DOCKED: ATOM      8  C   UNL     1     141.094  73.696 221.406 -0.24 -0.01    +0.128 A  
DOCKED: ATOM      9  C   UNL     1     141.775  73.787 220.205 -0.20 -0.01    +0.035 A  
DOCKED: ATOM     10  N   UNL     1     140.729  74.848 221.998 -0.61 +0.02    -0.243 NA 
DOCKED: ATOM     11  C   UNL     1     142.033  75.053 219.698 -0.22 -0.00    +0.013 A  
DOCKED: ATOM     12  C   UNL     1     140.966  76.065 221.529 -0.32 -0.02    +0.071 A  
DOCKED: ATOM     13  C   UNL     1     141.643  76.208 220.334 -0.28 -0.00    +0.002 A  
DOCKED: ATOM     14  C   UNL     1     140.533  77.180 222.240 -0.40 -0.01    +0.030 A  
DOCKED: ATOM     15  C   UNL     1     141.919  77.452 219.794 -0.29 -0.02    +0.030 A  
DOCKED: ATOM     16  C   UNL     1     140.809  78.418 221.705 -0.33 -0.01    +0.023 A  
DOCKED: ATOM     17  C   UNL     1     141.486  78.568 220.506 -0.28 -0.02    +0.041 A  
DOCKED: ATOM     18  Cl  UNL     1     141.819  80.161 219.854 -0.38 +0.04    -0.084 Cl 
DOCKED: ENDBRANCH   5   8
DOCKED: ENDBRANCH   3   4
DOCKED: ENDBRANCH   1   3
DOCKED: BRANCH   1  19
DOCKED: ATOM     19  N   UNL     1     140.102  69.703 225.967 -0.19 +0.06    -0.336 N  
DOCKED: ATOM     20  C   UNL     1     139.949  68.364 225.383 -0.33 -0.02    +0.120 C  
DOCKED: ATOM     21  C   UNL     1     139.990  69.598 227.391 -0.52 -0.02    +0.110 C  
DOCKED: ATOM     22  C   UNL     1     139.558  67.468 226.527 -0.60 -0.00    +0.024 C  
DOCKED: ATOM     23  C   UNL     1     140.320  68.144 227.674 -0.63 -0.01    +0.029 C  
DOCKED: BRANCH  21  24
DOCKED: ATOM     24  C   UNL     1     140.954  70.468 228.156 -0.42 -0.03    +0.181 C  
DOCKED: BRANCH  24  25
DOCKED: ATOM     25  O   UNL     1     140.524  71.759 228.339 -0.45 +0.10    -0.394 OA 
DOCKED: ATOM     26  H   UNL     1     140.502  72.274 227.473 +0.14 -0.05    +0.210 HD 
DOCKED: ENDBRANCH  24  25
DOCKED: ENDBRANCH  21  24
DOCKED: ENDBRANCH   1  19
DOCKED: TORSDOF 6
DOCKED: TER
DOCKED: ENDMDL
________________________________________________________________________________


    FINAL DOCKED STATE:
    ________________________


Run:   11 / 20
Time taken for this run:   0.018s

DOCKED: MODEL        11
DOCKED: USER    Run = 11
DOCKED: USER
DOCKED: USER    Estimated Free Energy of Binding    =  -6.72 kcal/mol  [=(1)+(2)+(3)-(4)]
DOCKED: USER
DOCKED: USER    (1) Final Intermolecular Energy     =  -8.51 kcal/mol
DOCKED: USER        vdW + Hbond + desolv Energy     =  -8.42 kcal/mol
DOCKED: USER        Electrostatic Energy            =  -0.09 kcal/mol
DOCKED: USER        Moving Ligand-Fixed Receptor    =  -8.51 kcal/mol
DOCKED: USER        Moving Ligand-Moving Receptor   =  +0.00 kcal/mol
DOCKED: USER    (2) Final Total Internal Energy     =  -2.02 kcal/mol
DOCKED: USER    (3) Torsional Free Energy           =  +1.79 kcal/mol
DOCKED: USER    (4) Unbound System's Energy         =  -2.02 kcal/mol
DOCKED: USER
DOCKED: USER
DOCKED: REMARK SMILES O=C(NCC(=O)N1CCC[C@H]1CO)c1ccc2cc(Cl)ccc2n1
DOCKED: REMARK SMILES IDX 5 1 6 2 4 3 3 4 2 5 1 6 14 8 15 9 24 10 16 11 23 12 17 13
DOCKED: REMARK SMILES IDX 22 14 18 15 21 16 19 17 20 18 7 19 8 20 11 21 9 22 10 23
DOCKED: REMARK SMILES IDX 12 24 13 25
DOCKED: REMARK H PARENT 3 7 13 26
DOCKED: USER                              x       y       z     vdW  Elec       q    Type
DOCKED: USER                           _______ _______ _______ _____ _____    ______ ____
DOCKED: ROOT
DOCKED: ATOM      1  C   UNL     1     140.132  76.661 221.543 -0.22 -0.07    +0.242 C  
DOCKED: ATOM      2  O   UNL     1     139.641  76.891 222.687 -0.26 +0.05    -0.273 OA 
DOCKED: ENDROOT
DOCKED: BRANCH   1   3
DOCKED: ATOM      3  C   UNL     1     140.017  75.248 221.057 -0.18 -0.05    +0.216 C  
DOCKED: BRANCH   3   4
DOCKED: ATOM      4  N   UNL     1     139.921  74.327 222.144 -0.06 +0.03    -0.342 N  
DOCKED: ATOM      5  C   UNL     1     140.315  72.976 221.938 -0.20 -0.03    +0.270 C  
DOCKED: ATOM      6  O   UNL     1     140.738  72.619 220.806 -0.11 +0.04    -0.268 OA 
DOCKED: ATOM      7  H   UNL     1     139.560  74.682 223.067 -0.49 -0.01    +0.164 HD 
DOCKED: BRANCH   5   8
DOCKED: ATOM      8  C   UNL     1     140.227  72.015 223.032 -0.30 -0.02    +0.128 A  
DOCKED: ATOM      9  C   UNL     1     139.642  70.781 222.806 -0.25 -0.01    +0.035 A  
DOCKED: ATOM     10  N   UNL     1     140.691  72.262 224.270 -0.02 +0.02    -0.243 NA 
DOCKED: ATOM     11  C   UNL     1     139.575  69.890 223.867 -0.30 -0.00    +0.013 A  
DOCKED: ATOM     12  C   UNL     1     140.635  71.423 225.296 -0.51 -0.01    +0.071 A  
DOCKED: ATOM     13  C   UNL     1     140.060  70.180 225.121 -0.45 -0.00    +0.002 A  
DOCKED: ATOM     14  C   UNL     1     141.153  71.801 226.531 -0.70 -0.00    +0.030 A  
DOCKED: ATOM     15  C   UNL     1     139.974  69.262 226.154 -0.48 -0.00    +0.030 A  
DOCKED: ATOM     16  C   UNL     1     141.066  70.890 227.559 -0.66 -0.00    +0.023 A  
DOCKED: ATOM     17  C   UNL     1     140.492  69.641 227.390 -0.56 -0.01    +0.041 A  
DOCKED: ATOM     18  Cl  UNL     1     140.400  68.506 228.722 -0.67 +0.02    -0.084 Cl 
DOCKED: ENDBRANCH   5   8
DOCKED: ENDBRANCH   3   4
DOCKED: ENDBRANCH   1   3
DOCKED: BRANCH   1  19
DOCKED: ATOM     19  N   UNL     1     140.750  77.650 220.767 -0.08 +0.13    -0.336 N  
DOCKED: ATOM     20  C   UNL     1     140.388  77.979 219.381 -0.09 -0.04    +0.120 C  
DOCKED: ATOM     21  C   UNL     1     141.825  78.504 221.174 -0.30 -0.07    +0.110 C  
DOCKED: ATOM     22  C   UNL     1     141.429  78.960 218.914 -0.22 -0.01    +0.024 C  
DOCKED: ATOM     23  C   UNL     1     141.724  79.689 220.232 -0.29 -0.01    +0.029 C  
DOCKED: BRANCH  21  24
DOCKED: ATOM     24  C   UNL     1     141.718  79.004 222.591 -0.41 -0.08    +0.181 C  
DOCKED: BRANCH  24  25
DOCKED: ATOM     25  O   UNL     1     141.834  78.024 223.545 -0.30 +0.17    -0.394 OA 
DOCKED: ATOM     26  H   UNL     1     141.789  77.101 223.143 -0.30 -0.12    +0.210 HD 
DOCKED: ENDBRANCH  24  25
DOCKED: ENDBRANCH  21  24
DOCKED: ENDBRANCH   1  19
DOCKED: TORSDOF 6
DOCKED: TER
DOCKED: ENDMDL
________________________________________________________________________________


    FINAL DOCKED STATE:
    ________________________


Run:   12 / 20
Time taken for this run:   0.018s

DOCKED: MODEL        12
DOCKED: USER    Run = 12
DOCKED: USER
DOCKED: USER    Estimated Free Energy of Binding    =  -6.40 kcal/mol  [=(1)+(2)+(3)-(4)]
DOCKED: USER
DOCKED: USER    (1) Final Intermolecular Energy     =  -8.19 kcal/mol
DOCKED: USER        vdW + Hbond + desolv Energy     =  -8.17 kcal/mol
DOCKED: USER        Electrostatic Energy            =  -0.02 kcal/mol
DOCKED: USER        Moving Ligand-Fixed Receptor    =  -8.19 kcal/mol
DOCKED: USER        Moving Ligand-Moving Receptor   =  +0.00 kcal/mol
DOCKED: USER    (2) Final Total Internal Energy     =  -2.32 kcal/mol
DOCKED: USER    (3) Torsional Free Energy           =  +1.79 kcal/mol
DOCKED: USER    (4) Unbound System's Energy         =  -2.32 kcal/mol
DOCKED: USER
DOCKED: USER
DOCKED: REMARK SMILES O=C(NCC(=O)N1CCC[C@H]1CO)c1ccc2cc(Cl)ccc2n1
DOCKED: REMARK SMILES IDX 5 1 6 2 4 3 3 4 2 5 1 6 14 8 15 9 24 10 16 11 23 12 17 13
DOCKED: REMARK SMILES IDX 22 14 18 15 21 16 19 17 20 18 7 19 8 20 11 21 9 22 10 23
DOCKED: REMARK SMILES IDX 12 24 13 25
DOCKED: REMARK H PARENT 3 7 13 26
DOCKED: USER                              x       y       z     vdW  Elec       q    Type
DOCKED: USER                           _______ _______ _______ _____ _____    ______ ____
DOCKED: ROOT
DOCKED: ATOM      1  C   UNL     1     140.647  75.985 221.323 -0.23 -0.07    +0.242 C  
DOCKED: ATOM      2  O   UNL     1     141.003  76.101 222.532 -0.32 +0.07    -0.273 OA 
DOCKED: ENDROOT
DOCKED: BRANCH   1   3
DOCKED: ATOM      3  C   UNL     1     139.482  75.076 221.072 -0.16 -0.05    +0.216 C  
DOCKED: BRANCH   3   4
DOCKED: ATOM      4  N   UNL     1     139.361  74.085 222.093 -0.12 +0.07    -0.342 N  
DOCKED: ATOM      5  C   UNL     1     140.370  73.090 222.211 -0.13 -0.02    +0.270 C  
DOCKED: ATOM      6  O   UNL     1     141.347  73.101 221.416 -0.24 +0.03    -0.268 OA 
DOCKED: ATOM      7  H   UNL     1     138.523  74.127 222.729 -0.56 -0.08    +0.164 HD 
DOCKED: BRANCH   5   8
DOCKED: ATOM      8  C   UNL     1     140.271  72.068 223.246 -0.29 -0.02    +0.128 A  
DOCKED: ATOM      9  C   UNL     1     139.720  70.837 222.933 -0.26 -0.01    +0.035 A  
DOCKED: ATOM     10  N   UNL     1     140.690  72.254 224.511 +0.04 +0.03    -0.243 NA 
DOCKED: ATOM     11  C   UNL     1     139.639  69.886 223.941 -0.29 -0.00    +0.013 A  
DOCKED: ATOM     12  C   UNL     1     140.621  71.358 225.486 -0.52 -0.01    +0.071 A  
DOCKED: ATOM     13  C   UNL     1     140.079  70.115 225.224 -0.45 -0.00    +0.002 A  
DOCKED: ATOM     14  C   UNL     1     141.091  71.676 226.756 -0.72 -0.00    +0.030 A  
DOCKED: ATOM     15  C   UNL     1     139.981  69.139 226.200 -0.50 -0.00    +0.030 A  
DOCKED: ATOM     16  C   UNL     1     140.993  70.707 227.728 -0.65 -0.00    +0.023 A  
DOCKED: ATOM     17  C   UNL     1     140.452  69.458 227.472 -0.58 -0.01    +0.041 A  
DOCKED: ATOM     18  Cl  UNL     1     140.344  68.248 228.735 -0.48 +0.02    -0.084 Cl 
DOCKED: ENDBRANCH   5   8
DOCKED: ENDBRANCH   3   4
DOCKED: ENDBRANCH   1   3
DOCKED: BRANCH   1  19
DOCKED: ATOM     19  N   UNL     1     141.290  76.652 220.272 -0.09 +0.15    -0.336 N  
DOCKED: ATOM     20  C   UNL     1     141.353  78.112 220.117 -0.22 -0.06    +0.120 C  
DOCKED: ATOM     21  C   UNL     1     141.989  76.045 219.179 -0.19 -0.05    +0.110 C  
DOCKED: ATOM     22  C   UNL     1     141.979  78.348 218.769 -0.27 -0.02    +0.024 C  
DOCKED: ATOM     23  C   UNL     1     142.921  77.139 218.692 -0.33 -0.02    +0.029 C  
DOCKED: BRANCH  21  24
DOCKED: ATOM     24  C   UNL     1     142.815  74.844 219.562 -0.22 -0.07    +0.181 C  
DOCKED: BRANCH  24  25
DOCKED: ATOM     25  O   UNL     1     143.304  74.881 220.844 -0.13 +0.19    -0.394 OA 
DOCKED: ATOM     26  H   UNL     1     142.564  74.941 221.526 -0.25 -0.09    +0.210 HD 
DOCKED: ENDBRANCH  24  25
DOCKED: ENDBRANCH  21  24
DOCKED: ENDBRANCH   1  19
DOCKED: TORSDOF 6
DOCKED: TER
DOCKED: ENDMDL
________________________________________________________________________________


    FINAL DOCKED STATE:
    ________________________


Run:   13 / 20
Time taken for this run:   0.018s

DOCKED: MODEL        13
DOCKED: USER    Run = 13
DOCKED: USER
DOCKED: USER    Estimated Free Energy of Binding    =  -6.61 kcal/mol  [=(1)+(2)+(3)-(4)]
DOCKED: USER
DOCKED: USER    (1) Final Intermolecular Energy     =  -8.40 kcal/mol
DOCKED: USER        vdW + Hbond + desolv Energy     =  -8.30 kcal/mol
DOCKED: USER        Electrostatic Energy            =  -0.10 kcal/mol
DOCKED: USER        Moving Ligand-Fixed Receptor    =  -8.40 kcal/mol
DOCKED: USER        Moving Ligand-Moving Receptor   =  +0.00 kcal/mol
DOCKED: USER    (2) Final Total Internal Energy     =  -1.89 kcal/mol
DOCKED: USER    (3) Torsional Free Energy           =  +1.79 kcal/mol
DOCKED: USER    (4) Unbound System's Energy         =  -1.89 kcal/mol
DOCKED: USER
DOCKED: USER
DOCKED: REMARK SMILES O=C(NCC(=O)N1CCC[C@H]1CO)c1ccc2cc(Cl)ccc2n1
DOCKED: REMARK SMILES IDX 5 1 6 2 4 3 3 4 2 5 1 6 14 8 15 9 24 10 16 11 23 12 17 13
DOCKED: REMARK SMILES IDX 22 14 18 15 21 16 19 17 20 18 7 19 8 20 11 21 9 22 10 23
DOCKED: REMARK SMILES IDX 12 24 13 25
DOCKED: REMARK H PARENT 3 7 13 26
DOCKED: USER                              x       y       z     vdW  Elec       q    Type
DOCKED: USER                           _______ _______ _______ _____ _____    ______ ____
DOCKED: ROOT
DOCKED: ATOM      1  C   UNL     1     140.524  76.060 221.304 -0.22 -0.07    +0.242 C  
DOCKED: ATOM      2  O   UNL     1     140.640  76.402 222.517 -0.35 +0.07    -0.273 OA 
DOCKED: ENDROOT
DOCKED: BRANCH   1   3
DOCKED: ATOM      3  C   UNL     1     139.651  74.871 221.043 -0.16 -0.05    +0.216 C  
DOCKED: BRANCH   3   4
DOCKED: ATOM      4  N   UNL     1     139.664  73.960 222.143 -0.12 +0.05    -0.342 N  
DOCKED: ATOM      5  C   UNL     1     139.978  72.594 221.903 -0.19 -0.04    +0.270 C  
DOCKED: ATOM      6  O   UNL     1     140.238  72.215 220.729 -0.08 +0.04    -0.268 OA 
DOCKED: ATOM      7  H   UNL     1     139.439  74.335 223.101 -0.53 -0.03    +0.164 HD 
DOCKED: BRANCH   5   8
DOCKED: ATOM      8  C   UNL     1     139.999  71.644 223.009 -0.29 -0.02    +0.128 A  
DOCKED: ATOM      9  C   UNL     1     139.493  70.370 222.818 -0.22 -0.01    +0.035 A  
DOCKED: ATOM     10  N   UNL     1     140.489  71.939 224.226 -0.24 +0.03    -0.243 NA 
DOCKED: ATOM     11  C   UNL     1     139.527  69.490 223.890 -0.26 -0.00    +0.013 A  
DOCKED: ATOM     12  C   UNL     1     140.530  71.112 225.262 -0.50 -0.01    +0.071 A  
DOCKED: ATOM     13  C   UNL     1     140.037  69.830 225.122 -0.42 -0.00    +0.002 A  
DOCKED: ATOM     14  C   UNL     1     141.065  71.541 226.473 -0.69 -0.00    +0.030 A  
DOCKED: ATOM     15  C   UNL     1     140.053  68.922 226.167 -0.51 -0.01    +0.030 A  
DOCKED: ATOM     16  C   UNL     1     141.081  70.640 227.512 -0.62 -0.00    +0.023 A  
DOCKED: ATOM     17  C   UNL     1     140.589  69.351 227.378 -0.57 -0.01    +0.041 A  
DOCKED: ATOM     18  Cl  UNL     1     140.625  68.230 228.725 -0.61 +0.02    -0.084 Cl 
DOCKED: ENDBRANCH   5   8
DOCKED: ENDBRANCH   3   4
DOCKED: ENDBRANCH   1   3
DOCKED: BRANCH   1  19
DOCKED: ATOM     19  N   UNL     1     141.166  76.736 220.257 -0.08 +0.14    -0.336 N  
DOCKED: ATOM     20  C   UNL     1     141.140  76.320 218.848 -0.10 -0.05    +0.120 C  
DOCKED: ATOM     21  C   UNL     1     141.947  77.931 220.368 -0.23 -0.07    +0.110 C  
DOCKED: ATOM     22  C   UNL     1     142.102  77.236 218.140 -0.23 -0.01    +0.024 C  
DOCKED: ATOM     23  C   UNL     1     141.917  78.515 218.967 -0.27 -0.02    +0.029 C  
DOCKED: BRANCH  21  24
DOCKED: ATOM     24  C   UNL     1     141.388  78.951 221.326 -0.27 -0.08    +0.181 C  
DOCKED: BRANCH  24  25
DOCKED: ATOM     25  O   UNL     1     141.799  78.789 222.626 -0.25 +0.18    -0.394 OA 
DOCKED: ATOM     26  H   UNL     1     142.179  77.869 222.787 -0.27 -0.15    +0.210 HD 
DOCKED: ENDBRANCH  24  25
DOCKED: ENDBRANCH  21  24
DOCKED: ENDBRANCH   1  19
DOCKED: TORSDOF 6
DOCKED: TER
DOCKED: ENDMDL
________________________________________________________________________________


    FINAL DOCKED STATE:
    ________________________


Run:   14 / 20
Time taken for this run:   0.018s

DOCKED: MODEL        14
DOCKED: USER    Run = 14
DOCKED: USER
DOCKED: USER    Estimated Free Energy of Binding    =  -6.88 kcal/mol  [=(1)+(2)+(3)-(4)]
DOCKED: USER
DOCKED: USER    (1) Final Intermolecular Energy     =  -8.67 kcal/mol
DOCKED: USER        vdW + Hbond + desolv Energy     =  -8.54 kcal/mol
DOCKED: USER        Electrostatic Energy            =  -0.13 kcal/mol
DOCKED: USER        Moving Ligand-Fixed Receptor    =  -8.67 kcal/mol
DOCKED: USER        Moving Ligand-Moving Receptor   =  +0.00 kcal/mol
DOCKED: USER    (2) Final Total Internal Energy     =  -1.78 kcal/mol
DOCKED: USER    (3) Torsional Free Energy           =  +1.79 kcal/mol
DOCKED: USER    (4) Unbound System's Energy         =  -1.78 kcal/mol
DOCKED: USER
DOCKED: USER
DOCKED: REMARK SMILES O=C(NCC(=O)N1CCC[C@H]1CO)c1ccc2cc(Cl)ccc2n1
DOCKED: REMARK SMILES IDX 5 1 6 2 4 3 3 4 2 5 1 6 14 8 15 9 24 10 16 11 23 12 17 13
DOCKED: REMARK SMILES IDX 22 14 18 15 21 16 19 17 20 18 7 19 8 20 11 21 9 22 10 23
DOCKED: REMARK SMILES IDX 12 24 13 25
DOCKED: REMARK H PARENT 3 7 13 26
DOCKED: USER                              x       y       z     vdW  Elec       q    Type
DOCKED: USER                           _______ _______ _______ _____ _____    ______ ____
DOCKED: ROOT
DOCKED: ATOM      1  C   UNL     1     139.160  70.268 224.565 -0.25 -0.04    +0.242 C  
DOCKED: ATOM      2  O   UNL     1     137.912  70.061 224.572 -0.18 +0.04    -0.273 OA 
DOCKED: ENDROOT
DOCKED: BRANCH   1   3
DOCKED: ATOM      3  C   UNL     1     139.775  70.498 223.218 -0.16 -0.04    +0.216 C  
DOCKED: BRANCH   3   4
DOCKED: ATOM      4  N   UNL     1     139.967  71.889 222.961 -0.18 +0.06    -0.342 N  
DOCKED: ATOM      5  C   UNL     1     140.825  72.282 221.897 -0.18 -0.03    +0.270 C  
DOCKED: ATOM      6  O   UNL     1     141.396  71.398 221.204 -0.13 +0.03    -0.268 OA 
DOCKED: ATOM      7  H   UNL     1     139.463  72.582 223.573 -0.27 -0.06    +0.164 HD 
DOCKED: BRANCH   5   8
DOCKED: ATOM      8  C   UNL     1     141.037  73.696 221.613 -0.24 -0.01    +0.128 A  
DOCKED: ATOM      9  C   UNL     1     141.997  74.066 220.687 -0.26 -0.01    +0.035 A  
DOCKED: ATOM     10  N   UNL     1     140.343  74.681 222.211 -0.65 -0.00    -0.243 NA 
DOCKED: ATOM     11  C   UNL     1     142.175  75.420 220.440 -0.30 -0.01    +0.013 A  
DOCKED: ATOM     12  C   UNL     1     140.499  75.979 221.988 -0.35 -0.02    +0.071 A  
DOCKED: ATOM     13  C   UNL     1     141.444  76.399 221.073 -0.29 -0.00    +0.002 A  
DOCKED: ATOM     14  C   UNL     1     139.714  76.901 222.674 -0.26 -0.01    +0.030 A  
DOCKED: ATOM     15  C   UNL     1     141.652  77.739 220.798 -0.30 -0.02    +0.030 A  
DOCKED: ATOM     16  C   UNL     1     139.921  78.234 222.402 -0.34 -0.01    +0.023 A  
DOCKED: ATOM     17  C   UNL     1     140.866  78.661 221.485 -0.30 -0.02    +0.041 A  
DOCKED: ATOM     18  Cl  UNL     1     141.102  80.368 221.164 -0.40 +0.03    -0.084 Cl 
DOCKED: ENDBRANCH   5   8
DOCKED: ENDBRANCH   3   4
DOCKED: ENDBRANCH   1   3
DOCKED: BRANCH   1  19
DOCKED: ATOM     19  N   UNL     1     139.937  70.282 225.731 -0.20 +0.05    -0.336 N  
DOCKED: ATOM     20  C   UNL     1     140.336  71.494 226.460 -0.49 -0.02    +0.120 C  
DOCKED: ATOM     21  C   UNL     1     140.471  69.141 226.412 -0.48 -0.02    +0.110 C  
DOCKED: ATOM     22  C   UNL     1     141.295  71.028 227.522 -0.51 -0.00    +0.024 C  
DOCKED: ATOM     23  C   UNL     1     140.712  69.642 227.825 -0.62 -0.01    +0.029 C  
DOCKED: BRANCH  21  24
DOCKED: ATOM     24  C   UNL     1     139.536  67.960 226.473 -0.48 -0.02    +0.181 C  
DOCKED: BRANCH  24  25
DOCKED: ATOM     25  O   UNL     1     139.231  67.420 225.248 -0.82 -0.02    -0.394 OA 
DOCKED: ATOM     26  H   UNL     1     138.619  68.018 224.716 +0.09 +0.01    +0.210 HD 
DOCKED: ENDBRANCH  24  25
DOCKED: ENDBRANCH  21  24
DOCKED: ENDBRANCH   1  19
DOCKED: TORSDOF 6
DOCKED: TER
DOCKED: ENDMDL
________________________________________________________________________________


    FINAL DOCKED STATE:
    ________________________


Run:   15 / 20
Time taken for this run:   0.018s

DOCKED: MODEL        15
DOCKED: USER    Run = 15
DOCKED: USER
DOCKED: USER    Estimated Free Energy of Binding    =  -6.62 kcal/mol  [=(1)+(2)+(3)-(4)]
DOCKED: USER
DOCKED: USER    (1) Final Intermolecular Energy     =  -8.41 kcal/mol
DOCKED: USER        vdW + Hbond + desolv Energy     =  -8.32 kcal/mol
DOCKED: USER        Electrostatic Energy            =  -0.09 kcal/mol
DOCKED: USER        Moving Ligand-Fixed Receptor    =  -8.41 kcal/mol
DOCKED: USER        Moving Ligand-Moving Receptor   =  +0.00 kcal/mol
DOCKED: USER    (2) Final Total Internal Energy     =  -1.99 kcal/mol
DOCKED: USER    (3) Torsional Free Energy           =  +1.79 kcal/mol
DOCKED: USER    (4) Unbound System's Energy         =  -1.99 kcal/mol
DOCKED: USER
DOCKED: USER
DOCKED: REMARK SMILES O=C(NCC(=O)N1CCC[C@H]1CO)c1ccc2cc(Cl)ccc2n1
DOCKED: REMARK SMILES IDX 5 1 6 2 4 3 3 4 2 5 1 6 14 8 15 9 24 10 16 11 23 12 17 13
DOCKED: REMARK SMILES IDX 22 14 18 15 21 16 19 17 20 18 7 19 8 20 11 21 9 22 10 23
DOCKED: REMARK SMILES IDX 12 24 13 25
DOCKED: REMARK H PARENT 3 7 13 26
DOCKED: USER                              x       y       z     vdW  Elec       q    Type
DOCKED: USER                           _______ _______ _______ _____ _____    ______ ____
DOCKED: ROOT
DOCKED: ATOM      1  C   UNL     1     140.407  76.286 221.474 -0.23 -0.07    +0.242 C  
DOCKED: ATOM      2  O   UNL     1     140.347  76.562 222.707 -0.33 +0.06    -0.273 OA 
DOCKED: ENDROOT
DOCKED: BRANCH   1   3
DOCKED: ATOM      3  C   UNL     1     139.827  74.963 221.074 -0.18 -0.05    +0.216 C  
DOCKED: BRANCH   3   4
DOCKED: ATOM      4  N   UNL     1     139.795  74.052 222.173 -0.09 +0.04    -0.342 N  
DOCKED: ATOM      5  C   UNL     1     140.106  72.683 221.942 -0.20 -0.04    +0.270 C  
DOCKED: ATOM      6  O   UNL     1     140.401  72.303 220.777 -0.09 +0.04    -0.268 OA 
DOCKED: ATOM      7  H   UNL     1     139.542  74.428 223.123 -0.52 -0.01    +0.164 HD 
DOCKED: BRANCH   5   8
DOCKED: ATOM      8  C   UNL     1     140.082  71.732 223.047 -0.30 -0.02    +0.128 A  
DOCKED: ATOM      9  C   UNL     1     139.540  70.475 222.848 -0.23 -0.01    +0.035 A  
DOCKED: ATOM     10  N   UNL     1     140.564  72.011 224.272 -0.19 +0.03    -0.243 NA 
DOCKED: ATOM     11  C   UNL     1     139.532  69.593 223.920 -0.28 -0.00    +0.013 A  
DOCKED: ATOM     12  C   UNL     1     140.565  71.182 225.307 -0.51 -0.01    +0.071 A  
DOCKED: ATOM     13  C   UNL     1     140.035  69.916 225.159 -0.43 -0.00    +0.002 A  
DOCKED: ATOM     14  C   UNL     1     141.096  71.594 226.525 -0.69 -0.00    +0.030 A  
DOCKED: ATOM     15  C   UNL     1     140.008  69.007 226.202 -0.51 -0.01    +0.030 A  
DOCKED: ATOM     16  C   UNL     1     141.069  70.692 227.564 -0.63 -0.00    +0.023 A  
DOCKED: ATOM     17  C   UNL     1     140.540  69.419 227.422 -0.57 -0.01    +0.041 A  
DOCKED: ATOM     18  Cl  UNL     1     140.523  68.297 228.767 -0.54 +0.02    -0.084 Cl 
DOCKED: ENDBRANCH   5   8
DOCKED: ENDBRANCH   3   4
DOCKED: ENDBRANCH   1   3
DOCKED: BRANCH   1  19
DOCKED: ATOM     19  N   UNL     1     140.977  77.147 220.526 -0.09 +0.14    -0.336 N  
DOCKED: ATOM     20  C   UNL     1     140.780  77.046 219.073 -0.10 -0.05    +0.120 C  
DOCKED: ATOM     21  C   UNL     1     141.837  78.260 220.796 -0.27 -0.07    +0.110 C  
DOCKED: ATOM     22  C   UNL     1     141.718  78.056 218.469 -0.22 -0.01    +0.024 C  
DOCKED: ATOM     23  C   UNL     1     141.698  79.132 219.562 -0.27 -0.02    +0.029 C  
DOCKED: BRANCH  21  24
DOCKED: ATOM     24  C   UNL     1     141.443  79.070 222.005 -0.34 -0.08    +0.181 C  
DOCKED: BRANCH  24  25
DOCKED: ATOM     25  O   UNL     1     141.985  78.622 223.184 -0.29 +0.17    -0.394 OA 
DOCKED: ATOM     26  H   UNL     1     142.158  77.630 223.165 -0.22 -0.15    +0.210 HD 
DOCKED: ENDBRANCH  24  25
DOCKED: ENDBRANCH  21  24
DOCKED: ENDBRANCH   1  19
DOCKED: TORSDOF 6
DOCKED: TER
DOCKED: ENDMDL
________________________________________________________________________________


    FINAL DOCKED STATE:
    ________________________


Run:   16 / 20
Time taken for this run:   0.018s

DOCKED: MODEL        16
DOCKED: USER    Run = 16
DOCKED: USER
DOCKED: USER    Estimated Free Energy of Binding    =  -6.50 kcal/mol  [=(1)+(2)+(3)-(4)]
DOCKED: USER
DOCKED: USER    (1) Final Intermolecular Energy     =  -8.29 kcal/mol
DOCKED: USER        vdW + Hbond + desolv Energy     =  -8.13 kcal/mol
DOCKED: USER        Electrostatic Energy            =  -0.16 kcal/mol
DOCKED: USER        Moving Ligand-Fixed Receptor    =  -8.29 kcal/mol
DOCKED: USER        Moving Ligand-Moving Receptor   =  +0.00 kcal/mol
DOCKED: USER    (2) Final Total Internal Energy     =  -1.85 kcal/mol
DOCKED: USER    (3) Torsional Free Energy           =  +1.79 kcal/mol
DOCKED: USER    (4) Unbound System's Energy         =  -1.85 kcal/mol
DOCKED: USER
DOCKED: USER
DOCKED: REMARK SMILES O=C(NCC(=O)N1CCC[C@H]1CO)c1ccc2cc(Cl)ccc2n1
DOCKED: REMARK SMILES IDX 5 1 6 2 4 3 3 4 2 5 1 6 14 8 15 9 24 10 16 11 23 12 17 13
DOCKED: REMARK SMILES IDX 22 14 18 15 21 16 19 17 20 18 7 19 8 20 11 21 9 22 10 23
DOCKED: REMARK SMILES IDX 12 24 13 25
DOCKED: REMARK H PARENT 3 7 13 26
DOCKED: USER                              x       y       z     vdW  Elec       q    Type
DOCKED: USER                           _______ _______ _______ _____ _____    ______ ____
DOCKED: ROOT
DOCKED: ATOM      1  C   UNL     1     139.239  70.468 224.626 -0.26 -0.04    +0.242 C  
DOCKED: ATOM      2  O   UNL     1     137.976  70.545 224.597 -0.18 +0.05    -0.273 OA 
DOCKED: ENDROOT
DOCKED: BRANCH   1   3
DOCKED: ATOM      3  C   UNL     1     139.933  70.644 223.310 -0.18 -0.04    +0.216 C  
DOCKED: BRANCH   3   4
DOCKED: ATOM      4  N   UNL     1     140.074  72.024 222.972 -0.19 +0.05    -0.342 N  
DOCKED: ATOM      5  C   UNL     1     140.995  72.394 221.954 -0.17 -0.02    +0.270 C  
DOCKED: ATOM      6  O   UNL     1     141.667  71.501 221.371 -0.13 +0.03    -0.268 OA 
DOCKED: ATOM      7  H   UNL     1     139.486  72.726 223.493 -0.32 -0.06    +0.164 HD 
DOCKED: BRANCH   5   8
DOCKED: ATOM      8  C   UNL     1     141.157  73.797 221.590 -0.22 -0.01    +0.128 A  
DOCKED: ATOM      9  C   UNL     1     141.970  74.131 220.520 -0.25 -0.01    +0.035 A  
DOCKED: ATOM     10  N   UNL     1     140.552  74.804 222.244 -0.54 -0.00    -0.243 NA 
DOCKED: ATOM     11  C   UNL     1     142.103  75.475 220.200 -0.28 -0.01    +0.013 A  
DOCKED: ATOM     12  C   UNL     1     140.667  76.093 221.953 -0.36 -0.02    +0.071 A  
DOCKED: ATOM     13  C   UNL     1     141.467  76.477 220.895 -0.29 -0.00    +0.002 A  
DOCKED: ATOM     14  C   UNL     1     139.985  77.040 222.711 -0.27 -0.01    +0.030 A  
DOCKED: ATOM     15  C   UNL     1     141.626  77.806 220.543 -0.30 -0.02    +0.030 A  
DOCKED: ATOM     16  C   UNL     1     140.144  78.362 222.362 -0.35 -0.01    +0.023 A  
DOCKED: ATOM     17  C   UNL     1     140.943  78.754 221.301 -0.29 -0.02    +0.041 A  
DOCKED: ATOM     18  Cl  UNL     1     141.121  80.447 220.886 -0.38 +0.03    -0.084 Cl 
DOCKED: ENDBRANCH   5   8
DOCKED: ENDBRANCH   3   4
DOCKED: ENDBRANCH   1   3
DOCKED: BRANCH   1  19
DOCKED: ATOM     19  N   UNL     1     139.962  70.233 225.804 -0.20 +0.05    -0.336 N  
DOCKED: ATOM     20  C   UNL     1     140.088  71.185 226.916 -0.37 -0.02    +0.120 C  
DOCKED: ATOM     21  C   UNL     1     140.692  69.045 226.131 -0.47 -0.02    +0.110 C  
DOCKED: ATOM     22  C   UNL     1     141.088  70.571 227.859 -0.62 -0.00    +0.024 C  
DOCKED: ATOM     23  C   UNL     1     140.785  69.083 227.645 -0.62 -0.01    +0.029 C  
DOCKED: BRANCH  21  24
DOCKED: ATOM     24  C   UNL     1     140.011  67.765 225.722 -0.40 -0.03    +0.181 C  
DOCKED: BRANCH  24  25
DOCKED: ATOM     25  O   UNL     1     138.648  67.772 225.892 -0.59 -0.02    -0.394 OA 
DOCKED: ATOM     26  H   UNL     1     138.223  68.587 225.478 +0.11 -0.00    +0.210 HD 
DOCKED: ENDBRANCH  24  25
DOCKED: ENDBRANCH  21  24
DOCKED: ENDBRANCH   1  19
DOCKED: TORSDOF 6
DOCKED: TER
DOCKED: ENDMDL
________________________________________________________________________________


    FINAL DOCKED STATE:
    ________________________


Run:   17 / 20
Time taken for this run:   0.018s

DOCKED: MODEL        17
DOCKED: USER    Run = 17
DOCKED: USER
DOCKED: USER    Estimated Free Energy of Binding    =  -6.54 kcal/mol  [=(1)+(2)+(3)-(4)]
DOCKED: USER
DOCKED: USER    (1) Final Intermolecular Energy     =  -8.33 kcal/mol
DOCKED: USER        vdW + Hbond + desolv Energy     =  -8.28 kcal/mol
DOCKED: USER        Electrostatic Energy            =  -0.05 kcal/mol
DOCKED: USER        Moving Ligand-Fixed Receptor    =  -8.33 kcal/mol
DOCKED: USER        Moving Ligand-Moving Receptor   =  +0.00 kcal/mol
DOCKED: USER    (2) Final Total Internal Energy     =  -1.94 kcal/mol
DOCKED: USER    (3) Torsional Free Energy           =  +1.79 kcal/mol
DOCKED: USER    (4) Unbound System's Energy         =  -1.94 kcal/mol
DOCKED: USER
DOCKED: USER
DOCKED: REMARK SMILES O=C(NCC(=O)N1CCC[C@H]1CO)c1ccc2cc(Cl)ccc2n1
DOCKED: REMARK SMILES IDX 5 1 6 2 4 3 3 4 2 5 1 6 14 8 15 9 24 10 16 11 23 12 17 13
DOCKED: REMARK SMILES IDX 22 14 18 15 21 16 19 17 20 18 7 19 8 20 11 21 9 22 10 23
DOCKED: REMARK SMILES IDX 12 24 13 25
DOCKED: REMARK H PARENT 3 7 13 26
DOCKED: USER                              x       y       z     vdW  Elec       q    Type
DOCKED: USER                           _______ _______ _______ _____ _____    ______ ____
DOCKED: ROOT
DOCKED: ATOM      1  C   UNL     1     140.677  75.945 221.208 -0.22 -0.07    +0.242 C  
DOCKED: ATOM      2  O   UNL     1     141.033  76.186 222.398 -0.36 +0.08    -0.273 OA 
DOCKED: ENDROOT
DOCKED: BRANCH   1   3
DOCKED: ATOM      3  C   UNL     1     139.677  74.842 221.039 -0.16 -0.05    +0.216 C  
DOCKED: BRANCH   3   4
DOCKED: ATOM      4  N   UNL     1     139.711  73.931 222.138 -0.12 +0.05    -0.342 N  
DOCKED: ATOM      5  C   UNL     1     139.924  72.548 221.881 -0.18 -0.04    +0.270 C  
DOCKED: ATOM      6  O   UNL     1     140.076  72.155 220.693 -0.07 +0.04    -0.268 OA 
DOCKED: ATOM      7  H   UNL     1     139.577  74.317 223.108 -0.52 -0.01    +0.164 HD 
DOCKED: BRANCH   5   8
DOCKED: ATOM      8  C   UNL     1     139.964  71.598 222.986 -0.29 -0.02    +0.128 A  
DOCKED: ATOM      9  C   UNL     1     139.473  70.317 222.797 -0.22 -0.01    +0.035 A  
DOCKED: ATOM     10  N   UNL     1     140.459  71.897 224.200 -0.27 +0.03    -0.243 NA 
DOCKED: ATOM     11  C   UNL     1     139.526  69.437 223.868 -0.25 -0.00    +0.013 A  
DOCKED: ATOM     12  C   UNL     1     140.517  71.070 225.235 -0.50 -0.01    +0.071 A  
DOCKED: ATOM     13  C   UNL     1     140.040  69.782 225.097 -0.42 -0.00    +0.002 A  
DOCKED: ATOM     14  C   UNL     1     141.056  71.504 226.442 -0.68 -0.00    +0.030 A  
DOCKED: ATOM     15  C   UNL     1     140.074  68.873 226.140 -0.51 -0.01    +0.030 A  
DOCKED: ATOM     16  C   UNL     1     141.090  70.602 227.480 -0.61 -0.00    +0.023 A  
DOCKED: ATOM     17  C   UNL     1     140.614  69.308 227.349 -0.57 -0.01    +0.041 A  
DOCKED: ATOM     18  Cl  UNL     1     140.673  68.186 228.693 -0.63 +0.02    -0.084 Cl 
DOCKED: ENDBRANCH   5   8
DOCKED: ENDBRANCH   3   4
DOCKED: ENDBRANCH   1   3
DOCKED: BRANCH   1  19
DOCKED: ATOM     19  N   UNL     1     141.176  76.650 220.105 -0.08 +0.14    -0.336 N  
DOCKED: ATOM     20  C   UNL     1     141.065  78.103 219.916 -0.18 -0.05    +0.120 C  
DOCKED: ATOM     21  C   UNL     1     141.872  76.094 218.983 -0.17 -0.05    +0.110 C  
DOCKED: ATOM     22  C   UNL     1     141.578  78.370 218.527 -0.21 -0.01    +0.024 C  
DOCKED: ATOM     23  C   UNL     1     142.644  77.271 218.416 -0.31 -0.02    +0.029 C  
DOCKED: BRANCH  21  24
DOCKED: ATOM     24  C   UNL     1     142.850  75.004 219.338 -0.21 -0.07    +0.181 C  
DOCKED: BRANCH  24  25
DOCKED: ATOM     25  O   UNL     1     143.156  74.934 220.675 -0.15 +0.19    -0.394 OA 
DOCKED: ATOM     26  H   UNL     1     142.793  75.724 221.185 -0.38 -0.17    +0.210 HD 
DOCKED: ENDBRANCH  24  25
DOCKED: ENDBRANCH  21  24
DOCKED: ENDBRANCH   1  19
DOCKED: TORSDOF 6
DOCKED: TER
DOCKED: ENDMDL
________________________________________________________________________________


    FINAL DOCKED STATE:
    ________________________


Run:   18 / 20
Time taken for this run:   0.018s

DOCKED: MODEL        18
DOCKED: USER    Run = 18
DOCKED: USER
DOCKED: USER    Estimated Free Energy of Binding    =  -6.75 kcal/mol  [=(1)+(2)+(3)-(4)]
DOCKED: USER
DOCKED: USER    (1) Final Intermolecular Energy     =  -8.54 kcal/mol
DOCKED: USER        vdW + Hbond + desolv Energy     =  -8.47 kcal/mol
DOCKED: USER        Electrostatic Energy            =  -0.07 kcal/mol
DOCKED: USER        Moving Ligand-Fixed Receptor    =  -8.54 kcal/mol
DOCKED: USER        Moving Ligand-Moving Receptor   =  +0.00 kcal/mol
DOCKED: USER    (2) Final Total Internal Energy     =  -1.84 kcal/mol
DOCKED: USER    (3) Torsional Free Energy           =  +1.79 kcal/mol
DOCKED: USER    (4) Unbound System's Energy         =  -1.84 kcal/mol
DOCKED: USER
DOCKED: USER
DOCKED: REMARK SMILES O=C(NCC(=O)N1CCC[C@H]1CO)c1ccc2cc(Cl)ccc2n1
DOCKED: REMARK SMILES IDX 5 1 6 2 4 3 3 4 2 5 1 6 14 8 15 9 24 10 16 11 23 12 17 13
DOCKED: REMARK SMILES IDX 22 14 18 15 21 16 19 17 20 18 7 19 8 20 11 21 9 22 10 23
DOCKED: REMARK SMILES IDX 12 24 13 25
DOCKED: REMARK H PARENT 3 7 13 26
DOCKED: USER                              x       y       z     vdW  Elec       q    Type
DOCKED: USER                           _______ _______ _______ _____ _____    ______ ____
DOCKED: ROOT
DOCKED: ATOM      1  C   UNL     1     140.330  70.936 225.160 -0.36 -0.04    +0.242 C  
DOCKED: ATOM      2  O   UNL     1     141.060  71.886 225.567 -0.43 +0.03    -0.273 OA 
DOCKED: ENDROOT
DOCKED: BRANCH   1   3
DOCKED: ATOM      3  C   UNL     1     139.737  71.110 223.795 -0.28 -0.04    +0.216 C  
DOCKED: BRANCH   3   4
DOCKED: ATOM      4  N   UNL     1     140.018  72.405 223.263 -0.12 +0.06    -0.342 N  
DOCKED: ATOM      5  C   UNL     1     140.776  72.509 222.064 -0.18 -0.02    +0.270 C  
DOCKED: ATOM      6  O   UNL     1     141.184  71.461 221.497 -0.14 +0.03    -0.268 OA 
DOCKED: ATOM      7  H   UNL     1     139.650  73.245 223.781 -0.34 -0.06    +0.164 HD 
DOCKED: BRANCH   5   8
DOCKED: ATOM      8  C   UNL     1     141.075  73.820 221.500 -0.24 -0.01    +0.128 A  
DOCKED: ATOM      9  C   UNL     1     141.805  73.903 220.327 -0.22 -0.01    +0.035 A  
DOCKED: ATOM     10  N   UNL     1     140.676  74.975 222.064 -0.57 +0.02    -0.243 NA 
DOCKED: ATOM     11  C   UNL     1     142.073  75.165 219.816 -0.24 -0.00    +0.013 A  
DOCKED: ATOM     12  C   UNL     1     140.923  76.189 221.591 -0.33 -0.02    +0.071 A  
DOCKED: ATOM     13  C   UNL     1     141.647  76.325 220.423 -0.29 -0.00    +0.002 A  
DOCKED: ATOM     14  C   UNL     1     140.453  77.308 222.271 -0.40 -0.01    +0.030 A  
DOCKED: ATOM     15  C   UNL     1     141.936  77.565 219.881 -0.29 -0.02    +0.030 A  
DOCKED: ATOM     16  C   UNL     1     140.740  78.541 221.733 -0.32 -0.01    +0.023 A  
DOCKED: ATOM     17  C   UNL     1     141.465  78.685 220.562 -0.29 -0.02    +0.041 A  
DOCKED: ATOM     18  Cl  UNL     1     141.811  80.273 219.907 -0.38 +0.04    -0.084 Cl 
DOCKED: ENDBRANCH   5   8
DOCKED: ENDBRANCH   3   4
DOCKED: ENDBRANCH   1   3
DOCKED: BRANCH   1  19
DOCKED: ATOM     19  N   UNL     1     140.077  69.788 225.923 -0.19 +0.05    -0.336 N  
DOCKED: ATOM     20  C   UNL     1     139.934  68.431 225.376 -0.34 -0.02    +0.120 C  
DOCKED: ATOM     21  C   UNL     1     139.915  69.729 227.344 -0.51 -0.02    +0.110 C  
DOCKED: ATOM     22  C   UNL     1     139.498  67.575 226.534 -0.59 -0.00    +0.024 C  
DOCKED: ATOM     23  C   UNL     1     140.226  68.283 227.685 -0.63 -0.01    +0.029 C  
DOCKED: BRANCH  21  24
DOCKED: ATOM     24  C   UNL     1     140.859  70.618 228.113 -0.46 -0.03    +0.181 C  
DOCKED: BRANCH  24  25
DOCKED: ATOM     25  O   UNL     1     140.383  71.886 228.336 -0.46 +0.11    -0.394 OA 
DOCKED: ATOM     26  H   UNL     1     140.605  72.509 227.575 +0.12 -0.06    +0.210 HD 
DOCKED: ENDBRANCH  24  25
DOCKED: ENDBRANCH  21  24
DOCKED: ENDBRANCH   1  19
DOCKED: TORSDOF 6
DOCKED: TER
DOCKED: ENDMDL
________________________________________________________________________________


    FINAL DOCKED STATE:
    ________________________


Run:   19 / 20
Time taken for this run:   0.018s

DOCKED: MODEL        19
DOCKED: USER    Run = 19
DOCKED: USER
DOCKED: USER    Estimated Free Energy of Binding    =  -6.64 kcal/mol  [=(1)+(2)+(3)-(4)]
DOCKED: USER
DOCKED: USER    (1) Final Intermolecular Energy     =  -8.43 kcal/mol
DOCKED: USER        vdW + Hbond + desolv Energy     =  -8.39 kcal/mol
DOCKED: USER        Electrostatic Energy            =  -0.04 kcal/mol
DOCKED: USER        Moving Ligand-Fixed Receptor    =  -8.43 kcal/mol
DOCKED: USER        Moving Ligand-Moving Receptor   =  +0.00 kcal/mol
DOCKED: USER    (2) Final Total Internal Energy     =  -2.04 kcal/mol
DOCKED: USER    (3) Torsional Free Energy           =  +1.79 kcal/mol
DOCKED: USER    (4) Unbound System's Energy         =  -2.04 kcal/mol
DOCKED: USER
DOCKED: USER
DOCKED: REMARK SMILES O=C(NCC(=O)N1CCC[C@H]1CO)c1ccc2cc(Cl)ccc2n1
DOCKED: REMARK SMILES IDX 5 1 6 2 4 3 3 4 2 5 1 6 14 8 15 9 24 10 16 11 23 12 17 13
DOCKED: REMARK SMILES IDX 22 14 18 15 21 16 19 17 20 18 7 19 8 20 11 21 9 22 10 23
DOCKED: REMARK SMILES IDX 12 24 13 25
DOCKED: REMARK H PARENT 3 7 13 26
DOCKED: USER                              x       y       z     vdW  Elec       q    Type
DOCKED: USER                           _______ _______ _______ _____ _____    ______ ____
DOCKED: ROOT
DOCKED: ATOM      1  C   UNL     1     140.273  70.906 225.231 -0.36 -0.04    +0.242 C  
DOCKED: ATOM      2  O   UNL     1     140.753  71.954 225.753 -0.41 +0.04    -0.273 OA 
DOCKED: ENDROOT
DOCKED: BRANCH   1   3
DOCKED: ATOM      3  C   UNL     1     139.930  71.002 223.775 -0.28 -0.04    +0.216 C  
DOCKED: BRANCH   3   4
DOCKED: ATOM      4  N   UNL     1     140.207  72.304 223.257 -0.17 +0.04    -0.342 N  
DOCKED: ATOM      5  C   UNL     1     140.797  72.422 221.968 -0.19 -0.02    +0.270 C  
DOCKED: ATOM      6  O   UNL     1     141.063  71.380 221.311 -0.13 +0.03    -0.268 OA 
DOCKED: ATOM      7  H   UNL     1     139.963  73.138 223.851 -0.29 -0.02    +0.164 HD 
DOCKED: BRANCH   5   8
DOCKED: ATOM      8  C   UNL     1     141.089  73.740 221.416 -0.24 -0.01    +0.128 A  
DOCKED: ATOM      9  C   UNL     1     141.777  73.836 220.219 -0.20 -0.01    +0.035 A  
DOCKED: ATOM     10  N   UNL     1     140.722  74.888 222.013 -0.60 +0.02    -0.243 NA 
DOCKED: ATOM     11  C   UNL     1     142.039  75.104 219.721 -0.23 -0.00    +0.013 A  
DOCKED: ATOM     12  C   UNL     1     140.963  76.108 221.552 -0.33 -0.02    +0.071 A  
DOCKED: ATOM     13  C   UNL     1     141.647  76.257 220.362 -0.28 -0.00    +0.002 A  
DOCKED: ATOM     14  C   UNL     1     140.528  77.219 222.268 -0.40 -0.01    +0.030 A  
DOCKED: ATOM     15  C   UNL     1     141.928  77.504 219.831 -0.29 -0.02    +0.030 A  
DOCKED: ATOM     16  C   UNL     1     140.808  78.459 221.741 -0.33 -0.01    +0.023 A  
DOCKED: ATOM     17  C   UNL     1     141.492  78.616 220.547 -0.29 -0.02    +0.041 A  
DOCKED: ATOM     18  Cl  UNL     1     141.831  80.212 219.907 -0.38 +0.04    -0.084 Cl 
DOCKED: ENDBRANCH   5   8
DOCKED: ENDBRANCH   3   4
DOCKED: ENDBRANCH   1   3
DOCKED: BRANCH   1  19
DOCKED: ATOM     19  N   UNL     1     140.064  69.722 225.951 -0.19 +0.05    -0.336 N  
DOCKED: ATOM     20  C   UNL     1     139.915  68.389 225.350 -0.33 -0.02    +0.120 C  
DOCKED: ATOM     21  C   UNL     1     139.962  69.598 227.374 -0.52 -0.02    +0.110 C  
DOCKED: ATOM     22  C   UNL     1     139.536  67.476 226.485 -0.60 -0.00    +0.024 C  
DOCKED: ATOM     23  C   UNL     1     140.303  68.142 227.636 -0.64 -0.01    +0.029 C  
DOCKED: BRANCH  21  24
DOCKED: ATOM     24  C   UNL     1     140.926  70.464 228.143 -0.43 -0.03    +0.181 C  
DOCKED: BRANCH  24  25
DOCKED: ATOM     25  O   UNL     1     140.490  71.749 228.348 -0.45 +0.10    -0.394 OA 
DOCKED: ATOM     26  H   UNL     1     140.458  72.276 227.489 +0.14 -0.05    +0.210 HD 
DOCKED: ENDBRANCH  24  25
DOCKED: ENDBRANCH  21  24
DOCKED: ENDBRANCH   1  19
DOCKED: TORSDOF 6
DOCKED: TER
DOCKED: ENDMDL
________________________________________________________________________________


    FINAL DOCKED STATE:
    ________________________


Run:   20 / 20
Time taken for this run:   0.018s

DOCKED: MODEL        20
DOCKED: USER    Run = 20
DOCKED: USER
DOCKED: USER    Estimated Free Energy of Binding    =  -6.88 kcal/mol  [=(1)+(2)+(3)-(4)]
DOCKED: USER
DOCKED: USER    (1) Final Intermolecular Energy     =  -8.67 kcal/mol
DOCKED: USER        vdW + Hbond + desolv Energy     =  -8.54 kcal/mol
DOCKED: USER        Electrostatic Energy            =  -0.13 kcal/mol
DOCKED: USER        Moving Ligand-Fixed Receptor    =  -8.67 kcal/mol
DOCKED: USER        Moving Ligand-Moving Receptor   =  +0.00 kcal/mol
DOCKED: USER    (2) Final Total Internal Energy     =  -1.82 kcal/mol
DOCKED: USER    (3) Torsional Free Energy           =  +1.79 kcal/mol
DOCKED: USER    (4) Unbound System's Energy         =  -1.82 kcal/mol
DOCKED: USER
DOCKED: USER
DOCKED: REMARK SMILES O=C(NCC(=O)N1CCC[C@H]1CO)c1ccc2cc(Cl)ccc2n1
DOCKED: REMARK SMILES IDX 5 1 6 2 4 3 3 4 2 5 1 6 14 8 15 9 24 10 16 11 23 12 17 13
DOCKED: REMARK SMILES IDX 22 14 18 15 21 16 19 17 20 18 7 19 8 20 11 21 9 22 10 23
DOCKED: REMARK SMILES IDX 12 24 13 25
DOCKED: REMARK H PARENT 3 7 13 26
DOCKED: USER                              x       y       z     vdW  Elec       q    Type
DOCKED: USER                           _______ _______ _______ _____ _____    ______ ____
DOCKED: ROOT
DOCKED: ATOM      1  C   UNL     1     138.990  70.218 224.455 -0.24 -0.04    +0.242 C  
DOCKED: ATOM      2  O   UNL     1     137.771  69.906 224.587 -0.18 +0.03    -0.273 OA 
DOCKED: ENDROOT
DOCKED: BRANCH   1   3
DOCKED: ATOM      3  C   UNL     1     139.448  70.472 223.051 -0.18 -0.04    +0.216 C  
DOCKED: BRANCH   3   4
DOCKED: ATOM      4  N   UNL     1     139.698  71.859 222.825 -0.17 +0.07    -0.342 N  
DOCKED: ATOM      5  C   UNL     1     140.637  72.237 221.825 -0.18 -0.03    +0.270 C  
DOCKED: ATOM      6  O   UNL     1     141.228  71.344 221.162 -0.12 +0.03    -0.268 OA 
DOCKED: ATOM      7  H   UNL     1     139.174  72.561 223.410 -0.30 -0.07    +0.164 HD 
DOCKED: BRANCH   5   8
DOCKED: ATOM      8  C   UNL     1     140.909  73.647 221.574 -0.25 -0.01    +0.128 A  
DOCKED: ATOM      9  C   UNL     1     141.916  73.997 220.692 -0.26 -0.01    +0.035 A  
DOCKED: ATOM     10  N   UNL     1     140.226  74.647 222.161 -0.69 +0.01    -0.243 NA 
DOCKED: ATOM     11  C   UNL     1     142.150  75.347 220.475 -0.30 -0.01    +0.013 A  
DOCKED: ATOM     12  C   UNL     1     140.435  75.942 221.966 -0.35 -0.02    +0.071 A  
DOCKED: ATOM     13  C   UNL     1     141.429  76.342 221.095 -0.29 -0.00    +0.002 A  
DOCKED: ATOM     14  C   UNL     1     139.657  76.880 222.637 -0.26 -0.01    +0.030 A  
DOCKED: ATOM     15  C   UNL     1     141.694  77.678 220.851 -0.30 -0.02    +0.030 A  
DOCKED: ATOM     16  C   UNL     1     139.920  78.209 222.395 -0.34 -0.01    +0.023 A  
DOCKED: ATOM     17  C   UNL     1     140.914  78.617 221.522 -0.31 -0.02    +0.041 A  
DOCKED: ATOM     18  Cl  UNL     1     141.221  80.319 221.239 -0.42 +0.03    -0.084 Cl 
DOCKED: ENDBRANCH   5   8
DOCKED: ENDBRANCH   3   4
DOCKED: ENDBRANCH   1   3
DOCKED: BRANCH   1  19
DOCKED: ATOM     19  N   UNL     1     139.873  70.321 225.539 -0.20 +0.05    -0.336 N  
DOCKED: ATOM     20  C   UNL     1     140.330  71.586 226.132 -0.40 -0.02    +0.120 C  
DOCKED: ATOM     21  C   UNL     1     140.477  69.236 226.251 -0.47 -0.02    +0.110 C  
DOCKED: ATOM     22  C   UNL     1     141.387  71.203 227.132 -0.52 -0.00    +0.024 C  
DOCKED: ATOM     23  C   UNL     1     140.845  69.843 227.593 -0.59 -0.01    +0.029 C  
DOCKED: BRANCH  21  24
DOCKED: ATOM     24  C   UNL     1     139.561  68.063 226.489 -0.48 -0.02    +0.181 C  
DOCKED: BRANCH  24  25
DOCKED: ATOM     25  O   UNL     1     139.211  67.381 225.350 -0.83 -0.02    -0.394 OA 
DOCKED: ATOM     26  H   UNL     1     138.608  67.926 224.756 +0.09 +0.02    +0.210 HD 
DOCKED: ENDBRANCH  24  25
DOCKED: ENDBRANCH  21  24
DOCKED: ENDBRANCH   1  19
DOCKED: TORSDOF 6
DOCKED: TER
DOCKED: ENDMDL
________________________________________________________________________________


    CLUSTERING HISTOGRAM
    ____________________


________________________________________________________________________________
     |           |     |           |     |
Clus | Lowest    | Run | Mean      | Num | Histogram
-ter | Binding   |     | Binding   | in  |
Rank | Energy    |     | Energy    | Clus|    5    10   15   20   25   30   35
_____|___________|_____|___________|_____|____:____|____:____|____:____|____:___
   1 |     -7.04 |   8 |     -6.64 |   8 |########
   2 |     -6.89 |   6 |     -6.76 |  11 |###########
   3 |     -5.98 |   7 |     -5.98 |   1 |#
_____|___________|_____|___________|_____|______________________________________


    RMSD TABLE
    __________


_______________________________________________________________________
     |      |      |           |         |                 |
Rank | Sub- | Run  | Binding   | Cluster | Reference       | Grep
     | Rank |      | Energy    | RMSD    | RMSD            | Pattern
_____|______|______|___________|_________|_________________|___________
   1      1      8       -7.04      0.00    272.28           RANKING
   1      2     11       -6.72      1.40    272.16           RANKING
   1      3     15       -6.62      1.42    272.02           RANKING
   1      4     13       -6.61      1.51    271.85           RANKING
   1      5      9       -6.60      1.69    271.75           RANKING
   1      6      3       -6.58      1.38    271.99           RANKING
   1      7     17       -6.54      1.79    271.60           RANKING
   1      8     12       -6.40      1.84    271.82           RANKING
   2      1      6       -6.89      0.00    271.80           RANKING
   2      2     14       -6.88      0.16    271.85           RANKING
   2      3      5       -6.88      0.18    271.75           RANKING
   2      4      1       -6.88      0.08    271.81           RANKING
   2      5     20       -6.88      0.10    271.76           RANKING
   2      6      2       -6.83      0.86    271.55           RANKING
   2      7     18       -6.75      1.70    272.24           RANKING
   2      8     10       -6.65      1.70    272.20           RANKING
   2      9     19       -6.64      1.69    272.21           RANKING
   2     10      4       -6.58      1.72    272.20           RANKING
   2     11     16       -6.50      0.53    271.90           RANKING
   3      1      7       -5.98      0.00    271.84           RANKING

Run time 0.322 sec
Idle time 0.000 sec
