AutoDock-GPU version: v1.6

**********************************************************
**    AutoDock-GPU AUTODOCKTOOLS-COMPATIBLE DLG FILE    **
**********************************************************


    DOCKING PARAMETERS
    ________________________


Ligand file:                               /home/a/REINVENT4/ReinventStudies/pleaseWork/justmol2mol_4_Compounds_ontop/graph-dock-amy28i/graph-DockGPU/node-autodockgpu/inputs/JLPPKUBEXXVWNA-NAUSHLRJNA-N.pdbqt
Grid fld file:                             /home/a/REINVENT4/ReinventStudies/mols/Rad51/maps/rad51_receptor.maps.fld

Random seed:                               42
Number of runs:                            20
Number of energy evaluations:              1132076
Number of generations:                     42000
Size of population:                        150
Rate of crossover:                         80.000000%
Tournament selection probability limit:    60.000000%
Rate of mutation:                          2.000000%
Maximal allowed delta movement:            +/- 6.000000A
Maximal allowed delta angle:               +/- 90.000000

Rate of local search:                      100.000000%
Maximal number of local search iterations: 300
Rho lower bound:                           0.010000
Spread of local search delta movement:     2.000000A
Spread of local search delta angle:        74.999999
Limit of consecutive successes/failures:   4

Handle symmetry during clustering:         YES
RMSD tolerance:                            2.000000A

Program call in command line was:          /home/a/REINVENT4/ReinventStudies/adgpu-v1.6_linux_x64_cuda12_128wi --filelist batch.txt --heuristics 1 --nrun 20 --psize 150 --lsit 300 --seed 42 --heurmax 12000000 


    GRID PARAMETERS
    ________________________


Receptor name:                             rad51_receptor
Number of grid points (x, y, z):           53, 53, 53
Grid center (x, y, z):                     139.950000, 75.640000, 221.970000A
Grid size (x, y, z):                       19.500000, 19.500000, 19.500000A
Grid spacing:                              0.375000A


    LIGAND PARAMETERS
    ________________________


Ligand name:                               /home/a/REINVENT4/ReinventStudies/pleaseWork/justmol2mol_4_Compounds_ontop/graph-dock-amy28i/graph-DockGPU/node-autodockgpu/inputs/JLPPKUBEXXVWNA-NAUSHLRJNA-N
Number of atoms:                           30
Number of rotatable bonds:                 5
Number of atom types:                      7


    DUMMY DATA (only for ADT-compatibility)
    ________________________


DPF> outlev 1
DPF> ga_run 20
DPF> fld /home/a/REINVENT4/ReinventStudies/mols/Rad51/maps/rad51_receptor.maps.fld
DPF> move /home/a/REINVENT4/ReinventStudies/pleaseWork/justmol2mol_4_Compounds_ontop/graph-dock-amy28i/graph-DockGPU/node-autodockgpu/inputs/JLPPKUBEXXVWNA-NAUSHLRJNA-N.pdbqt


    COUNTER STATES
    ________________________


Number of energy evaluations performed:    640804
Number of generations used:                35


    INPUT LIGAND PDBQT FILE:
    ________________________


INPUT-LIGAND-PDBQT: REMARK SMILES O=C(NCC(=O)N1CCCC[C@H]1c1ccc(Cl)cc1)c1ccc2ccccc2n1
INPUT-LIGAND-PDBQT: REMARK SMILES IDX 5 1 6 2 4 3 3 4 2 5 1 6 20 8 21 9 29 10 22 11 28 12 23 13
INPUT-LIGAND-PDBQT: REMARK SMILES IDX 27 14 24 15 26 16 25 17 7 18 8 19 12 20 9 21 11 22 10 23
INPUT-LIGAND-PDBQT: REMARK SMILES IDX 13 24 14 25 19 26 15 27 18 28 16 29 17 30
INPUT-LIGAND-PDBQT: REMARK H PARENT 3 7
INPUT-LIGAND-PDBQT: ROOT
INPUT-LIGAND-PDBQT: ATOM      1  C   UNL     1      -1.660   0.585  -1.192  1.00  0.00     0.242 C 
INPUT-LIGAND-PDBQT: ATOM      2  O   UNL     1      -2.734   1.175  -1.651  1.00  0.00    -0.273 OA
INPUT-LIGAND-PDBQT: ENDROOT
INPUT-LIGAND-PDBQT: BRANCH   1   3
INPUT-LIGAND-PDBQT: ATOM      3  C   UNL     1      -0.440   1.337  -1.477  1.00  0.00     0.216 C 
INPUT-LIGAND-PDBQT: BRANCH   3   4
INPUT-LIGAND-PDBQT: ATOM      4  N   UNL     1       0.809   0.890  -0.994  1.00  0.00    -0.342 N 
INPUT-LIGAND-PDBQT: ATOM      5  C   UNL     1       1.963   1.705  -1.370  1.00  0.00     0.270 C 
INPUT-LIGAND-PDBQT: ATOM      6  O   UNL     1       1.742   2.720  -2.082  1.00  0.00    -0.268 OA
INPUT-LIGAND-PDBQT: ATOM      7  H   UNL     1       1.054   0.089  -0.401  1.00  0.00     0.164 HD
INPUT-LIGAND-PDBQT: BRANCH   5   8
INPUT-LIGAND-PDBQT: ATOM      8  C   UNL     1       3.290   1.322  -0.919  1.00  0.00     0.128 A 
INPUT-LIGAND-PDBQT: ATOM      9  C   UNL     1       4.342   2.118  -1.297  1.00  0.00     0.035 A 
INPUT-LIGAND-PDBQT: ATOM     10  N   UNL     1       3.474   0.221  -0.155  1.00  0.00    -0.243 NA
INPUT-LIGAND-PDBQT: ATOM     11  C   UNL     1       5.621   1.789  -0.889  1.00  0.00     0.013 A 
INPUT-LIGAND-PDBQT: ATOM     12  C   UNL     1       4.729  -0.121   0.257  1.00  0.00     0.071 A 
INPUT-LIGAND-PDBQT: ATOM     13  C   UNL     1       5.817   0.655  -0.102  1.00  0.00     0.000 A 
INPUT-LIGAND-PDBQT: ATOM     14  C   UNL     1       4.938  -1.230   1.031  1.00  0.00     0.029 A 
INPUT-LIGAND-PDBQT: ATOM     15  C   UNL     1       7.111   0.349   0.293  1.00  0.00     0.010 A 
INPUT-LIGAND-PDBQT: ATOM     16  C   UNL     1       6.207  -1.568   1.443  1.00  0.00     0.002 A 
INPUT-LIGAND-PDBQT: ATOM     17  C   UNL     1       7.288  -0.776   1.071  1.00  0.00     0.001 A 
INPUT-LIGAND-PDBQT: ENDBRANCH   5   8
INPUT-LIGAND-PDBQT: ENDBRANCH   3   4
INPUT-LIGAND-PDBQT: ENDBRANCH   1   3
INPUT-LIGAND-PDBQT: BRANCH   1  18
INPUT-LIGAND-PDBQT: ATOM     18  N   UNL     1      -1.876  -0.616  -0.533  1.00  0.00    -0.334 N 
INPUT-LIGAND-PDBQT: ATOM     19  C   UNL     1      -0.848  -1.537  -0.067  1.00  0.00     0.120 C 
INPUT-LIGAND-PDBQT: ATOM     20  C   UNL     1      -3.253  -1.018  -0.225  1.00  0.00     0.115 C 
INPUT-LIGAND-PDBQT: ATOM     21  C   UNL     1      -1.466  -2.946   0.059  1.00  0.00     0.022 C 
INPUT-LIGAND-PDBQT: ATOM     22  C   UNL     1      -3.177  -1.615   1.200  1.00  0.00     0.030 C 
INPUT-LIGAND-PDBQT: ATOM     23  C   UNL     1      -2.590  -2.994   1.040  1.00  0.00     0.004 C 
INPUT-LIGAND-PDBQT: BRANCH  20  24
INPUT-LIGAND-PDBQT: ATOM     24  C   UNL     1      -4.202   0.129  -0.190  1.00  0.00    -0.025 A 
INPUT-LIGAND-PDBQT: ATOM     25  C   UNL     1      -5.348   0.180  -0.956  1.00  0.00     0.007 A 
INPUT-LIGAND-PDBQT: ATOM     26  C   UNL     1      -3.993   1.216   0.665  1.00  0.00     0.007 A 
INPUT-LIGAND-PDBQT: ATOM     27  C   UNL     1      -6.238   1.241  -0.884  1.00  0.00     0.021 A 
INPUT-LIGAND-PDBQT: ATOM     28  C   UNL     1      -4.881   2.270   0.733  1.00  0.00     0.021 A 
INPUT-LIGAND-PDBQT: ATOM     29  C   UNL     1      -6.006   2.298  -0.033  1.00  0.00     0.041 A 
INPUT-LIGAND-PDBQT: ATOM     30  Cl  UNL     1      -7.092   3.668   0.104  1.00  0.00    -0.084 Cl
INPUT-LIGAND-PDBQT: ENDBRANCH  20  24
INPUT-LIGAND-PDBQT: ENDBRANCH   1  18
INPUT-LIGAND-PDBQT: TORSDOF 5


    FINAL DOCKED STATE:
    ________________________


Run:   1 / 20
Time taken for this run:   0.028s

DOCKED: MODEL        1
DOCKED: USER    Run = 1
DOCKED: USER
DOCKED: USER    Estimated Free Energy of Binding    =  -8.34 kcal/mol  [=(1)+(2)+(3)-(4)]
DOCKED: USER
DOCKED: USER    (1) Final Intermolecular Energy     =  -9.83 kcal/mol
DOCKED: USER        vdW + Hbond + desolv Energy     =  -9.74 kcal/mol
DOCKED: USER        Electrostatic Energy            =  -0.09 kcal/mol
DOCKED: USER        Moving Ligand-Fixed Receptor    =  -9.83 kcal/mol
DOCKED: USER        Moving Ligand-Moving Receptor   =  +0.00 kcal/mol
DOCKED: USER    (2) Final Total Internal Energy     =  -1.56 kcal/mol
DOCKED: USER    (3) Torsional Free Energy           =  +1.49 kcal/mol
DOCKED: USER    (4) Unbound System's Energy         =  -1.56 kcal/mol
DOCKED: USER
DOCKED: USER
DOCKED: REMARK SMILES O=C(NCC(=O)N1CCCC[C@H]1c1ccc(Cl)cc1)c1ccc2ccccc2n1
DOCKED: REMARK SMILES IDX 5 1 6 2 4 3 3 4 2 5 1 6 20 8 21 9 29 10 22 11 28 12 23 13
DOCKED: REMARK SMILES IDX 27 14 24 15 26 16 25 17 7 18 8 19 12 20 9 21 11 22 10 23
DOCKED: REMARK SMILES IDX 13 24 14 25 19 26 15 27 18 28 16 29 17 30
DOCKED: REMARK H PARENT 3 7
DOCKED: USER                              x       y       z     vdW  Elec       q    Type
DOCKED: USER                           _______ _______ _______ _____ _____    ______ ____
DOCKED: ROOT
DOCKED: ATOM      1  C   UNL     1     139.072  75.147 220.584 -0.08 -0.05    +0.242 C  
DOCKED: ATOM      2  O   UNL     1     138.506  75.393 219.430 -0.01 +0.06    -0.273 OA 
DOCKED: ENDROOT
DOCKED: BRANCH   1   3
DOCKED: ATOM      3  C   UNL     1     139.293  73.720 220.808 -0.11 -0.04    +0.216 C  
DOCKED: BRANCH   3   4
DOCKED: ATOM      4  N   UNL     1     139.278  73.187 222.115 -0.12 +0.08    -0.342 N  
DOCKED: ATOM      5  C   UNL     1     139.906  71.876 222.273 -0.19 -0.04    +0.270 C  
DOCKED: ATOM      6  O   UNL     1     140.398  71.347 221.242 -0.10 +0.04    -0.268 OA 
DOCKED: ATOM      7  H   UNL     1     138.912  73.570 222.994 -0.52 -0.09    +0.164 HD 
DOCKED: BRANCH   5   8
DOCKED: ATOM      8  C   UNL     1     139.938  71.249 223.583 -0.32 -0.02    +0.128 A  
DOCKED: ATOM      9  C   UNL     1     139.396  69.993 223.697 -0.28 -0.01    +0.035 A  
DOCKED: ATOM     10  N   UNL     1     140.482  71.884 224.646 -0.27 +0.04    -0.243 NA 
DOCKED: ATOM     11  C   UNL     1     139.406  69.360 224.926 -0.38 -0.00    +0.013 A  
DOCKED: ATOM     12  C   UNL     1     140.501  71.276 225.868 -0.54 -0.01    +0.071 A  
DOCKED: ATOM     13  C   UNL     1     139.965  70.010 226.025 -0.50 -0.00    +0.000 A  
DOCKED: ATOM     14  C   UNL     1     141.048  71.900 226.956 -0.76 -0.01    +0.029 A  
DOCKED: ATOM     15  C   UNL     1     139.962  69.351 227.246 -0.58 -0.00    +0.010 A  
DOCKED: ATOM     16  C   UNL     1     141.063  71.281 228.185 -0.74 -0.00    +0.002 A  
DOCKED: ATOM     17  C   UNL     1     140.519  70.008 228.324 -0.58 -0.00    +0.001 A  
DOCKED: ENDBRANCH   5   8
DOCKED: ENDBRANCH   3   4
DOCKED: ENDBRANCH   1   3
DOCKED: BRANCH   1  18
DOCKED: ATOM     18  N   UNL     1     139.353  76.261 221.360 -0.10 +0.08    -0.334 N  
DOCKED: ATOM     19  C   UNL     1     138.480  76.847 222.369 -0.26 -0.02    +0.120 C  
DOCKED: ATOM     20  C   UNL     1     140.654  76.922 221.208 -0.26 -0.04    +0.115 C  
DOCKED: ATOM     21  C   UNL     1     138.869  78.329 222.559 -0.29 -0.00    +0.022 C  
DOCKED: ATOM     22  C   UNL     1     141.082  77.281 222.650 -0.36 -0.01    +0.030 C  
DOCKED: ATOM     23  C   UNL     1     140.276  78.497 223.030 -0.40 -0.00    +0.004 C  
DOCKED: BRANCH  20  24
DOCKED: ATOM     24  C   UNL     1     141.697  76.031 220.630 -0.27 +0.01    -0.025 A  
DOCKED: ATOM     25  C   UNL     1     142.061  74.830 221.203 -0.20 -0.00    +0.007 A  
DOCKED: ATOM     26  C   UNL     1     142.346  76.356 219.434 -0.30 -0.00    +0.007 A  
DOCKED: ATOM     27  C   UNL     1     143.010  73.996 220.631 -0.30 -0.01    +0.021 A  
DOCKED: ATOM     28  C   UNL     1     143.291  75.523 218.869 -0.30 -0.01    +0.021 A  
DOCKED: ATOM     29  C   UNL     1     143.634  74.342 219.454 -0.30 -0.01    +0.041 A  
DOCKED: ATOM     30  Cl  UNL     1     144.841  73.333 218.681 -0.33 +0.00    -0.084 Cl 
DOCKED: ENDBRANCH  20  24
DOCKED: ENDBRANCH   1  18
DOCKED: TORSDOF 5
DOCKED: TER
DOCKED: ENDMDL
________________________________________________________________________________


    FINAL DOCKED STATE:
    ________________________


Run:   2 / 20
Time taken for this run:   0.028s

DOCKED: MODEL        2
DOCKED: USER    Run = 2
DOCKED: USER
DOCKED: USER    Estimated Free Energy of Binding    =  -8.20 kcal/mol  [=(1)+(2)+(3)-(4)]
DOCKED: USER
DOCKED: USER    (1) Final Intermolecular Energy     =  -9.70 kcal/mol
DOCKED: USER        vdW + Hbond + desolv Energy     =  -9.70 kcal/mol
DOCKED: USER        Electrostatic Energy            =  +0.01 kcal/mol
DOCKED: USER        Moving Ligand-Fixed Receptor    =  -9.70 kcal/mol
DOCKED: USER        Moving Ligand-Moving Receptor   =  +0.00 kcal/mol
DOCKED: USER    (2) Final Total Internal Energy     =  -1.91 kcal/mol
DOCKED: USER    (3) Torsional Free Energy           =  +1.49 kcal/mol
DOCKED: USER    (4) Unbound System's Energy         =  -1.91 kcal/mol
DOCKED: USER
DOCKED: USER
DOCKED: REMARK SMILES O=C(NCC(=O)N1CCCC[C@H]1c1ccc(Cl)cc1)c1ccc2ccccc2n1
DOCKED: REMARK SMILES IDX 5 1 6 2 4 3 3 4 2 5 1 6 20 8 21 9 29 10 22 11 28 12 23 13
DOCKED: REMARK SMILES IDX 27 14 24 15 26 16 25 17 7 18 8 19 12 20 9 21 11 22 10 23
DOCKED: REMARK SMILES IDX 13 24 14 25 19 26 15 27 18 28 16 29 17 30
DOCKED: REMARK H PARENT 3 7
DOCKED: USER                              x       y       z     vdW  Elec       q    Type
DOCKED: USER                           _______ _______ _______ _____ _____    ______ ____
DOCKED: ROOT
DOCKED: ATOM      1  C   UNL     1     140.766  73.818 219.964 -0.07 -0.05    +0.242 C  
DOCKED: ATOM      2  O   UNL     1     140.458  74.198 218.750 -0.01 +0.06    -0.273 OA 
DOCKED: ENDROOT
DOCKED: BRANCH   1   3
DOCKED: ATOM      3  C   UNL     1     139.625  73.862 220.875 -0.13 -0.04    +0.216 C  
DOCKED: BRANCH   3   4
DOCKED: ATOM      4  N   UNL     1     139.722  73.322 222.176 -0.15 +0.05    -0.342 N  
DOCKED: ATOM      5  C   UNL     1     139.832  71.866 222.252 -0.19 -0.05    +0.270 C  
DOCKED: ATOM      6  O   UNL     1     139.830  71.232 221.164 -0.08 +0.04    -0.268 OA 
DOCKED: ATOM      7  H   UNL     1     139.747  73.779 223.094 -0.43 -0.00    +0.164 HD 
DOCKED: BRANCH   5   8
DOCKED: ATOM      8  C   UNL     1     139.937  71.221 223.549 -0.32 -0.02    +0.128 A  
DOCKED: ATOM      9  C   UNL     1     139.529  69.914 223.642 -0.26 -0.01    +0.035 A  
DOCKED: ATOM     10  N   UNL     1     140.419  71.890 224.622 -0.27 +0.04    -0.243 NA 
DOCKED: ATOM     11  C   UNL     1     139.613  69.263 224.859 -0.37 -0.00    +0.013 A  
DOCKED: ATOM     12  C   UNL     1     140.508  71.265 225.831 -0.54 -0.01    +0.071 A  
DOCKED: ATOM     13  C   UNL     1     140.108  69.947 225.967 -0.50 -0.00    +0.000 A  
DOCKED: ATOM     14  C   UNL     1     140.994  71.922 226.929 -0.74 -0.01    +0.029 A  
DOCKED: ATOM     15  C   UNL     1     140.181  69.270 227.175 -0.59 -0.00    +0.010 A  
DOCKED: ATOM     16  C   UNL     1     141.081  71.285 228.146 -0.74 -0.00    +0.002 A  
DOCKED: ATOM     17  C   UNL     1     140.673  69.961 228.263 -0.59 -0.00    +0.001 A  
DOCKED: ENDBRANCH   5   8
DOCKED: ENDBRANCH   3   4
DOCKED: ENDBRANCH   1   3
DOCKED: BRANCH   1  18
DOCKED: ATOM     18  N   UNL     1     142.090  73.450 220.153 -0.07 +0.07    -0.334 N  
DOCKED: ATOM     19  C   UNL     1     142.633  72.104 220.031 -0.16 -0.02    +0.120 C  
DOCKED: ATOM     20  C   UNL     1     143.076  74.488 220.474 -0.29 -0.04    +0.115 C  
DOCKED: ATOM     21  C   UNL     1     143.932  72.017 220.860 -0.28 -0.00    +0.022 C  
DOCKED: ATOM     22  C   UNL     1     144.327  74.109 219.649 -0.37 -0.01    +0.030 C  
DOCKED: ATOM     23  C   UNL     1     144.980  72.969 220.387 -0.50 -0.00    +0.004 C  
DOCKED: BRANCH  20  24
DOCKED: ATOM     24  C   UNL     1     142.646  75.851 220.054 -0.32 +0.01    -0.025 A  
DOCKED: ATOM     25  C   UNL     1     141.790  76.633 220.801 -0.21 -0.00    +0.007 A  
DOCKED: ATOM     26  C   UNL     1     143.128  76.430 218.875 -0.35 -0.00    +0.007 A  
DOCKED: ATOM     27  C   UNL     1     141.429  77.914 220.410 -0.28 -0.01    +0.021 A  
DOCKED: ATOM     28  C   UNL     1     142.765  77.704 218.490 -0.32 -0.02    +0.021 A  
DOCKED: ATOM     29  C   UNL     1     141.919  78.458 219.244 -0.26 -0.03    +0.041 A  
DOCKED: ATOM     30  Cl  UNL     1     141.501  80.070 218.695 -0.30 +0.05    -0.084 Cl 
DOCKED: ENDBRANCH  20  24
DOCKED: ENDBRANCH   1  18
DOCKED: TORSDOF 5
DOCKED: TER
DOCKED: ENDMDL
________________________________________________________________________________


    FINAL DOCKED STATE:
    ________________________


Run:   3 / 20
Time taken for this run:   0.028s

DOCKED: MODEL        3
DOCKED: USER    Run = 3
DOCKED: USER
DOCKED: USER    Estimated Free Energy of Binding    =  -8.20 kcal/mol  [=(1)+(2)+(3)-(4)]
DOCKED: USER
DOCKED: USER    (1) Final Intermolecular Energy     =  -9.69 kcal/mol
DOCKED: USER        vdW + Hbond + desolv Energy     =  -9.70 kcal/mol
DOCKED: USER        Electrostatic Energy            =  +0.01 kcal/mol
DOCKED: USER        Moving Ligand-Fixed Receptor    =  -9.69 kcal/mol
DOCKED: USER        Moving Ligand-Moving Receptor   =  +0.00 kcal/mol
DOCKED: USER    (2) Final Total Internal Energy     =  -1.91 kcal/mol
DOCKED: USER    (3) Torsional Free Energy           =  +1.49 kcal/mol
DOCKED: USER    (4) Unbound System's Energy         =  -1.91 kcal/mol
DOCKED: USER
DOCKED: USER
DOCKED: REMARK SMILES O=C(NCC(=O)N1CCCC[C@H]1c1ccc(Cl)cc1)c1ccc2ccccc2n1
DOCKED: REMARK SMILES IDX 5 1 6 2 4 3 3 4 2 5 1 6 20 8 21 9 29 10 22 11 28 12 23 13
DOCKED: REMARK SMILES IDX 27 14 24 15 26 16 25 17 7 18 8 19 12 20 9 21 11 22 10 23
DOCKED: REMARK SMILES IDX 13 24 14 25 19 26 15 27 18 28 16 29 17 30
DOCKED: REMARK H PARENT 3 7
DOCKED: USER                              x       y       z     vdW  Elec       q    Type
DOCKED: USER                           _______ _______ _______ _____ _____    ______ ____
DOCKED: ROOT
DOCKED: ATOM      1  C   UNL     1     140.738  73.833 219.981 -0.08 -0.05    +0.242 C  
DOCKED: ATOM      2  O   UNL     1     140.441  74.299 218.795 -0.01 +0.07    -0.273 OA 
DOCKED: ENDROOT
DOCKED: BRANCH   1   3
DOCKED: ATOM      3  C   UNL     1     139.587  73.814 220.882 -0.13 -0.04    +0.216 C  
DOCKED: BRANCH   3   4
DOCKED: ATOM      4  N   UNL     1     139.705  73.286 222.186 -0.15 +0.05    -0.342 N  
DOCKED: ATOM      5  C   UNL     1     139.807  71.830 222.275 -0.19 -0.05    +0.270 C  
DOCKED: ATOM      6  O   UNL     1     139.782  71.186 221.193 -0.08 +0.04    -0.268 OA 
DOCKED: ATOM      7  H   UNL     1     139.749  73.752 223.100 -0.43 -0.00    +0.164 HD 
DOCKED: BRANCH   5   8
DOCKED: ATOM      8  C   UNL     1     139.931  71.197 223.577 -0.32 -0.02    +0.128 A  
DOCKED: ATOM      9  C   UNL     1     139.550  69.883 223.681 -0.27 -0.01    +0.035 A  
DOCKED: ATOM     10  N   UNL     1     140.405  71.883 224.641 -0.27 +0.04    -0.243 NA 
DOCKED: ATOM     11  C   UNL     1     139.652  69.243 224.902 -0.37 -0.00    +0.013 A  
DOCKED: ATOM     12  C   UNL     1     140.512  71.270 225.855 -0.54 -0.01    +0.071 A  
DOCKED: ATOM     13  C   UNL     1     140.140  69.945 226.003 -0.51 -0.00    +0.000 A  
DOCKED: ATOM     14  C   UNL     1     140.990  71.945 226.946 -0.74 -0.01    +0.029 A  
DOCKED: ATOM     15  C   UNL     1     140.231  69.278 227.216 -0.59 -0.00    +0.010 A  
DOCKED: ATOM     16  C   UNL     1     141.096  71.318 228.167 -0.74 -0.00    +0.002 A  
DOCKED: ATOM     17  C   UNL     1     140.715  69.987 228.295 -0.58 -0.00    +0.001 A  
DOCKED: ENDBRANCH   5   8
DOCKED: ENDBRANCH   3   4
DOCKED: ENDBRANCH   1   3
DOCKED: BRANCH   1  18
DOCKED: ATOM     18  N   UNL     1     142.059  73.451 220.157 -0.07 +0.07    -0.334 N  
DOCKED: ATOM     19  C   UNL     1     142.587  72.099 220.024 -0.16 -0.02    +0.120 C  
DOCKED: ATOM     20  C   UNL     1     143.059  74.477 220.473 -0.29 -0.04    +0.115 C  
DOCKED: ATOM     21  C   UNL     1     143.893  71.996 220.841 -0.29 -0.00    +0.022 C  
DOCKED: ATOM     22  C   UNL     1     144.298  74.088 219.633 -0.36 -0.01    +0.030 C  
DOCKED: ATOM     23  C   UNL     1     144.946  72.939 220.361 -0.49 -0.00    +0.004 C  
DOCKED: BRANCH  20  24
DOCKED: ATOM     24  C   UNL     1     142.639  75.846 220.061 -0.32 +0.01    -0.025 A  
DOCKED: ATOM     25  C   UNL     1     141.794  76.632 220.816 -0.21 -0.00    +0.007 A  
DOCKED: ATOM     26  C   UNL     1     143.120  76.427 218.884 -0.35 -0.00    +0.007 A  
DOCKED: ATOM     27  C   UNL     1     141.443  77.918 220.434 -0.28 -0.01    +0.021 A  
DOCKED: ATOM     28  C   UNL     1     142.768  77.707 218.506 -0.32 -0.02    +0.021 A  
DOCKED: ATOM     29  C   UNL     1     141.932  78.464 219.269 -0.26 -0.03    +0.041 A  
DOCKED: ATOM     30  Cl  UNL     1     141.525  80.083 218.730 -0.31 +0.05    -0.084 Cl 
DOCKED: ENDBRANCH  20  24
DOCKED: ENDBRANCH   1  18
DOCKED: TORSDOF 5
DOCKED: TER
DOCKED: ENDMDL
________________________________________________________________________________


    FINAL DOCKED STATE:
    ________________________


Run:   4 / 20
Time taken for this run:   0.028s

DOCKED: MODEL        4
DOCKED: USER    Run = 4
DOCKED: USER
DOCKED: USER    Estimated Free Energy of Binding    =  -8.02 kcal/mol  [=(1)+(2)+(3)-(4)]
DOCKED: USER
DOCKED: USER    (1) Final Intermolecular Energy     =  -9.51 kcal/mol
DOCKED: USER        vdW + Hbond + desolv Energy     =  -9.50 kcal/mol
DOCKED: USER        Electrostatic Energy            =  -0.02 kcal/mol
DOCKED: USER        Moving Ligand-Fixed Receptor    =  -9.51 kcal/mol
DOCKED: USER        Moving Ligand-Moving Receptor   =  +0.00 kcal/mol
DOCKED: USER    (2) Final Total Internal Energy     =  -2.06 kcal/mol
DOCKED: USER    (3) Torsional Free Energy           =  +1.49 kcal/mol
DOCKED: USER    (4) Unbound System's Energy         =  -2.06 kcal/mol
DOCKED: USER
DOCKED: USER
DOCKED: REMARK SMILES O=C(NCC(=O)N1CCCC[C@H]1c1ccc(Cl)cc1)c1ccc2ccccc2n1
DOCKED: REMARK SMILES IDX 5 1 6 2 4 3 3 4 2 5 1 6 20 8 21 9 29 10 22 11 28 12 23 13
DOCKED: REMARK SMILES IDX 27 14 24 15 26 16 25 17 7 18 8 19 12 20 9 21 11 22 10 23
DOCKED: REMARK SMILES IDX 13 24 14 25 19 26 15 27 18 28 16 29 17 30
DOCKED: REMARK H PARENT 3 7
DOCKED: USER                              x       y       z     vdW  Elec       q    Type
DOCKED: USER                           _______ _______ _______ _____ _____    ______ ____
DOCKED: ROOT
DOCKED: ATOM      1  C   UNL     1     140.181  73.820 219.980 -0.06 -0.05    +0.242 C  
DOCKED: ATOM      2  O   UNL     1     139.763  74.339 218.855 -0.01 +0.06    -0.273 OA 
DOCKED: ENDROOT
DOCKED: BRANCH   1   3
DOCKED: ATOM      3  C   UNL     1     139.104  73.644 220.952 -0.11 -0.04    +0.216 C  
DOCKED: BRANCH   3   4
DOCKED: ATOM      4  N   UNL     1     139.380  73.161 222.250 -0.13 +0.07    -0.342 N  
DOCKED: ATOM      5  C   UNL     1     139.521  71.711 222.371 -0.18 -0.05    +0.270 C  
DOCKED: ATOM      6  O   UNL     1     139.387  71.031 221.320 -0.07 +0.05    -0.268 OA 
DOCKED: ATOM      7  H   UNL     1     139.517  73.658 223.138 -0.50 -0.04    +0.164 HD 
DOCKED: BRANCH   5   8
DOCKED: ATOM      8  C   UNL     1     139.805  71.124 223.670 -0.32 -0.02    +0.128 A  
DOCKED: ATOM      9  C   UNL     1     139.552  69.784 223.828 -0.27 -0.01    +0.035 A  
DOCKED: ATOM     10  N   UNL     1     140.300  71.875 224.680 -0.26 +0.04    -0.243 NA 
DOCKED: ATOM     11  C   UNL     1     139.809  69.186 225.047 -0.38 -0.00    +0.013 A  
DOCKED: ATOM     12  C   UNL     1     140.559  71.303 225.891 -0.55 -0.01    +0.071 A  
DOCKED: ATOM     13  C   UNL     1     140.318  69.955 226.092 -0.52 -0.00    +0.000 A  
DOCKED: ATOM     14  C   UNL     1     141.060  72.044 226.927 -0.74 -0.01    +0.029 A  
DOCKED: ATOM     15  C   UNL     1     140.566  69.328 227.305 -0.60 -0.00    +0.010 A  
DOCKED: ATOM     16  C   UNL     1     141.319  71.459 228.146 -0.70 -0.00    +0.002 A  
DOCKED: ATOM     17  C   UNL     1     141.070  70.103 228.328 -0.56 -0.00    +0.001 A  
DOCKED: ENDBRANCH   5   8
DOCKED: ENDBRANCH   3   4
DOCKED: ENDBRANCH   1   3
DOCKED: BRANCH   1  18
DOCKED: ATOM     18  N   UNL     1     141.538  73.538 220.039 -0.05 +0.07    -0.334 N  
DOCKED: ATOM     19  C   UNL     1     142.215  72.434 219.372 -0.09 -0.02    +0.120 C  
DOCKED: ATOM     20  C   UNL     1     142.415  74.431 220.804 -0.22 -0.03    +0.115 C  
DOCKED: ATOM     21  C   UNL     1     143.526  72.129 220.127 -0.27 -0.00    +0.022 C  
DOCKED: ATOM     22  C   UNL     1     143.689  74.565 219.937 -0.38 -0.01    +0.030 C  
DOCKED: ATOM     23  C   UNL     1     144.465  73.289 220.140 -0.43 -0.00    +0.004 C  
DOCKED: BRANCH  20  24
DOCKED: ATOM     24  C   UNL     1     141.843  75.793 220.991 -0.17 +0.01    -0.025 A  
DOCKED: ATOM     25  C   UNL     1     141.063  76.138 222.075 -0.35 -0.00    +0.007 A  
DOCKED: ATOM     26  C   UNL     1     142.103  76.819 220.077 -0.31 -0.00    +0.007 A  
DOCKED: ATOM     27  C   UNL     1     140.568  77.422 222.250 -0.40 -0.01    +0.021 A  
DOCKED: ATOM     28  C   UNL     1     141.608  78.095 220.254 -0.28 -0.01    +0.021 A  
DOCKED: ATOM     29  C   UNL     1     140.840  78.412 221.333 -0.28 -0.02    +0.041 A  
DOCKED: ATOM     30  Cl  UNL     1     140.244  80.053 221.497 -0.30 +0.02    -0.084 Cl 
DOCKED: ENDBRANCH  20  24
DOCKED: ENDBRANCH   1  18
DOCKED: TORSDOF 5
DOCKED: TER
DOCKED: ENDMDL
________________________________________________________________________________


    FINAL DOCKED STATE:
    ________________________


Run:   5 / 20
Time taken for this run:   0.028s

DOCKED: MODEL        5
DOCKED: USER    Run = 5
DOCKED: USER
DOCKED: USER    Estimated Free Energy of Binding    =  -8.42 kcal/mol  [=(1)+(2)+(3)-(4)]
DOCKED: USER
DOCKED: USER    (1) Final Intermolecular Energy     =  -9.91 kcal/mol
DOCKED: USER        vdW + Hbond + desolv Energy     =  -9.82 kcal/mol
DOCKED: USER        Electrostatic Energy            =  -0.09 kcal/mol
DOCKED: USER        Moving Ligand-Fixed Receptor    =  -9.91 kcal/mol
DOCKED: USER        Moving Ligand-Moving Receptor   =  +0.00 kcal/mol
DOCKED: USER    (2) Final Total Internal Energy     =  -1.67 kcal/mol
DOCKED: USER    (3) Torsional Free Energy           =  +1.49 kcal/mol
DOCKED: USER    (4) Unbound System's Energy         =  -1.67 kcal/mol
DOCKED: USER
DOCKED: USER
DOCKED: REMARK SMILES O=C(NCC(=O)N1CCCC[C@H]1c1ccc(Cl)cc1)c1ccc2ccccc2n1
DOCKED: REMARK SMILES IDX 5 1 6 2 4 3 3 4 2 5 1 6 20 8 21 9 29 10 22 11 28 12 23 13
DOCKED: REMARK SMILES IDX 27 14 24 15 26 16 25 17 7 18 8 19 12 20 9 21 11 22 10 23
DOCKED: REMARK SMILES IDX 13 24 14 25 19 26 15 27 18 28 16 29 17 30
DOCKED: REMARK H PARENT 3 7
DOCKED: USER                              x       y       z     vdW  Elec       q    Type
DOCKED: USER                           _______ _______ _______ _____ _____    ______ ____
DOCKED: ROOT
DOCKED: ATOM      1  C   UNL     1     139.190  74.871 220.475 -0.08 -0.05    +0.242 C  
DOCKED: ATOM      2  O   UNL     1     139.330  75.019 219.182 -0.01 +0.06    -0.273 OA 
DOCKED: ENDROOT
DOCKED: BRANCH   1   3
DOCKED: ATOM      3  C   UNL     1     138.838  73.502 220.849 -0.09 -0.05    +0.216 C  
DOCKED: BRANCH   3   4
DOCKED: ATOM      4  N   UNL     1     139.044  73.043 222.168 -0.11 +0.09    -0.342 N  
DOCKED: ATOM      5  C   UNL     1     139.582  71.690 222.292 -0.18 -0.05    +0.270 C  
DOCKED: ATOM      6  O   UNL     1     139.812  71.063 221.224 -0.08 +0.04    -0.268 OA 
DOCKED: ATOM      7  H   UNL     1     138.895  73.505 223.073 -0.52 -0.09    +0.164 HD 
DOCKED: BRANCH   5   8
DOCKED: ATOM      8  C   UNL     1     139.826  71.132 223.611 -0.31 -0.02    +0.128 A  
DOCKED: ATOM      9  C   UNL     1     139.527  69.807 223.804 -0.27 -0.01    +0.035 A  
DOCKED: ATOM     10  N   UNL     1     140.331  71.896 224.607 -0.26 +0.04    -0.243 NA 
DOCKED: ATOM     11  C   UNL     1     139.744  69.237 225.044 -0.39 -0.00    +0.013 A  
DOCKED: ATOM     12  C   UNL     1     140.551  71.352 225.838 -0.54 -0.01    +0.071 A  
DOCKED: ATOM     13  C   UNL     1     140.263  70.019 226.075 -0.52 -0.00    +0.000 A  
DOCKED: ATOM     14  C   UNL     1     141.062  72.106 226.860 -0.72 -0.01    +0.029 A  
DOCKED: ATOM     15  C   UNL     1     140.471  69.421 227.309 -0.59 -0.00    +0.010 A  
DOCKED: ATOM     16  C   UNL     1     141.282  71.550 228.099 -0.73 -0.00    +0.002 A  
DOCKED: ATOM     17  C   UNL     1     140.985  70.209 228.318 -0.57 -0.00    +0.001 A  
DOCKED: ENDBRANCH   5   8
DOCKED: ENDBRANCH   3   4
DOCKED: ENDBRANCH   1   3
DOCKED: BRANCH   1  18
DOCKED: ATOM     18  N   UNL     1     139.399  76.014 221.231 -0.09 +0.08    -0.334 N  
DOCKED: ATOM     19  C   UNL     1     138.454  76.609 222.167 -0.24 -0.02    +0.120 C  
DOCKED: ATOM     20  C   UNL     1     140.692  76.700 221.137 -0.26 -0.04    +0.115 C  
DOCKED: ATOM     21  C   UNL     1     138.799  78.104 222.335 -0.27 -0.00    +0.022 C  
DOCKED: ATOM     22  C   UNL     1     141.024  77.111 222.591 -0.35 -0.01    +0.030 C  
DOCKED: ATOM     23  C   UNL     1     140.171  78.319 222.884 -0.37 -0.00    +0.004 C  
DOCKED: BRANCH  20  24
DOCKED: ATOM     24  C   UNL     1     141.787  75.816 220.651 -0.27 +0.01    -0.025 A  
DOCKED: ATOM     25  C   UNL     1     142.662  76.184 219.649 -0.35 -0.00    +0.007 A  
DOCKED: ATOM     26  C   UNL     1     142.011  74.559 221.222 -0.20 -0.00    +0.007 A  
DOCKED: ATOM     27  C   UNL     1     143.697  75.361 219.234 -0.34 -0.01    +0.021 A  
DOCKED: ATOM     28  C   UNL     1     143.043  73.743 220.805 -0.27 -0.00    +0.021 A  
DOCKED: ATOM     29  C   UNL     1     143.893  74.128 219.814 -0.35 -0.01    +0.041 A  
DOCKED: ATOM     30  Cl  UNL     1     145.184  73.042 219.334 -0.48 -0.01    -0.084 Cl 
DOCKED: ENDBRANCH  20  24
DOCKED: ENDBRANCH   1  18
DOCKED: TORSDOF 5
DOCKED: TER
DOCKED: ENDMDL
________________________________________________________________________________


    FINAL DOCKED STATE:
    ________________________


Run:   6 / 20
Time taken for this run:   0.028s

DOCKED: MODEL        6
DOCKED: USER    Run = 6
DOCKED: USER
DOCKED: USER    Estimated Free Energy of Binding    =  -8.09 kcal/mol  [=(1)+(2)+(3)-(4)]
DOCKED: USER
DOCKED: USER    (1) Final Intermolecular Energy     =  -9.58 kcal/mol
DOCKED: USER        vdW + Hbond + desolv Energy     =  -9.54 kcal/mol
DOCKED: USER        Electrostatic Energy            =  -0.04 kcal/mol
DOCKED: USER        Moving Ligand-Fixed Receptor    =  -9.58 kcal/mol
DOCKED: USER        Moving Ligand-Moving Receptor   =  +0.00 kcal/mol
DOCKED: USER    (2) Final Total Internal Energy     =  -2.06 kcal/mol
DOCKED: USER    (3) Torsional Free Energy           =  +1.49 kcal/mol
DOCKED: USER    (4) Unbound System's Energy         =  -2.06 kcal/mol
DOCKED: USER
DOCKED: USER
DOCKED: REMARK SMILES O=C(NCC(=O)N1CCCC[C@H]1c1ccc(Cl)cc1)c1ccc2ccccc2n1
DOCKED: REMARK SMILES IDX 5 1 6 2 4 3 3 4 2 5 1 6 20 8 21 9 29 10 22 11 28 12 23 13
DOCKED: REMARK SMILES IDX 27 14 24 15 26 16 25 17 7 18 8 19 12 20 9 21 11 22 10 23
DOCKED: REMARK SMILES IDX 13 24 14 25 19 26 15 27 18 28 16 29 17 30
DOCKED: REMARK H PARENT 3 7
DOCKED: USER                              x       y       z     vdW  Elec       q    Type
DOCKED: USER                           _______ _______ _______ _____ _____    ______ ____
DOCKED: ROOT
DOCKED: ATOM      1  C   UNL     1     140.120  73.770 219.959 -0.06 -0.05    +0.242 C  
DOCKED: ATOM      2  O   UNL     1     139.777  74.422 218.878 -0.01 +0.06    -0.273 OA 
DOCKED: ENDROOT
DOCKED: BRANCH   1   3
DOCKED: ATOM      3  C   UNL     1     138.992  73.542 220.860 -0.10 -0.04    +0.216 C  
DOCKED: BRANCH   3   4
DOCKED: ATOM      4  N   UNL     1     139.207  73.086 222.178 -0.12 +0.08    -0.342 N  
DOCKED: ATOM      5  C   UNL     1     139.581  71.679 222.310 -0.18 -0.05    +0.270 C  
DOCKED: ATOM      6  O   UNL     1     139.677  71.008 221.248 -0.08 +0.05    -0.268 OA 
DOCKED: ATOM      7  H   UNL     1     139.163  73.580 223.077 -0.51 -0.07    +0.164 HD 
DOCKED: BRANCH   5   8
DOCKED: ATOM      8  C   UNL     1     139.822  71.120 223.629 -0.31 -0.02    +0.128 A  
DOCKED: ATOM      9  C   UNL     1     139.519  69.795 223.821 -0.27 -0.01    +0.035 A  
DOCKED: ATOM     10  N   UNL     1     140.325  71.883 224.626 -0.27 +0.04    -0.243 NA 
DOCKED: ATOM     11  C   UNL     1     139.733  69.225 225.062 -0.39 -0.00    +0.013 A  
DOCKED: ATOM     12  C   UNL     1     140.543  71.338 225.858 -0.54 -0.01    +0.071 A  
DOCKED: ATOM     13  C   UNL     1     140.252  70.006 226.094 -0.52 -0.00    +0.000 A  
DOCKED: ATOM     14  C   UNL     1     141.053  72.091 226.881 -0.72 -0.01    +0.029 A  
DOCKED: ATOM     15  C   UNL     1     140.457  69.407 227.328 -0.60 -0.00    +0.010 A  
DOCKED: ATOM     16  C   UNL     1     141.270  71.534 228.121 -0.73 -0.00    +0.002 A  
DOCKED: ATOM     17  C   UNL     1     140.970  70.194 228.338 -0.56 -0.00    +0.001 A  
DOCKED: ENDBRANCH   5   8
DOCKED: ENDBRANCH   3   4
DOCKED: ENDBRANCH   1   3
DOCKED: BRANCH   1  18
DOCKED: ATOM     18  N   UNL     1     141.460  73.423 220.045 -0.05 +0.07    -0.334 N  
DOCKED: ATOM     19  C   UNL     1     142.097  72.287 219.392 -0.09 -0.02    +0.120 C  
DOCKED: ATOM     20  C   UNL     1     142.364  74.273 220.828 -0.21 -0.03    +0.115 C  
DOCKED: ATOM     21  C   UNL     1     143.376  71.919 220.174 -0.26 -0.00    +0.022 C  
DOCKED: ATOM     22  C   UNL     1     143.660  74.345 219.987 -0.37 -0.01    +0.030 C  
DOCKED: ATOM     23  C   UNL     1     144.369  73.033 220.206 -0.41 -0.00    +0.004 C  
DOCKED: BRANCH  20  24
DOCKED: ATOM     24  C   UNL     1     141.854  75.661 221.003 -0.19 +0.01    -0.025 A  
DOCKED: ATOM     25  C   UNL     1     141.048  76.039 222.056 -0.35 -0.00    +0.007 A  
DOCKED: ATOM     26  C   UNL     1     142.205  76.679 220.110 -0.31 -0.00    +0.007 A  
DOCKED: ATOM     27  C   UNL     1     140.612  77.345 222.222 -0.41 -0.01    +0.021 A  
DOCKED: ATOM     28  C   UNL     1     141.768  77.977 220.278 -0.30 -0.01    +0.021 A  
DOCKED: ATOM     29  C   UNL     1     140.973  78.326 221.326 -0.30 -0.02    +0.041 A  
DOCKED: ATOM     30  Cl  UNL     1     140.454  79.994 221.480 -0.32 +0.02    -0.084 Cl 
DOCKED: ENDBRANCH  20  24
DOCKED: ENDBRANCH   1  18
DOCKED: TORSDOF 5
DOCKED: TER
DOCKED: ENDMDL
________________________________________________________________________________


    FINAL DOCKED STATE:
    ________________________


Run:   7 / 20
Time taken for this run:   0.028s

DOCKED: MODEL        7
DOCKED: USER    Run = 7
DOCKED: USER
DOCKED: USER    Estimated Free Energy of Binding    =  -8.09 kcal/mol  [=(1)+(2)+(3)-(4)]
DOCKED: USER
DOCKED: USER    (1) Final Intermolecular Energy     =  -9.58 kcal/mol
DOCKED: USER        vdW + Hbond + desolv Energy     =  -9.54 kcal/mol
DOCKED: USER        Electrostatic Energy            =  -0.04 kcal/mol
DOCKED: USER        Moving Ligand-Fixed Receptor    =  -9.58 kcal/mol
DOCKED: USER        Moving Ligand-Moving Receptor   =  +0.00 kcal/mol
DOCKED: USER    (2) Final Total Internal Energy     =  -2.06 kcal/mol
DOCKED: USER    (3) Torsional Free Energy           =  +1.49 kcal/mol
DOCKED: USER    (4) Unbound System's Energy         =  -2.06 kcal/mol
DOCKED: USER
DOCKED: USER
DOCKED: REMARK SMILES O=C(NCC(=O)N1CCCC[C@H]1c1ccc(Cl)cc1)c1ccc2ccccc2n1
DOCKED: REMARK SMILES IDX 5 1 6 2 4 3 3 4 2 5 1 6 20 8 21 9 29 10 22 11 28 12 23 13
DOCKED: REMARK SMILES IDX 27 14 24 15 26 16 25 17 7 18 8 19 12 20 9 21 11 22 10 23
DOCKED: REMARK SMILES IDX 13 24 14 25 19 26 15 27 18 28 16 29 17 30
DOCKED: REMARK H PARENT 3 7
DOCKED: USER                              x       y       z     vdW  Elec       q    Type
DOCKED: USER                           _______ _______ _______ _____ _____    ______ ____
DOCKED: ROOT
DOCKED: ATOM      1  C   UNL     1     140.133  73.725 219.948 -0.05 -0.05    +0.242 C  
DOCKED: ATOM      2  O   UNL     1     139.785  74.258 218.805 -0.01 +0.06    -0.273 OA 
DOCKED: ENDROOT
DOCKED: BRANCH   1   3
DOCKED: ATOM      3  C   UNL     1     139.009  73.590 220.871 -0.10 -0.04    +0.216 C  
DOCKED: BRANCH   3   4
DOCKED: ATOM      4  N   UNL     1     139.213  73.129 222.190 -0.12 +0.08    -0.342 N  
DOCKED: ATOM      5  C   UNL     1     139.585  71.721 222.319 -0.18 -0.05    +0.270 C  
DOCKED: ATOM      6  O   UNL     1     139.688  71.054 221.255 -0.08 +0.05    -0.268 OA 
DOCKED: ATOM      7  H   UNL     1     139.163  73.619 223.090 -0.52 -0.07    +0.164 HD 
DOCKED: BRANCH   5   8
DOCKED: ATOM      8  C   UNL     1     139.815  71.157 223.638 -0.32 -0.02    +0.128 A  
DOCKED: ATOM      9  C   UNL     1     139.497  69.835 223.826 -0.28 -0.01    +0.035 A  
DOCKED: ATOM     10  N   UNL     1     140.324  71.912 224.638 -0.25 +0.04    -0.243 NA 
DOCKED: ATOM     11  C   UNL     1     139.701  69.260 225.066 -0.39 -0.00    +0.013 A  
DOCKED: ATOM     12  C   UNL     1     140.532  71.363 225.869 -0.54 -0.01    +0.071 A  
DOCKED: ATOM     13  C   UNL     1     140.225  70.034 226.101 -0.52 -0.00    +0.000 A  
DOCKED: ATOM     14  C   UNL     1     141.047  72.108 226.895 -0.72 -0.01    +0.029 A  
DOCKED: ATOM     15  C   UNL     1     140.420  69.430 227.335 -0.60 -0.00    +0.010 A  
DOCKED: ATOM     16  C   UNL     1     141.254  71.546 228.134 -0.74 -0.00    +0.002 A  
DOCKED: ATOM     17  C   UNL     1     140.938  70.209 228.348 -0.56 -0.00    +0.001 A  
DOCKED: ENDBRANCH   5   8
DOCKED: ENDBRANCH   3   4
DOCKED: ENDBRANCH   1   3
DOCKED: BRANCH   1  18
DOCKED: ATOM     18  N   UNL     1     141.474  73.393 220.066 -0.05 +0.07    -0.334 N  
DOCKED: ATOM     19  C   UNL     1     142.135  72.253 219.444 -0.09 -0.02    +0.120 C  
DOCKED: ATOM     20  C   UNL     1     142.354  74.264 220.853 -0.21 -0.03    +0.115 C  
DOCKED: ATOM     21  C   UNL     1     143.401  71.910 220.257 -0.26 -0.00    +0.022 C  
DOCKED: ATOM     22  C   UNL     1     143.666  74.336 220.036 -0.37 -0.01    +0.030 C  
DOCKED: ATOM     23  C   UNL     1     144.383  73.034 220.290 -0.42 -0.00    +0.004 C  
DOCKED: BRANCH  20  24
DOCKED: ATOM     24  C   UNL     1     141.828  75.650 220.995 -0.23 +0.01    -0.025 A  
DOCKED: ATOM     25  C   UNL     1     141.021  76.044 222.042 -0.35 -0.00    +0.007 A  
DOCKED: ATOM     26  C   UNL     1     142.163  76.649 220.075 -0.31 -0.00    +0.007 A  
DOCKED: ATOM     27  C   UNL     1     140.569  77.348 222.176 -0.40 -0.01    +0.021 A  
DOCKED: ATOM     28  C   UNL     1     141.711  77.946 220.213 -0.29 -0.01    +0.021 A  
DOCKED: ATOM     29  C   UNL     1     140.915  78.311 221.255 -0.28 -0.02    +0.041 A  
DOCKED: ATOM     30  Cl  UNL     1     140.377  79.976 221.369 -0.30 +0.02    -0.084 Cl 
DOCKED: ENDBRANCH  20  24
DOCKED: ENDBRANCH   1  18
DOCKED: TORSDOF 5
DOCKED: TER
DOCKED: ENDMDL
________________________________________________________________________________


    FINAL DOCKED STATE:
    ________________________


Run:   8 / 20
Time taken for this run:   0.028s

DOCKED: MODEL        8
DOCKED: USER    Run = 8
DOCKED: USER
DOCKED: USER    Estimated Free Energy of Binding    =  -8.09 kcal/mol  [=(1)+(2)+(3)-(4)]
DOCKED: USER
DOCKED: USER    (1) Final Intermolecular Energy     =  -9.58 kcal/mol
DOCKED: USER        vdW + Hbond + desolv Energy     =  -9.54 kcal/mol
DOCKED: USER        Electrostatic Energy            =  -0.04 kcal/mol
DOCKED: USER        Moving Ligand-Fixed Receptor    =  -9.58 kcal/mol
DOCKED: USER        Moving Ligand-Moving Receptor   =  +0.00 kcal/mol
DOCKED: USER    (2) Final Total Internal Energy     =  -2.04 kcal/mol
DOCKED: USER    (3) Torsional Free Energy           =  +1.49 kcal/mol
DOCKED: USER    (4) Unbound System's Energy         =  -2.04 kcal/mol
DOCKED: USER
DOCKED: USER
DOCKED: REMARK SMILES O=C(NCC(=O)N1CCCC[C@H]1c1ccc(Cl)cc1)c1ccc2ccccc2n1
DOCKED: REMARK SMILES IDX 5 1 6 2 4 3 3 4 2 5 1 6 20 8 21 9 29 10 22 11 28 12 23 13
DOCKED: REMARK SMILES IDX 27 14 24 15 26 16 25 17 7 18 8 19 12 20 9 21 11 22 10 23
DOCKED: REMARK SMILES IDX 13 24 14 25 19 26 15 27 18 28 16 29 17 30
DOCKED: REMARK H PARENT 3 7
DOCKED: USER                              x       y       z     vdW  Elec       q    Type
DOCKED: USER                           _______ _______ _______ _____ _____    ______ ____
DOCKED: ROOT
DOCKED: ATOM      1  C   UNL     1     140.201  73.647 219.907 -0.05 -0.05    +0.242 C  
DOCKED: ATOM      2  O   UNL     1     139.854  74.062 218.716 -0.01 +0.06    -0.273 OA 
DOCKED: ENDROOT
DOCKED: BRANCH   1   3
DOCKED: ATOM      3  C   UNL     1     139.070  73.577 220.830 -0.10 -0.04    +0.216 C  
DOCKED: BRANCH   3   4
DOCKED: ATOM      4  N   UNL     1     139.249  73.116 222.152 -0.12 +0.08    -0.342 N  
DOCKED: ATOM      5  C   UNL     1     139.624  71.709 222.288 -0.18 -0.05    +0.270 C  
DOCKED: ATOM      6  O   UNL     1     139.752  71.043 221.227 -0.08 +0.04    -0.268 OA 
DOCKED: ATOM      7  H   UNL     1     139.178  73.605 223.051 -0.51 -0.07    +0.164 HD 
DOCKED: BRANCH   5   8
DOCKED: ATOM      8  C   UNL     1     139.829  71.146 223.612 -0.31 -0.02    +0.128 A  
DOCKED: ATOM      9  C   UNL     1     139.492  69.829 223.799 -0.27 -0.01    +0.035 A  
DOCKED: ATOM     10  N   UNL     1     140.335  71.897 224.617 -0.26 +0.04    -0.243 NA 
DOCKED: ATOM     11  C   UNL     1     139.671  69.254 225.043 -0.39 -0.00    +0.013 A  
DOCKED: ATOM     12  C   UNL     1     140.519  71.348 225.852 -0.54 -0.01    +0.071 A  
DOCKED: ATOM     13  C   UNL     1     140.192  70.023 226.083 -0.52 -0.00    +0.000 A  
DOCKED: ATOM     14  C   UNL     1     141.030  72.089 226.883 -0.71 -0.01    +0.029 A  
DOCKED: ATOM     15  C   UNL     1     140.361  69.420 227.321 -0.60 -0.00    +0.010 A  
DOCKED: ATOM     16  C   UNL     1     141.213  71.528 228.126 -0.75 -0.00    +0.002 A  
DOCKED: ATOM     17  C   UNL     1     140.877  70.195 228.339 -0.57 -0.00    +0.001 A  
DOCKED: ENDBRANCH   5   8
DOCKED: ENDBRANCH   3   4
DOCKED: ENDBRANCH   1   3
DOCKED: BRANCH   1  18
DOCKED: ATOM     18  N   UNL     1     141.547  73.355 220.067 -0.05 +0.07    -0.334 N  
DOCKED: ATOM     19  C   UNL     1     142.252  72.212 219.502 -0.10 -0.02    +0.120 C  
DOCKED: ATOM     20  C   UNL     1     142.385  74.276 220.843 -0.21 -0.03    +0.115 C  
DOCKED: ATOM     21  C   UNL     1     143.507  71.932 220.355 -0.28 -0.00    +0.022 C  
DOCKED: ATOM     22  C   UNL     1     143.714  74.355 220.055 -0.38 -0.01    +0.030 C  
DOCKED: ATOM     23  C   UNL     1     144.458  73.083 220.371 -0.44 -0.00    +0.004 C  
DOCKED: BRANCH  20  24
DOCKED: ATOM     24  C   UNL     1     141.820  75.651 220.924 -0.25 +0.01    -0.025 A  
DOCKED: ATOM     25  C   UNL     1     141.011  76.072 221.959 -0.37 -0.00    +0.007 A  
DOCKED: ATOM     26  C   UNL     1     142.117  76.615 219.954 -0.31 -0.00    +0.007 A  
DOCKED: ATOM     27  C   UNL     1     140.522  77.367 222.035 -0.38 -0.01    +0.021 A  
DOCKED: ATOM     28  C   UNL     1     141.628  77.903 220.034 -0.28 -0.01    +0.021 A  
DOCKED: ATOM     29  C   UNL     1     140.831  78.294 221.066 -0.26 -0.02    +0.041 A  
DOCKED: ATOM     30  Cl  UNL     1     140.245  79.947 221.105 -0.26 +0.02    -0.084 Cl 
DOCKED: ENDBRANCH  20  24
DOCKED: ENDBRANCH   1  18
DOCKED: TORSDOF 5
DOCKED: TER
DOCKED: ENDMDL
________________________________________________________________________________


    FINAL DOCKED STATE:
    ________________________


Run:   9 / 20
Time taken for this run:   0.028s

DOCKED: MODEL        9
DOCKED: USER    Run = 9
DOCKED: USER
DOCKED: USER    Estimated Free Energy of Binding    =  -8.09 kcal/mol  [=(1)+(2)+(3)-(4)]
DOCKED: USER
DOCKED: USER    (1) Final Intermolecular Energy     =  -9.58 kcal/mol
DOCKED: USER        vdW + Hbond + desolv Energy     =  -9.53 kcal/mol
DOCKED: USER        Electrostatic Energy            =  -0.05 kcal/mol
DOCKED: USER        Moving Ligand-Fixed Receptor    =  -9.58 kcal/mol
DOCKED: USER        Moving Ligand-Moving Receptor   =  +0.00 kcal/mol
DOCKED: USER    (2) Final Total Internal Energy     =  -2.03 kcal/mol
DOCKED: USER    (3) Torsional Free Energy           =  +1.49 kcal/mol
DOCKED: USER    (4) Unbound System's Energy         =  -2.03 kcal/mol
DOCKED: USER
DOCKED: USER
DOCKED: REMARK SMILES O=C(NCC(=O)N1CCCC[C@H]1c1ccc(Cl)cc1)c1ccc2ccccc2n1
DOCKED: REMARK SMILES IDX 5 1 6 2 4 3 3 4 2 5 1 6 20 8 21 9 29 10 22 11 28 12 23 13
DOCKED: REMARK SMILES IDX 27 14 24 15 26 16 25 17 7 18 8 19 12 20 9 21 11 22 10 23
DOCKED: REMARK SMILES IDX 13 24 14 25 19 26 15 27 18 28 16 29 17 30
DOCKED: REMARK H PARENT 3 7
DOCKED: USER                              x       y       z     vdW  Elec       q    Type
DOCKED: USER                           _______ _______ _______ _____ _____    ______ ____
DOCKED: ROOT
DOCKED: ATOM      1  C   UNL     1     140.095  73.816 219.977 -0.06 -0.05    +0.242 C  
DOCKED: ATOM      2  O   UNL     1     139.770  74.576 218.962 -0.01 +0.06    -0.273 OA 
DOCKED: ENDROOT
DOCKED: BRANCH   1   3
DOCKED: ATOM      3  C   UNL     1     138.949  73.484 220.820 -0.09 -0.04    +0.216 C  
DOCKED: BRANCH   3   4
DOCKED: ATOM      4  N   UNL     1     139.138  73.038 222.146 -0.11 +0.08    -0.342 N  
DOCKED: ATOM      5  C   UNL     1     139.627  71.668 222.291 -0.18 -0.05    +0.270 C  
DOCKED: ATOM      6  O   UNL     1     139.833  71.017 221.233 -0.08 +0.04    -0.268 OA 
DOCKED: ATOM      7  H   UNL     1     139.006  73.518 223.043 -0.51 -0.08    +0.164 HD 
DOCKED: BRANCH   5   8
DOCKED: ATOM      8  C   UNL     1     139.850  71.122 223.618 -0.31 -0.02    +0.128 A  
DOCKED: ATOM      9  C   UNL     1     139.528  69.804 223.824 -0.27 -0.01    +0.035 A  
DOCKED: ATOM     10  N   UNL     1     140.358  71.889 224.610 -0.27 +0.04    -0.243 NA 
DOCKED: ATOM     11  C   UNL     1     139.726  69.245 225.073 -0.39 -0.00    +0.013 A  
DOCKED: ATOM     12  C   UNL     1     140.560  71.357 225.849 -0.54 -0.01    +0.071 A  
DOCKED: ATOM     13  C   UNL     1     140.248  70.032 226.099 -0.52 -0.00    +0.000 A  
DOCKED: ATOM     14  C   UNL     1     141.073  72.115 226.866 -0.72 -0.01    +0.029 A  
DOCKED: ATOM     15  C   UNL     1     140.436  69.445 227.341 -0.60 -0.00    +0.010 A  
DOCKED: ATOM     16  C   UNL     1     141.274  71.570 228.114 -0.74 -0.00    +0.002 A  
DOCKED: ATOM     17  C   UNL     1     140.953  70.236 228.345 -0.56 -0.00    +0.001 A  
DOCKED: ENDBRANCH   5   8
DOCKED: ENDBRANCH   3   4
DOCKED: ENDBRANCH   1   3
DOCKED: BRANCH   1  18
DOCKED: ATOM     18  N   UNL     1     141.436  73.474 220.059 -0.05 +0.07    -0.334 N  
DOCKED: ATOM     19  C   UNL     1     142.078  72.349 219.392 -0.09 -0.02    +0.120 C  
DOCKED: ATOM     20  C   UNL     1     142.336  74.318 220.853 -0.21 -0.03    +0.115 C  
DOCKED: ATOM     21  C   UNL     1     143.358  71.977 220.170 -0.26 -0.00    +0.022 C  
DOCKED: ATOM     22  C   UNL     1     143.632  74.407 220.014 -0.37 -0.01    +0.030 C  
DOCKED: ATOM     23  C   UNL     1     144.347  73.095 220.216 -0.42 -0.00    +0.004 C  
DOCKED: BRANCH  20  24
DOCKED: ATOM     24  C   UNL     1     141.820  75.702 221.045 -0.20 +0.01    -0.025 A  
DOCKED: ATOM     25  C   UNL     1     141.026  76.067 222.112 -0.34 -0.00    +0.007 A  
DOCKED: ATOM     26  C   UNL     1     142.153  76.729 220.155 -0.30 -0.00    +0.007 A  
DOCKED: ATOM     27  C   UNL     1     140.584  77.369 222.292 -0.41 -0.01    +0.021 A  
DOCKED: ATOM     28  C   UNL     1     141.710  78.023 220.338 -0.30 -0.01    +0.021 A  
DOCKED: ATOM     29  C   UNL     1     140.927  78.359 221.400 -0.30 -0.02    +0.041 A  
DOCKED: ATOM     30  Cl  UNL     1     140.400  80.023 221.572 -0.33 +0.02    -0.084 Cl 
DOCKED: ENDBRANCH  20  24
DOCKED: ENDBRANCH   1  18
DOCKED: TORSDOF 5
DOCKED: TER
DOCKED: ENDMDL
________________________________________________________________________________


    FINAL DOCKED STATE:
    ________________________


Run:   10 / 20
Time taken for this run:   0.028s

DOCKED: MODEL        10
DOCKED: USER    Run = 10
DOCKED: USER
DOCKED: USER    Estimated Free Energy of Binding    =  -8.01 kcal/mol  [=(1)+(2)+(3)-(4)]
DOCKED: USER
DOCKED: USER    (1) Final Intermolecular Energy     =  -9.50 kcal/mol
DOCKED: USER        vdW + Hbond + desolv Energy     =  -9.46 kcal/mol
DOCKED: USER        Electrostatic Energy            =  -0.04 kcal/mol
DOCKED: USER        Moving Ligand-Fixed Receptor    =  -9.50 kcal/mol
DOCKED: USER        Moving Ligand-Moving Receptor   =  +0.00 kcal/mol
DOCKED: USER    (2) Final Total Internal Energy     =  -2.06 kcal/mol
DOCKED: USER    (3) Torsional Free Energy           =  +1.49 kcal/mol
DOCKED: USER    (4) Unbound System's Energy         =  -2.06 kcal/mol
DOCKED: USER
DOCKED: USER
DOCKED: REMARK SMILES O=C(NCC(=O)N1CCCC[C@H]1c1ccc(Cl)cc1)c1ccc2ccccc2n1
DOCKED: REMARK SMILES IDX 5 1 6 2 4 3 3 4 2 5 1 6 20 8 21 9 29 10 22 11 28 12 23 13
DOCKED: REMARK SMILES IDX 27 14 24 15 26 16 25 17 7 18 8 19 12 20 9 21 11 22 10 23
DOCKED: REMARK SMILES IDX 13 24 14 25 19 26 15 27 18 28 16 29 17 30
DOCKED: REMARK H PARENT 3 7
DOCKED: USER                              x       y       z     vdW  Elec       q    Type
DOCKED: USER                           _______ _______ _______ _____ _____    ______ ____
DOCKED: ROOT
DOCKED: ATOM      1  C   UNL     1     140.163  73.804 219.967 -0.06 -0.05    +0.242 C  
DOCKED: ATOM      2  O   UNL     1     139.813  74.426 218.871 -0.01 +0.06    -0.273 OA 
DOCKED: ENDROOT
DOCKED: BRANCH   1   3
DOCKED: ATOM      3  C   UNL     1     139.034  73.564 220.863 -0.10 -0.04    +0.216 C  
DOCKED: BRANCH   3   4
DOCKED: ATOM      4  N   UNL     1     139.247  73.105 222.181 -0.12 +0.08    -0.342 N  
DOCKED: ATOM      5  C   UNL     1     139.625  71.699 222.310 -0.18 -0.05    +0.270 C  
DOCKED: ATOM      6  O   UNL     1     139.724  71.031 221.247 -0.08 +0.04    -0.268 OA 
DOCKED: ATOM      7  H   UNL     1     139.200  73.597 223.081 -0.51 -0.07    +0.164 HD 
DOCKED: BRANCH   5   8
DOCKED: ATOM      8  C   UNL     1     139.864  71.137 223.629 -0.32 -0.02    +0.128 A  
DOCKED: ATOM      9  C   UNL     1     139.562  69.812 223.818 -0.27 -0.01    +0.035 A  
DOCKED: ATOM     10  N   UNL     1     140.367  71.899 224.628 -0.26 +0.04    -0.243 NA 
DOCKED: ATOM     11  C   UNL     1     139.775  69.239 225.058 -0.39 -0.00    +0.013 A  
DOCKED: ATOM     12  C   UNL     1     140.583  71.352 225.859 -0.55 -0.01    +0.071 A  
DOCKED: ATOM     13  C   UNL     1     140.292  70.019 226.091 -0.52 -0.00    +0.000 A  
DOCKED: ATOM     14  C   UNL     1     141.091  72.103 226.884 -0.73 -0.01    +0.029 A  
DOCKED: ATOM     15  C   UNL     1     140.496  69.418 227.325 -0.60 -0.00    +0.010 A  
DOCKED: ATOM     16  C   UNL     1     141.307  71.544 228.122 -0.72 -0.00    +0.002 A  
DOCKED: ATOM     17  C   UNL     1     141.008  70.203 228.337 -0.56 -0.00    +0.001 A  
DOCKED: ENDBRANCH   5   8
DOCKED: ENDBRANCH   3   4
DOCKED: ENDBRANCH   1   3
DOCKED: BRANCH   1  18
DOCKED: ATOM     18  N   UNL     1     141.511  73.493 220.071 -0.05 +0.07    -0.334 N  
DOCKED: ATOM     19  C   UNL     1     142.185  72.370 219.432 -0.09 -0.02    +0.120 C  
DOCKED: ATOM     20  C   UNL     1     142.383  74.371 220.859 -0.20 -0.03    +0.115 C  
DOCKED: ATOM     21  C   UNL     1     143.464  72.041 220.231 -0.27 -0.00    +0.022 C  
DOCKED: ATOM     22  C   UNL     1     143.686  74.472 220.032 -0.38 -0.01    +0.030 C  
DOCKED: ATOM     23  C   UNL     1     144.427  73.181 220.267 -0.44 -0.00    +0.004 C  
DOCKED: BRANCH  20  24
DOCKED: ATOM     24  C   UNL     1     141.835  75.746 221.019 -0.18 +0.01    -0.025 A  
DOCKED: ATOM     25  C   UNL     1     142.053  76.753 220.103 -0.31 -0.00    +0.007 A  
DOCKED: ATOM     26  C   UNL     1     141.026  76.081 222.110 -0.34 -0.00    +0.007 A  
DOCKED: ATOM     27  C   UNL     1     141.505  78.019 220.251 -0.28 -0.01    +0.021 A  
DOCKED: ATOM     28  C   UNL     1     140.484  77.341 222.255 -0.40 -0.01    +0.021 A  
DOCKED: ATOM     29  C   UNL     1     140.713  78.320 221.336 -0.27 -0.02    +0.041 A  
DOCKED: ATOM     30  Cl  UNL     1     139.992  79.899 221.581 -0.27 +0.02    -0.084 Cl 
DOCKED: ENDBRANCH  20  24
DOCKED: ENDBRANCH   1  18
DOCKED: TORSDOF 5
DOCKED: TER
DOCKED: ENDMDL
________________________________________________________________________________


    FINAL DOCKED STATE:
    ________________________


Run:   11 / 20
Time taken for this run:   0.028s

DOCKED: MODEL        11
DOCKED: USER    Run = 11
DOCKED: USER
DOCKED: USER    Estimated Free Energy of Binding    =  -8.82 kcal/mol  [=(1)+(2)+(3)-(4)]
DOCKED: USER
DOCKED: USER    (1) Final Intermolecular Energy     = -10.32 kcal/mol
DOCKED: USER        vdW + Hbond + desolv Energy     = -10.22 kcal/mol
DOCKED: USER        Electrostatic Energy            =  -0.09 kcal/mol
DOCKED: USER        Moving Ligand-Fixed Receptor    = -10.32 kcal/mol
DOCKED: USER        Moving Ligand-Moving Receptor   =  +0.00 kcal/mol
DOCKED: USER    (2) Final Total Internal Energy     =  -1.31 kcal/mol
DOCKED: USER    (3) Torsional Free Energy           =  +1.49 kcal/mol
DOCKED: USER    (4) Unbound System's Energy         =  -1.31 kcal/mol
DOCKED: USER
DOCKED: USER
DOCKED: REMARK SMILES O=C(NCC(=O)N1CCCC[C@H]1c1ccc(Cl)cc1)c1ccc2ccccc2n1
DOCKED: REMARK SMILES IDX 5 1 6 2 4 3 3 4 2 5 1 6 20 8 21 9 29 10 22 11 28 12 23 13
DOCKED: REMARK SMILES IDX 27 14 24 15 26 16 25 17 7 18 8 19 12 20 9 21 11 22 10 23
DOCKED: REMARK SMILES IDX 13 24 14 25 19 26 15 27 18 28 16 29 17 30
DOCKED: REMARK H PARENT 3 7
DOCKED: USER                              x       y       z     vdW  Elec       q    Type
DOCKED: USER                           _______ _______ _______ _____ _____    ______ ____
DOCKED: ROOT
DOCKED: ATOM      1  C   UNL     1     140.957  75.405 221.124 -0.22 -0.07    +0.242 C  
DOCKED: ATOM      2  O   UNL     1     141.382  75.656 222.336 -0.29 +0.07    -0.273 OA 
DOCKED: ENDROOT
DOCKED: BRANCH   1   3
DOCKED: ATOM      3  C   UNL     1     139.817  74.491 221.105 -0.17 -0.04    +0.216 C  
DOCKED: BRANCH   3   4
DOCKED: ATOM      4  N   UNL     1     139.531  73.676 222.222 -0.13 +0.06    -0.342 N  
DOCKED: ATOM      5  C   UNL     1     140.400  72.513 222.396 -0.20 -0.03    +0.270 C  
DOCKED: ATOM      6  O   UNL     1     141.313  72.345 221.546 -0.19 +0.03    -0.268 OA 
DOCKED: ATOM      7  H   UNL     1     138.820  73.764 222.956 -0.55 -0.09    +0.164 HD 
DOCKED: BRANCH   5   8
DOCKED: ATOM      8  C   UNL     1     140.181  71.615 223.518 -0.32 -0.02    +0.128 A  
DOCKED: ATOM      9  C   UNL     1     139.434  70.487 223.290 -0.27 -0.01    +0.035 A  
DOCKED: ATOM     10  N   UNL     1     140.698  71.888 224.738 -0.27 +0.03    -0.243 NA 
DOCKED: ATOM     11  C   UNL     1     139.203  69.606 224.330 -0.33 -0.00    +0.013 A  
DOCKED: ATOM     12  C   UNL     1     140.480  71.032 225.777 -0.53 -0.01    +0.071 A  
DOCKED: ATOM     13  C   UNL     1     139.732  69.882 225.590 -0.46 -0.00    +0.000 A  
DOCKED: ATOM     14  C   UNL     1     140.994  71.287 227.020 -0.70 -0.00    +0.029 A  
DOCKED: ATOM     15  C   UNL     1     139.484  68.981 226.615 -0.52 -0.00    +0.010 A  
DOCKED: ATOM     16  C   UNL     1     140.770  70.418 228.063 -0.63 -0.00    +0.002 A  
DOCKED: ATOM     17  C   UNL     1     140.015  69.269 227.855 -0.63 -0.00    +0.001 A  
DOCKED: ENDBRANCH   5   8
DOCKED: ENDBRANCH   3   4
DOCKED: ENDBRANCH   1   3
DOCKED: BRANCH   1  18
DOCKED: ATOM     18  N   UNL     1     141.651  76.042 220.106 -0.10 +0.15    -0.334 N  
DOCKED: ATOM     19  C   UNL     1     142.036  75.453 218.830 -0.14 -0.05    +0.120 C  
DOCKED: ATOM     20  C   UNL     1     142.021  77.451 220.274 -0.24 -0.07    +0.115 C  
DOCKED: ATOM     21  C   UNL     1     143.241  76.237 218.267 -0.29 -0.01    +0.022 C  
DOCKED: ATOM     22  C   UNL     1     141.766  78.091 218.889 -0.24 -0.02    +0.030 C  
DOCKED: ATOM     23  C   UNL     1     142.926  77.675 218.021 -0.29 -0.00    +0.004 C  
DOCKED: BRANCH  20  24
DOCKED: ATOM     24  C   UNL     1     141.173  78.163 221.270 -0.32 +0.01    -0.025 A  
DOCKED: ATOM     25  C   UNL     1     141.664  78.656 222.461 -0.48 -0.00    +0.007 A  
DOCKED: ATOM     26  C   UNL     1     139.817  78.403 221.026 -0.18 -0.00    +0.007 A  
DOCKED: ATOM     27  C   UNL     1     140.866  79.347 223.360 -0.50 -0.00    +0.021 A  
DOCKED: ATOM     28  C   UNL     1     139.026  79.090 221.924 -0.20 -0.00    +0.021 A  
DOCKED: ATOM     29  C   UNL     1     139.534  79.568 223.093 -0.35 -0.01    +0.041 A  
DOCKED: ATOM     30  Cl  UNL     1     138.472  80.434 224.188 -0.46 +0.01    -0.084 Cl 
DOCKED: ENDBRANCH  20  24
DOCKED: ENDBRANCH   1  18
DOCKED: TORSDOF 5
DOCKED: TER
DOCKED: ENDMDL
________________________________________________________________________________


    FINAL DOCKED STATE:
    ________________________


Run:   12 / 20
Time taken for this run:   0.028s

DOCKED: MODEL        12
DOCKED: USER    Run = 12
DOCKED: USER
DOCKED: USER    Estimated Free Energy of Binding    =  -8.08 kcal/mol  [=(1)+(2)+(3)-(4)]
DOCKED: USER
DOCKED: USER    (1) Final Intermolecular Energy     =  -9.57 kcal/mol
DOCKED: USER        vdW + Hbond + desolv Energy     =  -9.54 kcal/mol
DOCKED: USER        Electrostatic Energy            =  -0.03 kcal/mol
DOCKED: USER        Moving Ligand-Fixed Receptor    =  -9.57 kcal/mol
DOCKED: USER        Moving Ligand-Moving Receptor   =  +0.00 kcal/mol
DOCKED: USER    (2) Final Total Internal Energy     =  -2.06 kcal/mol
DOCKED: USER    (3) Torsional Free Energy           =  +1.49 kcal/mol
DOCKED: USER    (4) Unbound System's Energy         =  -2.06 kcal/mol
DOCKED: USER
DOCKED: USER
DOCKED: REMARK SMILES O=C(NCC(=O)N1CCCC[C@H]1c1ccc(Cl)cc1)c1ccc2ccccc2n1
DOCKED: REMARK SMILES IDX 5 1 6 2 4 3 3 4 2 5 1 6 20 8 21 9 29 10 22 11 28 12 23 13
DOCKED: REMARK SMILES IDX 27 14 24 15 26 16 25 17 7 18 8 19 12 20 9 21 11 22 10 23
DOCKED: REMARK SMILES IDX 13 24 14 25 19 26 15 27 18 28 16 29 17 30
DOCKED: REMARK H PARENT 3 7
DOCKED: USER                              x       y       z     vdW  Elec       q    Type
DOCKED: USER                           _______ _______ _______ _____ _____    ______ ____
DOCKED: ROOT
DOCKED: ATOM      1  C   UNL     1     140.160  73.783 219.958 -0.06 -0.05    +0.242 C  
DOCKED: ATOM      2  O   UNL     1     139.787  74.356 218.843 -0.01 +0.06    -0.273 OA 
DOCKED: ENDROOT
DOCKED: BRANCH   1   3
DOCKED: ATOM      3  C   UNL     1     139.048  73.579 220.885 -0.10 -0.04    +0.216 C  
DOCKED: BRANCH   3   4
DOCKED: ATOM      4  N   UNL     1     139.283  73.121 222.199 -0.12 +0.08    -0.342 N  
DOCKED: ATOM      5  C   UNL     1     139.587  71.697 222.330 -0.18 -0.05    +0.270 C  
DOCKED: ATOM      6  O   UNL     1     139.611  71.015 221.271 -0.08 +0.05    -0.268 OA 
DOCKED: ATOM      7  H   UNL     1     139.295  73.622 223.095 -0.51 -0.06    +0.164 HD 
DOCKED: BRANCH   5   8
DOCKED: ATOM      8  C   UNL     1     139.842  71.135 223.645 -0.32 -0.02    +0.128 A  
DOCKED: ATOM      9  C   UNL     1     139.568  69.803 223.829 -0.27 -0.01    +0.035 A  
DOCKED: ATOM     10  N   UNL     1     140.331  71.902 224.646 -0.26 +0.04    -0.243 NA 
DOCKED: ATOM     11  C   UNL     1     139.797  69.229 225.066 -0.39 -0.00    +0.013 A  
DOCKED: ATOM     12  C   UNL     1     140.563  71.354 225.874 -0.54 -0.01    +0.071 A  
DOCKED: ATOM     13  C   UNL     1     140.301  70.015 226.101 -0.52 -0.00    +0.000 A  
DOCKED: ATOM     14  C   UNL     1     141.059  72.112 226.900 -0.72 -0.01    +0.029 A  
DOCKED: ATOM     15  C   UNL     1     140.521  69.413 227.331 -0.60 -0.00    +0.010 A  
DOCKED: ATOM     16  C   UNL     1     141.290  71.552 228.136 -0.73 -0.00    +0.002 A  
DOCKED: ATOM     17  C   UNL     1     141.020  70.204 228.345 -0.56 -0.00    +0.001 A  
DOCKED: ENDBRANCH   5   8
DOCKED: ENDBRANCH   3   4
DOCKED: ENDBRANCH   1   3
DOCKED: BRANCH   1  18
DOCKED: ATOM     18  N   UNL     1     141.510  73.479 220.050 -0.05 +0.07    -0.334 N  
DOCKED: ATOM     19  C   UNL     1     142.185  72.363 219.402 -0.09 -0.02    +0.120 C  
DOCKED: ATOM     20  C   UNL     1     142.383  74.360 220.834 -0.21 -0.03    +0.115 C  
DOCKED: ATOM     21  C   UNL     1     143.473  72.039 220.189 -0.27 -0.00    +0.022 C  
DOCKED: ATOM     22  C   UNL     1     143.679  74.472 219.998 -0.38 -0.01    +0.030 C  
DOCKED: ATOM     23  C   UNL     1     144.429  73.184 220.222 -0.43 -0.00    +0.004 C  
DOCKED: BRANCH  20  24
DOCKED: ATOM     24  C   UNL     1     141.828  75.731 221.004 -0.20 +0.01    -0.025 A  
DOCKED: ATOM     25  C   UNL     1     141.037  76.095 222.075 -0.35 -0.00    +0.007 A  
DOCKED: ATOM     26  C   UNL     1     142.117  76.748 220.088 -0.31 -0.00    +0.007 A  
DOCKED: ATOM     27  C   UNL     1     140.558  77.386 222.234 -0.40 -0.01    +0.021 A  
DOCKED: ATOM     28  C   UNL     1     141.638  78.031 220.251 -0.29 -0.01    +0.021 A  
DOCKED: ATOM     29  C   UNL     1     140.859  78.367 221.316 -0.28 -0.02    +0.041 A  
DOCKED: ATOM     30  Cl  UNL     1     140.285  80.017 221.461 -0.30 +0.02    -0.084 Cl 
DOCKED: ENDBRANCH  20  24
DOCKED: ENDBRANCH   1  18
DOCKED: TORSDOF 5
DOCKED: TER
DOCKED: ENDMDL
________________________________________________________________________________


    FINAL DOCKED STATE:
    ________________________


Run:   13 / 20
Time taken for this run:   0.028s

DOCKED: MODEL        13
DOCKED: USER    Run = 13
DOCKED: USER
DOCKED: USER    Estimated Free Energy of Binding    =  -8.05 kcal/mol  [=(1)+(2)+(3)-(4)]
DOCKED: USER
DOCKED: USER    (1) Final Intermolecular Energy     =  -9.54 kcal/mol
DOCKED: USER        vdW + Hbond + desolv Energy     =  -9.53 kcal/mol
DOCKED: USER        Electrostatic Energy            =  -0.02 kcal/mol
DOCKED: USER        Moving Ligand-Fixed Receptor    =  -9.54 kcal/mol
DOCKED: USER        Moving Ligand-Moving Receptor   =  +0.00 kcal/mol
DOCKED: USER    (2) Final Total Internal Energy     =  -2.07 kcal/mol
DOCKED: USER    (3) Torsional Free Energy           =  +1.49 kcal/mol
DOCKED: USER    (4) Unbound System's Energy         =  -2.07 kcal/mol
DOCKED: USER
DOCKED: USER
DOCKED: REMARK SMILES O=C(NCC(=O)N1CCCC[C@H]1c1ccc(Cl)cc1)c1ccc2ccccc2n1
DOCKED: REMARK SMILES IDX 5 1 6 2 4 3 3 4 2 5 1 6 20 8 21 9 29 10 22 11 28 12 23 13
DOCKED: REMARK SMILES IDX 27 14 24 15 26 16 25 17 7 18 8 19 12 20 9 21 11 22 10 23
DOCKED: REMARK SMILES IDX 13 24 14 25 19 26 15 27 18 28 16 29 17 30
DOCKED: REMARK H PARENT 3 7
DOCKED: USER                              x       y       z     vdW  Elec       q    Type
DOCKED: USER                           _______ _______ _______ _____ _____    ______ ____
DOCKED: ROOT
DOCKED: ATOM      1  C   UNL     1     140.233  73.802 219.970 -0.06 -0.05    +0.242 C  
DOCKED: ATOM      2  O   UNL     1     139.818  74.256 218.815 -0.01 +0.06    -0.273 OA 
DOCKED: ENDROOT
DOCKED: BRANCH   1   3
DOCKED: ATOM      3  C   UNL     1     139.149  73.652 220.938 -0.11 -0.04    +0.216 C  
DOCKED: BRANCH   3   4
DOCKED: ATOM      4  N   UNL     1     139.408  73.170 222.239 -0.13 +0.07    -0.342 N  
DOCKED: ATOM      5  C   UNL     1     139.576  71.723 222.358 -0.18 -0.05    +0.270 C  
DOCKED: ATOM      6  O   UNL     1     139.475  71.044 221.302 -0.08 +0.05    -0.268 OA 
DOCKED: ATOM      7  H   UNL     1     139.519  73.666 223.131 -0.50 -0.04    +0.164 HD 
DOCKED: BRANCH   5   8
DOCKED: ATOM      8  C   UNL     1     139.846  71.136 223.659 -0.32 -0.02    +0.128 A  
DOCKED: ATOM      9  C   UNL     1     139.579  69.799 223.819 -0.27 -0.01    +0.035 A  
DOCKED: ATOM     10  N   UNL     1     140.342  71.885 224.670 -0.27 +0.04    -0.243 NA 
DOCKED: ATOM     11  C   UNL     1     139.821  69.202 225.042 -0.38 -0.00    +0.013 A  
DOCKED: ATOM     12  C   UNL     1     140.588  71.313 225.885 -0.55 -0.01    +0.071 A  
DOCKED: ATOM     13  C   UNL     1     140.333  69.968 226.088 -0.52 -0.00    +0.000 A  
DOCKED: ATOM     14  C   UNL     1     141.091  72.052 226.921 -0.74 -0.01    +0.029 A  
DOCKED: ATOM     15  C   UNL     1     140.567  69.343 227.303 -0.60 -0.00    +0.010 A  
DOCKED: ATOM     16  C   UNL     1     141.336  71.468 228.143 -0.70 -0.00    +0.002 A  
DOCKED: ATOM     17  C   UNL     1     141.072  70.115 228.328 -0.56 -0.00    +0.001 A  
DOCKED: ENDBRANCH   5   8
DOCKED: ENDBRANCH   3   4
DOCKED: ENDBRANCH   1   3
DOCKED: BRANCH   1  18
DOCKED: ATOM     18  N   UNL     1     141.594  73.550 220.056 -0.05 +0.07    -0.334 N  
DOCKED: ATOM     19  C   UNL     1     142.310  72.463 219.403 -0.10 -0.02    +0.120 C  
DOCKED: ATOM     20  C   UNL     1     142.435  74.461 220.842 -0.21 -0.04    +0.115 C  
DOCKED: ATOM     21  C   UNL     1     143.611  72.186 220.186 -0.28 -0.00    +0.022 C  
DOCKED: ATOM     22  C   UNL     1     143.723  74.626 220.002 -0.39 -0.01    +0.030 C  
DOCKED: ATOM     23  C   UNL     1     144.523  73.367 220.220 -0.46 -0.00    +0.004 C  
DOCKED: BRANCH  20  24
DOCKED: ATOM     24  C   UNL     1     141.828  75.810 221.017 -0.17 +0.01    -0.025 A  
DOCKED: ATOM     25  C   UNL     1     141.058  76.151 222.110 -0.34 -0.00    +0.007 A  
DOCKED: ATOM     26  C   UNL     1     142.044  76.829 220.084 -0.31 -0.00    +0.007 A  
DOCKED: ATOM     27  C   UNL     1     140.530  77.422 222.273 -0.40 -0.01    +0.021 A  
DOCKED: ATOM     28  C   UNL     1     141.517  78.093 220.250 -0.28 -0.01    +0.021 A  
DOCKED: ATOM     29  C   UNL     1     140.759  78.406 221.337 -0.28 -0.02    +0.041 A  
DOCKED: ATOM     30  Cl  UNL     1     140.120  80.032 221.486 -0.28 +0.02    -0.084 Cl 
DOCKED: ENDBRANCH  20  24
DOCKED: ENDBRANCH   1  18
DOCKED: TORSDOF 5
DOCKED: TER
DOCKED: ENDMDL
________________________________________________________________________________


    FINAL DOCKED STATE:
    ________________________


Run:   14 / 20
Time taken for this run:   0.028s

DOCKED: MODEL        14
DOCKED: USER    Run = 14
DOCKED: USER
DOCKED: USER    Estimated Free Energy of Binding    =  -8.81 kcal/mol  [=(1)+(2)+(3)-(4)]
DOCKED: USER
DOCKED: USER    (1) Final Intermolecular Energy     = -10.30 kcal/mol
DOCKED: USER        vdW + Hbond + desolv Energy     = -10.21 kcal/mol
DOCKED: USER        Electrostatic Energy            =  -0.09 kcal/mol
DOCKED: USER        Moving Ligand-Fixed Receptor    = -10.30 kcal/mol
DOCKED: USER        Moving Ligand-Moving Receptor   =  +0.00 kcal/mol
DOCKED: USER    (2) Final Total Internal Energy     =  -1.33 kcal/mol
DOCKED: USER    (3) Torsional Free Energy           =  +1.49 kcal/mol
DOCKED: USER    (4) Unbound System's Energy         =  -1.33 kcal/mol
DOCKED: USER
DOCKED: USER
DOCKED: REMARK SMILES O=C(NCC(=O)N1CCCC[C@H]1c1ccc(Cl)cc1)c1ccc2ccccc2n1
DOCKED: REMARK SMILES IDX 5 1 6 2 4 3 3 4 2 5 1 6 20 8 21 9 29 10 22 11 28 12 23 13
DOCKED: REMARK SMILES IDX 27 14 24 15 26 16 25 17 7 18 8 19 12 20 9 21 11 22 10 23
DOCKED: REMARK SMILES IDX 13 24 14 25 19 26 15 27 18 28 16 29 17 30
DOCKED: REMARK H PARENT 3 7
DOCKED: USER                              x       y       z     vdW  Elec       q    Type
DOCKED: USER                           _______ _______ _______ _____ _____    ______ ____
DOCKED: ROOT
DOCKED: ATOM      1  C   UNL     1     140.993  75.389 221.143 -0.22 -0.07    +0.242 C  
DOCKED: ATOM      2  O   UNL     1     141.447  75.630 222.346 -0.26 +0.07    -0.273 OA 
DOCKED: ENDROOT
DOCKED: BRANCH   1   3
DOCKED: ATOM      3  C   UNL     1     139.846  74.484 221.145 -0.18 -0.04    +0.216 C  
DOCKED: BRANCH   3   4
DOCKED: ATOM      4  N   UNL     1     139.578  73.666 222.264 -0.13 +0.06    -0.342 N  
DOCKED: ATOM      5  C   UNL     1     140.426  72.483 222.403 -0.20 -0.02    +0.270 C  
DOCKED: ATOM      6  O   UNL     1     141.308  72.302 221.522 -0.19 +0.03    -0.268 OA 
DOCKED: ATOM      7  H   UNL     1     138.893  73.764 223.022 -0.54 -0.09    +0.164 HD 
DOCKED: BRANCH   5   8
DOCKED: ATOM      8  C   UNL     1     140.223  71.581 223.524 -0.33 -0.02    +0.128 A  
DOCKED: ATOM      9  C   UNL     1     139.539  70.416 223.285 -0.27 -0.01    +0.035 A  
DOCKED: ATOM     10  N   UNL     1     140.696  71.885 224.755 -0.27 +0.03    -0.243 NA 
DOCKED: ATOM     11  C   UNL     1     139.324  69.531 224.325 -0.33 -0.00    +0.013 A  
DOCKED: ATOM     12  C   UNL     1     140.494  71.025 225.794 -0.53 -0.01    +0.071 A  
DOCKED: ATOM     13  C   UNL     1     139.808  69.839 225.596 -0.46 -0.00    +0.000 A  
DOCKED: ATOM     14  C   UNL     1     140.963  71.312 227.047 -0.70 -0.00    +0.029 A  
DOCKED: ATOM     15  C   UNL     1     139.579  68.933 226.620 -0.54 -0.00    +0.010 A  
DOCKED: ATOM     16  C   UNL     1     140.756  70.439 228.090 -0.63 -0.00    +0.002 A  
DOCKED: ATOM     17  C   UNL     1     140.064  69.252 227.871 -0.63 -0.00    +0.001 A  
DOCKED: ENDBRANCH   5   8
DOCKED: ENDBRANCH   3   4
DOCKED: ENDBRANCH   1   3
DOCKED: BRANCH   1  18
DOCKED: ATOM     18  N   UNL     1     141.669  76.025 220.113 -0.10 +0.15    -0.334 N  
DOCKED: ATOM     19  C   UNL     1     142.040  75.434 218.834 -0.14 -0.05    +0.120 C  
DOCKED: ATOM     20  C   UNL     1     142.034  77.438 220.271 -0.24 -0.07    +0.115 C  
DOCKED: ATOM     21  C   UNL     1     143.232  76.222 218.251 -0.29 -0.01    +0.022 C  
DOCKED: ATOM     22  C   UNL     1     141.755  78.070 218.887 -0.24 -0.02    +0.030 C  
DOCKED: ATOM     23  C   UNL     1     142.905  77.658 218.004 -0.30 -0.00    +0.004 C  
DOCKED: BRANCH  20  24
DOCKED: ATOM     24  C   UNL     1     141.195  78.148 221.275 -0.32 +0.01    -0.025 A  
DOCKED: ATOM     25  C   UNL     1     141.699  78.638 222.463 -0.48 -0.00    +0.007 A  
DOCKED: ATOM     26  C   UNL     1     139.838  78.391 221.044 -0.18 -0.00    +0.007 A  
DOCKED: ATOM     27  C   UNL     1     140.909  79.328 223.371 -0.51 -0.00    +0.021 A  
DOCKED: ATOM     28  C   UNL     1     139.056  79.078 221.950 -0.21 -0.00    +0.021 A  
DOCKED: ATOM     29  C   UNL     1     139.575  79.552 223.116 -0.36 -0.01    +0.041 A  
DOCKED: ATOM     30  Cl  UNL     1     138.525  80.417 224.223 -0.45 +0.01    -0.084 Cl 
DOCKED: ENDBRANCH  20  24
DOCKED: ENDBRANCH   1  18
DOCKED: TORSDOF 5
DOCKED: TER
DOCKED: ENDMDL
________________________________________________________________________________


    FINAL DOCKED STATE:
    ________________________


Run:   15 / 20
Time taken for this run:   0.028s

DOCKED: MODEL        15
DOCKED: USER    Run = 15
DOCKED: USER
DOCKED: USER    Estimated Free Energy of Binding    =  -8.09 kcal/mol  [=(1)+(2)+(3)-(4)]
DOCKED: USER
DOCKED: USER    (1) Final Intermolecular Energy     =  -9.58 kcal/mol
DOCKED: USER        vdW + Hbond + desolv Energy     =  -9.54 kcal/mol
DOCKED: USER        Electrostatic Energy            =  -0.04 kcal/mol
DOCKED: USER        Moving Ligand-Fixed Receptor    =  -9.58 kcal/mol
DOCKED: USER        Moving Ligand-Moving Receptor   =  +0.00 kcal/mol
DOCKED: USER    (2) Final Total Internal Energy     =  -2.06 kcal/mol
DOCKED: USER    (3) Torsional Free Energy           =  +1.49 kcal/mol
DOCKED: USER    (4) Unbound System's Energy         =  -2.06 kcal/mol
DOCKED: USER
DOCKED: USER
DOCKED: REMARK SMILES O=C(NCC(=O)N1CCCC[C@H]1c1ccc(Cl)cc1)c1ccc2ccccc2n1
DOCKED: REMARK SMILES IDX 5 1 6 2 4 3 3 4 2 5 1 6 20 8 21 9 29 10 22 11 28 12 23 13
DOCKED: REMARK SMILES IDX 27 14 24 15 26 16 25 17 7 18 8 19 12 20 9 21 11 22 10 23
DOCKED: REMARK SMILES IDX 13 24 14 25 19 26 15 27 18 28 16 29 17 30
DOCKED: REMARK H PARENT 3 7
DOCKED: USER                              x       y       z     vdW  Elec       q    Type
DOCKED: USER                           _______ _______ _______ _____ _____    ______ ____
DOCKED: ROOT
DOCKED: ATOM      1  C   UNL     1     140.184  73.738 219.933 -0.05 -0.05    +0.242 C  
DOCKED: ATOM      2  O   UNL     1     139.833  74.280 218.795 -0.01 +0.06    -0.273 OA 
DOCKED: ENDROOT
DOCKED: BRANCH   1   3
DOCKED: ATOM      3  C   UNL     1     139.057  73.570 220.848 -0.10 -0.04    +0.216 C  
DOCKED: BRANCH   3   4
DOCKED: ATOM      4  N   UNL     1     139.264  73.109 222.166 -0.12 +0.08    -0.342 N  
DOCKED: ATOM      5  C   UNL     1     139.627  71.699 222.295 -0.18 -0.05    +0.270 C  
DOCKED: ATOM      6  O   UNL     1     139.722  71.030 221.232 -0.08 +0.04    -0.268 OA 
DOCKED: ATOM      7  H   UNL     1     139.220  73.601 223.066 -0.51 -0.07    +0.164 HD 
DOCKED: BRANCH   5   8
DOCKED: ATOM      8  C   UNL     1     139.860  71.135 223.614 -0.32 -0.02    +0.128 A  
DOCKED: ATOM      9  C   UNL     1     139.558  69.809 223.798 -0.27 -0.01    +0.035 A  
DOCKED: ATOM     10  N   UNL     1     140.355  71.895 224.617 -0.26 +0.04    -0.243 NA 
DOCKED: ATOM     11  C   UNL     1     139.764  69.234 225.038 -0.39 -0.00    +0.013 A  
DOCKED: ATOM     12  C   UNL     1     140.565  71.345 225.848 -0.54 -0.01    +0.071 A  
DOCKED: ATOM     13  C   UNL     1     140.274  70.012 226.076 -0.52 -0.00    +0.000 A  
DOCKED: ATOM     14  C   UNL     1     141.066  72.095 226.878 -0.72 -0.01    +0.029 A  
DOCKED: ATOM     15  C   UNL     1     140.471  69.408 227.309 -0.60 -0.00    +0.010 A  
DOCKED: ATOM     16  C   UNL     1     141.276  71.533 228.117 -0.73 -0.00    +0.002 A  
DOCKED: ATOM     17  C   UNL     1     140.976  70.191 228.326 -0.57 -0.00    +0.001 A  
DOCKED: ENDBRANCH   5   8
DOCKED: ENDBRANCH   3   4
DOCKED: ENDBRANCH   1   3
DOCKED: BRANCH   1  18
DOCKED: ATOM     18  N   UNL     1     141.531  73.429 220.054 -0.05 +0.07    -0.334 N  
DOCKED: ATOM     19  C   UNL     1     142.214  72.305 219.428 -0.09 -0.02    +0.120 C  
DOCKED: ATOM     20  C   UNL     1     142.391  74.311 220.851 -0.21 -0.03    +0.115 C  
DOCKED: ATOM     21  C   UNL     1     143.483  71.980 220.244 -0.27 -0.00    +0.022 C  
DOCKED: ATOM     22  C   UNL     1     143.705  74.411 220.041 -0.38 -0.01    +0.030 C  
DOCKED: ATOM     23  C   UNL     1     144.444  73.121 220.289 -0.44 -0.00    +0.004 C  
DOCKED: BRANCH  20  24
DOCKED: ATOM     24  C   UNL     1     141.840  75.686 221.000 -0.20 +0.01    -0.025 A  
DOCKED: ATOM     25  C   UNL     1     141.026  76.059 222.049 -0.35 -0.00    +0.007 A  
DOCKED: ATOM     26  C   UNL     1     142.156  76.696 220.086 -0.32 -0.00    +0.007 A  
DOCKED: ATOM     27  C   UNL     1     140.550  77.354 222.190 -0.40 -0.01    +0.021 A  
DOCKED: ATOM     28  C   UNL     1     141.680  77.983 220.230 -0.29 -0.01    +0.021 A  
DOCKED: ATOM     29  C   UNL     1     140.878  78.328 221.274 -0.28 -0.02    +0.041 A  
DOCKED: ATOM     30  Cl  UNL     1     140.309  79.982 221.396 -0.29 +0.02    -0.084 Cl 
DOCKED: ENDBRANCH  20  24
DOCKED: ENDBRANCH   1  18
DOCKED: TORSDOF 5
DOCKED: TER
DOCKED: ENDMDL
________________________________________________________________________________


    FINAL DOCKED STATE:
    ________________________


Run:   16 / 20
Time taken for this run:   0.028s

DOCKED: MODEL        16
DOCKED: USER    Run = 16
DOCKED: USER
DOCKED: USER    Estimated Free Energy of Binding    =  -8.09 kcal/mol  [=(1)+(2)+(3)-(4)]
DOCKED: USER
DOCKED: USER    (1) Final Intermolecular Energy     =  -9.58 kcal/mol
DOCKED: USER        vdW + Hbond + desolv Energy     =  -9.54 kcal/mol
DOCKED: USER        Electrostatic Energy            =  -0.04 kcal/mol
DOCKED: USER        Moving Ligand-Fixed Receptor    =  -9.58 kcal/mol
DOCKED: USER        Moving Ligand-Moving Receptor   =  +0.00 kcal/mol
DOCKED: USER    (2) Final Total Internal Energy     =  -2.05 kcal/mol
DOCKED: USER    (3) Torsional Free Energy           =  +1.49 kcal/mol
DOCKED: USER    (4) Unbound System's Energy         =  -2.05 kcal/mol
DOCKED: USER
DOCKED: USER
DOCKED: REMARK SMILES O=C(NCC(=O)N1CCCC[C@H]1c1ccc(Cl)cc1)c1ccc2ccccc2n1
DOCKED: REMARK SMILES IDX 5 1 6 2 4 3 3 4 2 5 1 6 20 8 21 9 29 10 22 11 28 12 23 13
DOCKED: REMARK SMILES IDX 27 14 24 15 26 16 25 17 7 18 8 19 12 20 9 21 11 22 10 23
DOCKED: REMARK SMILES IDX 13 24 14 25 19 26 15 27 18 28 16 29 17 30
DOCKED: REMARK H PARENT 3 7
DOCKED: USER                              x       y       z     vdW  Elec       q    Type
DOCKED: USER                           _______ _______ _______ _____ _____    ______ ____
DOCKED: ROOT
DOCKED: ATOM      1  C   UNL     1     140.179  73.662 219.939 -0.05 -0.05    +0.242 C  
DOCKED: ATOM      2  O   UNL     1     139.836  74.123 218.763 -0.01 +0.06    -0.273 OA 
DOCKED: ENDROOT
DOCKED: BRANCH   1   3
DOCKED: ATOM      3  C   UNL     1     139.048  73.573 220.860 -0.10 -0.04    +0.216 C  
DOCKED: BRANCH   3   4
DOCKED: ATOM      4  N   UNL     1     139.231  73.107 222.180 -0.12 +0.08    -0.342 N  
DOCKED: ATOM      5  C   UNL     1     139.619  71.703 222.309 -0.18 -0.05    +0.270 C  
DOCKED: ATOM      6  O   UNL     1     139.754  71.044 221.244 -0.08 +0.04    -0.268 OA 
DOCKED: ATOM      7  H   UNL     1     139.154  73.591 223.081 -0.51 -0.07    +0.164 HD 
DOCKED: BRANCH   5   8
DOCKED: ATOM      8  C   UNL     1     139.829  71.135 223.629 -0.32 -0.02    +0.128 A  
DOCKED: ATOM      9  C   UNL     1     139.497  69.816 223.812 -0.27 -0.01    +0.035 A  
DOCKED: ATOM     10  N   UNL     1     140.335  71.884 224.636 -0.27 +0.04    -0.243 NA 
DOCKED: ATOM     11  C   UNL     1     139.682  69.237 225.053 -0.39 -0.00    +0.013 A  
DOCKED: ATOM     12  C   UNL     1     140.523  71.331 225.869 -0.54 -0.01    +0.071 A  
DOCKED: ATOM     13  C   UNL     1     140.201  70.004 226.095 -0.52 -0.00    +0.000 A  
DOCKED: ATOM     14  C   UNL     1     141.034  72.069 226.902 -0.72 -0.01    +0.029 A  
DOCKED: ATOM     15  C   UNL     1     140.376  69.397 227.330 -0.60 -0.00    +0.010 A  
DOCKED: ATOM     16  C   UNL     1     141.222  71.504 228.142 -0.74 -0.00    +0.002 A  
DOCKED: ATOM     17  C   UNL     1     140.891  70.169 228.350 -0.56 -0.00    +0.001 A  
DOCKED: ENDBRANCH   5   8
DOCKED: ENDBRANCH   3   4
DOCKED: ENDBRANCH   1   3
DOCKED: BRANCH   1  18
DOCKED: ATOM     18  N   UNL     1     141.522  73.350 220.088 -0.05 +0.06    -0.334 N  
DOCKED: ATOM     19  C   UNL     1     142.211  72.213 219.492 -0.10 -0.02    +0.120 C  
DOCKED: ATOM     20  C   UNL     1     142.373  74.242 220.883 -0.18 -0.03    +0.115 C  
DOCKED: ATOM     21  C   UNL     1     143.465  71.897 220.334 -0.28 -0.00    +0.022 C  
DOCKED: ATOM     22  C   UNL     1     143.701  74.324 220.093 -0.38 -0.01    +0.030 C  
DOCKED: ATOM     23  C   UNL     1     144.430  73.035 220.375 -0.44 -0.00    +0.004 C  
DOCKED: BRANCH  20  24
DOCKED: ATOM     24  C   UNL     1     141.825  75.622 221.000 -0.23 +0.01    -0.025 A  
DOCKED: ATOM     25  C   UNL     1     141.003  76.019 222.034 -0.36 -0.00    +0.007 A  
DOCKED: ATOM     26  C   UNL     1     142.152  76.612 220.068 -0.31 -0.00    +0.007 A  
DOCKED: ATOM     27  C   UNL     1     140.531  77.318 222.145 -0.39 -0.01    +0.021 A  
DOCKED: ATOM     28  C   UNL     1     141.679  77.903 220.182 -0.29 -0.01    +0.021 A  
DOCKED: ATOM     29  C   UNL     1     140.869  78.272 221.212 -0.28 -0.02    +0.041 A  
DOCKED: ATOM     30  Cl  UNL     1     140.305  79.930 221.297 -0.28 +0.02    -0.084 Cl 
DOCKED: ENDBRANCH  20  24
DOCKED: ENDBRANCH   1  18
DOCKED: TORSDOF 5
DOCKED: TER
DOCKED: ENDMDL
________________________________________________________________________________


    FINAL DOCKED STATE:
    ________________________


Run:   17 / 20
Time taken for this run:   0.028s

DOCKED: MODEL        17
DOCKED: USER    Run = 17
DOCKED: USER
DOCKED: USER    Estimated Free Energy of Binding    =  -8.84 kcal/mol  [=(1)+(2)+(3)-(4)]
DOCKED: USER
DOCKED: USER    (1) Final Intermolecular Energy     = -10.33 kcal/mol
DOCKED: USER        vdW + Hbond + desolv Energy     = -10.24 kcal/mol
DOCKED: USER        Electrostatic Energy            =  -0.09 kcal/mol
DOCKED: USER        Moving Ligand-Fixed Receptor    = -10.33 kcal/mol
DOCKED: USER        Moving Ligand-Moving Receptor   =  +0.00 kcal/mol
DOCKED: USER    (2) Final Total Internal Energy     =  -1.30 kcal/mol
DOCKED: USER    (3) Torsional Free Energy           =  +1.49 kcal/mol
DOCKED: USER    (4) Unbound System's Energy         =  -1.30 kcal/mol
DOCKED: USER
DOCKED: USER
DOCKED: REMARK SMILES O=C(NCC(=O)N1CCCC[C@H]1c1ccc(Cl)cc1)c1ccc2ccccc2n1
DOCKED: REMARK SMILES IDX 5 1 6 2 4 3 3 4 2 5 1 6 20 8 21 9 29 10 22 11 28 12 23 13
DOCKED: REMARK SMILES IDX 27 14 24 15 26 16 25 17 7 18 8 19 12 20 9 21 11 22 10 23
DOCKED: REMARK SMILES IDX 13 24 14 25 19 26 15 27 18 28 16 29 17 30
DOCKED: REMARK H PARENT 3 7
DOCKED: USER                              x       y       z     vdW  Elec       q    Type
DOCKED: USER                           _______ _______ _______ _____ _____    ______ ____
DOCKED: ROOT
DOCKED: ATOM      1  C   UNL     1     141.003  75.371 221.146 -0.22 -0.07    +0.242 C  
DOCKED: ATOM      2  O   UNL     1     141.435  75.652 222.349 -0.26 +0.07    -0.273 OA 
DOCKED: ENDROOT
DOCKED: BRANCH   1   3
DOCKED: ATOM      3  C   UNL     1     139.887  74.428 221.156 -0.18 -0.04    +0.216 C  
DOCKED: BRANCH   3   4
DOCKED: ATOM      4  N   UNL     1     139.619  73.643 222.298 -0.12 +0.05    -0.342 N  
DOCKED: ATOM      5  C   UNL     1     140.432  72.436 222.443 -0.20 -0.03    +0.270 C  
DOCKED: ATOM      6  O   UNL     1     141.287  72.208 221.547 -0.19 +0.03    -0.268 OA 
DOCKED: ATOM      7  H   UNL     1     138.955  73.780 223.068 -0.54 -0.09    +0.164 HD 
DOCKED: BRANCH   5   8
DOCKED: ATOM      8  C   UNL     1     140.227  71.566 223.588 -0.33 -0.02    +0.128 A  
DOCKED: ATOM      9  C   UNL     1     139.521  70.406 223.385 -0.28 -0.01    +0.035 A  
DOCKED: ATOM     10  N   UNL     1     140.716  71.892 224.806 -0.27 +0.03    -0.243 NA 
DOCKED: ATOM     11  C   UNL     1     139.304  69.550 224.448 -0.34 -0.00    +0.013 A  
DOCKED: ATOM     12  C   UNL     1     140.511  71.060 225.868 -0.54 -0.01    +0.071 A  
DOCKED: ATOM     13  C   UNL     1     139.805  69.881 225.706 -0.47 -0.00    +0.000 A  
DOCKED: ATOM     14  C   UNL     1     140.998  71.371 227.109 -0.71 -0.00    +0.029 A  
DOCKED: ATOM     15  C   UNL     1     139.572  69.004 226.754 -0.54 -0.00    +0.010 A  
DOCKED: ATOM     16  C   UNL     1     140.787  70.526 228.176 -0.62 -0.00    +0.002 A  
DOCKED: ATOM     17  C   UNL     1     140.074  69.346 227.992 -0.64 -0.00    +0.001 A  
DOCKED: ENDBRANCH   5   8
DOCKED: ENDBRANCH   3   4
DOCKED: ENDBRANCH   1   3
DOCKED: BRANCH   1  18
DOCKED: ATOM     18  N   UNL     1     141.669  76.008 220.110 -0.10 +0.15    -0.334 N  
DOCKED: ATOM     19  C   UNL     1     142.039  75.414 218.832 -0.14 -0.05    +0.120 C  
DOCKED: ATOM     20  C   UNL     1     142.022  77.425 220.259 -0.24 -0.07    +0.115 C  
DOCKED: ATOM     21  C   UNL     1     143.221  76.210 218.240 -0.28 -0.01    +0.022 C  
DOCKED: ATOM     22  C   UNL     1     141.732  78.049 218.874 -0.24 -0.02    +0.030 C  
DOCKED: ATOM     23  C   UNL     1     142.881  77.642 217.988 -0.30 -0.00    +0.004 C  
DOCKED: BRANCH  20  24
DOCKED: ATOM     24  C   UNL     1     141.182  78.133 221.265 -0.32 +0.01    -0.025 A  
DOCKED: ATOM     25  C   UNL     1     141.691  78.654 222.436 -0.48 -0.00    +0.007 A  
DOCKED: ATOM     26  C   UNL     1     139.816  78.340 221.050 -0.18 -0.00    +0.007 A  
DOCKED: ATOM     27  C   UNL     1     140.899  79.341 223.344 -0.50 -0.00    +0.021 A  
DOCKED: ATOM     28  C   UNL     1     139.032  79.024 221.956 -0.21 -0.00    +0.021 A  
DOCKED: ATOM     29  C   UNL     1     139.556  79.529 223.106 -0.36 -0.01    +0.041 A  
DOCKED: ATOM     30  Cl  UNL     1     138.503  80.388 224.214 -0.45 +0.01    -0.084 Cl 
DOCKED: ENDBRANCH  20  24
DOCKED: ENDBRANCH   1  18
DOCKED: TORSDOF 5
DOCKED: TER
DOCKED: ENDMDL
________________________________________________________________________________


    FINAL DOCKED STATE:
    ________________________


Run:   18 / 20
Time taken for this run:   0.028s

DOCKED: MODEL        18
DOCKED: USER    Run = 18
DOCKED: USER
DOCKED: USER    Estimated Free Energy of Binding    =  -8.10 kcal/mol  [=(1)+(2)+(3)-(4)]
DOCKED: USER
DOCKED: USER    (1) Final Intermolecular Energy     =  -9.59 kcal/mol
DOCKED: USER        vdW + Hbond + desolv Energy     =  -9.55 kcal/mol
DOCKED: USER        Electrostatic Energy            =  -0.04 kcal/mol
DOCKED: USER        Moving Ligand-Fixed Receptor    =  -9.59 kcal/mol
DOCKED: USER        Moving Ligand-Moving Receptor   =  +0.00 kcal/mol
DOCKED: USER    (2) Final Total Internal Energy     =  -2.05 kcal/mol
DOCKED: USER    (3) Torsional Free Energy           =  +1.49 kcal/mol
DOCKED: USER    (4) Unbound System's Energy         =  -2.05 kcal/mol
DOCKED: USER
DOCKED: USER
DOCKED: REMARK SMILES O=C(NCC(=O)N1CCCC[C@H]1c1ccc(Cl)cc1)c1ccc2ccccc2n1
DOCKED: REMARK SMILES IDX 5 1 6 2 4 3 3 4 2 5 1 6 20 8 21 9 29 10 22 11 28 12 23 13
DOCKED: REMARK SMILES IDX 27 14 24 15 26 16 25 17 7 18 8 19 12 20 9 21 11 22 10 23
DOCKED: REMARK SMILES IDX 13 24 14 25 19 26 15 27 18 28 16 29 17 30
DOCKED: REMARK H PARENT 3 7
DOCKED: USER                              x       y       z     vdW  Elec       q    Type
DOCKED: USER                           _______ _______ _______ _____ _____    ______ ____
DOCKED: ROOT
DOCKED: ATOM      1  C   UNL     1     140.117  73.736 219.950 -0.05 -0.05    +0.242 C  
DOCKED: ATOM      2  O   UNL     1     139.786  74.365 218.852 -0.01 +0.06    -0.273 OA 
DOCKED: ENDROOT
DOCKED: BRANCH   1   3
DOCKED: ATOM      3  C   UNL     1     138.982  73.534 220.848 -0.10 -0.04    +0.216 C  
DOCKED: BRANCH   3   4
DOCKED: ATOM      4  N   UNL     1     139.181  73.073 222.167 -0.12 +0.08    -0.342 N  
DOCKED: ATOM      5  C   UNL     1     139.605  71.680 222.295 -0.18 -0.05    +0.270 C  
DOCKED: ATOM      6  O   UNL     1     139.753  71.024 221.229 -0.08 +0.04    -0.268 OA 
DOCKED: ATOM      7  H   UNL     1     139.096  73.555 223.069 -0.51 -0.08    +0.164 HD 
DOCKED: BRANCH   5   8
DOCKED: ATOM      8  C   UNL     1     139.835  71.117 223.614 -0.31 -0.02    +0.128 A  
DOCKED: ATOM      9  C   UNL     1     139.516  69.796 223.804 -0.27 -0.01    +0.035 A  
DOCKED: ATOM     10  N   UNL     1     140.344  71.873 224.614 -0.27 +0.04    -0.243 NA 
DOCKED: ATOM     11  C   UNL     1     139.719  69.222 225.045 -0.39 -0.00    +0.013 A  
DOCKED: ATOM     12  C   UNL     1     140.551  71.325 225.846 -0.54 -0.01    +0.071 A  
DOCKED: ATOM     13  C   UNL     1     140.243  69.996 226.079 -0.52 -0.00    +0.000 A  
DOCKED: ATOM     14  C   UNL     1     141.065  72.071 226.871 -0.73 -0.01    +0.029 A  
DOCKED: ATOM     15  C   UNL     1     140.436  69.394 227.314 -0.60 -0.00    +0.010 A  
DOCKED: ATOM     16  C   UNL     1     141.272  71.511 228.111 -0.73 -0.00    +0.002 A  
DOCKED: ATOM     17  C   UNL     1     140.955  70.174 228.326 -0.57 -0.00    +0.001 A  
DOCKED: ENDBRANCH   5   8
DOCKED: ENDBRANCH   3   4
DOCKED: ENDBRANCH   1   3
DOCKED: BRANCH   1  18
DOCKED: ATOM     18  N   UNL     1     141.454  73.383 220.054 -0.05 +0.07    -0.334 N  
DOCKED: ATOM     19  C   UNL     1     142.093  72.240 219.417 -0.09 -0.02    +0.120 C  
DOCKED: ATOM     20  C   UNL     1     142.353  74.235 220.842 -0.21 -0.03    +0.115 C  
DOCKED: ATOM     21  C   UNL     1     143.362  71.872 220.217 -0.26 -0.00    +0.022 C  
DOCKED: ATOM     22  C   UNL     1     143.659  74.295 220.015 -0.37 -0.01    +0.030 C  
DOCKED: ATOM     23  C   UNL     1     144.359  72.982 220.252 -0.41 -0.00    +0.004 C  
DOCKED: BRANCH  20  24
DOCKED: ATOM     24  C   UNL     1     141.848  75.627 221.001 -0.21 +0.01    -0.025 A  
DOCKED: ATOM     25  C   UNL     1     141.040  76.018 222.048 -0.35 -0.00    +0.007 A  
DOCKED: ATOM     26  C   UNL     1     142.204  76.634 220.098 -0.32 -0.00    +0.007 A  
DOCKED: ATOM     27  C   UNL     1     140.608  77.327 222.199 -0.40 -0.01    +0.021 A  
DOCKED: ATOM     28  C   UNL     1     141.771  77.935 220.251 -0.30 -0.01    +0.021 A  
DOCKED: ATOM     29  C   UNL     1     140.974  78.298 221.293 -0.29 -0.02    +0.041 A  
DOCKED: ATOM     30  Cl  UNL     1     140.461  79.969 221.428 -0.32 +0.02    -0.084 Cl 
DOCKED: ENDBRANCH  20  24
DOCKED: ENDBRANCH   1  18
DOCKED: TORSDOF 5
DOCKED: TER
DOCKED: ENDMDL
________________________________________________________________________________


    FINAL DOCKED STATE:
    ________________________


Run:   19 / 20
Time taken for this run:   0.028s

DOCKED: MODEL        19
DOCKED: USER    Run = 19
DOCKED: USER
DOCKED: USER    Estimated Free Energy of Binding    =  -7.99 kcal/mol  [=(1)+(2)+(3)-(4)]
DOCKED: USER
DOCKED: USER    (1) Final Intermolecular Energy     =  -9.48 kcal/mol
DOCKED: USER        vdW + Hbond + desolv Energy     =  -9.44 kcal/mol
DOCKED: USER        Electrostatic Energy            =  -0.04 kcal/mol
DOCKED: USER        Moving Ligand-Fixed Receptor    =  -9.48 kcal/mol
DOCKED: USER        Moving Ligand-Moving Receptor   =  +0.00 kcal/mol
DOCKED: USER    (2) Final Total Internal Energy     =  -1.68 kcal/mol
DOCKED: USER    (3) Torsional Free Energy           =  +1.49 kcal/mol
DOCKED: USER    (4) Unbound System's Energy         =  -1.68 kcal/mol
DOCKED: USER
DOCKED: USER
DOCKED: REMARK SMILES O=C(NCC(=O)N1CCCC[C@H]1c1ccc(Cl)cc1)c1ccc2ccccc2n1
DOCKED: REMARK SMILES IDX 5 1 6 2 4 3 3 4 2 5 1 6 20 8 21 9 29 10 22 11 28 12 23 13
DOCKED: REMARK SMILES IDX 27 14 24 15 26 16 25 17 7 18 8 19 12 20 9 21 11 22 10 23
DOCKED: REMARK SMILES IDX 13 24 14 25 19 26 15 27 18 28 16 29 17 30
DOCKED: REMARK H PARENT 3 7
DOCKED: USER                              x       y       z     vdW  Elec       q    Type
DOCKED: USER                           _______ _______ _______ _____ _____    ______ ____
DOCKED: ROOT
DOCKED: ATOM      1  C   UNL     1     136.908  69.423 223.683 -0.14 -0.03    +0.242 C  
DOCKED: ATOM      2  O   UNL     1     136.919  68.201 223.216 -0.07 +0.02    -0.273 OA 
DOCKED: ENDROOT
DOCKED: BRANCH   1   3
DOCKED: ATOM      3  C   UNL     1     136.047  69.570 224.854 -0.16 -0.01    +0.216 C  
DOCKED: BRANCH   3   4
DOCKED: ATOM      4  N   UNL     1     135.463  70.817 225.165 +0.04 +0.02    -0.342 N  
DOCKED: ATOM      5  C   UNL     1     134.320  70.773 226.076 -0.19 -0.01    +0.270 C  
DOCKED: ATOM      6  O   UNL     1     133.964  69.640 226.496 -0.69 -0.00    -0.268 OA 
DOCKED: ATOM      7  H   UNL     1     135.712  71.769 224.873 +0.04 -0.02    +0.164 HD 
DOCKED: BRANCH   5   8
DOCKED: ATOM      8  C   UNL     1     133.653  72.008 226.452 -0.32 -0.01    +0.128 A  
DOCKED: ATOM      9  C   UNL     1     132.480  71.905 227.156 -0.39 -0.01    +0.035 A  
DOCKED: ATOM     10  N   UNL     1     134.176  73.210 226.118 -0.50 -0.01    -0.243 NA 
DOCKED: ATOM     11  C   UNL     1     131.814  73.056 227.534 -0.40 -0.00    +0.013 A  
DOCKED: ATOM     12  C   UNL     1     133.533  74.357 226.481 -0.27 +0.01    +0.071 A  
DOCKED: ATOM     13  C   UNL     1     132.347  74.298 227.192 -0.42 -0.00    +0.000 A  
DOCKED: ATOM     14  C   UNL     1     134.044  75.584 226.154 -0.39 -0.00    +0.029 A  
DOCKED: ATOM     15  C   UNL     1     131.658  75.436 227.584 -0.37 -0.00    +0.010 A  
DOCKED: ATOM     16  C   UNL     1     133.390  76.737 226.524 -0.34 -0.00    +0.002 A  
DOCKED: ATOM     17  C   UNL     1     132.199  76.657 227.237 -0.33 -0.00    +0.001 A  
DOCKED: ENDBRANCH   5   8
DOCKED: ENDBRANCH   3   4
DOCKED: ENDBRANCH   1   3
DOCKED: BRANCH   1  18
DOCKED: ATOM     18  N   UNL     1     137.699  70.331 222.994 -0.06 +0.06    -0.334 N  
DOCKED: ATOM     19  C   UNL     1     137.235  71.309 222.019 -0.09 -0.02    +0.120 C  
DOCKED: ATOM     20  C   UNL     1     139.140  70.366 223.269 -0.23 -0.02    +0.115 C  
DOCKED: ATOM     21  C   UNL     1     138.413  71.683 221.094 -0.09 -0.00    +0.022 C  
DOCKED: ATOM     22  C   UNL     1     139.498  71.871 223.282 -0.26 -0.01    +0.030 C  
DOCKED: ATOM     23  C   UNL     1     139.553  72.296 221.837 -0.24 -0.00    +0.004 C  
DOCKED: BRANCH  20  24
DOCKED: ATOM     24  C   UNL     1     139.494  69.800 224.600 -0.35 +0.00    -0.025 A  
DOCKED: ATOM     25  C   UNL     1     139.541  68.445 224.851 -0.35 -0.00    +0.007 A  
DOCKED: ATOM     26  C   UNL     1     139.840  70.630 225.671 -0.48 -0.00    +0.007 A  
DOCKED: ATOM     27  C   UNL     1     139.908  67.935 226.088 -0.61 -0.00    +0.021 A  
DOCKED: ATOM     28  C   UNL     1     140.203  70.119 226.900 -0.55 -0.00    +0.021 A  
DOCKED: ATOM     29  C   UNL     1     140.242  68.777 227.125 -0.59 -0.01    +0.041 A  
DOCKED: ATOM     30  Cl  UNL     1     140.714  68.195 228.711 -0.65 +0.02    -0.084 Cl 
DOCKED: ENDBRANCH  20  24
DOCKED: ENDBRANCH   1  18
DOCKED: TORSDOF 5
DOCKED: TER
DOCKED: ENDMDL
________________________________________________________________________________


    FINAL DOCKED STATE:
    ________________________


Run:   20 / 20
Time taken for this run:   0.028s

DOCKED: MODEL        20
DOCKED: USER    Run = 20
DOCKED: USER
DOCKED: USER    Estimated Free Energy of Binding    =  -8.07 kcal/mol  [=(1)+(2)+(3)-(4)]
DOCKED: USER
DOCKED: USER    (1) Final Intermolecular Energy     =  -9.56 kcal/mol
DOCKED: USER        vdW + Hbond + desolv Energy     =  -9.53 kcal/mol
DOCKED: USER        Electrostatic Energy            =  -0.03 kcal/mol
DOCKED: USER        Moving Ligand-Fixed Receptor    =  -9.56 kcal/mol
DOCKED: USER        Moving Ligand-Moving Receptor   =  +0.00 kcal/mol
DOCKED: USER    (2) Final Total Internal Energy     =  -2.02 kcal/mol
DOCKED: USER    (3) Torsional Free Energy           =  +1.49 kcal/mol
DOCKED: USER    (4) Unbound System's Energy         =  -2.02 kcal/mol
DOCKED: USER
DOCKED: USER
DOCKED: REMARK SMILES O=C(NCC(=O)N1CCCC[C@H]1c1ccc(Cl)cc1)c1ccc2ccccc2n1
DOCKED: REMARK SMILES IDX 5 1 6 2 4 3 3 4 2 5 1 6 20 8 21 9 29 10 22 11 28 12 23 13
DOCKED: REMARK SMILES IDX 27 14 24 15 26 16 25 17 7 18 8 19 12 20 9 21 11 22 10 23
DOCKED: REMARK SMILES IDX 13 24 14 25 19 26 15 27 18 28 16 29 17 30
DOCKED: REMARK H PARENT 3 7
DOCKED: USER                              x       y       z     vdW  Elec       q    Type
DOCKED: USER                           _______ _______ _______ _____ _____    ______ ____
DOCKED: ROOT
DOCKED: ATOM      1  C   UNL     1     140.230  73.656 219.934 -0.05 -0.05    +0.242 C  
DOCKED: ATOM      2  O   UNL     1     139.836  73.943 218.720 -0.01 +0.06    -0.273 OA 
DOCKED: ENDROOT
DOCKED: BRANCH   1   3
DOCKED: ATOM      3  C   UNL     1     139.135  73.681 220.902 -0.11 -0.04    +0.216 C  
DOCKED: BRANCH   3   4
DOCKED: ATOM      4  N   UNL     1     139.321  73.186 222.211 -0.12 +0.08    -0.342 N  
DOCKED: ATOM      5  C   UNL     1     139.597  71.755 222.315 -0.18 -0.05    +0.270 C  
DOCKED: ATOM      6  O   UNL     1     139.644  71.099 221.241 -0.08 +0.05    -0.268 OA 
DOCKED: ATOM      7  H   UNL     1     139.313  73.665 223.119 -0.51 -0.06    +0.164 HD 
DOCKED: BRANCH   5   8
DOCKED: ATOM      8  C   UNL     1     139.803  71.156 223.623 -0.31 -0.02    +0.128 A  
DOCKED: ATOM      9  C   UNL     1     139.492  69.828 223.768 -0.27 -0.01    +0.035 A  
DOCKED: ATOM     10  N   UNL     1     140.283  71.888 224.655 -0.26 +0.04    -0.243 NA 
DOCKED: ATOM     11  C   UNL     1     139.672  69.220 224.996 -0.39 -0.00    +0.013 A  
DOCKED: ATOM     12  C   UNL     1     140.467  71.306 225.875 -0.53 -0.01    +0.071 A  
DOCKED: ATOM     13  C   UNL     1     140.166  69.969 226.063 -0.51 -0.00    +0.000 A  
DOCKED: ATOM     14  C   UNL     1     140.953  72.027 226.932 -0.71 -0.01    +0.029 A  
DOCKED: ATOM     15  C   UNL     1     140.338  69.333 227.284 -0.60 -0.00    +0.010 A  
DOCKED: ATOM     16  C   UNL     1     141.137  71.433 228.160 -0.75 -0.00    +0.002 A  
DOCKED: ATOM     17  C   UNL     1     140.827  70.088 228.330 -0.57 -0.00    +0.001 A  
DOCKED: ENDBRANCH   5   8
DOCKED: ENDBRANCH   3   4
DOCKED: ENDBRANCH   1   3
DOCKED: BRANCH   1  18
DOCKED: ATOM     18  N   UNL     1     141.583  73.384 220.073 -0.05 +0.07    -0.334 N  
DOCKED: ATOM     19  C   UNL     1     142.301  72.268 219.472 -0.10 -0.02    +0.120 C  
DOCKED: ATOM     20  C   UNL     1     142.413  74.302 220.861 -0.19 -0.03    +0.115 C  
DOCKED: ATOM     21  C   UNL     1     143.571  71.991 220.305 -0.28 -0.00    +0.022 C  
DOCKED: ATOM     22  C   UNL     1     143.731  74.423 220.060 -0.39 -0.01    +0.030 C  
DOCKED: ATOM     23  C   UNL     1     144.501  73.158 220.338 -0.45 -0.00    +0.004 C  
DOCKED: BRANCH  20  24
DOCKED: ATOM     24  C   UNL     1     141.824  75.665 220.981 -0.23 +0.01    -0.025 A  
DOCKED: ATOM     25  C   UNL     1     141.011  76.042 222.029 -0.36 -0.00    +0.007 A  
DOCKED: ATOM     26  C   UNL     1     142.102  76.659 220.038 -0.31 -0.00    +0.007 A  
DOCKED: ATOM     27  C   UNL     1     140.500  77.327 222.142 -0.39 -0.01    +0.021 A  
DOCKED: ATOM     28  C   UNL     1     141.591  77.936 220.154 -0.28 -0.01    +0.021 A  
DOCKED: ATOM     29  C   UNL     1     140.790  78.285 221.198 -0.27 -0.02    +0.041 A  
DOCKED: ATOM     30  Cl  UNL     1     140.176  79.925 221.284 -0.27 +0.02    -0.084 Cl 
DOCKED: ENDBRANCH  20  24
DOCKED: ENDBRANCH   1  18
DOCKED: TORSDOF 5
DOCKED: TER
DOCKED: ENDMDL
________________________________________________________________________________


    CLUSTERING HISTOGRAM
    ____________________


________________________________________________________________________________
     |           |     |           |     |
Clus | Lowest    | Run | Mean      | Num | Histogram
-ter | Binding   |     | Binding   | in  |
Rank | Energy    |     | Energy    | Clus|    5    10   15   20   25   30   35
_____|___________|_____|___________|_____|____:____|____:____|____:____|____:___
   1 |     -8.84 |  17 |     -8.22 |  15 |###############
   2 |     -8.42 |   5 |     -8.38 |   2 |##
   3 |     -8.20 |   2 |     -8.20 |   2 |##
   4 |     -7.99 |  19 |     -7.99 |   1 |#
_____|___________|_____|___________|_____|______________________________________


    RMSD TABLE
    __________


_______________________________________________________________________
     |      |      |           |         |                 |
Rank | Sub- | Run  | Binding   | Cluster | Reference       | Grep
     | Rank |      | Energy    | RMSD    | RMSD            | Pattern
_____|______|______|___________|_________|_________________|___________
   1      1     17       -8.84      0.00    271.61           RANKING
   1      2     11       -8.82      0.10    271.56           RANKING
   1      3     14       -8.81      0.08    271.58           RANKING
   1      4     18       -8.10      1.94    271.22           RANKING
   1      5      8       -8.09      1.95    271.19           RANKING
   1      6      7       -8.09      1.93    271.23           RANKING
   1      7      9       -8.09      1.90    271.25           RANKING
   1      8     16       -8.09      1.94    271.22           RANKING
   1      9     15       -8.09      1.92    271.24           RANKING
   1     10      6       -8.09      1.93    271.24           RANKING
   1     11     12       -8.08      1.91    271.26           RANKING
   1     12     20       -8.07      1.93    271.22           RANKING
   1     13     13       -8.05      1.88    271.29           RANKING
   1     14      4       -8.02      1.89    271.27           RANKING
   1     15     10       -8.01      1.89    271.25           RANKING
   2      1      5       -8.42      0.00    271.29           RANKING
   2      2      1       -8.34      0.41    271.27           RANKING
   3      1      2       -8.20      0.00    271.14           RANKING
   3      2      3       -8.20      0.05    271.15           RANKING
   4      1     19       -7.99      0.00    270.84           RANKING

Run time 0.504 sec
Idle time 0.000 sec
