AutoDock-GPU version: v1.6

**********************************************************
**    AutoDock-GPU AUTODOCKTOOLS-COMPATIBLE DLG FILE    **
**********************************************************


    DOCKING PARAMETERS
    ________________________


Ligand file:                               /home/a/REINVENT4/ReinventStudies/pleaseWork/justmol2mol_4_Compounds_ontop/graph-dock-amy28i/graph-DockGPU/node-autodockgpu/inputs/JNJBSORSMFORKU-WGZAFAOONA-N.pdbqt
Grid fld file:                             /home/a/REINVENT4/ReinventStudies/mols/Rad51/maps/rad51_receptor.maps.fld

Random seed:                               42
Number of runs:                            20
Number of energy evaluations:              1132076
Number of generations:                     42000
Size of population:                        150
Rate of crossover:                         80.000000%
Tournament selection probability limit:    60.000000%
Rate of mutation:                          2.000000%
Maximal allowed delta movement:            +/- 6.000000A
Maximal allowed delta angle:               +/- 90.000000

Rate of local search:                      100.000000%
Maximal number of local search iterations: 300
Rho lower bound:                           0.010000
Spread of local search delta movement:     2.000000A
Spread of local search delta angle:        74.999999
Limit of consecutive successes/failures:   4

Handle symmetry during clustering:         YES
RMSD tolerance:                            2.000000A

Program call in command line was:          /home/a/REINVENT4/ReinventStudies/adgpu-v1.6_linux_x64_cuda12_128wi --filelist batch.txt --heuristics 1 --nrun 20 --psize 150 --lsit 300 --seed 42 --heurmax 12000000 


    GRID PARAMETERS
    ________________________


Receptor name:                             rad51_receptor
Number of grid points (x, y, z):           53, 53, 53
Grid center (x, y, z):                     139.950000, 75.640000, 221.970000A
Grid size (x, y, z):                       19.500000, 19.500000, 19.500000A
Grid spacing:                              0.375000A


    LIGAND PARAMETERS
    ________________________


Ligand name:                               /home/a/REINVENT4/ReinventStudies/pleaseWork/justmol2mol_4_Compounds_ontop/graph-dock-amy28i/graph-DockGPU/node-autodockgpu/inputs/JNJBSORSMFORKU-WGZAFAOONA-N
Number of atoms:                           33
Number of rotatable bonds:                 6
Number of atom types:                      7


    DUMMY DATA (only for ADT-compatibility)
    ________________________


DPF> outlev 1
DPF> ga_run 20
DPF> fld /home/a/REINVENT4/ReinventStudies/mols/Rad51/maps/rad51_receptor.maps.fld
DPF> move /home/a/REINVENT4/ReinventStudies/pleaseWork/justmol2mol_4_Compounds_ontop/graph-dock-amy28i/graph-DockGPU/node-autodockgpu/inputs/JNJBSORSMFORKU-WGZAFAOONA-N.pdbqt


    COUNTER STATES
    ________________________


Number of energy evaluations performed:    672639
Number of generations used:                40


    INPUT LIGAND PDBQT FILE:
    ________________________


INPUT-LIGAND-PDBQT: REMARK SMILES O=C(NCC(=O)N1CCCC[C@H]1c1ccc(C(F)(F)F)cc1)c1ccc2ccccc2n1
INPUT-LIGAND-PDBQT: REMARK SMILES IDX 7 1 8 2 9 3 10 4 11 5 12 6 5 7 6 8 4 9 3 10 2 11 1 12 23 14
INPUT-LIGAND-PDBQT: REMARK SMILES IDX 24 15 32 16 25 17 31 18 26 19 30 20 27 21 29 22 28 23 13 24
INPUT-LIGAND-PDBQT: REMARK SMILES IDX 14 25 22 26 15 27 21 28 16 29 17 30 18 31 19 32 20 33
INPUT-LIGAND-PDBQT: REMARK H PARENT 3 13
INPUT-LIGAND-PDBQT: ROOT
INPUT-LIGAND-PDBQT: ATOM      1  N   UNL     1      -1.457  -1.702  -0.527  1.00  0.00    -0.334 N 
INPUT-LIGAND-PDBQT: ATOM      2  C   UNL     1      -1.676  -2.947   0.177  1.00  0.00     0.120 C 
INPUT-LIGAND-PDBQT: ATOM      3  C   UNL     1      -2.776  -3.784  -0.382  1.00  0.00     0.022 C 
INPUT-LIGAND-PDBQT: ATOM      4  C   UNL     1      -3.903  -2.959  -0.971  1.00  0.00     0.004 C 
INPUT-LIGAND-PDBQT: ATOM      5  C   UNL     1      -3.280  -2.085  -2.004  1.00  0.00     0.030 C 
INPUT-LIGAND-PDBQT: ATOM      6  C   UNL     1      -2.476  -1.027  -1.302  1.00  0.00     0.115 C 
INPUT-LIGAND-PDBQT: ENDROOT
INPUT-LIGAND-PDBQT: BRANCH   1   7
INPUT-LIGAND-PDBQT: ATOM      7  C   UNL     1      -0.173  -1.079  -0.476  1.00  0.00     0.242 C 
INPUT-LIGAND-PDBQT: ATOM      8  O   UNL     1       0.092   0.001  -1.063  1.00  0.00    -0.273 OA
INPUT-LIGAND-PDBQT: BRANCH   7   9
INPUT-LIGAND-PDBQT: ATOM      9  C   UNL     1       0.922  -1.710   0.298  1.00  0.00     0.216 C 
INPUT-LIGAND-PDBQT: BRANCH   9  10
INPUT-LIGAND-PDBQT: ATOM     10  N   UNL     1       2.142  -0.969   0.252  1.00  0.00    -0.342 N 
INPUT-LIGAND-PDBQT: ATOM     11  C   UNL     1       2.212   0.372   0.732  1.00  0.00     0.270 C 
INPUT-LIGAND-PDBQT: ATOM     12  O   UNL     1       1.174   0.934   1.214  1.00  0.00    -0.268 OA
INPUT-LIGAND-PDBQT: ATOM     13  H   UNL     1       3.027  -1.372  -0.131  1.00  0.00     0.164 HD
INPUT-LIGAND-PDBQT: BRANCH  11  14
INPUT-LIGAND-PDBQT: ATOM     14  C   UNL     1       3.478   1.099   0.669  1.00  0.00     0.128 A 
INPUT-LIGAND-PDBQT: ATOM     15  C   UNL     1       3.539   2.397   1.135  1.00  0.00     0.035 A 
INPUT-LIGAND-PDBQT: ATOM     16  N   UNL     1       4.572   0.504   0.160  1.00  0.00    -0.243 NA
INPUT-LIGAND-PDBQT: ATOM     17  C   UNL     1       4.755   3.071   1.066  1.00  0.00     0.013 A 
INPUT-LIGAND-PDBQT: ATOM     18  C   UNL     1       5.757   1.136   0.083  1.00  0.00     0.071 A 
INPUT-LIGAND-PDBQT: ATOM     19  C   UNL     1       5.878   2.440   0.536  1.00  0.00     0.000 A 
INPUT-LIGAND-PDBQT: ATOM     20  C   UNL     1       6.814   0.433  -0.457  1.00  0.00     0.029 A 
INPUT-LIGAND-PDBQT: ATOM     21  C   UNL     1       7.099   3.031   0.434  1.00  0.00     0.010 A 
INPUT-LIGAND-PDBQT: ATOM     22  C   UNL     1       8.049   1.048  -0.553  1.00  0.00     0.002 A 
INPUT-LIGAND-PDBQT: ATOM     23  C   UNL     1       8.182   2.359  -0.101  1.00  0.00     0.001 A 
INPUT-LIGAND-PDBQT: ENDBRANCH  11  14
INPUT-LIGAND-PDBQT: ENDBRANCH   9  10
INPUT-LIGAND-PDBQT: ENDBRANCH   7   9
INPUT-LIGAND-PDBQT: ENDBRANCH   1   7
INPUT-LIGAND-PDBQT: BRANCH   6  24
INPUT-LIGAND-PDBQT: ATOM     24  C   UNL     1      -3.353  -0.138  -0.501  1.00  0.00    -0.025 A 
INPUT-LIGAND-PDBQT: ATOM     25  C   UNL     1      -2.889   0.691   0.498  1.00  0.00     0.006 A 
INPUT-LIGAND-PDBQT: ATOM     26  C   UNL     1      -4.730  -0.091  -0.733  1.00  0.00     0.006 A 
INPUT-LIGAND-PDBQT: ATOM     27  C   UNL     1      -3.724   1.523   1.233  1.00  0.00     0.013 A 
INPUT-LIGAND-PDBQT: ATOM     28  C   UNL     1      -5.566   0.733  -0.007  1.00  0.00     0.013 A 
INPUT-LIGAND-PDBQT: ATOM     29  C   UNL     1      -5.077   1.550   0.984  1.00  0.00     0.056 A 
INPUT-LIGAND-PDBQT: BRANCH  29  30
INPUT-LIGAND-PDBQT: ATOM     30  C   UNL     1      -6.027   2.410   1.727  1.00  0.00     0.416 C 
INPUT-LIGAND-PDBQT: ATOM     31  F   UNL     1      -5.446   2.984   2.837  1.00  0.00    -0.166 F 
INPUT-LIGAND-PDBQT: ATOM     32  F   UNL     1      -7.167   1.684   2.050  1.00  0.00    -0.166 F 
INPUT-LIGAND-PDBQT: ATOM     33  F   UNL     1      -6.406   3.447   0.891  1.00  0.00    -0.166 F 
INPUT-LIGAND-PDBQT: ENDBRANCH  29  30
INPUT-LIGAND-PDBQT: ENDBRANCH   6  24
INPUT-LIGAND-PDBQT: TORSDOF 6


    FINAL DOCKED STATE:
    ________________________


Run:   1 / 20
Time taken for this run:   0.035s

DOCKED: MODEL        1
DOCKED: USER    Run = 1
DOCKED: USER
DOCKED: USER    Estimated Free Energy of Binding    =  -8.49 kcal/mol  [=(1)+(2)+(3)-(4)]
DOCKED: USER
DOCKED: USER    (1) Final Intermolecular Energy     = -10.28 kcal/mol
DOCKED: USER        vdW + Hbond + desolv Energy     = -10.11 kcal/mol
DOCKED: USER        Electrostatic Energy            =  -0.17 kcal/mol
DOCKED: USER        Moving Ligand-Fixed Receptor    = -10.28 kcal/mol
DOCKED: USER        Moving Ligand-Moving Receptor   =  +0.00 kcal/mol
DOCKED: USER    (2) Final Total Internal Energy     =  -1.71 kcal/mol
DOCKED: USER    (3) Torsional Free Energy           =  +1.79 kcal/mol
DOCKED: USER    (4) Unbound System's Energy         =  -1.71 kcal/mol
DOCKED: USER
DOCKED: USER
DOCKED: REMARK SMILES O=C(NCC(=O)N1CCCC[C@H]1c1ccc(C(F)(F)F)cc1)c1ccc2ccccc2n1
DOCKED: REMARK SMILES IDX 7 1 8 2 9 3 10 4 11 5 12 6 5 7 6 8 4 9 3 10 2 11 1 12 23 14
DOCKED: REMARK SMILES IDX 24 15 32 16 25 17 31 18 26 19 30 20 27 21 29 22 28 23 13 24
DOCKED: REMARK SMILES IDX 14 25 22 26 15 27 21 28 16 29 17 30 18 31 19 32 20 33
DOCKED: REMARK H PARENT 3 13
DOCKED: USER                              x       y       z     vdW  Elec       q    Type
DOCKED: USER                           _______ _______ _______ _____ _____    ______ ____
DOCKED: ROOT
DOCKED: ATOM      1  N   UNL     1     139.787  76.391 221.354 -0.11 +0.08    -0.334 N  
DOCKED: ATOM      2  C   UNL     1     140.018  77.099 222.595 -0.23 -0.03    +0.120 C  
DOCKED: ATOM      3  C   UNL     1     140.775  78.374 222.443 -0.43 -0.01    +0.022 C  
DOCKED: ATOM      4  C   UNL     1     141.790  78.327 221.318 -0.35 -0.00    +0.004 C  
DOCKED: ATOM      5  C   UNL     1     141.027  77.975 220.087 -0.22 -0.01    +0.030 C  
DOCKED: ATOM      6  C   UNL     1     140.623  76.530 220.181 -0.15 -0.04    +0.115 C  
DOCKED: ENDROOT
DOCKED: BRANCH   1   7
DOCKED: ATOM      7  C   UNL     1     138.677  75.498 221.247 -0.13 -0.05    +0.242 C  
DOCKED: ATOM      8  O   UNL     1     137.481  75.870 221.363 -0.08 +0.06    -0.273 OA 
DOCKED: BRANCH   7   9
DOCKED: ATOM      9  C   UNL     1     138.912  74.058 220.987 -0.12 -0.05    +0.216 C  
DOCKED: BRANCH   9  10
DOCKED: ATOM     10  N   UNL     1     139.042  73.286 222.182 -0.09 +0.09    -0.342 N  
DOCKED: ATOM     11  C   UNL     1     139.786  72.070 222.199 -0.19 -0.05    +0.270 C  
DOCKED: ATOM     12  O   UNL     1     140.352  71.651 221.136 -0.10 +0.04    -0.268 OA 
DOCKED: ATOM     13  H   UNL     1     138.603  73.575 223.085 -0.53 -0.11    +0.164 HD 
DOCKED: BRANCH  11  14
DOCKED: ATOM     14  C   UNL     1     139.898  71.306 223.440 -0.31 -0.02    +0.128 A  
DOCKED: ATOM     15  C   UNL     1     139.512  69.981 223.458 -0.25 -0.01    +0.035 A  
DOCKED: ATOM     16  N   UNL     1     140.372  71.895 224.553 -0.27 +0.04    -0.243 NA 
DOCKED: ATOM     17  C   UNL     1     139.627  69.272 224.650 -0.34 -0.00    +0.013 A  
DOCKED: ATOM     18  C   UNL     1     140.491  71.229 225.716 -0.53 -0.01    +0.071 A  
DOCKED: ATOM     19  C   UNL     1     140.121  69.897 225.794 -0.49 -0.00    +0.000 A  
DOCKED: ATOM     20  C   UNL     1     140.989  71.929 226.796 -0.72 -0.00    +0.029 A  
DOCKED: ATOM     21  C   UNL     1     140.262  69.273 226.994 -0.57 -0.00    +0.010 A  
DOCKED: ATOM     22  C   UNL     1     141.127  71.280 228.009 -0.74 -0.00    +0.002 A  
DOCKED: ATOM     23  C   UNL     1     140.757  69.940 228.099 -0.61 -0.00    +0.001 A  
DOCKED: ENDBRANCH  11  14
DOCKED: ENDBRANCH   9  10
DOCKED: ENDBRANCH   7   9
DOCKED: ENDBRANCH   1   7
DOCKED: BRANCH   6  24
DOCKED: ATOM     24  C   UNL     1     141.814  75.645 220.181 -0.26 +0.01    -0.025 A  
DOCKED: ATOM     25  C   UNL     1     141.877  74.453 220.870 -0.29 -0.00    +0.006 A  
DOCKED: ATOM     26  C   UNL     1     142.959  75.984 219.455 -0.36 -0.00    +0.006 A  
DOCKED: ATOM     27  C   UNL     1     142.998  73.633 220.852 -0.26 -0.00    +0.013 A  
DOCKED: ATOM     28  C   UNL     1     144.076  75.174 219.432 -0.26 -0.01    +0.013 A  
DOCKED: ATOM     29  C   UNL     1     144.113  73.990 220.129 -0.39 -0.02    +0.056 A  
DOCKED: BRANCH  29  30
DOCKED: ATOM     30  C   UNL     1     145.343  73.167 220.064 -0.25 +0.00    +0.416 C  
DOCKED: ATOM     31  F   UNL     1     145.069  71.819 220.156 -0.10 -0.00    -0.166 F  
DOCKED: ATOM     32  F   UNL     1     146.242  73.585 221.037 -0.29 +0.01    -0.166 F  
DOCKED: ATOM     33  F   UNL     1     145.929  73.374 218.826 -0.11 -0.07    -0.166 F  
DOCKED: ENDBRANCH  29  30
DOCKED: ENDBRANCH   6  24
DOCKED: TORSDOF 6
DOCKED: TER
DOCKED: ENDMDL
________________________________________________________________________________


    FINAL DOCKED STATE:
    ________________________


Run:   2 / 20
Time taken for this run:   0.035s

DOCKED: MODEL        2
DOCKED: USER    Run = 2
DOCKED: USER
DOCKED: USER    Estimated Free Energy of Binding    =  -7.31 kcal/mol  [=(1)+(2)+(3)-(4)]
DOCKED: USER
DOCKED: USER    (1) Final Intermolecular Energy     =  -9.10 kcal/mol
DOCKED: USER        vdW + Hbond + desolv Energy     =  -9.10 kcal/mol
DOCKED: USER        Electrostatic Energy            =  -0.00 kcal/mol
DOCKED: USER        Moving Ligand-Fixed Receptor    =  -9.10 kcal/mol
DOCKED: USER        Moving Ligand-Moving Receptor   =  +0.00 kcal/mol
DOCKED: USER    (2) Final Total Internal Energy     =  -2.12 kcal/mol
DOCKED: USER    (3) Torsional Free Energy           =  +1.79 kcal/mol
DOCKED: USER    (4) Unbound System's Energy         =  -2.12 kcal/mol
DOCKED: USER
DOCKED: USER
DOCKED: REMARK SMILES O=C(NCC(=O)N1CCCC[C@H]1c1ccc(C(F)(F)F)cc1)c1ccc2ccccc2n1
DOCKED: REMARK SMILES IDX 7 1 8 2 9 3 10 4 11 5 12 6 5 7 6 8 4 9 3 10 2 11 1 12 23 14
DOCKED: REMARK SMILES IDX 24 15 32 16 25 17 31 18 26 19 30 20 27 21 29 22 28 23 13 24
DOCKED: REMARK SMILES IDX 14 25 22 26 15 27 21 28 16 29 17 30 18 31 19 32 20 33
DOCKED: REMARK H PARENT 3 13
DOCKED: USER                              x       y       z     vdW  Elec       q    Type
DOCKED: USER                           _______ _______ _______ _____ _____    ______ ____
DOCKED: ROOT
DOCKED: ATOM      1  N   UNL     1     137.160  75.183 221.907 -0.08 +0.08    -0.334 N  
DOCKED: ATOM      2  C   UNL     1     136.383  75.174 220.687 -0.04 -0.02    +0.120 C  
DOCKED: ATOM      3  C   UNL     1     135.466  76.340 220.533 -0.03 -0.00    +0.022 C  
DOCKED: ATOM      4  C   UNL     1     134.920  76.839 221.856 -0.07 -0.00    +0.004 C  
DOCKED: ATOM      5  C   UNL     1     136.105  77.162 222.698 -0.18 -0.00    +0.030 C  
DOCKED: ATOM      6  C   UNL     1     136.753  75.871 223.114 -0.21 -0.03    +0.115 C  
DOCKED: ENDROOT
DOCKED: BRANCH   1   7
DOCKED: ATOM      7  C   UNL     1     138.405  74.486 221.956 -0.11 -0.07    +0.242 C  
DOCKED: ATOM      8  O   UNL     1     139.498  75.047 222.221 -0.60 +0.04    -0.273 OA 
DOCKED: BRANCH   7   9
DOCKED: ATOM      9  C   UNL     1     138.444  73.029 221.687 -0.12 -0.05    +0.216 C  
DOCKED: BRANCH   9  10
DOCKED: ATOM     10  N   UNL     1     138.873  72.261 222.813 -0.07 +0.11    -0.342 N  
DOCKED: ATOM     11  C   UNL     1     138.513  70.888 222.952 -0.14 -0.06    +0.270 C  
DOCKED: ATOM     12  O   UNL     1     137.795  70.321 222.064 -0.05 +0.05    -0.268 OA 
DOCKED: ATOM     13  H   UNL     1     139.462  72.666 223.574 -0.30 -0.06    +0.164 HD 
DOCKED: BRANCH  11  14
DOCKED: ATOM     14  C   UNL     1     138.970  70.134 224.117 -0.26 -0.02    +0.128 A  
DOCKED: ATOM     15  C   UNL     1     138.767  68.769 224.164 -0.32 -0.00    +0.035 A  
DOCKED: ATOM     16  N   UNL     1     139.583  70.769 225.133 -0.26 +0.04    -0.243 NA 
DOCKED: ATOM     17  C   UNL     1     139.211  68.070 225.283 -0.46 -0.00    +0.013 A  
DOCKED: ATOM     18  C   UNL     1     140.020  70.114 226.223 -0.47 -0.01    +0.071 A  
DOCKED: ATOM     19  C   UNL     1     139.844  68.743 226.326 -0.56 -0.00    +0.000 A  
DOCKED: ATOM     20  C   UNL     1     140.635  70.862 227.206 -0.65 -0.00    +0.029 A  
DOCKED: ATOM     21  C   UNL     1     140.305  68.132 227.450 -0.66 -0.00    +0.010 A  
DOCKED: ATOM     22  C   UNL     1     141.098  70.226 228.343 -0.55 -0.00    +0.002 A  
DOCKED: ATOM     23  C   UNL     1     140.926  68.848 228.456 -0.63 -0.00    +0.001 A  
DOCKED: ENDBRANCH  11  14
DOCKED: ENDBRANCH   9  10
DOCKED: ENDBRANCH   7   9
DOCKED: ENDBRANCH   1   7
DOCKED: BRANCH   6  24
DOCKED: ATOM     24  C   UNL     1     135.848  75.080 223.984 -0.27 +0.01    -0.025 A  
DOCKED: ATOM     25  C   UNL     1     135.112  75.625 225.014 -0.36 -0.00    +0.006 A  
DOCKED: ATOM     26  C   UNL     1     135.687  73.706 223.789 -0.20 -0.00    +0.006 A  
DOCKED: ATOM     27  C   UNL     1     134.264  74.870 225.814 -0.38 +0.00    +0.013 A  
DOCKED: ATOM     28  C   UNL     1     134.846  72.949 224.579 -0.24 -0.00    +0.013 A  
DOCKED: ATOM     29  C   UNL     1     134.124  73.518 225.600 -0.29 -0.00    +0.056 A  
DOCKED: BRANCH  29  30
DOCKED: ATOM     30  C   UNL     1     133.239  72.650 226.412 -0.16 -0.02    +0.416 C  
DOCKED: ATOM     31  F   UNL     1     132.498  71.791 225.630 -0.03 +0.02    -0.166 F  
DOCKED: ATOM     32  F   UNL     1     132.437  73.432 227.234 -0.15 +0.02    -0.166 F  
DOCKED: ATOM     33  F   UNL     1     134.041  71.865 227.223 -0.18 +0.01    -0.166 F  
DOCKED: ENDBRANCH  29  30
DOCKED: ENDBRANCH   6  24
DOCKED: TORSDOF 6
DOCKED: TER
DOCKED: ENDMDL
________________________________________________________________________________


    FINAL DOCKED STATE:
    ________________________


Run:   3 / 20
Time taken for this run:   0.035s

DOCKED: MODEL        3
DOCKED: USER    Run = 3
DOCKED: USER
DOCKED: USER    Estimated Free Energy of Binding    =  -8.13 kcal/mol  [=(1)+(2)+(3)-(4)]
DOCKED: USER
DOCKED: USER    (1) Final Intermolecular Energy     =  -9.92 kcal/mol
DOCKED: USER        vdW + Hbond + desolv Energy     =  -9.83 kcal/mol
DOCKED: USER        Electrostatic Energy            =  -0.09 kcal/mol
DOCKED: USER        Moving Ligand-Fixed Receptor    =  -9.92 kcal/mol
DOCKED: USER        Moving Ligand-Moving Receptor   =  +0.00 kcal/mol
DOCKED: USER    (2) Final Total Internal Energy     =  -1.90 kcal/mol
DOCKED: USER    (3) Torsional Free Energy           =  +1.79 kcal/mol
DOCKED: USER    (4) Unbound System's Energy         =  -1.90 kcal/mol
DOCKED: USER
DOCKED: USER
DOCKED: REMARK SMILES O=C(NCC(=O)N1CCCC[C@H]1c1ccc(C(F)(F)F)cc1)c1ccc2ccccc2n1
DOCKED: REMARK SMILES IDX 7 1 8 2 9 3 10 4 11 5 12 6 5 7 6 8 4 9 3 10 2 11 1 12 23 14
DOCKED: REMARK SMILES IDX 24 15 32 16 25 17 31 18 26 19 30 20 27 21 29 22 28 23 13 24
DOCKED: REMARK SMILES IDX 14 25 22 26 15 27 21 28 16 29 17 30 18 31 19 32 20 33
DOCKED: REMARK H PARENT 3 13
DOCKED: USER                              x       y       z     vdW  Elec       q    Type
DOCKED: USER                           _______ _______ _______ _____ _____    ______ ____
DOCKED: ROOT
DOCKED: ATOM      1  N   UNL     1     139.709  75.581 220.473 -0.04 +0.08    -0.334 N  
DOCKED: ATOM      2  C   UNL     1     138.339  75.833 220.078 -0.05 -0.03    +0.120 C  
DOCKED: ATOM      3  C   UNL     1     138.196  76.522 218.764 -0.02 -0.00    +0.022 C  
DOCKED: ATOM      4  C   UNL     1     139.329  77.487 218.477 -0.04 -0.00    +0.004 C  
DOCKED: ATOM      5  C   UNL     1     140.583  76.689 218.560 -0.08 -0.01    +0.030 C  
DOCKED: ATOM      6  C   UNL     1     140.836  76.358 220.004 -0.15 -0.04    +0.115 C  
DOCKED: ENDROOT
DOCKED: BRANCH   1   7
DOCKED: ATOM      7  C   UNL     1     139.998  74.511 221.374 -0.20 -0.04    +0.242 C  
DOCKED: ATOM      8  O   UNL     1     141.068  74.433 222.029 -0.61 +0.00    -0.273 OA 
DOCKED: BRANCH   7   9
DOCKED: ATOM      9  C   UNL     1     139.009  73.425 221.569 -0.15 -0.05    +0.216 C  
DOCKED: BRANCH   9  10
DOCKED: ATOM     10  N   UNL     1     139.275  72.624 222.721 -0.09 +0.09    -0.342 N  
DOCKED: ATOM     11  C   UNL     1     138.991  71.226 222.733 -0.16 -0.06    +0.270 C  
DOCKED: ATOM     12  O   UNL     1     138.490  70.667 221.702 -0.06 +0.05    -0.268 OA 
DOCKED: ATOM     13  H   UNL     1     139.684  73.022 223.597 -0.34 -0.05    +0.164 HD 
DOCKED: BRANCH  11  14
DOCKED: ATOM     14  C   UNL     1     139.276  70.439 223.930 -0.27 -0.02    +0.128 A  
DOCKED: ATOM     15  C   UNL     1     138.921  69.105 223.965 -0.29 -0.01    +0.035 A  
DOCKED: ATOM     16  N   UNL     1     139.880  71.013 224.986 -0.29 +0.04    -0.243 NA 
DOCKED: ATOM     17  C   UNL     1     139.203  68.373 225.115 -0.44 -0.00    +0.013 A  
DOCKED: ATOM     18  C   UNL     1     140.161  70.326 226.107 -0.48 -0.01    +0.071 A  
DOCKED: ATOM     19  C   UNL     1     139.828  68.984 226.200 -0.52 -0.00    +0.000 A  
DOCKED: ATOM     20  C   UNL     1     140.782  71.012 227.130 -0.67 -0.00    +0.029 A  
DOCKED: ATOM     21  C   UNL     1     140.136  68.337 227.357 -0.65 -0.00    +0.010 A  
DOCKED: ATOM     22  C   UNL     1     141.088  70.340 228.300 -0.56 -0.00    +0.002 A  
DOCKED: ATOM     23  C   UNL     1     140.757  68.991 228.404 -0.63 -0.00    +0.001 A  
DOCKED: ENDBRANCH  11  14
DOCKED: ENDBRANCH   9  10
DOCKED: ENDBRANCH   7   9
DOCKED: ENDBRANCH   1   7
DOCKED: BRANCH   6  24
DOCKED: ATOM     24  C   UNL     1     141.091  77.588 220.793 -0.27 +0.01    -0.025 A  
DOCKED: ATOM     25  C   UNL     1     141.593  78.752 220.250 -0.29 -0.00    +0.006 A  
DOCKED: ATOM     26  C   UNL     1     140.819  77.630 222.163 -0.41 -0.00    +0.006 A  
DOCKED: ATOM     27  C   UNL     1     141.818  79.897 221.003 -0.37 -0.01    +0.013 A  
DOCKED: ATOM     28  C   UNL     1     141.040  78.764 222.918 -0.49 -0.00    +0.013 A  
DOCKED: ATOM     29  C   UNL     1     141.541  79.911 222.351 -0.45 -0.02    +0.056 A  
DOCKED: BRANCH  29  30
DOCKED: ATOM     30  C   UNL     1     141.757  81.094 223.216 -0.27 -0.07    +0.416 C  
DOCKED: ATOM     31  F   UNL     1     140.797  81.198 224.200 -0.11 +0.01    -0.166 F  
DOCKED: ATOM     32  F   UNL     1     141.831  82.242 222.436 -0.15 +0.02    -0.166 F  
DOCKED: ATOM     33  F   UNL     1     142.973  80.937 223.858 -0.24 +0.03    -0.166 F  
DOCKED: ENDBRANCH  29  30
DOCKED: ENDBRANCH   6  24
DOCKED: TORSDOF 6
DOCKED: TER
DOCKED: ENDMDL
________________________________________________________________________________


    FINAL DOCKED STATE:
    ________________________


Run:   4 / 20
Time taken for this run:   0.035s

DOCKED: MODEL        4
DOCKED: USER    Run = 4
DOCKED: USER
DOCKED: USER    Estimated Free Energy of Binding    =  -8.34 kcal/mol  [=(1)+(2)+(3)-(4)]
DOCKED: USER
DOCKED: USER    (1) Final Intermolecular Energy     = -10.13 kcal/mol
DOCKED: USER        vdW + Hbond + desolv Energy     = -10.04 kcal/mol
DOCKED: USER        Electrostatic Energy            =  -0.09 kcal/mol
DOCKED: USER        Moving Ligand-Fixed Receptor    = -10.13 kcal/mol
DOCKED: USER        Moving Ligand-Moving Receptor   =  +0.00 kcal/mol
DOCKED: USER    (2) Final Total Internal Energy     =  -1.79 kcal/mol
DOCKED: USER    (3) Torsional Free Energy           =  +1.79 kcal/mol
DOCKED: USER    (4) Unbound System's Energy         =  -1.79 kcal/mol
DOCKED: USER
DOCKED: USER
DOCKED: REMARK SMILES O=C(NCC(=O)N1CCCC[C@H]1c1ccc(C(F)(F)F)cc1)c1ccc2ccccc2n1
DOCKED: REMARK SMILES IDX 7 1 8 2 9 3 10 4 11 5 12 6 5 7 6 8 4 9 3 10 2 11 1 12 23 14
DOCKED: REMARK SMILES IDX 24 15 32 16 25 17 31 18 26 19 30 20 27 21 29 22 28 23 13 24
DOCKED: REMARK SMILES IDX 14 25 22 26 15 27 21 28 16 29 17 30 18 31 19 32 20 33
DOCKED: REMARK H PARENT 3 13
DOCKED: USER                              x       y       z     vdW  Elec       q    Type
DOCKED: USER                           _______ _______ _______ _____ _____    ______ ____
DOCKED: ROOT
DOCKED: ATOM      1  N   UNL     1     138.717  75.606 221.691 -0.12 +0.08    -0.334 N  
DOCKED: ATOM      2  C   UNL     1     137.524  75.841 222.475 -0.21 -0.03    +0.120 C  
DOCKED: ATOM      3  C   UNL     1     136.568  76.809 221.865 -0.14 -0.00    +0.022 C  
DOCKED: ATOM      4  C   UNL     1     137.259  77.897 221.068 -0.09 -0.00    +0.004 C  
DOCKED: ATOM      5  C   UNL     1     138.084  77.198 220.043 -0.05 -0.01    +0.030 C  
DOCKED: ATOM      6  C   UNL     1     139.251  76.554 220.737 -0.12 -0.03    +0.115 C  
DOCKED: ENDROOT
DOCKED: BRANCH   1   7
DOCKED: ATOM      7  C   UNL     1     139.429  74.378 221.842 -0.18 -0.05    +0.242 C  
DOCKED: ATOM      8  O   UNL     1     140.678  74.318 221.973 -0.76 +0.01    -0.273 OA 
DOCKED: BRANCH   7   9
DOCKED: ATOM      9  C   UNL     1     138.691  73.093 221.847 -0.13 -0.06    +0.216 C  
DOCKED: BRANCH   9  10
DOCKED: ATOM     10  N   UNL     1     139.044  72.247 222.942 -0.07 +0.10    -0.342 N  
DOCKED: ATOM     11  C   UNL     1     138.756  70.850 222.921 -0.15 -0.06    +0.270 C  
DOCKED: ATOM     12  O   UNL     1     138.172  70.333 221.913 -0.05 +0.05    -0.268 OA 
DOCKED: ATOM     13  H   UNL     1     139.524  72.609 223.797 -0.25 -0.06    +0.164 HD 
DOCKED: BRANCH  11  14
DOCKED: ATOM     14  C   UNL     1     139.133  70.015 224.059 -0.26 -0.02    +0.128 A  
DOCKED: ATOM     15  C   UNL     1     138.866  68.661 224.026 -0.31 -0.00    +0.035 A  
DOCKED: ATOM     16  N   UNL     1     139.735  70.566 225.129 -0.26 +0.04    -0.243 NA 
DOCKED: ATOM     17  C   UNL     1     139.234  67.884 225.121 -0.41 -0.00    +0.013 A  
DOCKED: ATOM     18  C   UNL     1     140.099  69.835 226.198 -0.46 -0.01    +0.071 A  
DOCKED: ATOM     19  C   UNL     1     139.856  68.471 226.220 -0.58 -0.00    +0.000 A  
DOCKED: ATOM     20  C   UNL     1     140.710  70.501 227.240 -0.61 -0.00    +0.029 A  
DOCKED: ATOM     21  C   UNL     1     140.245  67.780 227.326 -0.60 -0.00    +0.010 A  
DOCKED: ATOM     22  C   UNL     1     141.099  69.784 228.357 -0.55 -0.00    +0.002 A  
DOCKED: ATOM     23  C   UNL     1     140.860  68.412 228.390 -0.66 -0.00    +0.001 A  
DOCKED: ENDBRANCH  11  14
DOCKED: ENDBRANCH   9  10
DOCKED: ENDBRANCH   7   9
DOCKED: ENDBRANCH   1   7
DOCKED: BRANCH   6  24
DOCKED: ATOM     24  C   UNL     1     140.142  77.577 221.337 -0.25 +0.01    -0.025 A  
DOCKED: ATOM     25  C   UNL     1     141.019  78.348 220.605 -0.26 -0.00    +0.006 A  
DOCKED: ATOM     26  C   UNL     1     140.127  77.822 222.713 -0.38 -0.00    +0.006 A  
DOCKED: ATOM     27  C   UNL     1     141.840  79.307 221.183 -0.37 -0.01    +0.013 A  
DOCKED: ATOM     28  C   UNL     1     140.940  78.773 223.295 -0.50 -0.00    +0.013 A  
DOCKED: ATOM     29  C   UNL     1     141.807  79.528 222.541 -0.49 -0.02    +0.056 A  
DOCKED: BRANCH  29  30
DOCKED: ATOM     30  C   UNL     1     142.653  80.532 223.226 -0.32 -0.11    +0.416 C  
DOCKED: ATOM     31  F   UNL     1     143.956  80.503 222.778 -0.18 +0.05    -0.166 F  
DOCKED: ATOM     32  F   UNL     1     142.569  80.359 224.603 -0.11 +0.03    -0.166 F  
DOCKED: ATOM     33  F   UNL     1     142.153  81.788 222.924 -0.16 +0.02    -0.166 F  
DOCKED: ENDBRANCH  29  30
DOCKED: ENDBRANCH   6  24
DOCKED: TORSDOF 6
DOCKED: TER
DOCKED: ENDMDL
________________________________________________________________________________


    FINAL DOCKED STATE:
    ________________________


Run:   5 / 20
Time taken for this run:   0.035s

DOCKED: MODEL        5
DOCKED: USER    Run = 5
DOCKED: USER
DOCKED: USER    Estimated Free Energy of Binding    =  -8.27 kcal/mol  [=(1)+(2)+(3)-(4)]
DOCKED: USER
DOCKED: USER    (1) Final Intermolecular Energy     = -10.06 kcal/mol
DOCKED: USER        vdW + Hbond + desolv Energy     = -10.03 kcal/mol
DOCKED: USER        Electrostatic Energy            =  -0.04 kcal/mol
DOCKED: USER        Moving Ligand-Fixed Receptor    = -10.06 kcal/mol
DOCKED: USER        Moving Ligand-Moving Receptor   =  +0.00 kcal/mol
DOCKED: USER    (2) Final Total Internal Energy     =  -2.06 kcal/mol
DOCKED: USER    (3) Torsional Free Energy           =  +1.79 kcal/mol
DOCKED: USER    (4) Unbound System's Energy         =  -2.06 kcal/mol
DOCKED: USER
DOCKED: USER
DOCKED: REMARK SMILES O=C(NCC(=O)N1CCCC[C@H]1c1ccc(C(F)(F)F)cc1)c1ccc2ccccc2n1
DOCKED: REMARK SMILES IDX 7 1 8 2 9 3 10 4 11 5 12 6 5 7 6 8 4 9 3 10 2 11 1 12 23 14
DOCKED: REMARK SMILES IDX 24 15 32 16 25 17 31 18 26 19 30 20 27 21 29 22 28 23 13 24
DOCKED: REMARK SMILES IDX 14 25 22 26 15 27 21 28 16 29 17 30 18 31 19 32 20 33
DOCKED: REMARK H PARENT 3 13
DOCKED: USER                              x       y       z     vdW  Elec       q    Type
DOCKED: USER                           _______ _______ _______ _____ _____    ______ ____
DOCKED: ROOT
DOCKED: ATOM      1  N   UNL     1     139.438  71.431 222.290 -0.10 +0.06    -0.334 N  
DOCKED: ATOM      2  C   UNL     1     139.926  70.460 221.335 -0.12 -0.02    +0.120 C  
DOCKED: ATOM      3  C   UNL     1     139.022  69.292 221.130 -0.12 -0.00    +0.022 C  
DOCKED: ATOM      4  C   UNL     1     138.263  68.907 222.385 -0.19 -0.00    +0.004 C  
DOCKED: ATOM      5  C   UNL     1     137.520  70.127 222.809 -0.16 -0.01    +0.030 C  
DOCKED: ATOM      6  C   UNL     1     138.511  71.115 223.355 -0.23 -0.03    +0.115 C  
DOCKED: ENDROOT
DOCKED: BRANCH   1   7
DOCKED: ATOM      7  C   UNL     1     139.876  72.788 222.203 -0.20 -0.04    +0.242 C  
DOCKED: ATOM      8  O   UNL     1     141.078  73.133 222.333 -0.55 -0.01    -0.273 OA 
DOCKED: BRANCH   7   9
DOCKED: ATOM      9  C   UNL     1     138.891  73.865 221.948 -0.13 -0.06    +0.216 C  
DOCKED: BRANCH   9  10
DOCKED: ATOM     10  N   UNL     1     139.402  75.170 222.222 -0.16 +0.06    -0.342 N  
DOCKED: ATOM     11  C   UNL     1     138.528  76.279 222.426 -0.19 -0.06    +0.270 C  
DOCKED: ATOM     12  O   UNL     1     137.265  76.118 222.365 -0.17 +0.06    -0.268 OA 
DOCKED: ATOM     13  H   UNL     1     140.426  75.368 222.285 +0.04 -0.01    +0.164 HD 
DOCKED: BRANCH  11  14
DOCKED: ATOM     14  C   UNL     1     139.087  77.600 222.705 -0.25 -0.02    +0.128 A  
DOCKED: ATOM     15  C   UNL     1     138.236  78.668 222.907 -0.25 -0.01    +0.035 A  
DOCKED: ATOM     16  N   UNL     1     140.421  77.768 222.763 -0.24 +0.06    -0.243 NA 
DOCKED: ATOM     17  C   UNL     1     138.790  79.917 223.172 -0.34 -0.00    +0.013 A  
DOCKED: ATOM     18  C   UNL     1     140.978  78.966 223.018 -0.45 -0.02    +0.071 A  
DOCKED: ATOM     19  C   UNL     1     140.173  80.074 223.229 -0.43 -0.00    +0.000 A  
DOCKED: ATOM     20  C   UNL     1     142.355  79.027 223.054 -0.53 -0.01    +0.029 A  
DOCKED: ATOM     21  C   UNL     1     140.789  81.261 223.481 -0.41 -0.00    +0.010 A  
DOCKED: ATOM     22  C   UNL     1     142.966  80.241 223.313 -0.66 -0.00    +0.002 A  
DOCKED: ATOM     23  C   UNL     1     142.166  81.362 223.527 -0.60 -0.00    +0.001 A  
DOCKED: ENDBRANCH  11  14
DOCKED: ENDBRANCH   9  10
DOCKED: ENDBRANCH   7   9
DOCKED: ENDBRANCH   1   7
DOCKED: BRANCH   6  24
DOCKED: ATOM     24  C   UNL     1     139.159  70.593 224.584 -0.37 +0.00    -0.025 A  
DOCKED: ATOM     25  C   UNL     1     140.355  71.070 225.075 -0.52 -0.00    +0.006 A  
DOCKED: ATOM     26  C   UNL     1     138.566  69.569 225.327 -0.37 -0.00    +0.006 A  
DOCKED: ATOM     27  C   UNL     1     140.944  70.574 226.232 -0.59 -0.00    +0.013 A  
DOCKED: ATOM     28  C   UNL     1     139.144  69.072 226.478 -0.47 -0.00    +0.013 A  
DOCKED: ATOM     29  C   UNL     1     140.338  69.565 226.946 -0.53 -0.01    +0.056 A  
DOCKED: BRANCH  29  30
DOCKED: ATOM     30  C   UNL     1     140.907  68.988 228.186 -0.26 -0.09    +0.416 C  
DOCKED: ATOM     31  F   UNL     1     141.808  69.839 228.787 -0.10 +0.04    -0.166 F  
DOCKED: ATOM     32  F   UNL     1     141.463  67.744 227.915 -0.20 +0.05    -0.166 F  
DOCKED: ATOM     33  F   UNL     1     139.869  68.803 229.084 -0.17 +0.03    -0.166 F  
DOCKED: ENDBRANCH  29  30
DOCKED: ENDBRANCH   6  24
DOCKED: TORSDOF 6
DOCKED: TER
DOCKED: ENDMDL
________________________________________________________________________________


    FINAL DOCKED STATE:
    ________________________


Run:   6 / 20
Time taken for this run:   0.035s

DOCKED: MODEL        6
DOCKED: USER    Run = 6
DOCKED: USER
DOCKED: USER    Estimated Free Energy of Binding    =  -7.95 kcal/mol  [=(1)+(2)+(3)-(4)]
DOCKED: USER
DOCKED: USER    (1) Final Intermolecular Energy     =  -9.74 kcal/mol
DOCKED: USER        vdW + Hbond + desolv Energy     =  -9.57 kcal/mol
DOCKED: USER        Electrostatic Energy            =  -0.18 kcal/mol
DOCKED: USER        Moving Ligand-Fixed Receptor    =  -9.74 kcal/mol
DOCKED: USER        Moving Ligand-Moving Receptor   =  +0.00 kcal/mol
DOCKED: USER    (2) Final Total Internal Energy     =  -1.93 kcal/mol
DOCKED: USER    (3) Torsional Free Energy           =  +1.79 kcal/mol
DOCKED: USER    (4) Unbound System's Energy         =  -1.93 kcal/mol
DOCKED: USER
DOCKED: USER
DOCKED: REMARK SMILES O=C(NCC(=O)N1CCCC[C@H]1c1ccc(C(F)(F)F)cc1)c1ccc2ccccc2n1
DOCKED: REMARK SMILES IDX 7 1 8 2 9 3 10 4 11 5 12 6 5 7 6 8 4 9 3 10 2 11 1 12 23 14
DOCKED: REMARK SMILES IDX 24 15 32 16 25 17 31 18 26 19 30 20 27 21 29 22 28 23 13 24
DOCKED: REMARK SMILES IDX 14 25 22 26 15 27 21 28 16 29 17 30 18 31 19 32 20 33
DOCKED: REMARK H PARENT 3 13
DOCKED: USER                              x       y       z     vdW  Elec       q    Type
DOCKED: USER                           _______ _______ _______ _____ _____    ______ ____
DOCKED: ROOT
DOCKED: ATOM      1  N   UNL     1     140.484  76.594 220.988 -0.10 +0.11    -0.334 N  
DOCKED: ATOM      2  C   UNL     1     141.035  77.715 221.719 -0.32 -0.05    +0.120 C  
DOCKED: ATOM      3  C   UNL     1     141.528  78.828 220.858 -0.32 -0.01    +0.022 C  
DOCKED: ATOM      4  C   UNL     1     142.094  78.344 219.537 -0.23 -0.00    +0.004 C  
DOCKED: ATOM      5  C   UNL     1     141.007  77.565 218.882 -0.14 -0.01    +0.030 C  
DOCKED: ATOM      6  C   UNL     1     140.845  76.268 219.625 -0.12 -0.04    +0.115 C  
DOCKED: ENDROOT
DOCKED: BRANCH   1   7
DOCKED: ATOM      7  C   UNL     1     139.526  75.743 221.618 -0.21 -0.05    +0.242 C  
DOCKED: ATOM      8  O   UNL     1     138.655  76.163 222.422 -0.25 +0.06    -0.273 OA 
DOCKED: BRANCH   7   9
DOCKED: ATOM      9  C   UNL     1     139.532  74.289 221.332 -0.18 -0.04    +0.216 C  
DOCKED: BRANCH   9  10
DOCKED: ATOM     10  N   UNL     1     139.616  73.485 222.510 -0.00 +0.06    -0.342 N  
DOCKED: ATOM     11  C   UNL     1     139.868  72.083 222.432 -0.20 -0.04    +0.270 C  
DOCKED: ATOM     12  O   UNL     1     140.023  71.523 221.298 -0.10 +0.04    -0.268 OA 
DOCKED: ATOM     13  H   UNL     1     139.498  73.883 223.469 -0.44 -0.05    +0.164 HD 
DOCKED: BRANCH  11  14
DOCKED: ATOM     14  C   UNL     1     139.948  71.293 223.659 -0.33 -0.02    +0.128 A  
DOCKED: ATOM     15  C   UNL     1     139.573  69.964 223.636 -0.27 -0.01    +0.035 A  
DOCKED: ATOM     16  N   UNL     1     140.385  71.859 224.798 -0.27 +0.04    -0.243 NA 
DOCKED: ATOM     17  C   UNL     1     139.657  69.230 224.815 -0.36 -0.00    +0.013 A  
DOCKED: ATOM     18  C   UNL     1     140.474  71.169 225.949 -0.54 -0.01    +0.071 A  
DOCKED: ATOM     19  C   UNL     1     140.111  69.832 225.986 -0.50 -0.00    +0.000 A  
DOCKED: ATOM     20  C   UNL     1     140.934  71.848 227.059 -0.75 -0.01    +0.029 A  
DOCKED: ATOM     21  C   UNL     1     140.222  69.182 227.176 -0.59 -0.00    +0.010 A  
DOCKED: ATOM     22  C   UNL     1     141.041  71.172 228.261 -0.70 -0.00    +0.002 A  
DOCKED: ATOM     23  C   UNL     1     140.678  69.828 228.310 -0.59 -0.00    +0.001 A  
DOCKED: ENDBRANCH  11  14
DOCKED: ENDBRANCH   9  10
DOCKED: ENDBRANCH   7   9
DOCKED: ENDBRANCH   1   7
DOCKED: BRANCH   6  24
DOCKED: ATOM     24  C   UNL     1     142.065  75.433 219.507 -0.22 +0.01    -0.025 A  
DOCKED: ATOM     25  C   UNL     1     142.692  75.164 218.309 -0.18 -0.00    +0.006 A  
DOCKED: ATOM     26  C   UNL     1     142.659  74.868 220.638 -0.28 -0.00    +0.006 A  
DOCKED: ATOM     27  C   UNL     1     143.838  74.386 218.218 -0.19 -0.00    +0.013 A  
DOCKED: ATOM     28  C   UNL     1     143.798  74.093 220.556 -0.39 -0.00    +0.013 A  
DOCKED: ATOM     29  C   UNL     1     144.403  73.841 219.348 -0.30 -0.01    +0.056 A  
DOCKED: BRANCH  29  30
DOCKED: ATOM     30  C   UNL     1     145.623  73.001 219.328 -0.15 +0.13    +0.416 C  
DOCKED: ATOM     31  F   UNL     1     145.417  71.775 219.922 -0.11 -0.04    -0.166 F  
DOCKED: ATOM     32  F   UNL     1     146.681  73.692 219.908 -0.19 -0.05    -0.166 F  
DOCKED: ATOM     33  F   UNL     1     145.950  72.757 218.005 -0.04 -0.16    -0.166 F  
DOCKED: ENDBRANCH  29  30
DOCKED: ENDBRANCH   6  24
DOCKED: TORSDOF 6
DOCKED: TER
DOCKED: ENDMDL
________________________________________________________________________________


    FINAL DOCKED STATE:
    ________________________


Run:   7 / 20
Time taken for this run:   0.035s

DOCKED: MODEL        7
DOCKED: USER    Run = 7
DOCKED: USER
DOCKED: USER    Estimated Free Energy of Binding    =  -8.42 kcal/mol  [=(1)+(2)+(3)-(4)]
DOCKED: USER
DOCKED: USER    (1) Final Intermolecular Energy     = -10.21 kcal/mol
DOCKED: USER        vdW + Hbond + desolv Energy     = -10.04 kcal/mol
DOCKED: USER        Electrostatic Energy            =  -0.17 kcal/mol
DOCKED: USER        Moving Ligand-Fixed Receptor    = -10.21 kcal/mol
DOCKED: USER        Moving Ligand-Moving Receptor   =  +0.00 kcal/mol
DOCKED: USER    (2) Final Total Internal Energy     =  -1.80 kcal/mol
DOCKED: USER    (3) Torsional Free Energy           =  +1.79 kcal/mol
DOCKED: USER    (4) Unbound System's Energy         =  -1.80 kcal/mol
DOCKED: USER
DOCKED: USER
DOCKED: REMARK SMILES O=C(NCC(=O)N1CCCC[C@H]1c1ccc(C(F)(F)F)cc1)c1ccc2ccccc2n1
DOCKED: REMARK SMILES IDX 7 1 8 2 9 3 10 4 11 5 12 6 5 7 6 8 4 9 3 10 2 11 1 12 23 14
DOCKED: REMARK SMILES IDX 24 15 32 16 25 17 31 18 26 19 30 20 27 21 29 22 28 23 13 24
DOCKED: REMARK SMILES IDX 14 25 22 26 15 27 21 28 16 29 17 30 18 31 19 32 20 33
DOCKED: REMARK H PARENT 3 13
DOCKED: USER                              x       y       z     vdW  Elec       q    Type
DOCKED: USER                           _______ _______ _______ _____ _____    ______ ____
DOCKED: ROOT
DOCKED: ATOM      1  N   UNL     1     139.873  76.563 221.456 -0.12 +0.09    -0.334 N  
DOCKED: ATOM      2  C   UNL     1     140.252  77.262 222.665 -0.25 -0.03    +0.120 C  
DOCKED: ATOM      3  C   UNL     1     140.955  78.556 222.431 -0.44 -0.01    +0.022 C  
DOCKED: ATOM      4  C   UNL     1     141.812  78.544 221.181 -0.36 -0.00    +0.004 C  
DOCKED: ATOM      5  C   UNL     1     140.900  78.188 220.058 -0.21 -0.01    +0.030 C  
DOCKED: ATOM      6  C   UNL     1     140.543  76.734 220.185 -0.15 -0.04    +0.115 C  
DOCKED: ENDROOT
DOCKED: BRANCH   1   7
DOCKED: ATOM      7  C   UNL     1     138.778  75.647 221.486 -0.16 -0.05    +0.242 C  
DOCKED: ATOM      8  O   UNL     1     137.611  75.979 221.815 -0.12 +0.06    -0.273 OA 
DOCKED: BRANCH   7   9
DOCKED: ATOM      9  C   UNL     1     138.994  74.228 221.115 -0.13 -0.05    +0.216 C  
DOCKED: BRANCH   9  10
DOCKED: ATOM     10  N   UNL     1     139.028  73.352 222.241 -0.08 +0.09    -0.342 N  
DOCKED: ATOM     11  C   UNL     1     139.974  72.288 222.323 -0.21 -0.04    +0.270 C  
DOCKED: ATOM     12  O   UNL     1     140.812  72.103 221.380 -0.16 +0.03    -0.268 OA 
DOCKED: ATOM     13  H   UNL     1     138.369  73.450 223.047 -0.52 -0.11    +0.164 HD 
DOCKED: BRANCH  11  14
DOCKED: ATOM     14  C   UNL     1     139.979  71.411 223.492 -0.32 -0.02    +0.128 A  
DOCKED: ATOM     15  C   UNL     1     139.504  70.120 223.374 -0.26 -0.01    +0.035 A  
DOCKED: ATOM     16  N   UNL     1     140.445  71.863 224.671 -0.27 +0.04    -0.243 NA 
DOCKED: ATOM     17  C   UNL     1     139.518  69.302 224.500 -0.34 -0.00    +0.013 A  
DOCKED: ATOM     18  C   UNL     1     140.468  71.090 225.772 -0.53 -0.01    +0.071 A  
DOCKED: ATOM     19  C   UNL     1     140.003  69.785 225.713 -0.47 -0.00    +0.000 A  
DOCKED: ATOM     20  C   UNL     1     140.965  71.653 226.929 -0.73 -0.00    +0.029 A  
DOCKED: ATOM     21  C   UNL     1     140.050  69.049 226.856 -0.57 -0.00    +0.010 A  
DOCKED: ATOM     22  C   UNL     1     141.006  70.890 228.082 -0.68 -0.00    +0.002 A  
DOCKED: ATOM     23  C   UNL     1     140.541  69.578 228.034 -0.63 -0.00    +0.001 A  
DOCKED: ENDBRANCH  11  14
DOCKED: ENDBRANCH   9  10
DOCKED: ENDBRANCH   7   9
DOCKED: ENDBRANCH   1   7
DOCKED: BRANCH   6  24
DOCKED: ATOM     24  C   UNL     1     141.741  75.876 220.015 -0.25 +0.01    -0.025 A  
DOCKED: ATOM     25  C   UNL     1     142.614  75.988 218.953 -0.28 -0.00    +0.006 A  
DOCKED: ATOM     26  C   UNL     1     142.057  74.891 220.954 -0.28 -0.00    +0.006 A  
DOCKED: ATOM     27  C   UNL     1     143.736  75.181 218.814 -0.26 -0.01    +0.013 A  
DOCKED: ATOM     28  C   UNL     1     143.170  74.085 220.823 -0.28 -0.00    +0.013 A  
DOCKED: ATOM     29  C   UNL     1     144.024  74.218 219.754 -0.35 -0.02    +0.056 A  
DOCKED: BRANCH  29  30
DOCKED: ATOM     30  C   UNL     1     145.200  73.322 219.671 -0.20 -0.00    +0.416 C  
DOCKED: ATOM     31  F   UNL     1     146.140  73.611 220.637 -0.26 +0.00    -0.166 F  
DOCKED: ATOM     32  F   UNL     1     145.737  73.365 218.390 -0.09 -0.06    -0.166 F  
DOCKED: ATOM     33  F   UNL     1     144.767  72.027 219.907 -0.09 -0.00    -0.166 F  
DOCKED: ENDBRANCH  29  30
DOCKED: ENDBRANCH   6  24
DOCKED: TORSDOF 6
DOCKED: TER
DOCKED: ENDMDL
________________________________________________________________________________


    FINAL DOCKED STATE:
    ________________________


Run:   8 / 20
Time taken for this run:   0.035s

DOCKED: MODEL        8
DOCKED: USER    Run = 8
DOCKED: USER
DOCKED: USER    Estimated Free Energy of Binding    =  -8.59 kcal/mol  [=(1)+(2)+(3)-(4)]
DOCKED: USER
DOCKED: USER    (1) Final Intermolecular Energy     = -10.38 kcal/mol
DOCKED: USER        vdW + Hbond + desolv Energy     = -10.23 kcal/mol
DOCKED: USER        Electrostatic Energy            =  -0.15 kcal/mol
DOCKED: USER        Moving Ligand-Fixed Receptor    = -10.38 kcal/mol
DOCKED: USER        Moving Ligand-Moving Receptor   =  +0.00 kcal/mol
DOCKED: USER    (2) Final Total Internal Energy     =  -1.63 kcal/mol
DOCKED: USER    (3) Torsional Free Energy           =  +1.79 kcal/mol
DOCKED: USER    (4) Unbound System's Energy         =  -1.63 kcal/mol
DOCKED: USER
DOCKED: USER
DOCKED: REMARK SMILES O=C(NCC(=O)N1CCCC[C@H]1c1ccc(C(F)(F)F)cc1)c1ccc2ccccc2n1
DOCKED: REMARK SMILES IDX 7 1 8 2 9 3 10 4 11 5 12 6 5 7 6 8 4 9 3 10 2 11 1 12 23 14
DOCKED: REMARK SMILES IDX 24 15 32 16 25 17 31 18 26 19 30 20 27 21 29 22 28 23 13 24
DOCKED: REMARK SMILES IDX 14 25 22 26 15 27 21 28 16 29 17 30 18 31 19 32 20 33
DOCKED: REMARK H PARENT 3 13
DOCKED: USER                              x       y       z     vdW  Elec       q    Type
DOCKED: USER                           _______ _______ _______ _____ _____    ______ ____
DOCKED: ROOT
DOCKED: ATOM      1  N   UNL     1     139.700  76.368 221.414 -0.12 +0.08    -0.334 N  
DOCKED: ATOM      2  C   UNL     1     139.882  77.048 222.678 -0.17 -0.02    +0.120 C  
DOCKED: ATOM      3  C   UNL     1     140.621  78.340 222.581 -0.43 -0.01    +0.022 C  
DOCKED: ATOM      4  C   UNL     1     141.670  78.337 221.486 -0.35 -0.00    +0.004 C  
DOCKED: ATOM      5  C   UNL     1     140.950  78.004 220.225 -0.22 -0.01    +0.030 C  
DOCKED: ATOM      6  C   UNL     1     140.569  76.551 220.271 -0.15 -0.04    +0.115 C  
DOCKED: ENDROOT
DOCKED: BRANCH   1   7
DOCKED: ATOM      7  C   UNL     1     138.610  75.460 221.252 -0.13 -0.05    +0.242 C  
DOCKED: ATOM      8  O   UNL     1     137.405  75.814 221.314 -0.07 +0.06    -0.273 OA 
DOCKED: BRANCH   7   9
DOCKED: ATOM      9  C   UNL     1     138.878  74.025 220.996 -0.11 -0.05    +0.216 C  
DOCKED: BRANCH   9  10
DOCKED: ATOM     10  N   UNL     1     138.986  73.252 222.192 -0.09 +0.09    -0.342 N  
DOCKED: ATOM     11  C   UNL     1     139.784  72.072 222.241 -0.19 -0.05    +0.270 C  
DOCKED: ATOM     12  O   UNL     1     140.420  71.686 221.205 -0.11 +0.04    -0.268 OA 
DOCKED: ATOM     13  H   UNL     1     138.490  73.514 223.074 -0.52 -0.11    +0.164 HD 
DOCKED: BRANCH  11  14
DOCKED: ATOM     14  C   UNL     1     139.871  71.306 223.482 -0.31 -0.02    +0.128 A  
DOCKED: ATOM     15  C   UNL     1     139.451  69.991 223.499 -0.26 -0.01    +0.035 A  
DOCKED: ATOM     16  N   UNL     1     140.357  71.883 224.597 -0.27 +0.04    -0.243 NA 
DOCKED: ATOM     17  C   UNL     1     139.543  69.280 224.693 -0.36 -0.00    +0.013 A  
DOCKED: ATOM     18  C   UNL     1     140.454  71.215 225.761 -0.53 -0.01    +0.071 A  
DOCKED: ATOM     19  C   UNL     1     140.048  69.892 225.837 -0.49 -0.00    +0.000 A  
DOCKED: ATOM     20  C   UNL     1     140.966  71.902 226.842 -0.73 -0.01    +0.029 A  
DOCKED: ATOM     21  C   UNL     1     140.168  69.266 227.039 -0.57 -0.00    +0.010 A  
DOCKED: ATOM     22  C   UNL     1     141.083  71.250 228.056 -0.75 -0.00    +0.002 A  
DOCKED: ATOM     23  C   UNL     1     140.677  69.920 228.145 -0.61 -0.00    +0.001 A  
DOCKED: ENDBRANCH  11  14
DOCKED: ENDBRANCH   9  10
DOCKED: ENDBRANCH   7   9
DOCKED: ENDBRANCH   1   7
DOCKED: BRANCH   6  24
DOCKED: ATOM     24  C   UNL     1     141.774  75.686 220.286 -0.26 +0.01    -0.025 A  
DOCKED: ATOM     25  C   UNL     1     141.802  74.427 220.848 -0.30 -0.00    +0.006 A  
DOCKED: ATOM     26  C   UNL     1     142.972  76.115 219.707 -0.38 -0.00    +0.006 A  
DOCKED: ATOM     27  C   UNL     1     142.938  73.628 220.845 -0.27 -0.00    +0.013 A  
DOCKED: ATOM     28  C   UNL     1     144.104  75.326 219.701 -0.31 -0.01    +0.013 A  
DOCKED: ATOM     29  C   UNL     1     144.105  74.074 220.268 -0.40 -0.02    +0.056 A  
DOCKED: BRANCH  29  30
DOCKED: ATOM     30  C   UNL     1     145.353  73.279 220.229 -0.27 -0.02    +0.416 C  
DOCKED: ATOM     31  F   UNL     1     146.078  73.509 219.080 -0.09 -0.06    -0.166 F  
DOCKED: ATOM     32  F   UNL     1     145.059  71.931 220.400 -0.10 +0.01    -0.166 F  
DOCKED: ATOM     33  F   UNL     1     146.147  73.679 221.291 -0.30 +0.02    -0.166 F  
DOCKED: ENDBRANCH  29  30
DOCKED: ENDBRANCH   6  24
DOCKED: TORSDOF 6
DOCKED: TER
DOCKED: ENDMDL
________________________________________________________________________________


    FINAL DOCKED STATE:
    ________________________


Run:   9 / 20
Time taken for this run:   0.035s

DOCKED: MODEL        9
DOCKED: USER    Run = 9
DOCKED: USER
DOCKED: USER    Estimated Free Energy of Binding    =  -8.51 kcal/mol  [=(1)+(2)+(3)-(4)]
DOCKED: USER
DOCKED: USER    (1) Final Intermolecular Energy     = -10.30 kcal/mol
DOCKED: USER        vdW + Hbond + desolv Energy     = -10.12 kcal/mol
DOCKED: USER        Electrostatic Energy            =  -0.18 kcal/mol
DOCKED: USER        Moving Ligand-Fixed Receptor    = -10.30 kcal/mol
DOCKED: USER        Moving Ligand-Moving Receptor   =  +0.00 kcal/mol
DOCKED: USER    (2) Final Total Internal Energy     =  -1.77 kcal/mol
DOCKED: USER    (3) Torsional Free Energy           =  +1.79 kcal/mol
DOCKED: USER    (4) Unbound System's Energy         =  -1.77 kcal/mol
DOCKED: USER
DOCKED: USER
DOCKED: REMARK SMILES O=C(NCC(=O)N1CCCC[C@H]1c1ccc(C(F)(F)F)cc1)c1ccc2ccccc2n1
DOCKED: REMARK SMILES IDX 7 1 8 2 9 3 10 4 11 5 12 6 5 7 6 8 4 9 3 10 2 11 1 12 23 14
DOCKED: REMARK SMILES IDX 24 15 32 16 25 17 31 18 26 19 30 20 27 21 29 22 28 23 13 24
DOCKED: REMARK SMILES IDX 14 25 22 26 15 27 21 28 16 29 17 30 18 31 19 32 20 33
DOCKED: REMARK H PARENT 3 13
DOCKED: USER                              x       y       z     vdW  Elec       q    Type
DOCKED: USER                           _______ _______ _______ _____ _____    ______ ____
DOCKED: ROOT
DOCKED: ATOM      1  N   UNL     1     140.009  76.575 221.371 -0.12 +0.09    -0.334 N  
DOCKED: ATOM      2  C   UNL     1     140.424  77.444 222.451 -0.34 -0.03    +0.120 C  
DOCKED: ATOM      3  C   UNL     1     141.048  78.723 222.006 -0.39 -0.01    +0.022 C  
DOCKED: ATOM      4  C   UNL     1     141.829  78.579 220.715 -0.31 -0.00    +0.004 C  
DOCKED: ATOM      5  C   UNL     1     140.872  78.039 219.709 -0.18 -0.01    +0.030 C  
DOCKED: ATOM      6  C   UNL     1     140.594  76.602 220.048 -0.14 -0.04    +0.115 C  
DOCKED: ENDROOT
DOCKED: BRANCH   1   7
DOCKED: ATOM      7  C   UNL     1     138.964  75.627 221.590 -0.18 -0.05    +0.242 C  
DOCKED: ATOM      8  O   UNL     1     137.850  75.932 222.088 -0.17 +0.06    -0.273 OA 
DOCKED: BRANCH   7   9
DOCKED: ATOM      9  C   UNL     1     139.169  74.205 221.224 -0.15 -0.05    +0.216 C  
DOCKED: BRANCH   9  10
DOCKED: ATOM     10  N   UNL     1     139.140  73.326 222.349 -0.08 +0.09    -0.342 N  
DOCKED: ATOM     11  C   UNL     1     140.156  72.345 222.549 -0.21 -0.03    +0.270 C  
DOCKED: ATOM     12  O   UNL     1     141.116  72.240 221.717 -0.20 +0.02    -0.268 OA 
DOCKED: ATOM     13  H   UNL     1     138.380  73.361 223.067 -0.51 -0.11    +0.164 HD 
DOCKED: BRANCH  11  14
DOCKED: ATOM     14  C   UNL     1     140.092  71.463 223.712 -0.34 -0.02    +0.128 A  
DOCKED: ATOM     15  C   UNL     1     139.557  70.198 223.575 -0.28 -0.01    +0.035 A  
DOCKED: ATOM     16  N   UNL     1     140.553  71.884 224.904 -0.27 +0.04    -0.243 NA 
DOCKED: ATOM     17  C   UNL     1     139.506  69.373 224.695 -0.36 -0.00    +0.013 A  
DOCKED: ATOM     18  C   UNL     1     140.514  71.104 225.999 -0.55 -0.01    +0.071 A  
DOCKED: ATOM     19  C   UNL     1     139.988  69.825 225.922 -0.49 -0.00    +0.000 A  
DOCKED: ATOM     20  C   UNL     1     141.013  71.636 227.171 -0.75 -0.01    +0.029 A  
DOCKED: ATOM     21  C   UNL     1     139.972  69.080 227.060 -0.58 -0.00    +0.010 A  
DOCKED: ATOM     22  C   UNL     1     140.990  70.866 228.319 -0.63 -0.00    +0.002 A  
DOCKED: ATOM     23  C   UNL     1     140.463  69.578 228.252 -0.62 -0.00    +0.001 A  
DOCKED: ENDBRANCH  11  14
DOCKED: ENDBRANCH   9  10
DOCKED: ENDBRANCH   7   9
DOCKED: ENDBRANCH   1   7
DOCKED: BRANCH   6  24
DOCKED: ATOM     24  C   UNL     1     141.821  75.779 219.914 -0.24 +0.01    -0.025 A  
DOCKED: ATOM     25  C   UNL     1     142.644  75.812 218.809 -0.26 -0.00    +0.006 A  
DOCKED: ATOM     26  C   UNL     1     142.218  74.911 220.936 -0.26 -0.00    +0.006 A  
DOCKED: ATOM     27  C   UNL     1     143.794  75.039 218.704 -0.21 -0.01    +0.013 A  
DOCKED: ATOM     28  C   UNL     1     143.359  74.141 220.839 -0.29 -0.00    +0.013 A  
DOCKED: ATOM     29  C   UNL     1     144.162  74.193 219.725 -0.36 -0.02    +0.056 A  
DOCKED: BRANCH  29  30
DOCKED: ATOM     30  C   UNL     1     145.372  73.340 219.683 -0.20 +0.01    +0.416 C  
DOCKED: ATOM     31  F   UNL     1     145.086  72.021 219.960 -0.11 -0.01    -0.166 F  
DOCKED: ATOM     32  F   UNL     1     146.341  73.855 220.535 -0.26 -0.00    -0.166 F  
DOCKED: ATOM     33  F   UNL     1     145.876  73.380 218.393 -0.09 -0.07    -0.166 F  
DOCKED: ENDBRANCH  29  30
DOCKED: ENDBRANCH   6  24
DOCKED: TORSDOF 6
DOCKED: TER
DOCKED: ENDMDL
________________________________________________________________________________


    FINAL DOCKED STATE:
    ________________________


Run:   10 / 20
Time taken for this run:   0.035s

DOCKED: MODEL        10
DOCKED: USER    Run = 10
DOCKED: USER
DOCKED: USER    Estimated Free Energy of Binding    =  -8.09 kcal/mol  [=(1)+(2)+(3)-(4)]
DOCKED: USER
DOCKED: USER    (1) Final Intermolecular Energy     =  -9.88 kcal/mol
DOCKED: USER        vdW + Hbond + desolv Energy     =  -9.79 kcal/mol
DOCKED: USER        Electrostatic Energy            =  -0.10 kcal/mol
DOCKED: USER        Moving Ligand-Fixed Receptor    =  -9.88 kcal/mol
DOCKED: USER        Moving Ligand-Moving Receptor   =  +0.00 kcal/mol
DOCKED: USER    (2) Final Total Internal Energy     =  -1.98 kcal/mol
DOCKED: USER    (3) Torsional Free Energy           =  +1.79 kcal/mol
DOCKED: USER    (4) Unbound System's Energy         =  -1.98 kcal/mol
DOCKED: USER
DOCKED: USER
DOCKED: REMARK SMILES O=C(NCC(=O)N1CCCC[C@H]1c1ccc(C(F)(F)F)cc1)c1ccc2ccccc2n1
DOCKED: REMARK SMILES IDX 7 1 8 2 9 3 10 4 11 5 12 6 5 7 6 8 4 9 3 10 2 11 1 12 23 14
DOCKED: REMARK SMILES IDX 24 15 32 16 25 17 31 18 26 19 30 20 27 21 29 22 28 23 13 24
DOCKED: REMARK SMILES IDX 14 25 22 26 15 27 21 28 16 29 17 30 18 31 19 32 20 33
DOCKED: REMARK H PARENT 3 13
DOCKED: USER                              x       y       z     vdW  Elec       q    Type
DOCKED: USER                           _______ _______ _______ _____ _____    ______ ____
DOCKED: ROOT
DOCKED: ATOM      1  N   UNL     1     139.744  75.578 220.610 -0.05 +0.08    -0.334 N  
DOCKED: ATOM      2  C   UNL     1     138.374  75.832 220.221 -0.06 -0.03    +0.120 C  
DOCKED: ATOM      3  C   UNL     1     138.225  76.515 218.904 -0.02 -0.00    +0.022 C  
DOCKED: ATOM      4  C   UNL     1     139.359  77.476 218.608 -0.04 -0.00    +0.004 C  
DOCKED: ATOM      5  C   UNL     1     140.612  76.675 218.688 -0.08 -0.01    +0.030 C  
DOCKED: ATOM      6  C   UNL     1     140.871  76.350 220.132 -0.16 -0.04    +0.115 C  
DOCKED: ENDROOT
DOCKED: BRANCH   1   7
DOCKED: ATOM      7  C   UNL     1     140.035  74.511 221.514 -0.21 -0.04    +0.242 C  
DOCKED: ATOM      8  O   UNL     1     141.061  74.485 222.240 -0.48 -0.02    -0.273 OA 
DOCKED: BRANCH   7   9
DOCKED: ATOM      9  C   UNL     1     139.103  73.365 221.625 -0.16 -0.05    +0.216 C  
DOCKED: BRANCH   9  10
DOCKED: ATOM     10  N   UNL     1     139.370  72.531 222.754 -0.10 +0.09    -0.342 N  
DOCKED: ATOM     11  C   UNL     1     138.963  71.165 222.777 -0.16 -0.06    +0.270 C  
DOCKED: ATOM     12  O   UNL     1     138.347  70.663 221.780 -0.06 +0.05    -0.268 OA 
DOCKED: ATOM     13  H   UNL     1     139.870  72.882 223.602 -0.27 -0.03    +0.164 HD 
DOCKED: BRANCH  11  14
DOCKED: ATOM     14  C   UNL     1     139.254  70.342 223.949 -0.27 -0.02    +0.128 A  
DOCKED: ATOM     15  C   UNL     1     138.901  69.007 223.946 -0.29 -0.01    +0.035 A  
DOCKED: ATOM     16  N   UNL     1     139.859  70.886 225.020 -0.28 +0.04    -0.243 NA 
DOCKED: ATOM     17  C   UNL     1     139.188  68.242 225.072 -0.43 -0.00    +0.013 A  
DOCKED: ATOM     18  C   UNL     1     140.146  70.165 226.120 -0.47 -0.01    +0.071 A  
DOCKED: ATOM     19  C   UNL     1     139.816  68.820 226.173 -0.54 -0.00    +0.000 A  
DOCKED: ATOM     20  C   UNL     1     140.768  70.822 227.161 -0.64 -0.00    +0.029 A  
DOCKED: ATOM     21  C   UNL     1     140.128  68.140 227.309 -0.66 -0.00    +0.010 A  
DOCKED: ATOM     22  C   UNL     1     141.079  70.116 228.309 -0.56 -0.00    +0.002 A  
DOCKED: ATOM     23  C   UNL     1     140.752  68.763 228.373 -0.66 -0.00    +0.001 A  
DOCKED: ENDBRANCH  11  14
DOCKED: ENDBRANCH   9  10
DOCKED: ENDBRANCH   7   9
DOCKED: ENDBRANCH   1   7
DOCKED: BRANCH   6  24
DOCKED: ATOM     24  C   UNL     1     141.133  77.583 220.915 -0.29 +0.01    -0.025 A  
DOCKED: ATOM     25  C   UNL     1     141.609  78.751 220.359 -0.29 -0.00    +0.006 A  
DOCKED: ATOM     26  C   UNL     1     140.896  77.622 222.291 -0.43 -0.00    +0.006 A  
DOCKED: ATOM     27  C   UNL     1     141.841  79.899 221.106 -0.38 -0.01    +0.013 A  
DOCKED: ATOM     28  C   UNL     1     141.124  78.759 223.040 -0.52 -0.00    +0.013 A  
DOCKED: ATOM     29  C   UNL     1     141.599  79.911 222.461 -0.46 -0.02    +0.056 A  
DOCKED: BRANCH  29  30
DOCKED: ATOM     30  C   UNL     1     141.823  81.096 223.320 -0.28 -0.07    +0.416 C  
DOCKED: ATOM     31  F   UNL     1     143.037  81.041 223.971 -0.24 +0.03    -0.166 F  
DOCKED: ATOM     32  F   UNL     1     140.762  81.246 224.205 -0.10 +0.01    -0.166 F  
DOCKED: ATOM     33  F   UNL     1     141.857  82.214 222.504 -0.14 +0.02    -0.166 F  
DOCKED: ENDBRANCH  29  30
DOCKED: ENDBRANCH   6  24
DOCKED: TORSDOF 6
DOCKED: TER
DOCKED: ENDMDL
________________________________________________________________________________


    FINAL DOCKED STATE:
    ________________________


Run:   11 / 20
Time taken for this run:   0.035s

DOCKED: MODEL        11
DOCKED: USER    Run = 11
DOCKED: USER
DOCKED: USER    Estimated Free Energy of Binding    =  -8.36 kcal/mol  [=(1)+(2)+(3)-(4)]
DOCKED: USER
DOCKED: USER    (1) Final Intermolecular Energy     = -10.15 kcal/mol
DOCKED: USER        vdW + Hbond + desolv Energy     = -10.07 kcal/mol
DOCKED: USER        Electrostatic Energy            =  -0.07 kcal/mol
DOCKED: USER        Moving Ligand-Fixed Receptor    = -10.15 kcal/mol
DOCKED: USER        Moving Ligand-Moving Receptor   =  +0.00 kcal/mol
DOCKED: USER    (2) Final Total Internal Energy     =  -1.84 kcal/mol
DOCKED: USER    (3) Torsional Free Energy           =  +1.79 kcal/mol
DOCKED: USER    (4) Unbound System's Energy         =  -1.84 kcal/mol
DOCKED: USER
DOCKED: USER
DOCKED: REMARK SMILES O=C(NCC(=O)N1CCCC[C@H]1c1ccc(C(F)(F)F)cc1)c1ccc2ccccc2n1
DOCKED: REMARK SMILES IDX 7 1 8 2 9 3 10 4 11 5 12 6 5 7 6 8 4 9 3 10 2 11 1 12 23 14
DOCKED: REMARK SMILES IDX 24 15 32 16 25 17 31 18 26 19 30 20 27 21 29 22 28 23 13 24
DOCKED: REMARK SMILES IDX 14 25 22 26 15 27 21 28 16 29 17 30 18 31 19 32 20 33
DOCKED: REMARK H PARENT 3 13
DOCKED: USER                              x       y       z     vdW  Elec       q    Type
DOCKED: USER                           _______ _______ _______ _____ _____    ______ ____
DOCKED: ROOT
DOCKED: ATOM      1  N   UNL     1     138.781  75.653 221.683 -0.13 +0.08    -0.334 N  
DOCKED: ATOM      2  C   UNL     1     137.555  75.840 222.428 -0.21 -0.03    +0.120 C  
DOCKED: ATOM      3  C   UNL     1     136.599  76.802 221.809 -0.14 -0.00    +0.022 C  
DOCKED: ATOM      4  C   UNL     1     137.293  77.926 221.066 -0.09 -0.00    +0.004 C  
DOCKED: ATOM      5  C   UNL     1     138.170  77.274 220.054 -0.05 -0.01    +0.030 C  
DOCKED: ATOM      6  C   UNL     1     139.326  76.639 220.774 -0.13 -0.03    +0.115 C  
DOCKED: ENDROOT
DOCKED: BRANCH   1   7
DOCKED: ATOM      7  C   UNL     1     139.517  74.438 221.828 -0.18 -0.04    +0.242 C  
DOCKED: ATOM      8  O   UNL     1     140.765  74.403 221.981 -0.73 +0.01    -0.273 OA 
DOCKED: BRANCH   7   9
DOCKED: ATOM      9  C   UNL     1     138.806  73.138 221.803 -0.14 -0.05    +0.216 C  
DOCKED: BRANCH   9  10
DOCKED: ATOM     10  N   UNL     1     139.153  72.286 222.895 -0.08 +0.10    -0.342 N  
DOCKED: ATOM     11  C   UNL     1     138.776  70.911 222.910 -0.15 -0.06    +0.270 C  
DOCKED: ATOM     12  O   UNL     1     138.114  70.419 221.937 -0.05 +0.05    -0.268 OA 
DOCKED: ATOM     13  H   UNL     1     139.694  72.628 223.721 -0.24 -0.05    +0.164 HD 
DOCKED: BRANCH  11  14
DOCKED: ATOM     14  C   UNL     1     139.149  70.069 224.044 -0.26 -0.02    +0.128 A  
DOCKED: ATOM     15  C   UNL     1     138.892  68.714 223.998 -0.30 -0.00    +0.035 A  
DOCKED: ATOM     16  N   UNL     1     139.739  70.616 225.123 -0.26 +0.04    -0.243 NA 
DOCKED: ATOM     17  C   UNL     1     139.256  67.931 225.089 -0.41 -0.00    +0.013 A  
DOCKED: ATOM     18  C   UNL     1     140.099  69.878 226.189 -0.46 -0.01    +0.071 A  
DOCKED: ATOM     19  C   UNL     1     139.866  68.512 226.198 -0.57 -0.00    +0.000 A  
DOCKED: ATOM     20  C   UNL     1     140.696  70.540 227.242 -0.61 -0.00    +0.029 A  
DOCKED: ATOM     21  C   UNL     1     140.250  67.816 227.301 -0.61 -0.00    +0.010 A  
DOCKED: ATOM     22  C   UNL     1     141.082  69.817 228.356 -0.56 -0.00    +0.002 A  
DOCKED: ATOM     23  C   UNL     1     140.852  68.443 228.376 -0.67 -0.00    +0.001 A  
DOCKED: ENDBRANCH  11  14
DOCKED: ENDBRANCH   9  10
DOCKED: ENDBRANCH   7   9
DOCKED: ENDBRANCH   1   7
DOCKED: BRANCH   6  24
DOCKED: ATOM     24  C   UNL     1     140.170  77.666 221.433 -0.26 +0.01    -0.025 A  
DOCKED: ATOM     25  C   UNL     1     140.613  77.567 222.735 -0.41 -0.00    +0.006 A  
DOCKED: ATOM     26  C   UNL     1     140.574  78.812 220.744 -0.22 -0.00    +0.006 A  
DOCKED: ATOM     27  C   UNL     1     141.409  78.535 223.334 -0.56 -0.00    +0.013 A  
DOCKED: ATOM     28  C   UNL     1     141.365  79.778 221.332 -0.35 -0.01    +0.013 A  
DOCKED: ATOM     29  C   UNL     1     141.793  79.654 222.633 -0.50 -0.02    +0.056 A  
DOCKED: BRANCH  29  30
DOCKED: ATOM     30  C   UNL     1     142.639  80.727 223.206 -0.28 -0.10    +0.416 C  
DOCKED: ATOM     31  F   UNL     1     142.206  81.981 222.834 -0.11 +0.02    -0.166 F  
DOCKED: ATOM     32  F   UNL     1     143.969  80.511 222.866 -0.20 +0.05    -0.166 F  
DOCKED: ATOM     33  F   UNL     1     142.536  80.659 224.585 -0.14 +0.03    -0.166 F  
DOCKED: ENDBRANCH  29  30
DOCKED: ENDBRANCH   6  24
DOCKED: TORSDOF 6
DOCKED: TER
DOCKED: ENDMDL
________________________________________________________________________________


    FINAL DOCKED STATE:
    ________________________


Run:   12 / 20
Time taken for this run:   0.035s

DOCKED: MODEL        12
DOCKED: USER    Run = 12
DOCKED: USER
DOCKED: USER    Estimated Free Energy of Binding    =  -8.09 kcal/mol  [=(1)+(2)+(3)-(4)]
DOCKED: USER
DOCKED: USER    (1) Final Intermolecular Energy     =  -9.88 kcal/mol
DOCKED: USER        vdW + Hbond + desolv Energy     =  -9.80 kcal/mol
DOCKED: USER        Electrostatic Energy            =  -0.08 kcal/mol
DOCKED: USER        Moving Ligand-Fixed Receptor    =  -9.88 kcal/mol
DOCKED: USER        Moving Ligand-Moving Receptor   =  +0.00 kcal/mol
DOCKED: USER    (2) Final Total Internal Energy     =  -1.75 kcal/mol
DOCKED: USER    (3) Torsional Free Energy           =  +1.79 kcal/mol
DOCKED: USER    (4) Unbound System's Energy         =  -1.75 kcal/mol
DOCKED: USER
DOCKED: USER
DOCKED: REMARK SMILES O=C(NCC(=O)N1CCCC[C@H]1c1ccc(C(F)(F)F)cc1)c1ccc2ccccc2n1
DOCKED: REMARK SMILES IDX 7 1 8 2 9 3 10 4 11 5 12 6 5 7 6 8 4 9 3 10 2 11 1 12 23 14
DOCKED: REMARK SMILES IDX 24 15 32 16 25 17 31 18 26 19 30 20 27 21 29 22 28 23 13 24
DOCKED: REMARK SMILES IDX 14 25 22 26 15 27 21 28 16 29 17 30 18 31 19 32 20 33
DOCKED: REMARK H PARENT 3 13
DOCKED: USER                              x       y       z     vdW  Elec       q    Type
DOCKED: USER                           _______ _______ _______ _____ _____    ______ ____
DOCKED: ROOT
DOCKED: ATOM      1  N   UNL     1     140.890  76.082 220.164 -0.06 +0.12    -0.334 N  
DOCKED: ATOM      2  C   UNL     1     140.437  75.872 218.806 -0.05 -0.04    +0.120 C  
DOCKED: ATOM      3  C   UNL     1     141.488  76.075 217.769 -0.09 -0.01    +0.022 C  
DOCKED: ATOM      4  C   UNL     1     142.491  77.146 218.148 -0.29 -0.00    +0.004 C  
DOCKED: ATOM      5  C   UNL     1     143.066  76.730 219.458 -0.35 -0.02    +0.030 C  
DOCKED: ATOM      6  C   UNL     1     142.015  76.923 220.515 -0.13 -0.07    +0.115 C  
DOCKED: ENDROOT
DOCKED: BRANCH   1   7
DOCKED: ATOM      7  C   UNL     1     140.212  75.436 221.242 -0.21 -0.06    +0.242 C  
DOCKED: ATOM      8  O   UNL     1     139.982  75.996 222.344 -0.43 +0.05    -0.273 OA 
DOCKED: BRANCH   7   9
DOCKED: ATOM      9  C   UNL     1     139.745  74.038 221.087 -0.16 -0.04    +0.216 C  
DOCKED: BRANCH   9  10
DOCKED: ATOM     10  N   UNL     1     139.759  73.302 222.310 -0.15 +0.05    -0.342 N  
DOCKED: ATOM     11  C   UNL     1     140.011  71.898 222.326 -0.20 -0.04    +0.270 C  
DOCKED: ATOM     12  O   UNL     1     140.229  71.275 221.235 -0.10 +0.04    -0.268 OA 
DOCKED: ATOM     13  H   UNL     1     139.588  73.753 223.237 -0.49 -0.03    +0.164 HD 
DOCKED: BRANCH  11  14
DOCKED: ATOM     14  C   UNL     1     140.018  71.178 223.597 -0.32 -0.02    +0.128 A  
DOCKED: ATOM     15  C   UNL     1     139.546  69.881 223.645 -0.26 -0.01    +0.035 A  
DOCKED: ATOM     16  N   UNL     1     140.481  71.777 224.709 -0.28 +0.04    -0.243 NA 
DOCKED: ATOM     17  C   UNL     1     139.562  69.213 224.866 -0.38 -0.00    +0.013 A  
DOCKED: ATOM     18  C   UNL     1     140.506  71.151 225.899 -0.54 -0.01    +0.071 A  
DOCKED: ATOM     19  C   UNL     1     140.045  69.849 226.007 -0.50 -0.00    +0.000 A  
DOCKED: ATOM     20  C   UNL     1     141.001  71.859 226.975 -0.75 -0.01    +0.029 A  
DOCKED: ATOM     21  C   UNL     1     140.093  69.264 227.235 -0.59 -0.00    +0.010 A  
DOCKED: ATOM     22  C   UNL     1     141.044  71.250 228.216 -0.72 -0.00    +0.002 A  
DOCKED: ATOM     23  C   UNL     1     140.583  69.940 228.336 -0.58 -0.00    +0.001 A  
DOCKED: ENDBRANCH  11  14
DOCKED: ENDBRANCH   9  10
DOCKED: ENDBRANCH   7   9
DOCKED: ENDBRANCH   1   7
DOCKED: BRANCH   6  24
DOCKED: ATOM     24  C   UNL     1     141.671  78.358 220.665 -0.31 +0.01    -0.025 A  
DOCKED: ATOM     25  C   UNL     1     140.837  79.037 219.802 -0.19 -0.00    +0.006 A  
DOCKED: ATOM     26  C   UNL     1     142.183  79.111 221.725 -0.40 -0.00    +0.006 A  
DOCKED: ATOM     27  C   UNL     1     140.520  80.379 219.963 -0.18 -0.00    +0.013 A  
DOCKED: ATOM     28  C   UNL     1     141.872  80.445 221.892 -0.46 -0.00    +0.013 A  
DOCKED: ATOM     29  C   UNL     1     141.038  81.097 221.016 -0.30 -0.02    +0.056 A  
DOCKED: BRANCH  29  30
DOCKED: ATOM     30  C   UNL     1     140.745  82.530 221.251 -0.14 -0.08    +0.416 C  
DOCKED: ATOM     31  F   UNL     1     140.512  83.210 220.075 -0.07 +0.04    -0.166 F  
DOCKED: ATOM     32  F   UNL     1     141.769  83.106 221.993 -0.07 +0.02    -0.166 F  
DOCKED: ATOM     33  F   UNL     1     139.582  82.610 221.998 -0.07 +0.02    -0.166 F  
DOCKED: ENDBRANCH  29  30
DOCKED: ENDBRANCH   6  24
DOCKED: TORSDOF 6
DOCKED: TER
DOCKED: ENDMDL
________________________________________________________________________________


    FINAL DOCKED STATE:
    ________________________


Run:   13 / 20
Time taken for this run:   0.035s

DOCKED: MODEL        13
DOCKED: USER    Run = 13
DOCKED: USER
DOCKED: USER    Estimated Free Energy of Binding    =  -8.24 kcal/mol  [=(1)+(2)+(3)-(4)]
DOCKED: USER
DOCKED: USER    (1) Final Intermolecular Energy     = -10.03 kcal/mol
DOCKED: USER        vdW + Hbond + desolv Energy     =  -9.99 kcal/mol
DOCKED: USER        Electrostatic Energy            =  -0.04 kcal/mol
DOCKED: USER        Moving Ligand-Fixed Receptor    = -10.03 kcal/mol
DOCKED: USER        Moving Ligand-Moving Receptor   =  +0.00 kcal/mol
DOCKED: USER    (2) Final Total Internal Energy     =  -2.08 kcal/mol
DOCKED: USER    (3) Torsional Free Energy           =  +1.79 kcal/mol
DOCKED: USER    (4) Unbound System's Energy         =  -2.08 kcal/mol
DOCKED: USER
DOCKED: USER
DOCKED: REMARK SMILES O=C(NCC(=O)N1CCCC[C@H]1c1ccc(C(F)(F)F)cc1)c1ccc2ccccc2n1
DOCKED: REMARK SMILES IDX 7 1 8 2 9 3 10 4 11 5 12 6 5 7 6 8 4 9 3 10 2 11 1 12 23 14
DOCKED: REMARK SMILES IDX 24 15 32 16 25 17 31 18 26 19 30 20 27 21 29 22 28 23 13 24
DOCKED: REMARK SMILES IDX 14 25 22 26 15 27 21 28 16 29 17 30 18 31 19 32 20 33
DOCKED: REMARK H PARENT 3 13
DOCKED: USER                              x       y       z     vdW  Elec       q    Type
DOCKED: USER                           _______ _______ _______ _____ _____    ______ ____
DOCKED: ROOT
DOCKED: ATOM      1  N   UNL     1     139.440  71.474 222.277 -0.11 +0.06    -0.334 N  
DOCKED: ATOM      2  C   UNL     1     139.916  70.499 221.319 -0.12 -0.02    +0.120 C  
DOCKED: ATOM      3  C   UNL     1     139.001  69.339 221.117 -0.12 -0.00    +0.022 C  
DOCKED: ATOM      4  C   UNL     1     138.242  68.961 222.373 -0.19 -0.00    +0.004 C  
DOCKED: ATOM      5  C   UNL     1     137.511  70.186 222.800 -0.16 -0.01    +0.030 C  
DOCKED: ATOM      6  C   UNL     1     138.513  71.165 223.344 -0.22 -0.03    +0.115 C  
DOCKED: ENDROOT
DOCKED: BRANCH   1   7
DOCKED: ATOM      7  C   UNL     1     139.890  72.826 222.189 -0.20 -0.04    +0.242 C  
DOCKED: ATOM      8  O   UNL     1     141.093  73.162 222.336 -0.54 -0.01    -0.273 OA 
DOCKED: BRANCH   7   9
DOCKED: ATOM      9  C   UNL     1     138.918  73.910 221.912 -0.14 -0.05    +0.216 C  
DOCKED: BRANCH   9  10
DOCKED: ATOM     10  N   UNL     1     139.427  75.211 222.208 -0.16 +0.06    -0.342 N  
DOCKED: ATOM     11  C   UNL     1     138.553  76.318 222.418 -0.20 -0.06    +0.270 C  
DOCKED: ATOM     12  O   UNL     1     137.290  76.159 222.344 -0.17 +0.06    -0.268 OA 
DOCKED: ATOM     13  H   UNL     1     140.451  75.407 222.282 +0.04 -0.02    +0.164 HD 
DOCKED: BRANCH  11  14
DOCKED: ATOM     14  C   UNL     1     139.111  77.635 222.719 -0.25 -0.02    +0.128 A  
DOCKED: ATOM     15  C   UNL     1     138.259  78.695 222.955 -0.25 -0.01    +0.035 A  
DOCKED: ATOM     16  N   UNL     1     140.444  77.807 222.764 -0.24 +0.07    -0.243 NA 
DOCKED: ATOM     17  C   UNL     1     138.811  79.940 223.240 -0.35 -0.00    +0.013 A  
DOCKED: ATOM     18  C   UNL     1     141.000  79.001 223.037 -0.46 -0.02    +0.071 A  
DOCKED: ATOM     19  C   UNL     1     140.194  80.101 223.282 -0.44 -0.00    +0.000 A  
DOCKED: ATOM     20  C   UNL     1     142.378  79.067 223.057 -0.53 -0.01    +0.029 A  
DOCKED: ATOM     21  C   UNL     1     140.808  81.284 223.553 -0.37 -0.00    +0.010 A  
DOCKED: ATOM     22  C   UNL     1     142.987  80.277 223.334 -0.66 -0.00    +0.002 A  
DOCKED: ATOM     23  C   UNL     1     142.186  81.390 223.582 -0.60 -0.00    +0.001 A  
DOCKED: ENDBRANCH  11  14
DOCKED: ENDBRANCH   9  10
DOCKED: ENDBRANCH   7   9
DOCKED: ENDBRANCH   1   7
DOCKED: BRANCH   6  24
DOCKED: ATOM     24  C   UNL     1     139.160  70.637 224.571 -0.37 +0.00    -0.025 A  
DOCKED: ATOM     25  C   UNL     1     140.384  71.069 225.033 -0.52 -0.00    +0.006 A  
DOCKED: ATOM     26  C   UNL     1     138.536  69.653 225.342 -0.36 -0.00    +0.006 A  
DOCKED: ATOM     27  C   UNL     1     140.971  70.568 226.188 -0.59 -0.00    +0.013 A  
DOCKED: ATOM     28  C   UNL     1     139.113  69.150 226.491 -0.45 -0.00    +0.013 A  
DOCKED: ATOM     29  C   UNL     1     140.336  69.599 226.930 -0.52 -0.01    +0.056 A  
DOCKED: BRANCH  29  30
DOCKED: ATOM     30  C   UNL     1     140.901  69.018 228.170 -0.25 -0.09    +0.416 C  
DOCKED: ATOM     31  F   UNL     1     141.800  69.869 228.777 -0.10 +0.04    -0.166 F  
DOCKED: ATOM     32  F   UNL     1     141.459  67.775 227.897 -0.20 +0.05    -0.166 F  
DOCKED: ATOM     33  F   UNL     1     139.860  68.830 229.065 -0.18 +0.03    -0.166 F  
DOCKED: ENDBRANCH  29  30
DOCKED: ENDBRANCH   6  24
DOCKED: TORSDOF 6
DOCKED: TER
DOCKED: ENDMDL
________________________________________________________________________________


    FINAL DOCKED STATE:
    ________________________


Run:   14 / 20
Time taken for this run:   0.035s

DOCKED: MODEL        14
DOCKED: USER    Run = 14
DOCKED: USER
DOCKED: USER    Estimated Free Energy of Binding    =  -8.40 kcal/mol  [=(1)+(2)+(3)-(4)]
DOCKED: USER
DOCKED: USER    (1) Final Intermolecular Energy     = -10.19 kcal/mol
DOCKED: USER        vdW + Hbond + desolv Energy     = -10.09 kcal/mol
DOCKED: USER        Electrostatic Energy            =  -0.10 kcal/mol
DOCKED: USER        Moving Ligand-Fixed Receptor    = -10.19 kcal/mol
DOCKED: USER        Moving Ligand-Moving Receptor   =  +0.00 kcal/mol
DOCKED: USER    (2) Final Total Internal Energy     =  -1.57 kcal/mol
DOCKED: USER    (3) Torsional Free Energy           =  +1.79 kcal/mol
DOCKED: USER    (4) Unbound System's Energy         =  -1.57 kcal/mol
DOCKED: USER
DOCKED: USER
DOCKED: REMARK SMILES O=C(NCC(=O)N1CCCC[C@H]1c1ccc(C(F)(F)F)cc1)c1ccc2ccccc2n1
DOCKED: REMARK SMILES IDX 7 1 8 2 9 3 10 4 11 5 12 6 5 7 6 8 4 9 3 10 2 11 1 12 23 14
DOCKED: REMARK SMILES IDX 24 15 32 16 25 17 31 18 26 19 30 20 27 21 29 22 28 23 13 24
DOCKED: REMARK SMILES IDX 14 25 22 26 15 27 21 28 16 29 17 30 18 31 19 32 20 33
DOCKED: REMARK H PARENT 3 13
DOCKED: USER                              x       y       z     vdW  Elec       q    Type
DOCKED: USER                           _______ _______ _______ _____ _____    ______ ____
DOCKED: ROOT
DOCKED: ATOM      1  N   UNL     1     139.644  75.423 221.131 -0.10 +0.07    -0.334 N  
DOCKED: ATOM      2  C   UNL     1     139.572  76.049 222.433 -0.24 -0.02    +0.120 C  
DOCKED: ATOM      3  C   UNL     1     140.166  77.416 222.492 -0.36 -0.01    +0.022 C  
DOCKED: ATOM      4  C   UNL     1     141.349  77.584 221.559 -0.31 -0.00    +0.004 C  
DOCKED: ATOM      5  C   UNL     1     140.853  77.244 220.196 -0.21 -0.01    +0.030 C  
DOCKED: ATOM      6  C   UNL     1     140.636  75.759 220.132 -0.14 -0.04    +0.115 C  
DOCKED: ENDROOT
DOCKED: BRANCH   1   7
DOCKED: ATOM      7  C   UNL     1     138.696  74.414 220.780 -0.09 -0.05    +0.242 C  
DOCKED: ATOM      8  O   UNL     1     137.550  74.672 220.331 -0.03 +0.06    -0.273 OA 
DOCKED: BRANCH   7   9
DOCKED: ATOM      9  C   UNL     1     139.050  72.984 220.939 -0.09 -0.04    +0.216 C  
DOCKED: BRANCH   9  10
DOCKED: ATOM     10  N   UNL     1     139.293  72.613 222.297 -0.13 +0.08    -0.342 N  
DOCKED: ATOM     11  C   UNL     1     139.801  71.324 222.632 -0.19 -0.05    +0.270 C  
DOCKED: ATOM     12  O   UNL     1     140.046  70.474 221.714 -0.10 +0.04    -0.268 OA 
DOCKED: ATOM     13  H   UNL     1     139.113  73.263 223.095 -0.48 -0.07    +0.164 HD 
DOCKED: BRANCH  11  14
DOCKED: ATOM     14  C   UNL     1     140.038  70.980 224.033 -0.34 -0.02    +0.128 A  
DOCKED: ATOM     15  C   UNL     1     140.660  71.894 224.860 -0.34 -0.00    +0.035 A  
DOCKED: ATOM     16  N   UNL     1     139.652  69.782 224.507 -0.18 +0.04    -0.243 NA 
DOCKED: ATOM     17  C   UNL     1     140.876  71.547 226.190 -0.65 -0.00    +0.013 A  
DOCKED: ATOM     18  C   UNL     1     139.851  69.425 225.789 -0.42 -0.01    +0.071 A  
DOCKED: ATOM     19  C   UNL     1     140.470  70.302 226.665 -0.58 -0.00    +0.000 A  
DOCKED: ATOM     20  C   UNL     1     139.417  68.172 226.170 -0.55 -0.00    +0.029 A  
DOCKED: ATOM     21  C   UNL     1     140.646  69.889 227.949 -0.62 -0.00    +0.010 A  
DOCKED: ATOM     22  C   UNL     1     139.603  67.768 227.480 -0.47 -0.00    +0.002 A  
DOCKED: ATOM     23  C   UNL     1     140.224  68.642 228.369 -0.65 -0.00    +0.001 A  
DOCKED: ENDBRANCH  11  14
DOCKED: ENDBRANCH   9  10
DOCKED: ENDBRANCH   7   9
DOCKED: ENDBRANCH   1   7
DOCKED: BRANCH   6  24
DOCKED: ATOM     24  C   UNL     1     141.918  75.028 220.285 -0.26 +0.01    -0.025 A  
DOCKED: ATOM     25  C   UNL     1     142.005  73.731 220.744 -0.27 -0.00    +0.006 A  
DOCKED: ATOM     26  C   UNL     1     143.132  75.634 219.954 -0.36 -0.00    +0.006 A  
DOCKED: ATOM     27  C   UNL     1     143.214  73.059 220.874 -0.26 -0.00    +0.013 A  
DOCKED: ATOM     28  C   UNL     1     144.337  74.973 220.080 -0.40 -0.01    +0.013 A  
DOCKED: ATOM     29  C   UNL     1     144.396  73.679 220.541 -0.44 -0.01    +0.056 A  
DOCKED: BRANCH  29  30
DOCKED: ATOM     30  C   UNL     1     145.721  73.026 220.654 -0.30 -0.01    +0.416 C  
DOCKED: ATOM     31  F   UNL     1     146.113  72.875 221.966 -0.25 +0.05    -0.166 F  
DOCKED: ATOM     32  F   UNL     1     146.658  73.728 219.906 -0.19 -0.05    -0.166 F  
DOCKED: ATOM     33  F   UNL     1     145.616  71.754 220.117 -0.09 -0.03    -0.166 F  
DOCKED: ENDBRANCH  29  30
DOCKED: ENDBRANCH   6  24
DOCKED: TORSDOF 6
DOCKED: TER
DOCKED: ENDMDL
________________________________________________________________________________


    FINAL DOCKED STATE:
    ________________________


Run:   15 / 20
Time taken for this run:   0.035s

DOCKED: MODEL        15
DOCKED: USER    Run = 15
DOCKED: USER
DOCKED: USER    Estimated Free Energy of Binding    =  -8.51 kcal/mol  [=(1)+(2)+(3)-(4)]
DOCKED: USER
DOCKED: USER    (1) Final Intermolecular Energy     = -10.30 kcal/mol
DOCKED: USER        vdW + Hbond + desolv Energy     = -10.13 kcal/mol
DOCKED: USER        Electrostatic Energy            =  -0.17 kcal/mol
DOCKED: USER        Moving Ligand-Fixed Receptor    = -10.30 kcal/mol
DOCKED: USER        Moving Ligand-Moving Receptor   =  +0.00 kcal/mol
DOCKED: USER    (2) Final Total Internal Energy     =  -1.75 kcal/mol
DOCKED: USER    (3) Torsional Free Energy           =  +1.79 kcal/mol
DOCKED: USER    (4) Unbound System's Energy         =  -1.75 kcal/mol
DOCKED: USER
DOCKED: USER
DOCKED: REMARK SMILES O=C(NCC(=O)N1CCCC[C@H]1c1ccc(C(F)(F)F)cc1)c1ccc2ccccc2n1
DOCKED: REMARK SMILES IDX 7 1 8 2 9 3 10 4 11 5 12 6 5 7 6 8 4 9 3 10 2 11 1 12 23 14
DOCKED: REMARK SMILES IDX 24 15 32 16 25 17 31 18 26 19 30 20 27 21 29 22 28 23 13 24
DOCKED: REMARK SMILES IDX 14 25 22 26 15 27 21 28 16 29 17 30 18 31 19 32 20 33
DOCKED: REMARK H PARENT 3 13
DOCKED: USER                              x       y       z     vdW  Elec       q    Type
DOCKED: USER                           _______ _______ _______ _____ _____    ______ ____
DOCKED: ROOT
DOCKED: ATOM      1  N   UNL     1     140.003  76.602 221.436 -0.12 +0.09    -0.334 N  
DOCKED: ATOM      2  C   UNL     1     140.433  77.447 222.529 -0.32 -0.03    +0.120 C  
DOCKED: ATOM      3  C   UNL     1     141.060  78.731 222.105 -0.41 -0.01    +0.022 C  
DOCKED: ATOM      4  C   UNL     1     141.827  78.610 220.803 -0.32 -0.00    +0.004 C  
DOCKED: ATOM      5  C   UNL     1     140.857  78.097 219.796 -0.19 -0.01    +0.030 C  
DOCKED: ATOM      6  C   UNL     1     140.575  76.654 220.107 -0.14 -0.04    +0.115 C  
DOCKED: ENDROOT
DOCKED: BRANCH   1   7
DOCKED: ATOM      7  C   UNL     1     138.955  75.655 221.645 -0.19 -0.05    +0.242 C  
DOCKED: ATOM      8  O   UNL     1     137.849  75.956 222.163 -0.18 +0.06    -0.273 OA 
DOCKED: BRANCH   7   9
DOCKED: ATOM      9  C   UNL     1     139.148  74.242 221.244 -0.15 -0.05    +0.216 C  
DOCKED: BRANCH   9  10
DOCKED: ATOM     10  N   UNL     1     139.112  73.335 222.347 -0.08 +0.09    -0.342 N  
DOCKED: ATOM     11  C   UNL     1     140.155  72.386 222.559 -0.20 -0.03    +0.270 C  
DOCKED: ATOM     12  O   UNL     1     141.145  72.333 221.757 -0.22 +0.02    -0.268 OA 
DOCKED: ATOM     13  H   UNL     1     138.330  73.327 223.040 -0.50 -0.11    +0.164 HD 
DOCKED: BRANCH  11  14
DOCKED: ATOM     14  C   UNL     1     140.085  71.474 223.698 -0.34 -0.02    +0.128 A  
DOCKED: ATOM     15  C   UNL     1     139.547  70.214 223.527 -0.28 -0.01    +0.035 A  
DOCKED: ATOM     16  N   UNL     1     140.542  71.864 224.902 -0.27 +0.04    -0.243 NA 
DOCKED: ATOM     17  C   UNL     1     139.490  69.362 224.626 -0.35 -0.00    +0.013 A  
DOCKED: ATOM     18  C   UNL     1     140.497  71.057 225.978 -0.54 -0.01    +0.071 A  
DOCKED: ATOM     19  C   UNL     1     139.968  69.781 225.865 -0.48 -0.00    +0.000 A  
DOCKED: ATOM     20  C   UNL     1     140.992  71.557 227.164 -0.74 -0.01    +0.029 A  
DOCKED: ATOM     21  C   UNL     1     139.946  69.008 226.985 -0.58 -0.00    +0.010 A  
DOCKED: ATOM     22  C   UNL     1     140.964  70.758 228.292 -0.61 -0.00    +0.002 A  
DOCKED: ATOM     23  C   UNL     1     140.434  69.474 228.191 -0.63 -0.00    +0.001 A  
DOCKED: ENDBRANCH  11  14
DOCKED: ENDBRANCH   9  10
DOCKED: ENDBRANCH   7   9
DOCKED: ENDBRANCH   1   7
DOCKED: BRANCH   6  24
DOCKED: ATOM     24  C   UNL     1     141.796  75.828 219.944 -0.24 +0.01    -0.025 A  
DOCKED: ATOM     25  C   UNL     1     142.612  75.885 218.834 -0.27 -0.00    +0.006 A  
DOCKED: ATOM     26  C   UNL     1     142.194  74.932 220.940 -0.26 -0.00    +0.006 A  
DOCKED: ATOM     27  C   UNL     1     143.757  75.109 218.702 -0.23 -0.01    +0.013 A  
DOCKED: ATOM     28  C   UNL     1     143.330  74.158 220.815 -0.29 -0.00    +0.013 A  
DOCKED: ATOM     29  C   UNL     1     144.126  74.234 219.698 -0.35 -0.02    +0.056 A  
DOCKED: BRANCH  29  30
DOCKED: ATOM     30  C   UNL     1     145.331  73.376 219.625 -0.19 +0.01    +0.416 C  
DOCKED: ATOM     31  F   UNL     1     145.886  73.369 218.364 -0.09 -0.08    -0.166 F  
DOCKED: ATOM     32  F   UNL     1     145.025  72.095 220.068 -0.11 -0.01    -0.166 F  
DOCKED: ATOM     33  F   UNL     1     146.283  73.905 220.480 -0.26 +0.00    -0.166 F  
DOCKED: ENDBRANCH  29  30
DOCKED: ENDBRANCH   6  24
DOCKED: TORSDOF 6
DOCKED: TER
DOCKED: ENDMDL
________________________________________________________________________________


    FINAL DOCKED STATE:
    ________________________


Run:   16 / 20
Time taken for this run:   0.035s

DOCKED: MODEL        16
DOCKED: USER    Run = 16
DOCKED: USER
DOCKED: USER    Estimated Free Energy of Binding    =  -8.14 kcal/mol  [=(1)+(2)+(3)-(4)]
DOCKED: USER
DOCKED: USER    (1) Final Intermolecular Energy     =  -9.93 kcal/mol
DOCKED: USER        vdW + Hbond + desolv Energy     =  -9.89 kcal/mol
DOCKED: USER        Electrostatic Energy            =  -0.04 kcal/mol
DOCKED: USER        Moving Ligand-Fixed Receptor    =  -9.93 kcal/mol
DOCKED: USER        Moving Ligand-Moving Receptor   =  +0.00 kcal/mol
DOCKED: USER    (2) Final Total Internal Energy     =  -2.07 kcal/mol
DOCKED: USER    (3) Torsional Free Energy           =  +1.79 kcal/mol
DOCKED: USER    (4) Unbound System's Energy         =  -2.07 kcal/mol
DOCKED: USER
DOCKED: USER
DOCKED: REMARK SMILES O=C(NCC(=O)N1CCCC[C@H]1c1ccc(C(F)(F)F)cc1)c1ccc2ccccc2n1
DOCKED: REMARK SMILES IDX 7 1 8 2 9 3 10 4 11 5 12 6 5 7 6 8 4 9 3 10 2 11 1 12 23 14
DOCKED: REMARK SMILES IDX 24 15 32 16 25 17 31 18 26 19 30 20 27 21 29 22 28 23 13 24
DOCKED: REMARK SMILES IDX 14 25 22 26 15 27 21 28 16 29 17 30 18 31 19 32 20 33
DOCKED: REMARK H PARENT 3 13
DOCKED: USER                              x       y       z     vdW  Elec       q    Type
DOCKED: USER                           _______ _______ _______ _____ _____    ______ ____
DOCKED: ROOT
DOCKED: ATOM      1  N   UNL     1     139.436  71.445 222.167 -0.10 +0.06    -0.334 N  
DOCKED: ATOM      2  C   UNL     1     140.002  70.487 221.242 -0.11 -0.02    +0.120 C  
DOCKED: ATOM      3  C   UNL     1     139.117  69.323 220.945 -0.12 -0.00    +0.022 C  
DOCKED: ATOM      4  C   UNL     1     138.255  68.923 222.126 -0.17 -0.00    +0.004 C  
DOCKED: ATOM      5  C   UNL     1     137.480  70.137 222.503 -0.13 -0.01    +0.030 C  
DOCKED: ATOM      6  C   UNL     1     138.422  71.116 223.145 -0.21 -0.03    +0.115 C  
DOCKED: ENDROOT
DOCKED: BRANCH   1   7
DOCKED: ATOM      7  C   UNL     1     139.881  72.802 222.136 -0.20 -0.04    +0.242 C  
DOCKED: ATOM      8  O   UNL     1     141.077  73.139 222.331 -0.55 -0.01    -0.273 OA 
DOCKED: BRANCH   7   9
DOCKED: ATOM      9  C   UNL     1     138.912  73.889 221.864 -0.14 -0.05    +0.216 C  
DOCKED: BRANCH   9  10
DOCKED: ATOM     10  N   UNL     1     139.427  75.188 222.157 -0.16 +0.06    -0.342 N  
DOCKED: ATOM     11  C   UNL     1     138.558  76.292 222.403 -0.20 -0.06    +0.270 C  
DOCKED: ATOM     12  O   UNL     1     137.294  76.131 222.362 -0.17 +0.06    -0.268 OA 
DOCKED: ATOM     13  H   UNL     1     140.453  75.385 222.204 +0.04 -0.02    +0.164 HD 
DOCKED: BRANCH  11  14
DOCKED: ATOM     14  C   UNL     1     139.122  77.606 222.700 -0.25 -0.02    +0.128 A  
DOCKED: ATOM     15  C   UNL     1     138.275  78.675 222.916 -0.25 -0.01    +0.035 A  
DOCKED: ATOM     16  N   UNL     1     140.456  77.769 222.762 -0.24 +0.07    -0.243 NA 
DOCKED: ATOM     17  C   UNL     1     138.833  79.918 223.198 -0.34 -0.00    +0.013 A  
DOCKED: ATOM     18  C   UNL     1     141.017  78.961 223.032 -0.46 -0.02    +0.071 A  
DOCKED: ATOM     19  C   UNL     1     140.217  80.069 223.258 -0.44 -0.00    +0.000 A  
DOCKED: ATOM     20  C   UNL     1     142.395  79.016 223.071 -0.52 -0.01    +0.029 A  
DOCKED: ATOM     21  C   UNL     1     140.837  81.250 223.527 -0.41 -0.00    +0.010 A  
DOCKED: ATOM     22  C   UNL     1     143.010  80.224 223.346 -0.66 -0.00    +0.002 A  
DOCKED: ATOM     23  C   UNL     1     142.215  81.345 223.575 -0.60 -0.00    +0.001 A  
DOCKED: ENDBRANCH  11  14
DOCKED: ENDBRANCH   9  10
DOCKED: ENDBRANCH   7   9
DOCKED: ENDBRANCH   1   7
DOCKED: BRANCH   6  24
DOCKED: ATOM     24  C   UNL     1     138.964  70.575 224.416 -0.35 +0.00    -0.025 A  
DOCKED: ATOM     25  C   UNL     1     138.370  69.551 225.123 -0.35 -0.00    +0.006 A  
DOCKED: ATOM     26  C   UNL     1     140.140  71.087 224.970 -0.50 -0.00    +0.006 A  
DOCKED: ATOM     27  C   UNL     1     138.896  69.052 226.308 -0.40 -0.00    +0.013 A  
DOCKED: ATOM     28  C   UNL     1     140.668  70.597 226.147 -0.58 -0.00    +0.013 A  
DOCKED: ATOM     29  C   UNL     1     140.056  69.575 226.832 -0.51 -0.01    +0.056 A  
DOCKED: BRANCH  29  30
DOCKED: ATOM     30  C   UNL     1     140.673  69.094 228.089 -0.28 -0.09    +0.416 C  
DOCKED: ATOM     31  F   UNL     1     141.446  67.970 227.890 -0.21 +0.05    -0.166 F  
DOCKED: ATOM     32  F   UNL     1     139.690  68.889 229.049 -0.17 +0.02    -0.166 F  
DOCKED: ATOM     33  F   UNL     1     141.521  70.086 228.554 -0.14 +0.03    -0.166 F  
DOCKED: ENDBRANCH  29  30
DOCKED: ENDBRANCH   6  24
DOCKED: TORSDOF 6
DOCKED: TER
DOCKED: ENDMDL
________________________________________________________________________________


    FINAL DOCKED STATE:
    ________________________


Run:   17 / 20
Time taken for this run:   0.035s

DOCKED: MODEL        17
DOCKED: USER    Run = 17
DOCKED: USER
DOCKED: USER    Estimated Free Energy of Binding    =  -8.18 kcal/mol  [=(1)+(2)+(3)-(4)]
DOCKED: USER
DOCKED: USER    (1) Final Intermolecular Energy     =  -9.97 kcal/mol
DOCKED: USER        vdW + Hbond + desolv Energy     =  -9.88 kcal/mol
DOCKED: USER        Electrostatic Energy            =  -0.09 kcal/mol
DOCKED: USER        Moving Ligand-Fixed Receptor    =  -9.97 kcal/mol
DOCKED: USER        Moving Ligand-Moving Receptor   =  +0.00 kcal/mol
DOCKED: USER    (2) Final Total Internal Energy     =  -1.91 kcal/mol
DOCKED: USER    (3) Torsional Free Energy           =  +1.79 kcal/mol
DOCKED: USER    (4) Unbound System's Energy         =  -1.91 kcal/mol
DOCKED: USER
DOCKED: USER
DOCKED: REMARK SMILES O=C(NCC(=O)N1CCCC[C@H]1c1ccc(C(F)(F)F)cc1)c1ccc2ccccc2n1
DOCKED: REMARK SMILES IDX 7 1 8 2 9 3 10 4 11 5 12 6 5 7 6 8 4 9 3 10 2 11 1 12 23 14
DOCKED: REMARK SMILES IDX 24 15 32 16 25 17 31 18 26 19 30 20 27 21 29 22 28 23 13 24
DOCKED: REMARK SMILES IDX 14 25 22 26 15 27 21 28 16 29 17 30 18 31 19 32 20 33
DOCKED: REMARK H PARENT 3 13
DOCKED: USER                              x       y       z     vdW  Elec       q    Type
DOCKED: USER                           _______ _______ _______ _____ _____    ______ ____
DOCKED: ROOT
DOCKED: ATOM      1  N   UNL     1     139.020  75.549 221.152 -0.08 +0.07    -0.334 N  
DOCKED: ATOM      2  C   UNL     1     137.656  75.897 221.489 -0.14 -0.03    +0.120 C  
DOCKED: ATOM      3  C   UNL     1     136.985  76.784 220.496 -0.05 -0.00    +0.022 C  
DOCKED: ATOM      4  C   UNL     1     137.943  77.750 219.826 -0.04 -0.00    +0.004 C  
DOCKED: ATOM      5  C   UNL     1     139.007  76.913 219.205 -0.04 -0.01    +0.030 C  
DOCKED: ATOM      6  C   UNL     1     139.869  76.357 220.303 -0.11 -0.03    +0.115 C  
DOCKED: ENDROOT
DOCKED: BRANCH   1   7
DOCKED: ATOM      7  C   UNL     1     139.589  74.345 221.668 -0.19 -0.04    +0.242 C  
DOCKED: ATOM      8  O   UNL     1     140.785  74.256 222.044 -0.72 -0.00    -0.273 OA 
DOCKED: BRANCH   7   9
DOCKED: ATOM      9  C   UNL     1     138.755  73.125 221.781 -0.14 -0.05    +0.216 C  
DOCKED: BRANCH   9  10
DOCKED: ATOM     10  N   UNL     1     139.122  72.294 222.882 -0.07 +0.10    -0.342 N  
DOCKED: ATOM     11  C   UNL     1     138.708  70.931 222.950 -0.15 -0.06    +0.270 C  
DOCKED: ATOM     12  O   UNL     1     137.996  70.431 222.018 -0.05 +0.05    -0.268 OA 
DOCKED: ATOM     13  H   UNL     1     139.703  72.643 223.677 -0.24 -0.05    +0.164 HD 
DOCKED: BRANCH  11  14
DOCKED: ATOM     14  C   UNL     1     139.103  70.110 224.093 -0.26 -0.02    +0.128 A  
DOCKED: ATOM     15  C   UNL     1     138.832  68.756 224.082 -0.32 -0.00    +0.035 A  
DOCKED: ATOM     16  N   UNL     1     139.725  70.673 225.144 -0.26 +0.04    -0.243 NA 
DOCKED: ATOM     17  C   UNL     1     139.217  67.993 225.181 -0.43 -0.00    +0.013 A  
DOCKED: ATOM     18  C   UNL     1     140.106  69.956 226.217 -0.46 -0.01    +0.071 A  
DOCKED: ATOM     19  C   UNL     1     139.860  68.592 226.261 -0.57 -0.00    +0.000 A  
DOCKED: ATOM     20  C   UNL     1     140.736  70.634 227.239 -0.62 -0.00    +0.029 A  
DOCKED: ATOM     21  C   UNL     1     140.266  67.916 227.369 -0.62 -0.00    +0.010 A  
DOCKED: ATOM     22  C   UNL     1     141.143  69.931 228.359 -0.53 -0.00    +0.002 A  
DOCKED: ATOM     23  C   UNL     1     140.901  68.560 228.414 -0.66 -0.00    +0.001 A  
DOCKED: ENDBRANCH  11  14
DOCKED: ENDBRANCH   9  10
DOCKED: ENDBRANCH   7   9
DOCKED: ENDBRANCH   1   7
DOCKED: BRANCH   6  24
DOCKED: ATOM     24  C   UNL     1     140.581  77.443 221.020 -0.25 +0.01    -0.025 A  
DOCKED: ATOM     25  C   UNL     1     141.099  78.557 220.395 -0.25 -0.00    +0.006 A  
DOCKED: ATOM     26  C   UNL     1     140.759  77.391 222.405 -0.43 -0.00    +0.006 A  
DOCKED: ATOM     27  C   UNL     1     141.756  79.569 221.084 -0.36 -0.01    +0.013 A  
DOCKED: ATOM     28  C   UNL     1     141.411  78.391 223.096 -0.54 -0.00    +0.013 A  
DOCKED: ATOM     29  C   UNL     1     141.918  79.492 222.448 -0.50 -0.02    +0.056 A  
DOCKED: BRANCH  29  30
DOCKED: ATOM     30  C   UNL     1     142.607  80.531 223.248 -0.32 -0.10    +0.416 C  
DOCKED: ATOM     31  F   UNL     1     143.971  80.514 223.052 -0.23 +0.05    -0.166 F  
DOCKED: ATOM     32  F   UNL     1     142.270  80.395 224.589 -0.06 +0.03    -0.166 F  
DOCKED: ATOM     33  F   UNL     1     142.156  81.768 222.820 -0.16 +0.03    -0.166 F  
DOCKED: ENDBRANCH  29  30
DOCKED: ENDBRANCH   6  24
DOCKED: TORSDOF 6
DOCKED: TER
DOCKED: ENDMDL
________________________________________________________________________________


    FINAL DOCKED STATE:
    ________________________


Run:   18 / 20
Time taken for this run:   0.035s

DOCKED: MODEL        18
DOCKED: USER    Run = 18
DOCKED: USER
DOCKED: USER    Estimated Free Energy of Binding    =  -8.28 kcal/mol  [=(1)+(2)+(3)-(4)]
DOCKED: USER
DOCKED: USER    (1) Final Intermolecular Energy     = -10.07 kcal/mol
DOCKED: USER        vdW + Hbond + desolv Energy     = -10.03 kcal/mol
DOCKED: USER        Electrostatic Energy            =  -0.04 kcal/mol
DOCKED: USER        Moving Ligand-Fixed Receptor    = -10.07 kcal/mol
DOCKED: USER        Moving Ligand-Moving Receptor   =  +0.00 kcal/mol
DOCKED: USER    (2) Final Total Internal Energy     =  -2.05 kcal/mol
DOCKED: USER    (3) Torsional Free Energy           =  +1.79 kcal/mol
DOCKED: USER    (4) Unbound System's Energy         =  -2.05 kcal/mol
DOCKED: USER
DOCKED: USER
DOCKED: REMARK SMILES O=C(NCC(=O)N1CCCC[C@H]1c1ccc(C(F)(F)F)cc1)c1ccc2ccccc2n1
DOCKED: REMARK SMILES IDX 7 1 8 2 9 3 10 4 11 5 12 6 5 7 6 8 4 9 3 10 2 11 1 12 23 14
DOCKED: REMARK SMILES IDX 24 15 32 16 25 17 31 18 26 19 30 20 27 21 29 22 28 23 13 24
DOCKED: REMARK SMILES IDX 14 25 22 26 15 27 21 28 16 29 17 30 18 31 19 32 20 33
DOCKED: REMARK H PARENT 3 13
DOCKED: USER                              x       y       z     vdW  Elec       q    Type
DOCKED: USER                           _______ _______ _______ _____ _____    ______ ____
DOCKED: ROOT
DOCKED: ATOM      1  N   UNL     1     139.440  71.450 222.300 -0.11 +0.06    -0.334 N  
DOCKED: ATOM      2  C   UNL     1     139.921  70.475 221.346 -0.12 -0.02    +0.120 C  
DOCKED: ATOM      3  C   UNL     1     139.011  69.310 221.145 -0.12 -0.00    +0.022 C  
DOCKED: ATOM      4  C   UNL     1     138.252  68.932 222.402 -0.19 -0.00    +0.004 C  
DOCKED: ATOM      5  C   UNL     1     137.516  70.156 222.825 -0.16 -0.01    +0.030 C  
DOCKED: ATOM      6  C   UNL     1     138.513  71.141 223.367 -0.23 -0.03    +0.115 C  
DOCKED: ENDROOT
DOCKED: BRANCH   1   7
DOCKED: ATOM      7  C   UNL     1     139.884  72.804 222.209 -0.20 -0.04    +0.242 C  
DOCKED: ATOM      8  O   UNL     1     141.088  73.144 222.332 -0.54 -0.01    -0.273 OA 
DOCKED: BRANCH   7   9
DOCKED: ATOM      9  C   UNL     1     138.903  73.887 221.958 -0.14 -0.06    +0.216 C  
DOCKED: BRANCH   9  10
DOCKED: ATOM     10  N   UNL     1     139.425  75.190 222.219 -0.16 +0.06    -0.342 N  
DOCKED: ATOM     11  C   UNL     1     138.561  76.300 222.451 -0.19 -0.06    +0.270 C  
DOCKED: ATOM     12  O   UNL     1     137.296  76.142 222.429 -0.18 +0.06    -0.268 OA 
DOCKED: ATOM     13  H   UNL     1     140.451  75.385 222.250 +0.04 -0.02    +0.164 HD 
DOCKED: BRANCH  11  14
DOCKED: ATOM     14  C   UNL     1     139.131  77.619 222.715 -0.25 -0.02    +0.128 A  
DOCKED: ATOM     15  C   UNL     1     138.290  78.698 222.901 -0.25 -0.01    +0.035 A  
DOCKED: ATOM     16  N   UNL     1     140.466  77.776 222.776 -0.24 +0.07    -0.243 NA 
DOCKED: ATOM     17  C   UNL     1     138.854  79.945 223.152 -0.34 -0.00    +0.013 A  
DOCKED: ATOM     18  C   UNL     1     141.034  78.972 223.016 -0.46 -0.02    +0.071 A  
DOCKED: ATOM     19  C   UNL     1     140.238  80.090 223.211 -0.43 -0.00    +0.000 A  
DOCKED: ATOM     20  C   UNL     1     142.412  79.021 223.057 -0.51 -0.01    +0.029 A  
DOCKED: ATOM     21  C   UNL     1     140.865  81.274 223.450 -0.42 -0.00    +0.010 A  
DOCKED: ATOM     22  C   UNL     1     143.033  80.232 223.302 -0.65 -0.00    +0.002 A  
DOCKED: ATOM     23  C   UNL     1     142.243  81.363 223.499 -0.58 -0.00    +0.001 A  
DOCKED: ENDBRANCH  11  14
DOCKED: ENDBRANCH   9  10
DOCKED: ENDBRANCH   7   9
DOCKED: ENDBRANCH   1   7
DOCKED: BRANCH   6  24
DOCKED: ATOM     24  C   UNL     1     139.160  70.619 224.596 -0.37 +0.00    -0.025 A  
DOCKED: ATOM     25  C   UNL     1     140.352  71.102 225.093 -0.53 -0.00    +0.006 A  
DOCKED: ATOM     26  C   UNL     1     138.572  69.588 225.333 -0.37 -0.00    +0.006 A  
DOCKED: ATOM     27  C   UNL     1     140.940  70.606 226.250 -0.59 -0.00    +0.013 A  
DOCKED: ATOM     28  C   UNL     1     139.150  69.090 226.483 -0.47 -0.00    +0.013 A  
DOCKED: ATOM     29  C   UNL     1     140.340  69.590 226.957 -0.53 -0.01    +0.056 A  
DOCKED: BRANCH  29  30
DOCKED: ATOM     30  C   UNL     1     140.908  69.011 228.197 -0.25 -0.09    +0.416 C  
DOCKED: ATOM     31  F   UNL     1     141.825  69.854 228.788 -0.10 +0.04    -0.166 F  
DOCKED: ATOM     32  F   UNL     1     141.446  67.759 227.929 -0.21 +0.05    -0.166 F  
DOCKED: ATOM     33  F   UNL     1     139.873  68.845 229.103 -0.17 +0.03    -0.166 F  
DOCKED: ENDBRANCH  29  30
DOCKED: ENDBRANCH   6  24
DOCKED: TORSDOF 6
DOCKED: TER
DOCKED: ENDMDL
________________________________________________________________________________


    FINAL DOCKED STATE:
    ________________________


Run:   19 / 20
Time taken for this run:   0.035s

DOCKED: MODEL        19
DOCKED: USER    Run = 19
DOCKED: USER
DOCKED: USER    Estimated Free Energy of Binding    =  -8.15 kcal/mol  [=(1)+(2)+(3)-(4)]
DOCKED: USER
DOCKED: USER    (1) Final Intermolecular Energy     =  -9.94 kcal/mol
DOCKED: USER        vdW + Hbond + desolv Energy     =  -9.86 kcal/mol
DOCKED: USER        Electrostatic Energy            =  -0.09 kcal/mol
DOCKED: USER        Moving Ligand-Fixed Receptor    =  -9.94 kcal/mol
DOCKED: USER        Moving Ligand-Moving Receptor   =  +0.00 kcal/mol
DOCKED: USER    (2) Final Total Internal Energy     =  -1.94 kcal/mol
DOCKED: USER    (3) Torsional Free Energy           =  +1.79 kcal/mol
DOCKED: USER    (4) Unbound System's Energy         =  -1.94 kcal/mol
DOCKED: USER
DOCKED: USER
DOCKED: REMARK SMILES O=C(NCC(=O)N1CCCC[C@H]1c1ccc(C(F)(F)F)cc1)c1ccc2ccccc2n1
DOCKED: REMARK SMILES IDX 7 1 8 2 9 3 10 4 11 5 12 6 5 7 6 8 4 9 3 10 2 11 1 12 23 14
DOCKED: REMARK SMILES IDX 24 15 32 16 25 17 31 18 26 19 30 20 27 21 29 22 28 23 13 24
DOCKED: REMARK SMILES IDX 14 25 22 26 15 27 21 28 16 29 17 30 18 31 19 32 20 33
DOCKED: REMARK H PARENT 3 13
DOCKED: USER                              x       y       z     vdW  Elec       q    Type
DOCKED: USER                           _______ _______ _______ _____ _____    ______ ____
DOCKED: ROOT
DOCKED: ATOM      1  N   UNL     1     139.599  75.518 220.624 -0.05 +0.08    -0.334 N  
DOCKED: ATOM      2  C   UNL     1     138.199  75.792 220.379 -0.06 -0.03    +0.120 C  
DOCKED: ATOM      3  C   UNL     1     137.932  76.547 219.121 -0.02 -0.00    +0.022 C  
DOCKED: ATOM      4  C   UNL     1     139.038  77.523 218.773 -0.04 -0.00    +0.004 C  
DOCKED: ATOM      5  C   UNL     1     140.289  76.719 218.692 -0.07 -0.01    +0.030 C  
DOCKED: ATOM      6  C   UNL     1     140.680  76.316 220.086 -0.14 -0.04    +0.115 C  
DOCKED: ENDROOT
DOCKED: BRANCH   1   7
DOCKED: ATOM      7  C   UNL     1     139.967  74.404 221.437 -0.20 -0.04    +0.242 C  
DOCKED: ATOM      8  O   UNL     1     141.063  74.331 222.050 -0.61 -0.00    -0.273 OA 
DOCKED: BRANCH   7   9
DOCKED: ATOM      9  C   UNL     1     139.036  73.260 221.586 -0.15 -0.05    +0.216 C  
DOCKED: BRANCH   9  10
DOCKED: ATOM     10  N   UNL     1     139.311  72.458 222.735 -0.11 +0.09    -0.342 N  
DOCKED: ATOM     11  C   UNL     1     138.950  71.079 222.779 -0.15 -0.06    +0.270 C  
DOCKED: ATOM     12  O   UNL     1     138.371  70.538 221.781 -0.06 +0.05    -0.268 OA 
DOCKED: ATOM     13  H   UNL     1     139.783  72.842 223.585 -0.28 -0.04    +0.164 HD 
DOCKED: BRANCH  11  14
DOCKED: ATOM     14  C   UNL     1     139.248  70.290 223.972 -0.27 -0.02    +0.128 A  
DOCKED: ATOM     15  C   UNL     1     138.904  68.953 224.005 -0.30 -0.00    +0.035 A  
DOCKED: ATOM     16  N   UNL     1     139.851  70.866 225.028 -0.28 +0.04    -0.243 NA 
DOCKED: ATOM     17  C   UNL     1     139.197  68.220 225.151 -0.45 -0.00    +0.013 A  
DOCKED: ATOM     18  C   UNL     1     140.143  70.177 226.146 -0.47 -0.01    +0.071 A  
DOCKED: ATOM     19  C   UNL     1     139.822  68.832 226.235 -0.54 -0.00    +0.000 A  
DOCKED: ATOM     20  C   UNL     1     140.762  70.865 227.168 -0.65 -0.00    +0.029 A  
DOCKED: ATOM     21  C   UNL     1     140.139  68.184 227.388 -0.66 -0.00    +0.010 A  
DOCKED: ATOM     22  C   UNL     1     141.079  70.192 228.334 -0.56 -0.00    +0.002 A  
DOCKED: ATOM     23  C   UNL     1     140.760  68.839 228.435 -0.64 -0.00    +0.001 A  
DOCKED: ENDBRANCH  11  14
DOCKED: ENDBRANCH   9  10
DOCKED: ENDBRANCH   7   9
DOCKED: ENDBRANCH   1   7
DOCKED: BRANCH   6  24
DOCKED: ATOM     24  C   UNL     1     141.020  77.504 220.907 -0.28 +0.01    -0.025 A  
DOCKED: ATOM     25  C   UNL     1     141.570  78.656 220.388 -0.29 -0.00    +0.006 A  
DOCKED: ATOM     26  C   UNL     1     140.784  77.515 222.284 -0.43 -0.00    +0.006 A  
DOCKED: ATOM     27  C   UNL     1     141.875  79.762 221.171 -0.37 -0.01    +0.013 A  
DOCKED: ATOM     28  C   UNL     1     141.084  78.610 223.069 -0.52 -0.00    +0.013 A  
DOCKED: ATOM     29  C   UNL     1     141.632  79.747 222.526 -0.47 -0.02    +0.056 A  
DOCKED: BRANCH  29  30
DOCKED: ATOM     30  C   UNL     1     141.932  80.887 223.422 -0.30 -0.08    +0.416 C  
DOCKED: ATOM     31  F   UNL     1     143.064  80.669 224.177 -0.23 +0.03    -0.166 F  
DOCKED: ATOM     32  F   UNL     1     140.824  81.170 224.212 -0.11 +0.02    -0.166 F  
DOCKED: ATOM     33  F   UNL     1     142.184  81.996 222.631 -0.11 +0.02    -0.166 F  
DOCKED: ENDBRANCH  29  30
DOCKED: ENDBRANCH   6  24
DOCKED: TORSDOF 6
DOCKED: TER
DOCKED: ENDMDL
________________________________________________________________________________


    FINAL DOCKED STATE:
    ________________________


Run:   20 / 20
Time taken for this run:   0.035s

DOCKED: MODEL        20
DOCKED: USER    Run = 20
DOCKED: USER
DOCKED: USER    Estimated Free Energy of Binding    =  -8.21 kcal/mol  [=(1)+(2)+(3)-(4)]
DOCKED: USER
DOCKED: USER    (1) Final Intermolecular Energy     = -10.00 kcal/mol
DOCKED: USER        vdW + Hbond + desolv Energy     =  -9.96 kcal/mol
DOCKED: USER        Electrostatic Energy            =  -0.04 kcal/mol
DOCKED: USER        Moving Ligand-Fixed Receptor    = -10.00 kcal/mol
DOCKED: USER        Moving Ligand-Moving Receptor   =  +0.00 kcal/mol
DOCKED: USER    (2) Final Total Internal Energy     =  -2.10 kcal/mol
DOCKED: USER    (3) Torsional Free Energy           =  +1.79 kcal/mol
DOCKED: USER    (4) Unbound System's Energy         =  -2.10 kcal/mol
DOCKED: USER
DOCKED: USER
DOCKED: REMARK SMILES O=C(NCC(=O)N1CCCC[C@H]1c1ccc(C(F)(F)F)cc1)c1ccc2ccccc2n1
DOCKED: REMARK SMILES IDX 7 1 8 2 9 3 10 4 11 5 12 6 5 7 6 8 4 9 3 10 2 11 1 12 23 14
DOCKED: REMARK SMILES IDX 24 15 32 16 25 17 31 18 26 19 30 20 27 21 29 22 28 23 13 24
DOCKED: REMARK SMILES IDX 14 25 22 26 15 27 21 28 16 29 17 30 18 31 19 32 20 33
DOCKED: REMARK H PARENT 3 13
DOCKED: USER                              x       y       z     vdW  Elec       q    Type
DOCKED: USER                           _______ _______ _______ _____ _____    ______ ____
DOCKED: ROOT
DOCKED: ATOM      1  N   UNL     1     139.462  71.438 222.277 -0.11 +0.06    -0.334 N  
DOCKED: ATOM      2  C   UNL     1     139.967  70.471 221.326 -0.11 -0.02    +0.120 C  
DOCKED: ATOM      3  C   UNL     1     139.072  69.299 221.107 -0.12 -0.00    +0.022 C  
DOCKED: ATOM      4  C   UNL     1     138.299  68.908 222.350 -0.19 -0.00    +0.004 C  
DOCKED: ATOM      5  C   UNL     1     137.544  70.122 222.768 -0.16 -0.01    +0.030 C  
DOCKED: ATOM      6  C   UNL     1     138.523  71.114 223.330 -0.23 -0.03    +0.115 C  
DOCKED: ENDROOT
DOCKED: BRANCH   1   7
DOCKED: ATOM      7  C   UNL     1     139.894  72.797 222.200 -0.20 -0.04    +0.242 C  
DOCKED: ATOM      8  O   UNL     1     141.096  73.145 222.326 -0.53 -0.01    -0.273 OA 
DOCKED: BRANCH   7   9
DOCKED: ATOM      9  C   UNL     1     138.904  73.872 221.959 -0.13 -0.06    +0.216 C  
DOCKED: BRANCH   9  10
DOCKED: ATOM     10  N   UNL     1     139.417  75.178 222.223 -0.16 +0.06    -0.342 N  
DOCKED: ATOM     11  C   UNL     1     138.545  76.289 222.425 -0.20 -0.06    +0.270 C  
DOCKED: ATOM     12  O   UNL     1     137.282  76.129 222.371 -0.17 +0.06    -0.268 OA 
DOCKED: ATOM     13  H   UNL     1     140.442  75.376 222.280 +0.04 -0.01    +0.164 HD 
DOCKED: BRANCH  11  14
DOCKED: ATOM     14  C   UNL     1     139.107  77.611 222.694 -0.25 -0.02    +0.128 A  
DOCKED: ATOM     15  C   UNL     1     138.259  78.687 222.862 -0.25 -0.01    +0.035 A  
DOCKED: ATOM     16  N   UNL     1     140.440  77.773 222.776 -0.24 +0.06    -0.243 NA 
DOCKED: ATOM     17  C   UNL     1     138.814  79.937 223.118 -0.33 -0.00    +0.013 A  
DOCKED: ATOM     18  C   UNL     1     140.999  78.971 223.021 -0.46 -0.02    +0.071 A  
DOCKED: ATOM     19  C   UNL     1     140.197  80.087 223.200 -0.43 -0.00    +0.000 A  
DOCKED: ATOM     20  C   UNL     1     142.376  79.025 223.084 -0.53 -0.01    +0.029 A  
DOCKED: ATOM     21  C   UNL     1     140.815  81.274 223.445 -0.41 -0.00    +0.010 A  
DOCKED: ATOM     22  C   UNL     1     142.989  80.239 223.335 -0.66 -0.00    +0.002 A  
DOCKED: ATOM     23  C   UNL     1     142.192  81.368 223.515 -0.60 -0.00    +0.001 A  
DOCKED: ENDBRANCH  11  14
DOCKED: ENDBRANCH   9  10
DOCKED: ENDBRANCH   7   9
DOCKED: ENDBRANCH   1   7
DOCKED: BRANCH   6  24
DOCKED: ATOM     24  C   UNL     1     139.157  70.592 224.565 -0.37 +0.00    -0.025 A  
DOCKED: ATOM     25  C   UNL     1     140.382  71.019 225.031 -0.52 -0.00    +0.006 A  
DOCKED: ATOM     26  C   UNL     1     138.521  69.621 225.342 -0.37 -0.00    +0.006 A  
DOCKED: ATOM     27  C   UNL     1     140.958  70.525 226.195 -0.58 -0.00    +0.013 A  
DOCKED: ATOM     28  C   UNL     1     139.086  69.125 226.500 -0.44 -0.00    +0.013 A  
DOCKED: ATOM     29  C   UNL     1     140.310  69.568 226.942 -0.52 -0.01    +0.056 A  
DOCKED: BRANCH  29  30
DOCKED: ATOM     30  C   UNL     1     140.862  68.995 228.191 -0.26 -0.09    +0.416 C  
DOCKED: ATOM     31  F   UNL     1     141.780  69.835 228.784 -0.10 +0.04    -0.166 F  
DOCKED: ATOM     32  F   UNL     1     141.392  67.736 227.939 -0.20 +0.05    -0.166 F  
DOCKED: ATOM     33  F   UNL     1     139.818  68.845 229.089 -0.17 +0.03    -0.166 F  
DOCKED: ENDBRANCH  29  30
DOCKED: ENDBRANCH   6  24
DOCKED: TORSDOF 6
DOCKED: TER
DOCKED: ENDMDL
________________________________________________________________________________


    CLUSTERING HISTOGRAM
    ____________________


________________________________________________________________________________
     |           |     |           |     |
Clus | Lowest    | Run | Mean      | Num | Histogram
-ter | Binding   |     | Binding   | in  |
Rank | Energy    |     | Energy    | Clus|    5    10   15   20   25   30   35
_____|___________|_____|___________|_____|____:____|____:____|____:____|____:___
   1 |     -8.59 |   8 |     -8.41 |   7 |#######
   2 |     -8.36 |  11 |     -8.21 |   6 |######
   3 |     -8.28 |  18 |     -8.23 |   5 |#####
   4 |     -8.09 |  12 |     -8.09 |   1 |#
   5 |     -7.31 |   2 |     -7.31 |   1 |#
_____|___________|_____|___________|_____|______________________________________


    RMSD TABLE
    __________


_______________________________________________________________________
     |      |      |           |         |                 |
Rank | Sub- | Run  | Binding   | Cluster | Reference       | Grep
     | Rank |      | Energy    | RMSD    | RMSD            | Pattern
_____|______|______|___________|_________|_________________|___________
   1      1      8       -8.59      0.00    270.65           RANKING
   1      2     15       -8.51      0.60    270.65           RANKING
   1      3      9       -8.51      0.58    270.65           RANKING
   1      4      1       -8.49      0.16    270.60           RANKING
   1      5      7       -8.42      0.45    270.56           RANKING
   1      6     14       -8.40      0.99    270.63           RANKING
   1      7      6       -7.95      0.90    270.54           RANKING
   2      1     11       -8.36      0.00    271.06           RANKING
   2      2      4       -8.34      0.24    271.02           RANKING
   2      3     17       -8.18      0.47    270.93           RANKING
   2      4     19       -8.15      0.87    270.90           RANKING
   2      5      3       -8.13      1.00    270.85           RANKING
   2      6     10       -8.09      0.94    270.91           RANKING
   3      1     18       -8.28      0.00    271.24           RANKING
   3      2      5       -8.27      0.05    271.22           RANKING
   3      3     13       -8.24      0.06    271.24           RANKING
   3      4     20       -8.21      0.05    271.22           RANKING
   3      5     16       -8.14      0.19    271.14           RANKING
   4      1     12       -8.09      0.00    270.84           RANKING
   5      1      2       -7.31      0.00    270.00           RANKING

Run time 0.625 sec
Idle time 0.000 sec
