AutoDock-GPU version: v1.6

**********************************************************
**    AutoDock-GPU AUTODOCKTOOLS-COMPATIBLE DLG FILE    **
**********************************************************


    DOCKING PARAMETERS
    ________________________


Ligand file:                               /home/a/REINVENT4/ReinventStudies/pleaseWork/justmol2mol_4_Compounds_ontop/graph-dock-amy28i/graph-DockGPU/node-autodockgpu/inputs/JNJBSORSMFORKU-XMFZTVLVNA-N.pdbqt
Grid fld file:                             /home/a/REINVENT4/ReinventStudies/mols/Rad51/maps/rad51_receptor.maps.fld

Random seed:                               42
Number of runs:                            20
Number of energy evaluations:              1132076
Number of generations:                     42000
Size of population:                        150
Rate of crossover:                         80.000000%
Tournament selection probability limit:    60.000000%
Rate of mutation:                          2.000000%
Maximal allowed delta movement:            +/- 6.000000A
Maximal allowed delta angle:               +/- 90.000000

Rate of local search:                      100.000000%
Maximal number of local search iterations: 300
Rho lower bound:                           0.010000
Spread of local search delta movement:     2.000000A
Spread of local search delta angle:        74.999999
Limit of consecutive successes/failures:   4

Handle symmetry during clustering:         YES
RMSD tolerance:                            2.000000A

Program call in command line was:          /home/a/REINVENT4/ReinventStudies/adgpu-v1.6_linux_x64_cuda12_128wi --filelist batch.txt --heuristics 1 --nrun 20 --psize 150 --lsit 300 --seed 42 --heurmax 12000000 


    GRID PARAMETERS
    ________________________


Receptor name:                             rad51_receptor
Number of grid points (x, y, z):           53, 53, 53
Grid center (x, y, z):                     139.950000, 75.640000, 221.970000A
Grid size (x, y, z):                       19.500000, 19.500000, 19.500000A
Grid spacing:                              0.375000A


    LIGAND PARAMETERS
    ________________________


Ligand name:                               /home/a/REINVENT4/ReinventStudies/pleaseWork/justmol2mol_4_Compounds_ontop/graph-dock-amy28i/graph-DockGPU/node-autodockgpu/inputs/JNJBSORSMFORKU-XMFZTVLVNA-N
Number of atoms:                           33
Number of rotatable bonds:                 6
Number of atom types:                      7


    DUMMY DATA (only for ADT-compatibility)
    ________________________


DPF> outlev 1
DPF> ga_run 20
DPF> fld /home/a/REINVENT4/ReinventStudies/mols/Rad51/maps/rad51_receptor.maps.fld
DPF> move /home/a/REINVENT4/ReinventStudies/pleaseWork/justmol2mol_4_Compounds_ontop/graph-dock-amy28i/graph-DockGPU/node-autodockgpu/inputs/JNJBSORSMFORKU-XMFZTVLVNA-N.pdbqt


    COUNTER STATES
    ________________________


Number of energy evaluations performed:    858155
Number of generations used:                50


    INPUT LIGAND PDBQT FILE:
    ________________________


INPUT-LIGAND-PDBQT: REMARK SMILES O=C(NCC(=O)N1CCCC[C@@H]1c1ccc(C(F)(F)F)cc1)c1ccc2ccccc2n1
INPUT-LIGAND-PDBQT: REMARK SMILES IDX 7 1 8 2 9 3 10 4 11 5 12 6 5 7 6 8 4 9 3 10 2 11 1 12 23 14
INPUT-LIGAND-PDBQT: REMARK SMILES IDX 24 15 32 16 25 17 31 18 26 19 30 20 27 21 29 22 28 23 13 24
INPUT-LIGAND-PDBQT: REMARK SMILES IDX 14 25 22 26 15 27 21 28 16 29 17 30 18 31 19 32 20 33
INPUT-LIGAND-PDBQT: REMARK H PARENT 3 13
INPUT-LIGAND-PDBQT: ROOT
INPUT-LIGAND-PDBQT: ATOM      1  N   UNL     1      -1.761  -1.331   0.839  1.00  0.00    -0.334 N 
INPUT-LIGAND-PDBQT: ATOM      2  C   UNL     1      -2.067  -2.740   0.688  1.00  0.00     0.120 C 
INPUT-LIGAND-PDBQT: ATOM      3  C   UNL     1      -3.190  -3.222   1.550  1.00  0.00     0.022 C 
INPUT-LIGAND-PDBQT: ATOM      4  C   UNL     1      -4.316  -2.255   1.729  1.00  0.00     0.004 C 
INPUT-LIGAND-PDBQT: ATOM      5  C   UNL     1      -3.750  -0.950   2.228  1.00  0.00     0.030 C 
INPUT-LIGAND-PDBQT: ATOM      6  C   UNL     1      -2.720  -0.351   1.301  1.00  0.00     0.115 C 
INPUT-LIGAND-PDBQT: ENDROOT
INPUT-LIGAND-PDBQT: BRANCH   1   7
INPUT-LIGAND-PDBQT: ATOM      7  C   UNL     1      -0.413  -0.946   0.497  1.00  0.00     0.242 C 
INPUT-LIGAND-PDBQT: ATOM      8  O   UNL     1       0.344  -1.873   0.106  1.00  0.00    -0.273 OA
INPUT-LIGAND-PDBQT: BRANCH   7   9
INPUT-LIGAND-PDBQT: ATOM      9  C   UNL     1      -0.029   0.460   0.624  1.00  0.00     0.216 C 
INPUT-LIGAND-PDBQT: BRANCH   9  10
INPUT-LIGAND-PDBQT: ATOM     10  N   UNL     1       1.362   0.618   0.229  1.00  0.00    -0.342 N 
INPUT-LIGAND-PDBQT: ATOM     11  C   UNL     1       2.368  -0.094   0.941  1.00  0.00     0.270 C 
INPUT-LIGAND-PDBQT: ATOM     12  O   UNL     1       1.977  -0.836   1.897  1.00  0.00    -0.268 OA
INPUT-LIGAND-PDBQT: ATOM     13  H   UNL     1       1.634   1.253  -0.579  1.00  0.00     0.164 HD
INPUT-LIGAND-PDBQT: BRANCH  11  14
INPUT-LIGAND-PDBQT: ATOM     14  C   UNL     1       3.782   0.030   0.584  1.00  0.00     0.128 A 
INPUT-LIGAND-PDBQT: ATOM     15  C   UNL     1       4.694  -0.700   1.332  1.00  0.00     0.035 A 
INPUT-LIGAND-PDBQT: ATOM     16  N   UNL     1       4.219   0.802  -0.414  1.00  0.00    -0.243 NA
INPUT-LIGAND-PDBQT: ATOM     17  C   UNL     1       6.052  -0.667   1.093  1.00  0.00     0.013 A 
INPUT-LIGAND-PDBQT: ATOM     18  C   UNL     1       5.540   0.851  -0.667  1.00  0.00     0.071 A 
INPUT-LIGAND-PDBQT: ATOM     19  C   UNL     1       6.478   0.140   0.054  1.00  0.00     0.000 A 
INPUT-LIGAND-PDBQT: ATOM     20  C   UNL     1       6.023   1.646  -1.700  1.00  0.00     0.029 A 
INPUT-LIGAND-PDBQT: ATOM     21  C   UNL     1       7.828   0.204  -0.222  1.00  0.00     0.010 A 
INPUT-LIGAND-PDBQT: ATOM     22  C   UNL     1       7.374   1.727  -1.997  1.00  0.00     0.002 A 
INPUT-LIGAND-PDBQT: ATOM     23  C   UNL     1       8.301   0.995  -1.248  1.00  0.00     0.001 A 
INPUT-LIGAND-PDBQT: ENDBRANCH  11  14
INPUT-LIGAND-PDBQT: ENDBRANCH   9  10
INPUT-LIGAND-PDBQT: ENDBRANCH   7   9
INPUT-LIGAND-PDBQT: ENDBRANCH   1   7
INPUT-LIGAND-PDBQT: BRANCH   6  24
INPUT-LIGAND-PDBQT: ATOM     24  C   UNL     1      -3.357   0.416   0.198  1.00  0.00    -0.025 A 
INPUT-LIGAND-PDBQT: ATOM     25  C   UNL     1      -3.521   1.793   0.241  1.00  0.00     0.006 A 
INPUT-LIGAND-PDBQT: ATOM     26  C   UNL     1      -3.830  -0.212  -0.951  1.00  0.00     0.006 A 
INPUT-LIGAND-PDBQT: ATOM     27  C   UNL     1      -4.112   2.507  -0.781  1.00  0.00     0.013 A 
INPUT-LIGAND-PDBQT: ATOM     28  C   UNL     1      -4.419   0.489  -1.974  1.00  0.00     0.013 A 
INPUT-LIGAND-PDBQT: ATOM     29  C   UNL     1      -4.570   1.857  -1.908  1.00  0.00     0.056 A 
INPUT-LIGAND-PDBQT: BRANCH  29  30
INPUT-LIGAND-PDBQT: ATOM     30  C   UNL     1      -5.213   2.549  -3.043  1.00  0.00     0.416 C 
INPUT-LIGAND-PDBQT: ATOM     31  F   UNL     1      -4.272   2.760  -4.024  1.00  0.00    -0.166 F 
INPUT-LIGAND-PDBQT: ATOM     32  F   UNL     1      -5.807   3.748  -2.641  1.00  0.00    -0.166 F 
INPUT-LIGAND-PDBQT: ATOM     33  F   UNL     1      -6.238   1.807  -3.602  1.00  0.00    -0.166 F 
INPUT-LIGAND-PDBQT: ENDBRANCH  29  30
INPUT-LIGAND-PDBQT: ENDBRANCH   6  24
INPUT-LIGAND-PDBQT: TORSDOF 6


    FINAL DOCKED STATE:
    ________________________


Run:   1 / 20
Time taken for this run:   0.038s

DOCKED: MODEL        1
DOCKED: USER    Run = 1
DOCKED: USER
DOCKED: USER    Estimated Free Energy of Binding    =  -9.10 kcal/mol  [=(1)+(2)+(3)-(4)]
DOCKED: USER
DOCKED: USER    (1) Final Intermolecular Energy     = -10.89 kcal/mol
DOCKED: USER        vdW + Hbond + desolv Energy     = -10.79 kcal/mol
DOCKED: USER        Electrostatic Energy            =  -0.10 kcal/mol
DOCKED: USER        Moving Ligand-Fixed Receptor    = -10.89 kcal/mol
DOCKED: USER        Moving Ligand-Moving Receptor   =  +0.00 kcal/mol
DOCKED: USER    (2) Final Total Internal Energy     =  -1.55 kcal/mol
DOCKED: USER    (3) Torsional Free Energy           =  +1.79 kcal/mol
DOCKED: USER    (4) Unbound System's Energy         =  -1.55 kcal/mol
DOCKED: USER
DOCKED: USER
DOCKED: REMARK SMILES O=C(NCC(=O)N1CCCC[C@@H]1c1ccc(C(F)(F)F)cc1)c1ccc2ccccc2n1
DOCKED: REMARK SMILES IDX 7 1 8 2 9 3 10 4 11 5 12 6 5 7 6 8 4 9 3 10 2 11 1 12 23 14
DOCKED: REMARK SMILES IDX 24 15 32 16 25 17 31 18 26 19 30 20 27 21 29 22 28 23 13 24
DOCKED: REMARK SMILES IDX 14 25 22 26 15 27 21 28 16 29 17 30 18 31 19 32 20 33
DOCKED: REMARK H PARENT 3 13
DOCKED: USER                              x       y       z     vdW  Elec       q    Type
DOCKED: USER                           _______ _______ _______ _____ _____    ______ ____
DOCKED: ROOT
DOCKED: ATOM      1  N   UNL     1     141.051  75.378 220.732 -0.12 +0.10    -0.334 N  
DOCKED: ATOM      2  C   UNL     1     142.095  74.434 221.082 -0.11 -0.03    +0.120 C  
DOCKED: ATOM      3  C   UNL     1     143.267  74.441 220.153 -0.35 -0.01    +0.022 C  
DOCKED: ATOM      4  C   UNL     1     143.657  75.786 219.629 -0.40 -0.00    +0.004 C  
DOCKED: ATOM      5  C   UNL     1     142.444  76.424 219.001 -0.28 -0.02    +0.030 C  
DOCKED: ATOM      6  C   UNL     1     141.286  76.577 219.957 -0.19 -0.05    +0.115 C  
DOCKED: ENDROOT
DOCKED: BRANCH   1   7
DOCKED: ATOM      7  C   UNL     1     139.729  75.049 221.208 -0.18 -0.05    +0.242 C  
DOCKED: ATOM      8  O   UNL     1     139.105  75.975 221.789 -0.20 +0.06    -0.273 OA 
DOCKED: BRANCH   7   9
DOCKED: ATOM      9  C   UNL     1     139.217  73.696 220.987 -0.12 -0.04    +0.216 C  
DOCKED: BRANCH   9  10
DOCKED: ATOM     10  N   UNL     1     139.171  72.985 222.255 -0.12 +0.09    -0.342 N  
DOCKED: ATOM     11  C   UNL     1     140.083  71.916 222.482 -0.21 -0.04    +0.270 C  
DOCKED: ATOM     12  O   UNL     1     140.895  71.646 221.542 -0.15 +0.03    -0.268 OA 
DOCKED: ATOM     13  H   UNL     1     138.470  73.252 223.008 -0.49 -0.10    +0.164 HD 
DOCKED: BRANCH  11  14
DOCKED: ATOM     14  C   UNL     1     140.077  71.168 223.740 -0.33 -0.02    +0.128 A  
DOCKED: ATOM     15  C   UNL     1     139.494  69.910 223.730 -0.27 -0.01    +0.035 A  
DOCKED: ATOM     16  N   UNL     1     140.602  71.640 224.874 -0.30 +0.03    -0.243 NA 
DOCKED: ATOM     17  C   UNL     1     139.427  69.109 224.851 -0.38 -0.00    +0.013 A  
DOCKED: ATOM     18  C   UNL     1     140.549  70.878 225.981 -0.54 -0.01    +0.071 A  
DOCKED: ATOM     19  C   UNL     1     139.978  69.621 226.012 -0.49 -0.00    +0.000 A  
DOCKED: ATOM     20  C   UNL     1     141.088  71.344 227.175 -0.71 -0.00    +0.029 A  
DOCKED: ATOM     21  C   UNL     1     139.934  68.855 227.158 -0.60 -0.00    +0.010 A  
DOCKED: ATOM     22  C   UNL     1     141.057  70.593 228.340 -0.58 -0.00    +0.002 A  
DOCKED: ATOM     23  C   UNL     1     140.470  69.323 228.339 -0.63 -0.00    +0.001 A  
DOCKED: ENDBRANCH  11  14
DOCKED: ENDBRANCH   9  10
DOCKED: ENDBRANCH   7   9
DOCKED: ENDBRANCH   1   7
DOCKED: BRANCH   6  24
DOCKED: ATOM     24  C   UNL     1     141.423  77.800 220.791 -0.31 +0.01    -0.025 A  
DOCKED: ATOM     25  C   UNL     1     141.650  79.056 220.247 -0.29 -0.00    +0.006 A  
DOCKED: ATOM     26  C   UNL     1     141.330  77.753 222.180 -0.35 -0.00    +0.006 A  
DOCKED: ATOM     27  C   UNL     1     141.778  80.192 221.019 -0.37 -0.01    +0.013 A  
DOCKED: ATOM     28  C   UNL     1     141.455  78.877 222.957 -0.54 -0.00    +0.013 A  
DOCKED: ATOM     29  C   UNL     1     141.680  80.114 222.392 -0.47 -0.02    +0.056 A  
DOCKED: BRANCH  29  30
DOCKED: ATOM     30  C   UNL     1     141.806  81.283 223.286 -0.27 -0.06    +0.416 C  
DOCKED: ATOM     31  F   UNL     1     140.765  81.266 224.186 -0.11 +0.01    -0.166 F  
DOCKED: ATOM     32  F   UNL     1     141.836  82.478 222.564 -0.10 +0.02    -0.166 F  
DOCKED: ATOM     33  F   UNL     1     142.984  81.269 224.012 -0.24 +0.02    -0.166 F  
DOCKED: ENDBRANCH  29  30
DOCKED: ENDBRANCH   6  24
DOCKED: TORSDOF 6
DOCKED: TER
DOCKED: ENDMDL
________________________________________________________________________________


    FINAL DOCKED STATE:
    ________________________


Run:   2 / 20
Time taken for this run:   0.038s

DOCKED: MODEL        2
DOCKED: USER    Run = 2
DOCKED: USER
DOCKED: USER    Estimated Free Energy of Binding    =  -6.64 kcal/mol  [=(1)+(2)+(3)-(4)]
DOCKED: USER
DOCKED: USER    (1) Final Intermolecular Energy     =  -8.43 kcal/mol
DOCKED: USER        vdW + Hbond + desolv Energy     =  -8.37 kcal/mol
DOCKED: USER        Electrostatic Energy            =  -0.06 kcal/mol
DOCKED: USER        Moving Ligand-Fixed Receptor    =  -8.43 kcal/mol
DOCKED: USER        Moving Ligand-Moving Receptor   =  +0.00 kcal/mol
DOCKED: USER    (2) Final Total Internal Energy     =  -3.18 kcal/mol
DOCKED: USER    (3) Torsional Free Energy           =  +1.79 kcal/mol
DOCKED: USER    (4) Unbound System's Energy         =  -3.18 kcal/mol
DOCKED: USER
DOCKED: USER
DOCKED: REMARK SMILES O=C(NCC(=O)N1CCCC[C@@H]1c1ccc(C(F)(F)F)cc1)c1ccc2ccccc2n1
DOCKED: REMARK SMILES IDX 7 1 8 2 9 3 10 4 11 5 12 6 5 7 6 8 4 9 3 10 2 11 1 12 23 14
DOCKED: REMARK SMILES IDX 24 15 32 16 25 17 31 18 26 19 30 20 27 21 29 22 28 23 13 24
DOCKED: REMARK SMILES IDX 14 25 22 26 15 27 21 28 16 29 17 30 18 31 19 32 20 33
DOCKED: REMARK H PARENT 3 13
DOCKED: USER                              x       y       z     vdW  Elec       q    Type
DOCKED: USER                           _______ _______ _______ _____ _____    ______ ____
DOCKED: ROOT
DOCKED: ATOM      1  N   UNL     1     140.957  79.769 221.470 -0.11 +0.11    -0.334 N  
DOCKED: ATOM      2  C   UNL     1     142.317  80.127 221.822 -0.36 -0.05    +0.120 C  
DOCKED: ATOM      3  C   UNL     1     142.541  80.333 223.286 -0.66 -0.01    +0.022 C  
DOCKED: ATOM      4  C   UNL     1     141.785  79.406 224.183 -0.50 -0.00    +0.004 C  
DOCKED: ATOM      5  C   UNL     1     140.322  79.483 223.825 -0.45 -0.00    +0.030 C  
DOCKED: ATOM      6  C   UNL     1     140.038  79.127 222.386 -0.28 -0.03    +0.115 C  
DOCKED: ENDROOT
DOCKED: BRANCH   1   7
DOCKED: ATOM      7  C   UNL     1     140.555  80.096 220.124 -0.12 -0.08    +0.242 C  
DOCKED: ATOM      8  O   UNL     1     139.395  80.569 219.993 -0.04 +0.07    -0.273 OA 
DOCKED: BRANCH   7   9
DOCKED: ATOM      9  C   UNL     1     141.499  79.863 219.031 -0.18 -0.11    +0.216 C  
DOCKED: BRANCH   9  10
DOCKED: ATOM     10  N   UNL     1     142.210  78.616 219.266 -0.12 +0.24    -0.342 N  
DOCKED: ATOM     11  C   UNL     1     141.592  77.388 218.899 -0.13 -0.14    +0.270 C  
DOCKED: ATOM     12  O   UNL     1     140.433  77.462 218.380 -0.03 +0.10    -0.268 OA 
DOCKED: ATOM     13  H   UNL     1     143.179  78.611 219.704 -0.26 -0.20    +0.164 HD 
DOCKED: BRANCH  11  14
DOCKED: ATOM     14  C   UNL     1     142.265  76.106 219.114 -0.21 -0.06    +0.128 A  
DOCKED: ATOM     15  C   UNL     1     141.638  74.968 218.627 -0.09 -0.01    +0.035 A  
DOCKED: ATOM     16  N   UNL     1     143.435  75.991 219.746 -0.27 +0.16    -0.243 NA 
DOCKED: ATOM     17  C   UNL     1     142.171  73.704 218.767 -0.10 -0.00    +0.013 A  
DOCKED: ATOM     18  C   UNL     1     143.976  74.768 219.895 -0.38 -0.03    +0.071 A  
DOCKED: ATOM     19  C   UNL     1     143.384  73.613 219.425 -0.25 -0.00    +0.000 A  
DOCKED: ATOM     20  C   UNL     1     145.194  74.619 220.550 -0.37 -0.01    +0.029 A  
DOCKED: ATOM     21  C   UNL     1     143.956  72.369 219.589 -0.25 -0.00    +0.010 A  
DOCKED: ATOM     22  C   UNL     1     145.789  73.380 220.726 -0.67 -0.00    +0.002 A  
DOCKED: ATOM     23  C   UNL     1     145.164  72.228 220.239 -0.39 +0.00    +0.001 A  
DOCKED: ENDBRANCH  11  14
DOCKED: ENDBRANCH   9  10
DOCKED: ENDBRANCH   7   9
DOCKED: ENDBRANCH   1   7
DOCKED: BRANCH   6  24
DOCKED: ATOM     24  C   UNL     1     139.947  77.656 222.194 -0.34 +0.01    -0.025 A  
DOCKED: ATOM     25  C   UNL     1     138.736  76.993 222.050 -0.27 -0.00    +0.006 A  
DOCKED: ATOM     26  C   UNL     1     141.083  76.852 222.147 -0.37 -0.00    +0.006 A  
DOCKED: ATOM     27  C   UNL     1     138.648  75.628 221.872 -0.27 -0.00    +0.013 A  
DOCKED: ATOM     28  C   UNL     1     141.006  75.493 221.970 -0.31 -0.00    +0.013 A  
DOCKED: ATOM     29  C   UNL     1     139.791  74.858 221.829 -0.28 -0.01    +0.056 A  
DOCKED: BRANCH  29  30
DOCKED: ATOM     30  C   UNL     1     139.781  73.393 221.642 -0.13 -0.07    +0.416 C  
DOCKED: ATOM     31  F   UNL     1     138.727  72.864 222.350 -0.08 +0.05    -0.166 F  
DOCKED: ATOM     32  F   UNL     1     140.994  72.819 222.031 -0.12 +0.01    -0.166 F  
DOCKED: ATOM     33  F   UNL     1     139.617  73.031 220.318 -0.01 +0.03    -0.166 F  
DOCKED: ENDBRANCH  29  30
DOCKED: ENDBRANCH   6  24
DOCKED: TORSDOF 6
DOCKED: TER
DOCKED: ENDMDL
________________________________________________________________________________


    FINAL DOCKED STATE:
    ________________________


Run:   3 / 20
Time taken for this run:   0.038s

DOCKED: MODEL        3
DOCKED: USER    Run = 3
DOCKED: USER
DOCKED: USER    Estimated Free Energy of Binding    =  -8.19 kcal/mol  [=(1)+(2)+(3)-(4)]
DOCKED: USER
DOCKED: USER    (1) Final Intermolecular Energy     =  -9.98 kcal/mol
DOCKED: USER        vdW + Hbond + desolv Energy     =  -9.81 kcal/mol
DOCKED: USER        Electrostatic Energy            =  -0.17 kcal/mol
DOCKED: USER        Moving Ligand-Fixed Receptor    =  -9.98 kcal/mol
DOCKED: USER        Moving Ligand-Moving Receptor   =  +0.00 kcal/mol
DOCKED: USER    (2) Final Total Internal Energy     =  -1.90 kcal/mol
DOCKED: USER    (3) Torsional Free Energy           =  +1.79 kcal/mol
DOCKED: USER    (4) Unbound System's Energy         =  -1.90 kcal/mol
DOCKED: USER
DOCKED: USER
DOCKED: REMARK SMILES O=C(NCC(=O)N1CCCC[C@@H]1c1ccc(C(F)(F)F)cc1)c1ccc2ccccc2n1
DOCKED: REMARK SMILES IDX 7 1 8 2 9 3 10 4 11 5 12 6 5 7 6 8 4 9 3 10 2 11 1 12 23 14
DOCKED: REMARK SMILES IDX 24 15 32 16 25 17 31 18 26 19 30 20 27 21 29 22 28 23 13 24
DOCKED: REMARK SMILES IDX 14 25 22 26 15 27 21 28 16 29 17 30 18 31 19 32 20 33
DOCKED: REMARK H PARENT 3 13
DOCKED: USER                              x       y       z     vdW  Elec       q    Type
DOCKED: USER                           _______ _______ _______ _____ _____    ______ ____
DOCKED: ROOT
DOCKED: ATOM      1  N   UNL     1     141.200  75.325 220.294 -0.08 +0.11    -0.334 N  
DOCKED: ATOM      2  C   UNL     1     140.539  75.842 219.111 -0.07 -0.04    +0.120 C  
DOCKED: ATOM      3  C   UNL     1     141.343  76.845 218.346 -0.13 -0.01    +0.022 C  
DOCKED: ATOM      4  C   UNL     1     142.812  76.576 218.292 -0.29 -0.00    +0.004 C  
DOCKED: ATOM      5  C   UNL     1     143.320  76.412 219.701 -0.37 -0.02    +0.030 C  
DOCKED: ATOM      6  C   UNL     1     142.637  75.300 220.459 -0.19 -0.06    +0.115 C  
DOCKED: ENDROOT
DOCKED: BRANCH   1   7
DOCKED: ATOM      7  C   UNL     1     140.325  74.826 221.328 -0.21 -0.04    +0.242 C  
DOCKED: ATOM      8  O   UNL     1     140.168  75.575 222.328 -0.55 +0.03    -0.273 OA 
DOCKED: BRANCH   7   9
DOCKED: ATOM      9  C   UNL     1     139.697  73.517 221.146 -0.15 -0.04    +0.216 C  
DOCKED: BRANCH   9  10
DOCKED: ATOM     10  N   UNL     1     139.589  72.851 222.435 -0.14 +0.07    -0.342 N  
DOCKED: ATOM     11  C   UNL     1     140.578  71.897 222.806 -0.20 -0.03    +0.270 C  
DOCKED: ATOM     12  O   UNL     1     141.511  71.684 221.968 -0.15 +0.02    -0.268 OA 
DOCKED: ATOM     13  H   UNL     1     138.786  73.067 223.098 -0.47 -0.09    +0.164 HD 
DOCKED: BRANCH  11  14
DOCKED: ATOM     14  C   UNL     1     140.515  71.199 224.091 -0.34 -0.02    +0.128 A  
DOCKED: ATOM     15  C   UNL     1     141.005  71.868 225.203 -0.29 -0.00    +0.035 A  
DOCKED: ATOM     16  N   UNL     1     140.014  69.970 224.231 -0.16 +0.04    -0.243 NA 
DOCKED: ATOM     17  C   UNL     1     141.001  71.316 226.467 -0.68 -0.00    +0.013 A  
DOCKED: ATOM     18  C   UNL     1     139.999  69.410 225.455 -0.40 -0.01    +0.071 A  
DOCKED: ATOM     19  C   UNL     1     140.476  70.042 226.585 -0.56 -0.00    +0.000 A  
DOCKED: ATOM     20  C   UNL     1     139.483  68.131 225.630 -0.51 -0.00    +0.029 A  
DOCKED: ATOM     21  C   UNL     1     140.451  69.450 227.831 -0.62 -0.00    +0.010 A  
DOCKED: ATOM     22  C   UNL     1     139.446  67.515 226.871 -0.56 -0.00    +0.002 A  
DOCKED: ATOM     23  C   UNL     1     139.938  68.181 227.998 -0.59 -0.00    +0.001 A  
DOCKED: ENDBRANCH  11  14
DOCKED: ENDBRANCH   9  10
DOCKED: ENDBRANCH   7   9
DOCKED: ENDBRANCH   1   7
DOCKED: BRANCH   6  24
DOCKED: ATOM     24  C   UNL     1     143.242  73.977 220.151 -0.32 +0.01    -0.025 A  
DOCKED: ATOM     25  C   UNL     1     144.534  73.639 220.527 -0.49 -0.00    +0.006 A  
DOCKED: ATOM     26  C   UNL     1     142.538  72.994 219.461 -0.15 -0.00    +0.006 A  
DOCKED: ATOM     27  C   UNL     1     145.098  72.412 220.242 -0.42 -0.00    +0.013 A  
DOCKED: ATOM     28  C   UNL     1     143.090  71.770 219.173 -0.14 -0.00    +0.013 A  
DOCKED: ATOM     29  C   UNL     1     144.375  71.457 219.558 -0.24 +0.00    +0.056 A  
DOCKED: BRANCH  29  30
DOCKED: ATOM     30  C   UNL     1     144.907  70.123 219.216 -0.07 +0.10    +0.416 C  
DOCKED: ATOM     31  F   UNL     1     144.567  69.830 217.915 -0.01 -0.01    -0.166 F  
DOCKED: ATOM     32  F   UNL     1     144.440  69.145 220.097 -0.11 -0.03    -0.166 F  
DOCKED: ATOM     33  F   UNL     1     146.286  70.064 219.308 -0.14 -0.13    -0.166 F  
DOCKED: ENDBRANCH  29  30
DOCKED: ENDBRANCH   6  24
DOCKED: TORSDOF 6
DOCKED: TER
DOCKED: ENDMDL
________________________________________________________________________________


    FINAL DOCKED STATE:
    ________________________


Run:   4 / 20
Time taken for this run:   0.038s

DOCKED: MODEL        4
DOCKED: USER    Run = 4
DOCKED: USER
DOCKED: USER    Estimated Free Energy of Binding    =  -8.46 kcal/mol  [=(1)+(2)+(3)-(4)]
DOCKED: USER
DOCKED: USER    (1) Final Intermolecular Energy     = -10.25 kcal/mol
DOCKED: USER        vdW + Hbond + desolv Energy     = -10.21 kcal/mol
DOCKED: USER        Electrostatic Energy            =  -0.03 kcal/mol
DOCKED: USER        Moving Ligand-Fixed Receptor    = -10.25 kcal/mol
DOCKED: USER        Moving Ligand-Moving Receptor   =  +0.00 kcal/mol
DOCKED: USER    (2) Final Total Internal Energy     =  -1.82 kcal/mol
DOCKED: USER    (3) Torsional Free Energy           =  +1.79 kcal/mol
DOCKED: USER    (4) Unbound System's Energy         =  -1.82 kcal/mol
DOCKED: USER
DOCKED: USER
DOCKED: REMARK SMILES O=C(NCC(=O)N1CCCC[C@@H]1c1ccc(C(F)(F)F)cc1)c1ccc2ccccc2n1
DOCKED: REMARK SMILES IDX 7 1 8 2 9 3 10 4 11 5 12 6 5 7 6 8 4 9 3 10 2 11 1 12 23 14
DOCKED: REMARK SMILES IDX 24 15 32 16 25 17 31 18 26 19 30 20 27 21 29 22 28 23 13 24
DOCKED: REMARK SMILES IDX 14 25 22 26 15 27 21 28 16 29 17 30 18 31 19 32 20 33
DOCKED: REMARK H PARENT 3 13
DOCKED: USER                              x       y       z     vdW  Elec       q    Type
DOCKED: USER                           _______ _______ _______ _____ _____    ______ ____
DOCKED: ROOT
DOCKED: ATOM      1  N   UNL     1     141.442  73.713 220.230 -0.06 +0.07    -0.334 N  
DOCKED: ATOM      2  C   UNL     1     142.216  72.731 220.963 -0.19 -0.02    +0.120 C  
DOCKED: ATOM      3  C   UNL     1     143.687  72.783 220.695 -0.31 -0.00    +0.022 C  
DOCKED: ATOM      4  C   UNL     1     144.253  74.154 220.508 -0.46 -0.00    +0.004 C  
DOCKED: ATOM      5  C   UNL     1     143.465  74.853 219.430 -0.33 -0.01    +0.030 C  
DOCKED: ATOM      6  C   UNL     1     141.991  74.959 219.739 -0.19 -0.04    +0.115 C  
DOCKED: ENDROOT
DOCKED: BRANCH   1   7
DOCKED: ATOM      7  C   UNL     1     140.057  73.374 220.007 -0.05 -0.05    +0.242 C  
DOCKED: ATOM      8  O   UNL     1     139.812  72.705 218.968 -0.01 +0.05    -0.273 OA 
DOCKED: BRANCH   7   9
DOCKED: ATOM      9  C   UNL     1     139.058  73.819 220.979 -0.12 -0.05    +0.216 C  
DOCKED: BRANCH   9  10
DOCKED: ATOM     10  N   UNL     1     139.370  73.256 222.283 -0.12 +0.08    -0.342 N  
DOCKED: ATOM     11  C   UNL     1     139.375  71.842 222.442 -0.18 -0.06    +0.270 C  
DOCKED: ATOM     12  O   UNL     1     139.100  71.148 221.412 -0.07 +0.05    -0.268 OA 
DOCKED: ATOM     13  H   UNL     1     139.592  73.883 223.112 -0.50 -0.02    +0.164 HD 
DOCKED: BRANCH  11  14
DOCKED: ATOM     14  C   UNL     1     139.682  71.224 223.733 -0.32 -0.03    +0.128 A  
DOCKED: ATOM     15  C   UNL     1     139.372  69.881 223.887 -0.29 -0.01    +0.035 A  
DOCKED: ATOM     16  N   UNL     1     140.238  71.891 224.748 -0.23 +0.05    -0.243 NA 
DOCKED: ATOM     17  C   UNL     1     139.613  69.188 225.055 -0.40 -0.00    +0.013 A  
DOCKED: ATOM     18  C   UNL     1     140.483  71.236 225.898 -0.54 -0.01    +0.071 A  
DOCKED: ATOM     19  C   UNL     1     140.189  69.901 226.090 -0.51 -0.00    +0.000 A  
DOCKED: ATOM     20  C   UNL     1     141.062  71.904 226.971 -0.76 -0.01    +0.029 A  
DOCKED: ATOM     21  C   UNL     1     140.449  69.249 227.277 -0.60 -0.00    +0.010 A  
DOCKED: ATOM     22  C   UNL     1     141.332  71.271 228.174 -0.64 -0.00    +0.002 A  
DOCKED: ATOM     23  C   UNL     1     141.023  69.917 228.338 -0.57 -0.00    +0.001 A  
DOCKED: ENDBRANCH  11  14
DOCKED: ENDBRANCH   9  10
DOCKED: ENDBRANCH   7   9
DOCKED: ENDBRANCH   1   7
DOCKED: BRANCH   6  24
DOCKED: ATOM     24  C   UNL     1     141.699  76.119 220.621 -0.26 +0.01    -0.025 A  
DOCKED: ATOM     25  C   UNL     1     142.012  77.424 220.269 -0.30 -0.00    +0.006 A  
DOCKED: ATOM     26  C   UNL     1     141.090  75.959 221.862 -0.36 -0.00    +0.006 A  
DOCKED: ATOM     27  C   UNL     1     141.743  78.503 221.086 -0.35 -0.01    +0.013 A  
DOCKED: ATOM     28  C   UNL     1     140.817  77.026 222.683 -0.39 -0.00    +0.013 A  
DOCKED: ATOM     29  C   UNL     1     141.137  78.313 222.310 -0.41 -0.02    +0.056 A  
DOCKED: BRANCH  29  30
DOCKED: ATOM     30  C   UNL     1     140.816  79.415 223.240 -0.23 -0.10    +0.416 C  
DOCKED: ATOM     31  F   UNL     1     141.807  79.494 224.192 -0.20 +0.04    -0.166 F  
DOCKED: ATOM     32  F   UNL     1     139.560  79.240 223.826 -0.15 +0.02    -0.166 F  
DOCKED: ATOM     33  F   UNL     1     140.751  80.641 222.604 -0.11 +0.03    -0.166 F  
DOCKED: ENDBRANCH  29  30
DOCKED: ENDBRANCH   6  24
DOCKED: TORSDOF 6
DOCKED: TER
DOCKED: ENDMDL
________________________________________________________________________________


    FINAL DOCKED STATE:
    ________________________


Run:   5 / 20
Time taken for this run:   0.038s

DOCKED: MODEL        5
DOCKED: USER    Run = 5
DOCKED: USER
DOCKED: USER    Estimated Free Energy of Binding    =  -8.60 kcal/mol  [=(1)+(2)+(3)-(4)]
DOCKED: USER
DOCKED: USER    (1) Final Intermolecular Energy     = -10.39 kcal/mol
DOCKED: USER        vdW + Hbond + desolv Energy     = -10.38 kcal/mol
DOCKED: USER        Electrostatic Energy            =  -0.01 kcal/mol
DOCKED: USER        Moving Ligand-Fixed Receptor    = -10.39 kcal/mol
DOCKED: USER        Moving Ligand-Moving Receptor   =  +0.00 kcal/mol
DOCKED: USER    (2) Final Total Internal Energy     =  -1.56 kcal/mol
DOCKED: USER    (3) Torsional Free Energy           =  +1.79 kcal/mol
DOCKED: USER    (4) Unbound System's Energy         =  -1.56 kcal/mol
DOCKED: USER
DOCKED: USER
DOCKED: REMARK SMILES O=C(NCC(=O)N1CCCC[C@@H]1c1ccc(C(F)(F)F)cc1)c1ccc2ccccc2n1
DOCKED: REMARK SMILES IDX 7 1 8 2 9 3 10 4 11 5 12 6 5 7 6 8 4 9 3 10 2 11 1 12 23 14
DOCKED: REMARK SMILES IDX 24 15 32 16 25 17 31 18 26 19 30 20 27 21 29 22 28 23 13 24
DOCKED: REMARK SMILES IDX 14 25 22 26 15 27 21 28 16 29 17 30 18 31 19 32 20 33
DOCKED: REMARK H PARENT 3 13
DOCKED: USER                              x       y       z     vdW  Elec       q    Type
DOCKED: USER                           _______ _______ _______ _____ _____    ______ ____
DOCKED: ROOT
DOCKED: ATOM      1  N   UNL     1     138.718  75.888 221.420 -0.09 +0.07    -0.334 N  
DOCKED: ATOM      2  C   UNL     1     138.221  75.977 220.061 -0.04 -0.03    +0.120 C  
DOCKED: ATOM      3  C   UNL     1     136.925  76.710 219.926 -0.03 -0.00    +0.022 C  
DOCKED: ATOM      4  C   UNL     1     136.762  77.888 220.831 -0.06 -0.00    +0.004 C  
DOCKED: ATOM      5  C   UNL     1     137.004  77.437 222.250 -0.19 -0.01    +0.030 C  
DOCKED: ATOM      6  C   UNL     1     138.370  76.831 222.460 -0.25 -0.02    +0.115 C  
DOCKED: ENDROOT
DOCKED: BRANCH   1   7
DOCKED: ATOM      7  C   UNL     1     139.601  74.779 221.689 -0.20 -0.04    +0.242 C  
DOCKED: ATOM      8  O   UNL     1     140.774  75.078 222.037 -0.61 +0.03    -0.273 OA 
DOCKED: BRANCH   7   9
DOCKED: ATOM      9  C   UNL     1     139.086  73.417 221.544 -0.15 -0.05    +0.216 C  
DOCKED: BRANCH   9  10
DOCKED: ATOM     10  N   UNL     1     139.400  72.652 222.740 -0.10 +0.09    -0.342 N  
DOCKED: ATOM     11  C   UNL     1     139.023  71.281 222.803 -0.17 -0.06    +0.270 C  
DOCKED: ATOM     12  O   UNL     1     138.422  70.805 221.788 -0.06 +0.05    -0.268 OA 
DOCKED: ATOM     13  H   UNL     1     139.905  73.100 223.561 -0.33 -0.02    +0.164 HD 
DOCKED: BRANCH  11  14
DOCKED: ATOM     14  C   UNL     1     139.316  70.467 223.983 -0.28 -0.02    +0.128 A  
DOCKED: ATOM     15  C   UNL     1     138.934  69.133 223.948 -0.29 -0.01    +0.035 A  
DOCKED: ATOM     16  N   UNL     1     139.925  70.947 225.070 -0.29 +0.04    -0.243 NA 
DOCKED: ATOM     17  C   UNL     1     139.154  68.266 224.997 -0.42 -0.00    +0.013 A  
DOCKED: ATOM     18  C   UNL     1     140.151  70.120 226.107 -0.47 -0.01    +0.071 A  
DOCKED: ATOM     19  C   UNL     1     139.787  68.788 226.110 -0.53 -0.00    +0.000 A  
DOCKED: ATOM     20  C   UNL     1     140.783  70.593 227.251 -0.62 -0.00    +0.029 A  
DOCKED: ATOM     21  C   UNL     1     140.028  67.957 227.184 -0.64 -0.00    +0.010 A  
DOCKED: ATOM     22  C   UNL     1     141.037  69.778 228.342 -0.57 -0.00    +0.002 A  
DOCKED: ATOM     23  C   UNL     1     140.656  68.432 228.316 -0.67 -0.00    +0.001 A  
DOCKED: ENDBRANCH  11  14
DOCKED: ENDBRANCH   9  10
DOCKED: ENDBRANCH   7   9
DOCKED: ENDBRANCH   1   7
DOCKED: BRANCH   6  24
DOCKED: ATOM     24  C   UNL     1     139.404  77.876 222.679 -0.31 +0.00    -0.025 A  
DOCKED: ATOM     25  C   UNL     1     139.189  78.985 223.484 -0.35 -0.00    +0.006 A  
DOCKED: ATOM     26  C   UNL     1     140.660  77.798 222.082 -0.39 -0.00    +0.006 A  
DOCKED: ATOM     27  C   UNL     1     140.148  79.956 223.689 -0.44 -0.00    +0.013 A  
DOCKED: ATOM     28  C   UNL     1     141.621  78.759 222.280 -0.46 -0.01    +0.013 A  
DOCKED: ATOM     29  C   UNL     1     141.383  79.852 223.084 -0.49 -0.01    +0.056 A  
DOCKED: BRANCH  29  30
DOCKED: ATOM     30  C   UNL     1     142.460  80.848 223.253 -0.29 -0.09    +0.416 C  
DOCKED: ATOM     31  F   UNL     1     142.171  81.948 222.479 -0.11 +0.03    -0.166 F  
DOCKED: ATOM     32  F   UNL     1     143.709  80.311 222.930 -0.25 +0.05    -0.166 F  
DOCKED: ATOM     33  F   UNL     1     142.579  81.280 224.562 -0.22 +0.02    -0.166 F  
DOCKED: ENDBRANCH  29  30
DOCKED: ENDBRANCH   6  24
DOCKED: TORSDOF 6
DOCKED: TER
DOCKED: ENDMDL
________________________________________________________________________________


    FINAL DOCKED STATE:
    ________________________


Run:   6 / 20
Time taken for this run:   0.038s

DOCKED: MODEL        6
DOCKED: USER    Run = 6
DOCKED: USER
DOCKED: USER    Estimated Free Energy of Binding    =  -8.26 kcal/mol  [=(1)+(2)+(3)-(4)]
DOCKED: USER
DOCKED: USER    (1) Final Intermolecular Energy     = -10.05 kcal/mol
DOCKED: USER        vdW + Hbond + desolv Energy     =  -9.88 kcal/mol
DOCKED: USER        Electrostatic Energy            =  -0.18 kcal/mol
DOCKED: USER        Moving Ligand-Fixed Receptor    = -10.05 kcal/mol
DOCKED: USER        Moving Ligand-Moving Receptor   =  +0.00 kcal/mol
DOCKED: USER    (2) Final Total Internal Energy     =  -1.90 kcal/mol
DOCKED: USER    (3) Torsional Free Energy           =  +1.79 kcal/mol
DOCKED: USER    (4) Unbound System's Energy         =  -1.90 kcal/mol
DOCKED: USER
DOCKED: USER
DOCKED: REMARK SMILES O=C(NCC(=O)N1CCCC[C@@H]1c1ccc(C(F)(F)F)cc1)c1ccc2ccccc2n1
DOCKED: REMARK SMILES IDX 7 1 8 2 9 3 10 4 11 5 12 6 5 7 6 8 4 9 3 10 2 11 1 12 23 14
DOCKED: REMARK SMILES IDX 24 15 32 16 25 17 31 18 26 19 30 20 27 21 29 22 28 23 13 24
DOCKED: REMARK SMILES IDX 14 25 22 26 15 27 21 28 16 29 17 30 18 31 19 32 20 33
DOCKED: REMARK H PARENT 3 13
DOCKED: USER                              x       y       z     vdW  Elec       q    Type
DOCKED: USER                           _______ _______ _______ _____ _____    ______ ____
DOCKED: ROOT
DOCKED: ATOM      1  N   UNL     1     141.278  75.658 220.011 -0.07 +0.12    -0.334 N  
DOCKED: ATOM      2  C   UNL     1     140.566  76.051 218.811 -0.06 -0.04    +0.120 C  
DOCKED: ATOM      3  C   UNL     1     141.317  76.997 217.930 -0.12 -0.01    +0.022 C  
DOCKED: ATOM      4  C   UNL     1     142.791  76.757 217.848 -0.28 -0.00    +0.004 C  
DOCKED: ATOM      5  C   UNL     1     143.349  76.734 219.248 -0.33 -0.02    +0.030 C  
DOCKED: ATOM      6  C   UNL     1     142.720  75.679 220.126 -0.24 -0.06    +0.115 C  
DOCKED: ENDROOT
DOCKED: BRANCH   1   7
DOCKED: ATOM      7  C   UNL     1     140.452  75.235 221.116 -0.20 -0.06    +0.242 C  
DOCKED: ATOM      8  O   UNL     1     140.481  75.968 222.139 -0.41 +0.06    -0.273 OA 
DOCKED: BRANCH   7   9
DOCKED: ATOM      9  C   UNL     1     139.656  74.016 220.973 -0.14 -0.04    +0.216 C  
DOCKED: BRANCH   9  10
DOCKED: ATOM     10  N   UNL     1     139.580  73.336 222.257 -0.14 +0.06    -0.342 N  
DOCKED: ATOM     11  C   UNL     1     140.246  72.089 222.419 -0.21 -0.03    +0.270 C  
DOCKED: ATOM     12  O   UNL     1     140.875  71.640 221.410 -0.14 +0.03    -0.268 OA 
DOCKED: ATOM     13  H   UNL     1     139.039  73.757 223.069 -0.54 -0.08    +0.164 HD 
DOCKED: BRANCH  11  14
DOCKED: ATOM     14  C   UNL     1     140.201  71.364 223.690 -0.33 -0.02    +0.128 A  
DOCKED: ATOM     15  C   UNL     1     139.634  70.098 223.682 -0.27 -0.01    +0.035 A  
DOCKED: ATOM     16  N   UNL     1     140.675  71.864 224.834 -0.28 +0.03    -0.243 NA 
DOCKED: ATOM     17  C   UNL     1     139.533  69.318 224.815 -0.37 -0.00    +0.013 A  
DOCKED: ATOM     18  C   UNL     1     140.589  71.122 225.953 -0.55 -0.01    +0.071 A  
DOCKED: ATOM     19  C   UNL     1     140.033  69.859 225.985 -0.50 -0.00    +0.000 A  
DOCKED: ATOM     20  C   UNL     1     141.075  71.617 227.158 -0.75 -0.01    +0.029 A  
DOCKED: ATOM     21  C   UNL     1     139.954  69.114 227.143 -0.59 -0.00    +0.010 A  
DOCKED: ATOM     22  C   UNL     1     141.008  70.888 228.334 -0.63 -0.00    +0.002 A  
DOCKED: ATOM     23  C   UNL     1     140.438  69.611 228.336 -0.61 -0.00    +0.001 A  
DOCKED: ENDBRANCH  11  14
DOCKED: ENDBRANCH   9  10
DOCKED: ENDBRANCH   7   9
DOCKED: ENDBRANCH   1   7
DOCKED: BRANCH   6  24
DOCKED: ATOM     24  C   UNL     1     143.348  74.348 219.917 -0.33 +0.01    -0.025 A  
DOCKED: ATOM     25  C   UNL     1     144.588  74.015 220.441 -0.51 -0.00    +0.006 A  
DOCKED: ATOM     26  C   UNL     1     142.719  73.351 219.176 -0.15 -0.00    +0.006 A  
DOCKED: ATOM     27  C   UNL     1     145.173  72.780 220.249 -0.48 -0.00    +0.013 A  
DOCKED: ATOM     28  C   UNL     1     143.292  72.119 218.979 -0.13 -0.00    +0.013 A  
DOCKED: ATOM     29  C   UNL     1     144.525  71.812 219.510 -0.26 +0.00    +0.056 A  
DOCKED: BRANCH  29  30
DOCKED: ATOM     30  C   UNL     1     145.084  70.468 219.260 -0.07 +0.13    +0.416 C  
DOCKED: ATOM     31  F   UNL     1     146.428  70.485 219.552 -0.10 -0.15    -0.166 F  
DOCKED: ATOM     32  F   UNL     1     144.855  70.056 217.944 -0.02 -0.03    -0.166 F  
DOCKED: ATOM     33  F   UNL     1     144.498  69.496 220.051 -0.08 -0.04    -0.166 F  
DOCKED: ENDBRANCH  29  30
DOCKED: ENDBRANCH   6  24
DOCKED: TORSDOF 6
DOCKED: TER
DOCKED: ENDMDL
________________________________________________________________________________


    FINAL DOCKED STATE:
    ________________________


Run:   7 / 20
Time taken for this run:   0.038s

DOCKED: MODEL        7
DOCKED: USER    Run = 7
DOCKED: USER
DOCKED: USER    Estimated Free Energy of Binding    =  -9.09 kcal/mol  [=(1)+(2)+(3)-(4)]
DOCKED: USER
DOCKED: USER    (1) Final Intermolecular Energy     = -10.88 kcal/mol
DOCKED: USER        vdW + Hbond + desolv Energy     = -10.77 kcal/mol
DOCKED: USER        Electrostatic Energy            =  -0.11 kcal/mol
DOCKED: USER        Moving Ligand-Fixed Receptor    = -10.88 kcal/mol
DOCKED: USER        Moving Ligand-Moving Receptor   =  +0.00 kcal/mol
DOCKED: USER    (2) Final Total Internal Energy     =  -1.61 kcal/mol
DOCKED: USER    (3) Torsional Free Energy           =  +1.79 kcal/mol
DOCKED: USER    (4) Unbound System's Energy         =  -1.61 kcal/mol
DOCKED: USER
DOCKED: USER
DOCKED: REMARK SMILES O=C(NCC(=O)N1CCCC[C@@H]1c1ccc(C(F)(F)F)cc1)c1ccc2ccccc2n1
DOCKED: REMARK SMILES IDX 7 1 8 2 9 3 10 4 11 5 12 6 5 7 6 8 4 9 3 10 2 11 1 12 23 14
DOCKED: REMARK SMILES IDX 24 15 32 16 25 17 31 18 26 19 30 20 27 21 29 22 28 23 13 24
DOCKED: REMARK SMILES IDX 14 25 22 26 15 27 21 28 16 29 17 30 18 31 19 32 20 33
DOCKED: REMARK H PARENT 3 13
DOCKED: USER                              x       y       z     vdW  Elec       q    Type
DOCKED: USER                           _______ _______ _______ _____ _____    ______ ____
DOCKED: ROOT
DOCKED: ATOM      1  N   UNL     1     140.977  75.404 220.674 -0.11 +0.10    -0.334 N  
DOCKED: ATOM      2  C   UNL     1     141.946  74.408 221.089 -0.15 -0.03    +0.120 C  
DOCKED: ATOM      3  C   UNL     1     143.179  74.359 220.245 -0.34 -0.01    +0.022 C  
DOCKED: ATOM      4  C   UNL     1     143.671  75.684 219.758 -0.39 -0.00    +0.004 C  
DOCKED: ATOM      5  C   UNL     1     142.539  76.384 219.051 -0.30 -0.02    +0.030 C  
DOCKED: ATOM      6  C   UNL     1     141.325  76.592 219.925 -0.19 -0.05    +0.115 C  
DOCKED: ENDROOT
DOCKED: BRANCH   1   7
DOCKED: ATOM      7  C   UNL     1     139.611  75.141 221.054 -0.16 -0.05    +0.242 C  
DOCKED: ATOM      8  O   UNL     1     138.956  76.128 221.480 -0.14 +0.06    -0.273 OA 
DOCKED: BRANCH   7   9
DOCKED: ATOM      9  C   UNL     1     139.093  73.779 220.921 -0.11 -0.04    +0.216 C  
DOCKED: BRANCH   9  10
DOCKED: ATOM     10  N   UNL     1     139.116  73.124 222.219 -0.11 +0.09    -0.342 N  
DOCKED: ATOM     11  C   UNL     1     139.968  72.000 222.412 -0.21 -0.04    +0.270 C  
DOCKED: ATOM     12  O   UNL     1     140.667  71.634 221.414 -0.13 +0.04    -0.268 OA 
DOCKED: ATOM     13  H   UNL     1     138.510  73.472 223.020 -0.52 -0.11    +0.164 HD 
DOCKED: BRANCH  11  14
DOCKED: ATOM     14  C   UNL     1     140.029  71.306 223.698 -0.33 -0.02    +0.128 A  
DOCKED: ATOM     15  C   UNL     1     139.559  70.001 223.741 -0.28 -0.01    +0.035 A  
DOCKED: ATOM     16  N   UNL     1     140.510  71.867 224.810 -0.27 +0.04    -0.243 NA 
DOCKED: ATOM     17  C   UNL     1     139.563  69.243 224.893 -0.38 -0.00    +0.013 A  
DOCKED: ATOM     18  C   UNL     1     140.525  71.147 225.948 -0.55 -0.01    +0.071 A  
DOCKED: ATOM     19  C   UNL     1     140.067  69.848 226.030 -0.50 -0.00    +0.000 A  
DOCKED: ATOM     20  C   UNL     1     141.021  71.706 227.120 -0.76 -0.01    +0.029 A  
DOCKED: ATOM     21  C   UNL     1     140.091  69.128 227.206 -0.60 -0.00    +0.010 A  
DOCKED: ATOM     22  C   UNL     1     141.056  71.003 228.313 -0.66 -0.00    +0.002 A  
DOCKED: ATOM     23  C   UNL     1     140.584  69.688 228.366 -0.58 -0.00    +0.001 A  
DOCKED: ENDBRANCH  11  14
DOCKED: ENDBRANCH   9  10
DOCKED: ENDBRANCH   7   9
DOCKED: ENDBRANCH   1   7
DOCKED: BRANCH   6  24
DOCKED: ATOM     24  C   UNL     1     141.465  77.805 220.774 -0.31 +0.01    -0.025 A  
DOCKED: ATOM     25  C   UNL     1     141.672  79.070 220.244 -0.29 -0.00    +0.006 A  
DOCKED: ATOM     26  C   UNL     1     141.394  77.736 222.163 -0.33 -0.00    +0.006 A  
DOCKED: ATOM     27  C   UNL     1     141.802  80.197 221.030 -0.38 -0.01    +0.013 A  
DOCKED: ATOM     28  C   UNL     1     141.522  78.851 222.954 -0.54 -0.00    +0.013 A  
DOCKED: ATOM     29  C   UNL     1     141.727  80.098 222.404 -0.48 -0.02    +0.056 A  
DOCKED: BRANCH  29  30
DOCKED: ATOM     30  C   UNL     1     141.855  81.255 223.312 -0.27 -0.07    +0.416 C  
DOCKED: ATOM     31  F   UNL     1     141.811  82.410 222.567 -0.13 +0.02    -0.166 F  
DOCKED: ATOM     32  F   UNL     1     143.027  81.182 224.069 -0.23 +0.02    -0.166 F  
DOCKED: ATOM     33  F   UNL     1     140.830  81.316 224.238 -0.07 +0.01    -0.166 F  
DOCKED: ENDBRANCH  29  30
DOCKED: ENDBRANCH   6  24
DOCKED: TORSDOF 6
DOCKED: TER
DOCKED: ENDMDL
________________________________________________________________________________


    FINAL DOCKED STATE:
    ________________________


Run:   8 / 20
Time taken for this run:   0.038s

DOCKED: MODEL        8
DOCKED: USER    Run = 8
DOCKED: USER
DOCKED: USER    Estimated Free Energy of Binding    =  -8.50 kcal/mol  [=(1)+(2)+(3)-(4)]
DOCKED: USER
DOCKED: USER    (1) Final Intermolecular Energy     = -10.29 kcal/mol
DOCKED: USER        vdW + Hbond + desolv Energy     = -10.28 kcal/mol
DOCKED: USER        Electrostatic Energy            =  -0.01 kcal/mol
DOCKED: USER        Moving Ligand-Fixed Receptor    = -10.29 kcal/mol
DOCKED: USER        Moving Ligand-Moving Receptor   =  +0.00 kcal/mol
DOCKED: USER    (2) Final Total Internal Energy     =  -1.61 kcal/mol
DOCKED: USER    (3) Torsional Free Energy           =  +1.79 kcal/mol
DOCKED: USER    (4) Unbound System's Energy         =  -1.61 kcal/mol
DOCKED: USER
DOCKED: USER
DOCKED: REMARK SMILES O=C(NCC(=O)N1CCCC[C@@H]1c1ccc(C(F)(F)F)cc1)c1ccc2ccccc2n1
DOCKED: REMARK SMILES IDX 7 1 8 2 9 3 10 4 11 5 12 6 5 7 6 8 4 9 3 10 2 11 1 12 23 14
DOCKED: REMARK SMILES IDX 24 15 32 16 25 17 31 18 26 19 30 20 27 21 29 22 28 23 13 24
DOCKED: REMARK SMILES IDX 14 25 22 26 15 27 21 28 16 29 17 30 18 31 19 32 20 33
DOCKED: REMARK H PARENT 3 13
DOCKED: USER                              x       y       z     vdW  Elec       q    Type
DOCKED: USER                           _______ _______ _______ _____ _____    ______ ____
DOCKED: ROOT
DOCKED: ATOM      1  N   UNL     1     138.698  75.832 221.366 -0.09 +0.07    -0.334 N  
DOCKED: ATOM      2  C   UNL     1     138.241  75.904 219.992 -0.04 -0.03    +0.120 C  
DOCKED: ATOM      3  C   UNL     1     136.959  76.651 219.807 -0.03 -0.00    +0.022 C  
DOCKED: ATOM      4  C   UNL     1     136.786  77.846 220.688 -0.06 -0.00    +0.004 C  
DOCKED: ATOM      5  C   UNL     1     136.980  77.417 222.120 -0.17 -0.01    +0.030 C  
DOCKED: ATOM      6  C   UNL     1     138.332  76.797 222.380 -0.25 -0.02    +0.115 C  
DOCKED: ENDROOT
DOCKED: BRANCH   1   7
DOCKED: ATOM      7  C   UNL     1     139.558  74.716 221.679 -0.20 -0.04    +0.242 C  
DOCKED: ATOM      8  O   UNL     1     140.732  75.006 222.029 -0.64 +0.02    -0.273 OA 
DOCKED: BRANCH   7   9
DOCKED: ATOM      9  C   UNL     1     139.020  73.360 221.571 -0.15 -0.05    +0.216 C  
DOCKED: BRANCH   9  10
DOCKED: ATOM     10  N   UNL     1     139.374  72.604 222.762 -0.09 +0.09    -0.342 N  
DOCKED: ATOM     11  C   UNL     1     138.982  71.239 222.856 -0.17 -0.06    +0.270 C  
DOCKED: ATOM     12  O   UNL     1     138.333  70.760 221.873 -0.06 +0.05    -0.268 OA 
DOCKED: ATOM     13  H   UNL     1     139.919  73.055 223.556 -0.32 -0.03    +0.164 HD 
DOCKED: BRANCH  11  14
DOCKED: ATOM     14  C   UNL     1     139.313  70.434 224.033 -0.28 -0.02    +0.128 A  
DOCKED: ATOM     15  C   UNL     1     138.957  69.094 224.008 -0.30 -0.01    +0.035 A  
DOCKED: ATOM     16  N   UNL     1     139.934  70.929 225.106 -0.29 +0.04    -0.243 NA 
DOCKED: ATOM     17  C   UNL     1     139.214  68.233 225.055 -0.43 -0.00    +0.013 A  
DOCKED: ATOM     18  C   UNL     1     140.196  70.110 226.141 -0.47 -0.01    +0.071 A  
DOCKED: ATOM     19  C   UNL     1     139.858  68.772 226.154 -0.54 -0.00    +0.000 A  
DOCKED: ATOM     20  C   UNL     1     140.841  70.598 227.271 -0.62 -0.00    +0.029 A  
DOCKED: ATOM     21  C   UNL     1     140.136  67.948 227.225 -0.65 -0.00    +0.010 A  
DOCKED: ATOM     22  C   UNL     1     141.132  69.791 228.359 -0.54 -0.00    +0.002 A  
DOCKED: ATOM     23  C   UNL     1     140.776  68.439 228.344 -0.67 -0.00    +0.001 A  
DOCKED: ENDBRANCH  11  14
DOCKED: ENDBRANCH   9  10
DOCKED: ENDBRANCH   7   9
DOCKED: ENDBRANCH   1   7
DOCKED: BRANCH   6  24
DOCKED: ATOM     24  C   UNL     1     139.373  77.832 222.612 -0.31 +0.00    -0.025 A  
DOCKED: ATOM     25  C   UNL     1     139.175  78.919 223.451 -0.33 -0.00    +0.006 A  
DOCKED: ATOM     26  C   UNL     1     140.619  77.767 221.993 -0.37 -0.00    +0.006 A  
DOCKED: ATOM     27  C   UNL     1     140.140  79.882 223.667 -0.45 -0.00    +0.013 A  
DOCKED: ATOM     28  C   UNL     1     141.586  78.719 222.202 -0.45 -0.01    +0.013 A  
DOCKED: ATOM     29  C   UNL     1     141.365  79.790 223.041 -0.49 -0.01    +0.056 A  
DOCKED: BRANCH  29  30
DOCKED: ATOM     30  C   UNL     1     142.448  80.778 223.220 -0.30 -0.09    +0.416 C  
DOCKED: ATOM     31  F   UNL     1     142.582  81.049 224.562 -0.19 +0.02    -0.166 F  
DOCKED: ATOM     32  F   UNL     1     142.204  81.942 222.488 -0.11 +0.03    -0.166 F  
DOCKED: ATOM     33  F   UNL     1     143.668  80.312 222.765 -0.24 +0.06    -0.166 F  
DOCKED: ENDBRANCH  29  30
DOCKED: ENDBRANCH   6  24
DOCKED: TORSDOF 6
DOCKED: TER
DOCKED: ENDMDL
________________________________________________________________________________


    FINAL DOCKED STATE:
    ________________________


Run:   9 / 20
Time taken for this run:   0.038s

DOCKED: MODEL        9
DOCKED: USER    Run = 9
DOCKED: USER
DOCKED: USER    Estimated Free Energy of Binding    =  -8.45 kcal/mol  [=(1)+(2)+(3)-(4)]
DOCKED: USER
DOCKED: USER    (1) Final Intermolecular Energy     = -10.24 kcal/mol
DOCKED: USER        vdW + Hbond + desolv Energy     = -10.21 kcal/mol
DOCKED: USER        Electrostatic Energy            =  -0.03 kcal/mol
DOCKED: USER        Moving Ligand-Fixed Receptor    = -10.24 kcal/mol
DOCKED: USER        Moving Ligand-Moving Receptor   =  +0.00 kcal/mol
DOCKED: USER    (2) Final Total Internal Energy     =  -1.81 kcal/mol
DOCKED: USER    (3) Torsional Free Energy           =  +1.79 kcal/mol
DOCKED: USER    (4) Unbound System's Energy         =  -1.81 kcal/mol
DOCKED: USER
DOCKED: USER
DOCKED: REMARK SMILES O=C(NCC(=O)N1CCCC[C@@H]1c1ccc(C(F)(F)F)cc1)c1ccc2ccccc2n1
DOCKED: REMARK SMILES IDX 7 1 8 2 9 3 10 4 11 5 12 6 5 7 6 8 4 9 3 10 2 11 1 12 23 14
DOCKED: REMARK SMILES IDX 24 15 32 16 25 17 31 18 26 19 30 20 27 21 29 22 28 23 13 24
DOCKED: REMARK SMILES IDX 14 25 22 26 15 27 21 28 16 29 17 30 18 31 19 32 20 33
DOCKED: REMARK H PARENT 3 13
DOCKED: USER                              x       y       z     vdW  Elec       q    Type
DOCKED: USER                           _______ _______ _______ _____ _____    ______ ____
DOCKED: ROOT
DOCKED: ATOM      1  N   UNL     1     141.424  73.720 220.215 -0.06 +0.07    -0.334 N  
DOCKED: ATOM      2  C   UNL     1     142.208  72.739 220.940 -0.19 -0.02    +0.120 C  
DOCKED: ATOM      3  C   UNL     1     143.676  72.795 220.660 -0.32 -0.00    +0.022 C  
DOCKED: ATOM      4  C   UNL     1     144.237  74.167 220.469 -0.47 -0.00    +0.004 C  
DOCKED: ATOM      5  C   UNL     1     143.437  74.866 219.399 -0.32 -0.01    +0.030 C  
DOCKED: ATOM      6  C   UNL     1     141.966  74.967 219.721 -0.19 -0.04    +0.115 C  
DOCKED: ENDROOT
DOCKED: BRANCH   1   7
DOCKED: ATOM      7  C   UNL     1     140.039  73.377 220.003 -0.05 -0.05    +0.242 C  
DOCKED: ATOM      8  O   UNL     1     139.789  72.693 218.976 -0.01 +0.05    -0.273 OA 
DOCKED: BRANCH   7   9
DOCKED: ATOM      9  C   UNL     1     139.044  73.836 220.973 -0.12 -0.05    +0.216 C  
DOCKED: BRANCH   9  10
DOCKED: ATOM     10  N   UNL     1     139.339  73.261 222.276 -0.12 +0.08    -0.342 N  
DOCKED: ATOM     11  C   UNL     1     139.328  71.846 222.425 -0.18 -0.06    +0.270 C  
DOCKED: ATOM     12  O   UNL     1     139.054  71.162 221.389 -0.06 +0.05    -0.268 OA 
DOCKED: ATOM     13  H   UNL     1     139.562  73.880 223.111 -0.51 -0.03    +0.164 HD 
DOCKED: BRANCH  11  14
DOCKED: ATOM     14  C   UNL     1     139.618  71.216 223.715 -0.31 -0.03    +0.128 A  
DOCKED: ATOM     15  C   UNL     1     139.342  69.862 223.839 -0.28 -0.01    +0.035 A  
DOCKED: ATOM     16  N   UNL     1     140.128  71.881 224.754 -0.20 +0.05    -0.243 NA 
DOCKED: ATOM     17  C   UNL     1     139.572  69.157 225.002 -0.39 -0.00    +0.013 A  
DOCKED: ATOM     18  C   UNL     1     140.361  71.215 225.900 -0.53 -0.01    +0.071 A  
DOCKED: ATOM     19  C   UNL     1     140.100  69.869 226.063 -0.50 -0.00    +0.000 A  
DOCKED: ATOM     20  C   UNL     1     140.892  71.881 226.999 -0.74 -0.01    +0.029 A  
DOCKED: ATOM     21  C   UNL     1     140.347  69.205 227.246 -0.60 -0.00    +0.010 A  
DOCKED: ATOM     22  C   UNL     1     141.148  71.236 228.198 -0.70 -0.00    +0.002 A  
DOCKED: ATOM     23  C   UNL     1     140.873  69.872 228.333 -0.58 -0.00    +0.001 A  
DOCKED: ENDBRANCH  11  14
DOCKED: ENDBRANCH   9  10
DOCKED: ENDBRANCH   7   9
DOCKED: ENDBRANCH   1   7
DOCKED: BRANCH   6  24
DOCKED: ATOM     24  C   UNL     1     141.679  76.126 220.607 -0.27 +0.01    -0.025 A  
DOCKED: ATOM     25  C   UNL     1     141.072  75.988 221.847 -0.37 -0.00    +0.006 A  
DOCKED: ATOM     26  C   UNL     1     142.006  77.428 220.237 -0.31 -0.00    +0.006 A  
DOCKED: ATOM     27  C   UNL     1     140.804  77.062 222.671 -0.39 -0.00    +0.013 A  
DOCKED: ATOM     28  C   UNL     1     141.744  78.503 221.050 -0.35 -0.01    +0.013 A  
DOCKED: ATOM     29  C   UNL     1     141.141  78.340 222.278 -0.41 -0.02    +0.056 A  
DOCKED: BRANCH  29  30
DOCKED: ATOM     30  C   UNL     1     140.888  79.539 223.102 -0.23 -0.10    +0.416 C  
DOCKED: ATOM     31  F   UNL     1     141.701  79.495 224.210 -0.20 +0.04    -0.166 F  
DOCKED: ATOM     32  F   UNL     1     139.541  79.638 223.461 -0.13 +0.03    -0.166 F  
DOCKED: ATOM     33  F   UNL     1     141.169  80.713 222.426 -0.12 +0.04    -0.166 F  
DOCKED: ENDBRANCH  29  30
DOCKED: ENDBRANCH   6  24
DOCKED: TORSDOF 6
DOCKED: TER
DOCKED: ENDMDL
________________________________________________________________________________


    FINAL DOCKED STATE:
    ________________________


Run:   10 / 20
Time taken for this run:   0.038s

DOCKED: MODEL        10
DOCKED: USER    Run = 10
DOCKED: USER
DOCKED: USER    Estimated Free Energy of Binding    =  -9.13 kcal/mol  [=(1)+(2)+(3)-(4)]
DOCKED: USER
DOCKED: USER    (1) Final Intermolecular Energy     = -10.92 kcal/mol
DOCKED: USER        vdW + Hbond + desolv Energy     = -10.81 kcal/mol
DOCKED: USER        Electrostatic Energy            =  -0.11 kcal/mol
DOCKED: USER        Moving Ligand-Fixed Receptor    = -10.92 kcal/mol
DOCKED: USER        Moving Ligand-Moving Receptor   =  +0.00 kcal/mol
DOCKED: USER    (2) Final Total Internal Energy     =  -1.59 kcal/mol
DOCKED: USER    (3) Torsional Free Energy           =  +1.79 kcal/mol
DOCKED: USER    (4) Unbound System's Energy         =  -1.59 kcal/mol
DOCKED: USER
DOCKED: USER
DOCKED: REMARK SMILES O=C(NCC(=O)N1CCCC[C@@H]1c1ccc(C(F)(F)F)cc1)c1ccc2ccccc2n1
DOCKED: REMARK SMILES IDX 7 1 8 2 9 3 10 4 11 5 12 6 5 7 6 8 4 9 3 10 2 11 1 12 23 14
DOCKED: REMARK SMILES IDX 24 15 32 16 25 17 31 18 26 19 30 20 27 21 29 22 28 23 13 24
DOCKED: REMARK SMILES IDX 14 25 22 26 15 27 21 28 16 29 17 30 18 31 19 32 20 33
DOCKED: REMARK H PARENT 3 13
DOCKED: USER                              x       y       z     vdW  Elec       q    Type
DOCKED: USER                           _______ _______ _______ _____ _____    ______ ____
DOCKED: ROOT
DOCKED: ATOM      1  N   UNL     1     140.988  75.397 220.676 -0.11 +0.10    -0.334 N  
DOCKED: ATOM      2  C   UNL     1     141.963  74.405 221.085 -0.15 -0.03    +0.120 C  
DOCKED: ATOM      3  C   UNL     1     143.186  74.353 220.226 -0.34 -0.01    +0.022 C  
DOCKED: ATOM      4  C   UNL     1     143.671  75.676 219.728 -0.41 -0.00    +0.004 C  
DOCKED: ATOM      5  C   UNL     1     142.529  76.371 219.031 -0.29 -0.02    +0.030 C  
DOCKED: ATOM      6  C   UNL     1     141.326  76.582 219.918 -0.19 -0.05    +0.115 C  
DOCKED: ENDROOT
DOCKED: BRANCH   1   7
DOCKED: ATOM      7  C   UNL     1     139.627  75.134 221.074 -0.16 -0.05    +0.242 C  
DOCKED: ATOM      8  O   UNL     1     138.984  76.117 221.528 -0.15 +0.06    -0.273 OA 
DOCKED: BRANCH   7   9
DOCKED: ATOM      9  C   UNL     1     139.100  73.777 220.926 -0.11 -0.04    +0.216 C  
DOCKED: BRANCH   9  10
DOCKED: ATOM     10  N   UNL     1     139.113  73.111 222.219 -0.11 +0.09    -0.342 N  
DOCKED: ATOM     11  C   UNL     1     139.986  72.004 222.417 -0.21 -0.04    +0.270 C  
DOCKED: ATOM     12  O   UNL     1     140.711  71.663 221.429 -0.14 +0.03    -0.268 OA 
DOCKED: ATOM     13  H   UNL     1     138.485  73.438 223.012 -0.52 -0.11    +0.164 HD 
DOCKED: BRANCH  11  14
DOCKED: ATOM     14  C   UNL     1     140.039  71.298 223.698 -0.33 -0.02    +0.128 A  
DOCKED: ATOM     15  C   UNL     1     139.545  70.002 223.732 -0.28 -0.01    +0.035 A  
DOCKED: ATOM     16  N   UNL     1     140.534  71.842 224.812 -0.27 +0.04    -0.243 NA 
DOCKED: ATOM     17  C   UNL     1     139.539  69.235 224.878 -0.38 -0.00    +0.013 A  
DOCKED: ATOM     18  C   UNL     1     140.539  71.113 225.944 -0.55 -0.01    +0.071 A  
DOCKED: ATOM     19  C   UNL     1     140.058  69.822 226.018 -0.50 -0.00    +0.000 A  
DOCKED: ATOM     20  C   UNL     1     141.049  71.654 227.119 -0.75 -0.01    +0.029 A  
DOCKED: ATOM     21  C   UNL     1     140.073  69.092 227.188 -0.60 -0.00    +0.010 A  
DOCKED: ATOM     22  C   UNL     1     141.076  70.941 228.307 -0.64 -0.00    +0.002 A  
DOCKED: ATOM     23  C   UNL     1     140.580  69.634 228.350 -0.60 -0.00    +0.001 A  
DOCKED: ENDBRANCH  11  14
DOCKED: ENDBRANCH   9  10
DOCKED: ENDBRANCH   7   9
DOCKED: ENDBRANCH   1   7
DOCKED: BRANCH   6  24
DOCKED: ATOM     24  C   UNL     1     141.474  77.799 220.760 -0.31 +0.01    -0.025 A  
DOCKED: ATOM     25  C   UNL     1     141.731  79.053 220.225 -0.29 -0.00    +0.006 A  
DOCKED: ATOM     26  C   UNL     1     141.362  77.746 222.146 -0.34 -0.00    +0.006 A  
DOCKED: ATOM     27  C   UNL     1     141.869  80.183 221.004 -0.37 -0.01    +0.013 A  
DOCKED: ATOM     28  C   UNL     1     141.497  78.865 222.931 -0.53 -0.00    +0.013 A  
DOCKED: ATOM     29  C   UNL     1     141.751  80.100 222.375 -0.48 -0.02    +0.056 A  
DOCKED: BRANCH  29  30
DOCKED: ATOM     30  C   UNL     1     141.886  81.262 223.277 -0.27 -0.07    +0.416 C  
DOCKED: ATOM     31  F   UNL     1     141.800  82.414 222.530 -0.13 +0.02    -0.166 F  
DOCKED: ATOM     32  F   UNL     1     143.079  81.212 224.001 -0.23 +0.03    -0.166 F  
DOCKED: ATOM     33  F   UNL     1     140.885  81.309 224.231 -0.09 +0.01    -0.166 F  
DOCKED: ENDBRANCH  29  30
DOCKED: ENDBRANCH   6  24
DOCKED: TORSDOF 6
DOCKED: TER
DOCKED: ENDMDL
________________________________________________________________________________


    FINAL DOCKED STATE:
    ________________________


Run:   11 / 20
Time taken for this run:   0.038s

DOCKED: MODEL        11
DOCKED: USER    Run = 11
DOCKED: USER
DOCKED: USER    Estimated Free Energy of Binding    =  -8.25 kcal/mol  [=(1)+(2)+(3)-(4)]
DOCKED: USER
DOCKED: USER    (1) Final Intermolecular Energy     = -10.04 kcal/mol
DOCKED: USER        vdW + Hbond + desolv Energy     =  -9.86 kcal/mol
DOCKED: USER        Electrostatic Energy            =  -0.18 kcal/mol
DOCKED: USER        Moving Ligand-Fixed Receptor    = -10.04 kcal/mol
DOCKED: USER        Moving Ligand-Moving Receptor   =  +0.00 kcal/mol
DOCKED: USER    (2) Final Total Internal Energy     =  -1.88 kcal/mol
DOCKED: USER    (3) Torsional Free Energy           =  +1.79 kcal/mol
DOCKED: USER    (4) Unbound System's Energy         =  -1.88 kcal/mol
DOCKED: USER
DOCKED: USER
DOCKED: REMARK SMILES O=C(NCC(=O)N1CCCC[C@@H]1c1ccc(C(F)(F)F)cc1)c1ccc2ccccc2n1
DOCKED: REMARK SMILES IDX 7 1 8 2 9 3 10 4 11 5 12 6 5 7 6 8 4 9 3 10 2 11 1 12 23 14
DOCKED: REMARK SMILES IDX 24 15 32 16 25 17 31 18 26 19 30 20 27 21 29 22 28 23 13 24
DOCKED: REMARK SMILES IDX 14 25 22 26 15 27 21 28 16 29 17 30 18 31 19 32 20 33
DOCKED: REMARK H PARENT 3 13
DOCKED: USER                              x       y       z     vdW  Elec       q    Type
DOCKED: USER                           _______ _______ _______ _____ _____    ______ ____
DOCKED: ROOT
DOCKED: ATOM      1  N   UNL     1     141.317  75.544 220.067 -0.07 +0.12    -0.334 N  
DOCKED: ATOM      2  C   UNL     1     140.570  75.966 218.899 -0.06 -0.04    +0.120 C  
DOCKED: ATOM      3  C   UNL     1     141.272  76.980 218.053 -0.12 -0.01    +0.022 C  
DOCKED: ATOM      4  C   UNL     1     142.751  76.798 217.936 -0.28 -0.00    +0.004 C  
DOCKED: ATOM      5  C   UNL     1     143.335  76.729 219.324 -0.34 -0.02    +0.030 C  
DOCKED: ATOM      6  C   UNL     1     142.759  75.612 220.160 -0.21 -0.06    +0.115 C  
DOCKED: ENDROOT
DOCKED: BRANCH   1   7
DOCKED: ATOM      7  C   UNL     1     140.526  75.040 221.164 -0.21 -0.05    +0.242 C  
DOCKED: ATOM      8  O   UNL     1     140.486  75.762 222.195 -0.47 +0.05    -0.273 OA 
DOCKED: BRANCH   7   9
DOCKED: ATOM      9  C   UNL     1     139.841  73.757 221.006 -0.15 -0.04    +0.216 C  
DOCKED: BRANCH   9  10
DOCKED: ATOM     10  N   UNL     1     139.753  73.094 222.298 -0.16 +0.05    -0.342 N  
DOCKED: ATOM     11  C   UNL     1     140.209  71.752 222.419 -0.20 -0.04    +0.270 C  
DOCKED: ATOM     12  O   UNL     1     140.672  71.207 221.367 -0.12 +0.04    -0.268 OA 
DOCKED: ATOM     13  H   UNL     1     139.356  73.597 223.146 -0.49 -0.06    +0.164 HD 
DOCKED: BRANCH  11  14
DOCKED: ATOM     14  C   UNL     1     140.143  71.040 223.696 -0.31 -0.02    +0.128 A  
DOCKED: ATOM     15  C   UNL     1     139.522  69.799 223.702 -0.26 -0.01    +0.035 A  
DOCKED: ATOM     16  N   UNL     1     140.648  71.527 224.832 -0.32 +0.03    -0.243 NA 
DOCKED: ATOM     17  C   UNL     1     139.397  69.033 224.842 -0.38 -0.00    +0.013 A  
DOCKED: ATOM     18  C   UNL     1     140.539  70.798 225.958 -0.53 -0.01    +0.071 A  
DOCKED: ATOM     19  C   UNL     1     139.928  69.561 226.004 -0.49 -0.00    +0.000 A  
DOCKED: ATOM     20  C   UNL     1     141.055  71.281 227.154 -0.71 -0.00    +0.029 A  
DOCKED: ATOM     21  C   UNL     1     139.827  68.829 227.169 -0.59 -0.00    +0.010 A  
DOCKED: ATOM     22  C   UNL     1     140.966  70.564 228.337 -0.58 -0.00    +0.002 A  
DOCKED: ATOM     23  C   UNL     1     140.341  69.313 228.353 -0.64 -0.00    +0.001 A  
DOCKED: ENDBRANCH  11  14
DOCKED: ENDBRANCH   9  10
DOCKED: ENDBRANCH   7   9
DOCKED: ENDBRANCH   1   7
DOCKED: BRANCH   6  24
DOCKED: ATOM     24  C   UNL     1     143.430  74.316 219.878 -0.33 +0.01    -0.025 A  
DOCKED: ATOM     25  C   UNL     1     142.849  73.326 219.099 -0.15 -0.00    +0.006 A  
DOCKED: ATOM     26  C   UNL     1     144.691  74.019 220.388 -0.51 -0.00    +0.006 A  
DOCKED: ATOM     27  C   UNL     1     143.469  72.122 218.836 -0.13 -0.00    +0.013 A  
DOCKED: ATOM     28  C   UNL     1     145.318  72.825 220.132 -0.49 +0.00    +0.013 A  
DOCKED: ATOM     29  C   UNL     1     144.720  71.857 219.353 -0.26 +0.01    +0.056 A  
DOCKED: BRANCH  29  30
DOCKED: ATOM     30  C   UNL     1     145.449  70.595 219.118 -0.08 +0.20    +0.416 C  
DOCKED: ATOM     31  F   UNL     1     144.712  69.555 219.637 -0.09 -0.04    -0.166 F  
DOCKED: ATOM     32  F   UNL     1     146.732  70.634 219.670 -0.10 -0.18    -0.166 F  
DOCKED: ATOM     33  F   UNL     1     145.641  70.338 217.773 -0.05 -0.09    -0.166 F  
DOCKED: ENDBRANCH  29  30
DOCKED: ENDBRANCH   6  24
DOCKED: TORSDOF 6
DOCKED: TER
DOCKED: ENDMDL
________________________________________________________________________________


    FINAL DOCKED STATE:
    ________________________


Run:   12 / 20
Time taken for this run:   0.038s

DOCKED: MODEL        12
DOCKED: USER    Run = 12
DOCKED: USER
DOCKED: USER    Estimated Free Energy of Binding    =  -8.90 kcal/mol  [=(1)+(2)+(3)-(4)]
DOCKED: USER
DOCKED: USER    (1) Final Intermolecular Energy     = -10.69 kcal/mol
DOCKED: USER        vdW + Hbond + desolv Energy     = -10.65 kcal/mol
DOCKED: USER        Electrostatic Energy            =  -0.04 kcal/mol
DOCKED: USER        Moving Ligand-Fixed Receptor    = -10.69 kcal/mol
DOCKED: USER        Moving Ligand-Moving Receptor   =  +0.00 kcal/mol
DOCKED: USER    (2) Final Total Internal Energy     =  -1.64 kcal/mol
DOCKED: USER    (3) Torsional Free Energy           =  +1.79 kcal/mol
DOCKED: USER    (4) Unbound System's Energy         =  -1.64 kcal/mol
DOCKED: USER
DOCKED: USER
DOCKED: REMARK SMILES O=C(NCC(=O)N1CCCC[C@@H]1c1ccc(C(F)(F)F)cc1)c1ccc2ccccc2n1
DOCKED: REMARK SMILES IDX 7 1 8 2 9 3 10 4 11 5 12 6 5 7 6 8 4 9 3 10 2 11 1 12 23 14
DOCKED: REMARK SMILES IDX 24 15 32 16 25 17 31 18 26 19 30 20 27 21 29 22 28 23 13 24
DOCKED: REMARK SMILES IDX 14 25 22 26 15 27 21 28 16 29 17 30 18 31 19 32 20 33
DOCKED: REMARK H PARENT 3 13
DOCKED: USER                              x       y       z     vdW  Elec       q    Type
DOCKED: USER                           _______ _______ _______ _____ _____    ______ ____
DOCKED: ROOT
DOCKED: ATOM      1  N   UNL     1     140.944  75.318 220.531 -0.09 +0.10    -0.334 N  
DOCKED: ATOM      2  C   UNL     1     141.919  74.312 220.903 -0.22 -0.03    +0.120 C  
DOCKED: ATOM      3  C   UNL     1     143.175  74.342 220.092 -0.33 -0.01    +0.022 C  
DOCKED: ATOM      4  C   UNL     1     143.655  75.705 219.712 -0.41 -0.00    +0.004 C  
DOCKED: ATOM      5  C   UNL     1     142.529  76.433 219.023 -0.30 -0.02    +0.030 C  
DOCKED: ATOM      6  C   UNL     1     141.289  76.560 219.875 -0.18 -0.05    +0.115 C  
DOCKED: ENDROOT
DOCKED: BRANCH   1   7
DOCKED: ATOM      7  C   UNL     1     139.572  75.006 220.854 -0.13 -0.05    +0.242 C  
DOCKED: ATOM      8  O   UNL     1     138.818  75.991 221.071 -0.09 +0.06    -0.273 OA 
DOCKED: BRANCH   7   9
DOCKED: ATOM      9  C   UNL     1     139.163  73.602 220.906 -0.11 -0.04    +0.216 C  
DOCKED: BRANCH   9  10
DOCKED: ATOM     10  N   UNL     1     139.427  73.071 222.234 -0.14 +0.07    -0.342 N  
DOCKED: ATOM     11  C   UNL     1     139.521  71.661 222.408 -0.18 -0.05    +0.270 C  
DOCKED: ATOM     12  O   UNL     1     139.363  70.944 221.370 -0.07 +0.05    -0.268 OA 
DOCKED: ATOM     13  H   UNL     1     139.551  73.717 223.068 -0.49 -0.03    +0.164 HD 
DOCKED: BRANCH  11  14
DOCKED: ATOM     14  C   UNL     1     139.786  71.076 223.723 -0.32 -0.02    +0.128 A  
DOCKED: ATOM     15  C   UNL     1     139.518  69.724 223.884 -0.27 -0.01    +0.035 A  
DOCKED: ATOM     16  N   UNL     1     140.266  71.777 224.753 -0.26 +0.04    -0.243 NA 
DOCKED: ATOM     17  C   UNL     1     139.726  69.058 225.073 -0.39 -0.00    +0.013 A  
DOCKED: ATOM     18  C   UNL     1     140.477  71.150 225.925 -0.54 -0.01    +0.071 A  
DOCKED: ATOM     19  C   UNL     1     140.223  69.808 226.124 -0.51 -0.00    +0.000 A  
DOCKED: ATOM     20  C   UNL     1     140.976  71.855 227.013 -0.75 -0.01    +0.029 A  
DOCKED: ATOM     21  C   UNL     1     140.447  69.183 227.333 -0.61 -0.00    +0.010 A  
DOCKED: ATOM     22  C   UNL     1     141.209  71.251 228.238 -0.67 -0.00    +0.002 A  
DOCKED: ATOM     23  C   UNL     1     140.942  69.889 228.410 -0.50 -0.00    +0.001 A  
DOCKED: ENDBRANCH  11  14
DOCKED: ENDBRANCH   9  10
DOCKED: ENDBRANCH   7   9
DOCKED: ENDBRANCH   1   7
DOCKED: BRANCH   6  24
DOCKED: ATOM     24  C   UNL     1     141.384  77.713 220.810 -0.30 +0.01    -0.025 A  
DOCKED: ATOM     25  C   UNL     1     141.129  77.598 222.169 -0.40 -0.00    +0.006 A  
DOCKED: ATOM     26  C   UNL     1     141.736  78.986 220.368 -0.30 -0.00    +0.006 A  
DOCKED: ATOM     27  C   UNL     1     141.215  78.666 223.038 -0.53 -0.00    +0.013 A  
DOCKED: ATOM     28  C   UNL     1     141.825  80.055 221.224 -0.40 -0.01    +0.013 A  
DOCKED: ATOM     29  C   UNL     1     141.568  79.915 222.571 -0.47 -0.02    +0.056 A  
DOCKED: BRANCH  29  30
DOCKED: ATOM     30  C   UNL     1     141.682  81.106 223.436 -0.27 -0.07    +0.416 C  
DOCKED: ATOM     31  F   UNL     1     141.833  82.219 222.641 -0.15 +0.02    -0.166 F  
DOCKED: ATOM     32  F   UNL     1     142.737  80.981 224.343 -0.22 +0.02    -0.166 F  
DOCKED: ATOM     33  F   UNL     1     140.556  81.302 224.216 -0.05 +0.01    -0.166 F  
DOCKED: ENDBRANCH  29  30
DOCKED: ENDBRANCH   6  24
DOCKED: TORSDOF 6
DOCKED: TER
DOCKED: ENDMDL
________________________________________________________________________________


    FINAL DOCKED STATE:
    ________________________


Run:   13 / 20
Time taken for this run:   0.038s

DOCKED: MODEL        13
DOCKED: USER    Run = 13
DOCKED: USER
DOCKED: USER    Estimated Free Energy of Binding    =  -6.63 kcal/mol  [=(1)+(2)+(3)-(4)]
DOCKED: USER
DOCKED: USER    (1) Final Intermolecular Energy     =  -8.42 kcal/mol
DOCKED: USER        vdW + Hbond + desolv Energy     =  -8.39 kcal/mol
DOCKED: USER        Electrostatic Energy            =  -0.04 kcal/mol
DOCKED: USER        Moving Ligand-Fixed Receptor    =  -8.42 kcal/mol
DOCKED: USER        Moving Ligand-Moving Receptor   =  +0.00 kcal/mol
DOCKED: USER    (2) Final Total Internal Energy     =  -3.19 kcal/mol
DOCKED: USER    (3) Torsional Free Energy           =  +1.79 kcal/mol
DOCKED: USER    (4) Unbound System's Energy         =  -3.19 kcal/mol
DOCKED: USER
DOCKED: USER
DOCKED: REMARK SMILES O=C(NCC(=O)N1CCCC[C@@H]1c1ccc(C(F)(F)F)cc1)c1ccc2ccccc2n1
DOCKED: REMARK SMILES IDX 7 1 8 2 9 3 10 4 11 5 12 6 5 7 6 8 4 9 3 10 2 11 1 12 23 14
DOCKED: REMARK SMILES IDX 24 15 32 16 25 17 31 18 26 19 30 20 27 21 29 22 28 23 13 24
DOCKED: REMARK SMILES IDX 14 25 22 26 15 27 21 28 16 29 17 30 18 31 19 32 20 33
DOCKED: REMARK H PARENT 3 13
DOCKED: USER                              x       y       z     vdW  Elec       q    Type
DOCKED: USER                           _______ _______ _______ _____ _____    ______ ____
DOCKED: ROOT
DOCKED: ATOM      1  N   UNL     1     140.959  79.798 221.498 -0.11 +0.11    -0.334 N  
DOCKED: ATOM      2  C   UNL     1     142.314  80.151 221.873 -0.38 -0.05    +0.120 C  
DOCKED: ATOM      3  C   UNL     1     142.525  80.304 223.345 -0.66 -0.01    +0.022 C  
DOCKED: ATOM      4  C   UNL     1     141.768  79.340 224.201 -0.50 -0.00    +0.004 C  
DOCKED: ATOM      5  C   UNL     1     140.308  79.422 223.836 -0.44 -0.00    +0.030 C  
DOCKED: ATOM      6  C   UNL     1     140.037  79.118 222.382 -0.28 -0.03    +0.115 C  
DOCKED: ENDROOT
DOCKED: BRANCH   1   7
DOCKED: ATOM      7  C   UNL     1     140.565  80.172 220.161 -0.12 -0.08    +0.242 C  
DOCKED: ATOM      8  O   UNL     1     139.485  80.813 220.062 -0.04 +0.07    -0.273 OA 
DOCKED: BRANCH   7   9
DOCKED: ATOM      9  C   UNL     1     141.426  79.793 219.041 -0.17 -0.11    +0.216 C  
DOCKED: BRANCH   9  10
DOCKED: ATOM     10  N   UNL     1     142.122  78.557 219.365 -0.12 +0.23    -0.342 N  
DOCKED: ATOM     11  C   UNL     1     141.689  77.342 218.762 -0.13 -0.14    +0.270 C  
DOCKED: ATOM     12  O   UNL     1     140.701  77.418 217.965 -0.03 +0.11    -0.268 OA 
DOCKED: ATOM     13  H   UNL     1     142.943  78.550 220.039 -0.31 -0.18    +0.164 HD 
DOCKED: BRANCH  11  14
DOCKED: ATOM     14  C   UNL     1     142.354  76.071 219.054 -0.21 -0.06    +0.128 A  
DOCKED: ATOM     15  C   UNL     1     141.760  74.916 218.569 -0.09 -0.01    +0.035 A  
DOCKED: ATOM     16  N   UNL     1     143.488  75.983 219.754 -0.27 +0.16    -0.243 NA 
DOCKED: ATOM     17  C   UNL     1     142.290  73.659 218.777 -0.10 -0.00    +0.013 A  
DOCKED: ATOM     18  C   UNL     1     144.025  74.769 219.971 -0.39 -0.03    +0.071 A  
DOCKED: ATOM     19  C   UNL     1     143.465  73.596 219.505 -0.26 -0.00    +0.000 A  
DOCKED: ATOM     20  C   UNL     1     145.205  74.647 220.696 -0.32 -0.01    +0.029 A  
DOCKED: ATOM     21  C   UNL     1     144.032  72.361 219.738 -0.27 -0.00    +0.010 A  
DOCKED: ATOM     22  C   UNL     1     145.794  73.418 220.943 -0.69 -0.00    +0.002 A  
DOCKED: ATOM     23  C   UNL     1     145.202  72.247 220.458 -0.37 -0.00    +0.001 A  
DOCKED: ENDBRANCH  11  14
DOCKED: ENDBRANCH   9  10
DOCKED: ENDBRANCH   7   9
DOCKED: ENDBRANCH   1   7
DOCKED: BRANCH   6  24
DOCKED: ATOM     24  C   UNL     1     139.956  77.654 222.135 -0.33 +0.01    -0.025 A  
DOCKED: ATOM     25  C   UNL     1     138.760  77.007 221.860 -0.25 -0.00    +0.006 A  
DOCKED: ATOM     26  C   UNL     1     141.087  76.843 222.169 -0.37 -0.00    +0.006 A  
DOCKED: ATOM     27  C   UNL     1     138.682  75.648 221.631 -0.24 -0.00    +0.013 A  
DOCKED: ATOM     28  C   UNL     1     141.020  75.490 221.942 -0.31 -0.00    +0.013 A  
DOCKED: ATOM     29  C   UNL     1     139.820  74.871 221.669 -0.28 -0.01    +0.056 A  
DOCKED: BRANCH  29  30
DOCKED: ATOM     30  C   UNL     1     139.819  73.412 221.435 -0.12 -0.07    +0.416 C  
DOCKED: ATOM     31  F   UNL     1     139.494  73.175 220.120 -0.01 +0.03    -0.166 F  
DOCKED: ATOM     32  F   UNL     1     138.943  72.756 222.303 -0.08 +0.05    -0.166 F  
DOCKED: ATOM     33  F   UNL     1     141.056  72.839 221.669 -0.10 +0.01    -0.166 F  
DOCKED: ENDBRANCH  29  30
DOCKED: ENDBRANCH   6  24
DOCKED: TORSDOF 6
DOCKED: TER
DOCKED: ENDMDL
________________________________________________________________________________


    FINAL DOCKED STATE:
    ________________________


Run:   14 / 20
Time taken for this run:   0.038s

DOCKED: MODEL        14
DOCKED: USER    Run = 14
DOCKED: USER
DOCKED: USER    Estimated Free Energy of Binding    =  -8.56 kcal/mol  [=(1)+(2)+(3)-(4)]
DOCKED: USER
DOCKED: USER    (1) Final Intermolecular Energy     = -10.34 kcal/mol
DOCKED: USER        vdW + Hbond + desolv Energy     = -10.31 kcal/mol
DOCKED: USER        Electrostatic Energy            =  -0.04 kcal/mol
DOCKED: USER        Moving Ligand-Fixed Receptor    = -10.34 kcal/mol
DOCKED: USER        Moving Ligand-Moving Receptor   =  +0.00 kcal/mol
DOCKED: USER    (2) Final Total Internal Energy     =  -1.73 kcal/mol
DOCKED: USER    (3) Torsional Free Energy           =  +1.79 kcal/mol
DOCKED: USER    (4) Unbound System's Energy         =  -1.73 kcal/mol
DOCKED: USER
DOCKED: USER
DOCKED: REMARK SMILES O=C(NCC(=O)N1CCCC[C@@H]1c1ccc(C(F)(F)F)cc1)c1ccc2ccccc2n1
DOCKED: REMARK SMILES IDX 7 1 8 2 9 3 10 4 11 5 12 6 5 7 6 8 4 9 3 10 2 11 1 12 23 14
DOCKED: REMARK SMILES IDX 24 15 32 16 25 17 31 18 26 19 30 20 27 21 29 22 28 23 13 24
DOCKED: REMARK SMILES IDX 14 25 22 26 15 27 21 28 16 29 17 30 18 31 19 32 20 33
DOCKED: REMARK H PARENT 3 13
DOCKED: USER                              x       y       z     vdW  Elec       q    Type
DOCKED: USER                           _______ _______ _______ _____ _____    ______ ____
DOCKED: ROOT
DOCKED: ATOM      1  N   UNL     1     141.572  73.771 220.222 -0.07 +0.07    -0.334 N  
DOCKED: ATOM      2  C   UNL     1     142.400  72.809 220.923 -0.18 -0.02    +0.120 C  
DOCKED: ATOM      3  C   UNL     1     143.862  72.930 220.635 -0.35 -0.00    +0.022 C  
DOCKED: ATOM      4  C   UNL     1     144.365  74.328 220.468 -0.47 -0.00    +0.004 C  
DOCKED: ATOM      5  C   UNL     1     143.531  75.013 219.416 -0.34 -0.01    +0.030 C  
DOCKED: ATOM      6  C   UNL     1     142.059  75.049 219.749 -0.20 -0.04    +0.115 C  
DOCKED: ENDROOT
DOCKED: BRANCH   1   7
DOCKED: ATOM      7  C   UNL     1     140.200  73.376 220.013 -0.06 -0.05    +0.242 C  
DOCKED: ATOM      8  O   UNL     1     139.983  72.640 219.014 -0.01 +0.05    -0.273 OA 
DOCKED: BRANCH   7   9
DOCKED: ATOM      9  C   UNL     1     139.181  73.845 220.952 -0.12 -0.04    +0.216 C  
DOCKED: BRANCH   9  10
DOCKED: ATOM     10  N   UNL     1     139.438  73.276 222.266 -0.13 +0.07    -0.342 N  
DOCKED: ATOM     11  C   UNL     1     139.482  71.861 222.410 -0.18 -0.05    +0.270 C  
DOCKED: ATOM     12  O   UNL     1     139.289  71.172 221.358 -0.07 +0.05    -0.268 OA 
DOCKED: ATOM     13  H   UNL     1     139.592  73.899 223.113 -0.50 -0.02    +0.164 HD 
DOCKED: BRANCH  11  14
DOCKED: ATOM     14  C   UNL     1     139.736  71.237 223.709 -0.32 -0.02    +0.128 A  
DOCKED: ATOM     15  C   UNL     1     139.412  69.896 223.847 -0.28 -0.01    +0.035 A  
DOCKED: ATOM     16  N   UNL     1     140.258  71.897 224.747 -0.23 +0.05    -0.243 NA 
DOCKED: ATOM     17  C   UNL     1     139.604  69.197 225.020 -0.39 -0.00    +0.013 A  
DOCKED: ATOM     18  C   UNL     1     140.455  71.237 225.903 -0.54 -0.01    +0.071 A  
DOCKED: ATOM     19  C   UNL     1     140.146  69.903 226.079 -0.51 -0.00    +0.000 A  
DOCKED: ATOM     20  C   UNL     1     140.998  71.898 226.999 -0.76 -0.01    +0.029 A  
DOCKED: ATOM     21  C   UNL     1     140.357  69.245 227.273 -0.60 -0.00    +0.010 A  
DOCKED: ATOM     22  C   UNL     1     141.219  71.260 228.209 -0.68 -0.00    +0.002 A  
DOCKED: ATOM     23  C   UNL     1     140.895  69.907 228.357 -0.56 -0.00    +0.001 A  
DOCKED: ENDBRANCH  11  14
DOCKED: ENDBRANCH   9  10
DOCKED: ENDBRANCH   7   9
DOCKED: ENDBRANCH   1   7
DOCKED: BRANCH   6  24
DOCKED: ATOM     24  C   UNL     1     141.730  76.178 220.659 -0.26 +0.01    -0.025 A  
DOCKED: ATOM     25  C   UNL     1     141.088  75.996 221.876 -0.36 -0.00    +0.006 A  
DOCKED: ATOM     26  C   UNL     1     142.052  77.493 220.337 -0.30 -0.00    +0.006 A  
DOCKED: ATOM     27  C   UNL     1     140.782  77.043 222.722 -0.39 -0.00    +0.013 A  
DOCKED: ATOM     28  C   UNL     1     141.753  78.541 221.172 -0.36 -0.01    +0.013 A  
DOCKED: ATOM     29  C   UNL     1     141.115  78.336 222.376 -0.42 -0.02    +0.056 A  
DOCKED: BRANCH  29  30
DOCKED: ATOM     30  C   UNL     1     140.822  79.507 223.226 -0.23 -0.10    +0.416 C  
DOCKED: ATOM     31  F   UNL     1     141.826  79.642 224.156 -0.20 +0.04    -0.166 F  
DOCKED: ATOM     32  F   UNL     1     139.572  79.395 223.839 -0.15 +0.02    -0.166 F  
DOCKED: ATOM     33  F   UNL     1     140.766  80.684 222.501 -0.10 +0.03    -0.166 F  
DOCKED: ENDBRANCH  29  30
DOCKED: ENDBRANCH   6  24
DOCKED: TORSDOF 6
DOCKED: TER
DOCKED: ENDMDL
________________________________________________________________________________


    FINAL DOCKED STATE:
    ________________________


Run:   15 / 20
Time taken for this run:   0.038s

DOCKED: MODEL        15
DOCKED: USER    Run = 15
DOCKED: USER
DOCKED: USER    Estimated Free Energy of Binding    =  -9.08 kcal/mol  [=(1)+(2)+(3)-(4)]
DOCKED: USER
DOCKED: USER    (1) Final Intermolecular Energy     = -10.87 kcal/mol
DOCKED: USER        vdW + Hbond + desolv Energy     = -10.76 kcal/mol
DOCKED: USER        Electrostatic Energy            =  -0.10 kcal/mol
DOCKED: USER        Moving Ligand-Fixed Receptor    = -10.87 kcal/mol
DOCKED: USER        Moving Ligand-Moving Receptor   =  +0.00 kcal/mol
DOCKED: USER    (2) Final Total Internal Energy     =  -1.63 kcal/mol
DOCKED: USER    (3) Torsional Free Energy           =  +1.79 kcal/mol
DOCKED: USER    (4) Unbound System's Energy         =  -1.63 kcal/mol
DOCKED: USER
DOCKED: USER
DOCKED: REMARK SMILES O=C(NCC(=O)N1CCCC[C@@H]1c1ccc(C(F)(F)F)cc1)c1ccc2ccccc2n1
DOCKED: REMARK SMILES IDX 7 1 8 2 9 3 10 4 11 5 12 6 5 7 6 8 4 9 3 10 2 11 1 12 23 14
DOCKED: REMARK SMILES IDX 24 15 32 16 25 17 31 18 26 19 30 20 27 21 29 22 28 23 13 24
DOCKED: REMARK SMILES IDX 14 25 22 26 15 27 21 28 16 29 17 30 18 31 19 32 20 33
DOCKED: REMARK H PARENT 3 13
DOCKED: USER                              x       y       z     vdW  Elec       q    Type
DOCKED: USER                           _______ _______ _______ _____ _____    ______ ____
DOCKED: ROOT
DOCKED: ATOM      1  N   UNL     1     140.991  75.439 220.539 -0.10 +0.10    -0.334 N  
DOCKED: ATOM      2  C   UNL     1     141.970  74.435 220.906 -0.21 -0.03    +0.120 C  
DOCKED: ATOM      3  C   UNL     1     143.205  74.441 220.063 -0.34 -0.01    +0.022 C  
DOCKED: ATOM      4  C   UNL     1     143.683  75.794 219.643 -0.40 -0.00    +0.004 C  
DOCKED: ATOM      5  C   UNL     1     142.543  76.515 218.969 -0.30 -0.02    +0.030 C  
DOCKED: ATOM      6  C   UNL     1     141.327  76.666 219.850 -0.19 -0.05    +0.115 C  
DOCKED: ENDROOT
DOCKED: BRANCH   1   7
DOCKED: ATOM      7  C   UNL     1     139.627  75.142 220.903 -0.14 -0.05    +0.242 C  
DOCKED: ATOM      8  O   UNL     1     138.927  76.122 221.270 -0.11 +0.06    -0.273 OA 
DOCKED: BRANCH   7   9
DOCKED: ATOM      9  C   UNL     1     139.163  73.757 220.823 -0.10 -0.04    +0.216 C  
DOCKED: BRANCH   9  10
DOCKED: ATOM     10  N   UNL     1     139.221  73.151 222.144 -0.12 +0.08    -0.342 N  
DOCKED: ATOM     11  C   UNL     1     139.917  71.920 222.311 -0.20 -0.04    +0.270 C  
DOCKED: ATOM     12  O   UNL     1     140.453  71.420 221.272 -0.11 +0.04    -0.268 OA 
DOCKED: ATOM     13  H   UNL     1     138.754  73.612 222.980 -0.53 -0.10    +0.164 HD 
DOCKED: BRANCH  11  14
DOCKED: ATOM     14  C   UNL     1     140.004  71.269 223.619 -0.32 -0.02    +0.128 A  
DOCKED: ATOM     15  C   UNL     1     139.563  69.957 223.708 -0.27 -0.01    +0.035 A  
DOCKED: ATOM     16  N   UNL     1     140.484  71.876 224.707 -0.27 +0.04    -0.243 NA 
DOCKED: ATOM     17  C   UNL     1     139.594  69.237 224.883 -0.38 -0.00    +0.013 A  
DOCKED: ATOM     18  C   UNL     1     140.525  71.195 225.866 -0.54 -0.01    +0.071 A  
DOCKED: ATOM     19  C   UNL     1     140.096  69.889 225.995 -0.50 -0.00    +0.000 A  
DOCKED: ATOM     20  C   UNL     1     141.020  71.802 227.015 -0.75 -0.01    +0.029 A  
DOCKED: ATOM     21  C   UNL     1     140.147  69.208 227.193 -0.59 -0.00    +0.010 A  
DOCKED: ATOM     22  C   UNL     1     141.081  71.138 228.230 -0.70 -0.00    +0.002 A  
DOCKED: ATOM     23  C   UNL     1     140.638  69.816 228.330 -0.59 -0.00    +0.001 A  
DOCKED: ENDBRANCH  11  14
DOCKED: ENDBRANCH   9  10
DOCKED: ENDBRANCH   7   9
DOCKED: ENDBRANCH   1   7
DOCKED: BRANCH   6  24
DOCKED: ATOM     24  C   UNL     1     141.451  77.837 220.759 -0.31 +0.01    -0.025 A  
DOCKED: ATOM     25  C   UNL     1     141.372  77.725 222.139 -0.33 -0.00    +0.006 A  
DOCKED: ATOM     26  C   UNL     1     141.656  79.124 220.269 -0.29 -0.00    +0.006 A  
DOCKED: ATOM     27  C   UNL     1     141.487  78.809 222.985 -0.54 -0.00    +0.013 A  
DOCKED: ATOM     28  C   UNL     1     141.772  80.210 221.102 -0.38 -0.01    +0.013 A  
DOCKED: ATOM     29  C   UNL     1     141.690  80.072 222.470 -0.48 -0.02    +0.056 A  
DOCKED: BRANCH  29  30
DOCKED: ATOM     30  C   UNL     1     141.823  81.281 223.307 -0.27 -0.06    +0.416 C  
DOCKED: ATOM     31  F   UNL     1     141.822  82.388 222.490 -0.14 +0.02    -0.166 F  
DOCKED: ATOM     32  F   UNL     1     142.974  81.233 224.097 -0.24 +0.02    -0.166 F  
DOCKED: ATOM     33  F   UNL     1     140.776  81.423 224.201 -0.03 +0.01    -0.166 F  
DOCKED: ENDBRANCH  29  30
DOCKED: ENDBRANCH   6  24
DOCKED: TORSDOF 6
DOCKED: TER
DOCKED: ENDMDL
________________________________________________________________________________


    FINAL DOCKED STATE:
    ________________________


Run:   16 / 20
Time taken for this run:   0.038s

DOCKED: MODEL        16
DOCKED: USER    Run = 16
DOCKED: USER
DOCKED: USER    Estimated Free Energy of Binding    =  -8.42 kcal/mol  [=(1)+(2)+(3)-(4)]
DOCKED: USER
DOCKED: USER    (1) Final Intermolecular Energy     = -10.21 kcal/mol
DOCKED: USER        vdW + Hbond + desolv Energy     = -10.18 kcal/mol
DOCKED: USER        Electrostatic Energy            =  -0.03 kcal/mol
DOCKED: USER        Moving Ligand-Fixed Receptor    = -10.21 kcal/mol
DOCKED: USER        Moving Ligand-Moving Receptor   =  +0.00 kcal/mol
DOCKED: USER    (2) Final Total Internal Energy     =  -1.85 kcal/mol
DOCKED: USER    (3) Torsional Free Energy           =  +1.79 kcal/mol
DOCKED: USER    (4) Unbound System's Energy         =  -1.85 kcal/mol
DOCKED: USER
DOCKED: USER
DOCKED: REMARK SMILES O=C(NCC(=O)N1CCCC[C@@H]1c1ccc(C(F)(F)F)cc1)c1ccc2ccccc2n1
DOCKED: REMARK SMILES IDX 7 1 8 2 9 3 10 4 11 5 12 6 5 7 6 8 4 9 3 10 2 11 1 12 23 14
DOCKED: REMARK SMILES IDX 24 15 32 16 25 17 31 18 26 19 30 20 27 21 29 22 28 23 13 24
DOCKED: REMARK SMILES IDX 14 25 22 26 15 27 21 28 16 29 17 30 18 31 19 32 20 33
DOCKED: REMARK H PARENT 3 13
DOCKED: USER                              x       y       z     vdW  Elec       q    Type
DOCKED: USER                           _______ _______ _______ _____ _____    ______ ____
DOCKED: ROOT
DOCKED: ATOM      1  N   UNL     1     141.451  73.691 220.258 -0.07 +0.07    -0.334 N  
DOCKED: ATOM      2  C   UNL     1     142.207  72.703 221.001 -0.18 -0.01    +0.120 C  
DOCKED: ATOM      3  C   UNL     1     143.682  72.748 220.762 -0.30 -0.00    +0.022 C  
DOCKED: ATOM      4  C   UNL     1     144.258  74.117 220.592 -0.43 -0.00    +0.004 C  
DOCKED: ATOM      5  C   UNL     1     143.494  74.825 219.502 -0.34 -0.01    +0.030 C  
DOCKED: ATOM      6  C   UNL     1     142.015  74.936 219.784 -0.19 -0.04    +0.115 C  
DOCKED: ENDROOT
DOCKED: BRANCH   1   7
DOCKED: ATOM      7  C   UNL     1     140.069  73.360 220.008 -0.05 -0.05    +0.242 C  
DOCKED: ATOM      8  O   UNL     1     139.839  72.711 218.954 -0.01 +0.05    -0.273 OA 
DOCKED: BRANCH   7   9
DOCKED: ATOM      9  C   UNL     1     139.056  73.790 220.972 -0.11 -0.05    +0.216 C  
DOCKED: BRANCH   9  10
DOCKED: ATOM     10  N   UNL     1     139.364  73.230 222.278 -0.12 +0.08    -0.342 N  
DOCKED: ATOM     11  C   UNL     1     139.372  71.815 222.439 -0.18 -0.06    +0.270 C  
DOCKED: ATOM     12  O   UNL     1     139.101  71.120 221.409 -0.07 +0.05    -0.268 OA 
DOCKED: ATOM     13  H   UNL     1     139.583  73.858 223.107 -0.51 -0.02    +0.164 HD 
DOCKED: BRANCH  11  14
DOCKED: ATOM     14  C   UNL     1     139.676  71.200 223.732 -0.32 -0.03    +0.128 A  
DOCKED: ATOM     15  C   UNL     1     139.374  69.855 223.884 -0.29 -0.01    +0.035 A  
DOCKED: ATOM     16  N   UNL     1     140.222  71.871 224.750 -0.23 +0.05    -0.243 NA 
DOCKED: ATOM     17  C   UNL     1     139.613  69.164 225.054 -0.40 -0.00    +0.013 A  
DOCKED: ATOM     18  C   UNL     1     140.465  71.218 225.902 -0.54 -0.01    +0.071 A  
DOCKED: ATOM     19  C   UNL     1     140.179  69.881 226.092 -0.51 -0.00    +0.000 A  
DOCKED: ATOM     20  C   UNL     1     141.032  71.890 226.978 -0.76 -0.01    +0.029 A  
DOCKED: ATOM     21  C   UNL     1     140.436  69.231 227.281 -0.60 -0.00    +0.010 A  
DOCKED: ATOM     22  C   UNL     1     141.301  71.259 228.182 -0.65 -0.00    +0.002 A  
DOCKED: ATOM     23  C   UNL     1     141.000  69.903 228.345 -0.57 -0.00    +0.001 A  
DOCKED: ENDBRANCH  11  14
DOCKED: ENDBRANCH   9  10
DOCKED: ENDBRANCH   7   9
DOCKED: ENDBRANCH   1   7
DOCKED: BRANCH   6  24
DOCKED: ATOM     24  C   UNL     1     141.712  76.095 220.665 -0.26 +0.01    -0.025 A  
DOCKED: ATOM     25  C   UNL     1     141.085  75.956 221.895 -0.36 -0.00    +0.006 A  
DOCKED: ATOM     26  C   UNL     1     142.044  77.397 220.302 -0.30 -0.00    +0.006 A  
DOCKED: ATOM     27  C   UNL     1     140.803  77.029 222.715 -0.39 -0.00    +0.013 A  
DOCKED: ATOM     28  C   UNL     1     141.768  78.472 221.110 -0.35 -0.01    +0.013 A  
DOCKED: ATOM     29  C   UNL     1     141.145  78.308 222.328 -0.41 -0.02    +0.056 A  
DOCKED: BRANCH  29  30
DOCKED: ATOM     30  C   UNL     1     140.877  79.507 223.147 -0.23 -0.10    +0.416 C  
DOCKED: ATOM     31  F   UNL     1     140.867  80.611 222.327 -0.10 +0.04    -0.166 F  
DOCKED: ATOM     32  F   UNL     1     141.814  79.644 224.175 -0.20 +0.04    -0.166 F  
DOCKED: ATOM     33  F   UNL     1     139.650  79.449 223.783 -0.15 +0.02    -0.166 F  
DOCKED: ENDBRANCH  29  30
DOCKED: ENDBRANCH   6  24
DOCKED: TORSDOF 6
DOCKED: TER
DOCKED: ENDMDL
________________________________________________________________________________


    FINAL DOCKED STATE:
    ________________________


Run:   17 / 20
Time taken for this run:   0.038s

DOCKED: MODEL        17
DOCKED: USER    Run = 17
DOCKED: USER
DOCKED: USER    Estimated Free Energy of Binding    =  -8.35 kcal/mol  [=(1)+(2)+(3)-(4)]
DOCKED: USER
DOCKED: USER    (1) Final Intermolecular Energy     = -10.14 kcal/mol
DOCKED: USER        vdW + Hbond + desolv Energy     = -10.12 kcal/mol
DOCKED: USER        Electrostatic Energy            =  -0.03 kcal/mol
DOCKED: USER        Moving Ligand-Fixed Receptor    = -10.14 kcal/mol
DOCKED: USER        Moving Ligand-Moving Receptor   =  +0.00 kcal/mol
DOCKED: USER    (2) Final Total Internal Energy     =  -1.89 kcal/mol
DOCKED: USER    (3) Torsional Free Energy           =  +1.79 kcal/mol
DOCKED: USER    (4) Unbound System's Energy         =  -1.89 kcal/mol
DOCKED: USER
DOCKED: USER
DOCKED: REMARK SMILES O=C(NCC(=O)N1CCCC[C@@H]1c1ccc(C(F)(F)F)cc1)c1ccc2ccccc2n1
DOCKED: REMARK SMILES IDX 7 1 8 2 9 3 10 4 11 5 12 6 5 7 6 8 4 9 3 10 2 11 1 12 23 14
DOCKED: REMARK SMILES IDX 24 15 32 16 25 17 31 18 26 19 30 20 27 21 29 22 28 23 13 24
DOCKED: REMARK SMILES IDX 14 25 22 26 15 27 21 28 16 29 17 30 18 31 19 32 20 33
DOCKED: REMARK H PARENT 3 13
DOCKED: USER                              x       y       z     vdW  Elec       q    Type
DOCKED: USER                           _______ _______ _______ _____ _____    ______ ____
DOCKED: ROOT
DOCKED: ATOM      1  N   UNL     1     141.364  73.697 220.271 -0.07 +0.07    -0.334 N  
DOCKED: ATOM      2  C   UNL     1     142.098  72.700 221.025 -0.18 -0.01    +0.120 C  
DOCKED: ATOM      3  C   UNL     1     143.573  72.705 220.779 -0.29 -0.00    +0.022 C  
DOCKED: ATOM      4  C   UNL     1     144.182  74.056 220.589 -0.42 -0.00    +0.004 C  
DOCKED: ATOM      5  C   UNL     1     143.432  74.768 219.493 -0.33 -0.01    +0.030 C  
DOCKED: ATOM      6  C   UNL     1     141.958  74.921 219.778 -0.19 -0.04    +0.115 C  
DOCKED: ENDROOT
DOCKED: BRANCH   1   7
DOCKED: ATOM      7  C   UNL     1     139.973  73.398 220.030 -0.05 -0.05    +0.242 C  
DOCKED: ATOM      8  O   UNL     1     139.716  72.791 218.957 -0.01 +0.05    -0.273 OA 
DOCKED: BRANCH   7   9
DOCKED: ATOM      9  C   UNL     1     138.982  73.809 221.025 -0.12 -0.05    +0.216 C  
DOCKED: BRANCH   9  10
DOCKED: ATOM     10  N   UNL     1     139.328  73.236 222.316 -0.12 +0.08    -0.342 N  
DOCKED: ATOM     11  C   UNL     1     139.296  71.822 222.476 -0.18 -0.06    +0.270 C  
DOCKED: ATOM     12  O   UNL     1     138.958  71.138 221.458 -0.06 +0.05    -0.268 OA 
DOCKED: ATOM     13  H   UNL     1     139.603  73.855 223.135 -0.49 -0.02    +0.164 HD 
DOCKED: BRANCH  11  14
DOCKED: ATOM     14  C   UNL     1     139.635  71.194 223.754 -0.32 -0.03    +0.128 A  
DOCKED: ATOM     15  C   UNL     1     139.397  69.833 223.878 -0.28 -0.01    +0.035 A  
DOCKED: ATOM     16  N   UNL     1     140.154  71.867 224.784 -0.21 +0.05    -0.243 NA 
DOCKED: ATOM     17  C   UNL     1     139.674  69.129 225.032 -0.39 -0.00    +0.013 A  
DOCKED: ATOM     18  C   UNL     1     140.433  71.202 225.920 -0.54 -0.01    +0.071 A  
DOCKED: ATOM     19  C   UNL     1     140.211  69.850 226.082 -0.51 -0.00    +0.000 A  
DOCKED: ATOM     20  C   UNL     1     140.975  71.878 227.008 -0.76 -0.01    +0.029 A  
DOCKED: ATOM     21  C   UNL     1     140.505  69.187 227.256 -0.60 -0.00    +0.010 A  
DOCKED: ATOM     22  C   UNL     1     141.279  71.234 228.197 -0.65 -0.00    +0.002 A  
DOCKED: ATOM     23  C   UNL     1     141.042  69.863 228.332 -0.57 -0.00    +0.001 A  
DOCKED: ENDBRANCH  11  14
DOCKED: ENDBRANCH   9  10
DOCKED: ENDBRANCH   7   9
DOCKED: ENDBRANCH   1   7
DOCKED: BRANCH   6  24
DOCKED: ATOM     24  C   UNL     1     141.688  76.099 220.646 -0.26 +0.01    -0.025 A  
DOCKED: ATOM     25  C   UNL     1     142.012  77.394 220.271 -0.30 -0.00    +0.006 A  
DOCKED: ATOM     26  C   UNL     1     141.089  75.964 221.895 -0.36 -0.00    +0.006 A  
DOCKED: ATOM     27  C   UNL     1     141.763  78.488 221.074 -0.35 -0.01    +0.013 A  
DOCKED: ATOM     28  C   UNL     1     140.836  77.046 222.702 -0.39 -0.00    +0.013 A  
DOCKED: ATOM     29  C   UNL     1     141.167  78.324 222.307 -0.41 -0.02    +0.056 A  
DOCKED: BRANCH  29  30
DOCKED: ATOM     30  C   UNL     1     140.868  79.442 223.224 -0.23 -0.10    +0.416 C  
DOCKED: ATOM     31  F   UNL     1     141.822  79.471 224.214 -0.21 +0.04    -0.166 F  
DOCKED: ATOM     32  F   UNL     1     139.582  79.335 223.759 -0.15 +0.02    -0.166 F  
DOCKED: ATOM     33  F   UNL     1     140.894  80.669 222.585 -0.11 +0.04    -0.166 F  
DOCKED: ENDBRANCH  29  30
DOCKED: ENDBRANCH   6  24
DOCKED: TORSDOF 6
DOCKED: TER
DOCKED: ENDMDL
________________________________________________________________________________


    FINAL DOCKED STATE:
    ________________________


Run:   18 / 20
Time taken for this run:   0.038s

DOCKED: MODEL        18
DOCKED: USER    Run = 18
DOCKED: USER
DOCKED: USER    Estimated Free Energy of Binding    =  -8.95 kcal/mol  [=(1)+(2)+(3)-(4)]
DOCKED: USER
DOCKED: USER    (1) Final Intermolecular Energy     = -10.74 kcal/mol
DOCKED: USER        vdW + Hbond + desolv Energy     = -10.67 kcal/mol
DOCKED: USER        Electrostatic Energy            =  -0.07 kcal/mol
DOCKED: USER        Moving Ligand-Fixed Receptor    = -10.74 kcal/mol
DOCKED: USER        Moving Ligand-Moving Receptor   =  +0.00 kcal/mol
DOCKED: USER    (2) Final Total Internal Energy     =  -1.66 kcal/mol
DOCKED: USER    (3) Torsional Free Energy           =  +1.79 kcal/mol
DOCKED: USER    (4) Unbound System's Energy         =  -1.66 kcal/mol
DOCKED: USER
DOCKED: USER
DOCKED: REMARK SMILES O=C(NCC(=O)N1CCCC[C@@H]1c1ccc(C(F)(F)F)cc1)c1ccc2ccccc2n1
DOCKED: REMARK SMILES IDX 7 1 8 2 9 3 10 4 11 5 12 6 5 7 6 8 4 9 3 10 2 11 1 12 23 14
DOCKED: REMARK SMILES IDX 24 15 32 16 25 17 31 18 26 19 30 20 27 21 29 22 28 23 13 24
DOCKED: REMARK SMILES IDX 14 25 22 26 15 27 21 28 16 29 17 30 18 31 19 32 20 33
DOCKED: REMARK H PARENT 3 13
DOCKED: USER                              x       y       z     vdW  Elec       q    Type
DOCKED: USER                           _______ _______ _______ _____ _____    ______ ____
DOCKED: ROOT
DOCKED: ATOM      1  N   UNL     1     140.934  75.267 220.599 -0.10 +0.10    -0.334 N  
DOCKED: ATOM      2  C   UNL     1     141.817  74.221 221.075 -0.19 -0.02    +0.120 C  
DOCKED: ATOM      3  C   UNL     1     143.123  74.141 220.351 -0.33 -0.01    +0.022 C  
DOCKED: ATOM      4  C   UNL     1     143.712  75.457 219.953 -0.35 -0.00    +0.004 C  
DOCKED: ATOM      5  C   UNL     1     142.682  76.222 219.162 -0.31 -0.02    +0.030 C  
DOCKED: ATOM      6  C   UNL     1     141.399  76.459 219.922 -0.19 -0.05    +0.115 C  
DOCKED: ENDROOT
DOCKED: BRANCH   1   7
DOCKED: ATOM      7  C   UNL     1     139.527  75.052 220.840 -0.13 -0.05    +0.242 C  
DOCKED: ATOM      8  O   UNL     1     138.828  76.089 220.993 -0.08 +0.06    -0.273 OA 
DOCKED: BRANCH   7   9
DOCKED: ATOM      9  C   UNL     1     139.023  73.680 220.888 -0.10 -0.04    +0.216 C  
DOCKED: BRANCH   9  10
DOCKED: ATOM     10  N   UNL     1     139.245  73.130 222.216 -0.12 +0.08    -0.342 N  
DOCKED: ATOM     11  C   UNL     1     139.557  71.748 222.349 -0.18 -0.05    +0.270 C  
DOCKED: ATOM     12  O   UNL     1     139.622  71.069 221.276 -0.08 +0.05    -0.268 OA 
DOCKED: ATOM     13  H   UNL     1     139.177  73.744 223.082 -0.53 -0.07    +0.164 HD 
DOCKED: BRANCH  11  14
DOCKED: ATOM     14  C   UNL     1     139.789  71.146 223.663 -0.32 -0.02    +0.128 A  
DOCKED: ATOM     15  C   UNL     1     139.468  69.805 223.814 -0.27 -0.01    +0.035 A  
DOCKED: ATOM     16  N   UNL     1     140.288  71.823 224.700 -0.26 +0.04    -0.243 NA 
DOCKED: ATOM     17  C   UNL     1     139.641  69.125 225.001 -0.39 -0.00    +0.013 A  
DOCKED: ATOM     18  C   UNL     1     140.466  71.181 225.869 -0.54 -0.01    +0.071 A  
DOCKED: ATOM     19  C   UNL     1     140.159  69.849 226.059 -0.51 -0.00    +0.000 A  
DOCKED: ATOM     20  C   UNL     1     140.985  71.861 226.966 -0.75 -0.01    +0.029 A  
DOCKED: ATOM     21  C   UNL     1     140.350  69.210 227.267 -0.60 -0.00    +0.010 A  
DOCKED: ATOM     22  C   UNL     1     141.185  71.242 228.189 -0.69 -0.00    +0.002 A  
DOCKED: ATOM     23  C   UNL     1     140.864  69.890 228.351 -0.57 -0.00    +0.001 A  
DOCKED: ENDBRANCH  11  14
DOCKED: ENDBRANCH   9  10
DOCKED: ENDBRANCH   7   9
DOCKED: ENDBRANCH   1   7
DOCKED: BRANCH   6  24
DOCKED: ATOM     24  C   UNL     1     141.504  77.642 220.817 -0.31 +0.01    -0.025 A  
DOCKED: ATOM     25  C   UNL     1     141.278  77.569 222.184 -0.32 -0.00    +0.006 A  
DOCKED: ATOM     26  C   UNL     1     141.837  78.901 220.327 -0.29 -0.00    +0.006 A  
DOCKED: ATOM     27  C   UNL     1     141.375  78.665 223.016 -0.54 -0.00    +0.013 A  
DOCKED: ATOM     28  C   UNL     1     141.936  79.999 221.146 -0.37 -0.01    +0.013 A  
DOCKED: ATOM     29  C   UNL     1     141.708  79.901 222.501 -0.48 -0.02    +0.056 A  
DOCKED: BRANCH  29  30
DOCKED: ATOM     30  C   UNL     1     141.831  81.121 223.324 -0.28 -0.07    +0.416 C  
DOCKED: ATOM     31  F   UNL     1     141.827  82.218 222.495 -0.15 +0.02    -0.166 F  
DOCKED: ATOM     32  F   UNL     1     142.979  81.088 224.119 -0.24 +0.03    -0.166 F  
DOCKED: ATOM     33  F   UNL     1     140.780  81.266 224.213 -0.10 +0.01    -0.166 F  
DOCKED: ENDBRANCH  29  30
DOCKED: ENDBRANCH   6  24
DOCKED: TORSDOF 6
DOCKED: TER
DOCKED: ENDMDL
________________________________________________________________________________


    FINAL DOCKED STATE:
    ________________________


Run:   19 / 20
Time taken for this run:   0.038s

DOCKED: MODEL        19
DOCKED: USER    Run = 19
DOCKED: USER
DOCKED: USER    Estimated Free Energy of Binding    =  -8.98 kcal/mol  [=(1)+(2)+(3)-(4)]
DOCKED: USER
DOCKED: USER    (1) Final Intermolecular Energy     = -10.77 kcal/mol
DOCKED: USER        vdW + Hbond + desolv Energy     = -10.69 kcal/mol
DOCKED: USER        Electrostatic Energy            =  -0.08 kcal/mol
DOCKED: USER        Moving Ligand-Fixed Receptor    = -10.77 kcal/mol
DOCKED: USER        Moving Ligand-Moving Receptor   =  +0.00 kcal/mol
DOCKED: USER    (2) Final Total Internal Energy     =  -1.62 kcal/mol
DOCKED: USER    (3) Torsional Free Energy           =  +1.79 kcal/mol
DOCKED: USER    (4) Unbound System's Energy         =  -1.62 kcal/mol
DOCKED: USER
DOCKED: USER
DOCKED: REMARK SMILES O=C(NCC(=O)N1CCCC[C@@H]1c1ccc(C(F)(F)F)cc1)c1ccc2ccccc2n1
DOCKED: REMARK SMILES IDX 7 1 8 2 9 3 10 4 11 5 12 6 5 7 6 8 4 9 3 10 2 11 1 12 23 14
DOCKED: REMARK SMILES IDX 24 15 32 16 25 17 31 18 26 19 30 20 27 21 29 22 28 23 13 24
DOCKED: REMARK SMILES IDX 14 25 22 26 15 27 21 28 16 29 17 30 18 31 19 32 20 33
DOCKED: REMARK H PARENT 3 13
DOCKED: USER                              x       y       z     vdW  Elec       q    Type
DOCKED: USER                           _______ _______ _______ _____ _____    ______ ____
DOCKED: ROOT
DOCKED: ATOM      1  N   UNL     1     141.031  75.338 220.684 -0.11 +0.10    -0.334 N  
DOCKED: ATOM      2  C   UNL     1     142.041  74.363 221.047 -0.14 -0.03    +0.120 C  
DOCKED: ATOM      3  C   UNL     1     143.248  74.368 220.164 -0.34 -0.01    +0.022 C  
DOCKED: ATOM      4  C   UNL     1     143.686  75.717 219.691 -0.41 -0.00    +0.004 C  
DOCKED: ATOM      5  C   UNL     1     142.511  76.398 219.035 -0.29 -0.02    +0.030 C  
DOCKED: ATOM      6  C   UNL     1     141.321  76.552 219.950 -0.19 -0.05    +0.115 C  
DOCKED: ENDROOT
DOCKED: BRANCH   1   7
DOCKED: ATOM      7  C   UNL     1     139.685  75.027 221.101 -0.16 -0.05    +0.242 C  
DOCKED: ATOM      8  O   UNL     1     138.991  75.999 221.497 -0.15 +0.06    -0.273 OA 
DOCKED: BRANCH   7   9
DOCKED: ATOM      9  C   UNL     1     139.232  73.637 221.035 -0.12 -0.04    +0.216 C  
DOCKED: BRANCH   9  10
DOCKED: ATOM     10  N   UNL     1     139.379  73.019 222.343 -0.13 +0.08    -0.342 N  
DOCKED: ATOM     11  C   UNL     1     139.659  71.626 222.423 -0.18 -0.05    +0.270 C  
DOCKED: ATOM     12  O   UNL     1     139.764  70.999 221.321 -0.09 +0.04    -0.268 OA 
DOCKED: ATOM     13  H   UNL     1     139.280  73.591 223.234 -0.48 -0.08    +0.164 HD 
DOCKED: BRANCH  11  14
DOCKED: ATOM     14  C   UNL     1     139.816  70.956 223.714 -0.31 -0.02    +0.128 A  
DOCKED: ATOM     15  C   UNL     1     139.416  69.630 223.796 -0.26 -0.01    +0.035 A  
DOCKED: ATOM     16  N   UNL     1     140.319  71.558 224.794 -0.31 +0.04    -0.243 NA 
DOCKED: ATOM     17  C   UNL     1     139.513  68.892 224.957 -0.39 -0.00    +0.013 A  
DOCKED: ATOM     18  C   UNL     1     140.424  70.858 225.939 -0.53 -0.01    +0.071 A  
DOCKED: ATOM     19  C   UNL     1     140.038  69.539 226.060 -0.49 -0.00    +0.000 A  
DOCKED: ATOM     20  C   UNL     1     140.945  71.460 227.079 -0.72 -0.00    +0.029 A  
DOCKED: ATOM     21  C   UNL     1     140.154  68.839 227.243 -0.62 -0.00    +0.010 A  
DOCKED: ATOM     22  C   UNL     1     141.072  70.779 228.278 -0.62 -0.00    +0.002 A  
DOCKED: ATOM     23  C   UNL     1     140.671  69.442 228.371 -0.60 -0.00    +0.001 A  
DOCKED: ENDBRANCH  11  14
DOCKED: ENDBRANCH   9  10
DOCKED: ENDBRANCH   7   9
DOCKED: ENDBRANCH   1   7
DOCKED: BRANCH   6  24
DOCKED: ATOM     24  C   UNL     1     141.452  77.750 220.821 -0.31 +0.01    -0.025 A  
DOCKED: ATOM     25  C   UNL     1     141.321  77.690 222.201 -0.34 -0.00    +0.006 A  
DOCKED: ATOM     26  C   UNL     1     141.715  79.011 220.294 -0.29 -0.00    +0.006 A  
DOCKED: ATOM     27  C   UNL     1     141.442  78.800 223.011 -0.54 -0.00    +0.013 A  
DOCKED: ATOM     28  C   UNL     1     141.838  80.122 221.092 -0.38 -0.01    +0.013 A  
DOCKED: ATOM     29  C   UNL     1     141.704  80.037 222.460 -0.48 -0.02    +0.056 A  
DOCKED: BRANCH  29  30
DOCKED: ATOM     30  C   UNL     1     141.847  81.271 223.259 -0.27 -0.07    +0.416 C  
DOCKED: ATOM     31  F   UNL     1     141.791  82.355 222.413 -0.14 +0.02    -0.166 F  
DOCKED: ATOM     32  F   UNL     1     143.030  81.266 224.001 -0.23 +0.02    -0.166 F  
DOCKED: ATOM     33  F   UNL     1     140.835  81.417 224.191 -0.05 +0.01    -0.166 F  
DOCKED: ENDBRANCH  29  30
DOCKED: ENDBRANCH   6  24
DOCKED: TORSDOF 6
DOCKED: TER
DOCKED: ENDMDL
________________________________________________________________________________


    FINAL DOCKED STATE:
    ________________________


Run:   20 / 20
Time taken for this run:   0.038s

DOCKED: MODEL        20
DOCKED: USER    Run = 20
DOCKED: USER
DOCKED: USER    Estimated Free Energy of Binding    =  -8.46 kcal/mol  [=(1)+(2)+(3)-(4)]
DOCKED: USER
DOCKED: USER    (1) Final Intermolecular Energy     = -10.25 kcal/mol
DOCKED: USER        vdW + Hbond + desolv Energy     = -10.22 kcal/mol
DOCKED: USER        Electrostatic Energy            =  -0.03 kcal/mol
DOCKED: USER        Moving Ligand-Fixed Receptor    = -10.25 kcal/mol
DOCKED: USER        Moving Ligand-Moving Receptor   =  +0.00 kcal/mol
DOCKED: USER    (2) Final Total Internal Energy     =  -1.81 kcal/mol
DOCKED: USER    (3) Torsional Free Energy           =  +1.79 kcal/mol
DOCKED: USER    (4) Unbound System's Energy         =  -1.81 kcal/mol
DOCKED: USER
DOCKED: USER
DOCKED: REMARK SMILES O=C(NCC(=O)N1CCCC[C@@H]1c1ccc(C(F)(F)F)cc1)c1ccc2ccccc2n1
DOCKED: REMARK SMILES IDX 7 1 8 2 9 3 10 4 11 5 12 6 5 7 6 8 4 9 3 10 2 11 1 12 23 14
DOCKED: REMARK SMILES IDX 24 15 32 16 25 17 31 18 26 19 30 20 27 21 29 22 28 23 13 24
DOCKED: REMARK SMILES IDX 14 25 22 26 15 27 21 28 16 29 17 30 18 31 19 32 20 33
DOCKED: REMARK H PARENT 3 13
DOCKED: USER                              x       y       z     vdW  Elec       q    Type
DOCKED: USER                           _______ _______ _______ _____ _____    ______ ____
DOCKED: ROOT
DOCKED: ATOM      1  N   UNL     1     141.480  73.750 220.232 -0.07 +0.07    -0.334 N  
DOCKED: ATOM      2  C   UNL     1     142.266  72.763 220.947 -0.18 -0.02    +0.120 C  
DOCKED: ATOM      3  C   UNL     1     143.734  72.827 220.669 -0.32 -0.00    +0.022 C  
DOCKED: ATOM      4  C   UNL     1     144.291  74.204 220.495 -0.46 -0.00    +0.004 C  
DOCKED: ATOM      5  C   UNL     1     143.490  74.911 219.431 -0.33 -0.01    +0.030 C  
DOCKED: ATOM      6  C   UNL     1     142.018  75.005 219.753 -0.19 -0.04    +0.115 C  
DOCKED: ENDROOT
DOCKED: BRANCH   1   7
DOCKED: ATOM      7  C   UNL     1     140.096  73.405 220.016 -0.05 -0.05    +0.242 C  
DOCKED: ATOM      8  O   UNL     1     139.849  72.734 218.980 -0.01 +0.05    -0.273 OA 
DOCKED: BRANCH   7   9
DOCKED: ATOM      9  C   UNL     1     139.100  73.848 220.992 -0.12 -0.04    +0.216 C  
DOCKED: BRANCH   9  10
DOCKED: ATOM     10  N   UNL     1     139.406  73.270 222.291 -0.13 +0.07    -0.342 N  
DOCKED: ATOM     11  C   UNL     1     139.392  71.854 222.438 -0.18 -0.06    +0.270 C  
DOCKED: ATOM     12  O   UNL     1     139.104  71.173 221.404 -0.07 +0.05    -0.268 OA 
DOCKED: ATOM     13  H   UNL     1     139.640  73.886 223.125 -0.47 -0.01    +0.164 HD 
DOCKED: BRANCH  11  14
DOCKED: ATOM     14  C   UNL     1     139.693  71.222 223.724 -0.32 -0.03    +0.128 A  
DOCKED: ATOM     15  C   UNL     1     139.408  69.870 223.851 -0.28 -0.01    +0.035 A  
DOCKED: ATOM     16  N   UNL     1     140.222  71.882 224.757 -0.23 +0.05    -0.243 NA 
DOCKED: ATOM     17  C   UNL     1     139.646  69.163 225.011 -0.39 -0.00    +0.013 A  
DOCKED: ATOM     18  C   UNL     1     140.464  71.213 225.900 -0.54 -0.01    +0.071 A  
DOCKED: ATOM     19  C   UNL     1     140.194  69.870 226.065 -0.51 -0.00    +0.000 A  
DOCKED: ATOM     20  C   UNL     1     141.014  71.875 226.991 -0.76 -0.01    +0.029 A  
DOCKED: ATOM     21  C   UNL     1     140.451  69.203 227.245 -0.60 -0.00    +0.010 A  
DOCKED: ATOM     22  C   UNL     1     141.281  71.228 228.187 -0.65 -0.00    +0.002 A  
DOCKED: ATOM     23  C   UNL     1     140.996  69.865 228.325 -0.57 -0.00    +0.001 A  
DOCKED: ENDBRANCH  11  14
DOCKED: ENDBRANCH   9  10
DOCKED: ENDBRANCH   7   9
DOCKED: ENDBRANCH   1   7
DOCKED: BRANCH   6  24
DOCKED: ATOM     24  C   UNL     1     141.727  76.152 220.652 -0.26 +0.01    -0.025 A  
DOCKED: ATOM     25  C   UNL     1     141.088  76.003 221.875 -0.36 -0.00    +0.006 A  
DOCKED: ATOM     26  C   UNL     1     142.082  77.455 220.313 -0.30 -0.00    +0.006 A  
DOCKED: ATOM     27  C   UNL     1     140.816  77.066 222.710 -0.39 -0.00    +0.013 A  
DOCKED: ATOM     28  C   UNL     1     141.816  78.520 221.138 -0.36 -0.01    +0.013 A  
DOCKED: ATOM     29  C   UNL     1     141.181  78.346 222.348 -0.42 -0.02    +0.056 A  
DOCKED: BRANCH  29  30
DOCKED: ATOM     30  C   UNL     1     140.925  79.535 223.185 -0.23 -0.10    +0.416 C  
DOCKED: ATOM     31  F   UNL     1     139.745  79.351 223.868 -0.16 +0.02    -0.166 F  
DOCKED: ATOM     32  F   UNL     1     140.894  80.703 222.420 -0.11 +0.04    -0.166 F  
DOCKED: ATOM     33  F   UNL     1     141.920  79.744 224.124 -0.20 +0.04    -0.166 F  
DOCKED: ENDBRANCH  29  30
DOCKED: ENDBRANCH   6  24
DOCKED: TORSDOF 6
DOCKED: TER
DOCKED: ENDMDL
________________________________________________________________________________


    CLUSTERING HISTOGRAM
    ____________________


________________________________________________________________________________
     |           |     |           |     |
Clus | Lowest    | Run | Mean      | Num | Histogram
-ter | Binding   |     | Binding   | in  |
Rank | Energy    |     | Energy    | Clus|    5    10   15   20   25   30   35
_____|___________|_____|___________|_____|____:____|____:____|____:____|____:___
   1 |     -9.13 |  10 |     -8.74 |  15 |###############
   2 |     -8.26 |   6 |     -8.23 |   3 |###
   3 |     -6.64 |   2 |     -6.63 |   2 |##
_____|___________|_____|___________|_____|______________________________________


    RMSD TABLE
    __________


_______________________________________________________________________
     |      |      |           |         |                 |
Rank | Sub- | Run  | Binding   | Cluster | Reference       | Grep
     | Rank |      | Energy    | RMSD    | RMSD            | Pattern
_____|______|______|___________|_________|_________________|___________
   1      1     10       -9.13      0.00    272.05           RANKING
   1      2      1       -9.10      0.18    272.05           RANKING
   1      3      7       -9.09      0.04    272.05           RANKING
   1      4     15       -9.08      0.16    272.01           RANKING
   1      5     19       -8.98      0.33    272.02           RANKING
   1      6     18       -8.95      0.36    272.00           RANKING
   1      7     12       -8.90      0.44    272.01           RANKING
   1      8      5       -8.60      1.75    271.91           RANKING
   1      9     14       -8.56      1.27    271.70           RANKING
   1     10      8       -8.50      1.75    271.88           RANKING
   1     11     20       -8.46      1.28    271.69           RANKING
   1     12      4       -8.46      1.30    271.67           RANKING
   1     13      9       -8.45      1.28    271.63           RANKING
   1     14     16       -8.42      1.30    271.68           RANKING
   1     15     17       -8.35      1.31    271.67           RANKING
   2      1      6       -8.26      0.00    271.05           RANKING
   2      2     11       -8.25      0.32    271.04           RANKING
   2      3      3       -8.19      0.78    271.01           RANKING
   3      1      2       -6.64      0.00    271.06           RANKING
   3      2     13       -6.63      0.19    271.06           RANKING

Run time 0.856 sec
Idle time 0.000 sec
