AutoDock-GPU version: v1.6

**********************************************************
**    AutoDock-GPU AUTODOCKTOOLS-COMPATIBLE DLG FILE    **
**********************************************************


    DOCKING PARAMETERS
    ________________________


Ligand file:                               /home/a/REINVENT4/ReinventStudies/pleaseWork/justmol2mol_4_Compounds_ontop/graph-dock-amy28i/graph-DockGPU/node-autodockgpu/inputs/KPOQXSMHEJPNQV-WLYZKGKENA-N.pdbqt
Grid fld file:                             /home/a/REINVENT4/ReinventStudies/mols/Rad51/maps/rad51_receptor.maps.fld

Random seed:                               42
Number of runs:                            20
Number of energy evaluations:              1132076
Number of generations:                     42000
Size of population:                        150
Rate of crossover:                         80.000000%
Tournament selection probability limit:    60.000000%
Rate of mutation:                          2.000000%
Maximal allowed delta movement:            +/- 6.000000A
Maximal allowed delta angle:               +/- 90.000000

Rate of local search:                      100.000000%
Maximal number of local search iterations: 300
Rho lower bound:                           0.010000
Spread of local search delta movement:     2.000000A
Spread of local search delta angle:        74.999999
Limit of consecutive successes/failures:   4

Handle symmetry during clustering:         YES
RMSD tolerance:                            2.000000A

Program call in command line was:          /home/a/REINVENT4/ReinventStudies/adgpu-v1.6_linux_x64_cuda12_128wi --filelist batch.txt --heuristics 1 --nrun 20 --psize 150 --lsit 300 --seed 42 --heurmax 12000000 


    GRID PARAMETERS
    ________________________


Receptor name:                             rad51_receptor
Number of grid points (x, y, z):           53, 53, 53
Grid center (x, y, z):                     139.950000, 75.640000, 221.970000A
Grid size (x, y, z):                       19.500000, 19.500000, 19.500000A
Grid spacing:                              0.375000A


    LIGAND PARAMETERS
    ________________________


Ligand name:                               /home/a/REINVENT4/ReinventStudies/pleaseWork/justmol2mol_4_Compounds_ontop/graph-dock-amy28i/graph-DockGPU/node-autodockgpu/inputs/KPOQXSMHEJPNQV-WLYZKGKENA-N
Number of atoms:                           35
Number of rotatable bonds:                 6
Number of atom types:                      7


    DUMMY DATA (only for ADT-compatibility)
    ________________________


DPF> outlev 1
DPF> ga_run 20
DPF> fld /home/a/REINVENT4/ReinventStudies/mols/Rad51/maps/rad51_receptor.maps.fld
DPF> move /home/a/REINVENT4/ReinventStudies/pleaseWork/justmol2mol_4_Compounds_ontop/graph-dock-amy28i/graph-DockGPU/node-autodockgpu/inputs/KPOQXSMHEJPNQV-WLYZKGKENA-N.pdbqt


    COUNTER STATES
    ________________________


Number of energy evaluations performed:    816719
Number of generations used:                50


    INPUT LIGAND PDBQT FILE:
    ________________________


INPUT-LIGAND-PDBQT: REMARK SMILES O=C(NCC(=O)N1C[C@H](O)C[C@H]1[C@H]1CCc2ccccc2C1)c1ccc2cc(F)ccc2n1
INPUT-LIGAND-PDBQT: REMARK SMILES IDX 4 1 3 2 2 3 1 4 23 6 24 7 33 8 25 9 32 10 26 11 31 12 27 13
INPUT-LIGAND-PDBQT: REMARK SMILES IDX 30 14 28 15 29 16 5 17 6 18 7 19 8 20 12 21 9 22 11 23 13 24
INPUT-LIGAND-PDBQT: REMARK SMILES IDX 14 25 22 26 15 27 21 28 16 29 20 30 17 31 19 32 18 33 10 34
INPUT-LIGAND-PDBQT: REMARK H PARENT 3 5 10 35
INPUT-LIGAND-PDBQT: ROOT
INPUT-LIGAND-PDBQT: ATOM      1  C   UNL     1       0.884  -1.998  -1.820  1.00  0.00     0.216 C 
INPUT-LIGAND-PDBQT: ENDROOT
INPUT-LIGAND-PDBQT: BRANCH   1   2
INPUT-LIGAND-PDBQT: ATOM      2  N   UNL     1       2.088  -1.320  -1.527  1.00  0.00    -0.342 N 
INPUT-LIGAND-PDBQT: ATOM      3  C   UNL     1       2.879  -1.547  -0.348  1.00  0.00     0.270 C 
INPUT-LIGAND-PDBQT: ATOM      4  O   UNL     1       2.510  -2.413   0.518  1.00  0.00    -0.268 OA
INPUT-LIGAND-PDBQT: ATOM      5  H   UNL     1       2.491  -0.585  -2.175  1.00  0.00     0.164 HD
INPUT-LIGAND-PDBQT: BRANCH   3   6
INPUT-LIGAND-PDBQT: ATOM      6  C   UNL     1       4.123  -0.780  -0.131  1.00  0.00     0.128 A 
INPUT-LIGAND-PDBQT: ATOM      7  C   UNL     1       4.857  -1.023   1.010  1.00  0.00     0.035 A 
INPUT-LIGAND-PDBQT: ATOM      8  N   UNL     1       4.552   0.142  -1.015  1.00  0.00    -0.243 NA
INPUT-LIGAND-PDBQT: ATOM      9  C   UNL     1       6.027  -0.344   1.277  1.00  0.00     0.013 A 
INPUT-LIGAND-PDBQT: ATOM     10  C   UNL     1       5.702   0.836  -0.792  1.00  0.00     0.071 A 
INPUT-LIGAND-PDBQT: ATOM     11  C   UNL     1       6.436   0.592   0.350  1.00  0.00     0.003 A 
INPUT-LIGAND-PDBQT: ATOM     12  C   UNL     1       6.117   1.774  -1.715  1.00  0.00     0.032 A 
INPUT-LIGAND-PDBQT: ATOM     13  C   UNL     1       7.607   1.268   0.622  1.00  0.00     0.049 A 
INPUT-LIGAND-PDBQT: ATOM     14  C   UNL     1       7.292   2.465  -1.460  1.00  0.00     0.041 A 
INPUT-LIGAND-PDBQT: ATOM     15  C   UNL     1       8.041   2.222  -0.303  1.00  0.00     0.123 A 
INPUT-LIGAND-PDBQT: ATOM     16  F   UNL     1       9.187   2.882  -0.036  1.00  0.00    -0.207 F 
INPUT-LIGAND-PDBQT: ENDBRANCH   3   6
INPUT-LIGAND-PDBQT: ENDBRANCH   1   2
INPUT-LIGAND-PDBQT: BRANCH   1  17
INPUT-LIGAND-PDBQT: ATOM     17  C   UNL     1      -0.307  -1.848  -1.021  1.00  0.00     0.242 C 
INPUT-LIGAND-PDBQT: ATOM     18  O   UNL     1      -1.281  -2.639  -1.366  1.00  0.00    -0.273 OA
INPUT-LIGAND-PDBQT: BRANCH  17  19
INPUT-LIGAND-PDBQT: ATOM     19  N   UNL     1      -0.594  -0.986   0.068  1.00  0.00    -0.335 N 
INPUT-LIGAND-PDBQT: ATOM     20  C   UNL     1       0.368   0.027   0.514  1.00  0.00     0.151 C 
INPUT-LIGAND-PDBQT: ATOM     21  C   UNL     1      -1.758  -0.945   0.920  1.00  0.00     0.091 C 
INPUT-LIGAND-PDBQT: ATOM     22  C   UNL     1      -0.559   1.114   1.025  1.00  0.00     0.136 C 
INPUT-LIGAND-PDBQT: ATOM     23  C   UNL     1      -1.871   0.473   1.332  1.00  0.00     0.059 C 
INPUT-LIGAND-PDBQT: BRANCH  21  24
INPUT-LIGAND-PDBQT: ATOM     24  C   UNL     1      -3.031  -1.496   0.337  1.00  0.00     0.016 C 
INPUT-LIGAND-PDBQT: ATOM     25  C   UNL     1      -4.099  -1.456   1.399  1.00  0.00     0.011 C 
INPUT-LIGAND-PDBQT: ATOM     26  C   UNL     1      -3.497  -0.876  -0.912  1.00  0.00     0.041 C 
INPUT-LIGAND-PDBQT: ATOM     27  C   UNL     1      -4.856  -0.204   1.583  1.00  0.00     0.036 C 
INPUT-LIGAND-PDBQT: ATOM     28  C   UNL     1      -4.707  -0.034  -0.840  1.00  0.00    -0.044 A 
INPUT-LIGAND-PDBQT: ATOM     29  C   UNL     1      -5.380   0.313   0.294  1.00  0.00    -0.045 A 
INPUT-LIGAND-PDBQT: ATOM     30  C   UNL     1      -5.204   0.451  -2.044  1.00  0.00     0.004 A 
INPUT-LIGAND-PDBQT: ATOM     31  C   UNL     1      -6.505   1.105   0.300  1.00  0.00     0.004 A 
INPUT-LIGAND-PDBQT: ATOM     32  C   UNL     1      -6.332   1.246  -2.053  1.00  0.00     0.000 A 
INPUT-LIGAND-PDBQT: ATOM     33  C   UNL     1      -7.000   1.587  -0.895  1.00  0.00     0.000 A 
INPUT-LIGAND-PDBQT: ENDBRANCH  21  24
INPUT-LIGAND-PDBQT: BRANCH  22  34
INPUT-LIGAND-PDBQT: ATOM     34  O   UNL     1       0.004   1.746   2.137  1.00  0.00    -0.391 OA
INPUT-LIGAND-PDBQT: ATOM     35  H   UNL     1       0.655   2.420   1.828  1.00  0.00     0.211 HD
INPUT-LIGAND-PDBQT: ENDBRANCH  22  34
INPUT-LIGAND-PDBQT: ENDBRANCH  17  19
INPUT-LIGAND-PDBQT: ENDBRANCH   1  17
INPUT-LIGAND-PDBQT: TORSDOF 6


    FINAL DOCKED STATE:
    ________________________


Run:   1 / 20
Time taken for this run:   0.042s

DOCKED: MODEL        1
DOCKED: USER    Run = 1
DOCKED: USER
DOCKED: USER    Estimated Free Energy of Binding    =  -9.82 kcal/mol  [=(1)+(2)+(3)-(4)]
DOCKED: USER
DOCKED: USER    (1) Final Intermolecular Energy     = -11.61 kcal/mol
DOCKED: USER        vdW + Hbond + desolv Energy     = -11.48 kcal/mol
DOCKED: USER        Electrostatic Energy            =  -0.13 kcal/mol
DOCKED: USER        Moving Ligand-Fixed Receptor    = -11.61 kcal/mol
DOCKED: USER        Moving Ligand-Moving Receptor   =  +0.00 kcal/mol
DOCKED: USER    (2) Final Total Internal Energy     =  -1.33 kcal/mol
DOCKED: USER    (3) Torsional Free Energy           =  +1.79 kcal/mol
DOCKED: USER    (4) Unbound System's Energy         =  -1.33 kcal/mol
DOCKED: USER
DOCKED: USER
DOCKED: REMARK SMILES O=C(NCC(=O)N1C[C@H](O)C[C@H]1[C@H]1CCc2ccccc2C1)c1ccc2cc(F)ccc2n1
DOCKED: REMARK SMILES IDX 4 1 3 2 2 3 1 4 23 6 24 7 33 8 25 9 32 10 26 11 31 12 27 13
DOCKED: REMARK SMILES IDX 30 14 28 15 29 16 5 17 6 18 7 19 8 20 12 21 9 22 11 23 13 24
DOCKED: REMARK SMILES IDX 14 25 22 26 15 27 21 28 16 29 20 30 17 31 19 32 18 33 10 34
DOCKED: REMARK H PARENT 3 5 10 35
DOCKED: USER                              x       y       z     vdW  Elec       q    Type
DOCKED: USER                           _______ _______ _______ _____ _____    ______ ____
DOCKED: ROOT
DOCKED: ATOM      1  C   UNL     1     139.336  73.571 221.075 -0.13 -0.04    +0.216 C  
DOCKED: ENDROOT
DOCKED: BRANCH   1   2
DOCKED: ATOM      2  N   UNL     1     139.550  72.964 222.332 -0.15 +0.07    -0.342 N  
DOCKED: ATOM      3  C   UNL     1     139.988  71.606 222.512 -0.20 -0.04    +0.270 C  
DOCKED: ATOM      4  O   UNL     1     140.216  70.864 221.496 -0.11 +0.04    -0.268 OA 
DOCKED: ATOM      5  H   UNL     1     139.397  73.485 223.242 -0.47 -0.06    +0.164 HD 
DOCKED: BRANCH   3   6
DOCKED: ATOM      6  C   UNL     1     140.178  71.062 223.872 -0.33 -0.02    +0.128 A  
DOCKED: ATOM      7  C   UNL     1     140.688  71.890 224.849 -0.35 -0.00    +0.035 A  
DOCKED: ATOM      8  N   UNL     1     139.865  69.787 224.177 -0.15 +0.04    -0.243 NA 
DOCKED: ATOM      9  C   UNL     1     140.892  71.449 226.139 -0.65 -0.00    +0.013 A  
DOCKED: ATOM     10  C   UNL     1     140.049  69.310 225.439 -0.39 -0.01    +0.071 A  
DOCKED: ATOM     11  C   UNL     1     140.560  70.139 226.415 -0.56 -0.00    +0.003 A  
DOCKED: ATOM     12  C   UNL     1     139.720  68.000 225.722 -0.53 -0.00    +0.032 A  
DOCKED: ATOM     13  C   UNL     1     140.765  69.703 227.708 -0.57 -0.01    +0.049 A  
DOCKED: ATOM     14  C   UNL     1     139.919  67.542 227.016 -0.50 -0.01    +0.041 A  
DOCKED: ATOM     15  C   UNL     1     140.437  68.379 228.011 -0.55 -0.03    +0.123 A  
DOCKED: ATOM     16  F   UNL     1     140.638  67.954 229.275 -0.13 +0.05    -0.207 F  
DOCKED: ENDBRANCH   3   6
DOCKED: ENDBRANCH   1   2
DOCKED: BRANCH   1  17
DOCKED: ATOM     17  C   UNL     1     140.374  73.687 220.081 -0.07 -0.05    +0.242 C  
DOCKED: ATOM     18  O   UNL     1     140.013  73.310 218.889 -0.01 +0.06    -0.273 OA 
DOCKED: BRANCH  17  19
DOCKED: ATOM     19  N   UNL     1     141.715  74.138 220.185 -0.08 +0.08    -0.335 N  
DOCKED: ATOM     20  C   UNL     1     142.844  73.238 219.928 -0.18 -0.03    +0.151 C  
DOCKED: ATOM     21  C   UNL     1     142.217  75.435 220.569 -0.20 -0.04    +0.091 C  
DOCKED: ATOM     22  C   UNL     1     143.875  74.204 219.375 -0.26 -0.04    +0.136 C  
DOCKED: ATOM     23  C   UNL     1     143.498  75.572 219.838 -0.34 -0.03    +0.059 C  
DOCKED: BRANCH  21  24
DOCKED: ATOM     24  C   UNL     1     141.288  76.599 220.358 -0.26 -0.01    +0.016 C  
DOCKED: ATOM     25  C   UNL     1     140.208  76.544 221.407 -0.30 -0.00    +0.011 C  
DOCKED: ATOM     26  C   UNL     1     141.912  77.929 220.304 -0.27 -0.03    +0.041 C  
DOCKED: ATOM     27  C   UNL     1     140.482  77.144 222.726 -0.30 -0.01    +0.036 C  
DOCKED: ATOM     28  C   UNL     1     141.675  78.835 221.445 -0.37 +0.02    -0.044 A  
DOCKED: ATOM     29  C   UNL     1     141.017  78.523 222.598 -0.44 +0.02    -0.045 A  
DOCKED: ATOM     30  C   UNL     1     142.172  80.128 221.331 -0.40 -0.00    +0.004 A  
DOCKED: ATOM     31  C   UNL     1     140.828  79.411 223.632 -0.53 -0.00    +0.004 A  
DOCKED: ATOM     32  C   UNL     1     141.989  81.030 222.359 -0.52 -0.00    +0.000 A  
DOCKED: ATOM     33  C   UNL     1     141.321  80.695 223.519 -0.54 -0.00    +0.000 A  
DOCKED: ENDBRANCH  21  24
DOCKED: BRANCH  22  34
DOCKED: ATOM     34  O   UNL     1     145.157  73.831 219.786 -0.24 +0.07    -0.391 OA 
DOCKED: ATOM     35  H   UNL     1     145.822  74.361 219.285 -0.39 -0.10    +0.211 HD 
DOCKED: ENDBRANCH  22  34
DOCKED: ENDBRANCH  17  19
DOCKED: ENDBRANCH   1  17
DOCKED: TORSDOF 6
DOCKED: TER
DOCKED: ENDMDL
________________________________________________________________________________


    FINAL DOCKED STATE:
    ________________________


Run:   2 / 20
Time taken for this run:   0.042s

DOCKED: MODEL        2
DOCKED: USER    Run = 2
DOCKED: USER
DOCKED: USER    Estimated Free Energy of Binding    =  -8.75 kcal/mol  [=(1)+(2)+(3)-(4)]
DOCKED: USER
DOCKED: USER    (1) Final Intermolecular Energy     = -10.54 kcal/mol
DOCKED: USER        vdW + Hbond + desolv Energy     = -10.55 kcal/mol
DOCKED: USER        Electrostatic Energy            =  +0.01 kcal/mol
DOCKED: USER        Moving Ligand-Fixed Receptor    = -10.54 kcal/mol
DOCKED: USER        Moving Ligand-Moving Receptor   =  +0.00 kcal/mol
DOCKED: USER    (2) Final Total Internal Energy     =  -1.52 kcal/mol
DOCKED: USER    (3) Torsional Free Energy           =  +1.79 kcal/mol
DOCKED: USER    (4) Unbound System's Energy         =  -1.52 kcal/mol
DOCKED: USER
DOCKED: USER
DOCKED: REMARK SMILES O=C(NCC(=O)N1C[C@H](O)C[C@H]1[C@H]1CCc2ccccc2C1)c1ccc2cc(F)ccc2n1
DOCKED: REMARK SMILES IDX 4 1 3 2 2 3 1 4 23 6 24 7 33 8 25 9 32 10 26 11 31 12 27 13
DOCKED: REMARK SMILES IDX 30 14 28 15 29 16 5 17 6 18 7 19 8 20 12 21 9 22 11 23 13 24
DOCKED: REMARK SMILES IDX 14 25 22 26 15 27 21 28 16 29 20 30 17 31 19 32 18 33 10 34
DOCKED: REMARK H PARENT 3 5 10 35
DOCKED: USER                              x       y       z     vdW  Elec       q    Type
DOCKED: USER                           _______ _______ _______ _____ _____    ______ ____
DOCKED: ROOT
DOCKED: ATOM      1  C   UNL     1     139.660  73.611 221.419 -0.18 -0.04    +0.216 C  
DOCKED: ENDROOT
DOCKED: BRANCH   1   2
DOCKED: ATOM      2  N   UNL     1     139.755  72.788 222.563 -0.15 +0.06    -0.342 N  
DOCKED: ATOM      3  C   UNL     1     139.611  71.357 222.545 -0.18 -0.05    +0.270 C  
DOCKED: ATOM      4  O   UNL     1     139.387  70.747 221.443 -0.08 +0.05    -0.268 OA 
DOCKED: ATOM      5  H   UNL     1     139.942  73.185 223.527 -0.34 -0.01    +0.164 HD 
DOCKED: BRANCH   3   6
DOCKED: ATOM      6  C   UNL     1     139.722  70.585 223.799 -0.28 -0.02    +0.128 A  
DOCKED: ATOM      7  C   UNL     1     139.217  69.303 223.832 -0.27 -0.01    +0.035 A  
DOCKED: ATOM      8  N   UNL     1     140.302  71.101 224.901 -0.31 +0.04    -0.243 NA 
DOCKED: ATOM      9  C   UNL     1     139.285  68.526 224.969 -0.41 -0.00    +0.013 A  
DOCKED: ATOM     10  C   UNL     1     140.392  70.369 226.046 -0.50 -0.01    +0.071 A  
DOCKED: ATOM     11  C   UNL     1     139.885  69.086 226.078 -0.51 -0.00    +0.003 A  
DOCKED: ATOM     12  C   UNL     1     140.990  70.923 227.159 -0.65 -0.01    +0.032 A  
DOCKED: ATOM     13  C   UNL     1     139.952  68.304 227.212 -0.61 -0.01    +0.049 A  
DOCKED: ATOM     14  C   UNL     1     141.067  70.153 228.310 -0.53 -0.01    +0.041 A  
DOCKED: ATOM     15  C   UNL     1     140.555  68.851 228.348 -0.54 -0.03    +0.123 A  
DOCKED: ATOM     16  F   UNL     1     140.620  68.085 229.457 -0.09 +0.05    -0.207 F  
DOCKED: ENDBRANCH   3   6
DOCKED: ENDBRANCH   1   2
DOCKED: BRANCH   1  17
DOCKED: ATOM     17  C   UNL     1     138.448  74.305 221.059 -0.10 -0.05    +0.242 C  
DOCKED: ATOM     18  O   UNL     1     137.734  73.694 220.159 -0.02 +0.05    -0.273 OA 
DOCKED: BRANCH  17  19
DOCKED: ATOM     19  N   UNL     1     137.910  75.536 221.515 -0.08 +0.08    -0.335 N  
DOCKED: ATOM     20  C   UNL     1     136.557  75.616 222.075 -0.14 -0.03    +0.151 C  
DOCKED: ATOM     21  C   UNL     1     138.496  76.854 221.494 -0.18 -0.02    +0.091 C  
DOCKED: ATOM     22  C   UNL     1     136.716  76.744 223.078 -0.17 -0.02    +0.136 C  
DOCKED: ATOM     23  C   UNL     1     137.903  77.547 222.661 -0.24 -0.01    +0.059 C  
DOCKED: BRANCH  21  24
DOCKED: ATOM     24  C   UNL     1     139.999  76.916 221.468 -0.29 -0.00    +0.016 C  
DOCKED: ATOM     25  C   UNL     1     140.421  77.805 220.328 -0.18 -0.00    +0.011 C  
DOCKED: ATOM     26  C   UNL     1     140.656  77.310 222.723 -0.36 -0.01    +0.041 C  
DOCKED: ATOM     27  C   UNL     1     140.476  79.260 220.558 -0.20 -0.01    +0.036 C  
DOCKED: ATOM     28  C   UNL     1     141.290  78.642 222.767 -0.48 +0.02    -0.044 A  
DOCKED: ATOM     29  C   UNL     1     141.238  79.591 221.789 -0.36 +0.02    -0.045 A  
DOCKED: ATOM     30  C   UNL     1     142.006  78.956 223.916 -0.56 -0.00    +0.004 A  
DOCKED: ATOM     31  C   UNL     1     141.849  80.820 221.886 -0.47 -0.00    +0.004 A  
DOCKED: ATOM     32  C   UNL     1     142.625  80.185 224.026 -0.58 -0.00    +0.000 A  
DOCKED: ATOM     33  C   UNL     1     142.561  81.133 223.026 -0.50 -0.00    +0.000 A  
DOCKED: ENDBRANCH  21  24
DOCKED: BRANCH  22  34
DOCKED: ATOM     34  O   UNL     1     135.546  77.506 223.137 -0.08 +0.06    -0.391 OA 
DOCKED: ATOM     35  H   UNL     1     134.987  77.298 222.351 +0.04 -0.03    +0.211 HD 
DOCKED: ENDBRANCH  22  34
DOCKED: ENDBRANCH  17  19
DOCKED: ENDBRANCH   1  17
DOCKED: TORSDOF 6
DOCKED: TER
DOCKED: ENDMDL
________________________________________________________________________________


    FINAL DOCKED STATE:
    ________________________


Run:   3 / 20
Time taken for this run:   0.042s

DOCKED: MODEL        3
DOCKED: USER    Run = 3
DOCKED: USER
DOCKED: USER    Estimated Free Energy of Binding    =  -9.16 kcal/mol  [=(1)+(2)+(3)-(4)]
DOCKED: USER
DOCKED: USER    (1) Final Intermolecular Energy     = -10.95 kcal/mol
DOCKED: USER        vdW + Hbond + desolv Energy     = -10.91 kcal/mol
DOCKED: USER        Electrostatic Energy            =  -0.04 kcal/mol
DOCKED: USER        Moving Ligand-Fixed Receptor    = -10.95 kcal/mol
DOCKED: USER        Moving Ligand-Moving Receptor   =  +0.00 kcal/mol
DOCKED: USER    (2) Final Total Internal Energy     =  -1.85 kcal/mol
DOCKED: USER    (3) Torsional Free Energy           =  +1.79 kcal/mol
DOCKED: USER    (4) Unbound System's Energy         =  -1.85 kcal/mol
DOCKED: USER
DOCKED: USER
DOCKED: REMARK SMILES O=C(NCC(=O)N1C[C@H](O)C[C@H]1[C@H]1CCc2ccccc2C1)c1ccc2cc(F)ccc2n1
DOCKED: REMARK SMILES IDX 4 1 3 2 2 3 1 4 23 6 24 7 33 8 25 9 32 10 26 11 31 12 27 13
DOCKED: REMARK SMILES IDX 30 14 28 15 29 16 5 17 6 18 7 19 8 20 12 21 9 22 11 23 13 24
DOCKED: REMARK SMILES IDX 14 25 22 26 15 27 21 28 16 29 20 30 17 31 19 32 18 33 10 34
DOCKED: REMARK H PARENT 3 5 10 35
DOCKED: USER                              x       y       z     vdW  Elec       q    Type
DOCKED: USER                           _______ _______ _______ _____ _____    ______ ____
DOCKED: ROOT
DOCKED: ATOM      1  C   UNL     1     140.050  71.474 220.284 -0.06 -0.04    +0.216 C  
DOCKED: ENDROOT
DOCKED: BRANCH   1   2
DOCKED: ATOM      2  N   UNL     1     140.229  70.967 221.590 -0.07 +0.05    -0.342 N  
DOCKED: ATOM      3  C   UNL     1     140.157  71.763 222.785 -0.22 -0.04    +0.270 C  
DOCKED: ATOM      4  O   UNL     1     139.915  73.016 222.710 -0.70 +0.03    -0.268 OA 
DOCKED: ATOM      5  H   UNL     1     140.431  69.942 221.772 +0.04 -0.02    +0.164 HD 
DOCKED: BRANCH   3   6
DOCKED: ATOM      6  C   UNL     1     140.365  71.136 224.107 -0.36 -0.02    +0.128 A  
DOCKED: ATOM      7  C   UNL     1     140.874  71.906 225.130 -0.26 -0.00    +0.035 A  
DOCKED: ATOM      8  N   UNL     1     140.069  69.841 224.333 -0.14 +0.04    -0.243 NA 
DOCKED: ATOM      9  C   UNL     1     141.094  71.387 226.388 -0.68 -0.00    +0.013 A  
DOCKED: ATOM     10  C   UNL     1     140.270  69.286 225.560 -0.40 -0.01    +0.071 A  
DOCKED: ATOM     11  C   UNL     1     140.780  70.058 226.583 -0.57 -0.00    +0.003 A  
DOCKED: ATOM     12  C   UNL     1     139.958  67.957 225.762 -0.54 -0.01    +0.032 A  
DOCKED: ATOM     13  C   UNL     1     141.001  69.544 227.843 -0.56 -0.01    +0.049 A  
DOCKED: ATOM     14  C   UNL     1     140.173  67.421 227.023 -0.46 -0.01    +0.041 A  
DOCKED: ATOM     15  C   UNL     1     140.690  68.199 228.064 -0.55 -0.03    +0.123 A  
DOCKED: ATOM     16  F   UNL     1     140.907  67.697 229.298 -0.12 +0.06    -0.207 F  
DOCKED: ENDBRANCH   3   6
DOCKED: ENDBRANCH   1   2
DOCKED: BRANCH   1  17
DOCKED: ATOM     17  C   UNL     1     140.608  72.733 219.857 -0.05 -0.04    +0.242 C  
DOCKED: ATOM     18  O   UNL     1     139.836  73.413 219.060 -0.01 +0.06    -0.273 OA 
DOCKED: BRANCH  17  19
DOCKED: ATOM     19  N   UNL     1     141.851  73.349 220.154 -0.06 +0.07    -0.335 N  
DOCKED: ATOM     20  C   UNL     1     143.121  72.643 219.949 -0.18 -0.02    +0.151 C  
DOCKED: ATOM     21  C   UNL     1     142.116  74.655 220.707 -0.25 -0.03    +0.091 C  
DOCKED: ATOM     22  C   UNL     1     144.049  73.794 219.606 -0.28 -0.03    +0.136 C  
DOCKED: ATOM     23  C   UNL     1     143.430  75.041 220.143 -0.33 -0.03    +0.059 C  
DOCKED: BRANCH  21  24
DOCKED: ATOM     24  C   UNL     1     141.052  75.697 220.495 -0.25 -0.01    +0.016 C  
DOCKED: ATOM     25  C   UNL     1     140.389  75.978 221.819 -0.36 -0.00    +0.011 C  
DOCKED: ATOM     26  C   UNL     1     141.479  76.941 219.838 -0.23 -0.02    +0.041 C  
DOCKED: ATOM     27  C   UNL     1     141.016  76.962 222.720 -0.29 -0.01    +0.036 C  
DOCKED: ATOM     28  C   UNL     1     141.537  78.160 220.667 -0.29 +0.02    -0.044 A  
DOCKED: ATOM     29  C   UNL     1     141.332  78.228 222.014 -0.39 +0.02    -0.045 A  
DOCKED: ATOM     30  C   UNL     1     141.829  79.350 220.011 -0.29 -0.00    +0.004 A  
DOCKED: ATOM     31  C   UNL     1     141.400  79.397 222.737 -0.50 -0.00    +0.004 A  
DOCKED: ATOM     32  C   UNL     1     141.900  80.530 220.723 -0.35 -0.00    +0.000 A  
DOCKED: ATOM     33  C   UNL     1     141.690  80.579 222.086 -0.47 -0.00    +0.000 A  
DOCKED: ENDBRANCH  21  24
DOCKED: BRANCH  22  34
DOCKED: ATOM     34  O   UNL     1     145.324  73.558 220.128 -0.29 +0.04    -0.391 OA 
DOCKED: ATOM     35  H   UNL     1     145.974  74.131 219.657 -0.36 -0.04    +0.211 HD 
DOCKED: ENDBRANCH  22  34
DOCKED: ENDBRANCH  17  19
DOCKED: ENDBRANCH   1  17
DOCKED: TORSDOF 6
DOCKED: TER
DOCKED: ENDMDL
________________________________________________________________________________


    FINAL DOCKED STATE:
    ________________________


Run:   4 / 20
Time taken for this run:   0.042s

DOCKED: MODEL        4
DOCKED: USER    Run = 4
DOCKED: USER
DOCKED: USER    Estimated Free Energy of Binding    =  -9.84 kcal/mol  [=(1)+(2)+(3)-(4)]
DOCKED: USER
DOCKED: USER    (1) Final Intermolecular Energy     = -11.63 kcal/mol
DOCKED: USER        vdW + Hbond + desolv Energy     = -11.52 kcal/mol
DOCKED: USER        Electrostatic Energy            =  -0.11 kcal/mol
DOCKED: USER        Moving Ligand-Fixed Receptor    = -11.63 kcal/mol
DOCKED: USER        Moving Ligand-Moving Receptor   =  +0.00 kcal/mol
DOCKED: USER    (2) Final Total Internal Energy     =  -1.50 kcal/mol
DOCKED: USER    (3) Torsional Free Energy           =  +1.79 kcal/mol
DOCKED: USER    (4) Unbound System's Energy         =  -1.50 kcal/mol
DOCKED: USER
DOCKED: USER
DOCKED: REMARK SMILES O=C(NCC(=O)N1C[C@H](O)C[C@H]1[C@H]1CCc2ccccc2C1)c1ccc2cc(F)ccc2n1
DOCKED: REMARK SMILES IDX 4 1 3 2 2 3 1 4 23 6 24 7 33 8 25 9 32 10 26 11 31 12 27 13
DOCKED: REMARK SMILES IDX 30 14 28 15 29 16 5 17 6 18 7 19 8 20 12 21 9 22 11 23 13 24
DOCKED: REMARK SMILES IDX 14 25 22 26 15 27 21 28 16 29 20 30 17 31 19 32 18 33 10 34
DOCKED: REMARK H PARENT 3 5 10 35
DOCKED: USER                              x       y       z     vdW  Elec       q    Type
DOCKED: USER                           _______ _______ _______ _____ _____    ______ ____
DOCKED: ROOT
DOCKED: ATOM      1  C   UNL     1     139.889  72.308 219.738 -0.03 -0.04    +0.216 C  
DOCKED: ENDROOT
DOCKED: BRANCH   1   2
DOCKED: ATOM      2  N   UNL     1     139.925  71.604 220.962 -0.05 +0.06    -0.342 N  
DOCKED: ATOM      3  C   UNL     1     139.967  72.230 222.256 -0.20 -0.04    +0.270 C  
DOCKED: ATOM      4  O   UNL     1     139.968  73.506 222.354 -0.82 +0.02    -0.268 OA 
DOCKED: ATOM      5  H   UNL     1     139.923  70.545 221.001 +0.04 -0.03    +0.164 HD 
DOCKED: BRANCH   3   6
DOCKED: ATOM      6  C   UNL     1     140.008  71.403 223.479 -0.32 -0.02    +0.128 A  
DOCKED: ATOM      7  C   UNL     1     139.518  70.116 223.421 -0.26 -0.01    +0.035 A  
DOCKED: ATOM      8  N   UNL     1     140.509  71.873 224.638 -0.27 +0.04    -0.243 NA 
DOCKED: ATOM      9  C   UNL     1     139.525  69.288 224.524 -0.34 -0.00    +0.013 A  
DOCKED: ATOM     10  C   UNL     1     140.536  71.090 225.751 -0.54 -0.01    +0.071 A  
DOCKED: ATOM     11  C   UNL     1     140.046  69.802 225.693 -0.47 -0.00    +0.003 A  
DOCKED: ATOM     12  C   UNL     1     141.056  71.599 226.924 -0.73 -0.01    +0.032 A  
DOCKED: ATOM     13  C   UNL     1     140.051  68.970 226.792 -0.54 -0.01    +0.049 A  
DOCKED: ATOM     14  C   UNL     1     141.069  70.778 228.042 -0.63 -0.01    +0.041 A  
DOCKED: ATOM     15  C   UNL     1     140.573  69.470 227.989 -0.52 -0.02    +0.123 A  
DOCKED: ATOM     16  F   UNL     1     140.578  68.655 229.063 -0.14 +0.04    -0.207 F  
DOCKED: ENDBRANCH   3   6
DOCKED: ENDBRANCH   1   2
DOCKED: BRANCH   1  17
DOCKED: ATOM     17  C   UNL     1     140.533  73.586 219.557 -0.04 -0.05    +0.242 C  
DOCKED: ATOM     18  O   UNL     1     139.779  74.486 218.996 -0.01 +0.06    -0.273 OA 
DOCKED: BRANCH  17  19
DOCKED: ATOM     19  N   UNL     1     141.843  74.021 219.882 -0.06 +0.08    -0.335 N  
DOCKED: ATOM     20  C   UNL     1     143.012  73.168 219.645 -0.16 -0.03    +0.151 C  
DOCKED: ATOM     21  C   UNL     1     142.271  75.256 220.493 -0.25 -0.04    +0.091 C  
DOCKED: ATOM     22  C   UNL     1     144.083  74.203 219.355 -0.26 -0.04    +0.136 C  
DOCKED: ATOM     23  C   UNL     1     143.627  75.494 219.948 -0.32 -0.03    +0.059 C  
DOCKED: BRANCH  21  24
DOCKED: ATOM     24  C   UNL     1     141.351  76.436 220.329 -0.26 -0.01    +0.016 C  
DOCKED: ATOM     25  C   UNL     1     140.244  76.323 221.344 -0.30 -0.00    +0.011 C  
DOCKED: ATOM     26  C   UNL     1     141.981  77.764 220.371 -0.26 -0.03    +0.041 C  
DOCKED: ATOM     27  C   UNL     1     140.485  76.842 222.703 -0.26 -0.01    +0.036 C  
DOCKED: ATOM     28  C   UNL     1     141.717  78.601 221.558 -0.37 +0.02    -0.044 A  
DOCKED: ATOM     29  C   UNL     1     141.028  78.223 222.673 -0.46 +0.02    -0.045 A  
DOCKED: ATOM     30  C   UNL     1     142.221  79.896 221.535 -0.40 -0.00    +0.004 A  
DOCKED: ATOM     31  C   UNL     1     140.815  79.048 223.753 -0.50 -0.00    +0.004 A  
DOCKED: ATOM     32  C   UNL     1     142.014  80.735 222.611 -0.56 -0.00    +0.000 A  
DOCKED: ATOM     33  C   UNL     1     141.315  80.335 223.731 -0.54 -0.00    +0.000 A  
DOCKED: ENDBRANCH  21  24
DOCKED: BRANCH  22  34
DOCKED: ATOM     34  O   UNL     1     145.313  73.781 219.866 -0.27 +0.06    -0.391 OA 
DOCKED: ATOM     35  H   UNL     1     146.035  74.296 219.432 -0.41 -0.07    +0.211 HD 
DOCKED: ENDBRANCH  22  34
DOCKED: ENDBRANCH  17  19
DOCKED: ENDBRANCH   1  17
DOCKED: TORSDOF 6
DOCKED: TER
DOCKED: ENDMDL
________________________________________________________________________________


    FINAL DOCKED STATE:
    ________________________


Run:   5 / 20
Time taken for this run:   0.042s

DOCKED: MODEL        5
DOCKED: USER    Run = 5
DOCKED: USER
DOCKED: USER    Estimated Free Energy of Binding    =  -9.70 kcal/mol  [=(1)+(2)+(3)-(4)]
DOCKED: USER
DOCKED: USER    (1) Final Intermolecular Energy     = -11.49 kcal/mol
DOCKED: USER        vdW + Hbond + desolv Energy     = -11.34 kcal/mol
DOCKED: USER        Electrostatic Energy            =  -0.15 kcal/mol
DOCKED: USER        Moving Ligand-Fixed Receptor    = -11.49 kcal/mol
DOCKED: USER        Moving Ligand-Moving Receptor   =  +0.00 kcal/mol
DOCKED: USER    (2) Final Total Internal Energy     =  -1.36 kcal/mol
DOCKED: USER    (3) Torsional Free Energy           =  +1.79 kcal/mol
DOCKED: USER    (4) Unbound System's Energy         =  -1.36 kcal/mol
DOCKED: USER
DOCKED: USER
DOCKED: REMARK SMILES O=C(NCC(=O)N1C[C@H](O)C[C@H]1[C@H]1CCc2ccccc2C1)c1ccc2cc(F)ccc2n1
DOCKED: REMARK SMILES IDX 4 1 3 2 2 3 1 4 23 6 24 7 33 8 25 9 32 10 26 11 31 12 27 13
DOCKED: REMARK SMILES IDX 30 14 28 15 29 16 5 17 6 18 7 19 8 20 12 21 9 22 11 23 13 24
DOCKED: REMARK SMILES IDX 14 25 22 26 15 27 21 28 16 29 20 30 17 31 19 32 18 33 10 34
DOCKED: REMARK H PARENT 3 5 10 35
DOCKED: USER                              x       y       z     vdW  Elec       q    Type
DOCKED: USER                           _______ _______ _______ _____ _____    ______ ____
DOCKED: ROOT
DOCKED: ATOM      1  C   UNL     1     138.969  74.116 221.241 -0.14 -0.05    +0.216 C  
DOCKED: ENDROOT
DOCKED: BRANCH   1   2
DOCKED: ATOM      2  N   UNL     1     139.023  73.197 222.313 -0.08 +0.10    -0.342 N  
DOCKED: ATOM      3  C   UNL     1     140.207  72.484 222.709 -0.19 -0.03    +0.270 C  
DOCKED: ATOM      4  O   UNL     1     141.307  72.665 222.083 -0.26 +0.01    -0.268 OA 
DOCKED: ATOM      5  H   UNL     1     138.173  72.972 222.904 -0.41 -0.08    +0.164 HD 
DOCKED: BRANCH   3   6
DOCKED: ATOM      6  C   UNL     1     140.157  71.538 223.843 -0.35 -0.02    +0.128 A  
DOCKED: ATOM      7  C   UNL     1     139.588  70.299 223.644 -0.29 -0.01    +0.035 A  
DOCKED: ATOM      8  N   UNL     1     140.652  71.856 225.055 -0.29 +0.04    -0.243 NA 
DOCKED: ATOM      9  C   UNL     1     139.508  69.367 224.657 -0.36 -0.00    +0.013 A  
DOCKED: ATOM     10  C   UNL     1     140.594  70.967 226.085 -0.55 -0.01    +0.071 A  
DOCKED: ATOM     11  C   UNL     1     140.024  69.727 225.884 -0.48 -0.00    +0.003 A  
DOCKED: ATOM     12  C   UNL     1     141.109  71.320 227.315 -0.70 -0.01    +0.032 A  
DOCKED: ATOM     13  C   UNL     1     139.942  68.791 226.894 -0.56 -0.01    +0.049 A  
DOCKED: ATOM     14  C   UNL     1     141.035  70.393 228.344 -0.52 -0.01    +0.041 A  
DOCKED: ATOM     15  C   UNL     1     140.458  69.134 228.147 -0.53 -0.02    +0.123 A  
DOCKED: ATOM     16  F   UNL     1     140.377  68.217 229.133 -0.16 +0.05    -0.207 F  
DOCKED: ENDBRANCH   3   6
DOCKED: ENDBRANCH   1   2
DOCKED: BRANCH   1  17
DOCKED: ATOM     17  C   UNL     1     139.870  74.053 220.117 -0.06 -0.05    +0.242 C  
DOCKED: ATOM     18  O   UNL     1     139.363  73.486 219.061 -0.01 +0.06    -0.273 OA 
DOCKED: BRANCH  17  19
DOCKED: ATOM     19  N   UNL     1     141.208  74.499 219.971 -0.05 +0.09    -0.335 N  
DOCKED: ATOM     20  C   UNL     1     142.227  73.660 219.332 -0.10 -0.04    +0.151 C  
DOCKED: ATOM     21  C   UNL     1     141.814  75.732 220.412 -0.25 -0.04    +0.091 C  
DOCKED: ATOM     22  C   UNL     1     143.124  74.709 218.701 -0.17 -0.05    +0.136 C  
DOCKED: ATOM     23  C   UNL     1     142.895  75.989 219.433 -0.33 -0.03    +0.059 C  
DOCKED: BRANCH  21  24
DOCKED: ATOM     24  C   UNL     1     140.887  76.903 220.593 -0.25 -0.01    +0.016 C  
DOCKED: ATOM     25  C   UNL     1     140.287  76.829 221.973 -0.38 -0.00    +0.011 C  
DOCKED: ATOM     26  C   UNL     1     141.459  78.232 220.331 -0.28 -0.02    +0.041 C  
DOCKED: ATOM     27  C   UNL     1     141.049  77.399 223.099 -0.17 -0.01    +0.036 C  
DOCKED: ATOM     28  C   UNL     1     141.684  79.114 221.493 -0.38 +0.02    -0.044 A  
DOCKED: ATOM     29  C   UNL     1     141.511  78.779 222.803 -0.50 +0.02    -0.045 A  
DOCKED: ATOM     30  C   UNL     1     142.114  80.408 221.223 -0.39 -0.00    +0.004 A  
DOCKED: ATOM     31  C   UNL     1     141.739  79.645 223.848 -0.61 -0.00    +0.004 A  
DOCKED: ATOM     32  C   UNL     1     142.346  81.287 222.261 -0.36 -0.00    +0.000 A  
DOCKED: ATOM     33  C   UNL     1     142.166  80.930 223.581 -0.64 -0.00    +0.000 A  
DOCKED: ENDBRANCH  21  24
DOCKED: BRANCH  22  34
DOCKED: ATOM     34  O   UNL     1     144.458  74.295 218.747 -0.08 +0.14    -0.391 OA 
DOCKED: ATOM     35  H   UNL     1     144.993  74.869 218.149 -0.45 -0.15    +0.211 HD 
DOCKED: ENDBRANCH  22  34
DOCKED: ENDBRANCH  17  19
DOCKED: ENDBRANCH   1  17
DOCKED: TORSDOF 6
DOCKED: TER
DOCKED: ENDMDL
________________________________________________________________________________


    FINAL DOCKED STATE:
    ________________________


Run:   6 / 20
Time taken for this run:   0.042s

DOCKED: MODEL        6
DOCKED: USER    Run = 6
DOCKED: USER
DOCKED: USER    Estimated Free Energy of Binding    =  -9.44 kcal/mol  [=(1)+(2)+(3)-(4)]
DOCKED: USER
DOCKED: USER    (1) Final Intermolecular Energy     = -11.23 kcal/mol
DOCKED: USER        vdW + Hbond + desolv Energy     = -11.10 kcal/mol
DOCKED: USER        Electrostatic Energy            =  -0.13 kcal/mol
DOCKED: USER        Moving Ligand-Fixed Receptor    = -11.23 kcal/mol
DOCKED: USER        Moving Ligand-Moving Receptor   =  +0.00 kcal/mol
DOCKED: USER    (2) Final Total Internal Energy     =  -1.63 kcal/mol
DOCKED: USER    (3) Torsional Free Energy           =  +1.79 kcal/mol
DOCKED: USER    (4) Unbound System's Energy         =  -1.63 kcal/mol
DOCKED: USER
DOCKED: USER
DOCKED: REMARK SMILES O=C(NCC(=O)N1C[C@H](O)C[C@H]1[C@H]1CCc2ccccc2C1)c1ccc2cc(F)ccc2n1
DOCKED: REMARK SMILES IDX 4 1 3 2 2 3 1 4 23 6 24 7 33 8 25 9 32 10 26 11 31 12 27 13
DOCKED: REMARK SMILES IDX 30 14 28 15 29 16 5 17 6 18 7 19 8 20 12 21 9 22 11 23 13 24
DOCKED: REMARK SMILES IDX 14 25 22 26 15 27 21 28 16 29 20 30 17 31 19 32 18 33 10 34
DOCKED: REMARK H PARENT 3 5 10 35
DOCKED: USER                              x       y       z     vdW  Elec       q    Type
DOCKED: USER                           _______ _______ _______ _____ _____    ______ ____
DOCKED: ROOT
DOCKED: ATOM      1  C   UNL     1     139.914  72.277 220.057 -0.05 -0.04    +0.216 C  
DOCKED: ENDROOT
DOCKED: BRANCH   1   2
DOCKED: ATOM      2  N   UNL     1     139.922  71.528 221.255 -0.06 +0.06    -0.342 N  
DOCKED: ATOM      3  C   UNL     1     140.106  72.096 222.563 -0.21 -0.04    +0.270 C  
DOCKED: ATOM      4  O   UNL     1     140.274  73.356 222.701 -0.72 -0.01    -0.268 OA 
DOCKED: ATOM      5  H   UNL     1     139.788  70.477 221.262 +0.04 -0.03    +0.164 HD 
DOCKED: BRANCH   3   6
DOCKED: ATOM      6  C   UNL     1     140.104  71.224 223.756 -0.33 -0.02    +0.128 A  
DOCKED: ATOM      7  C   UNL     1     139.584  69.953 223.643 -0.26 -0.01    +0.035 A  
DOCKED: ATOM      8  N   UNL     1     140.594  71.640 224.941 -0.31 +0.04    -0.243 NA 
DOCKED: ATOM      9  C   UNL     1     139.549  69.086 224.715 -0.35 -0.00    +0.013 A  
DOCKED: ATOM     10  C   UNL     1     140.580  70.818 226.026 -0.54 -0.01    +0.071 A  
DOCKED: ATOM     11  C   UNL     1     140.060  69.545 225.911 -0.48 -0.00    +0.003 A  
DOCKED: ATOM     12  C   UNL     1     141.089  71.271 227.225 -0.70 -0.01    +0.032 A  
DOCKED: ATOM     13  C   UNL     1     140.023  68.675 226.980 -0.58 -0.01    +0.049 A  
DOCKED: ATOM     14  C   UNL     1     141.060  70.410 228.313 -0.53 -0.01    +0.041 A  
DOCKED: ATOM     15  C   UNL     1     140.534  69.118 228.203 -0.53 -0.02    +0.123 A  
DOCKED: ATOM     16  F   UNL     1     140.498  68.265 229.247 -0.12 +0.05    -0.207 F  
DOCKED: ENDBRANCH   3   6
DOCKED: ENDBRANCH   1   2
DOCKED: BRANCH   1  17
DOCKED: ATOM     17  C   UNL     1     141.114  72.825 219.475 -0.04 -0.05    +0.242 C  
DOCKED: ATOM     18  O   UNL     1     141.104  72.862 218.174 -0.00 +0.05    -0.273 OA 
DOCKED: BRANCH  17  19
DOCKED: ATOM     19  N   UNL     1     142.297  73.324 220.079 -0.07 +0.07    -0.335 N  
DOCKED: ATOM     20  C   UNL     1     143.492  72.487 220.222 -0.23 -0.02    +0.151 C  
DOCKED: ATOM     21  C   UNL     1     142.549  74.618 220.665 -0.24 -0.03    +0.091 C  
DOCKED: ATOM     22  C   UNL     1     144.596  73.523 220.119 -0.38 -0.02    +0.136 C  
DOCKED: ATOM     23  C   UNL     1     143.997  74.847 220.460 -0.28 -0.03    +0.059 C  
DOCKED: BRANCH  21  24
DOCKED: ATOM     24  C   UNL     1     141.694  75.753 220.169 -0.26 -0.01    +0.016 C  
DOCKED: ATOM     25  C   UNL     1     140.361  75.687 220.868 -0.25 -0.00    +0.011 C  
DOCKED: ATOM     26  C   UNL     1     142.279  77.098 220.261 -0.20 -0.03    +0.041 C  
DOCKED: ATOM     27  C   UNL     1     140.235  76.319 222.194 -0.36 -0.01    +0.036 C  
DOCKED: ATOM     28  C   UNL     1     141.708  78.018 221.264 -0.29 +0.03    -0.044 A  
DOCKED: ATOM     29  C   UNL     1     140.756  77.709 222.190 -0.39 +0.02    -0.045 A  
DOCKED: ATOM     30  C   UNL     1     142.190  79.322 221.263 -0.25 -0.00    +0.004 A  
DOCKED: ATOM     31  C   UNL     1     140.261  78.611 223.104 -0.42 -0.00    +0.004 A  
DOCKED: ATOM     32  C   UNL     1     141.703  80.237 222.174 -0.49 -0.00    +0.000 A  
DOCKED: ATOM     33  C   UNL     1     140.739  79.906 223.104 -0.47 -0.00    +0.000 A  
DOCKED: ENDBRANCH  21  24
DOCKED: BRANCH  22  34
DOCKED: ATOM     34  O   UNL     1     145.659  73.181 220.959 -0.37 +0.05    -0.391 OA 
DOCKED: ATOM     35  H   UNL     1     145.556  72.242 221.242 -0.38 -0.08    +0.211 HD 
DOCKED: ENDBRANCH  22  34
DOCKED: ENDBRANCH  17  19
DOCKED: ENDBRANCH   1  17
DOCKED: TORSDOF 6
DOCKED: TER
DOCKED: ENDMDL
________________________________________________________________________________


    FINAL DOCKED STATE:
    ________________________


Run:   7 / 20
Time taken for this run:   0.042s

DOCKED: MODEL        7
DOCKED: USER    Run = 7
DOCKED: USER
DOCKED: USER    Estimated Free Energy of Binding    =  -9.31 kcal/mol  [=(1)+(2)+(3)-(4)]
DOCKED: USER
DOCKED: USER    (1) Final Intermolecular Energy     = -11.10 kcal/mol
DOCKED: USER        vdW + Hbond + desolv Energy     = -10.98 kcal/mol
DOCKED: USER        Electrostatic Energy            =  -0.13 kcal/mol
DOCKED: USER        Moving Ligand-Fixed Receptor    = -11.10 kcal/mol
DOCKED: USER        Moving Ligand-Moving Receptor   =  +0.00 kcal/mol
DOCKED: USER    (2) Final Total Internal Energy     =  -1.91 kcal/mol
DOCKED: USER    (3) Torsional Free Energy           =  +1.79 kcal/mol
DOCKED: USER    (4) Unbound System's Energy         =  -1.91 kcal/mol
DOCKED: USER
DOCKED: USER
DOCKED: REMARK SMILES O=C(NCC(=O)N1C[C@H](O)C[C@H]1[C@H]1CCc2ccccc2C1)c1ccc2cc(F)ccc2n1
DOCKED: REMARK SMILES IDX 4 1 3 2 2 3 1 4 23 6 24 7 33 8 25 9 32 10 26 11 31 12 27 13
DOCKED: REMARK SMILES IDX 30 14 28 15 29 16 5 17 6 18 7 19 8 20 12 21 9 22 11 23 13 24
DOCKED: REMARK SMILES IDX 14 25 22 26 15 27 21 28 16 29 20 30 17 31 19 32 18 33 10 34
DOCKED: REMARK H PARENT 3 5 10 35
DOCKED: USER                              x       y       z     vdW  Elec       q    Type
DOCKED: USER                           _______ _______ _______ _____ _____    ______ ____
DOCKED: ROOT
DOCKED: ATOM      1  C   UNL     1     140.105  71.469 220.337 -0.07 -0.04    +0.216 C  
DOCKED: ENDROOT
DOCKED: BRANCH   1   2
DOCKED: ATOM      2  N   UNL     1     140.199  70.969 221.655 -0.07 +0.05    -0.342 N  
DOCKED: ATOM      3  C   UNL     1     140.287  71.794 222.829 -0.22 -0.04    +0.270 C  
DOCKED: ATOM      4  O   UNL     1     140.278  73.069 222.722 -0.69 +0.01    -0.268 OA 
DOCKED: ATOM      5  H   UNL     1     140.210  69.931 221.863 +0.04 -0.03    +0.164 HD 
DOCKED: BRANCH   3   6
DOCKED: ATOM      6  C   UNL     1     140.387  71.173 224.166 -0.36 -0.02    +0.128 A  
DOCKED: ATOM      7  C   UNL     1     140.954  71.901 225.190 -0.27 -0.00    +0.035 A  
DOCKED: ATOM      8  N   UNL     1     139.942  69.924 224.403 -0.18 +0.04    -0.243 NA 
DOCKED: ATOM      9  C   UNL     1     141.081  71.384 226.462 -0.69 -0.00    +0.013 A  
DOCKED: ATOM     10  C   UNL     1     140.046  69.373 225.644 -0.41 -0.01    +0.071 A  
DOCKED: ATOM     11  C   UNL     1     140.613  70.102 226.669 -0.57 -0.00    +0.003 A  
DOCKED: ATOM     12  C   UNL     1     139.581  68.092 225.858 -0.54 -0.00    +0.032 A  
DOCKED: ATOM     13  C   UNL     1     140.742  69.590 227.943 -0.58 -0.01    +0.049 A  
DOCKED: ATOM     14  C   UNL     1     139.702  67.559 227.133 -0.45 -0.01    +0.041 A  
DOCKED: ATOM     15  C   UNL     1     140.276  68.293 228.176 -0.51 -0.03    +0.123 A  
DOCKED: ATOM     16  F   UNL     1     140.402  67.794 229.423 -0.08 +0.05    -0.207 F  
DOCKED: ENDBRANCH   3   6
DOCKED: ENDBRANCH   1   2
DOCKED: BRANCH   1  17
DOCKED: ATOM     17  C   UNL     1     141.181  72.186 219.698 -0.05 -0.04    +0.242 C  
DOCKED: ATOM     18  O   UNL     1     141.081  72.249 218.402 -0.01 +0.05    -0.273 OA 
DOCKED: BRANCH  17  19
DOCKED: ATOM     19  N   UNL     1     142.323  72.826 220.242 -0.07 +0.06    -0.335 N  
DOCKED: ATOM     20  C   UNL     1     143.575  72.096 220.463 -0.24 -0.02    +0.151 C  
DOCKED: ATOM     21  C   UNL     1     142.480  74.188 220.694 -0.23 -0.02    +0.091 C  
DOCKED: ATOM     22  C   UNL     1     144.602  73.192 220.250 -0.37 -0.02    +0.136 C  
DOCKED: ATOM     23  C   UNL     1     143.909  74.498 220.459 -0.37 -0.02    +0.059 C  
DOCKED: BRANCH  21  24
DOCKED: ATOM     24  C   UNL     1     141.547  75.202 220.091 -0.23 -0.01    +0.016 C  
DOCKED: ATOM     25  C   UNL     1     140.229  75.130 220.817 -0.23 -0.00    +0.011 C  
DOCKED: ATOM     26  C   UNL     1     142.044  76.585 220.023 -0.29 -0.02    +0.041 C  
DOCKED: ATOM     27  C   UNL     1     140.076  75.896 222.067 -0.32 -0.01    +0.036 C  
DOCKED: ATOM     28  C   UNL     1     141.424  77.572 220.929 -0.30 +0.02    -0.044 A  
DOCKED: ATOM     29  C   UNL     1     140.504  77.308 221.900 -0.35 +0.01    -0.045 A  
DOCKED: ATOM     30  C   UNL     1     141.819  78.896 220.775 -0.33 -0.00    +0.004 A  
DOCKED: ATOM     31  C   UNL     1     139.961  78.272 222.717 -0.38 -0.00    +0.004 A  
DOCKED: ATOM     32  C   UNL     1     141.282  79.873 221.587 -0.37 -0.00    +0.000 A  
DOCKED: ATOM     33  C   UNL     1     140.352  79.587 222.565 -0.37 -0.00    +0.000 A  
DOCKED: ENDBRANCH  21  24
DOCKED: BRANCH  22  34
DOCKED: ATOM     34  O   UNL     1     145.686  73.014 221.114 -0.36 +0.05    -0.391 OA 
DOCKED: ATOM     35  H   UNL     1     145.589  72.148 221.576 -0.44 -0.12    +0.211 HD 
DOCKED: ENDBRANCH  22  34
DOCKED: ENDBRANCH  17  19
DOCKED: ENDBRANCH   1  17
DOCKED: TORSDOF 6
DOCKED: TER
DOCKED: ENDMDL
________________________________________________________________________________


    FINAL DOCKED STATE:
    ________________________


Run:   8 / 20
Time taken for this run:   0.042s

DOCKED: MODEL        8
DOCKED: USER    Run = 8
DOCKED: USER
DOCKED: USER    Estimated Free Energy of Binding    =  -9.52 kcal/mol  [=(1)+(2)+(3)-(4)]
DOCKED: USER
DOCKED: USER    (1) Final Intermolecular Energy     = -11.31 kcal/mol
DOCKED: USER        vdW + Hbond + desolv Energy     = -11.19 kcal/mol
DOCKED: USER        Electrostatic Energy            =  -0.12 kcal/mol
DOCKED: USER        Moving Ligand-Fixed Receptor    = -11.31 kcal/mol
DOCKED: USER        Moving Ligand-Moving Receptor   =  +0.00 kcal/mol
DOCKED: USER    (2) Final Total Internal Energy     =  -1.54 kcal/mol
DOCKED: USER    (3) Torsional Free Energy           =  +1.79 kcal/mol
DOCKED: USER    (4) Unbound System's Energy         =  -1.54 kcal/mol
DOCKED: USER
DOCKED: USER
DOCKED: REMARK SMILES O=C(NCC(=O)N1C[C@H](O)C[C@H]1[C@H]1CCc2ccccc2C1)c1ccc2cc(F)ccc2n1
DOCKED: REMARK SMILES IDX 4 1 3 2 2 3 1 4 23 6 24 7 33 8 25 9 32 10 26 11 31 12 27 13
DOCKED: REMARK SMILES IDX 30 14 28 15 29 16 5 17 6 18 7 19 8 20 12 21 9 22 11 23 13 24
DOCKED: REMARK SMILES IDX 14 25 22 26 15 27 21 28 16 29 20 30 17 31 19 32 18 33 10 34
DOCKED: REMARK H PARENT 3 5 10 35
DOCKED: USER                              x       y       z     vdW  Elec       q    Type
DOCKED: USER                           _______ _______ _______ _____ _____    ______ ____
DOCKED: ROOT
DOCKED: ATOM      1  C   UNL     1     139.123  73.790 221.039 -0.12 -0.04    +0.216 C  
DOCKED: ENDROOT
DOCKED: BRANCH   1   2
DOCKED: ATOM      2  N   UNL     1     139.334  72.999 222.190 -0.13 +0.08    -0.342 N  
DOCKED: ATOM      3  C   UNL     1     139.320  71.561 222.199 -0.15 -0.05    +0.270 C  
DOCKED: ATOM      4  O   UNL     1     139.112  70.913 221.116 -0.06 +0.05    -0.268 OA 
DOCKED: ATOM      5  H   UNL     1     139.520  73.428 223.141 -0.47 -0.04    +0.164 HD 
DOCKED: BRANCH   3   6
DOCKED: ATOM      6  C   UNL     1     139.547  70.825 223.459 -0.27 -0.02    +0.128 A  
DOCKED: ATOM      7  C   UNL     1     139.206  69.491 223.514 -0.25 -0.01    +0.035 A  
DOCKED: ATOM      8  N   UNL     1     140.074  71.423 224.546 -0.29 +0.05    -0.243 NA 
DOCKED: ATOM      9  C   UNL     1     139.390  68.743 224.658 -0.34 -0.00    +0.013 A  
DOCKED: ATOM     10  C   UNL     1     140.273  70.723 225.696 -0.50 -0.01    +0.071 A  
DOCKED: ATOM     11  C   UNL     1     139.932  69.387 225.750 -0.47 -0.00    +0.003 A  
DOCKED: ATOM     12  C   UNL     1     140.814  71.361 226.793 -0.68 -0.01    +0.032 A  
DOCKED: ATOM     13  C   UNL     1     140.113  68.634 226.892 -0.58 -0.01    +0.049 A  
DOCKED: ATOM     14  C   UNL     1     141.005  70.622 227.951 -0.63 -0.01    +0.041 A  
DOCKED: ATOM     15  C   UNL     1     140.661  69.267 228.012 -0.52 -0.02    +0.123 A  
DOCKED: ATOM     16  F   UNL     1     140.838  68.529 229.127 -0.13 +0.05    -0.207 F  
DOCKED: ENDBRANCH   3   6
DOCKED: ENDBRANCH   1   2
DOCKED: BRANCH   1  17
DOCKED: ATOM     17  C   UNL     1     140.127  73.959 220.018 -0.06 -0.05    +0.242 C  
DOCKED: ATOM     18  O   UNL     1     139.703  73.719 218.811 -0.01 +0.06    -0.273 OA 
DOCKED: BRANCH  17  19
DOCKED: ATOM     19  N   UNL     1     141.491  74.338 220.107 -0.07 +0.09    -0.335 N  
DOCKED: ATOM     20  C   UNL     1     142.568  73.387 219.813 -0.16 -0.03    +0.151 C  
DOCKED: ATOM     21  C   UNL     1     142.065  75.599 220.509 -0.23 -0.04    +0.091 C  
DOCKED: ATOM     22  C   UNL     1     143.638  74.311 219.261 -0.24 -0.05    +0.136 C  
DOCKED: ATOM     23  C   UNL     1     143.340  75.685 219.759 -0.36 -0.03    +0.059 C  
DOCKED: BRANCH  21  24
DOCKED: ATOM     24  C   UNL     1     141.194  76.814 220.337 -0.25 -0.01    +0.016 C  
DOCKED: ATOM     25  C   UNL     1     140.113  76.778 221.387 -0.29 -0.00    +0.011 C  
DOCKED: ATOM     26  C   UNL     1     141.882  78.113 220.325 -0.27 -0.03    +0.041 C  
DOCKED: ATOM     27  C   UNL     1     140.418  77.322 222.723 -0.31 -0.01    +0.036 C  
DOCKED: ATOM     28  C   UNL     1     141.691  78.992 221.494 -0.37 +0.02    -0.044 A  
DOCKED: ATOM     29  C   UNL     1     141.020  78.676 222.638 -0.44 +0.01    -0.045 A  
DOCKED: ATOM     30  C   UNL     1     142.251  80.262 221.420 -0.39 -0.00    +0.004 A  
DOCKED: ATOM     31  C   UNL     1     140.876  79.539 223.700 -0.53 -0.00    +0.004 A  
DOCKED: ATOM     32  C   UNL     1     142.113  81.138 222.477 -0.52 -0.00    +0.000 A  
DOCKED: ATOM     33  C   UNL     1     141.431  80.800 223.628 -0.55 -0.00    +0.000 A  
DOCKED: ENDBRANCH  21  24
DOCKED: BRANCH  22  34
DOCKED: ATOM     34  O   UNL     1     144.906  73.864 219.643 -0.20 +0.08    -0.391 OA 
DOCKED: ATOM     35  H   UNL     1     145.579  74.528 219.362 -0.34 -0.12    +0.211 HD 
DOCKED: ENDBRANCH  22  34
DOCKED: ENDBRANCH  17  19
DOCKED: ENDBRANCH   1  17
DOCKED: TORSDOF 6
DOCKED: TER
DOCKED: ENDMDL
________________________________________________________________________________


    FINAL DOCKED STATE:
    ________________________


Run:   9 / 20
Time taken for this run:   0.042s

DOCKED: MODEL        9
DOCKED: USER    Run = 9
DOCKED: USER
DOCKED: USER    Estimated Free Energy of Binding    =  -8.92 kcal/mol  [=(1)+(2)+(3)-(4)]
DOCKED: USER
DOCKED: USER    (1) Final Intermolecular Energy     = -10.71 kcal/mol
DOCKED: USER        vdW + Hbond + desolv Energy     = -10.66 kcal/mol
DOCKED: USER        Electrostatic Energy            =  -0.05 kcal/mol
DOCKED: USER        Moving Ligand-Fixed Receptor    = -10.71 kcal/mol
DOCKED: USER        Moving Ligand-Moving Receptor   =  +0.00 kcal/mol
DOCKED: USER    (2) Final Total Internal Energy     =  -1.75 kcal/mol
DOCKED: USER    (3) Torsional Free Energy           =  +1.79 kcal/mol
DOCKED: USER    (4) Unbound System's Energy         =  -1.75 kcal/mol
DOCKED: USER
DOCKED: USER
DOCKED: REMARK SMILES O=C(NCC(=O)N1C[C@H](O)C[C@H]1[C@H]1CCc2ccccc2C1)c1ccc2cc(F)ccc2n1
DOCKED: REMARK SMILES IDX 4 1 3 2 2 3 1 4 23 6 24 7 33 8 25 9 32 10 26 11 31 12 27 13
DOCKED: REMARK SMILES IDX 30 14 28 15 29 16 5 17 6 18 7 19 8 20 12 21 9 22 11 23 13 24
DOCKED: REMARK SMILES IDX 14 25 22 26 15 27 21 28 16 29 20 30 17 31 19 32 18 33 10 34
DOCKED: REMARK H PARENT 3 5 10 35
DOCKED: USER                              x       y       z     vdW  Elec       q    Type
DOCKED: USER                           _______ _______ _______ _____ _____    ______ ____
DOCKED: ROOT
DOCKED: ATOM      1  C   UNL     1     139.673  72.594 219.804 -0.04 -0.04    +0.216 C  
DOCKED: ENDROOT
DOCKED: BRANCH   1   2
DOCKED: ATOM      2  N   UNL     1     139.614  71.872 221.016 -0.04 +0.06    -0.342 N  
DOCKED: ATOM      3  C   UNL     1     140.138  72.347 222.268 -0.21 -0.04    +0.270 C  
DOCKED: ATOM      4  O   UNL     1     140.699  73.495 222.337 -0.74 -0.01    -0.268 OA 
DOCKED: ATOM      5  H   UNL     1     139.169  70.913 221.078 +0.04 -0.03    +0.164 HD 
DOCKED: BRANCH   3   6
DOCKED: ATOM      6  C   UNL     1     140.031  71.511 223.482 -0.32 -0.02    +0.128 A  
DOCKED: ATOM      7  C   UNL     1     139.332  70.326 223.407 -0.27 -0.01    +0.035 A  
DOCKED: ATOM      8  N   UNL     1     140.598  71.877 224.648 -0.27 +0.03    -0.243 NA 
DOCKED: ATOM      9  C   UNL     1     139.191  69.497 224.500 -0.35 -0.00    +0.013 A  
DOCKED: ATOM     10  C   UNL     1     140.485  71.089 225.753 -0.53 -0.01    +0.071 A  
DOCKED: ATOM     11  C   UNL     1     139.785  69.903 225.677 -0.46 -0.00    +0.003 A  
DOCKED: ATOM     12  C   UNL     1     141.076  71.489 226.934 -0.72 -0.01    +0.032 A  
DOCKED: ATOM     13  C   UNL     1     139.641  69.070 226.767 -0.51 -0.01    +0.049 A  
DOCKED: ATOM     14  C   UNL     1     140.943  70.666 228.042 -0.62 -0.01    +0.041 A  
DOCKED: ATOM     15  C   UNL     1     140.234  69.462 227.971 -0.52 -0.02    +0.123 A  
DOCKED: ATOM     16  F   UNL     1     140.093  68.646 229.036 -0.15 +0.04    -0.207 F  
DOCKED: ENDBRANCH   3   6
DOCKED: ENDBRANCH   1   2
DOCKED: BRANCH   1  17
DOCKED: ATOM     17  C   UNL     1     139.377  74.003 219.723 -0.03 -0.05    +0.242 C  
DOCKED: ATOM     18  O   UNL     1     139.892  74.595 218.685 -0.01 +0.06    -0.273 OA 
DOCKED: BRANCH  17  19
DOCKED: ATOM     19  N   UNL     1     138.627  74.847 220.581 -0.03 +0.07    -0.335 N  
DOCKED: ATOM     20  C   UNL     1     137.230  74.548 220.915 -0.07 -0.03    +0.151 C  
DOCKED: ATOM     21  C   UNL     1     139.015  76.082 221.218 -0.19 -0.02    +0.091 C  
DOCKED: ATOM     22  C   UNL     1     137.131  75.119 222.318 -0.16 -0.04    +0.136 C  
DOCKED: ATOM     23  C   UNL     1     138.223  76.124 222.468 -0.27 -0.01    +0.059 C  
DOCKED: BRANCH  21  24
DOCKED: ATOM     24  C   UNL     1     140.489  76.282 221.443 -0.33 -0.00    +0.016 C  
DOCKED: ATOM     25  C   UNL     1     141.057  77.024 220.261 -0.24 -0.00    +0.011 C  
DOCKED: ATOM     26  C   UNL     1     140.874  76.922 222.709 -0.29 -0.01    +0.041 C  
DOCKED: ATOM     27  C   UNL     1     140.972  78.496 220.253 -0.23 -0.02    +0.036 C  
DOCKED: ATOM     28  C   UNL     1     141.400  78.299 222.640 -0.46 +0.02    -0.044 A  
DOCKED: ATOM     29  C   UNL     1     141.468  79.079 221.524 -0.36 +0.02    -0.045 A  
DOCKED: ATOM     30  C   UNL     1     141.868  78.850 223.827 -0.61 -0.00    +0.004 A  
DOCKED: ATOM     31  C   UNL     1     141.968  80.361 221.521 -0.43 -0.00    +0.004 A  
DOCKED: ATOM     32  C   UNL     1     142.373  80.134 223.838 -0.65 -0.00    +0.000 A  
DOCKED: ATOM     33  C   UNL     1     142.434  80.910 222.699 -0.56 -0.00    +0.000 A  
DOCKED: ENDBRANCH  21  24
DOCKED: BRANCH  22  34
DOCKED: ATOM     34  O   UNL     1     135.863  75.667 222.528 -0.07 +0.08    -0.391 OA 
DOCKED: ATOM     35  H   UNL     1     135.562  76.108 221.698 +0.04 -0.04    +0.211 HD 
DOCKED: ENDBRANCH  22  34
DOCKED: ENDBRANCH  17  19
DOCKED: ENDBRANCH   1  17
DOCKED: TORSDOF 6
DOCKED: TER
DOCKED: ENDMDL
________________________________________________________________________________


    FINAL DOCKED STATE:
    ________________________


Run:   10 / 20
Time taken for this run:   0.042s

DOCKED: MODEL        10
DOCKED: USER    Run = 10
DOCKED: USER
DOCKED: USER    Estimated Free Energy of Binding    =  -9.78 kcal/mol  [=(1)+(2)+(3)-(4)]
DOCKED: USER
DOCKED: USER    (1) Final Intermolecular Energy     = -11.57 kcal/mol
DOCKED: USER        vdW + Hbond + desolv Energy     = -11.41 kcal/mol
DOCKED: USER        Electrostatic Energy            =  -0.15 kcal/mol
DOCKED: USER        Moving Ligand-Fixed Receptor    = -11.57 kcal/mol
DOCKED: USER        Moving Ligand-Moving Receptor   =  +0.00 kcal/mol
DOCKED: USER    (2) Final Total Internal Energy     =  -1.31 kcal/mol
DOCKED: USER    (3) Torsional Free Energy           =  +1.79 kcal/mol
DOCKED: USER    (4) Unbound System's Energy         =  -1.31 kcal/mol
DOCKED: USER
DOCKED: USER
DOCKED: REMARK SMILES O=C(NCC(=O)N1C[C@H](O)C[C@H]1[C@H]1CCc2ccccc2C1)c1ccc2cc(F)ccc2n1
DOCKED: REMARK SMILES IDX 4 1 3 2 2 3 1 4 23 6 24 7 33 8 25 9 32 10 26 11 31 12 27 13
DOCKED: REMARK SMILES IDX 30 14 28 15 29 16 5 17 6 18 7 19 8 20 12 21 9 22 11 23 13 24
DOCKED: REMARK SMILES IDX 14 25 22 26 15 27 21 28 16 29 20 30 17 31 19 32 18 33 10 34
DOCKED: REMARK H PARENT 3 5 10 35
DOCKED: USER                              x       y       z     vdW  Elec       q    Type
DOCKED: USER                           _______ _______ _______ _____ _____    ______ ____
DOCKED: ROOT
DOCKED: ATOM      1  C   UNL     1     139.022  74.175 221.270 -0.15 -0.05    +0.216 C  
DOCKED: ENDROOT
DOCKED: BRANCH   1   2
DOCKED: ATOM      2  N   UNL     1     139.070  73.254 222.340 -0.08 +0.09    -0.342 N  
DOCKED: ATOM      3  C   UNL     1     140.223  72.465 222.679 -0.19 -0.03    +0.270 C  
DOCKED: ATOM      4  O   UNL     1     141.300  72.573 221.997 -0.26 +0.01    -0.268 OA 
DOCKED: ATOM      5  H   UNL     1     138.237  73.086 222.974 -0.46 -0.09    +0.164 HD 
DOCKED: BRANCH   3   6
DOCKED: ATOM      6  C   UNL     1     140.168  71.523 223.816 -0.35 -0.02    +0.128 A  
DOCKED: ATOM      7  C   UNL     1     139.623  70.274 223.613 -0.29 -0.01    +0.035 A  
DOCKED: ATOM      8  N   UNL     1     140.636  71.855 225.036 -0.29 +0.04    -0.243 NA 
DOCKED: ATOM      9  C   UNL     1     139.540  69.346 224.629 -0.35 -0.00    +0.013 A  
DOCKED: ATOM     10  C   UNL     1     140.574  70.970 226.068 -0.55 -0.01    +0.071 A  
DOCKED: ATOM     11  C   UNL     1     140.029  69.720 225.864 -0.48 -0.00    +0.003 A  
DOCKED: ATOM     12  C   UNL     1     141.061  71.338 227.306 -0.72 -0.01    +0.032 A  
DOCKED: ATOM     13  C   UNL     1     139.943  68.788 226.877 -0.56 -0.01    +0.049 A  
DOCKED: ATOM     14  C   UNL     1     140.984  70.415 228.338 -0.53 -0.01    +0.041 A  
DOCKED: ATOM     15  C   UNL     1     140.432  69.145 228.137 -0.53 -0.02    +0.123 A  
DOCKED: ATOM     16  F   UNL     1     140.348  68.232 229.126 -0.16 +0.05    -0.207 F  
DOCKED: ENDBRANCH   3   6
DOCKED: ENDBRANCH   1   2
DOCKED: BRANCH   1  17
DOCKED: ATOM     17  C   UNL     1     139.906  74.093 220.134 -0.06 -0.05    +0.242 C  
DOCKED: ATOM     18  O   UNL     1     139.380  73.517 219.093 -0.01 +0.06    -0.273 OA 
DOCKED: BRANCH  17  19
DOCKED: ATOM     19  N   UNL     1     141.245  74.529 219.964 -0.05 +0.09    -0.335 N  
DOCKED: ATOM     20  C   UNL     1     142.249  73.678 219.316 -0.11 -0.04    +0.151 C  
DOCKED: ATOM     21  C   UNL     1     141.866  75.762 220.384 -0.25 -0.04    +0.091 C  
DOCKED: ATOM     22  C   UNL     1     143.142  74.715 218.662 -0.17 -0.05    +0.136 C  
DOCKED: ATOM     23  C   UNL     1     142.933  76.003 219.386 -0.33 -0.03    +0.059 C  
DOCKED: BRANCH  21  24
DOCKED: ATOM     24  C   UNL     1     140.950  76.941 220.569 -0.25 -0.01    +0.016 C  
DOCKED: ATOM     25  C   UNL     1     140.314  76.842 221.932 -0.37 -0.00    +0.011 C  
DOCKED: ATOM     26  C   UNL     1     141.544  78.268 220.353 -0.28 -0.02    +0.041 C  
DOCKED: ATOM     27  C   UNL     1     141.055  77.377 223.090 -0.18 -0.01    +0.036 C  
DOCKED: ATOM     28  C   UNL     1     141.751  79.119 221.541 -0.39 +0.02    -0.044 A  
DOCKED: ATOM     29  C   UNL     1     141.542  78.756 222.838 -0.50 +0.02    -0.045 A  
DOCKED: ATOM     30  C   UNL     1     142.205  80.413 221.311 -0.40 -0.00    +0.004 A  
DOCKED: ATOM     31  C   UNL     1     141.754  79.595 223.908 -0.59 -0.00    +0.004 A  
DOCKED: ATOM     32  C   UNL     1     142.422  81.265 222.375 -0.36 -0.00    +0.000 A  
DOCKED: ATOM     33  C   UNL     1     142.204  80.880 223.681 -0.65 -0.00    +0.000 A  
DOCKED: ENDBRANCH  21  24
DOCKED: BRANCH  22  34
DOCKED: ATOM     34  O   UNL     1     144.474  74.293 218.690 -0.06 +0.14    -0.391 OA 
DOCKED: ATOM     35  H   UNL     1     145.011  74.886 218.114 -0.46 -0.16    +0.211 HD 
DOCKED: ENDBRANCH  22  34
DOCKED: ENDBRANCH  17  19
DOCKED: ENDBRANCH   1  17
DOCKED: TORSDOF 6
DOCKED: TER
DOCKED: ENDMDL
________________________________________________________________________________


    FINAL DOCKED STATE:
    ________________________


Run:   11 / 20
Time taken for this run:   0.042s

DOCKED: MODEL        11
DOCKED: USER    Run = 11
DOCKED: USER
DOCKED: USER    Estimated Free Energy of Binding    =  -8.95 kcal/mol  [=(1)+(2)+(3)-(4)]
DOCKED: USER
DOCKED: USER    (1) Final Intermolecular Energy     = -10.74 kcal/mol
DOCKED: USER        vdW + Hbond + desolv Energy     = -10.69 kcal/mol
DOCKED: USER        Electrostatic Energy            =  -0.05 kcal/mol
DOCKED: USER        Moving Ligand-Fixed Receptor    = -10.74 kcal/mol
DOCKED: USER        Moving Ligand-Moving Receptor   =  +0.00 kcal/mol
DOCKED: USER    (2) Final Total Internal Energy     =  -1.73 kcal/mol
DOCKED: USER    (3) Torsional Free Energy           =  +1.79 kcal/mol
DOCKED: USER    (4) Unbound System's Energy         =  -1.73 kcal/mol
DOCKED: USER
DOCKED: USER
DOCKED: REMARK SMILES O=C(NCC(=O)N1C[C@H](O)C[C@H]1[C@H]1CCc2ccccc2C1)c1ccc2cc(F)ccc2n1
DOCKED: REMARK SMILES IDX 4 1 3 2 2 3 1 4 23 6 24 7 33 8 25 9 32 10 26 11 31 12 27 13
DOCKED: REMARK SMILES IDX 30 14 28 15 29 16 5 17 6 18 7 19 8 20 12 21 9 22 11 23 13 24
DOCKED: REMARK SMILES IDX 14 25 22 26 15 27 21 28 16 29 20 30 17 31 19 32 18 33 10 34
DOCKED: REMARK H PARENT 3 5 10 35
DOCKED: USER                              x       y       z     vdW  Elec       q    Type
DOCKED: USER                           _______ _______ _______ _____ _____    ______ ____
DOCKED: ROOT
DOCKED: ATOM      1  C   UNL     1     139.816  72.560 219.779 -0.04 -0.04    +0.216 C  
DOCKED: ENDROOT
DOCKED: BRANCH   1   2
DOCKED: ATOM      2  N   UNL     1     139.742  71.845 220.995 -0.04 +0.06    -0.342 N  
DOCKED: ATOM      3  C   UNL     1     140.189  72.355 222.263 -0.21 -0.03    +0.270 C  
DOCKED: ATOM      4  O   UNL     1     140.688  73.530 222.345 -0.74 -0.01    -0.268 OA 
DOCKED: ATOM      5  H   UNL     1     139.344  70.865 221.047 +0.04 -0.03    +0.164 HD 
DOCKED: BRANCH   3   6
DOCKED: ATOM      6  C   UNL     1     140.074  71.523 223.479 -0.32 -0.02    +0.128 A  
DOCKED: ATOM      7  C   UNL     1     139.370  70.340 223.404 -0.27 -0.01    +0.035 A  
DOCKED: ATOM      8  N   UNL     1     140.636  71.891 224.647 -0.26 +0.03    -0.243 NA 
DOCKED: ATOM      9  C   UNL     1     139.222  69.516 224.499 -0.34 -0.00    +0.013 A  
DOCKED: ATOM     10  C   UNL     1     140.515  71.107 225.753 -0.54 -0.01    +0.071 A  
DOCKED: ATOM     11  C   UNL     1     139.811  69.924 225.678 -0.46 -0.00    +0.003 A  
DOCKED: ATOM     12  C   UNL     1     141.101  71.510 226.936 -0.72 -0.01    +0.032 A  
DOCKED: ATOM     13  C   UNL     1     139.660  69.095 226.770 -0.51 -0.01    +0.049 A  
DOCKED: ATOM     14  C   UNL     1     140.961  70.690 228.046 -0.62 -0.01    +0.041 A  
DOCKED: ATOM     15  C   UNL     1     140.247  69.488 227.975 -0.52 -0.02    +0.123 A  
DOCKED: ATOM     16  F   UNL     1     140.099  68.676 229.042 -0.15 +0.04    -0.207 F  
DOCKED: ENDBRANCH   3   6
DOCKED: ENDBRANCH   1   2
DOCKED: BRANCH   1  17
DOCKED: ATOM     17  C   UNL     1     139.576  73.980 219.697 -0.03 -0.05    +0.242 C  
DOCKED: ATOM     18  O   UNL     1     140.198  74.567 218.716 -0.01 +0.07    -0.273 OA 
DOCKED: BRANCH  17  19
DOCKED: ATOM     19  N   UNL     1     138.785  74.838 220.503 -0.03 +0.07    -0.335 N  
DOCKED: ATOM     20  C   UNL     1     137.380  74.534 220.791 -0.07 -0.03    +0.151 C  
DOCKED: ATOM     21  C   UNL     1     139.137  76.094 221.120 -0.18 -0.02    +0.091 C  
DOCKED: ATOM     22  C   UNL     1     137.221  75.141 222.172 -0.16 -0.04    +0.136 C  
DOCKED: ATOM     23  C   UNL     1     138.297  76.161 222.338 -0.28 -0.01    +0.059 C  
DOCKED: BRANCH  21  24
DOCKED: ATOM     24  C   UNL     1     140.600  76.315 221.397 -0.33 -0.01    +0.016 C  
DOCKED: ATOM     25  C   UNL     1     141.196  77.072 220.238 -0.25 -0.00    +0.011 C  
DOCKED: ATOM     26  C   UNL     1     140.931  76.954 222.679 -0.30 -0.01    +0.041 C  
DOCKED: ATOM     27  C   UNL     1     141.088  78.542 220.234 -0.24 -0.02    +0.036 C  
DOCKED: ATOM     28  C   UNL     1     141.438  78.340 222.634 -0.46 +0.02    -0.044 A  
DOCKED: ATOM     29  C   UNL     1     141.531  79.127 221.525 -0.36 +0.02    -0.045 A  
DOCKED: ATOM     30  C   UNL     1     141.856  78.892 223.839 -0.61 -0.00    +0.004 A  
DOCKED: ATOM     31  C   UNL     1     142.012  80.416 221.544 -0.44 -0.00    +0.004 A  
DOCKED: ATOM     32  C   UNL     1     142.341  80.183 223.873 -0.64 -0.00    +0.000 A  
DOCKED: ATOM     33  C   UNL     1     142.428  80.965 222.740 -0.55 -0.00    +0.000 A  
DOCKED: ENDBRANCH  21  24
DOCKED: BRANCH  22  34
DOCKED: ATOM     34  O   UNL     1     135.940  75.681 222.319 -0.06 +0.08    -0.391 OA 
DOCKED: ATOM     35  H   UNL     1     135.525  75.768 221.428 +0.03 -0.04    +0.211 HD 
DOCKED: ENDBRANCH  22  34
DOCKED: ENDBRANCH  17  19
DOCKED: ENDBRANCH   1  17
DOCKED: TORSDOF 6
DOCKED: TER
DOCKED: ENDMDL
________________________________________________________________________________


    FINAL DOCKED STATE:
    ________________________


Run:   12 / 20
Time taken for this run:   0.042s

DOCKED: MODEL        12
DOCKED: USER    Run = 12
DOCKED: USER
DOCKED: USER    Estimated Free Energy of Binding    =  -9.51 kcal/mol  [=(1)+(2)+(3)-(4)]
DOCKED: USER
DOCKED: USER    (1) Final Intermolecular Energy     = -11.30 kcal/mol
DOCKED: USER        vdW + Hbond + desolv Energy     = -11.21 kcal/mol
DOCKED: USER        Electrostatic Energy            =  -0.09 kcal/mol
DOCKED: USER        Moving Ligand-Fixed Receptor    = -11.30 kcal/mol
DOCKED: USER        Moving Ligand-Moving Receptor   =  +0.00 kcal/mol
DOCKED: USER    (2) Final Total Internal Energy     =  -1.70 kcal/mol
DOCKED: USER    (3) Torsional Free Energy           =  +1.79 kcal/mol
DOCKED: USER    (4) Unbound System's Energy         =  -1.70 kcal/mol
DOCKED: USER
DOCKED: USER
DOCKED: REMARK SMILES O=C(NCC(=O)N1C[C@H](O)C[C@H]1[C@H]1CCc2ccccc2C1)c1ccc2cc(F)ccc2n1
DOCKED: REMARK SMILES IDX 4 1 3 2 2 3 1 4 23 6 24 7 33 8 25 9 32 10 26 11 31 12 27 13
DOCKED: REMARK SMILES IDX 30 14 28 15 29 16 5 17 6 18 7 19 8 20 12 21 9 22 11 23 13 24
DOCKED: REMARK SMILES IDX 14 25 22 26 15 27 21 28 16 29 20 30 17 31 19 32 18 33 10 34
DOCKED: REMARK H PARENT 3 5 10 35
DOCKED: USER                              x       y       z     vdW  Elec       q    Type
DOCKED: USER                           _______ _______ _______ _____ _____    ______ ____
DOCKED: ROOT
DOCKED: ATOM      1  C   UNL     1     140.452  71.554 220.342 -0.08 -0.03    +0.216 C  
DOCKED: ENDROOT
DOCKED: BRANCH   1   2
DOCKED: ATOM      2  N   UNL     1     140.513  71.039 221.656 -0.06 +0.05    -0.342 N  
DOCKED: ATOM      3  C   UNL     1     140.315  71.825 222.844 -0.22 -0.03    +0.270 C  
DOCKED: ATOM      4  O   UNL     1     140.062  73.075 222.754 -0.68 +0.02    -0.268 OA 
DOCKED: ATOM      5  H   UNL     1     140.712  70.017 221.851 +0.06 -0.02    +0.164 HD 
DOCKED: BRANCH   3   6
DOCKED: ATOM      6  C   UNL     1     140.405  71.191 224.176 -0.36 -0.02    +0.128 A  
DOCKED: ATOM      7  C   UNL     1     140.954  71.913 225.214 -0.24 -0.00    +0.035 A  
DOCKED: ATOM      8  N   UNL     1     139.966  69.937 224.396 -0.18 +0.04    -0.243 NA 
DOCKED: ATOM      9  C   UNL     1     141.070  71.384 226.482 -0.69 -0.00    +0.013 A  
DOCKED: ATOM     10  C   UNL     1     140.061  69.375 225.633 -0.41 -0.01    +0.071 A  
DOCKED: ATOM     11  C   UNL     1     140.610  70.098 226.671 -0.57 -0.00    +0.003 A  
DOCKED: ATOM     12  C   UNL     1     139.602  68.088 225.829 -0.54 -0.00    +0.032 A  
DOCKED: ATOM     13  C   UNL     1     140.728  69.574 227.941 -0.58 -0.01    +0.049 A  
DOCKED: ATOM     14  C   UNL     1     139.712  67.543 227.099 -0.46 -0.01    +0.041 A  
DOCKED: ATOM     15  C   UNL     1     140.269  68.272 228.157 -0.51 -0.03    +0.123 A  
DOCKED: ATOM     16  F   UNL     1     140.384  67.761 229.400 -0.07 +0.05    -0.207 F  
DOCKED: ENDBRANCH   3   6
DOCKED: ENDBRANCH   1   2
DOCKED: BRANCH   1  17
DOCKED: ATOM     17  C   UNL     1     140.904  72.881 220.006 -0.07 -0.04    +0.242 C  
DOCKED: ATOM     18  O   UNL     1     140.007  73.612 219.411 -0.02 +0.06    -0.273 OA 
DOCKED: BRANCH  17  19
DOCKED: ATOM     19  N   UNL     1     142.155  73.517 220.210 -0.08 +0.07    -0.335 N  
DOCKED: ATOM     20  C   UNL     1     143.418  72.792 220.035 -0.22 -0.02    +0.151 C  
DOCKED: ATOM     21  C   UNL     1     142.436  74.868 220.633 -0.24 -0.03    +0.091 C  
DOCKED: ATOM     22  C   UNL     1     144.336  73.903 219.562 -0.29 -0.03    +0.136 C  
DOCKED: ATOM     23  C   UNL     1     143.734  75.196 220.000 -0.36 -0.03    +0.059 C  
DOCKED: BRANCH  21  24
DOCKED: ATOM     24  C   UNL     1     141.367  75.890 220.356 -0.26 -0.01    +0.016 C  
DOCKED: ATOM     25  C   UNL     1     140.393  75.884 221.506 -0.34 -0.00    +0.011 C  
DOCKED: ATOM     26  C   UNL     1     141.830  77.252 220.056 -0.29 -0.02    +0.041 C  
DOCKED: ATOM     27  C   UNL     1     140.708  76.698 222.694 -0.25 -0.01    +0.036 C  
DOCKED: ATOM     28  C   UNL     1     141.590  78.290 221.078 -0.32 +0.02    -0.044 A  
DOCKED: ATOM     29  C   UNL     1     141.072  78.089 222.323 -0.42 +0.02    -0.045 A  
DOCKED: ATOM     30  C   UNL     1     141.926  79.594 220.735 -0.29 -0.00    +0.004 A  
DOCKED: ATOM     31  C   UNL     1     140.872  79.098 223.237 -0.51 -0.00    +0.004 A  
DOCKED: ATOM     32  C   UNL     1     141.730  80.616 221.642 -0.43 -0.00    +0.000 A  
DOCKED: ATOM     33  C   UNL     1     141.205  80.394 222.898 -0.49 -0.00    +0.000 A  
DOCKED: ENDBRANCH  21  24
DOCKED: BRANCH  22  34
DOCKED: ATOM     34  O   UNL     1     145.625  73.712 220.067 -0.33 +0.03    -0.391 OA 
DOCKED: ATOM     35  H   UNL     1     146.238  74.354 219.635 -0.41 -0.06    +0.211 HD 
DOCKED: ENDBRANCH  22  34
DOCKED: ENDBRANCH  17  19
DOCKED: ENDBRANCH   1  17
DOCKED: TORSDOF 6
DOCKED: TER
DOCKED: ENDMDL
________________________________________________________________________________


    FINAL DOCKED STATE:
    ________________________


Run:   13 / 20
Time taken for this run:   0.042s

DOCKED: MODEL        13
DOCKED: USER    Run = 13
DOCKED: USER
DOCKED: USER    Estimated Free Energy of Binding    =  -8.87 kcal/mol  [=(1)+(2)+(3)-(4)]
DOCKED: USER
DOCKED: USER    (1) Final Intermolecular Energy     = -10.66 kcal/mol
DOCKED: USER        vdW + Hbond + desolv Energy     = -10.64 kcal/mol
DOCKED: USER        Electrostatic Energy            =  -0.03 kcal/mol
DOCKED: USER        Moving Ligand-Fixed Receptor    = -10.66 kcal/mol
DOCKED: USER        Moving Ligand-Moving Receptor   =  +0.00 kcal/mol
DOCKED: USER    (2) Final Total Internal Energy     =  -1.89 kcal/mol
DOCKED: USER    (3) Torsional Free Energy           =  +1.79 kcal/mol
DOCKED: USER    (4) Unbound System's Energy         =  -1.89 kcal/mol
DOCKED: USER
DOCKED: USER
DOCKED: REMARK SMILES O=C(NCC(=O)N1C[C@H](O)C[C@H]1[C@H]1CCc2ccccc2C1)c1ccc2cc(F)ccc2n1
DOCKED: REMARK SMILES IDX 4 1 3 2 2 3 1 4 23 6 24 7 33 8 25 9 32 10 26 11 31 12 27 13
DOCKED: REMARK SMILES IDX 30 14 28 15 29 16 5 17 6 18 7 19 8 20 12 21 9 22 11 23 13 24
DOCKED: REMARK SMILES IDX 14 25 22 26 15 27 21 28 16 29 20 30 17 31 19 32 18 33 10 34
DOCKED: REMARK H PARENT 3 5 10 35
DOCKED: USER                              x       y       z     vdW  Elec       q    Type
DOCKED: USER                           _______ _______ _______ _____ _____    ______ ____
DOCKED: ROOT
DOCKED: ATOM      1  C   UNL     1     139.908  71.531 220.226 -0.05 -0.04    +0.216 C  
DOCKED: ENDROOT
DOCKED: BRANCH   1   2
DOCKED: ATOM      2  N   UNL     1     140.127  71.018 221.524 -0.07 +0.05    -0.342 N  
DOCKED: ATOM      3  C   UNL     1     140.068  71.804 222.726 -0.22 -0.04    +0.270 C  
DOCKED: ATOM      4  O   UNL     1     139.799  73.053 222.666 -0.66 +0.04    -0.268 OA 
DOCKED: ATOM      5  H   UNL     1     140.353  69.997 221.694 +0.04 -0.02    +0.164 HD 
DOCKED: BRANCH   3   6
DOCKED: ATOM      6  C   UNL     1     140.319  71.173 224.038 -0.36 -0.02    +0.128 A  
DOCKED: ATOM      7  C   UNL     1     140.861  71.940 225.047 -0.16 -0.00    +0.035 A  
DOCKED: ATOM      8  N   UNL     1     140.033  69.877 224.269 -0.14 +0.04    -0.243 NA 
DOCKED: ATOM      9  C   UNL     1     141.122  71.417 226.295 -0.67 -0.00    +0.013 A  
DOCKED: ATOM     10  C   UNL     1     140.273  69.318 225.487 -0.40 -0.01    +0.071 A  
DOCKED: ATOM     11  C   UNL     1     140.815  70.087 226.495 -0.57 -0.00    +0.003 A  
DOCKED: ATOM     12  C   UNL     1     139.970  67.988 225.694 -0.52 -0.01    +0.032 A  
DOCKED: ATOM     13  C   UNL     1     141.078  69.568 227.746 -0.55 -0.01    +0.049 A  
DOCKED: ATOM     14  C   UNL     1     140.227  67.447 226.944 -0.53 -0.01    +0.041 A  
DOCKED: ATOM     15  C   UNL     1     140.776  68.222 227.972 -0.55 -0.03    +0.123 A  
DOCKED: ATOM     16  F   UNL     1     141.033  67.716 229.196 -0.16 +0.06    -0.207 F  
DOCKED: ENDBRANCH   3   6
DOCKED: ENDBRANCH   1   2
DOCKED: BRANCH   1  17
DOCKED: ATOM     17  C   UNL     1     140.577  72.709 219.733 -0.04 -0.04    +0.242 C  
DOCKED: ATOM     18  O   UNL     1     139.941  73.320 218.776 -0.01 +0.06    -0.273 OA 
DOCKED: BRANCH  17  19
DOCKED: ATOM     19  N   UNL     1     141.807  73.307 220.110 -0.06 +0.06    -0.335 N  
DOCKED: ATOM     20  C   UNL     1     143.084  72.610 219.923 -0.18 -0.02    +0.151 C  
DOCKED: ATOM     21  C   UNL     1     142.049  74.584 220.735 -0.25 -0.03    +0.091 C  
DOCKED: ATOM     22  C   UNL     1     144.025  73.774 219.675 -0.29 -0.03    +0.136 C  
DOCKED: ATOM     23  C   UNL     1     143.385  74.995 220.246 -0.29 -0.03    +0.059 C  
DOCKED: BRANCH  21  24
DOCKED: ATOM     24  C   UNL     1     140.994  75.638 220.531 -0.25 -0.01    +0.016 C  
DOCKED: ATOM     25  C   UNL     1     140.386  75.970 221.869 -0.37 -0.00    +0.011 C  
DOCKED: ATOM     26  C   UNL     1     141.416  76.853 219.819 -0.22 -0.02    +0.041 C  
DOCKED: ATOM     27  C   UNL     1     141.062  76.971 222.715 -0.29 -0.01    +0.036 C  
DOCKED: ATOM     28  C   UNL     1     141.524  78.096 220.607 -0.29 +0.02    -0.044 A  
DOCKED: ATOM     29  C   UNL     1     141.371  78.209 221.958 -0.38 +0.02    -0.045 A  
DOCKED: ATOM     30  C   UNL     1     141.810  79.260 219.903 -0.29 -0.00    +0.004 A  
DOCKED: ATOM     31  C   UNL     1     141.485  79.398 222.640 -0.50 -0.00    +0.004 A  
DOCKED: ATOM     32  C   UNL     1     141.927  80.460 220.575 -0.34 -0.00    +0.000 A  
DOCKED: ATOM     33  C   UNL     1     141.769  80.555 221.942 -0.47 -0.00    +0.000 A  
DOCKED: ENDBRANCH  21  24
DOCKED: BRANCH  22  34
DOCKED: ATOM     34  O   UNL     1     145.277  73.511 220.236 -0.30 +0.04    -0.391 OA 
DOCKED: ATOM     35  H   UNL     1     145.944  74.115 219.832 -0.27 -0.04    +0.211 HD 
DOCKED: ENDBRANCH  22  34
DOCKED: ENDBRANCH  17  19
DOCKED: ENDBRANCH   1  17
DOCKED: TORSDOF 6
DOCKED: TER
DOCKED: ENDMDL
________________________________________________________________________________


    FINAL DOCKED STATE:
    ________________________


Run:   14 / 20
Time taken for this run:   0.042s

DOCKED: MODEL        14
DOCKED: USER    Run = 14
DOCKED: USER
DOCKED: USER    Estimated Free Energy of Binding    =  -9.83 kcal/mol  [=(1)+(2)+(3)-(4)]
DOCKED: USER
DOCKED: USER    (1) Final Intermolecular Energy     = -11.62 kcal/mol
DOCKED: USER        vdW + Hbond + desolv Energy     = -11.50 kcal/mol
DOCKED: USER        Electrostatic Energy            =  -0.12 kcal/mol
DOCKED: USER        Moving Ligand-Fixed Receptor    = -11.62 kcal/mol
DOCKED: USER        Moving Ligand-Moving Receptor   =  +0.00 kcal/mol
DOCKED: USER    (2) Final Total Internal Energy     =  -1.34 kcal/mol
DOCKED: USER    (3) Torsional Free Energy           =  +1.79 kcal/mol
DOCKED: USER    (4) Unbound System's Energy         =  -1.34 kcal/mol
DOCKED: USER
DOCKED: USER
DOCKED: REMARK SMILES O=C(NCC(=O)N1C[C@H](O)C[C@H]1[C@H]1CCc2ccccc2C1)c1ccc2cc(F)ccc2n1
DOCKED: REMARK SMILES IDX 4 1 3 2 2 3 1 4 23 6 24 7 33 8 25 9 32 10 26 11 31 12 27 13
DOCKED: REMARK SMILES IDX 30 14 28 15 29 16 5 17 6 18 7 19 8 20 12 21 9 22 11 23 13 24
DOCKED: REMARK SMILES IDX 14 25 22 26 15 27 21 28 16 29 20 30 17 31 19 32 18 33 10 34
DOCKED: REMARK H PARENT 3 5 10 35
DOCKED: USER                              x       y       z     vdW  Elec       q    Type
DOCKED: USER                           _______ _______ _______ _____ _____    ______ ____
DOCKED: ROOT
DOCKED: ATOM      1  C   UNL     1     139.422  73.486 221.029 -0.13 -0.04    +0.216 C  
DOCKED: ENDROOT
DOCKED: BRANCH   1   2
DOCKED: ATOM      2  N   UNL     1     139.605  72.912 222.306 -0.15 +0.06    -0.342 N  
DOCKED: ATOM      3  C   UNL     1     140.040  71.560 222.532 -0.20 -0.04    +0.270 C  
DOCKED: ATOM      4  O   UNL     1     140.294  70.792 221.542 -0.11 +0.04    -0.268 OA 
DOCKED: ATOM      5  H   UNL     1     139.429  73.457 223.198 -0.47 -0.06    +0.164 HD 
DOCKED: BRANCH   3   6
DOCKED: ATOM      6  C   UNL     1     140.196  71.052 223.911 -0.33 -0.02    +0.128 A  
DOCKED: ATOM      7  C   UNL     1     140.747  71.884 224.862 -0.32 -0.00    +0.035 A  
DOCKED: ATOM      8  N   UNL     1     139.814  69.807 224.256 -0.16 +0.04    -0.243 NA 
DOCKED: ATOM      9  C   UNL     1     140.922  71.475 226.167 -0.66 -0.00    +0.013 A  
DOCKED: ATOM     10  C   UNL     1     139.968  69.362 225.533 -0.40 -0.01    +0.071 A  
DOCKED: ATOM     11  C   UNL     1     140.520  70.195 226.484 -0.56 -0.00    +0.003 A  
DOCKED: ATOM     12  C   UNL     1     139.568  68.082 225.858 -0.54 -0.00    +0.032 A  
DOCKED: ATOM     13  C   UNL     1     140.697  69.792 227.791 -0.58 -0.01    +0.049 A  
DOCKED: ATOM     14  C   UNL     1     139.738  67.657 227.167 -0.50 -0.01    +0.041 A  
DOCKED: ATOM     15  C   UNL     1     140.297  68.498 228.136 -0.55 -0.03    +0.123 A  
DOCKED: ATOM     16  F   UNL     1     140.471  68.105 229.415 -0.10 +0.05    -0.207 F  
DOCKED: ENDBRANCH   3   6
DOCKED: ENDBRANCH   1   2
DOCKED: BRANCH   1  17
DOCKED: ATOM     17  C   UNL     1     140.488  73.588 220.062 -0.07 -0.05    +0.242 C  
DOCKED: ATOM     18  O   UNL     1     140.167  73.172 218.872 -0.01 +0.06    -0.273 OA 
DOCKED: BRANCH  17  19
DOCKED: ATOM     19  N   UNL     1     141.819  74.059 220.192 -0.08 +0.08    -0.335 N  
DOCKED: ATOM     20  C   UNL     1     142.967  73.177 219.959 -0.19 -0.03    +0.151 C  
DOCKED: ATOM     21  C   UNL     1     142.294  75.365 220.584 -0.18 -0.04    +0.091 C  
DOCKED: ATOM     22  C   UNL     1     143.994  74.158 219.425 -0.27 -0.04    +0.136 C  
DOCKED: ATOM     23  C   UNL     1     143.587  75.520 219.879 -0.33 -0.03    +0.059 C  
DOCKED: BRANCH  21  24
DOCKED: ATOM     24  C   UNL     1     141.350  76.514 220.352 -0.27 -0.01    +0.016 C  
DOCKED: ATOM     25  C   UNL     1     140.277  76.471 221.409 -0.31 -0.00    +0.011 C  
DOCKED: ATOM     26  C   UNL     1     141.960  77.849 220.264 -0.27 -0.03    +0.041 C  
DOCKED: ATOM     27  C   UNL     1     140.553  77.105 222.712 -0.32 -0.01    +0.036 C  
DOCKED: ATOM     28  C   UNL     1     141.720  78.778 221.386 -0.36 +0.02    -0.044 A  
DOCKED: ATOM     29  C   UNL     1     141.073  78.485 222.550 -0.44 +0.02    -0.045 A  
DOCKED: ATOM     30  C   UNL     1     142.202  80.073 221.239 -0.37 -0.00    +0.004 A  
DOCKED: ATOM     31  C   UNL     1     140.880  79.395 223.564 -0.53 -0.00    +0.004 A  
DOCKED: ATOM     32  C   UNL     1     142.016  80.996 222.248 -0.51 -0.00    +0.000 A  
DOCKED: ATOM     33  C   UNL     1     141.358  80.682 223.419 -0.55 -0.00    +0.000 A  
DOCKED: ENDBRANCH  21  24
DOCKED: BRANCH  22  34
DOCKED: ATOM     34  O   UNL     1     145.273  73.806 219.863 -0.26 +0.06    -0.391 OA 
DOCKED: ATOM     35  H   UNL     1     145.942  74.308 219.339 -0.41 -0.08    +0.211 HD 
DOCKED: ENDBRANCH  22  34
DOCKED: ENDBRANCH  17  19
DOCKED: ENDBRANCH   1  17
DOCKED: TORSDOF 6
DOCKED: TER
DOCKED: ENDMDL
________________________________________________________________________________


    FINAL DOCKED STATE:
    ________________________


Run:   15 / 20
Time taken for this run:   0.042s

DOCKED: MODEL        15
DOCKED: USER    Run = 15
DOCKED: USER
DOCKED: USER    Estimated Free Energy of Binding    =  -9.61 kcal/mol  [=(1)+(2)+(3)-(4)]
DOCKED: USER
DOCKED: USER    (1) Final Intermolecular Energy     = -11.40 kcal/mol
DOCKED: USER        vdW + Hbond + desolv Energy     = -11.27 kcal/mol
DOCKED: USER        Electrostatic Energy            =  -0.13 kcal/mol
DOCKED: USER        Moving Ligand-Fixed Receptor    = -11.40 kcal/mol
DOCKED: USER        Moving Ligand-Moving Receptor   =  +0.00 kcal/mol
DOCKED: USER    (2) Final Total Internal Energy     =  -1.52 kcal/mol
DOCKED: USER    (3) Torsional Free Energy           =  +1.79 kcal/mol
DOCKED: USER    (4) Unbound System's Energy         =  -1.52 kcal/mol
DOCKED: USER
DOCKED: USER
DOCKED: REMARK SMILES O=C(NCC(=O)N1C[C@H](O)C[C@H]1[C@H]1CCc2ccccc2C1)c1ccc2cc(F)ccc2n1
DOCKED: REMARK SMILES IDX 4 1 3 2 2 3 1 4 23 6 24 7 33 8 25 9 32 10 26 11 31 12 27 13
DOCKED: REMARK SMILES IDX 30 14 28 15 29 16 5 17 6 18 7 19 8 20 12 21 9 22 11 23 13 24
DOCKED: REMARK SMILES IDX 14 25 22 26 15 27 21 28 16 29 20 30 17 31 19 32 18 33 10 34
DOCKED: REMARK H PARENT 3 5 10 35
DOCKED: USER                              x       y       z     vdW  Elec       q    Type
DOCKED: USER                           _______ _______ _______ _____ _____    ______ ____
DOCKED: ROOT
DOCKED: ATOM      1  C   UNL     1     139.175  73.879 221.023 -0.13 -0.04    +0.216 C  
DOCKED: ENDROOT
DOCKED: BRANCH   1   2
DOCKED: ATOM      2  N   UNL     1     139.367  73.083 222.174 -0.13 +0.07    -0.342 N  
DOCKED: ATOM      3  C   UNL     1     139.432  71.647 222.164 -0.16 -0.05    +0.270 C  
DOCKED: ATOM      4  O   UNL     1     139.318  71.005 221.063 -0.06 +0.05    -0.268 OA 
DOCKED: ATOM      5  H   UNL     1     139.477  73.507 223.139 -0.48 -0.05    +0.164 HD 
DOCKED: BRANCH   3   6
DOCKED: ATOM      6  C   UNL     1     139.631  70.904 223.425 -0.28 -0.02    +0.128 A  
DOCKED: ATOM      7  C   UNL     1     139.251  69.580 223.479 -0.24 -0.01    +0.035 A  
DOCKED: ATOM      8  N   UNL     1     140.170  71.487 224.514 -0.29 +0.04    -0.243 NA 
DOCKED: ATOM      9  C   UNL     1     139.407  68.828 224.623 -0.34 -0.00    +0.013 A  
DOCKED: ATOM     10  C   UNL     1     140.343  70.781 225.666 -0.51 -0.01    +0.071 A  
DOCKED: ATOM     11  C   UNL     1     139.963  69.456 225.718 -0.47 -0.00    +0.003 A  
DOCKED: ATOM     12  C   UNL     1     140.898  71.403 226.765 -0.69 -0.01    +0.032 A  
DOCKED: ATOM     13  C   UNL     1     140.116  68.698 226.860 -0.57 -0.01    +0.049 A  
DOCKED: ATOM     14  C   UNL     1     141.061  70.659 227.924 -0.63 -0.01    +0.041 A  
DOCKED: ATOM     15  C   UNL     1     140.677  69.314 227.983 -0.52 -0.02    +0.123 A  
DOCKED: ATOM     16  F   UNL     1     140.827  68.572 229.099 -0.15 +0.05    -0.207 F  
DOCKED: ENDBRANCH   3   6
DOCKED: ENDBRANCH   1   2
DOCKED: BRANCH   1  17
DOCKED: ATOM     17  C   UNL     1     140.177  74.014 219.995 -0.06 -0.05    +0.242 C  
DOCKED: ATOM     18  O   UNL     1     139.760  73.701 218.803 -0.01 +0.06    -0.273 OA 
DOCKED: BRANCH  17  19
DOCKED: ATOM     19  N   UNL     1     141.532  74.426 220.066 -0.07 +0.09    -0.335 N  
DOCKED: ATOM     20  C   UNL     1     142.627  73.506 219.744 -0.16 -0.03    +0.151 C  
DOCKED: ATOM     21  C   UNL     1     142.082  75.697 220.471 -0.23 -0.04    +0.091 C  
DOCKED: ATOM     22  C   UNL     1     143.665  74.461 219.184 -0.24 -0.05    +0.136 C  
DOCKED: ATOM     23  C   UNL     1     143.341  75.823 219.702 -0.37 -0.04    +0.059 C  
DOCKED: BRANCH  21  24
DOCKED: ATOM     24  C   UNL     1     141.178  76.891 220.328 -0.25 -0.01    +0.016 C  
DOCKED: ATOM     25  C   UNL     1     140.140  76.838 221.419 -0.29 -0.00    +0.011 C  
DOCKED: ATOM     26  C   UNL     1     141.836  78.205 220.281 -0.28 -0.03    +0.041 C  
DOCKED: ATOM     27  C   UNL     1     140.485  77.397 222.739 -0.32 -0.01    +0.036 C  
DOCKED: ATOM     28  C   UNL     1     141.672  79.087 221.452 -0.37 +0.02    -0.044 A  
DOCKED: ATOM     29  C   UNL     1     141.053  78.763 222.624 -0.44 +0.01    -0.045 A  
DOCKED: ATOM     30  C   UNL     1     142.200  80.369 221.349 -0.41 -0.00    +0.004 A  
DOCKED: ATOM     31  C   UNL     1     140.931  79.630 223.686 -0.53 -0.00    +0.004 A  
DOCKED: ATOM     32  C   UNL     1     142.084  81.248 222.406 -0.50 -0.00    +0.000 A  
DOCKED: ATOM     33  C   UNL     1     141.455  80.903 223.584 -0.55 -0.00    +0.000 A  
DOCKED: ENDBRANCH  21  24
DOCKED: BRANCH  22  34
DOCKED: ATOM     34  O   UNL     1     144.949  74.042 219.540 -0.17 +0.11    -0.391 OA 
DOCKED: ATOM     35  H   UNL     1     145.608  74.501 218.966 -0.38 -0.13    +0.211 HD 
DOCKED: ENDBRANCH  22  34
DOCKED: ENDBRANCH  17  19
DOCKED: ENDBRANCH   1  17
DOCKED: TORSDOF 6
DOCKED: TER
DOCKED: ENDMDL
________________________________________________________________________________


    FINAL DOCKED STATE:
    ________________________


Run:   16 / 20
Time taken for this run:   0.042s

DOCKED: MODEL        16
DOCKED: USER    Run = 16
DOCKED: USER
DOCKED: USER    Estimated Free Energy of Binding    =  -9.62 kcal/mol  [=(1)+(2)+(3)-(4)]
DOCKED: USER
DOCKED: USER    (1) Final Intermolecular Energy     = -11.41 kcal/mol
DOCKED: USER        vdW + Hbond + desolv Energy     = -11.28 kcal/mol
DOCKED: USER        Electrostatic Energy            =  -0.12 kcal/mol
DOCKED: USER        Moving Ligand-Fixed Receptor    = -11.41 kcal/mol
DOCKED: USER        Moving Ligand-Moving Receptor   =  +0.00 kcal/mol
DOCKED: USER    (2) Final Total Internal Energy     =  -1.49 kcal/mol
DOCKED: USER    (3) Torsional Free Energy           =  +1.79 kcal/mol
DOCKED: USER    (4) Unbound System's Energy         =  -1.49 kcal/mol
DOCKED: USER
DOCKED: USER
DOCKED: REMARK SMILES O=C(NCC(=O)N1C[C@H](O)C[C@H]1[C@H]1CCc2ccccc2C1)c1ccc2cc(F)ccc2n1
DOCKED: REMARK SMILES IDX 4 1 3 2 2 3 1 4 23 6 24 7 33 8 25 9 32 10 26 11 31 12 27 13
DOCKED: REMARK SMILES IDX 30 14 28 15 29 16 5 17 6 18 7 19 8 20 12 21 9 22 11 23 13 24
DOCKED: REMARK SMILES IDX 14 25 22 26 15 27 21 28 16 29 20 30 17 31 19 32 18 33 10 34
DOCKED: REMARK H PARENT 3 5 10 35
DOCKED: USER                              x       y       z     vdW  Elec       q    Type
DOCKED: USER                           _______ _______ _______ _____ _____    ______ ____
DOCKED: ROOT
DOCKED: ATOM      1  C   UNL     1     139.602  72.847 220.003 -0.04 -0.04    +0.216 C  
DOCKED: ENDROOT
DOCKED: BRANCH   1   2
DOCKED: ATOM      2  N   UNL     1     139.670  72.011 221.140 -0.05 +0.06    -0.342 N  
DOCKED: ATOM      3  C   UNL     1     139.840  72.487 222.486 -0.19 -0.05    +0.270 C  
DOCKED: ATOM      4  O   UNL     1     139.936  73.741 222.718 -0.73 -0.00    -0.268 OA 
DOCKED: ATOM      5  H   UNL     1     139.598  70.956 221.067 +0.04 -0.03    +0.164 HD 
DOCKED: BRANCH   3   6
DOCKED: ATOM      6  C   UNL     1     139.905  71.529 223.608 -0.33 -0.02    +0.128 A  
DOCKED: ATOM      7  C   UNL     1     139.427  70.251 223.413 -0.27 -0.01    +0.035 A  
DOCKED: ATOM      8  N   UNL     1     140.416  71.872 224.807 -0.27 +0.04    -0.243 NA 
DOCKED: ATOM      9  C   UNL     1     139.455  69.305 224.416 -0.33 -0.00    +0.013 A  
DOCKED: ATOM     10  C   UNL     1     140.464  70.971 225.826 -0.53 -0.01    +0.071 A  
DOCKED: ATOM     11  C   UNL     1     139.986  69.692 225.629 -0.46 -0.00    +0.003 A  
DOCKED: ATOM     12  C   UNL     1     140.994  71.351 227.042 -0.70 -0.01    +0.032 A  
DOCKED: ATOM     13  C   UNL     1     140.012  68.742 226.629 -0.55 -0.01    +0.049 A  
DOCKED: ATOM     14  C   UNL     1     141.029  70.410 228.061 -0.58 -0.01    +0.041 A  
DOCKED: ATOM     15  C   UNL     1     140.545  69.111 227.868 -0.53 -0.02    +0.123 A  
DOCKED: ATOM     16  F   UNL     1     140.571  68.181 228.844 -0.19 +0.05    -0.207 F  
DOCKED: ENDBRANCH   3   6
DOCKED: ENDBRANCH   1   2
DOCKED: BRANCH   1  17
DOCKED: ATOM     17  C   UNL     1     140.776  73.292 219.294 -0.03 -0.05    +0.242 C  
DOCKED: ATOM     18  O   UNL     1     140.680  73.203 217.999 -0.00 +0.06    -0.273 OA 
DOCKED: BRANCH  17  19
DOCKED: ATOM     19  N   UNL     1     142.011  73.803 219.768 -0.05 +0.08    -0.335 N  
DOCKED: ATOM     20  C   UNL     1     143.263  73.059 219.595 -0.17 -0.03    +0.151 C  
DOCKED: ATOM     21  C   UNL     1     142.279  75.024 220.490 -0.26 -0.04    +0.091 C  
DOCKED: ATOM     22  C   UNL     1     144.267  74.190 219.471 -0.26 -0.04    +0.136 C  
DOCKED: ATOM     23  C   UNL     1     143.655  75.400 220.093 -0.31 -0.03    +0.059 C  
DOCKED: BRANCH  21  24
DOCKED: ATOM     24  C   UNL     1     141.284  76.138 220.308 -0.25 -0.01    +0.016 C  
DOCKED: ATOM     25  C   UNL     1     140.312  76.103 221.459 -0.33 -0.00    +0.011 C  
DOCKED: ATOM     26  C   UNL     1     141.842  77.486 220.123 -0.30 -0.02    +0.041 C  
DOCKED: ATOM     27  C   UNL     1     140.683  76.788 222.710 -0.28 -0.01    +0.036 C  
DOCKED: ATOM     28  C   UNL     1     141.675  78.446 221.231 -0.34 +0.02    -0.044 A  
DOCKED: ATOM     29  C   UNL     1     141.144  78.176 222.458 -0.43 +0.02    -0.045 A  
DOCKED: ATOM     30  C   UNL     1     142.103  79.748 221.000 -0.28 -0.00    +0.004 A  
DOCKED: ATOM     31  C   UNL     1     141.016  79.115 223.455 -0.54 -0.00    +0.004 A  
DOCKED: ATOM     32  C   UNL     1     141.980  80.700 221.991 -0.49 -0.00    +0.000 A  
DOCKED: ATOM     33  C   UNL     1     141.440  80.408 223.227 -0.55 -0.00    +0.000 A  
DOCKED: ENDBRANCH  21  24
DOCKED: BRANCH  22  34
DOCKED: ATOM     34  O   UNL     1     145.477  73.830 220.072 -0.31 +0.06    -0.391 OA 
DOCKED: ATOM     35  H   UNL     1     146.201  74.379 219.688 -0.40 -0.07    +0.211 HD 
DOCKED: ENDBRANCH  22  34
DOCKED: ENDBRANCH  17  19
DOCKED: ENDBRANCH   1  17
DOCKED: TORSDOF 6
DOCKED: TER
DOCKED: ENDMDL
________________________________________________________________________________


    FINAL DOCKED STATE:
    ________________________


Run:   17 / 20
Time taken for this run:   0.042s

DOCKED: MODEL        17
DOCKED: USER    Run = 17
DOCKED: USER
DOCKED: USER    Estimated Free Energy of Binding    =  -9.54 kcal/mol  [=(1)+(2)+(3)-(4)]
DOCKED: USER
DOCKED: USER    (1) Final Intermolecular Energy     = -11.33 kcal/mol
DOCKED: USER        vdW + Hbond + desolv Energy     = -11.22 kcal/mol
DOCKED: USER        Electrostatic Energy            =  -0.11 kcal/mol
DOCKED: USER        Moving Ligand-Fixed Receptor    = -11.33 kcal/mol
DOCKED: USER        Moving Ligand-Moving Receptor   =  +0.00 kcal/mol
DOCKED: USER    (2) Final Total Internal Energy     =  -1.56 kcal/mol
DOCKED: USER    (3) Torsional Free Energy           =  +1.79 kcal/mol
DOCKED: USER    (4) Unbound System's Energy         =  -1.56 kcal/mol
DOCKED: USER
DOCKED: USER
DOCKED: REMARK SMILES O=C(NCC(=O)N1C[C@H](O)C[C@H]1[C@H]1CCc2ccccc2C1)c1ccc2cc(F)ccc2n1
DOCKED: REMARK SMILES IDX 4 1 3 2 2 3 1 4 23 6 24 7 33 8 25 9 32 10 26 11 31 12 27 13
DOCKED: REMARK SMILES IDX 30 14 28 15 29 16 5 17 6 18 7 19 8 20 12 21 9 22 11 23 13 24
DOCKED: REMARK SMILES IDX 14 25 22 26 15 27 21 28 16 29 20 30 17 31 19 32 18 33 10 34
DOCKED: REMARK H PARENT 3 5 10 35
DOCKED: USER                              x       y       z     vdW  Elec       q    Type
DOCKED: USER                           _______ _______ _______ _____ _____    ______ ____
DOCKED: ROOT
DOCKED: ATOM      1  C   UNL     1     139.117  73.829 220.988 -0.12 -0.04    +0.216 C  
DOCKED: ENDROOT
DOCKED: BRANCH   1   2
DOCKED: ATOM      2  N   UNL     1     139.338  73.044 222.142 -0.13 +0.07    -0.342 N  
DOCKED: ATOM      3  C   UNL     1     139.358  71.607 222.151 -0.15 -0.05    +0.270 C  
DOCKED: ATOM      4  O   UNL     1     139.173  70.953 221.068 -0.05 +0.05    -0.268 OA 
DOCKED: ATOM      5  H   UNL     1     139.507  73.479 223.093 -0.48 -0.04    +0.164 HD 
DOCKED: BRANCH   3   6
DOCKED: ATOM      6  C   UNL     1     139.593  70.877 223.415 -0.27 -0.02    +0.128 A  
DOCKED: ATOM      7  C   UNL     1     139.269  69.539 223.473 -0.24 -0.01    +0.035 A  
DOCKED: ATOM      8  N   UNL     1     140.111  71.485 224.500 -0.29 +0.04    -0.243 NA 
DOCKED: ATOM      9  C   UNL     1     139.461  68.797 224.619 -0.33 -0.00    +0.013 A  
DOCKED: ATOM     10  C   UNL     1     140.317  70.791 225.653 -0.51 -0.01    +0.071 A  
DOCKED: ATOM     11  C   UNL     1     139.993  69.451 225.710 -0.47 -0.00    +0.003 A  
DOCKED: ATOM     12  C   UNL     1     140.849  71.440 226.748 -0.69 -0.01    +0.032 A  
DOCKED: ATOM     13  C   UNL     1     140.183  68.704 226.854 -0.58 -0.01    +0.049 A  
DOCKED: ATOM     14  C   UNL     1     141.047  70.706 227.908 -0.64 -0.01    +0.041 A  
DOCKED: ATOM     15  C   UNL     1     140.721  69.347 227.973 -0.52 -0.02    +0.123 A  
DOCKED: ATOM     16  F   UNL     1     140.906  68.615 229.091 -0.14 +0.05    -0.207 F  
DOCKED: ENDBRANCH   3   6
DOCKED: ENDBRANCH   1   2
DOCKED: BRANCH   1  17
DOCKED: ATOM     17  C   UNL     1     140.122  74.015 219.970 -0.06 -0.05    +0.242 C  
DOCKED: ATOM     18  O   UNL     1     139.706  73.769 218.762 -0.01 +0.06    -0.273 OA 
DOCKED: BRANCH  17  19
DOCKED: ATOM     19  N   UNL     1     141.479  74.414 220.065 -0.07 +0.09    -0.335 N  
DOCKED: ATOM     20  C   UNL     1     142.572  73.486 219.758 -0.16 -0.03    +0.151 C  
DOCKED: ATOM     21  C   UNL     1     142.033  75.680 220.483 -0.23 -0.04    +0.091 C  
DOCKED: ATOM     22  C   UNL     1     143.627  74.434 219.219 -0.24 -0.05    +0.136 C  
DOCKED: ATOM     23  C   UNL     1     143.306  75.797 219.734 -0.36 -0.03    +0.059 C  
DOCKED: BRANCH  21  24
DOCKED: ATOM     24  C   UNL     1     141.142  76.882 220.327 -0.25 -0.01    +0.016 C  
DOCKED: ATOM     25  C   UNL     1     140.092  76.841 221.407 -0.29 -0.00    +0.011 C  
DOCKED: ATOM     26  C   UNL     1     141.813  78.189 220.285 -0.29 -0.02    +0.041 C  
DOCKED: ATOM     27  C   UNL     1     140.426  77.399 222.730 -0.32 -0.01    +0.036 C  
DOCKED: ATOM     28  C   UNL     1     141.643  79.075 221.454 -0.37 +0.02    -0.044 A  
DOCKED: ATOM     29  C   UNL     1     141.009  78.759 222.618 -0.43 +0.01    -0.045 A  
DOCKED: ATOM     30  C   UNL     1     142.185  80.352 221.354 -0.41 -0.00    +0.004 A  
DOCKED: ATOM     31  C   UNL     1     140.883  79.628 223.677 -0.52 -0.00    +0.004 A  
DOCKED: ATOM     32  C   UNL     1     142.065  81.234 222.408 -0.50 -0.00    +0.000 A  
DOCKED: ATOM     33  C   UNL     1     141.420  80.897 223.580 -0.55 -0.00    +0.000 A  
DOCKED: ENDBRANCH  21  24
DOCKED: BRANCH  22  34
DOCKED: ATOM     34  O   UNL     1     144.902  74.003 219.595 -0.19 +0.10    -0.391 OA 
DOCKED: ATOM     35  H   UNL     1     145.573  74.457 219.033 -0.37 -0.12    +0.211 HD 
DOCKED: ENDBRANCH  22  34
DOCKED: ENDBRANCH  17  19
DOCKED: ENDBRANCH   1  17
DOCKED: TORSDOF 6
DOCKED: TER
DOCKED: ENDMDL
________________________________________________________________________________


    FINAL DOCKED STATE:
    ________________________


Run:   18 / 20
Time taken for this run:   0.042s

DOCKED: MODEL        18
DOCKED: USER    Run = 18
DOCKED: USER
DOCKED: USER    Estimated Free Energy of Binding    =  -8.92 kcal/mol  [=(1)+(2)+(3)-(4)]
DOCKED: USER
DOCKED: USER    (1) Final Intermolecular Energy     = -10.71 kcal/mol
DOCKED: USER        vdW + Hbond + desolv Energy     = -10.66 kcal/mol
DOCKED: USER        Electrostatic Energy            =  -0.05 kcal/mol
DOCKED: USER        Moving Ligand-Fixed Receptor    = -10.71 kcal/mol
DOCKED: USER        Moving Ligand-Moving Receptor   =  +0.00 kcal/mol
DOCKED: USER    (2) Final Total Internal Energy     =  -1.74 kcal/mol
DOCKED: USER    (3) Torsional Free Energy           =  +1.79 kcal/mol
DOCKED: USER    (4) Unbound System's Energy         =  -1.74 kcal/mol
DOCKED: USER
DOCKED: USER
DOCKED: REMARK SMILES O=C(NCC(=O)N1C[C@H](O)C[C@H]1[C@H]1CCc2ccccc2C1)c1ccc2cc(F)ccc2n1
DOCKED: REMARK SMILES IDX 4 1 3 2 2 3 1 4 23 6 24 7 33 8 25 9 32 10 26 11 31 12 27 13
DOCKED: REMARK SMILES IDX 30 14 28 15 29 16 5 17 6 18 7 19 8 20 12 21 9 22 11 23 13 24
DOCKED: REMARK SMILES IDX 14 25 22 26 15 27 21 28 16 29 20 30 17 31 19 32 18 33 10 34
DOCKED: REMARK H PARENT 3 5 10 35
DOCKED: USER                              x       y       z     vdW  Elec       q    Type
DOCKED: USER                           _______ _______ _______ _____ _____    ______ ____
DOCKED: ROOT
DOCKED: ATOM      1  C   UNL     1     139.165  72.695 219.945 -0.03 -0.04    +0.216 C  
DOCKED: ENDROOT
DOCKED: BRANCH   1   2
DOCKED: ATOM      2  N   UNL     1     139.190  71.956 221.148 -0.04 +0.06    -0.342 N  
DOCKED: ATOM      3  C   UNL     1     139.911  72.354 222.328 -0.20 -0.04    +0.270 C  
DOCKED: ATOM      4  O   UNL     1     140.583  73.442 222.335 -0.75 -0.01    -0.268 OA 
DOCKED: ATOM      5  H   UNL     1     138.667  71.042 221.258 +0.04 -0.03    +0.164 HD 
DOCKED: BRANCH   3   6
DOCKED: ATOM      6  C   UNL     1     139.878  71.506 223.537 -0.32 -0.02    +0.128 A  
DOCKED: ATOM      7  C   UNL     1     139.228  70.293 223.475 -0.27 -0.01    +0.035 A  
DOCKED: ATOM      8  N   UNL     1     140.463  71.890 224.689 -0.27 +0.04    -0.243 NA 
DOCKED: ATOM      9  C   UNL     1     139.157  69.451 224.565 -0.35 -0.00    +0.013 A  
DOCKED: ATOM     10  C   UNL     1     140.419  71.090 225.790 -0.53 -0.01    +0.071 A  
DOCKED: ATOM     11  C   UNL     1     139.768  69.876 225.727 -0.46 -0.00    +0.003 A  
DOCKED: ATOM     12  C   UNL     1     141.027  71.509 226.956 -0.72 -0.01    +0.032 A  
DOCKED: ATOM     13  C   UNL     1     139.695  69.030 226.814 -0.52 -0.01    +0.049 A  
DOCKED: ATOM     14  C   UNL     1     140.965  70.673 228.061 -0.62 -0.01    +0.041 A  
DOCKED: ATOM     15  C   UNL     1     140.306  69.440 228.002 -0.52 -0.02    +0.123 A  
DOCKED: ATOM     16  F   UNL     1     140.234  68.611 229.065 -0.15 +0.04    -0.207 F  
DOCKED: ENDBRANCH   3   6
DOCKED: ENDBRANCH   1   2
DOCKED: BRANCH   1  17
DOCKED: ATOM     17  C   UNL     1     138.992  74.126 219.914 -0.04 -0.05    +0.242 C  
DOCKED: ATOM     18  O   UNL     1     139.558  74.708 218.897 -0.01 +0.06    -0.273 OA 
DOCKED: BRANCH  17  19
DOCKED: ATOM     19  N   UNL     1     138.317  75.001 220.803 -0.04 +0.07    -0.335 N  
DOCKED: ATOM     20  C   UNL     1     136.954  74.717 221.265 -0.09 -0.03    +0.151 C  
DOCKED: ATOM     21  C   UNL     1     138.757  76.256 221.362 -0.19 -0.02    +0.091 C  
DOCKED: ATOM     22  C   UNL     1     136.974  75.336 222.650 -0.15 -0.04    +0.136 C  
DOCKED: ATOM     23  C   UNL     1     138.074  76.344 222.673 -0.28 -0.01    +0.059 C  
DOCKED: BRANCH  21  24
DOCKED: ATOM     24  C   UNL     1     140.245  76.460 221.454 -0.31 -0.00    +0.016 C  
DOCKED: ATOM     25  C   UNL     1     140.689  77.283 220.273 -0.20 -0.00    +0.011 C  
DOCKED: ATOM     26  C   UNL     1     140.748  77.023 222.716 -0.32 -0.01    +0.041 C  
DOCKED: ATOM     27  C   UNL     1     140.594  78.752 220.368 -0.19 -0.01    +0.036 C  
DOCKED: ATOM     28  C   UNL     1     141.256  78.409 222.684 -0.47 +0.02    -0.044 A  
DOCKED: ATOM     29  C   UNL     1     141.208  79.260 221.620 -0.34 +0.02    -0.045 A  
DOCKED: ATOM     30  C   UNL     1     141.835  78.889 223.853 -0.62 -0.00    +0.004 A  
DOCKED: ATOM     31  C   UNL     1     141.697  80.545 221.650 -0.43 -0.00    +0.004 A  
DOCKED: ATOM     32  C   UNL     1     142.330  80.177 223.897 -0.63 -0.00    +0.000 A  
DOCKED: ATOM     33  C   UNL     1     142.273  81.024 222.810 -0.56 -0.00    +0.000 A  
DOCKED: ENDBRANCH  21  24
DOCKED: BRANCH  22  34
DOCKED: ATOM     34  O   UNL     1     135.728  75.894 222.948 -0.10 +0.07    -0.391 OA 
DOCKED: ATOM     35  H   UNL     1     135.216  76.003 222.111 +0.04 -0.04    +0.211 HD 
DOCKED: ENDBRANCH  22  34
DOCKED: ENDBRANCH  17  19
DOCKED: ENDBRANCH   1  17
DOCKED: TORSDOF 6
DOCKED: TER
DOCKED: ENDMDL
________________________________________________________________________________


    FINAL DOCKED STATE:
    ________________________


Run:   19 / 20
Time taken for this run:   0.042s

DOCKED: MODEL        19
DOCKED: USER    Run = 19
DOCKED: USER
DOCKED: USER    Estimated Free Energy of Binding    =  -8.70 kcal/mol  [=(1)+(2)+(3)-(4)]
DOCKED: USER
DOCKED: USER    (1) Final Intermolecular Energy     = -10.49 kcal/mol
DOCKED: USER        vdW + Hbond + desolv Energy     = -10.43 kcal/mol
DOCKED: USER        Electrostatic Energy            =  -0.05 kcal/mol
DOCKED: USER        Moving Ligand-Fixed Receptor    = -10.49 kcal/mol
DOCKED: USER        Moving Ligand-Moving Receptor   =  +0.00 kcal/mol
DOCKED: USER    (2) Final Total Internal Energy     =  -1.54 kcal/mol
DOCKED: USER    (3) Torsional Free Energy           =  +1.79 kcal/mol
DOCKED: USER    (4) Unbound System's Energy         =  -1.54 kcal/mol
DOCKED: USER
DOCKED: USER
DOCKED: REMARK SMILES O=C(NCC(=O)N1C[C@H](O)C[C@H]1[C@H]1CCc2ccccc2C1)c1ccc2cc(F)ccc2n1
DOCKED: REMARK SMILES IDX 4 1 3 2 2 3 1 4 23 6 24 7 33 8 25 9 32 10 26 11 31 12 27 13
DOCKED: REMARK SMILES IDX 30 14 28 15 29 16 5 17 6 18 7 19 8 20 12 21 9 22 11 23 13 24
DOCKED: REMARK SMILES IDX 14 25 22 26 15 27 21 28 16 29 20 30 17 31 19 32 18 33 10 34
DOCKED: REMARK H PARENT 3 5 10 35
DOCKED: USER                              x       y       z     vdW  Elec       q    Type
DOCKED: USER                           _______ _______ _______ _____ _____    ______ ____
DOCKED: ROOT
DOCKED: ATOM      1  C   UNL     1     136.735  74.073 222.310 -0.09 -0.06    +0.216 C  
DOCKED: ENDROOT
DOCKED: BRANCH   1   2
DOCKED: ATOM      2  N   UNL     1     137.528  75.201 222.615 -0.04 +0.12    -0.342 N  
DOCKED: ATOM      3  C   UNL     1     137.152  76.558 222.322 -0.15 -0.05    +0.270 C  
DOCKED: ATOM      4  O   UNL     1     136.035  76.808 221.752 -0.05 +0.05    -0.268 OA 
DOCKED: ATOM      5  H   UNL     1     138.470  75.114 223.091 -0.49 -0.08    +0.164 HD 
DOCKED: BRANCH   3   6
DOCKED: ATOM      6  C   UNL     1     138.057  77.671 222.678 -0.22 -0.02    +0.128 A  
DOCKED: ATOM      7  C   UNL     1     137.505  78.895 222.991 -0.20 -0.00    +0.035 A  
DOCKED: ATOM      8  N   UNL     1     139.395  77.518 222.703 -0.19 +0.05    -0.243 NA 
DOCKED: ATOM      9  C   UNL     1     138.289  79.977 223.331 -0.32 -0.00    +0.013 A  
DOCKED: ATOM     10  C   UNL     1     140.208  78.559 223.034 -0.36 -0.02    +0.071 A  
DOCKED: ATOM     11  C   UNL     1     139.655  79.783 223.348 -0.41 -0.00    +0.003 A  
DOCKED: ATOM     12  C   UNL     1     141.575  78.372 223.053 -0.50 -0.01    +0.032 A  
DOCKED: ATOM     13  C   UNL     1     140.434  80.869 223.689 -0.38 -0.01    +0.049 A  
DOCKED: ATOM     14  C   UNL     1     142.376  79.452 223.393 -0.58 -0.01    +0.041 A  
DOCKED: ATOM     15  C   UNL     1     141.821  80.696 223.712 -0.50 -0.02    +0.123 A  
DOCKED: ATOM     16  F   UNL     1     142.582  81.759 224.047 -0.18 +0.02    -0.207 F  
DOCKED: ENDBRANCH   3   6
DOCKED: ENDBRANCH   1   2
DOCKED: BRANCH   1  17
DOCKED: ATOM     17  C   UNL     1     137.304  72.796 221.955 -0.09 -0.06    +0.242 C  
DOCKED: ATOM     18  O   UNL     1     136.427  71.908 221.587 -0.03 +0.05    -0.273 OA 
DOCKED: BRANCH  17  19
DOCKED: ATOM     19  N   UNL     1     138.650  72.348 221.944 -0.08 +0.08    -0.335 N  
DOCKED: ATOM     20  C   UNL     1     139.614  72.850 220.959 -0.13 -0.03    +0.151 C  
DOCKED: ATOM     21  C   UNL     1     139.295  71.369 222.785 -0.25 -0.02    +0.091 C  
DOCKED: ATOM     22  C   UNL     1     140.907  72.789 221.750 -0.23 -0.01    +0.136 C  
DOCKED: ATOM     23  C   UNL     1     140.707  71.808 222.857 -0.28 -0.01    +0.059 C  
DOCKED: BRANCH  21  24
DOCKED: ATOM     24  C   UNL     1     138.676  71.140 224.138 -0.30 -0.00    +0.016 C  
DOCKED: ATOM     25  C   UNL     1     137.998  69.795 224.131 -0.30 -0.00    +0.011 C  
DOCKED: ATOM     26  C   UNL     1     139.572  71.281 225.295 -0.26 -0.01    +0.041 C  
DOCKED: ATOM     27  C   UNL     1     138.811  68.600 224.424 -0.35 -0.00    +0.036 C  
DOCKED: ATOM     28  C   UNL     1     139.940  70.049 226.020 -0.47 +0.01    -0.044 A  
DOCKED: ATOM     29  C   UNL     1     139.615  68.775 225.660 -0.45 +0.01    -0.045 A  
DOCKED: ATOM     30  C   UNL     1     140.691  70.206 227.179 -0.60 -0.00    +0.004 A  
DOCKED: ATOM     31  C   UNL     1     139.989  67.661 226.376 -0.66 -0.00    +0.004 A  
DOCKED: ATOM     32  C   UNL     1     141.072  69.098 227.908 -0.61 -0.00    +0.000 A  
DOCKED: ATOM     33  C   UNL     1     140.734  67.816 227.528 -0.62 -0.00    +0.000 A  
DOCKED: ENDBRANCH  21  24
DOCKED: BRANCH  22  34
DOCKED: ATOM     34  O   UNL     1     141.970  72.444 220.911 -0.11 +0.05    -0.391 OA 
DOCKED: ATOM     35  H   UNL     1     141.752  72.716 219.988 +0.06 -0.04    +0.211 HD 
DOCKED: ENDBRANCH  22  34
DOCKED: ENDBRANCH  17  19
DOCKED: ENDBRANCH   1  17
DOCKED: TORSDOF 6
DOCKED: TER
DOCKED: ENDMDL
________________________________________________________________________________


    FINAL DOCKED STATE:
    ________________________


Run:   20 / 20
Time taken for this run:   0.042s

DOCKED: MODEL        20
DOCKED: USER    Run = 20
DOCKED: USER
DOCKED: USER    Estimated Free Energy of Binding    =  -9.76 kcal/mol  [=(1)+(2)+(3)-(4)]
DOCKED: USER
DOCKED: USER    (1) Final Intermolecular Energy     = -11.55 kcal/mol
DOCKED: USER        vdW + Hbond + desolv Energy     = -11.46 kcal/mol
DOCKED: USER        Electrostatic Energy            =  -0.09 kcal/mol
DOCKED: USER        Moving Ligand-Fixed Receptor    = -11.55 kcal/mol
DOCKED: USER        Moving Ligand-Moving Receptor   =  +0.00 kcal/mol
DOCKED: USER    (2) Final Total Internal Energy     =  -1.54 kcal/mol
DOCKED: USER    (3) Torsional Free Energy           =  +1.79 kcal/mol
DOCKED: USER    (4) Unbound System's Energy         =  -1.54 kcal/mol
DOCKED: USER
DOCKED: USER
DOCKED: REMARK SMILES O=C(NCC(=O)N1C[C@H](O)C[C@H]1[C@H]1CCc2ccccc2C1)c1ccc2cc(F)ccc2n1
DOCKED: REMARK SMILES IDX 4 1 3 2 2 3 1 4 23 6 24 7 33 8 25 9 32 10 26 11 31 12 27 13
DOCKED: REMARK SMILES IDX 30 14 28 15 29 16 5 17 6 18 7 19 8 20 12 21 9 22 11 23 13 24
DOCKED: REMARK SMILES IDX 14 25 22 26 15 27 21 28 16 29 20 30 17 31 19 32 18 33 10 34
DOCKED: REMARK H PARENT 3 5 10 35
DOCKED: USER                              x       y       z     vdW  Elec       q    Type
DOCKED: USER                           _______ _______ _______ _____ _____    ______ ____
DOCKED: ROOT
DOCKED: ATOM      1  C   UNL     1     139.800  72.351 219.714 -0.03 -0.04    +0.216 C  
DOCKED: ENDROOT
DOCKED: BRANCH   1   2
DOCKED: ATOM      2  N   UNL     1     139.855  71.643 220.935 -0.04 +0.06    -0.342 N  
DOCKED: ATOM      3  C   UNL     1     139.958  72.264 222.228 -0.20 -0.04    +0.270 C  
DOCKED: ATOM      4  O   UNL     1     140.001  73.539 222.328 -0.81 +0.02    -0.268 OA 
DOCKED: ATOM      5  H   UNL     1     139.822  70.585 220.973 +0.04 -0.03    +0.164 HD 
DOCKED: BRANCH   3   6
DOCKED: ATOM      6  C   UNL     1     140.014  71.433 223.448 -0.32 -0.02    +0.128 A  
DOCKED: ATOM      7  C   UNL     1     139.549  70.137 223.384 -0.26 -0.01    +0.035 A  
DOCKED: ATOM      8  N   UNL     1     140.506  71.908 224.609 -0.25 +0.04    -0.243 NA 
DOCKED: ATOM      9  C   UNL     1     139.571  69.305 224.484 -0.33 -0.00    +0.013 A  
DOCKED: ATOM     10  C   UNL     1     140.547  71.121 225.719 -0.54 -0.01    +0.071 A  
DOCKED: ATOM     11  C   UNL     1     140.081  69.824 225.655 -0.47 -0.00    +0.003 A  
DOCKED: ATOM     12  C   UNL     1     141.056  71.634 226.895 -0.73 -0.01    +0.032 A  
DOCKED: ATOM     13  C   UNL     1     140.101  68.988 226.751 -0.54 -0.01    +0.049 A  
DOCKED: ATOM     14  C   UNL     1     141.085  70.809 228.009 -0.64 -0.01    +0.041 A  
DOCKED: ATOM     15  C   UNL     1     140.614  69.492 227.950 -0.52 -0.02    +0.123 A  
DOCKED: ATOM     16  F   UNL     1     140.633  68.673 229.021 -0.14 +0.04    -0.207 F  
DOCKED: ENDBRANCH   3   6
DOCKED: ENDBRANCH   1   2
DOCKED: BRANCH   1  17
DOCKED: ATOM     17  C   UNL     1     140.489  73.601 219.509 -0.04 -0.05    +0.242 C  
DOCKED: ATOM     18  O   UNL     1     139.793  74.491 218.863 -0.01 +0.06    -0.273 OA 
DOCKED: BRANCH  17  19
DOCKED: ATOM     19  N   UNL     1     141.790  74.019 219.887 -0.06 +0.08    -0.335 N  
DOCKED: ATOM     20  C   UNL     1     142.959  73.156 219.683 -0.16 -0.03    +0.151 C  
DOCKED: ATOM     21  C   UNL     1     142.208  75.242 220.530 -0.25 -0.04    +0.091 C  
DOCKED: ATOM     22  C   UNL     1     144.050  74.183 219.445 -0.28 -0.04    +0.136 C  
DOCKED: ATOM     23  C   UNL     1     143.586  75.472 220.038 -0.30 -0.03    +0.059 C  
DOCKED: BRANCH  21  24
DOCKED: ATOM     24  C   UNL     1     141.307  76.433 220.347 -0.26 -0.01    +0.016 C  
DOCKED: ATOM     25  C   UNL     1     140.183  76.338 221.346 -0.30 -0.00    +0.011 C  
DOCKED: ATOM     26  C   UNL     1     141.954  77.752 220.395 -0.27 -0.03    +0.041 C  
DOCKED: ATOM     27  C   UNL     1     140.410  76.859 222.706 -0.25 -0.01    +0.036 C  
DOCKED: ATOM     28  C   UNL     1     141.683  78.597 221.574 -0.37 +0.02    -0.044 A  
DOCKED: ATOM     29  C   UNL     1     140.973  78.233 222.680 -0.45 +0.02    -0.045 A  
DOCKED: ATOM     30  C   UNL     1     142.205  79.885 221.554 -0.42 -0.00    +0.004 A  
DOCKED: ATOM     31  C   UNL     1     140.754  79.065 223.753 -0.49 -0.00    +0.004 A  
DOCKED: ATOM     32  C   UNL     1     141.993  80.731 222.623 -0.56 -0.00    +0.000 A  
DOCKED: ATOM     33  C   UNL     1     141.272  80.344 223.734 -0.53 -0.00    +0.000 A  
DOCKED: ENDBRANCH  21  24
DOCKED: BRANCH  22  34
DOCKED: ATOM     34  O   UNL     1     145.257  73.742 219.995 -0.28 +0.06    -0.391 OA 
DOCKED: ATOM     35  H   UNL     1     146.003  74.203 219.543 -0.39 -0.05    +0.211 HD 
DOCKED: ENDBRANCH  22  34
DOCKED: ENDBRANCH  17  19
DOCKED: ENDBRANCH   1  17
DOCKED: TORSDOF 6
DOCKED: TER
DOCKED: ENDMDL
________________________________________________________________________________


    CLUSTERING HISTOGRAM
    ____________________


________________________________________________________________________________
     |           |     |           |     |
Clus | Lowest    | Run | Mean      | Num | Histogram
-ter | Binding   |     | Binding   | in  |
Rank | Energy    |     | Energy    | Clus|    5    10   15   20   25   30   35
_____|___________|_____|___________|_____|____:____|____:____|____:____|____:___
   1 |     -9.84 |   4 |     -9.48 |  17 |#################
   2 |     -8.92 |  18 |     -8.84 |   2 |##
   3 |     -8.70 |  19 |     -8.70 |   1 |#
_____|___________|_____|___________|_____|______________________________________


    RMSD TABLE
    __________


_______________________________________________________________________
     |      |      |           |         |                 |
Rank | Sub- | Run  | Binding   | Cluster | Reference       | Grep
     | Rank |      | Energy    | RMSD    | RMSD            | Pattern
_____|______|______|___________|_________|_________________|___________
   1      1      4       -9.84      0.00    271.04           RANKING
   1      2     14       -9.83      1.15    271.16           RANKING
   1      3      1       -9.82      1.16    271.14           RANKING
   1      4     10       -9.78      1.16    271.17           RANKING
   1      5     20       -9.76      0.07    271.03           RANKING
   1      6      5       -9.70      1.14    271.16           RANKING
   1      7     16       -9.62      0.48    270.97           RANKING
   1      8     15       -9.61      1.05    271.03           RANKING
   1      9     17       -9.54      1.05    271.01           RANKING
   1     10      8       -9.52      1.04    271.02           RANKING
   1     11     12       -9.51      0.88    271.13           RANKING
   1     12      6       -9.44      0.90    271.06           RANKING
   1     13      7       -9.31      1.30    270.97           RANKING
   1     14      3       -9.16      0.97    270.98           RANKING
   1     15     11       -8.95      1.82    270.77           RANKING
   1     16      9       -8.92      1.89    270.76           RANKING
   1     17     13       -8.87      0.99    270.94           RANKING
   2      1     18       -8.92      0.00    270.78           RANKING
   2      2      2       -8.75      1.23    271.09           RANKING
   3      1     19       -8.70      0.00    270.95           RANKING

Run time 0.796 sec
Idle time 0.000 sec
