AutoDock-GPU version: v1.6

**********************************************************
**    AutoDock-GPU AUTODOCKTOOLS-COMPATIBLE DLG FILE    **
**********************************************************


    DOCKING PARAMETERS
    ________________________


Ligand file:                               /home/a/REINVENT4/ReinventStudies/pleaseWork/justmol2mol_4_Compounds_ontop/graph-dock-amy28i/graph-DockGPU/node-autodockgpu/inputs/KPOQXSMHEJPNQV-TVXSRIQHNA-N.pdbqt
Grid fld file:                             /home/a/REINVENT4/ReinventStudies/mols/Rad51/maps/rad51_receptor.maps.fld

Random seed:                               42
Number of runs:                            20
Number of energy evaluations:              1132076
Number of generations:                     42000
Size of population:                        150
Rate of crossover:                         80.000000%
Tournament selection probability limit:    60.000000%
Rate of mutation:                          2.000000%
Maximal allowed delta movement:            +/- 6.000000A
Maximal allowed delta angle:               +/- 90.000000

Rate of local search:                      100.000000%
Maximal number of local search iterations: 300
Rho lower bound:                           0.010000
Spread of local search delta movement:     2.000000A
Spread of local search delta angle:        74.999999
Limit of consecutive successes/failures:   4

Handle symmetry during clustering:         YES
RMSD tolerance:                            2.000000A

Program call in command line was:          /home/a/REINVENT4/ReinventStudies/adgpu-v1.6_linux_x64_cuda12_128wi --filelist batch.txt --heuristics 1 --nrun 20 --psize 150 --lsit 300 --seed 42 --heurmax 12000000 


    GRID PARAMETERS
    ________________________


Receptor name:                             rad51_receptor
Number of grid points (x, y, z):           53, 53, 53
Grid center (x, y, z):                     139.950000, 75.640000, 221.970000A
Grid size (x, y, z):                       19.500000, 19.500000, 19.500000A
Grid spacing:                              0.375000A


    LIGAND PARAMETERS
    ________________________


Ligand name:                               /home/a/REINVENT4/ReinventStudies/pleaseWork/justmol2mol_4_Compounds_ontop/graph-dock-amy28i/graph-DockGPU/node-autodockgpu/inputs/KPOQXSMHEJPNQV-TVXSRIQHNA-N
Number of atoms:                           35
Number of rotatable bonds:                 6
Number of atom types:                      7


    DUMMY DATA (only for ADT-compatibility)
    ________________________


DPF> outlev 1
DPF> ga_run 20
DPF> fld /home/a/REINVENT4/ReinventStudies/mols/Rad51/maps/rad51_receptor.maps.fld
DPF> move /home/a/REINVENT4/ReinventStudies/pleaseWork/justmol2mol_4_Compounds_ontop/graph-dock-amy28i/graph-DockGPU/node-autodockgpu/inputs/KPOQXSMHEJPNQV-TVXSRIQHNA-N.pdbqt


    COUNTER STATES
    ________________________


Number of energy evaluations performed:    1072623
Number of generations used:                70


    INPUT LIGAND PDBQT FILE:
    ________________________


INPUT-LIGAND-PDBQT: REMARK SMILES O=C(NCC(=O)N1C[C@H](O)C[C@H]1[C@@H]1CCc2ccccc2C1)c1ccc2cc(F)ccc2n1
INPUT-LIGAND-PDBQT: REMARK SMILES IDX 4 1 3 2 2 3 1 4 23 6 24 7 33 8 25 9 32 10 26 11 31 12 27 13
INPUT-LIGAND-PDBQT: REMARK SMILES IDX 30 14 28 15 29 16 5 17 6 18 7 19 8 20 12 21 9 22 11 23 13 24
INPUT-LIGAND-PDBQT: REMARK SMILES IDX 14 25 22 26 15 27 21 28 16 29 20 30 17 31 19 32 18 33 10 34
INPUT-LIGAND-PDBQT: REMARK H PARENT 3 5 10 35
INPUT-LIGAND-PDBQT: ROOT
INPUT-LIGAND-PDBQT: ATOM      1  C   UNL     1       0.453   0.082   0.394  1.00  0.00     0.216 C 
INPUT-LIGAND-PDBQT: ENDROOT
INPUT-LIGAND-PDBQT: BRANCH   1   2
INPUT-LIGAND-PDBQT: ATOM      2  N   UNL     1       1.911   0.310   0.537  1.00  0.00    -0.342 N 
INPUT-LIGAND-PDBQT: ATOM      3  C   UNL     1       2.787  -0.800   0.615  1.00  0.00     0.270 C 
INPUT-LIGAND-PDBQT: ATOM      4  O   UNL     1       2.371  -2.007   0.568  1.00  0.00    -0.268 OA
INPUT-LIGAND-PDBQT: ATOM      5  H   UNL     1       2.320   1.264   0.582  1.00  0.00     0.164 HD
INPUT-LIGAND-PDBQT: BRANCH   3   6
INPUT-LIGAND-PDBQT: ATOM      6  C   UNL     1       4.219  -0.554   0.756  1.00  0.00     0.128 A 
INPUT-LIGAND-PDBQT: ATOM      7  C   UNL     1       5.108  -1.626   0.837  1.00  0.00     0.035 A 
INPUT-LIGAND-PDBQT: ATOM      8  N   UNL     1       4.749   0.680   0.815  1.00  0.00    -0.243 NA
INPUT-LIGAND-PDBQT: ATOM      9  C   UNL     1       6.452  -1.467   0.969  1.00  0.00     0.013 A 
INPUT-LIGAND-PDBQT: ATOM     10  C   UNL     1       6.089   0.876   0.948  1.00  0.00     0.071 A 
INPUT-LIGAND-PDBQT: ATOM     11  C   UNL     1       6.966  -0.200   1.027  1.00  0.00     0.003 A 
INPUT-LIGAND-PDBQT: ATOM     12  C   UNL     1       6.611   2.167   1.007  1.00  0.00     0.032 A 
INPUT-LIGAND-PDBQT: ATOM     13  C   UNL     1       8.327  -0.008   1.161  1.00  0.00     0.049 A 
INPUT-LIGAND-PDBQT: ATOM     14  C   UNL     1       7.984   2.350   1.142  1.00  0.00     0.041 A 
INPUT-LIGAND-PDBQT: ATOM     15  C   UNL     1       8.836   1.264   1.219  1.00  0.00     0.123 A 
INPUT-LIGAND-PDBQT: ATOM     16  F   UNL     1      10.189   1.411   1.352  1.00  0.00    -0.207 F 
INPUT-LIGAND-PDBQT: ENDBRANCH   3   6
INPUT-LIGAND-PDBQT: ENDBRANCH   1   2
INPUT-LIGAND-PDBQT: BRANCH   1  17
INPUT-LIGAND-PDBQT: ATOM     17  C   UNL     1       0.169  -0.662  -0.825  1.00  0.00     0.242 C 
INPUT-LIGAND-PDBQT: ATOM     18  O   UNL     1       1.217  -0.942  -1.547  1.00  0.00    -0.273 OA
INPUT-LIGAND-PDBQT: BRANCH  17  19
INPUT-LIGAND-PDBQT: ATOM     19  N   UNL     1      -1.034  -1.125  -1.346  1.00  0.00    -0.335 N 
INPUT-LIGAND-PDBQT: ATOM     20  C   UNL     1      -1.051  -1.881  -2.643  1.00  0.00     0.151 C 
INPUT-LIGAND-PDBQT: ATOM     21  C   UNL     1      -2.424  -1.152  -1.006  1.00  0.00     0.091 C 
INPUT-LIGAND-PDBQT: ATOM     22  C   UNL     1      -1.810  -3.103  -2.188  1.00  0.00     0.136 C 
INPUT-LIGAND-PDBQT: ATOM     23  C   UNL     1      -2.803  -2.582  -1.217  1.00  0.00     0.059 C 
INPUT-LIGAND-PDBQT: BRANCH  21  24
INPUT-LIGAND-PDBQT: ATOM     24  C   UNL     1      -2.874  -0.497   0.230  1.00  0.00     0.016 C 
INPUT-LIGAND-PDBQT: ATOM     25  C   UNL     1      -4.328  -0.751   0.569  1.00  0.00     0.011 C 
INPUT-LIGAND-PDBQT: ATOM     26  C   UNL     1      -2.729   1.016   0.178  1.00  0.00     0.041 C 
INPUT-LIGAND-PDBQT: ATOM     27  C   UNL     1      -5.253  -0.228  -0.507  1.00  0.00     0.036 C 
INPUT-LIGAND-PDBQT: ATOM     28  C   UNL     1      -3.959   1.771   0.006  1.00  0.00    -0.044 A 
INPUT-LIGAND-PDBQT: ATOM     29  C   UNL     1      -5.197   1.273  -0.326  1.00  0.00    -0.045 A 
INPUT-LIGAND-PDBQT: ATOM     30  C   UNL     1      -3.892   3.156   0.187  1.00  0.00     0.004 A 
INPUT-LIGAND-PDBQT: ATOM     31  C   UNL     1      -6.323   2.052  -0.481  1.00  0.00     0.004 A 
INPUT-LIGAND-PDBQT: ATOM     32  C   UNL     1      -5.018   3.935   0.032  1.00  0.00     0.000 A 
INPUT-LIGAND-PDBQT: ATOM     33  C   UNL     1      -6.252   3.420  -0.301  1.00  0.00     0.000 A 
INPUT-LIGAND-PDBQT: ENDBRANCH  21  24
INPUT-LIGAND-PDBQT: BRANCH  22  34
INPUT-LIGAND-PDBQT: ATOM     34  O   UNL     1      -2.406  -3.766  -3.267  1.00  0.00    -0.391 OA
INPUT-LIGAND-PDBQT: ATOM     35  H   UNL     1      -3.099  -4.368  -2.879  1.00  0.00     0.211 HD
INPUT-LIGAND-PDBQT: ENDBRANCH  22  34
INPUT-LIGAND-PDBQT: ENDBRANCH  17  19
INPUT-LIGAND-PDBQT: ENDBRANCH   1  17
INPUT-LIGAND-PDBQT: TORSDOF 6


    FINAL DOCKED STATE:
    ________________________


Run:   1 / 20
Time taken for this run:   0.054s

DOCKED: MODEL        1
DOCKED: USER    Run = 1
DOCKED: USER
DOCKED: USER    Estimated Free Energy of Binding    =  -9.24 kcal/mol  [=(1)+(2)+(3)-(4)]
DOCKED: USER
DOCKED: USER    (1) Final Intermolecular Energy     = -11.03 kcal/mol
DOCKED: USER        vdW + Hbond + desolv Energy     = -10.95 kcal/mol
DOCKED: USER        Electrostatic Energy            =  -0.08 kcal/mol
DOCKED: USER        Moving Ligand-Fixed Receptor    = -11.03 kcal/mol
DOCKED: USER        Moving Ligand-Moving Receptor   =  +0.00 kcal/mol
DOCKED: USER    (2) Final Total Internal Energy     =  -1.93 kcal/mol
DOCKED: USER    (3) Torsional Free Energy           =  +1.79 kcal/mol
DOCKED: USER    (4) Unbound System's Energy         =  -1.93 kcal/mol
DOCKED: USER
DOCKED: USER
DOCKED: REMARK SMILES O=C(NCC(=O)N1C[C@H](O)C[C@H]1[C@@H]1CCc2ccccc2C1)c1ccc2cc(F)ccc2n1
DOCKED: REMARK SMILES IDX 4 1 3 2 2 3 1 4 23 6 24 7 33 8 25 9 32 10 26 11 31 12 27 13
DOCKED: REMARK SMILES IDX 30 14 28 15 29 16 5 17 6 18 7 19 8 20 12 21 9 22 11 23 13 24
DOCKED: REMARK SMILES IDX 14 25 22 26 15 27 21 28 16 29 20 30 17 31 19 32 18 33 10 34
DOCKED: REMARK H PARENT 3 5 10 35
DOCKED: USER                              x       y       z     vdW  Elec       q    Type
DOCKED: USER                           _______ _______ _______ _____ _____    ______ ____
DOCKED: ROOT
DOCKED: ATOM      1  C   UNL     1     139.644  73.768 221.261 -0.17 -0.04    +0.216 C  
DOCKED: ENDROOT
DOCKED: BRANCH   1   2
DOCKED: ATOM      2  N   UNL     1     139.693  72.957 222.502 -0.13 +0.06    -0.342 N  
DOCKED: ATOM      3  C   UNL     1     139.891  71.558 222.414 -0.19 -0.04    +0.270 C  
DOCKED: ATOM      4  O   UNL     1     140.031  70.953 221.298 -0.09 +0.04    -0.268 OA 
DOCKED: ATOM      5  H   UNL     1     139.587  73.382 223.444 -0.43 -0.05    +0.164 HD 
DOCKED: BRANCH   3   6
DOCKED: ATOM      6  C   UNL     1     139.936  70.778 223.648 -0.29 -0.02    +0.128 A  
DOCKED: ATOM      7  C   UNL     1     139.430  69.478 223.671 -0.23 -0.01    +0.035 A  
DOCKED: ATOM      8  N   UNL     1     140.449  71.251 224.797 -0.31 +0.04    -0.243 NA 
DOCKED: ATOM      9  C   UNL     1     139.441  68.698 224.785 -0.36 -0.00    +0.013 A  
DOCKED: ATOM     10  C   UNL     1     140.475  70.499 225.930 -0.50 -0.01    +0.071 A  
DOCKED: ATOM     11  C   UNL     1     139.969  69.204 225.942 -0.49 -0.00    +0.003 A  
DOCKED: ATOM     12  C   UNL     1     141.013  71.015 227.108 -0.66 -0.01    +0.032 A  
DOCKED: ATOM     13  C   UNL     1     139.993  68.435 227.089 -0.60 -0.01    +0.049 A  
DOCKED: ATOM     14  C   UNL     1     141.032  70.232 228.258 -0.54 -0.01    +0.041 A  
DOCKED: ATOM     15  C   UNL     1     140.523  68.947 228.245 -0.54 -0.02    +0.123 A  
DOCKED: ATOM     16  F   UNL     1     140.527  68.153 229.359 -0.11 +0.05    -0.207 F  
DOCKED: ENDBRANCH   3   6
DOCKED: ENDBRANCH   1   2
DOCKED: BRANCH   1  17
DOCKED: ATOM     17  C   UNL     1     140.744  74.722 221.230 -0.21 -0.05    +0.242 C  
DOCKED: ATOM     18  O   UNL     1     140.772  75.550 222.236 -0.48 +0.04    -0.273 OA 
DOCKED: BRANCH  17  19
DOCKED: ATOM     19  N   UNL     1     141.769  74.895 220.308 -0.11 +0.11    -0.335 N  
DOCKED: ATOM     20  C   UNL     1     141.634  75.914 219.214 -0.14 -0.06    +0.151 C  
DOCKED: ATOM     21  C   UNL     1     143.080  74.388 220.035 -0.29 -0.03    +0.091 C  
DOCKED: ATOM     22  C   UNL     1     142.921  76.668 219.440 -0.31 -0.09    +0.136 C  
DOCKED: ATOM     23  C   UNL     1     143.895  75.625 219.843 -0.26 -0.04    +0.059 C  
DOCKED: BRANCH  21  24
DOCKED: ATOM     24  C   UNL     1     143.631  73.327 220.889 -0.22 -0.00    +0.016 C  
DOCKED: ATOM     25  C   UNL     1     145.136  73.178 220.796 -0.57 -0.00    +0.011 C  
DOCKED: ATOM     26  C   UNL     1     143.068  71.954 220.557 -0.26 -0.01    +0.041 C  
DOCKED: ATOM     27  C   UNL     1     145.576  72.817 219.395 -0.38 +0.01    +0.036 C  
DOCKED: ATOM     28  C   UNL     1     143.957  71.053 219.842 -0.23 +0.00    -0.044 A  
DOCKED: ATOM     29  C   UNL     1     145.157  71.371 219.251 -0.28 -0.01    -0.045 A  
DOCKED: ATOM     30  C   UNL     1     143.560  69.717 219.728 -0.22 -0.00    +0.004 A  
DOCKED: ATOM     31  C   UNL     1     145.948  70.463 218.580 -0.27 +0.00    +0.004 A  
DOCKED: ATOM     32  C   UNL     1     144.351  68.810 219.057 -0.28 -0.00    +0.000 A  
DOCKED: ATOM     33  C   UNL     1     145.552  69.144 218.470 -0.31 +0.00    +0.000 A  
DOCKED: ENDBRANCH  21  24
DOCKED: BRANCH  22  34
DOCKED: ATOM     34  O   UNL     1     143.316  77.362 218.291 -0.20 +0.30    -0.391 OA 
DOCKED: ATOM     35  H   UNL     1     143.726  78.214 218.604 -0.28 -0.22    +0.211 HD 
DOCKED: ENDBRANCH  22  34
DOCKED: ENDBRANCH  17  19
DOCKED: ENDBRANCH   1  17
DOCKED: TORSDOF 6
DOCKED: TER
DOCKED: ENDMDL
________________________________________________________________________________


    FINAL DOCKED STATE:
    ________________________


Run:   2 / 20
Time taken for this run:   0.054s

DOCKED: MODEL        2
DOCKED: USER    Run = 2
DOCKED: USER
DOCKED: USER    Estimated Free Energy of Binding    =  -9.37 kcal/mol  [=(1)+(2)+(3)-(4)]
DOCKED: USER
DOCKED: USER    (1) Final Intermolecular Energy     = -11.16 kcal/mol
DOCKED: USER        vdW + Hbond + desolv Energy     = -11.11 kcal/mol
DOCKED: USER        Electrostatic Energy            =  -0.05 kcal/mol
DOCKED: USER        Moving Ligand-Fixed Receptor    = -11.16 kcal/mol
DOCKED: USER        Moving Ligand-Moving Receptor   =  +0.00 kcal/mol
DOCKED: USER    (2) Final Total Internal Energy     =  -1.81 kcal/mol
DOCKED: USER    (3) Torsional Free Energy           =  +1.79 kcal/mol
DOCKED: USER    (4) Unbound System's Energy         =  -1.81 kcal/mol
DOCKED: USER
DOCKED: USER
DOCKED: REMARK SMILES O=C(NCC(=O)N1C[C@H](O)C[C@H]1[C@@H]1CCc2ccccc2C1)c1ccc2cc(F)ccc2n1
DOCKED: REMARK SMILES IDX 4 1 3 2 2 3 1 4 23 6 24 7 33 8 25 9 32 10 26 11 31 12 27 13
DOCKED: REMARK SMILES IDX 30 14 28 15 29 16 5 17 6 18 7 19 8 20 12 21 9 22 11 23 13 24
DOCKED: REMARK SMILES IDX 14 25 22 26 15 27 21 28 16 29 20 30 17 31 19 32 18 33 10 34
DOCKED: REMARK H PARENT 3 5 10 35
DOCKED: USER                              x       y       z     vdW  Elec       q    Type
DOCKED: USER                           _______ _______ _______ _____ _____    ______ ____
DOCKED: ROOT
DOCKED: ATOM      1  C   UNL     1     139.625  73.751 221.234 -0.16 -0.04    +0.216 C  
DOCKED: ENDROOT
DOCKED: BRANCH   1   2
DOCKED: ATOM      2  N   UNL     1     139.637  72.944 222.477 -0.13 +0.06    -0.342 N  
DOCKED: ATOM      3  C   UNL     1     139.944  71.563 222.409 -0.19 -0.04    +0.270 C  
DOCKED: ATOM      4  O   UNL     1     140.212  70.972 221.309 -0.10 +0.04    -0.268 OA 
DOCKED: ATOM      5  H   UNL     1     139.429  73.357 223.407 -0.44 -0.07    +0.164 HD 
DOCKED: BRANCH   3   6
DOCKED: ATOM      6  C   UNL     1     139.951  70.785 223.645 -0.29 -0.02    +0.128 A  
DOCKED: ATOM      7  C   UNL     1     139.397  69.505 223.669 -0.24 -0.01    +0.035 A  
DOCKED: ATOM      8  N   UNL     1     140.474  71.242 224.796 -0.31 +0.04    -0.243 NA 
DOCKED: ATOM      9  C   UNL     1     139.370  68.729 224.785 -0.37 -0.00    +0.013 A  
DOCKED: ATOM     10  C   UNL     1     140.464  70.492 225.932 -0.50 -0.01    +0.071 A  
DOCKED: ATOM     11  C   UNL     1     139.909  69.217 225.944 -0.49 -0.00    +0.003 A  
DOCKED: ATOM     12  C   UNL     1     141.013  70.992 227.112 -0.66 -0.01    +0.032 A  
DOCKED: ATOM     13  C   UNL     1     139.897  68.451 227.093 -0.59 -0.01    +0.049 A  
DOCKED: ATOM     14  C   UNL     1     140.995  70.212 228.264 -0.54 -0.01    +0.041 A  
DOCKED: ATOM     15  C   UNL     1     140.438  68.947 228.251 -0.54 -0.02    +0.123 A  
DOCKED: ATOM     16  F   UNL     1     140.405  68.157 229.367 -0.11 +0.05    -0.207 F  
DOCKED: ENDBRANCH   3   6
DOCKED: ENDBRANCH   1   2
DOCKED: BRANCH   1  17
DOCKED: ATOM     17  C   UNL     1     140.823  74.573 221.145 -0.21 -0.05    +0.242 C  
DOCKED: ATOM     18  O   UNL     1     140.962  75.437 222.111 -0.49 +0.05    -0.273 OA 
DOCKED: BRANCH  17  19
DOCKED: ATOM     19  N   UNL     1     141.846  74.588 220.203 -0.10 +0.10    -0.335 N  
DOCKED: ATOM     20  C   UNL     1     141.790  75.545 219.047 -0.13 -0.06    +0.151 C  
DOCKED: ATOM     21  C   UNL     1     143.097  73.941 219.950 -0.26 -0.02    +0.091 C  
DOCKED: ATOM     22  C   UNL     1     143.146  76.184 219.211 -0.31 -0.08    +0.136 C  
DOCKED: ATOM     23  C   UNL     1     144.024  75.080 219.670 -0.31 -0.03    +0.059 C  
DOCKED: BRANCH  21  24
DOCKED: ATOM     24  C   UNL     1     143.559  72.888 220.866 -0.26 -0.00    +0.016 C  
DOCKED: ATOM     25  C   UNL     1     145.066  72.778 220.970 -0.46 -0.00    +0.011 C  
DOCKED: ATOM     26  C   UNL     1     143.080  71.504 220.456 -0.24 -0.00    +0.041 C  
DOCKED: ATOM     27  C   UNL     1     145.696  72.439 219.637 -0.37 +0.02    +0.036 C  
DOCKED: ATOM     28  C   UNL     1     144.078  70.631 219.861 -0.22 -0.00    -0.044 A  
DOCKED: ATOM     29  C   UNL     1     145.337  70.983 219.435 -0.24 -0.02    -0.045 A  
DOCKED: ATOM     30  C   UNL     1     143.735  69.287 219.691 -0.25 -0.00    +0.004 A  
DOCKED: ATOM     31  C   UNL     1     146.232  70.101 218.870 -0.31 +0.00    +0.004 A  
DOCKED: ATOM     32  C   UNL     1     144.630  68.404 219.126 -0.34 -0.00    +0.000 A  
DOCKED: ATOM     33  C   UNL     1     145.888  68.773 218.703 -0.39 +0.00    +0.000 A  
DOCKED: ENDBRANCH  21  24
DOCKED: BRANCH  22  34
DOCKED: ATOM     34  O   UNL     1     143.587  76.763 218.015 -0.17 +0.27    -0.391 OA 
DOCKED: ATOM     35  H   UNL     1     144.483  76.369 217.826 -0.41 -0.16    +0.211 HD 
DOCKED: ENDBRANCH  22  34
DOCKED: ENDBRANCH  17  19
DOCKED: ENDBRANCH   1  17
DOCKED: TORSDOF 6
DOCKED: TER
DOCKED: ENDMDL
________________________________________________________________________________


    FINAL DOCKED STATE:
    ________________________


Run:   3 / 20
Time taken for this run:   0.054s

DOCKED: MODEL        3
DOCKED: USER    Run = 3
DOCKED: USER
DOCKED: USER    Estimated Free Energy of Binding    =  -9.26 kcal/mol  [=(1)+(2)+(3)-(4)]
DOCKED: USER
DOCKED: USER    (1) Final Intermolecular Energy     = -11.05 kcal/mol
DOCKED: USER        vdW + Hbond + desolv Energy     = -10.91 kcal/mol
DOCKED: USER        Electrostatic Energy            =  -0.14 kcal/mol
DOCKED: USER        Moving Ligand-Fixed Receptor    = -11.05 kcal/mol
DOCKED: USER        Moving Ligand-Moving Receptor   =  +0.00 kcal/mol
DOCKED: USER    (2) Final Total Internal Energy     =  -1.86 kcal/mol
DOCKED: USER    (3) Torsional Free Energy           =  +1.79 kcal/mol
DOCKED: USER    (4) Unbound System's Energy         =  -1.86 kcal/mol
DOCKED: USER
DOCKED: USER
DOCKED: REMARK SMILES O=C(NCC(=O)N1C[C@H](O)C[C@H]1[C@@H]1CCc2ccccc2C1)c1ccc2cc(F)ccc2n1
DOCKED: REMARK SMILES IDX 4 1 3 2 2 3 1 4 23 6 24 7 33 8 25 9 32 10 26 11 31 12 27 13
DOCKED: REMARK SMILES IDX 30 14 28 15 29 16 5 17 6 18 7 19 8 20 12 21 9 22 11 23 13 24
DOCKED: REMARK SMILES IDX 14 25 22 26 15 27 21 28 16 29 20 30 17 31 19 32 18 33 10 34
DOCKED: REMARK H PARENT 3 5 10 35
DOCKED: USER                              x       y       z     vdW  Elec       q    Type
DOCKED: USER                           _______ _______ _______ _____ _____    ______ ____
DOCKED: ROOT
DOCKED: ATOM      1  C   UNL     1     139.683  73.763 221.147 -0.16 -0.04    +0.216 C  
DOCKED: ENDROOT
DOCKED: BRANCH   1   2
DOCKED: ATOM      2  N   UNL     1     139.617  72.967 222.396 -0.15 +0.06    -0.342 N  
DOCKED: ATOM      3  C   UNL     1     140.128  71.646 222.410 -0.20 -0.04    +0.270 C  
DOCKED: ATOM      4  O   UNL     1     140.651  71.102 221.380 -0.11 +0.04    -0.268 OA 
DOCKED: ATOM      5  H   UNL     1     139.205  73.345 223.271 -0.47 -0.09    +0.164 HD 
DOCKED: BRANCH   3   6
DOCKED: ATOM      6  C   UNL     1     140.052  70.879 223.650 -0.29 -0.02    +0.128 A  
DOCKED: ATOM      7  C   UNL     1     139.399  69.646 223.671 -0.25 -0.01    +0.035 A  
DOCKED: ATOM      8  N   UNL     1     140.590  71.301 224.808 -0.31 +0.03    -0.243 NA 
DOCKED: ATOM      9  C   UNL     1     139.293  68.882 224.790 -0.38 -0.00    +0.013 A  
DOCKED: ATOM     10  C   UNL     1     140.501  70.562 225.947 -0.51 -0.01    +0.071 A  
DOCKED: ATOM     11  C   UNL     1     139.848  69.335 225.956 -0.48 -0.00    +0.003 A  
DOCKED: ATOM     12  C   UNL     1     141.067  71.025 227.134 -0.66 -0.01    +0.032 A  
DOCKED: ATOM     13  C   UNL     1     139.755  68.580 227.109 -0.57 -0.01    +0.049 A  
DOCKED: ATOM     14  C   UNL     1     140.968  70.257 228.290 -0.53 -0.01    +0.041 A  
DOCKED: ATOM     15  C   UNL     1     140.313  69.039 228.274 -0.54 -0.02    +0.123 A  
DOCKED: ATOM     16  F   UNL     1     140.199  68.262 229.393 -0.06 +0.04    -0.207 F  
DOCKED: ENDBRANCH   3   6
DOCKED: ENDBRANCH   1   2
DOCKED: BRANCH   1  17
DOCKED: ATOM     17  C   UNL     1     140.787  74.711 221.203 -0.21 -0.05    +0.242 C  
DOCKED: ATOM     18  O   UNL     1     140.866  75.386 222.315 -0.47 +0.03    -0.273 OA 
DOCKED: BRANCH  17  19
DOCKED: ATOM     19  N   UNL     1     141.770  75.016 220.269 -0.11 +0.11    -0.335 N  
DOCKED: ATOM     20  C   UNL     1     141.485  75.994 219.167 -0.12 -0.06    +0.151 C  
DOCKED: ATOM     21  C   UNL     1     143.137  74.694 219.989 -0.31 -0.04    +0.091 C  
DOCKED: ATOM     22  C   UNL     1     142.655  76.923 219.373 -0.28 -0.09    +0.136 C  
DOCKED: ATOM     23  C   UNL     1     143.769  76.031 219.777 -0.27 -0.04    +0.059 C  
DOCKED: BRANCH  21  24
DOCKED: ATOM     24  C   UNL     1     143.838  73.730 220.849 -0.31 -0.00    +0.016 C  
DOCKED: ATOM     25  C   UNL     1     145.317  73.598 220.549 -0.60 -0.00    +0.011 C  
DOCKED: ATOM     26  C   UNL     1     143.275  72.322 220.733 -0.26 -0.01    +0.041 C  
DOCKED: ATOM     27  C   UNL     1     145.560  73.110 219.138 -0.34 +0.01    +0.036 C  
DOCKED: ATOM     28  C   UNL     1     144.078  71.371 219.983 -0.25 +0.00    -0.044 A  
DOCKED: ATOM     29  C   UNL     1     145.170  71.649 219.195 -0.28 -0.02    -0.045 A  
DOCKED: ATOM     30  C   UNL     1     143.710  70.024 220.055 -0.19 -0.00    +0.004 A  
DOCKED: ATOM     31  C   UNL     1     145.882  70.694 218.503 -0.22 +0.00    +0.004 A  
DOCKED: ATOM     32  C   UNL     1     144.422  69.069 219.363 -0.30 +0.00    +0.000 A  
DOCKED: ATOM     33  C   UNL     1     145.514  69.364 218.576 -0.31 +0.00    +0.000 A  
DOCKED: ENDBRANCH  21  24
DOCKED: BRANCH  22  34
DOCKED: ATOM     34  O   UNL     1     142.940  77.652 218.212 -0.21 +0.30    -0.391 OA 
DOCKED: ATOM     35  H   UNL     1     143.643  78.313 218.461 -0.19 -0.22    +0.211 HD 
DOCKED: ENDBRANCH  22  34
DOCKED: ENDBRANCH  17  19
DOCKED: ENDBRANCH   1  17
DOCKED: TORSDOF 6
DOCKED: TER
DOCKED: ENDMDL
________________________________________________________________________________


    FINAL DOCKED STATE:
    ________________________


Run:   4 / 20
Time taken for this run:   0.054s

DOCKED: MODEL        4
DOCKED: USER    Run = 4
DOCKED: USER
DOCKED: USER    Estimated Free Energy of Binding    =  -8.99 kcal/mol  [=(1)+(2)+(3)-(4)]
DOCKED: USER
DOCKED: USER    (1) Final Intermolecular Energy     = -10.78 kcal/mol
DOCKED: USER        vdW + Hbond + desolv Energy     = -10.72 kcal/mol
DOCKED: USER        Electrostatic Energy            =  -0.06 kcal/mol
DOCKED: USER        Moving Ligand-Fixed Receptor    = -10.78 kcal/mol
DOCKED: USER        Moving Ligand-Moving Receptor   =  +0.00 kcal/mol
DOCKED: USER    (2) Final Total Internal Energy     =  -2.05 kcal/mol
DOCKED: USER    (3) Torsional Free Energy           =  +1.79 kcal/mol
DOCKED: USER    (4) Unbound System's Energy         =  -2.05 kcal/mol
DOCKED: USER
DOCKED: USER
DOCKED: REMARK SMILES O=C(NCC(=O)N1C[C@H](O)C[C@H]1[C@@H]1CCc2ccccc2C1)c1ccc2cc(F)ccc2n1
DOCKED: REMARK SMILES IDX 4 1 3 2 2 3 1 4 23 6 24 7 33 8 25 9 32 10 26 11 31 12 27 13
DOCKED: REMARK SMILES IDX 30 14 28 15 29 16 5 17 6 18 7 19 8 20 12 21 9 22 11 23 13 24
DOCKED: REMARK SMILES IDX 14 25 22 26 15 27 21 28 16 29 20 30 17 31 19 32 18 33 10 34
DOCKED: REMARK H PARENT 3 5 10 35
DOCKED: USER                              x       y       z     vdW  Elec       q    Type
DOCKED: USER                           _______ _______ _______ _____ _____    ______ ____
DOCKED: ROOT
DOCKED: ATOM      1  C   UNL     1     138.676  72.324 222.003 -0.14 -0.05    +0.216 C  
DOCKED: ENDROOT
DOCKED: BRANCH   1   2
DOCKED: ATOM      2  N   UNL     1     139.036  73.757 222.126 -0.08 +0.09    -0.342 N  
DOCKED: ATOM      3  C   UNL     1     140.139  74.265 221.398 -0.19 -0.04    +0.270 C  
DOCKED: ATOM      4  O   UNL     1     140.850  73.533 220.630 -0.12 +0.05    -0.268 OA 
DOCKED: ATOM      5  H   UNL     1     138.502  74.411 222.732 -0.55 -0.08    +0.164 HD 
DOCKED: BRANCH   3   6
DOCKED: ATOM      6  C   UNL     1     140.477  75.679 221.533 -0.29 -0.03    +0.128 A  
DOCKED: ATOM      7  C   UNL     1     141.475  76.239 220.736 -0.28 -0.02    +0.035 A  
DOCKED: ATOM      8  N   UNL     1     139.866  76.499 222.406 -0.27 +0.05    -0.243 NA 
DOCKED: ATOM      9  C   UNL     1     141.838  77.547 220.811 -0.29 -0.01    +0.013 A  
DOCKED: ATOM     10  C   UNL     1     140.205  77.813 222.509 -0.35 -0.02    +0.071 A  
DOCKED: ATOM     11  C   UNL     1     141.201  78.360 221.709 -0.38 -0.00    +0.003 A  
DOCKED: ATOM     12  C   UNL     1     139.555  78.639 223.424 -0.25 -0.00    +0.032 A  
DOCKED: ATOM     13  C   UNL     1     141.548  79.693 221.807 -0.40 -0.02    +0.049 A  
DOCKED: ATOM     14  C   UNL     1     139.912  79.981 223.516 -0.42 -0.01    +0.041 A  
DOCKED: ATOM     15  C   UNL     1     140.907  80.503 222.709 -0.36 -0.03    +0.123 A  
DOCKED: ATOM     16  F   UNL     1     141.281  81.816 222.775 -0.12 +0.03    -0.207 F  
DOCKED: ENDBRANCH   3   6
DOCKED: ENDBRANCH   1   2
DOCKED: BRANCH   1  17
DOCKED: ATOM     17  C   UNL     1     137.558  72.000 222.878 -0.06 -0.07    +0.242 C  
DOCKED: ATOM     18  O   UNL     1     136.733  72.985 223.091 -0.09 +0.10    -0.273 OA 
DOCKED: BRANCH  17  19
DOCKED: ATOM     19  N   UNL     1     137.224  70.814 223.522 -0.09 +0.06    -0.335 N  
DOCKED: ATOM     20  C   UNL     1     135.784  70.413 223.661 -0.12 -0.02    +0.151 C  
DOCKED: ATOM     21  C   UNL     1     137.871  69.700 224.147 -0.26 -0.01    +0.091 C  
DOCKED: ATOM     22  C   UNL     1     135.875  69.024 223.079 -0.12 -0.01    +0.136 C  
DOCKED: ATOM     23  C   UNL     1     137.195  68.519 223.529 -0.05 -0.00    +0.059 C  
DOCKED: BRANCH  21  24
DOCKED: ATOM     24  C   UNL     1     139.337  69.681 224.242 -0.33 -0.00    +0.016 C  
DOCKED: ATOM     25  C   UNL     1     139.877  68.682 225.244 -0.38 -0.00    +0.011 C  
DOCKED: ATOM     26  C   UNL     1     139.915  71.025 224.659 -0.45 -0.01    +0.041 C  
DOCKED: ATOM     27  C   UNL     1     139.400  68.983 226.647 -0.50 -0.00    +0.036 C  
DOCKED: ATOM     28  C   UNL     1     140.396  71.117 226.027 -0.56 +0.01    -0.044 A  
DOCKED: ATOM     29  C   UNL     1     140.196  70.208 227.039 -0.54 +0.01    -0.045 A  
DOCKED: ATOM     30  C   UNL     1     141.139  72.251 226.370 -0.47 -0.00    +0.004 A  
DOCKED: ATOM     31  C   UNL     1     140.678  70.365 228.321 -0.57 -0.00    +0.004 A  
DOCKED: ATOM     32  C   UNL     1     141.621  72.408 227.652 -0.65 -0.00    +0.000 A  
DOCKED: ATOM     33  C   UNL     1     141.412  71.487 228.655 -0.49 -0.00    +0.000 A  
DOCKED: ENDBRANCH  21  24
DOCKED: BRANCH  22  34
DOCKED: ATOM     34  O   UNL     1     134.814  68.219 223.509 -0.54 +0.01    -0.391 OA 
DOCKED: ATOM     35  H   UNL     1     134.772  67.448 222.878 +0.03 -0.02    +0.211 HD 
DOCKED: ENDBRANCH  22  34
DOCKED: ENDBRANCH  17  19
DOCKED: ENDBRANCH   1  17
DOCKED: TORSDOF 6
DOCKED: TER
DOCKED: ENDMDL
________________________________________________________________________________


    FINAL DOCKED STATE:
    ________________________


Run:   5 / 20
Time taken for this run:   0.054s

DOCKED: MODEL        5
DOCKED: USER    Run = 5
DOCKED: USER
DOCKED: USER    Estimated Free Energy of Binding    =  -9.28 kcal/mol  [=(1)+(2)+(3)-(4)]
DOCKED: USER
DOCKED: USER    (1) Final Intermolecular Energy     = -11.07 kcal/mol
DOCKED: USER        vdW + Hbond + desolv Energy     = -10.98 kcal/mol
DOCKED: USER        Electrostatic Energy            =  -0.09 kcal/mol
DOCKED: USER        Moving Ligand-Fixed Receptor    = -11.07 kcal/mol
DOCKED: USER        Moving Ligand-Moving Receptor   =  +0.00 kcal/mol
DOCKED: USER    (2) Final Total Internal Energy     =  -1.91 kcal/mol
DOCKED: USER    (3) Torsional Free Energy           =  +1.79 kcal/mol
DOCKED: USER    (4) Unbound System's Energy         =  -1.91 kcal/mol
DOCKED: USER
DOCKED: USER
DOCKED: REMARK SMILES O=C(NCC(=O)N1C[C@H](O)C[C@H]1[C@@H]1CCc2ccccc2C1)c1ccc2cc(F)ccc2n1
DOCKED: REMARK SMILES IDX 4 1 3 2 2 3 1 4 23 6 24 7 33 8 25 9 32 10 26 11 31 12 27 13
DOCKED: REMARK SMILES IDX 30 14 28 15 29 16 5 17 6 18 7 19 8 20 12 21 9 22 11 23 13 24
DOCKED: REMARK SMILES IDX 14 25 22 26 15 27 21 28 16 29 20 30 17 31 19 32 18 33 10 34
DOCKED: REMARK H PARENT 3 5 10 35
DOCKED: USER                              x       y       z     vdW  Elec       q    Type
DOCKED: USER                           _______ _______ _______ _____ _____    ______ ____
DOCKED: ROOT
DOCKED: ATOM      1  C   UNL     1     139.653  73.647 221.111 -0.15 -0.04    +0.216 C  
DOCKED: ENDROOT
DOCKED: BRANCH   1   2
DOCKED: ATOM      2  N   UNL     1     139.656  72.857 222.366 -0.15 +0.06    -0.342 N  
DOCKED: ATOM      3  C   UNL     1     139.953  71.473 222.319 -0.18 -0.04    +0.270 C  
DOCKED: ATOM      4  O   UNL     1     140.221  70.865 221.227 -0.10 +0.04    -0.268 OA 
DOCKED: ATOM      5  H   UNL     1     139.447  73.285 223.289 -0.44 -0.06    +0.164 HD 
DOCKED: BRANCH   3   6
DOCKED: ATOM      6  C   UNL     1     139.950  70.713 223.565 -0.27 -0.02    +0.128 A  
DOCKED: ATOM      7  C   UNL     1     139.354  69.453 223.615 -0.24 -0.01    +0.035 A  
DOCKED: ATOM      8  N   UNL     1     140.503  71.169 224.703 -0.31 +0.04    -0.243 NA 
DOCKED: ATOM      9  C   UNL     1     139.317  68.694 224.742 -0.37 -0.00    +0.013 A  
DOCKED: ATOM     10  C   UNL     1     140.483  70.436 225.849 -0.49 -0.01    +0.071 A  
DOCKED: ATOM     11  C   UNL     1     139.887  69.181 225.887 -0.49 -0.00    +0.003 A  
DOCKED: ATOM     12  C   UNL     1     141.065  70.933 227.015 -0.64 -0.01    +0.032 A  
DOCKED: ATOM     13  C   UNL     1     139.864  68.432 227.047 -0.59 -0.01    +0.049 A  
DOCKED: ATOM     14  C   UNL     1     141.036  70.171 228.179 -0.55 -0.01    +0.041 A  
DOCKED: ATOM     15  C   UNL     1     140.437  68.925 228.191 -0.54 -0.02    +0.123 A  
DOCKED: ATOM     16  F   UNL     1     140.393  68.152 229.319 -0.12 +0.05    -0.207 F  
DOCKED: ENDBRANCH   3   6
DOCKED: ENDBRANCH   1   2
DOCKED: BRANCH   1  17
DOCKED: ATOM     17  C   UNL     1     140.719  74.638 221.128 -0.20 -0.05    +0.242 C  
DOCKED: ATOM     18  O   UNL     1     140.701  75.438 222.157 -0.53 +0.04    -0.273 OA 
DOCKED: BRANCH  17  19
DOCKED: ATOM     19  N   UNL     1     141.755  74.872 220.230 -0.10 +0.11    -0.335 N  
DOCKED: ATOM     20  C   UNL     1     141.594  75.901 219.148 -0.13 -0.06    +0.151 C  
DOCKED: ATOM     21  C   UNL     1     143.093  74.431 219.979 -0.29 -0.03    +0.091 C  
DOCKED: ATOM     22  C   UNL     1     142.840  76.710 219.413 -0.30 -0.09    +0.136 C  
DOCKED: ATOM     23  C   UNL     1     143.853  75.707 219.821 -0.27 -0.04    +0.059 C  
DOCKED: BRANCH  21  24
DOCKED: ATOM     24  C   UNL     1     143.675  73.384 220.829 -0.30 -0.00    +0.016 C  
DOCKED: ATOM     25  C   UNL     1     145.176  73.237 220.687 -0.57 -0.00    +0.011 C  
DOCKED: ATOM     26  C   UNL     1     143.104  72.005 220.536 -0.26 -0.01    +0.041 C  
DOCKED: ATOM     27  C   UNL     1     145.569  72.856 219.277 -0.36 +0.01    +0.036 C  
DOCKED: ATOM     28  C   UNL     1     143.971  71.096 219.805 -0.23 +0.00    -0.044 A  
DOCKED: ATOM     29  C   UNL     1     145.150  71.407 219.169 -0.27 -0.02    -0.045 A  
DOCKED: ATOM     30  C   UNL     1     143.574  69.757 219.724 -0.22 -0.00    +0.004 A  
DOCKED: ATOM     31  C   UNL     1     145.919  70.491 218.485 -0.25 +0.00    +0.004 A  
DOCKED: ATOM     32  C   UNL     1     144.343  68.842 219.040 -0.28 -0.00    +0.000 A  
DOCKED: ATOM     33  C   UNL     1     145.523  69.170 218.408 -0.30 +0.00    +0.000 A  
DOCKED: ENDBRANCH  21  24
DOCKED: BRANCH  22  34
DOCKED: ATOM     34  O   UNL     1     143.226  77.439 218.282 -0.20 +0.30    -0.391 OA 
DOCKED: ATOM     35  H   UNL     1     143.702  78.248 218.618 -0.29 -0.22    +0.211 HD 
DOCKED: ENDBRANCH  22  34
DOCKED: ENDBRANCH  17  19
DOCKED: ENDBRANCH   1  17
DOCKED: TORSDOF 6
DOCKED: TER
DOCKED: ENDMDL
________________________________________________________________________________


    FINAL DOCKED STATE:
    ________________________


Run:   6 / 20
Time taken for this run:   0.054s

DOCKED: MODEL        6
DOCKED: USER    Run = 6
DOCKED: USER
DOCKED: USER    Estimated Free Energy of Binding    =  -9.11 kcal/mol  [=(1)+(2)+(3)-(4)]
DOCKED: USER
DOCKED: USER    (1) Final Intermolecular Energy     = -10.90 kcal/mol
DOCKED: USER        vdW + Hbond + desolv Energy     = -10.83 kcal/mol
DOCKED: USER        Electrostatic Energy            =  -0.07 kcal/mol
DOCKED: USER        Moving Ligand-Fixed Receptor    = -10.90 kcal/mol
DOCKED: USER        Moving Ligand-Moving Receptor   =  +0.00 kcal/mol
DOCKED: USER    (2) Final Total Internal Energy     =  -1.99 kcal/mol
DOCKED: USER    (3) Torsional Free Energy           =  +1.79 kcal/mol
DOCKED: USER    (4) Unbound System's Energy         =  -1.99 kcal/mol
DOCKED: USER
DOCKED: USER
DOCKED: REMARK SMILES O=C(NCC(=O)N1C[C@H](O)C[C@H]1[C@@H]1CCc2ccccc2C1)c1ccc2cc(F)ccc2n1
DOCKED: REMARK SMILES IDX 4 1 3 2 2 3 1 4 23 6 24 7 33 8 25 9 32 10 26 11 31 12 27 13
DOCKED: REMARK SMILES IDX 30 14 28 15 29 16 5 17 6 18 7 19 8 20 12 21 9 22 11 23 13 24
DOCKED: REMARK SMILES IDX 14 25 22 26 15 27 21 28 16 29 20 30 17 31 19 32 18 33 10 34
DOCKED: REMARK H PARENT 3 5 10 35
DOCKED: USER                              x       y       z     vdW  Elec       q    Type
DOCKED: USER                           _______ _______ _______ _____ _____    ______ ____
DOCKED: ROOT
DOCKED: ATOM      1  C   UNL     1     139.739  73.508 221.176 -0.16 -0.04    +0.216 C  
DOCKED: ENDROOT
DOCKED: BRANCH   1   2
DOCKED: ATOM      2  N   UNL     1     139.781  72.732 222.438 -0.16 +0.06    -0.342 N  
DOCKED: ATOM      3  C   UNL     1     139.778  71.317 222.388 -0.17 -0.05    +0.270 C  
DOCKED: ATOM      4  O   UNL     1     139.738  70.669 221.288 -0.08 +0.04    -0.268 OA 
DOCKED: ATOM      5  H   UNL     1     139.815  73.192 223.369 -0.35 -0.03    +0.164 HD 
DOCKED: BRANCH   3   6
DOCKED: ATOM      6  C   UNL     1     139.820  70.572 223.643 -0.26 -0.02    +0.128 A  
DOCKED: ATOM      7  C   UNL     1     139.272  69.291 223.714 -0.25 -0.01    +0.035 A  
DOCKED: ATOM      8  N   UNL     1     140.370  71.060 224.768 -0.30 +0.04    -0.243 NA 
DOCKED: ATOM      9  C   UNL     1     139.278  68.543 224.849 -0.39 -0.00    +0.013 A  
DOCKED: ATOM     10  C   UNL     1     140.392  70.340 225.923 -0.49 -0.01    +0.071 A  
DOCKED: ATOM     11  C   UNL     1     139.844  69.064 225.981 -0.50 -0.00    +0.003 A  
DOCKED: ATOM     12  C   UNL     1     140.969  70.871 227.075 -0.64 -0.01    +0.032 A  
DOCKED: ATOM     13  C   UNL     1     139.864  68.327 227.150 -0.60 -0.01    +0.049 A  
DOCKED: ATOM     14  C   UNL     1     140.984  70.122 228.247 -0.54 -0.01    +0.041 A  
DOCKED: ATOM     15  C   UNL     1     140.432  68.854 228.281 -0.54 -0.02    +0.123 A  
DOCKED: ATOM     16  F   UNL     1     140.431  68.093 229.417 -0.10 +0.05    -0.207 F  
DOCKED: ENDBRANCH   3   6
DOCKED: ENDBRANCH   1   2
DOCKED: BRANCH   1  17
DOCKED: ATOM     17  C   UNL     1     140.734  74.571 221.195 -0.21 -0.05    +0.242 C  
DOCKED: ATOM     18  O   UNL     1     140.689  75.338 222.247 -0.54 +0.02    -0.273 OA 
DOCKED: BRANCH  17  19
DOCKED: ATOM     19  N   UNL     1     141.725  74.903 220.278 -0.10 +0.11    -0.335 N  
DOCKED: ATOM     20  C   UNL     1     141.444  75.903 219.194 -0.12 -0.06    +0.151 C  
DOCKED: ATOM     21  C   UNL     1     143.096  74.597 220.005 -0.30 -0.03    +0.091 C  
DOCKED: ATOM     22  C   UNL     1     142.606  76.836 219.434 -0.29 -0.09    +0.136 C  
DOCKED: ATOM     23  C   UNL     1     143.722  75.942 219.829 -0.28 -0.04    +0.059 C  
DOCKED: BRANCH  21  24
DOCKED: ATOM     24  C   UNL     1     143.796  73.619 220.851 -0.30 -0.00    +0.016 C  
DOCKED: ATOM     25  C   UNL     1     145.276  73.494 220.554 -0.59 -0.00    +0.011 C  
DOCKED: ATOM     26  C   UNL     1     143.235  72.213 220.708 -0.26 -0.01    +0.041 C  
DOCKED: ATOM     27  C   UNL     1     145.525  73.031 219.137 -0.35 +0.01    +0.036 C  
DOCKED: ATOM     28  C   UNL     1     144.042  71.276 219.945 -0.25 +0.00    -0.044 A  
DOCKED: ATOM     29  C   UNL     1     145.136  71.569 219.166 -0.27 -0.02    -0.045 A  
DOCKED: ATOM     30  C   UNL     1     143.675  69.927 219.991 -0.18 -0.00    +0.004 A  
DOCKED: ATOM     31  C   UNL     1     145.853  70.627 218.460 -0.23 +0.00    +0.004 A  
DOCKED: ATOM     32  C   UNL     1     144.391  68.985 219.286 -0.30 +0.00    +0.000 A  
DOCKED: ATOM     33  C   UNL     1     145.487  69.295 218.509 -0.31 +0.00    +0.000 A  
DOCKED: ENDBRANCH  21  24
DOCKED: BRANCH  22  34
DOCKED: ATOM     34  O   UNL     1     142.898  77.592 218.293 -0.21 +0.29    -0.391 OA 
DOCKED: ATOM     35  H   UNL     1     143.650  78.197 218.541 -0.22 -0.21    +0.211 HD 
DOCKED: ENDBRANCH  22  34
DOCKED: ENDBRANCH  17  19
DOCKED: ENDBRANCH   1  17
DOCKED: TORSDOF 6
DOCKED: TER
DOCKED: ENDMDL
________________________________________________________________________________


    FINAL DOCKED STATE:
    ________________________


Run:   7 / 20
Time taken for this run:   0.054s

DOCKED: MODEL        7
DOCKED: USER    Run = 7
DOCKED: USER
DOCKED: USER    Estimated Free Energy of Binding    =  -9.29 kcal/mol  [=(1)+(2)+(3)-(4)]
DOCKED: USER
DOCKED: USER    (1) Final Intermolecular Energy     = -11.08 kcal/mol
DOCKED: USER        vdW + Hbond + desolv Energy     = -10.98 kcal/mol
DOCKED: USER        Electrostatic Energy            =  -0.10 kcal/mol
DOCKED: USER        Moving Ligand-Fixed Receptor    = -11.08 kcal/mol
DOCKED: USER        Moving Ligand-Moving Receptor   =  +0.00 kcal/mol
DOCKED: USER    (2) Final Total Internal Energy     =  -1.89 kcal/mol
DOCKED: USER    (3) Torsional Free Energy           =  +1.79 kcal/mol
DOCKED: USER    (4) Unbound System's Energy         =  -1.89 kcal/mol
DOCKED: USER
DOCKED: USER
DOCKED: REMARK SMILES O=C(NCC(=O)N1C[C@H](O)C[C@H]1[C@@H]1CCc2ccccc2C1)c1ccc2cc(F)ccc2n1
DOCKED: REMARK SMILES IDX 4 1 3 2 2 3 1 4 23 6 24 7 33 8 25 9 32 10 26 11 31 12 27 13
DOCKED: REMARK SMILES IDX 30 14 28 15 29 16 5 17 6 18 7 19 8 20 12 21 9 22 11 23 13 24
DOCKED: REMARK SMILES IDX 14 25 22 26 15 27 21 28 16 29 20 30 17 31 19 32 18 33 10 34
DOCKED: REMARK H PARENT 3 5 10 35
DOCKED: USER                              x       y       z     vdW  Elec       q    Type
DOCKED: USER                           _______ _______ _______ _____ _____    ______ ____
DOCKED: ROOT
DOCKED: ATOM      1  C   UNL     1     139.616  73.623 221.139 -0.15 -0.04    +0.216 C  
DOCKED: ENDROOT
DOCKED: BRANCH   1   2
DOCKED: ATOM      2  N   UNL     1     139.627  72.841 222.399 -0.15 +0.06    -0.342 N  
DOCKED: ATOM      3  C   UNL     1     139.945  71.462 222.361 -0.19 -0.04    +0.270 C  
DOCKED: ATOM      4  O   UNL     1     140.225  70.851 221.274 -0.10 +0.04    -0.268 OA 
DOCKED: ATOM      5  H   UNL     1     139.408  73.271 223.319 -0.44 -0.07    +0.164 HD 
DOCKED: BRANCH   3   6
DOCKED: ATOM      6  C   UNL     1     139.950  70.709 223.612 -0.28 -0.02    +0.128 A  
DOCKED: ATOM      7  C   UNL     1     139.377  69.438 223.666 -0.24 -0.01    +0.035 A  
DOCKED: ATOM      8  N   UNL     1     140.488  71.182 224.750 -0.31 +0.04    -0.243 NA 
DOCKED: ATOM      9  C   UNL     1     139.348  68.685 224.798 -0.37 -0.00    +0.013 A  
DOCKED: ATOM     10  C   UNL     1     140.475  70.456 225.901 -0.50 -0.01    +0.071 A  
DOCKED: ATOM     11  C   UNL     1     139.903  69.189 225.943 -0.49 -0.00    +0.003 A  
DOCKED: ATOM     12  C   UNL     1     141.040  70.971 227.066 -0.65 -0.01    +0.032 A  
DOCKED: ATOM     13  C   UNL     1     139.888  68.447 227.107 -0.59 -0.01    +0.049 A  
DOCKED: ATOM     14  C   UNL     1     141.020  70.215 228.235 -0.54 -0.01    +0.041 A  
DOCKED: ATOM     15  C   UNL     1     140.445  68.958 228.251 -0.54 -0.02    +0.123 A  
DOCKED: ATOM     16  F   UNL     1     140.409  68.191 229.383 -0.10 +0.04    -0.207 F  
DOCKED: ENDBRANCH   3   6
DOCKED: ENDBRANCH   1   2
DOCKED: BRANCH   1  17
DOCKED: ATOM     17  C   UNL     1     140.692  74.604 221.137 -0.20 -0.05    +0.242 C  
DOCKED: ATOM     18  O   UNL     1     140.670  75.436 222.139 -0.53 +0.04    -0.273 OA 
DOCKED: BRANCH  17  19
DOCKED: ATOM     19  N   UNL     1     141.740  74.799 220.244 -0.10 +0.10    -0.335 N  
DOCKED: ATOM     20  C   UNL     1     141.627  75.837 219.166 -0.13 -0.06    +0.151 C  
DOCKED: ATOM     21  C   UNL     1     143.060  74.304 219.997 -0.28 -0.03    +0.091 C  
DOCKED: ATOM     22  C   UNL     1     142.903  76.594 219.439 -0.31 -0.09    +0.136 C  
DOCKED: ATOM     23  C   UNL     1     143.873  75.548 219.848 -0.29 -0.04    +0.059 C  
DOCKED: BRANCH  21  24
DOCKED: ATOM     24  C   UNL     1     143.595  73.230 220.846 -0.29 -0.00    +0.016 C  
DOCKED: ATOM     25  C   UNL     1     145.101  73.086 220.782 -0.56 -0.00    +0.011 C  
DOCKED: ATOM     26  C   UNL     1     143.042  71.862 220.479 -0.25 -0.01    +0.041 C  
DOCKED: ATOM     27  C   UNL     1     145.572  72.748 219.385 -0.37 +0.01    +0.036 C  
DOCKED: ATOM     28  C   UNL     1     143.948  70.974 219.770 -0.23 +0.00    -0.044 A  
DOCKED: ATOM     29  C   UNL     1     145.160  71.303 219.210 -0.28 -0.02    -0.045 A  
DOCKED: ATOM     30  C   UNL     1     143.557  69.640 219.626 -0.22 -0.00    +0.004 A  
DOCKED: ATOM     31  C   UNL     1     145.967  70.408 218.542 -0.27 +0.00    +0.004 A  
DOCKED: ATOM     32  C   UNL     1     144.364  68.744 218.958 -0.28 -0.00    +0.000 A  
DOCKED: ATOM     33  C   UNL     1     145.576  69.090 218.402 -0.31 +0.00    +0.000 A  
DOCKED: ENDBRANCH  21  24
DOCKED: BRANCH  22  34
DOCKED: ATOM     34  O   UNL     1     143.324  77.310 218.312 -0.20 +0.30    -0.391 OA 
DOCKED: ATOM     35  H   UNL     1     143.734  78.152 218.652 -0.28 -0.22    +0.211 HD 
DOCKED: ENDBRANCH  22  34
DOCKED: ENDBRANCH  17  19
DOCKED: ENDBRANCH   1  17
DOCKED: TORSDOF 6
DOCKED: TER
DOCKED: ENDMDL
________________________________________________________________________________


    FINAL DOCKED STATE:
    ________________________


Run:   8 / 20
Time taken for this run:   0.054s

DOCKED: MODEL        8
DOCKED: USER    Run = 8
DOCKED: USER
DOCKED: USER    Estimated Free Energy of Binding    =  -8.99 kcal/mol  [=(1)+(2)+(3)-(4)]
DOCKED: USER
DOCKED: USER    (1) Final Intermolecular Energy     = -10.78 kcal/mol
DOCKED: USER        vdW + Hbond + desolv Energy     = -10.72 kcal/mol
DOCKED: USER        Electrostatic Energy            =  -0.05 kcal/mol
DOCKED: USER        Moving Ligand-Fixed Receptor    = -10.78 kcal/mol
DOCKED: USER        Moving Ligand-Moving Receptor   =  +0.00 kcal/mol
DOCKED: USER    (2) Final Total Internal Energy     =  -2.04 kcal/mol
DOCKED: USER    (3) Torsional Free Energy           =  +1.79 kcal/mol
DOCKED: USER    (4) Unbound System's Energy         =  -2.04 kcal/mol
DOCKED: USER
DOCKED: USER
DOCKED: REMARK SMILES O=C(NCC(=O)N1C[C@H](O)C[C@H]1[C@@H]1CCc2ccccc2C1)c1ccc2cc(F)ccc2n1
DOCKED: REMARK SMILES IDX 4 1 3 2 2 3 1 4 23 6 24 7 33 8 25 9 32 10 26 11 31 12 27 13
DOCKED: REMARK SMILES IDX 30 14 28 15 29 16 5 17 6 18 7 19 8 20 12 21 9 22 11 23 13 24
DOCKED: REMARK SMILES IDX 14 25 22 26 15 27 21 28 16 29 20 30 17 31 19 32 18 33 10 34
DOCKED: REMARK H PARENT 3 5 10 35
DOCKED: USER                              x       y       z     vdW  Elec       q    Type
DOCKED: USER                           _______ _______ _______ _____ _____    ______ ____
DOCKED: ROOT
DOCKED: ATOM      1  C   UNL     1     138.810  72.304 222.057 -0.14 -0.05    +0.216 C  
DOCKED: ENDROOT
DOCKED: BRANCH   1   2
DOCKED: ATOM      2  N   UNL     1     139.137  73.747 222.145 -0.09 +0.08    -0.342 N  
DOCKED: ATOM      3  C   UNL     1     140.256  74.254 221.441 -0.19 -0.04    +0.270 C  
DOCKED: ATOM      4  O   UNL     1     141.008  73.512 220.722 -0.14 +0.05    -0.268 OA 
DOCKED: ATOM      5  H   UNL     1     138.570  74.410 222.710 -0.54 -0.07    +0.164 HD 
DOCKED: BRANCH   3   6
DOCKED: ATOM      6  C   UNL     1     140.562  75.678 221.541 -0.29 -0.03    +0.128 A  
DOCKED: ATOM      7  C   UNL     1     141.518  76.249 220.701 -0.27 -0.02    +0.035 A  
DOCKED: ATOM      8  N   UNL     1     139.960  76.497 222.421 -0.27 +0.05    -0.243 NA 
DOCKED: ATOM      9  C   UNL     1     141.849  77.567 220.742 -0.29 -0.01    +0.013 A  
DOCKED: ATOM     10  C   UNL     1     140.268  77.820 222.491 -0.35 -0.02    +0.071 A  
DOCKED: ATOM     11  C   UNL     1     141.222  78.379 221.648 -0.37 -0.00    +0.003 A  
DOCKED: ATOM     12  C   UNL     1     139.629  78.646 223.414 -0.26 -0.01    +0.032 A  
DOCKED: ATOM     13  C   UNL     1     141.539  79.722 221.712 -0.39 -0.02    +0.049 A  
DOCKED: ATOM     14  C   UNL     1     139.955  79.998 223.471 -0.42 -0.01    +0.041 A  
DOCKED: ATOM     15  C   UNL     1     140.908  80.530 222.622 -0.35 -0.03    +0.123 A  
DOCKED: ATOM     16  F   UNL     1     141.250  81.854 222.654 -0.12 +0.03    -0.207 F  
DOCKED: ENDBRANCH   3   6
DOCKED: ENDBRANCH   1   2
DOCKED: BRANCH   1  17
DOCKED: ATOM     17  C   UNL     1     137.652  71.991 222.882 -0.05 -0.07    +0.242 C  
DOCKED: ATOM     18  O   UNL     1     136.820  72.980 223.048 -0.08 +0.10    -0.273 OA 
DOCKED: BRANCH  17  19
DOCKED: ATOM     19  N   UNL     1     137.286  70.812 223.522 -0.09 +0.06    -0.335 N  
DOCKED: ATOM     20  C   UNL     1     135.836  70.441 223.644 -0.12 -0.02    +0.151 C  
DOCKED: ATOM     21  C   UNL     1     137.901  69.684 224.152 -0.26 -0.01    +0.091 C  
DOCKED: ATOM     22  C   UNL     1     135.903  69.051 223.062 -0.12 -0.01    +0.136 C  
DOCKED: ATOM     23  C   UNL     1     137.208  68.518 223.526 -0.05 -0.00    +0.059 C  
DOCKED: BRANCH  21  24
DOCKED: ATOM     24  C   UNL     1     139.365  69.634 224.264 -0.33 -0.00    +0.016 C  
DOCKED: ATOM     25  C   UNL     1     139.872  68.653 225.301 -0.40 -0.00    +0.011 C  
DOCKED: ATOM     26  C   UNL     1     139.971  70.976 224.647 -0.45 -0.01    +0.041 C  
DOCKED: ATOM     27  C   UNL     1     139.389  69.007 226.689 -0.50 -0.00    +0.036 C  
DOCKED: ATOM     28  C   UNL     1     140.441  71.098 226.016 -0.57 +0.01    -0.044 A  
DOCKED: ATOM     29  C   UNL     1     140.210  70.224 227.053 -0.55 +0.01    -0.045 A  
DOCKED: ATOM     30  C   UNL     1     141.207  72.224 226.333 -0.46 -0.00    +0.004 A  
DOCKED: ATOM     31  C   UNL     1     140.682  70.409 228.334 -0.57 -0.00    +0.004 A  
DOCKED: ATOM     32  C   UNL     1     141.679  72.409 227.614 -0.65 -0.00    +0.000 A  
DOCKED: ATOM     33  C   UNL     1     141.439  71.523 228.642 -0.51 -0.00    +0.000 A  
DOCKED: ENDBRANCH  21  24
DOCKED: BRANCH  22  34
DOCKED: ATOM     34  O   UNL     1     134.821  68.269 223.480 -0.51 +0.02    -0.391 OA 
DOCKED: ATOM     35  H   UNL     1     134.048  68.890 223.584 +0.04 -0.02    +0.211 HD 
DOCKED: ENDBRANCH  22  34
DOCKED: ENDBRANCH  17  19
DOCKED: ENDBRANCH   1  17
DOCKED: TORSDOF 6
DOCKED: TER
DOCKED: ENDMDL
________________________________________________________________________________


    FINAL DOCKED STATE:
    ________________________


Run:   9 / 20
Time taken for this run:   0.054s

DOCKED: MODEL        9
DOCKED: USER    Run = 9
DOCKED: USER
DOCKED: USER    Estimated Free Energy of Binding    =  -9.33 kcal/mol  [=(1)+(2)+(3)-(4)]
DOCKED: USER
DOCKED: USER    (1) Final Intermolecular Energy     = -11.12 kcal/mol
DOCKED: USER        vdW + Hbond + desolv Energy     = -11.08 kcal/mol
DOCKED: USER        Electrostatic Energy            =  -0.04 kcal/mol
DOCKED: USER        Moving Ligand-Fixed Receptor    = -11.12 kcal/mol
DOCKED: USER        Moving Ligand-Moving Receptor   =  +0.00 kcal/mol
DOCKED: USER    (2) Final Total Internal Energy     =  -1.85 kcal/mol
DOCKED: USER    (3) Torsional Free Energy           =  +1.79 kcal/mol
DOCKED: USER    (4) Unbound System's Energy         =  -1.85 kcal/mol
DOCKED: USER
DOCKED: USER
DOCKED: REMARK SMILES O=C(NCC(=O)N1C[C@H](O)C[C@H]1[C@@H]1CCc2ccccc2C1)c1ccc2cc(F)ccc2n1
DOCKED: REMARK SMILES IDX 4 1 3 2 2 3 1 4 23 6 24 7 33 8 25 9 32 10 26 11 31 12 27 13
DOCKED: REMARK SMILES IDX 30 14 28 15 29 16 5 17 6 18 7 19 8 20 12 21 9 22 11 23 13 24
DOCKED: REMARK SMILES IDX 14 25 22 26 15 27 21 28 16 29 20 30 17 31 19 32 18 33 10 34
DOCKED: REMARK H PARENT 3 5 10 35
DOCKED: USER                              x       y       z     vdW  Elec       q    Type
DOCKED: USER                           _______ _______ _______ _____ _____    ______ ____
DOCKED: ROOT
DOCKED: ATOM      1  C   UNL     1     139.597  73.536 221.113 -0.14 -0.04    +0.216 C  
DOCKED: ENDROOT
DOCKED: BRANCH   1   2
DOCKED: ATOM      2  N   UNL     1     139.620  72.771 222.382 -0.15 +0.07    -0.342 N  
DOCKED: ATOM      3  C   UNL     1     139.839  71.372 222.351 -0.18 -0.04    +0.270 C  
DOCKED: ATOM      4  O   UNL     1     140.020  70.730 221.261 -0.09 +0.04    -0.268 OA 
DOCKED: ATOM      5  H   UNL     1     139.480  73.226 223.306 -0.42 -0.06    +0.164 HD 
DOCKED: BRANCH   3   6
DOCKED: ATOM      6  C   UNL     1     139.858  70.637 223.612 -0.27 -0.02    +0.128 A  
DOCKED: ATOM      7  C   UNL     1     139.282  69.369 223.690 -0.25 -0.01    +0.035 A  
DOCKED: ATOM      8  N   UNL     1     140.412  71.123 224.736 -0.30 +0.04    -0.243 NA 
DOCKED: ATOM      9  C   UNL     1     139.265  68.631 224.833 -0.39 -0.00    +0.013 A  
DOCKED: ATOM     10  C   UNL     1     140.411  70.413 225.897 -0.49 -0.01    +0.071 A  
DOCKED: ATOM     11  C   UNL     1     139.836  69.149 225.964 -0.49 -0.00    +0.003 A  
DOCKED: ATOM     12  C   UNL     1     140.993  70.942 227.048 -0.65 -0.01    +0.032 A  
DOCKED: ATOM     13  C   UNL     1     139.833  68.423 227.138 -0.59 -0.01    +0.049 A  
DOCKED: ATOM     14  C   UNL     1     140.985  70.202 228.227 -0.54 -0.01    +0.041 A  
DOCKED: ATOM     15  C   UNL     1     140.406  68.948 228.268 -0.54 -0.02    +0.123 A  
DOCKED: ATOM     16  F   UNL     1     140.382  68.196 229.411 -0.09 +0.04    -0.207 F  
DOCKED: ENDBRANCH   3   6
DOCKED: ENDBRANCH   1   2
DOCKED: BRANCH   1  17
DOCKED: ATOM     17  C   UNL     1     140.730  74.448 221.045 -0.19 -0.05    +0.242 C  
DOCKED: ATOM     18  O   UNL     1     140.752  75.357 221.978 -0.57 +0.04    -0.273 OA 
DOCKED: BRANCH  17  19
DOCKED: ATOM     19  N   UNL     1     141.794  74.509 220.151 -0.09 +0.10    -0.335 N  
DOCKED: ATOM     20  C   UNL     1     141.766  75.489 219.015 -0.12 -0.06    +0.151 C  
DOCKED: ATOM     21  C   UNL     1     143.072  73.900 219.944 -0.26 -0.02    +0.091 C  
DOCKED: ATOM     22  C   UNL     1     143.096  76.159 219.254 -0.30 -0.08    +0.136 C  
DOCKED: ATOM     23  C   UNL     1     143.980  75.067 219.731 -0.34 -0.03    +0.059 C  
DOCKED: BRANCH  21  24
DOCKED: ATOM     24  C   UNL     1     143.519  72.839 220.857 -0.27 -0.00    +0.016 C  
DOCKED: ATOM     25  C   UNL     1     145.024  72.709 220.962 -0.44 -0.00    +0.011 C  
DOCKED: ATOM     26  C   UNL     1     143.021  71.462 220.445 -0.23 -0.00    +0.041 C  
DOCKED: ATOM     27  C   UNL     1     145.650  72.364 219.630 -0.37 +0.01    +0.036 C  
DOCKED: ATOM     28  C   UNL     1     144.008  70.577 219.849 -0.22 -0.00    -0.044 A  
DOCKED: ATOM     29  C   UNL     1     145.272  70.913 219.424 -0.24 -0.02    -0.045 A  
DOCKED: ATOM     30  C   UNL     1     143.647  69.238 219.676 -0.24 -0.00    +0.004 A  
DOCKED: ATOM     31  C   UNL     1     146.156  70.020 218.858 -0.33 +0.00    +0.004 A  
DOCKED: ATOM     32  C   UNL     1     144.531  68.344 219.110 -0.33 -0.00    +0.000 A  
DOCKED: ATOM     33  C   UNL     1     145.795  68.697 218.689 -0.38 +0.00    +0.000 A  
DOCKED: ENDBRANCH  21  24
DOCKED: BRANCH  22  34
DOCKED: ATOM     34  O   UNL     1     143.576  76.774 218.092 -0.17 +0.27    -0.391 OA 
DOCKED: ATOM     35  H   UNL     1     144.463  76.362 217.901 -0.40 -0.16    +0.211 HD 
DOCKED: ENDBRANCH  22  34
DOCKED: ENDBRANCH  17  19
DOCKED: ENDBRANCH   1  17
DOCKED: TORSDOF 6
DOCKED: TER
DOCKED: ENDMDL
________________________________________________________________________________


    FINAL DOCKED STATE:
    ________________________


Run:   10 / 20
Time taken for this run:   0.054s

DOCKED: MODEL        10
DOCKED: USER    Run = 10
DOCKED: USER
DOCKED: USER    Estimated Free Energy of Binding    =  -9.55 kcal/mol  [=(1)+(2)+(3)-(4)]
DOCKED: USER
DOCKED: USER    (1) Final Intermolecular Energy     = -11.34 kcal/mol
DOCKED: USER        vdW + Hbond + desolv Energy     = -11.26 kcal/mol
DOCKED: USER        Electrostatic Energy            =  -0.08 kcal/mol
DOCKED: USER        Moving Ligand-Fixed Receptor    = -11.34 kcal/mol
DOCKED: USER        Moving Ligand-Moving Receptor   =  +0.00 kcal/mol
DOCKED: USER    (2) Final Total Internal Energy     =  -1.52 kcal/mol
DOCKED: USER    (3) Torsional Free Energy           =  +1.79 kcal/mol
DOCKED: USER    (4) Unbound System's Energy         =  -1.52 kcal/mol
DOCKED: USER
DOCKED: USER
DOCKED: REMARK SMILES O=C(NCC(=O)N1C[C@H](O)C[C@H]1[C@@H]1CCc2ccccc2C1)c1ccc2cc(F)ccc2n1
DOCKED: REMARK SMILES IDX 4 1 3 2 2 3 1 4 23 6 24 7 33 8 25 9 32 10 26 11 31 12 27 13
DOCKED: REMARK SMILES IDX 30 14 28 15 29 16 5 17 6 18 7 19 8 20 12 21 9 22 11 23 13 24
DOCKED: REMARK SMILES IDX 14 25 22 26 15 27 21 28 16 29 20 30 17 31 19 32 18 33 10 34
DOCKED: REMARK H PARENT 3 5 10 35
DOCKED: USER                              x       y       z     vdW  Elec       q    Type
DOCKED: USER                           _______ _______ _______ _____ _____    ______ ____
DOCKED: ROOT
DOCKED: ATOM      1  C   UNL     1     140.956  73.020 220.165 -0.09 -0.04    +0.216 C  
DOCKED: ENDROOT
DOCKED: BRANCH   1   2
DOCKED: ATOM      2  N   UNL     1     140.841  72.089 221.313 -0.10 +0.04    -0.342 N  
DOCKED: ATOM      3  C   UNL     1     140.316  72.557 222.542 -0.19 -0.03    +0.270 C  
DOCKED: ATOM      4  O   UNL     1     139.933  73.764 222.709 -0.73 -0.00    -0.268 OA 
DOCKED: ATOM      5  H   UNL     1     141.133  71.093 221.250 +0.05 -0.02    +0.164 HD 
DOCKED: BRANCH   3   6
DOCKED: ATOM      6  C   UNL     1     140.212  71.625 223.660 -0.33 -0.02    +0.128 A  
DOCKED: ATOM      7  C   UNL     1     139.587  70.390 223.485 -0.29 -0.01    +0.035 A  
DOCKED: ATOM      8  N   UNL     1     140.695  71.892 224.886 -0.28 +0.03    -0.243 NA 
DOCKED: ATOM      9  C   UNL     1     139.456  69.476 224.483 -0.34 -0.00    +0.013 A  
DOCKED: ATOM     10  C   UNL     1     140.580  71.001 225.908 -0.54 -0.01    +0.071 A  
DOCKED: ATOM     11  C   UNL     1     139.956  69.773 225.722 -0.47 -0.00    +0.003 A  
DOCKED: ATOM     12  C   UNL     1     141.091  71.305 227.169 -0.70 -0.01    +0.032 A  
DOCKED: ATOM     13  C   UNL     1     139.837  68.864 226.755 -0.54 -0.01    +0.049 A  
DOCKED: ATOM     14  C   UNL     1     140.966  70.382 228.204 -0.55 -0.01    +0.041 A  
DOCKED: ATOM     15  C   UNL     1     140.341  69.167 227.994 -0.53 -0.02    +0.123 A  
DOCKED: ATOM     16  F   UNL     1     140.202  68.241 228.990 -0.16 +0.05    -0.207 F  
DOCKED: ENDBRANCH   3   6
DOCKED: ENDBRANCH   1   2
DOCKED: BRANCH   1  17
DOCKED: ATOM     17  C   UNL     1     142.229  73.726 220.205 -0.15 -0.05    +0.242 C  
DOCKED: ATOM     18  O   UNL     1     143.108  73.214 221.018 -0.18 +0.05    -0.273 OA 
DOCKED: BRANCH  17  19
DOCKED: ATOM     19  N   UNL     1     142.662  74.854 219.518 -0.10 +0.12    -0.335 N  
DOCKED: ATOM     20  C   UNL     1     143.887  74.783 218.652 -0.10 -0.07    +0.151 C  
DOCKED: ATOM     21  C   UNL     1     142.270  76.215 219.310 -0.25 -0.05    +0.091 C  
DOCKED: ATOM     22  C   UNL     1     143.299  75.333 217.376 -0.15 -0.06    +0.136 C  
DOCKED: ATOM     23  C   UNL     1     142.341  76.372 217.826 -0.18 -0.03    +0.059 C  
DOCKED: BRANCH  21  24
DOCKED: ATOM     24  C   UNL     1     141.080  76.732 220.000 -0.21 -0.01    +0.016 C  
DOCKED: ATOM     25  C   UNL     1     140.675  78.126 219.569 -0.16 -0.00    +0.011 C  
DOCKED: ATOM     26  C   UNL     1     141.263  76.811 221.507 -0.21 -0.02    +0.041 C  
DOCKED: ATOM     27  C   UNL     1     141.761  79.138 219.857 -0.27 -0.02    +0.036 C  
DOCKED: ATOM     28  C   UNL     1     141.459  78.142 222.059 -0.37 +0.02    -0.044 A  
DOCKED: ATOM     29  C   UNL     1     141.709  79.299 221.360 -0.37 +0.02    -0.045 A  
DOCKED: ATOM     30  C   UNL     1     141.398  78.275 223.450 -0.53 -0.00    +0.004 A  
DOCKED: ATOM     31  C   UNL     1     141.893  80.530 221.952 -0.48 -0.00    +0.004 A  
DOCKED: ATOM     32  C   UNL     1     141.582  79.505 224.041 -0.54 -0.00    +0.000 A  
DOCKED: ATOM     33  C   UNL     1     141.831  80.657 223.326 -0.60 -0.00    +0.000 A  
DOCKED: ENDBRANCH  21  24
DOCKED: BRANCH  22  34
DOCKED: ATOM     34  O   UNL     1     144.294  75.843 216.533 -0.13 +0.23    -0.391 OA 
DOCKED: ATOM     35  H   UNL     1     145.117  75.928 217.089 -0.50 -0.17    +0.211 HD 
DOCKED: ENDBRANCH  22  34
DOCKED: ENDBRANCH  17  19
DOCKED: ENDBRANCH   1  17
DOCKED: TORSDOF 6
DOCKED: TER
DOCKED: ENDMDL
________________________________________________________________________________


    FINAL DOCKED STATE:
    ________________________


Run:   11 / 20
Time taken for this run:   0.054s

DOCKED: MODEL        11
DOCKED: USER    Run = 11
DOCKED: USER
DOCKED: USER    Estimated Free Energy of Binding    =  -9.27 kcal/mol  [=(1)+(2)+(3)-(4)]
DOCKED: USER
DOCKED: USER    (1) Final Intermolecular Energy     = -11.06 kcal/mol
DOCKED: USER        vdW + Hbond + desolv Energy     = -10.97 kcal/mol
DOCKED: USER        Electrostatic Energy            =  -0.09 kcal/mol
DOCKED: USER        Moving Ligand-Fixed Receptor    = -11.06 kcal/mol
DOCKED: USER        Moving Ligand-Moving Receptor   =  +0.00 kcal/mol
DOCKED: USER    (2) Final Total Internal Energy     =  -1.93 kcal/mol
DOCKED: USER    (3) Torsional Free Energy           =  +1.79 kcal/mol
DOCKED: USER    (4) Unbound System's Energy         =  -1.93 kcal/mol
DOCKED: USER
DOCKED: USER
DOCKED: REMARK SMILES O=C(NCC(=O)N1C[C@H](O)C[C@H]1[C@@H]1CCc2ccccc2C1)c1ccc2cc(F)ccc2n1
DOCKED: REMARK SMILES IDX 4 1 3 2 2 3 1 4 23 6 24 7 33 8 25 9 32 10 26 11 31 12 27 13
DOCKED: REMARK SMILES IDX 30 14 28 15 29 16 5 17 6 18 7 19 8 20 12 21 9 22 11 23 13 24
DOCKED: REMARK SMILES IDX 14 25 22 26 15 27 21 28 16 29 20 30 17 31 19 32 18 33 10 34
DOCKED: REMARK H PARENT 3 5 10 35
DOCKED: USER                              x       y       z     vdW  Elec       q    Type
DOCKED: USER                           _______ _______ _______ _____ _____    ______ ____
DOCKED: ROOT
DOCKED: ATOM      1  C   UNL     1     139.677  73.633 221.135 -0.15 -0.04    +0.216 C  
DOCKED: ENDROOT
DOCKED: BRANCH   1   2
DOCKED: ATOM      2  N   UNL     1     139.692  72.848 222.392 -0.15 +0.06    -0.342 N  
DOCKED: ATOM      3  C   UNL     1     139.955  71.457 222.344 -0.18 -0.04    +0.270 C  
DOCKED: ATOM      4  O   UNL     1     140.182  70.839 221.249 -0.10 +0.04    -0.268 OA 
DOCKED: ATOM      5  H   UNL     1     139.516  73.284 223.319 -0.43 -0.05    +0.164 HD 
DOCKED: BRANCH   3   6
DOCKED: ATOM      6  C   UNL     1     139.965  70.702 223.594 -0.27 -0.02    +0.128 A  
DOCKED: ATOM      7  C   UNL     1     139.401  69.427 223.644 -0.23 -0.01    +0.035 A  
DOCKED: ATOM      8  N   UNL     1     140.499  71.175 224.732 -0.31 +0.04    -0.243 NA 
DOCKED: ATOM      9  C   UNL     1     139.377  68.671 224.775 -0.36 -0.00    +0.013 A  
DOCKED: ATOM     10  C   UNL     1     140.492  70.447 225.882 -0.50 -0.01    +0.071 A  
DOCKED: ATOM     11  C   UNL     1     139.928  69.176 225.921 -0.49 -0.00    +0.003 A  
DOCKED: ATOM     12  C   UNL     1     141.053  70.963 227.048 -0.65 -0.01    +0.032 A  
DOCKED: ATOM     13  C   UNL     1     139.918  68.432 227.084 -0.59 -0.01    +0.049 A  
DOCKED: ATOM     14  C   UNL     1     141.038  70.205 228.215 -0.54 -0.01    +0.041 A  
DOCKED: ATOM     15  C   UNL     1     140.471  68.944 228.229 -0.54 -0.02    +0.123 A  
DOCKED: ATOM     16  F   UNL     1     140.440  68.174 229.359 -0.11 +0.05    -0.207 F  
DOCKED: ENDBRANCH   3   6
DOCKED: ENDBRANCH   1   2
DOCKED: BRANCH   1  17
DOCKED: ATOM     17  C   UNL     1     140.738  74.630 221.142 -0.21 -0.05    +0.242 C  
DOCKED: ATOM     18  O   UNL     1     140.715  75.440 222.163 -0.52 +0.04    -0.273 OA 
DOCKED: BRANCH  17  19
DOCKED: ATOM     19  N   UNL     1     141.772  74.862 220.242 -0.10 +0.11    -0.335 N  
DOCKED: ATOM     20  C   UNL     1     141.611  75.889 219.159 -0.13 -0.06    +0.151 C  
DOCKED: ATOM     21  C   UNL     1     143.109  74.418 219.989 -0.29 -0.03    +0.091 C  
DOCKED: ATOM     22  C   UNL     1     142.858  76.697 219.420 -0.30 -0.09    +0.136 C  
DOCKED: ATOM     23  C   UNL     1     143.871  75.693 219.828 -0.26 -0.04    +0.059 C  
DOCKED: BRANCH  21  24
DOCKED: ATOM     24  C   UNL     1     143.692  73.372 220.841 -0.30 -0.00    +0.016 C  
DOCKED: ATOM     25  C   UNL     1     145.193  73.229 220.702 -0.58 -0.00    +0.011 C  
DOCKED: ATOM     26  C   UNL     1     143.125  71.992 220.545 -0.26 -0.01    +0.041 C  
DOCKED: ATOM     27  C   UNL     1     145.591  72.850 219.293 -0.36 +0.01    +0.036 C  
DOCKED: ATOM     28  C   UNL     1     143.996  71.085 219.816 -0.23 +0.00    -0.044 A  
DOCKED: ATOM     29  C   UNL     1     145.176  71.400 219.184 -0.28 -0.02    -0.045 A  
DOCKED: ATOM     30  C   UNL     1     143.602  69.746 219.732 -0.22 -0.00    +0.004 A  
DOCKED: ATOM     31  C   UNL     1     145.950  70.486 218.501 -0.25 +0.00    +0.004 A  
DOCKED: ATOM     32  C   UNL     1     144.376  68.833 219.050 -0.28 +0.00    +0.000 A  
DOCKED: ATOM     33  C   UNL     1     145.557  69.164 218.421 -0.31 +0.00    +0.000 A  
DOCKED: ENDBRANCH  21  24
DOCKED: BRANCH  22  34
DOCKED: ATOM     34  O   UNL     1     143.243  77.423 218.287 -0.20 +0.30    -0.391 OA 
DOCKED: ATOM     35  H   UNL     1     143.695  78.246 218.621 -0.29 -0.22    +0.211 HD 
DOCKED: ENDBRANCH  22  34
DOCKED: ENDBRANCH  17  19
DOCKED: ENDBRANCH   1  17
DOCKED: TORSDOF 6
DOCKED: TER
DOCKED: ENDMDL
________________________________________________________________________________


    FINAL DOCKED STATE:
    ________________________


Run:   12 / 20
Time taken for this run:   0.054s

DOCKED: MODEL        12
DOCKED: USER    Run = 12
DOCKED: USER
DOCKED: USER    Estimated Free Energy of Binding    =  -9.31 kcal/mol  [=(1)+(2)+(3)-(4)]
DOCKED: USER
DOCKED: USER    (1) Final Intermolecular Energy     = -11.10 kcal/mol
DOCKED: USER        vdW + Hbond + desolv Energy     = -11.10 kcal/mol
DOCKED: USER        Electrostatic Energy            =  -0.00 kcal/mol
DOCKED: USER        Moving Ligand-Fixed Receptor    = -11.10 kcal/mol
DOCKED: USER        Moving Ligand-Moving Receptor   =  +0.00 kcal/mol
DOCKED: USER    (2) Final Total Internal Energy     =  -1.91 kcal/mol
DOCKED: USER    (3) Torsional Free Energy           =  +1.79 kcal/mol
DOCKED: USER    (4) Unbound System's Energy         =  -1.91 kcal/mol
DOCKED: USER
DOCKED: USER
DOCKED: REMARK SMILES O=C(NCC(=O)N1C[C@H](O)C[C@H]1[C@@H]1CCc2ccccc2C1)c1ccc2cc(F)ccc2n1
DOCKED: REMARK SMILES IDX 4 1 3 2 2 3 1 4 23 6 24 7 33 8 25 9 32 10 26 11 31 12 27 13
DOCKED: REMARK SMILES IDX 30 14 28 15 29 16 5 17 6 18 7 19 8 20 12 21 9 22 11 23 13 24
DOCKED: REMARK SMILES IDX 14 25 22 26 15 27 21 28 16 29 20 30 17 31 19 32 18 33 10 34
DOCKED: REMARK H PARENT 3 5 10 35
DOCKED: USER                              x       y       z     vdW  Elec       q    Type
DOCKED: USER                           _______ _______ _______ _____ _____    ______ ____
DOCKED: ROOT
DOCKED: ATOM      1  C   UNL     1     140.770  73.762 220.909 -0.17 -0.04    +0.216 C  
DOCKED: ENDROOT
DOCKED: BRANCH   1   2
DOCKED: ATOM      2  N   UNL     1     140.832  72.838 222.067 -0.15 +0.02    -0.342 N  
DOCKED: ATOM      3  C   UNL     1     139.632  72.313 222.606 -0.18 -0.05    +0.270 C  
DOCKED: ATOM      4  O   UNL     1     138.482  72.605 222.132 -0.13 +0.07    -0.268 OA 
DOCKED: ATOM      5  H   UNL     1     141.732  72.557 222.503 +0.08 +0.01    +0.164 HD 
DOCKED: BRANCH   3   6
DOCKED: ATOM      6  C   UNL     1     139.714  71.405 223.746 -0.32 -0.03    +0.128 A  
DOCKED: ATOM      7  C   UNL     1     139.131  70.140 223.675 -0.28 -0.01    +0.035 A  
DOCKED: ATOM      8  N   UNL     1     140.336  71.724 224.894 -0.28 +0.04    -0.243 NA 
DOCKED: ATOM      9  C   UNL     1     139.171  69.246 224.700 -0.37 -0.00    +0.013 A  
DOCKED: ATOM     10  C   UNL     1     140.394  70.855 225.940 -0.53 -0.01    +0.071 A  
DOCKED: ATOM     11  C   UNL     1     139.810  69.596 225.858 -0.47 -0.00    +0.003 A  
DOCKED: ATOM     12  C   UNL     1     141.045  71.213 227.119 -0.69 -0.01    +0.032 A  
DOCKED: ATOM     13  C   UNL     1     139.866  68.709 226.915 -0.56 -0.01    +0.049 A  
DOCKED: ATOM     14  C   UNL     1     141.097  70.312 228.179 -0.54 -0.01    +0.041 A  
DOCKED: ATOM     15  C   UNL     1     140.507  69.065 228.074 -0.53 -0.02    +0.123 A  
DOCKED: ATOM     16  F   UNL     1     140.541  68.159 229.097 -0.18 +0.05    -0.207 F  
DOCKED: ENDBRANCH   3   6
DOCKED: ENDBRANCH   1   2
DOCKED: BRANCH   1  17
DOCKED: ATOM     17  C   UNL     1     142.106  74.212 220.543 -0.18 -0.06    +0.242 C  
DOCKED: ATOM     18  O   UNL     1     143.075  73.487 221.026 -0.17 +0.05    -0.273 OA 
DOCKED: BRANCH  17  19
DOCKED: ATOM     19  N   UNL     1     142.519  75.286 219.762 -0.12 +0.14    -0.335 N  
DOCKED: ATOM     20  C   UNL     1     143.686  75.133 218.830 -0.20 -0.07    +0.151 C  
DOCKED: ATOM     21  C   UNL     1     142.143  76.641 219.494 -0.26 -0.05    +0.091 C  
DOCKED: ATOM     22  C   UNL     1     143.032  75.618 217.560 -0.16 -0.06    +0.136 C  
DOCKED: ATOM     23  C   UNL     1     142.125  76.705 218.002 -0.19 -0.03    +0.059 C  
DOCKED: BRANCH  21  24
DOCKED: ATOM     24  C   UNL     1     141.008  77.228 220.221 -0.23 -0.01    +0.016 C  
DOCKED: ATOM     25  C   UNL     1     140.649  78.630 219.775 -0.17 -0.00    +0.011 C  
DOCKED: ATOM     26  C   UNL     1     141.261  77.331 221.717 -0.25 -0.02    +0.041 C  
DOCKED: ATOM     27  C   UNL     1     141.792  79.596 219.992 -0.28 -0.02    +0.036 C  
DOCKED: ATOM     28  C   UNL     1     141.541  78.663 222.228 -0.43 +0.02    -0.044 A  
DOCKED: ATOM     29  C   UNL     1     141.812  79.792 221.492 -0.40 +0.02    -0.045 A  
DOCKED: ATOM     30  C   UNL     1     141.546  78.829 223.617 -0.60 -0.00    +0.004 A  
DOCKED: ATOM     31  C   UNL     1     142.078  81.026 222.046 -0.48 -0.00    +0.004 A  
DOCKED: ATOM     32  C   UNL     1     141.812  80.062 224.171 -0.42 -0.00    +0.000 A  
DOCKED: ATOM     33  C   UNL     1     142.082  81.185 223.419 -0.61 -0.00    +0.000 A  
DOCKED: ENDBRANCH  21  24
DOCKED: BRANCH  22  34
DOCKED: ATOM     34  O   UNL     1     143.982  76.052 216.628 -0.14 +0.24    -0.391 OA 
DOCKED: ATOM     35  H   UNL     1     144.862  76.033 217.095 -0.50 -0.16    +0.211 HD 
DOCKED: ENDBRANCH  22  34
DOCKED: ENDBRANCH  17  19
DOCKED: ENDBRANCH   1  17
DOCKED: TORSDOF 6
DOCKED: TER
DOCKED: ENDMDL
________________________________________________________________________________


    FINAL DOCKED STATE:
    ________________________


Run:   13 / 20
Time taken for this run:   0.054s

DOCKED: MODEL        13
DOCKED: USER    Run = 13
DOCKED: USER
DOCKED: USER    Estimated Free Energy of Binding    =  -9.34 kcal/mol  [=(1)+(2)+(3)-(4)]
DOCKED: USER
DOCKED: USER    (1) Final Intermolecular Energy     = -11.13 kcal/mol
DOCKED: USER        vdW + Hbond + desolv Energy     = -11.09 kcal/mol
DOCKED: USER        Electrostatic Energy            =  -0.05 kcal/mol
DOCKED: USER        Moving Ligand-Fixed Receptor    = -11.13 kcal/mol
DOCKED: USER        Moving Ligand-Moving Receptor   =  +0.00 kcal/mol
DOCKED: USER    (2) Final Total Internal Energy     =  -1.83 kcal/mol
DOCKED: USER    (3) Torsional Free Energy           =  +1.79 kcal/mol
DOCKED: USER    (4) Unbound System's Energy         =  -1.83 kcal/mol
DOCKED: USER
DOCKED: USER
DOCKED: REMARK SMILES O=C(NCC(=O)N1C[C@H](O)C[C@H]1[C@@H]1CCc2ccccc2C1)c1ccc2cc(F)ccc2n1
DOCKED: REMARK SMILES IDX 4 1 3 2 2 3 1 4 23 6 24 7 33 8 25 9 32 10 26 11 31 12 27 13
DOCKED: REMARK SMILES IDX 30 14 28 15 29 16 5 17 6 18 7 19 8 20 12 21 9 22 11 23 13 24
DOCKED: REMARK SMILES IDX 14 25 22 26 15 27 21 28 16 29 20 30 17 31 19 32 18 33 10 34
DOCKED: REMARK H PARENT 3 5 10 35
DOCKED: USER                              x       y       z     vdW  Elec       q    Type
DOCKED: USER                           _______ _______ _______ _____ _____    ______ ____
DOCKED: ROOT
DOCKED: ATOM      1  C   UNL     1     139.640  73.706 221.222 -0.16 -0.04    +0.216 C  
DOCKED: ENDROOT
DOCKED: BRANCH   1   2
DOCKED: ATOM      2  N   UNL     1     139.654  72.905 222.469 -0.14 +0.06    -0.342 N  
DOCKED: ATOM      3  C   UNL     1     139.918  71.515 222.404 -0.19 -0.04    +0.270 C  
DOCKED: ATOM      4  O   UNL     1     140.147  70.911 221.302 -0.10 +0.04    -0.268 OA 
DOCKED: ATOM      5  H   UNL     1     139.476  73.329 223.401 -0.44 -0.06    +0.164 HD 
DOCKED: BRANCH   3   6
DOCKED: ATOM      6  C   UNL     1     139.926  70.744 223.644 -0.28 -0.02    +0.128 A  
DOCKED: ATOM      7  C   UNL     1     139.354  69.472 223.680 -0.24 -0.01    +0.035 A  
DOCKED: ATOM      8  N   UNL     1     140.467  71.200 224.787 -0.31 +0.04    -0.243 NA 
DOCKED: ATOM      9  C   UNL     1     139.328  68.702 224.801 -0.37 -0.00    +0.013 A  
DOCKED: ATOM     10  C   UNL     1     140.458  70.457 225.927 -0.50 -0.01    +0.071 A  
DOCKED: ATOM     11  C   UNL     1     139.886  69.190 225.951 -0.49 -0.00    +0.003 A  
DOCKED: ATOM     12  C   UNL     1     141.026  70.954 227.098 -0.65 -0.01    +0.032 A  
DOCKED: ATOM     13  C   UNL     1     139.874  68.430 227.105 -0.59 -0.01    +0.049 A  
DOCKED: ATOM     14  C   UNL     1     141.010  70.181 228.255 -0.54 -0.01    +0.041 A  
DOCKED: ATOM     15  C   UNL     1     140.434  68.924 228.255 -0.54 -0.02    +0.123 A  
DOCKED: ATOM     16  F   UNL     1     140.402  68.140 229.375 -0.11 +0.05    -0.207 F  
DOCKED: ENDBRANCH   3   6
DOCKED: ENDBRANCH   1   2
DOCKED: BRANCH   1  17
DOCKED: ATOM     17  C   UNL     1     140.831  74.539 221.136 -0.20 -0.05    +0.242 C  
DOCKED: ATOM     18  O   UNL     1     140.952  75.415 222.093 -0.50 +0.05    -0.273 OA 
DOCKED: BRANCH  17  19
DOCKED: ATOM     19  N   UNL     1     141.863  74.554 220.204 -0.10 +0.10    -0.335 N  
DOCKED: ATOM     20  C   UNL     1     141.818  75.510 219.047 -0.13 -0.06    +0.151 C  
DOCKED: ATOM     21  C   UNL     1     143.117  73.907 219.964 -0.26 -0.02    +0.091 C  
DOCKED: ATOM     22  C   UNL     1     143.173  76.150 219.225 -0.31 -0.08    +0.136 C  
DOCKED: ATOM     23  C   UNL     1     144.046  75.045 219.693 -0.32 -0.03    +0.059 C  
DOCKED: BRANCH  21  24
DOCKED: ATOM     24  C   UNL     1     143.570  72.854 220.884 -0.24 -0.00    +0.016 C  
DOCKED: ATOM     25  C   UNL     1     145.076  72.728 220.983 -0.45 -0.00    +0.011 C  
DOCKED: ATOM     26  C   UNL     1     143.073  71.473 220.485 -0.23 -0.00    +0.041 C  
DOCKED: ATOM     27  C   UNL     1     145.696  72.373 219.651 -0.37 +0.02    +0.036 C  
DOCKED: ATOM     28  C   UNL     1     144.059  70.585 219.892 -0.22 -0.00    -0.044 A  
DOCKED: ATOM     29  C   UNL     1     145.320  70.920 219.458 -0.22 -0.02    -0.045 A  
DOCKED: ATOM     30  C   UNL     1     143.699  69.244 219.731 -0.24 -0.00    +0.004 A  
DOCKED: ATOM     31  C   UNL     1     146.203  70.024 218.896 -0.33 +0.00    +0.004 A  
DOCKED: ATOM     32  C   UNL     1     144.582  68.348 219.168 -0.34 -0.00    +0.000 A  
DOCKED: ATOM     33  C   UNL     1     145.843  68.699 218.739 -0.39 +0.00    +0.000 A  
DOCKED: ENDBRANCH  21  24
DOCKED: BRANCH  22  34
DOCKED: ATOM     34  O   UNL     1     143.626  76.728 218.033 -0.17 +0.27    -0.391 OA 
DOCKED: ATOM     35  H   UNL     1     144.511  76.314 217.839 -0.41 -0.16    +0.211 HD 
DOCKED: ENDBRANCH  22  34
DOCKED: ENDBRANCH  17  19
DOCKED: ENDBRANCH   1  17
DOCKED: TORSDOF 6
DOCKED: TER
DOCKED: ENDMDL
________________________________________________________________________________


    FINAL DOCKED STATE:
    ________________________


Run:   14 / 20
Time taken for this run:   0.054s

DOCKED: MODEL        14
DOCKED: USER    Run = 14
DOCKED: USER
DOCKED: USER    Estimated Free Energy of Binding    =  -9.05 kcal/mol  [=(1)+(2)+(3)-(4)]
DOCKED: USER
DOCKED: USER    (1) Final Intermolecular Energy     = -10.84 kcal/mol
DOCKED: USER        vdW + Hbond + desolv Energy     = -10.78 kcal/mol
DOCKED: USER        Electrostatic Energy            =  -0.05 kcal/mol
DOCKED: USER        Moving Ligand-Fixed Receptor    = -10.84 kcal/mol
DOCKED: USER        Moving Ligand-Moving Receptor   =  +0.00 kcal/mol
DOCKED: USER    (2) Final Total Internal Energy     =  -1.95 kcal/mol
DOCKED: USER    (3) Torsional Free Energy           =  +1.79 kcal/mol
DOCKED: USER    (4) Unbound System's Energy         =  -1.95 kcal/mol
DOCKED: USER
DOCKED: USER
DOCKED: REMARK SMILES O=C(NCC(=O)N1C[C@H](O)C[C@H]1[C@@H]1CCc2ccccc2C1)c1ccc2cc(F)ccc2n1
DOCKED: REMARK SMILES IDX 4 1 3 2 2 3 1 4 23 6 24 7 33 8 25 9 32 10 26 11 31 12 27 13
DOCKED: REMARK SMILES IDX 30 14 28 15 29 16 5 17 6 18 7 19 8 20 12 21 9 22 11 23 13 24
DOCKED: REMARK SMILES IDX 14 25 22 26 15 27 21 28 16 29 20 30 17 31 19 32 18 33 10 34
DOCKED: REMARK H PARENT 3 5 10 35
DOCKED: USER                              x       y       z     vdW  Elec       q    Type
DOCKED: USER                           _______ _______ _______ _____ _____    ______ ____
DOCKED: ROOT
DOCKED: ATOM      1  C   UNL     1     139.066  72.243 222.017 -0.16 -0.05    +0.216 C  
DOCKED: ENDROOT
DOCKED: BRANCH   1   2
DOCKED: ATOM      2  N   UNL     1     139.405  73.684 222.093 -0.13 +0.07    -0.342 N  
DOCKED: ATOM      3  C   UNL     1     140.486  74.188 221.329 -0.19 -0.04    +0.270 C  
DOCKED: ATOM      4  O   UNL     1     141.193  73.445 220.568 -0.12 +0.05    -0.268 OA 
DOCKED: ATOM      5  H   UNL     1     138.874  74.347 222.691 -0.53 -0.06    +0.164 HD 
DOCKED: BRANCH   3   6
DOCKED: ATOM      6  C   UNL     1     140.804  75.610 221.418 -0.29 -0.03    +0.128 A  
DOCKED: ATOM      7  C   UNL     1     141.680  76.189 220.500 -0.27 -0.02    +0.035 A  
DOCKED: ATOM      8  N   UNL     1     140.289  76.419 222.359 -0.30 +0.06    -0.243 NA 
DOCKED: ATOM      9  C   UNL     1     142.018  77.506 220.526 -0.27 -0.01    +0.013 A  
DOCKED: ATOM     10  C   UNL     1     140.606  77.742 222.416 -0.39 -0.02    +0.071 A  
DOCKED: ATOM     11  C   UNL     1     141.480  78.309 221.495 -0.37 -0.00    +0.003 A  
DOCKED: ATOM     12  C   UNL     1     140.057  78.557 223.404 -0.22 -0.01    +0.032 A  
DOCKED: ATOM     13  C   UNL     1     141.805  79.650 221.546 -0.40 -0.02    +0.049 A  
DOCKED: ATOM     14  C   UNL     1     140.391  79.908 223.447 -0.44 -0.01    +0.041 A  
DOCKED: ATOM     15  C   UNL     1     141.263  80.448 222.520 -0.38 -0.03    +0.123 A  
DOCKED: ATOM     16  F   UNL     1     141.611  81.771 222.536 -0.14 +0.03    -0.207 F  
DOCKED: ENDBRANCH   3   6
DOCKED: ENDBRANCH   1   2
DOCKED: BRANCH   1  17
DOCKED: ATOM     17  C   UNL     1     137.852  71.963 222.772 -0.08 -0.07    +0.242 C  
DOCKED: ATOM     18  O   UNL     1     137.014  72.958 222.839 -0.08 +0.10    -0.273 OA 
DOCKED: BRANCH  17  19
DOCKED: ATOM     19  N   UNL     1     137.439  70.810 223.430 -0.09 +0.07    -0.335 N  
DOCKED: ATOM     20  C   UNL     1     135.977  70.478 223.519 -0.12 -0.02    +0.151 C  
DOCKED: ATOM     21  C   UNL     1     138.007  69.684 224.106 -0.26 -0.01    +0.091 C  
DOCKED: ATOM     22  C   UNL     1     136.026  69.072 222.974 -0.11 -0.01    +0.136 C  
DOCKED: ATOM     23  C   UNL     1     137.303  68.520 223.489 -0.09 -0.00    +0.059 C  
DOCKED: BRANCH  21  24
DOCKED: ATOM     24  C   UNL     1     139.466  69.601 224.261 -0.33 -0.00    +0.016 C  
DOCKED: ATOM     25  C   UNL     1     139.918  68.627 225.329 -0.41 -0.00    +0.011 C  
DOCKED: ATOM     26  C   UNL     1     140.092  70.935 224.639 -0.45 -0.01    +0.041 C  
DOCKED: ATOM     27  C   UNL     1     139.403  69.017 226.697 -0.50 -0.00    +0.036 C  
DOCKED: ATOM     28  C   UNL     1     140.525  71.070 226.020 -0.57 +0.01    -0.044 A  
DOCKED: ATOM     29  C   UNL     1     140.243  70.221 227.064 -0.55 +0.01    -0.045 A  
DOCKED: ATOM     30  C   UNL     1     141.309  72.183 226.340 -0.48 -0.00    +0.004 A  
DOCKED: ATOM     31  C   UNL     1     140.682  70.416 228.355 -0.55 -0.00    +0.004 A  
DOCKED: ATOM     32  C   UNL     1     141.748  72.379 227.631 -0.61 -0.00    +0.000 A  
DOCKED: ATOM     33  C   UNL     1     141.456  71.517 228.666 -0.50 -0.00    +0.000 A  
DOCKED: ENDBRANCH  21  24
DOCKED: BRANCH  22  34
DOCKED: ATOM     34  O   UNL     1     134.913  68.328 223.379 -0.45 +0.02    -0.391 OA 
DOCKED: ATOM     35  H   UNL     1     134.324  68.954 223.883 +0.05 -0.02    +0.211 HD 
DOCKED: ENDBRANCH  22  34
DOCKED: ENDBRANCH  17  19
DOCKED: ENDBRANCH   1  17
DOCKED: TORSDOF 6
DOCKED: TER
DOCKED: ENDMDL
________________________________________________________________________________


    FINAL DOCKED STATE:
    ________________________


Run:   15 / 20
Time taken for this run:   0.054s

DOCKED: MODEL        15
DOCKED: USER    Run = 15
DOCKED: USER
DOCKED: USER    Estimated Free Energy of Binding    =  -9.29 kcal/mol  [=(1)+(2)+(3)-(4)]
DOCKED: USER
DOCKED: USER    (1) Final Intermolecular Energy     = -11.08 kcal/mol
DOCKED: USER        vdW + Hbond + desolv Energy     = -10.80 kcal/mol
DOCKED: USER        Electrostatic Energy            =  -0.28 kcal/mol
DOCKED: USER        Moving Ligand-Fixed Receptor    = -11.08 kcal/mol
DOCKED: USER        Moving Ligand-Moving Receptor   =  +0.00 kcal/mol
DOCKED: USER    (2) Final Total Internal Energy     =  -1.79 kcal/mol
DOCKED: USER    (3) Torsional Free Energy           =  +1.79 kcal/mol
DOCKED: USER    (4) Unbound System's Energy         =  -1.79 kcal/mol
DOCKED: USER
DOCKED: USER
DOCKED: REMARK SMILES O=C(NCC(=O)N1C[C@H](O)C[C@H]1[C@@H]1CCc2ccccc2C1)c1ccc2cc(F)ccc2n1
DOCKED: REMARK SMILES IDX 4 1 3 2 2 3 1 4 23 6 24 7 33 8 25 9 32 10 26 11 31 12 27 13
DOCKED: REMARK SMILES IDX 30 14 28 15 29 16 5 17 6 18 7 19 8 20 12 21 9 22 11 23 13 24
DOCKED: REMARK SMILES IDX 14 25 22 26 15 27 21 28 16 29 20 30 17 31 19 32 18 33 10 34
DOCKED: REMARK H PARENT 3 5 10 35
DOCKED: USER                              x       y       z     vdW  Elec       q    Type
DOCKED: USER                           _______ _______ _______ _____ _____    ______ ____
DOCKED: ROOT
DOCKED: ATOM      1  C   UNL     1     140.399  71.482 220.315 -0.07 -0.04    +0.216 C  
DOCKED: ENDROOT
DOCKED: BRANCH   1   2
DOCKED: ATOM      2  N   UNL     1     140.437  70.894 221.676 -0.05 +0.05    -0.342 N  
DOCKED: ATOM      3  C   UNL     1     140.388  71.746 222.806 -0.21 -0.03    +0.270 C  
DOCKED: ATOM      4  O   UNL     1     140.312  73.017 222.704 -0.69 +0.01    -0.268 OA 
DOCKED: ATOM      5  H   UNL     1     140.499  69.869 221.834 +0.04 -0.02    +0.164 HD 
DOCKED: BRANCH   3   6
DOCKED: ATOM      6  C   UNL     1     140.428  71.148 224.137 -0.36 -0.02    +0.128 A  
DOCKED: ATOM      7  C   UNL     1     140.811  71.915 225.237 -0.30 -0.00    +0.035 A  
DOCKED: ATOM      8  N   UNL     1     140.109  69.864 224.374 -0.14 +0.04    -0.243 NA 
DOCKED: ATOM      9  C   UNL     1     140.870  71.420 226.503 -0.68 -0.00    +0.013 A  
DOCKED: ATOM     10  C   UNL     1     140.157  69.335 225.627 -0.41 -0.01    +0.071 A  
DOCKED: ATOM     11  C   UNL     1     140.540  70.109 226.716 -0.57 -0.00    +0.003 A  
DOCKED: ATOM     12  C   UNL     1     139.821  68.000 225.843 -0.55 -0.00    +0.032 A  
DOCKED: ATOM     13  C   UNL     1     140.590  69.579 227.991 -0.58 -0.01    +0.049 A  
DOCKED: ATOM     14  C   UNL     1     139.875  67.475 227.131 -0.40 -0.01    +0.041 A  
DOCKED: ATOM     15  C   UNL     1     140.259  68.265 228.199 -0.50 -0.03    +0.123 A  
DOCKED: ATOM     16  F   UNL     1     140.322  67.779 229.475 -0.06 +0.05    -0.207 F  
DOCKED: ENDBRANCH   3   6
DOCKED: ENDBRANCH   1   2
DOCKED: BRANCH   1  17
DOCKED: ATOM     17  C   UNL     1     141.740  71.558 219.753 -0.07 -0.04    +0.242 C  
DOCKED: ATOM     18  O   UNL     1     142.110  70.501 219.086 -0.05 +0.04    -0.273 OA 
DOCKED: BRANCH  17  19
DOCKED: ATOM     19  N   UNL     1     142.690  72.571 219.808 -0.05 +0.05    -0.335 N  
DOCKED: ATOM     20  C   UNL     1     144.141  72.232 219.997 -0.25 -0.01    +0.151 C  
DOCKED: ATOM     21  C   UNL     1     142.763  73.996 219.702 -0.21 -0.02    +0.091 C  
DOCKED: ATOM     22  C   UNL     1     144.709  72.988 218.821 -0.21 +0.01    +0.136 C  
DOCKED: ATOM     23  C   UNL     1     143.879  74.214 218.732 -0.21 -0.02    +0.059 C  
DOCKED: BRANCH  21  24
DOCKED: ATOM     24  C   UNL     1     141.526  74.767 219.511 -0.16 -0.00    +0.016 C  
DOCKED: ATOM     25  C   UNL     1     141.725  76.086 218.795 -0.17 -0.00    +0.011 C  
DOCKED: ATOM     26  C   UNL     1     140.846  75.118 220.825 -0.26 -0.01    +0.041 C  
DOCKED: ATOM     27  C   UNL     1     142.642  77.009 219.566 -0.32 -0.02    +0.036 C  
DOCKED: ATOM     28  C   UNL     1     140.964  76.501 221.257 -0.31 +0.02    -0.044 A  
DOCKED: ATOM     29  C   UNL     1     141.791  77.465 220.731 -0.28 +0.03    -0.045 A  
DOCKED: ATOM     30  C   UNL     1     140.163  76.909 222.328 -0.40 -0.00    +0.004 A  
DOCKED: ATOM     31  C   UNL     1     141.858  78.759 221.198 -0.36 -0.00    +0.004 A  
DOCKED: ATOM     32  C   UNL     1     140.230  78.203 222.796 -0.39 -0.00    +0.000 A  
DOCKED: ATOM     33  C   UNL     1     141.064  79.158 222.256 -0.41 -0.00    +0.000 A  
DOCKED: ENDBRANCH  21  24
DOCKED: BRANCH  22  34
DOCKED: ATOM     34  O   UNL     1     146.068  73.269 219.003 -0.70 -0.22    -0.391 OA 
DOCKED: ATOM     35  H   UNL     1     146.247  74.120 218.516 -0.47 -0.03    +0.211 HD 
DOCKED: ENDBRANCH  22  34
DOCKED: ENDBRANCH  17  19
DOCKED: ENDBRANCH   1  17
DOCKED: TORSDOF 6
DOCKED: TER
DOCKED: ENDMDL
________________________________________________________________________________


    FINAL DOCKED STATE:
    ________________________


Run:   16 / 20
Time taken for this run:   0.054s

DOCKED: MODEL        16
DOCKED: USER    Run = 16
DOCKED: USER
DOCKED: USER    Estimated Free Energy of Binding    =  -9.28 kcal/mol  [=(1)+(2)+(3)-(4)]
DOCKED: USER
DOCKED: USER    (1) Final Intermolecular Energy     = -11.07 kcal/mol
DOCKED: USER        vdW + Hbond + desolv Energy     = -11.04 kcal/mol
DOCKED: USER        Electrostatic Energy            =  -0.03 kcal/mol
DOCKED: USER        Moving Ligand-Fixed Receptor    = -11.07 kcal/mol
DOCKED: USER        Moving Ligand-Moving Receptor   =  +0.00 kcal/mol
DOCKED: USER    (2) Final Total Internal Energy     =  -1.86 kcal/mol
DOCKED: USER    (3) Torsional Free Energy           =  +1.79 kcal/mol
DOCKED: USER    (4) Unbound System's Energy         =  -1.86 kcal/mol
DOCKED: USER
DOCKED: USER
DOCKED: REMARK SMILES O=C(NCC(=O)N1C[C@H](O)C[C@H]1[C@@H]1CCc2ccccc2C1)c1ccc2cc(F)ccc2n1
DOCKED: REMARK SMILES IDX 4 1 3 2 2 3 1 4 23 6 24 7 33 8 25 9 32 10 26 11 31 12 27 13
DOCKED: REMARK SMILES IDX 30 14 28 15 29 16 5 17 6 18 7 19 8 20 12 21 9 22 11 23 13 24
DOCKED: REMARK SMILES IDX 14 25 22 26 15 27 21 28 16 29 20 30 17 31 19 32 18 33 10 34
DOCKED: REMARK H PARENT 3 5 10 35
DOCKED: USER                              x       y       z     vdW  Elec       q    Type
DOCKED: USER                           _______ _______ _______ _____ _____    ______ ____
DOCKED: ROOT
DOCKED: ATOM      1  C   UNL     1     139.612  73.832 221.213 -0.16 -0.04    +0.216 C  
DOCKED: ENDROOT
DOCKED: BRANCH   1   2
DOCKED: ATOM      2  N   UNL     1     139.659  73.007 222.444 -0.14 +0.06    -0.342 N  
DOCKED: ATOM      3  C   UNL     1     139.884  71.613 222.342 -0.19 -0.04    +0.270 C  
DOCKED: ATOM      4  O   UNL     1     140.050  71.024 221.220 -0.09 +0.04    -0.268 OA 
DOCKED: ATOM      5  H   UNL     1     139.533  73.418 223.390 -0.45 -0.05    +0.164 HD 
DOCKED: BRANCH   3   6
DOCKED: ATOM      6  C   UNL     1     139.927  70.819 223.567 -0.28 -0.02    +0.128 A  
DOCKED: ATOM      7  C   UNL     1     139.449  69.508 223.567 -0.22 -0.01    +0.035 A  
DOCKED: ATOM      8  N   UNL     1     140.413  71.288 224.729 -0.31 +0.04    -0.243 NA 
DOCKED: ATOM      9  C   UNL     1     139.460  68.715 224.671 -0.33 -0.00    +0.013 A  
DOCKED: ATOM     10  C   UNL     1     140.438  70.523 225.854 -0.50 -0.01    +0.071 A  
DOCKED: ATOM     11  C   UNL     1     139.959  69.217 225.842 -0.48 -0.00    +0.003 A  
DOCKED: ATOM     12  C   UNL     1     140.947  71.036 227.045 -0.66 -0.01    +0.032 A  
DOCKED: ATOM     13  C   UNL     1     139.983  68.435 226.980 -0.60 -0.01    +0.049 A  
DOCKED: ATOM     14  C   UNL     1     140.966  70.239 228.186 -0.55 -0.01    +0.041 A  
DOCKED: ATOM     15  C   UNL     1     140.484  68.944 228.150 -0.54 -0.02    +0.123 A  
DOCKED: ATOM     16  F   UNL     1     140.489  68.137 229.254 -0.14 +0.05    -0.207 F  
DOCKED: ENDBRANCH   3   6
DOCKED: ENDBRANCH   1   2
DOCKED: BRANCH   1  17
DOCKED: ATOM     17  C   UNL     1     140.808  74.654 221.102 -0.20 -0.05    +0.242 C  
DOCKED: ATOM     18  O   UNL     1     140.936  75.556 222.034 -0.48 +0.06    -0.273 OA 
DOCKED: BRANCH  17  19
DOCKED: ATOM     19  N   UNL     1     141.838  74.636 220.168 -0.09 +0.10    -0.335 N  
DOCKED: ATOM     20  C   UNL     1     141.824  75.597 219.014 -0.13 -0.06    +0.151 C  
DOCKED: ATOM     21  C   UNL     1     143.069  73.948 219.924 -0.26 -0.02    +0.091 C  
DOCKED: ATOM     22  C   UNL     1     143.200  76.190 219.190 -0.31 -0.08    +0.136 C  
DOCKED: ATOM     23  C   UNL     1     144.036  75.055 219.654 -0.31 -0.03    +0.059 C  
DOCKED: BRANCH  21  24
DOCKED: ATOM     24  C   UNL     1     143.487  72.878 220.840 -0.28 -0.00    +0.016 C  
DOCKED: ATOM     25  C   UNL     1     144.989  72.737 220.980 -0.44 -0.00    +0.011 C  
DOCKED: ATOM     26  C   UNL     1     142.990  71.508 220.408 -0.23 -0.00    +0.041 C  
DOCKED: ATOM     27  C   UNL     1     145.643  72.396 219.660 -0.38 +0.01    +0.036 C  
DOCKED: ATOM     28  C   UNL     1     143.985  70.620 219.829 -0.22 -0.00    -0.044 A  
DOCKED: ATOM     29  C   UNL     1     145.261  70.950 219.435 -0.24 -0.02    -0.045 A  
DOCKED: ATOM     30  C   UNL     1     143.619  69.284 219.638 -0.23 -0.00    +0.004 A  
DOCKED: ATOM     31  C   UNL     1     146.151  70.054 218.884 -0.33 +0.00    +0.004 A  
DOCKED: ATOM     32  C   UNL     1     144.509  68.388 219.087 -0.32 -0.00    +0.000 A  
DOCKED: ATOM     33  C   UNL     1     145.785  68.735 218.698 -0.38 +0.00    +0.000 A  
DOCKED: ENDBRANCH  21  24
DOCKED: BRANCH  22  34
DOCKED: ATOM     34  O   UNL     1     143.670  76.755 217.999 -0.16 +0.27    -0.391 OA 
DOCKED: ATOM     35  H   UNL     1     144.560  76.342 217.824 -0.41 -0.17    +0.211 HD 
DOCKED: ENDBRANCH  22  34
DOCKED: ENDBRANCH  17  19
DOCKED: ENDBRANCH   1  17
DOCKED: TORSDOF 6
DOCKED: TER
DOCKED: ENDMDL
________________________________________________________________________________


    FINAL DOCKED STATE:
    ________________________


Run:   17 / 20
Time taken for this run:   0.054s

DOCKED: MODEL        17
DOCKED: USER    Run = 17
DOCKED: USER
DOCKED: USER    Estimated Free Energy of Binding    =  -9.00 kcal/mol  [=(1)+(2)+(3)-(4)]
DOCKED: USER
DOCKED: USER    (1) Final Intermolecular Energy     = -10.79 kcal/mol
DOCKED: USER        vdW + Hbond + desolv Energy     = -10.75 kcal/mol
DOCKED: USER        Electrostatic Energy            =  -0.04 kcal/mol
DOCKED: USER        Moving Ligand-Fixed Receptor    = -10.79 kcal/mol
DOCKED: USER        Moving Ligand-Moving Receptor   =  +0.00 kcal/mol
DOCKED: USER    (2) Final Total Internal Energy     =  -1.90 kcal/mol
DOCKED: USER    (3) Torsional Free Energy           =  +1.79 kcal/mol
DOCKED: USER    (4) Unbound System's Energy         =  -1.90 kcal/mol
DOCKED: USER
DOCKED: USER
DOCKED: REMARK SMILES O=C(NCC(=O)N1C[C@H](O)C[C@H]1[C@@H]1CCc2ccccc2C1)c1ccc2cc(F)ccc2n1
DOCKED: REMARK SMILES IDX 4 1 3 2 2 3 1 4 23 6 24 7 33 8 25 9 32 10 26 11 31 12 27 13
DOCKED: REMARK SMILES IDX 30 14 28 15 29 16 5 17 6 18 7 19 8 20 12 21 9 22 11 23 13 24
DOCKED: REMARK SMILES IDX 14 25 22 26 15 27 21 28 16 29 20 30 17 31 19 32 18 33 10 34
DOCKED: REMARK H PARENT 3 5 10 35
DOCKED: USER                              x       y       z     vdW  Elec       q    Type
DOCKED: USER                           _______ _______ _______ _____ _____    ______ ____
DOCKED: ROOT
DOCKED: ATOM      1  C   UNL     1     138.678  73.159 221.502 -0.13 -0.05    +0.216 C  
DOCKED: ENDROOT
DOCKED: BRANCH   1   2
DOCKED: ATOM      2  N   UNL     1     139.077  72.382 222.700 -0.10 +0.10    -0.342 N  
DOCKED: ATOM      3  C   UNL     1     138.697  71.023 222.810 -0.15 -0.06    +0.270 C  
DOCKED: ATOM      4  O   UNL     1     138.014  70.426 221.910 -0.05 +0.05    -0.268 OA 
DOCKED: ATOM      5  H   UNL     1     139.633  72.802 223.471 -0.31 -0.05    +0.164 HD 
DOCKED: BRANCH   3   6
DOCKED: ATOM      6  C   UNL     1     139.100  70.276 223.998 -0.27 -0.02    +0.128 A  
DOCKED: ATOM      7  C   UNL     1     138.853  68.906 224.080 -0.31 -0.00    +0.035 A  
DOCKED: ATOM      8  N   UNL     1     139.713  70.846 225.050 -0.27 +0.04    -0.243 NA 
DOCKED: ATOM      9  C   UNL     1     139.202  68.152 225.157 -0.45 -0.00    +0.013 A  
DOCKED: ATOM     10  C   UNL     1     140.075  70.122 226.144 -0.47 -0.01    +0.071 A  
DOCKED: ATOM     11  C   UNL     1     139.825  68.757 226.214 -0.54 -0.00    +0.003 A  
DOCKED: ATOM     12  C   UNL     1     140.710  70.740 227.220 -0.64 -0.01    +0.032 A  
DOCKED: ATOM     13  C   UNL     1     140.190  68.016 227.321 -0.61 -0.01    +0.049 A  
DOCKED: ATOM     14  C   UNL     1     141.075  69.985 228.331 -0.53 -0.01    +0.041 A  
DOCKED: ATOM     15  C   UNL     1     140.814  68.628 228.378 -0.55 -0.03    +0.123 A  
DOCKED: ATOM     16  F   UNL     1     141.160  67.860 229.455 -0.15 +0.06    -0.207 F  
DOCKED: ENDBRANCH   3   6
DOCKED: ENDBRANCH   1   2
DOCKED: BRANCH   1  17
DOCKED: ATOM     17  C   UNL     1     139.443  74.394 221.415 -0.17 -0.05    +0.242 C  
DOCKED: ATOM     18  O   UNL     1     140.582  74.374 222.048 -0.76 +0.00    -0.273 OA 
DOCKED: BRANCH  17  19
DOCKED: ATOM     19  N   UNL     1     139.161  75.592 220.768 -0.05 +0.08    -0.335 N  
DOCKED: ATOM     20  C   UNL     1     138.887  75.604 219.292 -0.03 -0.04    +0.151 C  
DOCKED: ATOM     21  C   UNL     1     138.996  76.980 221.078 -0.15 -0.02    +0.091 C  
DOCKED: ATOM     22  C   UNL     1     137.570  76.339 219.307 -0.02 -0.03    +0.136 C  
DOCKED: ATOM     23  C   UNL     1     137.714  77.335 220.397 -0.05 -0.01    +0.059 C  
DOCKED: BRANCH  21  24
DOCKED: ATOM     24  C   UNL     1     139.187  77.434 222.463 -0.30 -0.00    +0.016 C  
DOCKED: ATOM     25  C   UNL     1     138.508  78.750 222.780 -0.28 -0.00    +0.011 C  
DOCKED: ATOM     26  C   UNL     1     140.652  77.639 222.816 -0.32 -0.01    +0.041 C  
DOCKED: ATOM     27  C   UNL     1     139.043  79.876 221.924 -0.20 -0.01    +0.036 C  
DOCKED: ATOM     28  C   UNL     1     141.101  79.018 222.905 -0.47 +0.01    -0.044 A  
DOCKED: ATOM     29  C   UNL     1     140.416  80.140 222.502 -0.34 +0.01    -0.045 A  
DOCKED: ATOM     30  C   UNL     1     142.368  79.246 223.450 -0.57 -0.00    +0.004 A  
DOCKED: ATOM     31  C   UNL     1     140.909  81.423 222.609 -0.42 -0.00    +0.004 A  
DOCKED: ATOM     32  C   UNL     1     142.861  80.528 223.558 -0.69 -0.00    +0.000 A  
DOCKED: ATOM     33  C   UNL     1     142.161  81.643 223.149 -0.45 -0.00    +0.000 A  
DOCKED: ENDBRANCH  21  24
DOCKED: BRANCH  22  34
DOCKED: ATOM     34  O   UNL     1     137.299  76.930 218.067 +0.00 +0.08    -0.391 OA 
DOCKED: ATOM     35  H   UNL     1     137.731  77.828 218.084 +0.00 -0.05    +0.211 HD 
DOCKED: ENDBRANCH  22  34
DOCKED: ENDBRANCH  17  19
DOCKED: ENDBRANCH   1  17
DOCKED: TORSDOF 6
DOCKED: TER
DOCKED: ENDMDL
________________________________________________________________________________


    FINAL DOCKED STATE:
    ________________________


Run:   18 / 20
Time taken for this run:   0.054s

DOCKED: MODEL        18
DOCKED: USER    Run = 18
DOCKED: USER
DOCKED: USER    Estimated Free Energy of Binding    =  -9.29 kcal/mol  [=(1)+(2)+(3)-(4)]
DOCKED: USER
DOCKED: USER    (1) Final Intermolecular Energy     = -11.08 kcal/mol
DOCKED: USER        vdW + Hbond + desolv Energy     = -10.98 kcal/mol
DOCKED: USER        Electrostatic Energy            =  -0.10 kcal/mol
DOCKED: USER        Moving Ligand-Fixed Receptor    = -11.08 kcal/mol
DOCKED: USER        Moving Ligand-Moving Receptor   =  +0.00 kcal/mol
DOCKED: USER    (2) Final Total Internal Energy     =  -1.90 kcal/mol
DOCKED: USER    (3) Torsional Free Energy           =  +1.79 kcal/mol
DOCKED: USER    (4) Unbound System's Energy         =  -1.90 kcal/mol
DOCKED: USER
DOCKED: USER
DOCKED: REMARK SMILES O=C(NCC(=O)N1C[C@H](O)C[C@H]1[C@@H]1CCc2ccccc2C1)c1ccc2cc(F)ccc2n1
DOCKED: REMARK SMILES IDX 4 1 3 2 2 3 1 4 23 6 24 7 33 8 25 9 32 10 26 11 31 12 27 13
DOCKED: REMARK SMILES IDX 30 14 28 15 29 16 5 17 6 18 7 19 8 20 12 21 9 22 11 23 13 24
DOCKED: REMARK SMILES IDX 14 25 22 26 15 27 21 28 16 29 20 30 17 31 19 32 18 33 10 34
DOCKED: REMARK H PARENT 3 5 10 35
DOCKED: USER                              x       y       z     vdW  Elec       q    Type
DOCKED: USER                           _______ _______ _______ _____ _____    ______ ____
DOCKED: ROOT
DOCKED: ATOM      1  C   UNL     1     139.591  73.740 221.161 -0.15 -0.04    +0.216 C  
DOCKED: ENDROOT
DOCKED: BRANCH   1   2
DOCKED: ATOM      2  N   UNL     1     139.602  72.936 222.407 -0.14 +0.07    -0.342 N  
DOCKED: ATOM      3  C   UNL     1     139.928  71.559 222.346 -0.19 -0.04    +0.270 C  
DOCKED: ATOM      4  O   UNL     1     140.215  70.970 221.250 -0.10 +0.04    -0.268 OA 
DOCKED: ATOM      5  H   UNL     1     139.379  73.349 223.334 -0.45 -0.07    +0.164 HD 
DOCKED: BRANCH   3   6
DOCKED: ATOM      6  C   UNL     1     139.933  70.785 223.584 -0.28 -0.02    +0.128 A  
DOCKED: ATOM      7  C   UNL     1     139.374  69.507 223.612 -0.24 -0.01    +0.035 A  
DOCKED: ATOM      8  N   UNL     1     140.459  71.243 224.733 -0.31 +0.04    -0.243 NA 
DOCKED: ATOM      9  C   UNL     1     139.346  68.734 224.730 -0.36 -0.00    +0.013 A  
DOCKED: ATOM     10  C   UNL     1     140.447  70.497 225.871 -0.50 -0.01    +0.071 A  
DOCKED: ATOM     11  C   UNL     1     139.888  69.224 225.887 -0.48 -0.00    +0.003 A  
DOCKED: ATOM     12  C   UNL     1     141.000  70.997 227.049 -0.66 -0.01    +0.032 A  
DOCKED: ATOM     13  C   UNL     1     139.874  68.461 227.039 -0.59 -0.01    +0.049 A  
DOCKED: ATOM     14  C   UNL     1     140.980  70.221 228.204 -0.55 -0.01    +0.041 A  
DOCKED: ATOM     15  C   UNL     1     140.418  68.958 228.195 -0.54 -0.02    +0.123 A  
DOCKED: ATOM     16  F   UNL     1     140.384  68.171 229.313 -0.12 +0.05    -0.207 F  
DOCKED: ENDBRANCH   3   6
DOCKED: ENDBRANCH   1   2
DOCKED: BRANCH   1  17
DOCKED: ATOM     17  C   UNL     1     140.693  74.691 221.157 -0.21 -0.05    +0.242 C  
DOCKED: ATOM     18  O   UNL     1     140.707  75.512 222.169 -0.51 +0.04    -0.273 OA 
DOCKED: BRANCH  17  19
DOCKED: ATOM     19  N   UNL     1     141.734  74.869 220.253 -0.10 +0.11    -0.335 N  
DOCKED: ATOM     20  C   UNL     1     141.616  75.892 219.160 -0.13 -0.06    +0.151 C  
DOCKED: ATOM     21  C   UNL     1     143.050  74.365 220.001 -0.28 -0.03    +0.091 C  
DOCKED: ATOM     22  C   UNL     1     142.898  76.647 219.412 -0.31 -0.09    +0.136 C  
DOCKED: ATOM     23  C   UNL     1     143.867  75.604 219.828 -0.28 -0.04    +0.059 C  
DOCKED: BRANCH  21  24
DOCKED: ATOM     24  C   UNL     1     143.588  73.302 220.862 -0.26 -0.00    +0.016 C  
DOCKED: ATOM     25  C   UNL     1     145.093  73.151 220.788 -0.56 -0.00    +0.011 C  
DOCKED: ATOM     26  C   UNL     1     143.027  71.930 220.519 -0.25 -0.01    +0.041 C  
DOCKED: ATOM     27  C   UNL     1     145.552  72.792 219.393 -0.38 +0.01    +0.036 C  
DOCKED: ATOM     28  C   UNL     1     143.925  71.029 219.816 -0.23 +0.00    -0.044 A  
DOCKED: ATOM     29  C   UNL     1     145.134  71.346 219.242 -0.28 -0.01    -0.045 A  
DOCKED: ATOM     30  C   UNL     1     143.528  69.694 219.694 -0.22 -0.00    +0.004 A  
DOCKED: ATOM     31  C   UNL     1     145.932  70.438 218.580 -0.28 +0.00    +0.004 A  
DOCKED: ATOM     32  C   UNL     1     144.326  68.787 219.032 -0.28 -0.00    +0.000 A  
DOCKED: ATOM     33  C   UNL     1     145.535  69.120 218.462 -0.31 +0.00    +0.000 A  
DOCKED: ENDBRANCH  21  24
DOCKED: BRANCH  22  34
DOCKED: ATOM     34  O   UNL     1     143.312  77.345 218.271 -0.20 +0.30    -0.391 OA 
DOCKED: ATOM     35  H   UNL     1     143.729  78.191 218.595 -0.27 -0.22    +0.211 HD 
DOCKED: ENDBRANCH  22  34
DOCKED: ENDBRANCH  17  19
DOCKED: ENDBRANCH   1  17
DOCKED: TORSDOF 6
DOCKED: TER
DOCKED: ENDMDL
________________________________________________________________________________


    FINAL DOCKED STATE:
    ________________________


Run:   19 / 20
Time taken for this run:   0.054s

DOCKED: MODEL        19
DOCKED: USER    Run = 19
DOCKED: USER
DOCKED: USER    Estimated Free Energy of Binding    =  -9.37 kcal/mol  [=(1)+(2)+(3)-(4)]
DOCKED: USER
DOCKED: USER    (1) Final Intermolecular Energy     = -11.16 kcal/mol
DOCKED: USER        vdW + Hbond + desolv Energy     = -11.16 kcal/mol
DOCKED: USER        Electrostatic Energy            =  +0.01 kcal/mol
DOCKED: USER        Moving Ligand-Fixed Receptor    = -11.16 kcal/mol
DOCKED: USER        Moving Ligand-Moving Receptor   =  +0.00 kcal/mol
DOCKED: USER    (2) Final Total Internal Energy     =  -1.87 kcal/mol
DOCKED: USER    (3) Torsional Free Energy           =  +1.79 kcal/mol
DOCKED: USER    (4) Unbound System's Energy         =  -1.87 kcal/mol
DOCKED: USER
DOCKED: USER
DOCKED: REMARK SMILES O=C(NCC(=O)N1C[C@H](O)C[C@H]1[C@@H]1CCc2ccccc2C1)c1ccc2cc(F)ccc2n1
DOCKED: REMARK SMILES IDX 4 1 3 2 2 3 1 4 23 6 24 7 33 8 25 9 32 10 26 11 31 12 27 13
DOCKED: REMARK SMILES IDX 30 14 28 15 29 16 5 17 6 18 7 19 8 20 12 21 9 22 11 23 13 24
DOCKED: REMARK SMILES IDX 14 25 22 26 15 27 21 28 16 29 20 30 17 31 19 32 18 33 10 34
DOCKED: REMARK H PARENT 3 5 10 35
DOCKED: USER                              x       y       z     vdW  Elec       q    Type
DOCKED: USER                           _______ _______ _______ _____ _____    ______ ____
DOCKED: ROOT
DOCKED: ATOM      1  C   UNL     1     140.774  73.782 220.945 -0.18 -0.04    +0.216 C  
DOCKED: ENDROOT
DOCKED: BRANCH   1   2
DOCKED: ATOM      2  N   UNL     1     140.856  72.831 222.079 -0.15 +0.02    -0.342 N  
DOCKED: ATOM      3  C   UNL     1     139.667  72.385 222.704 -0.17 -0.05    +0.270 C  
DOCKED: ATOM      4  O   UNL     1     138.508  72.771 222.329 -0.16 +0.08    -0.268 OA 
DOCKED: ATOM      5  H   UNL     1     141.764  72.475 222.437 +0.08 +0.01    +0.164 HD 
DOCKED: BRANCH   3   6
DOCKED: ATOM      6  C   UNL     1     139.770  71.449 223.820 -0.33 -0.03    +0.128 A  
DOCKED: ATOM      7  C   UNL     1     139.273  70.151 223.692 -0.28 -0.01    +0.035 A  
DOCKED: ATOM      8  N   UNL     1     140.330  71.771 224.998 -0.27 +0.04    -0.243 NA 
DOCKED: ATOM      9  C   UNL     1     139.337  69.231 224.691 -0.36 -0.00    +0.013 A  
DOCKED: ATOM     10  C   UNL     1     140.410  70.875 226.020 -0.53 -0.01    +0.071 A  
DOCKED: ATOM     11  C   UNL     1     139.912  69.584 225.881 -0.47 -0.00    +0.003 A  
DOCKED: ATOM     12  C   UNL     1     140.996  71.237 227.231 -0.70 -0.01    +0.032 A  
DOCKED: ATOM     13  C   UNL     1     139.991  68.670 226.913 -0.57 -0.01    +0.049 A  
DOCKED: ATOM     14  C   UNL     1     141.070  70.309 228.266 -0.54 -0.01    +0.041 A  
DOCKED: ATOM     15  C   UNL     1     140.568  69.031 228.104 -0.53 -0.02    +0.123 A  
DOCKED: ATOM     16  F   UNL     1     140.626  68.097 229.100 -0.18 +0.05    -0.207 F  
DOCKED: ENDBRANCH   3   6
DOCKED: ENDBRANCH   1   2
DOCKED: BRANCH   1  17
DOCKED: ATOM     17  C   UNL     1     142.107  74.176 220.510 -0.18 -0.06    +0.242 C  
DOCKED: ATOM     18  O   UNL     1     143.061  73.377 220.894 -0.21 +0.05    -0.273 OA 
DOCKED: BRANCH  17  19
DOCKED: ATOM     19  N   UNL     1     142.530  75.261 219.751 -0.12 +0.14    -0.335 N  
DOCKED: ATOM     20  C   UNL     1     143.705  75.121 218.828 -0.20 -0.07    +0.151 C  
DOCKED: ATOM     21  C   UNL     1     142.158  76.621 219.502 -0.26 -0.05    +0.091 C  
DOCKED: ATOM     22  C   UNL     1     143.065  75.628 217.559 -0.16 -0.06    +0.136 C  
DOCKED: ATOM     23  C   UNL     1     142.156  76.710 218.010 -0.19 -0.03    +0.059 C  
DOCKED: BRANCH  21  24
DOCKED: ATOM     24  C   UNL     1     141.018  77.198 220.227 -0.23 -0.01    +0.016 C  
DOCKED: ATOM     25  C   UNL     1     140.648  78.597 219.780 -0.17 -0.00    +0.011 C  
DOCKED: ATOM     26  C   UNL     1     141.267  77.303 221.723 -0.24 -0.02    +0.041 C  
DOCKED: ATOM     27  C   UNL     1     141.782  79.573 220.000 -0.28 -0.02    +0.036 C  
DOCKED: ATOM     28  C   UNL     1     141.536  78.637 222.235 -0.43 +0.02    -0.044 A  
DOCKED: ATOM     29  C   UNL     1     141.799  79.769 221.500 -0.40 +0.02    -0.045 A  
DOCKED: ATOM     30  C   UNL     1     141.537  78.803 223.623 -0.60 -0.00    +0.004 A  
DOCKED: ATOM     31  C   UNL     1     142.053  81.004 222.054 -0.48 -0.00    +0.004 A  
DOCKED: ATOM     32  C   UNL     1     141.792  80.038 224.178 -0.42 -0.00    +0.000 A  
DOCKED: ATOM     33  C   UNL     1     142.054  81.163 223.427 -0.61 -0.00    +0.000 A  
DOCKED: ENDBRANCH  21  24
DOCKED: BRANCH  22  34
DOCKED: ATOM     34  O   UNL     1     144.025  76.075 216.644 -0.14 +0.24    -0.391 OA 
DOCKED: ATOM     35  H   UNL     1     144.906  76.009 217.107 -0.50 -0.16    +0.211 HD 
DOCKED: ENDBRANCH  22  34
DOCKED: ENDBRANCH  17  19
DOCKED: ENDBRANCH   1  17
DOCKED: TORSDOF 6
DOCKED: TER
DOCKED: ENDMDL
________________________________________________________________________________


    FINAL DOCKED STATE:
    ________________________


Run:   20 / 20
Time taken for this run:   0.054s

DOCKED: MODEL        20
DOCKED: USER    Run = 20
DOCKED: USER
DOCKED: USER    Estimated Free Energy of Binding    =  -9.24 kcal/mol  [=(1)+(2)+(3)-(4)]
DOCKED: USER
DOCKED: USER    (1) Final Intermolecular Energy     = -11.03 kcal/mol
DOCKED: USER        vdW + Hbond + desolv Energy     = -10.93 kcal/mol
DOCKED: USER        Electrostatic Energy            =  -0.10 kcal/mol
DOCKED: USER        Moving Ligand-Fixed Receptor    = -11.03 kcal/mol
DOCKED: USER        Moving Ligand-Moving Receptor   =  +0.00 kcal/mol
DOCKED: USER    (2) Final Total Internal Energy     =  -1.92 kcal/mol
DOCKED: USER    (3) Torsional Free Energy           =  +1.79 kcal/mol
DOCKED: USER    (4) Unbound System's Energy         =  -1.92 kcal/mol
DOCKED: USER
DOCKED: USER
DOCKED: REMARK SMILES O=C(NCC(=O)N1C[C@H](O)C[C@H]1[C@@H]1CCc2ccccc2C1)c1ccc2cc(F)ccc2n1
DOCKED: REMARK SMILES IDX 4 1 3 2 2 3 1 4 23 6 24 7 33 8 25 9 32 10 26 11 31 12 27 13
DOCKED: REMARK SMILES IDX 30 14 28 15 29 16 5 17 6 18 7 19 8 20 12 21 9 22 11 23 13 24
DOCKED: REMARK SMILES IDX 14 25 22 26 15 27 21 28 16 29 20 30 17 31 19 32 18 33 10 34
DOCKED: REMARK H PARENT 3 5 10 35
DOCKED: USER                              x       y       z     vdW  Elec       q    Type
DOCKED: USER                           _______ _______ _______ _____ _____    ______ ____
DOCKED: ROOT
DOCKED: ATOM      1  C   UNL     1     139.694  73.740 221.193 -0.16 -0.04    +0.216 C  
DOCKED: ENDROOT
DOCKED: BRANCH   1   2
DOCKED: ATOM      2  N   UNL     1     139.689  72.932 222.437 -0.14 +0.06    -0.342 N  
DOCKED: ATOM      3  C   UNL     1     140.002  71.553 222.375 -0.19 -0.04    +0.270 C  
DOCKED: ATOM      4  O   UNL     1     140.292  70.963 221.279 -0.10 +0.04    -0.268 OA 
DOCKED: ATOM      5  H   UNL     1     139.463  73.345 223.363 -0.44 -0.06    +0.164 HD 
DOCKED: BRANCH   3   6
DOCKED: ATOM      6  C   UNL     1     139.992  70.775 223.611 -0.28 -0.02    +0.128 A  
DOCKED: ATOM      7  C   UNL     1     139.423  69.501 223.630 -0.23 -0.01    +0.035 A  
DOCKED: ATOM      8  N   UNL     1     140.511  71.227 224.765 -0.31 +0.04    -0.243 NA 
DOCKED: ATOM      9  C   UNL     1     139.380  68.726 224.746 -0.36 -0.00    +0.013 A  
DOCKED: ATOM     10  C   UNL     1     140.484  70.478 225.901 -0.50 -0.01    +0.071 A  
DOCKED: ATOM     11  C   UNL     1     139.916  69.209 225.909 -0.49 -0.00    +0.003 A  
DOCKED: ATOM     12  C   UNL     1     141.030  70.971 227.085 -0.65 -0.01    +0.032 A  
DOCKED: ATOM     13  C   UNL     1     139.886  68.443 227.058 -0.59 -0.01    +0.049 A  
DOCKED: ATOM     14  C   UNL     1     140.995  70.191 228.238 -0.54 -0.01    +0.041 A  
DOCKED: ATOM     15  C   UNL     1     140.424  68.933 228.221 -0.54 -0.02    +0.123 A  
DOCKED: ATOM     16  F   UNL     1     140.374  68.143 229.336 -0.12 +0.05    -0.207 F  
DOCKED: ENDBRANCH   3   6
DOCKED: ENDBRANCH   1   2
DOCKED: BRANCH   1  17
DOCKED: ATOM     17  C   UNL     1     140.792  74.697 221.210 -0.21 -0.05    +0.242 C  
DOCKED: ATOM     18  O   UNL     1     140.853  75.435 222.282 -0.48 +0.03    -0.273 OA 
DOCKED: BRANCH  17  19
DOCKED: ATOM     19  N   UNL     1     141.786  74.953 220.272 -0.11 +0.11    -0.335 N  
DOCKED: ATOM     20  C   UNL     1     141.541  75.938 219.166 -0.13 -0.06    +0.151 C  
DOCKED: ATOM     21  C   UNL     1     143.136  74.570 219.991 -0.30 -0.03    +0.091 C  
DOCKED: ATOM     22  C   UNL     1     142.752  76.815 219.365 -0.29 -0.09    +0.136 C  
DOCKED: ATOM     23  C   UNL     1     143.826  75.877 219.771 -0.26 -0.04    +0.059 C  
DOCKED: BRANCH  21  24
DOCKED: ATOM     24  C   UNL     1     143.796  73.580 220.853 -0.30 -0.00    +0.016 C  
DOCKED: ATOM     25  C   UNL     1     145.287  73.453 220.618 -0.60 -0.00    +0.011 C  
DOCKED: ATOM     26  C   UNL     1     143.237  72.178 220.672 -0.26 -0.01    +0.041 C  
DOCKED: ATOM     27  C   UNL     1     145.594  73.005 219.207 -0.36 +0.01    +0.036 C  
DOCKED: ATOM     28  C   UNL     1     144.072  71.247 219.932 -0.25 +0.00    -0.044 A  
DOCKED: ATOM     29  C   UNL     1     145.199  71.545 219.203 -0.28 -0.02    -0.045 A  
DOCKED: ATOM     30  C   UNL     1     143.699  69.899 219.948 -0.19 -0.00    +0.004 A  
DOCKED: ATOM     31  C   UNL     1     145.941  70.608 218.517 -0.23 +0.00    +0.004 A  
DOCKED: ATOM     32  C   UNL     1     144.441  68.962 219.262 -0.30 +0.00    +0.000 A  
DOCKED: ATOM     33  C   UNL     1     145.569  69.277 218.535 -0.32 +0.00    +0.000 A  
DOCKED: ENDBRANCH  21  24
DOCKED: BRANCH  22  34
DOCKED: ATOM     34  O   UNL     1     143.066  77.526 218.201 -0.20 +0.30    -0.391 OA 
DOCKED: ATOM     35  H   UNL     1     143.700  78.245 218.473 -0.21 -0.22    +0.211 HD 
DOCKED: ENDBRANCH  22  34
DOCKED: ENDBRANCH  17  19
DOCKED: ENDBRANCH   1  17
DOCKED: TORSDOF 6
DOCKED: TER
DOCKED: ENDMDL
________________________________________________________________________________


    CLUSTERING HISTOGRAM
    ____________________


________________________________________________________________________________
     |           |     |           |     |
Clus | Lowest    | Run | Mean      | Num | Histogram
-ter | Binding   |     | Binding   | in  |
Rank | Energy    |     | Energy    | Clus|    5    10   15   20   25   30   35
_____|___________|_____|___________|_____|____:____|____:____|____:____|____:___
   1 |     -9.55 |  10 |     -9.38 |   4 |####
   2 |     -9.37 |   2 |     -9.28 |  12 |############
   3 |     -9.05 |  14 |     -9.01 |   3 |###
   4 |     -9.00 |  17 |     -9.00 |   1 |#
_____|___________|_____|___________|_____|______________________________________


    RMSD TABLE
    __________


_______________________________________________________________________
     |      |      |           |         |                 |
Rank | Sub- | Run  | Binding   | Cluster | Reference       | Grep
     | Rank |      | Energy    | RMSD    | RMSD            | Pattern
_____|______|______|___________|_________|_________________|___________
   1      1     10       -9.55      0.00    270.17           RANKING
   1      2     19       -9.37      0.66    270.35           RANKING
   1      3     12       -9.31      0.69    270.32           RANKING
   1      4     15       -9.29      1.62    269.90           RANKING
   2      1      2       -9.37      0.00    269.72           RANKING
   2      2     13       -9.34      0.05    269.72           RANKING
   2      3      9       -9.33      0.14    269.66           RANKING
   2      4     18       -9.29      0.49    269.71           RANKING
   2      5      7       -9.29      0.47    269.71           RANKING
   2      6      5       -9.28      0.54    269.71           RANKING
   2      7     16       -9.28      0.10    269.68           RANKING
   2      8     11       -9.27      0.53    269.73           RANKING
   2      9      3       -9.26      0.67    269.81           RANKING
   2     10     20       -9.24      0.59    269.78           RANKING
   2     11      1       -9.24      0.50    269.77           RANKING
   2     12      6       -9.11      0.65    269.74           RANKING
   3      1     14       -9.05      0.00    270.05           RANKING
   3      2      4       -8.99      0.43    269.98           RANKING
   3      3      8       -8.99      0.25    270.01           RANKING
   4      1     17       -9.00      0.00    270.10           RANKING

Run time 1.049 sec
Idle time 0.000 sec
