AutoDock-GPU version: v1.6

**********************************************************
**    AutoDock-GPU AUTODOCKTOOLS-COMPATIBLE DLG FILE    **
**********************************************************


    DOCKING PARAMETERS
    ________________________


Ligand file:                               /home/a/REINVENT4/ReinventStudies/pleaseWork/justmol2mol_4_Compounds_ontop/graph-dock-amy28i/graph-DockGPU/node-autodockgpu/inputs/NCXBBRIFNZCWSF-UPJBZSFKNA-N.pdbqt
Grid fld file:                             /home/a/REINVENT4/ReinventStudies/mols/Rad51/maps/rad51_receptor.maps.fld

Random seed:                               42
Number of runs:                            20
Number of energy evaluations:              1132076
Number of generations:                     42000
Size of population:                        150
Rate of crossover:                         80.000000%
Tournament selection probability limit:    60.000000%
Rate of mutation:                          2.000000%
Maximal allowed delta movement:            +/- 6.000000A
Maximal allowed delta angle:               +/- 90.000000

Rate of local search:                      100.000000%
Maximal number of local search iterations: 300
Rho lower bound:                           0.010000
Spread of local search delta movement:     2.000000A
Spread of local search delta angle:        74.999999
Limit of consecutive successes/failures:   4

Handle symmetry during clustering:         YES
RMSD tolerance:                            2.000000A

Program call in command line was:          /home/a/REINVENT4/ReinventStudies/adgpu-v1.6_linux_x64_cuda12_128wi --filelist batch.txt --heuristics 1 --nrun 20 --psize 150 --lsit 300 --seed 42 --heurmax 12000000 


    GRID PARAMETERS
    ________________________


Receptor name:                             rad51_receptor
Number of grid points (x, y, z):           53, 53, 53
Grid center (x, y, z):                     139.950000, 75.640000, 221.970000A
Grid size (x, y, z):                       19.500000, 19.500000, 19.500000A
Grid spacing:                              0.375000A


    LIGAND PARAMETERS
    ________________________


Ligand name:                               /home/a/REINVENT4/ReinventStudies/pleaseWork/justmol2mol_4_Compounds_ontop/graph-dock-amy28i/graph-DockGPU/node-autodockgpu/inputs/NCXBBRIFNZCWSF-UPJBZSFKNA-N
Number of atoms:                           30
Number of rotatable bonds:                 5
Number of atom types:                      8


    DUMMY DATA (only for ADT-compatibility)
    ________________________


DPF> outlev 1
DPF> ga_run 20
DPF> fld /home/a/REINVENT4/ReinventStudies/mols/Rad51/maps/rad51_receptor.maps.fld
DPF> move /home/a/REINVENT4/ReinventStudies/pleaseWork/justmol2mol_4_Compounds_ontop/graph-dock-amy28i/graph-DockGPU/node-autodockgpu/inputs/NCXBBRIFNZCWSF-UPJBZSFKNA-N.pdbqt


    COUNTER STATES
    ________________________


Number of energy evaluations performed:    812578
Number of generations used:                40


    INPUT LIGAND PDBQT FILE:
    ________________________


INPUT-LIGAND-PDBQT: REMARK SMILES O=C(NCC(=O)N1CCC[C@@H]1c1ncc(Cl)cn1)c1ccc2cc(F)ccc2n1
INPUT-LIGAND-PDBQT: REMARK SMILES IDX 4 1 3 2 2 3 1 4 19 6 20 7 29 8 21 9 28 10 22 11 27 12 23 13
INPUT-LIGAND-PDBQT: REMARK SMILES IDX 26 14 24 15 25 16 5 17 6 18 7 19 8 20 11 21 9 22 10 23 12 24
INPUT-LIGAND-PDBQT: REMARK SMILES IDX 13 25 18 26 14 27 17 28 15 29 16 30
INPUT-LIGAND-PDBQT: REMARK H PARENT 3 5
INPUT-LIGAND-PDBQT: ROOT
INPUT-LIGAND-PDBQT: ATOM      1  C   UNL     1      -0.728  -0.534   2.269  1.00  0.00     0.216 C 
INPUT-LIGAND-PDBQT: ENDROOT
INPUT-LIGAND-PDBQT: BRANCH   1   2
INPUT-LIGAND-PDBQT: ATOM      2  N   UNL     1       0.591  -0.555   1.761  1.00  0.00    -0.342 N 
INPUT-LIGAND-PDBQT: ATOM      3  C   UNL     1       1.005   0.569   0.943  1.00  0.00     0.270 C 
INPUT-LIGAND-PDBQT: ATOM      4  O   UNL     1       0.118   1.451   0.779  1.00  0.00    -0.268 OA
INPUT-LIGAND-PDBQT: ATOM      5  H   UNL     1       1.311  -1.308   1.916  1.00  0.00     0.164 HD
INPUT-LIGAND-PDBQT: BRANCH   3   6
INPUT-LIGAND-PDBQT: ATOM      6  C   UNL     1       2.331   0.627   0.386  1.00  0.00     0.128 A 
INPUT-LIGAND-PDBQT: ATOM      7  C   UNL     1       2.672   1.714  -0.382  1.00  0.00     0.035 A 
INPUT-LIGAND-PDBQT: ATOM      8  N   UNL     1       3.194  -0.366   0.624  1.00  0.00    -0.243 NA
INPUT-LIGAND-PDBQT: ATOM      9  C   UNL     1       3.968   1.720  -0.897  1.00  0.00     0.013 A 
INPUT-LIGAND-PDBQT: ATOM     10  C   UNL     1       4.449  -0.387   0.140  1.00  0.00     0.071 A 
INPUT-LIGAND-PDBQT: ATOM     11  C   UNL     1       4.854   0.681  -0.642  1.00  0.00     0.003 A 
INPUT-LIGAND-PDBQT: ATOM     12  C   UNL     1       5.265  -1.454   0.440  1.00  0.00     0.032 A 
INPUT-LIGAND-PDBQT: ATOM     13  C   UNL     1       6.135   0.647  -1.127  1.00  0.00     0.049 A 
INPUT-LIGAND-PDBQT: ATOM     14  C   UNL     1       6.553  -1.478  -0.054  1.00  0.00     0.041 A 
INPUT-LIGAND-PDBQT: ATOM     15  C   UNL     1       6.979  -0.416  -0.841  1.00  0.00     0.123 A 
INPUT-LIGAND-PDBQT: ATOM     16  F   UNL     1       8.251  -0.486  -1.303  1.00  0.00    -0.207 F 
INPUT-LIGAND-PDBQT: ENDBRANCH   3   6
INPUT-LIGAND-PDBQT: ENDBRANCH   1   2
INPUT-LIGAND-PDBQT: BRANCH   1  17
INPUT-LIGAND-PDBQT: ATOM     17  C   UNL     1      -1.866  -0.594   1.357  1.00  0.00     0.242 C 
INPUT-LIGAND-PDBQT: ATOM     18  O   UNL     1      -3.016  -0.444   1.952  1.00  0.00    -0.273 OA
INPUT-LIGAND-PDBQT: BRANCH  17  19
INPUT-LIGAND-PDBQT: ATOM     19  N   UNL     1      -1.931  -0.782  -0.023  1.00  0.00    -0.331 N 
INPUT-LIGAND-PDBQT: ATOM     20  C   UNL     1      -0.900  -1.133  -1.017  1.00  0.00     0.120 C 
INPUT-LIGAND-PDBQT: ATOM     21  C   UNL     1      -3.116  -0.633  -0.895  1.00  0.00     0.153 C 
INPUT-LIGAND-PDBQT: ATOM     22  C   UNL     1      -1.095  -0.007  -1.991  1.00  0.00     0.024 C 
INPUT-LIGAND-PDBQT: ATOM     23  C   UNL     1      -2.558   0.357  -1.922  1.00  0.00     0.035 C 
INPUT-LIGAND-PDBQT: BRANCH  21  24
INPUT-LIGAND-PDBQT: ATOM     24  C   UNL     1      -4.297  -0.090  -0.234  1.00  0.00     0.150 A 
INPUT-LIGAND-PDBQT: ATOM     25  N   UNL     1      -5.458  -0.806  -0.305  1.00  0.00    -0.238 NA
INPUT-LIGAND-PDBQT: ATOM     26  N   UNL     1      -4.375   1.076   0.421  1.00  0.00    -0.238 NA
INPUT-LIGAND-PDBQT: ATOM     27  C   UNL     1      -6.606  -0.397   0.231  1.00  0.00     0.135 A 
INPUT-LIGAND-PDBQT: ATOM     28  C   UNL     1      -5.504   1.546   0.985  1.00  0.00     0.135 A 
INPUT-LIGAND-PDBQT: ATOM     29  C   UNL     1      -6.662   0.807   0.901  1.00  0.00     0.077 A 
INPUT-LIGAND-PDBQT: ATOM     30  Cl  UNL     1      -8.124   1.409   1.628  1.00  0.00    -0.081 Cl
INPUT-LIGAND-PDBQT: ENDBRANCH  21  24
INPUT-LIGAND-PDBQT: ENDBRANCH  17  19
INPUT-LIGAND-PDBQT: ENDBRANCH   1  17
INPUT-LIGAND-PDBQT: TORSDOF 5


    FINAL DOCKED STATE:
    ________________________


Run:   1 / 20
Time taken for this run:   0.033s

DOCKED: MODEL        1
DOCKED: USER    Run = 1
DOCKED: USER
DOCKED: USER    Estimated Free Energy of Binding    =  -7.23 kcal/mol  [=(1)+(2)+(3)-(4)]
DOCKED: USER
DOCKED: USER    (1) Final Intermolecular Energy     =  -8.72 kcal/mol
DOCKED: USER        vdW + Hbond + desolv Energy     =  -8.69 kcal/mol
DOCKED: USER        Electrostatic Energy            =  -0.03 kcal/mol
DOCKED: USER        Moving Ligand-Fixed Receptor    =  -8.72 kcal/mol
DOCKED: USER        Moving Ligand-Moving Receptor   =  +0.00 kcal/mol
DOCKED: USER    (2) Final Total Internal Energy     =  -2.42 kcal/mol
DOCKED: USER    (3) Torsional Free Energy           =  +1.49 kcal/mol
DOCKED: USER    (4) Unbound System's Energy         =  -2.42 kcal/mol
DOCKED: USER
DOCKED: USER
DOCKED: REMARK SMILES O=C(NCC(=O)N1CCC[C@@H]1c1ncc(Cl)cn1)c1ccc2cc(F)ccc2n1
DOCKED: REMARK SMILES IDX 4 1 3 2 2 3 1 4 19 6 20 7 29 8 21 9 28 10 22 11 27 12 23 13
DOCKED: REMARK SMILES IDX 26 14 24 15 25 16 5 17 6 18 7 19 8 20 11 21 9 22 10 23 12 24
DOCKED: REMARK SMILES IDX 13 25 18 26 14 27 17 28 15 29 16 30
DOCKED: REMARK H PARENT 3 5
DOCKED: USER                              x       y       z     vdW  Elec       q    Type
DOCKED: USER                           _______ _______ _______ _____ _____    ______ ____
DOCKED: ROOT
DOCKED: ATOM      1  C   UNL     1     137.649  73.072 221.283 -0.07 -0.05    +0.216 C  
DOCKED: ENDROOT
DOCKED: BRANCH   1   2
DOCKED: ATOM      2  N   UNL     1     138.262  72.502 222.421 -0.06 +0.11    -0.342 N  
DOCKED: ATOM      3  C   UNL     1     138.084  71.077 222.627 -0.11 -0.06    +0.270 C  
DOCKED: ATOM      4  O   UNL     1     137.387  70.504 221.746 -0.03 +0.05    -0.268 OA 
DOCKED: ATOM      5  H   UNL     1     138.840  73.008 223.142 -0.45 -0.09    +0.164 HD 
DOCKED: BRANCH   3   6
DOCKED: ATOM      6  C   UNL     1     138.675  70.417 223.762 -0.24 -0.02    +0.128 A  
DOCKED: ATOM      7  C   UNL     1     138.580  69.048 223.846 -0.28 -0.00    +0.035 A  
DOCKED: ATOM      8  N   UNL     1     139.296  71.138 224.700 -0.24 +0.05    -0.243 NA 
DOCKED: ATOM      9  C   UNL     1     139.169  68.459 224.964 -0.41 -0.00    +0.013 A  
DOCKED: ATOM     10  C   UNL     1     139.872  70.598 225.789 -0.44 -0.01    +0.071 A  
DOCKED: ATOM     11  C   UNL     1     139.811  69.222 225.932 -0.48 -0.00    +0.003 A  
DOCKED: ATOM     12  C   UNL     1     140.489  71.424 226.701 -0.63 -0.01    +0.032 A  
DOCKED: ATOM     13  C   UNL     1     140.402  68.685 227.044 -0.59 -0.01    +0.049 A  
DOCKED: ATOM     14  C   UNL     1     141.081  70.872 227.818 -0.65 -0.01    +0.041 A  
DOCKED: ATOM     15  C   UNL     1     141.031  69.493 227.980 -0.49 -0.03    +0.123 A  
DOCKED: ATOM     16  F   UNL     1     141.626  69.000 229.093 -0.10 +0.05    -0.207 F  
DOCKED: ENDBRANCH   3   6
DOCKED: ENDBRANCH   1   2
DOCKED: BRANCH   1  17
DOCKED: ATOM     17  C   UNL     1     137.337  74.498 221.254 -0.08 -0.06    +0.242 C  
DOCKED: ATOM     18  O   UNL     1     136.757  74.880 220.152 -0.01 +0.05    -0.273 OA 
DOCKED: BRANCH  17  19
DOCKED: ATOM     19  N   UNL     1     137.552  75.506 222.193 -0.12 +0.09    -0.331 N  
DOCKED: ATOM     20  C   UNL     1     136.618  76.363 222.947 -0.21 -0.02    +0.120 C  
DOCKED: ATOM     21  C   UNL     1     138.851  76.025 222.672 -0.18 -0.03    +0.153 C  
DOCKED: ATOM     22  C   UNL     1     137.170  77.713 222.591 -0.21 -0.00    +0.024 C  
DOCKED: ATOM     23  C   UNL     1     138.653  77.517 222.388 -0.28 -0.01    +0.035 C  
DOCKED: BRANCH  21  24
DOCKED: ATOM     24  C   UNL     1     140.015  75.508 221.963 -0.28 -0.03    +0.150 A  
DOCKED: ATOM     25  N   UNL     1     140.350  74.197 222.150 -0.75 -0.00    -0.238 NA 
DOCKED: ATOM     26  N   UNL     1     140.827  76.204 221.156 -0.19 +0.08    -0.238 NA 
DOCKED: ATOM     27  C   UNL     1     141.408  73.622 221.582 -0.17 -0.01    +0.135 A  
DOCKED: ATOM     28  C   UNL     1     141.912  75.682 220.552 -0.22 -0.06    +0.135 A  
DOCKED: ATOM     29  C   UNL     1     142.230  74.359 220.755 -0.26 -0.02    +0.077 A  
DOCKED: ATOM     30  Cl  UNL     1     143.630  73.679 219.977 -0.43 +0.02    -0.081 Cl 
DOCKED: ENDBRANCH  21  24
DOCKED: ENDBRANCH  17  19
DOCKED: ENDBRANCH   1  17
DOCKED: TORSDOF 5
DOCKED: TER
DOCKED: ENDMDL
________________________________________________________________________________


    FINAL DOCKED STATE:
    ________________________


Run:   2 / 20
Time taken for this run:   0.033s

DOCKED: MODEL        2
DOCKED: USER    Run = 2
DOCKED: USER
DOCKED: USER    Estimated Free Energy of Binding    =  -7.24 kcal/mol  [=(1)+(2)+(3)-(4)]
DOCKED: USER
DOCKED: USER    (1) Final Intermolecular Energy     =  -8.73 kcal/mol
DOCKED: USER        vdW + Hbond + desolv Energy     =  -8.72 kcal/mol
DOCKED: USER        Electrostatic Energy            =  -0.00 kcal/mol
DOCKED: USER        Moving Ligand-Fixed Receptor    =  -8.73 kcal/mol
DOCKED: USER        Moving Ligand-Moving Receptor   =  +0.00 kcal/mol
DOCKED: USER    (2) Final Total Internal Energy     =  -2.46 kcal/mol
DOCKED: USER    (3) Torsional Free Energy           =  +1.49 kcal/mol
DOCKED: USER    (4) Unbound System's Energy         =  -2.46 kcal/mol
DOCKED: USER
DOCKED: USER
DOCKED: REMARK SMILES O=C(NCC(=O)N1CCC[C@@H]1c1ncc(Cl)cn1)c1ccc2cc(F)ccc2n1
DOCKED: REMARK SMILES IDX 4 1 3 2 2 3 1 4 19 6 20 7 29 8 21 9 28 10 22 11 27 12 23 13
DOCKED: REMARK SMILES IDX 26 14 24 15 25 16 5 17 6 18 7 19 8 20 11 21 9 22 10 23 12 24
DOCKED: REMARK SMILES IDX 13 25 18 26 14 27 17 28 15 29 16 30
DOCKED: REMARK H PARENT 3 5
DOCKED: USER                              x       y       z     vdW  Elec       q    Type
DOCKED: USER                           _______ _______ _______ _____ _____    ______ ____
DOCKED: ROOT
DOCKED: ATOM      1  C   UNL     1     137.657  73.099 221.240 -0.07 -0.05    +0.216 C  
DOCKED: ENDROOT
DOCKED: BRANCH   1   2
DOCKED: ATOM      2  N   UNL     1     138.269  72.520 222.375 -0.07 +0.10    -0.342 N  
DOCKED: ATOM      3  C   UNL     1     138.080  71.096 222.576 -0.11 -0.06    +0.270 C  
DOCKED: ATOM      4  O   UNL     1     137.376  70.532 221.694 -0.03 +0.05    -0.268 OA 
DOCKED: ATOM      5  H   UNL     1     138.854  73.018 223.095 -0.46 -0.08    +0.164 HD 
DOCKED: BRANCH   3   6
DOCKED: ATOM      6  C   UNL     1     138.669  70.426 223.706 -0.24 -0.02    +0.128 A  
DOCKED: ATOM      7  C   UNL     1     138.569  69.058 223.782 -0.28 -0.00    +0.035 A  
DOCKED: ATOM      8  N   UNL     1     139.295  71.140 224.647 -0.24 +0.05    -0.243 NA 
DOCKED: ATOM      9  C   UNL     1     139.156  68.460 224.896 -0.40 -0.00    +0.013 A  
DOCKED: ATOM     10  C   UNL     1     139.869  70.590 225.732 -0.44 -0.01    +0.071 A  
DOCKED: ATOM     11  C   UNL     1     139.802  69.214 225.867 -0.48 -0.00    +0.003 A  
DOCKED: ATOM     12  C   UNL     1     140.491  71.408 226.648 -0.63 -0.01    +0.032 A  
DOCKED: ATOM     13  C   UNL     1     140.393  68.668 226.976 -0.59 -0.01    +0.049 A  
DOCKED: ATOM     14  C   UNL     1     141.082  70.847 227.761 -0.64 -0.01    +0.041 A  
DOCKED: ATOM     15  C   UNL     1     141.026  69.468 227.916 -0.49 -0.03    +0.123 A  
DOCKED: ATOM     16  F   UNL     1     141.620  68.966 229.025 -0.11 +0.05    -0.207 F  
DOCKED: ENDBRANCH   3   6
DOCKED: ENDBRANCH   1   2
DOCKED: BRANCH   1  17
DOCKED: ATOM     17  C   UNL     1     137.733  74.540 221.022 -0.08 -0.05    +0.242 C  
DOCKED: ATOM     18  O   UNL     1     137.376  74.903 219.821 -0.01 +0.05    -0.273 OA 
DOCKED: BRANCH  17  19
DOCKED: ATOM     19  N   UNL     1     138.117  75.581 221.867 -0.12 +0.08    -0.331 N  
DOCKED: ATOM     20  C   UNL     1     137.349  76.671 222.496 -0.22 -0.02    +0.120 C  
DOCKED: ATOM     21  C   UNL     1     139.481  75.892 222.345 -0.26 -0.03    +0.153 C  
DOCKED: ATOM     22  C   UNL     1     138.157  77.849 222.034 -0.21 -0.00    +0.024 C  
DOCKED: ATOM     23  C   UNL     1     139.579  77.358 221.910 -0.30 -0.01    +0.035 C  
DOCKED: BRANCH  21  24
DOCKED: ATOM     24  C   UNL     1     140.540  75.095 221.736 -0.25 -0.02    +0.150 A  
DOCKED: ATOM     25  N   UNL     1     140.585  73.761 222.025 -0.74 +0.01    -0.238 NA 
DOCKED: ATOM     26  N   UNL     1     141.512  75.546 220.933 -0.19 +0.09    -0.238 NA 
DOCKED: ATOM     27  C   UNL     1     141.521  72.939 221.555 -0.18 -0.01    +0.135 A  
DOCKED: ATOM     28  C   UNL     1     142.487  74.769 220.424 -0.25 -0.05    +0.135 A  
DOCKED: ATOM     29  C   UNL     1     142.512  73.427 220.729 -0.24 -0.01    +0.077 A  
DOCKED: ATOM     30  Cl  UNL     1     143.770  72.417 220.075 -0.38 +0.01    -0.081 Cl 
DOCKED: ENDBRANCH  21  24
DOCKED: ENDBRANCH  17  19
DOCKED: ENDBRANCH   1  17
DOCKED: TORSDOF 5
DOCKED: TER
DOCKED: ENDMDL
________________________________________________________________________________


    FINAL DOCKED STATE:
    ________________________


Run:   3 / 20
Time taken for this run:   0.033s

DOCKED: MODEL        3
DOCKED: USER    Run = 3
DOCKED: USER
DOCKED: USER    Estimated Free Energy of Binding    =  -7.26 kcal/mol  [=(1)+(2)+(3)-(4)]
DOCKED: USER
DOCKED: USER    (1) Final Intermolecular Energy     =  -8.75 kcal/mol
DOCKED: USER        vdW + Hbond + desolv Energy     =  -8.74 kcal/mol
DOCKED: USER        Electrostatic Energy            =  -0.01 kcal/mol
DOCKED: USER        Moving Ligand-Fixed Receptor    =  -8.75 kcal/mol
DOCKED: USER        Moving Ligand-Moving Receptor   =  +0.00 kcal/mol
DOCKED: USER    (2) Final Total Internal Energy     =  -2.44 kcal/mol
DOCKED: USER    (3) Torsional Free Energy           =  +1.49 kcal/mol
DOCKED: USER    (4) Unbound System's Energy         =  -2.44 kcal/mol
DOCKED: USER
DOCKED: USER
DOCKED: REMARK SMILES O=C(NCC(=O)N1CCC[C@@H]1c1ncc(Cl)cn1)c1ccc2cc(F)ccc2n1
DOCKED: REMARK SMILES IDX 4 1 3 2 2 3 1 4 19 6 20 7 29 8 21 9 28 10 22 11 27 12 23 13
DOCKED: REMARK SMILES IDX 26 14 24 15 25 16 5 17 6 18 7 19 8 20 11 21 9 22 10 23 12 24
DOCKED: REMARK SMILES IDX 13 25 18 26 14 27 17 28 15 29 16 30
DOCKED: REMARK H PARENT 3 5
DOCKED: USER                              x       y       z     vdW  Elec       q    Type
DOCKED: USER                           _______ _______ _______ _____ _____    ______ ____
DOCKED: ROOT
DOCKED: ATOM      1  C   UNL     1     137.745  73.130 221.226 -0.07 -0.05    +0.216 C  
DOCKED: ENDROOT
DOCKED: BRANCH   1   2
DOCKED: ATOM      2  N   UNL     1     138.336  72.554 222.373 -0.07 +0.10    -0.342 N  
DOCKED: ATOM      3  C   UNL     1     138.152  71.128 222.570 -0.11 -0.06    +0.270 C  
DOCKED: ATOM      4  O   UNL     1     137.472  70.560 221.672 -0.03 +0.05    -0.268 OA 
DOCKED: ATOM      5  H   UNL     1     138.900  73.056 223.107 -0.46 -0.08    +0.164 HD 
DOCKED: BRANCH   3   6
DOCKED: ATOM      6  C   UNL     1     138.721  70.462 223.712 -0.24 -0.02    +0.128 A  
DOCKED: ATOM      7  C   UNL     1     138.611  69.095 223.795 -0.28 -0.00    +0.035 A  
DOCKED: ATOM      8  N   UNL     1     139.336  71.178 224.659 -0.24 +0.05    -0.243 NA 
DOCKED: ATOM      9  C   UNL     1     139.178  68.501 224.922 -0.41 -0.00    +0.013 A  
DOCKED: ATOM     10  C   UNL     1     139.892  70.632 225.756 -0.45 -0.01    +0.071 A  
DOCKED: ATOM     11  C   UNL     1     139.815  69.257 225.898 -0.48 -0.00    +0.003 A  
DOCKED: ATOM     12  C   UNL     1     140.505  71.452 226.675 -0.63 -0.01    +0.032 A  
DOCKED: ATOM     13  C   UNL     1     140.385  68.715 227.019 -0.59 -0.01    +0.049 A  
DOCKED: ATOM     14  C   UNL     1     141.076  70.895 227.801 -0.66 -0.01    +0.041 A  
DOCKED: ATOM     15  C   UNL     1     141.009  69.517 227.963 -0.50 -0.03    +0.123 A  
DOCKED: ATOM     16  F   UNL     1     141.584  69.018 229.084 -0.10 +0.05    -0.207 F  
DOCKED: ENDBRANCH   3   6
DOCKED: ENDBRANCH   1   2
DOCKED: BRANCH   1  17
DOCKED: ATOM     17  C   UNL     1     137.750  74.578 221.046 -0.08 -0.06    +0.242 C  
DOCKED: ATOM     18  O   UNL     1     137.306  74.958 219.882 -0.01 +0.05    -0.273 OA 
DOCKED: BRANCH  17  19
DOCKED: ATOM     19  N   UNL     1     138.145  75.610 221.897 -0.12 +0.08    -0.331 N  
DOCKED: ATOM     20  C   UNL     1     137.384  76.688 222.554 -0.22 -0.02    +0.120 C  
DOCKED: ATOM     21  C   UNL     1     139.516  75.921 222.355 -0.26 -0.03    +0.153 C  
DOCKED: ATOM     22  C   UNL     1     138.179  77.875 222.092 -0.22 -0.00    +0.024 C  
DOCKED: ATOM     23  C   UNL     1     139.600  77.392 221.937 -0.30 -0.01    +0.035 C  
DOCKED: BRANCH  21  24
DOCKED: ATOM     24  C   UNL     1     140.567  75.136 221.718 -0.26 -0.03    +0.150 A  
DOCKED: ATOM     25  N   UNL     1     140.637  73.803 222.007 -0.73 +0.01    -0.238 NA 
DOCKED: ATOM     26  N   UNL     1     141.511  75.598 220.887 -0.19 +0.09    -0.238 NA 
DOCKED: ATOM     27  C   UNL     1     141.570  72.993 221.512 -0.16 -0.01    +0.135 A  
DOCKED: ATOM     28  C   UNL     1     142.481  74.832 220.353 -0.25 -0.05    +0.135 A  
DOCKED: ATOM     29  C   UNL     1     142.531  73.491 220.658 -0.24 -0.01    +0.077 A  
DOCKED: ATOM     30  Cl  UNL     1     143.782  72.496 219.970 -0.37 +0.01    -0.081 Cl 
DOCKED: ENDBRANCH  21  24
DOCKED: ENDBRANCH  17  19
DOCKED: ENDBRANCH   1  17
DOCKED: TORSDOF 5
DOCKED: TER
DOCKED: ENDMDL
________________________________________________________________________________


    FINAL DOCKED STATE:
    ________________________


Run:   4 / 20
Time taken for this run:   0.033s

DOCKED: MODEL        4
DOCKED: USER    Run = 4
DOCKED: USER
DOCKED: USER    Estimated Free Energy of Binding    =  -6.74 kcal/mol  [=(1)+(2)+(3)-(4)]
DOCKED: USER
DOCKED: USER    (1) Final Intermolecular Energy     =  -8.24 kcal/mol
DOCKED: USER        vdW + Hbond + desolv Energy     =  -8.22 kcal/mol
DOCKED: USER        Electrostatic Energy            =  -0.02 kcal/mol
DOCKED: USER        Moving Ligand-Fixed Receptor    =  -8.24 kcal/mol
DOCKED: USER        Moving Ligand-Moving Receptor   =  +0.00 kcal/mol
DOCKED: USER    (2) Final Total Internal Energy     =  -2.93 kcal/mol
DOCKED: USER    (3) Torsional Free Energy           =  +1.49 kcal/mol
DOCKED: USER    (4) Unbound System's Energy         =  -2.93 kcal/mol
DOCKED: USER
DOCKED: USER
DOCKED: REMARK SMILES O=C(NCC(=O)N1CCC[C@@H]1c1ncc(Cl)cn1)c1ccc2cc(F)ccc2n1
DOCKED: REMARK SMILES IDX 4 1 3 2 2 3 1 4 19 6 20 7 29 8 21 9 28 10 22 11 27 12 23 13
DOCKED: REMARK SMILES IDX 26 14 24 15 25 16 5 17 6 18 7 19 8 20 11 21 9 22 10 23 12 24
DOCKED: REMARK SMILES IDX 13 25 18 26 14 27 17 28 15 29 16 30
DOCKED: REMARK H PARENT 3 5
DOCKED: USER                              x       y       z     vdW  Elec       q    Type
DOCKED: USER                           _______ _______ _______ _____ _____    ______ ____
DOCKED: ROOT
DOCKED: ATOM      1  C   UNL     1     140.827  73.736 220.764 -0.16 -0.04    +0.216 C  
DOCKED: ENDROOT
DOCKED: BRANCH   1   2
DOCKED: ATOM      2  N   UNL     1     141.119  74.996 221.333 -0.17 +0.08    -0.342 N  
DOCKED: ATOM      3  C   UNL     1     139.996  75.864 221.636 -0.22 -0.06    +0.270 C  
DOCKED: ATOM      4  O   UNL     1     138.868  75.378 221.349 -0.14 +0.06    -0.268 OA 
DOCKED: ATOM      5  H   UNL     1     142.075  75.375 221.562 -0.31 -0.08    +0.164 HD 
DOCKED: BRANCH   3   6
DOCKED: ATOM      6  C   UNL     1     140.205  77.164 222.217 -0.32 -0.03    +0.128 A  
DOCKED: ATOM      7  C   UNL     1     139.114  77.855 222.685 -0.30 -0.01    +0.035 A  
DOCKED: ATOM      8  N   UNL     1     141.442  77.668 222.288 -0.20 +0.12    -0.243 NA 
DOCKED: ATOM      9  C   UNL     1     139.372  79.110 223.237 -0.37 -0.00    +0.013 A  
DOCKED: ATOM     10  C   UNL     1     141.720  78.874 222.815 -0.49 -0.03    +0.071 A  
DOCKED: ATOM     11  C   UNL     1     140.662  79.620 223.304 -0.48 -0.00    +0.003 A  
DOCKED: ATOM     12  C   UNL     1     143.026  79.307 222.844 -0.36 -0.02    +0.032 A  
DOCKED: ATOM     13  C   UNL     1     140.960  80.846 223.839 -0.42 -0.01    +0.049 A  
DOCKED: ATOM     14  C   UNL     1     143.315  80.543 223.384 -0.60 -0.01    +0.041 A  
DOCKED: ATOM     15  C   UNL     1     142.267  81.308 223.881 -0.52 -0.02    +0.123 A  
DOCKED: ATOM     16  F   UNL     1     142.601  82.515 224.400 +0.10 -0.00    -0.207 F  
DOCKED: ENDBRANCH   3   6
DOCKED: ENDBRANCH   1   2
DOCKED: BRANCH   1  17
DOCKED: ATOM     17  C   UNL     1     141.694  73.179 219.731 -0.08 -0.05    +0.242 C  
DOCKED: ATOM     18  O   UNL     1     141.044  72.735 218.692 -0.01 +0.05    -0.273 OA 
DOCKED: BRANCH  17  19
DOCKED: ATOM     19  N   UNL     1     143.080  73.043 219.667 -0.06 +0.06    -0.331 N  
DOCKED: ATOM     20  C   UNL     1     143.978  71.936 220.047 -0.24 -0.01    +0.120 C  
DOCKED: ATOM     21  C   UNL     1     144.062  74.049 219.208 -0.23 -0.04    +0.153 C  
DOCKED: ATOM     22  C   UNL     1     144.918  72.674 220.956 -0.42 -0.00    +0.024 C  
DOCKED: ATOM     23  C   UNL     1     144.983  74.088 220.431 -0.52 -0.01    +0.035 C  
DOCKED: BRANCH  21  24
DOCKED: ATOM     24  C   UNL     1     143.502  75.368 218.934 -0.24 -0.08    +0.150 A  
DOCKED: ATOM     25  N   UNL     1     143.472  75.795 217.637 -0.14 +0.13    -0.238 NA 
DOCKED: ATOM     26  N   UNL     1     143.036  76.237 219.841 -0.24 +0.16    -0.238 NA 
DOCKED: ATOM     27  C   UNL     1     143.015  76.990 217.269 -0.22 -0.09    +0.135 A  
DOCKED: ATOM     28  C   UNL     1     142.560  77.459 219.534 -0.23 -0.10    +0.135 A  
DOCKED: ATOM     29  C   UNL     1     142.539  77.867 218.220 -0.29 -0.06    +0.077 A  
DOCKED: ATOM     30  Cl  UNL     1     141.926  79.445 217.817 -0.33 +0.06    -0.081 Cl 
DOCKED: ENDBRANCH  21  24
DOCKED: ENDBRANCH  17  19
DOCKED: ENDBRANCH   1  17
DOCKED: TORSDOF 5
DOCKED: TER
DOCKED: ENDMDL
________________________________________________________________________________


    FINAL DOCKED STATE:
    ________________________


Run:   5 / 20
Time taken for this run:   0.033s

DOCKED: MODEL        5
DOCKED: USER    Run = 5
DOCKED: USER
DOCKED: USER    Estimated Free Energy of Binding    =  -6.32 kcal/mol  [=(1)+(2)+(3)-(4)]
DOCKED: USER
DOCKED: USER    (1) Final Intermolecular Energy     =  -7.81 kcal/mol
DOCKED: USER        vdW + Hbond + desolv Energy     =  -7.80 kcal/mol
DOCKED: USER        Electrostatic Energy            =  -0.01 kcal/mol
DOCKED: USER        Moving Ligand-Fixed Receptor    =  -7.81 kcal/mol
DOCKED: USER        Moving Ligand-Moving Receptor   =  +0.00 kcal/mol
DOCKED: USER    (2) Final Total Internal Energy     =  -3.29 kcal/mol
DOCKED: USER    (3) Torsional Free Energy           =  +1.49 kcal/mol
DOCKED: USER    (4) Unbound System's Energy         =  -3.29 kcal/mol
DOCKED: USER
DOCKED: USER
DOCKED: REMARK SMILES O=C(NCC(=O)N1CCC[C@@H]1c1ncc(Cl)cn1)c1ccc2cc(F)ccc2n1
DOCKED: REMARK SMILES IDX 4 1 3 2 2 3 1 4 19 6 20 7 29 8 21 9 28 10 22 11 27 12 23 13
DOCKED: REMARK SMILES IDX 26 14 24 15 25 16 5 17 6 18 7 19 8 20 11 21 9 22 10 23 12 24
DOCKED: REMARK SMILES IDX 13 25 18 26 14 27 17 28 15 29 16 30
DOCKED: REMARK H PARENT 3 5
DOCKED: USER                              x       y       z     vdW  Elec       q    Type
DOCKED: USER                           _______ _______ _______ _____ _____    ______ ____
DOCKED: ROOT
DOCKED: ATOM      1  C   UNL     1     141.022  73.429 220.904 -0.17 -0.03    +0.216 C  
DOCKED: ENDROOT
DOCKED: BRANCH   1   2
DOCKED: ATOM      2  N   UNL     1     141.236  74.742 221.382 -0.16 +0.07    -0.342 N  
DOCKED: ATOM      3  C   UNL     1     140.076  75.475 221.851 -0.21 -0.05    +0.270 C  
DOCKED: ATOM      4  O   UNL     1     138.989  74.839 221.774 -0.27 +0.06    -0.268 OA 
DOCKED: ATOM      5  H   UNL     1     142.159  75.248 221.435 -0.25 -0.07    +0.164 HD 
DOCKED: BRANCH   3   6
DOCKED: ATOM      6  C   UNL     1     140.205  76.817 222.355 -0.33 -0.03    +0.128 A  
DOCKED: ATOM      7  C   UNL     1     139.066  77.495 222.715 -0.29 -0.01    +0.035 A  
DOCKED: ATOM      8  N   UNL     1     141.417  77.372 222.460 -0.14 +0.12    -0.243 NA 
DOCKED: ATOM      9  C   UNL     1     139.248  78.791 223.196 -0.33 -0.00    +0.013 A  
DOCKED: ATOM     10  C   UNL     1     141.622  78.620 222.920 -0.48 -0.03    +0.071 A  
DOCKED: ATOM     11  C   UNL     1     140.513  79.355 223.300 -0.47 -0.00    +0.003 A  
DOCKED: ATOM     12  C   UNL     1     142.909  79.104 222.992 -0.27 -0.02    +0.032 A  
DOCKED: ATOM     13  C   UNL     1     140.737  80.623 223.767 -0.41 -0.01    +0.049 A  
DOCKED: ATOM     14  C   UNL     1     143.123  80.383 223.464 -0.62 -0.01    +0.041 A  
DOCKED: ATOM     15  C   UNL     1     142.022  81.137 223.850 -0.52 -0.02    +0.123 A  
DOCKED: ATOM     16  F   UNL     1     142.284  82.386 224.306 +0.03 -0.00    -0.207 F  
DOCKED: ENDBRANCH   3   6
DOCKED: ENDBRANCH   1   2
DOCKED: BRANCH   1  17
DOCKED: ATOM     17  C   UNL     1     141.993  72.808 220.008 -0.10 -0.04    +0.242 C  
DOCKED: ATOM     18  O   UNL     1     141.460  71.960 219.173 -0.03 +0.05    -0.273 OA 
DOCKED: BRANCH  17  19
DOCKED: ATOM     19  N   UNL     1     143.373  72.965 219.895 -0.09 +0.05    -0.331 N  
DOCKED: ATOM     20  C   UNL     1     144.497  72.090 220.279 -0.28 -0.01    +0.120 C  
DOCKED: ATOM     21  C   UNL     1     144.104  74.135 219.362 -0.26 -0.05    +0.153 C  
DOCKED: ATOM     22  C   UNL     1     145.286  73.048 221.123 -0.55 -0.00    +0.024 C  
DOCKED: ATOM     23  C   UNL     1     145.034  74.420 220.546 -0.42 -0.01    +0.035 C  
DOCKED: BRANCH  21  24
DOCKED: ATOM     24  C   UNL     1     143.269  75.292 219.063 -0.25 -0.07    +0.150 A  
DOCKED: ATOM     25  N   UNL     1     143.284  76.338 219.942 -0.22 +0.17    -0.238 NA 
DOCKED: ATOM     26  N   UNL     1     142.448  75.429 218.014 -0.07 +0.10    -0.238 NA 
DOCKED: ATOM     27  C   UNL     1     142.541  77.433 219.792 -0.21 -0.10    +0.135 A  
DOCKED: ATOM     28  C   UNL     1     141.672  76.509 217.804 -0.09 -0.06    +0.135 A  
DOCKED: ATOM     29  C   UNL     1     141.703  77.551 218.703 -0.19 -0.04    +0.077 A  
DOCKED: ATOM     30  Cl  UNL     1     140.702  78.950 218.437 -0.15 +0.04    -0.081 Cl 
DOCKED: ENDBRANCH  21  24
DOCKED: ENDBRANCH  17  19
DOCKED: ENDBRANCH   1  17
DOCKED: TORSDOF 5
DOCKED: TER
DOCKED: ENDMDL
________________________________________________________________________________


    FINAL DOCKED STATE:
    ________________________


Run:   6 / 20
Time taken for this run:   0.033s

DOCKED: MODEL        6
DOCKED: USER    Run = 6
DOCKED: USER
DOCKED: USER    Estimated Free Energy of Binding    =  -7.17 kcal/mol  [=(1)+(2)+(3)-(4)]
DOCKED: USER
DOCKED: USER    (1) Final Intermolecular Energy     =  -8.66 kcal/mol
DOCKED: USER        vdW + Hbond + desolv Energy     =  -8.65 kcal/mol
DOCKED: USER        Electrostatic Energy            =  -0.00 kcal/mol
DOCKED: USER        Moving Ligand-Fixed Receptor    =  -8.66 kcal/mol
DOCKED: USER        Moving Ligand-Moving Receptor   =  +0.00 kcal/mol
DOCKED: USER    (2) Final Total Internal Energy     =  -2.47 kcal/mol
DOCKED: USER    (3) Torsional Free Energy           =  +1.49 kcal/mol
DOCKED: USER    (4) Unbound System's Energy         =  -2.47 kcal/mol
DOCKED: USER
DOCKED: USER
DOCKED: REMARK SMILES O=C(NCC(=O)N1CCC[C@@H]1c1ncc(Cl)cn1)c1ccc2cc(F)ccc2n1
DOCKED: REMARK SMILES IDX 4 1 3 2 2 3 1 4 19 6 20 7 29 8 21 9 28 10 22 11 27 12 23 13
DOCKED: REMARK SMILES IDX 26 14 24 15 25 16 5 17 6 18 7 19 8 20 11 21 9 22 10 23 12 24
DOCKED: REMARK SMILES IDX 13 25 18 26 14 27 17 28 15 29 16 30
DOCKED: REMARK H PARENT 3 5
DOCKED: USER                              x       y       z     vdW  Elec       q    Type
DOCKED: USER                           _______ _______ _______ _____ _____    ______ ____
DOCKED: ROOT
DOCKED: ATOM      1  C   UNL     1     137.673  73.201 221.222 -0.07 -0.05    +0.216 C  
DOCKED: ENDROOT
DOCKED: BRANCH   1   2
DOCKED: ATOM      2  N   UNL     1     138.289  72.626 222.357 -0.07 +0.11    -0.342 N  
DOCKED: ATOM      3  C   UNL     1     138.086  71.206 222.574 -0.11 -0.06    +0.270 C  
DOCKED: ATOM      4  O   UNL     1     137.368  70.641 221.704 -0.03 +0.05    -0.268 OA 
DOCKED: ATOM      5  H   UNL     1     138.885  73.125 223.068 -0.47 -0.08    +0.164 HD 
DOCKED: BRANCH   3   6
DOCKED: ATOM      6  C   UNL     1     138.678  70.541 223.705 -0.24 -0.02    +0.128 A  
DOCKED: ATOM      7  C   UNL     1     138.583  69.172 223.784 -0.28 -0.00    +0.035 A  
DOCKED: ATOM      8  N   UNL     1     139.300  71.259 224.646 -0.22 +0.06    -0.243 NA 
DOCKED: ATOM      9  C   UNL     1     139.172  68.579 224.899 -0.40 -0.00    +0.013 A  
DOCKED: ATOM     10  C   UNL     1     139.876  70.713 225.732 -0.44 -0.01    +0.071 A  
DOCKED: ATOM     11  C   UNL     1     139.815  69.337 225.869 -0.47 -0.00    +0.003 A  
DOCKED: ATOM     12  C   UNL     1     140.494  71.536 226.647 -0.63 -0.01    +0.032 A  
DOCKED: ATOM     13  C   UNL     1     140.407  68.795 226.980 -0.58 -0.01    +0.049 A  
DOCKED: ATOM     14  C   UNL     1     141.087  70.979 227.761 -0.66 -0.01    +0.041 A  
DOCKED: ATOM     15  C   UNL     1     141.037  69.600 227.918 -0.49 -0.02    +0.123 A  
DOCKED: ATOM     16  F   UNL     1     141.632  69.102 229.029 -0.09 +0.05    -0.207 F  
DOCKED: ENDBRANCH   3   6
DOCKED: ENDBRANCH   1   2
DOCKED: BRANCH   1  17
DOCKED: ATOM     17  C   UNL     1     137.762  74.639 220.990 -0.08 -0.05    +0.242 C  
DOCKED: ATOM     18  O   UNL     1     137.396  74.995 219.791 -0.01 +0.05    -0.273 OA 
DOCKED: BRANCH  17  19
DOCKED: ATOM     19  N   UNL     1     138.165  75.683 221.822 -0.11 +0.08    -0.331 N  
DOCKED: ATOM     20  C   UNL     1     137.427  76.824 222.395 -0.21 -0.02    +0.120 C  
DOCKED: ATOM     21  C   UNL     1     139.524  75.943 222.343 -0.27 -0.03    +0.153 C  
DOCKED: ATOM     22  C   UNL     1     138.307  77.950 221.933 -0.21 -0.00    +0.024 C  
DOCKED: ATOM     23  C   UNL     1     139.707  77.390 221.875 -0.30 -0.01    +0.035 C  
DOCKED: BRANCH  21  24
DOCKED: ATOM     24  C   UNL     1     140.564  75.081 221.793 -0.24 -0.02    +0.150 A  
DOCKED: ATOM     25  N   UNL     1     141.502  75.647 220.977 -0.19 +0.09    -0.238 NA 
DOCKED: ATOM     26  N   UNL     1     140.682  73.760 221.981 -0.73 +0.01    -0.238 NA 
DOCKED: ATOM     27  C   UNL     1     142.478  74.957 220.392 -0.25 -0.05    +0.135 A  
DOCKED: ATOM     28  C   UNL     1     141.646  73.005 221.419 -0.16 -0.01    +0.135 A  
DOCKED: ATOM     29  C   UNL     1     142.580  73.598 220.600 -0.25 -0.02    +0.077 A  
DOCKED: ATOM     30  Cl  UNL     1     143.828  72.627 219.872 -0.37 +0.01    -0.081 Cl 
DOCKED: ENDBRANCH  21  24
DOCKED: ENDBRANCH  17  19
DOCKED: ENDBRANCH   1  17
DOCKED: TORSDOF 5
DOCKED: TER
DOCKED: ENDMDL
________________________________________________________________________________


    FINAL DOCKED STATE:
    ________________________


Run:   7 / 20
Time taken for this run:   0.033s

DOCKED: MODEL        7
DOCKED: USER    Run = 7
DOCKED: USER
DOCKED: USER    Estimated Free Energy of Binding    =  -7.24 kcal/mol  [=(1)+(2)+(3)-(4)]
DOCKED: USER
DOCKED: USER    (1) Final Intermolecular Energy     =  -8.73 kcal/mol
DOCKED: USER        vdW + Hbond + desolv Energy     =  -8.72 kcal/mol
DOCKED: USER        Electrostatic Energy            =  -0.01 kcal/mol
DOCKED: USER        Moving Ligand-Fixed Receptor    =  -8.73 kcal/mol
DOCKED: USER        Moving Ligand-Moving Receptor   =  +0.00 kcal/mol
DOCKED: USER    (2) Final Total Internal Energy     =  -2.46 kcal/mol
DOCKED: USER    (3) Torsional Free Energy           =  +1.49 kcal/mol
DOCKED: USER    (4) Unbound System's Energy         =  -2.46 kcal/mol
DOCKED: USER
DOCKED: USER
DOCKED: REMARK SMILES O=C(NCC(=O)N1CCC[C@@H]1c1ncc(Cl)cn1)c1ccc2cc(F)ccc2n1
DOCKED: REMARK SMILES IDX 4 1 3 2 2 3 1 4 19 6 20 7 29 8 21 9 28 10 22 11 27 12 23 13
DOCKED: REMARK SMILES IDX 26 14 24 15 25 16 5 17 6 18 7 19 8 20 11 21 9 22 10 23 12 24
DOCKED: REMARK SMILES IDX 13 25 18 26 14 27 17 28 15 29 16 30
DOCKED: REMARK H PARENT 3 5
DOCKED: USER                              x       y       z     vdW  Elec       q    Type
DOCKED: USER                           _______ _______ _______ _____ _____    ______ ____
DOCKED: ROOT
DOCKED: ATOM      1  C   UNL     1     137.704  73.111 221.214 -0.07 -0.05    +0.216 C  
DOCKED: ENDROOT
DOCKED: BRANCH   1   2
DOCKED: ATOM      2  N   UNL     1     138.302  72.538 222.360 -0.08 +0.10    -0.342 N  
DOCKED: ATOM      3  C   UNL     1     138.145  71.109 222.547 -0.11 -0.06    +0.270 C  
DOCKED: ATOM      4  O   UNL     1     137.478  70.534 221.644 -0.03 +0.05    -0.268 OA 
DOCKED: ATOM      5  H   UNL     1     138.856  73.046 223.099 -0.46 -0.08    +0.164 HD 
DOCKED: BRANCH   3   6
DOCKED: ATOM      6  C   UNL     1     138.722  70.446 223.687 -0.24 -0.02    +0.128 A  
DOCKED: ATOM      7  C   UNL     1     138.620  69.078 223.770 -0.28 -0.00    +0.035 A  
DOCKED: ATOM      8  N   UNL     1     139.339  71.165 224.630 -0.24 +0.05    -0.243 NA 
DOCKED: ATOM      9  C   UNL     1     139.196  68.487 224.894 -0.41 -0.00    +0.013 A  
DOCKED: ATOM     10  C   UNL     1     139.902  70.622 225.724 -0.45 -0.01    +0.071 A  
DOCKED: ATOM     11  C   UNL     1     139.833  69.247 225.867 -0.48 -0.00    +0.003 A  
DOCKED: ATOM     12  C   UNL     1     140.515  71.445 226.641 -0.63 -0.01    +0.032 A  
DOCKED: ATOM     13  C   UNL     1     140.412  68.707 226.985 -0.59 -0.01    +0.049 A  
DOCKED: ATOM     14  C   UNL     1     141.095  70.891 227.764 -0.64 -0.01    +0.041 A  
DOCKED: ATOM     15  C   UNL     1     141.036  69.513 227.926 -0.49 -0.03    +0.123 A  
DOCKED: ATOM     16  F   UNL     1     141.619  69.017 229.045 -0.10 +0.05    -0.207 F  
DOCKED: ENDBRANCH   3   6
DOCKED: ENDBRANCH   1   2
DOCKED: BRANCH   1  17
DOCKED: ATOM     17  C   UNL     1     137.713  74.558 221.028 -0.08 -0.05    +0.242 C  
DOCKED: ATOM     18  O   UNL     1     137.293  74.933 219.852 -0.01 +0.05    -0.273 OA 
DOCKED: BRANCH  17  19
DOCKED: ATOM     19  N   UNL     1     138.090  75.594 221.882 -0.12 +0.08    -0.331 N  
DOCKED: ATOM     20  C   UNL     1     137.314  76.672 222.523 -0.22 -0.02    +0.120 C  
DOCKED: ATOM     21  C   UNL     1     139.453  75.913 222.360 -0.26 -0.03    +0.153 C  
DOCKED: ATOM     22  C   UNL     1     138.111  77.861 222.069 -0.21 -0.00    +0.024 C  
DOCKED: ATOM     23  C   UNL     1     139.537  77.383 221.939 -0.30 -0.01    +0.035 C  
DOCKED: BRANCH  21  24
DOCKED: ATOM     24  C   UNL     1     140.517  75.130 221.741 -0.25 -0.02    +0.150 A  
DOCKED: ATOM     25  N   UNL     1     140.588  73.799 222.037 -0.74 +0.00    -0.238 NA 
DOCKED: ATOM     26  N   UNL     1     141.471  75.594 220.923 -0.19 +0.09    -0.238 NA 
DOCKED: ATOM     27  C   UNL     1     141.532  72.991 221.559 -0.17 -0.01    +0.135 A  
DOCKED: ATOM     28  C   UNL     1     142.452  74.831 220.406 -0.25 -0.05    +0.135 A  
DOCKED: ATOM     29  C   UNL     1     142.504  73.491 220.718 -0.24 -0.01    +0.077 A  
DOCKED: ATOM     30  Cl  UNL     1     143.770  72.500 220.053 -0.38 +0.01    -0.081 Cl 
DOCKED: ENDBRANCH  21  24
DOCKED: ENDBRANCH  17  19
DOCKED: ENDBRANCH   1  17
DOCKED: TORSDOF 5
DOCKED: TER
DOCKED: ENDMDL
________________________________________________________________________________


    FINAL DOCKED STATE:
    ________________________


Run:   8 / 20
Time taken for this run:   0.033s

DOCKED: MODEL        8
DOCKED: USER    Run = 8
DOCKED: USER
DOCKED: USER    Estimated Free Energy of Binding    =  -7.25 kcal/mol  [=(1)+(2)+(3)-(4)]
DOCKED: USER
DOCKED: USER    (1) Final Intermolecular Energy     =  -8.74 kcal/mol
DOCKED: USER        vdW + Hbond + desolv Energy     =  -8.73 kcal/mol
DOCKED: USER        Electrostatic Energy            =  -0.01 kcal/mol
DOCKED: USER        Moving Ligand-Fixed Receptor    =  -8.74 kcal/mol
DOCKED: USER        Moving Ligand-Moving Receptor   =  +0.00 kcal/mol
DOCKED: USER    (2) Final Total Internal Energy     =  -2.45 kcal/mol
DOCKED: USER    (3) Torsional Free Energy           =  +1.49 kcal/mol
DOCKED: USER    (4) Unbound System's Energy         =  -2.45 kcal/mol
DOCKED: USER
DOCKED: USER
DOCKED: REMARK SMILES O=C(NCC(=O)N1CCC[C@@H]1c1ncc(Cl)cn1)c1ccc2cc(F)ccc2n1
DOCKED: REMARK SMILES IDX 4 1 3 2 2 3 1 4 19 6 20 7 29 8 21 9 28 10 22 11 27 12 23 13
DOCKED: REMARK SMILES IDX 26 14 24 15 25 16 5 17 6 18 7 19 8 20 11 21 9 22 10 23 12 24
DOCKED: REMARK SMILES IDX 13 25 18 26 14 27 17 28 15 29 16 30
DOCKED: REMARK H PARENT 3 5
DOCKED: USER                              x       y       z     vdW  Elec       q    Type
DOCKED: USER                           _______ _______ _______ _____ _____    ______ ____
DOCKED: ROOT
DOCKED: ATOM      1  C   UNL     1     137.652  73.081 221.254 -0.07 -0.05    +0.216 C  
DOCKED: ENDROOT
DOCKED: BRANCH   1   2
DOCKED: ATOM      2  N   UNL     1     138.263  72.517 222.397 -0.07 +0.11    -0.342 N  
DOCKED: ATOM      3  C   UNL     1     138.096  71.091 222.603 -0.11 -0.06    +0.270 C  
DOCKED: ATOM      4  O   UNL     1     137.409  70.512 221.718 -0.03 +0.05    -0.268 OA 
DOCKED: ATOM      5  H   UNL     1     138.833  73.029 223.120 -0.46 -0.09    +0.164 HD 
DOCKED: BRANCH   3   6
DOCKED: ATOM      6  C   UNL     1     138.686  70.437 223.742 -0.24 -0.02    +0.128 A  
DOCKED: ATOM      7  C   UNL     1     138.596  69.069 223.830 -0.28 -0.00    +0.035 A  
DOCKED: ATOM      8  N   UNL     1     139.302  71.165 224.679 -0.24 +0.05    -0.243 NA 
DOCKED: ATOM      9  C   UNL     1     139.184  68.486 224.953 -0.41 -0.00    +0.013 A  
DOCKED: ATOM     10  C   UNL     1     139.876  70.630 225.772 -0.44 -0.01    +0.071 A  
DOCKED: ATOM     11  C   UNL     1     139.820  69.255 225.919 -0.48 -0.00    +0.003 A  
DOCKED: ATOM     12  C   UNL     1     140.488  71.461 226.682 -0.63 -0.01    +0.032 A  
DOCKED: ATOM     13  C   UNL     1     140.410  68.724 227.036 -0.59 -0.01    +0.049 A  
DOCKED: ATOM     14  C   UNL     1     141.079  70.916 227.803 -0.66 -0.01    +0.041 A  
DOCKED: ATOM     15  C   UNL     1     141.033  69.538 227.970 -0.49 -0.03    +0.123 A  
DOCKED: ATOM     16  F   UNL     1     141.627  69.050 229.087 -0.10 +0.05    -0.207 F  
DOCKED: ENDBRANCH   3   6
DOCKED: ENDBRANCH   1   2
DOCKED: BRANCH   1  17
DOCKED: ATOM     17  C   UNL     1     137.673  74.526 221.048 -0.08 -0.05    +0.242 C  
DOCKED: ATOM     18  O   UNL     1     137.292  74.886 219.855 -0.01 +0.05    -0.273 OA 
DOCKED: BRANCH  17  19
DOCKED: ATOM     19  N   UNL     1     138.027  75.572 221.900 -0.12 +0.08    -0.331 N  
DOCKED: ATOM     20  C   UNL     1     137.227  76.636 222.535 -0.22 -0.02    +0.120 C  
DOCKED: ATOM     21  C   UNL     1     139.381  75.919 222.381 -0.25 -0.03    +0.153 C  
DOCKED: ATOM     22  C   UNL     1     138.002  77.839 222.080 -0.21 -0.00    +0.024 C  
DOCKED: ATOM     23  C   UNL     1     139.437  77.389 221.955 -0.29 -0.01    +0.035 C  
DOCKED: BRANCH  21  24
DOCKED: ATOM     24  C   UNL     1     140.462  75.156 221.768 -0.25 -0.02    +0.150 A  
DOCKED: ATOM     25  N   UNL     1     140.542  73.821 222.046 -0.74 +0.00    -0.238 NA 
DOCKED: ATOM     26  N   UNL     1     141.425  75.640 220.972 -0.20 +0.09    -0.238 NA 
DOCKED: ATOM     27  C   UNL     1     141.502  73.029 221.571 -0.18 -0.01    +0.135 A  
DOCKED: ATOM     28  C   UNL     1     142.422  74.894 220.460 -0.26 -0.05    +0.135 A  
DOCKED: ATOM     29  C   UNL     1     142.482  73.551 220.753 -0.24 -0.01    +0.077 A  
DOCKED: ATOM     30  Cl  UNL     1     143.768  72.581 220.094 -0.39 +0.01    -0.081 Cl 
DOCKED: ENDBRANCH  21  24
DOCKED: ENDBRANCH  17  19
DOCKED: ENDBRANCH   1  17
DOCKED: TORSDOF 5
DOCKED: TER
DOCKED: ENDMDL
________________________________________________________________________________


    FINAL DOCKED STATE:
    ________________________


Run:   9 / 20
Time taken for this run:   0.033s

DOCKED: MODEL        9
DOCKED: USER    Run = 9
DOCKED: USER
DOCKED: USER    Estimated Free Energy of Binding    =  -6.82 kcal/mol  [=(1)+(2)+(3)-(4)]
DOCKED: USER
DOCKED: USER    (1) Final Intermolecular Energy     =  -8.31 kcal/mol
DOCKED: USER        vdW + Hbond + desolv Energy     =  -8.26 kcal/mol
DOCKED: USER        Electrostatic Energy            =  -0.05 kcal/mol
DOCKED: USER        Moving Ligand-Fixed Receptor    =  -8.31 kcal/mol
DOCKED: USER        Moving Ligand-Moving Receptor   =  +0.00 kcal/mol
DOCKED: USER    (2) Final Total Internal Energy     =  -2.76 kcal/mol
DOCKED: USER    (3) Torsional Free Energy           =  +1.49 kcal/mol
DOCKED: USER    (4) Unbound System's Energy         =  -2.76 kcal/mol
DOCKED: USER
DOCKED: USER
DOCKED: REMARK SMILES O=C(NCC(=O)N1CCC[C@@H]1c1ncc(Cl)cn1)c1ccc2cc(F)ccc2n1
DOCKED: REMARK SMILES IDX 4 1 3 2 2 3 1 4 19 6 20 7 29 8 21 9 28 10 22 11 27 12 23 13
DOCKED: REMARK SMILES IDX 26 14 24 15 25 16 5 17 6 18 7 19 8 20 11 21 9 22 10 23 12 24
DOCKED: REMARK SMILES IDX 13 25 18 26 14 27 17 28 15 29 16 30
DOCKED: REMARK H PARENT 3 5
DOCKED: USER                              x       y       z     vdW  Elec       q    Type
DOCKED: USER                           _______ _______ _______ _____ _____    ______ ____
DOCKED: ROOT
DOCKED: ATOM      1  C   UNL     1     137.212  73.701 221.931 -0.10 -0.06    +0.216 C  
DOCKED: ENDROOT
DOCKED: BRANCH   1   2
DOCKED: ATOM      2  N   UNL     1     137.961  74.827 222.343 -0.06 +0.12    -0.342 N  
DOCKED: ATOM      3  C   UNL     1     137.372  76.134 222.119 -0.15 -0.06    +0.270 C  
DOCKED: ATOM      4  O   UNL     1     136.236  76.108 221.570 -0.05 +0.05    -0.268 OA 
DOCKED: ATOM      5  H   UNL     1     138.910  74.817 222.800 -0.47 -0.06    +0.164 HD 
DOCKED: BRANCH   3   6
DOCKED: ATOM      6  C   UNL     1     138.067  77.333 222.508 -0.23 -0.02    +0.128 A  
DOCKED: ATOM      7  C   UNL     1     137.333  78.473 222.728 -0.20 -0.01    +0.035 A  
DOCKED: ATOM      8  N   UNL     1     139.397  77.313 222.645 -0.19 +0.05    -0.243 NA 
DOCKED: ATOM      9  C   UNL     1     138.056  79.606 223.103 -0.28 -0.00    +0.013 A  
DOCKED: ATOM     10  C   UNL     1     140.119  78.390 223.003 -0.33 -0.02    +0.071 A  
DOCKED: ATOM     11  C   UNL     1     139.438  79.571 223.241 -0.39 -0.00    +0.003 A  
DOCKED: ATOM     12  C   UNL     1     141.486  78.272 223.119 -0.52 -0.01    +0.032 A  
DOCKED: ATOM     13  C   UNL     1     140.186  80.659 223.607 -0.39 -0.01    +0.049 A  
DOCKED: ATOM     14  C   UNL     1     142.229  79.374 223.488 -0.59 -0.01    +0.041 A  
DOCKED: ATOM     15  C   UNL     1     141.565  80.569 223.730 -0.47 -0.02    +0.123 A  
DOCKED: ATOM     16  F   UNL     1     142.338  81.622 224.088 -0.20 +0.02    -0.207 F  
DOCKED: ENDBRANCH   3   6
DOCKED: ENDBRANCH   1   2
DOCKED: BRANCH   1  17
DOCKED: ATOM     17  C   UNL     1     137.890  72.455 221.589 -0.08 -0.06    +0.242 C  
DOCKED: ATOM     18  O   UNL     1     137.666  72.061 220.367 -0.02 +0.05    -0.273 OA 
DOCKED: BRANCH  17  19
DOCKED: ATOM     19  N   UNL     1     138.726  71.626 222.337 -0.08 +0.07    -0.331 N  
DOCKED: ATOM     20  C   UNL     1     138.437  70.500 223.244 -0.21 -0.02    +0.120 C  
DOCKED: ATOM     21  C   UNL     1     140.199  71.695 222.442 -0.25 -0.02    +0.153 C  
DOCKED: ATOM     22  C   UNL     1     139.175  70.965 224.466 -0.37 -0.01    +0.024 C  
DOCKED: ATOM     23  C   UNL     1     140.346  71.775 223.964 -0.36 -0.01    +0.035 C  
DOCKED: BRANCH  21  24
DOCKED: ATOM     24  C   UNL     1     140.805  72.854 221.797 -0.24 -0.01    +0.150 A  
DOCKED: ATOM     25  N   UNL     1     141.751  72.633 220.837 -0.13 +0.03    -0.238 NA 
DOCKED: ATOM     26  N   UNL     1     140.550  74.140 222.073 -0.72 -0.00    -0.238 NA 
DOCKED: ATOM     27  C   UNL     1     142.395  73.610 220.203 -0.19 -0.03    +0.135 A  
DOCKED: ATOM     28  C   UNL     1     141.166  75.174 221.469 -0.28 -0.03    +0.135 A  
DOCKED: ATOM     29  C   UNL     1     142.116  74.926 220.505 -0.27 -0.03    +0.077 A  
DOCKED: ATOM     30  Cl  UNL     1     142.915  76.258 219.719 -0.46 +0.05    -0.081 Cl 
DOCKED: ENDBRANCH  21  24
DOCKED: ENDBRANCH  17  19
DOCKED: ENDBRANCH   1  17
DOCKED: TORSDOF 5
DOCKED: TER
DOCKED: ENDMDL
________________________________________________________________________________


    FINAL DOCKED STATE:
    ________________________


Run:   10 / 20
Time taken for this run:   0.033s

DOCKED: MODEL        10
DOCKED: USER    Run = 10
DOCKED: USER
DOCKED: USER    Estimated Free Energy of Binding    =  -6.72 kcal/mol  [=(1)+(2)+(3)-(4)]
DOCKED: USER
DOCKED: USER    (1) Final Intermolecular Energy     =  -8.22 kcal/mol
DOCKED: USER        vdW + Hbond + desolv Energy     =  -8.20 kcal/mol
DOCKED: USER        Electrostatic Energy            =  -0.01 kcal/mol
DOCKED: USER        Moving Ligand-Fixed Receptor    =  -8.22 kcal/mol
DOCKED: USER        Moving Ligand-Moving Receptor   =  +0.00 kcal/mol
DOCKED: USER    (2) Final Total Internal Energy     =  -2.94 kcal/mol
DOCKED: USER    (3) Torsional Free Energy           =  +1.49 kcal/mol
DOCKED: USER    (4) Unbound System's Energy         =  -2.94 kcal/mol
DOCKED: USER
DOCKED: USER
DOCKED: REMARK SMILES O=C(NCC(=O)N1CCC[C@@H]1c1ncc(Cl)cn1)c1ccc2cc(F)ccc2n1
DOCKED: REMARK SMILES IDX 4 1 3 2 2 3 1 4 19 6 20 7 29 8 21 9 28 10 22 11 27 12 23 13
DOCKED: REMARK SMILES IDX 26 14 24 15 25 16 5 17 6 18 7 19 8 20 11 21 9 22 10 23 12 24
DOCKED: REMARK SMILES IDX 13 25 18 26 14 27 17 28 15 29 16 30
DOCKED: REMARK H PARENT 3 5
DOCKED: USER                              x       y       z     vdW  Elec       q    Type
DOCKED: USER                           _______ _______ _______ _____ _____    ______ ____
DOCKED: ROOT
DOCKED: ATOM      1  C   UNL     1     140.980  73.587 220.816 -0.17 -0.04    +0.216 C  
DOCKED: ENDROOT
DOCKED: BRANCH   1   2
DOCKED: ATOM      2  N   UNL     1     141.227  74.866 221.364 -0.17 +0.07    -0.342 N  
DOCKED: ATOM      3  C   UNL     1     140.073  75.679 221.696 -0.23 -0.06    +0.270 C  
DOCKED: ATOM      4  O   UNL     1     138.962  75.135 221.451 -0.17 +0.06    -0.268 OA 
DOCKED: ATOM      5  H   UNL     1     142.170  75.294 221.559 -0.33 -0.08    +0.164 HD 
DOCKED: BRANCH   3   6
DOCKED: ATOM      6  C   UNL     1     140.235  76.995 222.259 -0.33 -0.03    +0.128 A  
DOCKED: ATOM      7  C   UNL     1     139.115  77.669 222.681 -0.29 -0.01    +0.035 A  
DOCKED: ATOM      8  N   UNL     1     141.457  77.527 222.357 -0.15 +0.13    -0.243 NA 
DOCKED: ATOM      9  C   UNL     1     139.328  78.939 223.217 -0.35 -0.00    +0.013 A  
DOCKED: ATOM     10  C   UNL     1     141.692  78.749 222.869 -0.49 -0.03    +0.071 A  
DOCKED: ATOM     11  C   UNL     1     140.604  79.480 223.313 -0.48 -0.00    +0.003 A  
DOCKED: ATOM     12  C   UNL     1     142.987  79.213 222.930 -0.29 -0.02    +0.032 A  
DOCKED: ATOM     13  C   UNL     1     140.858  80.722 223.833 -0.41 -0.01    +0.049 A  
DOCKED: ATOM     14  C   UNL     1     143.231  80.465 223.455 -0.62 -0.01    +0.041 A  
DOCKED: ATOM     15  C   UNL     1     142.153  81.214 223.906 -0.52 -0.02    +0.123 A  
DOCKED: ATOM     16  F   UNL     1     142.444  82.437 224.412 +0.07 -0.00    -0.207 F  
DOCKED: ENDBRANCH   3   6
DOCKED: ENDBRANCH   1   2
DOCKED: BRANCH   1  17
DOCKED: ATOM     17  C   UNL     1     141.885  73.031 219.815 -0.09 -0.05    +0.242 C  
DOCKED: ATOM     18  O   UNL     1     141.268  72.507 218.792 -0.02 +0.05    -0.273 OA 
DOCKED: BRANCH  17  19
DOCKED: ATOM     19  N   UNL     1     143.277  72.966 219.766 -0.07 +0.06    -0.331 N  
DOCKED: ATOM     20  C   UNL     1     144.227  71.915 220.176 -0.26 -0.01    +0.120 C  
DOCKED: ATOM     21  C   UNL     1     144.209  74.013 219.295 -0.24 -0.04    +0.153 C  
DOCKED: ATOM     22  C   UNL     1     145.118  72.719 221.078 -0.41 -0.00    +0.024 C  
DOCKED: ATOM     23  C   UNL     1     145.115  74.124 220.525 -0.53 -0.01    +0.035 C  
DOCKED: BRANCH  21  24
DOCKED: ATOM     24  C   UNL     1     143.584  75.295 218.989 -0.24 -0.08    +0.150 A  
DOCKED: ATOM     25  N   UNL     1     143.501  75.671 217.679 -0.13 +0.12    -0.238 NA 
DOCKED: ATOM     26  N   UNL     1     143.103  76.176 219.876 -0.23 +0.16    -0.238 NA 
DOCKED: ATOM     27  C   UNL     1     142.983  76.831 217.280 -0.22 -0.09    +0.135 A  
DOCKED: ATOM     28  C   UNL     1     142.567  77.364 219.539 -0.25 -0.10    +0.135 A  
DOCKED: ATOM     29  C   UNL     1     142.493  77.722 218.212 -0.28 -0.05    +0.077 A  
DOCKED: ATOM     30  Cl  UNL     1     141.800  79.255 217.769 -0.30 +0.06    -0.081 Cl 
DOCKED: ENDBRANCH  21  24
DOCKED: ENDBRANCH  17  19
DOCKED: ENDBRANCH   1  17
DOCKED: TORSDOF 5
DOCKED: TER
DOCKED: ENDMDL
________________________________________________________________________________


    FINAL DOCKED STATE:
    ________________________


Run:   11 / 20
Time taken for this run:   0.033s

DOCKED: MODEL        11
DOCKED: USER    Run = 11
DOCKED: USER
DOCKED: USER    Estimated Free Energy of Binding    =  -7.24 kcal/mol  [=(1)+(2)+(3)-(4)]
DOCKED: USER
DOCKED: USER    (1) Final Intermolecular Energy     =  -8.73 kcal/mol
DOCKED: USER        vdW + Hbond + desolv Energy     =  -8.72 kcal/mol
DOCKED: USER        Electrostatic Energy            =  -0.01 kcal/mol
DOCKED: USER        Moving Ligand-Fixed Receptor    =  -8.73 kcal/mol
DOCKED: USER        Moving Ligand-Moving Receptor   =  +0.00 kcal/mol
DOCKED: USER    (2) Final Total Internal Energy     =  -2.46 kcal/mol
DOCKED: USER    (3) Torsional Free Energy           =  +1.49 kcal/mol
DOCKED: USER    (4) Unbound System's Energy         =  -2.46 kcal/mol
DOCKED: USER
DOCKED: USER
DOCKED: REMARK SMILES O=C(NCC(=O)N1CCC[C@@H]1c1ncc(Cl)cn1)c1ccc2cc(F)ccc2n1
DOCKED: REMARK SMILES IDX 4 1 3 2 2 3 1 4 19 6 20 7 29 8 21 9 28 10 22 11 27 12 23 13
DOCKED: REMARK SMILES IDX 26 14 24 15 25 16 5 17 6 18 7 19 8 20 11 21 9 22 10 23 12 24
DOCKED: REMARK SMILES IDX 13 25 18 26 14 27 17 28 15 29 16 30
DOCKED: REMARK H PARENT 3 5
DOCKED: USER                              x       y       z     vdW  Elec       q    Type
DOCKED: USER                           _______ _______ _______ _____ _____    ______ ____
DOCKED: ROOT
DOCKED: ATOM      1  C   UNL     1     137.687  73.090 221.202 -0.07 -0.05    +0.216 C  
DOCKED: ENDROOT
DOCKED: BRANCH   1   2
DOCKED: ATOM      2  N   UNL     1     138.275  72.528 222.358 -0.08 +0.10    -0.342 N  
DOCKED: ATOM      3  C   UNL     1     138.129  71.097 222.548 -0.11 -0.06    +0.270 C  
DOCKED: ATOM      4  O   UNL     1     137.479  70.513 221.638 -0.03 +0.05    -0.268 OA 
DOCKED: ATOM      5  H   UNL     1     138.814  73.044 223.102 -0.46 -0.09    +0.164 HD 
DOCKED: BRANCH   3   6
DOCKED: ATOM      6  C   UNL     1     138.697  70.444 223.698 -0.24 -0.02    +0.128 A  
DOCKED: ATOM      7  C   UNL     1     138.587  69.078 223.796 -0.28 -0.00    +0.035 A  
DOCKED: ATOM      8  N   UNL     1     139.312  71.171 224.636 -0.24 +0.05    -0.243 NA 
DOCKED: ATOM      9  C   UNL     1     139.154  68.496 224.929 -0.41 -0.00    +0.013 A  
DOCKED: ATOM     10  C   UNL     1     139.867  70.637 225.739 -0.44 -0.01    +0.071 A  
DOCKED: ATOM     11  C   UNL     1     139.790  69.264 225.897 -0.48 -0.00    +0.003 A  
DOCKED: ATOM     12  C   UNL     1     140.480  71.467 226.650 -0.63 -0.01    +0.032 A  
DOCKED: ATOM     13  C   UNL     1     140.361  68.733 227.024 -0.59 -0.01    +0.049 A  
DOCKED: ATOM     14  C   UNL     1     141.051  70.922 227.782 -0.66 -0.01    +0.041 A  
DOCKED: ATOM     15  C   UNL     1     140.984  69.546 227.959 -0.50 -0.02    +0.123 A  
DOCKED: ATOM     16  F   UNL     1     141.558  69.060 229.086 -0.09 +0.05    -0.207 F  
DOCKED: ENDBRANCH   3   6
DOCKED: ENDBRANCH   1   2
DOCKED: BRANCH   1  17
DOCKED: ATOM     17  C   UNL     1     137.692  74.537 221.007 -0.07 -0.05    +0.242 C  
DOCKED: ATOM     18  O   UNL     1     137.270  74.903 219.829 -0.01 +0.05    -0.273 OA 
DOCKED: BRANCH  17  19
DOCKED: ATOM     19  N   UNL     1     138.066  75.579 221.854 -0.11 +0.08    -0.331 N  
DOCKED: ATOM     20  C   UNL     1     137.288  76.663 222.482 -0.22 -0.02    +0.120 C  
DOCKED: ATOM     21  C   UNL     1     139.426  75.899 222.338 -0.26 -0.03    +0.153 C  
DOCKED: ATOM     22  C   UNL     1     138.090  77.847 222.023 -0.21 -0.00    +0.024 C  
DOCKED: ATOM     23  C   UNL     1     139.516  77.366 221.905 -0.29 -0.01    +0.035 C  
DOCKED: BRANCH  21  24
DOCKED: ATOM     24  C   UNL     1     140.492  75.110 221.732 -0.25 -0.02    +0.150 A  
DOCKED: ATOM     25  N   UNL     1     140.562  73.782 222.042 -0.74 +0.00    -0.238 NA 
DOCKED: ATOM     26  N   UNL     1     141.449  75.564 220.912 -0.19 +0.09    -0.238 NA 
DOCKED: ATOM     27  C   UNL     1     141.508  72.968 221.577 -0.18 -0.01    +0.135 A  
DOCKED: ATOM     28  C   UNL     1     142.433  74.795 220.407 -0.25 -0.05    +0.135 A  
DOCKED: ATOM     29  C   UNL     1     142.483  73.459 220.734 -0.24 -0.01    +0.077 A  
DOCKED: ATOM     30  Cl  UNL     1     143.751  72.460 220.084 -0.38 +0.01    -0.081 Cl 
DOCKED: ENDBRANCH  21  24
DOCKED: ENDBRANCH  17  19
DOCKED: ENDBRANCH   1  17
DOCKED: TORSDOF 5
DOCKED: TER
DOCKED: ENDMDL
________________________________________________________________________________


    FINAL DOCKED STATE:
    ________________________


Run:   12 / 20
Time taken for this run:   0.033s

DOCKED: MODEL        12
DOCKED: USER    Run = 12
DOCKED: USER
DOCKED: USER    Estimated Free Energy of Binding    =  -7.24 kcal/mol  [=(1)+(2)+(3)-(4)]
DOCKED: USER
DOCKED: USER    (1) Final Intermolecular Energy     =  -8.73 kcal/mol
DOCKED: USER        vdW + Hbond + desolv Energy     =  -8.73 kcal/mol
DOCKED: USER        Electrostatic Energy            =  -0.00 kcal/mol
DOCKED: USER        Moving Ligand-Fixed Receptor    =  -8.73 kcal/mol
DOCKED: USER        Moving Ligand-Moving Receptor   =  +0.00 kcal/mol
DOCKED: USER    (2) Final Total Internal Energy     =  -2.46 kcal/mol
DOCKED: USER    (3) Torsional Free Energy           =  +1.49 kcal/mol
DOCKED: USER    (4) Unbound System's Energy         =  -2.46 kcal/mol
DOCKED: USER
DOCKED: USER
DOCKED: REMARK SMILES O=C(NCC(=O)N1CCC[C@@H]1c1ncc(Cl)cn1)c1ccc2cc(F)ccc2n1
DOCKED: REMARK SMILES IDX 4 1 3 2 2 3 1 4 19 6 20 7 29 8 21 9 28 10 22 11 27 12 23 13
DOCKED: REMARK SMILES IDX 26 14 24 15 25 16 5 17 6 18 7 19 8 20 11 21 9 22 10 23 12 24
DOCKED: REMARK SMILES IDX 13 25 18 26 14 27 17 28 15 29 16 30
DOCKED: REMARK H PARENT 3 5
DOCKED: USER                              x       y       z     vdW  Elec       q    Type
DOCKED: USER                           _______ _______ _______ _____ _____    ______ ____
DOCKED: ROOT
DOCKED: ATOM      1  C   UNL     1     137.726  73.144 221.252 -0.08 -0.05    +0.216 C  
DOCKED: ENDROOT
DOCKED: BRANCH   1   2
DOCKED: ATOM      2  N   UNL     1     138.330  72.561 222.389 -0.07 +0.11    -0.342 N  
DOCKED: ATOM      3  C   UNL     1     138.122  71.140 222.595 -0.11 -0.06    +0.270 C  
DOCKED: ATOM      4  O   UNL     1     137.410  70.583 221.716 -0.03 +0.05    -0.268 OA 
DOCKED: ATOM      5  H   UNL     1     138.921  73.054 223.108 -0.46 -0.08    +0.164 HD 
DOCKED: BRANCH   3   6
DOCKED: ATOM      6  C   UNL     1     138.702  70.467 223.728 -0.24 -0.02    +0.128 A  
DOCKED: ATOM      7  C   UNL     1     138.597  69.099 223.800 -0.28 -0.00    +0.035 A  
DOCKED: ATOM      8  N   UNL     1     139.322  71.177 224.675 -0.24 +0.05    -0.243 NA 
DOCKED: ATOM      9  C   UNL     1     139.176  68.497 224.918 -0.41 -0.00    +0.013 A  
DOCKED: ATOM     10  C   UNL     1     139.888  70.624 225.763 -0.45 -0.01    +0.071 A  
DOCKED: ATOM     11  C   UNL     1     139.817  69.248 225.895 -0.48 -0.00    +0.003 A  
DOCKED: ATOM     12  C   UNL     1     140.505  71.439 226.685 -0.63 -0.01    +0.032 A  
DOCKED: ATOM     13  C   UNL     1     140.399  68.698 227.007 -0.59 -0.01    +0.049 A  
DOCKED: ATOM     14  C   UNL     1     141.087  70.875 227.801 -0.65 -0.01    +0.041 A  
DOCKED: ATOM     15  C   UNL     1     141.027  69.495 227.952 -0.49 -0.03    +0.123 A  
DOCKED: ATOM     16  F   UNL     1     141.612  68.989 229.065 -0.11 +0.05    -0.207 F  
DOCKED: ENDBRANCH   3   6
DOCKED: ENDBRANCH   1   2
DOCKED: BRANCH   1  17
DOCKED: ATOM     17  C   UNL     1     137.805  74.586 221.038 -0.08 -0.05    +0.242 C  
DOCKED: ATOM     18  O   UNL     1     137.433  74.954 219.844 -0.01 +0.05    -0.273 OA 
DOCKED: BRANCH  17  19
DOCKED: ATOM     19  N   UNL     1     138.207  75.621 221.881 -0.12 +0.08    -0.331 N  
DOCKED: ATOM     20  C   UNL     1     137.455  76.720 222.515 -0.22 -0.02    +0.120 C  
DOCKED: ATOM     21  C   UNL     1     139.577  75.916 222.352 -0.26 -0.03    +0.153 C  
DOCKED: ATOM     22  C   UNL     1     138.275  77.888 222.049 -0.22 -0.00    +0.024 C  
DOCKED: ATOM     23  C   UNL     1     139.690  77.381 221.917 -0.30 -0.01    +0.035 C  
DOCKED: BRANCH  21  24
DOCKED: ATOM     24  C   UNL     1     140.622  75.107 221.736 -0.25 -0.02    +0.150 A  
DOCKED: ATOM     25  N   UNL     1     140.659  73.774 222.032 -0.72 +0.00    -0.238 NA 
DOCKED: ATOM     26  N   UNL     1     141.591  75.546 220.921 -0.19 +0.09    -0.238 NA 
DOCKED: ATOM     27  C   UNL     1     141.584  72.942 221.557 -0.15 -0.01    +0.135 A  
DOCKED: ATOM     28  C   UNL     1     142.554  74.757 220.407 -0.26 -0.05    +0.135 A  
DOCKED: ATOM     29  C   UNL     1     142.571  73.417 220.718 -0.24 -0.01    +0.077 A  
DOCKED: ATOM     30  Cl  UNL     1     143.813  72.393 220.057 -0.38 +0.01    -0.081 Cl 
DOCKED: ENDBRANCH  21  24
DOCKED: ENDBRANCH  17  19
DOCKED: ENDBRANCH   1  17
DOCKED: TORSDOF 5
DOCKED: TER
DOCKED: ENDMDL
________________________________________________________________________________


    FINAL DOCKED STATE:
    ________________________


Run:   13 / 20
Time taken for this run:   0.033s

DOCKED: MODEL        13
DOCKED: USER    Run = 13
DOCKED: USER
DOCKED: USER    Estimated Free Energy of Binding    =  -6.82 kcal/mol  [=(1)+(2)+(3)-(4)]
DOCKED: USER
DOCKED: USER    (1) Final Intermolecular Energy     =  -8.31 kcal/mol
DOCKED: USER        vdW + Hbond + desolv Energy     =  -8.26 kcal/mol
DOCKED: USER        Electrostatic Energy            =  -0.05 kcal/mol
DOCKED: USER        Moving Ligand-Fixed Receptor    =  -8.31 kcal/mol
DOCKED: USER        Moving Ligand-Moving Receptor   =  +0.00 kcal/mol
DOCKED: USER    (2) Final Total Internal Energy     =  -2.76 kcal/mol
DOCKED: USER    (3) Torsional Free Energy           =  +1.49 kcal/mol
DOCKED: USER    (4) Unbound System's Energy         =  -2.76 kcal/mol
DOCKED: USER
DOCKED: USER
DOCKED: REMARK SMILES O=C(NCC(=O)N1CCC[C@@H]1c1ncc(Cl)cn1)c1ccc2cc(F)ccc2n1
DOCKED: REMARK SMILES IDX 4 1 3 2 2 3 1 4 19 6 20 7 29 8 21 9 28 10 22 11 27 12 23 13
DOCKED: REMARK SMILES IDX 26 14 24 15 25 16 5 17 6 18 7 19 8 20 11 21 9 22 10 23 12 24
DOCKED: REMARK SMILES IDX 13 25 18 26 14 27 17 28 15 29 16 30
DOCKED: REMARK H PARENT 3 5
DOCKED: USER                              x       y       z     vdW  Elec       q    Type
DOCKED: USER                           _______ _______ _______ _____ _____    ______ ____
DOCKED: ROOT
DOCKED: ATOM      1  C   UNL     1     137.148  74.157 222.094 -0.08 -0.07    +0.216 C  
DOCKED: ENDROOT
DOCKED: BRANCH   1   2
DOCKED: ATOM      2  N   UNL     1     137.952  75.232 222.539 -0.02 +0.11    -0.342 N  
DOCKED: ATOM      3  C   UNL     1     137.500  76.573 222.224 -0.16 -0.06    +0.270 C  
DOCKED: ATOM      4  O   UNL     1     136.418  76.622 221.576 -0.05 +0.05    -0.268 OA 
DOCKED: ATOM      5  H   UNL     1     138.853  75.159 223.079 -0.50 -0.06    +0.164 HD 
DOCKED: BRANCH   3   6
DOCKED: ATOM      6  C   UNL     1     138.258  77.724 222.638 -0.23 -0.02    +0.128 A  
DOCKED: ATOM      7  C   UNL     1     137.580  78.873 222.967 -0.20 -0.01    +0.035 A  
DOCKED: ATOM      8  N   UNL     1     139.592  77.653 222.695 -0.20 +0.05    -0.243 NA 
DOCKED: ATOM      9  C   UNL     1     138.363  79.957 223.361 -0.33 -0.00    +0.013 A  
DOCKED: ATOM     10  C   UNL     1     140.372  78.683 223.071 -0.40 -0.02    +0.071 A  
DOCKED: ATOM     11  C   UNL     1     139.748  79.869 223.415 -0.43 -0.00    +0.003 A  
DOCKED: ATOM     12  C   UNL     1     141.738  78.514 223.098 -0.50 -0.01    +0.032 A  
DOCKED: ATOM     13  C   UNL     1     140.555  80.909 223.797 -0.36 -0.01    +0.049 A  
DOCKED: ATOM     14  C   UNL     1     142.540  79.567 223.484 -0.57 -0.01    +0.041 A  
DOCKED: ATOM     15  C   UNL     1     141.934  80.767 223.833 -0.51 -0.02    +0.123 A  
DOCKED: ATOM     16  F   UNL     1     142.764  81.772 224.204 -0.17 +0.02    -0.207 F  
DOCKED: ENDBRANCH   3   6
DOCKED: ENDBRANCH   1   2
DOCKED: BRANCH   1  17
DOCKED: ATOM     17  C   UNL     1     137.770  72.941 221.579 -0.09 -0.06    +0.242 C  
DOCKED: ATOM     18  O   UNL     1     137.542  72.739 220.312 -0.02 +0.05    -0.273 OA 
DOCKED: BRANCH  17  19
DOCKED: ATOM     19  N   UNL     1     138.554  71.972 222.204 -0.08 +0.08    -0.331 N  
DOCKED: ATOM     20  C   UNL     1     138.202  70.832 223.070 -0.19 -0.03    +0.120 C  
DOCKED: ATOM     21  C   UNL     1     140.028  71.858 222.181 -0.23 -0.02    +0.153 C  
DOCKED: ATOM     22  C   UNL     1     139.090  71.125 224.245 -0.36 -0.01    +0.024 C  
DOCKED: ATOM     23  C   UNL     1     140.307  71.821 223.687 -0.36 -0.01    +0.035 C  
DOCKED: BRANCH  21  24
DOCKED: ATOM     24  C   UNL     1     140.718  72.976 221.549 -0.23 -0.02    +0.150 A  
DOCKED: ATOM     25  N   UNL     1     140.504  74.229 222.051 -0.73 +0.00    -0.238 NA 
DOCKED: ATOM     26  N   UNL     1     141.530  72.910 220.486 -0.10 +0.04    -0.238 NA 
DOCKED: ATOM     27  C   UNL     1     141.052  75.328 221.539 -0.30 -0.03    +0.135 A  
DOCKED: ATOM     28  C   UNL     1     142.116  73.983 219.921 -0.16 -0.03    +0.135 A  
DOCKED: ATOM     29  C   UNL     1     141.886  75.235 220.444 -0.26 -0.03    +0.077 A  
DOCKED: ATOM     30  Cl  UNL     1     142.640  76.625 219.718 -0.44 +0.05    -0.081 Cl 
DOCKED: ENDBRANCH  21  24
DOCKED: ENDBRANCH  17  19
DOCKED: ENDBRANCH   1  17
DOCKED: TORSDOF 5
DOCKED: TER
DOCKED: ENDMDL
________________________________________________________________________________


    FINAL DOCKED STATE:
    ________________________


Run:   14 / 20
Time taken for this run:   0.033s

DOCKED: MODEL        14
DOCKED: USER    Run = 14
DOCKED: USER
DOCKED: USER    Estimated Free Energy of Binding    =  -7.17 kcal/mol  [=(1)+(2)+(3)-(4)]
DOCKED: USER
DOCKED: USER    (1) Final Intermolecular Energy     =  -8.66 kcal/mol
DOCKED: USER        vdW + Hbond + desolv Energy     =  -8.66 kcal/mol
DOCKED: USER        Electrostatic Energy            =  -0.00 kcal/mol
DOCKED: USER        Moving Ligand-Fixed Receptor    =  -8.66 kcal/mol
DOCKED: USER        Moving Ligand-Moving Receptor   =  +0.00 kcal/mol
DOCKED: USER    (2) Final Total Internal Energy     =  -2.49 kcal/mol
DOCKED: USER    (3) Torsional Free Energy           =  +1.49 kcal/mol
DOCKED: USER    (4) Unbound System's Energy         =  -2.49 kcal/mol
DOCKED: USER
DOCKED: USER
DOCKED: REMARK SMILES O=C(NCC(=O)N1CCC[C@@H]1c1ncc(Cl)cn1)c1ccc2cc(F)ccc2n1
DOCKED: REMARK SMILES IDX 4 1 3 2 2 3 1 4 19 6 20 7 29 8 21 9 28 10 22 11 27 12 23 13
DOCKED: REMARK SMILES IDX 26 14 24 15 25 16 5 17 6 18 7 19 8 20 11 21 9 22 10 23 12 24
DOCKED: REMARK SMILES IDX 13 25 18 26 14 27 17 28 15 29 16 30
DOCKED: REMARK H PARENT 3 5
DOCKED: USER                              x       y       z     vdW  Elec       q    Type
DOCKED: USER                           _______ _______ _______ _____ _____    ______ ____
DOCKED: ROOT
DOCKED: ATOM      1  C   UNL     1     137.675  73.447 221.211 -0.08 -0.05    +0.216 C  
DOCKED: ENDROOT
DOCKED: BRANCH   1   2
DOCKED: ATOM      2  N   UNL     1     138.248  72.805 222.333 -0.06 +0.11    -0.342 N  
DOCKED: ATOM      3  C   UNL     1     138.045  71.373 222.453 -0.10 -0.06    +0.270 C  
DOCKED: ATOM      4  O   UNL     1     137.366  70.861 221.521 -0.03 +0.05    -0.268 OA 
DOCKED: ATOM      5  H   UNL     1     138.812  73.261 223.096 -0.49 -0.09    +0.164 HD 
DOCKED: BRANCH   3   6
DOCKED: ATOM      6  C   UNL     1     138.594  70.642 223.564 -0.22 -0.03    +0.128 A  
DOCKED: ATOM      7  C   UNL     1     138.398  69.283 223.615 -0.26 -0.00    +0.035 A  
DOCKED: ATOM      8  N   UNL     1     139.276  71.291 224.514 -0.22 +0.06    -0.243 NA 
DOCKED: ATOM      9  C   UNL     1     138.950  68.623 224.712 -0.38 -0.00    +0.013 A  
DOCKED: ATOM     10  C   UNL     1     139.818  70.681 225.583 -0.43 -0.01    +0.071 A  
DOCKED: ATOM     11  C   UNL     1     139.656  69.310 225.692 -0.46 -0.00    +0.003 A  
DOCKED: ATOM     12  C   UNL     1     140.503  71.435 226.508 -0.62 -0.01    +0.032 A  
DOCKED: ATOM     13  C   UNL     1     140.215  68.702 226.785 -0.57 -0.01    +0.049 A  
DOCKED: ATOM     14  C   UNL     1     141.062  70.812 227.605 -0.64 -0.01    +0.041 A  
DOCKED: ATOM     15  C   UNL     1     140.910  69.437 227.733 -0.50 -0.02    +0.123 A  
DOCKED: ATOM     16  F   UNL     1     141.476  68.872 228.827 -0.14 +0.05    -0.207 F  
DOCKED: ENDBRANCH   3   6
DOCKED: ENDBRANCH   1   2
DOCKED: BRANCH   1  17
DOCKED: ATOM     17  C   UNL     1     137.898  74.872 220.989 -0.08 -0.05    +0.242 C  
DOCKED: ATOM     18  O   UNL     1     137.575  75.267 219.789 -0.01 +0.06    -0.273 OA 
DOCKED: BRANCH  17  19
DOCKED: ATOM     19  N   UNL     1     138.392  75.869 221.830 -0.12 +0.08    -0.331 N  
DOCKED: ATOM     20  C   UNL     1     137.747  77.043 222.446 -0.22 -0.02    +0.120 C  
DOCKED: ATOM     21  C   UNL     1     139.779  76.028 222.317 -0.27 -0.03    +0.153 C  
DOCKED: ATOM     22  C   UNL     1     138.686  78.119 221.982 -0.22 -0.00    +0.024 C  
DOCKED: ATOM     23  C   UNL     1     140.044  77.469 221.873 -0.32 -0.01    +0.035 C  
DOCKED: BRANCH  21  24
DOCKED: ATOM     24  C   UNL     1     140.744  75.111 221.721 -0.25 -0.03    +0.150 A  
DOCKED: ATOM     25  N   UNL     1     140.655  73.787 222.043 -0.72 +0.00    -0.238 NA 
DOCKED: ATOM     26  N   UNL     1     141.751  75.441 220.901 -0.19 +0.09    -0.238 NA 
DOCKED: ATOM     27  C   UNL     1     141.498  72.863 221.588 -0.18 -0.01    +0.135 A  
DOCKED: ATOM     28  C   UNL     1     142.637  74.556 220.406 -0.26 -0.05    +0.135 A  
DOCKED: ATOM     29  C   UNL     1     142.527  73.226 220.744 -0.24 -0.01    +0.077 A  
DOCKED: ATOM     30  Cl  UNL     1     143.669  72.077 220.108 -0.35 +0.01    -0.081 Cl 
DOCKED: ENDBRANCH  21  24
DOCKED: ENDBRANCH  17  19
DOCKED: ENDBRANCH   1  17
DOCKED: TORSDOF 5
DOCKED: TER
DOCKED: ENDMDL
________________________________________________________________________________


    FINAL DOCKED STATE:
    ________________________


Run:   15 / 20
Time taken for this run:   0.033s

DOCKED: MODEL        15
DOCKED: USER    Run = 15
DOCKED: USER
DOCKED: USER    Estimated Free Energy of Binding    =  -7.14 kcal/mol  [=(1)+(2)+(3)-(4)]
DOCKED: USER
DOCKED: USER    (1) Final Intermolecular Energy     =  -8.64 kcal/mol
DOCKED: USER        vdW + Hbond + desolv Energy     =  -8.62 kcal/mol
DOCKED: USER        Electrostatic Energy            =  -0.02 kcal/mol
DOCKED: USER        Moving Ligand-Fixed Receptor    =  -8.64 kcal/mol
DOCKED: USER        Moving Ligand-Moving Receptor   =  +0.00 kcal/mol
DOCKED: USER    (2) Final Total Internal Energy     =  -2.48 kcal/mol
DOCKED: USER    (3) Torsional Free Energy           =  +1.49 kcal/mol
DOCKED: USER    (4) Unbound System's Energy         =  -2.48 kcal/mol
DOCKED: USER
DOCKED: USER
DOCKED: REMARK SMILES O=C(NCC(=O)N1CCC[C@@H]1c1ncc(Cl)cn1)c1ccc2cc(F)ccc2n1
DOCKED: REMARK SMILES IDX 4 1 3 2 2 3 1 4 19 6 20 7 29 8 21 9 28 10 22 11 27 12 23 13
DOCKED: REMARK SMILES IDX 26 14 24 15 25 16 5 17 6 18 7 19 8 20 11 21 9 22 10 23 12 24
DOCKED: REMARK SMILES IDX 13 25 18 26 14 27 17 28 15 29 16 30
DOCKED: REMARK H PARENT 3 5
DOCKED: USER                              x       y       z     vdW  Elec       q    Type
DOCKED: USER                           _______ _______ _______ _____ _____    ______ ____
DOCKED: ROOT
DOCKED: ATOM      1  C   UNL     1     137.532  73.028 221.242 -0.07 -0.05    +0.216 C  
DOCKED: ENDROOT
DOCKED: BRANCH   1   2
DOCKED: ATOM      2  N   UNL     1     138.159  72.481 222.384 -0.07 +0.10    -0.342 N  
DOCKED: ATOM      3  C   UNL     1     138.043  71.048 222.582 -0.11 -0.06    +0.270 C  
DOCKED: ATOM      4  O   UNL     1     137.381  70.449 221.691 -0.03 +0.05    -0.268 OA 
DOCKED: ATOM      5  H   UNL     1     138.706  73.009 223.113 -0.46 -0.09    +0.164 HD 
DOCKED: BRANCH   3   6
DOCKED: ATOM      6  C   UNL     1     138.651  70.410 223.720 -0.23 -0.02    +0.128 A  
DOCKED: ATOM      7  C   UNL     1     138.574  69.042 223.822 -0.28 -0.00    +0.035 A  
DOCKED: ATOM      8  N   UNL     1     139.271  71.151 224.643 -0.24 +0.05    -0.243 NA 
DOCKED: ATOM      9  C   UNL     1     139.179  68.474 224.942 -0.41 -0.00    +0.013 A  
DOCKED: ATOM     10  C   UNL     1     139.863  70.631 225.734 -0.44 -0.01    +0.071 A  
DOCKED: ATOM     11  C   UNL     1     139.820  69.257 225.894 -0.48 -0.00    +0.003 A  
DOCKED: ATOM     12  C   UNL     1     140.478  71.476 226.629 -0.62 -0.01    +0.032 A  
DOCKED: ATOM     13  C   UNL     1     140.428  68.741 227.009 -0.59 -0.01    +0.049 A  
DOCKED: ATOM     14  C   UNL     1     141.086  70.946 227.748 -0.66 -0.01    +0.041 A  
DOCKED: ATOM     15  C   UNL     1     141.054  69.569 227.929 -0.49 -0.03    +0.123 A  
DOCKED: ATOM     16  F   UNL     1     141.665  69.097 229.042 -0.09 +0.05    -0.207 F  
DOCKED: ENDBRANCH   3   6
DOCKED: ENDBRANCH   1   2
DOCKED: BRANCH   1  17
DOCKED: ATOM     17  C   UNL     1     137.500  74.474 221.045 -0.07 -0.05    +0.242 C  
DOCKED: ATOM     18  O   UNL     1     137.101  74.827 219.855 -0.01 +0.05    -0.273 OA 
DOCKED: BRANCH  17  19
DOCKED: ATOM     19  N   UNL     1     137.820  75.527 221.901 -0.11 +0.08    -0.331 N  
DOCKED: ATOM     20  C   UNL     1     137.000  76.609 222.478 -0.20 -0.02    +0.120 C  
DOCKED: ATOM     21  C   UNL     1     139.150  75.865 222.452 -0.21 -0.03    +0.153 C  
DOCKED: ATOM     22  C   UNL     1     137.813  77.797 222.051 -0.20 -0.00    +0.024 C  
DOCKED: ATOM     23  C   UNL     1     139.247  77.329 222.011 -0.29 -0.01    +0.035 C  
DOCKED: BRANCH  21  24
DOCKED: ATOM     24  C   UNL     1     140.253  75.081 221.909 -0.23 -0.02    +0.150 A  
DOCKED: ATOM     25  N   UNL     1     141.158  75.717 221.107 -0.20 +0.08    -0.238 NA 
DOCKED: ATOM     26  N   UNL     1     140.460  73.770 222.090 -0.75 +0.00    -0.238 NA 
DOCKED: ATOM     27  C   UNL     1     142.187  75.100 220.530 -0.24 -0.05    +0.135 A  
DOCKED: ATOM     28  C   UNL     1     141.480  73.088 221.535 -0.19 -0.01    +0.135 A  
DOCKED: ATOM     29  C   UNL     1     142.380  73.750 220.731 -0.24 -0.02    +0.077 A  
DOCKED: ATOM     30  Cl  UNL     1     143.700  72.874 220.011 -0.39 +0.01    -0.081 Cl 
DOCKED: ENDBRANCH  21  24
DOCKED: ENDBRANCH  17  19
DOCKED: ENDBRANCH   1  17
DOCKED: TORSDOF 5
DOCKED: TER
DOCKED: ENDMDL
________________________________________________________________________________


    FINAL DOCKED STATE:
    ________________________


Run:   16 / 20
Time taken for this run:   0.033s

DOCKED: MODEL        16
DOCKED: USER    Run = 16
DOCKED: USER
DOCKED: USER    Estimated Free Energy of Binding    =  -6.49 kcal/mol  [=(1)+(2)+(3)-(4)]
DOCKED: USER
DOCKED: USER    (1) Final Intermolecular Energy     =  -7.98 kcal/mol
DOCKED: USER        vdW + Hbond + desolv Energy     =  -7.93 kcal/mol
DOCKED: USER        Electrostatic Energy            =  -0.05 kcal/mol
DOCKED: USER        Moving Ligand-Fixed Receptor    =  -7.98 kcal/mol
DOCKED: USER        Moving Ligand-Moving Receptor   =  +0.00 kcal/mol
DOCKED: USER    (2) Final Total Internal Energy     =  -3.07 kcal/mol
DOCKED: USER    (3) Torsional Free Energy           =  +1.49 kcal/mol
DOCKED: USER    (4) Unbound System's Energy         =  -3.07 kcal/mol
DOCKED: USER
DOCKED: USER
DOCKED: REMARK SMILES O=C(NCC(=O)N1CCC[C@@H]1c1ncc(Cl)cn1)c1ccc2cc(F)ccc2n1
DOCKED: REMARK SMILES IDX 4 1 3 2 2 3 1 4 19 6 20 7 29 8 21 9 28 10 22 11 27 12 23 13
DOCKED: REMARK SMILES IDX 26 14 24 15 25 16 5 17 6 18 7 19 8 20 11 21 9 22 10 23 12 24
DOCKED: REMARK SMILES IDX 13 25 18 26 14 27 17 28 15 29 16 30
DOCKED: REMARK H PARENT 3 5
DOCKED: USER                              x       y       z     vdW  Elec       q    Type
DOCKED: USER                           _______ _______ _______ _____ _____    ______ ____
DOCKED: ROOT
DOCKED: ATOM      1  C   UNL     1     141.569  79.966 219.757 -0.20 -0.11    +0.216 C  
DOCKED: ENDROOT
DOCKED: BRANCH   1   2
DOCKED: ATOM      2  N   UNL     1     142.203  78.702 219.784 -0.07 +0.24    -0.342 N  
DOCKED: ATOM      3  C   UNL     1     142.247  77.956 218.541 -0.19 -0.18    +0.270 C  
DOCKED: ATOM      4  O   UNL     1     141.703  78.536 217.562 -0.12 +0.18    -0.268 OA 
DOCKED: ATOM      5  H   UNL     1     142.650  78.242 220.619 -0.35 -0.16    +0.164 HD 
DOCKED: BRANCH   3   6
DOCKED: ATOM      6  C   UNL     1     142.873  76.661 218.481 -0.26 -0.08    +0.128 A  
DOCKED: ATOM      7  C   UNL     1     142.836  75.970 217.294 -0.18 -0.02    +0.035 A  
DOCKED: ATOM      8  N   UNL     1     143.471  76.162 219.568 -0.27 +0.16    -0.243 NA 
DOCKED: ATOM      9  C   UNL     1     143.457  74.721 217.290 -0.15 -0.00    +0.013 A  
DOCKED: ATOM     10  C   UNL     1     144.076  74.961 219.593 -0.32 -0.04    +0.071 A  
DOCKED: ATOM     11  C   UNL     1     144.074  74.215 218.427 -0.21 -0.00    +0.003 A  
DOCKED: ATOM     12  C   UNL     1     144.665  74.532 220.761 -0.31 -0.01    +0.032 A  
DOCKED: ATOM     13  C   UNL     1     144.695  72.995 218.467 -0.21 +0.00    +0.049 A  
DOCKED: ATOM     14  C   UNL     1     145.288  73.301 220.791 -0.57 -0.01    +0.041 A  
DOCKED: ATOM     15  C   UNL     1     145.296  72.537 219.631 -0.33 +0.03    +0.123 A  
DOCKED: ATOM     16  F   UNL     1     145.919  71.336 219.710 -0.09 -0.12    -0.207 F  
DOCKED: ENDBRANCH   3   6
DOCKED: ENDBRANCH   1   2
DOCKED: BRANCH   1  17
DOCKED: ATOM     17  C   UNL     1     140.730  80.389 220.873 -0.17 -0.08    +0.242 C  
DOCKED: ATOM     18  O   UNL     1     139.530  80.747 220.513 -0.05 +0.07    -0.273 OA 
DOCKED: BRANCH  17  19
DOCKED: ATOM     19  N   UNL     1     140.991  80.475 222.240 -0.15 +0.08    -0.331 N  
DOCKED: ATOM     20  C   UNL     1     141.550  81.560 223.068 -0.41 -0.02    +0.120 C  
DOCKED: ATOM     21  C   UNL     1     140.793  79.423 223.260 -0.41 -0.04    +0.153 C  
DOCKED: ATOM     22  C   UNL     1     142.667  80.814 223.740 -0.65 -0.00    +0.024 C  
DOCKED: ATOM     23  C   UNL     1     142.198  79.385 223.869 -0.54 -0.01    +0.035 C  
DOCKED: BRANCH  21  24
DOCKED: ATOM     24  C   UNL     1     140.419  78.118 222.728 -0.33 -0.04    +0.150 A  
DOCKED: ATOM     25  N   UNL     1     141.395  77.357 222.150 -0.15 +0.12    -0.238 NA 
DOCKED: ATOM     26  N   UNL     1     139.188  77.588 222.715 -0.19 +0.04    -0.238 NA 
DOCKED: ATOM     27  C   UNL     1     141.168  76.165 221.602 -0.26 -0.05    +0.135 A  
DOCKED: ATOM     28  C   UNL     1     138.893  76.389 222.178 -0.26 -0.03    +0.135 A  
DOCKED: ATOM     29  C   UNL     1     139.893  75.640 221.601 -0.29 -0.02    +0.077 A  
DOCKED: ATOM     30  Cl  UNL     1     139.517  74.090 220.905 -0.23 +0.02    -0.081 Cl 
DOCKED: ENDBRANCH  21  24
DOCKED: ENDBRANCH  17  19
DOCKED: ENDBRANCH   1  17
DOCKED: TORSDOF 5
DOCKED: TER
DOCKED: ENDMDL
________________________________________________________________________________


    FINAL DOCKED STATE:
    ________________________


Run:   17 / 20
Time taken for this run:   0.033s

DOCKED: MODEL        17
DOCKED: USER    Run = 17
DOCKED: USER
DOCKED: USER    Estimated Free Energy of Binding    =  -7.25 kcal/mol  [=(1)+(2)+(3)-(4)]
DOCKED: USER
DOCKED: USER    (1) Final Intermolecular Energy     =  -8.74 kcal/mol
DOCKED: USER        vdW + Hbond + desolv Energy     =  -8.71 kcal/mol
DOCKED: USER        Electrostatic Energy            =  -0.03 kcal/mol
DOCKED: USER        Moving Ligand-Fixed Receptor    =  -8.74 kcal/mol
DOCKED: USER        Moving Ligand-Moving Receptor   =  +0.00 kcal/mol
DOCKED: USER    (2) Final Total Internal Energy     =  -2.38 kcal/mol
DOCKED: USER    (3) Torsional Free Energy           =  +1.49 kcal/mol
DOCKED: USER    (4) Unbound System's Energy         =  -2.38 kcal/mol
DOCKED: USER
DOCKED: USER
DOCKED: REMARK SMILES O=C(NCC(=O)N1CCC[C@@H]1c1ncc(Cl)cn1)c1ccc2cc(F)ccc2n1
DOCKED: REMARK SMILES IDX 4 1 3 2 2 3 1 4 19 6 20 7 29 8 21 9 28 10 22 11 27 12 23 13
DOCKED: REMARK SMILES IDX 26 14 24 15 25 16 5 17 6 18 7 19 8 20 11 21 9 22 10 23 12 24
DOCKED: REMARK SMILES IDX 13 25 18 26 14 27 17 28 15 29 16 30
DOCKED: REMARK H PARENT 3 5
DOCKED: USER                              x       y       z     vdW  Elec       q    Type
DOCKED: USER                           _______ _______ _______ _____ _____    ______ ____
DOCKED: ROOT
DOCKED: ATOM      1  C   UNL     1     137.729  73.098 221.253 -0.08 -0.05    +0.216 C  
DOCKED: ENDROOT
DOCKED: BRANCH   1   2
DOCKED: ATOM      2  N   UNL     1     138.330  72.519 222.394 -0.07 +0.11    -0.342 N  
DOCKED: ATOM      3  C   UNL     1     138.134  71.096 222.597 -0.11 -0.06    +0.270 C  
DOCKED: ATOM      4  O   UNL     1     137.434  70.533 221.710 -0.03 +0.05    -0.268 OA 
DOCKED: ATOM      5  H   UNL     1     138.911  73.017 223.118 -0.45 -0.08    +0.164 HD 
DOCKED: BRANCH   3   6
DOCKED: ATOM      6  C   UNL     1     138.711  70.427 223.733 -0.24 -0.02    +0.128 A  
DOCKED: ATOM      7  C   UNL     1     138.611  69.058 223.808 -0.28 -0.00    +0.035 A  
DOCKED: ATOM      8  N   UNL     1     139.325  71.141 224.681 -0.24 +0.05    -0.243 NA 
DOCKED: ATOM      9  C   UNL     1     139.186  68.461 224.928 -0.41 -0.00    +0.013 A  
DOCKED: ATOM     10  C   UNL     1     139.888  70.591 225.773 -0.45 -0.01    +0.071 A  
DOCKED: ATOM     11  C   UNL     1     139.821  69.215 225.907 -0.48 -0.00    +0.003 A  
DOCKED: ATOM     12  C   UNL     1     140.499  71.410 226.696 -0.63 -0.01    +0.032 A  
DOCKED: ATOM     13  C   UNL     1     140.400  68.669 227.022 -0.59 -0.01    +0.049 A  
DOCKED: ATOM     14  C   UNL     1     141.078  70.849 227.815 -0.65 -0.01    +0.041 A  
DOCKED: ATOM     15  C   UNL     1     141.022  69.470 227.969 -0.50 -0.03    +0.123 A  
DOCKED: ATOM     16  F   UNL     1     141.604  68.968 229.085 -0.11 +0.05    -0.207 F  
DOCKED: ENDBRANCH   3   6
DOCKED: ENDBRANCH   1   2
DOCKED: BRANCH   1  17
DOCKED: ATOM     17  C   UNL     1     137.293  74.491 221.281 -0.08 -0.06    +0.242 C  
DOCKED: ATOM     18  O   UNL     1     136.622  74.846 220.222 -0.01 +0.05    -0.273 OA 
DOCKED: BRANCH  17  19
DOCKED: ATOM     19  N   UNL     1     137.469  75.491 222.236 -0.12 +0.09    -0.331 N  
DOCKED: ATOM     20  C   UNL     1     136.504  76.286 223.018 -0.22 -0.02    +0.120 C  
DOCKED: ATOM     21  C   UNL     1     138.747  76.068 222.707 -0.19 -0.03    +0.153 C  
DOCKED: ATOM     22  C   UNL     1     136.982  77.668 222.680 -0.20 -0.00    +0.024 C  
DOCKED: ATOM     23  C   UNL     1     138.470  77.553 222.454 -0.27 -0.01    +0.035 C  
DOCKED: BRANCH  21  24
DOCKED: ATOM     24  C   UNL     1     139.926  75.624 221.973 -0.28 -0.03    +0.150 A  
DOCKED: ATOM     25  N   UNL     1     140.326  74.327 222.126 -0.74 +0.00    -0.238 NA 
DOCKED: ATOM     26  N   UNL     1     140.693  76.376 221.173 -0.17 +0.08    -0.238 NA 
DOCKED: ATOM     27  C   UNL     1     141.404  73.817 221.533 -0.17 -0.01    +0.135 A  
DOCKED: ATOM     28  C   UNL     1     141.794  75.921 220.544 -0.22 -0.06    +0.135 A  
DOCKED: ATOM     29  C   UNL     1     142.178  74.610 220.713 -0.26 -0.02    +0.077 A  
DOCKED: ATOM     30  Cl  UNL     1     143.600  74.017 219.904 -0.44 +0.02    -0.081 Cl 
DOCKED: ENDBRANCH  21  24
DOCKED: ENDBRANCH  17  19
DOCKED: ENDBRANCH   1  17
DOCKED: TORSDOF 5
DOCKED: TER
DOCKED: ENDMDL
________________________________________________________________________________


    FINAL DOCKED STATE:
    ________________________


Run:   18 / 20
Time taken for this run:   0.033s

DOCKED: MODEL        18
DOCKED: USER    Run = 18
DOCKED: USER
DOCKED: USER    Estimated Free Energy of Binding    =  -7.15 kcal/mol  [=(1)+(2)+(3)-(4)]
DOCKED: USER
DOCKED: USER    (1) Final Intermolecular Energy     =  -8.64 kcal/mol
DOCKED: USER        vdW + Hbond + desolv Energy     =  -8.61 kcal/mol
DOCKED: USER        Electrostatic Energy            =  -0.02 kcal/mol
DOCKED: USER        Moving Ligand-Fixed Receptor    =  -8.64 kcal/mol
DOCKED: USER        Moving Ligand-Moving Receptor   =  +0.00 kcal/mol
DOCKED: USER    (2) Final Total Internal Energy     =  -2.48 kcal/mol
DOCKED: USER    (3) Torsional Free Energy           =  +1.49 kcal/mol
DOCKED: USER    (4) Unbound System's Energy         =  -2.48 kcal/mol
DOCKED: USER
DOCKED: USER
DOCKED: REMARK SMILES O=C(NCC(=O)N1CCC[C@@H]1c1ncc(Cl)cn1)c1ccc2cc(F)ccc2n1
DOCKED: REMARK SMILES IDX 4 1 3 2 2 3 1 4 19 6 20 7 29 8 21 9 28 10 22 11 27 12 23 13
DOCKED: REMARK SMILES IDX 26 14 24 15 25 16 5 17 6 18 7 19 8 20 11 21 9 22 10 23 12 24
DOCKED: REMARK SMILES IDX 13 25 18 26 14 27 17 28 15 29 16 30
DOCKED: REMARK H PARENT 3 5
DOCKED: USER                              x       y       z     vdW  Elec       q    Type
DOCKED: USER                           _______ _______ _______ _____ _____    ______ ____
DOCKED: ROOT
DOCKED: ATOM      1  C   UNL     1     137.533  73.019 221.233 -0.07 -0.05    +0.216 C  
DOCKED: ENDROOT
DOCKED: BRANCH   1   2
DOCKED: ATOM      2  N   UNL     1     138.140  72.481 222.391 -0.07 +0.11    -0.342 N  
DOCKED: ATOM      3  C   UNL     1     138.054  71.046 222.580 -0.11 -0.06    +0.270 C  
DOCKED: ATOM      4  O   UNL     1     137.434  70.435 221.667 -0.03 +0.05    -0.268 OA 
DOCKED: ATOM      5  H   UNL     1     138.652  73.019 223.138 -0.46 -0.09    +0.164 HD 
DOCKED: BRANCH   3   6
DOCKED: ATOM      6  C   UNL     1     138.644  70.416 223.732 -0.24 -0.02    +0.128 A  
DOCKED: ATOM      7  C   UNL     1     138.539  69.053 223.860 -0.28 -0.00    +0.035 A  
DOCKED: ATOM      8  N   UNL     1     139.276  71.163 224.644 -0.24 +0.05    -0.243 NA 
DOCKED: ATOM      9  C   UNL     1     139.128  68.494 224.994 -0.41 -0.00    +0.013 A  
DOCKED: ATOM     10  C   UNL     1     139.852  70.652 225.747 -0.44 -0.01    +0.071 A  
DOCKED: ATOM     11  C   UNL     1     139.781  69.282 225.933 -0.48 -0.00    +0.003 A  
DOCKED: ATOM     12  C   UNL     1     140.481  71.501 226.629 -0.63 -0.01    +0.032 A  
DOCKED: ATOM     13  C   UNL     1     140.373  68.775 227.060 -0.59 -0.01    +0.049 A  
DOCKED: ATOM     14  C   UNL     1     141.073  70.980 227.761 -0.67 -0.01    +0.041 A  
DOCKED: ATOM     15  C   UNL     1     141.013  69.608 227.967 -0.49 -0.02    +0.123 A  
DOCKED: ATOM     16  F   UNL     1     141.609  69.145 229.092 -0.08 +0.05    -0.207 F  
DOCKED: ENDBRANCH   3   6
DOCKED: ENDBRANCH   1   2
DOCKED: BRANCH   1  17
DOCKED: ATOM     17  C   UNL     1     137.462  74.465 221.046 -0.07 -0.05    +0.242 C  
DOCKED: ATOM     18  O   UNL     1     137.050  74.815 219.860 -0.01 +0.05    -0.273 OA 
DOCKED: BRANCH  17  19
DOCKED: ATOM     19  N   UNL     1     137.756  75.520 221.909 -0.11 +0.08    -0.331 N  
DOCKED: ATOM     20  C   UNL     1     136.915  76.591 222.475 -0.20 -0.02    +0.120 C  
DOCKED: ATOM     21  C   UNL     1     139.074  75.873 222.480 -0.20 -0.03    +0.153 C  
DOCKED: ATOM     22  C   UNL     1     137.721  77.789 222.062 -0.20 -0.00    +0.024 C  
DOCKED: ATOM     23  C   UNL     1     139.161  77.338 222.043 -0.28 -0.01    +0.035 C  
DOCKED: BRANCH  21  24
DOCKED: ATOM     24  C   UNL     1     140.195  75.103 221.953 -0.23 -0.02    +0.150 A  
DOCKED: ATOM     25  N   UNL     1     141.099  75.748 221.159 -0.21 +0.08    -0.238 NA 
DOCKED: ATOM     26  N   UNL     1     140.419  73.795 222.142 -0.75 +0.00    -0.238 NA 
DOCKED: ATOM     27  C   UNL     1     142.143  75.144 220.595 -0.24 -0.05    +0.135 A  
DOCKED: ATOM     28  C   UNL     1     141.454  73.126 221.601 -0.18 -0.01    +0.135 A  
DOCKED: ATOM     29  C   UNL     1     142.353  73.797 220.804 -0.24 -0.02    +0.077 A  
DOCKED: ATOM     30  Cl  UNL     1     143.694  72.937 220.103 -0.41 +0.01    -0.081 Cl 
DOCKED: ENDBRANCH  21  24
DOCKED: ENDBRANCH  17  19
DOCKED: ENDBRANCH   1  17
DOCKED: TORSDOF 5
DOCKED: TER
DOCKED: ENDMDL
________________________________________________________________________________


    FINAL DOCKED STATE:
    ________________________


Run:   19 / 20
Time taken for this run:   0.033s

DOCKED: MODEL        19
DOCKED: USER    Run = 19
DOCKED: USER
DOCKED: USER    Estimated Free Energy of Binding    =  -7.25 kcal/mol  [=(1)+(2)+(3)-(4)]
DOCKED: USER
DOCKED: USER    (1) Final Intermolecular Energy     =  -8.74 kcal/mol
DOCKED: USER        vdW + Hbond + desolv Energy     =  -8.73 kcal/mol
DOCKED: USER        Electrostatic Energy            =  -0.01 kcal/mol
DOCKED: USER        Moving Ligand-Fixed Receptor    =  -8.74 kcal/mol
DOCKED: USER        Moving Ligand-Moving Receptor   =  +0.00 kcal/mol
DOCKED: USER    (2) Final Total Internal Energy     =  -2.41 kcal/mol
DOCKED: USER    (3) Torsional Free Energy           =  +1.49 kcal/mol
DOCKED: USER    (4) Unbound System's Energy         =  -2.41 kcal/mol
DOCKED: USER
DOCKED: USER
DOCKED: REMARK SMILES O=C(NCC(=O)N1CCC[C@@H]1c1ncc(Cl)cn1)c1ccc2cc(F)ccc2n1
DOCKED: REMARK SMILES IDX 4 1 3 2 2 3 1 4 19 6 20 7 29 8 21 9 28 10 22 11 27 12 23 13
DOCKED: REMARK SMILES IDX 26 14 24 15 25 16 5 17 6 18 7 19 8 20 11 21 9 22 10 23 12 24
DOCKED: REMARK SMILES IDX 13 25 18 26 14 27 17 28 15 29 16 30
DOCKED: REMARK H PARENT 3 5
DOCKED: USER                              x       y       z     vdW  Elec       q    Type
DOCKED: USER                           _______ _______ _______ _____ _____    ______ ____
DOCKED: ROOT
DOCKED: ATOM      1  C   UNL     1     137.841  73.197 221.171 -0.08 -0.05    +0.216 C  
DOCKED: ENDROOT
DOCKED: BRANCH   1   2
DOCKED: ATOM      2  N   UNL     1     138.400  72.605 222.327 -0.08 +0.10    -0.342 N  
DOCKED: ATOM      3  C   UNL     1     138.212  71.177 222.498 -0.11 -0.06    +0.270 C  
DOCKED: ATOM      4  O   UNL     1     137.558  70.621 221.574 -0.03 +0.05    -0.268 OA 
DOCKED: ATOM      5  H   UNL     1     138.943  73.097 223.083 -0.46 -0.08    +0.164 HD 
DOCKED: BRANCH   3   6
DOCKED: ATOM      6  C   UNL     1     138.748  70.496 223.647 -0.24 -0.02    +0.128 A  
DOCKED: ATOM      7  C   UNL     1     138.601  69.132 223.728 -0.27 -0.00    +0.035 A  
DOCKED: ATOM      8  N   UNL     1     139.371  71.194 224.602 -0.24 +0.05    -0.243 NA 
DOCKED: ATOM      9  C   UNL     1     139.138  68.522 224.861 -0.40 -0.00    +0.013 A  
DOCKED: ATOM     10  C   UNL     1     139.898  70.633 225.705 -0.45 -0.01    +0.071 A  
DOCKED: ATOM     11  C   UNL     1     139.782  69.261 225.845 -0.47 -0.00    +0.003 A  
DOCKED: ATOM     12  C   UNL     1     140.521  71.436 226.633 -0.63 -0.01    +0.032 A  
DOCKED: ATOM     13  C   UNL     1     140.324  68.702 226.973 -0.59 -0.01    +0.049 A  
DOCKED: ATOM     14  C   UNL     1     141.063  70.863 227.765 -0.65 -0.01    +0.041 A  
DOCKED: ATOM     15  C   UNL     1     140.958  69.488 227.925 -0.50 -0.03    +0.123 A  
DOCKED: ATOM     16  F   UNL     1     141.505  68.973 229.053 -0.11 +0.05    -0.207 F  
DOCKED: ENDBRANCH   3   6
DOCKED: ENDBRANCH   1   2
DOCKED: BRANCH   1  17
DOCKED: ATOM     17  C   UNL     1     137.751  74.649 221.061 -0.08 -0.06    +0.242 C  
DOCKED: ATOM     18  O   UNL     1     137.171  75.052 219.965 -0.01 +0.05    -0.273 OA 
DOCKED: BRANCH  17  19
DOCKED: ATOM     19  N   UNL     1     138.173  75.665 221.917 -0.12 +0.08    -0.331 N  
DOCKED: ATOM     20  C   UNL     1     137.436  76.741 222.605 -0.23 -0.02    +0.120 C  
DOCKED: ATOM     21  C   UNL     1     139.557  75.959 222.349 -0.27 -0.03    +0.153 C  
DOCKED: ATOM     22  C   UNL     1     138.231  77.928 222.142 -0.23 -0.00    +0.024 C  
DOCKED: ATOM     23  C   UNL     1     139.645  77.435 221.950 -0.30 -0.01    +0.035 C  
DOCKED: BRANCH  21  24
DOCKED: ATOM     24  C   UNL     1     140.586  75.174 221.678 -0.27 -0.03    +0.150 A  
DOCKED: ATOM     25  N   UNL     1     140.684  73.847 221.986 -0.73 +0.01    -0.238 NA 
DOCKED: ATOM     26  N   UNL     1     141.486  75.631 220.797 -0.18 +0.09    -0.238 NA 
DOCKED: ATOM     27  C   UNL     1     141.603  73.038 221.463 -0.16 -0.01    +0.135 A  
DOCKED: ATOM     28  C   UNL     1     142.439  74.866 220.232 -0.24 -0.05    +0.135 A  
DOCKED: ATOM     29  C   UNL     1     142.519  73.531 220.558 -0.25 -0.02    +0.077 A  
DOCKED: ATOM     30  Cl  UNL     1     143.748  72.538 219.830 -0.35 +0.01    -0.081 Cl 
DOCKED: ENDBRANCH  21  24
DOCKED: ENDBRANCH  17  19
DOCKED: ENDBRANCH   1  17
DOCKED: TORSDOF 5
DOCKED: TER
DOCKED: ENDMDL
________________________________________________________________________________


    FINAL DOCKED STATE:
    ________________________


Run:   20 / 20
Time taken for this run:   0.033s

DOCKED: MODEL        20
DOCKED: USER    Run = 20
DOCKED: USER
DOCKED: USER    Estimated Free Energy of Binding    =  -6.71 kcal/mol  [=(1)+(2)+(3)-(4)]
DOCKED: USER
DOCKED: USER    (1) Final Intermolecular Energy     =  -8.20 kcal/mol
DOCKED: USER        vdW + Hbond + desolv Energy     =  -8.19 kcal/mol
DOCKED: USER        Electrostatic Energy            =  -0.01 kcal/mol
DOCKED: USER        Moving Ligand-Fixed Receptor    =  -8.20 kcal/mol
DOCKED: USER        Moving Ligand-Moving Receptor   =  +0.00 kcal/mol
DOCKED: USER    (2) Final Total Internal Energy     =  -2.99 kcal/mol
DOCKED: USER    (3) Torsional Free Energy           =  +1.49 kcal/mol
DOCKED: USER    (4) Unbound System's Energy         =  -2.99 kcal/mol
DOCKED: USER
DOCKED: USER
DOCKED: REMARK SMILES O=C(NCC(=O)N1CCC[C@@H]1c1ncc(Cl)cn1)c1ccc2cc(F)ccc2n1
DOCKED: REMARK SMILES IDX 4 1 3 2 2 3 1 4 19 6 20 7 29 8 21 9 28 10 22 11 27 12 23 13
DOCKED: REMARK SMILES IDX 26 14 24 15 25 16 5 17 6 18 7 19 8 20 11 21 9 22 10 23 12 24
DOCKED: REMARK SMILES IDX 13 25 18 26 14 27 17 28 15 29 16 30
DOCKED: REMARK H PARENT 3 5
DOCKED: USER                              x       y       z     vdW  Elec       q    Type
DOCKED: USER                           _______ _______ _______ _____ _____    ______ ____
DOCKED: ROOT
DOCKED: ATOM      1  C   UNL     1     141.033  73.508 220.838 -0.17 -0.04    +0.216 C  
DOCKED: ENDROOT
DOCKED: BRANCH   1   2
DOCKED: ATOM      2  N   UNL     1     141.262  74.791 221.385 -0.16 +0.07    -0.342 N  
DOCKED: ATOM      3  C   UNL     1     140.097  75.597 221.698 -0.22 -0.06    +0.270 C  
DOCKED: ATOM      4  O   UNL     1     138.994  75.043 221.439 -0.17 +0.06    -0.268 OA 
DOCKED: ATOM      5  H   UNL     1     142.198  75.227 221.591 -0.33 -0.07    +0.164 HD 
DOCKED: BRANCH   3   6
DOCKED: ATOM      6  C   UNL     1     140.241  76.915 222.257 -0.33 -0.03    +0.128 A  
DOCKED: ATOM      7  C   UNL     1     139.113  77.573 222.683 -0.29 -0.01    +0.035 A  
DOCKED: ATOM      8  N   UNL     1     141.456  77.467 222.350 -0.14 +0.13    -0.243 NA 
DOCKED: ATOM      9  C   UNL     1     139.309  78.847 223.216 -0.34 -0.00    +0.013 A  
DOCKED: ATOM     10  C   UNL     1     141.674  78.693 222.859 -0.48 -0.03    +0.071 A  
DOCKED: ATOM     11  C   UNL     1     140.576  79.408 223.306 -0.48 -0.00    +0.003 A  
DOCKED: ATOM     12  C   UNL     1     142.962  79.176 222.913 -0.29 -0.02    +0.032 A  
DOCKED: ATOM     13  C   UNL     1     140.813  80.655 223.823 -0.41 -0.01    +0.049 A  
DOCKED: ATOM     14  C   UNL     1     143.189  80.433 223.435 -0.62 -0.01    +0.041 A  
DOCKED: ATOM     15  C   UNL     1     142.101  81.167 223.889 -0.52 -0.02    +0.123 A  
DOCKED: ATOM     16  F   UNL     1     142.375  82.395 224.392 +0.01 -0.00    -0.207 F  
DOCKED: ENDBRANCH   3   6
DOCKED: ENDBRANCH   1   2
DOCKED: BRANCH   1  17
DOCKED: ATOM     17  C   UNL     1     141.941  72.966 219.832 -0.09 -0.04    +0.242 C  
DOCKED: ATOM     18  O   UNL     1     141.327  72.415 218.823 -0.02 +0.05    -0.273 OA 
DOCKED: BRANCH  17  19
DOCKED: ATOM     19  N   UNL     1     143.333  72.939 219.768 -0.08 +0.05    -0.331 N  
DOCKED: ATOM     20  C   UNL     1     144.315  71.909 220.155 -0.26 -0.01    +0.120 C  
DOCKED: ATOM     21  C   UNL     1     144.232  74.016 219.300 -0.24 -0.04    +0.153 C  
DOCKED: ATOM     22  C   UNL     1     145.195  72.726 221.057 -0.43 -0.00    +0.024 C  
DOCKED: ATOM     23  C   UNL     1     145.149  74.136 220.521 -0.53 -0.01    +0.035 C  
DOCKED: BRANCH  21  24
DOCKED: ATOM     24  C   UNL     1     143.571  75.284 219.016 -0.24 -0.07    +0.150 A  
DOCKED: ATOM     25  N   UNL     1     143.378  75.628 217.708 -0.13 +0.12    -0.238 NA 
DOCKED: ATOM     26  N   UNL     1     143.153  76.181 219.919 -0.23 +0.16    -0.238 NA 
DOCKED: ATOM     27  C   UNL     1     142.815  76.773 217.327 -0.21 -0.08    +0.135 A  
DOCKED: ATOM     28  C   UNL     1     142.577  77.356 219.599 -0.24 -0.10    +0.135 A  
DOCKED: ATOM     29  C   UNL     1     142.393  77.682 218.274 -0.27 -0.05    +0.077 A  
DOCKED: ATOM     30  Cl  UNL     1     141.649  79.198 217.854 -0.28 +0.05    -0.081 Cl 
DOCKED: ENDBRANCH  21  24
DOCKED: ENDBRANCH  17  19
DOCKED: ENDBRANCH   1  17
DOCKED: TORSDOF 5
DOCKED: TER
DOCKED: ENDMDL
________________________________________________________________________________


    CLUSTERING HISTOGRAM
    ____________________


________________________________________________________________________________
     |           |     |           |     |
Clus | Lowest    | Run | Mean      | Num | Histogram
-ter | Binding   |     | Binding   | in  |
Rank | Energy    |     | Energy    | Clus|    5    10   15   20   25   30   35
_____|___________|_____|___________|_____|____:____|____:____|____:____|____:___
   1 |     -7.26 |   3 |     -7.22 |  13 |#############
   2 |     -6.82 |  13 |     -6.82 |   2 |##
   3 |     -6.74 |   4 |     -6.62 |   4 |####
   4 |     -6.49 |  16 |     -6.49 |   1 |#
_____|___________|_____|___________|_____|______________________________________


    RMSD TABLE
    __________


_______________________________________________________________________
     |      |      |           |         |                 |
Rank | Sub- | Run  | Binding   | Cluster | Reference       | Grep
     | Rank |      | Energy    | RMSD    | RMSD            | Pattern
_____|______|______|___________|_________|_________________|___________
   1      1      3       -7.26      0.00    271.21           RANKING
   1      2      8       -7.25      0.10    271.20           RANKING
   1      3     19       -7.25      0.09    271.19           RANKING
   1      4     17       -7.25      0.64    271.21           RANKING
   1      5     12       -7.24      0.07    271.22           RANKING
   1      6      7       -7.24      0.05    271.19           RANKING
   1      7      2       -7.24      0.07    271.18           RANKING
   1      8     11       -7.24      0.07    271.17           RANKING
   1      9      1       -7.23      0.55    271.21           RANKING
   1     10     14       -7.17      0.32    271.17           RANKING
   1     11      6       -7.17      0.11    271.20           RANKING
   1     12     18       -7.15      0.30    271.16           RANKING
   1     13     15       -7.14      0.25    271.15           RANKING
   2      1     13       -6.82      0.00    271.41           RANKING
   2      2      9       -6.82      0.44    271.30           RANKING
   3      1      4       -6.74      0.00    271.67           RANKING
   3      2     10       -6.72      0.19    271.69           RANKING
   3      3     20       -6.71      0.26    271.69           RANKING
   3      4      5       -6.32      0.62    271.69           RANKING
   4      1     16       -6.49      0.00    271.47           RANKING

Run time 0.631 sec
Idle time 0.000 sec
