AutoDock-GPU version: v1.6

**********************************************************
**    AutoDock-GPU AUTODOCKTOOLS-COMPATIBLE DLG FILE    **
**********************************************************


    DOCKING PARAMETERS
    ________________________


Ligand file:                               /home/a/REINVENT4/ReinventStudies/pleaseWork/justmol2mol_4_Compounds_ontop/graph-dock-amy28i/graph-DockGPU/node-autodockgpu/inputs/NHWJLCLQNHDNSZ-NAUSHLRJNA-N.pdbqt
Grid fld file:                             /home/a/REINVENT4/ReinventStudies/mols/Rad51/maps/rad51_receptor.maps.fld

Random seed:                               42
Number of runs:                            20
Number of energy evaluations:              1132076
Number of generations:                     42000
Size of population:                        150
Rate of crossover:                         80.000000%
Tournament selection probability limit:    60.000000%
Rate of mutation:                          2.000000%
Maximal allowed delta movement:            +/- 6.000000A
Maximal allowed delta angle:               +/- 90.000000

Rate of local search:                      100.000000%
Maximal number of local search iterations: 300
Rho lower bound:                           0.010000
Spread of local search delta movement:     2.000000A
Spread of local search delta angle:        74.999999
Limit of consecutive successes/failures:   4

Handle symmetry during clustering:         YES
RMSD tolerance:                            2.000000A

Program call in command line was:          /home/a/REINVENT4/ReinventStudies/adgpu-v1.6_linux_x64_cuda12_128wi --filelist batch.txt --heuristics 1 --nrun 20 --psize 150 --lsit 300 --seed 42 --heurmax 12000000 


    GRID PARAMETERS
    ________________________


Receptor name:                             rad51_receptor
Number of grid points (x, y, z):           53, 53, 53
Grid center (x, y, z):                     139.950000, 75.640000, 221.970000A
Grid size (x, y, z):                       19.500000, 19.500000, 19.500000A
Grid spacing:                              0.375000A


    LIGAND PARAMETERS
    ________________________


Ligand name:                               /home/a/REINVENT4/ReinventStudies/pleaseWork/justmol2mol_4_Compounds_ontop/graph-dock-amy28i/graph-DockGPU/node-autodockgpu/inputs/NHWJLCLQNHDNSZ-NAUSHLRJNA-N
Number of atoms:                           30
Number of rotatable bonds:                 5
Number of atom types:                      7


    DUMMY DATA (only for ADT-compatibility)
    ________________________


DPF> outlev 1
DPF> ga_run 20
DPF> fld /home/a/REINVENT4/ReinventStudies/mols/Rad51/maps/rad51_receptor.maps.fld
DPF> move /home/a/REINVENT4/ReinventStudies/pleaseWork/justmol2mol_4_Compounds_ontop/graph-dock-amy28i/graph-DockGPU/node-autodockgpu/inputs/NHWJLCLQNHDNSZ-NAUSHLRJNA-N.pdbqt


    COUNTER STATES
    ________________________


Number of energy evaluations performed:    1141740
Number of generations used:                58


    INPUT LIGAND PDBQT FILE:
    ________________________


INPUT-LIGAND-PDBQT: REMARK SMILES O=C(NCC(=O)N1CCCC[C@H]1c1ccccc1)c1ccc2cc(Cl)ccc2n1
INPUT-LIGAND-PDBQT: REMARK SMILES IDX 4 1 3 2 2 3 1 4 19 6 20 7 29 8 21 9 28 10 22 11 27 12 23 13
INPUT-LIGAND-PDBQT: REMARK SMILES IDX 26 14 24 15 25 16 5 17 6 18 7 19 8 20 12 21 9 22 11 23 10 24
INPUT-LIGAND-PDBQT: REMARK SMILES IDX 13 25 14 26 18 27 15 28 17 29 16 30
INPUT-LIGAND-PDBQT: REMARK H PARENT 3 5
INPUT-LIGAND-PDBQT: ROOT
INPUT-LIGAND-PDBQT: ATOM      1  C   UNL     1       0.007   0.727  -1.114  1.00  0.00     0.216 C 
INPUT-LIGAND-PDBQT: ENDROOT
INPUT-LIGAND-PDBQT: BRANCH   1   2
INPUT-LIGAND-PDBQT: ATOM      2  N   UNL     1       1.409   0.412  -0.918  1.00  0.00    -0.342 N 
INPUT-LIGAND-PDBQT: ATOM      3  C   UNL     1       2.110   1.075   0.141  1.00  0.00     0.270 C 
INPUT-LIGAND-PDBQT: ATOM      4  O   UNL     1       1.521   1.921   0.895  1.00  0.00    -0.268 OA
INPUT-LIGAND-PDBQT: ATOM      5  H   UNL     1       1.920  -0.276  -1.518  1.00  0.00     0.164 HD
INPUT-LIGAND-PDBQT: BRANCH   3   6
INPUT-LIGAND-PDBQT: ATOM      6  C   UNL     1       3.521   0.771   0.354  1.00  0.00     0.128 A 
INPUT-LIGAND-PDBQT: ATOM      7  C   UNL     1       4.209   1.402   1.370  1.00  0.00     0.035 A 
INPUT-LIGAND-PDBQT: ATOM      8  N   UNL     1       4.208  -0.107  -0.398  1.00  0.00    -0.243 NA
INPUT-LIGAND-PDBQT: ATOM      9  C   UNL     1       5.542   1.173   1.640  1.00  0.00     0.013 A 
INPUT-LIGAND-PDBQT: ATOM     10  C   UNL     1       5.520  -0.354  -0.158  1.00  0.00     0.071 A 
INPUT-LIGAND-PDBQT: ATOM     11  C   UNL     1       6.216   0.268   0.851  1.00  0.00     0.002 A 
INPUT-LIGAND-PDBQT: ATOM     12  C   UNL     1       6.220  -1.260  -0.936  1.00  0.00     0.030 A 
INPUT-LIGAND-PDBQT: ATOM     13  C   UNL     1       7.546   0.041   1.121  1.00  0.00     0.030 A 
INPUT-LIGAND-PDBQT: ATOM     14  C   UNL     1       7.571  -1.501  -0.674  1.00  0.00     0.023 A 
INPUT-LIGAND-PDBQT: ATOM     15  C   UNL     1       8.243  -0.861   0.346  1.00  0.00     0.041 A 
INPUT-LIGAND-PDBQT: ATOM     16  Cl  UNL     1       9.924  -1.134   0.705  1.00  0.00    -0.084 Cl
INPUT-LIGAND-PDBQT: ENDBRANCH   3   6
INPUT-LIGAND-PDBQT: ENDBRANCH   1   2
INPUT-LIGAND-PDBQT: BRANCH   1  17
INPUT-LIGAND-PDBQT: ATOM     17  C   UNL     1      -0.802   0.414   0.081  1.00  0.00     0.242 C 
INPUT-LIGAND-PDBQT: ATOM     18  O   UNL     1      -0.199  -0.066   1.076  1.00  0.00    -0.273 OA
INPUT-LIGAND-PDBQT: BRANCH  17  19
INPUT-LIGAND-PDBQT: ATOM     19  N   UNL     1      -2.202   0.664   0.055  1.00  0.00    -0.334 N 
INPUT-LIGAND-PDBQT: ATOM     20  C   UNL     1      -2.832   1.224  -1.121  1.00  0.00     0.120 C 
INPUT-LIGAND-PDBQT: ATOM     21  C   UNL     1      -3.051   0.375   1.204  1.00  0.00     0.115 C 
INPUT-LIGAND-PDBQT: ATOM     22  C   UNL     1      -4.297   1.350  -0.958  1.00  0.00     0.022 C 
INPUT-LIGAND-PDBQT: ATOM     23  C   UNL     1      -3.956   1.540   1.517  1.00  0.00     0.030 C 
INPUT-LIGAND-PDBQT: ATOM     24  C   UNL     1      -4.742   2.003   0.325  1.00  0.00     0.004 C 
INPUT-LIGAND-PDBQT: BRANCH  21  25
INPUT-LIGAND-PDBQT: ATOM     25  C   UNL     1      -3.769  -0.908   1.045  1.00  0.00    -0.025 A 
INPUT-LIGAND-PDBQT: ATOM     26  C   UNL     1      -5.103  -1.097   1.306  1.00  0.00     0.006 A 
INPUT-LIGAND-PDBQT: ATOM     27  C   UNL     1      -3.056  -2.003   0.603  1.00  0.00     0.006 A 
INPUT-LIGAND-PDBQT: ATOM     28  C   UNL     1      -5.733  -2.332   1.141  1.00  0.00     0.000 A 
INPUT-LIGAND-PDBQT: ATOM     29  C   UNL     1      -3.682  -3.244   0.435  1.00  0.00     0.000 A 
INPUT-LIGAND-PDBQT: ATOM     30  C   UNL     1      -5.021  -3.427   0.700  1.00  0.00     0.000 A 
INPUT-LIGAND-PDBQT: ENDBRANCH  21  25
INPUT-LIGAND-PDBQT: ENDBRANCH  17  19
INPUT-LIGAND-PDBQT: ENDBRANCH   1  17
INPUT-LIGAND-PDBQT: TORSDOF 5


    FINAL DOCKED STATE:
    ________________________


Run:   1 / 20
Time taken for this run:   0.046s

DOCKED: MODEL        1
DOCKED: USER    Run = 1
DOCKED: USER
DOCKED: USER    Estimated Free Energy of Binding    =  -8.84 kcal/mol  [=(1)+(2)+(3)-(4)]
DOCKED: USER
DOCKED: USER    (1) Final Intermolecular Energy     = -10.33 kcal/mol
DOCKED: USER        vdW + Hbond + desolv Energy     = -10.32 kcal/mol
DOCKED: USER        Electrostatic Energy            =  -0.01 kcal/mol
DOCKED: USER        Moving Ligand-Fixed Receptor    = -10.33 kcal/mol
DOCKED: USER        Moving Ligand-Moving Receptor   =  +0.00 kcal/mol
DOCKED: USER    (2) Final Total Internal Energy     =  -1.65 kcal/mol
DOCKED: USER    (3) Torsional Free Energy           =  +1.49 kcal/mol
DOCKED: USER    (4) Unbound System's Energy         =  -1.65 kcal/mol
DOCKED: USER
DOCKED: USER
DOCKED: REMARK SMILES O=C(NCC(=O)N1CCCC[C@H]1c1ccccc1)c1ccc2cc(Cl)ccc2n1
DOCKED: REMARK SMILES IDX 4 1 3 2 2 3 1 4 19 6 20 7 29 8 21 9 28 10 22 11 27 12 23 13
DOCKED: REMARK SMILES IDX 26 14 24 15 25 16 5 17 6 18 7 19 8 20 12 21 9 22 11 23 10 24
DOCKED: REMARK SMILES IDX 13 25 14 26 18 27 15 28 17 29 16 30
DOCKED: REMARK H PARENT 3 5
DOCKED: USER                              x       y       z     vdW  Elec       q    Type
DOCKED: USER                           _______ _______ _______ _____ _____    ______ ____
DOCKED: ROOT
DOCKED: ATOM      1  C   UNL     1     139.115  74.813 221.182 -0.15 -0.05    +0.216 C  
DOCKED: ENDROOT
DOCKED: BRANCH   1   2
DOCKED: ATOM      2  N   UNL     1     139.365  73.934 222.309 -0.09 +0.07    -0.342 N  
DOCKED: ATOM      3  C   UNL     1     139.379  72.521 222.074 -0.16 -0.06    +0.270 C  
DOCKED: ATOM      4  O   UNL     1     139.178  72.043 220.907 -0.05 +0.05    -0.268 OA 
DOCKED: ATOM      5  H   UNL     1     139.534  74.294 223.276 -0.49 -0.02    +0.164 HD 
DOCKED: BRANCH   3   6
DOCKED: ATOM      6  C   UNL     1     139.629  71.621 223.194 -0.28 -0.03    +0.128 A  
DOCKED: ATOM      7  C   UNL     1     139.339  70.278 223.069 -0.24 -0.01    +0.035 A  
DOCKED: ATOM      8  N   UNL     1     140.137  72.030 224.370 -0.11 +0.05    -0.243 NA 
DOCKED: ATOM      9  C   UNL     1     139.545  69.359 224.077 -0.27 -0.00    +0.013 A  
DOCKED: ATOM     10  C   UNL     1     140.351  71.151 225.381 -0.50 -0.01    +0.071 A  
DOCKED: ATOM     11  C   UNL     1     140.066  69.812 225.268 -0.44 -0.00    +0.002 A  
DOCKED: ATOM     12  C   UNL     1     140.875  71.581 226.589 -0.68 -0.00    +0.030 A  
DOCKED: ATOM     13  C   UNL     1     140.270  68.894 226.273 -0.53 -0.01    +0.030 A  
DOCKED: ATOM     14  C   UNL     1     141.088  70.661 227.618 -0.62 -0.00    +0.023 A  
DOCKED: ATOM     15  C   UNL     1     140.792  69.322 227.475 -0.57 -0.01    +0.041 A  
DOCKED: ATOM     16  Cl  UNL     1     141.043  68.145 228.733 -0.69 +0.02    -0.084 Cl 
DOCKED: ENDBRANCH   3   6
DOCKED: ENDBRANCH   1   2
DOCKED: BRANCH   1  17
DOCKED: ATOM     17  C   UNL     1     139.040  76.230 221.593 -0.18 -0.05    +0.242 C  
DOCKED: ATOM     18  O   UNL     1     138.214  76.526 222.495 -0.22 +0.06    -0.273 OA 
DOCKED: BRANCH  17  19
DOCKED: ATOM     19  N   UNL     1     139.889  77.180 220.961 -0.06 +0.10    -0.334 N  
DOCKED: ATOM     20  C   UNL     1     139.424  77.949 219.827 -0.06 -0.03    +0.120 C  
DOCKED: ATOM     21  C   UNL     1     141.253  77.411 221.422 -0.25 -0.06    +0.115 C  
DOCKED: ATOM     22  C   UNL     1     140.441  78.917 219.359 -0.13 -0.01    +0.022 C  
DOCKED: ATOM     23  C   UNL     1     142.223  77.408 220.268 -0.24 -0.02    +0.030 C  
DOCKED: ATOM     24  C   UNL     1     141.822  78.347 219.167 -0.28 -0.00    +0.004 C  
DOCKED: BRANCH  21  25
DOCKED: ATOM     25  C   UNL     1     141.346  78.618 222.272 -0.44 +0.01    -0.025 A  
DOCKED: ATOM     26  C   UNL     1     140.304  79.156 222.986 -0.42 -0.00    +0.006 A  
DOCKED: ATOM     27  C   UNL     1     142.564  79.260 222.361 -0.48 -0.00    +0.006 A  
DOCKED: ATOM     28  C   UNL     1     140.445  80.300 223.773 -0.44 -0.00    +0.000 A  
DOCKED: ATOM     29  C   UNL     1     142.712  80.407 223.149 -0.66 -0.00    +0.000 A  
DOCKED: ATOM     30  C   UNL     1     141.662  80.942 223.862 -0.56 -0.00    +0.000 A  
DOCKED: ENDBRANCH  21  25
DOCKED: ENDBRANCH  17  19
DOCKED: ENDBRANCH   1  17
DOCKED: TORSDOF 5
DOCKED: TER
DOCKED: ENDMDL
________________________________________________________________________________


    FINAL DOCKED STATE:
    ________________________


Run:   2 / 20
Time taken for this run:   0.046s

DOCKED: MODEL        2
DOCKED: USER    Run = 2
DOCKED: USER
DOCKED: USER    Estimated Free Energy of Binding    =  -9.03 kcal/mol  [=(1)+(2)+(3)-(4)]
DOCKED: USER
DOCKED: USER    (1) Final Intermolecular Energy     = -10.52 kcal/mol
DOCKED: USER        vdW + Hbond + desolv Energy     = -10.43 kcal/mol
DOCKED: USER        Electrostatic Energy            =  -0.09 kcal/mol
DOCKED: USER        Moving Ligand-Fixed Receptor    = -10.52 kcal/mol
DOCKED: USER        Moving Ligand-Moving Receptor   =  +0.00 kcal/mol
DOCKED: USER    (2) Final Total Internal Energy     =  -1.62 kcal/mol
DOCKED: USER    (3) Torsional Free Energy           =  +1.49 kcal/mol
DOCKED: USER    (4) Unbound System's Energy         =  -1.62 kcal/mol
DOCKED: USER
DOCKED: USER
DOCKED: REMARK SMILES O=C(NCC(=O)N1CCCC[C@H]1c1ccccc1)c1ccc2cc(Cl)ccc2n1
DOCKED: REMARK SMILES IDX 4 1 3 2 2 3 1 4 19 6 20 7 29 8 21 9 28 10 22 11 27 12 23 13
DOCKED: REMARK SMILES IDX 26 14 24 15 25 16 5 17 6 18 7 19 8 20 12 21 9 22 11 23 10 24
DOCKED: REMARK SMILES IDX 13 25 14 26 18 27 15 28 17 29 16 30
DOCKED: REMARK H PARENT 3 5
DOCKED: USER                              x       y       z     vdW  Elec       q    Type
DOCKED: USER                           _______ _______ _______ _____ _____    ______ ____
DOCKED: ROOT
DOCKED: ATOM      1  C   UNL     1     139.163  74.944 221.021 -0.14 -0.05    +0.216 C  
DOCKED: ENDROOT
DOCKED: BRANCH   1   2
DOCKED: ATOM      2  N   UNL     1     139.237  74.041 222.154 -0.10 +0.08    -0.342 N  
DOCKED: ATOM      3  C   UNL     1     139.900  72.784 221.975 -0.19 -0.04    +0.270 C  
DOCKED: ATOM      4  O   UNL     1     140.414  72.462 220.851 -0.10 +0.04    -0.268 OA 
DOCKED: ATOM      5  H   UNL     1     138.826  74.275 223.087 -0.56 -0.10    +0.164 HD 
DOCKED: BRANCH   3   6
DOCKED: ATOM      6  C   UNL     1     139.984  71.862 223.103 -0.30 -0.02    +0.128 A  
DOCKED: ATOM      7  C   UNL     1     139.543  70.563 222.957 -0.25 -0.01    +0.035 A  
DOCKED: ATOM      8  N   UNL     1     140.477  72.211 224.305 -0.08 +0.03    -0.243 NA 
DOCKED: ATOM      9  C   UNL     1     139.587  69.629 223.971 -0.28 -0.00    +0.013 A  
DOCKED: ATOM     10  C   UNL     1     140.534  71.315 225.322 -0.50 -0.01    +0.071 A  
DOCKED: ATOM     11  C   UNL     1     140.098  70.018 225.189 -0.44 -0.00    +0.002 A  
DOCKED: ATOM     12  C   UNL     1     141.044  71.681 226.555 -0.70 -0.00    +0.030 A  
DOCKED: ATOM     13  C   UNL     1     140.140  69.085 226.199 -0.51 -0.01    +0.030 A  
DOCKED: ATOM     14  C   UNL     1     141.094  70.744 227.591 -0.63 -0.00    +0.023 A  
DOCKED: ATOM     15  C   UNL     1     140.648  69.450 227.427 -0.57 -0.01    +0.041 A  
DOCKED: ATOM     16  Cl  UNL     1     140.694  68.254 228.691 -0.66 +0.02    -0.084 Cl 
DOCKED: ENDBRANCH   3   6
DOCKED: ENDBRANCH   1   2
DOCKED: BRANCH   1  17
DOCKED: ATOM     17  C   UNL     1     139.077  76.356 221.445 -0.16 -0.06    +0.242 C  
DOCKED: ATOM     18  O   UNL     1     138.254  76.636 222.355 -0.20 +0.06    -0.273 OA 
DOCKED: BRANCH  17  19
DOCKED: ATOM     19  N   UNL     1     139.912  77.320 220.816 -0.05 +0.10    -0.334 N  
DOCKED: ATOM     20  C   UNL     1     139.420  78.121 219.716 -0.06 -0.03    +0.120 C  
DOCKED: ATOM     21  C   UNL     1     141.288  77.535 221.246 -0.27 -0.06    +0.115 C  
DOCKED: ATOM     22  C   UNL     1     140.427  79.098 219.247 -0.13 -0.01    +0.022 C  
DOCKED: ATOM     23  C   UNL     1     142.228  77.560 220.067 -0.27 -0.02    +0.030 C  
DOCKED: ATOM     24  C   UNL     1     141.801  78.529 219.003 -0.27 -0.00    +0.004 C  
DOCKED: BRANCH  21  25
DOCKED: ATOM     25  C   UNL     1     141.408  78.718 222.126 -0.43 +0.01    -0.025 A  
DOCKED: ATOM     26  C   UNL     1     142.576  79.394 222.375 -0.53 -0.00    +0.006 A  
DOCKED: ATOM     27  C   UNL     1     140.269  79.187 222.747 -0.39 -0.00    +0.006 A  
DOCKED: ATOM     28  C   UNL     1     142.636  80.506 223.217 -0.66 -0.00    +0.000 A  
DOCKED: ATOM     29  C   UNL     1     140.322  80.302 223.591 -0.45 -0.00    +0.000 A  
DOCKED: ATOM     30  C   UNL     1     141.498  80.974 223.839 -0.55 -0.00    +0.000 A  
DOCKED: ENDBRANCH  21  25
DOCKED: ENDBRANCH  17  19
DOCKED: ENDBRANCH   1  17
DOCKED: TORSDOF 5
DOCKED: TER
DOCKED: ENDMDL
________________________________________________________________________________


    FINAL DOCKED STATE:
    ________________________


Run:   3 / 20
Time taken for this run:   0.046s

DOCKED: MODEL        3
DOCKED: USER    Run = 3
DOCKED: USER
DOCKED: USER    Estimated Free Energy of Binding    =  -9.03 kcal/mol  [=(1)+(2)+(3)-(4)]
DOCKED: USER
DOCKED: USER    (1) Final Intermolecular Energy     = -10.52 kcal/mol
DOCKED: USER        vdW + Hbond + desolv Energy     = -10.42 kcal/mol
DOCKED: USER        Electrostatic Energy            =  -0.10 kcal/mol
DOCKED: USER        Moving Ligand-Fixed Receptor    = -10.52 kcal/mol
DOCKED: USER        Moving Ligand-Moving Receptor   =  +0.00 kcal/mol
DOCKED: USER    (2) Final Total Internal Energy     =  -1.62 kcal/mol
DOCKED: USER    (3) Torsional Free Energy           =  +1.49 kcal/mol
DOCKED: USER    (4) Unbound System's Energy         =  -1.62 kcal/mol
DOCKED: USER
DOCKED: USER
DOCKED: REMARK SMILES O=C(NCC(=O)N1CCCC[C@H]1c1ccccc1)c1ccc2cc(Cl)ccc2n1
DOCKED: REMARK SMILES IDX 4 1 3 2 2 3 1 4 19 6 20 7 29 8 21 9 28 10 22 11 27 12 23 13
DOCKED: REMARK SMILES IDX 26 14 24 15 25 16 5 17 6 18 7 19 8 20 12 21 9 22 11 23 10 24
DOCKED: REMARK SMILES IDX 13 25 14 26 18 27 15 28 17 29 16 30
DOCKED: REMARK H PARENT 3 5
DOCKED: USER                              x       y       z     vdW  Elec       q    Type
DOCKED: USER                           _______ _______ _______ _____ _____    ______ ____
DOCKED: ROOT
DOCKED: ATOM      1  C   UNL     1     139.126  74.941 221.058 -0.14 -0.05    +0.216 C  
DOCKED: ENDROOT
DOCKED: BRANCH   1   2
DOCKED: ATOM      2  N   UNL     1     139.189  74.026 222.182 -0.09 +0.08    -0.342 N  
DOCKED: ATOM      3  C   UNL     1     139.948  72.821 222.032 -0.19 -0.04    +0.270 C  
DOCKED: ATOM      4  O   UNL     1     140.555  72.553 220.940 -0.12 +0.04    -0.268 OA 
DOCKED: ATOM      5  H   UNL     1     138.704  74.216 223.089 -0.56 -0.11    +0.164 HD 
DOCKED: BRANCH   3   6
DOCKED: ATOM      6  C   UNL     1     140.023  71.888 223.152 -0.30 -0.02    +0.128 A  
DOCKED: ATOM      7  C   UNL     1     139.605  70.584 222.983 -0.25 -0.01    +0.035 A  
DOCKED: ATOM      8  N   UNL     1     140.485  72.231 224.367 -0.05 +0.03    -0.243 NA 
DOCKED: ATOM      9  C   UNL     1     139.642  69.640 223.987 -0.27 -0.00    +0.013 A  
DOCKED: ATOM     10  C   UNL     1     140.535  71.326 225.376 -0.51 -0.01    +0.071 A  
DOCKED: ATOM     11  C   UNL     1     140.121  70.024 225.220 -0.45 -0.00    +0.002 A  
DOCKED: ATOM     12  C   UNL     1     141.013  71.686 226.624 -0.70 -0.00    +0.030 A  
DOCKED: ATOM     13  C   UNL     1     140.157  69.081 226.221 -0.51 -0.01    +0.030 A  
DOCKED: ATOM     14  C   UNL     1     141.055  70.739 227.650 -0.64 -0.00    +0.023 A  
DOCKED: ATOM     15  C   UNL     1     140.633  69.440 227.464 -0.58 -0.01    +0.041 A  
DOCKED: ATOM     16  Cl  UNL     1     140.671  68.232 228.716 -0.64 +0.02    -0.084 Cl 
DOCKED: ENDBRANCH   3   6
DOCKED: ENDBRANCH   1   2
DOCKED: BRANCH   1  17
DOCKED: ATOM     17  C   UNL     1     139.045  76.349 221.495 -0.17 -0.05    +0.242 C  
DOCKED: ATOM     18  O   UNL     1     138.219  76.624 222.404 -0.21 +0.06    -0.273 OA 
DOCKED: BRANCH  17  19
DOCKED: ATOM     19  N   UNL     1     139.889  77.315 220.880 -0.05 +0.10    -0.334 N  
DOCKED: ATOM     20  C   UNL     1     139.416  78.109 219.767 -0.06 -0.03    +0.120 C  
DOCKED: ATOM     21  C   UNL     1     141.254  77.539 221.339 -0.27 -0.06    +0.115 C  
DOCKED: ATOM     22  C   UNL     1     140.429  79.089 219.315 -0.13 -0.01    +0.022 C  
DOCKED: ATOM     23  C   UNL     1     142.219  77.563 220.180 -0.26 -0.02    +0.030 C  
DOCKED: ATOM     24  C   UNL     1     141.810  78.526 219.103 -0.27 -0.00    +0.004 C  
DOCKED: BRANCH  21  25
DOCKED: ATOM     25  C   UNL     1     141.350  78.726 222.215 -0.43 +0.01    -0.025 A  
DOCKED: ATOM     26  C   UNL     1     140.302  79.271 222.914 -0.41 -0.00    +0.006 A  
DOCKED: ATOM     27  C   UNL     1     142.578  79.340 222.349 -0.51 -0.00    +0.006 A  
DOCKED: ATOM     28  C   UNL     1     140.445  80.396 223.727 -0.44 -0.00    +0.000 A  
DOCKED: ATOM     29  C   UNL     1     142.729  80.468 223.164 -0.66 -0.00    +0.000 A  
DOCKED: ATOM     30  C   UNL     1     141.672  81.010 223.861 -0.57 -0.00    +0.000 A  
DOCKED: ENDBRANCH  21  25
DOCKED: ENDBRANCH  17  19
DOCKED: ENDBRANCH   1  17
DOCKED: TORSDOF 5
DOCKED: TER
DOCKED: ENDMDL
________________________________________________________________________________


    FINAL DOCKED STATE:
    ________________________


Run:   4 / 20
Time taken for this run:   0.046s

DOCKED: MODEL        4
DOCKED: USER    Run = 4
DOCKED: USER
DOCKED: USER    Estimated Free Energy of Binding    =  -8.80 kcal/mol  [=(1)+(2)+(3)-(4)]
DOCKED: USER
DOCKED: USER    (1) Final Intermolecular Energy     = -10.29 kcal/mol
DOCKED: USER        vdW + Hbond + desolv Energy     = -10.24 kcal/mol
DOCKED: USER        Electrostatic Energy            =  -0.05 kcal/mol
DOCKED: USER        Moving Ligand-Fixed Receptor    = -10.29 kcal/mol
DOCKED: USER        Moving Ligand-Moving Receptor   =  +0.00 kcal/mol
DOCKED: USER    (2) Final Total Internal Energy     =  -1.65 kcal/mol
DOCKED: USER    (3) Torsional Free Energy           =  +1.49 kcal/mol
DOCKED: USER    (4) Unbound System's Energy         =  -1.65 kcal/mol
DOCKED: USER
DOCKED: USER
DOCKED: REMARK SMILES O=C(NCC(=O)N1CCCC[C@H]1c1ccccc1)c1ccc2cc(Cl)ccc2n1
DOCKED: REMARK SMILES IDX 4 1 3 2 2 3 1 4 19 6 20 7 29 8 21 9 28 10 22 11 27 12 23 13
DOCKED: REMARK SMILES IDX 26 14 24 15 25 16 5 17 6 18 7 19 8 20 12 21 9 22 11 23 10 24
DOCKED: REMARK SMILES IDX 13 25 14 26 18 27 15 28 17 29 16 30
DOCKED: REMARK H PARENT 3 5
DOCKED: USER                              x       y       z     vdW  Elec       q    Type
DOCKED: USER                           _______ _______ _______ _____ _____    ______ ____
DOCKED: ROOT
DOCKED: ATOM      1  C   UNL     1     139.472  75.074 221.170 -0.17 -0.05    +0.216 C  
DOCKED: ENDROOT
DOCKED: BRANCH   1   2
DOCKED: ATOM      2  N   UNL     1     139.532  74.156 222.291 -0.10 +0.05    -0.342 N  
DOCKED: ATOM      3  C   UNL     1     139.953  72.809 222.041 -0.19 -0.04    +0.270 C  
DOCKED: ATOM      4  O   UNL     1     140.268  72.423 220.865 -0.09 +0.04    -0.268 OA 
DOCKED: ATOM      5  H   UNL     1     139.282  74.441 223.266 -0.51 -0.06    +0.164 HD 
DOCKED: BRANCH   3   6
DOCKED: ATOM      6  C   UNL     1     140.021  71.871 223.156 -0.30 -0.02    +0.128 A  
DOCKED: ATOM      7  C   UNL     1     139.586  70.573 222.983 -0.25 -0.01    +0.035 A  
DOCKED: ATOM      8  N   UNL     1     140.492  72.202 224.371 -0.06 +0.03    -0.243 NA 
DOCKED: ATOM      9  C   UNL     1     139.615  69.623 223.983 -0.27 -0.00    +0.013 A  
DOCKED: ATOM     10  C   UNL     1     140.534  71.291 225.375 -0.51 -0.01    +0.071 A  
DOCKED: ATOM     11  C   UNL     1     140.103  69.996 225.215 -0.44 -0.00    +0.002 A  
DOCKED: ATOM     12  C   UNL     1     141.021  71.640 226.623 -0.70 -0.00    +0.030 A  
DOCKED: ATOM     13  C   UNL     1     140.131  69.047 226.212 -0.51 -0.01    +0.030 A  
DOCKED: ATOM     14  C   UNL     1     141.056  70.688 227.645 -0.64 -0.00    +0.023 A  
DOCKED: ATOM     15  C   UNL     1     140.617  69.395 227.454 -0.58 -0.01    +0.041 A  
DOCKED: ATOM     16  Cl  UNL     1     140.644  68.180 228.700 -0.61 +0.02    -0.084 Cl 
DOCKED: ENDBRANCH   3   6
DOCKED: ENDBRANCH   1   2
DOCKED: BRANCH   1  17
DOCKED: ATOM     17  C   UNL     1     138.973  76.404 221.572 -0.17 -0.05    +0.242 C  
DOCKED: ATOM     18  O   UNL     1     138.072  76.441 222.450 -0.21 +0.06    -0.273 OA 
DOCKED: BRANCH  17  19
DOCKED: ATOM     19  N   UNL     1     139.522  77.564 220.959 -0.04 +0.09    -0.334 N  
DOCKED: ATOM     20  C   UNL     1     138.662  78.608 220.444 -0.06 -0.03    +0.120 C  
DOCKED: ATOM     21  C   UNL     1     140.962  77.746 220.819 -0.23 -0.05    +0.115 C  
DOCKED: ATOM     22  C   UNL     1     139.435  79.746 219.902 -0.09 -0.01    +0.022 C  
DOCKED: ATOM     23  C   UNL     1     141.322  78.171 219.418 -0.22 -0.02    +0.030 C  
DOCKED: ATOM     24  C   UNL     1     140.546  79.370 218.956 -0.13 -0.00    +0.004 C  
DOCKED: BRANCH  21  25
DOCKED: ATOM     25  C   UNL     1     141.506  78.635 221.868 -0.41 +0.01    -0.025 A  
DOCKED: ATOM     26  C   UNL     1     142.189  79.801 221.629 -0.43 -0.00    +0.006 A  
DOCKED: ATOM     27  C   UNL     1     141.319  78.278 223.187 -0.53 -0.00    +0.006 A  
DOCKED: ATOM     28  C   UNL     1     142.684  80.605 222.658 -0.59 -0.00    +0.000 A  
DOCKED: ATOM     29  C   UNL     1     141.813  79.080 224.223 -0.57 -0.00    +0.000 A  
DOCKED: ATOM     30  C   UNL     1     142.499  80.248 223.976 -0.61 -0.00    +0.000 A  
DOCKED: ENDBRANCH  21  25
DOCKED: ENDBRANCH  17  19
DOCKED: ENDBRANCH   1  17
DOCKED: TORSDOF 5
DOCKED: TER
DOCKED: ENDMDL
________________________________________________________________________________


    FINAL DOCKED STATE:
    ________________________


Run:   5 / 20
Time taken for this run:   0.046s

DOCKED: MODEL        5
DOCKED: USER    Run = 5
DOCKED: USER
DOCKED: USER    Estimated Free Energy of Binding    =  -8.86 kcal/mol  [=(1)+(2)+(3)-(4)]
DOCKED: USER
DOCKED: USER    (1) Final Intermolecular Energy     = -10.36 kcal/mol
DOCKED: USER        vdW + Hbond + desolv Energy     = -10.36 kcal/mol
DOCKED: USER        Electrostatic Energy            =  +0.01 kcal/mol
DOCKED: USER        Moving Ligand-Fixed Receptor    = -10.36 kcal/mol
DOCKED: USER        Moving Ligand-Moving Receptor   =  +0.00 kcal/mol
DOCKED: USER    (2) Final Total Internal Energy     =  -1.50 kcal/mol
DOCKED: USER    (3) Torsional Free Energy           =  +1.49 kcal/mol
DOCKED: USER    (4) Unbound System's Energy         =  -1.50 kcal/mol
DOCKED: USER
DOCKED: USER
DOCKED: REMARK SMILES O=C(NCC(=O)N1CCCC[C@H]1c1ccccc1)c1ccc2cc(Cl)ccc2n1
DOCKED: REMARK SMILES IDX 4 1 3 2 2 3 1 4 19 6 20 7 29 8 21 9 28 10 22 11 27 12 23 13
DOCKED: REMARK SMILES IDX 26 14 24 15 25 16 5 17 6 18 7 19 8 20 12 21 9 22 11 23 10 24
DOCKED: REMARK SMILES IDX 13 25 14 26 18 27 15 28 17 29 16 30
DOCKED: REMARK H PARENT 3 5
DOCKED: USER                              x       y       z     vdW  Elec       q    Type
DOCKED: USER                           _______ _______ _______ _____ _____    ______ ____
DOCKED: ROOT
DOCKED: ATOM      1  C   UNL     1     139.461  74.873 221.043 -0.15 -0.05    +0.216 C  
DOCKED: ENDROOT
DOCKED: BRANCH   1   2
DOCKED: ATOM      2  N   UNL     1     139.575  73.994 222.191 -0.12 +0.05    -0.342 N  
DOCKED: ATOM      3  C   UNL     1     139.757  72.593 221.955 -0.18 -0.05    +0.270 C  
DOCKED: ATOM      4  O   UNL     1     139.819  72.125 220.768 -0.06 +0.05    -0.268 OA 
DOCKED: ATOM      5  H   UNL     1     139.528  74.346 223.175 -0.51 -0.02    +0.164 HD 
DOCKED: BRANCH   3   6
DOCKED: ATOM      6  C   UNL     1     139.874  71.693 223.097 -0.29 -0.02    +0.128 A  
DOCKED: ATOM      7  C   UNL     1     139.468  70.380 222.976 -0.24 -0.01    +0.035 A  
DOCKED: ATOM      8  N   UNL     1     140.363  72.075 224.290 -0.18 +0.04    -0.243 NA 
DOCKED: ATOM      9  C   UNL     1     139.544  69.464 224.004 -0.27 -0.00    +0.013 A  
DOCKED: ATOM     10  C   UNL     1     140.451  71.198 225.321 -0.50 -0.01    +0.071 A  
DOCKED: ATOM     11  C   UNL     1     140.050  69.888 225.212 -0.44 -0.00    +0.002 A  
DOCKED: ATOM     12  C   UNL     1     140.957  71.599 226.546 -0.69 -0.00    +0.030 A  
DOCKED: ATOM     13  C   UNL     1     140.125  68.973 226.237 -0.52 -0.01    +0.030 A  
DOCKED: ATOM     14  C   UNL     1     141.039  70.681 227.596 -0.63 -0.00    +0.023 A  
DOCKED: ATOM     15  C   UNL     1     140.629  69.372 227.457 -0.58 -0.01    +0.041 A  
DOCKED: ATOM     16  Cl  UNL     1     140.715  68.199 228.740 -0.63 +0.02    -0.084 Cl 
DOCKED: ENDBRANCH   3   6
DOCKED: ENDBRANCH   1   2
DOCKED: BRANCH   1  17
DOCKED: ATOM     17  C   UNL     1     140.710  75.621 220.793 -0.18 -0.07    +0.242 C  
DOCKED: ATOM     18  O   UNL     1     141.794  75.000 220.948 -0.23 +0.09    -0.273 OA 
DOCKED: BRANCH  17  19
DOCKED: ATOM     19  N   UNL     1     140.633  76.985 220.397 -0.06 +0.12    -0.334 N  
DOCKED: ATOM     20  C   UNL     1     139.384  77.553 219.939 -0.06 -0.03    +0.120 C  
DOCKED: ATOM     21  C   UNL     1     141.801  77.856 220.429 -0.27 -0.07    +0.115 C  
DOCKED: ATOM     22  C   UNL     1     139.512  78.995 219.631 -0.08 -0.01    +0.022 C  
DOCKED: ATOM     23  C   UNL     1     141.941  78.626 219.140 -0.26 -0.02    +0.030 C  
DOCKED: ATOM     24  C   UNL     1     140.687  79.360 218.762 -0.14 -0.00    +0.004 C  
DOCKED: BRANCH  21  25
DOCKED: ATOM     25  C   UNL     1     141.812  78.712 221.635 -0.40 +0.01    -0.025 A  
DOCKED: ATOM     26  C   UNL     1     141.451  78.299 222.893 -0.52 -0.00    +0.006 A  
DOCKED: ATOM     27  C   UNL     1     142.213  80.025 221.498 -0.41 -0.00    +0.006 A  
DOCKED: ATOM     28  C   UNL     1     141.477  79.149 224.000 -0.58 -0.00    +0.000 A  
DOCKED: ATOM     29  C   UNL     1     142.242  80.883 222.604 -0.57 -0.00    +0.000 A  
DOCKED: ATOM     30  C   UNL     1     141.877  80.462 223.864 -0.60 -0.00    +0.000 A  
DOCKED: ENDBRANCH  21  25
DOCKED: ENDBRANCH  17  19
DOCKED: ENDBRANCH   1  17
DOCKED: TORSDOF 5
DOCKED: TER
DOCKED: ENDMDL
________________________________________________________________________________


    FINAL DOCKED STATE:
    ________________________


Run:   6 / 20
Time taken for this run:   0.046s

DOCKED: MODEL        6
DOCKED: USER    Run = 6
DOCKED: USER
DOCKED: USER    Estimated Free Energy of Binding    =  -9.00 kcal/mol  [=(1)+(2)+(3)-(4)]
DOCKED: USER
DOCKED: USER    (1) Final Intermolecular Energy     = -10.49 kcal/mol
DOCKED: USER        vdW + Hbond + desolv Energy     = -10.43 kcal/mol
DOCKED: USER        Electrostatic Energy            =  -0.06 kcal/mol
DOCKED: USER        Moving Ligand-Fixed Receptor    = -10.49 kcal/mol
DOCKED: USER        Moving Ligand-Moving Receptor   =  +0.00 kcal/mol
DOCKED: USER    (2) Final Total Internal Energy     =  -1.68 kcal/mol
DOCKED: USER    (3) Torsional Free Energy           =  +1.49 kcal/mol
DOCKED: USER    (4) Unbound System's Energy         =  -1.68 kcal/mol
DOCKED: USER
DOCKED: USER
DOCKED: REMARK SMILES O=C(NCC(=O)N1CCCC[C@H]1c1ccccc1)c1ccc2cc(Cl)ccc2n1
DOCKED: REMARK SMILES IDX 4 1 3 2 2 3 1 4 19 6 20 7 29 8 21 9 28 10 22 11 27 12 23 13
DOCKED: REMARK SMILES IDX 26 14 24 15 25 16 5 17 6 18 7 19 8 20 12 21 9 22 11 23 10 24
DOCKED: REMARK SMILES IDX 13 25 14 26 18 27 15 28 17 29 16 30
DOCKED: REMARK H PARENT 3 5
DOCKED: USER                              x       y       z     vdW  Elec       q    Type
DOCKED: USER                           _______ _______ _______ _____ _____    ______ ____
DOCKED: ROOT
DOCKED: ATOM      1  C   UNL     1     139.322  75.043 221.206 -0.17 -0.05    +0.216 C  
DOCKED: ENDROOT
DOCKED: BRANCH   1   2
DOCKED: ATOM      2  N   UNL     1     139.441  74.131 222.327 -0.08 +0.06    -0.342 N  
DOCKED: ATOM      3  C   UNL     1     139.759  72.761 222.054 -0.19 -0.05    +0.270 C  
DOCKED: ATOM      4  O   UNL     1     139.934  72.349 220.858 -0.08 +0.05    -0.268 OA 
DOCKED: ATOM      5  H   UNL     1     139.303  74.437 223.318 -0.49 -0.06    +0.164 HD 
DOCKED: BRANCH   3   6
DOCKED: ATOM      6  C   UNL     1     139.883  71.828 223.169 -0.30 -0.02    +0.128 A  
DOCKED: ATOM      7  C   UNL     1     139.479  70.518 223.011 -0.25 -0.01    +0.035 A  
DOCKED: ATOM      8  N   UNL     1     140.378  72.175 224.370 -0.09 +0.04    -0.243 NA 
DOCKED: ATOM      9  C   UNL     1     139.561  69.572 224.011 -0.29 -0.00    +0.013 A  
DOCKED: ATOM     10  C   UNL     1     140.472  71.269 225.375 -0.51 -0.01    +0.071 A  
DOCKED: ATOM     11  C   UNL     1     140.073  69.961 225.229 -0.44 -0.00    +0.002 A  
DOCKED: ATOM     12  C   UNL     1     140.983  71.634 226.608 -0.70 -0.00    +0.030 A  
DOCKED: ATOM     13  C   UNL     1     140.154  69.017 226.227 -0.51 -0.01    +0.030 A  
DOCKED: ATOM     14  C   UNL     1     141.072  70.686 227.631 -0.63 -0.00    +0.023 A  
DOCKED: ATOM     15  C   UNL     1     140.663  69.381 227.455 -0.58 -0.01    +0.041 A  
DOCKED: ATOM     16  Cl  UNL     1     140.758  68.171 228.702 -0.65 +0.02    -0.084 Cl 
DOCKED: ENDBRANCH   3   6
DOCKED: ENDBRANCH   1   2
DOCKED: BRANCH   1  17
DOCKED: ATOM     17  C   UNL     1     139.190  76.446 221.647 -0.19 -0.05    +0.242 C  
DOCKED: ATOM     18  O   UNL     1     138.403  76.679 222.601 -0.23 +0.05    -0.273 OA 
DOCKED: BRANCH  17  19
DOCKED: ATOM     19  N   UNL     1     139.946  77.454 220.986 -0.06 +0.10    -0.334 N  
DOCKED: ATOM     20  C   UNL     1     139.356  78.250 219.932 -0.06 -0.03    +0.120 C  
DOCKED: ATOM     21  C   UNL     1     141.336  77.719 221.336 -0.27 -0.06    +0.115 C  
DOCKED: ATOM     22  C   UNL     1     140.292  79.275 219.421 -0.12 -0.01    +0.022 C  
DOCKED: ATOM     23  C   UNL     1     142.200  77.801 220.103 -0.24 -0.02    +0.030 C  
DOCKED: ATOM     24  C   UNL     1     141.670  78.767 219.084 -0.26 -0.00    +0.004 C  
DOCKED: BRANCH  21  25
DOCKED: ATOM     25  C   UNL     1     141.462  78.893 222.227 -0.44 +0.01    -0.025 A  
DOCKED: ATOM     26  C   UNL     1     140.411  79.523 222.846 -0.41 -0.00    +0.006 A  
DOCKED: ATOM     27  C   UNL     1     142.722  79.401 222.461 -0.49 -0.00    +0.006 A  
DOCKED: ATOM     28  C   UNL     1     140.584  80.630 223.678 -0.45 -0.00    +0.000 A  
DOCKED: ATOM     29  C   UNL     1     142.903  80.511 223.295 -0.67 -0.00    +0.000 A  
DOCKED: ATOM     30  C   UNL     1     141.844  81.139 223.912 -0.58 -0.00    +0.000 A  
DOCKED: ENDBRANCH  21  25
DOCKED: ENDBRANCH  17  19
DOCKED: ENDBRANCH   1  17
DOCKED: TORSDOF 5
DOCKED: TER
DOCKED: ENDMDL
________________________________________________________________________________


    FINAL DOCKED STATE:
    ________________________


Run:   7 / 20
Time taken for this run:   0.046s

DOCKED: MODEL        7
DOCKED: USER    Run = 7
DOCKED: USER
DOCKED: USER    Estimated Free Energy of Binding    =  -8.97 kcal/mol  [=(1)+(2)+(3)-(4)]
DOCKED: USER
DOCKED: USER    (1) Final Intermolecular Energy     = -10.46 kcal/mol
DOCKED: USER        vdW + Hbond + desolv Energy     = -10.40 kcal/mol
DOCKED: USER        Electrostatic Energy            =  -0.06 kcal/mol
DOCKED: USER        Moving Ligand-Fixed Receptor    = -10.46 kcal/mol
DOCKED: USER        Moving Ligand-Moving Receptor   =  +0.00 kcal/mol
DOCKED: USER    (2) Final Total Internal Energy     =  -1.69 kcal/mol
DOCKED: USER    (3) Torsional Free Energy           =  +1.49 kcal/mol
DOCKED: USER    (4) Unbound System's Energy         =  -1.69 kcal/mol
DOCKED: USER
DOCKED: USER
DOCKED: REMARK SMILES O=C(NCC(=O)N1CCCC[C@H]1c1ccccc1)c1ccc2cc(Cl)ccc2n1
DOCKED: REMARK SMILES IDX 4 1 3 2 2 3 1 4 19 6 20 7 29 8 21 9 28 10 22 11 27 12 23 13
DOCKED: REMARK SMILES IDX 26 14 24 15 25 16 5 17 6 18 7 19 8 20 12 21 9 22 11 23 10 24
DOCKED: REMARK SMILES IDX 13 25 14 26 18 27 15 28 17 29 16 30
DOCKED: REMARK H PARENT 3 5
DOCKED: USER                              x       y       z     vdW  Elec       q    Type
DOCKED: USER                           _______ _______ _______ _____ _____    ______ ____
DOCKED: ROOT
DOCKED: ATOM      1  C   UNL     1     139.235  75.004 221.226 -0.16 -0.05    +0.216 C  
DOCKED: ENDROOT
DOCKED: BRANCH   1   2
DOCKED: ATOM      2  N   UNL     1     139.388  74.101 222.350 -0.07 +0.07    -0.342 N  
DOCKED: ATOM      3  C   UNL     1     139.679  72.725 222.077 -0.18 -0.05    +0.270 C  
DOCKED: ATOM      4  O   UNL     1     139.802  72.300 220.879 -0.07 +0.05    -0.268 OA 
DOCKED: ATOM      5  H   UNL     1     139.294  74.417 223.343 -0.49 -0.06    +0.164 HD 
DOCKED: BRANCH   3   6
DOCKED: ATOM      6  C   UNL     1     139.837  71.801 223.195 -0.29 -0.02    +0.128 A  
DOCKED: ATOM      7  C   UNL     1     139.459  70.482 223.049 -0.25 -0.01    +0.035 A  
DOCKED: ATOM      8  N   UNL     1     140.340  72.165 224.388 -0.10 +0.04    -0.243 NA 
DOCKED: ATOM      9  C   UNL     1     139.575  69.543 224.053 -0.29 -0.00    +0.013 A  
DOCKED: ATOM     10  C   UNL     1     140.466  71.266 225.396 -0.51 -0.01    +0.071 A  
DOCKED: ATOM     11  C   UNL     1     140.093  69.949 225.262 -0.45 -0.00    +0.002 A  
DOCKED: ATOM     12  C   UNL     1     140.985  71.649 226.621 -0.70 -0.00    +0.030 A  
DOCKED: ATOM     13  C   UNL     1     140.207  69.012 226.263 -0.52 -0.01    +0.030 A  
DOCKED: ATOM     14  C   UNL     1     141.106  70.708 227.647 -0.61 -0.00    +0.023 A  
DOCKED: ATOM     15  C   UNL     1     140.724  69.394 227.483 -0.58 -0.01    +0.041 A  
DOCKED: ATOM     16  Cl  UNL     1     140.860  68.193 228.735 -0.66 +0.02    -0.084 Cl 
DOCKED: ENDBRANCH   3   6
DOCKED: ENDBRANCH   1   2
DOCKED: BRANCH   1  17
DOCKED: ATOM     17  C   UNL     1     139.129  76.412 221.659 -0.19 -0.05    +0.242 C  
DOCKED: ATOM     18  O   UNL     1     138.348  76.664 222.613 -0.23 +0.05    -0.273 OA 
DOCKED: BRANCH  17  19
DOCKED: ATOM     19  N   UNL     1     139.899  77.403 220.990 -0.06 +0.10    -0.334 N  
DOCKED: ATOM     20  C   UNL     1     139.324  78.189 219.919 -0.06 -0.03    +0.120 C  
DOCKED: ATOM     21  C   UNL     1     141.288  77.661 221.347 -0.27 -0.06    +0.115 C  
DOCKED: ATOM     22  C   UNL     1     140.274  79.198 219.401 -0.12 -0.01    +0.022 C  
DOCKED: ATOM     23  C   UNL     1     142.163  77.717 220.120 -0.26 -0.02    +0.030 C  
DOCKED: ATOM     24  C   UNL     1     141.650  78.673 219.083 -0.26 -0.00    +0.004 C  
DOCKED: BRANCH  21  25
DOCKED: ATOM     25  C   UNL     1     141.417  78.847 222.222 -0.44 +0.01    -0.025 A  
DOCKED: ATOM     26  C   UNL     1     140.374  79.456 222.875 -0.41 -0.00    +0.006 A  
DOCKED: ATOM     27  C   UNL     1     142.672  79.390 222.403 -0.49 -0.00    +0.006 A  
DOCKED: ATOM     28  C   UNL     1     140.550  80.576 223.689 -0.44 -0.00    +0.000 A  
DOCKED: ATOM     29  C   UNL     1     142.855  80.513 223.219 -0.67 -0.00    +0.000 A  
DOCKED: ATOM     30  C   UNL     1     141.804  81.120 223.870 -0.59 -0.00    +0.000 A  
DOCKED: ENDBRANCH  21  25
DOCKED: ENDBRANCH  17  19
DOCKED: ENDBRANCH   1  17
DOCKED: TORSDOF 5
DOCKED: TER
DOCKED: ENDMDL
________________________________________________________________________________


    FINAL DOCKED STATE:
    ________________________


Run:   8 / 20
Time taken for this run:   0.046s

DOCKED: MODEL        8
DOCKED: USER    Run = 8
DOCKED: USER
DOCKED: USER    Estimated Free Energy of Binding    =  -9.02 kcal/mol  [=(1)+(2)+(3)-(4)]
DOCKED: USER
DOCKED: USER    (1) Final Intermolecular Energy     = -10.51 kcal/mol
DOCKED: USER        vdW + Hbond + desolv Energy     = -10.44 kcal/mol
DOCKED: USER        Electrostatic Energy            =  -0.07 kcal/mol
DOCKED: USER        Moving Ligand-Fixed Receptor    = -10.51 kcal/mol
DOCKED: USER        Moving Ligand-Moving Receptor   =  +0.00 kcal/mol
DOCKED: USER    (2) Final Total Internal Energy     =  -1.68 kcal/mol
DOCKED: USER    (3) Torsional Free Energy           =  +1.49 kcal/mol
DOCKED: USER    (4) Unbound System's Energy         =  -1.68 kcal/mol
DOCKED: USER
DOCKED: USER
DOCKED: REMARK SMILES O=C(NCC(=O)N1CCCC[C@H]1c1ccccc1)c1ccc2cc(Cl)ccc2n1
DOCKED: REMARK SMILES IDX 4 1 3 2 2 3 1 4 19 6 20 7 29 8 21 9 28 10 22 11 27 12 23 13
DOCKED: REMARK SMILES IDX 26 14 24 15 25 16 5 17 6 18 7 19 8 20 12 21 9 22 11 23 10 24
DOCKED: REMARK SMILES IDX 13 25 14 26 18 27 15 28 17 29 16 30
DOCKED: REMARK H PARENT 3 5
DOCKED: USER                              x       y       z     vdW  Elec       q    Type
DOCKED: USER                           _______ _______ _______ _____ _____    ______ ____
DOCKED: ROOT
DOCKED: ATOM      1  C   UNL     1     139.287  75.081 221.208 -0.16 -0.05    +0.216 C  
DOCKED: ENDROOT
DOCKED: BRANCH   1   2
DOCKED: ATOM      2  N   UNL     1     139.410  74.167 222.328 -0.08 +0.06    -0.342 N  
DOCKED: ATOM      3  C   UNL     1     139.756  72.804 222.054 -0.18 -0.05    +0.270 C  
DOCKED: ATOM      4  O   UNL     1     139.954  72.400 220.859 -0.08 +0.05    -0.268 OA 
DOCKED: ATOM      5  H   UNL     1     139.255  74.467 223.318 -0.51 -0.06    +0.164 HD 
DOCKED: BRANCH   3   6
DOCKED: ATOM      6  C   UNL     1     139.884  71.870 223.167 -0.30 -0.02    +0.128 A  
DOCKED: ATOM      7  C   UNL     1     139.490  70.558 223.005 -0.25 -0.01    +0.035 A  
DOCKED: ATOM      8  N   UNL     1     140.374  72.219 224.370 -0.07 +0.04    -0.243 NA 
DOCKED: ATOM      9  C   UNL     1     139.578  69.611 224.004 -0.29 -0.00    +0.013 A  
DOCKED: ATOM     10  C   UNL     1     140.472  71.311 225.373 -0.50 -0.01    +0.071 A  
DOCKED: ATOM     11  C   UNL     1     140.083  70.001 225.224 -0.44 -0.00    +0.002 A  
DOCKED: ATOM     12  C   UNL     1     140.978  71.678 226.608 -0.70 -0.00    +0.030 A  
DOCKED: ATOM     13  C   UNL     1     140.169  69.055 226.220 -0.51 -0.01    +0.030 A  
DOCKED: ATOM     14  C   UNL     1     141.071  70.728 227.629 -0.64 -0.00    +0.023 A  
DOCKED: ATOM     15  C   UNL     1     140.672  69.421 227.450 -0.58 -0.01    +0.041 A  
DOCKED: ATOM     16  Cl  UNL     1     140.773  68.209 228.695 -0.66 +0.02    -0.084 Cl 
DOCKED: ENDBRANCH   3   6
DOCKED: ENDBRANCH   1   2
DOCKED: BRANCH   1  17
DOCKED: ATOM     17  C   UNL     1     139.180  76.486 221.650 -0.19 -0.05    +0.242 C  
DOCKED: ATOM     18  O   UNL     1     138.409  76.729 222.615 -0.23 +0.05    -0.273 OA 
DOCKED: BRANCH  17  19
DOCKED: ATOM     19  N   UNL     1     139.938  77.484 220.978 -0.05 +0.10    -0.334 N  
DOCKED: ATOM     20  C   UNL     1     139.349  78.272 219.917 -0.06 -0.03    +0.120 C  
DOCKED: ATOM     21  C   UNL     1     141.330  77.747 221.324 -0.28 -0.06    +0.115 C  
DOCKED: ATOM     22  C   UNL     1     140.289  79.287 219.394 -0.12 -0.01    +0.022 C  
DOCKED: ATOM     23  C   UNL     1     142.192  77.813 220.089 -0.24 -0.02    +0.030 C  
DOCKED: ATOM     24  C   UNL     1     141.665  78.772 219.061 -0.26 -0.00    +0.004 C  
DOCKED: BRANCH  21  25
DOCKED: ATOM     25  C   UNL     1     141.461  78.929 222.203 -0.44 +0.01    -0.025 A  
DOCKED: ATOM     26  C   UNL     1     140.409  79.620 222.750 -0.39 -0.00    +0.006 A  
DOCKED: ATOM     27  C   UNL     1     142.730  79.381 222.502 -0.49 -0.00    +0.006 A  
DOCKED: ATOM     28  C   UNL     1     140.588  80.733 223.573 -0.46 -0.00    +0.000 A  
DOCKED: ATOM     29  C   UNL     1     142.916  80.496 223.328 -0.68 -0.00    +0.000 A  
DOCKED: ATOM     30  C   UNL     1     141.855  81.185 223.872 -0.60 -0.00    +0.000 A  
DOCKED: ENDBRANCH  21  25
DOCKED: ENDBRANCH  17  19
DOCKED: ENDBRANCH   1  17
DOCKED: TORSDOF 5
DOCKED: TER
DOCKED: ENDMDL
________________________________________________________________________________


    FINAL DOCKED STATE:
    ________________________


Run:   9 / 20
Time taken for this run:   0.046s

DOCKED: MODEL        9
DOCKED: USER    Run = 9
DOCKED: USER
DOCKED: USER    Estimated Free Energy of Binding    =  -9.01 kcal/mol  [=(1)+(2)+(3)-(4)]
DOCKED: USER
DOCKED: USER    (1) Final Intermolecular Energy     = -10.50 kcal/mol
DOCKED: USER        vdW + Hbond + desolv Energy     = -10.43 kcal/mol
DOCKED: USER        Electrostatic Energy            =  -0.07 kcal/mol
DOCKED: USER        Moving Ligand-Fixed Receptor    = -10.50 kcal/mol
DOCKED: USER        Moving Ligand-Moving Receptor   =  +0.00 kcal/mol
DOCKED: USER    (2) Final Total Internal Energy     =  -1.64 kcal/mol
DOCKED: USER    (3) Torsional Free Energy           =  +1.49 kcal/mol
DOCKED: USER    (4) Unbound System's Energy         =  -1.64 kcal/mol
DOCKED: USER
DOCKED: USER
DOCKED: REMARK SMILES O=C(NCC(=O)N1CCCC[C@H]1c1ccccc1)c1ccc2cc(Cl)ccc2n1
DOCKED: REMARK SMILES IDX 4 1 3 2 2 3 1 4 19 6 20 7 29 8 21 9 28 10 22 11 27 12 23 13
DOCKED: REMARK SMILES IDX 26 14 24 15 25 16 5 17 6 18 7 19 8 20 12 21 9 22 11 23 10 24
DOCKED: REMARK SMILES IDX 13 25 14 26 18 27 15 28 17 29 16 30
DOCKED: REMARK H PARENT 3 5
DOCKED: USER                              x       y       z     vdW  Elec       q    Type
DOCKED: USER                           _______ _______ _______ _____ _____    ______ ____
DOCKED: ROOT
DOCKED: ATOM      1  C   UNL     1     139.331  75.102 221.216 -0.17 -0.05    +0.216 C  
DOCKED: ENDROOT
DOCKED: BRANCH   1   2
DOCKED: ATOM      2  N   UNL     1     139.430  74.185 222.335 -0.08 +0.06    -0.342 N  
DOCKED: ATOM      3  C   UNL     1     139.784  72.823 222.065 -0.19 -0.04    +0.270 C  
DOCKED: ATOM      4  O   UNL     1     140.007  72.422 220.873 -0.08 +0.05    -0.268 OA 
DOCKED: ATOM      5  H   UNL     1     139.253  74.482 223.322 -0.51 -0.06    +0.164 HD 
DOCKED: BRANCH   3   6
DOCKED: ATOM      6  C   UNL     1     139.889  71.886 223.179 -0.30 -0.02    +0.128 A  
DOCKED: ATOM      7  C   UNL     1     139.443  70.589 223.023 -0.25 -0.01    +0.035 A  
DOCKED: ATOM      8  N   UNL     1     140.405  72.217 224.375 -0.06 +0.04    -0.243 NA 
DOCKED: ATOM      9  C   UNL     1     139.505  69.641 224.022 -0.30 -0.00    +0.013 A  
DOCKED: ATOM     10  C   UNL     1     140.480  71.307 225.378 -0.50 -0.01    +0.071 A  
DOCKED: ATOM     11  C   UNL     1     140.039  70.013 225.236 -0.44 -0.00    +0.002 A  
DOCKED: ATOM     12  C   UNL     1     141.014  71.655 226.607 -0.70 -0.00    +0.030 A  
DOCKED: ATOM     13  C   UNL     1     140.100  69.066 226.232 -0.51 -0.01    +0.030 A  
DOCKED: ATOM     14  C   UNL     1     141.082  70.705 227.628 -0.63 -0.00    +0.023 A  
DOCKED: ATOM     15  C   UNL     1     140.632  69.413 227.456 -0.58 -0.01    +0.041 A  
DOCKED: ATOM     16  Cl  UNL     1     140.700  68.200 228.701 -0.65 +0.02    -0.084 Cl 
DOCKED: ENDBRANCH   3   6
DOCKED: ENDBRANCH   1   2
DOCKED: BRANCH   1  17
DOCKED: ATOM     17  C   UNL     1     139.228  76.506 221.659 -0.19 -0.05    +0.242 C  
DOCKED: ATOM     18  O   UNL     1     138.468  76.750 222.632 -0.24 +0.05    -0.273 OA 
DOCKED: BRANCH  17  19
DOCKED: ATOM     19  N   UNL     1     139.980  77.504 220.979 -0.06 +0.10    -0.334 N  
DOCKED: ATOM     20  C   UNL     1     139.364  78.333 219.966 -0.07 -0.03    +0.120 C  
DOCKED: ATOM     21  C   UNL     1     141.391  77.727 221.268 -0.27 -0.06    +0.115 C  
DOCKED: ATOM     22  C   UNL     1     140.304  79.340 219.427 -0.12 -0.01    +0.022 C  
DOCKED: ATOM     23  C   UNL     1     142.200  77.805 219.998 -0.25 -0.02    +0.030 C  
DOCKED: ATOM     24  C   UNL     1     141.651  78.802 219.019 -0.26 -0.00    +0.004 C  
DOCKED: BRANCH  21  25
DOCKED: ATOM     25  C   UNL     1     141.590  78.882 222.170 -0.45 +0.01    -0.025 A  
DOCKED: ATOM     26  C   UNL     1     142.809  79.416 222.503 -0.47 -0.00    +0.006 A  
DOCKED: ATOM     27  C   UNL     1     140.474  79.475 222.724 -0.40 -0.00    +0.006 A  
DOCKED: ATOM     28  C   UNL     1     142.942  80.508 223.363 -0.68 -0.00    +0.000 A  
DOCKED: ATOM     29  C   UNL     1     140.600  80.570 223.587 -0.46 -0.00    +0.000 A  
DOCKED: ATOM     30  C   UNL     1     141.827  81.100 223.918 -0.57 -0.00    +0.000 A  
DOCKED: ENDBRANCH  21  25
DOCKED: ENDBRANCH  17  19
DOCKED: ENDBRANCH   1  17
DOCKED: TORSDOF 5
DOCKED: TER
DOCKED: ENDMDL
________________________________________________________________________________


    FINAL DOCKED STATE:
    ________________________


Run:   10 / 20
Time taken for this run:   0.046s

DOCKED: MODEL        10
DOCKED: USER    Run = 10
DOCKED: USER
DOCKED: USER    Estimated Free Energy of Binding    =  -8.86 kcal/mol  [=(1)+(2)+(3)-(4)]
DOCKED: USER
DOCKED: USER    (1) Final Intermolecular Energy     = -10.36 kcal/mol
DOCKED: USER        vdW + Hbond + desolv Energy     = -10.33 kcal/mol
DOCKED: USER        Electrostatic Energy            =  -0.02 kcal/mol
DOCKED: USER        Moving Ligand-Fixed Receptor    = -10.36 kcal/mol
DOCKED: USER        Moving Ligand-Moving Receptor   =  +0.00 kcal/mol
DOCKED: USER    (2) Final Total Internal Energy     =  -1.42 kcal/mol
DOCKED: USER    (3) Torsional Free Energy           =  +1.49 kcal/mol
DOCKED: USER    (4) Unbound System's Energy         =  -1.42 kcal/mol
DOCKED: USER
DOCKED: USER
DOCKED: REMARK SMILES O=C(NCC(=O)N1CCCC[C@H]1c1ccccc1)c1ccc2cc(Cl)ccc2n1
DOCKED: REMARK SMILES IDX 4 1 3 2 2 3 1 4 19 6 20 7 29 8 21 9 28 10 22 11 27 12 23 13
DOCKED: REMARK SMILES IDX 26 14 24 15 25 16 5 17 6 18 7 19 8 20 12 21 9 22 11 23 10 24
DOCKED: REMARK SMILES IDX 13 25 14 26 18 27 15 28 17 29 16 30
DOCKED: REMARK H PARENT 3 5
DOCKED: USER                              x       y       z     vdW  Elec       q    Type
DOCKED: USER                           _______ _______ _______ _____ _____    ______ ____
DOCKED: ROOT
DOCKED: ATOM      1  C   UNL     1     139.430  74.835 221.011 -0.15 -0.05    +0.216 C  
DOCKED: ENDROOT
DOCKED: BRANCH   1   2
DOCKED: ATOM      2  N   UNL     1     139.447  73.941 222.153 -0.12 +0.06    -0.342 N  
DOCKED: ATOM      3  C   UNL     1     140.041  72.648 221.992 -0.20 -0.04    +0.270 C  
DOCKED: ATOM      4  O   UNL     1     140.544  72.286 220.875 -0.10 +0.04    -0.268 OA 
DOCKED: ATOM      5  H   UNL     1     139.044  74.207 223.081 -0.55 -0.08    +0.164 HD 
DOCKED: BRANCH   3   6
DOCKED: ATOM      6  C   UNL     1     140.068  71.735 223.130 -0.30 -0.02    +0.128 A  
DOCKED: ATOM      7  C   UNL     1     139.575  70.454 222.988 -0.24 -0.01    +0.035 A  
DOCKED: ATOM      8  N   UNL     1     140.555  72.075 224.336 -0.14 +0.03    -0.243 NA 
DOCKED: ATOM      9  C   UNL     1     139.563  69.529 224.011 -0.28 -0.00    +0.013 A  
DOCKED: ATOM     10  C   UNL     1     140.557  71.187 225.362 -0.51 -0.01    +0.071 A  
DOCKED: ATOM     11  C   UNL     1     140.069  69.909 225.234 -0.44 -0.00    +0.002 A  
DOCKED: ATOM     12  C   UNL     1     141.061  71.544 226.601 -0.70 -0.00    +0.030 A  
DOCKED: ATOM     13  C   UNL     1     140.055  68.985 226.253 -0.51 -0.01    +0.030 A  
DOCKED: ATOM     14  C   UNL     1     141.054  70.617 227.646 -0.63 -0.00    +0.023 A  
DOCKED: ATOM     15  C   UNL     1     140.557  69.341 227.487 -0.58 -0.01    +0.041 A  
DOCKED: ATOM     16  Cl  UNL     1     140.531  68.157 228.763 -0.50 +0.02    -0.084 Cl 
DOCKED: ENDBRANCH   3   6
DOCKED: ENDBRANCH   1   2
DOCKED: BRANCH   1  17
DOCKED: ATOM     17  C   UNL     1     140.540  75.808 221.054 -0.20 -0.07    +0.242 C  
DOCKED: ATOM     18  O   UNL     1     141.691  75.359 221.294 -0.26 +0.10    -0.273 OA 
DOCKED: BRANCH  17  19
DOCKED: ATOM     19  N   UNL     1     140.265  77.184 220.825 -0.06 +0.11    -0.334 N  
DOCKED: ATOM     20  C   UNL     1     138.904  77.677 220.827 -0.10 -0.03    +0.120 C  
DOCKED: ATOM     21  C   UNL     1     141.331  78.146 220.577 -0.25 -0.06    +0.115 C  
DOCKED: ATOM     22  C   UNL     1     138.845  79.141 220.627 -0.10 -0.01    +0.022 C  
DOCKED: ATOM     23  C   UNL     1     141.015  79.011 219.382 -0.19 -0.01    +0.030 C  
DOCKED: ATOM     24  C   UNL     1     139.666  79.662 219.476 -0.09 -0.00    +0.004 C  
DOCKED: BRANCH  21  25
DOCKED: ATOM     25  C   UNL     1     141.669  78.915 221.794 -0.41 +0.01    -0.025 A  
DOCKED: ATOM     26  C   UNL     1     142.207  80.178 221.798 -0.48 -0.00    +0.006 A  
DOCKED: ATOM     27  C   UNL     1     141.431  78.331 223.021 -0.54 -0.00    +0.006 A  
DOCKED: ATOM     28  C   UNL     1     142.509  80.861 222.978 -0.61 -0.00    +0.000 A  
DOCKED: ATOM     29  C   UNL     1     141.732  79.011 224.207 -0.58 -0.00    +0.000 A  
DOCKED: ATOM     30  C   UNL     1     142.273  80.278 224.204 -0.50 -0.00    +0.000 A  
DOCKED: ENDBRANCH  21  25
DOCKED: ENDBRANCH  17  19
DOCKED: ENDBRANCH   1  17
DOCKED: TORSDOF 5
DOCKED: TER
DOCKED: ENDMDL
________________________________________________________________________________


    FINAL DOCKED STATE:
    ________________________


Run:   11 / 20
Time taken for this run:   0.046s

DOCKED: MODEL        11
DOCKED: USER    Run = 11
DOCKED: USER
DOCKED: USER    Estimated Free Energy of Binding    =  -8.87 kcal/mol  [=(1)+(2)+(3)-(4)]
DOCKED: USER
DOCKED: USER    (1) Final Intermolecular Energy     = -10.36 kcal/mol
DOCKED: USER        vdW + Hbond + desolv Energy     = -10.37 kcal/mol
DOCKED: USER        Electrostatic Energy            =  +0.01 kcal/mol
DOCKED: USER        Moving Ligand-Fixed Receptor    = -10.36 kcal/mol
DOCKED: USER        Moving Ligand-Moving Receptor   =  +0.00 kcal/mol
DOCKED: USER    (2) Final Total Internal Energy     =  -1.50 kcal/mol
DOCKED: USER    (3) Torsional Free Energy           =  +1.49 kcal/mol
DOCKED: USER    (4) Unbound System's Energy         =  -1.50 kcal/mol
DOCKED: USER
DOCKED: USER
DOCKED: REMARK SMILES O=C(NCC(=O)N1CCCC[C@H]1c1ccccc1)c1ccc2cc(Cl)ccc2n1
DOCKED: REMARK SMILES IDX 4 1 3 2 2 3 1 4 19 6 20 7 29 8 21 9 28 10 22 11 27 12 23 13
DOCKED: REMARK SMILES IDX 26 14 24 15 25 16 5 17 6 18 7 19 8 20 12 21 9 22 11 23 10 24
DOCKED: REMARK SMILES IDX 13 25 14 26 18 27 15 28 17 29 16 30
DOCKED: REMARK H PARENT 3 5
DOCKED: USER                              x       y       z     vdW  Elec       q    Type
DOCKED: USER                           _______ _______ _______ _____ _____    ______ ____
DOCKED: ROOT
DOCKED: ATOM      1  C   UNL     1     139.497  74.820 220.999 -0.15 -0.05    +0.216 C  
DOCKED: ENDROOT
DOCKED: BRANCH   1   2
DOCKED: ATOM      2  N   UNL     1     139.607  73.943 222.149 -0.13 +0.05    -0.342 N  
DOCKED: ATOM      3  C   UNL     1     139.790  72.542 221.916 -0.18 -0.05    +0.270 C  
DOCKED: ATOM      4  O   UNL     1     139.855  72.072 220.731 -0.06 +0.05    -0.268 OA 
DOCKED: ATOM      5  H   UNL     1     139.558  74.297 223.133 -0.52 -0.01    +0.164 HD 
DOCKED: BRANCH   3   6
DOCKED: ATOM      6  C   UNL     1     139.904  71.644 223.061 -0.29 -0.02    +0.128 A  
DOCKED: ATOM      7  C   UNL     1     139.487  70.333 222.943 -0.23 -0.01    +0.035 A  
DOCKED: ATOM      8  N   UNL     1     140.400  72.024 224.251 -0.21 +0.04    -0.243 NA 
DOCKED: ATOM      9  C   UNL     1     139.559  69.419 223.974 -0.26 -0.00    +0.013 A  
DOCKED: ATOM     10  C   UNL     1     140.484  71.149 225.284 -0.50 -0.01    +0.071 A  
DOCKED: ATOM     11  C   UNL     1     140.073  69.842 225.179 -0.43 -0.00    +0.002 A  
DOCKED: ATOM     12  C   UNL     1     140.997  71.549 226.506 -0.69 -0.00    +0.030 A  
DOCKED: ATOM     13  C   UNL     1     140.143  68.929 226.206 -0.52 -0.01    +0.030 A  
DOCKED: ATOM     14  C   UNL     1     141.075  70.633 227.558 -0.62 -0.00    +0.023 A  
DOCKED: ATOM     15  C   UNL     1     140.654  69.327 227.423 -0.58 -0.01    +0.041 A  
DOCKED: ATOM     16  Cl  UNL     1     140.735  68.157 228.709 -0.64 +0.02    -0.084 Cl 
DOCKED: ENDBRANCH   3   6
DOCKED: ENDBRANCH   1   2
DOCKED: BRANCH   1  17
DOCKED: ATOM     17  C   UNL     1     140.721  75.621 220.796 -0.18 -0.07    +0.242 C  
DOCKED: ATOM     18  O   UNL     1     141.825  75.041 220.965 -0.23 +0.09    -0.273 OA 
DOCKED: BRANCH  17  19
DOCKED: ATOM     19  N   UNL     1     140.600  76.989 220.425 -0.06 +0.12    -0.334 N  
DOCKED: ATOM     20  C   UNL     1     139.320  77.540 220.035 -0.07 -0.03    +0.120 C  
DOCKED: ATOM     21  C   UNL     1     141.751  77.883 220.417 -0.26 -0.07    +0.115 C  
DOCKED: ATOM     22  C   UNL     1     139.405  78.988 219.744 -0.08 -0.01    +0.022 C  
DOCKED: ATOM     23  C   UNL     1     141.816  78.674 219.135 -0.27 -0.02    +0.030 C  
DOCKED: ATOM     24  C   UNL     1     140.532  79.389 218.828 -0.13 -0.00    +0.004 C  
DOCKED: BRANCH  21  25
DOCKED: ATOM     25  C   UNL     1     141.802  78.721 221.635 -0.40 +0.01    -0.025 A  
DOCKED: ATOM     26  C   UNL     1     141.463  78.294 222.894 -0.52 -0.00    +0.006 A  
DOCKED: ATOM     27  C   UNL     1     142.218  80.030 221.508 -0.41 -0.00    +0.006 A  
DOCKED: ATOM     28  C   UNL     1     141.527  79.128 224.012 -0.59 -0.00    +0.000 A  
DOCKED: ATOM     29  C   UNL     1     142.285  80.871 222.625 -0.57 -0.00    +0.000 A  
DOCKED: ATOM     30  C   UNL     1     141.942  80.437 223.886 -0.59 -0.00    +0.000 A  
DOCKED: ENDBRANCH  21  25
DOCKED: ENDBRANCH  17  19
DOCKED: ENDBRANCH   1  17
DOCKED: TORSDOF 5
DOCKED: TER
DOCKED: ENDMDL
________________________________________________________________________________


    FINAL DOCKED STATE:
    ________________________


Run:   12 / 20
Time taken for this run:   0.046s

DOCKED: MODEL        12
DOCKED: USER    Run = 12
DOCKED: USER
DOCKED: USER    Estimated Free Energy of Binding    =  -8.97 kcal/mol  [=(1)+(2)+(3)-(4)]
DOCKED: USER
DOCKED: USER    (1) Final Intermolecular Energy     = -10.47 kcal/mol
DOCKED: USER        vdW + Hbond + desolv Energy     = -10.40 kcal/mol
DOCKED: USER        Electrostatic Energy            =  -0.07 kcal/mol
DOCKED: USER        Moving Ligand-Fixed Receptor    = -10.47 kcal/mol
DOCKED: USER        Moving Ligand-Moving Receptor   =  +0.00 kcal/mol
DOCKED: USER    (2) Final Total Internal Energy     =  -1.67 kcal/mol
DOCKED: USER    (3) Torsional Free Energy           =  +1.49 kcal/mol
DOCKED: USER    (4) Unbound System's Energy         =  -1.67 kcal/mol
DOCKED: USER
DOCKED: USER
DOCKED: REMARK SMILES O=C(NCC(=O)N1CCCC[C@H]1c1ccccc1)c1ccc2cc(Cl)ccc2n1
DOCKED: REMARK SMILES IDX 4 1 3 2 2 3 1 4 19 6 20 7 29 8 21 9 28 10 22 11 27 12 23 13
DOCKED: REMARK SMILES IDX 26 14 24 15 25 16 5 17 6 18 7 19 8 20 12 21 9 22 11 23 10 24
DOCKED: REMARK SMILES IDX 13 25 14 26 18 27 15 28 17 29 16 30
DOCKED: REMARK H PARENT 3 5
DOCKED: USER                              x       y       z     vdW  Elec       q    Type
DOCKED: USER                           _______ _______ _______ _____ _____    ______ ____
DOCKED: ROOT
DOCKED: ATOM      1  C   UNL     1     139.171  74.900 221.148 -0.15 -0.05    +0.216 C  
DOCKED: ENDROOT
DOCKED: BRANCH   1   2
DOCKED: ATOM      2  N   UNL     1     139.330  74.008 222.280 -0.09 +0.07    -0.342 N  
DOCKED: ATOM      3  C   UNL     1     139.631  72.631 222.020 -0.18 -0.05    +0.270 C  
DOCKED: ATOM      4  O   UNL     1     139.756  72.197 220.826 -0.07 +0.05    -0.268 OA 
DOCKED: ATOM      5  H   UNL     1     139.235  74.332 223.270 -0.49 -0.07    +0.164 HD 
DOCKED: BRANCH   3   6
DOCKED: ATOM      6  C   UNL     1     139.796  71.718 223.146 -0.29 -0.02    +0.128 A  
DOCKED: ATOM      7  C   UNL     1     139.419  70.397 223.014 -0.24 -0.01    +0.035 A  
DOCKED: ATOM      8  N   UNL     1     140.304  72.095 224.333 -0.15 +0.04    -0.243 NA 
DOCKED: ATOM      9  C   UNL     1     139.541  69.469 224.027 -0.28 -0.00    +0.013 A  
DOCKED: ATOM     10  C   UNL     1     140.436  71.206 225.349 -0.50 -0.01    +0.071 A  
DOCKED: ATOM     11  C   UNL     1     140.065  69.888 225.229 -0.44 -0.00    +0.002 A  
DOCKED: ATOM     12  C   UNL     1     140.960  71.601 226.567 -0.69 -0.00    +0.030 A  
DOCKED: ATOM     13  C   UNL     1     140.185  68.961 226.239 -0.52 -0.01    +0.030 A  
DOCKED: ATOM     14  C   UNL     1     141.089  70.672 227.602 -0.62 -0.00    +0.023 A  
DOCKED: ATOM     15  C   UNL     1     140.707  69.355 227.452 -0.58 -0.01    +0.041 A  
DOCKED: ATOM     16  Cl  UNL     1     140.852  68.166 228.716 -0.66 +0.02    -0.084 Cl 
DOCKED: ENDBRANCH   3   6
DOCKED: ENDBRANCH   1   2
DOCKED: BRANCH   1  17
DOCKED: ATOM     17  C   UNL     1     139.097  76.314 221.566 -0.18 -0.05    +0.242 C  
DOCKED: ATOM     18  O   UNL     1     138.309  76.599 222.504 -0.22 +0.06    -0.273 OA 
DOCKED: BRANCH  17  19
DOCKED: ATOM     19  N   UNL     1     139.906  77.276 220.900 -0.05 +0.10    -0.334 N  
DOCKED: ATOM     20  C   UNL     1     139.375  78.059 219.805 -0.06 -0.03    +0.120 C  
DOCKED: ATOM     21  C   UNL     1     141.293  77.506 221.285 -0.26 -0.06    +0.115 C  
DOCKED: ATOM     22  C   UNL     1     140.361  79.036 219.293 -0.12 -0.01    +0.022 C  
DOCKED: ATOM     23  C   UNL     1     142.197  77.521 220.077 -0.30 -0.02    +0.030 C  
DOCKED: ATOM     24  C   UNL     1     141.731  78.474 219.014 -0.26 -0.00    +0.004 C  
DOCKED: BRANCH  21  25
DOCKED: ATOM     25  C   UNL     1     141.432  78.701 222.145 -0.43 +0.01    -0.025 A  
DOCKED: ATOM     26  C   UNL     1     142.590  79.418 222.309 -0.50 -0.00    +0.006 A  
DOCKED: ATOM     27  C   UNL     1     140.322  79.136 222.839 -0.41 -0.00    +0.006 A  
DOCKED: ATOM     28  C   UNL     1     142.668  80.540 223.136 -0.66 -0.00    +0.000 A  
DOCKED: ATOM     29  C   UNL     1     140.393  80.261 223.670 -0.45 -0.00    +0.000 A  
DOCKED: ATOM     30  C   UNL     1     141.560  80.975 223.830 -0.56 -0.00    +0.000 A  
DOCKED: ENDBRANCH  21  25
DOCKED: ENDBRANCH  17  19
DOCKED: ENDBRANCH   1  17
DOCKED: TORSDOF 5
DOCKED: TER
DOCKED: ENDMDL
________________________________________________________________________________


    FINAL DOCKED STATE:
    ________________________


Run:   13 / 20
Time taken for this run:   0.046s

DOCKED: MODEL        13
DOCKED: USER    Run = 13
DOCKED: USER
DOCKED: USER    Estimated Free Energy of Binding    =  -8.99 kcal/mol  [=(1)+(2)+(3)-(4)]
DOCKED: USER
DOCKED: USER    (1) Final Intermolecular Energy     = -10.48 kcal/mol
DOCKED: USER        vdW + Hbond + desolv Energy     = -10.41 kcal/mol
DOCKED: USER        Electrostatic Energy            =  -0.07 kcal/mol
DOCKED: USER        Moving Ligand-Fixed Receptor    = -10.48 kcal/mol
DOCKED: USER        Moving Ligand-Moving Receptor   =  +0.00 kcal/mol
DOCKED: USER    (2) Final Total Internal Energy     =  -1.67 kcal/mol
DOCKED: USER    (3) Torsional Free Energy           =  +1.49 kcal/mol
DOCKED: USER    (4) Unbound System's Energy         =  -1.67 kcal/mol
DOCKED: USER
DOCKED: USER
DOCKED: REMARK SMILES O=C(NCC(=O)N1CCCC[C@H]1c1ccccc1)c1ccc2cc(Cl)ccc2n1
DOCKED: REMARK SMILES IDX 4 1 3 2 2 3 1 4 19 6 20 7 29 8 21 9 28 10 22 11 27 12 23 13
DOCKED: REMARK SMILES IDX 26 14 24 15 25 16 5 17 6 18 7 19 8 20 12 21 9 22 11 23 10 24
DOCKED: REMARK SMILES IDX 13 25 14 26 18 27 15 28 17 29 16 30
DOCKED: REMARK H PARENT 3 5
DOCKED: USER                              x       y       z     vdW  Elec       q    Type
DOCKED: USER                           _______ _______ _______ _____ _____    ______ ____
DOCKED: ROOT
DOCKED: ATOM      1  C   UNL     1     139.282  74.954 221.180 -0.16 -0.05    +0.216 C  
DOCKED: ENDROOT
DOCKED: BRANCH   1   2
DOCKED: ATOM      2  N   UNL     1     139.410  74.050 222.307 -0.09 +0.06    -0.342 N  
DOCKED: ATOM      3  C   UNL     1     139.747  72.683 222.044 -0.19 -0.05    +0.270 C  
DOCKED: ATOM      4  O   UNL     1     139.931  72.266 220.851 -0.07 +0.05    -0.268 OA 
DOCKED: ATOM      5  H   UNL     1     139.266  74.360 223.296 -0.49 -0.06    +0.164 HD 
DOCKED: BRANCH   3   6
DOCKED: ATOM      6  C   UNL     1     139.880  71.759 223.165 -0.30 -0.02    +0.128 A  
DOCKED: ATOM      7  C   UNL     1     139.494  70.443 223.013 -0.24 -0.01    +0.035 A  
DOCKED: ATOM      8  N   UNL     1     140.368  72.120 224.365 -0.13 +0.04    -0.243 NA 
DOCKED: ATOM      9  C   UNL     1     139.586  69.504 224.020 -0.27 -0.00    +0.013 A  
DOCKED: ATOM     10  C   UNL     1     140.471  71.221 225.375 -0.51 -0.01    +0.071 A  
DOCKED: ATOM     11  C   UNL     1     140.090  69.908 225.236 -0.44 -0.00    +0.002 A  
DOCKED: ATOM     12  C   UNL     1     140.975  71.600 226.607 -0.69 -0.00    +0.030 A  
DOCKED: ATOM     13  C   UNL     1     140.181  68.971 226.240 -0.52 -0.01    +0.030 A  
DOCKED: ATOM     14  C   UNL     1     141.073  70.660 227.636 -0.63 -0.00    +0.023 A  
DOCKED: ATOM     15  C   UNL     1     140.682  69.349 227.467 -0.58 -0.01    +0.041 A  
DOCKED: ATOM     16  Cl  UNL     1     140.789  68.148 228.722 -0.65 +0.02    -0.084 Cl 
DOCKED: ENDBRANCH   3   6
DOCKED: ENDBRANCH   1   2
DOCKED: BRANCH   1  17
DOCKED: ATOM     17  C   UNL     1     139.185  76.363 221.610 -0.19 -0.05    +0.242 C  
DOCKED: ATOM     18  O   UNL     1     138.415  76.621 222.572 -0.23 +0.05    -0.273 OA 
DOCKED: BRANCH  17  19
DOCKED: ATOM     19  N   UNL     1     139.953  77.350 220.931 -0.05 +0.10    -0.334 N  
DOCKED: ATOM     20  C   UNL     1     139.366  78.146 219.875 -0.06 -0.03    +0.120 C  
DOCKED: ATOM     21  C   UNL     1     141.351  77.592 221.263 -0.26 -0.06    +0.115 C  
DOCKED: ATOM     22  C   UNL     1     140.316  79.147 219.342 -0.12 -0.01    +0.022 C  
DOCKED: ATOM     23  C   UNL     1     142.203  77.644 220.020 -0.27 -0.02    +0.030 C  
DOCKED: ATOM     24  C   UNL     1     141.681  78.610 218.996 -0.25 -0.00    +0.004 C  
DOCKED: BRANCH  21  25
DOCKED: ATOM     25  C   UNL     1     141.508  78.772 222.140 -0.44 +0.01    -0.025 A  
DOCKED: ATOM     26  C   UNL     1     142.697  79.413 222.386 -0.47 -0.00    +0.006 A  
DOCKED: ATOM     27  C   UNL     1     140.385  79.275 222.763 -0.40 -0.00    +0.006 A  
DOCKED: ATOM     28  C   UNL     1     142.791  80.524 223.226 -0.67 -0.00    +0.000 A  
DOCKED: ATOM     29  C   UNL     1     140.473  80.390 223.606 -0.46 -0.00    +0.000 A  
DOCKED: ATOM     30  C   UNL     1     141.669  81.027 223.850 -0.57 -0.00    +0.000 A  
DOCKED: ENDBRANCH  21  25
DOCKED: ENDBRANCH  17  19
DOCKED: ENDBRANCH   1  17
DOCKED: TORSDOF 5
DOCKED: TER
DOCKED: ENDMDL
________________________________________________________________________________


    FINAL DOCKED STATE:
    ________________________


Run:   14 / 20
Time taken for this run:   0.046s

DOCKED: MODEL        14
DOCKED: USER    Run = 14
DOCKED: USER
DOCKED: USER    Estimated Free Energy of Binding    =  -8.88 kcal/mol  [=(1)+(2)+(3)-(4)]
DOCKED: USER
DOCKED: USER    (1) Final Intermolecular Energy     = -10.37 kcal/mol
DOCKED: USER        vdW + Hbond + desolv Energy     = -10.38 kcal/mol
DOCKED: USER        Electrostatic Energy            =  +0.00 kcal/mol
DOCKED: USER        Moving Ligand-Fixed Receptor    = -10.37 kcal/mol
DOCKED: USER        Moving Ligand-Moving Receptor   =  +0.00 kcal/mol
DOCKED: USER    (2) Final Total Internal Energy     =  -1.52 kcal/mol
DOCKED: USER    (3) Torsional Free Energy           =  +1.49 kcal/mol
DOCKED: USER    (4) Unbound System's Energy         =  -1.52 kcal/mol
DOCKED: USER
DOCKED: USER
DOCKED: REMARK SMILES O=C(NCC(=O)N1CCCC[C@H]1c1ccccc1)c1ccc2cc(Cl)ccc2n1
DOCKED: REMARK SMILES IDX 4 1 3 2 2 3 1 4 19 6 20 7 29 8 21 9 28 10 22 11 27 12 23 13
DOCKED: REMARK SMILES IDX 26 14 24 15 25 16 5 17 6 18 7 19 8 20 12 21 9 22 11 23 10 24
DOCKED: REMARK SMILES IDX 13 25 14 26 18 27 15 28 17 29 16 30
DOCKED: REMARK H PARENT 3 5
DOCKED: USER                              x       y       z     vdW  Elec       q    Type
DOCKED: USER                           _______ _______ _______ _____ _____    ______ ____
DOCKED: ROOT
DOCKED: ATOM      1  C   UNL     1     139.478  74.877 221.075 -0.16 -0.05    +0.216 C  
DOCKED: ENDROOT
DOCKED: BRANCH   1   2
DOCKED: ATOM      2  N   UNL     1     139.581  73.988 222.217 -0.12 +0.05    -0.342 N  
DOCKED: ATOM      3  C   UNL     1     139.813  72.596 221.972 -0.19 -0.04    +0.270 C  
DOCKED: ATOM      4  O   UNL     1     139.926  72.144 220.783 -0.07 +0.05    -0.268 OA 
DOCKED: ATOM      5  H   UNL     1     139.494  74.327 223.203 -0.50 -0.02    +0.164 HD 
DOCKED: BRANCH   3   6
DOCKED: ATOM      6  C   UNL     1     139.920  71.686 223.108 -0.29 -0.02    +0.128 A  
DOCKED: ATOM      7  C   UNL     1     139.489  70.382 222.980 -0.24 -0.01    +0.035 A  
DOCKED: ATOM      8  N   UNL     1     140.424  72.051 224.300 -0.18 +0.04    -0.243 NA 
DOCKED: ATOM      9  C   UNL     1     139.554  69.458 224.002 -0.27 -0.00    +0.013 A  
DOCKED: ATOM     10  C   UNL     1     140.501  71.166 225.325 -0.51 -0.01    +0.071 A  
DOCKED: ATOM     11  C   UNL     1     140.076  69.864 225.210 -0.43 -0.00    +0.002 A  
DOCKED: ATOM     12  C   UNL     1     141.023  71.549 226.549 -0.69 -0.00    +0.030 A  
DOCKED: ATOM     13  C   UNL     1     140.140  68.941 226.229 -0.52 -0.01    +0.030 A  
DOCKED: ATOM     14  C   UNL     1     141.094  70.623 227.593 -0.61 -0.00    +0.023 A  
DOCKED: ATOM     15  C   UNL     1     140.659  69.323 227.447 -0.58 -0.01    +0.041 A  
DOCKED: ATOM     16  Cl  UNL     1     140.731  68.140 228.722 -0.63 +0.02    -0.084 Cl 
DOCKED: ENDBRANCH   3   6
DOCKED: ENDBRANCH   1   2
DOCKED: BRANCH   1  17
DOCKED: ATOM     17  C   UNL     1     140.720  75.647 220.860 -0.19 -0.07    +0.242 C  
DOCKED: ATOM     18  O   UNL     1     141.809  75.060 221.090 -0.25 +0.09    -0.273 OA 
DOCKED: BRANCH  17  19
DOCKED: ATOM     19  N   UNL     1     140.630  76.994 220.412 -0.06 +0.12    -0.334 N  
DOCKED: ATOM     20  C   UNL     1     139.373  77.537 219.948 -0.06 -0.03    +0.120 C  
DOCKED: ATOM     21  C   UNL     1     141.794  77.872 220.396 -0.27 -0.07    +0.115 C  
DOCKED: ATOM     22  C   UNL     1     139.488  78.967 219.583 -0.08 -0.01    +0.022 C  
DOCKED: ATOM     23  C   UNL     1     141.913  78.592 219.076 -0.26 -0.02    +0.030 C  
DOCKED: ATOM     24  C   UNL     1     140.651  79.304 218.686 -0.13 -0.00    +0.004 C  
DOCKED: BRANCH  21  25
DOCKED: ATOM     25  C   UNL     1     141.814  78.774 221.568 -0.40 +0.01    -0.025 A  
DOCKED: ATOM     26  C   UNL     1     142.195  80.093 221.535 -0.44 -0.00    +0.006 A  
DOCKED: ATOM     27  C   UNL     1     141.424  78.265 222.789 -0.51 -0.00    +0.006 A  
DOCKED: ATOM     28  C   UNL     1     142.198  80.902 222.673 -0.58 -0.00    +0.000 A  
DOCKED: ATOM     29  C   UNL     1     141.424  79.072 223.933 -0.60 -0.00    +0.000 A  
DOCKED: ATOM     30  C   UNL     1     141.809  80.394 223.894 -0.57 -0.00    +0.000 A  
DOCKED: ENDBRANCH  21  25
DOCKED: ENDBRANCH  17  19
DOCKED: ENDBRANCH   1  17
DOCKED: TORSDOF 5
DOCKED: TER
DOCKED: ENDMDL
________________________________________________________________________________


    FINAL DOCKED STATE:
    ________________________


Run:   15 / 20
Time taken for this run:   0.046s

DOCKED: MODEL        15
DOCKED: USER    Run = 15
DOCKED: USER
DOCKED: USER    Estimated Free Energy of Binding    =  -9.04 kcal/mol  [=(1)+(2)+(3)-(4)]
DOCKED: USER
DOCKED: USER    (1) Final Intermolecular Energy     = -10.53 kcal/mol
DOCKED: USER        vdW + Hbond + desolv Energy     = -10.43 kcal/mol
DOCKED: USER        Electrostatic Energy            =  -0.10 kcal/mol
DOCKED: USER        Moving Ligand-Fixed Receptor    = -10.53 kcal/mol
DOCKED: USER        Moving Ligand-Moving Receptor   =  +0.00 kcal/mol
DOCKED: USER    (2) Final Total Internal Energy     =  -1.61 kcal/mol
DOCKED: USER    (3) Torsional Free Energy           =  +1.49 kcal/mol
DOCKED: USER    (4) Unbound System's Energy         =  -1.61 kcal/mol
DOCKED: USER
DOCKED: USER
DOCKED: REMARK SMILES O=C(NCC(=O)N1CCCC[C@H]1c1ccccc1)c1ccc2cc(Cl)ccc2n1
DOCKED: REMARK SMILES IDX 4 1 3 2 2 3 1 4 19 6 20 7 29 8 21 9 28 10 22 11 27 12 23 13
DOCKED: REMARK SMILES IDX 26 14 24 15 25 16 5 17 6 18 7 19 8 20 12 21 9 22 11 23 10 24
DOCKED: REMARK SMILES IDX 13 25 14 26 18 27 15 28 17 29 16 30
DOCKED: REMARK H PARENT 3 5
DOCKED: USER                              x       y       z     vdW  Elec       q    Type
DOCKED: USER                           _______ _______ _______ _____ _____    ______ ____
DOCKED: ROOT
DOCKED: ATOM      1  C   UNL     1     139.094  74.895 221.108 -0.14 -0.05    +0.216 C  
DOCKED: ENDROOT
DOCKED: BRANCH   1   2
DOCKED: ATOM      2  N   UNL     1     139.138  73.966 222.222 -0.08 +0.08    -0.342 N  
DOCKED: ATOM      3  C   UNL     1     140.009  72.833 222.124 -0.19 -0.04    +0.270 C  
DOCKED: ATOM      4  O   UNL     1     140.729  72.641 221.087 -0.14 +0.04    -0.268 OA 
DOCKED: ATOM      5  H   UNL     1     138.561  74.095 223.084 -0.56 -0.12    +0.164 HD 
DOCKED: BRANCH   3   6
DOCKED: ATOM      6  C   UNL     1     140.067  71.888 223.234 -0.31 -0.02    +0.128 A  
DOCKED: ATOM      7  C   UNL     1     139.613  70.597 223.055 -0.26 -0.01    +0.035 A  
DOCKED: ATOM      8  N   UNL     1     140.547  72.206 224.449 -0.03 +0.03    -0.243 NA 
DOCKED: ATOM      9  C   UNL     1     139.632  69.642 224.050 -0.28 -0.00    +0.013 A  
DOCKED: ATOM     10  C   UNL     1     140.579  71.289 225.448 -0.52 -0.01    +0.071 A  
DOCKED: ATOM     11  C   UNL     1     140.130  70.001 225.283 -0.45 -0.00    +0.002 A  
DOCKED: ATOM     12  C   UNL     1     141.075  71.624 226.696 -0.71 -0.00    +0.030 A  
DOCKED: ATOM     13  C   UNL     1     140.148  69.047 226.274 -0.51 -0.01    +0.030 A  
DOCKED: ATOM     14  C   UNL     1     141.100  70.667 227.713 -0.62 -0.00    +0.023 A  
DOCKED: ATOM     15  C   UNL     1     140.642  69.381 227.517 -0.58 -0.01    +0.041 A  
DOCKED: ATOM     16  Cl  UNL     1     140.656  68.159 228.756 -0.58 +0.02    -0.084 Cl 
DOCKED: ENDBRANCH   3   6
DOCKED: ENDBRANCH   1   2
DOCKED: BRANCH   1  17
DOCKED: ATOM     17  C   UNL     1     139.041  76.299 221.562 -0.18 -0.05    +0.242 C  
DOCKED: ATOM     18  O   UNL     1     138.251  76.572 222.503 -0.22 +0.06    -0.273 OA 
DOCKED: BRANCH  17  19
DOCKED: ATOM     19  N   UNL     1     139.870  77.264 220.926 -0.05 +0.10    -0.334 N  
DOCKED: ATOM     20  C   UNL     1     139.376  78.046 219.813 -0.06 -0.03    +0.120 C  
DOCKED: ATOM     21  C   UNL     1     141.241  77.499 221.362 -0.27 -0.06    +0.115 C  
DOCKED: ATOM     22  C   UNL     1     140.376  79.027 219.338 -0.12 -0.01    +0.022 C  
DOCKED: ATOM     23  C   UNL     1     142.188  77.519 220.188 -0.28 -0.02    +0.030 C  
DOCKED: ATOM     24  C   UNL     1     141.757  78.470 219.109 -0.27 -0.00    +0.004 C  
DOCKED: BRANCH  21  25
DOCKED: ATOM     25  C   UNL     1     141.343  78.695 222.226 -0.43 +0.01    -0.025 A  
DOCKED: ATOM     26  C   UNL     1     140.303  79.238 222.939 -0.42 -0.00    +0.006 A  
DOCKED: ATOM     27  C   UNL     1     142.568  79.319 222.333 -0.49 -0.00    +0.006 A  
DOCKED: ATOM     28  C   UNL     1     140.452  80.371 223.741 -0.44 -0.00    +0.000 A  
DOCKED: ATOM     29  C   UNL     1     142.725  80.456 223.135 -0.66 -0.00    +0.000 A  
DOCKED: ATOM     30  C   UNL     1     141.677  80.996 223.847 -0.58 -0.00    +0.000 A  
DOCKED: ENDBRANCH  21  25
DOCKED: ENDBRANCH  17  19
DOCKED: ENDBRANCH   1  17
DOCKED: TORSDOF 5
DOCKED: TER
DOCKED: ENDMDL
________________________________________________________________________________


    FINAL DOCKED STATE:
    ________________________


Run:   16 / 20
Time taken for this run:   0.046s

DOCKED: MODEL        16
DOCKED: USER    Run = 16
DOCKED: USER
DOCKED: USER    Estimated Free Energy of Binding    =  -9.01 kcal/mol  [=(1)+(2)+(3)-(4)]
DOCKED: USER
DOCKED: USER    (1) Final Intermolecular Energy     = -10.50 kcal/mol
DOCKED: USER        vdW + Hbond + desolv Energy     = -10.43 kcal/mol
DOCKED: USER        Electrostatic Energy            =  -0.07 kcal/mol
DOCKED: USER        Moving Ligand-Fixed Receptor    = -10.50 kcal/mol
DOCKED: USER        Moving Ligand-Moving Receptor   =  +0.00 kcal/mol
DOCKED: USER    (2) Final Total Internal Energy     =  -1.67 kcal/mol
DOCKED: USER    (3) Torsional Free Energy           =  +1.49 kcal/mol
DOCKED: USER    (4) Unbound System's Energy         =  -1.67 kcal/mol
DOCKED: USER
DOCKED: USER
DOCKED: REMARK SMILES O=C(NCC(=O)N1CCCC[C@H]1c1ccccc1)c1ccc2cc(Cl)ccc2n1
DOCKED: REMARK SMILES IDX 4 1 3 2 2 3 1 4 19 6 20 7 29 8 21 9 28 10 22 11 27 12 23 13
DOCKED: REMARK SMILES IDX 26 14 24 15 25 16 5 17 6 18 7 19 8 20 12 21 9 22 11 23 10 24
DOCKED: REMARK SMILES IDX 13 25 14 26 18 27 15 28 17 29 16 30
DOCKED: REMARK H PARENT 3 5
DOCKED: USER                              x       y       z     vdW  Elec       q    Type
DOCKED: USER                           _______ _______ _______ _____ _____    ______ ____
DOCKED: ROOT
DOCKED: ATOM      1  C   UNL     1     139.272  75.066 221.223 -0.17 -0.05    +0.216 C  
DOCKED: ENDROOT
DOCKED: BRANCH   1   2
DOCKED: ATOM      2  N   UNL     1     139.398  74.157 222.346 -0.07 +0.06    -0.342 N  
DOCKED: ATOM      3  C   UNL     1     139.729  72.790 222.075 -0.18 -0.05    +0.270 C  
DOCKED: ATOM      4  O   UNL     1     139.909  72.378 220.879 -0.08 +0.05    -0.268 OA 
DOCKED: ATOM      5  H   UNL     1     139.257  74.463 223.336 -0.50 -0.06    +0.164 HD 
DOCKED: BRANCH   3   6
DOCKED: ATOM      6  C   UNL     1     139.861  71.859 223.191 -0.29 -0.02    +0.128 A  
DOCKED: ATOM      7  C   UNL     1     139.468  70.546 223.035 -0.25 -0.01    +0.035 A  
DOCKED: ATOM      8  N   UNL     1     140.354  72.213 224.391 -0.07 +0.04    -0.243 NA 
DOCKED: ATOM      9  C   UNL     1     139.558  69.603 224.037 -0.29 -0.00    +0.013 A  
DOCKED: ATOM     10  C   UNL     1     140.456  71.309 225.397 -0.50 -0.01    +0.071 A  
DOCKED: ATOM     11  C   UNL     1     140.067  69.998 225.254 -0.45 -0.00    +0.002 A  
DOCKED: ATOM     12  C   UNL     1     140.965  71.680 226.629 -0.70 -0.00    +0.030 A  
DOCKED: ATOM     13  C   UNL     1     140.157  69.056 226.253 -0.51 -0.01    +0.030 A  
DOCKED: ATOM     14  C   UNL     1     141.062  70.735 227.654 -0.64 -0.00    +0.023 A  
DOCKED: ATOM     15  C   UNL     1     140.664  69.426 227.480 -0.58 -0.01    +0.041 A  
DOCKED: ATOM     16  Cl  UNL     1     140.769  68.219 228.729 -0.65 +0.02    -0.084 Cl 
DOCKED: ENDBRANCH   3   6
DOCKED: ENDBRANCH   1   2
DOCKED: BRANCH   1  17
DOCKED: ATOM     17  C   UNL     1     139.159  76.472 221.661 -0.19 -0.05    +0.242 C  
DOCKED: ATOM     18  O   UNL     1     138.373  76.719 222.612 -0.23 +0.05    -0.273 OA 
DOCKED: BRANCH  17  19
DOCKED: ATOM     19  N   UNL     1     139.930  77.468 221.000 -0.06 +0.10    -0.334 N  
DOCKED: ATOM     20  C   UNL     1     139.358  78.260 219.933 -0.06 -0.03    +0.120 C  
DOCKED: ATOM     21  C   UNL     1     141.319  77.724 221.362 -0.27 -0.06    +0.115 C  
DOCKED: ATOM     22  C   UNL     1     140.309  79.272 219.423 -0.12 -0.01    +0.022 C  
DOCKED: ATOM     23  C   UNL     1     142.196  77.788 220.137 -0.24 -0.02    +0.030 C  
DOCKED: ATOM     24  C   UNL     1     141.686  78.750 219.105 -0.26 -0.00    +0.004 C  
DOCKED: BRANCH  21  25
DOCKED: ATOM     25  C   UNL     1     141.446  78.904 222.245 -0.44 +0.01    -0.025 A  
DOCKED: ATOM     26  C   UNL     1     140.393  79.560 222.831 -0.40 -0.00    +0.006 A  
DOCKED: ATOM     27  C   UNL     1     142.710  79.390 222.505 -0.50 -0.00    +0.006 A  
DOCKED: ATOM     28  C   UNL     1     140.567  80.673 223.656 -0.44 -0.00    +0.000 A  
DOCKED: ATOM     29  C   UNL     1     142.892  80.505 223.331 -0.68 -0.00    +0.000 A  
DOCKED: ATOM     30  C   UNL     1     141.830  81.160 223.916 -0.58 -0.00    +0.000 A  
DOCKED: ENDBRANCH  21  25
DOCKED: ENDBRANCH  17  19
DOCKED: ENDBRANCH   1  17
DOCKED: TORSDOF 5
DOCKED: TER
DOCKED: ENDMDL
________________________________________________________________________________


    FINAL DOCKED STATE:
    ________________________


Run:   17 / 20
Time taken for this run:   0.046s

DOCKED: MODEL        17
DOCKED: USER    Run = 17
DOCKED: USER
DOCKED: USER    Estimated Free Energy of Binding    =  -8.97 kcal/mol  [=(1)+(2)+(3)-(4)]
DOCKED: USER
DOCKED: USER    (1) Final Intermolecular Energy     = -10.46 kcal/mol
DOCKED: USER        vdW + Hbond + desolv Energy     = -10.42 kcal/mol
DOCKED: USER        Electrostatic Energy            =  -0.04 kcal/mol
DOCKED: USER        Moving Ligand-Fixed Receptor    = -10.46 kcal/mol
DOCKED: USER        Moving Ligand-Moving Receptor   =  +0.00 kcal/mol
DOCKED: USER    (2) Final Total Internal Energy     =  -1.68 kcal/mol
DOCKED: USER    (3) Torsional Free Energy           =  +1.49 kcal/mol
DOCKED: USER    (4) Unbound System's Energy         =  -1.68 kcal/mol
DOCKED: USER
DOCKED: USER
DOCKED: REMARK SMILES O=C(NCC(=O)N1CCCC[C@H]1c1ccccc1)c1ccc2cc(Cl)ccc2n1
DOCKED: REMARK SMILES IDX 4 1 3 2 2 3 1 4 19 6 20 7 29 8 21 9 28 10 22 11 27 12 23 13
DOCKED: REMARK SMILES IDX 26 14 24 15 25 16 5 17 6 18 7 19 8 20 12 21 9 22 11 23 10 24
DOCKED: REMARK SMILES IDX 13 25 14 26 18 27 15 28 17 29 16 30
DOCKED: REMARK H PARENT 3 5
DOCKED: USER                              x       y       z     vdW  Elec       q    Type
DOCKED: USER                           _______ _______ _______ _____ _____    ______ ____
DOCKED: ROOT
DOCKED: ATOM      1  C   UNL     1     139.398  75.019 221.198 -0.17 -0.05    +0.216 C  
DOCKED: ENDROOT
DOCKED: BRANCH   1   2
DOCKED: ATOM      2  N   UNL     1     139.526  74.113 222.324 -0.09 +0.05    -0.342 N  
DOCKED: ATOM      3  C   UNL     1     139.745  72.724 222.052 -0.19 -0.05    +0.270 C  
DOCKED: ATOM      4  O   UNL     1     139.825  72.289 220.854 -0.07 +0.05    -0.268 OA 
DOCKED: ATOM      5  H   UNL     1     139.465  74.438 223.316 -0.48 -0.03    +0.164 HD 
DOCKED: BRANCH   3   6
DOCKED: ATOM      6  C   UNL     1     139.876  71.797 223.172 -0.30 -0.02    +0.128 A  
DOCKED: ATOM      7  C   UNL     1     139.484  70.483 223.019 -0.25 -0.01    +0.035 A  
DOCKED: ATOM      8  N   UNL     1     140.368  72.154 224.371 -0.11 +0.04    -0.243 NA 
DOCKED: ATOM      9  C   UNL     1     139.574  69.543 224.024 -0.28 -0.00    +0.013 A  
DOCKED: ATOM     10  C   UNL     1     140.470  71.253 225.380 -0.51 -0.01    +0.071 A  
DOCKED: ATOM     11  C   UNL     1     140.082  69.942 225.240 -0.44 -0.00    +0.002 A  
DOCKED: ATOM     12  C   UNL     1     140.979  71.629 226.611 -0.70 -0.00    +0.030 A  
DOCKED: ATOM     13  C   UNL     1     140.172  69.003 226.242 -0.52 -0.01    +0.030 A  
DOCKED: ATOM     14  C   UNL     1     141.075  70.686 227.638 -0.63 -0.00    +0.023 A  
DOCKED: ATOM     15  C   UNL     1     140.678  69.377 227.468 -0.58 -0.01    +0.041 A  
DOCKED: ATOM     16  Cl  UNL     1     140.783  68.173 228.721 -0.65 +0.02    -0.084 Cl 
DOCKED: ENDBRANCH   3   6
DOCKED: ENDBRANCH   1   2
DOCKED: BRANCH   1  17
DOCKED: ATOM     17  C   UNL     1     139.232  76.421 221.633 -0.19 -0.05    +0.242 C  
DOCKED: ATOM     18  O   UNL     1     138.443  76.639 222.589 -0.24 +0.05    -0.273 OA 
DOCKED: BRANCH  17  19
DOCKED: ATOM     19  N   UNL     1     139.959  77.444 220.964 -0.05 +0.10    -0.334 N  
DOCKED: ATOM     20  C   UNL     1     139.335  78.236 219.926 -0.06 -0.03    +0.120 C  
DOCKED: ATOM     21  C   UNL     1     141.351  77.730 221.288 -0.27 -0.06    +0.115 C  
DOCKED: ATOM     22  C   UNL     1     140.245  79.279 219.402 -0.12 -0.01    +0.022 C  
DOCKED: ATOM     23  C   UNL     1     142.189  77.833 220.039 -0.25 -0.02    +0.030 C  
DOCKED: ATOM     24  C   UNL     1     141.625  78.796 219.036 -0.25 -0.00    +0.004 C  
DOCKED: BRANCH  21  25
DOCKED: ATOM     25  C   UNL     1     141.474  78.901 222.184 -0.44 +0.01    -0.025 A  
DOCKED: ATOM     26  C   UNL     1     140.419  79.558 222.765 -0.40 -0.00    +0.006 A  
DOCKED: ATOM     27  C   UNL     1     142.739  79.377 222.462 -0.47 -0.00    +0.006 A  
DOCKED: ATOM     28  C   UNL     1     140.591  80.661 223.602 -0.45 -0.00    +0.000 A  
DOCKED: ATOM     29  C   UNL     1     142.918  80.483 223.302 -0.68 -0.00    +0.000 A  
DOCKED: ATOM     30  C   UNL     1     141.854  81.138 223.881 -0.59 -0.00    +0.000 A  
DOCKED: ENDBRANCH  21  25
DOCKED: ENDBRANCH  17  19
DOCKED: ENDBRANCH   1  17
DOCKED: TORSDOF 5
DOCKED: TER
DOCKED: ENDMDL
________________________________________________________________________________


    FINAL DOCKED STATE:
    ________________________


Run:   18 / 20
Time taken for this run:   0.046s

DOCKED: MODEL        18
DOCKED: USER    Run = 18
DOCKED: USER
DOCKED: USER    Estimated Free Energy of Binding    =  -8.81 kcal/mol  [=(1)+(2)+(3)-(4)]
DOCKED: USER
DOCKED: USER    (1) Final Intermolecular Energy     = -10.30 kcal/mol
DOCKED: USER        vdW + Hbond + desolv Energy     = -10.23 kcal/mol
DOCKED: USER        Electrostatic Energy            =  -0.07 kcal/mol
DOCKED: USER        Moving Ligand-Fixed Receptor    = -10.30 kcal/mol
DOCKED: USER        Moving Ligand-Moving Receptor   =  +0.00 kcal/mol
DOCKED: USER    (2) Final Total Internal Energy     =  -1.54 kcal/mol
DOCKED: USER    (3) Torsional Free Energy           =  +1.49 kcal/mol
DOCKED: USER    (4) Unbound System's Energy         =  -1.54 kcal/mol
DOCKED: USER
DOCKED: USER
DOCKED: REMARK SMILES O=C(NCC(=O)N1CCCC[C@H]1c1ccccc1)c1ccc2cc(Cl)ccc2n1
DOCKED: REMARK SMILES IDX 4 1 3 2 2 3 1 4 19 6 20 7 29 8 21 9 28 10 22 11 27 12 23 13
DOCKED: REMARK SMILES IDX 26 14 24 15 25 16 5 17 6 18 7 19 8 20 12 21 9 22 11 23 10 24
DOCKED: REMARK SMILES IDX 13 25 14 26 18 27 15 28 17 29 16 30
DOCKED: REMARK H PARENT 3 5
DOCKED: USER                              x       y       z     vdW  Elec       q    Type
DOCKED: USER                           _______ _______ _______ _____ _____    ______ ____
DOCKED: ROOT
DOCKED: ATOM      1  C   UNL     1     138.813  74.597 221.116 -0.13 -0.05    +0.216 C  
DOCKED: ENDROOT
DOCKED: BRANCH   1   2
DOCKED: ATOM      2  N   UNL     1     138.860  73.650 222.213 -0.04 +0.10    -0.342 N  
DOCKED: ATOM      3  C   UNL     1     140.059  72.888 222.398 -0.15 -0.03    +0.270 C  
DOCKED: ATOM      4  O   UNL     1     141.062  73.035 221.620 -0.29 +0.02    -0.268 OA 
DOCKED: ATOM      5  H   UNL     1     138.057  73.507 222.867 -0.52 -0.10    +0.164 HD 
DOCKED: BRANCH   3   6
DOCKED: ATOM      6  C   UNL     1     140.126  71.930 223.496 -0.30 -0.02    +0.128 A  
DOCKED: ATOM      7  C   UNL     1     139.723  70.626 223.290 -0.28 -0.01    +0.035 A  
DOCKED: ATOM      8  N   UNL     1     140.566  72.248 224.727 +0.08 +0.04    -0.243 NA 
DOCKED: ATOM      9  C   UNL     1     139.754  69.658 224.272 -0.30 -0.00    +0.013 A  
DOCKED: ATOM     10  C   UNL     1     140.608  71.319 225.714 -0.54 -0.01    +0.071 A  
DOCKED: ATOM     11  C   UNL     1     140.210  70.018 225.521 -0.47 -0.00    +0.002 A  
DOCKED: ATOM     12  C   UNL     1     141.063  71.654 226.978 -0.74 -0.01    +0.030 A  
DOCKED: ATOM     13  C   UNL     1     140.240  69.051 226.500 -0.54 -0.01    +0.030 A  
DOCKED: ATOM     14  C   UNL     1     141.099  70.684 227.982 -0.63 -0.00    +0.023 A  
DOCKED: ATOM     15  C   UNL     1     140.692  69.385 227.758 -0.59 -0.01    +0.041 A  
DOCKED: ATOM     16  Cl  UNL     1     140.722  68.147 228.982 -0.43 +0.02    -0.084 Cl 
DOCKED: ENDBRANCH   3   6
DOCKED: ENDBRANCH   1   2
DOCKED: BRANCH   1  17
DOCKED: ATOM     17  C   UNL     1     138.829  75.995 221.592 -0.18 -0.05    +0.242 C  
DOCKED: ATOM     18  O   UNL     1     138.046  76.294 222.531 -0.22 +0.06    -0.273 OA 
DOCKED: BRANCH  17  19
DOCKED: ATOM     19  N   UNL     1     139.714  76.926 220.979 -0.06 +0.09    -0.334 N  
DOCKED: ATOM     20  C   UNL     1     139.313  77.660 219.798 -0.05 -0.03    +0.120 C  
DOCKED: ATOM     21  C   UNL     1     141.050  77.171 221.507 -0.30 -0.05    +0.115 C  
DOCKED: ATOM     22  C   UNL     1     140.356  78.612 219.358 -0.12 -0.01    +0.022 C  
DOCKED: ATOM     23  C   UNL     1     142.083  77.132 220.408 -0.23 -0.02    +0.030 C  
DOCKED: ATOM     24  C   UNL     1     141.745  78.036 219.259 -0.27 -0.00    +0.004 C  
DOCKED: BRANCH  21  25
DOCKED: ATOM     25  C   UNL     1     141.099  78.402 222.323 -0.43 +0.01    -0.025 A  
DOCKED: ATOM     26  C   UNL     1     140.051  78.897 223.058 -0.41 -0.00    +0.006 A  
DOCKED: ATOM     27  C   UNL     1     142.279  79.116 222.356 -0.50 -0.00    +0.006 A  
DOCKED: ATOM     28  C   UNL     1     140.149  80.068 223.812 -0.44 -0.00    +0.000 A  
DOCKED: ATOM     29  C   UNL     1     142.384  80.290 223.111 -0.64 -0.00    +0.000 A  
DOCKED: ATOM     30  C   UNL     1     141.328  80.782 223.845 -0.52 -0.00    +0.000 A  
DOCKED: ENDBRANCH  21  25
DOCKED: ENDBRANCH  17  19
DOCKED: ENDBRANCH   1  17
DOCKED: TORSDOF 5
DOCKED: TER
DOCKED: ENDMDL
________________________________________________________________________________


    FINAL DOCKED STATE:
    ________________________


Run:   19 / 20
Time taken for this run:   0.046s

DOCKED: MODEL        19
DOCKED: USER    Run = 19
DOCKED: USER
DOCKED: USER    Estimated Free Energy of Binding    =  -9.02 kcal/mol  [=(1)+(2)+(3)-(4)]
DOCKED: USER
DOCKED: USER    (1) Final Intermolecular Energy     = -10.51 kcal/mol
DOCKED: USER        vdW + Hbond + desolv Energy     = -10.41 kcal/mol
DOCKED: USER        Electrostatic Energy            =  -0.10 kcal/mol
DOCKED: USER        Moving Ligand-Fixed Receptor    = -10.51 kcal/mol
DOCKED: USER        Moving Ligand-Moving Receptor   =  +0.00 kcal/mol
DOCKED: USER    (2) Final Total Internal Energy     =  -1.60 kcal/mol
DOCKED: USER    (3) Torsional Free Energy           =  +1.49 kcal/mol
DOCKED: USER    (4) Unbound System's Energy         =  -1.60 kcal/mol
DOCKED: USER
DOCKED: USER
DOCKED: REMARK SMILES O=C(NCC(=O)N1CCCC[C@H]1c1ccccc1)c1ccc2cc(Cl)ccc2n1
DOCKED: REMARK SMILES IDX 4 1 3 2 2 3 1 4 19 6 20 7 29 8 21 9 28 10 22 11 27 12 23 13
DOCKED: REMARK SMILES IDX 26 14 24 15 25 16 5 17 6 18 7 19 8 20 12 21 9 22 11 23 10 24
DOCKED: REMARK SMILES IDX 13 25 14 26 18 27 15 28 17 29 16 30
DOCKED: REMARK H PARENT 3 5
DOCKED: USER                              x       y       z     vdW  Elec       q    Type
DOCKED: USER                           _______ _______ _______ _____ _____    ______ ____
DOCKED: ROOT
DOCKED: ATOM      1  C   UNL     1     138.968  74.896 221.076 -0.13 -0.05    +0.216 C  
DOCKED: ENDROOT
DOCKED: BRANCH   1   2
DOCKED: ATOM      2  N   UNL     1     139.044  73.978 222.196 -0.07 +0.09    -0.342 N  
DOCKED: ATOM      3  C   UNL     1     139.876  72.820 222.067 -0.19 -0.04    +0.270 C  
DOCKED: ATOM      4  O   UNL     1     140.537  72.597 220.996 -0.12 +0.04    -0.268 OA 
DOCKED: ATOM      5  H   UNL     1     138.516  74.132 223.086 -0.56 -0.12    +0.164 HD 
DOCKED: BRANCH   3   6
DOCKED: ATOM      6  C   UNL     1     139.966  71.884 223.183 -0.30 -0.02    +0.128 A  
DOCKED: ATOM      7  C   UNL     1     139.534  70.584 223.020 -0.26 -0.01    +0.035 A  
DOCKED: ATOM      8  N   UNL     1     140.453  72.221 224.390 -0.05 +0.04    -0.243 NA 
DOCKED: ATOM      9  C   UNL     1     139.583  69.637 224.021 -0.29 -0.00    +0.013 A  
DOCKED: ATOM     10  C   UNL     1     140.514  71.313 225.396 -0.51 -0.01    +0.071 A  
DOCKED: ATOM     11  C   UNL     1     140.088  70.015 225.245 -0.45 -0.00    +0.002 A  
DOCKED: ATOM     12  C   UNL     1     141.019  71.667 226.635 -0.70 -0.00    +0.030 A  
DOCKED: ATOM     13  C   UNL     1     140.136  69.069 226.244 -0.51 -0.01    +0.030 A  
DOCKED: ATOM     14  C   UNL     1     141.073  70.718 227.659 -0.64 -0.00    +0.023 A  
DOCKED: ATOM     15  C   UNL     1     140.638  69.422 227.478 -0.58 -0.01    +0.041 A  
DOCKED: ATOM     16  Cl  UNL     1     140.690  68.211 228.727 -0.63 +0.02    -0.084 Cl 
DOCKED: ENDBRANCH   3   6
DOCKED: ENDBRANCH   1   2
DOCKED: BRANCH   1  17
DOCKED: ATOM     17  C   UNL     1     138.979  76.306 221.515 -0.17 -0.05    +0.242 C  
DOCKED: ATOM     18  O   UNL     1     138.204  76.623 222.455 -0.21 +0.06    -0.273 OA 
DOCKED: BRANCH  17  19
DOCKED: ATOM     19  N   UNL     1     139.848  77.227 220.868 -0.05 +0.10    -0.334 N  
DOCKED: ATOM     20  C   UNL     1     139.385  78.022 219.751 -0.06 -0.03    +0.120 C  
DOCKED: ATOM     21  C   UNL     1     141.231  77.401 221.295 -0.26 -0.06    +0.115 C  
DOCKED: ATOM     22  C   UNL     1     140.427  78.953 219.264 -0.13 -0.01    +0.022 C  
DOCKED: ATOM     23  C   UNL     1     142.171  77.368 220.116 -0.30 -0.02    +0.030 C  
DOCKED: ATOM     24  C   UNL     1     141.780  78.330 219.032 -0.27 -0.00    +0.004 C  
DOCKED: BRANCH  21  25
DOCKED: ATOM     25  C   UNL     1     141.393  78.597 222.150 -0.43 +0.01    -0.025 A  
DOCKED: ATOM     26  C   UNL     1     142.519  79.380 222.196 -0.45 -0.00    +0.006 A  
DOCKED: ATOM     27  C   UNL     1     140.343  78.961 222.966 -0.43 -0.00    +0.006 A  
DOCKED: ATOM     28  C   UNL     1     142.622  80.499 223.024 -0.65 -0.00    +0.000 A  
DOCKED: ATOM     29  C   UNL     1     140.439  80.082 223.799 -0.45 -0.00    +0.000 A  
DOCKED: ATOM     30  C   UNL     1     141.573  80.864 223.841 -0.56 -0.00    +0.000 A  
DOCKED: ENDBRANCH  21  25
DOCKED: ENDBRANCH  17  19
DOCKED: ENDBRANCH   1  17
DOCKED: TORSDOF 5
DOCKED: TER
DOCKED: ENDMDL
________________________________________________________________________________


    FINAL DOCKED STATE:
    ________________________


Run:   20 / 20
Time taken for this run:   0.046s

DOCKED: MODEL        20
DOCKED: USER    Run = 20
DOCKED: USER
DOCKED: USER    Estimated Free Energy of Binding    =  -8.93 kcal/mol  [=(1)+(2)+(3)-(4)]
DOCKED: USER
DOCKED: USER    (1) Final Intermolecular Energy     = -10.42 kcal/mol
DOCKED: USER        vdW + Hbond + desolv Energy     = -10.40 kcal/mol
DOCKED: USER        Electrostatic Energy            =  -0.02 kcal/mol
DOCKED: USER        Moving Ligand-Fixed Receptor    = -10.42 kcal/mol
DOCKED: USER        Moving Ligand-Moving Receptor   =  +0.00 kcal/mol
DOCKED: USER    (2) Final Total Internal Energy     =  -1.39 kcal/mol
DOCKED: USER    (3) Torsional Free Energy           =  +1.49 kcal/mol
DOCKED: USER    (4) Unbound System's Energy         =  -1.39 kcal/mol
DOCKED: USER
DOCKED: USER
DOCKED: REMARK SMILES O=C(NCC(=O)N1CCCC[C@H]1c1ccccc1)c1ccc2cc(Cl)ccc2n1
DOCKED: REMARK SMILES IDX 4 1 3 2 2 3 1 4 19 6 20 7 29 8 21 9 28 10 22 11 27 12 23 13
DOCKED: REMARK SMILES IDX 26 14 24 15 25 16 5 17 6 18 7 19 8 20 12 21 9 22 11 23 10 24
DOCKED: REMARK SMILES IDX 13 25 14 26 18 27 15 28 17 29 16 30
DOCKED: REMARK H PARENT 3 5
DOCKED: USER                              x       y       z     vdW  Elec       q    Type
DOCKED: USER                           _______ _______ _______ _____ _____    ______ ____
DOCKED: ROOT
DOCKED: ATOM      1  C   UNL     1     139.251  74.848 221.047 -0.14 -0.05    +0.216 C  
DOCKED: ENDROOT
DOCKED: BRANCH   1   2
DOCKED: ATOM      2  N   UNL     1     139.292  73.940 222.177 -0.10 +0.07    -0.342 N  
DOCKED: ATOM      3  C   UNL     1     140.016  72.712 222.032 -0.20 -0.04    +0.270 C  
DOCKED: ATOM      4  O   UNL     1     140.612  72.421 220.940 -0.11 +0.04    -0.268 OA 
DOCKED: ATOM      5  H   UNL     1     138.815  74.149 223.084 -0.56 -0.10    +0.164 HD 
DOCKED: BRANCH   3   6
DOCKED: ATOM      6  C   UNL     1     140.069  71.785 223.158 -0.30 -0.02    +0.128 A  
DOCKED: ATOM      7  C   UNL     1     139.608  70.494 223.001 -0.24 -0.01    +0.035 A  
DOCKED: ATOM      8  N   UNL     1     140.550  72.121 224.368 -0.11 +0.03    -0.243 NA 
DOCKED: ATOM      9  C   UNL     1     139.622  69.556 224.011 -0.26 -0.00    +0.013 A  
DOCKED: ATOM     10  C   UNL     1     140.576  71.221 225.382 -0.51 -0.01    +0.071 A  
DOCKED: ATOM     11  C   UNL     1     140.121  69.932 225.238 -0.44 -0.00    +0.002 A  
DOCKED: ATOM     12  C   UNL     1     141.074  71.575 226.625 -0.70 -0.00    +0.030 A  
DOCKED: ATOM     13  C   UNL     1     140.133  68.995 226.246 -0.52 -0.01    +0.030 A  
DOCKED: ATOM     14  C   UNL     1     141.093  70.634 227.658 -0.62 -0.00    +0.023 A  
DOCKED: ATOM     15  C   UNL     1     140.628  69.348 227.483 -0.58 -0.01    +0.041 A  
DOCKED: ATOM     16  Cl  UNL     1     140.636  68.147 228.743 -0.57 +0.02    -0.084 Cl 
DOCKED: ENDBRANCH   3   6
DOCKED: ENDBRANCH   1   2
DOCKED: BRANCH   1  17
DOCKED: ATOM     17  C   UNL     1     140.130  76.018 221.246 -0.20 -0.06    +0.242 C  
DOCKED: ATOM     18  O   UNL     1     141.368  75.840 221.101 -0.23 +0.11    -0.273 OA 
DOCKED: BRANCH  17  19
DOCKED: ATOM     19  N   UNL     1     139.549  77.271 221.587 -0.10 +0.08    -0.334 N  
DOCKED: ATOM     20  C   UNL     1     138.404  77.340 222.468 -0.24 -0.02    +0.120 C  
DOCKED: ATOM     21  C   UNL     1     140.076  78.524 221.063 -0.17 -0.04    +0.115 C  
DOCKED: ATOM     22  C   UNL     1     137.995  78.736 222.736 -0.24 -0.00    +0.022 C  
DOCKED: ATOM     23  C   UNL     1     138.969  79.395 220.524 -0.09 -0.01    +0.030 C  
DOCKED: ATOM     24  C   UNL     1     137.862  79.608 221.515 -0.12 -0.00    +0.004 C  
DOCKED: BRANCH  21  25
DOCKED: ATOM     25  C   UNL     1     140.943  79.208 222.047 -0.36 +0.01    -0.025 A  
DOCKED: ATOM     26  C   UNL     1     141.363  78.662 223.234 -0.56 -0.00    +0.006 A  
DOCKED: ATOM     27  C   UNL     1     141.366  80.490 221.763 -0.40 -0.00    +0.006 A  
DOCKED: ATOM     28  C   UNL     1     142.181  79.352 224.130 -0.49 -0.00    +0.000 A  
DOCKED: ATOM     29  C   UNL     1     142.187  81.187 222.658 -0.53 -0.00    +0.000 A  
DOCKED: ATOM     30  C   UNL     1     142.604  80.633 223.847 -0.68 -0.00    +0.000 A  
DOCKED: ENDBRANCH  21  25
DOCKED: ENDBRANCH  17  19
DOCKED: ENDBRANCH   1  17
DOCKED: TORSDOF 5
DOCKED: TER
DOCKED: ENDMDL
________________________________________________________________________________


    CLUSTERING HISTOGRAM
    ____________________


________________________________________________________________________________
     |           |     |           |     |
Clus | Lowest    | Run | Mean      | Num | Histogram
-ter | Binding   |     | Binding   | in  |
Rank | Energy    |     | Energy    | Clus|    5    10   15   20   25   30   35
_____|___________|_____|___________|_____|____:____|____:____|____:____|____:___
   1 |     -9.04 |  15 |     -8.95 |  20 |####################
_____|___________|_____|___________|_____|______________________________________


    RMSD TABLE
    __________


_______________________________________________________________________
     |      |      |           |         |                 |
Rank | Sub- | Run  | Binding   | Cluster | Reference       | Grep
     | Rank |      | Energy    | RMSD    | RMSD            | Pattern
_____|______|______|___________|_________|_________________|___________
   1      1     15       -9.04      0.00    270.99           RANKING
   1      2      3       -9.03      0.09    270.96           RANKING
   1      3      2       -9.03      0.17    270.91           RANKING
   1      4      8       -9.02      0.32    271.02           RANKING
   1      5     19       -9.02      0.13    270.92           RANKING
   1      6      9       -9.01      0.32    271.03           RANKING
   1      7     16       -9.01      0.31    271.04           RANKING
   1      8      6       -9.00      0.31    271.02           RANKING
   1      9     13       -8.99      0.28    270.97           RANKING
   1     10     12       -8.97      0.29    270.91           RANKING
   1     11      7       -8.97      0.30    271.01           RANKING
   1     12     17       -8.97      0.35    271.02           RANKING
   1     13     20       -8.93      1.22    271.07           RANKING
   1     14     14       -8.88      0.86    270.84           RANKING
   1     15     11       -8.87      0.87    270.83           RANKING
   1     16     10       -8.86      0.92    270.97           RANKING
   1     17      5       -8.86      0.86    270.84           RANKING
   1     18      1       -8.84      0.43    270.93           RANKING
   1     19     18       -8.81      0.39    271.01           RANKING
   1     20      4       -8.80      0.65    270.93           RANKING

Run time 0.889 sec
Idle time 0.000 sec
