AutoDock-GPU version: v1.6

**********************************************************
**    AutoDock-GPU AUTODOCKTOOLS-COMPATIBLE DLG FILE    **
**********************************************************


    DOCKING PARAMETERS
    ________________________


Ligand file:                               /home/a/REINVENT4/ReinventStudies/pleaseWork/justmol2mol_4_Compounds_ontop/graph-dock-amy28i/graph-DockGPU/node-autodockgpu/inputs/NHWJLCLQNHDNSZ-BAKOIFDKNA-N.pdbqt
Grid fld file:                             /home/a/REINVENT4/ReinventStudies/mols/Rad51/maps/rad51_receptor.maps.fld

Random seed:                               42
Number of runs:                            20
Number of energy evaluations:              1132076
Number of generations:                     42000
Size of population:                        150
Rate of crossover:                         80.000000%
Tournament selection probability limit:    60.000000%
Rate of mutation:                          2.000000%
Maximal allowed delta movement:            +/- 6.000000A
Maximal allowed delta angle:               +/- 90.000000

Rate of local search:                      100.000000%
Maximal number of local search iterations: 300
Rho lower bound:                           0.010000
Spread of local search delta movement:     2.000000A
Spread of local search delta angle:        74.999999
Limit of consecutive successes/failures:   4

Handle symmetry during clustering:         YES
RMSD tolerance:                            2.000000A

Program call in command line was:          /home/a/REINVENT4/ReinventStudies/adgpu-v1.6_linux_x64_cuda12_128wi --filelist batch.txt --heuristics 1 --nrun 20 --psize 150 --lsit 300 --seed 42 --heurmax 12000000 


    GRID PARAMETERS
    ________________________


Receptor name:                             rad51_receptor
Number of grid points (x, y, z):           53, 53, 53
Grid center (x, y, z):                     139.950000, 75.640000, 221.970000A
Grid size (x, y, z):                       19.500000, 19.500000, 19.500000A
Grid spacing:                              0.375000A


    LIGAND PARAMETERS
    ________________________


Ligand name:                               /home/a/REINVENT4/ReinventStudies/pleaseWork/justmol2mol_4_Compounds_ontop/graph-dock-amy28i/graph-DockGPU/node-autodockgpu/inputs/NHWJLCLQNHDNSZ-BAKOIFDKNA-N
Number of atoms:                           30
Number of rotatable bonds:                 5
Number of atom types:                      7


    DUMMY DATA (only for ADT-compatibility)
    ________________________


DPF> outlev 1
DPF> ga_run 20
DPF> fld /home/a/REINVENT4/ReinventStudies/mols/Rad51/maps/rad51_receptor.maps.fld
DPF> move /home/a/REINVENT4/ReinventStudies/pleaseWork/justmol2mol_4_Compounds_ontop/graph-dock-amy28i/graph-DockGPU/node-autodockgpu/inputs/NHWJLCLQNHDNSZ-BAKOIFDKNA-N.pdbqt


    COUNTER STATES
    ________________________


Number of energy evaluations performed:    853413
Number of generations used:                45


    INPUT LIGAND PDBQT FILE:
    ________________________


INPUT-LIGAND-PDBQT: REMARK SMILES O=C(NCC(=O)N1CCCC[C@@H]1c1ccccc1)c1ccc2cc(Cl)ccc2n1
INPUT-LIGAND-PDBQT: REMARK SMILES IDX 4 1 3 2 2 3 1 4 19 6 20 7 29 8 21 9 28 10 22 11 27 12 23 13
INPUT-LIGAND-PDBQT: REMARK SMILES IDX 26 14 24 15 25 16 5 17 6 18 7 19 8 20 12 21 9 22 11 23 10 24
INPUT-LIGAND-PDBQT: REMARK SMILES IDX 13 25 14 26 18 27 15 28 17 29 16 30
INPUT-LIGAND-PDBQT: REMARK H PARENT 3 5
INPUT-LIGAND-PDBQT: ROOT
INPUT-LIGAND-PDBQT: ATOM      1  C   UNL     1      -0.147   0.827  -0.209  1.00  0.00     0.216 C 
INPUT-LIGAND-PDBQT: ENDROOT
INPUT-LIGAND-PDBQT: BRANCH   1   2
INPUT-LIGAND-PDBQT: ATOM      2  N   UNL     1       1.240   0.726  -0.639  1.00  0.00    -0.342 N 
INPUT-LIGAND-PDBQT: ATOM      3  C   UNL     1       2.165   0.226   0.322  1.00  0.00     0.270 C 
INPUT-LIGAND-PDBQT: ATOM      4  O   UNL     1       1.751  -0.096   1.472  1.00  0.00    -0.268 OA
INPUT-LIGAND-PDBQT: ATOM      5  H   UNL     1       1.563   0.998  -1.594  1.00  0.00     0.164 HD
INPUT-LIGAND-PDBQT: BRANCH   3   6
INPUT-LIGAND-PDBQT: ATOM      6  C   UNL     1       3.576   0.090  -0.019  1.00  0.00     0.128 A 
INPUT-LIGAND-PDBQT: ATOM      7  C   UNL     1       4.478  -0.385   0.884  1.00  0.00     0.035 A 
INPUT-LIGAND-PDBQT: ATOM      8  N   UNL     1       4.028   0.435  -1.252  1.00  0.00    -0.243 NA
INPUT-LIGAND-PDBQT: ATOM      9  C   UNL     1       5.827  -0.540   0.628  1.00  0.00     0.013 A 
INPUT-LIGAND-PDBQT: ATOM     10  C   UNL     1       5.346   0.307  -1.569  1.00  0.00     0.071 A 
INPUT-LIGAND-PDBQT: ATOM     11  C   UNL     1       6.260  -0.176  -0.651  1.00  0.00     0.002 A 
INPUT-LIGAND-PDBQT: ATOM     12  C   UNL     1       5.815   0.657  -2.825  1.00  0.00     0.030 A 
INPUT-LIGAND-PDBQT: ATOM     13  C   UNL     1       7.598  -0.309  -0.962  1.00  0.00     0.030 A 
INPUT-LIGAND-PDBQT: ATOM     14  C   UNL     1       7.150   0.531  -3.157  1.00  0.00     0.023 A 
INPUT-LIGAND-PDBQT: ATOM     15  C   UNL     1       8.034   0.047  -2.218  1.00  0.00     0.041 A 
INPUT-LIGAND-PDBQT: ATOM     16  Cl  UNL     1       9.734  -0.117  -2.631  1.00  0.00    -0.084 Cl
INPUT-LIGAND-PDBQT: ENDBRANCH   3   6
INPUT-LIGAND-PDBQT: ENDBRANCH   1   2
INPUT-LIGAND-PDBQT: BRANCH   1  17
INPUT-LIGAND-PDBQT: ATOM     17  C   UNL     1      -0.705  -0.469   0.187  1.00  0.00     0.242 C 
INPUT-LIGAND-PDBQT: ATOM     18  O   UNL     1      -0.043  -1.537   0.152  1.00  0.00    -0.273 OA
INPUT-LIGAND-PDBQT: BRANCH  17  19
INPUT-LIGAND-PDBQT: ATOM     19  N   UNL     1      -2.046  -0.557   0.634  1.00  0.00    -0.334 N 
INPUT-LIGAND-PDBQT: ATOM     20  C   UNL     1      -2.671  -1.805   1.050  1.00  0.00     0.120 C 
INPUT-LIGAND-PDBQT: ATOM     21  C   UNL     1      -2.926   0.627   0.714  1.00  0.00     0.115 C 
INPUT-LIGAND-PDBQT: ATOM     22  C   UNL     1      -3.336  -1.712   2.367  1.00  0.00     0.022 C 
INPUT-LIGAND-PDBQT: ATOM     23  C   UNL     1      -3.430   0.799   2.118  1.00  0.00     0.030 C 
INPUT-LIGAND-PDBQT: ATOM     24  C   UNL     1      -4.012  -0.432   2.723  1.00  0.00     0.004 C 
INPUT-LIGAND-PDBQT: BRANCH  21  25
INPUT-LIGAND-PDBQT: ATOM     25  C   UNL     1      -3.972   0.571  -0.318  1.00  0.00    -0.025 A 
INPUT-LIGAND-PDBQT: ATOM     26  C   UNL     1      -3.589   0.223  -1.600  1.00  0.00     0.006 A 
INPUT-LIGAND-PDBQT: ATOM     27  C   UNL     1      -5.302   0.835  -0.117  1.00  0.00     0.006 A 
INPUT-LIGAND-PDBQT: ATOM     28  C   UNL     1      -4.533   0.155  -2.606  1.00  0.00     0.000 A 
INPUT-LIGAND-PDBQT: ATOM     29  C   UNL     1      -6.253   0.767  -1.129  1.00  0.00     0.000 A 
INPUT-LIGAND-PDBQT: ATOM     30  C   UNL     1      -5.872   0.420  -2.405  1.00  0.00     0.000 A 
INPUT-LIGAND-PDBQT: ENDBRANCH  21  25
INPUT-LIGAND-PDBQT: ENDBRANCH  17  19
INPUT-LIGAND-PDBQT: ENDBRANCH   1  17
INPUT-LIGAND-PDBQT: TORSDOF 5


    FINAL DOCKED STATE:
    ________________________


Run:   1 / 20
Time taken for this run:   0.035s

DOCKED: MODEL        1
DOCKED: USER    Run = 1
DOCKED: USER
DOCKED: USER    Estimated Free Energy of Binding    =  -9.34 kcal/mol  [=(1)+(2)+(3)-(4)]
DOCKED: USER
DOCKED: USER    (1) Final Intermolecular Energy     = -10.83 kcal/mol
DOCKED: USER        vdW + Hbond + desolv Energy     = -10.77 kcal/mol
DOCKED: USER        Electrostatic Energy            =  -0.06 kcal/mol
DOCKED: USER        Moving Ligand-Fixed Receptor    = -10.83 kcal/mol
DOCKED: USER        Moving Ligand-Moving Receptor   =  +0.00 kcal/mol
DOCKED: USER    (2) Final Total Internal Energy     =  -1.54 kcal/mol
DOCKED: USER    (3) Torsional Free Energy           =  +1.49 kcal/mol
DOCKED: USER    (4) Unbound System's Energy         =  -1.54 kcal/mol
DOCKED: USER
DOCKED: USER
DOCKED: REMARK SMILES O=C(NCC(=O)N1CCCC[C@@H]1c1ccccc1)c1ccc2cc(Cl)ccc2n1
DOCKED: REMARK SMILES IDX 4 1 3 2 2 3 1 4 19 6 20 7 29 8 21 9 28 10 22 11 27 12 23 13
DOCKED: REMARK SMILES IDX 26 14 24 15 25 16 5 17 6 18 7 19 8 20 12 21 9 22 11 23 10 24
DOCKED: REMARK SMILES IDX 13 25 14 26 18 27 15 28 17 29 16 30
DOCKED: REMARK H PARENT 3 5
DOCKED: USER                              x       y       z     vdW  Elec       q    Type
DOCKED: USER                           _______ _______ _______ _____ _____    ______ ____
DOCKED: ROOT
DOCKED: ATOM      1  C   UNL     1     138.625  74.651 220.868 -0.10 -0.05    +0.216 C  
DOCKED: ENDROOT
DOCKED: BRANCH   1   2
DOCKED: ATOM      2  N   UNL     1     138.664  73.742 222.005 -0.09 +0.10    -0.342 N  
DOCKED: ATOM      3  C   UNL     1     139.692  72.757 221.992 -0.18 -0.05    +0.270 C  
DOCKED: ATOM      4  O   UNL     1     140.500  72.717 221.021 -0.13 +0.04    -0.268 OA 
DOCKED: ATOM      5  H   UNL     1     137.987  73.791 222.798 -0.53 -0.09    +0.164 HD 
DOCKED: BRANCH   3   6
DOCKED: ATOM      6  C   UNL     1     139.809  71.803 223.088 -0.29 -0.02    +0.128 A  
DOCKED: ATOM      7  C   UNL     1     139.406  70.510 222.945 -0.24 -0.01    +0.035 A  
DOCKED: ATOM      8  N   UNL     1     140.325  72.182 224.286 -0.13 +0.04    -0.243 NA 
DOCKED: ATOM      9  C   UNL     1     139.488  69.555 223.940 -0.28 -0.00    +0.013 A  
DOCKED: ATOM     10  C   UNL     1     140.433  71.290 225.309 -0.50 -0.01    +0.071 A  
DOCKED: ATOM     11  C   UNL     1     140.024  69.978 225.161 -0.43 -0.00    +0.002 A  
DOCKED: ATOM     12  C   UNL     1     140.958  71.670 226.533 -0.68 -0.00    +0.030 A  
DOCKED: ATOM     13  C   UNL     1     140.129  69.066 226.192 -0.51 -0.01    +0.030 A  
DOCKED: ATOM     14  C   UNL     1     141.073  70.773 227.578 -0.64 -0.00    +0.023 A  
DOCKED: ATOM     15  C   UNL     1     140.655  69.472 227.397 -0.57 -0.01    +0.041 A  
DOCKED: ATOM     16  Cl  UNL     1     140.797  68.324 228.719 -0.68 +0.02    -0.084 Cl 
DOCKED: ENDBRANCH   3   6
DOCKED: ENDBRANCH   1   2
DOCKED: BRANCH   1  17
DOCKED: ATOM     17  C   UNL     1     138.991  76.022 221.236 -0.14 -0.06    +0.242 C  
DOCKED: ATOM     18  O   UNL     1     138.170  76.841 221.721 -0.12 +0.06    -0.273 OA 
DOCKED: BRANCH  17  19
DOCKED: ATOM     19  N   UNL     1     140.320  76.475 221.051 -0.10 +0.10    -0.334 N  
DOCKED: ATOM     20  C   UNL     1     141.489  75.624 221.231 -0.23 -0.05    +0.120 C  
DOCKED: ATOM     21  C   UNL     1     140.627  77.865 220.655 -0.19 -0.04    +0.115 C  
DOCKED: ATOM     22  C   UNL     1     142.422  75.668 220.085 -0.31 -0.01    +0.022 C  
DOCKED: ATOM     23  C   UNL     1     141.416  77.873 219.377 -0.22 -0.02    +0.030 C  
DOCKED: ATOM     24  C   UNL     1     142.597  76.965 219.372 -0.35 -0.00    +0.004 C  
DOCKED: BRANCH  21  25
DOCKED: ATOM     25  C   UNL     1     141.244  78.601 221.769 -0.37 +0.01    -0.025 A  
DOCKED: ATOM     26  C   UNL     1     141.965  79.740 221.462 -0.41 -0.00    +0.006 A  
DOCKED: ATOM     27  C   UNL     1     141.163  78.254 223.092 -0.52 -0.00    +0.006 A  
DOCKED: ATOM     28  C   UNL     1     142.563  80.468 222.472 -0.59 -0.00    +0.000 A  
DOCKED: ATOM     29  C   UNL     1     141.765  78.987 224.109 -0.59 -0.00    +0.000 A  
DOCKED: ATOM     30  C   UNL     1     142.483  80.120 223.805 -0.65 -0.00    +0.000 A  
DOCKED: ENDBRANCH  21  25
DOCKED: ENDBRANCH  17  19
DOCKED: ENDBRANCH   1  17
DOCKED: TORSDOF 5
DOCKED: TER
DOCKED: ENDMDL
________________________________________________________________________________


    FINAL DOCKED STATE:
    ________________________


Run:   2 / 20
Time taken for this run:   0.035s

DOCKED: MODEL        2
DOCKED: USER    Run = 2
DOCKED: USER
DOCKED: USER    Estimated Free Energy of Binding    =  -7.59 kcal/mol  [=(1)+(2)+(3)-(4)]
DOCKED: USER
DOCKED: USER    (1) Final Intermolecular Energy     =  -9.09 kcal/mol
DOCKED: USER        vdW + Hbond + desolv Energy     =  -9.03 kcal/mol
DOCKED: USER        Electrostatic Energy            =  -0.05 kcal/mol
DOCKED: USER        Moving Ligand-Fixed Receptor    =  -9.09 kcal/mol
DOCKED: USER        Moving Ligand-Moving Receptor   =  +0.00 kcal/mol
DOCKED: USER    (2) Final Total Internal Energy     =  -2.17 kcal/mol
DOCKED: USER    (3) Torsional Free Energy           =  +1.49 kcal/mol
DOCKED: USER    (4) Unbound System's Energy         =  -2.17 kcal/mol
DOCKED: USER
DOCKED: USER
DOCKED: REMARK SMILES O=C(NCC(=O)N1CCCC[C@@H]1c1ccccc1)c1ccc2cc(Cl)ccc2n1
DOCKED: REMARK SMILES IDX 4 1 3 2 2 3 1 4 19 6 20 7 29 8 21 9 28 10 22 11 27 12 23 13
DOCKED: REMARK SMILES IDX 26 14 24 15 25 16 5 17 6 18 7 19 8 20 12 21 9 22 11 23 10 24
DOCKED: REMARK SMILES IDX 13 25 14 26 18 27 15 28 17 29 16 30
DOCKED: REMARK H PARENT 3 5
DOCKED: USER                              x       y       z     vdW  Elec       q    Type
DOCKED: USER                           _______ _______ _______ _____ _____    ______ ____
DOCKED: ROOT
DOCKED: ATOM      1  C   UNL     1     136.125  72.113 222.498 -0.08 -0.05    +0.216 C  
DOCKED: ENDROOT
DOCKED: BRANCH   1   2
DOCKED: ATOM      2  N   UNL     1     136.969  73.276 222.730 -0.01 +0.13    -0.342 N  
DOCKED: ATOM      3  C   UNL     1     137.930  73.571 221.721 -0.09 -0.07    +0.270 C  
DOCKED: ATOM      4  O   UNL     1     138.005  72.828 220.700 -0.04 +0.05    -0.268 OA 
DOCKED: ATOM      5  H   UNL     1     136.892  73.877 223.580 -0.49 -0.10    +0.164 HD 
DOCKED: BRANCH   3   6
DOCKED: ATOM      6  C   UNL     1     138.820  74.717 221.867 -0.20 -0.03    +0.128 A  
DOCKED: ATOM      7  C   UNL     1     140.123  74.653 221.478 -0.28 -0.01    +0.035 A  
DOCKED: ATOM      8  N   UNL     1     138.368  75.882 222.397 -0.20 +0.06    -0.243 NA 
DOCKED: ATOM      9  C   UNL     1     141.019  75.699 221.586 -0.36 -0.00    +0.013 A  
DOCKED: ATOM     10  C   UNL     1     139.200  76.952 222.532 -0.27 -0.01    +0.071 A  
DOCKED: ATOM     11  C   UNL     1     140.522  76.885 222.136 -0.40 -0.00    +0.002 A  
DOCKED: ATOM     12  C   UNL     1     138.746  78.144 223.072 -0.25 -0.00    +0.030 A  
DOCKED: ATOM     13  C   UNL     1     141.374  77.963 222.269 -0.38 -0.01    +0.030 A  
DOCKED: ATOM     14  C   UNL     1     139.582  79.235 223.214 -0.38 -0.00    +0.023 A  
DOCKED: ATOM     15  C   UNL     1     140.894  79.134 222.809 -0.44 -0.01    +0.041 A  
DOCKED: ATOM     16  Cl  UNL     1     141.965  80.517 222.985 -0.74 +0.02    -0.084 Cl 
DOCKED: ENDBRANCH   3   6
DOCKED: ENDBRANCH   1   2
DOCKED: BRANCH   1  17
DOCKED: ATOM     17  C   UNL     1     136.615  70.919 223.193 -0.10 -0.04    +0.242 C  
DOCKED: ATOM     18  O   UNL     1     135.857  70.130 223.812 -0.10 +0.03    -0.273 OA 
DOCKED: BRANCH  17  19
DOCKED: ATOM     19  N   UNL     1     137.998  70.613 223.186 -0.08 +0.07    -0.334 N  
DOCKED: ATOM     20  C   UNL     1     138.633  69.800 222.158 -0.13 -0.02    +0.120 C  
DOCKED: ATOM     21  C   UNL     1     138.915  71.101 224.237 -0.28 -0.03    +0.115 C  
DOCKED: ATOM     22  C   UNL     1     139.835  70.433 221.576 -0.15 -0.00    +0.022 C  
DOCKED: ATOM     23  C   UNL     1     140.022  71.905 223.619 -0.32 -0.01    +0.030 C  
DOCKED: ATOM     24  C   UNL     1     140.708  71.241 222.475 -0.12 -0.00    +0.004 C  
DOCKED: BRANCH  21  25
DOCKED: ATOM     25  C   UNL     1     139.358  69.994 225.098 -0.39 +0.00    -0.025 A  
DOCKED: ATOM     26  C   UNL     1     140.512  70.180 225.836 -0.52 -0.00    +0.006 A  
DOCKED: ATOM     27  C   UNL     1     138.721  68.788 225.234 -0.41 -0.00    +0.006 A  
DOCKED: ATOM     28  C   UNL     1     140.971  69.172 226.662 -0.57 -0.00    +0.000 A  
DOCKED: ATOM     29  C   UNL     1     139.182  67.773 226.065 -0.57 -0.00    +0.000 A  
DOCKED: ATOM     30  C   UNL     1     140.330  67.958 226.800 -0.68 -0.00    +0.000 A  
DOCKED: ENDBRANCH  21  25
DOCKED: ENDBRANCH  17  19
DOCKED: ENDBRANCH   1  17
DOCKED: TORSDOF 5
DOCKED: TER
DOCKED: ENDMDL
________________________________________________________________________________


    FINAL DOCKED STATE:
    ________________________


Run:   3 / 20
Time taken for this run:   0.035s

DOCKED: MODEL        3
DOCKED: USER    Run = 3
DOCKED: USER
DOCKED: USER    Estimated Free Energy of Binding    =  -8.85 kcal/mol  [=(1)+(2)+(3)-(4)]
DOCKED: USER
DOCKED: USER    (1) Final Intermolecular Energy     = -10.34 kcal/mol
DOCKED: USER        vdW + Hbond + desolv Energy     = -10.34 kcal/mol
DOCKED: USER        Electrostatic Energy            =  +0.00 kcal/mol
DOCKED: USER        Moving Ligand-Fixed Receptor    = -10.34 kcal/mol
DOCKED: USER        Moving Ligand-Moving Receptor   =  +0.00 kcal/mol
DOCKED: USER    (2) Final Total Internal Energy     =  -1.56 kcal/mol
DOCKED: USER    (3) Torsional Free Energy           =  +1.49 kcal/mol
DOCKED: USER    (4) Unbound System's Energy         =  -1.56 kcal/mol
DOCKED: USER
DOCKED: USER
DOCKED: REMARK SMILES O=C(NCC(=O)N1CCCC[C@@H]1c1ccccc1)c1ccc2cc(Cl)ccc2n1
DOCKED: REMARK SMILES IDX 4 1 3 2 2 3 1 4 19 6 20 7 29 8 21 9 28 10 22 11 27 12 23 13
DOCKED: REMARK SMILES IDX 26 14 24 15 25 16 5 17 6 18 7 19 8 20 12 21 9 22 11 23 10 24
DOCKED: REMARK SMILES IDX 13 25 14 26 18 27 15 28 17 29 16 30
DOCKED: REMARK H PARENT 3 5
DOCKED: USER                              x       y       z     vdW  Elec       q    Type
DOCKED: USER                           _______ _______ _______ _____ _____    ______ ____
DOCKED: ROOT
DOCKED: ATOM      1  C   UNL     1     138.576  74.464 221.067 -0.11 -0.05    +0.216 C  
DOCKED: ENDROOT
DOCKED: BRANCH   1   2
DOCKED: ATOM      2  N   UNL     1     138.975  73.654 222.209 -0.06 +0.10    -0.342 N  
DOCKED: ATOM      3  C   UNL     1     138.777  72.249 222.088 -0.13 -0.06    +0.270 C  
DOCKED: ATOM      4  O   UNL     1     138.277  71.783 221.025 -0.04 +0.05    -0.268 OA 
DOCKED: ATOM      5  H   UNL     1     139.387  74.058 223.080 -0.53 -0.04    +0.164 HD 
DOCKED: BRANCH   3   6
DOCKED: ATOM      6  C   UNL     1     139.147  71.359 223.182 -0.25 -0.03    +0.128 A  
DOCKED: ATOM      7  C   UNL     1     138.889  70.023 223.122 -0.22 -0.01    +0.035 A  
DOCKED: ATOM      8  N   UNL     1     139.760  71.842 224.292 -0.15 +0.06    -0.243 NA 
DOCKED: ATOM      9  C   UNL     1     139.212  69.123 224.120 -0.31 -0.00    +0.013 A  
DOCKED: ATOM     10  C   UNL     1     140.105  71.009 225.313 -0.47 -0.01    +0.071 A  
DOCKED: ATOM     11  C   UNL     1     139.843  69.652 225.250 -0.42 -0.00    +0.002 A  
DOCKED: ATOM     12  C   UNL     1     140.731  71.494 226.450 -0.66 -0.00    +0.030 A  
DOCKED: ATOM     13  C   UNL     1     140.188  68.800 226.279 -0.54 -0.01    +0.030 A  
DOCKED: ATOM     14  C   UNL     1     141.085  70.658 227.490 -0.62 -0.00    +0.023 A  
DOCKED: ATOM     15  C   UNL     1     140.809  69.311 227.395 -0.57 -0.01    +0.041 A  
DOCKED: ATOM     16  Cl  UNL     1     141.256  68.239 228.714 -0.64 +0.02    -0.084 Cl 
DOCKED: ENDBRANCH   3   6
DOCKED: ENDBRANCH   1   2
DOCKED: BRANCH   1  17
DOCKED: ATOM     17  C   UNL     1     139.008  75.859 221.194 -0.14 -0.05    +0.242 C  
DOCKED: ATOM     18  O   UNL     1     138.205  76.808 221.381 -0.08 +0.06    -0.273 OA 
DOCKED: BRANCH  17  19
DOCKED: ATOM     19  N   UNL     1     140.383  76.187 221.106 -0.12 +0.10    -0.334 N  
DOCKED: ATOM     20  C   UNL     1     141.449  75.287 221.524 -0.21 -0.04    +0.120 C  
DOCKED: ATOM     21  C   UNL     1     140.848  77.485 220.575 -0.20 -0.05    +0.115 C  
DOCKED: ATOM     22  C   UNL     1     142.496  75.109 220.496 -0.27 -0.01    +0.022 C  
DOCKED: ATOM     23  C   UNL     1     141.762  77.265 219.405 -0.25 -0.02    +0.030 C  
DOCKED: ATOM     24  C   UNL     1     142.855  76.282 219.649 -0.37 -0.00    +0.004 C  
DOCKED: BRANCH  21  25
DOCKED: ATOM     25  C   UNL     1     141.406  78.319 221.651 -0.37 +0.01    -0.025 A  
DOCKED: ATOM     26  C   UNL     1     141.129  77.952 222.955 -0.48 -0.00    +0.006 A  
DOCKED: ATOM     27  C   UNL     1     142.182  79.434 221.470 -0.35 -0.00    +0.006 A  
DOCKED: ATOM     28  C   UNL     1     141.630  78.701 224.001 -0.56 -0.00    +0.000 A  
DOCKED: ATOM     29  C   UNL     1     142.687  80.189 222.523 -0.59 -0.00    +0.000 A  
DOCKED: ATOM     30  C   UNL     1     142.412  79.824 223.821 -0.61 -0.00    +0.000 A  
DOCKED: ENDBRANCH  21  25
DOCKED: ENDBRANCH  17  19
DOCKED: ENDBRANCH   1  17
DOCKED: TORSDOF 5
DOCKED: TER
DOCKED: ENDMDL
________________________________________________________________________________


    FINAL DOCKED STATE:
    ________________________


Run:   4 / 20
Time taken for this run:   0.035s

DOCKED: MODEL        4
DOCKED: USER    Run = 4
DOCKED: USER
DOCKED: USER    Estimated Free Energy of Binding    =  -8.89 kcal/mol  [=(1)+(2)+(3)-(4)]
DOCKED: USER
DOCKED: USER    (1) Final Intermolecular Energy     = -10.38 kcal/mol
DOCKED: USER        vdW + Hbond + desolv Energy     = -10.37 kcal/mol
DOCKED: USER        Electrostatic Energy            =  -0.01 kcal/mol
DOCKED: USER        Moving Ligand-Fixed Receptor    = -10.38 kcal/mol
DOCKED: USER        Moving Ligand-Moving Receptor   =  +0.00 kcal/mol
DOCKED: USER    (2) Final Total Internal Energy     =  -1.48 kcal/mol
DOCKED: USER    (3) Torsional Free Energy           =  +1.49 kcal/mol
DOCKED: USER    (4) Unbound System's Energy         =  -1.48 kcal/mol
DOCKED: USER
DOCKED: USER
DOCKED: REMARK SMILES O=C(NCC(=O)N1CCCC[C@@H]1c1ccccc1)c1ccc2cc(Cl)ccc2n1
DOCKED: REMARK SMILES IDX 4 1 3 2 2 3 1 4 19 6 20 7 29 8 21 9 28 10 22 11 27 12 23 13
DOCKED: REMARK SMILES IDX 26 14 24 15 25 16 5 17 6 18 7 19 8 20 12 21 9 22 11 23 10 24
DOCKED: REMARK SMILES IDX 13 25 14 26 18 27 15 28 17 29 16 30
DOCKED: REMARK H PARENT 3 5
DOCKED: USER                              x       y       z     vdW  Elec       q    Type
DOCKED: USER                           _______ _______ _______ _____ _____    ______ ____
DOCKED: ROOT
DOCKED: ATOM      1  C   UNL     1     139.784  75.060 220.936 -0.16 -0.05    +0.216 C  
DOCKED: ENDROOT
DOCKED: BRANCH   1   2
DOCKED: ATOM      2  N   UNL     1     139.766  74.202 222.112 -0.11 +0.04    -0.342 N  
DOCKED: ATOM      3  C   UNL     1     140.005  72.816 221.887 -0.19 -0.04    +0.270 C  
DOCKED: ATOM      4  O   UNL     1     140.214  72.406 220.710 -0.08 +0.04    -0.268 OA 
DOCKED: ATOM      5  H   UNL     1     139.590  74.560 223.077 -0.50 -0.00    +0.164 HD 
DOCKED: BRANCH   3   6
DOCKED: ATOM      6  C   UNL     1     140.005  71.881 223.006 -0.29 -0.02    +0.128 A  
DOCKED: ATOM      7  C   UNL     1     139.492  70.626 222.877 -0.24 -0.01    +0.035 A  
DOCKED: ATOM      8  N   UNL     1     140.521  72.240 224.210 -0.09 +0.03    -0.243 NA 
DOCKED: ATOM      9  C   UNL     1     139.461  69.690 223.893 -0.29 -0.00    +0.013 A  
DOCKED: ATOM     10  C   UNL     1     140.521  71.365 225.253 -0.50 -0.01    +0.071 A  
DOCKED: ATOM     11  C   UNL     1     140.000  70.091 225.120 -0.44 -0.00    +0.002 A  
DOCKED: ATOM     12  C   UNL     1     141.045  71.723 226.485 -0.69 -0.00    +0.030 A  
DOCKED: ATOM     13  C   UNL     1     139.994  69.197 226.171 -0.49 -0.00    +0.030 A  
DOCKED: ATOM     14  C   UNL     1     141.050  70.844 227.550 -0.66 -0.00    +0.023 A  
DOCKED: ATOM     15  C   UNL     1     140.522  69.582 227.383 -0.57 -0.01    +0.041 A  
DOCKED: ATOM     16  Cl  UNL     1     140.524  68.456 228.732 -0.65 +0.02    -0.084 Cl 
DOCKED: ENDBRANCH   3   6
DOCKED: ENDBRANCH   1   2
DOCKED: BRANCH   1  17
DOCKED: ATOM     17  C   UNL     1     141.146  75.389 220.506 -0.16 -0.08    +0.242 C  
DOCKED: ATOM     18  O   UNL     1     142.048  74.524 220.370 -0.17 +0.08    -0.273 OA 
DOCKED: BRANCH  17  19
DOCKED: ATOM     19  N   UNL     1     141.495  76.732 220.222 -0.10 +0.16    -0.334 N  
DOCKED: ATOM     20  C   UNL     1     142.757  77.119 219.606 -0.23 -0.09    +0.120 C  
DOCKED: ATOM     21  C   UNL     1     140.593  77.860 220.534 -0.18 -0.04    +0.115 C  
DOCKED: ATOM     22  C   UNL     1     142.586  78.014 218.442 -0.31 -0.02    +0.022 C  
DOCKED: ATOM     23  C   UNL     1     140.288  78.635 219.284 -0.11 -0.01    +0.030 C  
DOCKED: ATOM     24  C   UNL     1     141.485  79.018 218.484 -0.22 -0.00    +0.004 C  
DOCKED: BRANCH  21  25
DOCKED: ATOM     25  C   UNL     1     141.123  78.662 221.646 -0.35 +0.01    -0.025 A  
DOCKED: ATOM     26  C   UNL     1     141.413  78.005 222.828 -0.45 -0.00    +0.006 A  
DOCKED: ATOM     27  C   UNL     1     141.357  80.012 221.612 -0.38 -0.00    +0.006 A  
DOCKED: ATOM     28  C   UNL     1     141.914  78.712 223.903 -0.57 -0.00    +0.000 A  
DOCKED: ATOM     29  C   UNL     1     141.862  80.724 222.695 -0.56 -0.00    +0.000 A  
DOCKED: ATOM     30  C   UNL     1     142.151  80.071 223.870 -0.63 -0.00    +0.000 A  
DOCKED: ENDBRANCH  21  25
DOCKED: ENDBRANCH  17  19
DOCKED: ENDBRANCH   1  17
DOCKED: TORSDOF 5
DOCKED: TER
DOCKED: ENDMDL
________________________________________________________________________________


    FINAL DOCKED STATE:
    ________________________


Run:   5 / 20
Time taken for this run:   0.035s

DOCKED: MODEL        5
DOCKED: USER    Run = 5
DOCKED: USER
DOCKED: USER    Estimated Free Energy of Binding    =  -9.09 kcal/mol  [=(1)+(2)+(3)-(4)]
DOCKED: USER
DOCKED: USER    (1) Final Intermolecular Energy     = -10.58 kcal/mol
DOCKED: USER        vdW + Hbond + desolv Energy     = -10.52 kcal/mol
DOCKED: USER        Electrostatic Energy            =  -0.06 kcal/mol
DOCKED: USER        Moving Ligand-Fixed Receptor    = -10.58 kcal/mol
DOCKED: USER        Moving Ligand-Moving Receptor   =  +0.00 kcal/mol
DOCKED: USER    (2) Final Total Internal Energy     =  -1.52 kcal/mol
DOCKED: USER    (3) Torsional Free Energy           =  +1.49 kcal/mol
DOCKED: USER    (4) Unbound System's Energy         =  -1.52 kcal/mol
DOCKED: USER
DOCKED: USER
DOCKED: REMARK SMILES O=C(NCC(=O)N1CCCC[C@@H]1c1ccccc1)c1ccc2cc(Cl)ccc2n1
DOCKED: REMARK SMILES IDX 4 1 3 2 2 3 1 4 19 6 20 7 29 8 21 9 28 10 22 11 27 12 23 13
DOCKED: REMARK SMILES IDX 26 14 24 15 25 16 5 17 6 18 7 19 8 20 12 21 9 22 11 23 10 24
DOCKED: REMARK SMILES IDX 13 25 14 26 18 27 15 28 17 29 16 30
DOCKED: REMARK H PARENT 3 5
DOCKED: USER                              x       y       z     vdW  Elec       q    Type
DOCKED: USER                           _______ _______ _______ _____ _____    ______ ____
DOCKED: ROOT
DOCKED: ATOM      1  C   UNL     1     138.622  74.521 220.928 -0.10 -0.05    +0.216 C  
DOCKED: ENDROOT
DOCKED: BRANCH   1   2
DOCKED: ATOM      2  N   UNL     1     138.856  73.713 222.117 -0.07 +0.10    -0.342 N  
DOCKED: ATOM      3  C   UNL     1     139.180  72.344 221.897 -0.14 -0.06    +0.270 C  
DOCKED: ATOM      4  O   UNL     1     139.247  71.904 220.713 -0.04 +0.05    -0.268 OA 
DOCKED: ATOM      5  H   UNL     1     138.795  74.094 223.087 -0.56 -0.10    +0.164 HD 
DOCKED: BRANCH   3   6
DOCKED: ATOM      6  C   UNL     1     139.431  71.458 223.028 -0.26 -0.03    +0.128 A  
DOCKED: ATOM      7  C   UNL     1     139.094  70.139 222.980 -0.22 -0.01    +0.035 A  
DOCKED: ATOM      8  N   UNL     1     140.009  71.928 224.162 -0.22 +0.05    -0.243 NA 
DOCKED: ATOM      9  C   UNL     1     139.303  69.245 224.012 -0.29 -0.00    +0.013 A  
DOCKED: ATOM     10  C   UNL     1     140.243  71.100 225.217 -0.48 -0.01    +0.071 A  
DOCKED: ATOM     11  C   UNL     1     139.901  69.761 225.166 -0.42 -0.00    +0.002 A  
DOCKED: ATOM     12  C   UNL     1     140.833  71.572 226.379 -0.65 -0.00    +0.030 A  
DOCKED: ATOM     13  C   UNL     1     140.133  68.913 226.230 -0.52 -0.01    +0.030 A  
DOCKED: ATOM     14  C   UNL     1     141.074  70.740 227.455 -0.64 -0.00    +0.023 A  
DOCKED: ATOM     15  C   UNL     1     140.720  69.412 227.371 -0.57 -0.01    +0.041 A  
DOCKED: ATOM     16  Cl  UNL     1     141.024  68.346 228.734 -0.69 +0.02    -0.084 Cl 
DOCKED: ENDBRANCH   3   6
DOCKED: ENDBRANCH   1   2
DOCKED: BRANCH   1  17
DOCKED: ATOM     17  C   UNL     1     139.023  75.918 221.115 -0.13 -0.06    +0.242 C  
DOCKED: ATOM     18  O   UNL     1     138.198  76.841 221.334 -0.08 +0.06    -0.273 OA 
DOCKED: BRANCH  17  19
DOCKED: ATOM     19  N   UNL     1     140.391  76.278 221.052 -0.11 +0.10    -0.334 N  
DOCKED: ATOM     20  C   UNL     1     141.471  75.397 221.473 -0.20 -0.04    +0.120 C  
DOCKED: ATOM     21  C   UNL     1     140.834  77.594 220.546 -0.20 -0.05    +0.115 C  
DOCKED: ATOM     22  C   UNL     1     142.537  75.256 220.459 -0.27 -0.01    +0.022 C  
DOCKED: ATOM     23  C   UNL     1     141.770  77.410 219.386 -0.26 -0.02    +0.030 C  
DOCKED: ATOM     24  C   UNL     1     142.882  76.449 219.633 -0.37 -0.00    +0.004 C  
DOCKED: BRANCH  21  25
DOCKED: ATOM     25  C   UNL     1     141.357  78.425 221.640 -0.37 +0.01    -0.025 A  
DOCKED: ATOM     26  C   UNL     1     141.068  78.035 222.935 -0.49 -0.00    +0.006 A  
DOCKED: ATOM     27  C   UNL     1     142.113  79.558 221.487 -0.38 -0.00    +0.006 A  
DOCKED: ATOM     28  C   UNL     1     141.536  78.781 223.999 -0.56 -0.00    +0.000 A  
DOCKED: ATOM     29  C   UNL     1     142.585  80.309 222.557 -0.60 -0.00    +0.000 A  
DOCKED: ATOM     30  C   UNL     1     142.297  79.922 223.846 -0.63 -0.00    +0.000 A  
DOCKED: ENDBRANCH  21  25
DOCKED: ENDBRANCH  17  19
DOCKED: ENDBRANCH   1  17
DOCKED: TORSDOF 5
DOCKED: TER
DOCKED: ENDMDL
________________________________________________________________________________


    FINAL DOCKED STATE:
    ________________________


Run:   6 / 20
Time taken for this run:   0.035s

DOCKED: MODEL        6
DOCKED: USER    Run = 6
DOCKED: USER
DOCKED: USER    Estimated Free Energy of Binding    =  -9.31 kcal/mol  [=(1)+(2)+(3)-(4)]
DOCKED: USER
DOCKED: USER    (1) Final Intermolecular Energy     = -10.80 kcal/mol
DOCKED: USER        vdW + Hbond + desolv Energy     = -10.71 kcal/mol
DOCKED: USER        Electrostatic Energy            =  -0.09 kcal/mol
DOCKED: USER        Moving Ligand-Fixed Receptor    = -10.80 kcal/mol
DOCKED: USER        Moving Ligand-Moving Receptor   =  +0.00 kcal/mol
DOCKED: USER    (2) Final Total Internal Energy     =  -1.50 kcal/mol
DOCKED: USER    (3) Torsional Free Energy           =  +1.49 kcal/mol
DOCKED: USER    (4) Unbound System's Energy         =  -1.50 kcal/mol
DOCKED: USER
DOCKED: USER
DOCKED: REMARK SMILES O=C(NCC(=O)N1CCCC[C@@H]1c1ccccc1)c1ccc2cc(Cl)ccc2n1
DOCKED: REMARK SMILES IDX 4 1 3 2 2 3 1 4 19 6 20 7 29 8 21 9 28 10 22 11 27 12 23 13
DOCKED: REMARK SMILES IDX 26 14 24 15 25 16 5 17 6 18 7 19 8 20 12 21 9 22 11 23 10 24
DOCKED: REMARK SMILES IDX 13 25 14 26 18 27 15 28 17 29 16 30
DOCKED: REMARK H PARENT 3 5
DOCKED: USER                              x       y       z     vdW  Elec       q    Type
DOCKED: USER                           _______ _______ _______ _____ _____    ______ ____
DOCKED: ROOT
DOCKED: ATOM      1  C   UNL     1     139.121  74.551 221.005 -0.13 -0.05    +0.216 C  
DOCKED: ENDROOT
DOCKED: BRANCH   1   2
DOCKED: ATOM      2  N   UNL     1     139.159  73.685 222.174 -0.09 +0.08    -0.342 N  
DOCKED: ATOM      3  C   UNL     1     139.834  72.440 222.018 -0.19 -0.04    +0.270 C  
DOCKED: ATOM      4  O   UNL     1     140.352  72.152 220.901 -0.09 +0.04    -0.268 OA 
DOCKED: ATOM      5  H   UNL     1     138.725  73.941 223.089 -0.55 -0.11    +0.164 HD 
DOCKED: BRANCH   3   6
DOCKED: ATOM      6  C   UNL     1     139.924  71.508 223.135 -0.29 -0.02    +0.128 A  
DOCKED: ATOM      7  C   UNL     1     139.521  70.213 223.008 -0.23 -0.01    +0.035 A  
DOCKED: ATOM      8  N   UNL     1     140.414  71.910 224.336 -0.26 +0.04    -0.243 NA 
DOCKED: ATOM      9  C   UNL     1     139.578  69.278 224.024 -0.25 -0.00    +0.013 A  
DOCKED: ATOM     10  C   UNL     1     140.497  71.038 225.378 -0.51 -0.01    +0.071 A  
DOCKED: ATOM     11  C   UNL     1     140.088  69.723 225.247 -0.43 -0.00    +0.002 A  
DOCKED: ATOM     12  C   UNL     1     140.996  71.440 226.607 -0.69 -0.00    +0.030 A  
DOCKED: ATOM     13  C   UNL     1     140.168  68.832 226.298 -0.53 -0.01    +0.030 A  
DOCKED: ATOM     14  C   UNL     1     141.085  70.563 227.671 -0.61 -0.00    +0.023 A  
DOCKED: ATOM     15  C   UNL     1     140.668  69.261 227.506 -0.59 -0.01    +0.041 A  
DOCKED: ATOM     16  Cl  UNL     1     140.777  68.139 228.854 -0.54 +0.02    -0.084 Cl 
DOCKED: ENDBRANCH   3   6
DOCKED: ENDBRANCH   1   2
DOCKED: BRANCH   1  17
DOCKED: ATOM     17  C   UNL     1     139.324  75.961 221.347 -0.17 -0.06    +0.242 C  
DOCKED: ATOM     18  O   UNL     1     138.472  76.643 221.970 -0.16 +0.06    -0.273 OA 
DOCKED: BRANCH  17  19
DOCKED: ATOM     19  N   UNL     1     140.524  76.615 220.973 -0.10 +0.11    -0.334 N  
DOCKED: ATOM     20  C   UNL     1     141.803  75.930 220.845 -0.17 -0.06    +0.120 C  
DOCKED: ATOM     21  C   UNL     1     140.570  78.062 220.680 -0.19 -0.04    +0.115 C  
DOCKED: ATOM     22  C   UNL     1     142.482  76.202 219.561 -0.32 -0.01    +0.022 C  
DOCKED: ATOM     23  C   UNL     1     141.088  78.289 219.289 -0.19 -0.01    +0.030 C  
DOCKED: ATOM     24  C   UNL     1     142.350  77.564 218.971 -0.31 -0.00    +0.004 C  
DOCKED: BRANCH  21  25
DOCKED: ATOM     25  C   UNL     1     141.293  78.786 221.736 -0.37 +0.01    -0.025 A  
DOCKED: ATOM     26  C   UNL     1     141.125  78.355 223.039 -0.52 -0.00    +0.006 A  
DOCKED: ATOM     27  C   UNL     1     142.125  79.858 221.539 -0.42 -0.00    +0.006 A  
DOCKED: ATOM     28  C   UNL     1     141.783  79.000 224.068 -0.60 -0.00    +0.000 A  
DOCKED: ATOM     29  C   UNL     1     142.787  80.508 222.574 -0.59 -0.00    +0.000 A  
DOCKED: ATOM     30  C   UNL     1     142.620  80.078 223.871 -0.62 -0.00    +0.000 A  
DOCKED: ENDBRANCH  21  25
DOCKED: ENDBRANCH  17  19
DOCKED: ENDBRANCH   1  17
DOCKED: TORSDOF 5
DOCKED: TER
DOCKED: ENDMDL
________________________________________________________________________________


    FINAL DOCKED STATE:
    ________________________


Run:   7 / 20
Time taken for this run:   0.035s

DOCKED: MODEL        7
DOCKED: USER    Run = 7
DOCKED: USER
DOCKED: USER    Estimated Free Energy of Binding    =  -8.25 kcal/mol  [=(1)+(2)+(3)-(4)]
DOCKED: USER
DOCKED: USER    (1) Final Intermolecular Energy     =  -9.74 kcal/mol
DOCKED: USER        vdW + Hbond + desolv Energy     =  -9.70 kcal/mol
DOCKED: USER        Electrostatic Energy            =  -0.04 kcal/mol
DOCKED: USER        Moving Ligand-Fixed Receptor    =  -9.74 kcal/mol
DOCKED: USER        Moving Ligand-Moving Receptor   =  +0.00 kcal/mol
DOCKED: USER    (2) Final Total Internal Energy     =  -1.88 kcal/mol
DOCKED: USER    (3) Torsional Free Energy           =  +1.49 kcal/mol
DOCKED: USER    (4) Unbound System's Energy         =  -1.88 kcal/mol
DOCKED: USER
DOCKED: USER
DOCKED: REMARK SMILES O=C(NCC(=O)N1CCCC[C@@H]1c1ccccc1)c1ccc2cc(Cl)ccc2n1
DOCKED: REMARK SMILES IDX 4 1 3 2 2 3 1 4 19 6 20 7 29 8 21 9 28 10 22 11 27 12 23 13
DOCKED: REMARK SMILES IDX 26 14 24 15 25 16 5 17 6 18 7 19 8 20 12 21 9 22 11 23 10 24
DOCKED: REMARK SMILES IDX 13 25 14 26 18 27 15 28 17 29 16 30
DOCKED: REMARK H PARENT 3 5
DOCKED: USER                              x       y       z     vdW  Elec       q    Type
DOCKED: USER                           _______ _______ _______ _____ _____    ______ ____
DOCKED: ROOT
DOCKED: ATOM      1  C   UNL     1     139.092  74.593 220.919 -0.12 -0.05    +0.216 C  
DOCKED: ENDROOT
DOCKED: BRANCH   1   2
DOCKED: ATOM      2  N   UNL     1     139.230  73.755 222.102 -0.11 +0.08    -0.342 N  
DOCKED: ATOM      3  C   UNL     1     139.561  72.389 221.874 -0.16 -0.05    +0.270 C  
DOCKED: ATOM      4  O   UNL     1     139.713  71.977 220.689 -0.06 +0.05    -0.268 OA 
DOCKED: ATOM      5  H   UNL     1     139.099  74.114 223.074 -0.55 -0.07    +0.164 HD 
DOCKED: BRANCH   3   6
DOCKED: ATOM      6  C   UNL     1     139.720  71.475 222.998 -0.27 -0.02    +0.128 A  
DOCKED: ATOM      7  C   UNL     1     139.355  70.166 222.901 -0.22 -0.01    +0.035 A  
DOCKED: ATOM      8  N   UNL     1     140.238  71.907 224.176 -0.26 +0.04    -0.243 NA 
DOCKED: ATOM      9  C   UNL     1     139.479  69.246 223.925 -0.24 -0.00    +0.013 A  
DOCKED: ATOM     10  C   UNL     1     140.386  71.052 225.226 -0.49 -0.01    +0.071 A  
DOCKED: ATOM     11  C   UNL     1     140.016  69.724 225.125 -0.42 -0.00    +0.002 A  
DOCKED: ATOM     12  C   UNL     1     140.914  71.486 226.431 -0.67 -0.00    +0.030 A  
DOCKED: ATOM     13  C   UNL     1     140.161  68.849 226.182 -0.52 -0.01    +0.030 A  
DOCKED: ATOM     14  C   UNL     1     141.069  70.627 227.501 -0.62 -0.00    +0.023 A  
DOCKED: ATOM     15  C   UNL     1     140.689  69.309 227.367 -0.58 -0.01    +0.041 A  
DOCKED: ATOM     16  Cl  UNL     1     140.882  68.209 228.723 -0.67 +0.02    -0.084 Cl 
DOCKED: ENDBRANCH   3   6
DOCKED: ENDBRANCH   1   2
DOCKED: BRANCH   1  17
DOCKED: ATOM     17  C   UNL     1     140.159  75.592 220.815 -0.15 -0.06    +0.242 C  
DOCKED: ATOM     18  O   UNL     1     140.200  76.625 221.530 -0.19 +0.08    -0.273 OA 
DOCKED: BRANCH  17  19
DOCKED: ATOM     19  N   UNL     1     141.205  75.416 219.876 -0.05 +0.11    -0.334 N  
DOCKED: ATOM     20  C   UNL     1     140.997  74.892 218.534 -0.05 -0.03    +0.120 C  
DOCKED: ATOM     21  C   UNL     1     142.608  75.756 220.192 -0.19 -0.06    +0.115 C  
DOCKED: ATOM     22  C   UNL     1     141.601  75.735 217.480 -0.08 -0.01    +0.022 C  
DOCKED: ATOM     23  C   UNL     1     143.126  76.765 219.209 -0.35 -0.02    +0.030 C  
DOCKED: ATOM     24  C   UNL     1     142.894  76.413 217.779 -0.26 -0.00    +0.004 C  
DOCKED: BRANCH  21  25
DOCKED: ATOM     25  C   UNL     1     143.423  74.539 220.321 -0.37 +0.01    -0.025 A  
DOCKED: ATOM     26  C   UNL     1     144.793  74.694 220.423 -0.42 -0.00    +0.006 A  
DOCKED: ATOM     27  C   UNL     1     142.939  73.257 220.351 -0.28 -0.00    +0.006 A  
DOCKED: ATOM     28  C   UNL     1     145.605  73.583 220.547 -0.64 -0.00    +0.000 A  
DOCKED: ATOM     29  C   UNL     1     143.755  72.138 220.475 -0.33 -0.00    +0.000 A  
DOCKED: ATOM     30  C   UNL     1     145.119  72.292 220.577 -0.36 -0.00    +0.000 A  
DOCKED: ENDBRANCH  21  25
DOCKED: ENDBRANCH  17  19
DOCKED: ENDBRANCH   1  17
DOCKED: TORSDOF 5
DOCKED: TER
DOCKED: ENDMDL
________________________________________________________________________________


    FINAL DOCKED STATE:
    ________________________


Run:   8 / 20
Time taken for this run:   0.035s

DOCKED: MODEL        8
DOCKED: USER    Run = 8
DOCKED: USER
DOCKED: USER    Estimated Free Energy of Binding    =  -8.68 kcal/mol  [=(1)+(2)+(3)-(4)]
DOCKED: USER
DOCKED: USER    (1) Final Intermolecular Energy     = -10.18 kcal/mol
DOCKED: USER        vdW + Hbond + desolv Energy     = -10.09 kcal/mol
DOCKED: USER        Electrostatic Energy            =  -0.08 kcal/mol
DOCKED: USER        Moving Ligand-Fixed Receptor    = -10.18 kcal/mol
DOCKED: USER        Moving Ligand-Moving Receptor   =  +0.00 kcal/mol
DOCKED: USER    (2) Final Total Internal Energy     =  -1.61 kcal/mol
DOCKED: USER    (3) Torsional Free Energy           =  +1.49 kcal/mol
DOCKED: USER    (4) Unbound System's Energy         =  -1.61 kcal/mol
DOCKED: USER
DOCKED: USER
DOCKED: REMARK SMILES O=C(NCC(=O)N1CCCC[C@@H]1c1ccccc1)c1ccc2cc(Cl)ccc2n1
DOCKED: REMARK SMILES IDX 4 1 3 2 2 3 1 4 19 6 20 7 29 8 21 9 28 10 22 11 27 12 23 13
DOCKED: REMARK SMILES IDX 26 14 24 15 25 16 5 17 6 18 7 19 8 20 12 21 9 22 11 23 10 24
DOCKED: REMARK SMILES IDX 13 25 14 26 18 27 15 28 17 29 16 30
DOCKED: REMARK H PARENT 3 5
DOCKED: USER                              x       y       z     vdW  Elec       q    Type
DOCKED: USER                           _______ _______ _______ _____ _____    ______ ____
DOCKED: ROOT
DOCKED: ATOM      1  C   UNL     1     138.782  72.286 221.877 -0.13 -0.05    +0.216 C  
DOCKED: ENDROOT
DOCKED: BRANCH   1   2
DOCKED: ATOM      2  N   UNL     1     139.147  73.686 222.038 -0.12 +0.08    -0.342 N  
DOCKED: ATOM      3  C   UNL     1     140.181  74.171 221.187 -0.17 -0.05    +0.270 C  
DOCKED: ATOM      4  O   UNL     1     140.721  73.386 220.357 -0.08 +0.05    -0.268 OA 
DOCKED: ATOM      5  H   UNL     1     138.690  74.319 222.731 -0.56 -0.07    +0.164 HD 
DOCKED: BRANCH   3   6
DOCKED: ATOM      6  C   UNL     1     140.614  75.560 221.277 -0.27 -0.03    +0.128 A  
DOCKED: ATOM      7  C   UNL     1     141.576  76.055 220.450 -0.27 -0.02    +0.035 A  
DOCKED: ATOM      8  N   UNL     1     140.065  76.400 222.192 -0.28 +0.06    -0.243 NA 
DOCKED: ATOM      9  C   UNL     1     142.032  77.359 220.479 -0.28 -0.01    +0.013 A  
DOCKED: ATOM     10  C   UNL     1     140.470  77.697 222.275 -0.36 -0.02    +0.071 A  
DOCKED: ATOM     11  C   UNL     1     141.446  78.198 221.433 -0.37 -0.00    +0.002 A  
DOCKED: ATOM     12  C   UNL     1     139.915  78.560 223.206 -0.30 -0.01    +0.030 A  
DOCKED: ATOM     13  C   UNL     1     141.864  79.511 221.509 -0.40 -0.01    +0.030 A  
DOCKED: ATOM     14  C   UNL     1     140.318  79.878 223.298 -0.44 -0.00    +0.023 A  
DOCKED: ATOM     15  C   UNL     1     141.294  80.344 222.444 -0.43 -0.01    +0.041 A  
DOCKED: ATOM     16  Cl  UNL     1     141.813  82.019 222.553 -0.28 +0.01    -0.084 Cl 
DOCKED: ENDBRANCH   3   6
DOCKED: ENDBRANCH   1   2
DOCKED: BRANCH   1  17
DOCKED: ATOM     17  C   UNL     1     139.651  71.390 222.646 -0.20 -0.04    +0.242 C  
DOCKED: ATOM     18  O   UNL     1     140.839  71.142 222.317 -0.10 +0.03    -0.273 OA 
DOCKED: BRANCH  17  19
DOCKED: ATOM     19  N   UNL     1     139.162  70.760 223.816 -0.15 +0.07    -0.334 N  
DOCKED: ATOM     20  C   UNL     1     137.804  70.935 224.313 -0.09 -0.03    +0.120 C  
DOCKED: ATOM     21  C   UNL     1     140.004  69.863 224.635 -0.29 -0.02    +0.115 C  
DOCKED: ATOM     22  C   UNL     1     137.118  69.657 224.596 -0.27 -0.00    +0.022 C  
DOCKED: ATOM     23  C   UNL     1     139.363  68.509 224.739 -0.33 -0.00    +0.030 C  
DOCKED: ATOM     24  C   UNL     1     137.929  68.532 225.143 -0.05 +0.00    +0.004 C  
DOCKED: BRANCH  21  25
DOCKED: ATOM     25  C   UNL     1     140.339  70.492 225.922 -0.53 +0.00    -0.025 A  
DOCKED: ATOM     26  C   UNL     1     141.094  71.649 225.892 -0.61 -0.00    +0.006 A  
DOCKED: ATOM     27  C   UNL     1     139.963  70.027 227.155 -0.57 -0.00    +0.006 A  
DOCKED: ATOM     28  C   UNL     1     141.435  72.279 227.073 -0.78 -0.00    +0.000 A  
DOCKED: ATOM     29  C   UNL     1     140.305  70.660 228.345 -0.61 -0.00    +0.000 A  
DOCKED: ATOM     30  C   UNL     1     141.057  71.812 228.315 -0.77 -0.00    +0.000 A  
DOCKED: ENDBRANCH  21  25
DOCKED: ENDBRANCH  17  19
DOCKED: ENDBRANCH   1  17
DOCKED: TORSDOF 5
DOCKED: TER
DOCKED: ENDMDL
________________________________________________________________________________


    FINAL DOCKED STATE:
    ________________________


Run:   9 / 20
Time taken for this run:   0.035s

DOCKED: MODEL        9
DOCKED: USER    Run = 9
DOCKED: USER
DOCKED: USER    Estimated Free Energy of Binding    =  -8.79 kcal/mol  [=(1)+(2)+(3)-(4)]
DOCKED: USER
DOCKED: USER    (1) Final Intermolecular Energy     = -10.28 kcal/mol
DOCKED: USER        vdW + Hbond + desolv Energy     = -10.31 kcal/mol
DOCKED: USER        Electrostatic Energy            =  +0.03 kcal/mol
DOCKED: USER        Moving Ligand-Fixed Receptor    = -10.28 kcal/mol
DOCKED: USER        Moving Ligand-Moving Receptor   =  +0.00 kcal/mol
DOCKED: USER    (2) Final Total Internal Energy     =  -1.58 kcal/mol
DOCKED: USER    (3) Torsional Free Energy           =  +1.49 kcal/mol
DOCKED: USER    (4) Unbound System's Energy         =  -1.58 kcal/mol
DOCKED: USER
DOCKED: USER
DOCKED: REMARK SMILES O=C(NCC(=O)N1CCCC[C@@H]1c1ccccc1)c1ccc2cc(Cl)ccc2n1
DOCKED: REMARK SMILES IDX 4 1 3 2 2 3 1 4 19 6 20 7 29 8 21 9 28 10 22 11 27 12 23 13
DOCKED: REMARK SMILES IDX 26 14 24 15 25 16 5 17 6 18 7 19 8 20 12 21 9 22 11 23 10 24
DOCKED: REMARK SMILES IDX 13 25 14 26 18 27 15 28 17 29 16 30
DOCKED: REMARK H PARENT 3 5
DOCKED: USER                              x       y       z     vdW  Elec       q    Type
DOCKED: USER                           _______ _______ _______ _____ _____    ______ ____
DOCKED: ROOT
DOCKED: ATOM      1  C   UNL     1     138.905  74.376 221.123 -0.13 -0.05    +0.216 C  
DOCKED: ENDROOT
DOCKED: BRANCH   1   2
DOCKED: ATOM      2  N   UNL     1     139.272  73.569 222.278 -0.10 +0.08    -0.342 N  
DOCKED: ATOM      3  C   UNL     1     138.915  72.191 222.226 -0.14 -0.06    +0.270 C  
DOCKED: ATOM      4  O   UNL     1     138.310  71.745 221.209 -0.05 +0.05    -0.268 OA 
DOCKED: ATOM      5  H   UNL     1     139.771  73.957 223.109 -0.41 +0.01    +0.164 HD 
DOCKED: BRANCH   3   6
DOCKED: ATOM      6  C   UNL     1     139.241  71.306 223.337 -0.26 -0.03    +0.128 A  
DOCKED: ATOM      7  C   UNL     1     138.962  69.974 223.285 -0.24 -0.01    +0.035 A  
DOCKED: ATOM      8  N   UNL     1     139.836  71.790 224.458 -0.17 +0.06    -0.243 NA 
DOCKED: ATOM      9  C   UNL     1     139.245  69.080 224.299 -0.32 -0.00    +0.013 A  
DOCKED: ATOM     10  C   UNL     1     140.141  70.962 225.495 -0.48 -0.01    +0.071 A  
DOCKED: ATOM     11  C   UNL     1     139.857  69.610 225.440 -0.44 -0.00    +0.002 A  
DOCKED: ATOM     12  C   UNL     1     140.747  71.449 226.642 -0.67 -0.00    +0.030 A  
DOCKED: ATOM     13  C   UNL     1     140.162  68.763 226.485 -0.56 -0.01    +0.030 A  
DOCKED: ATOM     14  C   UNL     1     141.061  70.617 227.700 -0.63 -0.00    +0.023 A  
DOCKED: ATOM     15  C   UNL     1     140.764  69.275 227.612 -0.58 -0.01    +0.041 A  
DOCKED: ATOM     16  Cl  UNL     1     141.159  68.210 228.952 -0.51 +0.02    -0.084 Cl 
DOCKED: ENDBRANCH   3   6
DOCKED: ENDBRANCH   1   2
DOCKED: BRANCH   1  17
DOCKED: ATOM     17  C   UNL     1     139.133  75.806 221.345 -0.16 -0.05    +0.242 C  
DOCKED: ATOM     18  O   UNL     1     138.249  76.577 221.797 -0.14 +0.06    -0.273 OA 
DOCKED: BRANCH  17  19
DOCKED: ATOM     19  N   UNL     1     140.394  76.377 221.047 -0.11 +0.10    -0.334 N  
DOCKED: ATOM     20  C   UNL     1     141.649  75.645 221.147 -0.15 -0.05    +0.120 C  
DOCKED: ATOM     21  C   UNL     1     140.536  77.780 220.605 -0.18 -0.04    +0.115 C  
DOCKED: ATOM     22  C   UNL     1     142.482  75.748 219.930 -0.31 -0.01    +0.022 C  
DOCKED: ATOM     23  C   UNL     1     141.218  77.832 219.269 -0.19 -0.01    +0.030 C  
DOCKED: ATOM     24  C   UNL     1     142.477  77.039 219.184 -0.33 -0.00    +0.004 C  
DOCKED: BRANCH  21  25
DOCKED: ATOM     25  C   UNL     1     141.164  78.597 221.654 -0.35 +0.01    -0.025 A  
DOCKED: ATOM     26  C   UNL     1     140.881  78.278 222.970 -0.48 -0.00    +0.006 A  
DOCKED: ATOM     27  C   UNL     1     142.011  79.653 221.439 -0.39 -0.00    +0.006 A  
DOCKED: ATOM     28  C   UNL     1     141.446  79.014 223.993 -0.59 -0.00    +0.000 A  
DOCKED: ATOM     29  C   UNL     1     142.580  80.394 222.469 -0.59 -0.00    +0.000 A  
DOCKED: ATOM     30  C   UNL     1     142.300  80.077 223.778 -0.65 -0.00    +0.000 A  
DOCKED: ENDBRANCH  21  25
DOCKED: ENDBRANCH  17  19
DOCKED: ENDBRANCH   1  17
DOCKED: TORSDOF 5
DOCKED: TER
DOCKED: ENDMDL
________________________________________________________________________________


    FINAL DOCKED STATE:
    ________________________


Run:   10 / 20
Time taken for this run:   0.035s

DOCKED: MODEL        10
DOCKED: USER    Run = 10
DOCKED: USER
DOCKED: USER    Estimated Free Energy of Binding    =  -9.13 kcal/mol  [=(1)+(2)+(3)-(4)]
DOCKED: USER
DOCKED: USER    (1) Final Intermolecular Energy     = -10.62 kcal/mol
DOCKED: USER        vdW + Hbond + desolv Energy     = -10.60 kcal/mol
DOCKED: USER        Electrostatic Energy            =  -0.02 kcal/mol
DOCKED: USER        Moving Ligand-Fixed Receptor    = -10.62 kcal/mol
DOCKED: USER        Moving Ligand-Moving Receptor   =  +0.00 kcal/mol
DOCKED: USER    (2) Final Total Internal Energy     =  -1.34 kcal/mol
DOCKED: USER    (3) Torsional Free Energy           =  +1.49 kcal/mol
DOCKED: USER    (4) Unbound System's Energy         =  -1.34 kcal/mol
DOCKED: USER
DOCKED: USER
DOCKED: REMARK SMILES O=C(NCC(=O)N1CCCC[C@@H]1c1ccccc1)c1ccc2cc(Cl)ccc2n1
DOCKED: REMARK SMILES IDX 4 1 3 2 2 3 1 4 19 6 20 7 29 8 21 9 28 10 22 11 27 12 23 13
DOCKED: REMARK SMILES IDX 26 14 24 15 25 16 5 17 6 18 7 19 8 20 12 21 9 22 11 23 10 24
DOCKED: REMARK SMILES IDX 13 25 14 26 18 27 15 28 17 29 16 30
DOCKED: REMARK H PARENT 3 5
DOCKED: USER                              x       y       z     vdW  Elec       q    Type
DOCKED: USER                           _______ _______ _______ _____ _____    ______ ____
DOCKED: ROOT
DOCKED: ATOM      1  C   UNL     1     139.847  75.009 220.807 -0.15 -0.05    +0.216 C  
DOCKED: ENDROOT
DOCKED: BRANCH   1   2
DOCKED: ATOM      2  N   UNL     1     139.722  74.157 221.980 -0.16 +0.05    -0.342 N  
DOCKED: ATOM      3  C   UNL     1     140.218  72.828 221.852 -0.19 -0.03    +0.270 C  
DOCKED: ATOM      4  O   UNL     1     140.728  72.460 220.755 -0.10 +0.04    -0.268 OA 
DOCKED: ATOM      5  H   UNL     1     139.296  74.479 222.878 -0.48 -0.04    +0.164 HD 
DOCKED: BRANCH   3   6
DOCKED: ATOM      6  C   UNL     1     140.135  71.902 222.975 -0.30 -0.02    +0.128 A  
DOCKED: ATOM      7  C   UNL     1     139.549  70.680 222.840 -0.25 -0.01    +0.035 A  
DOCKED: ATOM      8  N   UNL     1     140.643  72.236 224.189 -0.07 +0.02    -0.243 NA 
DOCKED: ATOM      9  C   UNL     1     139.437  69.754 223.860 -0.29 -0.00    +0.013 A  
DOCKED: ATOM     10  C   UNL     1     140.565  71.370 225.236 -0.50 -0.01    +0.071 A  
DOCKED: ATOM     11  C   UNL     1     139.970  70.129 225.098 -0.44 -0.00    +0.002 A  
DOCKED: ATOM     12  C   UNL     1     141.081  71.703 226.478 -0.69 -0.00    +0.030 A  
DOCKED: ATOM     13  C   UNL     1     139.885  69.244 226.153 -0.48 -0.00    +0.030 A  
DOCKED: ATOM     14  C   UNL     1     141.007  70.832 227.548 -0.66 -0.00    +0.023 A  
DOCKED: ATOM     15  C   UNL     1     140.407  69.604 227.375 -0.57 -0.01    +0.041 A  
DOCKED: ATOM     16  Cl  UNL     1     140.309  68.489 228.729 -0.62 +0.02    -0.084 Cl 
DOCKED: ENDBRANCH   3   6
DOCKED: ENDBRANCH   1   2
DOCKED: BRANCH   1  17
DOCKED: ATOM     17  C   UNL     1     141.216  75.498 220.616 -0.18 -0.08    +0.242 C  
DOCKED: ATOM     18  O   UNL     1     142.227  74.759 220.725 -0.22 +0.09    -0.273 OA 
DOCKED: BRANCH  17  19
DOCKED: ATOM     19  N   UNL     1     141.444  76.858 220.292 -0.11 +0.16    -0.334 N  
DOCKED: ATOM     20  C   UNL     1     142.560  77.309 219.472 -0.25 -0.08    +0.120 C  
DOCKED: ATOM     21  C   UNL     1     140.555  77.938 220.767 -0.19 -0.04    +0.115 C  
DOCKED: ATOM     22  C   UNL     1     142.148  78.198 218.365 -0.28 -0.01    +0.022 C  
DOCKED: ATOM     23  C   UNL     1     140.001  78.700 219.597 -0.10 -0.01    +0.030 C  
DOCKED: ATOM     24  C   UNL     1     141.023  79.145 218.608 -0.17 -0.00    +0.004 C  
DOCKED: BRANCH  21  25
DOCKED: ATOM     25  C   UNL     1     141.229  78.762 221.781 -0.37 +0.01    -0.025 A  
DOCKED: ATOM     26  C   UNL     1     141.200  78.319 223.090 -0.53 -0.00    +0.006 A  
DOCKED: ATOM     27  C   UNL     1     141.889  79.939 221.538 -0.43 -0.00    +0.006 A  
DOCKED: ATOM     28  C   UNL     1     141.820  79.056 224.080 -0.60 -0.00    +0.000 A  
DOCKED: ATOM     29  C   UNL     1     142.513  80.682 222.534 -0.57 -0.00    +0.000 A  
DOCKED: ATOM     30  C   UNL     1     142.484  80.240 223.837 -0.66 -0.00    +0.000 A  
DOCKED: ENDBRANCH  21  25
DOCKED: ENDBRANCH  17  19
DOCKED: ENDBRANCH   1  17
DOCKED: TORSDOF 5
DOCKED: TER
DOCKED: ENDMDL
________________________________________________________________________________


    FINAL DOCKED STATE:
    ________________________


Run:   11 / 20
Time taken for this run:   0.035s

DOCKED: MODEL        11
DOCKED: USER    Run = 11
DOCKED: USER
DOCKED: USER    Estimated Free Energy of Binding    =  -9.34 kcal/mol  [=(1)+(2)+(3)-(4)]
DOCKED: USER
DOCKED: USER    (1) Final Intermolecular Energy     = -10.83 kcal/mol
DOCKED: USER        vdW + Hbond + desolv Energy     = -10.76 kcal/mol
DOCKED: USER        Electrostatic Energy            =  -0.07 kcal/mol
DOCKED: USER        Moving Ligand-Fixed Receptor    = -10.83 kcal/mol
DOCKED: USER        Moving Ligand-Moving Receptor   =  +0.00 kcal/mol
DOCKED: USER    (2) Final Total Internal Energy     =  -1.53 kcal/mol
DOCKED: USER    (3) Torsional Free Energy           =  +1.49 kcal/mol
DOCKED: USER    (4) Unbound System's Energy         =  -1.53 kcal/mol
DOCKED: USER
DOCKED: USER
DOCKED: REMARK SMILES O=C(NCC(=O)N1CCCC[C@@H]1c1ccccc1)c1ccc2cc(Cl)ccc2n1
DOCKED: REMARK SMILES IDX 4 1 3 2 2 3 1 4 19 6 20 7 29 8 21 9 28 10 22 11 27 12 23 13
DOCKED: REMARK SMILES IDX 26 14 24 15 25 16 5 17 6 18 7 19 8 20 12 21 9 22 11 23 10 24
DOCKED: REMARK SMILES IDX 13 25 14 26 18 27 15 28 17 29 16 30
DOCKED: REMARK H PARENT 3 5
DOCKED: USER                              x       y       z     vdW  Elec       q    Type
DOCKED: USER                           _______ _______ _______ _____ _____    ______ ____
DOCKED: ROOT
DOCKED: ATOM      1  C   UNL     1     138.686  74.589 220.930 -0.11 -0.05    +0.216 C  
DOCKED: ENDROOT
DOCKED: BRANCH   1   2
DOCKED: ATOM      2  N   UNL     1     138.722  73.678 222.065 -0.07 +0.10    -0.342 N  
DOCKED: ATOM      3  C   UNL     1     139.695  72.639 222.011 -0.18 -0.05    +0.270 C  
DOCKED: ATOM      4  O   UNL     1     140.459  72.557 221.007 -0.12 +0.04    -0.268 OA 
DOCKED: ATOM      5  H   UNL     1     138.082  73.762 222.885 -0.53 -0.10    +0.164 HD 
DOCKED: BRANCH   3   6
DOCKED: ATOM      6  C   UNL     1     139.805  71.679 223.103 -0.29 -0.02    +0.128 A  
DOCKED: ATOM      7  C   UNL     1     139.388  70.391 222.955 -0.23 -0.01    +0.035 A  
DOCKED: ATOM      8  N   UNL     1     140.329  72.048 224.300 -0.19 +0.04    -0.243 NA 
DOCKED: ATOM      9  C   UNL     1     139.464  69.431 223.946 -0.27 -0.00    +0.013 A  
DOCKED: ATOM     10  C   UNL     1     140.432  71.150 225.319 -0.50 -0.01    +0.071 A  
DOCKED: ATOM     11  C   UNL     1     140.008  69.843 225.167 -0.43 -0.00    +0.002 A  
DOCKED: ATOM     12  C   UNL     1     140.965  71.518 226.543 -0.69 -0.00    +0.030 A  
DOCKED: ATOM     13  C   UNL     1     140.107  68.925 226.193 -0.52 -0.01    +0.030 A  
DOCKED: ATOM     14  C   UNL     1     141.074  70.616 227.583 -0.62 -0.00    +0.023 A  
DOCKED: ATOM     15  C   UNL     1     140.642  69.321 227.398 -0.58 -0.01    +0.041 A  
DOCKED: ATOM     16  Cl  UNL     1     140.776  68.165 228.715 -0.65 +0.02    -0.084 Cl 
DOCKED: ENDBRANCH   3   6
DOCKED: ENDBRANCH   1   2
DOCKED: BRANCH   1  17
DOCKED: ATOM     17  C   UNL     1     139.026  75.964 221.306 -0.15 -0.05    +0.242 C  
DOCKED: ATOM     18  O   UNL     1     138.197  76.756 221.822 -0.13 +0.06    -0.273 OA 
DOCKED: BRANCH  17  19
DOCKED: ATOM     19  N   UNL     1     140.337  76.454 221.092 -0.11 +0.10    -0.334 N  
DOCKED: ATOM     20  C   UNL     1     141.531  75.631 221.223 -0.20 -0.05    +0.120 C  
DOCKED: ATOM     21  C   UNL     1     140.598  77.858 220.712 -0.19 -0.04    +0.115 C  
DOCKED: ATOM     22  C   UNL     1     142.430  75.718 220.053 -0.31 -0.01    +0.022 C  
DOCKED: ATOM     23  C   UNL     1     141.349  77.909 219.413 -0.22 -0.01    +0.030 C  
DOCKED: ATOM     24  C   UNL     1     142.552  77.032 219.358 -0.34 -0.00    +0.004 C  
DOCKED: BRANCH  21  25
DOCKED: ATOM     25  C   UNL     1     141.227  78.591 221.822 -0.38 +0.01    -0.025 A  
DOCKED: ATOM     26  C   UNL     1     141.950  79.727 221.510 -0.42 -0.00    +0.006 A  
DOCKED: ATOM     27  C   UNL     1     141.157  78.242 223.145 -0.51 -0.00    +0.006 A  
DOCKED: ATOM     28  C   UNL     1     142.560  80.452 222.516 -0.59 -0.00    +0.000 A  
DOCKED: ATOM     29  C   UNL     1     141.771  78.970 224.158 -0.58 -0.00    +0.000 A  
DOCKED: ATOM     30  C   UNL     1     142.490  80.102 223.848 -0.64 -0.00    +0.000 A  
DOCKED: ENDBRANCH  21  25
DOCKED: ENDBRANCH  17  19
DOCKED: ENDBRANCH   1  17
DOCKED: TORSDOF 5
DOCKED: TER
DOCKED: ENDMDL
________________________________________________________________________________


    FINAL DOCKED STATE:
    ________________________


Run:   12 / 20
Time taken for this run:   0.035s

DOCKED: MODEL        12
DOCKED: USER    Run = 12
DOCKED: USER
DOCKED: USER    Estimated Free Energy of Binding    =  -8.99 kcal/mol  [=(1)+(2)+(3)-(4)]
DOCKED: USER
DOCKED: USER    (1) Final Intermolecular Energy     = -10.48 kcal/mol
DOCKED: USER        vdW + Hbond + desolv Energy     = -10.47 kcal/mol
DOCKED: USER        Electrostatic Energy            =  -0.01 kcal/mol
DOCKED: USER        Moving Ligand-Fixed Receptor    = -10.48 kcal/mol
DOCKED: USER        Moving Ligand-Moving Receptor   =  +0.00 kcal/mol
DOCKED: USER    (2) Final Total Internal Energy     =  -1.35 kcal/mol
DOCKED: USER    (3) Torsional Free Energy           =  +1.49 kcal/mol
DOCKED: USER    (4) Unbound System's Energy         =  -1.35 kcal/mol
DOCKED: USER
DOCKED: USER
DOCKED: REMARK SMILES O=C(NCC(=O)N1CCCC[C@@H]1c1ccccc1)c1ccc2cc(Cl)ccc2n1
DOCKED: REMARK SMILES IDX 4 1 3 2 2 3 1 4 19 6 20 7 29 8 21 9 28 10 22 11 27 12 23 13
DOCKED: REMARK SMILES IDX 26 14 24 15 25 16 5 17 6 18 7 19 8 20 12 21 9 22 11 23 10 24
DOCKED: REMARK SMILES IDX 13 25 14 26 18 27 15 28 17 29 16 30
DOCKED: REMARK H PARENT 3 5
DOCKED: USER                              x       y       z     vdW  Elec       q    Type
DOCKED: USER                           _______ _______ _______ _____ _____    ______ ____
DOCKED: ROOT
DOCKED: ATOM      1  C   UNL     1     139.251  74.937 221.061 -0.15 -0.05    +0.216 C  
DOCKED: ENDROOT
DOCKED: BRANCH   1   2
DOCKED: ATOM      2  N   UNL     1     139.191  74.003 222.176 -0.10 +0.08    -0.342 N  
DOCKED: ATOM      3  C   UNL     1     140.048  72.868 222.097 -0.19 -0.04    +0.270 C  
DOCKED: ATOM      4  O   UNL     1     140.799  72.727 221.090 -0.15 +0.04    -0.268 OA 
DOCKED: ATOM      5  H   UNL     1     138.562  74.136 222.999 -0.56 -0.11    +0.164 HD 
DOCKED: BRANCH   3   6
DOCKED: ATOM      6  C   UNL     1     140.056  71.878 223.167 -0.30 -0.02    +0.128 A  
DOCKED: ATOM      7  C   UNL     1     139.572  70.621 222.970 -0.25 -0.01    +0.035 A  
DOCKED: ATOM      8  N   UNL     1     140.550  72.187 224.394 -0.06 +0.03    -0.243 NA 
DOCKED: ATOM      9  C   UNL     1     139.549  69.635 223.938 -0.28 -0.00    +0.013 A  
DOCKED: ATOM     10  C   UNL     1     140.557  71.261 225.392 -0.51 -0.01    +0.071 A  
DOCKED: ATOM     11  C   UNL     1     140.065  69.985 225.190 -0.44 -0.00    +0.002 A  
DOCKED: ATOM     12  C   UNL     1     141.059  71.569 226.647 -0.70 -0.00    +0.030 A  
DOCKED: ATOM     13  C   UNL     1     140.068  69.040 226.195 -0.51 -0.01    +0.030 A  
DOCKED: ATOM     14  C   UNL     1     141.071  70.637 227.667 -0.63 -0.00    +0.023 A  
DOCKED: ATOM     15  C   UNL     1     140.573  69.375 227.431 -0.58 -0.01    +0.041 A  
DOCKED: ATOM     16  Cl  UNL     1     140.584  68.183 228.722 -0.57 +0.02    -0.084 Cl 
DOCKED: ENDBRANCH   3   6
DOCKED: ENDBRANCH   1   2
DOCKED: BRANCH   1  17
DOCKED: ATOM     17  C   UNL     1     140.243  75.994 221.271 -0.21 -0.06    +0.242 C  
DOCKED: ATOM     18  O   UNL     1     141.477  75.768 221.343 -0.26 +0.11    -0.273 OA 
DOCKED: BRANCH  17  19
DOCKED: ATOM     19  N   UNL     1     139.827  77.342 221.402 -0.09 +0.09    -0.334 N  
DOCKED: ATOM     20  C   UNL     1     139.586  78.220 220.265 -0.09 -0.03    +0.120 C  
DOCKED: ATOM     21  C   UNL     1     139.601  77.969 222.721 -0.27 -0.02    +0.115 C  
DOCKED: ATOM     22  C   UNL     1     138.275  78.902 220.324 -0.06 -0.00    +0.022 C  
DOCKED: ATOM     23  C   UNL     1     138.193  78.481 222.813 -0.24 -0.00    +0.030 C  
DOCKED: ATOM     24  C   UNL     1     137.762  79.320 221.660 -0.13 -0.00    +0.004 C  
DOCKED: BRANCH  21  25
DOCKED: ATOM     25  C   UNL     1     140.643  78.965 223.010 -0.45 +0.01    -0.025 A  
DOCKED: ATOM     26  C   UNL     1     140.243  80.171 223.555 -0.45 -0.00    +0.006 A  
DOCKED: ATOM     27  C   UNL     1     141.986  78.800 222.786 -0.49 -0.00    +0.006 A  
DOCKED: ATOM     28  C   UNL     1     141.183  81.140 223.847 -0.46 -0.00    +0.000 A  
DOCKED: ATOM     29  C   UNL     1     142.932  79.775 223.079 -0.64 -0.00    +0.000 A  
DOCKED: ATOM     30  C   UNL     1     142.534  80.975 223.622 -0.65 -0.00    +0.000 A  
DOCKED: ENDBRANCH  21  25
DOCKED: ENDBRANCH  17  19
DOCKED: ENDBRANCH   1  17
DOCKED: TORSDOF 5
DOCKED: TER
DOCKED: ENDMDL
________________________________________________________________________________


    FINAL DOCKED STATE:
    ________________________


Run:   13 / 20
Time taken for this run:   0.035s

DOCKED: MODEL        13
DOCKED: USER    Run = 13
DOCKED: USER
DOCKED: USER    Estimated Free Energy of Binding    =  -9.26 kcal/mol  [=(1)+(2)+(3)-(4)]
DOCKED: USER
DOCKED: USER    (1) Final Intermolecular Energy     = -10.75 kcal/mol
DOCKED: USER        vdW + Hbond + desolv Energy     = -10.67 kcal/mol
DOCKED: USER        Electrostatic Energy            =  -0.09 kcal/mol
DOCKED: USER        Moving Ligand-Fixed Receptor    = -10.75 kcal/mol
DOCKED: USER        Moving Ligand-Moving Receptor   =  +0.00 kcal/mol
DOCKED: USER    (2) Final Total Internal Energy     =  -1.48 kcal/mol
DOCKED: USER    (3) Torsional Free Energy           =  +1.49 kcal/mol
DOCKED: USER    (4) Unbound System's Energy         =  -1.48 kcal/mol
DOCKED: USER
DOCKED: USER
DOCKED: REMARK SMILES O=C(NCC(=O)N1CCCC[C@@H]1c1ccccc1)c1ccc2cc(Cl)ccc2n1
DOCKED: REMARK SMILES IDX 4 1 3 2 2 3 1 4 19 6 20 7 29 8 21 9 28 10 22 11 27 12 23 13
DOCKED: REMARK SMILES IDX 26 14 24 15 25 16 5 17 6 18 7 19 8 20 12 21 9 22 11 23 10 24
DOCKED: REMARK SMILES IDX 13 25 14 26 18 27 15 28 17 29 16 30
DOCKED: REMARK H PARENT 3 5
DOCKED: USER                              x       y       z     vdW  Elec       q    Type
DOCKED: USER                           _______ _______ _______ _____ _____    ______ ____
DOCKED: ROOT
DOCKED: ATOM      1  C   UNL     1     139.089  74.686 220.957 -0.13 -0.05    +0.216 C  
DOCKED: ENDROOT
DOCKED: BRANCH   1   2
DOCKED: ATOM      2  N   UNL     1     139.093  73.794 222.107 -0.10 +0.09    -0.342 N  
DOCKED: ATOM      3  C   UNL     1     139.862  72.602 221.979 -0.19 -0.04    +0.270 C  
DOCKED: ATOM      4  O   UNL     1     140.486  72.379 220.903 -0.10 +0.04    -0.268 OA 
DOCKED: ATOM      5  H   UNL     1     138.570  73.996 222.988 -0.55 -0.11    +0.164 HD 
DOCKED: BRANCH   3   6
DOCKED: ATOM      6  C   UNL     1     139.925  71.648 223.080 -0.29 -0.02    +0.128 A  
DOCKED: ATOM      7  C   UNL     1     139.488  70.367 222.930 -0.23 -0.01    +0.035 A  
DOCKED: ATOM      8  N   UNL     1     140.423  72.015 224.289 -0.20 +0.04    -0.243 NA 
DOCKED: ATOM      9  C   UNL     1     139.519  69.412 223.929 -0.26 -0.00    +0.013 A  
DOCKED: ATOM     10  C   UNL     1     140.482  71.123 225.316 -0.51 -0.01    +0.071 A  
DOCKED: ATOM     11  C   UNL     1     140.039  69.823 225.161 -0.43 -0.00    +0.002 A  
DOCKED: ATOM     12  C   UNL     1     140.989  71.491 226.552 -0.69 -0.00    +0.030 A  
DOCKED: ATOM     13  C   UNL     1     140.093  68.911 226.196 -0.52 -0.01    +0.030 A  
DOCKED: ATOM     14  C   UNL     1     141.053  70.593 227.600 -0.62 -0.00    +0.023 A  
DOCKED: ATOM     15  C   UNL     1     140.602  69.305 227.412 -0.58 -0.01    +0.041 A  
DOCKED: ATOM     16  Cl  UNL     1     140.680  68.157 228.740 -0.60 +0.02    -0.084 Cl 
DOCKED: ENDBRANCH   3   6
DOCKED: ENDBRANCH   1   2
DOCKED: BRANCH   1  17
DOCKED: ATOM     17  C   UNL     1     139.241  76.093 221.340 -0.17 -0.06    +0.242 C  
DOCKED: ATOM     18  O   UNL     1     138.362  76.726 221.977 -0.16 +0.06    -0.273 OA 
DOCKED: BRANCH  17  19
DOCKED: ATOM     19  N   UNL     1     140.419  76.798 220.993 -0.09 +0.11    -0.334 N  
DOCKED: ATOM     20  C   UNL     1     141.715  76.156 220.817 -0.17 -0.06    +0.120 C  
DOCKED: ATOM     21  C   UNL     1     140.424  78.260 220.780 -0.18 -0.04    +0.115 C  
DOCKED: ATOM     22  C   UNL     1     142.374  76.516 219.544 -0.32 -0.01    +0.022 C  
DOCKED: ATOM     23  C   UNL     1     140.922  78.577 219.399 -0.18 -0.01    +0.030 C  
DOCKED: ATOM     24  C   UNL     1     142.200  77.905 219.031 -0.30 -0.00    +0.004 C  
DOCKED: BRANCH  21  25
DOCKED: ATOM     25  C   UNL     1     141.139  78.944 221.868 -0.37 +0.01    -0.025 A  
DOCKED: ATOM     26  C   UNL     1     141.855  80.082 221.549 -0.43 -0.00    +0.006 A  
DOCKED: ATOM     27  C   UNL     1     141.155  78.548 223.181 -0.53 -0.00    +0.006 A  
DOCKED: ATOM     28  C   UNL     1     142.543  80.763 222.534 -0.56 -0.00    +0.000 A  
DOCKED: ATOM     29  C   UNL     1     141.847  79.232 224.174 -0.56 -0.00    +0.000 A  
DOCKED: ATOM     30  C   UNL     1     142.560  80.366 223.856 -0.67 -0.00    +0.000 A  
DOCKED: ENDBRANCH  21  25
DOCKED: ENDBRANCH  17  19
DOCKED: ENDBRANCH   1  17
DOCKED: TORSDOF 5
DOCKED: TER
DOCKED: ENDMDL
________________________________________________________________________________


    FINAL DOCKED STATE:
    ________________________


Run:   14 / 20
Time taken for this run:   0.035s

DOCKED: MODEL        14
DOCKED: USER    Run = 14
DOCKED: USER
DOCKED: USER    Estimated Free Energy of Binding    =  -9.16 kcal/mol  [=(1)+(2)+(3)-(4)]
DOCKED: USER
DOCKED: USER    (1) Final Intermolecular Energy     = -10.65 kcal/mol
DOCKED: USER        vdW + Hbond + desolv Energy     = -10.61 kcal/mol
DOCKED: USER        Electrostatic Energy            =  -0.04 kcal/mol
DOCKED: USER        Moving Ligand-Fixed Receptor    = -10.65 kcal/mol
DOCKED: USER        Moving Ligand-Moving Receptor   =  +0.00 kcal/mol
DOCKED: USER    (2) Final Total Internal Energy     =  -1.58 kcal/mol
DOCKED: USER    (3) Torsional Free Energy           =  +1.49 kcal/mol
DOCKED: USER    (4) Unbound System's Energy         =  -1.58 kcal/mol
DOCKED: USER
DOCKED: USER
DOCKED: REMARK SMILES O=C(NCC(=O)N1CCCC[C@@H]1c1ccccc1)c1ccc2cc(Cl)ccc2n1
DOCKED: REMARK SMILES IDX 4 1 3 2 2 3 1 4 19 6 20 7 29 8 21 9 28 10 22 11 27 12 23 13
DOCKED: REMARK SMILES IDX 26 14 24 15 25 16 5 17 6 18 7 19 8 20 12 21 9 22 11 23 10 24
DOCKED: REMARK SMILES IDX 13 25 14 26 18 27 15 28 17 29 16 30
DOCKED: REMARK H PARENT 3 5
DOCKED: USER                              x       y       z     vdW  Elec       q    Type
DOCKED: USER                           _______ _______ _______ _____ _____    ______ ____
DOCKED: ROOT
DOCKED: ATOM      1  C   UNL     1     138.750  74.567 220.973 -0.11 -0.05    +0.216 C  
DOCKED: ENDROOT
DOCKED: BRANCH   1   2
DOCKED: ATOM      2  N   UNL     1     139.027  73.755 222.149 -0.08 +0.09    -0.342 N  
DOCKED: ATOM      3  C   UNL     1     139.088  72.347 221.944 -0.14 -0.06    +0.270 C  
DOCKED: ATOM      4  O   UNL     1     138.903  71.880 220.785 -0.04 +0.05    -0.268 OA 
DOCKED: ATOM      5  H   UNL     1     139.176  74.160 223.100 -0.55 -0.07    +0.164 HD 
DOCKED: BRANCH   3   6
DOCKED: ATOM      6  C   UNL     1     139.360  71.454 223.064 -0.26 -0.03    +0.128 A  
DOCKED: ATOM      7  C   UNL     1     139.028  70.134 223.012 -0.22 -0.01    +0.035 A  
DOCKED: ATOM      8  N   UNL     1     139.954  71.918 224.194 -0.21 +0.05    -0.243 NA 
DOCKED: ATOM      9  C   UNL     1     139.256  69.233 224.034 -0.30 -0.00    +0.013 A  
DOCKED: ATOM     10  C   UNL     1     140.207  71.083 225.238 -0.48 -0.01    +0.071 A  
DOCKED: ATOM     11  C   UNL     1     139.870  69.743 225.183 -0.42 -0.00    +0.002 A  
DOCKED: ATOM     12  C   UNL     1     140.813  71.549 226.394 -0.66 -0.00    +0.030 A  
DOCKED: ATOM     13  C   UNL     1     140.122  68.888 226.236 -0.52 -0.01    +0.030 A  
DOCKED: ATOM     14  C   UNL     1     141.075  70.710 227.460 -0.63 -0.00    +0.023 A  
DOCKED: ATOM     15  C   UNL     1     140.725  69.380 227.371 -0.57 -0.01    +0.041 A  
DOCKED: ATOM     16  Cl  UNL     1     141.054  68.305 228.722 -0.70 +0.02    -0.084 Cl 
DOCKED: ENDBRANCH   3   6
DOCKED: ENDBRANCH   1   2
DOCKED: BRANCH   1  17
DOCKED: ATOM     17  C   UNL     1     139.076  75.981 221.181 -0.14 -0.06    +0.242 C  
DOCKED: ATOM     18  O   UNL     1     138.216  76.840 221.501 -0.10 +0.06    -0.273 OA 
DOCKED: BRANCH  17  19
DOCKED: ATOM     19  N   UNL     1     140.409  76.432 221.023 -0.10 +0.10    -0.334 N  
DOCKED: ATOM     20  C   UNL     1     141.572  75.583 221.237 -0.18 -0.05    +0.120 C  
DOCKED: ATOM     21  C   UNL     1     140.726  77.819 220.623 -0.20 -0.05    +0.115 C  
DOCKED: ATOM     22  C   UNL     1     142.532  75.617 220.112 -0.31 -0.01    +0.022 C  
DOCKED: ATOM     23  C   UNL     1     141.544  77.816 219.363 -0.23 -0.02    +0.030 C  
DOCKED: ATOM     24  C   UNL     1     142.724  76.908 219.392 -0.35 -0.00    +0.004 C  
DOCKED: BRANCH  21  25
DOCKED: ATOM     25  C   UNL     1     141.317  78.564 221.744 -0.38 +0.01    -0.025 A  
DOCKED: ATOM     26  C   UNL     1     142.020  79.717 221.448 -0.40 -0.00    +0.006 A  
DOCKED: ATOM     27  C   UNL     1     141.229  78.212 223.066 -0.52 -0.00    +0.006 A  
DOCKED: ATOM     28  C   UNL     1     142.594  80.454 222.465 -0.59 -0.00    +0.000 A  
DOCKED: ATOM     29  C   UNL     1     141.806  78.954 224.091 -0.59 -0.00    +0.000 A  
DOCKED: ATOM     30  C   UNL     1     142.506  80.101 223.796 -0.65 -0.00    +0.000 A  
DOCKED: ENDBRANCH  21  25
DOCKED: ENDBRANCH  17  19
DOCKED: ENDBRANCH   1  17
DOCKED: TORSDOF 5
DOCKED: TER
DOCKED: ENDMDL
________________________________________________________________________________


    FINAL DOCKED STATE:
    ________________________


Run:   15 / 20
Time taken for this run:   0.035s

DOCKED: MODEL        15
DOCKED: USER    Run = 15
DOCKED: USER
DOCKED: USER    Estimated Free Energy of Binding    =  -9.08 kcal/mol  [=(1)+(2)+(3)-(4)]
DOCKED: USER
DOCKED: USER    (1) Final Intermolecular Energy     = -10.57 kcal/mol
DOCKED: USER        vdW + Hbond + desolv Energy     = -10.56 kcal/mol
DOCKED: USER        Electrostatic Energy            =  -0.01 kcal/mol
DOCKED: USER        Moving Ligand-Fixed Receptor    = -10.57 kcal/mol
DOCKED: USER        Moving Ligand-Moving Receptor   =  +0.00 kcal/mol
DOCKED: USER    (2) Final Total Internal Energy     =  -1.43 kcal/mol
DOCKED: USER    (3) Torsional Free Energy           =  +1.49 kcal/mol
DOCKED: USER    (4) Unbound System's Energy         =  -1.43 kcal/mol
DOCKED: USER
DOCKED: USER
DOCKED: REMARK SMILES O=C(NCC(=O)N1CCCC[C@@H]1c1ccccc1)c1ccc2cc(Cl)ccc2n1
DOCKED: REMARK SMILES IDX 4 1 3 2 2 3 1 4 19 6 20 7 29 8 21 9 28 10 22 11 27 12 23 13
DOCKED: REMARK SMILES IDX 26 14 24 15 25 16 5 17 6 18 7 19 8 20 12 21 9 22 11 23 10 24
DOCKED: REMARK SMILES IDX 13 25 14 26 18 27 15 28 17 29 16 30
DOCKED: REMARK H PARENT 3 5
DOCKED: USER                              x       y       z     vdW  Elec       q    Type
DOCKED: USER                           _______ _______ _______ _____ _____    ______ ____
DOCKED: ROOT
DOCKED: ATOM      1  C   UNL     1     139.732  75.093 220.966 -0.16 -0.05    +0.216 C  
DOCKED: ENDROOT
DOCKED: BRANCH   1   2
DOCKED: ATOM      2  N   UNL     1     139.731  74.227 222.136 -0.10 +0.04    -0.342 N  
DOCKED: ATOM      3  C   UNL     1     139.994  72.847 221.901 -0.19 -0.04    +0.270 C  
DOCKED: ATOM      4  O   UNL     1     140.208  72.448 220.721 -0.08 +0.04    -0.268 OA 
DOCKED: ATOM      5  H   UNL     1     139.551  74.575 223.103 -0.52 -0.01    +0.164 HD 
DOCKED: BRANCH   3   6
DOCKED: ATOM      6  C   UNL     1     140.012  71.904 223.013 -0.29 -0.02    +0.128 A  
DOCKED: ATOM      7  C   UNL     1     139.529  70.639 222.874 -0.25 -0.01    +0.035 A  
DOCKED: ATOM      8  N   UNL     1     140.516  72.266 224.221 -0.07 +0.03    -0.243 NA 
DOCKED: ATOM      9  C   UNL     1     139.516  69.696 223.884 -0.28 -0.00    +0.013 A  
DOCKED: ATOM     10  C   UNL     1     140.533  71.384 225.258 -0.50 -0.01    +0.071 A  
DOCKED: ATOM     11  C   UNL     1     140.042  70.100 225.115 -0.44 -0.00    +0.002 A  
DOCKED: ATOM     12  C   UNL     1     141.045  71.746 226.494 -0.69 -0.00    +0.030 A  
DOCKED: ATOM     13  C   UNL     1     140.054  69.199 226.160 -0.49 -0.01    +0.030 A  
DOCKED: ATOM     14  C   UNL     1     141.068  70.860 227.553 -0.66 -0.00    +0.023 A  
DOCKED: ATOM     15  C   UNL     1     140.569  69.588 227.376 -0.57 -0.01    +0.041 A  
DOCKED: ATOM     16  Cl  UNL     1     140.594  68.453 228.717 -0.68 +0.02    -0.084 Cl 
DOCKED: ENDBRANCH   3   6
DOCKED: ENDBRANCH   1   2
DOCKED: BRANCH   1  17
DOCKED: ATOM     17  C   UNL     1     141.085  75.361 220.470 -0.16 -0.08    +0.242 C  
DOCKED: ATOM     18  O   UNL     1     141.936  74.454 220.282 -0.15 +0.08    -0.273 OA 
DOCKED: BRANCH  17  19
DOCKED: ATOM     19  N   UNL     1     141.485  76.688 220.180 -0.10 +0.16    -0.334 N  
DOCKED: ATOM     20  C   UNL     1     142.748  77.022 219.536 -0.26 -0.08    +0.120 C  
DOCKED: ATOM     21  C   UNL     1     140.638  77.853 220.513 -0.18 -0.04    +0.115 C  
DOCKED: ATOM     22  C   UNL     1     142.589  77.925 218.377 -0.32 -0.02    +0.022 C  
DOCKED: ATOM     23  C   UNL     1     140.339  78.642 219.271 -0.11 -0.01    +0.030 C  
DOCKED: ATOM     24  C   UNL     1     141.533  78.976 218.445 -0.23 -0.00    +0.004 C  
DOCKED: BRANCH  21  25
DOCKED: ATOM     25  C   UNL     1     141.228  78.629 221.614 -0.35 +0.01    -0.025 A  
DOCKED: ATOM     26  C   UNL     1     141.226  78.058 222.873 -0.48 -0.00    +0.006 A  
DOCKED: ATOM     27  C   UNL     1     141.782  79.877 221.499 -0.42 -0.00    +0.006 A  
DOCKED: ATOM     28  C   UNL     1     141.769  78.745 223.941 -0.60 -0.00    +0.000 A  
DOCKED: ATOM     29  C   UNL     1     142.328  80.570 222.573 -0.58 -0.00    +0.000 A  
DOCKED: ATOM     30  C   UNL     1     142.328  80.001 223.827 -0.64 -0.00    +0.000 A  
DOCKED: ENDBRANCH  21  25
DOCKED: ENDBRANCH  17  19
DOCKED: ENDBRANCH   1  17
DOCKED: TORSDOF 5
DOCKED: TER
DOCKED: ENDMDL
________________________________________________________________________________


    FINAL DOCKED STATE:
    ________________________


Run:   16 / 20
Time taken for this run:   0.035s

DOCKED: MODEL        16
DOCKED: USER    Run = 16
DOCKED: USER
DOCKED: USER    Estimated Free Energy of Binding    =  -8.28 kcal/mol  [=(1)+(2)+(3)-(4)]
DOCKED: USER
DOCKED: USER    (1) Final Intermolecular Energy     =  -9.77 kcal/mol
DOCKED: USER        vdW + Hbond + desolv Energy     =  -9.73 kcal/mol
DOCKED: USER        Electrostatic Energy            =  -0.04 kcal/mol
DOCKED: USER        Moving Ligand-Fixed Receptor    =  -9.77 kcal/mol
DOCKED: USER        Moving Ligand-Moving Receptor   =  +0.00 kcal/mol
DOCKED: USER    (2) Final Total Internal Energy     =  -1.65 kcal/mol
DOCKED: USER    (3) Torsional Free Energy           =  +1.49 kcal/mol
DOCKED: USER    (4) Unbound System's Energy         =  -1.65 kcal/mol
DOCKED: USER
DOCKED: USER
DOCKED: REMARK SMILES O=C(NCC(=O)N1CCCC[C@@H]1c1ccccc1)c1ccc2cc(Cl)ccc2n1
DOCKED: REMARK SMILES IDX 4 1 3 2 2 3 1 4 19 6 20 7 29 8 21 9 28 10 22 11 27 12 23 13
DOCKED: REMARK SMILES IDX 26 14 24 15 25 16 5 17 6 18 7 19 8 20 12 21 9 22 11 23 10 24
DOCKED: REMARK SMILES IDX 13 25 14 26 18 27 15 28 17 29 16 30
DOCKED: REMARK H PARENT 3 5
DOCKED: USER                              x       y       z     vdW  Elec       q    Type
DOCKED: USER                           _______ _______ _______ _____ _____    ______ ____
DOCKED: ROOT
DOCKED: ATOM      1  C   UNL     1     135.648  69.098 224.695 -0.10 -0.01    +0.216 C  
DOCKED: ENDROOT
DOCKED: BRANCH   1   2
DOCKED: ATOM      2  N   UNL     1     135.144  70.417 225.049 -0.08 +0.03    -0.342 N  
DOCKED: ATOM      3  C   UNL     1     134.083  70.454 225.999 -0.20 -0.02    +0.270 C  
DOCKED: ATOM      4  O   UNL     1     133.640  69.371 226.476 -0.73 -0.01    -0.268 OA 
DOCKED: ATOM      5  H   UNL     1     135.523  71.301 224.642 +0.05 -0.02    +0.164 HD 
DOCKED: BRANCH   3   6
DOCKED: ATOM      6  C   UNL     1     133.514  71.731 226.414 -0.31 -0.01    +0.128 A  
DOCKED: ATOM      7  C   UNL     1     132.369  71.788 227.148 -0.36 -0.01    +0.035 A  
DOCKED: ATOM      8  N   UNL     1     134.116  72.901 226.076 -0.37 -0.01    -0.243 NA 
DOCKED: ATOM      9  C   UNL     1     131.776  72.962 227.575 -0.41 -0.00    +0.013 A  
DOCKED: ATOM     10  C   UNL     1     133.584  74.092 226.465 -0.26 +0.01    +0.071 A  
DOCKED: ATOM     11  C   UNL     1     132.421  74.148 227.211 -0.42 -0.00    +0.002 A  
DOCKED: ATOM     12  C   UNL     1     134.191  75.290 226.125 -0.40 +0.00    +0.030 A  
DOCKED: ATOM     13  C   UNL     1     131.873  75.351 227.609 -0.38 -0.00    +0.030 A  
DOCKED: ATOM     14  C   UNL     1     133.660  76.504 226.514 -0.35 -0.00    +0.023 A  
DOCKED: ATOM     15  C   UNL     1     132.500  76.524 227.256 -0.34 -0.00    +0.041 A  
DOCKED: ATOM     16  Cl  UNL     1     131.816  78.064 227.756 -0.34 -0.00    -0.084 Cl 
DOCKED: ENDBRANCH   3   6
DOCKED: ENDBRANCH   1   2
DOCKED: BRANCH   1  17
DOCKED: ATOM     17  C   UNL     1     136.451  69.117 223.469 -0.11 -0.02    +0.242 C  
DOCKED: ATOM     18  O   UNL     1     135.972  68.866 222.335 -0.07 +0.04    -0.273 OA 
DOCKED: BRANCH  17  19
DOCKED: ATOM     19  N   UNL     1     137.831  69.427 223.531 -0.09 +0.04    -0.334 N  
DOCKED: ATOM     20  C   UNL     1     138.806  68.941 222.564 -0.17 -0.02    +0.120 C  
DOCKED: ATOM     21  C   UNL     1     138.397  70.282 224.596 -0.27 -0.02    +0.115 C  
DOCKED: ATOM     22  C   UNL     1     139.656  70.013 222.004 -0.13 -0.00    +0.022 C  
DOCKED: ATOM     23  C   UNL     1     139.090  71.468 223.989 -0.22 -0.01    +0.030 C  
DOCKED: ATOM     24  C   UNL     1     140.054  71.134 222.903 -0.30 -0.00    +0.004 C  
DOCKED: BRANCH  21  25
DOCKED: ATOM     25  C   UNL     1     139.220  69.488 225.520 -0.41 +0.00    -0.025 A  
DOCKED: ATOM     26  C   UNL     1     140.077  70.171 226.363 -0.53 -0.00    +0.006 A  
DOCKED: ATOM     27  C   UNL     1     139.211  68.120 225.619 -0.51 -0.00    +0.006 A  
DOCKED: ATOM     28  C   UNL     1     140.871  69.472 227.251 -0.59 -0.00    +0.000 A  
DOCKED: ATOM     29  C   UNL     1     140.010  67.416 226.512 -0.67 -0.00    +0.000 A  
DOCKED: ATOM     30  C   UNL     1     140.862  68.096 227.352 -0.67 -0.00    +0.000 A  
DOCKED: ENDBRANCH  21  25
DOCKED: ENDBRANCH  17  19
DOCKED: ENDBRANCH   1  17
DOCKED: TORSDOF 5
DOCKED: TER
DOCKED: ENDMDL
________________________________________________________________________________


    FINAL DOCKED STATE:
    ________________________


Run:   17 / 20
Time taken for this run:   0.035s

DOCKED: MODEL        17
DOCKED: USER    Run = 17
DOCKED: USER
DOCKED: USER    Estimated Free Energy of Binding    =  -8.74 kcal/mol  [=(1)+(2)+(3)-(4)]
DOCKED: USER
DOCKED: USER    (1) Final Intermolecular Energy     = -10.23 kcal/mol
DOCKED: USER        vdW + Hbond + desolv Energy     = -10.15 kcal/mol
DOCKED: USER        Electrostatic Energy            =  -0.08 kcal/mol
DOCKED: USER        Moving Ligand-Fixed Receptor    = -10.23 kcal/mol
DOCKED: USER        Moving Ligand-Moving Receptor   =  +0.00 kcal/mol
DOCKED: USER    (2) Final Total Internal Energy     =  -1.56 kcal/mol
DOCKED: USER    (3) Torsional Free Energy           =  +1.49 kcal/mol
DOCKED: USER    (4) Unbound System's Energy         =  -1.56 kcal/mol
DOCKED: USER
DOCKED: USER
DOCKED: REMARK SMILES O=C(NCC(=O)N1CCCC[C@@H]1c1ccccc1)c1ccc2cc(Cl)ccc2n1
DOCKED: REMARK SMILES IDX 4 1 3 2 2 3 1 4 19 6 20 7 29 8 21 9 28 10 22 11 27 12 23 13
DOCKED: REMARK SMILES IDX 26 14 24 15 25 16 5 17 6 18 7 19 8 20 12 21 9 22 11 23 10 24
DOCKED: REMARK SMILES IDX 13 25 14 26 18 27 15 28 17 29 16 30
DOCKED: REMARK H PARENT 3 5
DOCKED: USER                              x       y       z     vdW  Elec       q    Type
DOCKED: USER                           _______ _______ _______ _____ _____    ______ ____
DOCKED: ROOT
DOCKED: ATOM      1  C   UNL     1     138.814  72.276 221.878 -0.13 -0.05    +0.216 C  
DOCKED: ENDROOT
DOCKED: BRANCH   1   2
DOCKED: ATOM      2  N   UNL     1     139.168  73.680 222.033 -0.12 +0.08    -0.342 N  
DOCKED: ATOM      3  C   UNL     1     140.203  74.168 221.185 -0.17 -0.05    +0.270 C  
DOCKED: ATOM      4  O   UNL     1     140.753  73.382 220.362 -0.09 +0.05    -0.268 OA 
DOCKED: ATOM      5  H   UNL     1     138.703  74.314 222.720 -0.56 -0.07    +0.164 HD 
DOCKED: BRANCH   3   6
DOCKED: ATOM      6  C   UNL     1     140.625  75.561 221.269 -0.26 -0.03    +0.128 A  
DOCKED: ATOM      7  C   UNL     1     141.589  76.058 220.444 -0.27 -0.02    +0.035 A  
DOCKED: ATOM      8  N   UNL     1     140.064  76.402 222.175 -0.27 +0.06    -0.243 NA 
DOCKED: ATOM      9  C   UNL     1     142.035  77.365 220.469 -0.28 -0.01    +0.013 A  
DOCKED: ATOM     10  C   UNL     1     140.459  77.703 222.252 -0.36 -0.02    +0.071 A  
DOCKED: ATOM     11  C   UNL     1     141.437  78.206 221.413 -0.37 -0.00    +0.002 A  
DOCKED: ATOM     12  C   UNL     1     139.891  78.568 223.174 -0.32 -0.01    +0.030 A  
DOCKED: ATOM     13  C   UNL     1     141.845  79.522 221.483 -0.40 -0.01    +0.030 A  
DOCKED: ATOM     14  C   UNL     1     140.284  79.889 223.260 -0.43 -0.00    +0.023 A  
DOCKED: ATOM     15  C   UNL     1     141.262  80.357 222.410 -0.43 -0.01    +0.041 A  
DOCKED: ATOM     16  Cl  UNL     1     141.769  82.037 222.512 -0.27 +0.01    -0.084 Cl 
DOCKED: ENDBRANCH   3   6
DOCKED: ENDBRANCH   1   2
DOCKED: BRANCH   1  17
DOCKED: ATOM     17  C   UNL     1     139.709  71.389 222.627 -0.20 -0.04    +0.242 C  
DOCKED: ATOM     18  O   UNL     1     140.880  71.126 222.253 -0.08 +0.03    -0.273 OA 
DOCKED: BRANCH  17  19
DOCKED: ATOM     19  N   UNL     1     139.266  70.785 223.829 -0.15 +0.07    -0.334 N  
DOCKED: ATOM     20  C   UNL     1     137.913  70.933 224.348 -0.09 -0.03    +0.120 C  
DOCKED: ATOM     21  C   UNL     1     140.154  69.946 224.659 -0.28 -0.02    +0.115 C  
DOCKED: ATOM     22  C   UNL     1     137.277  69.643 224.690 -0.27 -0.00    +0.022 C  
DOCKED: ATOM     23  C   UNL     1     139.561  68.576 224.824 -0.31 -0.00    +0.030 C  
DOCKED: ATOM     24  C   UNL     1     138.136  68.565 225.257 -0.21 -0.00    +0.004 C  
DOCKED: BRANCH  21  25
DOCKED: ATOM     25  C   UNL     1     140.494  70.630 225.916 -0.55 +0.00    -0.025 A  
DOCKED: ATOM     26  C   UNL     1     140.163  69.996 227.100 -0.57 -0.00    +0.006 A  
DOCKED: ATOM     27  C   UNL     1     141.114  71.848 226.015 -0.61 -0.00    +0.006 A  
DOCKED: ATOM     28  C   UNL     1     140.461  70.596 228.308 -0.61 -0.00    +0.000 A  
DOCKED: ATOM     29  C   UNL     1     141.414  72.453 227.231 -0.77 -0.00    +0.000 A  
DOCKED: ATOM     30  C   UNL     1     141.086  71.822 228.409 -0.71 -0.00    +0.000 A  
DOCKED: ENDBRANCH  21  25
DOCKED: ENDBRANCH  17  19
DOCKED: ENDBRANCH   1  17
DOCKED: TORSDOF 5
DOCKED: TER
DOCKED: ENDMDL
________________________________________________________________________________


    FINAL DOCKED STATE:
    ________________________


Run:   18 / 20
Time taken for this run:   0.035s

DOCKED: MODEL        18
DOCKED: USER    Run = 18
DOCKED: USER
DOCKED: USER    Estimated Free Energy of Binding    =  -9.32 kcal/mol  [=(1)+(2)+(3)-(4)]
DOCKED: USER
DOCKED: USER    (1) Final Intermolecular Energy     = -10.81 kcal/mol
DOCKED: USER        vdW + Hbond + desolv Energy     = -10.73 kcal/mol
DOCKED: USER        Electrostatic Energy            =  -0.07 kcal/mol
DOCKED: USER        Moving Ligand-Fixed Receptor    = -10.81 kcal/mol
DOCKED: USER        Moving Ligand-Moving Receptor   =  +0.00 kcal/mol
DOCKED: USER    (2) Final Total Internal Energy     =  -1.54 kcal/mol
DOCKED: USER    (3) Torsional Free Energy           =  +1.49 kcal/mol
DOCKED: USER    (4) Unbound System's Energy         =  -1.54 kcal/mol
DOCKED: USER
DOCKED: USER
DOCKED: REMARK SMILES O=C(NCC(=O)N1CCCC[C@@H]1c1ccccc1)c1ccc2cc(Cl)ccc2n1
DOCKED: REMARK SMILES IDX 4 1 3 2 2 3 1 4 19 6 20 7 29 8 21 9 28 10 22 11 27 12 23 13
DOCKED: REMARK SMILES IDX 26 14 24 15 25 16 5 17 6 18 7 19 8 20 12 21 9 22 11 23 10 24
DOCKED: REMARK SMILES IDX 13 25 14 26 18 27 15 28 17 29 16 30
DOCKED: REMARK H PARENT 3 5
DOCKED: USER                              x       y       z     vdW  Elec       q    Type
DOCKED: USER                           _______ _______ _______ _____ _____    ______ ____
DOCKED: ROOT
DOCKED: ATOM      1  C   UNL     1     138.631  74.614 220.936 -0.11 -0.05    +0.216 C  
DOCKED: ENDROOT
DOCKED: BRANCH   1   2
DOCKED: ATOM      2  N   UNL     1     138.699  73.709 222.074 -0.07 +0.10    -0.342 N  
DOCKED: ATOM      3  C   UNL     1     139.649  72.652 221.985 -0.18 -0.05    +0.270 C  
DOCKED: ATOM      4  O   UNL     1     140.369  72.550 220.951 -0.11 +0.04    -0.268 OA 
DOCKED: ATOM      5  H   UNL     1     138.095  73.809 222.920 -0.53 -0.11    +0.164 HD 
DOCKED: BRANCH   3   6
DOCKED: ATOM      6  C   UNL     1     139.787  71.696 223.077 -0.29 -0.02    +0.128 A  
DOCKED: ATOM      7  C   UNL     1     139.408  70.396 222.930 -0.23 -0.01    +0.035 A  
DOCKED: ATOM      8  N   UNL     1     140.301  72.079 224.274 -0.17 +0.04    -0.243 NA 
DOCKED: ATOM      9  C   UNL     1     139.512  69.439 223.921 -0.26 -0.00    +0.013 A  
DOCKED: ATOM     10  C   UNL     1     140.430  71.185 225.293 -0.50 -0.01    +0.071 A  
DOCKED: ATOM     11  C   UNL     1     140.045  69.866 225.141 -0.43 -0.00    +0.002 A  
DOCKED: ATOM     12  C   UNL     1     140.953  71.569 226.517 -0.68 -0.00    +0.030 A  
DOCKED: ATOM     13  C   UNL     1     140.170  68.952 226.168 -0.51 -0.01    +0.030 A  
DOCKED: ATOM     14  C   UNL     1     141.088  70.670 227.557 -0.62 -0.00    +0.023 A  
DOCKED: ATOM     15  C   UNL     1     140.693  69.363 227.373 -0.57 -0.01    +0.041 A  
DOCKED: ATOM     16  Cl  UNL     1     140.862  68.212 228.690 -0.68 +0.02    -0.084 Cl 
DOCKED: ENDBRANCH   3   6
DOCKED: ENDBRANCH   1   2
DOCKED: BRANCH   1  17
DOCKED: ATOM     17  C   UNL     1     138.997  75.988 221.292 -0.15 -0.05    +0.242 C  
DOCKED: ATOM     18  O   UNL     1     138.181  76.804 221.790 -0.13 +0.06    -0.273 OA 
DOCKED: BRANCH  17  19
DOCKED: ATOM     19  N   UNL     1     140.320  76.448 221.080 -0.11 +0.10    -0.334 N  
DOCKED: ATOM     20  C   UNL     1     141.496  75.606 221.247 -0.22 -0.05    +0.120 C  
DOCKED: ATOM     21  C   UNL     1     140.611  77.836 220.667 -0.19 -0.04    +0.115 C  
DOCKED: ATOM     22  C   UNL     1     142.409  75.645 220.085 -0.31 -0.01    +0.022 C  
DOCKED: ATOM     23  C   UNL     1     141.378  77.838 219.376 -0.22 -0.01    +0.030 C  
DOCKED: ATOM     24  C   UNL     1     142.564  76.937 219.357 -0.35 -0.00    +0.004 C  
DOCKED: BRANCH  21  25
DOCKED: ATOM     25  C   UNL     1     141.242  78.585 221.764 -0.37 +0.01    -0.025 A  
DOCKED: ATOM     26  C   UNL     1     141.953  79.724 221.435 -0.40 -0.00    +0.006 A  
DOCKED: ATOM     27  C   UNL     1     141.185  78.250 223.092 -0.52 -0.00    +0.006 A  
DOCKED: ATOM     28  C   UNL     1     142.565  80.465 222.428 -0.58 -0.00    +0.000 A  
DOCKED: ATOM     29  C   UNL     1     141.800  78.995 224.092 -0.59 -0.00    +0.000 A  
DOCKED: ATOM     30  C   UNL     1     142.507  80.129 223.765 -0.65 -0.00    +0.000 A  
DOCKED: ENDBRANCH  21  25
DOCKED: ENDBRANCH  17  19
DOCKED: ENDBRANCH   1  17
DOCKED: TORSDOF 5
DOCKED: TER
DOCKED: ENDMDL
________________________________________________________________________________


    FINAL DOCKED STATE:
    ________________________


Run:   19 / 20
Time taken for this run:   0.035s

DOCKED: MODEL        19
DOCKED: USER    Run = 19
DOCKED: USER
DOCKED: USER    Estimated Free Energy of Binding    =  -9.11 kcal/mol  [=(1)+(2)+(3)-(4)]
DOCKED: USER
DOCKED: USER    (1) Final Intermolecular Energy     = -10.60 kcal/mol
DOCKED: USER        vdW + Hbond + desolv Energy     = -10.60 kcal/mol
DOCKED: USER        Electrostatic Energy            =  -0.01 kcal/mol
DOCKED: USER        Moving Ligand-Fixed Receptor    = -10.60 kcal/mol
DOCKED: USER        Moving Ligand-Moving Receptor   =  +0.00 kcal/mol
DOCKED: USER    (2) Final Total Internal Energy     =  -1.41 kcal/mol
DOCKED: USER    (3) Torsional Free Energy           =  +1.49 kcal/mol
DOCKED: USER    (4) Unbound System's Energy         =  -1.41 kcal/mol
DOCKED: USER
DOCKED: USER
DOCKED: REMARK SMILES O=C(NCC(=O)N1CCCC[C@@H]1c1ccccc1)c1ccc2cc(Cl)ccc2n1
DOCKED: REMARK SMILES IDX 4 1 3 2 2 3 1 4 19 6 20 7 29 8 21 9 28 10 22 11 27 12 23 13
DOCKED: REMARK SMILES IDX 26 14 24 15 25 16 5 17 6 18 7 19 8 20 12 21 9 22 11 23 10 24
DOCKED: REMARK SMILES IDX 13 25 14 26 18 27 15 28 17 29 16 30
DOCKED: REMARK H PARENT 3 5
DOCKED: USER                              x       y       z     vdW  Elec       q    Type
DOCKED: USER                           _______ _______ _______ _____ _____    ______ ____
DOCKED: ROOT
DOCKED: ATOM      1  C   UNL     1     139.780  75.046 221.008 -0.17 -0.05    +0.216 C  
DOCKED: ENDROOT
DOCKED: BRANCH   1   2
DOCKED: ATOM      2  N   UNL     1     139.756  74.168 222.169 -0.09 +0.04    -0.342 N  
DOCKED: ATOM      3  C   UNL     1     140.052  72.796 221.931 -0.19 -0.04    +0.270 C  
DOCKED: ATOM      4  O   UNL     1     140.313  72.413 220.755 -0.09 +0.04    -0.268 OA 
DOCKED: ATOM      5  H   UNL     1     139.537  74.504 223.134 -0.52 -0.01    +0.164 HD 
DOCKED: BRANCH   3   6
DOCKED: ATOM      6  C   UNL     1     140.051  71.842 223.034 -0.30 -0.02    +0.128 A  
DOCKED: ATOM      7  C   UNL     1     139.559  70.582 222.878 -0.24 -0.01    +0.035 A  
DOCKED: ATOM      8  N   UNL     1     140.543  72.190 224.251 -0.10 +0.03    -0.243 NA 
DOCKED: ATOM      9  C   UNL     1     139.529  69.630 223.879 -0.28 -0.00    +0.013 A  
DOCKED: ATOM     10  C   UNL     1     140.542  71.298 225.280 -0.50 -0.01    +0.071 A  
DOCKED: ATOM     11  C   UNL     1     140.043  70.019 225.120 -0.43 -0.00    +0.002 A  
DOCKED: ATOM     12  C   UNL     1     141.043  71.645 226.525 -0.69 -0.00    +0.030 A  
DOCKED: ATOM     13  C   UNL     1     140.037  69.108 226.156 -0.50 -0.01    +0.030 A  
DOCKED: ATOM     14  C   UNL     1     141.046  70.748 227.576 -0.64 -0.00    +0.023 A  
DOCKED: ATOM     15  C   UNL     1     140.541  69.481 227.382 -0.57 -0.01    +0.041 A  
DOCKED: ATOM     16  Cl  UNL     1     140.541  68.334 228.712 -0.62 +0.02    -0.084 Cl 
DOCKED: ENDBRANCH   3   6
DOCKED: ENDBRANCH   1   2
DOCKED: BRANCH   1  17
DOCKED: ATOM     17  C   UNL     1     141.143  75.418 220.617 -0.18 -0.08    +0.242 C  
DOCKED: ATOM     18  O   UNL     1     142.083  74.587 220.543 -0.19 +0.08    -0.273 OA 
DOCKED: BRANCH  17  19
DOCKED: ATOM     19  N   UNL     1     141.448  76.765 220.303 -0.11 +0.16    -0.334 N  
DOCKED: ATOM     20  C   UNL     1     142.609  77.161 219.518 -0.27 -0.08    +0.120 C  
DOCKED: ATOM     21  C   UNL     1     140.599  77.887 220.754 -0.19 -0.04    +0.115 C  
DOCKED: ATOM     22  C   UNL     1     142.273  78.070 218.402 -0.29 -0.02    +0.022 C  
DOCKED: ATOM     23  C   UNL     1     140.119  78.676 219.571 -0.11 -0.01    +0.030 C  
DOCKED: ATOM     24  C   UNL     1     141.190  79.072 218.613 -0.19 -0.00    +0.004 C  
DOCKED: BRANCH  21  25
DOCKED: ATOM     25  C   UNL     1     141.284  78.676 221.790 -0.38 +0.01    -0.025 A  
DOCKED: ATOM     26  C   UNL     1     141.185  78.239 223.098 -0.52 -0.00    +0.006 A  
DOCKED: ATOM     27  C   UNL     1     142.016  79.813 221.568 -0.43 -0.00    +0.006 A  
DOCKED: ATOM     28  C   UNL     1     141.810  78.944 224.108 -0.59 -0.00    +0.000 A  
DOCKED: ATOM     29  C   UNL     1     142.645  80.524 222.584 -0.60 -0.00    +0.000 A  
DOCKED: ATOM     30  C   UNL     1     142.547  80.089 223.886 -0.63 -0.00    +0.000 A  
DOCKED: ENDBRANCH  21  25
DOCKED: ENDBRANCH  17  19
DOCKED: ENDBRANCH   1  17
DOCKED: TORSDOF 5
DOCKED: TER
DOCKED: ENDMDL
________________________________________________________________________________


    FINAL DOCKED STATE:
    ________________________


Run:   20 / 20
Time taken for this run:   0.035s

DOCKED: MODEL        20
DOCKED: USER    Run = 20
DOCKED: USER
DOCKED: USER    Estimated Free Energy of Binding    =  -8.56 kcal/mol  [=(1)+(2)+(3)-(4)]
DOCKED: USER
DOCKED: USER    (1) Final Intermolecular Energy     = -10.05 kcal/mol
DOCKED: USER        vdW + Hbond + desolv Energy     =  -9.97 kcal/mol
DOCKED: USER        Electrostatic Energy            =  -0.08 kcal/mol
DOCKED: USER        Moving Ligand-Fixed Receptor    = -10.05 kcal/mol
DOCKED: USER        Moving Ligand-Moving Receptor   =  +0.00 kcal/mol
DOCKED: USER    (2) Final Total Internal Energy     =  -1.59 kcal/mol
DOCKED: USER    (3) Torsional Free Energy           =  +1.49 kcal/mol
DOCKED: USER    (4) Unbound System's Energy         =  -1.59 kcal/mol
DOCKED: USER
DOCKED: USER
DOCKED: REMARK SMILES O=C(NCC(=O)N1CCCC[C@@H]1c1ccccc1)c1ccc2cc(Cl)ccc2n1
DOCKED: REMARK SMILES IDX 4 1 3 2 2 3 1 4 19 6 20 7 29 8 21 9 28 10 22 11 27 12 23 13
DOCKED: REMARK SMILES IDX 26 14 24 15 25 16 5 17 6 18 7 19 8 20 12 21 9 22 11 23 10 24
DOCKED: REMARK SMILES IDX 13 25 14 26 18 27 15 28 17 29 16 30
DOCKED: REMARK H PARENT 3 5
DOCKED: USER                              x       y       z     vdW  Elec       q    Type
DOCKED: USER                           _______ _______ _______ _____ _____    ______ ____
DOCKED: ROOT
DOCKED: ATOM      1  C   UNL     1     139.050  72.171 221.672 -0.13 -0.04    +0.216 C  
DOCKED: ENDROOT
DOCKED: BRANCH   1   2
DOCKED: ATOM      2  N   UNL     1     139.295  73.602 221.778 -0.12 +0.07    -0.342 N  
DOCKED: ATOM      3  C   UNL     1     140.495  74.085 221.183 -0.18 -0.04    +0.270 C  
DOCKED: ATOM      4  O   UNL     1     141.273  73.271 220.608 -0.13 +0.05    -0.268 OA 
DOCKED: ATOM      5  H   UNL     1     138.640  74.259 222.259 -0.20 -0.05    +0.164 HD 
DOCKED: BRANCH   3   6
DOCKED: ATOM      6  C   UNL     1     140.824  75.504 221.240 -0.27 -0.04    +0.128 A  
DOCKED: ATOM      7  C   UNL     1     141.756  76.047 220.409 -0.27 -0.02    +0.035 A  
DOCKED: ATOM      8  N   UNL     1     140.205  76.324 222.128 -0.29 +0.06    -0.243 NA 
DOCKED: ATOM      9  C   UNL     1     142.115  77.382 220.409 -0.28 -0.01    +0.013 A  
DOCKED: ATOM     10  C   UNL     1     140.513  77.650 222.180 -0.36 -0.02    +0.071 A  
DOCKED: ATOM     11  C   UNL     1     141.459  78.199 221.335 -0.36 -0.00    +0.002 A  
DOCKED: ATOM     12  C   UNL     1     139.886  78.493 223.084 -0.34 -0.01    +0.030 A  
DOCKED: ATOM     13  C   UNL     1     141.778  79.541 221.380 -0.39 -0.01    +0.030 A  
DOCKED: ATOM     14  C   UNL     1     140.190  79.839 223.145 -0.41 -0.00    +0.023 A  
DOCKED: ATOM     15  C   UNL     1     141.138  80.354 222.288 -0.40 -0.01    +0.041 A  
DOCKED: ATOM     16  Cl  UNL     1     141.533  82.064 222.358 -0.37 +0.01    -0.084 Cl 
DOCKED: ENDBRANCH   3   6
DOCKED: ENDBRANCH   1   2
DOCKED: BRANCH   1  17
DOCKED: ATOM     17  C   UNL     1     139.856  71.395 222.619 -0.21 -0.04    +0.242 C  
DOCKED: ATOM     18  O   UNL     1     141.083  71.180 222.455 -0.03 +0.02    -0.273 OA 
DOCKED: BRANCH  17  19
DOCKED: ATOM     19  N   UNL     1     139.255  70.849 223.779 -0.15 +0.07    -0.334 N  
DOCKED: ATOM     20  C   UNL     1     137.908  71.186 224.217 -0.11 -0.03    +0.120 C  
DOCKED: ATOM     21  C   UNL     1     139.959  69.882 224.647 -0.31 -0.02    +0.115 C  
DOCKED: ATOM     22  C   UNL     1     137.072  69.998 224.495 -0.24 -0.00    +0.022 C  
DOCKED: ATOM     23  C   UNL     1     139.167  68.611 224.749 -0.38 -0.00    +0.030 C  
DOCKED: ATOM     24  C   UNL     1     137.730  68.802 225.094 -0.17 -0.00    +0.004 C  
DOCKED: BRANCH  21  25
DOCKED: ATOM     25  C   UNL     1     140.313  70.498 225.934 -0.53 +0.00    -0.025 A  
DOCKED: ATOM     26  C   UNL     1     141.078  71.649 225.906 -0.62 -0.00    +0.006 A  
DOCKED: ATOM     27  C   UNL     1     139.947  70.026 227.168 -0.57 -0.00    +0.006 A  
DOCKED: ATOM     28  C   UNL     1     141.437  72.267 227.088 -0.79 -0.00    +0.000 A  
DOCKED: ATOM     29  C   UNL     1     140.308  70.647 228.359 -0.59 -0.00    +0.000 A  
DOCKED: ATOM     30  C   UNL     1     141.069  71.793 228.330 -0.77 -0.00    +0.000 A  
DOCKED: ENDBRANCH  21  25
DOCKED: ENDBRANCH  17  19
DOCKED: ENDBRANCH   1  17
DOCKED: TORSDOF 5
DOCKED: TER
DOCKED: ENDMDL
________________________________________________________________________________


    CLUSTERING HISTOGRAM
    ____________________


________________________________________________________________________________
     |           |     |           |     |
Clus | Lowest    | Run | Mean      | Num | Histogram
-ter | Binding   |     | Binding   | in  |
Rank | Energy    |     | Energy    | Clus|    5    10   15   20   25   30   35
_____|___________|_____|___________|_____|____:____|____:____|____:____|____:___
   1 |     -9.34 |   1 |     -9.12 |  14 |##############
   2 |     -8.74 |  17 |     -8.39 |   4 |####
   3 |     -8.28 |  16 |     -8.28 |   1 |#
   4 |     -8.25 |   7 |     -8.25 |   1 |#
_____|___________|_____|___________|_____|______________________________________


    RMSD TABLE
    __________


_______________________________________________________________________
     |      |      |           |         |                 |
Rank | Sub- | Run  | Binding   | Cluster | Reference       | Grep
     | Rank |      | Energy    | RMSD    | RMSD            | Pattern
_____|______|______|___________|_________|_________________|___________
   1      1      1       -9.34      0.00    271.64           RANKING
   1      2     11       -9.34      0.11    271.65           RANKING
   1      3     18       -9.32      0.10    271.63           RANKING
   1      4      6       -9.31      0.40    271.70           RANKING
   1      5     13       -9.26      0.40    271.70           RANKING
   1      6     14       -9.16      0.49    271.58           RANKING
   1      7     10       -9.13      0.87    271.68           RANKING
   1      8     19       -9.11      0.84    271.70           RANKING
   1      9      5       -9.09      0.47    271.55           RANKING
   1     10     15       -9.08      0.85    271.64           RANKING
   1     11     12       -8.99      1.40    271.91           RANKING
   1     12      4       -8.89      0.88    271.64           RANKING
   1     13      3       -8.85      0.70    271.56           RANKING
   1     14      9       -8.79      0.70    271.62           RANKING
   2      1     17       -8.74      0.00    271.72           RANKING
   2      2      8       -8.68      0.12    271.68           RANKING
   2      3     20       -8.56      0.27    271.65           RANKING
   2      4      2       -7.59      1.93    270.78           RANKING
   3      1     16       -8.28      0.00    270.73           RANKING
   4      1      7       -8.25      0.00    270.94           RANKING

Run time 0.673 sec
Idle time 0.000 sec
