AutoDock-GPU version: v1.6

**********************************************************
**    AutoDock-GPU AUTODOCKTOOLS-COMPATIBLE DLG FILE    **
**********************************************************


    DOCKING PARAMETERS
    ________________________


Ligand file:                               /home/a/REINVENT4/ReinventStudies/pleaseWork/justmol2mol_4_Compounds_ontop/graph-dock-amy28i/graph-DockGPU/node-autodockgpu/inputs/OEKNHVPWQOLRIR-XWVGVUDUNA-N.pdbqt
Grid fld file:                             /home/a/REINVENT4/ReinventStudies/mols/Rad51/maps/rad51_receptor.maps.fld

Random seed:                               42
Number of runs:                            20
Number of energy evaluations:              1132076
Number of generations:                     42000
Size of population:                        150
Rate of crossover:                         80.000000%
Tournament selection probability limit:    60.000000%
Rate of mutation:                          2.000000%
Maximal allowed delta movement:            +/- 6.000000A
Maximal allowed delta angle:               +/- 90.000000

Rate of local search:                      100.000000%
Maximal number of local search iterations: 300
Rho lower bound:                           0.010000
Spread of local search delta movement:     2.000000A
Spread of local search delta angle:        74.999999
Limit of consecutive successes/failures:   4

Handle symmetry during clustering:         YES
RMSD tolerance:                            2.000000A

Program call in command line was:          /home/a/REINVENT4/ReinventStudies/adgpu-v1.6_linux_x64_cuda12_128wi --filelist batch.txt --heuristics 1 --nrun 20 --psize 150 --lsit 300 --seed 42 --heurmax 12000000 


    GRID PARAMETERS
    ________________________


Receptor name:                             rad51_receptor
Number of grid points (x, y, z):           53, 53, 53
Grid center (x, y, z):                     139.950000, 75.640000, 221.970000A
Grid size (x, y, z):                       19.500000, 19.500000, 19.500000A
Grid spacing:                              0.375000A


    LIGAND PARAMETERS
    ________________________


Ligand name:                               /home/a/REINVENT4/ReinventStudies/pleaseWork/justmol2mol_4_Compounds_ontop/graph-dock-amy28i/graph-DockGPU/node-autodockgpu/inputs/OEKNHVPWQOLRIR-XWVGVUDUNA-N
Number of atoms:                           27
Number of rotatable bonds:                 5
Number of atom types:                      6


    DUMMY DATA (only for ADT-compatibility)
    ________________________


DPF> outlev 1
DPF> ga_run 20
DPF> fld /home/a/REINVENT4/ReinventStudies/mols/Rad51/maps/rad51_receptor.maps.fld
DPF> move /home/a/REINVENT4/ReinventStudies/pleaseWork/justmol2mol_4_Compounds_ontop/graph-dock-amy28i/graph-DockGPU/node-autodockgpu/inputs/OEKNHVPWQOLRIR-XWVGVUDUNA-N.pdbqt


    COUNTER STATES
    ________________________


Number of energy evaluations performed:    516264
Number of generations used:                30


    INPUT LIGAND PDBQT FILE:
    ________________________


INPUT-LIGAND-PDBQT: REMARK SMILES C[C@H](NC(=O)CNC(=O)c1ccc2ccccc2n1)c1ccccc1
INPUT-LIGAND-PDBQT: REMARK SMILES IDX 3 1 4 2 5 3 2 5 1 6 20 7 21 8 25 9 22 10 24 11 23 12 6 13
INPUT-LIGAND-PDBQT: REMARK SMILES IDX 7 14 8 15 9 17 10 18 11 19 19 20 12 21 18 22 13 23 17 24
INPUT-LIGAND-PDBQT: REMARK SMILES IDX 14 25 16 26 15 27
INPUT-LIGAND-PDBQT: REMARK H PARENT 3 4 7 16
INPUT-LIGAND-PDBQT: ROOT
INPUT-LIGAND-PDBQT: ATOM      1  N   UNL     1      -2.602  -0.174  -1.265  1.00  0.00    -0.348 N 
INPUT-LIGAND-PDBQT: ATOM      2  C   UNL     1      -1.229  -0.009  -0.965  1.00  0.00     0.239 C 
INPUT-LIGAND-PDBQT: ATOM      3  O   UNL     1      -0.867   1.032  -0.345  1.00  0.00    -0.273 OA
INPUT-LIGAND-PDBQT: ATOM      4  H   UNL     1      -2.946  -1.017  -1.775  1.00  0.00     0.164 HD
INPUT-LIGAND-PDBQT: ENDROOT
INPUT-LIGAND-PDBQT: BRANCH   1   5
INPUT-LIGAND-PDBQT: ATOM      5  C   UNL     1      -3.559   0.832  -0.864  1.00  0.00     0.109 C 
INPUT-LIGAND-PDBQT: ATOM      6  C   UNL     1      -4.177   1.414  -2.135  1.00  0.00     0.036 C 
INPUT-LIGAND-PDBQT: BRANCH   5   7
INPUT-LIGAND-PDBQT: ATOM      7  C   UNL     1      -4.578   0.186  -0.009  1.00  0.00    -0.026 A 
INPUT-LIGAND-PDBQT: ATOM      8  C   UNL     1      -5.139  -1.019  -0.348  1.00  0.00     0.006 A 
INPUT-LIGAND-PDBQT: ATOM      9  C   UNL     1      -4.956   0.843   1.161  1.00  0.00     0.006 A 
INPUT-LIGAND-PDBQT: ATOM     10  C   UNL     1      -6.085  -1.588   0.476  1.00  0.00     0.000 A 
INPUT-LIGAND-PDBQT: ATOM     11  C   UNL     1      -5.901   0.237   1.948  1.00  0.00     0.000 A 
INPUT-LIGAND-PDBQT: ATOM     12  C   UNL     1      -6.494  -0.966   1.658  1.00  0.00     0.000 A 
INPUT-LIGAND-PDBQT: ENDBRANCH   5   7
INPUT-LIGAND-PDBQT: ENDBRANCH   1   5
INPUT-LIGAND-PDBQT: BRANCH   2  13
INPUT-LIGAND-PDBQT: ATOM     13  C   UNL     1      -0.275  -1.064  -1.393  1.00  0.00     0.216 C 
INPUT-LIGAND-PDBQT: BRANCH  13  14
INPUT-LIGAND-PDBQT: ATOM     14  N   UNL     1       1.076  -0.772  -1.028  1.00  0.00    -0.342 N 
INPUT-LIGAND-PDBQT: ATOM     15  C   UNL     1       1.486  -0.592   0.320  1.00  0.00     0.270 C 
INPUT-LIGAND-PDBQT: ATOM     16  H   UNL     1       1.832  -0.677  -1.768  1.00  0.00     0.164 HD
INPUT-LIGAND-PDBQT: ATOM     17  O   UNL     1       0.636  -0.690   1.265  1.00  0.00    -0.268 OA
INPUT-LIGAND-PDBQT: BRANCH  15  18
INPUT-LIGAND-PDBQT: ATOM     18  C   UNL     1       2.894  -0.294   0.616  1.00  0.00     0.128 A 
INPUT-LIGAND-PDBQT: ATOM     19  C   UNL     1       3.294  -0.119   1.924  1.00  0.00     0.035 A 
INPUT-LIGAND-PDBQT: ATOM     20  N   UNL     1       3.784  -0.192  -0.388  1.00  0.00    -0.243 NA
INPUT-LIGAND-PDBQT: ATOM     21  C   UNL     1       4.642   0.164   2.169  1.00  0.00     0.013 A 
INPUT-LIGAND-PDBQT: ATOM     22  C   UNL     1       5.078   0.074  -0.219  1.00  0.00     0.071 A 
INPUT-LIGAND-PDBQT: ATOM     23  C   UNL     1       5.519   0.257   1.086  1.00  0.00     0.000 A 
INPUT-LIGAND-PDBQT: ATOM     24  C   UNL     1       5.959   0.170  -1.274  1.00  0.00     0.029 A 
INPUT-LIGAND-PDBQT: ATOM     25  C   UNL     1       6.854   0.537   1.320  1.00  0.00     0.010 A 
INPUT-LIGAND-PDBQT: ATOM     26  C   UNL     1       7.274   0.444  -1.069  1.00  0.00     0.002 A 
INPUT-LIGAND-PDBQT: ATOM     27  C   UNL     1       7.707   0.624   0.228  1.00  0.00     0.001 A 
INPUT-LIGAND-PDBQT: ENDBRANCH  15  18
INPUT-LIGAND-PDBQT: ENDBRANCH  13  14
INPUT-LIGAND-PDBQT: ENDBRANCH   2  13
INPUT-LIGAND-PDBQT: TORSDOF 5


    FINAL DOCKED STATE:
    ________________________


Run:   1 / 20
Time taken for this run:   0.021s

DOCKED: MODEL        1
DOCKED: USER    Run = 1
DOCKED: USER
DOCKED: USER    Estimated Free Energy of Binding    =  -8.78 kcal/mol  [=(1)+(2)+(3)-(4)]
DOCKED: USER
DOCKED: USER    (1) Final Intermolecular Energy     = -10.27 kcal/mol
DOCKED: USER        vdW + Hbond + desolv Energy     = -10.21 kcal/mol
DOCKED: USER        Electrostatic Energy            =  -0.06 kcal/mol
DOCKED: USER        Moving Ligand-Fixed Receptor    = -10.27 kcal/mol
DOCKED: USER        Moving Ligand-Moving Receptor   =  +0.00 kcal/mol
DOCKED: USER    (2) Final Total Internal Energy     =  -0.77 kcal/mol
DOCKED: USER    (3) Torsional Free Energy           =  +1.49 kcal/mol
DOCKED: USER    (4) Unbound System's Energy         =  -0.77 kcal/mol
DOCKED: USER
DOCKED: USER
DOCKED: REMARK SMILES C[C@H](NC(=O)CNC(=O)c1ccc2ccccc2n1)c1ccccc1
DOCKED: REMARK SMILES IDX 3 1 4 2 5 3 2 5 1 6 20 7 21 8 25 9 22 10 24 11 23 12 6 13
DOCKED: REMARK SMILES IDX 7 14 8 15 9 17 10 18 11 19 19 20 12 21 18 22 13 23 17 24
DOCKED: REMARK SMILES IDX 14 25 16 26 15 27
DOCKED: REMARK H PARENT 3 4 7 16
DOCKED: USER                              x       y       z     vdW  Elec       q    Type
DOCKED: USER                           _______ _______ _______ _____ _____    ______ ____
DOCKED: ROOT
DOCKED: ATOM      1  N   UNL     1     140.567  76.646 221.643 -0.17 +0.11    -0.348 N  
DOCKED: ATOM      2  C   UNL     1     139.747  75.540 221.319 -0.19 -0.05    +0.239 C  
DOCKED: ATOM      3  O   UNL     1     138.509  75.735 221.148 -0.09 +0.06    -0.273 OA 
DOCKED: ATOM      4  H   UNL     1     141.594  76.532 221.793 -0.32 -0.09    +0.164 HD 
DOCKED: ENDROOT
DOCKED: BRANCH   1   5
DOCKED: ATOM      5  C   UNL     1     139.991  77.965 221.771 -0.25 -0.03    +0.109 C  
DOCKED: ATOM      6  C   UNL     1     138.790  77.855 222.710 -0.29 -0.01    +0.036 C  
DOCKED: BRANCH   5   7
DOCKED: ATOM      7  C   UNL     1     141.026  78.872 222.313 -0.40 +0.01    -0.026 A  
DOCKED: ATOM      8  C   UNL     1     141.739  79.714 221.498 -0.41 -0.00    +0.006 A  
DOCKED: ATOM      9  C   UNL     1     141.257  78.846 223.687 -0.55 -0.00    +0.006 A  
DOCKED: ATOM     10  C   UNL     1     142.695  80.543 222.042 -0.44 -0.00    +0.000 A  
DOCKED: ATOM     11  C   UNL     1     142.218  79.690 224.181 -0.49 -0.00    +0.000 A  
DOCKED: ATOM     12  C   UNL     1     142.961  80.551 223.413 -0.68 -0.00    +0.000 A  
DOCKED: ENDBRANCH   5   7
DOCKED: ENDBRANCH   1   5
DOCKED: BRANCH   2  13
DOCKED: ATOM     13  C   UNL     1     140.375  74.200 221.196 -0.20 -0.04    +0.216 C  
DOCKED: BRANCH  13  14
DOCKED: ATOM     14  N   UNL     1     140.143  73.371 222.338 -0.13 +0.02    -0.342 N  
DOCKED: ATOM     15  C   UNL     1     140.593  72.026 222.415 -0.20 -0.03    +0.270 C  
DOCKED: ATOM     16  H   UNL     1     139.614  73.741 223.181 -0.48 -0.03    +0.164 HD 
DOCKED: ATOM     17  O   UNL     1     141.235  71.510 221.442 -0.14 +0.03    -0.268 OA 
DOCKED: BRANCH  15  18
DOCKED: ATOM     18  C   UNL     1     140.316  71.237 223.623 -0.32 -0.02    +0.128 A  
DOCKED: ATOM     19  C   UNL     1     139.658  70.030 223.514 -0.24 -0.01    +0.035 A  
DOCKED: ATOM     20  N   UNL     1     140.703  71.695 224.828 -0.30 +0.03    -0.243 NA 
DOCKED: ATOM     21  C   UNL     1     139.410  69.306 224.684 -0.36 -0.00    +0.013 A  
DOCKED: ATOM     22  C   UNL     1     140.497  71.052 225.976 -0.54 -0.01    +0.071 A  
DOCKED: ATOM     23  C   UNL     1     139.836  69.832 225.906 -0.48 -0.00    +0.000 A  
DOCKED: ATOM     24  C   UNL     1     140.909  71.555 227.191 -0.74 -0.01    +0.029 A  
DOCKED: ATOM     25  C   UNL     1     139.594  69.122 227.069 -0.56 -0.00    +0.010 A  
DOCKED: ATOM     26  C   UNL     1     140.683  70.875 228.346 -0.62 -0.00    +0.002 A  
DOCKED: ATOM     27  C   UNL     1     140.027  69.664 228.271 -0.62 -0.00    +0.001 A  
DOCKED: ENDBRANCH  15  18
DOCKED: ENDBRANCH  13  14
DOCKED: ENDBRANCH   2  13
DOCKED: TORSDOF 5
DOCKED: TER
DOCKED: ENDMDL
________________________________________________________________________________


    FINAL DOCKED STATE:
    ________________________


Run:   2 / 20
Time taken for this run:   0.021s

DOCKED: MODEL        2
DOCKED: USER    Run = 2
DOCKED: USER
DOCKED: USER    Estimated Free Energy of Binding    =  -7.85 kcal/mol  [=(1)+(2)+(3)-(4)]
DOCKED: USER
DOCKED: USER    (1) Final Intermolecular Energy     =  -9.34 kcal/mol
DOCKED: USER        vdW + Hbond + desolv Energy     =  -9.28 kcal/mol
DOCKED: USER        Electrostatic Energy            =  -0.06 kcal/mol
DOCKED: USER        Moving Ligand-Fixed Receptor    =  -9.34 kcal/mol
DOCKED: USER        Moving Ligand-Moving Receptor   =  +0.00 kcal/mol
DOCKED: USER    (2) Final Total Internal Energy     =  -1.81 kcal/mol
DOCKED: USER    (3) Torsional Free Energy           =  +1.49 kcal/mol
DOCKED: USER    (4) Unbound System's Energy         =  -1.81 kcal/mol
DOCKED: USER
DOCKED: USER
DOCKED: REMARK SMILES C[C@H](NC(=O)CNC(=O)c1ccc2ccccc2n1)c1ccccc1
DOCKED: REMARK SMILES IDX 3 1 4 2 5 3 2 5 1 6 20 7 21 8 25 9 22 10 24 11 23 12 6 13
DOCKED: REMARK SMILES IDX 7 14 8 15 9 17 10 18 11 19 19 20 12 21 18 22 13 23 17 24
DOCKED: REMARK SMILES IDX 14 25 16 26 15 27
DOCKED: REMARK H PARENT 3 4 7 16
DOCKED: USER                              x       y       z     vdW  Elec       q    Type
DOCKED: USER                           _______ _______ _______ _____ _____    ______ ____
DOCKED: ROOT
DOCKED: ATOM      1  N   UNL     1     138.213  74.889 221.991 -0.11 +0.10    -0.348 N  
DOCKED: ATOM      2  C   UNL     1     137.930  74.242 220.765 -0.06 -0.05    +0.239 C  
DOCKED: ATOM      3  O   UNL     1     137.167  74.821 219.939 -0.01 +0.05    -0.273 OA 
DOCKED: ATOM      4  H   UNL     1     138.837  74.448 222.703 -0.54 -0.06    +0.164 HD 
DOCKED: ENDROOT
DOCKED: BRANCH   1   5
DOCKED: ATOM      5  C   UNL     1     137.638  76.183 222.279 -0.23 -0.02    +0.109 C  
DOCKED: ATOM      6  C   UNL     1     136.684  76.012 223.461 -0.20 -0.01    +0.036 C  
DOCKED: BRANCH   5   7
DOCKED: ATOM      7  C   UNL     1     138.740  77.117 222.599 -0.29 +0.00    -0.026 A  
DOCKED: ATOM      8  C   UNL     1     138.494  78.375 223.088 -0.27 -0.00    +0.006 A  
DOCKED: ATOM      9  C   UNL     1     140.046  76.679 222.386 -0.38 -0.00    +0.006 A  
DOCKED: ATOM     10  C   UNL     1     139.548  79.214 223.374 -0.40 -0.00    +0.000 A  
DOCKED: ATOM     11  C   UNL     1     141.061  77.551 222.685 -0.46 -0.00    +0.000 A  
DOCKED: ATOM     12  C   UNL     1     140.873  78.818 223.176 -0.50 -0.00    +0.000 A  
DOCKED: ENDBRANCH   5   7
DOCKED: ENDBRANCH   1   5
DOCKED: BRANCH   2  13
DOCKED: ATOM     13  C   UNL     1     138.538  72.913 220.504 -0.05 -0.04    +0.216 C  
DOCKED: BRANCH  13  14
DOCKED: ATOM     14  N   UNL     1     138.662  72.117 221.686 -0.06 +0.07    -0.342 N  
DOCKED: ATOM     15  C   UNL     1     139.708  72.301 222.629 -0.19 -0.05    +0.270 C  
DOCKED: ATOM     16  H   UNL     1     137.963  71.347 221.900 +0.04 -0.03    +0.164 HD 
DOCKED: ATOM     17  O   UNL     1     140.587  73.205 222.441 -0.70 -0.00    -0.268 OA 
DOCKED: BRANCH  15  18
DOCKED: ATOM     18  C   UNL     1     139.769  71.443 223.820 -0.33 -0.03    +0.128 A  
DOCKED: ATOM     19  C   UNL     1     139.232  70.174 223.775 -0.29 -0.01    +0.035 A  
DOCKED: ATOM     20  N   UNL     1     140.345  71.899 224.947 -0.24 +0.04    -0.243 NA 
DOCKED: ATOM     21  C   UNL     1     139.307  69.385 224.928 -0.38 -0.00    +0.013 A  
DOCKED: ATOM     22  C   UNL     1     140.448  71.197 226.075 -0.55 -0.01    +0.071 A  
DOCKED: ATOM     23  C   UNL     1     139.917  69.913 226.068 -0.50 -0.00    +0.000 A  
DOCKED: ATOM     24  C   UNL     1     141.046  71.700 227.209 -0.76 -0.01    +0.029 A  
DOCKED: ATOM     25  C   UNL     1     139.995  69.139 227.213 -0.59 -0.00    +0.010 A  
DOCKED: ATOM     26  C   UNL     1     141.134  70.959 228.345 -0.62 -0.00    +0.002 A  
DOCKED: ATOM     27  C   UNL     1     140.607  69.685 228.333 -0.60 -0.00    +0.001 A  
DOCKED: ENDBRANCH  15  18
DOCKED: ENDBRANCH  13  14
DOCKED: ENDBRANCH   2  13
DOCKED: TORSDOF 5
DOCKED: TER
DOCKED: ENDMDL
________________________________________________________________________________


    FINAL DOCKED STATE:
    ________________________


Run:   3 / 20
Time taken for this run:   0.021s

DOCKED: MODEL        3
DOCKED: USER    Run = 3
DOCKED: USER
DOCKED: USER    Estimated Free Energy of Binding    =  -8.41 kcal/mol  [=(1)+(2)+(3)-(4)]
DOCKED: USER
DOCKED: USER    (1) Final Intermolecular Energy     =  -9.90 kcal/mol
DOCKED: USER        vdW + Hbond + desolv Energy     =  -9.89 kcal/mol
DOCKED: USER        Electrostatic Energy            =  -0.01 kcal/mol
DOCKED: USER        Moving Ligand-Fixed Receptor    =  -9.90 kcal/mol
DOCKED: USER        Moving Ligand-Moving Receptor   =  +0.00 kcal/mol
DOCKED: USER    (2) Final Total Internal Energy     =  -1.15 kcal/mol
DOCKED: USER    (3) Torsional Free Energy           =  +1.49 kcal/mol
DOCKED: USER    (4) Unbound System's Energy         =  -1.15 kcal/mol
DOCKED: USER
DOCKED: USER
DOCKED: REMARK SMILES C[C@H](NC(=O)CNC(=O)c1ccc2ccccc2n1)c1ccccc1
DOCKED: REMARK SMILES IDX 3 1 4 2 5 3 2 5 1 6 20 7 21 8 25 9 22 10 24 11 23 12 6 13
DOCKED: REMARK SMILES IDX 7 14 8 15 9 17 10 18 11 19 19 20 12 21 18 22 13 23 17 24
DOCKED: REMARK SMILES IDX 14 25 16 26 15 27
DOCKED: REMARK H PARENT 3 4 7 16
DOCKED: USER                              x       y       z     vdW  Elec       q    Type
DOCKED: USER                           _______ _______ _______ _____ _____    ______ ____
DOCKED: ROOT
DOCKED: ATOM      1  N   UNL     1     140.657  76.682 220.752 -0.08 +0.12    -0.348 N  
DOCKED: ATOM      2  C   UNL     1     140.820  75.314 221.074 -0.21 -0.06    +0.239 C  
DOCKED: ATOM      3  O   UNL     1     141.992  74.864 221.225 -0.25 +0.09    -0.273 OA 
DOCKED: ATOM      4  H   UNL     1     139.709  77.097 220.617 +0.05 -0.05    +0.164 HD 
DOCKED: ENDROOT
DOCKED: BRANCH   1   5
DOCKED: ATOM      5  C   UNL     1     141.814  77.536 220.604 -0.25 -0.07    +0.109 C  
DOCKED: ATOM      6  C   UNL     1     141.721  78.206 219.233 -0.25 -0.02    +0.036 C  
DOCKED: BRANCH   5   7
DOCKED: ATOM      7  C   UNL     1     141.798  78.530 221.698 -0.38 +0.01    -0.026 A  
DOCKED: ATOM      8  C   UNL     1     142.144  79.840 221.482 -0.40 -0.00    +0.006 A  
DOCKED: ATOM      9  C   UNL     1     141.419  78.094 222.967 -0.49 -0.00    +0.006 A  
DOCKED: ATOM     10  C   UNL     1     142.115  80.735 222.529 -0.56 -0.00    +0.000 A  
DOCKED: ATOM     11  C   UNL     1     141.407  79.022 223.976 -0.59 -0.00    +0.000 A  
DOCKED: ATOM     12  C   UNL     1     141.742  80.343 223.816 -0.59 -0.00    +0.000 A  
DOCKED: ENDBRANCH   5   7
DOCKED: ENDBRANCH   1   5
DOCKED: BRANCH   2  13
DOCKED: ATOM     13  C   UNL     1     139.608  74.468 221.218 -0.17 -0.04    +0.216 C  
DOCKED: BRANCH  13  14
DOCKED: ATOM     14  N   UNL     1     139.668  73.600 222.352 -0.11 +0.05    -0.342 N  
DOCKED: ATOM     15  C   UNL     1     139.893  72.202 222.239 -0.20 -0.04    +0.270 C  
DOCKED: ATOM     16  H   UNL     1     139.543  73.980 223.336 -0.47 -0.03    +0.164 HD 
DOCKED: ATOM     17  O   UNL     1     140.052  71.671 221.091 -0.09 +0.04    -0.268 OA 
DOCKED: BRANCH  15  18
DOCKED: ATOM     18  C   UNL     1     139.942  71.375 223.453 -0.32 -0.02    +0.128 A  
DOCKED: ATOM     19  C   UNL     1     139.507  70.067 223.405 -0.25 -0.01    +0.035 A  
DOCKED: ATOM     20  N   UNL     1     140.409  71.896 224.602 -0.26 +0.04    -0.243 NA 
DOCKED: ATOM     21  C   UNL     1     139.567  69.309 224.580 -0.34 -0.00    +0.013 A  
DOCKED: ATOM     22  C   UNL     1     140.492  71.227 225.750 -0.53 -0.01    +0.071 A  
DOCKED: ATOM     23  C   UNL     1     140.062  69.905 225.742 -0.48 -0.00    +0.000 A  
DOCKED: ATOM     24  C   UNL     1     140.977  71.796 226.907 -0.74 -0.00    +0.029 A  
DOCKED: ATOM     25  C   UNL     1     140.125  69.162 226.908 -0.57 -0.00    +0.010 A  
DOCKED: ATOM     26  C   UNL     1     141.048  71.086 228.064 -0.72 -0.00    +0.002 A  
DOCKED: ATOM     27  C   UNL     1     140.621  69.775 228.050 -0.62 -0.00    +0.001 A  
DOCKED: ENDBRANCH  15  18
DOCKED: ENDBRANCH  13  14
DOCKED: ENDBRANCH   2  13
DOCKED: TORSDOF 5
DOCKED: TER
DOCKED: ENDMDL
________________________________________________________________________________


    FINAL DOCKED STATE:
    ________________________


Run:   4 / 20
Time taken for this run:   0.021s

DOCKED: MODEL        4
DOCKED: USER    Run = 4
DOCKED: USER
DOCKED: USER    Estimated Free Energy of Binding    =  -8.40 kcal/mol  [=(1)+(2)+(3)-(4)]
DOCKED: USER
DOCKED: USER    (1) Final Intermolecular Energy     =  -9.90 kcal/mol
DOCKED: USER        vdW + Hbond + desolv Energy     =  -9.89 kcal/mol
DOCKED: USER        Electrostatic Energy            =  -0.01 kcal/mol
DOCKED: USER        Moving Ligand-Fixed Receptor    =  -9.90 kcal/mol
DOCKED: USER        Moving Ligand-Moving Receptor   =  +0.00 kcal/mol
DOCKED: USER    (2) Final Total Internal Energy     =  -1.13 kcal/mol
DOCKED: USER    (3) Torsional Free Energy           =  +1.49 kcal/mol
DOCKED: USER    (4) Unbound System's Energy         =  -1.13 kcal/mol
DOCKED: USER
DOCKED: USER
DOCKED: REMARK SMILES C[C@H](NC(=O)CNC(=O)c1ccc2ccccc2n1)c1ccccc1
DOCKED: REMARK SMILES IDX 3 1 4 2 5 3 2 5 1 6 20 7 21 8 25 9 22 10 24 11 23 12 6 13
DOCKED: REMARK SMILES IDX 7 14 8 15 9 17 10 18 11 19 19 20 12 21 18 22 13 23 17 24
DOCKED: REMARK SMILES IDX 14 25 16 26 15 27
DOCKED: REMARK H PARENT 3 4 7 16
DOCKED: USER                              x       y       z     vdW  Elec       q    Type
DOCKED: USER                           _______ _______ _______ _____ _____    ______ ____
DOCKED: ROOT
DOCKED: ATOM      1  N   UNL     1     140.658  76.629 221.038 -0.11 +0.12    -0.348 N  
DOCKED: ATOM      2  C   UNL     1     140.788  75.221 220.998 -0.20 -0.06    +0.239 C  
DOCKED: ATOM      3  O   UNL     1     141.934  74.725 220.802 -0.22 +0.08    -0.273 OA 
DOCKED: ATOM      4  H   UNL     1     139.732  77.082 221.198 +0.06 -0.04    +0.164 HD 
DOCKED: ENDROOT
DOCKED: BRANCH   1   5
DOCKED: ATOM      5  C   UNL     1     141.820  77.471 220.858 -0.19 -0.07    +0.109 C  
DOCKED: ATOM      6  C   UNL     1     141.732  78.086 219.462 -0.26 -0.02    +0.036 C  
DOCKED: BRANCH   5   7
DOCKED: ATOM      7  C   UNL     1     141.807  78.508 221.912 -0.38 +0.01    -0.026 A  
DOCKED: ATOM      8  C   UNL     1     141.447  78.214 223.203 -0.53 -0.00    +0.006 A  
DOCKED: ATOM      9  C   UNL     1     142.173  79.804 221.553 -0.42 -0.00    +0.006 A  
DOCKED: ATOM     10  C   UNL     1     141.448  79.209 224.156 -0.54 -0.00    +0.000 A  
DOCKED: ATOM     11  C   UNL     1     142.159  80.759 222.537 -0.56 -0.00    +0.000 A  
DOCKED: ATOM     12  C   UNL     1     141.808  80.521 223.842 -0.60 -0.00    +0.000 A  
DOCKED: ENDBRANCH   5   7
DOCKED: ENDBRANCH   1   5
DOCKED: BRANCH   2  13
DOCKED: ATOM     13  C   UNL     1     139.572  74.389 221.187 -0.17 -0.04    +0.216 C  
DOCKED: BRANCH  13  14
DOCKED: ATOM     14  N   UNL     1     139.649  73.547 222.340 -0.13 +0.05    -0.342 N  
DOCKED: ATOM     15  C   UNL     1     139.850  72.143 222.254 -0.20 -0.04    +0.270 C  
DOCKED: ATOM     16  H   UNL     1     139.556  73.952 223.318 -0.48 -0.03    +0.164 HD 
DOCKED: ATOM     17  O   UNL     1     139.970  71.583 221.116 -0.09 +0.04    -0.268 OA 
DOCKED: BRANCH  15  18
DOCKED: ATOM     18  C   UNL     1     139.918  71.344 223.486 -0.32 -0.02    +0.128 A  
DOCKED: ATOM     19  C   UNL     1     139.494  70.032 223.472 -0.26 -0.01    +0.035 A  
DOCKED: ATOM     20  N   UNL     1     140.392  71.895 224.618 -0.26 +0.04    -0.243 NA 
DOCKED: ATOM     21  C   UNL     1     139.573  69.301 224.662 -0.35 -0.00    +0.013 A  
DOCKED: ATOM     22  C   UNL     1     140.492  71.252 225.780 -0.53 -0.01    +0.071 A  
DOCKED: ATOM     23  C   UNL     1     140.074  69.927 225.806 -0.49 -0.00    +0.000 A  
DOCKED: ATOM     24  C   UNL     1     140.984  71.852 226.919 -0.74 -0.01    +0.029 A  
DOCKED: ATOM     25  C   UNL     1     140.155  69.211 226.987 -0.57 -0.00    +0.010 A  
DOCKED: ATOM     26  C   UNL     1     141.073  71.169 228.090 -0.73 -0.00    +0.002 A  
DOCKED: ATOM     27  C   UNL     1     140.657  69.854 228.111 -0.61 -0.00    +0.001 A  
DOCKED: ENDBRANCH  15  18
DOCKED: ENDBRANCH  13  14
DOCKED: ENDBRANCH   2  13
DOCKED: TORSDOF 5
DOCKED: TER
DOCKED: ENDMDL
________________________________________________________________________________


    FINAL DOCKED STATE:
    ________________________


Run:   5 / 20
Time taken for this run:   0.021s

DOCKED: MODEL        5
DOCKED: USER    Run = 5
DOCKED: USER
DOCKED: USER    Estimated Free Energy of Binding    =  -7.43 kcal/mol  [=(1)+(2)+(3)-(4)]
DOCKED: USER
DOCKED: USER    (1) Final Intermolecular Energy     =  -8.92 kcal/mol
DOCKED: USER        vdW + Hbond + desolv Energy     =  -8.89 kcal/mol
DOCKED: USER        Electrostatic Energy            =  -0.03 kcal/mol
DOCKED: USER        Moving Ligand-Fixed Receptor    =  -8.92 kcal/mol
DOCKED: USER        Moving Ligand-Moving Receptor   =  +0.00 kcal/mol
DOCKED: USER    (2) Final Total Internal Energy     =  -2.24 kcal/mol
DOCKED: USER    (3) Torsional Free Energy           =  +1.49 kcal/mol
DOCKED: USER    (4) Unbound System's Energy         =  -2.24 kcal/mol
DOCKED: USER
DOCKED: USER
DOCKED: REMARK SMILES C[C@H](NC(=O)CNC(=O)c1ccc2ccccc2n1)c1ccccc1
DOCKED: REMARK SMILES IDX 3 1 4 2 5 3 2 5 1 6 20 7 21 8 25 9 22 10 24 11 23 12 6 13
DOCKED: REMARK SMILES IDX 7 14 8 15 9 17 10 18 11 19 19 20 12 21 18 22 13 23 17 24
DOCKED: REMARK SMILES IDX 14 25 16 26 15 27
DOCKED: REMARK H PARENT 3 4 7 16
DOCKED: USER                              x       y       z     vdW  Elec       q    Type
DOCKED: USER                           _______ _______ _______ _____ _____    ______ ____
DOCKED: ROOT
DOCKED: ATOM      1  N   UNL     1     139.012  69.302 224.445 -0.13 +0.05    -0.348 N  
DOCKED: ATOM      2  C   UNL     1     137.792  69.910 224.065 -0.19 -0.03    +0.239 C  
DOCKED: ATOM      3  O   UNL     1     136.926  70.136 224.958 -0.11 +0.03    -0.273 OA 
DOCKED: ATOM      4  H   UNL     1     139.755  69.096 223.742 +0.01 -0.03    +0.164 HD 
DOCKED: ENDROOT
DOCKED: BRANCH   1   5
DOCKED: ATOM      5  C   UNL     1     139.251  68.955 225.827 -0.41 -0.01    +0.109 C  
DOCKED: ATOM      6  C   UNL     1     140.084  67.674 225.844 -0.53 -0.01    +0.036 C  
DOCKED: BRANCH   5   7
DOCKED: ATOM      7  C   UNL     1     139.965  70.079 226.470 -0.51 +0.00    -0.026 A  
DOCKED: ATOM      8  C   UNL     1     139.814  70.355 227.805 -0.58 -0.00    +0.006 A  
DOCKED: ATOM      9  C   UNL     1     140.804  70.856 225.672 -0.58 -0.00    +0.006 A  
DOCKED: ATOM     10  C   UNL     1     140.498  71.411 228.365 -0.71 -0.00    +0.000 A  
DOCKED: ATOM     11  C   UNL     1     141.463  71.896 226.276 -0.64 -0.00    +0.000 A  
DOCKED: ATOM     12  C   UNL     1     141.350  72.217 227.605 -0.82 -0.00    +0.000 A  
DOCKED: ENDBRANCH   5   7
DOCKED: ENDBRANCH   1   5
DOCKED: BRANCH   2  13
DOCKED: ATOM     13  C   UNL     1     137.582  70.252 222.635 -0.10 -0.04    +0.216 C  
DOCKED: BRANCH  13  14
DOCKED: ATOM     14  N   UNL     1     138.172  71.503 222.271 -0.06 +0.08    -0.342 N  
DOCKED: ATOM     15  C   UNL     1     139.578  71.707 222.234 -0.17 -0.05    +0.270 C  
DOCKED: ATOM     16  H   UNL     1     137.567  72.336 222.014 +0.02 -0.04    +0.164 HD 
DOCKED: ATOM     17  O   UNL     1     140.370  70.754 222.531 -0.11 +0.04    -0.268 OA 
DOCKED: BRANCH  15  18
DOCKED: ATOM     18  C   UNL     1     140.109  73.022 221.850 -0.24 -0.02    +0.128 A  
DOCKED: ATOM     19  C   UNL     1     141.260  73.099 221.095 -0.25 -0.00    +0.035 A  
DOCKED: ATOM     20  N   UNL     1     139.472  74.143 222.238 -0.66 +0.04    -0.243 NA 
DOCKED: ATOM     21  C   UNL     1     141.738  74.367 220.748 -0.28 -0.00    +0.013 A  
DOCKED: ATOM     22  C   UNL     1     139.876  75.376 221.939 -0.30 -0.01    +0.071 A  
DOCKED: ATOM     23  C   UNL     1     141.034  75.494 221.179 -0.33 -0.00    +0.000 A  
DOCKED: ATOM     24  C   UNL     1     139.196  76.500 222.354 -0.32 -0.01    +0.029 A  
DOCKED: ATOM     25  C   UNL     1     141.500  76.752 220.840 -0.29 -0.01    +0.010 A  
DOCKED: ATOM     26  C   UNL     1     139.634  77.745 222.034 -0.30 -0.00    +0.002 A  
DOCKED: ATOM     27  C   UNL     1     140.783  77.857 221.279 -0.30 -0.00    +0.001 A  
DOCKED: ENDBRANCH  15  18
DOCKED: ENDBRANCH  13  14
DOCKED: ENDBRANCH   2  13
DOCKED: TORSDOF 5
DOCKED: TER
DOCKED: ENDMDL
________________________________________________________________________________


    FINAL DOCKED STATE:
    ________________________


Run:   6 / 20
Time taken for this run:   0.021s

DOCKED: MODEL        6
DOCKED: USER    Run = 6
DOCKED: USER
DOCKED: USER    Estimated Free Energy of Binding    =  -8.41 kcal/mol  [=(1)+(2)+(3)-(4)]
DOCKED: USER
DOCKED: USER    (1) Final Intermolecular Energy     =  -9.90 kcal/mol
DOCKED: USER        vdW + Hbond + desolv Energy     =  -9.96 kcal/mol
DOCKED: USER        Electrostatic Energy            =  +0.06 kcal/mol
DOCKED: USER        Moving Ligand-Fixed Receptor    =  -9.90 kcal/mol
DOCKED: USER        Moving Ligand-Moving Receptor   =  +0.00 kcal/mol
DOCKED: USER    (2) Final Total Internal Energy     =  -1.18 kcal/mol
DOCKED: USER    (3) Torsional Free Energy           =  +1.49 kcal/mol
DOCKED: USER    (4) Unbound System's Energy         =  -1.18 kcal/mol
DOCKED: USER
DOCKED: USER
DOCKED: REMARK SMILES C[C@H](NC(=O)CNC(=O)c1ccc2ccccc2n1)c1ccccc1
DOCKED: REMARK SMILES IDX 3 1 4 2 5 3 2 5 1 6 20 7 21 8 25 9 22 10 24 11 23 12 6 13
DOCKED: REMARK SMILES IDX 7 14 8 15 9 17 10 18 11 19 19 20 12 21 18 22 13 23 17 24
DOCKED: REMARK SMILES IDX 14 25 16 26 15 27
DOCKED: REMARK H PARENT 3 4 7 16
DOCKED: USER                              x       y       z     vdW  Elec       q    Type
DOCKED: USER                           _______ _______ _______ _____ _____    ______ ____
DOCKED: ROOT
DOCKED: ATOM      1  N   UNL     1     140.444  71.866 223.306 -0.19 +0.04    -0.348 N  
DOCKED: ATOM      2  C   UNL     1     139.972  72.750 222.306 -0.21 -0.03    +0.239 C  
DOCKED: ATOM      3  O   UNL     1     138.725  72.840 222.119 -0.16 +0.07    -0.273 OA 
DOCKED: ATOM      4  H   UNL     1     141.465  71.760 223.495 +0.09 +0.00    +0.164 HD 
DOCKED: ENDROOT
DOCKED: BRANCH   1   5
DOCKED: ATOM      5  C   UNL     1     139.509  71.091 224.089 -0.35 -0.02    +0.109 C  
DOCKED: ATOM      6  C   UNL     1     139.357  69.729 223.411 -0.23 -0.01    +0.036 C  
DOCKED: BRANCH   5   7
DOCKED: ATOM      7  C   UNL     1     140.051  70.960 225.459 -0.50 +0.00    -0.026 A  
DOCKED: ATOM      8  C   UNL     1     140.917  71.888 225.979 -0.57 -0.00    +0.006 A  
DOCKED: ATOM      9  C   UNL     1     139.653  69.857 226.212 -0.48 -0.00    +0.006 A  
DOCKED: ATOM     10  C   UNL     1     141.398  71.730 227.260 -0.73 -0.00    +0.000 A  
DOCKED: ATOM     11  C   UNL     1     140.159  69.744 227.481 -0.60 -0.00    +0.000 A  
DOCKED: ATOM     12  C   UNL     1     141.027  70.641 228.051 -0.65 -0.00    +0.000 A  
DOCKED: ENDBRANCH   5   7
DOCKED: ENDBRANCH   1   5
DOCKED: BRANCH   2  13
DOCKED: ATOM     13  C   UNL     1     140.963  73.531 221.522 -0.20 -0.02    +0.216 C  
DOCKED: BRANCH  13  14
DOCKED: ATOM     14  N   UNL     1     141.059  74.893 221.947 -0.13 +0.04    -0.342 N  
DOCKED: ATOM     15  C   UNL     1     139.946  75.775 221.957 -0.23 -0.05    +0.270 C  
DOCKED: ATOM     16  H   UNL     1     141.985  75.297 222.275 -0.35 -0.05    +0.164 HD 
DOCKED: ATOM     17  O   UNL     1     138.801  75.364 221.577 -0.17 +0.06    -0.268 OA 
DOCKED: BRANCH  15  18
DOCKED: ATOM     18  C   UNL     1     140.125  77.162 222.409 -0.32 -0.03    +0.128 A  
DOCKED: ATOM     19  C   UNL     1     139.018  77.936 222.689 -0.29 -0.01    +0.035 A  
DOCKED: ATOM     20  N   UNL     1     141.363  77.669 222.546 -0.23 +0.11    -0.243 NA 
DOCKED: ATOM     21  C   UNL     1     139.225  79.252 223.116 -0.35 -0.00    +0.013 A  
DOCKED: ATOM     22  C   UNL     1     141.625  78.912 222.949 -0.50 -0.03    +0.071 A  
DOCKED: ATOM     23  C   UNL     1     140.535  79.723 223.240 -0.46 -0.00    +0.000 A  
DOCKED: ATOM     24  C   UNL     1     142.909  79.394 223.077 -0.51 -0.01    +0.029 A  
DOCKED: ATOM     25  C   UNL     1     140.748  81.023 223.661 -0.41 -0.00    +0.010 A  
DOCKED: ATOM     26  C   UNL     1     143.143  80.668 223.489 -0.62 -0.00    +0.002 A  
DOCKED: ATOM     27  C   UNL     1     142.058  81.469 223.778 -0.59 -0.00    +0.001 A  
DOCKED: ENDBRANCH  15  18
DOCKED: ENDBRANCH  13  14
DOCKED: ENDBRANCH   2  13
DOCKED: TORSDOF 5
DOCKED: TER
DOCKED: ENDMDL
________________________________________________________________________________


    FINAL DOCKED STATE:
    ________________________


Run:   7 / 20
Time taken for this run:   0.021s

DOCKED: MODEL        7
DOCKED: USER    Run = 7
DOCKED: USER
DOCKED: USER    Estimated Free Energy of Binding    =  -7.27 kcal/mol  [=(1)+(2)+(3)-(4)]
DOCKED: USER
DOCKED: USER    (1) Final Intermolecular Energy     =  -8.77 kcal/mol
DOCKED: USER        vdW + Hbond + desolv Energy     =  -8.74 kcal/mol
DOCKED: USER        Electrostatic Energy            =  -0.02 kcal/mol
DOCKED: USER        Moving Ligand-Fixed Receptor    =  -8.77 kcal/mol
DOCKED: USER        Moving Ligand-Moving Receptor   =  +0.00 kcal/mol
DOCKED: USER    (2) Final Total Internal Energy     =  -2.27 kcal/mol
DOCKED: USER    (3) Torsional Free Energy           =  +1.49 kcal/mol
DOCKED: USER    (4) Unbound System's Energy         =  -2.27 kcal/mol
DOCKED: USER
DOCKED: USER
DOCKED: REMARK SMILES C[C@H](NC(=O)CNC(=O)c1ccc2ccccc2n1)c1ccccc1
DOCKED: REMARK SMILES IDX 3 1 4 2 5 3 2 5 1 6 20 7 21 8 25 9 22 10 24 11 23 12 6 13
DOCKED: REMARK SMILES IDX 7 14 8 15 9 17 10 18 11 19 19 20 12 21 18 22 13 23 17 24
DOCKED: REMARK SMILES IDX 14 25 16 26 15 27
DOCKED: REMARK H PARENT 3 4 7 16
DOCKED: USER                              x       y       z     vdW  Elec       q    Type
DOCKED: USER                           _______ _______ _______ _____ _____    ______ ____
DOCKED: ROOT
DOCKED: ATOM      1  N   UNL     1     139.026  69.470 224.532 -0.13 +0.05    -0.348 N  
DOCKED: ATOM      2  C   UNL     1     137.719  69.822 224.117 -0.19 -0.03    +0.239 C  
DOCKED: ATOM      3  O   UNL     1     136.780  69.762 224.962 -0.17 +0.02    -0.273 OA 
DOCKED: ATOM      4  H   UNL     1     139.831  69.505 223.869 +0.04 -0.03    +0.164 HD 
DOCKED: ENDROOT
DOCKED: BRANCH   1   5
DOCKED: ATOM      5  C   UNL     1     139.268  69.054 225.895 -0.41 -0.01    +0.109 C  
DOCKED: ATOM      6  C   UNL     1     140.082  67.762 225.845 -0.53 -0.01    +0.036 C  
DOCKED: BRANCH   5   7
DOCKED: ATOM      7  C   UNL     1     140.003  70.136 226.585 -0.52 +0.00    -0.026 A  
DOCKED: ATOM      8  C   UNL     1     139.867  70.348 227.933 -0.61 -0.00    +0.006 A  
DOCKED: ATOM      9  C   UNL     1     140.845  70.941 225.818 -0.60 -0.00    +0.006 A  
DOCKED: ATOM     10  C   UNL     1     140.570  71.367 228.538 -0.50 -0.00    +0.000 A  
DOCKED: ATOM     11  C   UNL     1     141.523  71.941 226.466 -0.65 -0.00    +0.000 A  
DOCKED: ATOM     12  C   UNL     1     141.425  72.198 227.811 -0.77 -0.00    +0.000 A  
DOCKED: ENDBRANCH   5   7
DOCKED: ENDBRANCH   1   5
DOCKED: BRANCH   2  13
DOCKED: ATOM     13  C   UNL     1     137.509  70.245 222.709 -0.10 -0.04    +0.216 C  
DOCKED: BRANCH  13  14
DOCKED: ATOM     14  N   UNL     1     138.100  71.513 222.416 -0.06 +0.08    -0.342 N  
DOCKED: ATOM     15  C   UNL     1     139.501  71.691 222.261 -0.17 -0.05    +0.270 C  
DOCKED: ATOM     16  H   UNL     1     137.499  72.382 222.303 +0.01 -0.05    +0.164 HD 
DOCKED: ATOM     17  O   UNL     1     140.288  70.696 222.383 -0.12 +0.04    -0.268 OA 
DOCKED: BRANCH  15  18
DOCKED: ATOM     18  C   UNL     1     140.034  73.027 221.960 -0.25 -0.02    +0.128 A  
DOCKED: ATOM     19  C   UNL     1     141.231  73.148 221.287 -0.26 -0.00    +0.035 A  
DOCKED: ATOM     20  N   UNL     1     139.354  74.123 222.344 -0.63 +0.05    -0.243 NA 
DOCKED: ATOM     21  C   UNL     1     141.709  74.435 221.018 -0.28 -0.00    +0.013 A  
DOCKED: ATOM     22  C   UNL     1     139.755  75.372 222.116 -0.26 -0.01    +0.071 A  
DOCKED: ATOM     23  C   UNL     1     140.958  75.534 221.440 -0.35 -0.00    +0.000 A  
DOCKED: ATOM     24  C   UNL     1     139.030  76.470 222.524 -0.29 -0.01    +0.029 A  
DOCKED: ATOM     25  C   UNL     1     141.424  76.811 221.178 -0.28 -0.01    +0.010 A  
DOCKED: ATOM     26  C   UNL     1     139.467  77.732 222.278 -0.32 -0.00    +0.002 A  
DOCKED: ATOM     27  C   UNL     1     140.661  77.889 221.606 -0.32 -0.00    +0.001 A  
DOCKED: ENDBRANCH  15  18
DOCKED: ENDBRANCH  13  14
DOCKED: ENDBRANCH   2  13
DOCKED: TORSDOF 5
DOCKED: TER
DOCKED: ENDMDL
________________________________________________________________________________


    FINAL DOCKED STATE:
    ________________________


Run:   8 / 20
Time taken for this run:   0.021s

DOCKED: MODEL        8
DOCKED: USER    Run = 8
DOCKED: USER
DOCKED: USER    Estimated Free Energy of Binding    =  -8.42 kcal/mol  [=(1)+(2)+(3)-(4)]
DOCKED: USER
DOCKED: USER    (1) Final Intermolecular Energy     =  -9.91 kcal/mol
DOCKED: USER        vdW + Hbond + desolv Energy     =  -9.91 kcal/mol
DOCKED: USER        Electrostatic Energy            =  -0.01 kcal/mol
DOCKED: USER        Moving Ligand-Fixed Receptor    =  -9.91 kcal/mol
DOCKED: USER        Moving Ligand-Moving Receptor   =  +0.00 kcal/mol
DOCKED: USER    (2) Final Total Internal Energy     =  -1.15 kcal/mol
DOCKED: USER    (3) Torsional Free Energy           =  +1.49 kcal/mol
DOCKED: USER    (4) Unbound System's Energy         =  -1.15 kcal/mol
DOCKED: USER
DOCKED: USER
DOCKED: REMARK SMILES C[C@H](NC(=O)CNC(=O)c1ccc2ccccc2n1)c1ccccc1
DOCKED: REMARK SMILES IDX 3 1 4 2 5 3 2 5 1 6 20 7 21 8 25 9 22 10 24 11 23 12 6 13
DOCKED: REMARK SMILES IDX 7 14 8 15 9 17 10 18 11 19 19 20 12 21 18 22 13 23 17 24
DOCKED: REMARK SMILES IDX 14 25 16 26 15 27
DOCKED: REMARK H PARENT 3 4 7 16
DOCKED: USER                              x       y       z     vdW  Elec       q    Type
DOCKED: USER                           _______ _______ _______ _____ _____    ______ ____
DOCKED: ROOT
DOCKED: ATOM      1  N   UNL     1     140.672  76.679 220.787 -0.09 +0.12    -0.348 N  
DOCKED: ATOM      2  C   UNL     1     140.833  75.299 221.054 -0.21 -0.06    +0.239 C  
DOCKED: ATOM      3  O   UNL     1     142.005  74.834 221.146 -0.25 +0.09    -0.273 OA 
DOCKED: ATOM      4  H   UNL     1     139.724  77.106 220.703 +0.05 -0.05    +0.164 HD 
DOCKED: ENDROOT
DOCKED: BRANCH   1   5
DOCKED: ATOM      5  C   UNL     1     141.831  77.527 220.627 -0.24 -0.07    +0.109 C  
DOCKED: ATOM      6  C   UNL     1     141.735  78.186 219.252 -0.25 -0.02    +0.036 C  
DOCKED: BRANCH   5   7
DOCKED: ATOM      7  C   UNL     1     141.824  78.531 221.714 -0.38 +0.01    -0.026 A  
DOCKED: ATOM      8  C   UNL     1     142.178  79.836 221.487 -0.40 -0.00    +0.006 A  
DOCKED: ATOM      9  C   UNL     1     141.443  78.107 222.986 -0.50 -0.00    +0.006 A  
DOCKED: ATOM     10  C   UNL     1     142.157  80.740 222.526 -0.56 -0.00    +0.000 A  
DOCKED: ATOM     11  C   UNL     1     141.438  79.044 223.988 -0.59 -0.00    +0.000 A  
DOCKED: ATOM     12  C   UNL     1     141.782  80.361 223.817 -0.60 -0.00    +0.000 A  
DOCKED: ENDBRANCH   5   7
DOCKED: ENDBRANCH   1   5
DOCKED: BRANCH   2  13
DOCKED: ATOM     13  C   UNL     1     139.618  74.458 221.212 -0.17 -0.04    +0.216 C  
DOCKED: BRANCH  13  14
DOCKED: ATOM     14  N   UNL     1     139.686  73.593 222.348 -0.12 +0.05    -0.342 N  
DOCKED: ATOM     15  C   UNL     1     139.897  72.193 222.236 -0.20 -0.04    +0.270 C  
DOCKED: ATOM     16  H   UNL     1     139.577  73.977 223.333 -0.48 -0.02    +0.164 HD 
DOCKED: ATOM     17  O   UNL     1     140.037  71.658 221.088 -0.09 +0.04    -0.268 OA 
DOCKED: BRANCH  15  18
DOCKED: ATOM     18  C   UNL     1     139.955  71.369 223.451 -0.31 -0.02    +0.128 A  
DOCKED: ATOM     19  C   UNL     1     139.516  70.063 223.411 -0.25 -0.01    +0.035 A  
DOCKED: ATOM     20  N   UNL     1     140.434  71.892 224.595 -0.27 +0.04    -0.243 NA 
DOCKED: ATOM     21  C   UNL     1     139.585  69.307 224.587 -0.34 -0.00    +0.013 A  
DOCKED: ATOM     22  C   UNL     1     140.526  71.225 225.744 -0.54 -0.01    +0.071 A  
DOCKED: ATOM     23  C   UNL     1     140.092  69.905 225.743 -0.48 -0.00    +0.000 A  
DOCKED: ATOM     24  C   UNL     1     141.023  71.796 226.895 -0.74 -0.00    +0.029 A  
DOCKED: ATOM     25  C   UNL     1     140.163  69.164 226.910 -0.57 -0.00    +0.010 A  
DOCKED: ATOM     26  C   UNL     1     141.102  71.089 228.053 -0.71 -0.00    +0.002 A  
DOCKED: ATOM     27  C   UNL     1     140.671  69.779 228.047 -0.62 -0.00    +0.001 A  
DOCKED: ENDBRANCH  15  18
DOCKED: ENDBRANCH  13  14
DOCKED: ENDBRANCH   2  13
DOCKED: TORSDOF 5
DOCKED: TER
DOCKED: ENDMDL
________________________________________________________________________________


    FINAL DOCKED STATE:
    ________________________


Run:   9 / 20
Time taken for this run:   0.021s

DOCKED: MODEL        9
DOCKED: USER    Run = 9
DOCKED: USER
DOCKED: USER    Estimated Free Energy of Binding    =  -8.41 kcal/mol  [=(1)+(2)+(3)-(4)]
DOCKED: USER
DOCKED: USER    (1) Final Intermolecular Energy     =  -9.90 kcal/mol
DOCKED: USER        vdW + Hbond + desolv Energy     =  -9.96 kcal/mol
DOCKED: USER        Electrostatic Energy            =  +0.06 kcal/mol
DOCKED: USER        Moving Ligand-Fixed Receptor    =  -9.90 kcal/mol
DOCKED: USER        Moving Ligand-Moving Receptor   =  +0.00 kcal/mol
DOCKED: USER    (2) Final Total Internal Energy     =  -1.18 kcal/mol
DOCKED: USER    (3) Torsional Free Energy           =  +1.49 kcal/mol
DOCKED: USER    (4) Unbound System's Energy         =  -1.18 kcal/mol
DOCKED: USER
DOCKED: USER
DOCKED: REMARK SMILES C[C@H](NC(=O)CNC(=O)c1ccc2ccccc2n1)c1ccccc1
DOCKED: REMARK SMILES IDX 3 1 4 2 5 3 2 5 1 6 20 7 21 8 25 9 22 10 24 11 23 12 6 13
DOCKED: REMARK SMILES IDX 7 14 8 15 9 17 10 18 11 19 19 20 12 21 18 22 13 23 17 24
DOCKED: REMARK SMILES IDX 14 25 16 26 15 27
DOCKED: REMARK H PARENT 3 4 7 16
DOCKED: USER                              x       y       z     vdW  Elec       q    Type
DOCKED: USER                           _______ _______ _______ _____ _____    ______ ____
DOCKED: ROOT
DOCKED: ATOM      1  N   UNL     1     140.465  71.910 223.287 -0.19 +0.04    -0.348 N  
DOCKED: ATOM      2  C   UNL     1     139.999  72.771 222.266 -0.21 -0.03    +0.239 C  
DOCKED: ATOM      3  O   UNL     1     138.754  72.839 222.054 -0.16 +0.07    -0.273 OA 
DOCKED: ATOM      4  H   UNL     1     141.483  71.821 223.497 +0.10 +0.00    +0.164 HD 
DOCKED: ENDROOT
DOCKED: BRANCH   1   5
DOCKED: ATOM      5  C   UNL     1     139.527  71.132 224.065 -0.35 -0.02    +0.109 C  
DOCKED: ATOM      6  C   UNL     1     139.354  69.784 223.366 -0.23 -0.01    +0.036 C  
DOCKED: BRANCH   5   7
DOCKED: ATOM      7  C   UNL     1     140.077  70.973 225.428 -0.51 +0.00    -0.026 A  
DOCKED: ATOM      8  C   UNL     1     140.938  71.896 225.966 -0.56 -0.00    +0.006 A  
DOCKED: ATOM      9  C   UNL     1     139.694  69.848 226.156 -0.48 -0.00    +0.006 A  
DOCKED: ATOM     10  C   UNL     1     141.428  71.711 227.241 -0.71 -0.00    +0.000 A  
DOCKED: ATOM     11  C   UNL     1     140.209  69.708 227.419 -0.60 -0.00    +0.000 A  
DOCKED: ATOM     12  C   UNL     1     141.071  70.599 228.007 -0.65 -0.00    +0.000 A  
DOCKED: ENDBRANCH   5   7
DOCKED: ENDBRANCH   1   5
DOCKED: BRANCH   2  13
DOCKED: ATOM     13  C   UNL     1     140.992  73.555 221.487 -0.20 -0.02    +0.216 C  
DOCKED: BRANCH  13  14
DOCKED: ATOM     14  N   UNL     1     141.092  74.913 221.922 -0.13 +0.04    -0.342 N  
DOCKED: ATOM     15  C   UNL     1     139.978  75.794 221.949 -0.23 -0.05    +0.270 C  
DOCKED: ATOM     16  H   UNL     1     142.021  75.316 222.243 -0.37 -0.06    +0.164 HD 
DOCKED: ATOM     17  O   UNL     1     138.830  75.384 221.578 -0.17 +0.06    -0.268 OA 
DOCKED: BRANCH  15  18
DOCKED: ATOM     18  C   UNL     1     140.160  77.178 222.409 -0.32 -0.03    +0.128 A  
DOCKED: ATOM     19  C   UNL     1     139.055  77.951 222.700 -0.30 -0.01    +0.035 A  
DOCKED: ATOM     20  N   UNL     1     141.399  77.684 222.543 -0.23 +0.12    -0.243 NA 
DOCKED: ATOM     21  C   UNL     1     139.265  79.264 223.135 -0.36 -0.00    +0.013 A  
DOCKED: ATOM     22  C   UNL     1     141.664  78.923 222.952 -0.50 -0.03    +0.071 A  
DOCKED: ATOM     23  C   UNL     1     140.575  79.733 223.255 -0.47 -0.00    +0.000 A  
DOCKED: ATOM     24  C   UNL     1     142.948  79.405 223.076 -0.51 -0.01    +0.029 A  
DOCKED: ATOM     25  C   UNL     1     140.792  81.031 223.684 -0.41 -0.00    +0.010 A  
DOCKED: ATOM     26  C   UNL     1     143.185  80.675 223.496 -0.61 -0.00    +0.002 A  
DOCKED: ATOM     27  C   UNL     1     142.102  81.475 223.796 -0.59 -0.00    +0.001 A  
DOCKED: ENDBRANCH  15  18
DOCKED: ENDBRANCH  13  14
DOCKED: ENDBRANCH   2  13
DOCKED: TORSDOF 5
DOCKED: TER
DOCKED: ENDMDL
________________________________________________________________________________


    FINAL DOCKED STATE:
    ________________________


Run:   10 / 20
Time taken for this run:   0.021s

DOCKED: MODEL        10
DOCKED: USER    Run = 10
DOCKED: USER
DOCKED: USER    Estimated Free Energy of Binding    =  -8.41 kcal/mol  [=(1)+(2)+(3)-(4)]
DOCKED: USER
DOCKED: USER    (1) Final Intermolecular Energy     =  -9.90 kcal/mol
DOCKED: USER        vdW + Hbond + desolv Energy     =  -9.96 kcal/mol
DOCKED: USER        Electrostatic Energy            =  +0.06 kcal/mol
DOCKED: USER        Moving Ligand-Fixed Receptor    =  -9.90 kcal/mol
DOCKED: USER        Moving Ligand-Moving Receptor   =  +0.00 kcal/mol
DOCKED: USER    (2) Final Total Internal Energy     =  -1.17 kcal/mol
DOCKED: USER    (3) Torsional Free Energy           =  +1.49 kcal/mol
DOCKED: USER    (4) Unbound System's Energy         =  -1.17 kcal/mol
DOCKED: USER
DOCKED: USER
DOCKED: REMARK SMILES C[C@H](NC(=O)CNC(=O)c1ccc2ccccc2n1)c1ccccc1
DOCKED: REMARK SMILES IDX 3 1 4 2 5 3 2 5 1 6 20 7 21 8 25 9 22 10 24 11 23 12 6 13
DOCKED: REMARK SMILES IDX 7 14 8 15 9 17 10 18 11 19 19 20 12 21 18 22 13 23 17 24
DOCKED: REMARK SMILES IDX 14 25 16 26 15 27
DOCKED: REMARK H PARENT 3 4 7 16
DOCKED: USER                              x       y       z     vdW  Elec       q    Type
DOCKED: USER                           _______ _______ _______ _____ _____    ______ ____
DOCKED: ROOT
DOCKED: ATOM      1  N   UNL     1     140.474  71.787 223.178 -0.18 +0.04    -0.348 N  
DOCKED: ATOM      2  C   UNL     1     139.993  72.806 222.322 -0.20 -0.03    +0.239 C  
DOCKED: ATOM      3  O   UNL     1     138.746  73.009 222.267 -0.19 +0.08    -0.273 OA 
DOCKED: ATOM      4  H   UNL     1     141.495  71.584 223.256 +0.08 -0.00    +0.164 HD 
DOCKED: ENDROOT
DOCKED: BRANCH   1   5
DOCKED: ATOM      5  C   UNL     1     139.550  71.005 223.967 -0.34 -0.02    +0.109 C  
DOCKED: ATOM      6  C   UNL     1     139.475  69.611 223.344 -0.20 -0.01    +0.036 C  
DOCKED: BRANCH   5   7
DOCKED: ATOM      7  C   UNL     1     140.056  70.954 225.356 -0.50 +0.00    -0.026 A  
DOCKED: ATOM      8  C   UNL     1     140.938  71.890 225.832 -0.54 -0.00    +0.006 A  
DOCKED: ATOM      9  C   UNL     1     139.607  69.918 226.173 -0.47 -0.00    +0.006 A  
DOCKED: ATOM     10  C   UNL     1     141.385  71.807 227.133 -0.75 -0.00    +0.000 A  
DOCKED: ATOM     11  C   UNL     1     140.081  69.878 227.459 -0.60 -0.00    +0.000 A  
DOCKED: ATOM     12  C   UNL     1     140.963  70.787 227.988 -0.69 -0.00    +0.000 A  
DOCKED: ENDBRANCH   5   7
DOCKED: ENDBRANCH   1   5
DOCKED: BRANCH   2  13
DOCKED: ATOM     13  C   UNL     1     140.972  73.590 221.527 -0.20 -0.02    +0.216 C  
DOCKED: BRANCH  13  14
DOCKED: ATOM     14  N   UNL     1     141.075  74.949 221.956 -0.13 +0.04    -0.342 N  
DOCKED: ATOM     15  C   UNL     1     139.971  75.842 221.952 -0.24 -0.05    +0.270 C  
DOCKED: ATOM     16  H   UNL     1     142.000  75.344 222.298 -0.38 -0.06    +0.164 HD 
DOCKED: ATOM     17  O   UNL     1     138.827  75.443 221.555 -0.17 +0.06    -0.268 OA 
DOCKED: BRANCH  15  18
DOCKED: ATOM     18  C   UNL     1     140.156  77.226 222.409 -0.32 -0.03    +0.128 A  
DOCKED: ATOM     19  C   UNL     1     139.053  78.008 222.683 -0.30 -0.01    +0.035 A  
DOCKED: ATOM     20  N   UNL     1     141.397  77.724 222.557 -0.24 +0.12    -0.243 NA 
DOCKED: ATOM     21  C   UNL     1     139.267  79.321 223.115 -0.35 -0.00    +0.013 A  
DOCKED: ATOM     22  C   UNL     1     141.665  78.964 222.965 -0.51 -0.03    +0.071 A  
DOCKED: ATOM     23  C   UNL     1     140.578  79.782 223.250 -0.47 -0.00    +0.000 A  
DOCKED: ATOM     24  C   UNL     1     142.951  79.437 223.104 -0.51 -0.01    +0.029 A  
DOCKED: ATOM     25  C   UNL     1     140.798  81.080 223.677 -0.40 -0.00    +0.010 A  
DOCKED: ATOM     26  C   UNL     1     143.191  80.707 223.522 -0.60 -0.00    +0.002 A  
DOCKED: ATOM     27  C   UNL     1     142.110  81.515 223.804 -0.59 -0.00    +0.001 A  
DOCKED: ENDBRANCH  15  18
DOCKED: ENDBRANCH  13  14
DOCKED: ENDBRANCH   2  13
DOCKED: TORSDOF 5
DOCKED: TER
DOCKED: ENDMDL
________________________________________________________________________________


    FINAL DOCKED STATE:
    ________________________


Run:   11 / 20
Time taken for this run:   0.021s

DOCKED: MODEL        11
DOCKED: USER    Run = 11
DOCKED: USER
DOCKED: USER    Estimated Free Energy of Binding    =  -7.41 kcal/mol  [=(1)+(2)+(3)-(4)]
DOCKED: USER
DOCKED: USER    (1) Final Intermolecular Energy     =  -8.90 kcal/mol
DOCKED: USER        vdW + Hbond + desolv Energy     =  -8.86 kcal/mol
DOCKED: USER        Electrostatic Energy            =  -0.04 kcal/mol
DOCKED: USER        Moving Ligand-Fixed Receptor    =  -8.90 kcal/mol
DOCKED: USER        Moving Ligand-Moving Receptor   =  +0.00 kcal/mol
DOCKED: USER    (2) Final Total Internal Energy     =  -2.25 kcal/mol
DOCKED: USER    (3) Torsional Free Energy           =  +1.49 kcal/mol
DOCKED: USER    (4) Unbound System's Energy         =  -2.25 kcal/mol
DOCKED: USER
DOCKED: USER
DOCKED: REMARK SMILES C[C@H](NC(=O)CNC(=O)c1ccc2ccccc2n1)c1ccccc1
DOCKED: REMARK SMILES IDX 3 1 4 2 5 3 2 5 1 6 20 7 21 8 25 9 22 10 24 11 23 12 6 13
DOCKED: REMARK SMILES IDX 7 14 8 15 9 17 10 18 11 19 19 20 12 21 18 22 13 23 17 24
DOCKED: REMARK SMILES IDX 14 25 16 26 15 27
DOCKED: REMARK H PARENT 3 4 7 16
DOCKED: USER                              x       y       z     vdW  Elec       q    Type
DOCKED: USER                           _______ _______ _______ _____ _____    ______ ____
DOCKED: ROOT
DOCKED: ATOM      1  N   UNL     1     138.985  69.359 224.457 -0.13 +0.05    -0.348 N  
DOCKED: ATOM      2  C   UNL     1     137.752  69.937 224.071 -0.19 -0.03    +0.239 C  
DOCKED: ATOM      3  O   UNL     1     136.869  70.122 224.957 -0.12 +0.02    -0.273 OA 
DOCKED: ATOM      4  H   UNL     1     139.743  69.188 223.760 +0.02 -0.03    +0.164 HD 
DOCKED: ENDROOT
DOCKED: BRANCH   1   5
DOCKED: ATOM      5  C   UNL     1     139.216  68.994 225.836 -0.41 -0.01    +0.109 C  
DOCKED: ATOM      6  C   UNL     1     140.006  67.685 225.841 -0.54 -0.01    +0.036 C  
DOCKED: BRANCH   5   7
DOCKED: ATOM      7  C   UNL     1     139.970  70.088 226.484 -0.51 +0.00    -0.026 A  
DOCKED: ATOM      8  C   UNL     1     139.886  70.316 227.834 -0.61 -0.00    +0.006 A  
DOCKED: ATOM      9  C   UNL     1     140.776  70.889 225.676 -0.59 -0.00    +0.006 A  
DOCKED: ATOM     10  C   UNL     1     140.605  71.346 228.399 -0.65 -0.00    +0.000 A  
DOCKED: ATOM     11  C   UNL     1     141.472  71.901 226.285 -0.63 -0.00    +0.000 A  
DOCKED: ATOM     12  C   UNL     1     141.425  72.173 227.629 -0.81 -0.00    +0.000 A  
DOCKED: ENDBRANCH   5   7
DOCKED: ENDBRANCH   1   5
DOCKED: BRANCH   2  13
DOCKED: ATOM     13  C   UNL     1     137.551  70.300 222.645 -0.10 -0.04    +0.216 C  
DOCKED: BRANCH  13  14
DOCKED: ATOM     14  N   UNL     1     138.198  71.523 222.286 -0.06 +0.08    -0.342 N  
DOCKED: ATOM     15  C   UNL     1     139.610  71.650 222.201 -0.17 -0.05    +0.270 C  
DOCKED: ATOM     16  H   UNL     1     137.631  72.395 222.069 +0.02 -0.04    +0.164 HD 
DOCKED: ATOM     17  O   UNL     1     140.357  70.648 222.448 -0.08 +0.04    -0.268 OA 
DOCKED: BRANCH  15  18
DOCKED: ATOM     18  C   UNL     1     140.200  72.942 221.826 -0.24 -0.02    +0.128 A  
DOCKED: ATOM     19  C   UNL     1     141.352  72.972 221.069 -0.25 -0.00    +0.035 A  
DOCKED: ATOM     20  N   UNL     1     139.617  74.088 222.223 -0.71 +0.03    -0.243 NA 
DOCKED: ATOM     21  C   UNL     1     141.887  74.219 220.730 -0.28 -0.00    +0.013 A  
DOCKED: ATOM     22  C   UNL     1     140.077  75.304 221.933 -0.29 -0.01    +0.071 A  
DOCKED: ATOM     23  C   UNL     1     141.237  75.374 221.171 -0.33 -0.00    +0.000 A  
DOCKED: ATOM     24  C   UNL     1     139.450  76.454 222.359 -0.34 -0.01    +0.029 A  
DOCKED: ATOM     25  C   UNL     1     141.760  76.612 220.841 -0.21 -0.01    +0.010 A  
DOCKED: ATOM     26  C   UNL     1     139.944  77.681 222.047 -0.33 -0.00    +0.002 A  
DOCKED: ATOM     27  C   UNL     1     141.095  77.745 221.290 -0.33 -0.00    +0.001 A  
DOCKED: ENDBRANCH  15  18
DOCKED: ENDBRANCH  13  14
DOCKED: ENDBRANCH   2  13
DOCKED: TORSDOF 5
DOCKED: TER
DOCKED: ENDMDL
________________________________________________________________________________


    FINAL DOCKED STATE:
    ________________________


Run:   12 / 20
Time taken for this run:   0.021s

DOCKED: MODEL        12
DOCKED: USER    Run = 12
DOCKED: USER
DOCKED: USER    Estimated Free Energy of Binding    =  -8.52 kcal/mol  [=(1)+(2)+(3)-(4)]
DOCKED: USER
DOCKED: USER    (1) Final Intermolecular Energy     = -10.01 kcal/mol
DOCKED: USER        vdW + Hbond + desolv Energy     =  -9.93 kcal/mol
DOCKED: USER        Electrostatic Energy            =  -0.09 kcal/mol
DOCKED: USER        Moving Ligand-Fixed Receptor    = -10.01 kcal/mol
DOCKED: USER        Moving Ligand-Moving Receptor   =  +0.00 kcal/mol
DOCKED: USER    (2) Final Total Internal Energy     =  -0.96 kcal/mol
DOCKED: USER    (3) Torsional Free Energy           =  +1.49 kcal/mol
DOCKED: USER    (4) Unbound System's Energy         =  -0.96 kcal/mol
DOCKED: USER
DOCKED: USER
DOCKED: REMARK SMILES C[C@H](NC(=O)CNC(=O)c1ccc2ccccc2n1)c1ccccc1
DOCKED: REMARK SMILES IDX 3 1 4 2 5 3 2 5 1 6 20 7 21 8 25 9 22 10 24 11 23 12 6 13
DOCKED: REMARK SMILES IDX 7 14 8 15 9 17 10 18 11 19 19 20 12 21 18 22 13 23 17 24
DOCKED: REMARK SMILES IDX 14 25 16 26 15 27
DOCKED: REMARK H PARENT 3 4 7 16
DOCKED: USER                              x       y       z     vdW  Elec       q    Type
DOCKED: USER                           _______ _______ _______ _____ _____    ______ ____
DOCKED: ROOT
DOCKED: ATOM      1  N   UNL     1     140.643  76.482 220.780 -0.09 +0.12    -0.348 N  
DOCKED: ATOM      2  C   UNL     1     140.769  75.099 221.051 -0.20 -0.06    +0.239 C  
DOCKED: ATOM      3  O   UNL     1     141.928  74.620 221.221 -0.25 +0.07    -0.273 OA 
DOCKED: ATOM      4  H   UNL     1     139.707  76.920 220.633 +0.05 -0.05    +0.164 HD 
DOCKED: ENDROOT
DOCKED: BRANCH   1   5
DOCKED: ATOM      5  C   UNL     1     141.819  77.318 220.705 -0.20 -0.07    +0.109 C  
DOCKED: ATOM      6  C   UNL     1     141.894  77.883 219.287 -0.27 -0.02    +0.036 C  
DOCKED: BRANCH   5   7
DOCKED: ATOM      7  C   UNL     1     141.689  78.392 221.713 -0.36 +0.01    -0.026 A  
DOCKED: ATOM      8  C   UNL     1     141.428  78.110 223.030 -0.50 -0.00    +0.006 A  
DOCKED: ATOM      9  C   UNL     1     141.839  79.709 221.283 -0.40 -0.00    +0.006 A  
DOCKED: ATOM     10  C   UNL     1     141.315  79.139 223.939 -0.57 -0.00    +0.000 A  
DOCKED: ATOM     11  C   UNL     1     141.717  80.698 222.225 -0.49 -0.00    +0.000 A  
DOCKED: ATOM     12  C   UNL     1     141.458  80.474 223.553 -0.56 -0.00    +0.000 A  
DOCKED: ENDBRANCH   5   7
DOCKED: ENDBRANCH   1   5
DOCKED: BRANCH   2  13
DOCKED: ATOM     13  C   UNL     1     139.538  74.271 221.121 -0.16 -0.04    +0.216 C  
DOCKED: BRANCH  13  14
DOCKED: ATOM     14  N   UNL     1     139.493  73.440 222.283 -0.13 +0.07    -0.342 N  
DOCKED: ATOM     15  C   UNL     1     140.291  72.273 222.424 -0.21 -0.03    +0.270 C  
DOCKED: ATOM     16  H   UNL     1     138.848  73.671 223.094 -0.54 -0.10    +0.164 HD 
DOCKED: ATOM     17  O   UNL     1     141.090  71.929 221.492 -0.16 +0.03    -0.268 OA 
DOCKED: BRANCH  15  18
DOCKED: ATOM     18  C   UNL     1     140.189  71.469 223.649 -0.33 -0.02    +0.128 A  
DOCKED: ATOM     19  C   UNL     1     139.595  70.226 223.602 -0.28 -0.01    +0.035 A  
DOCKED: ATOM     20  N   UNL     1     140.674  71.948 224.809 -0.22 +0.03    -0.243 NA 
DOCKED: ATOM     21  C   UNL     1     139.514  69.488 224.787 -0.37 -0.00    +0.013 A  
DOCKED: ATOM     22  C   UNL     1     140.628  71.295 225.968 -0.56 -0.01    +0.071 A  
DOCKED: ATOM     23  C   UNL     1     140.036  70.038 225.961 -0.50 -0.00    +0.000 A  
DOCKED: ATOM     24  C   UNL     1     141.137  71.820 227.136 -0.76 -0.01    +0.029 A  
DOCKED: ATOM     25  C   UNL     1     139.960  69.314 227.138 -0.57 -0.00    +0.010 A  
DOCKED: ATOM     26  C   UNL     1     141.074  71.128 228.304 -0.68 -0.00    +0.002 A  
DOCKED: ATOM     27  C   UNL     1     140.485  69.881 228.291 -0.59 -0.00    +0.001 A  
DOCKED: ENDBRANCH  15  18
DOCKED: ENDBRANCH  13  14
DOCKED: ENDBRANCH   2  13
DOCKED: TORSDOF 5
DOCKED: TER
DOCKED: ENDMDL
________________________________________________________________________________


    FINAL DOCKED STATE:
    ________________________


Run:   13 / 20
Time taken for this run:   0.021s

DOCKED: MODEL        13
DOCKED: USER    Run = 13
DOCKED: USER
DOCKED: USER    Estimated Free Energy of Binding    =  -8.46 kcal/mol  [=(1)+(2)+(3)-(4)]
DOCKED: USER
DOCKED: USER    (1) Final Intermolecular Energy     =  -9.95 kcal/mol
DOCKED: USER        vdW + Hbond + desolv Energy     =  -9.83 kcal/mol
DOCKED: USER        Electrostatic Energy            =  -0.13 kcal/mol
DOCKED: USER        Moving Ligand-Fixed Receptor    =  -9.95 kcal/mol
DOCKED: USER        Moving Ligand-Moving Receptor   =  +0.00 kcal/mol
DOCKED: USER    (2) Final Total Internal Energy     =  -0.98 kcal/mol
DOCKED: USER    (3) Torsional Free Energy           =  +1.49 kcal/mol
DOCKED: USER    (4) Unbound System's Energy         =  -0.98 kcal/mol
DOCKED: USER
DOCKED: USER
DOCKED: REMARK SMILES C[C@H](NC(=O)CNC(=O)c1ccc2ccccc2n1)c1ccccc1
DOCKED: REMARK SMILES IDX 3 1 4 2 5 3 2 5 1 6 20 7 21 8 25 9 22 10 24 11 23 12 6 13
DOCKED: REMARK SMILES IDX 7 14 8 15 9 17 10 18 11 19 19 20 12 21 18 22 13 23 17 24
DOCKED: REMARK SMILES IDX 14 25 16 26 15 27
DOCKED: REMARK H PARENT 3 4 7 16
DOCKED: USER                              x       y       z     vdW  Elec       q    Type
DOCKED: USER                           _______ _______ _______ _____ _____    ______ ____
DOCKED: ROOT
DOCKED: ATOM      1  N   UNL     1     140.985  77.046 222.101 -0.20 +0.14    -0.348 N  
DOCKED: ATOM      2  C   UNL     1     139.836  76.235 221.942 -0.25 -0.05    +0.239 C  
DOCKED: ATOM      3  O   UNL     1     138.713  76.705 222.285 -0.21 +0.06    -0.273 OA 
DOCKED: ATOM      4  H   UNL     1     141.932  76.699 221.832 -0.50 -0.13    +0.164 HD 
DOCKED: ENDROOT
DOCKED: BRANCH   1   5
DOCKED: ATOM      5  C   UNL     1     140.864  78.380 222.644 -0.41 -0.04    +0.109 C  
DOCKED: ATOM      6  C   UNL     1     141.828  78.487 223.825 -0.51 -0.01    +0.036 C  
DOCKED: BRANCH   5   7
DOCKED: ATOM      7  C   UNL     1     141.200  79.346 221.576 -0.35 +0.01    -0.026 A  
DOCKED: ATOM      8  C   UNL     1     141.567  78.929 220.322 -0.29 -0.00    +0.006 A  
DOCKED: ATOM      9  C   UNL     1     141.135  80.704 221.884 -0.39 -0.00    +0.006 A  
DOCKED: ATOM     10  C   UNL     1     141.872  79.861 219.355 -0.30 -0.00    +0.000 A  
DOCKED: ATOM     11  C   UNL     1     141.448  81.592 220.888 -0.35 -0.00    +0.000 A  
DOCKED: ATOM     12  C   UNL     1     141.820  81.232 219.618 -0.27 -0.00    +0.000 A  
DOCKED: ENDBRANCH   5   7
DOCKED: ENDBRANCH   1   5
DOCKED: BRANCH   2  13
DOCKED: ATOM     13  C   UNL     1     140.000  74.870 221.381 -0.21 -0.04    +0.216 C  
DOCKED: BRANCH  13  14
DOCKED: ATOM     14  N   UNL     1     139.779  73.842 222.349 -0.07 +0.03    -0.342 N  
DOCKED: ATOM     15  C   UNL     1     140.588  72.677 222.431 -0.15 -0.02    +0.270 C  
DOCKED: ATOM     16  H   UNL     1     138.987  73.916 223.052 -0.55 -0.09    +0.164 HD 
DOCKED: ATOM     17  O   UNL     1     141.559  72.515 221.620 -0.21 +0.02    -0.268 OA 
DOCKED: BRANCH  15  18
DOCKED: ATOM     18  C   UNL     1     140.298  71.663 223.454 -0.32 -0.02    +0.128 A  
DOCKED: ATOM     19  C   UNL     1     139.625  70.512 223.104 -0.25 -0.01    +0.035 A  
DOCKED: ATOM     20  N   UNL     1     140.690  71.863 224.726 -0.27 +0.03    -0.243 NA 
DOCKED: ATOM     21  C   UNL     1     139.366  69.569 224.104 -0.31 -0.00    +0.013 A  
DOCKED: ATOM     22  C   UNL     1     140.473  71.004 225.721 -0.53 -0.01    +0.071 A  
DOCKED: ATOM     23  C   UNL     1     139.797  69.832 225.406 -0.44 -0.00    +0.000 A  
DOCKED: ATOM     24  C   UNL     1     140.890  71.245 227.012 -0.69 -0.00    +0.029 A  
DOCKED: ATOM     25  C   UNL     1     139.544  68.904 226.401 -0.53 -0.00    +0.010 A  
DOCKED: ATOM     26  C   UNL     1     140.654  70.349 228.006 -0.64 -0.00    +0.002 A  
DOCKED: ATOM     27  C   UNL     1     139.983  69.187 227.688 -0.62 -0.00    +0.001 A  
DOCKED: ENDBRANCH  15  18
DOCKED: ENDBRANCH  13  14
DOCKED: ENDBRANCH   2  13
DOCKED: TORSDOF 5
DOCKED: TER
DOCKED: ENDMDL
________________________________________________________________________________


    FINAL DOCKED STATE:
    ________________________


Run:   14 / 20
Time taken for this run:   0.021s

DOCKED: MODEL        14
DOCKED: USER    Run = 14
DOCKED: USER
DOCKED: USER    Estimated Free Energy of Binding    =  -8.35 kcal/mol  [=(1)+(2)+(3)-(4)]
DOCKED: USER
DOCKED: USER    (1) Final Intermolecular Energy     =  -9.84 kcal/mol
DOCKED: USER        vdW + Hbond + desolv Energy     =  -9.91 kcal/mol
DOCKED: USER        Electrostatic Energy            =  +0.07 kcal/mol
DOCKED: USER        Moving Ligand-Fixed Receptor    =  -9.84 kcal/mol
DOCKED: USER        Moving Ligand-Moving Receptor   =  +0.00 kcal/mol
DOCKED: USER    (2) Final Total Internal Energy     =  -1.20 kcal/mol
DOCKED: USER    (3) Torsional Free Energy           =  +1.49 kcal/mol
DOCKED: USER    (4) Unbound System's Energy         =  -1.20 kcal/mol
DOCKED: USER
DOCKED: USER
DOCKED: REMARK SMILES C[C@H](NC(=O)CNC(=O)c1ccc2ccccc2n1)c1ccccc1
DOCKED: REMARK SMILES IDX 3 1 4 2 5 3 2 5 1 6 20 7 21 8 25 9 22 10 24 11 23 12 6 13
DOCKED: REMARK SMILES IDX 7 14 8 15 9 17 10 18 11 19 19 20 12 21 18 22 13 23 17 24
DOCKED: REMARK SMILES IDX 14 25 16 26 15 27
DOCKED: REMARK H PARENT 3 4 7 16
DOCKED: USER                              x       y       z     vdW  Elec       q    Type
DOCKED: USER                           _______ _______ _______ _____ _____    ______ ____
DOCKED: ROOT
DOCKED: ATOM      1  N   UNL     1     140.443  71.776 223.179 -0.19 +0.04    -0.348 N  
DOCKED: ATOM      2  C   UNL     1     139.930  72.773 222.315 -0.20 -0.03    +0.239 C  
DOCKED: ATOM      3  O   UNL     1     138.678  72.947 222.271 -0.18 +0.08    -0.273 OA 
DOCKED: ATOM      4  H   UNL     1     141.468  71.597 223.249 +0.08 -0.00    +0.164 HD 
DOCKED: ENDROOT
DOCKED: BRANCH   1   5
DOCKED: ATOM      5  C   UNL     1     139.545  70.985 223.989 -0.34 -0.02    +0.109 C  
DOCKED: ATOM      6  C   UNL     1     139.501  69.579 223.391 -0.19 -0.01    +0.036 C  
DOCKED: BRANCH   5   7
DOCKED: ATOM      7  C   UNL     1     140.062  70.972 225.375 -0.50 +0.00    -0.026 A  
DOCKED: ATOM      8  C   UNL     1     140.969  71.904 225.810 -0.51 -0.00    +0.006 A  
DOCKED: ATOM      9  C   UNL     1     139.597  69.976 226.232 -0.47 -0.00    +0.006 A  
DOCKED: ATOM     10  C   UNL     1     141.426  71.858 227.109 -0.75 -0.00    +0.000 A  
DOCKED: ATOM     11  C   UNL     1     140.082  69.971 227.515 -0.60 -0.00    +0.000 A  
DOCKED: ATOM     12  C   UNL     1     140.988  70.878 228.003 -0.70 -0.00    +0.000 A  
DOCKED: ENDBRANCH   5   7
DOCKED: ENDBRANCH   1   5
DOCKED: BRANCH   2  13
DOCKED: ATOM     13  C   UNL     1     140.883  73.566 221.498 -0.20 -0.02    +0.216 C  
DOCKED: BRANCH  13  14
DOCKED: ATOM     14  N   UNL     1     141.003  74.919 221.944 -0.14 +0.04    -0.342 N  
DOCKED: ATOM     15  C   UNL     1     139.915  75.832 221.929 -0.23 -0.05    +0.270 C  
DOCKED: ATOM     16  H   UNL     1     141.929  75.294 222.306 -0.32 -0.05    +0.164 HD 
DOCKED: ATOM     17  O   UNL     1     138.771  75.457 221.508 -0.15 +0.06    -0.268 OA 
DOCKED: BRANCH  15  18
DOCKED: ATOM     18  C   UNL     1     140.117  77.208 222.404 -0.32 -0.03    +0.128 A  
DOCKED: ATOM     19  C   UNL     1     139.024  77.985 222.729 -0.29 -0.01    +0.035 A  
DOCKED: ATOM     20  N   UNL     1     141.363  77.703 222.517 -0.23 +0.11    -0.243 NA 
DOCKED: ATOM     21  C   UNL     1     139.254  79.290 223.177 -0.36 -0.00    +0.013 A  
DOCKED: ATOM     22  C   UNL     1     141.645  78.935 222.937 -0.50 -0.03    +0.071 A  
DOCKED: ATOM     23  C   UNL     1     140.569  79.748 223.274 -0.47 -0.00    +0.000 A  
DOCKED: ATOM     24  C   UNL     1     142.936  79.406 223.040 -0.51 -0.01    +0.029 A  
DOCKED: ATOM     25  C   UNL     1     140.804  81.039 223.716 -0.41 -0.00    +0.010 A  
DOCKED: ATOM     26  C   UNL     1     143.191  80.669 223.471 -0.61 -0.00    +0.002 A  
DOCKED: ATOM     27  C   UNL     1     142.121  81.472 223.805 -0.60 -0.00    +0.001 A  
DOCKED: ENDBRANCH  15  18
DOCKED: ENDBRANCH  13  14
DOCKED: ENDBRANCH   2  13
DOCKED: TORSDOF 5
DOCKED: TER
DOCKED: ENDMDL
________________________________________________________________________________


    FINAL DOCKED STATE:
    ________________________


Run:   15 / 20
Time taken for this run:   0.021s

DOCKED: MODEL        15
DOCKED: USER    Run = 15
DOCKED: USER
DOCKED: USER    Estimated Free Energy of Binding    =  -8.36 kcal/mol  [=(1)+(2)+(3)-(4)]
DOCKED: USER
DOCKED: USER    (1) Final Intermolecular Energy     =  -9.85 kcal/mol
DOCKED: USER        vdW + Hbond + desolv Energy     =  -9.91 kcal/mol
DOCKED: USER        Electrostatic Energy            =  +0.06 kcal/mol
DOCKED: USER        Moving Ligand-Fixed Receptor    =  -9.85 kcal/mol
DOCKED: USER        Moving Ligand-Moving Receptor   =  +0.00 kcal/mol
DOCKED: USER    (2) Final Total Internal Energy     =  -1.19 kcal/mol
DOCKED: USER    (3) Torsional Free Energy           =  +1.49 kcal/mol
DOCKED: USER    (4) Unbound System's Energy         =  -1.19 kcal/mol
DOCKED: USER
DOCKED: USER
DOCKED: REMARK SMILES C[C@H](NC(=O)CNC(=O)c1ccc2ccccc2n1)c1ccccc1
DOCKED: REMARK SMILES IDX 3 1 4 2 5 3 2 5 1 6 20 7 21 8 25 9 22 10 24 11 23 12 6 13
DOCKED: REMARK SMILES IDX 7 14 8 15 9 17 10 18 11 19 19 20 12 21 18 22 13 23 17 24
DOCKED: REMARK SMILES IDX 14 25 16 26 15 27
DOCKED: REMARK H PARENT 3 4 7 16
DOCKED: USER                              x       y       z     vdW  Elec       q    Type
DOCKED: USER                           _______ _______ _______ _____ _____    ______ ____
DOCKED: ROOT
DOCKED: ATOM      1  N   UNL     1     140.443  71.911 223.314 -0.19 +0.04    -0.348 N  
DOCKED: ATOM      2  C   UNL     1     140.008  72.706 222.227 -0.21 -0.03    +0.239 C  
DOCKED: ATOM      3  O   UNL     1     138.778  72.706 221.933 -0.14 +0.07    -0.273 OA 
DOCKED: ATOM      4  H   UNL     1     141.448  71.880 223.592 +0.09 +0.00    +0.164 HD 
DOCKED: ENDROOT
DOCKED: BRANCH   1   5
DOCKED: ATOM      5  C   UNL     1     139.492  71.123 224.063 -0.34 -0.02    +0.109 C  
DOCKED: ATOM      6  C   UNL     1     139.325  69.787 223.338 -0.23 -0.01    +0.036 C  
DOCKED: BRANCH   5   7
DOCKED: ATOM      7  C   UNL     1     140.021  70.937 225.432 -0.50 +0.00    -0.026 A  
DOCKED: ATOM      8  C   UNL     1     139.640  69.874 226.210 -0.47 -0.00    +0.006 A  
DOCKED: ATOM      9  C   UNL     1     140.926  71.883 225.912 -0.56 -0.00    +0.006 A  
DOCKED: ATOM     10  C   UNL     1     140.157  69.737 227.479 -0.60 -0.00    +0.000 A  
DOCKED: ATOM     11  C   UNL     1     141.412  71.703 227.181 -0.72 -0.00    +0.000 A  
DOCKED: ATOM     12  C   UNL     1     141.067  70.660 228.002 -0.66 -0.00    +0.000 A  
DOCKED: ENDBRANCH   5   7
DOCKED: ENDBRANCH   1   5
DOCKED: BRANCH   2  13
DOCKED: ATOM     13  C   UNL     1     141.015  73.503 221.480 -0.20 -0.02    +0.216 C  
DOCKED: BRANCH  13  14
DOCKED: ATOM     14  N   UNL     1     141.098  74.856 221.932 -0.11 +0.04    -0.342 N  
DOCKED: ATOM     15  C   UNL     1     139.983  75.737 221.931 -0.23 -0.05    +0.270 C  
DOCKED: ATOM     16  H   UNL     1     142.015  75.256 222.289 -0.35 -0.05    +0.164 HD 
DOCKED: ATOM     17  O   UNL     1     138.848  75.330 221.516 -0.16 +0.06    -0.268 OA 
DOCKED: BRANCH  15  18
DOCKED: ATOM     18  C   UNL     1     140.148  77.115 222.412 -0.32 -0.03    +0.128 A  
DOCKED: ATOM     19  C   UNL     1     139.035  77.860 222.742 -0.29 -0.01    +0.035 A  
DOCKED: ATOM     20  N   UNL     1     141.380  77.644 222.526 -0.22 +0.12    -0.243 NA 
DOCKED: ATOM     21  C   UNL     1     139.229  79.169 223.196 -0.36 -0.00    +0.013 A  
DOCKED: ATOM     22  C   UNL     1     141.629  78.881 222.951 -0.50 -0.03    +0.071 A  
DOCKED: ATOM     23  C   UNL     1     140.532  79.663 223.294 -0.47 -0.00    +0.000 A  
DOCKED: ATOM     24  C   UNL     1     142.906  79.387 223.055 -0.51 -0.01    +0.029 A  
DOCKED: ATOM     25  C   UNL     1     140.732  80.957 223.742 -0.41 -0.00    +0.010 A  
DOCKED: ATOM     26  C   UNL     1     143.128  80.654 223.492 -0.63 -0.00    +0.002 A  
DOCKED: ATOM     27  C   UNL     1     142.036  81.426 223.831 -0.60 -0.00    +0.001 A  
DOCKED: ENDBRANCH  15  18
DOCKED: ENDBRANCH  13  14
DOCKED: ENDBRANCH   2  13
DOCKED: TORSDOF 5
DOCKED: TER
DOCKED: ENDMDL
________________________________________________________________________________


    FINAL DOCKED STATE:
    ________________________


Run:   16 / 20
Time taken for this run:   0.021s

DOCKED: MODEL        16
DOCKED: USER    Run = 16
DOCKED: USER
DOCKED: USER    Estimated Free Energy of Binding    =  -8.39 kcal/mol  [=(1)+(2)+(3)-(4)]
DOCKED: USER
DOCKED: USER    (1) Final Intermolecular Energy     =  -9.89 kcal/mol
DOCKED: USER        vdW + Hbond + desolv Energy     =  -9.95 kcal/mol
DOCKED: USER        Electrostatic Energy            =  +0.06 kcal/mol
DOCKED: USER        Moving Ligand-Fixed Receptor    =  -9.89 kcal/mol
DOCKED: USER        Moving Ligand-Moving Receptor   =  +0.00 kcal/mol
DOCKED: USER    (2) Final Total Internal Energy     =  -1.16 kcal/mol
DOCKED: USER    (3) Torsional Free Energy           =  +1.49 kcal/mol
DOCKED: USER    (4) Unbound System's Energy         =  -1.16 kcal/mol
DOCKED: USER
DOCKED: USER
DOCKED: REMARK SMILES C[C@H](NC(=O)CNC(=O)c1ccc2ccccc2n1)c1ccccc1
DOCKED: REMARK SMILES IDX 3 1 4 2 5 3 2 5 1 6 20 7 21 8 25 9 22 10 24 11 23 12 6 13
DOCKED: REMARK SMILES IDX 7 14 8 15 9 17 10 18 11 19 19 20 12 21 18 22 13 23 17 24
DOCKED: REMARK SMILES IDX 14 25 16 26 15 27
DOCKED: REMARK H PARENT 3 4 7 16
DOCKED: USER                              x       y       z     vdW  Elec       q    Type
DOCKED: USER                           _______ _______ _______ _____ _____    ______ ____
DOCKED: ROOT
DOCKED: ATOM      1  N   UNL     1     140.454  71.776 223.176 -0.18 +0.04    -0.348 N  
DOCKED: ATOM      2  C   UNL     1     139.987  72.821 222.345 -0.20 -0.03    +0.239 C  
DOCKED: ATOM      3  O   UNL     1     138.744  73.053 222.307 -0.20 +0.08    -0.273 OA 
DOCKED: ATOM      4  H   UNL     1     141.471  71.549 223.238 +0.08 -0.00    +0.164 HD 
DOCKED: ENDROOT
DOCKED: BRANCH   1   5
DOCKED: ATOM      5  C   UNL     1     139.522  70.999 223.962 -0.33 -0.02    +0.109 C  
DOCKED: ATOM      6  C   UNL     1     139.420  69.615 223.322 -0.20 -0.01    +0.036 C  
DOCKED: BRANCH   5   7
DOCKED: ATOM      7  C   UNL     1     140.035  70.923 225.346 -0.50 +0.00    -0.026 A  
DOCKED: ATOM      8  C   UNL     1     139.619  69.944 226.212 -0.47 -0.00    +0.006 A  
DOCKED: ATOM      9  C   UNL     1     140.961  71.884 225.750 -0.52 -0.00    +0.006 A  
DOCKED: ATOM     10  C   UNL     1     140.121  69.908 227.494 -0.60 -0.00    +0.000 A  
DOCKED: ATOM     11  C   UNL     1     141.432  71.806 227.035 -0.74 -0.00    +0.000 A  
DOCKED: ATOM     12  C   UNL     1     141.051  70.849 227.942 -0.70 -0.00    +0.000 A  
DOCKED: ENDBRANCH   5   7
DOCKED: ENDBRANCH   1   5
DOCKED: BRANCH   2  13
DOCKED: ATOM     13  C   UNL     1     140.975  73.597 221.552 -0.20 -0.02    +0.216 C  
DOCKED: BRANCH  13  14
DOCKED: ATOM     14  N   UNL     1     141.075  74.960 221.972 -0.13 +0.04    -0.342 N  
DOCKED: ATOM     15  C   UNL     1     139.970  75.852 221.957 -0.24 -0.05    +0.270 C  
DOCKED: ATOM     16  H   UNL     1     141.999  75.358 222.314 -0.38 -0.06    +0.164 HD 
DOCKED: ATOM     17  O   UNL     1     138.828  75.448 221.559 -0.17 +0.06    -0.268 OA 
DOCKED: BRANCH  15  18
DOCKED: ATOM     18  C   UNL     1     140.152  77.239 222.404 -0.32 -0.03    +0.128 A  
DOCKED: ATOM     19  C   UNL     1     139.048  78.018 222.680 -0.30 -0.01    +0.035 A  
DOCKED: ATOM     20  N   UNL     1     141.392  77.743 222.541 -0.24 +0.11    -0.243 NA 
DOCKED: ATOM     21  C   UNL     1     139.259  79.335 223.102 -0.35 -0.00    +0.013 A  
DOCKED: ATOM     22  C   UNL     1     141.657  78.986 222.939 -0.50 -0.03    +0.071 A  
DOCKED: ATOM     23  C   UNL     1     140.569  79.802 223.226 -0.46 -0.00    +0.000 A  
DOCKED: ATOM     24  C   UNL     1     142.943  79.466 223.067 -0.52 -0.01    +0.029 A  
DOCKED: ATOM     25  C   UNL     1     140.786  81.103 223.644 -0.40 -0.00    +0.010 A  
DOCKED: ATOM     26  C   UNL     1     143.180  80.740 223.475 -0.59 -0.00    +0.002 A  
DOCKED: ATOM     27  C   UNL     1     142.097  81.545 223.760 -0.58 -0.00    +0.001 A  
DOCKED: ENDBRANCH  15  18
DOCKED: ENDBRANCH  13  14
DOCKED: ENDBRANCH   2  13
DOCKED: TORSDOF 5
DOCKED: TER
DOCKED: ENDMDL
________________________________________________________________________________


    FINAL DOCKED STATE:
    ________________________


Run:   17 / 20
Time taken for this run:   0.021s

DOCKED: MODEL        17
DOCKED: USER    Run = 17
DOCKED: USER
DOCKED: USER    Estimated Free Energy of Binding    =  -7.09 kcal/mol  [=(1)+(2)+(3)-(4)]
DOCKED: USER
DOCKED: USER    (1) Final Intermolecular Energy     =  -8.58 kcal/mol
DOCKED: USER        vdW + Hbond + desolv Energy     =  -8.56 kcal/mol
DOCKED: USER        Electrostatic Energy            =  -0.02 kcal/mol
DOCKED: USER        Moving Ligand-Fixed Receptor    =  -8.58 kcal/mol
DOCKED: USER        Moving Ligand-Moving Receptor   =  +0.00 kcal/mol
DOCKED: USER    (2) Final Total Internal Energy     =  -2.28 kcal/mol
DOCKED: USER    (3) Torsional Free Energy           =  +1.49 kcal/mol
DOCKED: USER    (4) Unbound System's Energy         =  -2.28 kcal/mol
DOCKED: USER
DOCKED: USER
DOCKED: REMARK SMILES C[C@H](NC(=O)CNC(=O)c1ccc2ccccc2n1)c1ccccc1
DOCKED: REMARK SMILES IDX 3 1 4 2 5 3 2 5 1 6 20 7 21 8 25 9 22 10 24 11 23 12 6 13
DOCKED: REMARK SMILES IDX 7 14 8 15 9 17 10 18 11 19 19 20 12 21 18 22 13 23 17 24
DOCKED: REMARK SMILES IDX 14 25 16 26 15 27
DOCKED: REMARK H PARENT 3 4 7 16
DOCKED: USER                              x       y       z     vdW  Elec       q    Type
DOCKED: USER                           _______ _______ _______ _____ _____    ______ ____
DOCKED: ROOT
DOCKED: ATOM      1  N   UNL     1     138.511  70.032 224.229 -0.12 +0.06    -0.348 N  
DOCKED: ATOM      2  C   UNL     1     137.180  70.473 224.041 -0.15 -0.04    +0.239 C  
DOCKED: ATOM      3  O   UNL     1     136.329  70.228 224.943 -0.12 +0.02    -0.273 OA 
DOCKED: ATOM      4  H   UNL     1     139.247  70.212 223.511 +0.07 -0.03    +0.164 HD 
DOCKED: ENDROOT
DOCKED: BRANCH   1   5
DOCKED: ATOM      5  C   UNL     1     138.877  69.321 225.433 -0.36 -0.01    +0.109 C  
DOCKED: ATOM      6  C   UNL     1     139.570  68.026 225.011 -0.34 -0.00    +0.036 C  
DOCKED: BRANCH   5   7
DOCKED: ATOM      7  C   UNL     1     139.777  70.186 226.226 -0.46 +0.00    -0.026 A  
DOCKED: ATOM      8  C   UNL     1     140.594  71.111 225.627 -0.58 -0.00    +0.006 A  
DOCKED: ATOM      9  C   UNL     1     139.771  70.033 227.612 -0.57 -0.00    +0.006 A  
DOCKED: ATOM     10  C   UNL     1     141.416  71.899 226.402 -0.69 -0.00    +0.000 A  
DOCKED: ATOM     11  C   UNL     1     140.607  70.839 228.339 -0.62 -0.00    +0.000 A  
DOCKED: ATOM     12  C   UNL     1     141.444  71.780 227.794 -0.74 -0.00    +0.000 A  
DOCKED: ENDBRANCH   5   7
DOCKED: ENDBRANCH   1   5
DOCKED: BRANCH   2  13
DOCKED: ATOM     13  C   UNL     1     136.841  71.201 222.791 -0.10 -0.04    +0.216 C  
DOCKED: BRANCH  13  14
DOCKED: ATOM     14  N   UNL     1     137.581  72.415 222.638 -0.05 +0.11    -0.342 N  
DOCKED: ATOM     15  C   UNL     1     138.884  72.455 222.075 -0.13 -0.07    +0.270 C  
DOCKED: ATOM     16  H   UNL     1     137.172  73.345 222.948 -0.36 -0.08    +0.164 HD 
DOCKED: ATOM     17  O   UNL     1     139.442  71.380 221.679 -0.10 +0.05    -0.268 OA 
DOCKED: BRANCH  15  18
DOCKED: ATOM     18  C   UNL     1     139.581  73.743 221.950 -0.23 -0.02    +0.128 A  
DOCKED: ATOM     19  C   UNL     1     140.864  73.778 221.445 -0.28 -0.00    +0.035 A  
DOCKED: ATOM     20  N   UNL     1     138.967  74.878 222.331 -0.38 +0.06    -0.243 NA 
DOCKED: ATOM     21  C   UNL     1     141.497  75.021 221.341 -0.29 -0.00    +0.013 A  
DOCKED: ATOM     22  C   UNL     1     139.516  76.089 222.256 -0.32 -0.01    +0.071 A  
DOCKED: ATOM     23  C   UNL     1     140.809  76.165 221.752 -0.37 -0.00    +0.000 A  
DOCKED: ATOM     24  C   UNL     1     138.854  77.229 222.655 -0.29 -0.01    +0.029 A  
DOCKED: ATOM     25  C   UNL     1     141.429  77.398 221.652 -0.27 -0.01    +0.010 A  
DOCKED: ATOM     26  C   UNL     1     139.442  78.451 222.568 -0.32 -0.00    +0.002 A  
DOCKED: ATOM     27  C   UNL     1     140.725  78.521 222.066 -0.37 -0.00    +0.001 A  
DOCKED: ENDBRANCH  15  18
DOCKED: ENDBRANCH  13  14
DOCKED: ENDBRANCH   2  13
DOCKED: TORSDOF 5
DOCKED: TER
DOCKED: ENDMDL
________________________________________________________________________________


    FINAL DOCKED STATE:
    ________________________


Run:   18 / 20
Time taken for this run:   0.021s

DOCKED: MODEL        18
DOCKED: USER    Run = 18
DOCKED: USER
DOCKED: USER    Estimated Free Energy of Binding    =  -8.38 kcal/mol  [=(1)+(2)+(3)-(4)]
DOCKED: USER
DOCKED: USER    (1) Final Intermolecular Energy     =  -9.88 kcal/mol
DOCKED: USER        vdW + Hbond + desolv Energy     =  -9.89 kcal/mol
DOCKED: USER        Electrostatic Energy            =  +0.01 kcal/mol
DOCKED: USER        Moving Ligand-Fixed Receptor    =  -9.88 kcal/mol
DOCKED: USER        Moving Ligand-Moving Receptor   =  +0.00 kcal/mol
DOCKED: USER    (2) Final Total Internal Energy     =  -1.18 kcal/mol
DOCKED: USER    (3) Torsional Free Energy           =  +1.49 kcal/mol
DOCKED: USER    (4) Unbound System's Energy         =  -1.18 kcal/mol
DOCKED: USER
DOCKED: USER
DOCKED: REMARK SMILES C[C@H](NC(=O)CNC(=O)c1ccc2ccccc2n1)c1ccccc1
DOCKED: REMARK SMILES IDX 3 1 4 2 5 3 2 5 1 6 20 7 21 8 25 9 22 10 24 11 23 12 6 13
DOCKED: REMARK SMILES IDX 7 14 8 15 9 17 10 18 11 19 19 20 12 21 18 22 13 23 17 24
DOCKED: REMARK SMILES IDX 14 25 16 26 15 27
DOCKED: REMARK H PARENT 3 4 7 16
DOCKED: USER                              x       y       z     vdW  Elec       q    Type
DOCKED: USER                           _______ _______ _______ _____ _____    ______ ____
DOCKED: ROOT
DOCKED: ATOM      1  N   UNL     1     140.839  76.365 221.680 -0.18 +0.12    -0.348 N  
DOCKED: ATOM      2  C   UNL     1     140.194  75.231 221.131 -0.19 -0.05    +0.239 C  
DOCKED: ATOM      3  O   UNL     1     139.004  75.352 220.722 -0.07 +0.06    -0.273 OA 
DOCKED: ATOM      4  H   UNL     1     141.821  76.311 222.030 -0.52 -0.10    +0.164 HD 
DOCKED: ENDROOT
DOCKED: BRANCH   1   5
DOCKED: ATOM      5  C   UNL     1     140.141  77.627 221.765 -0.27 -0.03    +0.109 C  
DOCKED: ATOM      6  C   UNL     1     138.950  77.434 222.702 -0.27 -0.01    +0.036 C  
DOCKED: BRANCH   5   7
DOCKED: ATOM      7  C   UNL     1     141.083  78.643 222.283 -0.41 +0.01    -0.026 A  
DOCKED: ATOM      8  C   UNL     1     141.702  79.538 221.448 -0.40 -0.00    +0.006 A  
DOCKED: ATOM      9  C   UNL     1     141.327  78.663 223.655 -0.55 -0.00    +0.006 A  
DOCKED: ATOM     10  C   UNL     1     142.573  80.469 221.971 -0.50 -0.00    +0.000 A  
DOCKED: ATOM     11  C   UNL     1     142.202  79.607 224.127 -0.51 -0.00    +0.000 A  
DOCKED: ATOM     12  C   UNL     1     142.848  80.526 223.339 -0.68 -0.00    +0.000 A  
DOCKED: ENDBRANCH   5   7
DOCKED: ENDBRANCH   1   5
DOCKED: BRANCH   2  13
DOCKED: ATOM     13  C   UNL     1     140.943  73.951 221.060 -0.20 -0.04    +0.216 C  
DOCKED: BRANCH  13  14
DOCKED: ATOM     14  N   UNL     1     140.835  73.177 222.257 -0.10 -0.00    -0.342 N  
DOCKED: ATOM     15  C   UNL     1     139.945  72.077 222.384 -0.21 -0.04    +0.270 C  
DOCKED: ATOM     16  H   UNL     1     141.427  73.405 223.109 +0.16 +0.06    +0.164 HD 
DOCKED: ATOM     17  O   UNL     1     139.201  71.741 221.404 -0.08 +0.05    -0.268 OA 
DOCKED: BRANCH  15  18
DOCKED: ATOM     18  C   UNL     1     139.891  71.330 223.648 -0.33 -0.02    +0.128 A  
DOCKED: ATOM     19  C   UNL     1     139.249  70.110 223.692 -0.28 -0.01    +0.035 A  
DOCKED: ATOM     20  N   UNL     1     140.464  71.839 224.753 -0.27 +0.04    -0.243 NA 
DOCKED: ATOM     21  C   UNL     1     139.216  69.427 224.912 -0.38 -0.00    +0.013 A  
DOCKED: ATOM     22  C   UNL     1     140.466  71.237 225.942 -0.54 -0.01    +0.071 A  
DOCKED: ATOM     23  C   UNL     1     139.829  70.005 226.026 -0.49 -0.00    +0.000 A  
DOCKED: ATOM     24  C   UNL     1     141.065  71.791 227.052 -0.76 -0.01    +0.029 A  
DOCKED: ATOM     25  C   UNL     1     139.801  69.335 227.237 -0.57 -0.00    +0.010 A  
DOCKED: ATOM     26  C   UNL     1     141.050  71.153 228.251 -0.70 -0.00    +0.002 A  
DOCKED: ATOM     27  C   UNL     1     140.417  69.930 228.329 -0.59 -0.00    +0.001 A  
DOCKED: ENDBRANCH  15  18
DOCKED: ENDBRANCH  13  14
DOCKED: ENDBRANCH   2  13
DOCKED: TORSDOF 5
DOCKED: TER
DOCKED: ENDMDL
________________________________________________________________________________


    FINAL DOCKED STATE:
    ________________________


Run:   19 / 20
Time taken for this run:   0.021s

DOCKED: MODEL        19
DOCKED: USER    Run = 19
DOCKED: USER
DOCKED: USER    Estimated Free Energy of Binding    =  -8.40 kcal/mol  [=(1)+(2)+(3)-(4)]
DOCKED: USER
DOCKED: USER    (1) Final Intermolecular Energy     =  -9.90 kcal/mol
DOCKED: USER        vdW + Hbond + desolv Energy     =  -9.87 kcal/mol
DOCKED: USER        Electrostatic Energy            =  -0.02 kcal/mol
DOCKED: USER        Moving Ligand-Fixed Receptor    =  -9.90 kcal/mol
DOCKED: USER        Moving Ligand-Moving Receptor   =  +0.00 kcal/mol
DOCKED: USER    (2) Final Total Internal Energy     =  -1.12 kcal/mol
DOCKED: USER    (3) Torsional Free Energy           =  +1.49 kcal/mol
DOCKED: USER    (4) Unbound System's Energy         =  -1.12 kcal/mol
DOCKED: USER
DOCKED: USER
DOCKED: REMARK SMILES C[C@H](NC(=O)CNC(=O)c1ccc2ccccc2n1)c1ccccc1
DOCKED: REMARK SMILES IDX 3 1 4 2 5 3 2 5 1 6 20 7 21 8 25 9 22 10 24 11 23 12 6 13
DOCKED: REMARK SMILES IDX 7 14 8 15 9 17 10 18 11 19 19 20 12 21 18 22 13 23 17 24
DOCKED: REMARK SMILES IDX 14 25 16 26 15 27
DOCKED: REMARK H PARENT 3 4 7 16
DOCKED: USER                              x       y       z     vdW  Elec       q    Type
DOCKED: USER                           _______ _______ _______ _____ _____    ______ ____
DOCKED: ROOT
DOCKED: ATOM      1  N   UNL     1     140.658  76.588 220.863 -0.09 +0.12    -0.348 N  
DOCKED: ATOM      2  C   UNL     1     140.834  75.195 221.037 -0.21 -0.06    +0.239 C  
DOCKED: ATOM      3  O   UNL     1     142.011  74.732 221.050 -0.24 +0.08    -0.273 OA 
DOCKED: ATOM      4  H   UNL     1     139.705  77.014 220.845 +0.05 -0.05    +0.164 HD 
DOCKED: ENDROOT
DOCKED: BRANCH   1   5
DOCKED: ATOM      5  C   UNL     1     141.806  77.452 220.707 -0.23 -0.07    +0.109 C  
DOCKED: ATOM      6  C   UNL     1     141.715  78.095 219.324 -0.25 -0.02    +0.036 C  
DOCKED: BRANCH   5   7
DOCKED: ATOM      7  C   UNL     1     141.771  78.466 221.783 -0.37 +0.01    -0.026 A  
DOCKED: ATOM      8  C   UNL     1     142.136  79.768 221.553 -0.42 -0.00    +0.006 A  
DOCKED: ATOM      9  C   UNL     1     141.353  78.056 223.048 -0.49 -0.00    +0.006 A  
DOCKED: ATOM     10  C   UNL     1     142.089  80.682 222.582 -0.56 -0.00    +0.000 A  
DOCKED: ATOM     11  C   UNL     1     141.323  79.003 224.040 -0.55 -0.00    +0.000 A  
DOCKED: ATOM     12  C   UNL     1     141.677  80.317 223.866 -0.57 -0.00    +0.000 A  
DOCKED: ENDBRANCH   5   7
DOCKED: ENDBRANCH   1   5
DOCKED: BRANCH   2  13
DOCKED: ATOM     13  C   UNL     1     139.630  74.339 221.193 -0.17 -0.04    +0.216 C  
DOCKED: BRANCH  13  14
DOCKED: ATOM     14  N   UNL     1     139.681  73.519 222.363 -0.11 +0.05    -0.342 N  
DOCKED: ATOM     15  C   UNL     1     139.954  72.126 222.314 -0.20 -0.04    +0.270 C  
DOCKED: ATOM     16  H   UNL     1     139.511  73.932 223.327 -0.47 -0.04    +0.164 HD 
DOCKED: ATOM     17  O   UNL     1     140.169  71.556 221.193 -0.10 +0.04    -0.268 OA 
DOCKED: BRANCH  15  18
DOCKED: ATOM     18  C   UNL     1     139.990  71.349 223.560 -0.32 -0.02    +0.128 A  
DOCKED: ATOM     19  C   UNL     1     139.523  70.051 223.569 -0.27 -0.01    +0.035 A  
DOCKED: ATOM     20  N   UNL     1     140.475  71.906 224.685 -0.25 +0.04    -0.243 NA 
DOCKED: ATOM     21  C   UNL     1     139.571  69.341 224.774 -0.37 -0.00    +0.013 A  
DOCKED: ATOM     22  C   UNL     1     140.548  71.283 225.860 -0.54 -0.01    +0.071 A  
DOCKED: ATOM     23  C   UNL     1     140.086  69.973 225.908 -0.50 -0.00    +0.000 A  
DOCKED: ATOM     24  C   UNL     1     141.052  71.888 226.990 -0.76 -0.01    +0.029 A  
DOCKED: ATOM     25  C   UNL     1     140.137  69.277 227.104 -0.58 -0.00    +0.010 A  
DOCKED: ATOM     26  C   UNL     1     141.112  71.225 228.175 -0.71 -0.00    +0.002 A  
DOCKED: ATOM     27  C   UNL     1     140.653  69.925 228.218 -0.60 -0.00    +0.001 A  
DOCKED: ENDBRANCH  15  18
DOCKED: ENDBRANCH  13  14
DOCKED: ENDBRANCH   2  13
DOCKED: TORSDOF 5
DOCKED: TER
DOCKED: ENDMDL
________________________________________________________________________________


    FINAL DOCKED STATE:
    ________________________


Run:   20 / 20
Time taken for this run:   0.021s

DOCKED: MODEL        20
DOCKED: USER    Run = 20
DOCKED: USER
DOCKED: USER    Estimated Free Energy of Binding    =  -7.78 kcal/mol  [=(1)+(2)+(3)-(4)]
DOCKED: USER
DOCKED: USER    (1) Final Intermolecular Energy     =  -9.27 kcal/mol
DOCKED: USER        vdW + Hbond + desolv Energy     =  -9.18 kcal/mol
DOCKED: USER        Electrostatic Energy            =  -0.09 kcal/mol
DOCKED: USER        Moving Ligand-Fixed Receptor    =  -9.27 kcal/mol
DOCKED: USER        Moving Ligand-Moving Receptor   =  +0.00 kcal/mol
DOCKED: USER    (2) Final Total Internal Energy     =  -1.78 kcal/mol
DOCKED: USER    (3) Torsional Free Energy           =  +1.49 kcal/mol
DOCKED: USER    (4) Unbound System's Energy         =  -1.78 kcal/mol
DOCKED: USER
DOCKED: USER
DOCKED: REMARK SMILES C[C@H](NC(=O)CNC(=O)c1ccc2ccccc2n1)c1ccccc1
DOCKED: REMARK SMILES IDX 3 1 4 2 5 3 2 5 1 6 20 7 21 8 25 9 22 10 24 11 23 12 6 13
DOCKED: REMARK SMILES IDX 7 14 8 15 9 17 10 18 11 19 19 20 12 21 18 22 13 23 17 24
DOCKED: REMARK SMILES IDX 14 25 16 26 15 27
DOCKED: REMARK H PARENT 3 4 7 16
DOCKED: USER                              x       y       z     vdW  Elec       q    Type
DOCKED: USER                           _______ _______ _______ _____ _____    ______ ____
DOCKED: ROOT
DOCKED: ATOM      1  N   UNL     1     138.247  74.773 221.924 -0.11 +0.10    -0.348 N  
DOCKED: ATOM      2  C   UNL     1     138.306  74.279 220.599 -0.06 -0.05    +0.239 C  
DOCKED: ATOM      3  O   UNL     1     137.836  74.994 219.667 -0.01 +0.06    -0.273 OA 
DOCKED: ATOM      4  H   UNL     1     138.622  74.218 222.724 -0.56 -0.07    +0.164 HD 
DOCKED: ENDROOT
DOCKED: BRANCH   1   5
DOCKED: ATOM      5  C   UNL     1     137.662  76.068 222.191 -0.22 -0.03    +0.109 C  
DOCKED: ATOM      6  C   UNL     1     136.695  75.904 223.363 -0.19 -0.01    +0.036 C  
DOCKED: BRANCH   5   7
DOCKED: ATOM      7  C   UNL     1     138.755  77.010 222.514 -0.29 +0.00    -0.026 A  
DOCKED: ATOM      8  C   UNL     1     140.072  76.664 222.353 -0.39 -0.00    +0.006 A  
DOCKED: ATOM      9  C   UNL     1     138.404  78.272 222.992 -0.26 -0.00    +0.006 A  
DOCKED: ATOM     10  C   UNL     1     141.060  77.571 222.665 -0.46 -0.00    +0.000 A  
DOCKED: ATOM     11  C   UNL     1     139.423  79.140 223.289 -0.38 -0.00    +0.000 A  
DOCKED: ATOM     12  C   UNL     1     140.756  78.847 223.147 -0.49 -0.00    +0.000 A  
DOCKED: ENDBRANCH   5   7
DOCKED: ENDBRANCH   1   5
DOCKED: BRANCH   2  13
DOCKED: ATOM     13  C   UNL     1     138.914  72.945 220.363 -0.05 -0.04    +0.216 C  
DOCKED: BRANCH  13  14
DOCKED: ATOM     14  N   UNL     1     138.939  72.131 221.538 -0.06 +0.07    -0.342 N  
DOCKED: ATOM     15  C   UNL     1     139.820  72.377 222.624 -0.19 -0.05    +0.270 C  
DOCKED: ATOM     16  H   UNL     1     138.288  71.298 221.638 +0.04 -0.03    +0.164 HD 
DOCKED: ATOM     17  O   UNL     1     140.633  73.359 222.579 -0.66 -0.02    -0.268 OA 
DOCKED: BRANCH  15  18
DOCKED: ATOM     18  C   UNL     1     139.787  71.495 223.799 -0.33 -0.03    +0.128 A  
DOCKED: ATOM     19  C   UNL     1     139.121  70.290 223.728 -0.29 -0.01    +0.035 A  
DOCKED: ATOM     20  N   UNL     1     140.404  71.867 224.936 -0.26 +0.04    -0.243 NA 
DOCKED: ATOM     21  C   UNL     1     139.110  69.475 224.866 -0.37 -0.00    +0.013 A  
DOCKED: ATOM     22  C   UNL     1     140.429  71.137 226.049 -0.55 -0.01    +0.071 A  
DOCKED: ATOM     23  C   UNL     1     139.768  69.915 226.017 -0.48 -0.00    +0.000 A  
DOCKED: ATOM     24  C   UNL     1     141.072  71.553 227.194 -0.75 -0.00    +0.029 A  
DOCKED: ATOM     25  C   UNL     1     139.761  69.115 227.146 -0.57 -0.00    +0.010 A  
DOCKED: ATOM     26  C   UNL     1     141.079  70.785 228.315 -0.61 -0.00    +0.002 A  
DOCKED: ATOM     27  C   UNL     1     140.422  69.573 228.278 -0.62 -0.00    +0.001 A  
DOCKED: ENDBRANCH  15  18
DOCKED: ENDBRANCH  13  14
DOCKED: ENDBRANCH   2  13
DOCKED: TORSDOF 5
DOCKED: TER
DOCKED: ENDMDL
________________________________________________________________________________


    CLUSTERING HISTOGRAM
    ____________________


________________________________________________________________________________
     |           |     |           |     |
Clus | Lowest    | Run | Mean      | Num | Histogram
-ter | Binding   |     | Binding   | in  |
Rank | Energy    |     | Energy    | Clus|    5    10   15   20   25   30   35
_____|___________|_____|___________|_____|____:____|____:____|____:____|____:___
   1 |     -8.78 |   1 |     -8.36 |  15 |###############
   2 |     -8.39 |  16 |     -8.39 |   1 |#
   3 |     -7.43 |   5 |     -7.30 |   4 |####
_____|___________|_____|___________|_____|______________________________________


    RMSD TABLE
    __________


_______________________________________________________________________
     |      |      |           |         |                 |
Rank | Sub- | Run  | Binding   | Cluster | Reference       | Grep
     | Rank |      | Energy    | RMSD    | RMSD            | Pattern
_____|______|______|___________|_________|_________________|___________
   1      1      1       -8.78      0.00    271.60           RANKING
   1      2     12       -8.52      1.21    271.43           RANKING
   1      3     13       -8.46      1.18    271.33           RANKING
   1      4      8       -8.42      1.25    271.40           RANKING
   1      5      3       -8.41      1.25    271.38           RANKING
   1      6      6       -8.41      1.98    271.84           RANKING
   1      7     10       -8.41      1.99    271.84           RANKING
   1      8      9       -8.41      1.97    271.85           RANKING
   1      9      4       -8.40      1.20    271.45           RANKING
   1     10     19       -8.40      1.21    271.45           RANKING
   1     11     18       -8.38      0.67    271.60           RANKING
   1     12     15       -8.36      1.97    271.83           RANKING
   1     13     14       -8.35      2.00    271.83           RANKING
   1     14      2       -7.85      1.76    270.80           RANKING
   1     15     20       -7.78      1.74    270.75           RANKING
   2      1     16       -8.39      0.00    271.83           RANKING
   3      1      5       -7.43      0.00    270.69           RANKING
   3      2     11       -7.41      0.16    270.72           RANKING
   3      3      7       -7.27      0.23    270.79           RANKING
   3      4     17       -7.09      0.88    270.73           RANKING

Run time 0.378 sec
Idle time 0.000 sec
