AutoDock-GPU version: v1.6

**********************************************************
**    AutoDock-GPU AUTODOCKTOOLS-COMPATIBLE DLG FILE    **
**********************************************************


    DOCKING PARAMETERS
    ________________________


Ligand file:                               /home/a/REINVENT4/ReinventStudies/pleaseWork/justmol2mol_4_Compounds_ontop/graph-dock-amy28i/graph-DockGPU/node-autodockgpu/inputs/QKOVTXNUHUPABI-OAEUJLFZNA-N.pdbqt
Grid fld file:                             /home/a/REINVENT4/ReinventStudies/mols/Rad51/maps/rad51_receptor.maps.fld

Random seed:                               42
Number of runs:                            20
Number of energy evaluations:              1132076
Number of generations:                     42000
Size of population:                        150
Rate of crossover:                         80.000000%
Tournament selection probability limit:    60.000000%
Rate of mutation:                          2.000000%
Maximal allowed delta movement:            +/- 6.000000A
Maximal allowed delta angle:               +/- 90.000000

Rate of local search:                      100.000000%
Maximal number of local search iterations: 300
Rho lower bound:                           0.010000
Spread of local search delta movement:     2.000000A
Spread of local search delta angle:        74.999999
Limit of consecutive successes/failures:   4

Handle symmetry during clustering:         YES
RMSD tolerance:                            2.000000A

Program call in command line was:          /home/a/REINVENT4/ReinventStudies/adgpu-v1.6_linux_x64_cuda12_128wi --filelist batch.txt --heuristics 1 --nrun 20 --psize 150 --lsit 300 --seed 42 --heurmax 12000000 


    GRID PARAMETERS
    ________________________


Receptor name:                             rad51_receptor
Number of grid points (x, y, z):           53, 53, 53
Grid center (x, y, z):                     139.950000, 75.640000, 221.970000A
Grid size (x, y, z):                       19.500000, 19.500000, 19.500000A
Grid spacing:                              0.375000A


    LIGAND PARAMETERS
    ________________________


Ligand name:                               /home/a/REINVENT4/ReinventStudies/pleaseWork/justmol2mol_4_Compounds_ontop/graph-dock-amy28i/graph-DockGPU/node-autodockgpu/inputs/QKOVTXNUHUPABI-OAEUJLFZNA-N
Number of atoms:                           31
Number of rotatable bonds:                 6
Number of atom types:                      7


    DUMMY DATA (only for ADT-compatibility)
    ________________________


DPF> outlev 1
DPF> ga_run 20
DPF> fld /home/a/REINVENT4/ReinventStudies/mols/Rad51/maps/rad51_receptor.maps.fld
DPF> move /home/a/REINVENT4/ReinventStudies/pleaseWork/justmol2mol_4_Compounds_ontop/graph-dock-amy28i/graph-DockGPU/node-autodockgpu/inputs/QKOVTXNUHUPABI-OAEUJLFZNA-N.pdbqt


    COUNTER STATES
    ________________________


Number of energy evaluations performed:    899176
Number of generations used:                45


    INPUT LIGAND PDBQT FILE:
    ________________________


INPUT-LIGAND-PDBQT: REMARK SMILES O=C(NCC(=O)N1C[C@H](O)C[C@H]1c1ccccc1)c1ccc2ccc(Cl)cc2n1
INPUT-LIGAND-PDBQT: REMARK SMILES IDX 4 1 3 2 2 3 1 4 19 6 20 7 29 8 21 9 28 10 22 11 27 12 23 13
INPUT-LIGAND-PDBQT: REMARK SMILES IDX 25 14 24 15 26 16 5 17 6 18 7 19 8 20 12 21 9 22 11 23 13 24
INPUT-LIGAND-PDBQT: REMARK SMILES IDX 14 25 18 26 15 27 17 28 16 29 10 30
INPUT-LIGAND-PDBQT: REMARK H PARENT 3 5 10 31
INPUT-LIGAND-PDBQT: ROOT
INPUT-LIGAND-PDBQT: ATOM      1  C   UNL     1      -0.585  -0.207  -0.668  1.00  0.00     0.216 C 
INPUT-LIGAND-PDBQT: ENDROOT
INPUT-LIGAND-PDBQT: BRANCH   1   2
INPUT-LIGAND-PDBQT: ATOM      2  N   UNL     1       0.859  -0.048  -0.541  1.00  0.00    -0.342 N 
INPUT-LIGAND-PDBQT: ATOM      3  C   UNL     1       1.572   0.849  -1.390  1.00  0.00     0.270 C 
INPUT-LIGAND-PDBQT: ATOM      4  O   UNL     1       0.967   1.522  -2.266  1.00  0.00    -0.268 OA
INPUT-LIGAND-PDBQT: ATOM      5  H   UNL     1       1.422  -0.583   0.174  1.00  0.00     0.164 HD
INPUT-LIGAND-PDBQT: BRANCH   3   6
INPUT-LIGAND-PDBQT: ATOM      6  C   UNL     1       3.017   0.978  -1.229  1.00  0.00     0.128 A 
INPUT-LIGAND-PDBQT: ATOM      7  C   UNL     1       3.739   1.835  -2.031  1.00  0.00     0.035 A 
INPUT-LIGAND-PDBQT: ATOM      8  N   UNL     1       3.680   0.269  -0.299  1.00  0.00    -0.243 NA
INPUT-LIGAND-PDBQT: ATOM      9  C   UNL     1       5.123   1.974  -1.893  1.00  0.00     0.013 A 
INPUT-LIGAND-PDBQT: ATOM     10  C   UNL     1       5.010   0.352  -0.111  1.00  0.00     0.073 A 
INPUT-LIGAND-PDBQT: ATOM     11  C   UNL     1       5.747   1.214  -0.915  1.00  0.00     0.000 A 
INPUT-LIGAND-PDBQT: ATOM     12  C   UNL     1       5.648  -0.394   0.854  1.00  0.00     0.049 A 
INPUT-LIGAND-PDBQT: ATOM     13  C   UNL     1       7.115   1.280  -0.701  1.00  0.00     0.012 A 
INPUT-LIGAND-PDBQT: ATOM     14  C   UNL     1       7.012  -0.334   1.075  1.00  0.00     0.043 A 
INPUT-LIGAND-PDBQT: ATOM     15  C   UNL     1       7.751   0.532   0.266  1.00  0.00     0.021 A 
INPUT-LIGAND-PDBQT: ATOM     16  Cl  UNL     1       7.784  -1.304   2.317  1.00  0.00    -0.084 Cl
INPUT-LIGAND-PDBQT: ENDBRANCH   3   6
INPUT-LIGAND-PDBQT: ENDBRANCH   1   2
INPUT-LIGAND-PDBQT: BRANCH   1  17
INPUT-LIGAND-PDBQT: ATOM     17  C   UNL     1      -1.014  -1.198   0.345  1.00  0.00     0.242 C 
INPUT-LIGAND-PDBQT: ATOM     18  O   UNL     1      -0.099  -1.688   1.084  1.00  0.00    -0.273 OA
INPUT-LIGAND-PDBQT: BRANCH  17  19
INPUT-LIGAND-PDBQT: ATOM     19  N   UNL     1      -2.369  -1.603   0.510  1.00  0.00    -0.331 N 
INPUT-LIGAND-PDBQT: ATOM     20  C   UNL     1      -2.764  -2.580   1.516  1.00  0.00     0.152 C 
INPUT-LIGAND-PDBQT: ATOM     21  C   UNL     1      -3.489  -1.140  -0.241  1.00  0.00     0.118 C 
INPUT-LIGAND-PDBQT: ATOM     22  C   UNL     1      -4.094  -3.098   1.069  1.00  0.00     0.136 C 
INPUT-LIGAND-PDBQT: ATOM     23  C   UNL     1      -4.642  -1.971   0.223  1.00  0.00     0.063 C 
INPUT-LIGAND-PDBQT: BRANCH  21  24
INPUT-LIGAND-PDBQT: ATOM     24  C   UNL     1      -3.747   0.312  -0.162  1.00  0.00    -0.025 A 
INPUT-LIGAND-PDBQT: ATOM     25  C   UNL     1      -4.040   1.086  -1.287  1.00  0.00     0.006 A 
INPUT-LIGAND-PDBQT: ATOM     26  C   UNL     1      -3.689   0.905   1.097  1.00  0.00     0.006 A 
INPUT-LIGAND-PDBQT: ATOM     27  C   UNL     1      -4.277   2.453  -1.165  1.00  0.00     0.000 A 
INPUT-LIGAND-PDBQT: ATOM     28  C   UNL     1      -3.926   2.275   1.216  1.00  0.00     0.000 A 
INPUT-LIGAND-PDBQT: ATOM     29  C   UNL     1      -4.218   3.045   0.095  1.00  0.00     0.000 A 
INPUT-LIGAND-PDBQT: ENDBRANCH  21  24
INPUT-LIGAND-PDBQT: BRANCH  22  30
INPUT-LIGAND-PDBQT: ATOM     30  O   UNL     1      -4.021  -4.250   0.302  1.00  0.00    -0.391 OA
INPUT-LIGAND-PDBQT: ATOM     31  H   UNL     1      -4.416  -4.100  -0.591  1.00  0.00     0.211 HD
INPUT-LIGAND-PDBQT: ENDBRANCH  22  30
INPUT-LIGAND-PDBQT: ENDBRANCH  17  19
INPUT-LIGAND-PDBQT: ENDBRANCH   1  17
INPUT-LIGAND-PDBQT: TORSDOF 6


    FINAL DOCKED STATE:
    ________________________


Run:   1 / 20
Time taken for this run:   0.038s

DOCKED: MODEL        1
DOCKED: USER    Run = 1
DOCKED: USER
DOCKED: USER    Estimated Free Energy of Binding    =  -7.57 kcal/mol  [=(1)+(2)+(3)-(4)]
DOCKED: USER
DOCKED: USER    (1) Final Intermolecular Energy     =  -9.36 kcal/mol
DOCKED: USER        vdW + Hbond + desolv Energy     =  -9.29 kcal/mol
DOCKED: USER        Electrostatic Energy            =  -0.06 kcal/mol
DOCKED: USER        Moving Ligand-Fixed Receptor    =  -9.36 kcal/mol
DOCKED: USER        Moving Ligand-Moving Receptor   =  +0.00 kcal/mol
DOCKED: USER    (2) Final Total Internal Energy     =  -2.32 kcal/mol
DOCKED: USER    (3) Torsional Free Energy           =  +1.79 kcal/mol
DOCKED: USER    (4) Unbound System's Energy         =  -2.32 kcal/mol
DOCKED: USER
DOCKED: USER
DOCKED: REMARK SMILES O=C(NCC(=O)N1C[C@H](O)C[C@H]1c1ccccc1)c1ccc2ccc(Cl)cc2n1
DOCKED: REMARK SMILES IDX 4 1 3 2 2 3 1 4 19 6 20 7 29 8 21 9 28 10 22 11 27 12 23 13
DOCKED: REMARK SMILES IDX 25 14 24 15 26 16 5 17 6 18 7 19 8 20 12 21 9 22 11 23 13 24
DOCKED: REMARK SMILES IDX 14 25 18 26 15 27 17 28 16 29 10 30
DOCKED: REMARK H PARENT 3 5 10 31
DOCKED: USER                              x       y       z     vdW  Elec       q    Type
DOCKED: USER                           _______ _______ _______ _____ _____    ______ ____
DOCKED: ROOT
DOCKED: ATOM      1  C   UNL     1     137.920  72.433 222.325 -0.10 -0.06    +0.216 C  
DOCKED: ENDROOT
DOCKED: BRANCH   1   2
DOCKED: ATOM      2  N   UNL     1     136.884  72.576 223.341 +0.06 +0.13    -0.342 N  
DOCKED: ATOM      3  C   UNL     1     136.032  71.481 223.673 -0.11 -0.05    +0.270 C  
DOCKED: ATOM      4  O   UNL     1     136.160  70.369 223.095 -0.06 +0.04    -0.268 OA 
DOCKED: ATOM      5  H   UNL     1     136.728  73.481 223.860 -0.54 -0.10    +0.164 HD 
DOCKED: BRANCH   3   6
DOCKED: ATOM      6  C   UNL     1     135.007  71.667 224.696 -0.15 -0.01    +0.128 A  
DOCKED: ATOM      7  C   UNL     1     134.443  70.581 225.329 -0.22 -0.00    +0.035 A  
DOCKED: ATOM      8  N   UNL     1     134.588  72.895 225.046 -0.16 +0.02    -0.243 NA 
DOCKED: ATOM      9  C   UNL     1     133.460  70.737 226.311 -0.33 -0.00    +0.013 A  
DOCKED: ATOM     10  C   UNL     1     133.647  73.120 225.982 -0.29 -0.00    +0.073 A  
DOCKED: ATOM     11  C   UNL     1     133.072  72.031 226.627 -0.39 -0.00    +0.000 A  
DOCKED: ATOM     12  C   UNL     1     133.248  74.396 226.309 -0.32 +0.00    +0.049 A  
DOCKED: ATOM     13  C   UNL     1     132.105  72.289 227.586 -0.38 -0.00    +0.012 A  
DOCKED: ATOM     14  C   UNL     1     132.285  74.663 227.265 -0.39 -0.00    +0.043 A  
DOCKED: ATOM     15  C   UNL     1     131.708  73.568 227.912 -0.32 -0.00    +0.021 A  
DOCKED: ATOM     16  Cl  UNL     1     131.806  76.307 227.651 -0.42 -0.00    -0.084 Cl 
DOCKED: ENDBRANCH   3   6
DOCKED: ENDBRANCH   1   2
DOCKED: BRANCH   1  17
DOCKED: ATOM     17  C   UNL     1     139.088  71.790 222.969 -0.16 -0.06    +0.242 C  
DOCKED: ATOM     18  O   UNL     1     140.121  72.519 223.132 -0.50 +0.03    -0.273 OA 
DOCKED: BRANCH  17  19
DOCKED: ATOM     19  N   UNL     1     139.090  70.431 223.396 -0.11 +0.06    -0.331 N  
DOCKED: ATOM     20  C   UNL     1     139.432  69.341 222.492 -0.07 -0.03    +0.152 C  
DOCKED: ATOM     21  C   UNL     1     138.775  69.953 224.702 -0.31 -0.02    +0.118 C  
DOCKED: ATOM     22  C   UNL     1     138.856  68.110 223.117 -0.19 -0.02    +0.136 C  
DOCKED: ATOM     23  C   UNL     1     138.786  68.463 224.586 -0.32 -0.00    +0.063 C  
DOCKED: BRANCH  21  24
DOCKED: ATOM     24  C   UNL     1     139.640  70.461 225.786 -0.43 +0.00    -0.025 A  
DOCKED: ATOM     25  C   UNL     1     139.510  70.038 227.111 -0.43 -0.00    +0.006 A  
DOCKED: ATOM     26  C   UNL     1     140.613  71.396 225.444 -0.57 -0.00    +0.006 A  
DOCKED: ATOM     27  C   UNL     1     140.348  70.544 228.102 -0.65 -0.00    +0.000 A  
DOCKED: ATOM     28  C   UNL     1     141.451  71.901 226.439 -0.70 -0.00    +0.000 A  
DOCKED: ATOM     29  C   UNL     1     141.321  71.480 227.758 -0.70 -0.00    +0.000 A  
DOCKED: ENDBRANCH  21  24
DOCKED: BRANCH  22  30
DOCKED: ATOM     30  O   UNL     1     137.587  67.789 222.664 -0.09 +0.05    -0.391 OA 
DOCKED: ATOM     31  H   UNL     1     136.991  68.575 222.709 +0.05 -0.03    +0.211 HD 
DOCKED: ENDBRANCH  22  30
DOCKED: ENDBRANCH  17  19
DOCKED: ENDBRANCH   1  17
DOCKED: TORSDOF 6
DOCKED: TER
DOCKED: ENDMDL
________________________________________________________________________________


    FINAL DOCKED STATE:
    ________________________


Run:   2 / 20
Time taken for this run:   0.038s

DOCKED: MODEL        2
DOCKED: USER    Run = 2
DOCKED: USER
DOCKED: USER    Estimated Free Energy of Binding    =  -7.72 kcal/mol  [=(1)+(2)+(3)-(4)]
DOCKED: USER
DOCKED: USER    (1) Final Intermolecular Energy     =  -9.51 kcal/mol
DOCKED: USER        vdW + Hbond + desolv Energy     =  -9.47 kcal/mol
DOCKED: USER        Electrostatic Energy            =  -0.04 kcal/mol
DOCKED: USER        Moving Ligand-Fixed Receptor    =  -9.51 kcal/mol
DOCKED: USER        Moving Ligand-Moving Receptor   =  +0.00 kcal/mol
DOCKED: USER    (2) Final Total Internal Energy     =  -2.45 kcal/mol
DOCKED: USER    (3) Torsional Free Energy           =  +1.79 kcal/mol
DOCKED: USER    (4) Unbound System's Energy         =  -2.45 kcal/mol
DOCKED: USER
DOCKED: USER
DOCKED: REMARK SMILES O=C(NCC(=O)N1C[C@H](O)C[C@H]1c1ccccc1)c1ccc2ccc(Cl)cc2n1
DOCKED: REMARK SMILES IDX 4 1 3 2 2 3 1 4 19 6 20 7 29 8 21 9 28 10 22 11 27 12 23 13
DOCKED: REMARK SMILES IDX 25 14 24 15 26 16 5 17 6 18 7 19 8 20 12 21 9 22 11 23 13 24
DOCKED: REMARK SMILES IDX 14 25 18 26 15 27 17 28 16 29 10 30
DOCKED: REMARK H PARENT 3 5 10 31
DOCKED: USER                              x       y       z     vdW  Elec       q    Type
DOCKED: USER                           _______ _______ _______ _____ _____    ______ ____
DOCKED: ROOT
DOCKED: ATOM      1  C   UNL     1     137.967  72.394 222.120 -0.11 -0.06    +0.216 C  
DOCKED: ENDROOT
DOCKED: BRANCH   1   2
DOCKED: ATOM      2  N   UNL     1     136.953  72.712 223.119 +0.02 +0.13    -0.342 N  
DOCKED: ATOM      3  C   UNL     1     136.082  71.701 223.622 -0.11 -0.05    +0.270 C  
DOCKED: ATOM      4  O   UNL     1     136.174  70.513 223.214 -0.07 +0.04    -0.268 OA 
DOCKED: ATOM      5  H   UNL     1     136.827  73.688 223.501 -0.49 -0.09    +0.164 HD 
DOCKED: BRANCH   3   6
DOCKED: ATOM      6  C   UNL     1     135.081  72.062 224.621 -0.16 -0.01    +0.128 A  
DOCKED: ATOM      7  C   UNL     1     134.338  71.089 225.254 -0.21 -0.00    +0.035 A  
DOCKED: ATOM      8  N   UNL     1     134.857  73.346 224.950 -0.18 +0.02    -0.243 NA 
DOCKED: ATOM      9  C   UNL     1     133.375  71.413 226.214 -0.33 -0.00    +0.013 A  
DOCKED: ATOM     10  C   UNL     1     133.946  73.730 225.864 -0.30 +0.00    +0.073 A  
DOCKED: ATOM     11  C   UNL     1     133.192  72.756 226.508 -0.38 -0.00    +0.000 A  
DOCKED: ATOM     12  C   UNL     1     133.750  75.058 226.169 -0.35 +0.00    +0.049 A  
DOCKED: ATOM     13  C   UNL     1     132.261  73.179 227.443 -0.37 -0.00    +0.012 A  
DOCKED: ATOM     14  C   UNL     1     132.824  75.489 227.102 -0.37 +0.00    +0.043 A  
DOCKED: ATOM     15  C   UNL     1     132.067  74.509 227.747 -0.41 -0.00    +0.021 A  
DOCKED: ATOM     16  Cl  UNL     1     132.607  77.193 227.460 -0.42 +0.00    -0.084 Cl 
DOCKED: ENDBRANCH   3   6
DOCKED: ENDBRANCH   1   2
DOCKED: BRANCH   1  17
DOCKED: ATOM     17  C   UNL     1     139.112  71.780 222.830 -0.18 -0.06    +0.242 C  
DOCKED: ATOM     18  O   UNL     1     140.133  72.520 223.010 -0.51 +0.03    -0.273 OA 
DOCKED: BRANCH  17  19
DOCKED: ATOM     19  N   UNL     1     139.104  70.435 223.299 -0.11 +0.06    -0.331 N  
DOCKED: ATOM     20  C   UNL     1     139.417  69.313 222.425 -0.08 -0.03    +0.152 C  
DOCKED: ATOM     21  C   UNL     1     138.806  70.002 224.624 -0.31 -0.02    +0.118 C  
DOCKED: ATOM     22  C   UNL     1     138.837  68.109 223.097 -0.20 -0.02    +0.136 C  
DOCKED: ATOM     23  C   UNL     1     138.796  68.509 224.555 -0.34 -0.01    +0.063 C  
DOCKED: BRANCH  21  24
DOCKED: ATOM     24  C   UNL     1     139.695  70.532 225.678 -0.44 +0.00    -0.025 A  
DOCKED: ATOM     25  C   UNL     1     140.657  71.513 225.427 -0.57 -0.00    +0.006 A  
DOCKED: ATOM     26  C   UNL     1     139.545  70.014 226.962 -0.46 -0.00    +0.006 A  
DOCKED: ATOM     27  C   UNL     1     141.474  71.984 226.452 -0.65 -0.00    +0.000 A  
DOCKED: ATOM     28  C   UNL     1     140.366  70.487 227.987 -0.67 -0.00    +0.000 A  
DOCKED: ATOM     29  C   UNL     1     141.324  71.464 227.736 -0.69 -0.00    +0.000 A  
DOCKED: ENDBRANCH  21  24
DOCKED: BRANCH  22  30
DOCKED: ATOM     30  O   UNL     1     137.556  67.790 222.676 -0.09 +0.05    -0.391 OA 
DOCKED: ATOM     31  H   UNL     1     136.970  68.584 222.712 +0.05 -0.03    +0.211 HD 
DOCKED: ENDBRANCH  22  30
DOCKED: ENDBRANCH  17  19
DOCKED: ENDBRANCH   1  17
DOCKED: TORSDOF 6
DOCKED: TER
DOCKED: ENDMDL
________________________________________________________________________________


    FINAL DOCKED STATE:
    ________________________


Run:   3 / 20
Time taken for this run:   0.038s

DOCKED: MODEL        3
DOCKED: USER    Run = 3
DOCKED: USER
DOCKED: USER    Estimated Free Energy of Binding    =  -7.46 kcal/mol  [=(1)+(2)+(3)-(4)]
DOCKED: USER
DOCKED: USER    (1) Final Intermolecular Energy     =  -9.25 kcal/mol
DOCKED: USER        vdW + Hbond + desolv Energy     =  -9.25 kcal/mol
DOCKED: USER        Electrostatic Energy            =  -0.01 kcal/mol
DOCKED: USER        Moving Ligand-Fixed Receptor    =  -9.25 kcal/mol
DOCKED: USER        Moving Ligand-Moving Receptor   =  +0.00 kcal/mol
DOCKED: USER    (2) Final Total Internal Energy     =  -2.48 kcal/mol
DOCKED: USER    (3) Torsional Free Energy           =  +1.79 kcal/mol
DOCKED: USER    (4) Unbound System's Energy         =  -2.48 kcal/mol
DOCKED: USER
DOCKED: USER
DOCKED: REMARK SMILES O=C(NCC(=O)N1C[C@H](O)C[C@H]1c1ccccc1)c1ccc2ccc(Cl)cc2n1
DOCKED: REMARK SMILES IDX 4 1 3 2 2 3 1 4 19 6 20 7 29 8 21 9 28 10 22 11 27 12 23 13
DOCKED: REMARK SMILES IDX 25 14 24 15 26 16 5 17 6 18 7 19 8 20 12 21 9 22 11 23 13 24
DOCKED: REMARK SMILES IDX 14 25 18 26 15 27 17 28 16 29 10 30
DOCKED: REMARK H PARENT 3 5 10 31
DOCKED: USER                              x       y       z     vdW  Elec       q    Type
DOCKED: USER                           _______ _______ _______ _____ _____    ______ ____
DOCKED: ROOT
DOCKED: ATOM      1  C   UNL     1     140.618  71.945 221.760 -0.19 -0.03    +0.216 C  
DOCKED: ENDROOT
DOCKED: BRANCH   1   2
DOCKED: ATOM      2  N   UNL     1     140.503  73.378 222.004 -0.16 +0.02    -0.342 N  
DOCKED: ATOM      3  C   UNL     1     139.232  74.024 221.979 -0.14 -0.06    +0.270 C  
DOCKED: ATOM      4  O   UNL     1     138.183  73.367 221.746 -0.12 +0.07    -0.268 OA 
DOCKED: ATOM      5  H   UNL     1     141.345  73.982 222.206 +0.05 +0.01    +0.164 HD 
DOCKED: BRANCH   3   6
DOCKED: ATOM      6  C   UNL     1     139.162  75.460 222.230 -0.25 -0.03    +0.128 A  
DOCKED: ATOM      7  C   UNL     1     137.947  76.109 222.263 -0.26 -0.01    +0.035 A  
DOCKED: ATOM      8  N   UNL     1     140.275  76.186 222.435 -0.32 +0.05    -0.243 NA 
DOCKED: ATOM      9  C   UNL     1     137.858  77.483 222.502 -0.25 -0.00    +0.013 A  
DOCKED: ATOM     10  C   UNL     1     140.264  77.511 222.670 -0.33 -0.02    +0.073 A  
DOCKED: ATOM     11  C   UNL     1     139.043  78.174 222.705 -0.31 -0.00    +0.000 A  
DOCKED: ATOM     12  C   UNL     1     141.430  78.215 222.874 -0.47 -0.02    +0.049 A  
DOCKED: ATOM     13  C   UNL     1     139.060  79.539 222.948 -0.32 -0.00    +0.012 A  
DOCKED: ATOM     14  C   UNL     1     141.456  79.576 223.118 -0.52 -0.01    +0.043 A  
DOCKED: ATOM     15  C   UNL     1     140.229  80.241 223.152 -0.41 -0.00    +0.021 A  
DOCKED: ATOM     16  Cl  UNL     1     142.966  80.433 223.372 -0.79 +0.02    -0.084 Cl 
DOCKED: ENDBRANCH   3   6
DOCKED: ENDBRANCH   1   2
DOCKED: BRANCH   1  17
DOCKED: ATOM     17  C   UNL     1     140.300  71.251 223.028 -0.20 -0.03    +0.242 C  
DOCKED: ATOM     18  O   UNL     1     141.233  71.193 223.894 -0.08 +0.02    -0.273 OA 
DOCKED: BRANCH  17  19
DOCKED: ATOM     19  N   UNL     1     139.030  70.667 223.297 -0.12 +0.06    -0.331 N  
DOCKED: ATOM     20  C   UNL     1     138.170  70.169 222.232 -0.11 -0.03    +0.152 C  
DOCKED: ATOM     21  C   UNL     1     138.434  70.489 224.580 -0.24 -0.02    +0.118 C  
DOCKED: ATOM     22  C   UNL     1     136.797  70.109 222.822 -0.11 -0.02    +0.136 C  
DOCKED: ATOM     23  C   UNL     1     137.059  69.971 224.305 -0.23 -0.01    +0.063 C  
DOCKED: BRANCH  21  24
DOCKED: ATOM     24  C   UNL     1     139.198  69.644 225.520 -0.41 +0.00    -0.025 A  
DOCKED: ATOM     25  C   UNL     1     139.204  68.250 225.444 -0.48 -0.00    +0.006 A  
DOCKED: ATOM     26  C   UNL     1     139.933  70.292 226.511 -0.52 -0.00    +0.006 A  
DOCKED: ATOM     27  C   UNL     1     139.940  67.493 226.353 -0.66 -0.00    +0.000 A  
DOCKED: ATOM     28  C   UNL     1     140.668  69.531 227.420 -0.61 -0.00    +0.000 A  
DOCKED: ATOM     29  C   UNL     1     140.674  68.142 227.344 -0.68 -0.00    +0.000 A  
DOCKED: ENDBRANCH  21  24
DOCKED: BRANCH  22  30
DOCKED: ATOM     30  O   UNL     1     136.037  71.247 222.598 -0.02 +0.07    -0.391 OA 
DOCKED: ATOM     31  H   UNL     1     136.619  72.021 222.402 +0.04 -0.05    +0.211 HD 
DOCKED: ENDBRANCH  22  30
DOCKED: ENDBRANCH  17  19
DOCKED: ENDBRANCH   1  17
DOCKED: TORSDOF 6
DOCKED: TER
DOCKED: ENDMDL
________________________________________________________________________________


    FINAL DOCKED STATE:
    ________________________


Run:   4 / 20
Time taken for this run:   0.038s

DOCKED: MODEL        4
DOCKED: USER    Run = 4
DOCKED: USER
DOCKED: USER    Estimated Free Energy of Binding    =  -8.07 kcal/mol  [=(1)+(2)+(3)-(4)]
DOCKED: USER
DOCKED: USER    (1) Final Intermolecular Energy     =  -9.86 kcal/mol
DOCKED: USER        vdW + Hbond + desolv Energy     =  -9.86 kcal/mol
DOCKED: USER        Electrostatic Energy            =  +0.00 kcal/mol
DOCKED: USER        Moving Ligand-Fixed Receptor    =  -9.86 kcal/mol
DOCKED: USER        Moving Ligand-Moving Receptor   =  +0.00 kcal/mol
DOCKED: USER    (2) Final Total Internal Energy     =  -1.67 kcal/mol
DOCKED: USER    (3) Torsional Free Energy           =  +1.79 kcal/mol
DOCKED: USER    (4) Unbound System's Energy         =  -1.67 kcal/mol
DOCKED: USER
DOCKED: USER
DOCKED: REMARK SMILES O=C(NCC(=O)N1C[C@H](O)C[C@H]1c1ccccc1)c1ccc2ccc(Cl)cc2n1
DOCKED: REMARK SMILES IDX 4 1 3 2 2 3 1 4 19 6 20 7 29 8 21 9 28 10 22 11 27 12 23 13
DOCKED: REMARK SMILES IDX 25 14 24 15 26 16 5 17 6 18 7 19 8 20 12 21 9 22 11 23 13 24
DOCKED: REMARK SMILES IDX 14 25 18 26 15 27 17 28 16 29 10 30
DOCKED: REMARK H PARENT 3 5 10 31
DOCKED: USER                              x       y       z     vdW  Elec       q    Type
DOCKED: USER                           _______ _______ _______ _____ _____    ______ ____
DOCKED: ROOT
DOCKED: ATOM      1  C   UNL     1     140.008  71.889 222.010 -0.20 -0.03    +0.216 C  
DOCKED: ENDROOT
DOCKED: BRANCH   1   2
DOCKED: ATOM      2  N   UNL     1     139.665  73.269 222.336 -0.15 +0.06    -0.342 N  
DOCKED: ATOM      3  C   UNL     1     140.316  74.357 221.683 -0.17 -0.03    +0.270 C  
DOCKED: ATOM      4  O   UNL     1     141.199  74.146 220.810 -0.18 +0.05    -0.268 OA 
DOCKED: ATOM      5  H   UNL     1     138.933  73.509 223.057 -0.51 -0.09    +0.164 HD 
DOCKED: BRANCH   3   6
DOCKED: ATOM      6  C   UNL     1     139.942  75.722 222.039 -0.29 -0.02    +0.128 A  
DOCKED: ATOM      7  C   UNL     1     138.621  76.116 222.021 -0.27 -0.01    +0.035 A  
DOCKED: ATOM      8  N   UNL     1     140.869  76.628 222.394 -0.28 +0.08    -0.243 NA 
DOCKED: ATOM      9  C   UNL     1     138.242  77.418 222.359 -0.27 -0.00    +0.013 A  
DOCKED: ATOM     10  C   UNL     1     140.577  77.897 222.731 -0.39 -0.02    +0.073 A  
DOCKED: ATOM     11  C   UNL     1     139.247  78.304 222.716 -0.33 -0.00    +0.000 A  
DOCKED: ATOM     12  C   UNL     1     141.560  78.792 223.088 -0.53 -0.02    +0.049 A  
DOCKED: ATOM     13  C   UNL     1     138.973  79.617 223.066 -0.33 -0.00    +0.012 A  
DOCKED: ATOM     14  C   UNL     1     141.296  80.103 223.440 -0.52 -0.01    +0.043 A  
DOCKED: ATOM     15  C   UNL     1     139.960  80.510 223.423 -0.42 -0.00    +0.021 A  
DOCKED: ATOM     16  Cl  UNL     1     142.581  81.210 223.887 -0.70 +0.01    -0.084 Cl 
DOCKED: ENDBRANCH   3   6
DOCKED: ENDBRANCH   1   2
DOCKED: BRANCH   1  17
DOCKED: ATOM     17  C   UNL     1     138.933  71.025 222.548 -0.15 -0.05    +0.242 C  
DOCKED: ATOM     18  O   UNL     1     137.893  71.616 222.984 -0.13 +0.07    -0.273 OA 
DOCKED: BRANCH  17  19
DOCKED: ATOM     19  N   UNL     1     139.027  69.604 222.589 -0.07 +0.06    -0.331 N  
DOCKED: ATOM     20  C   UNL     1     139.513  68.831 221.454 -0.09 -0.03    +0.152 C  
DOCKED: ATOM     21  C   UNL     1     138.679  68.764 223.687 -0.25 -0.02    +0.118 C  
DOCKED: ATOM     22  C   UNL     1     139.011  67.440 221.674 -0.16 -0.03    +0.136 C  
DOCKED: ATOM     23  C   UNL     1     138.825  67.368 223.173 -0.19 -0.01    +0.063 C  
DOCKED: BRANCH  21  24
DOCKED: ATOM     24  C   UNL     1     139.432  69.008 224.933 -0.38 +0.00    -0.025 A  
DOCKED: ATOM     25  C   UNL     1     139.857  70.282 225.318 -0.46 -0.00    +0.006 A  
DOCKED: ATOM     26  C   UNL     1     139.715  67.906 225.737 -0.56 -0.00    +0.006 A  
DOCKED: ATOM     27  C   UNL     1     140.565  70.466 226.503 -0.59 -0.00    +0.000 A  
DOCKED: ATOM     28  C   UNL     1     140.425  68.093 226.924 -0.68 -0.00    +0.000 A  
DOCKED: ATOM     29  C   UNL     1     140.847  69.362 227.306 -0.60 -0.00    +0.000 A  
DOCKED: ENDBRANCH  21  24
DOCKED: BRANCH  22  30
DOCKED: ATOM     30  O   UNL     1     137.802  67.172 221.051 -0.05 +0.07    -0.391 OA 
DOCKED: ATOM     31  H   UNL     1     137.696  67.729 220.241 +0.03 -0.04    +0.211 HD 
DOCKED: ENDBRANCH  22  30
DOCKED: ENDBRANCH  17  19
DOCKED: ENDBRANCH   1  17
DOCKED: TORSDOF 6
DOCKED: TER
DOCKED: ENDMDL
________________________________________________________________________________


    FINAL DOCKED STATE:
    ________________________


Run:   5 / 20
Time taken for this run:   0.038s

DOCKED: MODEL        5
DOCKED: USER    Run = 5
DOCKED: USER
DOCKED: USER    Estimated Free Energy of Binding    =  -8.26 kcal/mol  [=(1)+(2)+(3)-(4)]
DOCKED: USER
DOCKED: USER    (1) Final Intermolecular Energy     = -10.05 kcal/mol
DOCKED: USER        vdW + Hbond + desolv Energy     = -10.04 kcal/mol
DOCKED: USER        Electrostatic Energy            =  -0.01 kcal/mol
DOCKED: USER        Moving Ligand-Fixed Receptor    = -10.05 kcal/mol
DOCKED: USER        Moving Ligand-Moving Receptor   =  +0.00 kcal/mol
DOCKED: USER    (2) Final Total Internal Energy     =  -1.66 kcal/mol
DOCKED: USER    (3) Torsional Free Energy           =  +1.79 kcal/mol
DOCKED: USER    (4) Unbound System's Energy         =  -1.66 kcal/mol
DOCKED: USER
DOCKED: USER
DOCKED: REMARK SMILES O=C(NCC(=O)N1C[C@H](O)C[C@H]1c1ccccc1)c1ccc2ccc(Cl)cc2n1
DOCKED: REMARK SMILES IDX 4 1 3 2 2 3 1 4 19 6 20 7 29 8 21 9 28 10 22 11 27 12 23 13
DOCKED: REMARK SMILES IDX 25 14 24 15 26 16 5 17 6 18 7 19 8 20 12 21 9 22 11 23 13 24
DOCKED: REMARK SMILES IDX 14 25 18 26 15 27 17 28 16 29 10 30
DOCKED: REMARK H PARENT 3 5 10 31
DOCKED: USER                              x       y       z     vdW  Elec       q    Type
DOCKED: USER                           _______ _______ _______ _____ _____    ______ ____
DOCKED: ROOT
DOCKED: ATOM      1  C   UNL     1     138.579  72.831 221.945 -0.13 -0.06    +0.216 C  
DOCKED: ENDROOT
DOCKED: BRANCH   1   2
DOCKED: ATOM      2  N   UNL     1     138.830  74.211 222.340 +0.01 +0.11    -0.342 N  
DOCKED: ATOM      3  C   UNL     1     138.061  75.279 221.790 -0.15 -0.07    +0.270 C  
DOCKED: ATOM      4  O   UNL     1     137.150  75.049 220.951 -0.04 +0.06    -0.268 OA 
DOCKED: ATOM      5  H   UNL     1     139.578  74.468 223.039 -0.49 -0.01    +0.164 HD 
DOCKED: BRANCH   3   6
DOCKED: ATOM      6  C   UNL     1     138.345  76.647 222.214 -0.24 -0.03    +0.128 A  
DOCKED: ATOM      7  C   UNL     1     137.318  77.528 222.476 -0.21 -0.01    +0.035 A  
DOCKED: ATOM      8  N   UNL     1     139.608  77.083 222.361 -0.22 +0.05    -0.243 NA 
DOCKED: ATOM      9  C   UNL     1     137.567  78.842 222.883 -0.21 -0.00    +0.013 A  
DOCKED: ATOM     10  C   UNL     1     139.922  78.333 222.749 -0.33 -0.02    +0.073 A  
DOCKED: ATOM     11  C   UNL     1     138.893  79.229 223.015 -0.33 -0.00    +0.000 A  
DOCKED: ATOM     12  C   UNL     1     141.231  78.736 222.885 -0.48 -0.02    +0.049 A  
DOCKED: ATOM     13  C   UNL     1     139.243  80.510 223.413 -0.39 -0.00    +0.012 A  
DOCKED: ATOM     14  C   UNL     1     141.589  80.012 223.281 -0.54 -0.01    +0.043 A  
DOCKED: ATOM     15  C   UNL     1     140.554  80.911 223.548 -0.43 -0.00    +0.021 A  
DOCKED: ATOM     16  Cl  UNL     1     143.272  80.484 223.442 -0.70 +0.02    -0.084 Cl 
DOCKED: ENDBRANCH   3   6
DOCKED: ENDBRANCH   1   2
DOCKED: BRANCH   1  17
DOCKED: ATOM     17  C   UNL     1     139.561  71.979 222.655 -0.21 -0.05    +0.242 C  
DOCKED: ATOM     18  O   UNL     1     140.674  72.523 222.952 -0.48 +0.01    -0.273 OA 
DOCKED: BRANCH  17  19
DOCKED: ATOM     19  N   UNL     1     139.305  70.622 223.001 -0.11 +0.06    -0.331 N  
DOCKED: ATOM     20  C   UNL     1     139.579  69.527 222.080 -0.08 -0.03    +0.152 C  
DOCKED: ATOM     21  C   UNL     1     138.772  70.149 224.236 -0.28 -0.02    +0.118 C  
DOCKED: ATOM     22  C   UNL     1     138.754  68.379 222.567 -0.18 -0.02    +0.136 C  
DOCKED: ATOM     23  C   UNL     1     138.568  68.681 224.037 -0.29 -0.01    +0.063 C  
DOCKED: BRANCH  21  24
DOCKED: ATOM     24  C   UNL     1     139.572  70.470 225.435 -0.43 +0.00    -0.025 A  
DOCKED: ATOM     25  C   UNL     1     140.404  71.589 225.506 -0.51 -0.00    +0.006 A  
DOCKED: ATOM     26  C   UNL     1     139.471  69.605 226.522 -0.49 -0.00    +0.006 A  
DOCKED: ATOM     27  C   UNL     1     141.141  71.853 226.658 -0.75 -0.00    +0.000 A  
DOCKED: ATOM     28  C   UNL     1     140.211  69.872 227.675 -0.62 -0.00    +0.000 A  
DOCKED: ATOM     29  C   UNL     1     141.040  70.987 227.744 -0.71 -0.00    +0.000 A  
DOCKED: ENDBRANCH  21  24
DOCKED: BRANCH  22  30
DOCKED: ATOM     30  O   UNL     1     137.511  68.281 221.961 -0.05 +0.06    -0.391 OA 
DOCKED: ATOM     31  H   UNL     1     137.280  69.124 221.500 +0.04 -0.03    +0.211 HD 
DOCKED: ENDBRANCH  22  30
DOCKED: ENDBRANCH  17  19
DOCKED: ENDBRANCH   1  17
DOCKED: TORSDOF 6
DOCKED: TER
DOCKED: ENDMDL
________________________________________________________________________________


    FINAL DOCKED STATE:
    ________________________


Run:   6 / 20
Time taken for this run:   0.038s

DOCKED: MODEL        6
DOCKED: USER    Run = 6
DOCKED: USER
DOCKED: USER    Estimated Free Energy of Binding    =  -7.70 kcal/mol  [=(1)+(2)+(3)-(4)]
DOCKED: USER
DOCKED: USER    (1) Final Intermolecular Energy     =  -9.49 kcal/mol
DOCKED: USER        vdW + Hbond + desolv Energy     =  -9.45 kcal/mol
DOCKED: USER        Electrostatic Energy            =  -0.05 kcal/mol
DOCKED: USER        Moving Ligand-Fixed Receptor    =  -9.49 kcal/mol
DOCKED: USER        Moving Ligand-Moving Receptor   =  +0.00 kcal/mol
DOCKED: USER    (2) Final Total Internal Energy     =  -2.46 kcal/mol
DOCKED: USER    (3) Torsional Free Energy           =  +1.79 kcal/mol
DOCKED: USER    (4) Unbound System's Energy         =  -2.46 kcal/mol
DOCKED: USER
DOCKED: USER
DOCKED: REMARK SMILES O=C(NCC(=O)N1C[C@H](O)C[C@H]1c1ccccc1)c1ccc2ccc(Cl)cc2n1
DOCKED: REMARK SMILES IDX 4 1 3 2 2 3 1 4 19 6 20 7 29 8 21 9 28 10 22 11 27 12 23 13
DOCKED: REMARK SMILES IDX 25 14 24 15 26 16 5 17 6 18 7 19 8 20 12 21 9 22 11 23 13 24
DOCKED: REMARK SMILES IDX 14 25 18 26 15 27 17 28 16 29 10 30
DOCKED: REMARK H PARENT 3 5 10 31
DOCKED: USER                              x       y       z     vdW  Elec       q    Type
DOCKED: USER                           _______ _______ _______ _____ _____    ______ ____
DOCKED: ROOT
DOCKED: ATOM      1  C   UNL     1     137.860  72.378 222.228 -0.10 -0.06    +0.216 C  
DOCKED: ENDROOT
DOCKED: BRANCH   1   2
DOCKED: ATOM      2  N   UNL     1     136.845  72.634 223.242 +0.02 +0.12    -0.342 N  
DOCKED: ATOM      3  C   UNL     1     135.978  71.593 223.688 -0.11 -0.05    +0.270 C  
DOCKED: ATOM      4  O   UNL     1     136.075  70.430 223.213 -0.07 +0.04    -0.268 OA 
DOCKED: ATOM      5  H   UNL     1     136.715  73.587 223.679 -0.49 -0.09    +0.164 HD 
DOCKED: BRANCH   3   6
DOCKED: ATOM      6  C   UNL     1     134.976  71.893 224.705 -0.15 -0.01    +0.128 A  
DOCKED: ATOM      7  C   UNL     1     134.309  70.877 225.355 -0.23 -0.00    +0.035 A  
DOCKED: ATOM      8  N   UNL     1     134.677  73.161 225.036 -0.17 +0.02    -0.243 NA 
DOCKED: ATOM      9  C   UNL     1     133.346  71.142 226.333 -0.33 -0.00    +0.013 A  
DOCKED: ATOM     10  C   UNL     1     133.761  73.490 225.966 -0.30 +0.00    +0.073 A  
DOCKED: ATOM     11  C   UNL     1     133.084  72.472 226.627 -0.39 -0.00    +0.000 A  
DOCKED: ATOM     12  C   UNL     1     133.487  74.804 226.272 -0.33 +0.00    +0.049 A  
DOCKED: ATOM     13  C   UNL     1     132.146  72.838 227.580 -0.36 -0.00    +0.012 A  
DOCKED: ATOM     14  C   UNL     1     132.553  75.178 227.221 -0.38 +0.00    +0.043 A  
DOCKED: ATOM     15  C   UNL     1     131.873  74.154 227.884 -0.38 -0.00    +0.021 A  
DOCKED: ATOM     16  Cl  UNL     1     132.234  76.866 227.579 -0.42 -0.00    -0.084 Cl 
DOCKED: ENDBRANCH   3   6
DOCKED: ENDBRANCH   1   2
DOCKED: BRANCH   1  17
DOCKED: ATOM     17  C   UNL     1     139.030  71.779 222.911 -0.16 -0.06    +0.242 C  
DOCKED: ATOM     18  O   UNL     1     140.039  72.538 223.081 -0.51 +0.04    -0.273 OA 
DOCKED: BRANCH  17  19
DOCKED: ATOM     19  N   UNL     1     139.056  70.429 223.365 -0.11 +0.06    -0.331 N  
DOCKED: ATOM     20  C   UNL     1     139.386  69.323 222.476 -0.09 -0.03    +0.152 C  
DOCKED: ATOM     21  C   UNL     1     138.782  69.976 224.689 -0.31 -0.02    +0.118 C  
DOCKED: ATOM     22  C   UNL     1     138.840  68.100 223.141 -0.20 -0.02    +0.136 C  
DOCKED: ATOM     23  C   UNL     1     138.805  68.483 224.604 -0.34 -0.00    +0.063 C  
DOCKED: BRANCH  21  24
DOCKED: ATOM     24  C   UNL     1     139.670  70.514 225.739 -0.43 +0.00    -0.025 A  
DOCKED: ATOM     25  C   UNL     1     140.632  71.493 225.481 -0.57 -0.00    +0.006 A  
DOCKED: ATOM     26  C   UNL     1     139.519  70.007 227.027 -0.45 -0.00    +0.006 A  
DOCKED: ATOM     27  C   UNL     1     141.448  71.972 226.503 -0.69 -0.00    +0.000 A  
DOCKED: ATOM     28  C   UNL     1     140.338  70.488 228.049 -0.65 -0.00    +0.000 A  
DOCKED: ATOM     29  C   UNL     1     141.296  71.463 227.791 -0.71 -0.00    +0.000 A  
DOCKED: ENDBRANCH  21  24
DOCKED: BRANCH  22  30
DOCKED: ATOM     30  O   UNL     1     137.562  67.757 222.729 -0.08 +0.05    -0.391 OA 
DOCKED: ATOM     31  H   UNL     1     136.965  68.544 222.754 +0.05 -0.02    +0.211 HD 
DOCKED: ENDBRANCH  22  30
DOCKED: ENDBRANCH  17  19
DOCKED: ENDBRANCH   1  17
DOCKED: TORSDOF 6
DOCKED: TER
DOCKED: ENDMDL
________________________________________________________________________________


    FINAL DOCKED STATE:
    ________________________


Run:   7 / 20
Time taken for this run:   0.038s

DOCKED: MODEL        7
DOCKED: USER    Run = 7
DOCKED: USER
DOCKED: USER    Estimated Free Energy of Binding    =  -8.29 kcal/mol  [=(1)+(2)+(3)-(4)]
DOCKED: USER
DOCKED: USER    (1) Final Intermolecular Energy     = -10.08 kcal/mol
DOCKED: USER        vdW + Hbond + desolv Energy     = -10.07 kcal/mol
DOCKED: USER        Electrostatic Energy            =  -0.01 kcal/mol
DOCKED: USER        Moving Ligand-Fixed Receptor    = -10.08 kcal/mol
DOCKED: USER        Moving Ligand-Moving Receptor   =  +0.00 kcal/mol
DOCKED: USER    (2) Final Total Internal Energy     =  -1.63 kcal/mol
DOCKED: USER    (3) Torsional Free Energy           =  +1.79 kcal/mol
DOCKED: USER    (4) Unbound System's Energy         =  -1.63 kcal/mol
DOCKED: USER
DOCKED: USER
DOCKED: REMARK SMILES O=C(NCC(=O)N1C[C@H](O)C[C@H]1c1ccccc1)c1ccc2ccc(Cl)cc2n1
DOCKED: REMARK SMILES IDX 4 1 3 2 2 3 1 4 19 6 20 7 29 8 21 9 28 10 22 11 27 12 23 13
DOCKED: REMARK SMILES IDX 25 14 24 15 26 16 5 17 6 18 7 19 8 20 12 21 9 22 11 23 13 24
DOCKED: REMARK SMILES IDX 14 25 18 26 15 27 17 28 16 29 10 30
DOCKED: REMARK H PARENT 3 5 10 31
DOCKED: USER                              x       y       z     vdW  Elec       q    Type
DOCKED: USER                           _______ _______ _______ _____ _____    ______ ____
DOCKED: ROOT
DOCKED: ATOM      1  C   UNL     1     138.650  72.781 221.953 -0.14 -0.06    +0.216 C  
DOCKED: ENDROOT
DOCKED: BRANCH   1   2
DOCKED: ATOM      2  N   UNL     1     138.879  74.167 222.344 +0.01 +0.10    -0.342 N  
DOCKED: ATOM      3  C   UNL     1     138.122  75.225 221.758 -0.14 -0.07    +0.270 C  
DOCKED: ATOM      4  O   UNL     1     137.242  74.981 220.891 -0.04 +0.06    -0.268 OA 
DOCKED: ATOM      5  H   UNL     1     139.601  74.435 223.065 -0.49 -0.00    +0.164 HD 
DOCKED: BRANCH   3   6
DOCKED: ATOM      6  C   UNL     1     138.383  76.598 222.178 -0.24 -0.03    +0.128 A  
DOCKED: ATOM      7  C   UNL     1     137.342  77.469 222.415 -0.21 -0.01    +0.035 A  
DOCKED: ATOM      8  N   UNL     1     139.638  77.049 222.345 -0.22 +0.05    -0.243 NA 
DOCKED: ATOM      9  C   UNL     1     137.569  78.788 222.819 -0.21 -0.00    +0.013 A  
DOCKED: ATOM     10  C   UNL     1     139.931  78.305 222.731 -0.34 -0.02    +0.073 A  
DOCKED: ATOM     11  C   UNL     1     138.887  79.191 222.973 -0.32 -0.00    +0.000 A  
DOCKED: ATOM     12  C   UNL     1     141.232  78.724 222.889 -0.48 -0.02    +0.049 A  
DOCKED: ATOM     13  C   UNL     1     139.216  80.478 223.368 -0.38 -0.00    +0.012 A  
DOCKED: ATOM     14  C   UNL     1     141.570  80.006 223.284 -0.54 -0.01    +0.043 A  
DOCKED: ATOM     15  C   UNL     1     140.520  80.895 223.526 -0.43 -0.00    +0.021 A  
DOCKED: ATOM     16  Cl  UNL     1     143.244  80.497 223.472 -0.72 +0.02    -0.084 Cl 
DOCKED: ENDBRANCH   3   6
DOCKED: ENDBRANCH   1   2
DOCKED: BRANCH   1  17
DOCKED: ATOM     17  C   UNL     1     139.594  71.940 222.724 -0.22 -0.05    +0.242 C  
DOCKED: ATOM     18  O   UNL     1     140.686  72.492 223.080 -0.46 +0.01    -0.273 OA 
DOCKED: BRANCH  17  19
DOCKED: ATOM     19  N   UNL     1     139.326  70.584 223.065 -0.11 +0.06    -0.331 N  
DOCKED: ATOM     20  C   UNL     1     139.593  69.490 222.141 -0.06 -0.03    +0.152 C  
DOCKED: ATOM     21  C   UNL     1     138.785  70.112 224.297 -0.29 -0.02    +0.118 C  
DOCKED: ATOM     22  C   UNL     1     138.757  68.347 222.623 -0.19 -0.02    +0.136 C  
DOCKED: ATOM     23  C   UNL     1     138.569  68.647 224.093 -0.30 -0.01    +0.063 C  
DOCKED: BRANCH  21  24
DOCKED: ATOM     24  C   UNL     1     139.584  70.423 225.499 -0.43 +0.00    -0.025 A  
DOCKED: ATOM     25  C   UNL     1     140.362  71.578 225.607 -0.51 -0.00    +0.006 A  
DOCKED: ATOM     26  C   UNL     1     139.540  69.510 226.551 -0.50 -0.00    +0.006 A  
DOCKED: ATOM     27  C   UNL     1     141.100  71.830 226.761 -0.76 -0.00    +0.000 A  
DOCKED: ATOM     28  C   UNL     1     140.281  69.766 227.705 -0.62 -0.00    +0.000 A  
DOCKED: ATOM     29  C   UNL     1     141.055  70.916 227.812 -0.70 -0.00    +0.000 A  
DOCKED: ENDBRANCH  21  24
DOCKED: BRANCH  22  30
DOCKED: ATOM     30  O   UNL     1     137.515  68.262 222.013 -0.06 +0.06    -0.391 OA 
DOCKED: ATOM     31  H   UNL     1     137.611  68.025 221.059 +0.04 -0.04    +0.211 HD 
DOCKED: ENDBRANCH  22  30
DOCKED: ENDBRANCH  17  19
DOCKED: ENDBRANCH   1  17
DOCKED: TORSDOF 6
DOCKED: TER
DOCKED: ENDMDL
________________________________________________________________________________


    FINAL DOCKED STATE:
    ________________________


Run:   8 / 20
Time taken for this run:   0.038s

DOCKED: MODEL        8
DOCKED: USER    Run = 8
DOCKED: USER
DOCKED: USER    Estimated Free Energy of Binding    =  -7.44 kcal/mol  [=(1)+(2)+(3)-(4)]
DOCKED: USER
DOCKED: USER    (1) Final Intermolecular Energy     =  -9.23 kcal/mol
DOCKED: USER        vdW + Hbond + desolv Energy     =  -9.17 kcal/mol
DOCKED: USER        Electrostatic Energy            =  -0.06 kcal/mol
DOCKED: USER        Moving Ligand-Fixed Receptor    =  -9.23 kcal/mol
DOCKED: USER        Moving Ligand-Moving Receptor   =  +0.00 kcal/mol
DOCKED: USER    (2) Final Total Internal Energy     =  -2.15 kcal/mol
DOCKED: USER    (3) Torsional Free Energy           =  +1.79 kcal/mol
DOCKED: USER    (4) Unbound System's Energy         =  -2.15 kcal/mol
DOCKED: USER
DOCKED: USER
DOCKED: REMARK SMILES O=C(NCC(=O)N1C[C@H](O)C[C@H]1c1ccccc1)c1ccc2ccc(Cl)cc2n1
DOCKED: REMARK SMILES IDX 4 1 3 2 2 3 1 4 19 6 20 7 29 8 21 9 28 10 22 11 27 12 23 13
DOCKED: REMARK SMILES IDX 25 14 24 15 26 16 5 17 6 18 7 19 8 20 12 21 9 22 11 23 13 24
DOCKED: REMARK SMILES IDX 14 25 18 26 15 27 17 28 16 29 10 30
DOCKED: REMARK H PARENT 3 5 10 31
DOCKED: USER                              x       y       z     vdW  Elec       q    Type
DOCKED: USER                           _______ _______ _______ _____ _____    ______ ____
DOCKED: ROOT
DOCKED: ATOM      1  C   UNL     1     139.495  75.369 221.161 -0.17 -0.05    +0.216 C  
DOCKED: ENDROOT
DOCKED: BRANCH   1   2
DOCKED: ATOM      2  N   UNL     1     139.489  74.197 222.028 -0.15 +0.06    -0.342 N  
DOCKED: ATOM      3  C   UNL     1     139.452  72.882 221.478 -0.14 -0.05    +0.270 C  
DOCKED: ATOM      4  O   UNL     1     139.425  72.708 220.231 -0.04 +0.05    -0.268 OA 
DOCKED: ATOM      5  H   UNL     1     139.511  74.277 223.081 -0.52 -0.02    +0.164 HD 
DOCKED: BRANCH   3   6
DOCKED: ATOM      6  C   UNL     1     139.447  71.736 222.382 -0.22 -0.03    +0.128 A  
DOCKED: ATOM      7  C   UNL     1     138.966  70.515 221.965 -0.15 -0.01    +0.035 A  
DOCKED: ATOM      8  N   UNL     1     139.910  71.840 223.640 -0.27 +0.05    -0.243 NA 
DOCKED: ATOM      9  C   UNL     1     138.952  69.405 222.814 -0.21 -0.00    +0.013 A  
DOCKED: ATOM     10  C   UNL     1     139.927  70.815 224.512 -0.40 -0.01    +0.073 A  
DOCKED: ATOM     11  C   UNL     1     139.443  69.578 224.100 -0.31 -0.00    +0.000 A  
DOCKED: ATOM     12  C   UNL     1     140.410  70.967 225.792 -0.54 -0.01    +0.049 A  
DOCKED: ATOM     13  C   UNL     1     139.472  68.539 225.017 -0.40 -0.00    +0.012 A  
DOCKED: ATOM     14  C   UNL     1     140.442  69.936 226.713 -0.53 -0.01    +0.043 A  
DOCKED: ATOM     15  C   UNL     1     139.956  68.695 226.298 -0.55 -0.00    +0.021 A  
DOCKED: ATOM     16  Cl  UNL     1     141.067  70.175 228.336 -0.57 +0.02    -0.084 Cl 
DOCKED: ENDBRANCH   3   6
DOCKED: ENDBRANCH   1   2
DOCKED: BRANCH   1  17
DOCKED: ATOM     17  C   UNL     1     140.760  76.099 221.409 -0.24 -0.08    +0.242 C  
DOCKED: ATOM     18  O   UNL     1     141.024  76.382 222.623 -0.33 +0.09    -0.273 OA 
DOCKED: BRANCH  17  19
DOCKED: ATOM     19  N   UNL     1     141.654  76.479 220.368 -0.12 +0.16    -0.331 N  
DOCKED: ATOM     20  C   UNL     1     142.052  77.865 220.162 -0.19 -0.10    +0.152 C  
DOCKED: ATOM     21  C   UNL     1     142.267  75.609 219.419 -0.22 -0.05    +0.118 C  
DOCKED: ATOM     22  C   UNL     1     142.553  77.932 218.754 -0.24 -0.10    +0.136 C  
DOCKED: ATOM     23  C   UNL     1     142.990  76.512 218.471 -0.29 -0.04    +0.063 C  
DOCKED: BRANCH  21  24
DOCKED: ATOM     24  C   UNL     1     143.128  74.555 219.991 -0.33 +0.01    -0.025 A  
DOCKED: ATOM     25  C   UNL     1     142.655  73.273 220.281 -0.26 -0.00    +0.006 A  
DOCKED: ATOM     26  C   UNL     1     144.459  74.880 220.240 -0.41 -0.00    +0.006 A  
DOCKED: ATOM     27  C   UNL     1     143.504  72.309 220.820 -0.31 -0.00    +0.000 A  
DOCKED: ATOM     28  C   UNL     1     145.307  73.912 220.781 -0.61 -0.00    +0.000 A  
DOCKED: ATOM     29  C   UNL     1     144.835  72.636 221.069 -0.42 -0.00    +0.000 A  
DOCKED: ENDBRANCH  21  24
DOCKED: BRANCH  22  30
DOCKED: ATOM     30  O   UNL     1     141.590  78.306 217.831 -0.07 +0.23    -0.391 OA 
DOCKED: ATOM     31  H   UNL     1     141.975  78.908 217.149 +0.04 -0.17    +0.211 HD 
DOCKED: ENDBRANCH  22  30
DOCKED: ENDBRANCH  17  19
DOCKED: ENDBRANCH   1  17
DOCKED: TORSDOF 6
DOCKED: TER
DOCKED: ENDMDL
________________________________________________________________________________


    FINAL DOCKED STATE:
    ________________________


Run:   9 / 20
Time taken for this run:   0.038s

DOCKED: MODEL        9
DOCKED: USER    Run = 9
DOCKED: USER
DOCKED: USER    Estimated Free Energy of Binding    =  -7.21 kcal/mol  [=(1)+(2)+(3)-(4)]
DOCKED: USER
DOCKED: USER    (1) Final Intermolecular Energy     =  -9.00 kcal/mol
DOCKED: USER        vdW + Hbond + desolv Energy     =  -8.89 kcal/mol
DOCKED: USER        Electrostatic Energy            =  -0.11 kcal/mol
DOCKED: USER        Moving Ligand-Fixed Receptor    =  -9.00 kcal/mol
DOCKED: USER        Moving Ligand-Moving Receptor   =  +0.00 kcal/mol
DOCKED: USER    (2) Final Total Internal Energy     =  -2.43 kcal/mol
DOCKED: USER    (3) Torsional Free Energy           =  +1.79 kcal/mol
DOCKED: USER    (4) Unbound System's Energy         =  -2.43 kcal/mol
DOCKED: USER
DOCKED: USER
DOCKED: REMARK SMILES O=C(NCC(=O)N1C[C@H](O)C[C@H]1c1ccccc1)c1ccc2ccc(Cl)cc2n1
DOCKED: REMARK SMILES IDX 4 1 3 2 2 3 1 4 19 6 20 7 29 8 21 9 28 10 22 11 27 12 23 13
DOCKED: REMARK SMILES IDX 25 14 24 15 26 16 5 17 6 18 7 19 8 20 12 21 9 22 11 23 13 24
DOCKED: REMARK SMILES IDX 14 25 18 26 15 27 17 28 16 29 10 30
DOCKED: REMARK H PARENT 3 5 10 31
DOCKED: USER                              x       y       z     vdW  Elec       q    Type
DOCKED: USER                           _______ _______ _______ _____ _____    ______ ____
DOCKED: ROOT
DOCKED: ATOM      1  C   UNL     1     141.628  80.228 219.085 -0.20 -0.11    +0.216 C  
DOCKED: ENDROOT
DOCKED: BRANCH   1   2
DOCKED: ATOM      2  N   UNL     1     142.175  78.879 219.178 -0.13 +0.24    -0.342 N  
DOCKED: ATOM      3  C   UNL     1     141.501  77.775 218.577 -0.12 -0.14    +0.270 C  
DOCKED: ATOM      4  O   UNL     1     140.419  77.945 217.954 -0.03 +0.11    -0.268 OA 
DOCKED: ATOM      5  H   UNL     1     143.078  78.673 219.685 -0.25 -0.19    +0.164 HD 
DOCKED: BRANCH   3   6
DOCKED: ATOM      6  C   UNL     1     142.083  76.442 218.693 -0.18 -0.06    +0.128 A  
DOCKED: ATOM      7  C   UNL     1     141.586  75.392 217.952 -0.08 -0.01    +0.035 A  
DOCKED: ATOM      8  N   UNL     1     143.115  76.202 219.520 -0.24 +0.15    -0.243 NA 
DOCKED: ATOM      9  C   UNL     1     142.129  74.107 218.047 -0.07 -0.00    +0.013 A  
DOCKED: ATOM     10  C   UNL     1     143.687  74.992 219.663 -0.36 -0.03    +0.073 A  
DOCKED: ATOM     11  C   UNL     1     143.192  73.927 218.920 -0.19 -0.00    +0.000 A  
DOCKED: ATOM     12  C   UNL     1     144.742  74.793 220.524 -0.32 -0.02    +0.049 A  
DOCKED: ATOM     13  C   UNL     1     143.799  72.691 219.086 -0.19 -0.00    +0.012 A  
DOCKED: ATOM     14  C   UNL     1     145.354  73.564 220.696 -0.59 -0.01    +0.043 A  
DOCKED: ATOM     15  C   UNL     1     144.855  72.494 219.948 -0.39 +0.00    +0.021 A  
DOCKED: ATOM     16  Cl  UNL     1     146.697  73.355 221.805 -0.73 +0.01    -0.084 Cl 
DOCKED: ENDBRANCH   3   6
DOCKED: ENDBRANCH   1   2
DOCKED: BRANCH   1  17
DOCKED: ATOM     17  C   UNL     1     140.898  80.498 220.345 -0.16 -0.08    +0.242 C  
DOCKED: ATOM     18  O   UNL     1     139.767  81.074 220.234 -0.06 +0.07    -0.273 OA 
DOCKED: BRANCH  17  19
DOCKED: ATOM     19  N   UNL     1     141.406  80.147 221.628 -0.16 +0.11    -0.331 N  
DOCKED: ATOM     20  C   UNL     1     141.826  81.154 222.593 -0.43 -0.03    +0.152 C  
DOCKED: ATOM     21  C   UNL     1     141.572  78.827 222.140 -0.39 -0.05    +0.118 C  
DOCKED: ATOM     22  C   UNL     1     142.722  80.438 223.552 -0.56 -0.03    +0.136 C  
DOCKED: ATOM     23  C   UNL     1     142.264  79.001 223.454 -0.48 -0.02    +0.063 C  
DOCKED: BRANCH  21  24
DOCKED: ATOM     24  C   UNL     1     140.335  78.025 222.234 -0.36 +0.01    -0.025 A  
DOCKED: ATOM     25  C   UNL     1     139.107  78.576 222.606 -0.30 -0.00    +0.006 A  
DOCKED: ATOM     26  C   UNL     1     140.428  76.668 221.934 -0.38 -0.00    +0.006 A  
DOCKED: ATOM     27  C   UNL     1     137.966  77.781 222.681 -0.26 -0.00    +0.000 A  
DOCKED: ATOM     28  C   UNL     1     139.283  75.873 222.010 -0.32 -0.00    +0.000 A  
DOCKED: ATOM     29  C   UNL     1     138.060  76.424 222.381 -0.29 -0.00    +0.000 A  
DOCKED: ENDBRANCH  21  24
DOCKED: BRANCH  22  30
DOCKED: ATOM     30  O   UNL     1     144.068  80.511 223.228 -0.31 +0.10    -0.391 OA 
DOCKED: ATOM     31  H   UNL     1     144.237  80.095 222.348 -0.36 -0.10    +0.211 HD 
DOCKED: ENDBRANCH  22  30
DOCKED: ENDBRANCH  17  19
DOCKED: ENDBRANCH   1  17
DOCKED: TORSDOF 6
DOCKED: TER
DOCKED: ENDMDL
________________________________________________________________________________


    FINAL DOCKED STATE:
    ________________________


Run:   10 / 20
Time taken for this run:   0.038s

DOCKED: MODEL        10
DOCKED: USER    Run = 10
DOCKED: USER
DOCKED: USER    Estimated Free Energy of Binding    =  -8.01 kcal/mol  [=(1)+(2)+(3)-(4)]
DOCKED: USER
DOCKED: USER    (1) Final Intermolecular Energy     =  -9.80 kcal/mol
DOCKED: USER        vdW + Hbond + desolv Energy     =  -9.66 kcal/mol
DOCKED: USER        Electrostatic Energy            =  -0.14 kcal/mol
DOCKED: USER        Moving Ligand-Fixed Receptor    =  -9.80 kcal/mol
DOCKED: USER        Moving Ligand-Moving Receptor   =  +0.00 kcal/mol
DOCKED: USER    (2) Final Total Internal Energy     =  -1.77 kcal/mol
DOCKED: USER    (3) Torsional Free Energy           =  +1.79 kcal/mol
DOCKED: USER    (4) Unbound System's Energy         =  -1.77 kcal/mol
DOCKED: USER
DOCKED: USER
DOCKED: REMARK SMILES O=C(NCC(=O)N1C[C@H](O)C[C@H]1c1ccccc1)c1ccc2ccc(Cl)cc2n1
DOCKED: REMARK SMILES IDX 4 1 3 2 2 3 1 4 19 6 20 7 29 8 21 9 28 10 22 11 27 12 23 13
DOCKED: REMARK SMILES IDX 25 14 24 15 26 16 5 17 6 18 7 19 8 20 12 21 9 22 11 23 13 24
DOCKED: REMARK SMILES IDX 14 25 18 26 15 27 17 28 16 29 10 30
DOCKED: REMARK H PARENT 3 5 10 31
DOCKED: USER                              x       y       z     vdW  Elec       q    Type
DOCKED: USER                           _______ _______ _______ _____ _____    ______ ____
DOCKED: ROOT
DOCKED: ATOM      1  C   UNL     1     140.094  76.537 221.363 -0.21 -0.06    +0.216 C  
DOCKED: ENDROOT
DOCKED: BRANCH   1   2
DOCKED: ATOM      2  N   UNL     1     139.847  75.267 222.035 -0.17 +0.05    -0.342 N  
DOCKED: ATOM      3  C   UNL     1     140.278  74.038 221.453 -0.19 -0.04    +0.270 C  
DOCKED: ATOM      4  O   UNL     1     140.881  74.027 220.348 -0.10 +0.06    -0.268 OA 
DOCKED: ATOM      5  H   UNL     1     139.347  75.210 222.963 -0.32 -0.03    +0.164 HD 
DOCKED: BRANCH   3   6
DOCKED: ATOM      6  C   UNL     1     140.011  72.789 222.159 -0.25 -0.02    +0.128 A  
DOCKED: ATOM      7  C   UNL     1     139.415  71.729 221.510 -0.16 -0.01    +0.035 A  
DOCKED: ATOM      8  N   UNL     1     140.337  72.637 223.455 -0.27 +0.02    -0.243 NA 
DOCKED: ATOM      9  C   UNL     1     139.151  70.524 222.167 -0.18 -0.00    +0.013 A  
DOCKED: ATOM     10  C   UNL     1     140.112  71.507 224.150 -0.40 -0.01    +0.073 A  
DOCKED: ATOM     11  C   UNL     1     139.511  70.432 223.504 -0.31 -0.00    +0.000 A  
DOCKED: ATOM     12  C   UNL     1     140.462  71.396 225.476 -0.52 -0.01    +0.049 A  
DOCKED: ATOM     13  C   UNL     1     139.290  69.281 224.242 -0.32 -0.00    +0.012 A  
DOCKED: ATOM     14  C   UNL     1     140.246  70.251 226.221 -0.51 -0.01    +0.043 A  
DOCKED: ATOM     15  C   UNL     1     139.642  69.173 225.570 -0.44 -0.00    +0.021 A  
DOCKED: ATOM     16  Cl  UNL     1     140.709  70.154 227.911 -0.79 +0.02    -0.084 Cl 
DOCKED: ENDBRANCH   3   6
DOCKED: ENDBRANCH   1   2
DOCKED: BRANCH   1  17
DOCKED: ATOM     17  C   UNL     1     139.801  77.617 222.333 -0.25 -0.06    +0.242 C  
DOCKED: ATOM     18  O   UNL     1     138.824  77.419 223.127 -0.16 +0.04    -0.273 OA 
DOCKED: BRANCH  17  19
DOCKED: ATOM     19  N   UNL     1     140.552  78.825 222.400 -0.15 +0.10    -0.331 N  
DOCKED: ATOM     20  C   UNL     1     141.579  79.149 221.419 -0.31 -0.07    +0.152 C  
DOCKED: ATOM     21  C   UNL     1     140.423  79.849 223.384 -0.41 -0.02    +0.118 C  
DOCKED: ATOM     22  C   UNL     1     142.444  80.179 222.072 -0.41 -0.06    +0.136 C  
DOCKED: ATOM     23  C   UNL     1     141.524  80.816 223.089 -0.51 -0.01    +0.063 C  
DOCKED: BRANCH  21  24
DOCKED: ATOM     24  C   UNL     1     139.092  80.485 223.464 -0.38 +0.00    -0.025 A  
DOCKED: ATOM     25  C   UNL     1     138.265  80.361 224.582 -0.33 -0.00    +0.006 A  
DOCKED: ATOM     26  C   UNL     1     138.673  81.231 222.365 -0.22 -0.00    +0.006 A  
DOCKED: ATOM     27  C   UNL     1     137.018  80.980 224.613 -0.34 -0.00    +0.000 A  
DOCKED: ATOM     28  C   UNL     1     137.422  81.849 222.399 -0.15 -0.00    +0.000 A  
DOCKED: ATOM     29  C   UNL     1     136.599  81.726 223.513 -0.18 -0.00    +0.000 A  
DOCKED: ENDBRANCH  21  24
DOCKED: BRANCH  22  30
DOCKED: ATOM     30  O   UNL     1     143.549  79.655 222.724 -0.28 +0.20    -0.391 OA 
DOCKED: ATOM     31  H   UNL     1     143.914  78.883 222.226 -0.44 -0.22    +0.211 HD 
DOCKED: ENDBRANCH  22  30
DOCKED: ENDBRANCH  17  19
DOCKED: ENDBRANCH   1  17
DOCKED: TORSDOF 6
DOCKED: TER
DOCKED: ENDMDL
________________________________________________________________________________


    FINAL DOCKED STATE:
    ________________________


Run:   11 / 20
Time taken for this run:   0.038s

DOCKED: MODEL        11
DOCKED: USER    Run = 11
DOCKED: USER
DOCKED: USER    Estimated Free Energy of Binding    =  -7.70 kcal/mol  [=(1)+(2)+(3)-(4)]
DOCKED: USER
DOCKED: USER    (1) Final Intermolecular Energy     =  -9.49 kcal/mol
DOCKED: USER        vdW + Hbond + desolv Energy     =  -9.44 kcal/mol
DOCKED: USER        Electrostatic Energy            =  -0.05 kcal/mol
DOCKED: USER        Moving Ligand-Fixed Receptor    =  -9.49 kcal/mol
DOCKED: USER        Moving Ligand-Moving Receptor   =  +0.00 kcal/mol
DOCKED: USER    (2) Final Total Internal Energy     =  -2.48 kcal/mol
DOCKED: USER    (3) Torsional Free Energy           =  +1.79 kcal/mol
DOCKED: USER    (4) Unbound System's Energy         =  -2.48 kcal/mol
DOCKED: USER
DOCKED: USER
DOCKED: REMARK SMILES O=C(NCC(=O)N1C[C@H](O)C[C@H]1c1ccccc1)c1ccc2ccc(Cl)cc2n1
DOCKED: REMARK SMILES IDX 4 1 3 2 2 3 1 4 19 6 20 7 29 8 21 9 28 10 22 11 27 12 23 13
DOCKED: REMARK SMILES IDX 25 14 24 15 26 16 5 17 6 18 7 19 8 20 12 21 9 22 11 23 13 24
DOCKED: REMARK SMILES IDX 14 25 18 26 15 27 17 28 16 29 10 30
DOCKED: REMARK H PARENT 3 5 10 31
DOCKED: USER                              x       y       z     vdW  Elec       q    Type
DOCKED: USER                           _______ _______ _______ _____ _____    ______ ____
DOCKED: ROOT
DOCKED: ATOM      1  C   UNL     1     138.006  72.403 222.117 -0.11 -0.06    +0.216 C  
DOCKED: ENDROOT
DOCKED: BRANCH   1   2
DOCKED: ATOM      2  N   UNL     1     136.976  72.676 223.112 +0.02 +0.13    -0.342 N  
DOCKED: ATOM      3  C   UNL     1     136.108  71.641 223.567 -0.11 -0.05    +0.270 C  
DOCKED: ATOM      4  O   UNL     1     136.215  70.469 223.117 -0.07 +0.04    -0.268 OA 
DOCKED: ATOM      5  H   UNL     1     136.837  73.637 223.527 -0.49 -0.09    +0.164 HD 
DOCKED: BRANCH   3   6
DOCKED: ATOM      6  C   UNL     1     135.090  71.957 224.564 -0.16 -0.01    +0.128 A  
DOCKED: ATOM      7  C   UNL     1     134.376  70.953 225.181 -0.21 -0.00    +0.035 A  
DOCKED: ATOM      8  N   UNL     1     134.824  73.229 224.908 -0.17 +0.02    -0.243 NA 
DOCKED: ATOM      9  C   UNL     1     133.397  71.234 226.139 -0.31 -0.00    +0.013 A  
DOCKED: ATOM     10  C   UNL     1     133.897  73.573 225.821 -0.29 +0.00    +0.073 A  
DOCKED: ATOM     11  C   UNL     1     133.171  72.567 226.448 -0.37 -0.00    +0.000 A  
DOCKED: ATOM     12  C   UNL     1     133.657  74.890 226.141 -0.34 +0.00    +0.049 A  
DOCKED: ATOM     13  C   UNL     1     132.221  72.949 227.384 -0.38 -0.00    +0.012 A  
DOCKED: ATOM     14  C   UNL     1     132.712  75.279 227.074 -0.37 +0.00    +0.043 A  
DOCKED: ATOM     15  C   UNL     1     131.983  74.268 227.703 -0.41 -0.00    +0.021 A  
DOCKED: ATOM     16  Cl  UNL     1     132.439  76.971 227.451 -0.42 +0.00    -0.084 Cl 
DOCKED: ENDBRANCH   3   6
DOCKED: ENDBRANCH   1   2
DOCKED: BRANCH   1  17
DOCKED: ATOM     17  C   UNL     1     139.148  71.775 222.819 -0.18 -0.06    +0.242 C  
DOCKED: ATOM     18  O   UNL     1     140.181  72.500 222.988 -0.50 +0.03    -0.273 OA 
DOCKED: BRANCH  17  19
DOCKED: ATOM     19  N   UNL     1     139.124  70.432 223.294 -0.11 +0.06    -0.331 N  
DOCKED: ATOM     20  C   UNL     1     139.437  69.303 222.429 -0.07 -0.03    +0.152 C  
DOCKED: ATOM     21  C   UNL     1     138.808  70.008 224.618 -0.31 -0.02    +0.118 C  
DOCKED: ATOM     22  C   UNL     1     138.840  68.108 223.100 -0.20 -0.02    +0.136 C  
DOCKED: ATOM     23  C   UNL     1     138.786  68.514 224.556 -0.34 -0.00    +0.063 C  
DOCKED: BRANCH  21  24
DOCKED: ATOM     24  C   UNL     1     139.689  70.535 225.679 -0.44 +0.00    -0.025 A  
DOCKED: ATOM     25  C   UNL     1     140.639  71.531 225.441 -0.57 -0.00    +0.006 A  
DOCKED: ATOM     26  C   UNL     1     139.545  69.999 226.957 -0.47 -0.00    +0.006 A  
DOCKED: ATOM     27  C   UNL     1     141.449  71.999 226.473 -0.67 -0.00    +0.000 A  
DOCKED: ATOM     28  C   UNL     1     140.359  70.469 227.988 -0.67 -0.00    +0.000 A  
DOCKED: ATOM     29  C   UNL     1     141.305  71.461 227.750 -0.70 -0.00    +0.000 A  
DOCKED: ENDBRANCH  21  24
DOCKED: BRANCH  22  30
DOCKED: ATOM     30  O   UNL     1     137.561  67.797 222.666 -0.09 +0.05    -0.391 OA 
DOCKED: ATOM     31  H   UNL     1     137.048  68.620 222.478 +0.05 -0.03    +0.211 HD 
DOCKED: ENDBRANCH  22  30
DOCKED: ENDBRANCH  17  19
DOCKED: ENDBRANCH   1  17
DOCKED: TORSDOF 6
DOCKED: TER
DOCKED: ENDMDL
________________________________________________________________________________


    FINAL DOCKED STATE:
    ________________________


Run:   12 / 20
Time taken for this run:   0.038s

DOCKED: MODEL        12
DOCKED: USER    Run = 12
DOCKED: USER
DOCKED: USER    Estimated Free Energy of Binding    =  -7.41 kcal/mol  [=(1)+(2)+(3)-(4)]
DOCKED: USER
DOCKED: USER    (1) Final Intermolecular Energy     =  -9.20 kcal/mol
DOCKED: USER        vdW + Hbond + desolv Energy     =  -9.12 kcal/mol
DOCKED: USER        Electrostatic Energy            =  -0.08 kcal/mol
DOCKED: USER        Moving Ligand-Fixed Receptor    =  -9.20 kcal/mol
DOCKED: USER        Moving Ligand-Moving Receptor   =  +0.00 kcal/mol
DOCKED: USER    (2) Final Total Internal Energy     =  -2.41 kcal/mol
DOCKED: USER    (3) Torsional Free Energy           =  +1.79 kcal/mol
DOCKED: USER    (4) Unbound System's Energy         =  -2.41 kcal/mol
DOCKED: USER
DOCKED: USER
DOCKED: REMARK SMILES O=C(NCC(=O)N1C[C@H](O)C[C@H]1c1ccccc1)c1ccc2ccc(Cl)cc2n1
DOCKED: REMARK SMILES IDX 4 1 3 2 2 3 1 4 19 6 20 7 29 8 21 9 28 10 22 11 27 12 23 13
DOCKED: REMARK SMILES IDX 25 14 24 15 26 16 5 17 6 18 7 19 8 20 12 21 9 22 11 23 13 24
DOCKED: REMARK SMILES IDX 14 25 18 26 15 27 17 28 16 29 10 30
DOCKED: REMARK H PARENT 3 5 10 31
DOCKED: USER                              x       y       z     vdW  Elec       q    Type
DOCKED: USER                           _______ _______ _______ _____ _____    ______ ____
DOCKED: ROOT
DOCKED: ATOM      1  C   UNL     1     141.394  72.502 221.129 -0.17 -0.03    +0.216 C  
DOCKED: ENDROOT
DOCKED: BRANCH   1   2
DOCKED: ATOM      2  N   UNL     1     141.155  73.878 221.550 -0.15 +0.03    -0.342 N  
DOCKED: ATOM      3  C   UNL     1     139.832  74.408 221.597 -0.19 -0.04    +0.270 C  
DOCKED: ATOM      4  O   UNL     1     138.844  73.696 221.277 -0.12 +0.06    -0.268 OA 
DOCKED: ATOM      5  H   UNL     1     141.942  74.523 221.831 +0.00 -0.02    +0.164 HD 
DOCKED: BRANCH   3   6
DOCKED: ATOM      6  C   UNL     1     139.639  75.790 222.024 -0.28 -0.02    +0.128 A  
DOCKED: ATOM      7  C   UNL     1     138.372  76.325 222.119 -0.27 -0.01    +0.035 A  
DOCKED: ATOM      8  N   UNL     1     140.684  76.576 222.334 -0.29 +0.07    -0.243 NA 
DOCKED: ATOM      9  C   UNL     1     138.164  77.646 222.526 -0.27 -0.00    +0.013 A  
DOCKED: ATOM     10  C   UNL     1     140.559  77.855 222.733 -0.39 -0.02    +0.073 A  
DOCKED: ATOM     11  C   UNL     1     139.285  78.403 222.832 -0.33 -0.00    +0.000 A  
DOCKED: ATOM     12  C   UNL     1     141.658  78.624 223.040 -0.52 -0.02    +0.049 A  
DOCKED: ATOM     13  C   UNL     1     139.184  79.723 223.244 -0.37 -0.00    +0.012 A  
DOCKED: ATOM     14  C   UNL     1     141.567  79.941 223.452 -0.55 -0.01    +0.043 A  
DOCKED: ATOM     15  C   UNL     1     140.286  80.490 223.551 -0.43 -0.00    +0.021 A  
DOCKED: ATOM     16  Cl  UNL     1     142.996  80.885 223.834 -0.72 +0.02    -0.084 Cl 
DOCKED: ENDBRANCH   3   6
DOCKED: ENDBRANCH   1   2
DOCKED: BRANCH   1  17
DOCKED: ATOM     17  C   UNL     1     142.348  72.541 219.998 -0.11 -0.04    +0.242 C  
DOCKED: ATOM     18  O   UNL     1     141.949  72.033 218.900 -0.03 +0.04    -0.273 OA 
DOCKED: BRANCH  17  19
DOCKED: ATOM     19  N   UNL     1     143.649  73.111 220.098 -0.12 +0.06    -0.331 N  
DOCKED: ATOM     20  C   UNL     1     144.853  72.326 219.861 -0.30 +0.01    +0.152 C  
DOCKED: ATOM     21  C   UNL     1     143.959  74.463 220.427 -0.35 -0.05    +0.118 C  
DOCKED: ATOM     22  C   UNL     1     145.960  73.084 220.523 -0.52 +0.01    +0.136 C  
DOCKED: ATOM     23  C   UNL     1     145.449  74.507 220.539 -0.27 -0.02    +0.063 C  
DOCKED: BRANCH  21  24
DOCKED: ATOM     24  C   UNL     1     143.412  75.479 219.505 -0.37 +0.01    -0.025 A  
DOCKED: ATOM     25  C   UNL     1     142.641  76.557 219.946 -0.33 -0.00    +0.006 A  
DOCKED: ATOM     26  C   UNL     1     143.693  75.330 218.149 -0.22 -0.00    +0.006 A  
DOCKED: ATOM     27  C   UNL     1     142.147  77.493 219.040 -0.29 -0.00    +0.000 A  
DOCKED: ATOM     28  C   UNL     1     143.195  76.268 217.244 -0.24 -0.00    +0.000 A  
DOCKED: ATOM     29  C   UNL     1     142.428  77.342 217.684 -0.26 -0.00    +0.000 A  
DOCKED: ENDBRANCH  21  24
DOCKED: BRANCH  22  30
DOCKED: ATOM     30  O   UNL     1     146.222  72.680 221.822 -0.26 +0.11    -0.391 OA 
DOCKED: ATOM     31  H   UNL     1     145.647  71.916 222.072 -0.42 -0.21    +0.211 HD 
DOCKED: ENDBRANCH  22  30
DOCKED: ENDBRANCH  17  19
DOCKED: ENDBRANCH   1  17
DOCKED: TORSDOF 6
DOCKED: TER
DOCKED: ENDMDL
________________________________________________________________________________


    FINAL DOCKED STATE:
    ________________________


Run:   13 / 20
Time taken for this run:   0.038s

DOCKED: MODEL        13
DOCKED: USER    Run = 13
DOCKED: USER
DOCKED: USER    Estimated Free Energy of Binding    =  -7.72 kcal/mol  [=(1)+(2)+(3)-(4)]
DOCKED: USER
DOCKED: USER    (1) Final Intermolecular Energy     =  -9.51 kcal/mol
DOCKED: USER        vdW + Hbond + desolv Energy     =  -9.47 kcal/mol
DOCKED: USER        Electrostatic Energy            =  -0.04 kcal/mol
DOCKED: USER        Moving Ligand-Fixed Receptor    =  -9.51 kcal/mol
DOCKED: USER        Moving Ligand-Moving Receptor   =  +0.00 kcal/mol
DOCKED: USER    (2) Final Total Internal Energy     =  -2.45 kcal/mol
DOCKED: USER    (3) Torsional Free Energy           =  +1.79 kcal/mol
DOCKED: USER    (4) Unbound System's Energy         =  -2.45 kcal/mol
DOCKED: USER
DOCKED: USER
DOCKED: REMARK SMILES O=C(NCC(=O)N1C[C@H](O)C[C@H]1c1ccccc1)c1ccc2ccc(Cl)cc2n1
DOCKED: REMARK SMILES IDX 4 1 3 2 2 3 1 4 19 6 20 7 29 8 21 9 28 10 22 11 27 12 23 13
DOCKED: REMARK SMILES IDX 25 14 24 15 26 16 5 17 6 18 7 19 8 20 12 21 9 22 11 23 13 24
DOCKED: REMARK SMILES IDX 14 25 18 26 15 27 17 28 16 29 10 30
DOCKED: REMARK H PARENT 3 5 10 31
DOCKED: USER                              x       y       z     vdW  Elec       q    Type
DOCKED: USER                           _______ _______ _______ _____ _____    ______ ____
DOCKED: ROOT
DOCKED: ATOM      1  C   UNL     1     137.957  72.389 222.143 -0.11 -0.06    +0.216 C  
DOCKED: ENDROOT
DOCKED: BRANCH   1   2
DOCKED: ATOM      2  N   UNL     1     136.939  72.698 223.140 +0.03 +0.13    -0.342 N  
DOCKED: ATOM      3  C   UNL     1     136.068  71.682 223.633 -0.11 -0.05    +0.270 C  
DOCKED: ATOM      4  O   UNL     1     136.162  70.498 223.215 -0.07 +0.04    -0.268 OA 
DOCKED: ATOM      5  H   UNL     1     136.812  73.671 223.529 -0.49 -0.09    +0.164 HD 
DOCKED: BRANCH   3   6
DOCKED: ATOM      6  C   UNL     1     135.063  72.035 224.631 -0.16 -0.01    +0.128 A  
DOCKED: ATOM      7  C   UNL     1     134.321  71.056 225.256 -0.21 -0.00    +0.035 A  
DOCKED: ATOM      8  N   UNL     1     134.835  73.316 224.967 -0.18 +0.02    -0.243 NA 
DOCKED: ATOM      9  C   UNL     1     133.355  71.372 226.215 -0.32 -0.00    +0.013 A  
DOCKED: ATOM     10  C   UNL     1     133.921  73.692 225.880 -0.30 +0.00    +0.073 A  
DOCKED: ATOM     11  C   UNL     1     133.168  72.712 226.516 -0.38 -0.00    +0.000 A  
DOCKED: ATOM     12  C   UNL     1     133.720  75.018 226.193 -0.34 +0.00    +0.049 A  
DOCKED: ATOM     13  C   UNL     1     132.233  73.127 227.452 -0.37 -0.00    +0.012 A  
DOCKED: ATOM     14  C   UNL     1     132.790  75.441 227.125 -0.37 +0.00    +0.043 A  
DOCKED: ATOM     15  C   UNL     1     132.034  74.455 227.763 -0.41 -0.00    +0.021 A  
DOCKED: ATOM     16  Cl  UNL     1     132.567  77.142 227.492 -0.42 +0.00    -0.084 Cl 
DOCKED: ENDBRANCH   3   6
DOCKED: ENDBRANCH   1   2
DOCKED: BRANCH   1  17
DOCKED: ATOM     17  C   UNL     1     139.102  71.773 222.851 -0.18 -0.06    +0.242 C  
DOCKED: ATOM     18  O   UNL     1     140.123  72.512 223.032 -0.50 +0.03    -0.273 OA 
DOCKED: BRANCH  17  19
DOCKED: ATOM     19  N   UNL     1     139.092  70.428 223.319 -0.11 +0.06    -0.331 N  
DOCKED: ATOM     20  C   UNL     1     139.407  69.306 222.444 -0.08 -0.03    +0.152 C  
DOCKED: ATOM     21  C   UNL     1     138.792  69.994 224.643 -0.31 -0.02    +0.118 C  
DOCKED: ATOM     22  C   UNL     1     138.826  68.102 223.115 -0.21 -0.02    +0.136 C  
DOCKED: ATOM     23  C   UNL     1     138.782  68.500 224.573 -0.33 -0.00    +0.063 C  
DOCKED: BRANCH  21  24
DOCKED: ATOM     24  C   UNL     1     139.679  70.522 225.699 -0.44 +0.00    -0.025 A  
DOCKED: ATOM     25  C   UNL     1     140.643  71.502 225.451 -0.57 -0.00    +0.006 A  
DOCKED: ATOM     26  C   UNL     1     139.524  70.005 226.983 -0.45 -0.00    +0.006 A  
DOCKED: ATOM     27  C   UNL     1     141.457  71.971 226.478 -0.68 -0.00    +0.000 A  
DOCKED: ATOM     28  C   UNL     1     140.343  70.477 228.010 -0.66 -0.00    +0.000 A  
DOCKED: ATOM     29  C   UNL     1     141.303  71.452 227.762 -0.70 -0.00    +0.000 A  
DOCKED: ENDBRANCH  21  24
DOCKED: BRANCH  22  30
DOCKED: ATOM     30  O   UNL     1     137.546  67.784 222.690 -0.09 +0.05    -0.391 OA 
DOCKED: ATOM     31  H   UNL     1     136.967  68.584 222.698 +0.05 -0.03    +0.211 HD 
DOCKED: ENDBRANCH  22  30
DOCKED: ENDBRANCH  17  19
DOCKED: ENDBRANCH   1  17
DOCKED: TORSDOF 6
DOCKED: TER
DOCKED: ENDMDL
________________________________________________________________________________


    FINAL DOCKED STATE:
    ________________________


Run:   14 / 20
Time taken for this run:   0.038s

DOCKED: MODEL        14
DOCKED: USER    Run = 14
DOCKED: USER
DOCKED: USER    Estimated Free Energy of Binding    =  -8.40 kcal/mol  [=(1)+(2)+(3)-(4)]
DOCKED: USER
DOCKED: USER    (1) Final Intermolecular Energy     = -10.19 kcal/mol
DOCKED: USER        vdW + Hbond + desolv Energy     = -10.02 kcal/mol
DOCKED: USER        Electrostatic Energy            =  -0.17 kcal/mol
DOCKED: USER        Moving Ligand-Fixed Receptor    = -10.19 kcal/mol
DOCKED: USER        Moving Ligand-Moving Receptor   =  +0.00 kcal/mol
DOCKED: USER    (2) Final Total Internal Energy     =  -1.71 kcal/mol
DOCKED: USER    (3) Torsional Free Energy           =  +1.79 kcal/mol
DOCKED: USER    (4) Unbound System's Energy         =  -1.71 kcal/mol
DOCKED: USER
DOCKED: USER
DOCKED: REMARK SMILES O=C(NCC(=O)N1C[C@H](O)C[C@H]1c1ccccc1)c1ccc2ccc(Cl)cc2n1
DOCKED: REMARK SMILES IDX 4 1 3 2 2 3 1 4 19 6 20 7 29 8 21 9 28 10 22 11 27 12 23 13
DOCKED: REMARK SMILES IDX 25 14 24 15 26 16 5 17 6 18 7 19 8 20 12 21 9 22 11 23 13 24
DOCKED: REMARK SMILES IDX 14 25 18 26 15 27 17 28 16 29 10 30
DOCKED: REMARK H PARENT 3 5 10 31
DOCKED: USER                              x       y       z     vdW  Elec       q    Type
DOCKED: USER                           _______ _______ _______ _____ _____    ______ ____
DOCKED: ROOT
DOCKED: ATOM      1  C   UNL     1     140.225  75.909 221.587 -0.25 -0.05    +0.216 C  
DOCKED: ENDROOT
DOCKED: BRANCH   1   2
DOCKED: ATOM      2  N   UNL     1     139.808  74.698 222.284 -0.03 +0.03    -0.342 N  
DOCKED: ATOM      3  C   UNL     1     140.393  73.436 221.967 -0.17 -0.02    +0.270 C  
DOCKED: ATOM      4  O   UNL     1     141.282  73.345 221.080 -0.20 +0.04    -0.268 OA 
DOCKED: ATOM      5  H   UNL     1     139.069  74.709 223.037 -0.53 -0.06    +0.164 HD 
DOCKED: BRANCH   3   6
DOCKED: ATOM      6  C   UNL     1     139.947  72.248 222.689 -0.28 -0.02    +0.128 A  
DOCKED: ATOM      7  C   UNL     1     139.055  71.370 222.112 -0.19 -0.01    +0.035 A  
DOCKED: ATOM      8  N   UNL     1     140.391  71.979 223.929 -0.26 +0.03    -0.243 NA 
DOCKED: ATOM      9  C   UNL     1     138.616  70.227 222.785 -0.20 -0.00    +0.013 A  
DOCKED: ATOM     10  C   UNL     1     140.011  70.899 224.635 -0.42 -0.01    +0.073 A  
DOCKED: ATOM     11  C   UNL     1     139.112  70.007 224.062 -0.32 -0.00    +0.000 A  
DOCKED: ATOM     12  C   UNL     1     140.492  70.663 225.903 -0.53 -0.01    +0.049 A  
DOCKED: ATOM     13  C   UNL     1     138.736  68.903 224.811 -0.37 -0.00    +0.012 A  
DOCKED: ATOM     14  C   UNL     1     140.123  69.564 226.658 -0.51 -0.01    +0.043 A  
DOCKED: ATOM     15  C   UNL     1     139.219  68.669 226.080 -0.50 -0.00    +0.021 A  
DOCKED: ATOM     16  Cl  UNL     1     140.761  69.303 228.272 -0.74 +0.02    -0.084 Cl 
DOCKED: ENDBRANCH   3   6
DOCKED: ENDBRANCH   1   2
DOCKED: BRANCH   1  17
DOCKED: ATOM     17  C   UNL     1     139.719  77.064 222.363 -0.24 -0.05    +0.242 C  
DOCKED: ATOM     18  O   UNL     1     138.638  76.884 223.012 -0.21 +0.05    -0.273 OA 
DOCKED: BRANCH  17  19
DOCKED: ATOM     19  N   UNL     1     140.382  78.324 222.402 -0.16 +0.09    -0.331 N  
DOCKED: ATOM     20  C   UNL     1     141.392  78.694 221.419 -0.30 -0.07    +0.152 C  
DOCKED: ATOM     21  C   UNL     1     140.173  79.362 223.357 -0.39 -0.02    +0.118 C  
DOCKED: ATOM     22  C   UNL     1     142.177  79.800 222.050 -0.42 -0.06    +0.136 C  
DOCKED: ATOM     23  C   UNL     1     141.205  80.397 223.042 -0.48 -0.01    +0.063 C  
DOCKED: BRANCH  21  24
DOCKED: ATOM     24  C   UNL     1     138.800  79.904 223.410 -0.36 +0.00    -0.025 A  
DOCKED: ATOM     25  C   UNL     1     137.914  79.817 222.334 -0.18 -0.00    +0.006 A  
DOCKED: ATOM     26  C   UNL     1     138.401  80.522 224.593 -0.37 -0.00    +0.006 A  
DOCKED: ATOM     27  C   UNL     1     136.628  80.342 222.429 -0.12 -0.00    +0.000 A  
DOCKED: ATOM     28  C   UNL     1     137.112  81.048 224.686 -0.35 -0.00    +0.000 A  
DOCKED: ATOM     29  C   UNL     1     136.231  80.960 223.613 -0.19 -0.00    +0.000 A  
DOCKED: ENDBRANCH  21  24
DOCKED: BRANCH  22  30
DOCKED: ATOM     30  O   UNL     1     143.311  79.373 222.722 -0.30 +0.22    -0.391 OA 
DOCKED: ATOM     31  H   UNL     1     143.775  78.666 222.210 -0.45 -0.23    +0.211 HD 
DOCKED: ENDBRANCH  22  30
DOCKED: ENDBRANCH  17  19
DOCKED: ENDBRANCH   1  17
DOCKED: TORSDOF 6
DOCKED: TER
DOCKED: ENDMDL
________________________________________________________________________________


    FINAL DOCKED STATE:
    ________________________


Run:   15 / 20
Time taken for this run:   0.038s

DOCKED: MODEL        15
DOCKED: USER    Run = 15
DOCKED: USER
DOCKED: USER    Estimated Free Energy of Binding    =  -8.38 kcal/mol  [=(1)+(2)+(3)-(4)]
DOCKED: USER
DOCKED: USER    (1) Final Intermolecular Energy     = -10.17 kcal/mol
DOCKED: USER        vdW + Hbond + desolv Energy     = -10.00 kcal/mol
DOCKED: USER        Electrostatic Energy            =  -0.17 kcal/mol
DOCKED: USER        Moving Ligand-Fixed Receptor    = -10.17 kcal/mol
DOCKED: USER        Moving Ligand-Moving Receptor   =  +0.00 kcal/mol
DOCKED: USER    (2) Final Total Internal Energy     =  -1.70 kcal/mol
DOCKED: USER    (3) Torsional Free Energy           =  +1.79 kcal/mol
DOCKED: USER    (4) Unbound System's Energy         =  -1.70 kcal/mol
DOCKED: USER
DOCKED: USER
DOCKED: REMARK SMILES O=C(NCC(=O)N1C[C@H](O)C[C@H]1c1ccccc1)c1ccc2ccc(Cl)cc2n1
DOCKED: REMARK SMILES IDX 4 1 3 2 2 3 1 4 19 6 20 7 29 8 21 9 28 10 22 11 27 12 23 13
DOCKED: REMARK SMILES IDX 25 14 24 15 26 16 5 17 6 18 7 19 8 20 12 21 9 22 11 23 13 24
DOCKED: REMARK SMILES IDX 14 25 18 26 15 27 17 28 16 29 10 30
DOCKED: REMARK H PARENT 3 5 10 31
DOCKED: USER                              x       y       z     vdW  Elec       q    Type
DOCKED: USER                           _______ _______ _______ _____ _____    ______ ____
DOCKED: ROOT
DOCKED: ATOM      1  C   UNL     1     140.222  75.945 221.590 -0.25 -0.05    +0.216 C  
DOCKED: ENDROOT
DOCKED: BRANCH   1   2
DOCKED: ATOM      2  N   UNL     1     139.802  74.729 222.277 -0.04 +0.03    -0.342 N  
DOCKED: ATOM      3  C   UNL     1     140.385  73.469 221.951 -0.17 -0.02    +0.270 C  
DOCKED: ATOM      4  O   UNL     1     141.275  73.383 221.064 -0.19 +0.04    -0.268 OA 
DOCKED: ATOM      5  H   UNL     1     139.062  74.736 223.029 -0.52 -0.06    +0.164 HD 
DOCKED: BRANCH   3   6
DOCKED: ATOM      6  C   UNL     1     139.936  72.276 222.662 -0.28 -0.02    +0.128 A  
DOCKED: ATOM      7  C   UNL     1     139.044  71.404 222.077 -0.18 -0.01    +0.035 A  
DOCKED: ATOM      8  N   UNL     1     140.377  71.997 223.901 -0.27 +0.03    -0.243 NA 
DOCKED: ATOM      9  C   UNL     1     138.602  70.256 222.740 -0.20 -0.00    +0.013 A  
DOCKED: ATOM     10  C   UNL     1     139.994  70.911 224.598 -0.41 -0.01    +0.073 A  
DOCKED: ATOM     11  C   UNL     1     139.095  70.025 224.016 -0.32 -0.00    +0.000 A  
DOCKED: ATOM     12  C   UNL     1     140.472  70.665 225.866 -0.53 -0.01    +0.049 A  
DOCKED: ATOM     13  C   UNL     1     138.716  68.916 224.756 -0.37 -0.00    +0.012 A  
DOCKED: ATOM     14  C   UNL     1     140.100  69.561 226.611 -0.51 -0.01    +0.043 A  
DOCKED: ATOM     15  C   UNL     1     139.196  68.672 226.024 -0.49 -0.00    +0.021 A  
DOCKED: ATOM     16  Cl  UNL     1     140.734  69.286 228.224 -0.75 +0.02    -0.084 Cl 
DOCKED: ENDBRANCH   3   6
DOCKED: ENDBRANCH   1   2
DOCKED: BRANCH   1  17
DOCKED: ATOM     17  C   UNL     1     139.718  77.095 222.375 -0.24 -0.05    +0.242 C  
DOCKED: ATOM     18  O   UNL     1     138.634  76.912 223.020 -0.21 +0.05    -0.273 OA 
DOCKED: BRANCH  17  19
DOCKED: ATOM     19  N   UNL     1     140.385  78.352 222.428 -0.16 +0.09    -0.331 N  
DOCKED: ATOM     20  C   UNL     1     141.384  78.736 221.439 -0.30 -0.07    +0.152 C  
DOCKED: ATOM     21  C   UNL     1     140.190  79.374 223.402 -0.39 -0.02    +0.118 C  
DOCKED: ATOM     22  C   UNL     1     142.180  79.828 222.079 -0.43 -0.06    +0.136 C  
DOCKED: ATOM     23  C   UNL     1     141.221  80.411 223.093 -0.49 -0.01    +0.063 C  
DOCKED: BRANCH  21  24
DOCKED: ATOM     24  C   UNL     1     138.820  79.920 223.481 -0.37 +0.00    -0.025 A  
DOCKED: ATOM     25  C   UNL     1     138.312  80.514 224.638 -0.35 -0.00    +0.006 A  
DOCKED: ATOM     26  C   UNL     1     138.025  79.823 222.341 -0.19 -0.00    +0.006 A  
DOCKED: ATOM     27  C   UNL     1     137.013  81.016 224.667 -0.34 -0.00    +0.000 A  
DOCKED: ATOM     28  C   UNL     1     136.724  80.325 222.373 -0.12 -0.00    +0.000 A  
DOCKED: ATOM     29  C   UNL     1     136.220  80.917 223.526 -0.18 -0.00    +0.000 A  
DOCKED: ENDBRANCH  21  24
DOCKED: BRANCH  22  30
DOCKED: ATOM     30  O   UNL     1     143.320  79.387 222.731 -0.31 +0.22    -0.391 OA 
DOCKED: ATOM     31  H   UNL     1     143.772  78.682 222.206 -0.45 -0.23    +0.211 HD 
DOCKED: ENDBRANCH  22  30
DOCKED: ENDBRANCH  17  19
DOCKED: ENDBRANCH   1  17
DOCKED: TORSDOF 6
DOCKED: TER
DOCKED: ENDMDL
________________________________________________________________________________


    FINAL DOCKED STATE:
    ________________________


Run:   16 / 20
Time taken for this run:   0.038s

DOCKED: MODEL        16
DOCKED: USER    Run = 16
DOCKED: USER
DOCKED: USER    Estimated Free Energy of Binding    =  -8.15 kcal/mol  [=(1)+(2)+(3)-(4)]
DOCKED: USER
DOCKED: USER    (1) Final Intermolecular Energy     =  -9.94 kcal/mol
DOCKED: USER        vdW + Hbond + desolv Energy     =  -9.93 kcal/mol
DOCKED: USER        Electrostatic Energy            =  -0.01 kcal/mol
DOCKED: USER        Moving Ligand-Fixed Receptor    =  -9.94 kcal/mol
DOCKED: USER        Moving Ligand-Moving Receptor   =  +0.00 kcal/mol
DOCKED: USER    (2) Final Total Internal Energy     =  -1.73 kcal/mol
DOCKED: USER    (3) Torsional Free Energy           =  +1.79 kcal/mol
DOCKED: USER    (4) Unbound System's Energy         =  -1.73 kcal/mol
DOCKED: USER
DOCKED: USER
DOCKED: REMARK SMILES O=C(NCC(=O)N1C[C@H](O)C[C@H]1c1ccccc1)c1ccc2ccc(Cl)cc2n1
DOCKED: REMARK SMILES IDX 4 1 3 2 2 3 1 4 19 6 20 7 29 8 21 9 28 10 22 11 27 12 23 13
DOCKED: REMARK SMILES IDX 25 14 24 15 26 16 5 17 6 18 7 19 8 20 12 21 9 22 11 23 13 24
DOCKED: REMARK SMILES IDX 14 25 18 26 15 27 17 28 16 29 10 30
DOCKED: REMARK H PARENT 3 5 10 31
DOCKED: USER                              x       y       z     vdW  Elec       q    Type
DOCKED: USER                           _______ _______ _______ _____ _____    ______ ____
DOCKED: ROOT
DOCKED: ATOM      1  C   UNL     1     138.460  72.941 221.965 -0.13 -0.06    +0.216 C  
DOCKED: ENDROOT
DOCKED: BRANCH   1   2
DOCKED: ATOM      2  N   UNL     1     138.737  74.323 222.340 +0.01 +0.11    -0.342 N  
DOCKED: ATOM      3  C   UNL     1     137.902  75.385 221.881 -0.15 -0.07    +0.270 C  
DOCKED: ATOM      4  O   UNL     1     136.909  75.148 221.144 -0.05 +0.06    -0.268 OA 
DOCKED: ATOM      5  H   UNL     1     139.553  74.586 222.955 -0.43 -0.01    +0.164 HD 
DOCKED: BRANCH   3   6
DOCKED: ATOM      6  C   UNL     1     138.215  76.754 222.279 -0.24 -0.03    +0.128 A  
DOCKED: ATOM      7  C   UNL     1     137.207  77.664 222.515 -0.20 -0.01    +0.035 A  
DOCKED: ATOM      8  N   UNL     1     139.487  77.163 222.427 -0.21 +0.05    -0.243 NA 
DOCKED: ATOM      9  C   UNL     1     137.485  78.979 222.898 -0.21 -0.00    +0.013 A  
DOCKED: ATOM     10  C   UNL     1     139.827  78.412 222.792 -0.32 -0.02    +0.073 A  
DOCKED: ATOM     11  C   UNL     1     138.818  79.338 223.032 -0.33 -0.00    +0.000 A  
DOCKED: ATOM     12  C   UNL     1     141.144  78.788 222.930 -0.48 -0.02    +0.049 A  
DOCKED: ATOM     13  C   UNL     1     139.195  80.618 223.406 -0.38 -0.00    +0.012 A  
DOCKED: ATOM     14  C   UNL     1     141.530  80.063 223.303 -0.53 -0.01    +0.043 A  
DOCKED: ATOM     15  C   UNL     1     140.515  80.991 223.544 -0.40 -0.00    +0.021 A  
DOCKED: ATOM     16  Cl  UNL     1     143.222  80.498 223.467 -0.72 +0.02    -0.084 Cl 
DOCKED: ENDBRANCH   3   6
DOCKED: ENDBRANCH   1   2
DOCKED: BRANCH   1  17
DOCKED: ATOM     17  C   UNL     1     139.495  72.093 222.600 -0.20 -0.05    +0.242 C  
DOCKED: ATOM     18  O   UNL     1     140.609  72.654 222.859 -0.55 +0.01    -0.273 OA 
DOCKED: BRANCH  17  19
DOCKED: ATOM     19  N   UNL     1     139.288  70.721 222.916 -0.11 +0.06    -0.331 N  
DOCKED: ATOM     20  C   UNL     1     139.588  69.657 221.966 -0.09 -0.03    +0.152 C  
DOCKED: ATOM     21  C   UNL     1     138.783  70.201 224.144 -0.28 -0.02    +0.118 C  
DOCKED: ATOM     22  C   UNL     1     138.806  68.471 222.434 -0.18 -0.02    +0.136 C  
DOCKED: ATOM     23  C   UNL     1     138.626  68.732 223.913 -0.29 -0.01    +0.063 C  
DOCKED: BRANCH  21  24
DOCKED: ATOM     24  C   UNL     1     139.585  70.520 225.343 -0.43 +0.00    -0.025 A  
DOCKED: ATOM     25  C   UNL     1     140.523  71.555 225.366 -0.53 -0.00    +0.006 A  
DOCKED: ATOM     26  C   UNL     1     139.376  69.742 226.479 -0.44 -0.00    +0.006 A  
DOCKED: ATOM     27  C   UNL     1     141.256  71.821 226.520 -0.72 -0.00    +0.000 A  
DOCKED: ATOM     28  C   UNL     1     140.114  70.010 227.633 -0.61 -0.00    +0.000 A  
DOCKED: ATOM     29  C   UNL     1     141.047  71.041 227.655 -0.72 -0.00    +0.000 A  
DOCKED: ENDBRANCH  21  24
DOCKED: BRANCH  22  30
DOCKED: ATOM     30  O   UNL     1     137.561  68.347 221.838 -0.05 +0.06    -0.391 OA 
DOCKED: ATOM     31  H   UNL     1     137.120  69.228 221.764 +0.04 -0.03    +0.211 HD 
DOCKED: ENDBRANCH  22  30
DOCKED: ENDBRANCH  17  19
DOCKED: ENDBRANCH   1  17
DOCKED: TORSDOF 6
DOCKED: TER
DOCKED: ENDMDL
________________________________________________________________________________


    FINAL DOCKED STATE:
    ________________________


Run:   17 / 20
Time taken for this run:   0.038s

DOCKED: MODEL        17
DOCKED: USER    Run = 17
DOCKED: USER
DOCKED: USER    Estimated Free Energy of Binding    =  -7.47 kcal/mol  [=(1)+(2)+(3)-(4)]
DOCKED: USER
DOCKED: USER    (1) Final Intermolecular Energy     =  -9.26 kcal/mol
DOCKED: USER        vdW + Hbond + desolv Energy     =  -9.25 kcal/mol
DOCKED: USER        Electrostatic Energy            =  -0.01 kcal/mol
DOCKED: USER        Moving Ligand-Fixed Receptor    =  -9.26 kcal/mol
DOCKED: USER        Moving Ligand-Moving Receptor   =  +0.00 kcal/mol
DOCKED: USER    (2) Final Total Internal Energy     =  -2.48 kcal/mol
DOCKED: USER    (3) Torsional Free Energy           =  +1.79 kcal/mol
DOCKED: USER    (4) Unbound System's Energy         =  -2.48 kcal/mol
DOCKED: USER
DOCKED: USER
DOCKED: REMARK SMILES O=C(NCC(=O)N1C[C@H](O)C[C@H]1c1ccccc1)c1ccc2ccc(Cl)cc2n1
DOCKED: REMARK SMILES IDX 4 1 3 2 2 3 1 4 19 6 20 7 29 8 21 9 28 10 22 11 27 12 23 13
DOCKED: REMARK SMILES IDX 25 14 24 15 26 16 5 17 6 18 7 19 8 20 12 21 9 22 11 23 13 24
DOCKED: REMARK SMILES IDX 14 25 18 26 15 27 17 28 16 29 10 30
DOCKED: REMARK H PARENT 3 5 10 31
DOCKED: USER                              x       y       z     vdW  Elec       q    Type
DOCKED: USER                           _______ _______ _______ _____ _____    ______ ____
DOCKED: ROOT
DOCKED: ATOM      1  C   UNL     1     140.574  72.029 221.763 -0.19 -0.03    +0.216 C  
DOCKED: ENDROOT
DOCKED: BRANCH   1   2
DOCKED: ATOM      2  N   UNL     1     140.470  73.464 222.001 -0.16 +0.02    -0.342 N  
DOCKED: ATOM      3  C   UNL     1     139.199  74.111 222.015 -0.11 -0.06    +0.270 C  
DOCKED: ATOM      4  O   UNL     1     138.141  73.454 221.823 -0.12 +0.08    -0.268 OA 
DOCKED: ATOM      5  H   UNL     1     141.318  74.068 222.169 +0.05 +0.01    +0.164 HD 
DOCKED: BRANCH   3   6
DOCKED: ATOM      6  C   UNL     1     139.139  75.549 222.257 -0.26 -0.03    +0.128 A  
DOCKED: ATOM      7  C   UNL     1     137.931  76.212 222.252 -0.26 -0.01    +0.035 A  
DOCKED: ATOM      8  N   UNL     1     140.254  76.262 222.491 -0.29 +0.05    -0.243 NA 
DOCKED: ATOM      9  C   UNL     1     137.852  77.589 222.482 -0.25 -0.00    +0.013 A  
DOCKED: ATOM     10  C   UNL     1     140.253  77.588 222.720 -0.33 -0.02    +0.073 A  
DOCKED: ATOM     11  C   UNL     1     139.039  78.267 222.716 -0.32 -0.00    +0.000 A  
DOCKED: ATOM     12  C   UNL     1     141.420  78.279 222.954 -0.50 -0.02    +0.049 A  
DOCKED: ATOM     13  C   UNL     1     139.066  79.632 222.954 -0.32 -0.00    +0.012 A  
DOCKED: ATOM     14  C   UNL     1     141.456  79.641 223.193 -0.52 -0.01    +0.043 A  
DOCKED: ATOM     15  C   UNL     1     140.236  80.321 223.189 -0.42 -0.00    +0.021 A  
DOCKED: ATOM     16  Cl  UNL     1     142.968  80.482 223.487 -0.80 +0.02    -0.084 Cl 
DOCKED: ENDBRANCH   3   6
DOCKED: ENDBRANCH   1   2
DOCKED: BRANCH   1  17
DOCKED: ATOM     17  C   UNL     1     140.258  71.343 223.037 -0.21 -0.03    +0.242 C  
DOCKED: ATOM     18  O   UNL     1     141.188  71.305 223.908 -0.11 +0.02    -0.273 OA 
DOCKED: BRANCH  17  19
DOCKED: ATOM     19  N   UNL     1     138.993  70.747 223.306 -0.12 +0.07    -0.331 N  
DOCKED: ATOM     20  C   UNL     1     138.119  70.282 222.237 -0.11 -0.03    +0.152 C  
DOCKED: ATOM     21  C   UNL     1     138.417  70.525 224.591 -0.23 -0.02    +0.118 C  
DOCKED: ATOM     22  C   UNL     1     136.755  70.199 222.846 -0.11 -0.02    +0.136 C  
DOCKED: ATOM     23  C   UNL     1     137.040  70.012 224.319 -0.23 -0.01    +0.063 C  
DOCKED: BRANCH  21  24
DOCKED: ATOM     24  C   UNL     1     139.198  69.651 225.491 -0.40 +0.00    -0.025 A  
DOCKED: ATOM     25  C   UNL     1     139.202  68.260 225.371 -0.47 -0.00    +0.006 A  
DOCKED: ATOM     26  C   UNL     1     139.949  70.268 226.489 -0.52 -0.00    +0.006 A  
DOCKED: ATOM     27  C   UNL     1     139.954  67.476 226.243 -0.65 -0.00    +0.000 A  
DOCKED: ATOM     28  C   UNL     1     140.700  69.480 227.361 -0.60 -0.00    +0.000 A  
DOCKED: ATOM     29  C   UNL     1     140.704  68.094 227.241 -0.68 -0.00    +0.000 A  
DOCKED: ENDBRANCH  21  24
DOCKED: BRANCH  22  30
DOCKED: ATOM     30  O   UNL     1     135.989  71.341 222.670 -0.03 +0.07    -0.391 OA 
DOCKED: ATOM     31  H   UNL     1     136.558  72.104 222.407 +0.04 -0.05    +0.211 HD 
DOCKED: ENDBRANCH  22  30
DOCKED: ENDBRANCH  17  19
DOCKED: ENDBRANCH   1  17
DOCKED: TORSDOF 6
DOCKED: TER
DOCKED: ENDMDL
________________________________________________________________________________


    FINAL DOCKED STATE:
    ________________________


Run:   18 / 20
Time taken for this run:   0.038s

DOCKED: MODEL        18
DOCKED: USER    Run = 18
DOCKED: USER
DOCKED: USER    Estimated Free Energy of Binding    =  -8.26 kcal/mol  [=(1)+(2)+(3)-(4)]
DOCKED: USER
DOCKED: USER    (1) Final Intermolecular Energy     = -10.05 kcal/mol
DOCKED: USER        vdW + Hbond + desolv Energy     = -10.06 kcal/mol
DOCKED: USER        Electrostatic Energy            =  +0.00 kcal/mol
DOCKED: USER        Moving Ligand-Fixed Receptor    = -10.05 kcal/mol
DOCKED: USER        Moving Ligand-Moving Receptor   =  +0.00 kcal/mol
DOCKED: USER    (2) Final Total Internal Energy     =  -1.75 kcal/mol
DOCKED: USER    (3) Torsional Free Energy           =  +1.79 kcal/mol
DOCKED: USER    (4) Unbound System's Energy         =  -1.75 kcal/mol
DOCKED: USER
DOCKED: USER
DOCKED: REMARK SMILES O=C(NCC(=O)N1C[C@H](O)C[C@H]1c1ccccc1)c1ccc2ccc(Cl)cc2n1
DOCKED: REMARK SMILES IDX 4 1 3 2 2 3 1 4 19 6 20 7 29 8 21 9 28 10 22 11 27 12 23 13
DOCKED: REMARK SMILES IDX 25 14 24 15 26 16 5 17 6 18 7 19 8 20 12 21 9 22 11 23 13 24
DOCKED: REMARK SMILES IDX 14 25 18 26 15 27 17 28 16 29 10 30
DOCKED: REMARK H PARENT 3 5 10 31
DOCKED: USER                              x       y       z     vdW  Elec       q    Type
DOCKED: USER                           _______ _______ _______ _____ _____    ______ ____
DOCKED: ROOT
DOCKED: ATOM      1  C   UNL     1     139.428  72.245 222.049 -0.18 -0.04    +0.216 C  
DOCKED: ENDROOT
DOCKED: BRANCH   1   2
DOCKED: ATOM      2  N   UNL     1     139.239  73.661 222.342 -0.08 +0.08    -0.342 N  
DOCKED: ATOM      3  C   UNL     1     140.037  74.653 221.699 -0.18 -0.04    +0.270 C  
DOCKED: ATOM      4  O   UNL     1     140.921  74.324 220.864 -0.18 +0.05    -0.268 OA 
DOCKED: ATOM      5  H   UNL     1     138.514  73.999 223.031 -0.55 -0.11    +0.164 HD 
DOCKED: BRANCH   3   6
DOCKED: ATOM      6  C   UNL     1     139.814  76.059 222.021 -0.30 -0.03    +0.128 A  
DOCKED: ATOM      7  C   UNL     1     138.569  76.627 221.859 -0.24 -0.01    +0.035 A  
DOCKED: ATOM      8  N   UNL     1     140.810  76.834 222.483 -0.27 +0.08    -0.243 NA 
DOCKED: ATOM      9  C   UNL     1     138.334  77.971 222.162 -0.23 -0.00    +0.013 A  
DOCKED: ATOM     10  C   UNL     1     140.656  78.134 222.794 -0.40 -0.02    +0.073 A  
DOCKED: ATOM     11  C   UNL     1     139.404  78.716 222.634 -0.32 -0.00    +0.000 A  
DOCKED: ATOM     12  C   UNL     1     141.706  78.890 223.264 -0.55 -0.02    +0.049 A  
DOCKED: ATOM     13  C   UNL     1     139.273  80.057 222.961 -0.34 -0.00    +0.012 A  
DOCKED: ATOM     14  C   UNL     1     141.584  80.228 223.594 -0.55 -0.01    +0.043 A  
DOCKED: ATOM     15  C   UNL     1     140.325  80.812 223.431 -0.43 -0.00    +0.021 A  
DOCKED: ATOM     16  Cl  UNL     1     142.949  81.155 224.189 -0.51 +0.01    -0.084 Cl 
DOCKED: ENDBRANCH   3   6
DOCKED: ENDBRANCH   1   2
DOCKED: BRANCH   1  17
DOCKED: ATOM     17  C   UNL     1     138.508  71.483 222.924 -0.15 -0.06    +0.242 C  
DOCKED: ATOM     18  O   UNL     1     137.465  72.096 223.323 -0.09 +0.10    -0.273 OA 
DOCKED: BRANCH  17  19
DOCKED: ATOM     19  N   UNL     1     138.747  70.135 223.315 -0.10 +0.06    -0.331 N  
DOCKED: ATOM     20  C   UNL     1     139.177  69.121 222.362 -0.13 -0.03    +0.152 C  
DOCKED: ATOM     21  C   UNL     1     138.611  69.598 224.629 -0.30 -0.02    +0.118 C  
DOCKED: ATOM     22  C   UNL     1     138.844  67.808 222.998 -0.19 -0.02    +0.136 C  
DOCKED: ATOM     23  C   UNL     1     138.837  68.127 224.475 -0.24 -0.00    +0.063 C  
DOCKED: BRANCH  21  24
DOCKED: ATOM     24  C   UNL     1     139.472  70.216 225.657 -0.41 +0.00    -0.025 A  
DOCKED: ATOM     25  C   UNL     1     140.317  71.294 225.382 -0.54 -0.00    +0.006 A  
DOCKED: ATOM     26  C   UNL     1     139.418  69.682 226.943 -0.48 -0.00    +0.006 A  
DOCKED: ATOM     27  C   UNL     1     141.111  71.846 226.384 -0.70 -0.00    +0.000 A  
DOCKED: ATOM     28  C   UNL     1     140.216  70.237 227.944 -0.65 -0.00    +0.000 A  
DOCKED: ATOM     29  C   UNL     1     141.057  71.310 227.669 -0.77 -0.00    +0.000 A  
DOCKED: ENDBRANCH  21  24
DOCKED: BRANCH  22  30
DOCKED: ATOM     30  O   UNL     1     137.606  67.304 222.634 -0.05 +0.05    -0.391 OA 
DOCKED: ATOM     31  H   UNL     1     136.933  68.027 222.596 +0.05 -0.03    +0.211 HD 
DOCKED: ENDBRANCH  22  30
DOCKED: ENDBRANCH  17  19
DOCKED: ENDBRANCH   1  17
DOCKED: TORSDOF 6
DOCKED: TER
DOCKED: ENDMDL
________________________________________________________________________________


    FINAL DOCKED STATE:
    ________________________


Run:   19 / 20
Time taken for this run:   0.038s

DOCKED: MODEL        19
DOCKED: USER    Run = 19
DOCKED: USER
DOCKED: USER    Estimated Free Energy of Binding    =  -7.61 kcal/mol  [=(1)+(2)+(3)-(4)]
DOCKED: USER
DOCKED: USER    (1) Final Intermolecular Energy     =  -9.40 kcal/mol
DOCKED: USER        vdW + Hbond + desolv Energy     =  -9.32 kcal/mol
DOCKED: USER        Electrostatic Energy            =  -0.08 kcal/mol
DOCKED: USER        Moving Ligand-Fixed Receptor    =  -9.40 kcal/mol
DOCKED: USER        Moving Ligand-Moving Receptor   =  +0.00 kcal/mol
DOCKED: USER    (2) Final Total Internal Energy     =  -2.09 kcal/mol
DOCKED: USER    (3) Torsional Free Energy           =  +1.79 kcal/mol
DOCKED: USER    (4) Unbound System's Energy         =  -2.09 kcal/mol
DOCKED: USER
DOCKED: USER
DOCKED: REMARK SMILES O=C(NCC(=O)N1C[C@H](O)C[C@H]1c1ccccc1)c1ccc2ccc(Cl)cc2n1
DOCKED: REMARK SMILES IDX 4 1 3 2 2 3 1 4 19 6 20 7 29 8 21 9 28 10 22 11 27 12 23 13
DOCKED: REMARK SMILES IDX 25 14 24 15 26 16 5 17 6 18 7 19 8 20 12 21 9 22 11 23 13 24
DOCKED: REMARK SMILES IDX 14 25 18 26 15 27 17 28 16 29 10 30
DOCKED: REMARK H PARENT 3 5 10 31
DOCKED: USER                              x       y       z     vdW  Elec       q    Type
DOCKED: USER                           _______ _______ _______ _____ _____    ______ ____
DOCKED: ROOT
DOCKED: ATOM      1  C   UNL     1     141.050  75.222 220.218 -0.14 -0.06    +0.216 C  
DOCKED: ENDROOT
DOCKED: BRANCH   1   2
DOCKED: ATOM      2  N   UNL     1     140.819  74.249 221.279 -0.15 +0.05    -0.342 N  
DOCKED: ATOM      3  C   UNL     1     140.290  72.958 220.982 -0.13 -0.04    +0.270 C  
DOCKED: ATOM      4  O   UNL     1     140.013  72.634 219.797 -0.03 +0.05    -0.268 OA 
DOCKED: ATOM      5  H   UNL     1     141.032  74.460 222.291 +0.04 +0.02    +0.164 HD 
DOCKED: BRANCH   3   6
DOCKED: ATOM      6  C   UNL     1     140.074  72.014 222.075 -0.23 -0.02    +0.128 A  
DOCKED: ATOM      7  C   UNL     1     139.464  70.800 221.843 -0.17 -0.01    +0.035 A  
DOCKED: ATOM      8  N   UNL     1     140.463  72.299 223.329 -0.34 +0.02    -0.243 NA 
DOCKED: ATOM      9  C   UNL     1     139.248  69.881 222.874 -0.21 -0.00    +0.013 A  
DOCKED: ATOM     10  C   UNL     1     140.287  71.464 224.369 -0.42 -0.01    +0.073 A  
DOCKED: ATOM     11  C   UNL     1     139.673  70.237 224.146 -0.35 -0.00    +0.000 A  
DOCKED: ATOM     12  C   UNL     1     140.701  71.798 225.639 -0.48 -0.01    +0.049 A  
DOCKED: ATOM     13  C   UNL     1     139.503  69.396 225.234 -0.41 -0.00    +0.012 A  
DOCKED: ATOM     14  C   UNL     1     140.537  70.965 226.730 -0.61 -0.01    +0.043 A  
DOCKED: ATOM     15  C   UNL     1     139.918  69.733 226.504 -0.51 -0.00    +0.021 A  
DOCKED: ATOM     16  Cl  UNL     1     141.080  71.433 228.332 -0.82 +0.02    -0.084 Cl 
DOCKED: ENDBRANCH   3   6
DOCKED: ENDBRANCH   1   2
DOCKED: BRANCH   1  17
DOCKED: ATOM     17  C   UNL     1     141.075  76.564 220.843 -0.20 -0.10    +0.242 C  
DOCKED: ATOM     18  O   UNL     1     140.902  76.606 222.105 -0.31 +0.10    -0.273 OA 
DOCKED: BRANCH  17  19
DOCKED: ATOM     19  N   UNL     1     141.280  77.762 220.102 -0.09 +0.16    -0.331 N  
DOCKED: ATOM     20  C   UNL     1     140.900  77.876 218.701 -0.10 -0.07    +0.152 C  
DOCKED: ATOM     21  C   UNL     1     141.857  78.972 220.590 -0.20 -0.07    +0.118 C  
DOCKED: ATOM     22  C   UNL     1     141.691  79.026 218.164 -0.20 -0.09    +0.136 C  
DOCKED: ATOM     23  C   UNL     1     141.974  79.860 219.393 -0.25 -0.04    +0.063 C  
DOCKED: BRANCH  21  24
DOCKED: ATOM     24  C   UNL     1     141.143  79.603 221.718 -0.35 +0.01    -0.025 A  
DOCKED: ATOM     25  C   UNL     1     141.808  80.256 222.758 -0.56 -0.00    +0.006 A  
DOCKED: ATOM     26  C   UNL     1     139.752  79.528 221.717 -0.22 -0.00    +0.006 A  
DOCKED: ATOM     27  C   UNL     1     141.093  80.838 223.802 -0.49 -0.00    +0.000 A  
DOCKED: ATOM     28  C   UNL     1     139.038  80.112 222.765 -0.30 -0.00    +0.000 A  
DOCKED: ATOM     29  C   UNL     1     139.701  80.762 223.800 -0.39 -0.00    +0.000 A  
DOCKED: ENDBRANCH  21  24
DOCKED: BRANCH  22  30
DOCKED: ATOM     30  O   UNL     1     142.891  78.659 217.576 -0.20 +0.42    -0.391 OA 
DOCKED: ATOM     31  H   UNL     1     143.314  79.434 217.133 -0.51 -0.39    +0.211 HD 
DOCKED: ENDBRANCH  22  30
DOCKED: ENDBRANCH  17  19
DOCKED: ENDBRANCH   1  17
DOCKED: TORSDOF 6
DOCKED: TER
DOCKED: ENDMDL
________________________________________________________________________________


    FINAL DOCKED STATE:
    ________________________


Run:   20 / 20
Time taken for this run:   0.038s

DOCKED: MODEL        20
DOCKED: USER    Run = 20
DOCKED: USER
DOCKED: USER    Estimated Free Energy of Binding    =  -7.47 kcal/mol  [=(1)+(2)+(3)-(4)]
DOCKED: USER
DOCKED: USER    (1) Final Intermolecular Energy     =  -9.26 kcal/mol
DOCKED: USER        vdW + Hbond + desolv Energy     =  -9.25 kcal/mol
DOCKED: USER        Electrostatic Energy            =  -0.01 kcal/mol
DOCKED: USER        Moving Ligand-Fixed Receptor    =  -9.26 kcal/mol
DOCKED: USER        Moving Ligand-Moving Receptor   =  +0.00 kcal/mol
DOCKED: USER    (2) Final Total Internal Energy     =  -2.49 kcal/mol
DOCKED: USER    (3) Torsional Free Energy           =  +1.79 kcal/mol
DOCKED: USER    (4) Unbound System's Energy         =  -2.49 kcal/mol
DOCKED: USER
DOCKED: USER
DOCKED: REMARK SMILES O=C(NCC(=O)N1C[C@H](O)C[C@H]1c1ccccc1)c1ccc2ccc(Cl)cc2n1
DOCKED: REMARK SMILES IDX 4 1 3 2 2 3 1 4 19 6 20 7 29 8 21 9 28 10 22 11 27 12 23 13
DOCKED: REMARK SMILES IDX 25 14 24 15 26 16 5 17 6 18 7 19 8 20 12 21 9 22 11 23 13 24
DOCKED: REMARK SMILES IDX 14 25 18 26 15 27 17 28 16 29 10 30
DOCKED: REMARK H PARENT 3 5 10 31
DOCKED: USER                              x       y       z     vdW  Elec       q    Type
DOCKED: USER                           _______ _______ _______ _____ _____    ______ ____
DOCKED: ROOT
DOCKED: ATOM      1  C   UNL     1     140.540  72.034 221.732 -0.19 -0.03    +0.216 C  
DOCKED: ENDROOT
DOCKED: BRANCH   1   2
DOCKED: ATOM      2  N   UNL     1     140.440  73.468 221.980 -0.16 +0.02    -0.342 N  
DOCKED: ATOM      3  C   UNL     1     139.171  74.119 221.993 -0.13 -0.06    +0.270 C  
DOCKED: ATOM      4  O   UNL     1     138.112  73.468 221.792 -0.12 +0.08    -0.268 OA 
DOCKED: ATOM      5  H   UNL     1     141.290  74.068 222.157 +0.05 +0.01    +0.164 HD 
DOCKED: BRANCH   3   6
DOCKED: ATOM      6  C   UNL     1     139.116  75.556 222.246 -0.26 -0.03    +0.128 A  
DOCKED: ATOM      7  C   UNL     1     137.908  76.220 222.260 -0.26 -0.01    +0.035 A  
DOCKED: ATOM      8  N   UNL     1     140.234  76.267 222.471 -0.30 +0.05    -0.243 NA 
DOCKED: ATOM      9  C   UNL     1     137.833  77.595 222.500 -0.25 -0.00    +0.013 A  
DOCKED: ATOM     10  C   UNL     1     140.236  77.592 222.709 -0.33 -0.02    +0.073 A  
DOCKED: ATOM     11  C   UNL     1     139.023  78.270 222.725 -0.32 -0.00    +0.000 A  
DOCKED: ATOM     12  C   UNL     1     141.407  78.280 222.934 -0.49 -0.02    +0.049 A  
DOCKED: ATOM     13  C   UNL     1     139.054  79.634 222.971 -0.33 -0.00    +0.012 A  
DOCKED: ATOM     14  C   UNL     1     141.447  79.640 223.181 -0.52 -0.01    +0.043 A  
DOCKED: ATOM     15  C   UNL     1     140.227  80.321 223.196 -0.42 -0.00    +0.021 A  
DOCKED: ATOM     16  Cl  UNL     1     142.963  80.478 223.462 -0.80 +0.02    -0.084 Cl 
DOCKED: ENDBRANCH   3   6
DOCKED: ENDBRANCH   1   2
DOCKED: BRANCH   1  17
DOCKED: ATOM     17  C   UNL     1     140.239  71.341 223.005 -0.21 -0.03    +0.242 C  
DOCKED: ATOM     18  O   UNL     1     141.182  71.288 223.861 -0.11 +0.02    -0.273 OA 
DOCKED: BRANCH  17  19
DOCKED: ATOM     19  N   UNL     1     138.973  70.754 223.289 -0.12 +0.07    -0.331 N  
DOCKED: ATOM     20  C   UNL     1     138.089  70.281 222.232 -0.11 -0.03    +0.152 C  
DOCKED: ATOM     21  C   UNL     1     138.406  70.548 224.581 -0.23 -0.02    +0.118 C  
DOCKED: ATOM     22  C   UNL     1     136.729  70.211 222.851 -0.11 -0.02    +0.136 C  
DOCKED: ATOM     23  C   UNL     1     137.023  70.039 224.324 -0.23 -0.01    +0.063 C  
DOCKED: BRANCH  21  24
DOCKED: ATOM     24  C   UNL     1     139.188  69.681 225.485 -0.40 +0.00    -0.025 A  
DOCKED: ATOM     25  C   UNL     1     139.196  68.289 225.371 -0.47 -0.00    +0.006 A  
DOCKED: ATOM     26  C   UNL     1     139.938  70.304 226.479 -0.52 -0.00    +0.006 A  
DOCKED: ATOM     27  C   UNL     1     139.950  67.510 226.246 -0.65 -0.00    +0.000 A  
DOCKED: ATOM     28  C   UNL     1     140.692  69.521 227.355 -0.60 -0.00    +0.000 A  
DOCKED: ATOM     29  C   UNL     1     140.700  68.135 227.241 -0.69 -0.00    +0.000 A  
DOCKED: ENDBRANCH  21  24
DOCKED: BRANCH  22  30
DOCKED: ATOM     30  O   UNL     1     135.967  71.354 222.669 -0.03 +0.07    -0.391 OA 
DOCKED: ATOM     31  H   UNL     1     136.537  72.112 222.392 +0.04 -0.05    +0.211 HD 
DOCKED: ENDBRANCH  22  30
DOCKED: ENDBRANCH  17  19
DOCKED: ENDBRANCH   1  17
DOCKED: TORSDOF 6
DOCKED: TER
DOCKED: ENDMDL
________________________________________________________________________________


    CLUSTERING HISTOGRAM
    ____________________


________________________________________________________________________________
     |           |     |           |     |
Clus | Lowest    | Run | Mean      | Num | Histogram
-ter | Binding   |     | Binding   | in  |
Rank | Energy    |     | Energy    | Clus|    5    10   15   20   25   30   35
_____|___________|_____|___________|_____|____:____|____:____|____:____|____:___
   1 |     -8.40 |  14 |     -8.26 |   3 |###
   2 |     -8.29 |   7 |     -7.93 |   8 |########
   3 |     -7.72 |   2 |     -7.68 |   5 |#####
   4 |     -7.61 |  19 |     -7.61 |   1 |#
   5 |     -7.44 |   8 |     -7.44 |   1 |#
   6 |     -7.41 |  12 |     -7.41 |   1 |#
   7 |     -7.21 |   9 |     -7.21 |   1 |#
_____|___________|_____|___________|_____|______________________________________


    RMSD TABLE
    __________


_______________________________________________________________________
     |      |      |           |         |                 |
Rank | Sub- | Run  | Binding   | Cluster | Reference       | Grep
     | Rank |      | Energy    | RMSD    | RMSD            | Pattern
_____|______|______|___________|_________|_________________|___________
   1      1     14       -8.40      0.00    271.79           RANKING
   1      2     15       -8.38      0.06    271.78           RANKING
   1      3     10       -8.01      0.78    271.84           RANKING
   2      1      7       -8.29      0.00    271.24           RANKING
   2      2     18       -8.26      1.17    271.34           RANKING
   2      3      5       -8.26      0.23    271.24           RANKING
   2      4     16       -8.15      0.35    271.22           RANKING
   2      5      4       -8.07      1.34    270.87           RANKING
   2      6     17       -7.47      1.57    271.14           RANKING
   2      7     20       -7.47      1.57    271.13           RANKING
   2      8      3       -7.46      1.57    271.13           RANKING
   3      1      2       -7.72      0.00    270.67           RANKING
   3      2     13       -7.72      0.04    270.67           RANKING
   3      3      6       -7.70      0.23    270.66           RANKING
   3      4     11       -7.70      0.13    270.62           RANKING
   3      5      1       -7.57      0.47    270.62           RANKING
   4      1     19       -7.61      0.00    271.22           RANKING
   5      1      8       -7.44      0.00    270.70           RANKING
   6      1     12       -7.41      0.00    271.14           RANKING
   7      1      9       -7.21      0.00    271.28           RANKING

Run time 0.719 sec
Idle time 0.000 sec
