AutoDock-GPU version: v1.6

**********************************************************
**    AutoDock-GPU AUTODOCKTOOLS-COMPATIBLE DLG FILE    **
**********************************************************


    DOCKING PARAMETERS
    ________________________


Ligand file:                               /home/a/REINVENT4/ReinventStudies/pleaseWork/justmol2mol_4_Compounds_ontop/graph-dock-amy28i/graph-DockGPU/node-autodockgpu/inputs/RRQVAYMOYSTLBG-NAUSHLRJNA-N.pdbqt
Grid fld file:                             /home/a/REINVENT4/ReinventStudies/mols/Rad51/maps/rad51_receptor.maps.fld

Random seed:                               42
Number of runs:                            20
Number of energy evaluations:              1132076
Number of generations:                     42000
Size of population:                        150
Rate of crossover:                         80.000000%
Tournament selection probability limit:    60.000000%
Rate of mutation:                          2.000000%
Maximal allowed delta movement:            +/- 6.000000A
Maximal allowed delta angle:               +/- 90.000000

Rate of local search:                      100.000000%
Maximal number of local search iterations: 300
Rho lower bound:                           0.010000
Spread of local search delta movement:     2.000000A
Spread of local search delta angle:        74.999999
Limit of consecutive successes/failures:   4

Handle symmetry during clustering:         YES
RMSD tolerance:                            2.000000A

Program call in command line was:          /home/a/REINVENT4/ReinventStudies/adgpu-v1.6_linux_x64_cuda12_128wi --filelist batch.txt --heuristics 1 --nrun 20 --psize 150 --lsit 300 --seed 42 --heurmax 12000000 


    GRID PARAMETERS
    ________________________


Receptor name:                             rad51_receptor
Number of grid points (x, y, z):           53, 53, 53
Grid center (x, y, z):                     139.950000, 75.640000, 221.970000A
Grid size (x, y, z):                       19.500000, 19.500000, 19.500000A
Grid spacing:                              0.375000A


    LIGAND PARAMETERS
    ________________________


Ligand name:                               /home/a/REINVENT4/ReinventStudies/pleaseWork/justmol2mol_4_Compounds_ontop/graph-dock-amy28i/graph-DockGPU/node-autodockgpu/inputs/RRQVAYMOYSTLBG-NAUSHLRJNA-N
Number of atoms:                           30
Number of rotatable bonds:                 5
Number of atom types:                      7


    DUMMY DATA (only for ADT-compatibility)
    ________________________


DPF> outlev 1
DPF> ga_run 20
DPF> fld /home/a/REINVENT4/ReinventStudies/mols/Rad51/maps/rad51_receptor.maps.fld
DPF> move /home/a/REINVENT4/ReinventStudies/pleaseWork/justmol2mol_4_Compounds_ontop/graph-dock-amy28i/graph-DockGPU/node-autodockgpu/inputs/RRQVAYMOYSTLBG-NAUSHLRJNA-N.pdbqt


    COUNTER STATES
    ________________________


Number of energy evaluations performed:    901708
Number of generations used:                45


    INPUT LIGAND PDBQT FILE:
    ________________________


INPUT-LIGAND-PDBQT: REMARK SMILES O=C(NCC(=O)N1CCCC[C@H]1C1CCCCC1)c1ccc2cc(F)ccc2n1
INPUT-LIGAND-PDBQT: REMARK SMILES IDX 4 1 3 2 2 3 1 4 19 6 20 7 29 8 21 9 28 10 22 11 27 12 23 13
INPUT-LIGAND-PDBQT: REMARK SMILES IDX 26 14 24 15 25 16 5 17 6 18 7 19 8 20 12 21 9 22 11 23 10 24
INPUT-LIGAND-PDBQT: REMARK SMILES IDX 13 25 14 26 18 27 15 28 17 29 16 30
INPUT-LIGAND-PDBQT: REMARK H PARENT 3 5
INPUT-LIGAND-PDBQT: ROOT
INPUT-LIGAND-PDBQT: ATOM      1  C   UNL     1       0.288   1.373   1.454  1.00  0.00     0.216 C 
INPUT-LIGAND-PDBQT: ENDROOT
INPUT-LIGAND-PDBQT: BRANCH   1   2
INPUT-LIGAND-PDBQT: ATOM      2  N   UNL     1       1.551   0.954   0.995  1.00  0.00    -0.342 N 
INPUT-LIGAND-PDBQT: ATOM      3  C   UNL     1       2.682   1.344   1.850  1.00  0.00     0.270 C 
INPUT-LIGAND-PDBQT: ATOM      4  O   UNL     1       2.427   2.008   2.900  1.00  0.00    -0.268 OA
INPUT-LIGAND-PDBQT: ATOM      5  H   UNL     1       1.846   0.401   0.185  1.00  0.00     0.164 HD
INPUT-LIGAND-PDBQT: BRANCH   3   6
INPUT-LIGAND-PDBQT: ATOM      6  C   UNL     1       4.031   0.962   1.466  1.00  0.00     0.128 A 
INPUT-LIGAND-PDBQT: ATOM      7  C   UNL     1       5.057   1.346   2.292  1.00  0.00     0.035 A 
INPUT-LIGAND-PDBQT: ATOM      8  N   UNL     1       4.272   0.251   0.335  1.00  0.00    -0.243 NA
INPUT-LIGAND-PDBQT: ATOM      9  C   UNL     1       6.343   0.985   1.933  1.00  0.00     0.013 A 
INPUT-LIGAND-PDBQT: ATOM     10  C   UNL     1       5.532  -0.088   0.007  1.00  0.00     0.071 A 
INPUT-LIGAND-PDBQT: ATOM     11  C   UNL     1       6.625   0.268   0.798  1.00  0.00     0.003 A 
INPUT-LIGAND-PDBQT: ATOM     12  C   UNL     1       5.757  -0.818  -1.159  1.00  0.00     0.032 A 
INPUT-LIGAND-PDBQT: ATOM     13  C   UNL     1       7.908  -0.092   0.440  1.00  0.00     0.049 A 
INPUT-LIGAND-PDBQT: ATOM     14  C   UNL     1       7.049  -1.166  -1.496  1.00  0.00     0.041 A 
INPUT-LIGAND-PDBQT: ATOM     15  C   UNL     1       8.129  -0.809  -0.706  1.00  0.00     0.123 A 
INPUT-LIGAND-PDBQT: ATOM     16  F   UNL     1       9.367  -1.193  -1.112  1.00  0.00    -0.207 F 
INPUT-LIGAND-PDBQT: ENDBRANCH   3   6
INPUT-LIGAND-PDBQT: ENDBRANCH   1   2
INPUT-LIGAND-PDBQT: BRANCH   1  17
INPUT-LIGAND-PDBQT: ATOM     17  C   UNL     1      -0.943   1.130   0.733  1.00  0.00     0.242 C 
INPUT-LIGAND-PDBQT: ATOM     18  O   UNL     1      -1.996   1.527   1.418  1.00  0.00    -0.273 OA
INPUT-LIGAND-PDBQT: BRANCH  17  19
INPUT-LIGAND-PDBQT: ATOM     19  N   UNL     1      -1.260   0.577  -0.500  1.00  0.00    -0.338 N 
INPUT-LIGAND-PDBQT: ATOM     20  C   UNL     1      -0.255   0.292  -1.555  1.00  0.00     0.120 C 
INPUT-LIGAND-PDBQT: ATOM     21  C   UNL     1      -2.595   0.143  -0.926  1.00  0.00     0.088 C 
INPUT-LIGAND-PDBQT: ATOM     22  C   UNL     1      -0.138  -1.167  -1.805  1.00  0.00     0.022 C 
INPUT-LIGAND-PDBQT: ATOM     23  C   UNL     1      -2.477  -1.381  -0.940  1.00  0.00     0.025 C 
INPUT-LIGAND-PDBQT: ATOM     24  C   UNL     1      -1.520  -1.783  -2.014  1.00  0.00     0.004 C 
INPUT-LIGAND-PDBQT: BRANCH  21  25
INPUT-LIGAND-PDBQT: ATOM     25  C   UNL     1      -3.773   0.597  -0.167  1.00  0.00     0.012 C 
INPUT-LIGAND-PDBQT: ATOM     26  C   UNL     1      -4.981   0.324  -1.112  1.00  0.00     0.006 C 
INPUT-LIGAND-PDBQT: ATOM     27  C   UNL     1      -4.111  -0.161   1.087  1.00  0.00     0.006 C 
INPUT-LIGAND-PDBQT: ATOM     28  C   UNL     1      -6.199   0.839  -0.363  1.00  0.00     0.000 C 
INPUT-LIGAND-PDBQT: ATOM     29  C   UNL     1      -5.328  -1.054   0.990  1.00  0.00     0.000 C 
INPUT-LIGAND-PDBQT: ATOM     30  C   UNL     1      -6.568  -0.270   0.620  1.00  0.00     0.000 C 
INPUT-LIGAND-PDBQT: ENDBRANCH  21  25
INPUT-LIGAND-PDBQT: ENDBRANCH  17  19
INPUT-LIGAND-PDBQT: ENDBRANCH   1  17
INPUT-LIGAND-PDBQT: TORSDOF 5


    FINAL DOCKED STATE:
    ________________________


Run:   1 / 20
Time taken for this run:   0.037s

DOCKED: MODEL        1
DOCKED: USER    Run = 1
DOCKED: USER
DOCKED: USER    Estimated Free Energy of Binding    =  -8.97 kcal/mol  [=(1)+(2)+(3)-(4)]
DOCKED: USER
DOCKED: USER    (1) Final Intermolecular Energy     = -10.46 kcal/mol
DOCKED: USER        vdW + Hbond + desolv Energy     = -10.43 kcal/mol
DOCKED: USER        Electrostatic Energy            =  -0.03 kcal/mol
DOCKED: USER        Moving Ligand-Fixed Receptor    = -10.46 kcal/mol
DOCKED: USER        Moving Ligand-Moving Receptor   =  +0.00 kcal/mol
DOCKED: USER    (2) Final Total Internal Energy     =  -1.13 kcal/mol
DOCKED: USER    (3) Torsional Free Energy           =  +1.49 kcal/mol
DOCKED: USER    (4) Unbound System's Energy         =  -1.13 kcal/mol
DOCKED: USER
DOCKED: USER
DOCKED: REMARK SMILES O=C(NCC(=O)N1CCCC[C@H]1C1CCCCC1)c1ccc2cc(F)ccc2n1
DOCKED: REMARK SMILES IDX 4 1 3 2 2 3 1 4 19 6 20 7 29 8 21 9 28 10 22 11 27 12 23 13
DOCKED: REMARK SMILES IDX 26 14 24 15 25 16 5 17 6 18 7 19 8 20 12 21 9 22 11 23 10 24
DOCKED: REMARK SMILES IDX 13 25 14 26 18 27 15 28 17 29 16 30
DOCKED: REMARK H PARENT 3 5
DOCKED: USER                              x       y       z     vdW  Elec       q    Type
DOCKED: USER                           _______ _______ _______ _____ _____    ______ ____
DOCKED: ROOT
DOCKED: ATOM      1  C   UNL     1     139.987  74.467 221.150 -0.18 -0.04    +0.216 C  
DOCKED: ENDROOT
DOCKED: BRANCH   1   2
DOCKED: ATOM      2  N   UNL     1     139.861  73.731 222.344 -0.09 +0.03    -0.342 N  
DOCKED: ATOM      3  C   UNL     1     140.279  72.324 222.251 -0.21 -0.03    +0.270 C  
DOCKED: ATOM      4  O   UNL     1     140.704  71.907 221.132 -0.12 +0.04    -0.268 OA 
DOCKED: ATOM      5  H   UNL     1     139.556  73.987 223.287 -0.49 -0.03    +0.164 HD 
DOCKED: BRANCH   3   6
DOCKED: ATOM      6  C   UNL     1     140.188  71.475 223.428 -0.32 -0.02    +0.128 A  
DOCKED: ATOM      7  C   UNL     1     139.601  70.244 223.276 -0.25 -0.01    +0.035 A  
DOCKED: ATOM      8  N   UNL     1     140.665  71.879 224.632 -0.26 +0.03    -0.243 NA 
DOCKED: ATOM      9  C   UNL     1     139.512  69.431 224.391 -0.33 -0.00    +0.013 A  
DOCKED: ATOM     10  C   UNL     1     140.567  71.069 225.703 -0.53 -0.01    +0.071 A  
DOCKED: ATOM     11  C   UNL     1     139.983  69.805 225.624 -0.46 -0.00    +0.003 A  
DOCKED: ATOM     12  C   UNL     1     141.064  71.504 226.931 -0.72 -0.01    +0.032 A  
DOCKED: ATOM     13  C   UNL     1     139.894  68.993 226.736 -0.53 -0.01    +0.049 A  
DOCKED: ATOM     14  C   UNL     1     140.963  70.674 228.028 -0.63 -0.01    +0.041 A  
DOCKED: ATOM     15  C   UNL     1     140.382  69.420 227.943 -0.52 -0.02    +0.123 A  
DOCKED: ATOM     16  F   UNL     1     140.324  68.669 229.073 -0.15 +0.04    -0.207 F  
DOCKED: ENDBRANCH   3   6
DOCKED: ENDBRANCH   1   2
DOCKED: BRANCH   1  17
DOCKED: ATOM     17  C   UNL     1     140.474  75.829 221.101 -0.20 -0.07    +0.242 C  
DOCKED: ATOM     18  O   UNL     1     139.621  76.672 221.647 -0.17 +0.07    -0.273 OA 
DOCKED: BRANCH  17  19
DOCKED: ATOM     19  N   UNL     1     141.621  76.440 220.612 -0.12 +0.17    -0.338 N  
DOCKED: ATOM     20  C   UNL     1     142.707  75.707 219.913 -0.27 -0.06    +0.120 C  
DOCKED: ATOM     21  C   UNL     1     141.909  77.877 220.653 -0.24 -0.06    +0.088 C  
DOCKED: ATOM     22  C   UNL     1     142.815  76.132 218.495 -0.27 -0.01    +0.022 C  
DOCKED: ATOM     23  C   UNL     1     141.777  78.301 219.190 -0.26 -0.01    +0.025 C  
DOCKED: ATOM     24  C   UNL     1     142.867  77.655 218.398 -0.30 -0.00    +0.004 C  
DOCKED: BRANCH  21  25
DOCKED: ATOM     25  C   UNL     1     141.122  78.741 221.550 -0.36 -0.00    +0.012 C  
DOCKED: ATOM     26  C   UNL     1     141.832  78.627 222.932 -0.51 -0.00    +0.006 C  
DOCKED: ATOM     27  C   UNL     1     141.129  80.216 221.256 -0.34 -0.00    +0.006 C  
DOCKED: ATOM     28  C   UNL     1     140.998  79.471 223.881 -0.53 -0.00    +0.000 C  
DOCKED: ATOM     29  C   UNL     1     141.938  81.059 222.218 -0.50 -0.00    +0.000 C  
DOCKED: ATOM     30  C   UNL     1     141.445  80.911 223.640 -0.55 -0.00    +0.000 C  
DOCKED: ENDBRANCH  21  25
DOCKED: ENDBRANCH  17  19
DOCKED: ENDBRANCH   1  17
DOCKED: TORSDOF 5
DOCKED: TER
DOCKED: ENDMDL
________________________________________________________________________________


    FINAL DOCKED STATE:
    ________________________


Run:   2 / 20
Time taken for this run:   0.037s

DOCKED: MODEL        2
DOCKED: USER    Run = 2
DOCKED: USER
DOCKED: USER    Estimated Free Energy of Binding    =  -9.09 kcal/mol  [=(1)+(2)+(3)-(4)]
DOCKED: USER
DOCKED: USER    (1) Final Intermolecular Energy     = -10.58 kcal/mol
DOCKED: USER        vdW + Hbond + desolv Energy     = -10.50 kcal/mol
DOCKED: USER        Electrostatic Energy            =  -0.08 kcal/mol
DOCKED: USER        Moving Ligand-Fixed Receptor    = -10.58 kcal/mol
DOCKED: USER        Moving Ligand-Moving Receptor   =  +0.00 kcal/mol
DOCKED: USER    (2) Final Total Internal Energy     =  -1.13 kcal/mol
DOCKED: USER    (3) Torsional Free Energy           =  +1.49 kcal/mol
DOCKED: USER    (4) Unbound System's Energy         =  -1.13 kcal/mol
DOCKED: USER
DOCKED: USER
DOCKED: REMARK SMILES O=C(NCC(=O)N1CCCC[C@H]1C1CCCCC1)c1ccc2cc(F)ccc2n1
DOCKED: REMARK SMILES IDX 4 1 3 2 2 3 1 4 19 6 20 7 29 8 21 9 28 10 22 11 27 12 23 13
DOCKED: REMARK SMILES IDX 26 14 24 15 25 16 5 17 6 18 7 19 8 20 12 21 9 22 11 23 10 24
DOCKED: REMARK SMILES IDX 13 25 14 26 18 27 15 28 17 29 16 30
DOCKED: REMARK H PARENT 3 5
DOCKED: USER                              x       y       z     vdW  Elec       q    Type
DOCKED: USER                           _______ _______ _______ _____ _____    ______ ____
DOCKED: ROOT
DOCKED: ATOM      1  C   UNL     1     139.347  74.349 221.147 -0.15 -0.04    +0.216 C  
DOCKED: ENDROOT
DOCKED: BRANCH   1   2
DOCKED: ATOM      2  N   UNL     1     139.207  73.535 222.287 -0.09 +0.09    -0.342 N  
DOCKED: ATOM      3  C   UNL     1     140.195  72.451 222.400 -0.21 -0.03    +0.270 C  
DOCKED: ATOM      4  O   UNL     1     141.064  72.346 221.483 -0.19 +0.03    -0.268 OA 
DOCKED: ATOM      5  H   UNL     1     138.562  73.560 223.082 -0.53 -0.11    +0.164 HD 
DOCKED: BRANCH   3   6
DOCKED: ATOM      6  C   UNL     1     140.138  71.551 223.541 -0.33 -0.02    +0.128 A  
DOCKED: ATOM      7  C   UNL     1     139.560  70.322 223.349 -0.27 -0.01    +0.035 A  
DOCKED: ATOM      8  N   UNL     1     140.638  71.908 224.751 -0.25 +0.03    -0.243 NA 
DOCKED: ATOM      9  C   UNL     1     139.504  69.461 224.429 -0.33 -0.00    +0.013 A  
DOCKED: ATOM     10  C   UNL     1     140.572  71.053 225.787 -0.54 -0.01    +0.071 A  
DOCKED: ATOM     11  C   UNL     1     139.998  69.787 225.667 -0.47 -0.00    +0.003 A  
DOCKED: ATOM     12  C   UNL     1     141.091  71.440 227.022 -0.71 -0.01    +0.032 A  
DOCKED: ATOM     13  C   UNL     1     139.942  68.927 226.745 -0.54 -0.01    +0.049 A  
DOCKED: ATOM     14  C   UNL     1     141.023  70.563 228.085 -0.60 -0.01    +0.041 A  
DOCKED: ATOM     15  C   UNL     1     140.452  69.308 227.958 -0.53 -0.02    +0.123 A  
DOCKED: ATOM     16  F   UNL     1     140.427  68.508 229.055 -0.16 +0.04    -0.207 F  
DOCKED: ENDBRANCH   3   6
DOCKED: ENDBRANCH   1   2
DOCKED: BRANCH   1  17
DOCKED: ATOM     17  C   UNL     1     140.053  75.613 221.152 -0.19 -0.06    +0.242 C  
DOCKED: ATOM     18  O   UNL     1     139.275  76.604 221.535 -0.14 +0.06    -0.273 OA 
DOCKED: BRANCH  17  19
DOCKED: ATOM     19  N   UNL     1     141.347  76.010 220.844 -0.13 +0.14    -0.338 N  
DOCKED: ATOM     20  C   UNL     1     142.410  75.073 220.403 -0.25 -0.05    +0.120 C  
DOCKED: ATOM     21  C   UNL     1     141.842  77.391 220.850 -0.17 -0.06    +0.088 C  
DOCKED: ATOM     22  C   UNL     1     142.825  75.353 219.005 -0.27 -0.01    +0.022 C  
DOCKED: ATOM     23  C   UNL     1     142.030  77.699 219.364 -0.28 -0.02    +0.025 C  
DOCKED: ATOM     24  C   UNL     1     143.127  76.840 218.827 -0.34 -0.00    +0.004 C  
DOCKED: BRANCH  21  25
DOCKED: ATOM     25  C   UNL     1     141.056  78.433 221.533 -0.35 -0.01    +0.012 C  
DOCKED: ATOM     26  C   UNL     1     141.454  78.308 223.034 -0.53 -0.00    +0.006 C  
DOCKED: ATOM     27  C   UNL     1     141.371  79.862 221.188 -0.36 -0.00    +0.006 C  
DOCKED: ATOM     28  C   UNL     1     140.608  79.341 223.759 -0.50 -0.00    +0.000 C  
DOCKED: ATOM     29  C   UNL     1     142.109  80.633 222.260 -0.54 -0.00    +0.000 C  
DOCKED: ATOM     30  C   UNL     1     141.332  80.670 223.557 -0.55 -0.00    +0.000 C  
DOCKED: ENDBRANCH  21  25
DOCKED: ENDBRANCH  17  19
DOCKED: ENDBRANCH   1  17
DOCKED: TORSDOF 5
DOCKED: TER
DOCKED: ENDMDL
________________________________________________________________________________


    FINAL DOCKED STATE:
    ________________________


Run:   3 / 20
Time taken for this run:   0.037s

DOCKED: MODEL        3
DOCKED: USER    Run = 3
DOCKED: USER
DOCKED: USER    Estimated Free Energy of Binding    =  -6.65 kcal/mol  [=(1)+(2)+(3)-(4)]
DOCKED: USER
DOCKED: USER    (1) Final Intermolecular Energy     =  -8.14 kcal/mol
DOCKED: USER        vdW + Hbond + desolv Energy     =  -8.07 kcal/mol
DOCKED: USER        Electrostatic Energy            =  -0.07 kcal/mol
DOCKED: USER        Moving Ligand-Fixed Receptor    =  -8.14 kcal/mol
DOCKED: USER        Moving Ligand-Moving Receptor   =  +0.00 kcal/mol
DOCKED: USER    (2) Final Total Internal Energy     =  -2.70 kcal/mol
DOCKED: USER    (3) Torsional Free Energy           =  +1.49 kcal/mol
DOCKED: USER    (4) Unbound System's Energy         =  -2.70 kcal/mol
DOCKED: USER
DOCKED: USER
DOCKED: REMARK SMILES O=C(NCC(=O)N1CCCC[C@H]1C1CCCCC1)c1ccc2cc(F)ccc2n1
DOCKED: REMARK SMILES IDX 4 1 3 2 2 3 1 4 19 6 20 7 29 8 21 9 28 10 22 11 27 12 23 13
DOCKED: REMARK SMILES IDX 26 14 24 15 25 16 5 17 6 18 7 19 8 20 12 21 9 22 11 23 10 24
DOCKED: REMARK SMILES IDX 13 25 14 26 18 27 15 28 17 29 16 30
DOCKED: REMARK H PARENT 3 5
DOCKED: USER                              x       y       z     vdW  Elec       q    Type
DOCKED: USER                           _______ _______ _______ _____ _____    ______ ____
DOCKED: ROOT
DOCKED: ATOM      1  C   UNL     1     138.742  76.514 221.566 -0.17 -0.05    +0.216 C  
DOCKED: ENDROOT
DOCKED: BRANCH   1   2
DOCKED: ATOM      2  N   UNL     1     138.372  77.584 222.402 -0.12 +0.06    -0.342 N  
DOCKED: ATOM      3  C   UNL     1     138.110  78.852 221.706 -0.09 -0.05    +0.270 C  
DOCKED: ATOM      4  O   UNL     1     138.238  78.871 220.445 -0.02 +0.06    -0.268 OA 
DOCKED: ATOM      5  H   UNL     1     138.220  77.654 223.413 +0.05 -0.02    +0.164 HD 
DOCKED: BRANCH   3   6
DOCKED: ATOM      6  C   UNL     1     137.721  80.022 222.477 -0.15 -0.02    +0.128 A  
DOCKED: ATOM      7  C   UNL     1     137.391  81.157 221.782 -0.10 -0.01    +0.035 A  
DOCKED: ATOM      8  N   UNL     1     137.682  79.996 223.834 -0.18 +0.03    -0.243 NA 
DOCKED: ATOM      9  C   UNL     1     137.019  82.273 222.510 -0.13 -0.00    +0.013 A  
DOCKED: ATOM     10  C   UNL     1     137.317  81.095 224.519 -0.32 -0.01    +0.071 A  
DOCKED: ATOM     11  C   UNL     1     136.969  82.285 223.880 -0.21 -0.00    +0.003 A  
DOCKED: ATOM     12  C   UNL     1     137.285  81.046 225.912 -0.28 -0.00    +0.032 A  
DOCKED: ATOM     13  C   UNL     1     136.598  83.398 224.606 -0.17 -0.00    +0.049 A  
DOCKED: ATOM     14  C   UNL     1     136.911  82.173 226.616 -0.46 -0.01    +0.041 A  
DOCKED: ATOM     15  C   UNL     1     136.566  83.351 225.975 -0.25 -0.00    +0.123 A  
DOCKED: ATOM     16  F   UNL     1     136.210  84.412 226.744 -0.07 -0.00    -0.207 F  
DOCKED: ENDBRANCH   3   6
DOCKED: ENDBRANCH   1   2
DOCKED: BRANCH   1  17
DOCKED: ATOM     17  C   UNL     1     140.058  75.911 221.579 -0.23 -0.06    +0.242 C  
DOCKED: ATOM     18  O   UNL     1     140.080  74.802 222.288 -0.73 +0.01    -0.273 OA 
DOCKED: BRANCH  17  19
DOCKED: ATOM     19  N   UNL     1     141.287  76.237 221.021 -0.14 +0.14    -0.338 N  
DOCKED: ATOM     20  C   UNL     1     142.230  75.233 220.468 -0.25 -0.05    +0.120 C  
DOCKED: ATOM     21  C   UNL     1     141.812  77.595 220.842 -0.24 -0.06    +0.088 C  
DOCKED: ATOM     22  C   UNL     1     142.397  75.404 219.003 -0.22 -0.01    +0.022 C  
DOCKED: ATOM     23  C   UNL     1     141.742  77.798 219.328 -0.26 -0.01    +0.025 C  
DOCKED: ATOM     24  C   UNL     1     142.703  76.863 218.669 -0.32 -0.00    +0.004 C  
DOCKED: BRANCH  21  25
DOCKED: ATOM     25  C   UNL     1     141.188  78.709 221.576 -0.37 -0.01    +0.012 C  
DOCKED: ATOM     26  C   UNL     1     141.497  78.417 223.074 -0.53 -0.00    +0.006 C  
DOCKED: ATOM     27  C   UNL     1     141.756  80.082 221.346 -0.41 -0.00    +0.006 C  
DOCKED: ATOM     28  C   UNL     1     140.811  79.531 223.849 -0.52 -0.00    +0.000 C  
DOCKED: ATOM     29  C   UNL     1     142.571  80.641 222.491 -0.57 -0.00    +0.000 C  
DOCKED: ATOM     30  C   UNL     1     141.759  80.725 223.765 -0.59 -0.00    +0.000 C  
DOCKED: ENDBRANCH  21  25
DOCKED: ENDBRANCH  17  19
DOCKED: ENDBRANCH   1  17
DOCKED: TORSDOF 5
DOCKED: TER
DOCKED: ENDMDL
________________________________________________________________________________


    FINAL DOCKED STATE:
    ________________________


Run:   4 / 20
Time taken for this run:   0.037s

DOCKED: MODEL        4
DOCKED: USER    Run = 4
DOCKED: USER
DOCKED: USER    Estimated Free Energy of Binding    =  -8.72 kcal/mol  [=(1)+(2)+(3)-(4)]
DOCKED: USER
DOCKED: USER    (1) Final Intermolecular Energy     = -10.21 kcal/mol
DOCKED: USER        vdW + Hbond + desolv Energy     = -10.19 kcal/mol
DOCKED: USER        Electrostatic Energy            =  -0.02 kcal/mol
DOCKED: USER        Moving Ligand-Fixed Receptor    = -10.21 kcal/mol
DOCKED: USER        Moving Ligand-Moving Receptor   =  +0.00 kcal/mol
DOCKED: USER    (2) Final Total Internal Energy     =  -1.34 kcal/mol
DOCKED: USER    (3) Torsional Free Energy           =  +1.49 kcal/mol
DOCKED: USER    (4) Unbound System's Energy         =  -1.34 kcal/mol
DOCKED: USER
DOCKED: USER
DOCKED: REMARK SMILES O=C(NCC(=O)N1CCCC[C@H]1C1CCCCC1)c1ccc2cc(F)ccc2n1
DOCKED: REMARK SMILES IDX 4 1 3 2 2 3 1 4 19 6 20 7 29 8 21 9 28 10 22 11 27 12 23 13
DOCKED: REMARK SMILES IDX 26 14 24 15 25 16 5 17 6 18 7 19 8 20 12 21 9 22 11 23 10 24
DOCKED: REMARK SMILES IDX 13 25 14 26 18 27 15 28 17 29 16 30
DOCKED: REMARK H PARENT 3 5
DOCKED: USER                              x       y       z     vdW  Elec       q    Type
DOCKED: USER                           _______ _______ _______ _____ _____    ______ ____
DOCKED: ROOT
DOCKED: ATOM      1  C   UNL     1     139.466  74.458 221.135 -0.16 -0.04    +0.216 C  
DOCKED: ENDROOT
DOCKED: BRANCH   1   2
DOCKED: ATOM      2  N   UNL     1     139.551  73.731 222.337 -0.11 +0.06    -0.342 N  
DOCKED: ATOM      3  C   UNL     1     139.748  72.283 222.174 -0.19 -0.05    +0.270 C  
DOCKED: ATOM      4  O   UNL     1     139.821  71.827 220.993 -0.08 +0.05    -0.268 OA 
DOCKED: ATOM      5  H   UNL     1     139.529  74.014 223.321 -0.48 -0.03    +0.164 HD 
DOCKED: BRANCH   3   6
DOCKED: ATOM      6  C   UNL     1     139.848  71.440 223.353 -0.31 -0.02    +0.128 A  
DOCKED: ATOM      7  C   UNL     1     139.429  70.138 223.238 -0.24 -0.01    +0.035 A  
DOCKED: ATOM      8  N   UNL     1     140.338  71.916 224.526 -0.25 +0.04    -0.243 NA 
DOCKED: ATOM      9  C   UNL     1     139.523  69.330 224.357 -0.32 -0.00    +0.013 A  
DOCKED: ATOM     10  C   UNL     1     140.418  71.110 225.601 -0.52 -0.01    +0.071 A  
DOCKED: ATOM     11  C   UNL     1     140.011  69.776 225.558 -0.46 -0.00    +0.003 A  
DOCKED: ATOM     12  C   UNL     1     140.924  71.619 226.795 -0.71 -0.01    +0.032 A  
DOCKED: ATOM     13  C   UNL     1     140.104  68.969 226.674 -0.54 -0.01    +0.049 A  
DOCKED: ATOM     14  C   UNL     1     141.007  70.793 227.898 -0.65 -0.01    +0.041 A  
DOCKED: ATOM     15  C   UNL     1     140.601  69.470 227.848 -0.52 -0.02    +0.123 A  
DOCKED: ATOM     16  F   UNL     1     140.718  68.728 228.979 -0.14 +0.04    -0.207 F  
DOCKED: ENDBRANCH   3   6
DOCKED: ENDBRANCH   1   2
DOCKED: BRANCH   1  17
DOCKED: ATOM     17  C   UNL     1     140.098  75.744 220.934 -0.16 -0.06    +0.242 C  
DOCKED: ATOM     18  O   UNL     1     139.249  76.737 221.104 -0.09 +0.07    -0.273 OA 
DOCKED: BRANCH  17  19
DOCKED: ATOM     19  N   UNL     1     141.380  76.162 220.605 -0.12 +0.14    -0.338 N  
DOCKED: ATOM     20  C   UNL     1     142.432  75.252 220.084 -0.26 -0.05    +0.120 C  
DOCKED: ATOM     21  C   UNL     1     141.872  77.543 220.661 -0.22 -0.06    +0.088 C  
DOCKED: ATOM     22  C   UNL     1     142.800  75.601 218.688 -0.25 -0.01    +0.022 C  
DOCKED: ATOM     23  C   UNL     1     142.011  77.923 219.187 -0.28 -0.02    +0.025 C  
DOCKED: ATOM     24  C   UNL     1     143.092  77.096 218.573 -0.31 -0.00    +0.004 C  
DOCKED: BRANCH  21  25
DOCKED: ATOM     25  C   UNL     1     141.105  78.547 221.419 -0.34 -0.01    +0.012 C  
DOCKED: ATOM     26  C   UNL     1     141.446  78.260 222.912 -0.51 -0.00    +0.006 C  
DOCKED: ATOM     27  C   UNL     1     141.490  79.988 221.227 -0.38 -0.00    +0.006 C  
DOCKED: ATOM     28  C   UNL     1     140.618  79.254 223.709 -0.49 -0.00    +0.000 C  
DOCKED: ATOM     29  C   UNL     1     142.221  80.619 222.391 -0.56 -0.00    +0.000 C  
DOCKED: ATOM     30  C   UNL     1     141.402  80.563 223.661 -0.55 -0.00    +0.000 C  
DOCKED: ENDBRANCH  21  25
DOCKED: ENDBRANCH  17  19
DOCKED: ENDBRANCH   1  17
DOCKED: TORSDOF 5
DOCKED: TER
DOCKED: ENDMDL
________________________________________________________________________________


    FINAL DOCKED STATE:
    ________________________


Run:   5 / 20
Time taken for this run:   0.037s

DOCKED: MODEL        5
DOCKED: USER    Run = 5
DOCKED: USER
DOCKED: USER    Estimated Free Energy of Binding    =  -9.26 kcal/mol  [=(1)+(2)+(3)-(4)]
DOCKED: USER
DOCKED: USER    (1) Final Intermolecular Energy     = -10.75 kcal/mol
DOCKED: USER        vdW + Hbond + desolv Energy     = -10.67 kcal/mol
DOCKED: USER        Electrostatic Energy            =  -0.07 kcal/mol
DOCKED: USER        Moving Ligand-Fixed Receptor    = -10.75 kcal/mol
DOCKED: USER        Moving Ligand-Moving Receptor   =  +0.00 kcal/mol
DOCKED: USER    (2) Final Total Internal Energy     =  -1.17 kcal/mol
DOCKED: USER    (3) Torsional Free Energy           =  +1.49 kcal/mol
DOCKED: USER    (4) Unbound System's Energy         =  -1.17 kcal/mol
DOCKED: USER
DOCKED: USER
DOCKED: REMARK SMILES O=C(NCC(=O)N1CCCC[C@H]1C1CCCCC1)c1ccc2cc(F)ccc2n1
DOCKED: REMARK SMILES IDX 4 1 3 2 2 3 1 4 19 6 20 7 29 8 21 9 28 10 22 11 27 12 23 13
DOCKED: REMARK SMILES IDX 26 14 24 15 25 16 5 17 6 18 7 19 8 20 12 21 9 22 11 23 10 24
DOCKED: REMARK SMILES IDX 13 25 14 26 18 27 15 28 17 29 16 30
DOCKED: REMARK H PARENT 3 5
DOCKED: USER                              x       y       z     vdW  Elec       q    Type
DOCKED: USER                           _______ _______ _______ _____ _____    ______ ____
DOCKED: ROOT
DOCKED: ATOM      1  C   UNL     1     139.494  74.448 221.292 -0.18 -0.04    +0.216 C  
DOCKED: ENDROOT
DOCKED: BRANCH   1   2
DOCKED: ATOM      2  N   UNL     1     139.259  73.539 222.341 -0.09 +0.08    -0.342 N  
DOCKED: ATOM      3  C   UNL     1     140.356  72.595 222.602 -0.17 -0.02    +0.270 C  
DOCKED: ATOM      4  O   UNL     1     141.393  72.680 221.876 -0.25 +0.01    -0.268 OA 
DOCKED: ATOM      5  H   UNL     1     138.475  73.416 222.989 -0.52 -0.10    +0.164 HD 
DOCKED: BRANCH   3   6
DOCKED: ATOM      6  C   UNL     1     140.215  71.614 223.664 -0.33 -0.02    +0.128 A  
DOCKED: ATOM      7  C   UNL     1     139.570  70.441 223.361 -0.28 -0.01    +0.035 A  
DOCKED: ATOM      8  N   UNL     1     140.701  71.842 224.911 -0.29 +0.03    -0.243 NA 
DOCKED: ATOM      9  C   UNL     1     139.433  69.502 224.367 -0.33 -0.00    +0.013 A  
DOCKED: ATOM     10  C   UNL     1     140.555  70.913 225.873 -0.54 -0.01    +0.071 A  
DOCKED: ATOM     11  C   UNL     1     139.911  69.698 225.638 -0.46 -0.00    +0.003 A  
DOCKED: ATOM     12  C   UNL     1     141.062  71.169 227.146 -0.69 -0.01    +0.032 A  
DOCKED: ATOM     13  C   UNL     1     139.774  68.761 226.642 -0.54 -0.01    +0.049 A  
DOCKED: ATOM     14  C   UNL     1     140.912  70.217 228.134 -0.56 -0.01    +0.041 A  
DOCKED: ATOM     15  C   UNL     1     140.271  69.013 227.893 -0.53 -0.02    +0.123 A  
DOCKED: ATOM     16  F   UNL     1     140.168  68.132 228.922 -0.15 +0.05    -0.207 F  
DOCKED: ENDBRANCH   3   6
DOCKED: ENDBRANCH   1   2
DOCKED: BRANCH   1  17
DOCKED: ATOM     17  C   UNL     1     140.255  75.668 221.450 -0.23 -0.06    +0.242 C  
DOCKED: ATOM     18  O   UNL     1     139.664  76.508 222.276 -0.28 +0.06    -0.273 OA 
DOCKED: BRANCH  17  19
DOCKED: ATOM     19  N   UNL     1     141.450  76.149 220.933 -0.14 +0.15    -0.338 N  
DOCKED: ATOM     20  C   UNL     1     142.499  75.278 220.344 -0.24 -0.05    +0.120 C  
DOCKED: ATOM     21  C   UNL     1     141.834  77.561 220.833 -0.22 -0.06    +0.088 C  
DOCKED: ATOM     22  C   UNL     1     142.665  75.544 218.892 -0.25 -0.01    +0.022 C  
DOCKED: ATOM     23  C   UNL     1     141.761  77.837 219.332 -0.26 -0.01    +0.025 C  
DOCKED: ATOM     24  C   UNL     1     142.821  77.043 218.641 -0.34 -0.00    +0.004 C  
DOCKED: BRANCH  21  25
DOCKED: ATOM     25  C   UNL     1     141.089  78.564 221.614 -0.36 -0.00    +0.012 C  
DOCKED: ATOM     26  C   UNL     1     141.773  78.564 223.013 -0.50 -0.00    +0.006 C  
DOCKED: ATOM     27  C   UNL     1     141.186  79.994 221.159 -0.34 -0.00    +0.006 C  
DOCKED: ATOM     28  C   UNL     1     140.979  79.555 223.847 -0.54 -0.00    +0.000 C  
DOCKED: ATOM     29  C   UNL     1     142.030  80.891 222.036 -0.50 -0.00    +0.000 C  
DOCKED: ATOM     30  C   UNL     1     141.512  80.932 223.457 -0.58 -0.00    +0.000 C  
DOCKED: ENDBRANCH  21  25
DOCKED: ENDBRANCH  17  19
DOCKED: ENDBRANCH   1  17
DOCKED: TORSDOF 5
DOCKED: TER
DOCKED: ENDMDL
________________________________________________________________________________


    FINAL DOCKED STATE:
    ________________________


Run:   6 / 20
Time taken for this run:   0.037s

DOCKED: MODEL        6
DOCKED: USER    Run = 6
DOCKED: USER
DOCKED: USER    Estimated Free Energy of Binding    =  -9.11 kcal/mol  [=(1)+(2)+(3)-(4)]
DOCKED: USER
DOCKED: USER    (1) Final Intermolecular Energy     = -10.61 kcal/mol
DOCKED: USER        vdW + Hbond + desolv Energy     = -10.53 kcal/mol
DOCKED: USER        Electrostatic Energy            =  -0.07 kcal/mol
DOCKED: USER        Moving Ligand-Fixed Receptor    = -10.61 kcal/mol
DOCKED: USER        Moving Ligand-Moving Receptor   =  +0.00 kcal/mol
DOCKED: USER    (2) Final Total Internal Energy     =  -1.28 kcal/mol
DOCKED: USER    (3) Torsional Free Energy           =  +1.49 kcal/mol
DOCKED: USER    (4) Unbound System's Energy         =  -1.28 kcal/mol
DOCKED: USER
DOCKED: USER
DOCKED: REMARK SMILES O=C(NCC(=O)N1CCCC[C@H]1C1CCCCC1)c1ccc2cc(F)ccc2n1
DOCKED: REMARK SMILES IDX 4 1 3 2 2 3 1 4 19 6 20 7 29 8 21 9 28 10 22 11 27 12 23 13
DOCKED: REMARK SMILES IDX 26 14 24 15 25 16 5 17 6 18 7 19 8 20 12 21 9 22 11 23 10 24
DOCKED: REMARK SMILES IDX 13 25 14 26 18 27 15 28 17 29 16 30
DOCKED: REMARK H PARENT 3 5
DOCKED: USER                              x       y       z     vdW  Elec       q    Type
DOCKED: USER                           _______ _______ _______ _____ _____    ______ ____
DOCKED: ROOT
DOCKED: ATOM      1  C   UNL     1     139.857  74.723 221.321 -0.20 -0.04    +0.216 C  
DOCKED: ENDROOT
DOCKED: BRANCH   1   2
DOCKED: ATOM      2  N   UNL     1     139.561  73.808 222.349 -0.10 +0.06    -0.342 N  
DOCKED: ATOM      3  C   UNL     1     140.532  72.714 222.503 -0.11 -0.01    +0.270 C  
DOCKED: ATOM      4  O   UNL     1     141.525  72.691 221.716 -0.22 +0.02    -0.268 OA 
DOCKED: ATOM      5  H   UNL     1     138.807  73.762 223.041 -0.55 -0.10    +0.164 HD 
DOCKED: BRANCH   3   6
DOCKED: ATOM      6  C   UNL     1     140.320  71.713 223.536 -0.33 -0.02    +0.128 A  
DOCKED: ATOM      7  C   UNL     1     139.627  70.581 223.188 -0.27 -0.01    +0.035 A  
DOCKED: ATOM      8  N   UNL     1     140.788  71.886 224.798 -0.24 +0.03    -0.243 NA 
DOCKED: ATOM      9  C   UNL     1     139.423  69.624 224.165 -0.31 -0.00    +0.013 A  
DOCKED: ATOM     10  C   UNL     1     140.576  70.941 225.732 -0.53 -0.01    +0.071 A  
DOCKED: ATOM     11  C   UNL     1     139.880  69.764 225.451 -0.44 -0.00    +0.003 A  
DOCKED: ATOM     12  C   UNL     1     141.066  71.139 227.022 -0.68 -0.01    +0.032 A  
DOCKED: ATOM     13  C   UNL     1     139.676  68.810 226.426 -0.51 -0.01    +0.049 A  
DOCKED: ATOM     14  C   UNL     1     140.849  70.170 227.980 -0.59 -0.01    +0.041 A  
DOCKED: ATOM     15  C   UNL     1     140.157  69.005 227.694 -0.53 -0.02    +0.123 A  
DOCKED: ATOM     16  F   UNL     1     139.989  68.104 228.696 -0.14 +0.05    -0.207 F  
DOCKED: ENDBRANCH   3   6
DOCKED: ENDBRANCH   1   2
DOCKED: BRANCH   1  17
DOCKED: ATOM     17  C   UNL     1     140.685  75.894 221.510 -0.25 -0.07    +0.242 C  
DOCKED: ATOM     18  O   UNL     1     140.433  76.489 222.658 -0.34 +0.06    -0.273 OA 
DOCKED: BRANCH  17  19
DOCKED: ATOM     19  N   UNL     1     141.670  76.525 220.763 -0.11 +0.18    -0.338 N  
DOCKED: ATOM     20  C   UNL     1     142.658  75.798 219.925 -0.27 -0.06    +0.120 C  
DOCKED: ATOM     21  C   UNL     1     141.853  77.975 220.637 -0.27 -0.06    +0.088 C  
DOCKED: ATOM     22  C   UNL     1     142.465  76.100 218.484 -0.23 -0.01    +0.022 C  
DOCKED: ATOM     23  C   UNL     1     141.417  78.257 219.199 -0.22 -0.01    +0.025 C  
DOCKED: ATOM     24  C   UNL     1     142.384  77.609 218.264 -0.30 -0.00    +0.004 C  
DOCKED: BRANCH  21  25
DOCKED: ATOM     25  C   UNL     1     141.186  78.868 221.600 -0.37 -0.00    +0.012 C  
DOCKED: ATOM     26  C   UNL     1     142.192  78.996 222.783 -0.53 -0.00    +0.006 C  
DOCKED: ATOM     27  C   UNL     1     140.951  80.288 221.165 -0.31 -0.00    +0.006 C  
DOCKED: ATOM     28  C   UNL     1     141.492  79.871 223.809 -0.58 -0.00    +0.000 C  
DOCKED: ATOM     29  C   UNL     1     141.844  81.317 221.820 -0.44 -0.00    +0.000 C  
DOCKED: ATOM     30  C   UNL     1     141.699  81.305 223.326 -0.57 -0.00    +0.000 C  
DOCKED: ENDBRANCH  21  25
DOCKED: ENDBRANCH  17  19
DOCKED: ENDBRANCH   1  17
DOCKED: TORSDOF 5
DOCKED: TER
DOCKED: ENDMDL
________________________________________________________________________________


    FINAL DOCKED STATE:
    ________________________


Run:   7 / 20
Time taken for this run:   0.037s

DOCKED: MODEL        7
DOCKED: USER    Run = 7
DOCKED: USER
DOCKED: USER    Estimated Free Energy of Binding    =  -8.43 kcal/mol  [=(1)+(2)+(3)-(4)]
DOCKED: USER
DOCKED: USER    (1) Final Intermolecular Energy     =  -9.92 kcal/mol
DOCKED: USER        vdW + Hbond + desolv Energy     =  -9.84 kcal/mol
DOCKED: USER        Electrostatic Energy            =  -0.08 kcal/mol
DOCKED: USER        Moving Ligand-Fixed Receptor    =  -9.92 kcal/mol
DOCKED: USER        Moving Ligand-Moving Receptor   =  +0.00 kcal/mol
DOCKED: USER    (2) Final Total Internal Energy     =  -1.70 kcal/mol
DOCKED: USER    (3) Torsional Free Energy           =  +1.49 kcal/mol
DOCKED: USER    (4) Unbound System's Energy         =  -1.70 kcal/mol
DOCKED: USER
DOCKED: USER
DOCKED: REMARK SMILES O=C(NCC(=O)N1CCCC[C@H]1C1CCCCC1)c1ccc2cc(F)ccc2n1
DOCKED: REMARK SMILES IDX 4 1 3 2 2 3 1 4 19 6 20 7 29 8 21 9 28 10 22 11 27 12 23 13
DOCKED: REMARK SMILES IDX 26 14 24 15 25 16 5 17 6 18 7 19 8 20 12 21 9 22 11 23 10 24
DOCKED: REMARK SMILES IDX 13 25 14 26 18 27 15 28 17 29 16 30
DOCKED: REMARK H PARENT 3 5
DOCKED: USER                              x       y       z     vdW  Elec       q    Type
DOCKED: USER                           _______ _______ _______ _____ _____    ______ ____
DOCKED: ROOT
DOCKED: ATOM      1  C   UNL     1     139.531  74.111 221.079 -0.15 -0.04    +0.216 C  
DOCKED: ENDROOT
DOCKED: BRANCH   1   2
DOCKED: ATOM      2  N   UNL     1     139.367  73.350 222.253 -0.12 +0.07    -0.342 N  
DOCKED: ATOM      3  C   UNL     1     140.261  72.188 222.368 -0.21 -0.03    +0.270 C  
DOCKED: ATOM      4  O   UNL     1     141.080  71.977 221.423 -0.16 +0.03    -0.268 OA 
DOCKED: ATOM      5  H   UNL     1     138.759  73.458 223.069 -0.52 -0.10    +0.164 HD 
DOCKED: BRANCH   3   6
DOCKED: ATOM      6  C   UNL     1     140.173  71.335 223.542 -0.32 -0.02    +0.128 A  
DOCKED: ATOM      7  C   UNL     1     139.581  70.107 223.389 -0.25 -0.01    +0.035 A  
DOCKED: ATOM      8  N   UNL     1     140.657  71.733 224.746 -0.29 +0.03    -0.243 NA 
DOCKED: ATOM      9  C   UNL     1     139.495  69.289 224.501 -0.34 -0.00    +0.013 A  
DOCKED: ATOM     10  C   UNL     1     140.561  70.920 225.814 -0.53 -0.01    +0.071 A  
DOCKED: ATOM     11  C   UNL     1     139.972  69.658 225.733 -0.47 -0.00    +0.003 A  
DOCKED: ATOM     12  C   UNL     1     141.065  71.349 227.041 -0.71 -0.01    +0.032 A  
DOCKED: ATOM     13  C   UNL     1     139.886  68.843 226.843 -0.55 -0.01    +0.049 A  
DOCKED: ATOM     14  C   UNL     1     140.967  70.516 228.136 -0.58 -0.01    +0.041 A  
DOCKED: ATOM     15  C   UNL     1     140.381  69.264 228.049 -0.53 -0.02    +0.123 A  
DOCKED: ATOM     16  F   UNL     1     140.326  68.509 229.177 -0.12 +0.04    -0.207 F  
DOCKED: ENDBRANCH   3   6
DOCKED: ENDBRANCH   1   2
DOCKED: BRANCH   1  17
DOCKED: ATOM     17  C   UNL     1     140.672  74.967 220.837 -0.18 -0.06    +0.242 C  
DOCKED: ATOM     18  O   UNL     1     141.311  75.255 221.952 -0.46 +0.06    -0.273 OA 
DOCKED: BRANCH  17  19
DOCKED: ATOM     19  N   UNL     1     141.235  75.549 219.709 -0.05 +0.12    -0.338 N  
DOCKED: ATOM     20  C   UNL     1     140.619  76.683 218.976 -0.08 -0.04    +0.120 C  
DOCKED: ATOM     21  C   UNL     1     142.524  75.184 219.111 -0.21 -0.03    +0.088 C  
DOCKED: ATOM     22  C   UNL     1     141.460  77.903 219.069 -0.21 -0.01    +0.022 C  
DOCKED: ATOM     23  C   UNL     1     143.413  76.382 219.443 -0.37 -0.02    +0.025 C  
DOCKED: ATOM     24  C   UNL     1     142.908  77.579 218.706 -0.28 -0.00    +0.004 C  
DOCKED: BRANCH  21  25
DOCKED: ATOM     25  C   UNL     1     143.155  73.908 219.490 -0.26 -0.00    +0.012 C  
DOCKED: ATOM     26  C   UNL     1     144.323  73.729 218.474 -0.21 -0.00    +0.006 C  
DOCKED: ATOM     27  C   UNL     1     143.827  73.851 220.834 -0.32 -0.00    +0.006 C  
DOCKED: ATOM     28  C   UNL     1     144.950  72.388 218.819 -0.27 +0.00    +0.000 C  
DOCKED: ATOM     29  C   UNL     1     145.339  73.840 220.797 -0.61 -0.00    +0.000 C  
DOCKED: ATOM     30  C   UNL     1     145.870  72.665 220.006 -0.49 +0.00    +0.000 C  
DOCKED: ENDBRANCH  21  25
DOCKED: ENDBRANCH  17  19
DOCKED: ENDBRANCH   1  17
DOCKED: TORSDOF 5
DOCKED: TER
DOCKED: ENDMDL
________________________________________________________________________________


    FINAL DOCKED STATE:
    ________________________


Run:   8 / 20
Time taken for this run:   0.037s

DOCKED: MODEL        8
DOCKED: USER    Run = 8
DOCKED: USER
DOCKED: USER    Estimated Free Energy of Binding    =  -8.44 kcal/mol  [=(1)+(2)+(3)-(4)]
DOCKED: USER
DOCKED: USER    (1) Final Intermolecular Energy     =  -9.94 kcal/mol
DOCKED: USER        vdW + Hbond + desolv Energy     =  -9.85 kcal/mol
DOCKED: USER        Electrostatic Energy            =  -0.08 kcal/mol
DOCKED: USER        Moving Ligand-Fixed Receptor    =  -9.94 kcal/mol
DOCKED: USER        Moving Ligand-Moving Receptor   =  +0.00 kcal/mol
DOCKED: USER    (2) Final Total Internal Energy     =  -1.68 kcal/mol
DOCKED: USER    (3) Torsional Free Energy           =  +1.49 kcal/mol
DOCKED: USER    (4) Unbound System's Energy         =  -1.68 kcal/mol
DOCKED: USER
DOCKED: USER
DOCKED: REMARK SMILES O=C(NCC(=O)N1CCCC[C@H]1C1CCCCC1)c1ccc2cc(F)ccc2n1
DOCKED: REMARK SMILES IDX 4 1 3 2 2 3 1 4 19 6 20 7 29 8 21 9 28 10 22 11 27 12 23 13
DOCKED: REMARK SMILES IDX 26 14 24 15 25 16 5 17 6 18 7 19 8 20 12 21 9 22 11 23 10 24
DOCKED: REMARK SMILES IDX 13 25 14 26 18 27 15 28 17 29 16 30
DOCKED: REMARK H PARENT 3 5
DOCKED: USER                              x       y       z     vdW  Elec       q    Type
DOCKED: USER                           _______ _______ _______ _____ _____    ______ ____
DOCKED: ROOT
DOCKED: ATOM      1  C   UNL     1     139.558  74.084 221.044 -0.15 -0.04    +0.216 C  
DOCKED: ENDROOT
DOCKED: BRANCH   1   2
DOCKED: ATOM      2  N   UNL     1     139.370  73.329 222.217 -0.12 +0.07    -0.342 N  
DOCKED: ATOM      3  C   UNL     1     140.289  72.192 222.375 -0.21 -0.03    +0.270 C  
DOCKED: ATOM      4  O   UNL     1     141.149  71.996 221.463 -0.17 +0.03    -0.268 OA 
DOCKED: ATOM      5  H   UNL     1     138.729  73.426 223.010 -0.51 -0.10    +0.164 HD 
DOCKED: BRANCH   3   6
DOCKED: ATOM      6  C   UNL     1     140.180  71.345 223.552 -0.32 -0.02    +0.128 A  
DOCKED: ATOM      7  C   UNL     1     139.580  70.121 223.398 -0.26 -0.01    +0.035 A  
DOCKED: ATOM      8  N   UNL     1     140.654  71.745 224.760 -0.29 +0.03    -0.243 NA 
DOCKED: ATOM      9  C   UNL     1     139.474  69.310 224.513 -0.34 -0.00    +0.013 A  
DOCKED: ATOM     10  C   UNL     1     140.539  70.938 225.830 -0.53 -0.01    +0.071 A  
DOCKED: ATOM     11  C   UNL     1     139.940  69.680 225.749 -0.47 -0.00    +0.003 A  
DOCKED: ATOM     12  C   UNL     1     141.032  71.368 227.061 -0.71 -0.01    +0.032 A  
DOCKED: ATOM     13  C   UNL     1     139.834  68.871 226.862 -0.54 -0.01    +0.049 A  
DOCKED: ATOM     14  C   UNL     1     140.914  70.542 228.159 -0.58 -0.01    +0.041 A  
DOCKED: ATOM     15  C   UNL     1     140.318  69.294 228.071 -0.53 -0.02    +0.123 A  
DOCKED: ATOM     16  F   UNL     1     140.244  68.545 229.202 -0.10 +0.04    -0.207 F  
DOCKED: ENDBRANCH   3   6
DOCKED: ENDBRANCH   1   2
DOCKED: BRANCH   1  17
DOCKED: ATOM     17  C   UNL     1     140.721  74.911 220.806 -0.18 -0.06    +0.242 C  
DOCKED: ATOM     18  O   UNL     1     141.378  75.162 221.921 -0.44 +0.06    -0.273 OA 
DOCKED: BRANCH  17  19
DOCKED: ATOM     19  N   UNL     1     141.291  75.495 219.684 -0.05 +0.12    -0.338 N  
DOCKED: ATOM     20  C   UNL     1     140.673  76.622 218.940 -0.08 -0.04    +0.120 C  
DOCKED: ATOM     21  C   UNL     1     142.590  75.141 219.100 -0.21 -0.03    +0.088 C  
DOCKED: ATOM     22  C   UNL     1     141.502  77.850 219.040 -0.21 -0.01    +0.022 C  
DOCKED: ATOM     23  C   UNL     1     143.464  76.348 219.440 -0.36 -0.02    +0.025 C  
DOCKED: ATOM     24  C   UNL     1     142.957  77.539 218.694 -0.29 -0.00    +0.004 C  
DOCKED: BRANCH  21  25
DOCKED: ATOM     25  C   UNL     1     143.229  73.872 219.490 -0.26 -0.00    +0.012 C  
DOCKED: ATOM     26  C   UNL     1     144.417  73.707 218.496 -0.22 -0.00    +0.006 C  
DOCKED: ATOM     27  C   UNL     1     143.877  73.821 220.846 -0.33 -0.00    +0.006 C  
DOCKED: ATOM     28  C   UNL     1     145.053  72.373 218.850 -0.28 +0.00    +0.000 C  
DOCKED: ATOM     29  C   UNL     1     145.389  73.828 220.836 -0.63 -0.00    +0.000 C  
DOCKED: ATOM     30  C   UNL     1     145.948  72.659 220.054 -0.50 +0.00    +0.000 C  
DOCKED: ENDBRANCH  21  25
DOCKED: ENDBRANCH  17  19
DOCKED: ENDBRANCH   1  17
DOCKED: TORSDOF 5
DOCKED: TER
DOCKED: ENDMDL
________________________________________________________________________________


    FINAL DOCKED STATE:
    ________________________


Run:   9 / 20
Time taken for this run:   0.037s

DOCKED: MODEL        9
DOCKED: USER    Run = 9
DOCKED: USER
DOCKED: USER    Estimated Free Energy of Binding    =  -9.05 kcal/mol  [=(1)+(2)+(3)-(4)]
DOCKED: USER
DOCKED: USER    (1) Final Intermolecular Energy     = -10.54 kcal/mol
DOCKED: USER        vdW + Hbond + desolv Energy     = -10.47 kcal/mol
DOCKED: USER        Electrostatic Energy            =  -0.07 kcal/mol
DOCKED: USER        Moving Ligand-Fixed Receptor    = -10.54 kcal/mol
DOCKED: USER        Moving Ligand-Moving Receptor   =  +0.00 kcal/mol
DOCKED: USER    (2) Final Total Internal Energy     =  -1.31 kcal/mol
DOCKED: USER    (3) Torsional Free Energy           =  +1.49 kcal/mol
DOCKED: USER    (4) Unbound System's Energy         =  -1.31 kcal/mol
DOCKED: USER
DOCKED: USER
DOCKED: REMARK SMILES O=C(NCC(=O)N1CCCC[C@H]1C1CCCCC1)c1ccc2cc(F)ccc2n1
DOCKED: REMARK SMILES IDX 4 1 3 2 2 3 1 4 19 6 20 7 29 8 21 9 28 10 22 11 27 12 23 13
DOCKED: REMARK SMILES IDX 26 14 24 15 25 16 5 17 6 18 7 19 8 20 12 21 9 22 11 23 10 24
DOCKED: REMARK SMILES IDX 13 25 14 26 18 27 15 28 17 29 16 30
DOCKED: REMARK H PARENT 3 5
DOCKED: USER                              x       y       z     vdW  Elec       q    Type
DOCKED: USER                           _______ _______ _______ _____ _____    ______ ____
DOCKED: ROOT
DOCKED: ATOM      1  C   UNL     1     139.901  74.750 221.306 -0.20 -0.04    +0.216 C  
DOCKED: ENDROOT
DOCKED: BRANCH   1   2
DOCKED: ATOM      2  N   UNL     1     139.590  73.842 222.335 -0.11 +0.05    -0.342 N  
DOCKED: ATOM      3  C   UNL     1     140.498  72.690 222.440 -0.15 -0.02    +0.270 C  
DOCKED: ATOM      4  O   UNL     1     141.458  72.617 221.614 -0.22 +0.02    -0.268 OA 
DOCKED: ATOM      5  H   UNL     1     138.862  73.832 223.056 -0.55 -0.10    +0.164 HD 
DOCKED: BRANCH   3   6
DOCKED: ATOM      6  C   UNL     1     140.266  71.690 223.470 -0.32 -0.02    +0.128 A  
DOCKED: ATOM      7  C   UNL     1     139.591  70.552 223.107 -0.26 -0.01    +0.035 A  
DOCKED: ATOM      8  N   UNL     1     140.700  71.870 224.744 -0.27 +0.03    -0.243 NA 
DOCKED: ATOM      9  C   UNL     1     139.367  69.597 224.082 -0.30 -0.00    +0.013 A  
DOCKED: ATOM     10  C   UNL     1     140.470  70.926 225.674 -0.52 -0.01    +0.071 A  
DOCKED: ATOM     11  C   UNL     1     139.790  69.744 225.378 -0.44 -0.00    +0.003 A  
DOCKED: ATOM     12  C   UNL     1     140.924  71.131 226.976 -0.67 -0.01    +0.032 A  
DOCKED: ATOM     13  C   UNL     1     139.567  68.790 226.351 -0.51 -0.01    +0.049 A  
DOCKED: ATOM     14  C   UNL     1     140.689  70.163 227.931 -0.60 -0.01    +0.041 A  
DOCKED: ATOM     15  C   UNL     1     140.013  68.992 227.630 -0.52 -0.02    +0.123 A  
DOCKED: ATOM     16  F   UNL     1     139.824  68.093 228.630 -0.08 +0.04    -0.207 F  
DOCKED: ENDBRANCH   3   6
DOCKED: ENDBRANCH   1   2
DOCKED: BRANCH   1  17
DOCKED: ATOM     17  C   UNL     1     140.774  75.890 221.486 -0.24 -0.07    +0.242 C  
DOCKED: ATOM     18  O   UNL     1     140.676  76.393 222.700 -0.34 +0.07    -0.273 OA 
DOCKED: BRANCH  17  19
DOCKED: ATOM     19  N   UNL     1     141.676  76.567 220.677 -0.12 +0.18    -0.338 N  
DOCKED: ATOM     20  C   UNL     1     142.626  75.888 219.760 -0.28 -0.06    +0.120 C  
DOCKED: ATOM     21  C   UNL     1     141.794  78.024 220.558 -0.28 -0.05    +0.088 C  
DOCKED: ATOM     22  C   UNL     1     142.316  76.197 218.341 -0.21 -0.01    +0.022 C  
DOCKED: ATOM     23  C   UNL     1     141.242  78.304 219.160 -0.20 -0.01    +0.025 C  
DOCKED: ATOM     24  C   UNL     1     142.161  77.704 218.147 -0.27 -0.00    +0.004 C  
DOCKED: BRANCH  21  25
DOCKED: ATOM     25  C   UNL     1     141.166  78.880 221.579 -0.36 -0.00    +0.012 C  
DOCKED: ATOM     26  C   UNL     1     142.228  78.984 222.714 -0.50 -0.00    +0.006 C  
DOCKED: ATOM     27  C   UNL     1     140.896  80.310 221.199 -0.31 -0.00    +0.006 C  
DOCKED: ATOM     28  C   UNL     1     141.571  79.820 223.800 -0.59 -0.00    +0.000 C  
DOCKED: ATOM     29  C   UNL     1     141.811  81.329 221.841 -0.45 -0.00    +0.000 C  
DOCKED: ATOM     30  C   UNL     1     141.740  81.270 223.352 -0.59 -0.00    +0.000 C  
DOCKED: ENDBRANCH  21  25
DOCKED: ENDBRANCH  17  19
DOCKED: ENDBRANCH   1  17
DOCKED: TORSDOF 5
DOCKED: TER
DOCKED: ENDMDL
________________________________________________________________________________


    FINAL DOCKED STATE:
    ________________________


Run:   10 / 20
Time taken for this run:   0.037s

DOCKED: MODEL        10
DOCKED: USER    Run = 10
DOCKED: USER
DOCKED: USER    Estimated Free Energy of Binding    =  -8.44 kcal/mol  [=(1)+(2)+(3)-(4)]
DOCKED: USER
DOCKED: USER    (1) Final Intermolecular Energy     =  -9.93 kcal/mol
DOCKED: USER        vdW + Hbond + desolv Energy     =  -9.85 kcal/mol
DOCKED: USER        Electrostatic Energy            =  -0.08 kcal/mol
DOCKED: USER        Moving Ligand-Fixed Receptor    =  -9.93 kcal/mol
DOCKED: USER        Moving Ligand-Moving Receptor   =  +0.00 kcal/mol
DOCKED: USER    (2) Final Total Internal Energy     =  -1.75 kcal/mol
DOCKED: USER    (3) Torsional Free Energy           =  +1.49 kcal/mol
DOCKED: USER    (4) Unbound System's Energy         =  -1.75 kcal/mol
DOCKED: USER
DOCKED: USER
DOCKED: REMARK SMILES O=C(NCC(=O)N1CCCC[C@H]1C1CCCCC1)c1ccc2cc(F)ccc2n1
DOCKED: REMARK SMILES IDX 4 1 3 2 2 3 1 4 19 6 20 7 29 8 21 9 28 10 22 11 27 12 23 13
DOCKED: REMARK SMILES IDX 26 14 24 15 25 16 5 17 6 18 7 19 8 20 12 21 9 22 11 23 10 24
DOCKED: REMARK SMILES IDX 13 25 14 26 18 27 15 28 17 29 16 30
DOCKED: REMARK H PARENT 3 5
DOCKED: USER                              x       y       z     vdW  Elec       q    Type
DOCKED: USER                           _______ _______ _______ _____ _____    ______ ____
DOCKED: ROOT
DOCKED: ATOM      1  C   UNL     1     139.443  74.179 221.141 -0.15 -0.04    +0.216 C  
DOCKED: ENDROOT
DOCKED: BRANCH   1   2
DOCKED: ATOM      2  N   UNL     1     139.273  73.383 222.289 -0.11 +0.08    -0.342 N  
DOCKED: ATOM      3  C   UNL     1     140.263  72.307 222.450 -0.21 -0.03    +0.270 C  
DOCKED: ATOM      4  O   UNL     1     141.160  72.193 221.561 -0.18 +0.03    -0.268 OA 
DOCKED: ATOM      5  H   UNL     1     138.603  73.416 223.063 -0.51 -0.11    +0.164 HD 
DOCKED: BRANCH   3   6
DOCKED: ATOM      6  C   UNL     1     140.177  71.426 223.603 -0.33 -0.02    +0.128 A  
DOCKED: ATOM      7  C   UNL     1     139.586  70.202 223.421 -0.26 -0.01    +0.035 A  
DOCKED: ATOM      8  N   UNL     1     140.664  71.795 224.815 -0.28 +0.03    -0.243 NA 
DOCKED: ATOM      9  C   UNL     1     139.501  69.358 224.513 -0.34 -0.00    +0.013 A  
DOCKED: ATOM     10  C   UNL     1     140.570  70.956 225.863 -0.54 -0.01    +0.071 A  
DOCKED: ATOM     11  C   UNL     1     139.981  69.696 225.753 -0.47 -0.00    +0.003 A  
DOCKED: ATOM     12  C   UNL     1     141.076  71.355 227.099 -0.71 -0.01    +0.032 A  
DOCKED: ATOM     13  C   UNL     1     139.897  68.854 226.843 -0.55 -0.01    +0.049 A  
DOCKED: ATOM     14  C   UNL     1     140.980  70.495 228.174 -0.57 -0.01    +0.041 A  
DOCKED: ATOM     15  C   UNL     1     140.394  69.246 228.058 -0.53 -0.02    +0.123 A  
DOCKED: ATOM     16  F   UNL     1     140.341  68.463 229.167 -0.13 +0.04    -0.207 F  
DOCKED: ENDBRANCH   3   6
DOCKED: ENDBRANCH   1   2
DOCKED: BRANCH   1  17
DOCKED: ATOM     17  C   UNL     1     140.602  75.015 220.915 -0.18 -0.06    +0.242 C  
DOCKED: ATOM     18  O   UNL     1     141.097  75.478 222.044 -0.47 +0.06    -0.273 OA 
DOCKED: BRANCH  17  19
DOCKED: ATOM     19  N   UNL     1     141.299  75.436 219.790 -0.05 +0.11    -0.338 N  
DOCKED: ATOM     20  C   UNL     1     140.725  76.333 218.756 -0.07 -0.04    +0.120 C  
DOCKED: ATOM     21  C   UNL     1     142.697  75.116 219.480 -0.25 -0.04    +0.088 C  
DOCKED: ATOM     22  C   UNL     1     141.433  77.638 218.724 -0.19 -0.01    +0.022 C  
DOCKED: ATOM     23  C   UNL     1     143.413  76.450 219.691 -0.34 -0.02    +0.025 C  
DOCKED: ATOM     24  C   UNL     1     142.943  77.421 218.658 -0.32 -0.00    +0.004 C  
DOCKED: BRANCH  21  25
DOCKED: ATOM     25  C   UNL     1     143.359  74.016 220.202 -0.34 -0.00    +0.012 C  
DOCKED: ATOM     26  C   UNL     1     143.352  72.825 219.198 -0.18 -0.00    +0.006 C  
DOCKED: ATOM     27  C   UNL     1     144.812  74.200 220.542 -0.50 -0.00    +0.006 C  
DOCKED: ATOM     28  C   UNL     1     143.983  71.665 219.950 -0.28 -0.00    +0.000 C  
DOCKED: ATOM     29  C   UNL     1     145.774  73.371 219.720 -0.48 +0.00    +0.000 C  
DOCKED: ATOM     30  C   UNL     1     145.490  71.891 219.852 -0.31 +0.00    +0.000 C  
DOCKED: ENDBRANCH  21  25
DOCKED: ENDBRANCH  17  19
DOCKED: ENDBRANCH   1  17
DOCKED: TORSDOF 5
DOCKED: TER
DOCKED: ENDMDL
________________________________________________________________________________


    FINAL DOCKED STATE:
    ________________________


Run:   11 / 20
Time taken for this run:   0.037s

DOCKED: MODEL        11
DOCKED: USER    Run = 11
DOCKED: USER
DOCKED: USER    Estimated Free Energy of Binding    =  -7.67 kcal/mol  [=(1)+(2)+(3)-(4)]
DOCKED: USER
DOCKED: USER    (1) Final Intermolecular Energy     =  -9.16 kcal/mol
DOCKED: USER        vdW + Hbond + desolv Energy     =  -9.11 kcal/mol
DOCKED: USER        Electrostatic Energy            =  -0.05 kcal/mol
DOCKED: USER        Moving Ligand-Fixed Receptor    =  -9.16 kcal/mol
DOCKED: USER        Moving Ligand-Moving Receptor   =  +0.00 kcal/mol
DOCKED: USER    (2) Final Total Internal Energy     =  -1.86 kcal/mol
DOCKED: USER    (3) Torsional Free Energy           =  +1.49 kcal/mol
DOCKED: USER    (4) Unbound System's Energy         =  -1.86 kcal/mol
DOCKED: USER
DOCKED: USER
DOCKED: REMARK SMILES O=C(NCC(=O)N1CCCC[C@H]1C1CCCCC1)c1ccc2cc(F)ccc2n1
DOCKED: REMARK SMILES IDX 4 1 3 2 2 3 1 4 19 6 20 7 29 8 21 9 28 10 22 11 27 12 23 13
DOCKED: REMARK SMILES IDX 26 14 24 15 25 16 5 17 6 18 7 19 8 20 12 21 9 22 11 23 10 24
DOCKED: REMARK SMILES IDX 13 25 14 26 18 27 15 28 17 29 16 30
DOCKED: REMARK H PARENT 3 5
DOCKED: USER                              x       y       z     vdW  Elec       q    Type
DOCKED: USER                           _______ _______ _______ _____ _____    ______ ____
DOCKED: ROOT
DOCKED: ATOM      1  C   UNL     1     138.941  76.163 221.749 -0.20 -0.05    +0.216 C  
DOCKED: ENDROOT
DOCKED: BRANCH   1   2
DOCKED: ATOM      2  N   UNL     1     137.978  75.607 222.612 -0.12 +0.10    -0.342 N  
DOCKED: ATOM      3  C   UNL     1     136.857  76.498 222.947 -0.15 -0.05    +0.270 C  
DOCKED: ATOM      4  O   UNL     1     136.857  77.661 222.442 -0.12 +0.04    -0.268 OA 
DOCKED: ATOM      5  H   UNL     1     137.883  74.682 223.042 -0.47 -0.10    +0.164 HD 
DOCKED: BRANCH   3   6
DOCKED: ATOM      6  C   UNL     1     135.807  76.022 223.832 -0.22 -0.02    +0.128 A  
DOCKED: ATOM      7  C   UNL     1     134.890  76.940 224.278 -0.15 -0.00    +0.035 A  
DOCKED: ATOM      8  N   UNL     1     135.730  74.719 224.205 -0.19 +0.06    -0.243 NA 
DOCKED: ATOM      9  C   UNL     1     133.888  76.493 225.120 -0.23 -0.00    +0.013 A  
DOCKED: ATOM     10  C   UNL     1     134.746  74.308 225.025 -0.30 -0.01    +0.071 A  
DOCKED: ATOM     11  C   UNL     1     133.779  75.185 225.519 -0.31 -0.00    +0.003 A  
DOCKED: ATOM     12  C   UNL     1     134.686  72.966 225.395 -0.22 -0.00    +0.032 A  
DOCKED: ATOM     13  C   UNL     1     132.779  74.739 226.359 -0.30 -0.00    +0.049 A  
DOCKED: ATOM     14  C   UNL     1     133.677  72.544 226.236 -0.33 -0.00    +0.041 A  
DOCKED: ATOM     15  C   UNL     1     132.721  73.420 226.723 -0.32 -0.01    +0.123 A  
DOCKED: ATOM     16  F   UNL     1     131.762  72.921 227.545 -0.14 +0.04    -0.207 F  
DOCKED: ENDBRANCH   3   6
DOCKED: ENDBRANCH   1   2
DOCKED: BRANCH   1  17
DOCKED: ATOM     17  C   UNL     1     140.280  75.634 221.603 -0.24 -0.05    +0.242 C  
DOCKED: ATOM     18  O   UNL     1     140.398  74.445 222.159 -0.77 -0.00    -0.273 OA 
DOCKED: BRANCH  17  19
DOCKED: ATOM     19  N   UNL     1     141.453  76.092 221.019 -0.14 +0.15    -0.338 N  
DOCKED: ATOM     20  C   UNL     1     142.489  75.197 220.446 -0.23 -0.05    +0.120 C  
DOCKED: ATOM     21  C   UNL     1     141.821  77.499 220.828 -0.22 -0.06    +0.088 C  
DOCKED: ATOM     22  C   UNL     1     142.605  75.382 218.977 -0.24 -0.01    +0.022 C  
DOCKED: ATOM     23  C   UNL     1     141.696  77.689 219.317 -0.25 -0.01    +0.025 C  
DOCKED: ATOM     24  C   UNL     1     142.740  76.865 218.637 -0.33 -0.00    +0.004 C  
DOCKED: BRANCH  21  25
DOCKED: ATOM     25  C   UNL     1     141.093  78.539 221.576 -0.36 -0.01    +0.012 C  
DOCKED: ATOM     26  C   UNL     1     141.463  78.285 223.068 -0.53 -0.00    +0.006 C  
DOCKED: ATOM     27  C   UNL     1     141.503  79.966 221.335 -0.39 -0.00    +0.006 C  
DOCKED: ATOM     28  C   UNL     1     140.675  79.318 223.856 -0.49 -0.00    +0.000 C  
DOCKED: ATOM     29  C   UNL     1     142.274  80.613 222.464 -0.57 -0.00    +0.000 C  
DOCKED: ATOM     30  C   UNL     1     141.484  80.609 223.754 -0.55 -0.00    +0.000 C  
DOCKED: ENDBRANCH  21  25
DOCKED: ENDBRANCH  17  19
DOCKED: ENDBRANCH   1  17
DOCKED: TORSDOF 5
DOCKED: TER
DOCKED: ENDMDL
________________________________________________________________________________


    FINAL DOCKED STATE:
    ________________________


Run:   12 / 20
Time taken for this run:   0.037s

DOCKED: MODEL        12
DOCKED: USER    Run = 12
DOCKED: USER
DOCKED: USER    Estimated Free Energy of Binding    =  -9.25 kcal/mol  [=(1)+(2)+(3)-(4)]
DOCKED: USER
DOCKED: USER    (1) Final Intermolecular Energy     = -10.74 kcal/mol
DOCKED: USER        vdW + Hbond + desolv Energy     = -10.67 kcal/mol
DOCKED: USER        Electrostatic Energy            =  -0.07 kcal/mol
DOCKED: USER        Moving Ligand-Fixed Receptor    = -10.74 kcal/mol
DOCKED: USER        Moving Ligand-Moving Receptor   =  +0.00 kcal/mol
DOCKED: USER    (2) Final Total Internal Energy     =  -1.18 kcal/mol
DOCKED: USER    (3) Torsional Free Energy           =  +1.49 kcal/mol
DOCKED: USER    (4) Unbound System's Energy         =  -1.18 kcal/mol
DOCKED: USER
DOCKED: USER
DOCKED: REMARK SMILES O=C(NCC(=O)N1CCCC[C@H]1C1CCCCC1)c1ccc2cc(F)ccc2n1
DOCKED: REMARK SMILES IDX 4 1 3 2 2 3 1 4 19 6 20 7 29 8 21 9 28 10 22 11 27 12 23 13
DOCKED: REMARK SMILES IDX 26 14 24 15 25 16 5 17 6 18 7 19 8 20 12 21 9 22 11 23 10 24
DOCKED: REMARK SMILES IDX 13 25 14 26 18 27 15 28 17 29 16 30
DOCKED: REMARK H PARENT 3 5
DOCKED: USER                              x       y       z     vdW  Elec       q    Type
DOCKED: USER                           _______ _______ _______ _____ _____    ______ ____
DOCKED: ROOT
DOCKED: ATOM      1  C   UNL     1     139.516  74.503 221.307 -0.18 -0.04    +0.216 C  
DOCKED: ENDROOT
DOCKED: BRANCH   1   2
DOCKED: ATOM      2  N   UNL     1     139.268  73.586 222.345 -0.09 +0.08    -0.342 N  
DOCKED: ATOM      3  C   UNL     1     140.372  72.658 222.630 -0.15 -0.02    +0.270 C  
DOCKED: ATOM      4  O   UNL     1     141.425  72.761 221.932 -0.26 +0.01    -0.268 OA 
DOCKED: ATOM      5  H   UNL     1     138.469  73.448 222.972 -0.52 -0.10    +0.164 HD 
DOCKED: BRANCH   3   6
DOCKED: ATOM      6  C   UNL     1     140.217  71.669 223.684 -0.33 -0.02    +0.128 A  
DOCKED: ATOM      7  C   UNL     1     139.573  70.500 223.367 -0.28 -0.01    +0.035 A  
DOCKED: ATOM      8  N   UNL     1     140.693  71.888 224.937 -0.28 +0.03    -0.243 NA 
DOCKED: ATOM      9  C   UNL     1     139.424  69.554 224.365 -0.33 -0.00    +0.013 A  
DOCKED: ATOM     10  C   UNL     1     140.535  70.952 225.891 -0.54 -0.01    +0.071 A  
DOCKED: ATOM     11  C   UNL     1     139.890  69.740 225.641 -0.46 -0.00    +0.003 A  
DOCKED: ATOM     12  C   UNL     1     141.030  71.198 227.171 -0.69 -0.01    +0.032 A  
DOCKED: ATOM     13  C   UNL     1     139.741  68.797 226.637 -0.53 -0.01    +0.049 A  
DOCKED: ATOM     14  C   UNL     1     140.869  70.239 228.150 -0.56 -0.01    +0.041 A  
DOCKED: ATOM     15  C   UNL     1     140.227  69.038 227.895 -0.53 -0.02    +0.123 A  
DOCKED: ATOM     16  F   UNL     1     140.112  68.150 228.916 -0.14 +0.05    -0.207 F  
DOCKED: ENDBRANCH   3   6
DOCKED: ENDBRANCH   1   2
DOCKED: BRANCH   1  17
DOCKED: ATOM     17  C   UNL     1     140.293  75.712 221.479 -0.23 -0.06    +0.242 C  
DOCKED: ATOM     18  O   UNL     1     139.753  76.515 222.373 -0.29 +0.06    -0.273 OA 
DOCKED: BRANCH  17  19
DOCKED: ATOM     19  N   UNL     1     141.461  76.211 220.920 -0.14 +0.15    -0.338 N  
DOCKED: ATOM     20  C   UNL     1     142.508  75.355 220.307 -0.23 -0.06    +0.120 C  
DOCKED: ATOM     21  C   UNL     1     141.814  77.629 220.796 -0.25 -0.05    +0.088 C  
DOCKED: ATOM     22  C   UNL     1     142.624  75.611 218.848 -0.25 -0.01    +0.022 C  
DOCKED: ATOM     23  C   UNL     1     141.689  77.889 219.295 -0.25 -0.01    +0.025 C  
DOCKED: ATOM     24  C   UNL     1     142.742  77.110 218.579 -0.33 -0.00    +0.004 C  
DOCKED: BRANCH  21  25
DOCKED: ATOM     25  C   UNL     1     141.073  78.624 221.591 -0.36 -0.00    +0.012 C  
DOCKED: ATOM     26  C   UNL     1     141.750  78.593 222.994 -0.52 -0.00    +0.006 C  
DOCKED: ATOM     27  C   UNL     1     141.187  80.061 221.163 -0.34 -0.00    +0.006 C  
DOCKED: ATOM     28  C   UNL     1     140.960  79.576 223.841 -0.54 -0.00    +0.000 C  
DOCKED: ATOM     29  C   UNL     1     142.034  80.935 222.060 -0.49 -0.00    +0.000 C  
DOCKED: ATOM     30  C   UNL     1     141.509  80.954 223.479 -0.58 -0.00    +0.000 C  
DOCKED: ENDBRANCH  21  25
DOCKED: ENDBRANCH  17  19
DOCKED: ENDBRANCH   1  17
DOCKED: TORSDOF 5
DOCKED: TER
DOCKED: ENDMDL
________________________________________________________________________________


    FINAL DOCKED STATE:
    ________________________


Run:   13 / 20
Time taken for this run:   0.037s

DOCKED: MODEL        13
DOCKED: USER    Run = 13
DOCKED: USER
DOCKED: USER    Estimated Free Energy of Binding    =  -9.26 kcal/mol  [=(1)+(2)+(3)-(4)]
DOCKED: USER
DOCKED: USER    (1) Final Intermolecular Energy     = -10.75 kcal/mol
DOCKED: USER        vdW + Hbond + desolv Energy     = -10.68 kcal/mol
DOCKED: USER        Electrostatic Energy            =  -0.07 kcal/mol
DOCKED: USER        Moving Ligand-Fixed Receptor    = -10.75 kcal/mol
DOCKED: USER        Moving Ligand-Moving Receptor   =  +0.00 kcal/mol
DOCKED: USER    (2) Final Total Internal Energy     =  -1.15 kcal/mol
DOCKED: USER    (3) Torsional Free Energy           =  +1.49 kcal/mol
DOCKED: USER    (4) Unbound System's Energy         =  -1.15 kcal/mol
DOCKED: USER
DOCKED: USER
DOCKED: REMARK SMILES O=C(NCC(=O)N1CCCC[C@H]1C1CCCCC1)c1ccc2cc(F)ccc2n1
DOCKED: REMARK SMILES IDX 4 1 3 2 2 3 1 4 19 6 20 7 29 8 21 9 28 10 22 11 27 12 23 13
DOCKED: REMARK SMILES IDX 26 14 24 15 25 16 5 17 6 18 7 19 8 20 12 21 9 22 11 23 10 24
DOCKED: REMARK SMILES IDX 13 25 14 26 18 27 15 28 17 29 16 30
DOCKED: REMARK H PARENT 3 5
DOCKED: USER                              x       y       z     vdW  Elec       q    Type
DOCKED: USER                           _______ _______ _______ _____ _____    ______ ____
DOCKED: ROOT
DOCKED: ATOM      1  C   UNL     1     139.451  74.447 221.281 -0.17 -0.04    +0.216 C  
DOCKED: ENDROOT
DOCKED: BRANCH   1   2
DOCKED: ATOM      2  N   UNL     1     139.221  73.527 222.322 -0.09 +0.08    -0.342 N  
DOCKED: ATOM      3  C   UNL     1     140.356  72.643 222.630 -0.16 -0.02    +0.270 C  
DOCKED: ATOM      4  O   UNL     1     141.416  72.783 221.948 -0.27 +0.01    -0.268 OA 
DOCKED: ATOM      5  H   UNL     1     138.419  73.361 222.936 -0.51 -0.10    +0.164 HD 
DOCKED: BRANCH   3   6
DOCKED: ATOM      6  C   UNL     1     140.223  71.655 223.688 -0.33 -0.02    +0.128 A  
DOCKED: ATOM      7  C   UNL     1     139.581  70.481 223.381 -0.28 -0.01    +0.035 A  
DOCKED: ATOM      8  N   UNL     1     140.714  71.879 224.933 -0.28 +0.03    -0.243 NA 
DOCKED: ATOM      9  C   UNL     1     139.452  69.536 224.382 -0.33 -0.00    +0.013 A  
DOCKED: ATOM     10  C   UNL     1     140.575  70.944 225.891 -0.54 -0.01    +0.071 A  
DOCKED: ATOM     11  C   UNL     1     139.935  69.727 225.652 -0.46 -0.00    +0.003 A  
DOCKED: ATOM     12  C   UNL     1     141.086  71.195 227.163 -0.69 -0.01    +0.032 A  
DOCKED: ATOM     13  C   UNL     1     139.806  68.785 226.651 -0.54 -0.01    +0.049 A  
DOCKED: ATOM     14  C   UNL     1     140.945  70.236 228.146 -0.56 -0.01    +0.041 A  
DOCKED: ATOM     15  C   UNL     1     140.308  69.031 227.902 -0.53 -0.02    +0.123 A  
DOCKED: ATOM     16  F   UNL     1     140.213  68.144 228.926 -0.16 +0.05    -0.207 F  
DOCKED: ENDBRANCH   3   6
DOCKED: ENDBRANCH   1   2
DOCKED: BRANCH   1  17
DOCKED: ATOM     17  C   UNL     1     140.230  75.656 221.444 -0.23 -0.06    +0.242 C  
DOCKED: ATOM     18  O   UNL     1     139.639  76.511 222.253 -0.27 +0.06    -0.273 OA 
DOCKED: BRANCH  17  19
DOCKED: ATOM     19  N   UNL     1     141.441  76.113 220.944 -0.14 +0.15    -0.338 N  
DOCKED: ATOM     20  C   UNL     1     142.494  75.219 220.400 -0.24 -0.05    +0.120 C  
DOCKED: ATOM     21  C   UNL     1     141.841  77.519 220.821 -0.21 -0.06    +0.088 C  
DOCKED: ATOM     22  C   UNL     1     142.697  75.449 218.947 -0.26 -0.01    +0.022 C  
DOCKED: ATOM     23  C   UNL     1     141.806  77.759 219.312 -0.27 -0.01    +0.025 C  
DOCKED: ATOM     24  C   UNL     1     142.874  76.940 218.665 -0.34 -0.00    +0.004 C  
DOCKED: BRANCH  21  25
DOCKED: ATOM     25  C   UNL     1     141.088  78.546 221.560 -0.36 -0.01    +0.012 C  
DOCKED: ATOM     26  C   UNL     1     141.638  78.469 223.015 -0.50 -0.00    +0.006 C  
DOCKED: ATOM     27  C   UNL     1     141.312  79.978 221.160 -0.35 -0.00    +0.006 C  
DOCKED: ATOM     28  C   UNL     1     140.829  79.487 223.803 -0.53 -0.00    +0.000 C  
DOCKED: ATOM     29  C   UNL     1     142.124  80.799 222.137 -0.52 -0.00    +0.000 C  
DOCKED: ATOM     30  C   UNL     1     141.479  80.836 223.505 -0.58 -0.00    +0.000 C  
DOCKED: ENDBRANCH  21  25
DOCKED: ENDBRANCH  17  19
DOCKED: ENDBRANCH   1  17
DOCKED: TORSDOF 5
DOCKED: TER
DOCKED: ENDMDL
________________________________________________________________________________


    FINAL DOCKED STATE:
    ________________________


Run:   14 / 20
Time taken for this run:   0.037s

DOCKED: MODEL        14
DOCKED: USER    Run = 14
DOCKED: USER
DOCKED: USER    Estimated Free Energy of Binding    =  -8.44 kcal/mol  [=(1)+(2)+(3)-(4)]
DOCKED: USER
DOCKED: USER    (1) Final Intermolecular Energy     =  -9.94 kcal/mol
DOCKED: USER        vdW + Hbond + desolv Energy     =  -9.85 kcal/mol
DOCKED: USER        Electrostatic Energy            =  -0.08 kcal/mol
DOCKED: USER        Moving Ligand-Fixed Receptor    =  -9.94 kcal/mol
DOCKED: USER        Moving Ligand-Moving Receptor   =  +0.00 kcal/mol
DOCKED: USER    (2) Final Total Internal Energy     =  -1.74 kcal/mol
DOCKED: USER    (3) Torsional Free Energy           =  +1.49 kcal/mol
DOCKED: USER    (4) Unbound System's Energy         =  -1.74 kcal/mol
DOCKED: USER
DOCKED: USER
DOCKED: REMARK SMILES O=C(NCC(=O)N1CCCC[C@H]1C1CCCCC1)c1ccc2cc(F)ccc2n1
DOCKED: REMARK SMILES IDX 4 1 3 2 2 3 1 4 19 6 20 7 29 8 21 9 28 10 22 11 27 12 23 13
DOCKED: REMARK SMILES IDX 26 14 24 15 25 16 5 17 6 18 7 19 8 20 12 21 9 22 11 23 10 24
DOCKED: REMARK SMILES IDX 13 25 14 26 18 27 15 28 17 29 16 30
DOCKED: REMARK H PARENT 3 5
DOCKED: USER                              x       y       z     vdW  Elec       q    Type
DOCKED: USER                           _______ _______ _______ _____ _____    ______ ____
DOCKED: ROOT
DOCKED: ATOM      1  C   UNL     1     139.371  74.271 221.156 -0.15 -0.04    +0.216 C  
DOCKED: ENDROOT
DOCKED: BRANCH   1   2
DOCKED: ATOM      2  N   UNL     1     139.213  73.456 222.293 -0.09 +0.09    -0.342 N  
DOCKED: ATOM      3  C   UNL     1     140.236  72.412 222.454 -0.21 -0.03    +0.270 C  
DOCKED: ATOM      4  O   UNL     1     141.149  72.339 221.577 -0.20 +0.03    -0.268 OA 
DOCKED: ATOM      5  H   UNL     1     138.532  73.458 223.058 -0.52 -0.11    +0.164 HD 
DOCKED: BRANCH   3   6
DOCKED: ATOM      6  C   UNL     1     140.165  71.515 223.596 -0.33 -0.02    +0.128 A  
DOCKED: ATOM      7  C   UNL     1     139.590  70.285 223.399 -0.27 -0.01    +0.035 A  
DOCKED: ATOM      8  N   UNL     1     140.649  71.875 224.812 -0.27 +0.03    -0.243 NA 
DOCKED: ATOM      9  C   UNL     1     139.520  69.425 224.481 -0.34 -0.00    +0.013 A  
DOCKED: ATOM     10  C   UNL     1     140.568  71.021 225.849 -0.54 -0.01    +0.071 A  
DOCKED: ATOM     11  C   UNL     1     139.997  69.754 225.724 -0.47 -0.00    +0.003 A  
DOCKED: ATOM     12  C   UNL     1     141.071  71.411 227.090 -0.72 -0.01    +0.032 A  
DOCKED: ATOM     13  C   UNL     1     139.927  68.897 226.803 -0.54 -0.01    +0.049 A  
DOCKED: ATOM     14  C   UNL     1     140.989  70.536 228.154 -0.58 -0.01    +0.041 A  
DOCKED: ATOM     15  C   UNL     1     140.421  69.280 228.022 -0.53 -0.02    +0.123 A  
DOCKED: ATOM     16  F   UNL     1     140.381  68.483 229.121 -0.15 +0.04    -0.207 F  
DOCKED: ENDBRANCH   3   6
DOCKED: ENDBRANCH   1   2
DOCKED: BRANCH   1  17
DOCKED: ATOM     17  C   UNL     1     140.550  75.073 220.908 -0.18 -0.06    +0.242 C  
DOCKED: ATOM     18  O   UNL     1     141.081  75.519 222.028 -0.46 +0.06    -0.273 OA 
DOCKED: BRANCH  17  19
DOCKED: ATOM     19  N   UNL     1     141.236  75.475 219.770 -0.05 +0.11    -0.338 N  
DOCKED: ATOM     20  C   UNL     1     140.648  76.347 218.722 -0.06 -0.04    +0.120 C  
DOCKED: ATOM     21  C   UNL     1     142.634  75.160 219.457 -0.25 -0.04    +0.088 C  
DOCKED: ATOM     22  C   UNL     1     141.346  77.656 218.658 -0.17 -0.01    +0.022 C  
DOCKED: ATOM     23  C   UNL     1     143.341  76.504 219.636 -0.34 -0.02    +0.025 C  
DOCKED: ATOM     24  C   UNL     1     142.857  77.449 218.586 -0.32 -0.00    +0.004 C  
DOCKED: BRANCH  21  25
DOCKED: ATOM     25  C   UNL     1     143.309  74.080 220.197 -0.34 -0.00    +0.012 C  
DOCKED: ATOM     26  C   UNL     1     143.248  72.850 219.243 -0.18 -0.00    +0.006 C  
DOCKED: ATOM     27  C   UNL     1     144.776  74.256 220.474 -0.51 -0.00    +0.006 C  
DOCKED: ATOM     28  C   UNL     1     143.892  71.712 220.016 -0.28 -0.00    +0.000 C  
DOCKED: ATOM     29  C   UNL     1     145.695  73.382 219.649 -0.46 +0.00    +0.000 C  
DOCKED: ATOM     30  C   UNL     1     145.397  71.912 219.851 -0.32 +0.00    +0.000 C  
DOCKED: ENDBRANCH  21  25
DOCKED: ENDBRANCH  17  19
DOCKED: ENDBRANCH   1  17
DOCKED: TORSDOF 5
DOCKED: TER
DOCKED: ENDMDL
________________________________________________________________________________


    FINAL DOCKED STATE:
    ________________________


Run:   15 / 20
Time taken for this run:   0.037s

DOCKED: MODEL        15
DOCKED: USER    Run = 15
DOCKED: USER
DOCKED: USER    Estimated Free Energy of Binding    =  -9.16 kcal/mol  [=(1)+(2)+(3)-(4)]
DOCKED: USER
DOCKED: USER    (1) Final Intermolecular Energy     = -10.65 kcal/mol
DOCKED: USER        vdW + Hbond + desolv Energy     = -10.58 kcal/mol
DOCKED: USER        Electrostatic Energy            =  -0.07 kcal/mol
DOCKED: USER        Moving Ligand-Fixed Receptor    = -10.65 kcal/mol
DOCKED: USER        Moving Ligand-Moving Receptor   =  +0.00 kcal/mol
DOCKED: USER    (2) Final Total Internal Energy     =  -1.26 kcal/mol
DOCKED: USER    (3) Torsional Free Energy           =  +1.49 kcal/mol
DOCKED: USER    (4) Unbound System's Energy         =  -1.26 kcal/mol
DOCKED: USER
DOCKED: USER
DOCKED: REMARK SMILES O=C(NCC(=O)N1CCCC[C@H]1C1CCCCC1)c1ccc2cc(F)ccc2n1
DOCKED: REMARK SMILES IDX 4 1 3 2 2 3 1 4 19 6 20 7 29 8 21 9 28 10 22 11 27 12 23 13
DOCKED: REMARK SMILES IDX 26 14 24 15 25 16 5 17 6 18 7 19 8 20 12 21 9 22 11 23 10 24
DOCKED: REMARK SMILES IDX 13 25 14 26 18 27 15 28 17 29 16 30
DOCKED: REMARK H PARENT 3 5
DOCKED: USER                              x       y       z     vdW  Elec       q    Type
DOCKED: USER                           _______ _______ _______ _____ _____    ______ ____
DOCKED: ROOT
DOCKED: ATOM      1  C   UNL     1     139.929  74.701 221.298 -0.20 -0.04    +0.216 C  
DOCKED: ENDROOT
DOCKED: BRANCH   1   2
DOCKED: ATOM      2  N   UNL     1     139.623  73.805 222.340 -0.11 +0.05    -0.342 N  
DOCKED: ATOM      3  C   UNL     1     140.541  72.663 222.464 -0.15 -0.02    +0.270 C  
DOCKED: ATOM      4  O   UNL     1     141.504  72.587 221.642 -0.22 +0.02    -0.268 OA 
DOCKED: ATOM      5  H   UNL     1     138.892  73.799 223.057 -0.54 -0.10    +0.164 HD 
DOCKED: BRANCH   3   6
DOCKED: ATOM      6  C   UNL     1     140.315  71.676 223.507 -0.33 -0.02    +0.128 A  
DOCKED: ATOM      7  C   UNL     1     139.633  70.536 223.163 -0.26 -0.01    +0.035 A  
DOCKED: ATOM      8  N   UNL     1     140.760  71.870 224.775 -0.25 +0.03    -0.243 NA 
DOCKED: ATOM      9  C   UNL     1     139.415  69.593 224.151 -0.31 -0.00    +0.013 A  
DOCKED: ATOM     10  C   UNL     1     140.535  70.937 225.719 -0.53 -0.01    +0.071 A  
DOCKED: ATOM     11  C   UNL     1     139.849  69.754 225.443 -0.44 -0.00    +0.003 A  
DOCKED: ATOM     12  C   UNL     1     141.000  71.156 227.014 -0.68 -0.01    +0.032 A  
DOCKED: ATOM     13  C   UNL     1     139.631  68.813 226.428 -0.51 -0.01    +0.049 A  
DOCKED: ATOM     14  C   UNL     1     140.770  70.200 227.982 -0.60 -0.01    +0.041 A  
DOCKED: ATOM     15  C   UNL     1     140.088  69.028 227.701 -0.52 -0.02    +0.123 A  
DOCKED: ATOM     16  F   UNL     1     139.906  68.141 228.713 -0.12 +0.04    -0.207 F  
DOCKED: ENDBRANCH   3   6
DOCKED: ENDBRANCH   1   2
DOCKED: BRANCH   1  17
DOCKED: ATOM     17  C   UNL     1     140.722  75.897 221.484 -0.25 -0.07    +0.242 C  
DOCKED: ATOM     18  O   UNL     1     140.457  76.485 222.632 -0.34 +0.06    -0.273 OA 
DOCKED: BRANCH  17  19
DOCKED: ATOM     19  N   UNL     1     141.684  76.558 220.731 -0.11 +0.18    -0.338 N  
DOCKED: ATOM     20  C   UNL     1     142.666  75.863 219.862 -0.27 -0.06    +0.120 C  
DOCKED: ATOM     21  C   UNL     1     141.843  78.013 220.632 -0.27 -0.06    +0.088 C  
DOCKED: ATOM     22  C   UNL     1     142.443  76.190 218.431 -0.23 -0.01    +0.022 C  
DOCKED: ATOM     23  C   UNL     1     141.376  78.317 219.208 -0.22 -0.01    +0.025 C  
DOCKED: ATOM     24  C   UNL     1     142.336  77.702 218.243 -0.29 -0.00    +0.004 C  
DOCKED: BRANCH  21  25
DOCKED: ATOM     25  C   UNL     1     141.180  78.876 221.625 -0.37 -0.00    +0.012 C  
DOCKED: ATOM     26  C   UNL     1     142.200  78.984 222.797 -0.52 -0.00    +0.006 C  
DOCKED: ATOM     27  C   UNL     1     140.927  80.304 221.227 -0.31 -0.00    +0.006 C  
DOCKED: ATOM     28  C   UNL     1     141.507  79.829 223.854 -0.58 -0.00    +0.000 C  
DOCKED: ATOM     29  C   UNL     1     141.820  81.326 221.896 -0.46 -0.00    +0.000 C  
DOCKED: ATOM     30  C   UNL     1     141.695  81.276 223.403 -0.58 -0.00    +0.000 C  
DOCKED: ENDBRANCH  21  25
DOCKED: ENDBRANCH  17  19
DOCKED: ENDBRANCH   1  17
DOCKED: TORSDOF 5
DOCKED: TER
DOCKED: ENDMDL
________________________________________________________________________________


    FINAL DOCKED STATE:
    ________________________


Run:   16 / 20
Time taken for this run:   0.037s

DOCKED: MODEL        16
DOCKED: USER    Run = 16
DOCKED: USER
DOCKED: USER    Estimated Free Energy of Binding    =  -8.20 kcal/mol  [=(1)+(2)+(3)-(4)]
DOCKED: USER
DOCKED: USER    (1) Final Intermolecular Energy     =  -9.70 kcal/mol
DOCKED: USER        vdW + Hbond + desolv Energy     =  -9.63 kcal/mol
DOCKED: USER        Electrostatic Energy            =  -0.06 kcal/mol
DOCKED: USER        Moving Ligand-Fixed Receptor    =  -9.70 kcal/mol
DOCKED: USER        Moving Ligand-Moving Receptor   =  +0.00 kcal/mol
DOCKED: USER    (2) Final Total Internal Energy     =  -1.72 kcal/mol
DOCKED: USER    (3) Torsional Free Energy           =  +1.49 kcal/mol
DOCKED: USER    (4) Unbound System's Energy         =  -1.72 kcal/mol
DOCKED: USER
DOCKED: USER
DOCKED: REMARK SMILES O=C(NCC(=O)N1CCCC[C@H]1C1CCCCC1)c1ccc2cc(F)ccc2n1
DOCKED: REMARK SMILES IDX 4 1 3 2 2 3 1 4 19 6 20 7 29 8 21 9 28 10 22 11 27 12 23 13
DOCKED: REMARK SMILES IDX 26 14 24 15 25 16 5 17 6 18 7 19 8 20 12 21 9 22 11 23 10 24
DOCKED: REMARK SMILES IDX 13 25 14 26 18 27 15 28 17 29 16 30
DOCKED: REMARK H PARENT 3 5
DOCKED: USER                              x       y       z     vdW  Elec       q    Type
DOCKED: USER                           _______ _______ _______ _____ _____    ______ ____
DOCKED: ROOT
DOCKED: ATOM      1  C   UNL     1     139.636  73.767 221.239 -0.16 -0.04    +0.216 C  
DOCKED: ENDROOT
DOCKED: BRANCH   1   2
DOCKED: ATOM      2  N   UNL     1     139.578  73.068 222.459 -0.12 +0.07    -0.342 N  
DOCKED: ATOM      3  C   UNL     1     139.973  71.654 222.382 -0.20 -0.04    +0.270 C  
DOCKED: ATOM      4  O   UNL     1     140.323  71.199 221.251 -0.10 +0.04    -0.268 OA 
DOCKED: ATOM      5  H   UNL     1     139.336  73.355 223.412 -0.45 -0.08    +0.164 HD 
DOCKED: BRANCH   3   6
DOCKED: ATOM      6  C   UNL     1     139.949  70.840 223.587 -0.29 -0.02    +0.128 A  
DOCKED: ATOM      7  C   UNL     1     139.374  69.598 223.499 -0.23 -0.01    +0.035 A  
DOCKED: ATOM      8  N   UNL     1     140.474  71.287 224.756 -0.31 +0.04    -0.243 NA 
DOCKED: ATOM      9  C   UNL     1     139.347  68.818 224.641 -0.35 -0.00    +0.013 A  
DOCKED: ATOM     10  C   UNL     1     140.437  70.510 225.853 -0.50 -0.01    +0.071 A  
DOCKED: ATOM     11  C   UNL     1     139.868  69.236 225.840 -0.48 -0.00    +0.003 A  
DOCKED: ATOM     12  C   UNL     1     140.982  70.989 227.043 -0.65 -0.01    +0.032 A  
DOCKED: ATOM     13  C   UNL     1     139.841  68.458 226.979 -0.58 -0.01    +0.049 A  
DOCKED: ATOM     14  C   UNL     1     140.943  70.192 228.169 -0.56 -0.01    +0.041 A  
DOCKED: ATOM     15  C   UNL     1     140.377  68.929 228.148 -0.54 -0.02    +0.123 A  
DOCKED: ATOM     16  F   UNL     1     140.382  68.212 229.302 -0.12 +0.05    -0.207 F  
DOCKED: ENDBRANCH   3   6
DOCKED: ENDBRANCH   1   2
DOCKED: BRANCH   1  17
DOCKED: ATOM     17  C   UNL     1     140.586  74.825 220.970 -0.19 -0.05    +0.242 C  
DOCKED: ATOM     18  O   UNL     1     140.858  75.524 222.054 -0.49 +0.05    -0.273 OA 
DOCKED: BRANCH  17  19
DOCKED: ATOM     19  N   UNL     1     141.265  75.266 219.842 -0.05 +0.11    -0.338 N  
DOCKED: ATOM     20  C   UNL     1     140.700  76.238 218.872 -0.07 -0.04    +0.120 C  
DOCKED: ATOM     21  C   UNL     1     142.634  74.896 219.468 -0.23 -0.03    +0.088 C  
DOCKED: ATOM     22  C   UNL     1     141.470  77.508 218.875 -0.20 -0.01    +0.022 C  
DOCKED: ATOM     23  C   UNL     1     143.421  76.183 219.715 -0.38 -0.02    +0.025 C  
DOCKED: ATOM     24  C   UNL     1     142.965  77.223 218.745 -0.33 -0.00    +0.004 C  
DOCKED: BRANCH  21  25
DOCKED: ATOM     25  C   UNL     1     143.265  73.733 220.114 -0.32 -0.00    +0.012 C  
DOCKED: ATOM     26  C   UNL     1     143.605  72.766 218.941 -0.17 -0.00    +0.006 C  
DOCKED: ATOM     27  C   UNL     1     144.586  73.962 220.794 -0.46 -0.00    +0.006 C  
DOCKED: ATOM     28  C   UNL     1     144.208  71.535 219.599 -0.26 +0.00    +0.000 C  
DOCKED: ATOM     29  C   UNL     1     145.788  73.393 220.073 -0.57 +0.00    +0.000 C  
DOCKED: ATOM     30  C   UNL     1     145.665  71.898 219.877 -0.29 +0.00    +0.000 C  
DOCKED: ENDBRANCH  21  25
DOCKED: ENDBRANCH  17  19
DOCKED: ENDBRANCH   1  17
DOCKED: TORSDOF 5
DOCKED: TER
DOCKED: ENDMDL
________________________________________________________________________________


    FINAL DOCKED STATE:
    ________________________


Run:   17 / 20
Time taken for this run:   0.037s

DOCKED: MODEL        17
DOCKED: USER    Run = 17
DOCKED: USER
DOCKED: USER    Estimated Free Energy of Binding    =  -8.19 kcal/mol  [=(1)+(2)+(3)-(4)]
DOCKED: USER
DOCKED: USER    (1) Final Intermolecular Energy     =  -9.68 kcal/mol
DOCKED: USER        vdW + Hbond + desolv Energy     =  -9.64 kcal/mol
DOCKED: USER        Electrostatic Energy            =  -0.05 kcal/mol
DOCKED: USER        Moving Ligand-Fixed Receptor    =  -9.68 kcal/mol
DOCKED: USER        Moving Ligand-Moving Receptor   =  +0.00 kcal/mol
DOCKED: USER    (2) Final Total Internal Energy     =  -1.69 kcal/mol
DOCKED: USER    (3) Torsional Free Energy           =  +1.49 kcal/mol
DOCKED: USER    (4) Unbound System's Energy         =  -1.69 kcal/mol
DOCKED: USER
DOCKED: USER
DOCKED: REMARK SMILES O=C(NCC(=O)N1CCCC[C@H]1C1CCCCC1)c1ccc2cc(F)ccc2n1
DOCKED: REMARK SMILES IDX 4 1 3 2 2 3 1 4 19 6 20 7 29 8 21 9 28 10 22 11 27 12 23 13
DOCKED: REMARK SMILES IDX 26 14 24 15 25 16 5 17 6 18 7 19 8 20 12 21 9 22 11 23 10 24
DOCKED: REMARK SMILES IDX 13 25 14 26 18 27 15 28 17 29 16 30
DOCKED: REMARK H PARENT 3 5
DOCKED: USER                              x       y       z     vdW  Elec       q    Type
DOCKED: USER                           _______ _______ _______ _____ _____    ______ ____
DOCKED: ROOT
DOCKED: ATOM      1  C   UNL     1     139.375  72.745 220.237 -0.05 -0.04    +0.216 C  
DOCKED: ENDROOT
DOCKED: BRANCH   1   2
DOCKED: ATOM      2  N   UNL     1     139.425  71.768 221.249 -0.05 +0.06    -0.342 N  
DOCKED: ATOM      3  C   UNL     1     139.756  72.280 222.588 -0.20 -0.05    +0.270 C  
DOCKED: ATOM      4  O   UNL     1     139.962  73.525 222.710 -0.74 +0.01    -0.268 OA 
DOCKED: ATOM      5  H   UNL     1     139.251  70.759 221.249 +0.04 -0.03    +0.164 HD 
DOCKED: BRANCH   3   6
DOCKED: ATOM      6  C   UNL     1     139.834  71.354 223.706 -0.33 -0.02    +0.128 A  
DOCKED: ATOM      7  C   UNL     1     139.341  70.088 223.515 -0.27 -0.01    +0.035 A  
DOCKED: ATOM      8  N   UNL     1     140.377  71.722 224.894 -0.28 +0.04    -0.243 NA 
DOCKED: ATOM      9  C   UNL     1     139.413  69.202 224.575 -0.35 -0.00    +0.013 A  
DOCKED: ATOM     10  C   UNL     1     140.436  70.842 225.910 -0.53 -0.01    +0.071 A  
DOCKED: ATOM     11  C   UNL     1     139.953  69.538 225.790 -0.47 -0.00    +0.003 A  
DOCKED: ATOM     12  C   UNL     1     140.996  71.241 227.123 -0.69 -0.01    +0.032 A  
DOCKED: ATOM     13  C   UNL     1     140.026  68.654 226.847 -0.57 -0.01    +0.049 A  
DOCKED: ATOM     14  C   UNL     1     141.058  70.338 228.165 -0.55 -0.01    +0.041 A  
DOCKED: ATOM     15  C   UNL     1     140.576  69.046 228.038 -0.53 -0.02    +0.123 A  
DOCKED: ATOM     16  F   UNL     1     140.676  68.223 229.114 -0.17 +0.05    -0.207 F  
DOCKED: ENDBRANCH   3   6
DOCKED: ENDBRANCH   1   2
DOCKED: BRANCH   1  17
DOCKED: ATOM     17  C   UNL     1     140.493  73.597 219.895 -0.06 -0.05    +0.242 C  
DOCKED: ATOM     18  O   UNL     1     140.305  74.212 218.745 -0.01 +0.06    -0.273 OA 
DOCKED: BRANCH  17  19
DOCKED: ATOM     19  N   UNL     1     141.706  73.906 220.496 -0.10 +0.07    -0.338 N  
DOCKED: ATOM     20  C   UNL     1     142.734  72.892 220.840 -0.21 -0.02    +0.120 C  
DOCKED: ATOM     21  C   UNL     1     142.178  75.255 220.827 -0.19 -0.04    +0.088 C  
DOCKED: ATOM     22  C   UNL     1     143.970  73.088 220.041 -0.34 -0.00    +0.022 C  
DOCKED: ATOM     23  C   UNL     1     143.299  75.489 219.815 -0.36 -0.01    +0.025 C  
DOCKED: ATOM     24  C   UNL     1     144.420  74.546 220.107 -0.45 -0.00    +0.004 C  
DOCKED: BRANCH  21  25
DOCKED: ATOM     25  C   UNL     1     141.213  76.368 220.847 -0.30 -0.01    +0.012 C  
DOCKED: ATOM     26  C   UNL     1     140.715  76.433 222.322 -0.39 -0.00    +0.006 C  
DOCKED: ATOM     27  C   UNL     1     141.755  77.746 220.583 -0.31 -0.00    +0.006 C  
DOCKED: ATOM     28  C   UNL     1     139.677  77.542 222.345 -0.36 -0.00    +0.000 C  
DOCKED: ATOM     29  C   UNL     1     141.832  78.649 221.794 -0.42 -0.00    +0.000 C  
DOCKED: ATOM     30  C   UNL     1     140.475  78.841 222.435 -0.40 -0.00    +0.000 C  
DOCKED: ENDBRANCH  21  25
DOCKED: ENDBRANCH  17  19
DOCKED: ENDBRANCH   1  17
DOCKED: TORSDOF 5
DOCKED: TER
DOCKED: ENDMDL
________________________________________________________________________________


    FINAL DOCKED STATE:
    ________________________


Run:   18 / 20
Time taken for this run:   0.037s

DOCKED: MODEL        18
DOCKED: USER    Run = 18
DOCKED: USER
DOCKED: USER    Estimated Free Energy of Binding    =  -9.05 kcal/mol  [=(1)+(2)+(3)-(4)]
DOCKED: USER
DOCKED: USER    (1) Final Intermolecular Energy     = -10.55 kcal/mol
DOCKED: USER        vdW + Hbond + desolv Energy     = -10.48 kcal/mol
DOCKED: USER        Electrostatic Energy            =  -0.07 kcal/mol
DOCKED: USER        Moving Ligand-Fixed Receptor    = -10.55 kcal/mol
DOCKED: USER        Moving Ligand-Moving Receptor   =  +0.00 kcal/mol
DOCKED: USER    (2) Final Total Internal Energy     =  -1.30 kcal/mol
DOCKED: USER    (3) Torsional Free Energy           =  +1.49 kcal/mol
DOCKED: USER    (4) Unbound System's Energy         =  -1.30 kcal/mol
DOCKED: USER
DOCKED: USER
DOCKED: REMARK SMILES O=C(NCC(=O)N1CCCC[C@H]1C1CCCCC1)c1ccc2cc(F)ccc2n1
DOCKED: REMARK SMILES IDX 4 1 3 2 2 3 1 4 19 6 20 7 29 8 21 9 28 10 22 11 27 12 23 13
DOCKED: REMARK SMILES IDX 26 14 24 15 25 16 5 17 6 18 7 19 8 20 12 21 9 22 11 23 10 24
DOCKED: REMARK SMILES IDX 13 25 14 26 18 27 15 28 17 29 16 30
DOCKED: REMARK H PARENT 3 5
DOCKED: USER                              x       y       z     vdW  Elec       q    Type
DOCKED: USER                           _______ _______ _______ _____ _____    ______ ____
DOCKED: ROOT
DOCKED: ATOM      1  C   UNL     1     139.976  74.723 221.290 -0.20 -0.04    +0.216 C  
DOCKED: ENDROOT
DOCKED: BRANCH   1   2
DOCKED: ATOM      2  N   UNL     1     139.657  73.832 222.331 -0.10 +0.05    -0.342 N  
DOCKED: ATOM      3  C   UNL     1     140.530  72.652 222.427 -0.17 -0.02    +0.270 C  
DOCKED: ATOM      4  O   UNL     1     141.471  72.544 221.583 -0.21 +0.02    -0.268 OA 
DOCKED: ATOM      5  H   UNL     1     138.943  73.850 223.065 -0.54 -0.09    +0.164 HD 
DOCKED: BRANCH   3   6
DOCKED: ATOM      6  C   UNL     1     140.286  71.667 223.468 -0.32 -0.02    +0.128 A  
DOCKED: ATOM      7  C   UNL     1     139.593  70.536 223.119 -0.26 -0.01    +0.035 A  
DOCKED: ATOM      8  N   UNL     1     140.727  71.854 224.738 -0.26 +0.03    -0.243 NA 
DOCKED: ATOM      9  C   UNL     1     139.358  69.594 224.104 -0.31 -0.00    +0.013 A  
DOCKED: ATOM     10  C   UNL     1     140.486  70.923 225.679 -0.52 -0.01    +0.071 A  
DOCKED: ATOM     11  C   UNL     1     139.787  69.749 225.398 -0.44 -0.00    +0.003 A  
DOCKED: ATOM     12  C   UNL     1     140.948  71.135 226.977 -0.67 -0.01    +0.032 A  
DOCKED: ATOM     13  C   UNL     1     139.553  68.809 226.381 -0.50 -0.01    +0.049 A  
DOCKED: ATOM     14  C   UNL     1     140.701  70.181 227.943 -0.60 -0.01    +0.041 A  
DOCKED: ATOM     15  C   UNL     1     140.006  69.018 227.657 -0.52 -0.02    +0.123 A  
DOCKED: ATOM     16  F   UNL     1     139.808  68.132 228.667 -0.08 +0.04    -0.207 F  
DOCKED: ENDBRANCH   3   6
DOCKED: ENDBRANCH   1   2
DOCKED: BRANCH   1  17
DOCKED: ATOM     17  C   UNL     1     140.818  75.887 221.467 -0.24 -0.07    +0.242 C  
DOCKED: ATOM     18  O   UNL     1     140.693  76.400 222.673 -0.34 +0.07    -0.273 OA 
DOCKED: BRANCH  17  19
DOCKED: ATOM     19  N   UNL     1     141.713  76.576 220.660 -0.12 +0.18    -0.338 N  
DOCKED: ATOM     20  C   UNL     1     142.679  75.911 219.750 -0.29 -0.06    +0.120 C  
DOCKED: ATOM     21  C   UNL     1     141.807  78.035 220.539 -0.28 -0.05    +0.088 C  
DOCKED: ATOM     22  C   UNL     1     142.372  76.212 218.329 -0.22 -0.01    +0.022 C  
DOCKED: ATOM     23  C   UNL     1     141.258  78.303 219.137 -0.20 -0.01    +0.025 C  
DOCKED: ATOM     24  C   UNL     1     142.193  77.716 218.131 -0.27 -0.00    +0.004 C  
DOCKED: BRANCH  21  25
DOCKED: ATOM     25  C   UNL     1     141.161  78.883 221.555 -0.36 -0.00    +0.012 C  
DOCKED: ATOM     26  C   UNL     1     142.206  78.988 222.705 -0.51 -0.00    +0.006 C  
DOCKED: ATOM     27  C   UNL     1     140.887  80.313 221.177 -0.31 -0.00    +0.006 C  
DOCKED: ATOM     28  C   UNL     1     141.529  79.816 223.786 -0.59 -0.00    +0.000 C  
DOCKED: ATOM     29  C   UNL     1     141.787  81.335 221.837 -0.45 -0.00    +0.000 C  
DOCKED: ATOM     30  C   UNL     1     141.695  81.268 223.345 -0.58 -0.00    +0.000 C  
DOCKED: ENDBRANCH  21  25
DOCKED: ENDBRANCH  17  19
DOCKED: ENDBRANCH   1  17
DOCKED: TORSDOF 5
DOCKED: TER
DOCKED: ENDMDL
________________________________________________________________________________


    FINAL DOCKED STATE:
    ________________________


Run:   19 / 20
Time taken for this run:   0.037s

DOCKED: MODEL        19
DOCKED: USER    Run = 19
DOCKED: USER
DOCKED: USER    Estimated Free Energy of Binding    =  -8.35 kcal/mol  [=(1)+(2)+(3)-(4)]
DOCKED: USER
DOCKED: USER    (1) Final Intermolecular Energy     =  -9.84 kcal/mol
DOCKED: USER        vdW + Hbond + desolv Energy     =  -9.75 kcal/mol
DOCKED: USER        Electrostatic Energy            =  -0.09 kcal/mol
DOCKED: USER        Moving Ligand-Fixed Receptor    =  -9.84 kcal/mol
DOCKED: USER        Moving Ligand-Moving Receptor   =  +0.00 kcal/mol
DOCKED: USER    (2) Final Total Internal Energy     =  -1.72 kcal/mol
DOCKED: USER    (3) Torsional Free Energy           =  +1.49 kcal/mol
DOCKED: USER    (4) Unbound System's Energy         =  -1.72 kcal/mol
DOCKED: USER
DOCKED: USER
DOCKED: REMARK SMILES O=C(NCC(=O)N1CCCC[C@H]1C1CCCCC1)c1ccc2cc(F)ccc2n1
DOCKED: REMARK SMILES IDX 4 1 3 2 2 3 1 4 19 6 20 7 29 8 21 9 28 10 22 11 27 12 23 13
DOCKED: REMARK SMILES IDX 26 14 24 15 25 16 5 17 6 18 7 19 8 20 12 21 9 22 11 23 10 24
DOCKED: REMARK SMILES IDX 13 25 14 26 18 27 15 28 17 29 16 30
DOCKED: REMARK H PARENT 3 5
DOCKED: USER                              x       y       z     vdW  Elec       q    Type
DOCKED: USER                           _______ _______ _______ _____ _____    ______ ____
DOCKED: ROOT
DOCKED: ATOM      1  C   UNL     1     139.469  73.815 221.107 -0.14 -0.04    +0.216 C  
DOCKED: ENDROOT
DOCKED: BRANCH   1   2
DOCKED: ATOM      2  N   UNL     1     139.301  73.077 222.294 -0.12 +0.08    -0.342 N  
DOCKED: ATOM      3  C   UNL     1     140.242  71.961 222.468 -0.21 -0.04    +0.270 C  
DOCKED: ATOM      4  O   UNL     1     141.102  71.766 221.556 -0.16 +0.03    -0.268 OA 
DOCKED: ATOM      5  H   UNL     1     138.660  73.175 223.087 -0.48 -0.10    +0.164 HD 
DOCKED: BRANCH   3   6
DOCKED: ATOM      6  C   UNL     1     140.154  71.132 223.659 -0.32 -0.02    +0.128 A  
DOCKED: ATOM      7  C   UNL     1     139.570  69.897 223.530 -0.25 -0.01    +0.035 A  
DOCKED: ATOM      8  N   UNL     1     140.630  71.559 224.857 -0.31 +0.03    -0.243 NA 
DOCKED: ATOM      9  C   UNL     1     139.484  69.104 224.659 -0.35 -0.00    +0.013 A  
DOCKED: ATOM     10  C   UNL     1     140.534  70.769 225.941 -0.53 -0.01    +0.071 A  
DOCKED: ATOM     11  C   UNL     1     139.953  69.501 225.885 -0.48 -0.00    +0.003 A  
DOCKED: ATOM     12  C   UNL     1     141.029  71.227 227.161 -0.69 -0.01    +0.032 A  
DOCKED: ATOM     13  C   UNL     1     139.866  68.710 227.012 -0.57 -0.01    +0.049 A  
DOCKED: ATOM     14  C   UNL     1     140.931  70.417 228.274 -0.54 -0.01    +0.041 A  
DOCKED: ATOM     15  C   UNL     1     140.353  69.160 228.211 -0.53 -0.02    +0.123 A  
DOCKED: ATOM     16  F   UNL     1     140.297  68.429 229.354 -0.06 +0.04    -0.207 F  
DOCKED: ENDBRANCH   3   6
DOCKED: ENDBRANCH   1   2
DOCKED: BRANCH   1  17
DOCKED: ATOM     17  C   UNL     1     140.529  74.782 220.914 -0.18 -0.05    +0.242 C  
DOCKED: ATOM     18  O   UNL     1     140.932  75.298 222.057 -0.53 +0.04    -0.273 OA 
DOCKED: BRANCH  17  19
DOCKED: ATOM     19  N   UNL     1     141.204  75.284 219.810 -0.05 +0.11    -0.338 N  
DOCKED: ATOM     20  C   UNL     1     140.661  76.350 218.931 -0.07 -0.04    +0.120 C  
DOCKED: ATOM     21  C   UNL     1     142.551  74.894 219.380 -0.22 -0.03    +0.088 C  
DOCKED: ATOM     22  C   UNL     1     141.480  77.586 219.017 -0.21 -0.01    +0.022 C  
DOCKED: ATOM     23  C   UNL     1     143.392  76.127 219.710 -0.38 -0.02    +0.025 C  
DOCKED: ATOM     24  C   UNL     1     142.960  77.257 218.833 -0.32 -0.00    +0.004 C  
DOCKED: BRANCH  21  25
DOCKED: ATOM     25  C   UNL     1     143.147  73.660 219.920 -0.28 -0.00    +0.012 C  
DOCKED: ATOM     26  C   UNL     1     143.741  72.932 218.678 -0.17 -0.00    +0.006 C  
DOCKED: ATOM     27  C   UNL     1     144.320  73.818 220.847 -0.42 -0.00    +0.006 C  
DOCKED: ATOM     28  C   UNL     1     144.312  71.629 219.213 -0.24 +0.00    +0.000 C  
DOCKED: ATOM     29  C   UNL     1     145.660  73.435 220.260 -0.59 -0.00    +0.000 C  
DOCKED: ATOM     30  C   UNL     1     145.675  71.995 219.796 -0.34 +0.00    +0.000 C  
DOCKED: ENDBRANCH  21  25
DOCKED: ENDBRANCH  17  19
DOCKED: ENDBRANCH   1  17
DOCKED: TORSDOF 5
DOCKED: TER
DOCKED: ENDMDL
________________________________________________________________________________


    FINAL DOCKED STATE:
    ________________________


Run:   20 / 20
Time taken for this run:   0.037s

DOCKED: MODEL        20
DOCKED: USER    Run = 20
DOCKED: USER
DOCKED: USER    Estimated Free Energy of Binding    =  -9.25 kcal/mol  [=(1)+(2)+(3)-(4)]
DOCKED: USER
DOCKED: USER    (1) Final Intermolecular Energy     = -10.74 kcal/mol
DOCKED: USER        vdW + Hbond + desolv Energy     = -10.66 kcal/mol
DOCKED: USER        Electrostatic Energy            =  -0.08 kcal/mol
DOCKED: USER        Moving Ligand-Fixed Receptor    = -10.74 kcal/mol
DOCKED: USER        Moving Ligand-Moving Receptor   =  +0.00 kcal/mol
DOCKED: USER    (2) Final Total Internal Energy     =  -1.17 kcal/mol
DOCKED: USER    (3) Torsional Free Energy           =  +1.49 kcal/mol
DOCKED: USER    (4) Unbound System's Energy         =  -1.17 kcal/mol
DOCKED: USER
DOCKED: USER
DOCKED: REMARK SMILES O=C(NCC(=O)N1CCCC[C@H]1C1CCCCC1)c1ccc2cc(F)ccc2n1
DOCKED: REMARK SMILES IDX 4 1 3 2 2 3 1 4 19 6 20 7 29 8 21 9 28 10 22 11 27 12 23 13
DOCKED: REMARK SMILES IDX 26 14 24 15 25 16 5 17 6 18 7 19 8 20 12 21 9 22 11 23 10 24
DOCKED: REMARK SMILES IDX 13 25 14 26 18 27 15 28 17 29 16 30
DOCKED: REMARK H PARENT 3 5
DOCKED: USER                              x       y       z     vdW  Elec       q    Type
DOCKED: USER                           _______ _______ _______ _____ _____    ______ ____
DOCKED: ROOT
DOCKED: ATOM      1  C   UNL     1     139.751  74.608 221.273 -0.19 -0.04    +0.216 C  
DOCKED: ENDROOT
DOCKED: BRANCH   1   2
DOCKED: ATOM      2  N   UNL     1     139.474  73.727 222.335 -0.11 +0.06    -0.342 N  
DOCKED: ATOM      3  C   UNL     1     140.442  72.632 222.500 -0.17 -0.02    +0.270 C  
DOCKED: ATOM      4  O   UNL     1     141.416  72.578 221.690 -0.22 +0.02    -0.268 OA 
DOCKED: ATOM      5  H   UNL     1     138.737  73.707 223.045 -0.54 -0.10    +0.164 HD 
DOCKED: BRANCH   3   6
DOCKED: ATOM      6  C   UNL     1     140.248  71.664 223.567 -0.33 -0.02    +0.128 A  
DOCKED: ATOM      7  C   UNL     1     139.586  70.503 223.256 -0.27 -0.01    +0.035 A  
DOCKED: ATOM      8  N   UNL     1     140.703  71.895 224.825 -0.27 +0.03    -0.243 NA 
DOCKED: ATOM      9  C   UNL     1     139.399  69.578 224.267 -0.32 -0.00    +0.013 A  
DOCKED: ATOM     10  C   UNL     1     140.509  70.979 225.791 -0.53 -0.01    +0.071 A  
DOCKED: ATOM     11  C   UNL     1     139.844  69.776 225.549 -0.45 -0.00    +0.003 A  
DOCKED: ATOM     12  C   UNL     1     140.985  71.236 227.076 -0.69 -0.01    +0.032 A  
DOCKED: ATOM     13  C   UNL     1     139.658  68.853 226.557 -0.52 -0.01    +0.049 A  
DOCKED: ATOM     14  C   UNL     1     140.786  70.297 228.067 -0.58 -0.01    +0.041 A  
DOCKED: ATOM     15  C   UNL     1     140.125  69.106 227.820 -0.53 -0.02    +0.123 A  
DOCKED: ATOM     16  F   UNL     1     139.973  68.238 228.854 -0.14 +0.04    -0.207 F  
DOCKED: ENDBRANCH   3   6
DOCKED: ENDBRANCH   1   2
DOCKED: BRANCH   1  17
DOCKED: ATOM     17  C   UNL     1     140.477  75.850 221.436 -0.23 -0.06    +0.242 C  
DOCKED: ATOM     18  O   UNL     1     139.983  76.579 222.415 -0.30 +0.06    -0.273 OA 
DOCKED: BRANCH  17  19
DOCKED: ATOM     19  N   UNL     1     141.561  76.438 220.799 -0.12 +0.17    -0.338 N  
DOCKED: ATOM     20  C   UNL     1     142.607  75.669 220.079 -0.26 -0.06    +0.120 C  
DOCKED: ATOM     21  C   UNL     1     141.809  77.880 220.687 -0.28 -0.05    +0.088 C  
DOCKED: ATOM     22  C   UNL     1     142.586  75.966 218.624 -0.25 -0.01    +0.022 C  
DOCKED: ATOM     23  C   UNL     1     141.544  78.165 219.209 -0.23 -0.01    +0.025 C  
DOCKED: ATOM     24  C   UNL     1     142.584  77.475 218.389 -0.32 -0.00    +0.004 C  
DOCKED: BRANCH  21  25
DOCKED: ATOM     25  C   UNL     1     141.073  78.804 221.567 -0.35 -0.00    +0.012 C  
DOCKED: ATOM     26  C   UNL     1     141.853  78.772 222.915 -0.53 -0.00    +0.006 C  
DOCKED: ATOM     27  C   UNL     1     141.071  80.258 221.181 -0.33 -0.00    +0.006 C  
DOCKED: ATOM     28  C   UNL     1     141.072  79.680 223.851 -0.54 -0.00    +0.000 C  
DOCKED: ATOM     29  C   UNL     1     141.932  81.153 222.044 -0.47 -0.00    +0.000 C  
DOCKED: ATOM     30  C   UNL     1     141.512  81.099 223.497 -0.57 -0.00    +0.000 C  
DOCKED: ENDBRANCH  21  25
DOCKED: ENDBRANCH  17  19
DOCKED: ENDBRANCH   1  17
DOCKED: TORSDOF 5
DOCKED: TER
DOCKED: ENDMDL
________________________________________________________________________________


    CLUSTERING HISTOGRAM
    ____________________


________________________________________________________________________________
     |           |     |           |     |
Clus | Lowest    | Run | Mean      | Num | Histogram
-ter | Binding   |     | Binding   | in  |
Rank | Energy    |     | Energy    | Clus|    5    10   15   20   25   30   35
_____|___________|_____|___________|_____|____:____|____:____|____:____|____:___
   1 |     -9.26 |  13 |     -8.81 |  18 |##################
   2 |     -7.67 |  11 |     -7.67 |   1 |#
   3 |     -6.65 |   3 |     -6.65 |   1 |#
_____|___________|_____|___________|_____|______________________________________


    RMSD TABLE
    __________


_______________________________________________________________________
     |      |      |           |         |                 |
Rank | Sub- | Run  | Binding   | Cluster | Reference       | Grep
     | Rank |      | Energy    | RMSD    | RMSD            | Pattern
_____|______|______|___________|_________|_________________|___________
   1      1     13       -9.26      0.00    270.50           RANKING
   1      2      5       -9.26      0.08    270.49           RANKING
   1      3     12       -9.25      0.12    270.50           RANKING
   1      4     20       -9.25      0.34    270.48           RANKING
   1      5     15       -9.16      0.54    270.48           RANKING
   1      6      6       -9.11      0.51    270.49           RANKING
   1      7      2       -9.09      0.30    270.44           RANKING
   1      8     18       -9.05      0.61    270.43           RANKING
   1      9      9       -9.05      0.60    270.43           RANKING
   1     10      1       -8.97      0.56    270.48           RANKING
   1     11      4       -8.72      0.65    270.34           RANKING
   1     12     14       -8.44      1.59    269.87           RANKING
   1     13      8       -8.44      1.56    269.88           RANKING
   1     14     10       -8.44      1.63    269.89           RANKING
   1     15      7       -8.43      1.53    269.87           RANKING
   1     16     19       -8.35      1.67    269.86           RANKING
   1     17     16       -8.20      1.75    269.82           RANKING
   1     18     17       -8.19      1.56    269.95           RANKING
   2      1     11       -7.67      0.00    269.65           RANKING
   3      1      3       -6.65      0.00    270.71           RANKING

Run time 0.703 sec
Idle time 0.000 sec
