AutoDock-GPU version: v1.6

**********************************************************
**    AutoDock-GPU AUTODOCKTOOLS-COMPATIBLE DLG FILE    **
**********************************************************


    DOCKING PARAMETERS
    ________________________


Ligand file:                               /home/a/REINVENT4/ReinventStudies/pleaseWork/justmol2mol_4_Compounds_ontop/graph-dock-amy28i/graph-DockGPU/node-autodockgpu/inputs/RVILGQWHSUAGQX-NAUSHLRJNA-N.pdbqt
Grid fld file:                             /home/a/REINVENT4/ReinventStudies/mols/Rad51/maps/rad51_receptor.maps.fld

Random seed:                               42
Number of runs:                            20
Number of energy evaluations:              1132076
Number of generations:                     42000
Size of population:                        150
Rate of crossover:                         80.000000%
Tournament selection probability limit:    60.000000%
Rate of mutation:                          2.000000%
Maximal allowed delta movement:            +/- 6.000000A
Maximal allowed delta angle:               +/- 90.000000

Rate of local search:                      100.000000%
Maximal number of local search iterations: 300
Rho lower bound:                           0.010000
Spread of local search delta movement:     2.000000A
Spread of local search delta angle:        74.999999
Limit of consecutive successes/failures:   4

Handle symmetry during clustering:         YES
RMSD tolerance:                            2.000000A

Program call in command line was:          /home/a/REINVENT4/ReinventStudies/adgpu-v1.6_linux_x64_cuda12_128wi --filelist batch.txt --heuristics 1 --nrun 20 --psize 150 --lsit 300 --seed 42 --heurmax 12000000 


    GRID PARAMETERS
    ________________________


Receptor name:                             rad51_receptor
Number of grid points (x, y, z):           53, 53, 53
Grid center (x, y, z):                     139.950000, 75.640000, 221.970000A
Grid size (x, y, z):                       19.500000, 19.500000, 19.500000A
Grid spacing:                              0.375000A


    LIGAND PARAMETERS
    ________________________


Ligand name:                               /home/a/REINVENT4/ReinventStudies/pleaseWork/justmol2mol_4_Compounds_ontop/graph-dock-amy28i/graph-DockGPU/node-autodockgpu/inputs/RVILGQWHSUAGQX-NAUSHLRJNA-N
Number of atoms:                           30
Number of rotatable bonds:                 5
Number of atom types:                      7


    DUMMY DATA (only for ADT-compatibility)
    ________________________


DPF> outlev 1
DPF> ga_run 20
DPF> fld /home/a/REINVENT4/ReinventStudies/mols/Rad51/maps/rad51_receptor.maps.fld
DPF> move /home/a/REINVENT4/ReinventStudies/pleaseWork/justmol2mol_4_Compounds_ontop/graph-dock-amy28i/graph-DockGPU/node-autodockgpu/inputs/RVILGQWHSUAGQX-NAUSHLRJNA-N.pdbqt


    COUNTER STATES
    ________________________


Number of energy evaluations performed:    545487
Number of generations used:                30


    INPUT LIGAND PDBQT FILE:
    ________________________


INPUT-LIGAND-PDBQT: REMARK SMILES O=C(NCC(=O)N1CCCC[C@H]1C1CCCCC1)c1ccc2cc(Cl)ccc2n1
INPUT-LIGAND-PDBQT: REMARK SMILES IDX 4 1 3 2 2 3 1 4 19 6 20 7 29 8 21 9 28 10 22 11 27 12 23 13
INPUT-LIGAND-PDBQT: REMARK SMILES IDX 26 14 24 15 25 16 5 17 6 18 7 19 8 20 12 21 9 22 11 23 10 24
INPUT-LIGAND-PDBQT: REMARK SMILES IDX 13 25 14 26 18 27 15 28 17 29 16 30
INPUT-LIGAND-PDBQT: REMARK H PARENT 3 5
INPUT-LIGAND-PDBQT: ROOT
INPUT-LIGAND-PDBQT: ATOM      1  C   UNL     1       0.604  -0.013  -1.535  1.00  0.00     0.216 C 
INPUT-LIGAND-PDBQT: ENDROOT
INPUT-LIGAND-PDBQT: BRANCH   1   2
INPUT-LIGAND-PDBQT: ATOM      2  N   UNL     1       1.824  -0.177  -0.765  1.00  0.00    -0.342 N 
INPUT-LIGAND-PDBQT: ATOM      3  C   UNL     1       2.929  -0.781  -1.452  1.00  0.00     0.270 C 
INPUT-LIGAND-PDBQT: ATOM      4  O   UNL     1       2.726  -1.105  -2.646  1.00  0.00    -0.268 OA
INPUT-LIGAND-PDBQT: ATOM      5  H   UNL     1       1.925   0.116   0.231  1.00  0.00     0.164 HD
INPUT-LIGAND-PDBQT: BRANCH   3   6
INPUT-LIGAND-PDBQT: ATOM      6  C   UNL     1       4.209  -1.002  -0.790  1.00  0.00     0.128 A 
INPUT-LIGAND-PDBQT: ATOM      7  C   UNL     1       5.217  -1.583  -1.509  1.00  0.00     0.035 A 
INPUT-LIGAND-PDBQT: ATOM      8  N   UNL     1       4.453  -0.665   0.485  1.00  0.00    -0.243 NA
INPUT-LIGAND-PDBQT: ATOM      9  C   UNL     1       6.451  -1.821  -0.949  1.00  0.00     0.013 A 
INPUT-LIGAND-PDBQT: ATOM     10  C   UNL     1       5.657  -0.881   1.081  1.00  0.00     0.071 A 
INPUT-LIGAND-PDBQT: ATOM     11  C   UNL     1       6.670  -1.459   0.379  1.00  0.00     0.002 A 
INPUT-LIGAND-PDBQT: ATOM     12  C   UNL     1       5.852  -0.515   2.397  1.00  0.00     0.030 A 
INPUT-LIGAND-PDBQT: ATOM     13  C   UNL     1       7.917  -1.706   0.923  1.00  0.00     0.030 A 
INPUT-LIGAND-PDBQT: ATOM     14  C   UNL     1       7.097  -0.758   2.953  1.00  0.00     0.023 A 
INPUT-LIGAND-PDBQT: ATOM     15  C   UNL     1       8.115  -1.340   2.242  1.00  0.00     0.041 A 
INPUT-LIGAND-PDBQT: ATOM     16  Cl  UNL     1       9.691  -1.639   2.972  1.00  0.00    -0.084 Cl
INPUT-LIGAND-PDBQT: ENDBRANCH   3   6
INPUT-LIGAND-PDBQT: ENDBRANCH   1   2
INPUT-LIGAND-PDBQT: BRANCH   1  17
INPUT-LIGAND-PDBQT: ATOM     17  C   UNL     1      -0.383   0.620  -0.639  1.00  0.00     0.242 C 
INPUT-LIGAND-PDBQT: ATOM     18  O   UNL     1       0.005   0.877   0.544  1.00  0.00    -0.273 OA
INPUT-LIGAND-PDBQT: BRANCH  17  19
INPUT-LIGAND-PDBQT: ATOM     19  N   UNL     1      -1.725   0.940  -1.064  1.00  0.00    -0.338 N 
INPUT-LIGAND-PDBQT: ATOM     20  C   UNL     1      -2.072   0.613  -2.418  1.00  0.00     0.120 C 
INPUT-LIGAND-PDBQT: ATOM     21  C   UNL     1      -2.609   1.557  -0.107  1.00  0.00     0.088 C 
INPUT-LIGAND-PDBQT: ATOM     22  C   UNL     1      -3.062   1.553  -2.990  1.00  0.00     0.022 C 
INPUT-LIGAND-PDBQT: ATOM     23  C   UNL     1      -3.661   2.433  -0.710  1.00  0.00     0.025 C 
INPUT-LIGAND-PDBQT: ATOM     24  C   UNL     1      -3.416   2.746  -2.162  1.00  0.00     0.004 C 
INPUT-LIGAND-PDBQT: BRANCH  21  25
INPUT-LIGAND-PDBQT: ATOM     25  C   UNL     1      -3.134   0.468   0.800  1.00  0.00     0.012 C 
INPUT-LIGAND-PDBQT: ATOM     26  C   UNL     1      -4.050   1.101   1.799  1.00  0.00     0.006 C 
INPUT-LIGAND-PDBQT: ATOM     27  C   UNL     1      -3.740  -0.680   0.054  1.00  0.00     0.006 C 
INPUT-LIGAND-PDBQT: ATOM     28  C   UNL     1      -4.613   0.116   2.797  1.00  0.00     0.000 C 
INPUT-LIGAND-PDBQT: ATOM     29  C   UNL     1      -4.817  -1.379   0.894  1.00  0.00     0.000 C 
INPUT-LIGAND-PDBQT: ATOM     30  C   UNL     1      -4.321  -1.311   2.331  1.00  0.00     0.000 C 
INPUT-LIGAND-PDBQT: ENDBRANCH  21  25
INPUT-LIGAND-PDBQT: ENDBRANCH  17  19
INPUT-LIGAND-PDBQT: ENDBRANCH   1  17
INPUT-LIGAND-PDBQT: TORSDOF 5


    FINAL DOCKED STATE:
    ________________________


Run:   1 / 20
Time taken for this run:   0.023s

DOCKED: MODEL        1
DOCKED: USER    Run = 1
DOCKED: USER
DOCKED: USER    Estimated Free Energy of Binding    =  -8.33 kcal/mol  [=(1)+(2)+(3)-(4)]
DOCKED: USER
DOCKED: USER    (1) Final Intermolecular Energy     =  -9.82 kcal/mol
DOCKED: USER        vdW + Hbond + desolv Energy     =  -9.92 kcal/mol
DOCKED: USER        Electrostatic Energy            =  +0.10 kcal/mol
DOCKED: USER        Moving Ligand-Fixed Receptor    =  -9.82 kcal/mol
DOCKED: USER        Moving Ligand-Moving Receptor   =  +0.00 kcal/mol
DOCKED: USER    (2) Final Total Internal Energy     =  -1.66 kcal/mol
DOCKED: USER    (3) Torsional Free Energy           =  +1.49 kcal/mol
DOCKED: USER    (4) Unbound System's Energy         =  -1.66 kcal/mol
DOCKED: USER
DOCKED: USER
DOCKED: REMARK SMILES O=C(NCC(=O)N1CCCC[C@H]1C1CCCCC1)c1ccc2cc(Cl)ccc2n1
DOCKED: REMARK SMILES IDX 4 1 3 2 2 3 1 4 19 6 20 7 29 8 21 9 28 10 22 11 27 12 23 13
DOCKED: REMARK SMILES IDX 26 14 24 15 25 16 5 17 6 18 7 19 8 20 12 21 9 22 11 23 10 24
DOCKED: REMARK SMILES IDX 13 25 14 26 18 27 15 28 17 29 16 30
DOCKED: REMARK H PARENT 3 5
DOCKED: USER                              x       y       z     vdW  Elec       q    Type
DOCKED: USER                           _______ _______ _______ _____ _____    ______ ____
DOCKED: ROOT
DOCKED: ATOM      1  C   UNL     1     140.656  74.437 220.364 -0.13 -0.05    +0.216 C  
DOCKED: ENDROOT
DOCKED: BRANCH   1   2
DOCKED: ATOM      2  N   UNL     1     140.897  73.570 221.504 -0.15 +0.04    -0.342 N  
DOCKED: ATOM      3  C   UNL     1     139.782  72.782 221.946 -0.19 -0.04    +0.270 C  
DOCKED: ATOM      4  O   UNL     1     138.716  72.926 221.302 -0.09 +0.06    -0.268 OA 
DOCKED: ATOM      5  H   UNL     1     141.814  73.500 221.995 +0.06 +0.00    +0.164 HD 
DOCKED: BRANCH   3   6
DOCKED: ATOM      6  C   UNL     1     139.894  71.873 223.079 -0.29 -0.02    +0.128 A  
DOCKED: ATOM      7  C   UNL     1     139.470  70.583 222.917 -0.24 -0.01    +0.035 A  
DOCKED: ATOM      8  N   UNL     1     140.392  72.231 224.272 -0.10 +0.04    -0.243 NA 
DOCKED: ATOM      9  C   UNL     1     139.546  69.669 223.944 -0.29 -0.00    +0.013 A  
DOCKED: ATOM     10  C   UNL     1     140.487  71.363 225.316 -0.50 -0.01    +0.071 A  
DOCKED: ATOM     11  C   UNL     1     140.068  70.076 225.170 -0.44 -0.00    +0.002 A  
DOCKED: ATOM     12  C   UNL     1     141.007  71.786 226.521 -0.69 -0.00    +0.030 A  
DOCKED: ATOM     13  C   UNL     1     140.136  69.143 226.189 -0.50 -0.01    +0.030 A  
DOCKED: ATOM     14  C   UNL     1     141.080  70.861 227.549 -0.66 -0.00    +0.023 A  
DOCKED: ATOM     15  C   UNL     1     140.657  69.565 227.399 -0.57 -0.01    +0.041 A  
DOCKED: ATOM     16  Cl  UNL     1     140.761  68.405 228.722 -0.69 +0.02    -0.084 Cl 
DOCKED: ENDBRANCH   3   6
DOCKED: ENDBRANCH   1   2
DOCKED: BRANCH   1  17
DOCKED: ATOM     17  C   UNL     1     141.004  75.807 220.791 -0.19 -0.08    +0.242 C  
DOCKED: ATOM     18  O   UNL     1     142.168  76.219 220.489 -0.20 +0.16    -0.273 OA 
DOCKED: BRANCH  17  19
DOCKED: ATOM     19  N   UNL     1     140.083  76.652 221.514 -0.13 +0.09    -0.338 N  
DOCKED: ATOM     20  C   UNL     1     139.303  76.028 222.545 -0.20 -0.02    +0.120 C  
DOCKED: ATOM     21  C   UNL     1     140.018  78.046 221.153 -0.19 -0.03    +0.088 C  
DOCKED: ATOM     22  C   UNL     1     137.973  76.658 222.706 -0.29 -0.00    +0.022 C  
DOCKED: ATOM     23  C   UNL     1     138.692  78.690 221.407 -0.15 -0.01    +0.025 C  
DOCKED: ATOM     24  C   UNL     1     137.596  77.702 221.705 -0.16 -0.00    +0.004 C  
DOCKED: BRANCH  21  25
DOCKED: ATOM     25  C   UNL     1     141.195  78.742 221.797 -0.39 -0.00    +0.012 C  
DOCKED: ATOM     26  C   UNL     1     141.026  80.214 221.596 -0.36 -0.00    +0.006 C  
DOCKED: ATOM     27  C   UNL     1     141.412  78.338 223.222 -0.53 -0.00    +0.006 C  
DOCKED: ATOM     28  C   UNL     1     142.168  81.026 222.163 -0.49 -0.00    +0.000 C  
DOCKED: ATOM     29  C   UNL     1     142.085  79.462 224.019 -0.52 -0.00    +0.000 C  
DOCKED: ATOM     30  C   UNL     1     143.043  80.135 223.046 -0.65 -0.00    +0.000 C  
DOCKED: ENDBRANCH  21  25
DOCKED: ENDBRANCH  17  19
DOCKED: ENDBRANCH   1  17
DOCKED: TORSDOF 5
DOCKED: TER
DOCKED: ENDMDL
________________________________________________________________________________


    FINAL DOCKED STATE:
    ________________________


Run:   2 / 20
Time taken for this run:   0.023s

DOCKED: MODEL        2
DOCKED: USER    Run = 2
DOCKED: USER
DOCKED: USER    Estimated Free Energy of Binding    =  -8.71 kcal/mol  [=(1)+(2)+(3)-(4)]
DOCKED: USER
DOCKED: USER    (1) Final Intermolecular Energy     = -10.20 kcal/mol
DOCKED: USER        vdW + Hbond + desolv Energy     = -10.16 kcal/mol
DOCKED: USER        Electrostatic Energy            =  -0.03 kcal/mol
DOCKED: USER        Moving Ligand-Fixed Receptor    = -10.20 kcal/mol
DOCKED: USER        Moving Ligand-Moving Receptor   =  +0.00 kcal/mol
DOCKED: USER    (2) Final Total Internal Energy     =  -2.02 kcal/mol
DOCKED: USER    (3) Torsional Free Energy           =  +1.49 kcal/mol
DOCKED: USER    (4) Unbound System's Energy         =  -2.02 kcal/mol
DOCKED: USER
DOCKED: USER
DOCKED: REMARK SMILES O=C(NCC(=O)N1CCCC[C@H]1C1CCCCC1)c1ccc2cc(Cl)ccc2n1
DOCKED: REMARK SMILES IDX 4 1 3 2 2 3 1 4 19 6 20 7 29 8 21 9 28 10 22 11 27 12 23 13
DOCKED: REMARK SMILES IDX 26 14 24 15 25 16 5 17 6 18 7 19 8 20 12 21 9 22 11 23 10 24
DOCKED: REMARK SMILES IDX 13 25 14 26 18 27 15 28 17 29 16 30
DOCKED: REMARK H PARENT 3 5
DOCKED: USER                              x       y       z     vdW  Elec       q    Type
DOCKED: USER                           _______ _______ _______ _____ _____    ______ ____
DOCKED: ROOT
DOCKED: ATOM      1  C   UNL     1     139.552  74.952 221.036 -0.16 -0.05    +0.216 C  
DOCKED: ENDROOT
DOCKED: BRANCH   1   2
DOCKED: ATOM      2  N   UNL     1     139.613  74.125 222.228 -0.10 +0.05    -0.342 N  
DOCKED: ATOM      3  C   UNL     1     139.884  72.732 222.018 -0.19 -0.04    +0.270 C  
DOCKED: ATOM      4  O   UNL     1     140.040  72.374 220.827 -0.08 +0.05    -0.268 OA 
DOCKED: ATOM      5  H   UNL     1     139.472  74.490 223.195 -0.51 -0.02    +0.164 HD 
DOCKED: BRANCH   3   6
DOCKED: ATOM      6  C   UNL     1     139.970  71.796 223.132 -0.30 -0.02    +0.128 A  
DOCKED: ATOM      7  C   UNL     1     139.522  70.518 222.940 -0.24 -0.01    +0.035 A  
DOCKED: ATOM      8  N   UNL     1     140.466  72.119 224.336 -0.13 +0.04    -0.243 NA 
DOCKED: ATOM      9  C   UNL     1     139.573  69.582 223.946 -0.28 -0.00    +0.013 A  
DOCKED: ATOM     10  C   UNL     1     140.536  71.227 225.361 -0.51 -0.01    +0.071 A  
DOCKED: ATOM     11  C   UNL     1     140.094  69.951 225.185 -0.44 -0.00    +0.002 A  
DOCKED: ATOM     12  C   UNL     1     141.055  71.614 226.580 -0.70 -0.00    +0.030 A  
DOCKED: ATOM     13  C   UNL     1     140.137  68.996 226.184 -0.51 -0.01    +0.030 A  
DOCKED: ATOM     14  C   UNL     1     141.102  70.666 227.588 -0.61 -0.00    +0.023 A  
DOCKED: ATOM     15  C   UNL     1     140.656  69.382 227.406 -0.58 -0.01    +0.041 A  
DOCKED: ATOM     16  Cl  UNL     1     140.727  68.192 228.705 -0.65 +0.02    -0.084 Cl 
DOCKED: ENDBRANCH   3   6
DOCKED: ENDBRANCH   1   2
DOCKED: BRANCH   1  17
DOCKED: ATOM     17  C   UNL     1     140.058  76.285 221.416 -0.21 -0.06    +0.242 C  
DOCKED: ATOM     18  O   UNL     1     140.207  76.503 222.660 -0.33 +0.06    -0.273 OA 
DOCKED: BRANCH  17  19
DOCKED: ATOM     19  N   UNL     1     140.376  77.302 220.443 -0.04 +0.12    -0.338 N  
DOCKED: ATOM     20  C   UNL     1     139.448  77.477 219.362 -0.04 -0.03    +0.120 C  
DOCKED: ATOM     21  C   UNL     1     141.589  78.059 220.626 -0.28 -0.05    +0.088 C  
DOCKED: ATOM     22  C   UNL     1     140.112  77.916 218.113 -0.05 -0.01    +0.022 C  
DOCKED: ATOM     23  C   UNL     1     142.197  78.572 219.359 -0.21 -0.02    +0.025 C  
DOCKED: ATOM     24  C   UNL     1     141.606  77.953 218.121 -0.20 -0.00    +0.004 C  
DOCKED: BRANCH  21  25
DOCKED: ATOM     25  C   UNL     1     141.315  79.116 221.671 -0.39 -0.00    +0.012 C  
DOCKED: ATOM     26  C   UNL     1     142.391  79.032 222.707 -0.48 -0.00    +0.006 C  
DOCKED: ATOM     27  C   UNL     1     141.127  80.484 221.092 -0.33 -0.00    +0.006 C  
DOCKED: ATOM     28  C   UNL     1     142.207  80.017 223.837 -0.65 -0.00    +0.000 C  
DOCKED: ATOM     29  C   UNL     1     141.531  81.571 222.097 -0.45 -0.00    +0.000 C  
DOCKED: ATOM     30  C   UNL     1     141.127  81.033 223.462 -0.51 -0.00    +0.000 C  
DOCKED: ENDBRANCH  21  25
DOCKED: ENDBRANCH  17  19
DOCKED: ENDBRANCH   1  17
DOCKED: TORSDOF 5
DOCKED: TER
DOCKED: ENDMDL
________________________________________________________________________________


    FINAL DOCKED STATE:
    ________________________


Run:   3 / 20
Time taken for this run:   0.023s

DOCKED: MODEL        3
DOCKED: USER    Run = 3
DOCKED: USER
DOCKED: USER    Estimated Free Energy of Binding    =  -8.46 kcal/mol  [=(1)+(2)+(3)-(4)]
DOCKED: USER
DOCKED: USER    (1) Final Intermolecular Energy     =  -9.95 kcal/mol
DOCKED: USER        vdW + Hbond + desolv Energy     =  -9.87 kcal/mol
DOCKED: USER        Electrostatic Energy            =  -0.08 kcal/mol
DOCKED: USER        Moving Ligand-Fixed Receptor    =  -9.95 kcal/mol
DOCKED: USER        Moving Ligand-Moving Receptor   =  +0.00 kcal/mol
DOCKED: USER    (2) Final Total Internal Energy     =  -1.87 kcal/mol
DOCKED: USER    (3) Torsional Free Energy           =  +1.49 kcal/mol
DOCKED: USER    (4) Unbound System's Energy         =  -1.87 kcal/mol
DOCKED: USER
DOCKED: USER
DOCKED: REMARK SMILES O=C(NCC(=O)N1CCCC[C@H]1C1CCCCC1)c1ccc2cc(Cl)ccc2n1
DOCKED: REMARK SMILES IDX 4 1 3 2 2 3 1 4 19 6 20 7 29 8 21 9 28 10 22 11 27 12 23 13
DOCKED: REMARK SMILES IDX 26 14 24 15 25 16 5 17 6 18 7 19 8 20 12 21 9 22 11 23 10 24
DOCKED: REMARK SMILES IDX 13 25 14 26 18 27 15 28 17 29 16 30
DOCKED: REMARK H PARENT 3 5
DOCKED: USER                              x       y       z     vdW  Elec       q    Type
DOCKED: USER                           _______ _______ _______ _____ _____    ______ ____
DOCKED: ROOT
DOCKED: ATOM      1  C   UNL     1     139.273  74.865 221.023 -0.14 -0.05    +0.216 C  
DOCKED: ENDROOT
DOCKED: BRANCH   1   2
DOCKED: ATOM      2  N   UNL     1     139.261  74.007 222.194 -0.10 +0.08    -0.342 N  
DOCKED: ATOM      3  C   UNL     1     139.974  72.767 222.077 -0.19 -0.04    +0.270 C  
DOCKED: ATOM      4  O   UNL     1     140.533  72.554 220.976 -0.12 +0.04    -0.268 OA 
DOCKED: ATOM      5  H   UNL     1     138.772  74.246 223.084 -0.56 -0.10    +0.164 HD 
DOCKED: BRANCH   3   6
DOCKED: ATOM      6  C   UNL     1     140.036  71.817 223.181 -0.30 -0.02    +0.128 A  
DOCKED: ATOM      7  C   UNL     1     139.584  70.545 222.966 -0.25 -0.01    +0.035 A  
DOCKED: ATOM      8  N   UNL     1     140.515  72.122 224.396 -0.11 +0.03    -0.243 NA 
DOCKED: ATOM      9  C   UNL     1     139.613  69.596 223.962 -0.27 -0.00    +0.013 A  
DOCKED: ATOM     10  C   UNL     1     140.564  71.217 225.411 -0.52 -0.01    +0.071 A  
DOCKED: ATOM     11  C   UNL     1     140.117  69.947 225.213 -0.44 -0.00    +0.002 A  
DOCKED: ATOM     12  C   UNL     1     141.066  71.586 226.643 -0.71 -0.00    +0.030 A  
DOCKED: ATOM     13  C   UNL     1     140.138  68.979 226.200 -0.51 -0.01    +0.030 A  
DOCKED: ATOM     14  C   UNL     1     141.092  70.625 227.639 -0.61 -0.00    +0.023 A  
DOCKED: ATOM     15  C   UNL     1     140.641  69.346 227.435 -0.58 -0.01    +0.041 A  
DOCKED: ATOM     16  Cl  UNL     1     140.685  68.140 228.720 -0.62 +0.02    -0.084 Cl 
DOCKED: ENDBRANCH   3   6
DOCKED: ENDBRANCH   1   2
DOCKED: BRANCH   1  17
DOCKED: ATOM     17  C   UNL     1     139.184  76.254 221.513 -0.18 -0.05    +0.242 C  
DOCKED: ATOM     18  O   UNL     1     138.765  76.412 222.703 -0.26 +0.05    -0.273 OA 
DOCKED: BRANCH  17  19
DOCKED: ATOM     19  N   UNL     1     139.550  77.390 220.700 -0.03 +0.09    -0.338 N  
DOCKED: ATOM     20  C   UNL     1     138.484  78.071 220.021 -0.04 -0.03    +0.120 C  
DOCKED: ATOM     21  C   UNL     1     140.943  77.753 220.632 -0.23 -0.04    +0.088 C  
DOCKED: ATOM     22  C   UNL     1     138.920  78.658 218.734 -0.03 -0.01    +0.022 C  
DOCKED: ATOM     23  C   UNL     1     141.346  78.428 219.359 -0.22 -0.01    +0.025 C  
DOCKED: ATOM     24  C   UNL     1     140.304  78.330 218.277 -0.08 -0.00    +0.004 C  
DOCKED: BRANCH  21  25
DOCKED: ATOM     25  C   UNL     1     141.278  78.520 221.890 -0.41 -0.01    +0.012 C  
DOCKED: ATOM     26  C   UNL     1     142.204  79.635 221.518 -0.35 -0.00    +0.006 C  
DOCKED: ATOM     27  C   UNL     1     140.068  78.958 222.655 -0.38 -0.00    +0.006 C  
DOCKED: ATOM     28  C   UNL     1     142.649  80.458 222.704 -0.62 -0.00    +0.000 C  
DOCKED: ATOM     29  C   UNL     1     140.353  80.231 223.462 -0.48 -0.00    +0.000 C  
DOCKED: ATOM     30  C   UNL     1     141.798  80.105 223.924 -0.54 -0.00    +0.000 C  
DOCKED: ENDBRANCH  21  25
DOCKED: ENDBRANCH  17  19
DOCKED: ENDBRANCH   1  17
DOCKED: TORSDOF 5
DOCKED: TER
DOCKED: ENDMDL
________________________________________________________________________________


    FINAL DOCKED STATE:
    ________________________


Run:   4 / 20
Time taken for this run:   0.023s

DOCKED: MODEL        4
DOCKED: USER    Run = 4
DOCKED: USER
DOCKED: USER    Estimated Free Energy of Binding    =  -8.45 kcal/mol  [=(1)+(2)+(3)-(4)]
DOCKED: USER
DOCKED: USER    (1) Final Intermolecular Energy     =  -9.95 kcal/mol
DOCKED: USER        vdW + Hbond + desolv Energy     =  -9.90 kcal/mol
DOCKED: USER        Electrostatic Energy            =  -0.05 kcal/mol
DOCKED: USER        Moving Ligand-Fixed Receptor    =  -9.95 kcal/mol
DOCKED: USER        Moving Ligand-Moving Receptor   =  +0.00 kcal/mol
DOCKED: USER    (2) Final Total Internal Energy     =  -2.04 kcal/mol
DOCKED: USER    (3) Torsional Free Energy           =  +1.49 kcal/mol
DOCKED: USER    (4) Unbound System's Energy         =  -2.04 kcal/mol
DOCKED: USER
DOCKED: USER
DOCKED: REMARK SMILES O=C(NCC(=O)N1CCCC[C@H]1C1CCCCC1)c1ccc2cc(Cl)ccc2n1
DOCKED: REMARK SMILES IDX 4 1 3 2 2 3 1 4 19 6 20 7 29 8 21 9 28 10 22 11 27 12 23 13
DOCKED: REMARK SMILES IDX 26 14 24 15 25 16 5 17 6 18 7 19 8 20 12 21 9 22 11 23 10 24
DOCKED: REMARK SMILES IDX 13 25 14 26 18 27 15 28 17 29 16 30
DOCKED: REMARK H PARENT 3 5
DOCKED: USER                              x       y       z     vdW  Elec       q    Type
DOCKED: USER                           _______ _______ _______ _____ _____    ______ ____
DOCKED: ROOT
DOCKED: ATOM      1  C   UNL     1     139.171  74.983 221.150 -0.15 -0.05    +0.216 C  
DOCKED: ENDROOT
DOCKED: BRANCH   1   2
DOCKED: ATOM      2  N   UNL     1     139.354  74.142 222.320 -0.08 +0.07    -0.342 N  
DOCKED: ATOM      3  C   UNL     1     139.566  72.746 222.068 -0.18 -0.05    +0.270 C  
DOCKED: ATOM      4  O   UNL     1     139.570  72.397 220.864 -0.07 +0.05    -0.268 OA 
DOCKED: ATOM      5  H   UNL     1     139.338  74.500 223.299 -0.51 -0.05    +0.164 HD 
DOCKED: BRANCH   3   6
DOCKED: ATOM      6  C   UNL     1     139.762  71.797 223.157 -0.29 -0.03    +0.128 A  
DOCKED: ATOM      7  C   UNL     1     139.412  70.491 222.946 -0.24 -0.01    +0.035 A  
DOCKED: ATOM      8  N   UNL     1     140.268  72.133 224.352 -0.10 +0.04    -0.243 NA 
DOCKED: ATOM      9  C   UNL     1     139.570  69.540 223.929 -0.27 -0.00    +0.013 A  
DOCKED: ATOM     10  C   UNL     1     140.442  71.227 225.353 -0.50 -0.01    +0.071 A  
DOCKED: ATOM     11  C   UNL     1     140.098  69.924 225.160 -0.43 -0.00    +0.002 A  
DOCKED: ATOM     12  C   UNL     1     140.966  71.629 226.565 -0.69 -0.00    +0.030 A  
DOCKED: ATOM     13  C   UNL     1     140.249  68.954 226.134 -0.51 -0.01    +0.030 A  
DOCKED: ATOM     14  C   UNL     1     141.121  70.666 227.548 -0.59 -0.00    +0.023 A  
DOCKED: ATOM     15  C   UNL     1     140.774  69.355 227.349 -0.57 -0.01    +0.041 A  
DOCKED: ATOM     16  Cl  UNL     1     140.982  68.147 228.616 -0.70 +0.02    -0.084 Cl 
DOCKED: ENDBRANCH   3   6
DOCKED: ENDBRANCH   1   2
DOCKED: BRANCH   1  17
DOCKED: ATOM     17  C   UNL     1     139.660  76.328 221.512 -0.20 -0.06    +0.242 C  
DOCKED: ATOM     18  O   UNL     1     139.611  76.638 222.744 -0.26 +0.05    -0.273 OA 
DOCKED: BRANCH  17  19
DOCKED: ATOM     19  N   UNL     1     140.171  77.258 220.534 -0.04 +0.11    -0.338 N  
DOCKED: ATOM     20  C   UNL     1     139.339  77.524 219.394 -0.04 -0.03    +0.120 C  
DOCKED: ATOM     21  C   UNL     1     141.465  77.847 220.771 -0.28 -0.05    +0.088 C  
DOCKED: ATOM     22  C   UNL     1     140.127  77.824 218.178 -0.05 -0.01    +0.022 C  
DOCKED: ATOM     23  C   UNL     1     142.209  78.228 219.531 -0.20 -0.02    +0.025 C  
DOCKED: ATOM     24  C   UNL     1     141.609  77.655 218.275 -0.20 -0.00    +0.004 C  
DOCKED: BRANCH  21  25
DOCKED: ATOM     25  C   UNL     1     141.282  78.967 221.770 -0.40 -0.00    +0.012 C  
DOCKED: ATOM     26  C   UNL     1     142.506  79.023 222.629 -0.42 -0.00    +0.006 C  
DOCKED: ATOM     27  C   UNL     1     140.919  80.272 221.134 -0.31 -0.00    +0.006 C  
DOCKED: ATOM     28  C   UNL     1     142.430  80.083 223.703 -0.65 -0.00    +0.000 C  
DOCKED: ATOM     29  C   UNL     1     141.397  81.455 221.986 -0.44 -0.00    +0.000 C  
DOCKED: ATOM     30  C   UNL     1     141.241  81.005 223.432 -0.53 -0.00    +0.000 C  
DOCKED: ENDBRANCH  21  25
DOCKED: ENDBRANCH  17  19
DOCKED: ENDBRANCH   1  17
DOCKED: TORSDOF 5
DOCKED: TER
DOCKED: ENDMDL
________________________________________________________________________________


    FINAL DOCKED STATE:
    ________________________


Run:   5 / 20
Time taken for this run:   0.023s

DOCKED: MODEL        5
DOCKED: USER    Run = 5
DOCKED: USER
DOCKED: USER    Estimated Free Energy of Binding    =  -8.17 kcal/mol  [=(1)+(2)+(3)-(4)]
DOCKED: USER
DOCKED: USER    (1) Final Intermolecular Energy     =  -9.66 kcal/mol
DOCKED: USER        vdW + Hbond + desolv Energy     =  -9.65 kcal/mol
DOCKED: USER        Electrostatic Energy            =  -0.01 kcal/mol
DOCKED: USER        Moving Ligand-Fixed Receptor    =  -9.66 kcal/mol
DOCKED: USER        Moving Ligand-Moving Receptor   =  +0.00 kcal/mol
DOCKED: USER    (2) Final Total Internal Energy     =  -2.05 kcal/mol
DOCKED: USER    (3) Torsional Free Energy           =  +1.49 kcal/mol
DOCKED: USER    (4) Unbound System's Energy         =  -2.05 kcal/mol
DOCKED: USER
DOCKED: USER
DOCKED: REMARK SMILES O=C(NCC(=O)N1CCCC[C@H]1C1CCCCC1)c1ccc2cc(Cl)ccc2n1
DOCKED: REMARK SMILES IDX 4 1 3 2 2 3 1 4 19 6 20 7 29 8 21 9 28 10 22 11 27 12 23 13
DOCKED: REMARK SMILES IDX 26 14 24 15 25 16 5 17 6 18 7 19 8 20 12 21 9 22 11 23 10 24
DOCKED: REMARK SMILES IDX 13 25 14 26 18 27 15 28 17 29 16 30
DOCKED: REMARK H PARENT 3 5
DOCKED: USER                              x       y       z     vdW  Elec       q    Type
DOCKED: USER                           _______ _______ _______ _____ _____    ______ ____
DOCKED: ROOT
DOCKED: ATOM      1  C   UNL     1     139.519  75.107 221.045 -0.16 -0.05    +0.216 C  
DOCKED: ENDROOT
DOCKED: BRANCH   1   2
DOCKED: ATOM      2  N   UNL     1     139.613  74.274 222.230 -0.10 +0.05    -0.342 N  
DOCKED: ATOM      3  C   UNL     1     139.827  72.874 222.004 -0.19 -0.04    +0.270 C  
DOCKED: ATOM      4  O   UNL     1     139.911  72.514 220.806 -0.08 +0.05    -0.268 OA 
DOCKED: ATOM      5  H   UNL     1     139.533  74.640 223.204 -0.49 -0.01    +0.164 HD 
DOCKED: BRANCH   3   6
DOCKED: ATOM      6  C   UNL     1     139.939  71.931 223.111 -0.30 -0.02    +0.128 A  
DOCKED: ATOM      7  C   UNL     1     139.544  70.639 222.902 -0.25 -0.01    +0.035 A  
DOCKED: ATOM      8  N   UNL     1     140.409  72.262 224.323 -0.06 +0.04    -0.243 NA 
DOCKED: ATOM      9  C   UNL     1     139.622  69.696 223.901 -0.27 -0.00    +0.013 A  
DOCKED: ATOM     10  C   UNL     1     140.503  71.364 225.341 -0.50 -0.01    +0.071 A  
DOCKED: ATOM     11  C   UNL     1     140.114  70.074 225.149 -0.44 -0.00    +0.002 A  
DOCKED: ATOM     12  C   UNL     1     140.994  71.760 226.568 -0.69 -0.00    +0.030 A  
DOCKED: ATOM     13  C   UNL     1     140.184  69.111 226.139 -0.50 -0.01    +0.030 A  
DOCKED: ATOM     14  C   UNL     1     141.068  70.805 227.568 -0.65 -0.00    +0.023 A  
DOCKED: ATOM     15  C   UNL     1     140.676  69.506 227.370 -0.57 -0.01    +0.041 A  
DOCKED: ATOM     16  Cl  UNL     1     140.780  68.308 228.659 -0.69 +0.02    -0.084 Cl 
DOCKED: ENDBRANCH   3   6
DOCKED: ENDBRANCH   1   2
DOCKED: BRANCH   1  17
DOCKED: ATOM     17  C   UNL     1     139.009  76.419 221.486 -0.16 -0.05    +0.242 C  
DOCKED: ATOM     18  O   UNL     1     138.475  76.464 222.638 -0.25 +0.06    -0.273 OA 
DOCKED: BRANCH  17  19
DOCKED: ATOM     19  N   UNL     1     139.102  77.604 220.666 -0.02 +0.09    -0.338 N  
DOCKED: ATOM     20  C   UNL     1     137.872  78.137 220.153 -0.03 -0.03    +0.120 C  
DOCKED: ATOM     21  C   UNL     1     140.411  78.160 220.427 -0.16 -0.03    +0.088 C  
DOCKED: ATOM     22  C   UNL     1     138.046  78.794 218.839 -0.01 -0.01    +0.022 C  
DOCKED: ATOM     23  C   UNL     1     140.543  78.900 219.134 -0.13 -0.01    +0.025 C  
DOCKED: ATOM     24  C   UNL     1     139.389  78.669 218.194 -0.03 -0.00    +0.004 C  
DOCKED: BRANCH  21  25
DOCKED: ATOM     25  C   UNL     1     140.803  78.952 221.653 -0.33 -0.00    +0.012 C  
DOCKED: ATOM     26  C   UNL     1     141.422  78.008 222.634 -0.40 -0.00    +0.006 C  
DOCKED: ATOM     27  C   UNL     1     141.646  80.149 221.338 -0.40 -0.00    +0.006 C  
DOCKED: ATOM     28  C   UNL     1     141.823  78.675 223.929 -0.58 -0.00    +0.000 C  
DOCKED: ATOM     29  C   UNL     1     142.559  80.508 222.517 -0.60 -0.00    +0.000 C  
DOCKED: ATOM     30  C   UNL     1     141.753  80.194 223.768 -0.60 -0.00    +0.000 C  
DOCKED: ENDBRANCH  21  25
DOCKED: ENDBRANCH  17  19
DOCKED: ENDBRANCH   1  17
DOCKED: TORSDOF 5
DOCKED: TER
DOCKED: ENDMDL
________________________________________________________________________________


    FINAL DOCKED STATE:
    ________________________


Run:   6 / 20
Time taken for this run:   0.023s

DOCKED: MODEL        6
DOCKED: USER    Run = 6
DOCKED: USER
DOCKED: USER    Estimated Free Energy of Binding    =  -8.66 kcal/mol  [=(1)+(2)+(3)-(4)]
DOCKED: USER
DOCKED: USER    (1) Final Intermolecular Energy     = -10.15 kcal/mol
DOCKED: USER        vdW + Hbond + desolv Energy     = -10.11 kcal/mol
DOCKED: USER        Electrostatic Energy            =  -0.03 kcal/mol
DOCKED: USER        Moving Ligand-Fixed Receptor    = -10.15 kcal/mol
DOCKED: USER        Moving Ligand-Moving Receptor   =  +0.00 kcal/mol
DOCKED: USER    (2) Final Total Internal Energy     =  -2.04 kcal/mol
DOCKED: USER    (3) Torsional Free Energy           =  +1.49 kcal/mol
DOCKED: USER    (4) Unbound System's Energy         =  -2.04 kcal/mol
DOCKED: USER
DOCKED: USER
DOCKED: REMARK SMILES O=C(NCC(=O)N1CCCC[C@H]1C1CCCCC1)c1ccc2cc(Cl)ccc2n1
DOCKED: REMARK SMILES IDX 4 1 3 2 2 3 1 4 19 6 20 7 29 8 21 9 28 10 22 11 27 12 23 13
DOCKED: REMARK SMILES IDX 26 14 24 15 25 16 5 17 6 18 7 19 8 20 12 21 9 22 11 23 10 24
DOCKED: REMARK SMILES IDX 13 25 14 26 18 27 15 28 17 29 16 30
DOCKED: REMARK H PARENT 3 5
DOCKED: USER                              x       y       z     vdW  Elec       q    Type
DOCKED: USER                           _______ _______ _______ _____ _____    ______ ____
DOCKED: ROOT
DOCKED: ATOM      1  C   UNL     1     139.444  74.786 220.926 -0.14 -0.05    +0.216 C  
DOCKED: ENDROOT
DOCKED: BRANCH   1   2
DOCKED: ATOM      2  N   UNL     1     139.536  73.986 222.134 -0.13 +0.06    -0.342 N  
DOCKED: ATOM      3  C   UNL     1     139.776  72.584 221.947 -0.18 -0.05    +0.270 C  
DOCKED: ATOM      4  O   UNL     1     139.881  72.196 220.760 -0.07 +0.05    -0.268 OA 
DOCKED: ATOM      5  H   UNL     1     139.437  74.376 223.096 -0.54 -0.03    +0.164 HD 
DOCKED: BRANCH   3   6
DOCKED: ATOM      6  C   UNL     1     139.888  71.673 223.080 -0.29 -0.02    +0.128 A  
DOCKED: ATOM      7  C   UNL     1     139.464  70.383 222.915 -0.23 -0.01    +0.035 A  
DOCKED: ATOM      8  N   UNL     1     140.385  72.030 224.273 -0.20 +0.04    -0.243 NA 
DOCKED: ATOM      9  C   UNL     1     139.540  69.468 223.940 -0.27 -0.00    +0.013 A  
DOCKED: ATOM     10  C   UNL     1     140.479  71.160 225.315 -0.51 -0.01    +0.071 A  
DOCKED: ATOM     11  C   UNL     1     140.061  69.873 225.168 -0.43 -0.00    +0.002 A  
DOCKED: ATOM     12  C   UNL     1     140.998  71.582 226.522 -0.69 -0.00    +0.030 A  
DOCKED: ATOM     13  C   UNL     1     140.130  68.939 226.185 -0.51 -0.01    +0.030 A  
DOCKED: ATOM     14  C   UNL     1     141.071  70.655 227.549 -0.63 -0.00    +0.023 A  
DOCKED: ATOM     15  C   UNL     1     140.650  69.359 227.396 -0.58 -0.01    +0.041 A  
DOCKED: ATOM     16  Cl  UNL     1     140.753  68.198 228.718 -0.65 +0.02    -0.084 Cl 
DOCKED: ENDBRANCH   3   6
DOCKED: ENDBRANCH   1   2
DOCKED: BRANCH   1  17
DOCKED: ATOM     17  C   UNL     1     139.679  76.188 221.324 -0.18 -0.06    +0.242 C  
DOCKED: ATOM     18  O   UNL     1     139.431  76.484 222.536 -0.28 +0.05    -0.273 OA 
DOCKED: BRANCH  17  19
DOCKED: ATOM     19  N   UNL     1     140.166  77.186 220.403 -0.04 +0.11    -0.338 N  
DOCKED: ATOM     20  C   UNL     1     139.332  77.489 219.274 -0.04 -0.03    +0.120 C  
DOCKED: ATOM     21  C   UNL     1     141.439  77.801 220.681 -0.28 -0.05    +0.088 C  
DOCKED: ATOM     22  C   UNL     1     140.116  77.881 218.081 -0.05 -0.01    +0.022 C  
DOCKED: ATOM     23  C   UNL     1     142.178  78.274 219.469 -0.23 -0.02    +0.025 C  
DOCKED: ATOM     24  C   UNL     1     141.602  77.753 218.179 -0.19 -0.00    +0.004 C  
DOCKED: BRANCH  21  25
DOCKED: ATOM     25  C   UNL     1     141.217  78.857 221.739 -0.39 -0.00    +0.012 C  
DOCKED: ATOM     26  C   UNL     1     141.672  78.300 223.051 -0.43 -0.00    +0.006 C  
DOCKED: ATOM     27  C   UNL     1     141.826  80.180 221.391 -0.43 -0.00    +0.006 C  
DOCKED: ATOM     28  C   UNL     1     141.463  79.251 224.206 -0.48 -0.00    +0.000 C  
DOCKED: ATOM     29  C   UNL     1     142.193  80.969 222.654 -0.57 -0.00    +0.000 C  
DOCKED: ATOM     30  C   UNL     1     141.111  80.639 223.671 -0.50 -0.00    +0.000 C  
DOCKED: ENDBRANCH  21  25
DOCKED: ENDBRANCH  17  19
DOCKED: ENDBRANCH   1  17
DOCKED: TORSDOF 5
DOCKED: TER
DOCKED: ENDMDL
________________________________________________________________________________


    FINAL DOCKED STATE:
    ________________________


Run:   7 / 20
Time taken for this run:   0.023s

DOCKED: MODEL        7
DOCKED: USER    Run = 7
DOCKED: USER
DOCKED: USER    Estimated Free Energy of Binding    =  -8.65 kcal/mol  [=(1)+(2)+(3)-(4)]
DOCKED: USER
DOCKED: USER    (1) Final Intermolecular Energy     = -10.14 kcal/mol
DOCKED: USER        vdW + Hbond + desolv Energy     = -10.09 kcal/mol
DOCKED: USER        Electrostatic Energy            =  -0.05 kcal/mol
DOCKED: USER        Moving Ligand-Fixed Receptor    = -10.14 kcal/mol
DOCKED: USER        Moving Ligand-Moving Receptor   =  +0.00 kcal/mol
DOCKED: USER    (2) Final Total Internal Energy     =  -2.02 kcal/mol
DOCKED: USER    (3) Torsional Free Energy           =  +1.49 kcal/mol
DOCKED: USER    (4) Unbound System's Energy         =  -2.02 kcal/mol
DOCKED: USER
DOCKED: USER
DOCKED: REMARK SMILES O=C(NCC(=O)N1CCCC[C@H]1C1CCCCC1)c1ccc2cc(Cl)ccc2n1
DOCKED: REMARK SMILES IDX 4 1 3 2 2 3 1 4 19 6 20 7 29 8 21 9 28 10 22 11 27 12 23 13
DOCKED: REMARK SMILES IDX 26 14 24 15 25 16 5 17 6 18 7 19 8 20 12 21 9 22 11 23 10 24
DOCKED: REMARK SMILES IDX 13 25 14 26 18 27 15 28 17 29 16 30
DOCKED: REMARK H PARENT 3 5
DOCKED: USER                              x       y       z     vdW  Elec       q    Type
DOCKED: USER                           _______ _______ _______ _____ _____    ______ ____
DOCKED: ROOT
DOCKED: ATOM      1  C   UNL     1     139.480  74.993 220.960 -0.15 -0.05    +0.216 C  
DOCKED: ENDROOT
DOCKED: BRANCH   1   2
DOCKED: ATOM      2  N   UNL     1     139.526  74.173 222.158 -0.12 +0.06    -0.342 N  
DOCKED: ATOM      3  C   UNL     1     139.906  72.803 221.973 -0.19 -0.04    +0.270 C  
DOCKED: ATOM      4  O   UNL     1     140.159  72.454 220.795 -0.08 +0.04    -0.268 OA 
DOCKED: ATOM      5  H   UNL     1     139.302  74.529 223.113 -0.54 -0.04    +0.164 HD 
DOCKED: BRANCH   3   6
DOCKED: ATOM      6  C   UNL     1     139.989  71.876 223.096 -0.30 -0.02    +0.128 A  
DOCKED: ATOM      7  C   UNL     1     139.543  70.596 222.912 -0.25 -0.01    +0.035 A  
DOCKED: ATOM      8  N   UNL     1     140.480  72.210 224.298 -0.08 +0.03    -0.243 NA 
DOCKED: ATOM      9  C   UNL     1     139.592  69.669 223.927 -0.28 -0.00    +0.013 A  
DOCKED: ATOM     10  C   UNL     1     140.548  71.327 225.331 -0.51 -0.01    +0.071 A  
DOCKED: ATOM     11  C   UNL     1     140.108  70.050 225.165 -0.44 -0.00    +0.002 A  
DOCKED: ATOM     12  C   UNL     1     141.062  71.725 226.548 -0.70 -0.00    +0.030 A  
DOCKED: ATOM     13  C   UNL     1     140.148  69.102 226.171 -0.50 -0.01    +0.030 A  
DOCKED: ATOM     14  C   UNL     1     141.107  70.785 227.564 -0.62 -0.00    +0.023 A  
DOCKED: ATOM     15  C   UNL     1     140.663  69.499 227.392 -0.57 -0.01    +0.041 A  
DOCKED: ATOM     16  Cl  UNL     1     140.731  68.321 228.701 -0.68 +0.02    -0.084 Cl 
DOCKED: ENDBRANCH   3   6
DOCKED: ENDBRANCH   1   2
DOCKED: BRANCH   1  17
DOCKED: ATOM     17  C   UNL     1     139.842  76.364 221.368 -0.19 -0.06    +0.242 C  
DOCKED: ATOM     18  O   UNL     1     139.785  76.621 222.612 -0.29 +0.05    -0.273 OA 
DOCKED: BRANCH  17  19
DOCKED: ATOM     19  N   UNL     1     140.243  77.376 220.421 -0.04 +0.11    -0.338 N  
DOCKED: ATOM     20  C   UNL     1     139.348  77.633 219.328 -0.04 -0.03    +0.120 C  
DOCKED: ATOM     21  C   UNL     1     141.499  78.048 220.639 -0.28 -0.05    +0.088 C  
DOCKED: ATOM     22  C   UNL     1     140.061  78.051 218.100 -0.05 -0.01    +0.022 C  
DOCKED: ATOM     23  C   UNL     1     142.162  78.544 219.393 -0.21 -0.02    +0.025 C  
DOCKED: ATOM     24  C   UNL     1     141.554  77.988 218.133 -0.19 -0.00    +0.004 C  
DOCKED: BRANCH  21  25
DOCKED: ATOM     25  C   UNL     1     141.277  79.101 221.701 -0.39 -0.00    +0.012 C  
DOCKED: ATOM     26  C   UNL     1     142.436  79.056 222.645 -0.46 -0.00    +0.006 C  
DOCKED: ATOM     27  C   UNL     1     141.000  80.459 221.135 -0.32 -0.00    +0.006 C  
DOCKED: ATOM     28  C   UNL     1     142.313  80.041 223.785 -0.64 -0.00    +0.000 C  
DOCKED: ATOM     29  C   UNL     1     141.448  81.563 222.102 -0.45 -0.00    +0.000 C  
DOCKED: ATOM     30  C   UNL     1     141.174  81.020 223.497 -0.52 -0.00    +0.000 C  
DOCKED: ENDBRANCH  21  25
DOCKED: ENDBRANCH  17  19
DOCKED: ENDBRANCH   1  17
DOCKED: TORSDOF 5
DOCKED: TER
DOCKED: ENDMDL
________________________________________________________________________________


    FINAL DOCKED STATE:
    ________________________


Run:   8 / 20
Time taken for this run:   0.023s

DOCKED: MODEL        8
DOCKED: USER    Run = 8
DOCKED: USER
DOCKED: USER    Estimated Free Energy of Binding    =  -8.39 kcal/mol  [=(1)+(2)+(3)-(4)]
DOCKED: USER
DOCKED: USER    (1) Final Intermolecular Energy     =  -9.88 kcal/mol
DOCKED: USER        vdW + Hbond + desolv Energy     =  -9.87 kcal/mol
DOCKED: USER        Electrostatic Energy            =  -0.01 kcal/mol
DOCKED: USER        Moving Ligand-Fixed Receptor    =  -9.88 kcal/mol
DOCKED: USER        Moving Ligand-Moving Receptor   =  +0.00 kcal/mol
DOCKED: USER    (2) Final Total Internal Energy     =  -2.19 kcal/mol
DOCKED: USER    (3) Torsional Free Energy           =  +1.49 kcal/mol
DOCKED: USER    (4) Unbound System's Energy         =  -2.19 kcal/mol
DOCKED: USER
DOCKED: USER
DOCKED: REMARK SMILES O=C(NCC(=O)N1CCCC[C@H]1C1CCCCC1)c1ccc2cc(Cl)ccc2n1
DOCKED: REMARK SMILES IDX 4 1 3 2 2 3 1 4 19 6 20 7 29 8 21 9 28 10 22 11 27 12 23 13
DOCKED: REMARK SMILES IDX 26 14 24 15 25 16 5 17 6 18 7 19 8 20 12 21 9 22 11 23 10 24
DOCKED: REMARK SMILES IDX 13 25 14 26 18 27 15 28 17 29 16 30
DOCKED: REMARK H PARENT 3 5
DOCKED: USER                              x       y       z     vdW  Elec       q    Type
DOCKED: USER                           _______ _______ _______ _____ _____    ______ ____
DOCKED: ROOT
DOCKED: ATOM      1  C   UNL     1     139.630  74.910 220.986 -0.16 -0.05    +0.216 C  
DOCKED: ENDROOT
DOCKED: BRANCH   1   2
DOCKED: ATOM      2  N   UNL     1     139.652  74.088 222.183 -0.11 +0.05    -0.342 N  
DOCKED: ATOM      3  C   UNL     1     139.974  72.703 221.994 -0.19 -0.04    +0.270 C  
DOCKED: ATOM      4  O   UNL     1     140.202  72.346 220.814 -0.08 +0.04    -0.268 OA 
DOCKED: ATOM      5  H   UNL     1     139.450  74.451 223.140 -0.53 -0.02    +0.164 HD 
DOCKED: BRANCH   3   6
DOCKED: ATOM      6  C   UNL     1     140.029  71.773 223.115 -0.30 -0.02    +0.128 A  
DOCKED: ATOM      7  C   UNL     1     139.574  70.498 222.920 -0.24 -0.01    +0.035 A  
DOCKED: ATOM      8  N   UNL     1     140.502  72.098 224.327 -0.14 +0.03    -0.243 NA 
DOCKED: ATOM      9  C   UNL     1     139.596  69.567 223.933 -0.26 -0.00    +0.013 A  
DOCKED: ATOM     10  C   UNL     1     140.543  71.212 225.358 -0.51 -0.01    +0.071 A  
DOCKED: ATOM     11  C   UNL     1     140.094  69.939 225.180 -0.44 -0.00    +0.002 A  
DOCKED: ATOM     12  C   UNL     1     141.040  71.602 226.585 -0.70 -0.00    +0.030 A  
DOCKED: ATOM     13  C   UNL     1     140.108  68.989 226.185 -0.51 -0.01    +0.030 A  
DOCKED: ATOM     14  C   UNL     1     141.059  70.659 227.599 -0.63 -0.00    +0.023 A  
DOCKED: ATOM     15  C   UNL     1     140.605  69.378 227.415 -0.58 -0.01    +0.041 A  
DOCKED: ATOM     16  Cl  UNL     1     140.639  68.195 228.722 -0.61 +0.02    -0.084 Cl 
DOCKED: ENDBRANCH   3   6
DOCKED: ENDBRANCH   1   2
DOCKED: BRANCH   1  17
DOCKED: ATOM     17  C   UNL     1     140.700  75.914 221.140 -0.21 -0.07    +0.242 C  
DOCKED: ATOM     18  O   UNL     1     140.713  76.570 222.229 -0.32 +0.08    -0.273 OA 
DOCKED: BRANCH  17  19
DOCKED: ATOM     19  N   UNL     1     141.691  76.156 220.118 -0.10 +0.15    -0.338 N  
DOCKED: ATOM     20  C   UNL     1     142.199  77.494 220.011 -0.26 -0.08    +0.120 C  
DOCKED: ATOM     21  C   UNL     1     142.093  75.046 219.290 -0.17 -0.03    +0.088 C  
DOCKED: ATOM     22  C   UNL     1     142.571  77.847 218.622 -0.32 -0.02    +0.022 C  
DOCKED: ATOM     23  C   UNL     1     142.553  75.431 217.919 -0.16 -0.01    +0.025 C  
DOCKED: ATOM     24  C   UNL     1     142.225  76.855 217.558 -0.20 -0.00    +0.004 C  
DOCKED: BRANCH  21  25
DOCKED: ATOM     25  C   UNL     1     143.081  74.220 220.081 -0.32 -0.00    +0.012 C  
DOCKED: ATOM     26  C   UNL     1     143.056  72.826 219.537 -0.20 -0.00    +0.006 C  
DOCKED: ATOM     27  C   UNL     1     144.447  74.830 220.141 -0.38 -0.00    +0.006 C  
DOCKED: ATOM     28  C   UNL     1     143.977  71.883 220.276 -0.31 -0.00    +0.000 C  
DOCKED: ATOM     29  C   UNL     1     145.527  73.753 220.308 -0.58 -0.00    +0.000 C  
DOCKED: ATOM     30  C   UNL     1     144.904  72.683 221.193 -0.36 -0.00    +0.000 C  
DOCKED: ENDBRANCH  21  25
DOCKED: ENDBRANCH  17  19
DOCKED: ENDBRANCH   1  17
DOCKED: TORSDOF 5
DOCKED: TER
DOCKED: ENDMDL
________________________________________________________________________________


    FINAL DOCKED STATE:
    ________________________


Run:   9 / 20
Time taken for this run:   0.023s

DOCKED: MODEL        9
DOCKED: USER    Run = 9
DOCKED: USER
DOCKED: USER    Estimated Free Energy of Binding    =  -7.94 kcal/mol  [=(1)+(2)+(3)-(4)]
DOCKED: USER
DOCKED: USER    (1) Final Intermolecular Energy     =  -9.43 kcal/mol
DOCKED: USER        vdW + Hbond + desolv Energy     =  -9.47 kcal/mol
DOCKED: USER        Electrostatic Energy            =  +0.04 kcal/mol
DOCKED: USER        Moving Ligand-Fixed Receptor    =  -9.43 kcal/mol
DOCKED: USER        Moving Ligand-Moving Receptor   =  +0.00 kcal/mol
DOCKED: USER    (2) Final Total Internal Energy     =  -2.22 kcal/mol
DOCKED: USER    (3) Torsional Free Energy           =  +1.49 kcal/mol
DOCKED: USER    (4) Unbound System's Energy         =  -2.22 kcal/mol
DOCKED: USER
DOCKED: USER
DOCKED: REMARK SMILES O=C(NCC(=O)N1CCCC[C@H]1C1CCCCC1)c1ccc2cc(Cl)ccc2n1
DOCKED: REMARK SMILES IDX 4 1 3 2 2 3 1 4 19 6 20 7 29 8 21 9 28 10 22 11 27 12 23 13
DOCKED: REMARK SMILES IDX 26 14 24 15 25 16 5 17 6 18 7 19 8 20 12 21 9 22 11 23 10 24
DOCKED: REMARK SMILES IDX 13 25 14 26 18 27 15 28 17 29 16 30
DOCKED: REMARK H PARENT 3 5
DOCKED: USER                              x       y       z     vdW  Elec       q    Type
DOCKED: USER                           _______ _______ _______ _____ _____    ______ ____
DOCKED: ROOT
DOCKED: ATOM      1  C   UNL     1     139.865  74.469 220.909 -0.15 -0.04    +0.216 C  
DOCKED: ENDROOT
DOCKED: BRANCH   1   2
DOCKED: ATOM      2  N   UNL     1     139.897  73.717 222.151 -0.13 +0.04    -0.342 N  
DOCKED: ATOM      3  C   UNL     1     139.989  72.291 222.024 -0.19 -0.04    +0.270 C  
DOCKED: ATOM      4  O   UNL     1     140.032  71.843 220.854 -0.07 +0.04    -0.268 OA 
DOCKED: ATOM      5  H   UNL     1     139.857  74.156 223.096 -0.35 +0.04    +0.164 HD 
DOCKED: BRANCH   3   6
DOCKED: ATOM      6  C   UNL     1     140.029  71.423 223.195 -0.30 -0.02    +0.128 A  
DOCKED: ATOM      7  C   UNL     1     139.551  70.148 223.071 -0.23 -0.01    +0.035 A  
DOCKED: ATOM      8  N   UNL     1     140.510  71.806 224.387 -0.27 +0.03    -0.243 NA 
DOCKED: ATOM      9  C   UNL     1     139.558  69.274 224.133 -0.28 -0.00    +0.013 A  
DOCKED: ATOM     10  C   UNL     1     140.537  70.977 225.465 -0.51 -0.01    +0.071 A  
DOCKED: ATOM     11  C   UNL     1     140.064  69.705 225.358 -0.44 -0.00    +0.002 A  
DOCKED: ATOM     12  C   UNL     1     141.043  71.425 226.668 -0.69 -0.00    +0.030 A  
DOCKED: ATOM     13  C   UNL     1     140.063  68.811 226.413 -0.54 -0.01    +0.030 A  
DOCKED: ATOM     14  C   UNL     1     141.046  70.539 227.733 -0.62 -0.00    +0.023 A  
DOCKED: ATOM     15  C   UNL     1     140.569  69.258 227.620 -0.59 -0.01    +0.041 A  
DOCKED: ATOM     16  Cl  UNL     1     140.584  68.149 228.990 -0.34 +0.02    -0.084 Cl 
DOCKED: ENDBRANCH   3   6
DOCKED: ENDBRANCH   1   2
DOCKED: BRANCH   1  17
DOCKED: ATOM     17  C   UNL     1     140.855  75.555 221.044 -0.21 -0.07    +0.242 C  
DOCKED: ATOM     18  O   UNL     1     140.993  76.060 222.202 -0.38 +0.08    -0.273 OA 
DOCKED: BRANCH  17  19
DOCKED: ATOM     19  N   UNL     1     141.638  76.034 219.930 -0.09 +0.14    -0.338 N  
DOCKED: ATOM     20  C   UNL     1     142.119  77.385 220.008 -0.26 -0.08    +0.120 C  
DOCKED: ATOM     21  C   UNL     1     141.879  75.130 218.833 -0.12 -0.03    +0.088 C  
DOCKED: ATOM     22  C   UNL     1     142.226  78.024 218.677 -0.29 -0.01    +0.022 C  
DOCKED: ATOM     23  C   UNL     1     142.075  75.800 217.510 -0.12 -0.01    +0.025 C  
DOCKED: ATOM     24  C   UNL     1     141.687  77.255 217.514 -0.15 -0.00    +0.004 C  
DOCKED: BRANCH  21  25
DOCKED: ATOM     25  C   UNL     1     142.996  74.198 219.244 -0.23 -0.00    +0.012 C  
DOCKED: ATOM     26  C   UNL     1     143.949  74.970 220.099 -0.42 -0.00    +0.006 C  
DOCKED: ATOM     27  C   UNL     1     142.505  72.928 219.865 -0.20 -0.00    +0.006 C  
DOCKED: ATOM     28  C   UNL     1     145.141  74.155 220.545 -0.55 -0.00    +0.000 C  
DOCKED: ATOM     29  C   UNL     1     143.538  72.356 220.845 -0.30 -0.00    +0.000 C  
DOCKED: ATOM     30  C   UNL     1     144.896  72.677 220.239 -0.46 -0.00    +0.000 C  
DOCKED: ENDBRANCH  21  25
DOCKED: ENDBRANCH  17  19
DOCKED: ENDBRANCH   1  17
DOCKED: TORSDOF 5
DOCKED: TER
DOCKED: ENDMDL
________________________________________________________________________________


    FINAL DOCKED STATE:
    ________________________


Run:   10 / 20
Time taken for this run:   0.023s

DOCKED: MODEL        10
DOCKED: USER    Run = 10
DOCKED: USER
DOCKED: USER    Estimated Free Energy of Binding    =  -8.10 kcal/mol  [=(1)+(2)+(3)-(4)]
DOCKED: USER
DOCKED: USER    (1) Final Intermolecular Energy     =  -9.60 kcal/mol
DOCKED: USER        vdW + Hbond + desolv Energy     =  -9.56 kcal/mol
DOCKED: USER        Electrostatic Energy            =  -0.03 kcal/mol
DOCKED: USER        Moving Ligand-Fixed Receptor    =  -9.60 kcal/mol
DOCKED: USER        Moving Ligand-Moving Receptor   =  +0.00 kcal/mol
DOCKED: USER    (2) Final Total Internal Energy     =  -2.13 kcal/mol
DOCKED: USER    (3) Torsional Free Energy           =  +1.49 kcal/mol
DOCKED: USER    (4) Unbound System's Energy         =  -2.13 kcal/mol
DOCKED: USER
DOCKED: USER
DOCKED: REMARK SMILES O=C(NCC(=O)N1CCCC[C@H]1C1CCCCC1)c1ccc2cc(Cl)ccc2n1
DOCKED: REMARK SMILES IDX 4 1 3 2 2 3 1 4 19 6 20 7 29 8 21 9 28 10 22 11 27 12 23 13
DOCKED: REMARK SMILES IDX 26 14 24 15 25 16 5 17 6 18 7 19 8 20 12 21 9 22 11 23 10 24
DOCKED: REMARK SMILES IDX 13 25 14 26 18 27 15 28 17 29 16 30
DOCKED: REMARK H PARENT 3 5
DOCKED: USER                              x       y       z     vdW  Elec       q    Type
DOCKED: USER                           _______ _______ _______ _____ _____    ______ ____
DOCKED: ROOT
DOCKED: ATOM      1  C   UNL     1     135.667  70.442 224.572 -0.13 -0.02    +0.216 C  
DOCKED: ENDROOT
DOCKED: BRANCH   1   2
DOCKED: ATOM      2  N   UNL     1     135.034  71.690 224.958 -0.07 +0.03    -0.342 N  
DOCKED: ATOM      3  C   UNL     1     134.120  71.621 226.062 -0.17 -0.01    +0.270 C  
DOCKED: ATOM      4  O   UNL     1     133.964  70.489 226.578 -0.35 +0.01    -0.268 OA 
DOCKED: ATOM      5  H   UNL     1     135.210  72.602 224.483 +0.03 -0.02    +0.164 HD 
DOCKED: BRANCH   3   6
DOCKED: ATOM      6  C   UNL     1     133.420  72.804 226.547 -0.31 -0.00    +0.128 A  
DOCKED: ATOM      7  C   UNL     1     132.186  72.637 227.115 -0.39 -0.01    +0.035 A  
DOCKED: ATOM      8  N   UNL     1     133.918  74.046 226.469 -0.78 -0.04    -0.243 NA 
DOCKED: ATOM      9  C   UNL     1     131.468  73.708 227.595 -0.39 -0.00    +0.013 A  
DOCKED: ATOM     10  C   UNL     1     133.245  75.135 226.929 -0.30 +0.00    +0.071 A  
DOCKED: ATOM     11  C   UNL     1     132.016  74.986 227.496 -0.41 -0.00    +0.002 A  
DOCKED: ATOM     12  C   UNL     1     133.806  76.391 226.821 -0.38 -0.00    +0.030 A  
DOCKED: ATOM     13  C   UNL     1     131.279  76.049 227.984 -0.23 +0.00    +0.030 A  
DOCKED: ATOM     14  C   UNL     1     133.077  77.464 227.307 -0.34 -0.00    +0.023 A  
DOCKED: ATOM     15  C   UNL     1     131.840  77.309 227.878 -0.30 +0.00    +0.041 A  
DOCKED: ATOM     16  Cl  UNL     1     130.931  78.690 228.488 -0.30 -0.02    -0.084 Cl 
DOCKED: ENDBRANCH   3   6
DOCKED: ENDBRANCH   1   2
DOCKED: BRANCH   1  17
DOCKED: ATOM     17  C   UNL     1     136.881  70.798 223.812 -0.14 -0.04    +0.242 C  
DOCKED: ATOM     18  O   UNL     1     136.895  71.947 223.268 -0.13 +0.08    -0.273 OA 
DOCKED: BRANCH  17  19
DOCKED: ATOM     19  N   UNL     1     138.006  69.903 223.682 -0.09 +0.05    -0.338 N  
DOCKED: ATOM     20  C   UNL     1     138.631  69.829 222.392 -0.15 -0.02    +0.120 C  
DOCKED: ATOM     21  C   UNL     1     138.416  69.158 224.846 -0.32 -0.01    +0.088 C  
DOCKED: ATOM     22  C   UNL     1     139.198  68.490 222.115 -0.15 -0.00    +0.022 C  
DOCKED: ATOM     23  C   UNL     1     139.070  67.847 224.545 -0.12 -0.00    +0.025 C  
DOCKED: ATOM     24  C   UNL     1     138.907  67.415 223.112 -0.18 -0.00    +0.004 C  
DOCKED: BRANCH  21  25
DOCKED: ATOM     25  C   UNL     1     139.228  70.086 225.721 -0.37 -0.00    +0.012 C  
DOCKED: ATOM     26  C   UNL     1     139.686  69.310 226.916 -0.56 -0.00    +0.006 C  
DOCKED: ATOM     27  C   UNL     1     140.330  70.780 224.982 -0.51 -0.00    +0.006 C  
DOCKED: ATOM     28  C   UNL     1     140.480  70.143 227.896 -0.66 -0.00    +0.000 C  
DOCKED: ATOM     29  C   UNL     1     141.492  71.128 225.920 -0.57 -0.00    +0.000 C  
DOCKED: ATOM     30  C   UNL     1     140.848  71.481 227.253 -0.77 -0.00    +0.000 C  
DOCKED: ENDBRANCH  21  25
DOCKED: ENDBRANCH  17  19
DOCKED: ENDBRANCH   1  17
DOCKED: TORSDOF 5
DOCKED: TER
DOCKED: ENDMDL
________________________________________________________________________________


    FINAL DOCKED STATE:
    ________________________


Run:   11 / 20
Time taken for this run:   0.023s

DOCKED: MODEL        11
DOCKED: USER    Run = 11
DOCKED: USER
DOCKED: USER    Estimated Free Energy of Binding    =  -8.68 kcal/mol  [=(1)+(2)+(3)-(4)]
DOCKED: USER
DOCKED: USER    (1) Final Intermolecular Energy     = -10.18 kcal/mol
DOCKED: USER        vdW + Hbond + desolv Energy     = -10.15 kcal/mol
DOCKED: USER        Electrostatic Energy            =  -0.03 kcal/mol
DOCKED: USER        Moving Ligand-Fixed Receptor    = -10.18 kcal/mol
DOCKED: USER        Moving Ligand-Moving Receptor   =  +0.00 kcal/mol
DOCKED: USER    (2) Final Total Internal Energy     =  -2.05 kcal/mol
DOCKED: USER    (3) Torsional Free Energy           =  +1.49 kcal/mol
DOCKED: USER    (4) Unbound System's Energy         =  -2.05 kcal/mol
DOCKED: USER
DOCKED: USER
DOCKED: REMARK SMILES O=C(NCC(=O)N1CCCC[C@H]1C1CCCCC1)c1ccc2cc(Cl)ccc2n1
DOCKED: REMARK SMILES IDX 4 1 3 2 2 3 1 4 19 6 20 7 29 8 21 9 28 10 22 11 27 12 23 13
DOCKED: REMARK SMILES IDX 26 14 24 15 25 16 5 17 6 18 7 19 8 20 12 21 9 22 11 23 10 24
DOCKED: REMARK SMILES IDX 13 25 14 26 18 27 15 28 17 29 16 30
DOCKED: REMARK H PARENT 3 5
DOCKED: USER                              x       y       z     vdW  Elec       q    Type
DOCKED: USER                           _______ _______ _______ _____ _____    ______ ____
DOCKED: ROOT
DOCKED: ATOM      1  C   UNL     1     139.497  74.938 221.060 -0.16 -0.05    +0.216 C  
DOCKED: ENDROOT
DOCKED: BRANCH   1   2
DOCKED: ATOM      2  N   UNL     1     139.580  74.113 222.251 -0.11 +0.05    -0.342 N  
DOCKED: ATOM      3  C   UNL     1     139.793  72.711 222.035 -0.19 -0.04    +0.270 C  
DOCKED: ATOM      4  O   UNL     1     139.884  72.344 220.840 -0.07 +0.05    -0.268 OA 
DOCKED: ATOM      5  H   UNL     1     139.494  74.485 223.222 -0.50 -0.02    +0.164 HD 
DOCKED: BRANCH   3   6
DOCKED: ATOM      6  C   UNL     1     139.894  71.775 223.148 -0.30 -0.02    +0.128 A  
DOCKED: ATOM      7  C   UNL     1     139.464  70.491 222.955 -0.24 -0.01    +0.035 A  
DOCKED: ATOM      8  N   UNL     1     140.387  72.103 224.352 -0.14 +0.04    -0.243 NA 
DOCKED: ATOM      9  C   UNL     1     139.530  69.554 223.961 -0.28 -0.00    +0.013 A  
DOCKED: ATOM     10  C   UNL     1     140.472  71.212 225.376 -0.51 -0.01    +0.071 A  
DOCKED: ATOM     11  C   UNL     1     140.048  69.930 225.199 -0.44 -0.00    +0.002 A  
DOCKED: ATOM     12  C   UNL     1     140.987  71.605 226.594 -0.69 -0.00    +0.030 A  
DOCKED: ATOM     13  C   UNL     1     140.106  68.974 226.197 -0.51 -0.01    +0.030 A  
DOCKED: ATOM     14  C   UNL     1     141.050  70.656 227.601 -0.63 -0.00    +0.023 A  
DOCKED: ATOM     15  C   UNL     1     140.623  69.366 227.418 -0.58 -0.01    +0.041 A  
DOCKED: ATOM     16  Cl  UNL     1     140.713  68.177 228.716 -0.64 +0.02    -0.084 Cl 
DOCKED: ENDBRANCH   3   6
DOCKED: ENDBRANCH   1   2
DOCKED: BRANCH   1  17
DOCKED: ATOM     17  C   UNL     1     139.988  76.278 221.435 -0.21 -0.06    +0.242 C  
DOCKED: ATOM     18  O   UNL     1     140.118  76.509 222.679 -0.32 +0.05    -0.273 OA 
DOCKED: BRANCH  17  19
DOCKED: ATOM     19  N   UNL     1     140.311  77.289 220.457 -0.04 +0.11    -0.338 N  
DOCKED: ATOM     20  C   UNL     1     139.383  77.466 219.376 -0.04 -0.03    +0.120 C  
DOCKED: ATOM     21  C   UNL     1     141.528  78.040 220.636 -0.28 -0.05    +0.088 C  
DOCKED: ATOM     22  C   UNL     1     140.048  77.895 218.125 -0.05 -0.01    +0.022 C  
DOCKED: ATOM     23  C   UNL     1     142.139  78.544 219.367 -0.22 -0.02    +0.025 C  
DOCKED: ATOM     24  C   UNL     1     141.543  77.923 218.132 -0.19 -0.00    +0.004 C  
DOCKED: BRANCH  21  25
DOCKED: ATOM     25  C   UNL     1     141.261  79.103 221.677 -0.38 -0.00    +0.012 C  
DOCKED: ATOM     26  C   UNL     1     142.342  79.021 222.708 -0.49 -0.00    +0.006 C  
DOCKED: ATOM     27  C   UNL     1     141.076  80.469 221.092 -0.33 -0.00    +0.006 C  
DOCKED: ATOM     28  C   UNL     1     142.165  80.013 223.835 -0.64 -0.00    +0.000 C  
DOCKED: ATOM     29  C   UNL     1     141.486  81.559 222.090 -0.45 -0.00    +0.000 C  
DOCKED: ATOM     30  C   UNL     1     141.087  81.030 223.459 -0.51 -0.00    +0.000 C  
DOCKED: ENDBRANCH  21  25
DOCKED: ENDBRANCH  17  19
DOCKED: ENDBRANCH   1  17
DOCKED: TORSDOF 5
DOCKED: TER
DOCKED: ENDMDL
________________________________________________________________________________


    FINAL DOCKED STATE:
    ________________________


Run:   12 / 20
Time taken for this run:   0.023s

DOCKED: MODEL        12
DOCKED: USER    Run = 12
DOCKED: USER
DOCKED: USER    Estimated Free Energy of Binding    =  -8.54 kcal/mol  [=(1)+(2)+(3)-(4)]
DOCKED: USER
DOCKED: USER    (1) Final Intermolecular Energy     = -10.03 kcal/mol
DOCKED: USER        vdW + Hbond + desolv Energy     = -10.05 kcal/mol
DOCKED: USER        Electrostatic Energy            =  +0.02 kcal/mol
DOCKED: USER        Moving Ligand-Fixed Receptor    = -10.03 kcal/mol
DOCKED: USER        Moving Ligand-Moving Receptor   =  +0.00 kcal/mol
DOCKED: USER    (2) Final Total Internal Energy     =  -1.71 kcal/mol
DOCKED: USER    (3) Torsional Free Energy           =  +1.49 kcal/mol
DOCKED: USER    (4) Unbound System's Energy         =  -1.71 kcal/mol
DOCKED: USER
DOCKED: USER
DOCKED: REMARK SMILES O=C(NCC(=O)N1CCCC[C@H]1C1CCCCC1)c1ccc2cc(Cl)ccc2n1
DOCKED: REMARK SMILES IDX 4 1 3 2 2 3 1 4 19 6 20 7 29 8 21 9 28 10 22 11 27 12 23 13
DOCKED: REMARK SMILES IDX 26 14 24 15 25 16 5 17 6 18 7 19 8 20 12 21 9 22 11 23 10 24
DOCKED: REMARK SMILES IDX 13 25 14 26 18 27 15 28 17 29 16 30
DOCKED: REMARK H PARENT 3 5
DOCKED: USER                              x       y       z     vdW  Elec       q    Type
DOCKED: USER                           _______ _______ _______ _____ _____    ______ ____
DOCKED: ROOT
DOCKED: ATOM      1  C   UNL     1     139.386  75.003 221.115 -0.16 -0.05    +0.216 C  
DOCKED: ENDROOT
DOCKED: BRANCH   1   2
DOCKED: ATOM      2  N   UNL     1     139.529  74.174 222.298 -0.09 +0.05    -0.342 N  
DOCKED: ATOM      3  C   UNL     1     139.671  72.765 222.070 -0.18 -0.05    +0.270 C  
DOCKED: ATOM      4  O   UNL     1     139.657  72.396 220.872 -0.07 +0.05    -0.268 OA 
DOCKED: ATOM      5  H   UNL     1     139.532  74.548 223.272 -0.48 -0.01    +0.164 HD 
DOCKED: BRANCH   3   6
DOCKED: ATOM      6  C   UNL     1     139.821  71.825 223.175 -0.29 -0.02    +0.128 A  
DOCKED: ATOM      7  C   UNL     1     139.442  70.527 222.975 -0.25 -0.01    +0.035 A  
DOCKED: ATOM      8  N   UNL     1     140.313  72.164 224.376 -0.10 +0.04    -0.243 NA 
DOCKED: ATOM      9  C   UNL     1     139.556  69.586 223.973 -0.28 -0.00    +0.013 A  
DOCKED: ATOM     10  C   UNL     1     140.444  71.269 225.392 -0.50 -0.01    +0.071 A  
DOCKED: ATOM     11  C   UNL     1     140.070  69.973 225.209 -0.44 -0.00    +0.002 A  
DOCKED: ATOM     12  C   UNL     1     140.956  71.673 226.608 -0.69 -0.00    +0.030 A  
DOCKED: ATOM     13  C   UNL     1     140.177  69.012 226.198 -0.51 -0.01    +0.030 A  
DOCKED: ATOM     14  C   UNL     1     141.067  70.720 227.606 -0.64 -0.00    +0.023 A  
DOCKED: ATOM     15  C   UNL     1     140.690  69.415 227.418 -0.57 -0.01    +0.041 A  
DOCKED: ATOM     16  Cl  UNL     1     140.842  68.220 228.704 -0.67 +0.02    -0.084 Cl 
DOCKED: ENDBRANCH   3   6
DOCKED: ENDBRANCH   1   2
DOCKED: BRANCH   1  17
DOCKED: ATOM     17  C   UNL     1     140.518  75.950 221.120 -0.20 -0.07    +0.242 C  
DOCKED: ATOM     18  O   UNL     1     141.389  75.792 222.032 -0.33 +0.09    -0.273 OA 
DOCKED: BRANCH  17  19
DOCKED: ATOM     19  N   UNL     1     140.648  77.010 220.148 -0.05 +0.13    -0.338 N  
DOCKED: ATOM     20  C   UNL     1     139.729  76.995 219.046 -0.04 -0.04    +0.120 C  
DOCKED: ATOM     21  C   UNL     1     141.680  77.994 220.355 -0.27 -0.05    +0.088 C  
DOCKED: ATOM     22  C   UNL     1     140.320  77.557 217.810 -0.05 -0.01    +0.022 C  
DOCKED: ATOM     23  C   UNL     1     142.203  78.617 219.099 -0.25 -0.02    +0.025 C  
DOCKED: ATOM     24  C   UNL     1     141.776  77.891 217.851 -0.21 -0.00    +0.004 C  
DOCKED: BRANCH  21  25
DOCKED: ATOM     25  C   UNL     1     141.177  78.976 221.387 -0.35 -0.01    +0.012 C  
DOCKED: ATOM     26  C   UNL     1     141.827  78.647 222.693 -0.49 -0.00    +0.006 C  
DOCKED: ATOM     27  C   UNL     1     141.332  80.405 220.968 -0.34 -0.00    +0.006 C  
DOCKED: ATOM     28  C   UNL     1     141.372  79.538 223.826 -0.59 -0.00    +0.000 C  
DOCKED: ATOM     29  C   UNL     1     141.479  81.326 222.187 -0.47 -0.00    +0.000 C  
DOCKED: ATOM     30  C   UNL     1     140.588  80.724 223.263 -0.47 -0.00    +0.000 C  
DOCKED: ENDBRANCH  21  25
DOCKED: ENDBRANCH  17  19
DOCKED: ENDBRANCH   1  17
DOCKED: TORSDOF 5
DOCKED: TER
DOCKED: ENDMDL
________________________________________________________________________________


    FINAL DOCKED STATE:
    ________________________


Run:   13 / 20
Time taken for this run:   0.023s

DOCKED: MODEL        13
DOCKED: USER    Run = 13
DOCKED: USER
DOCKED: USER    Estimated Free Energy of Binding    =  -8.76 kcal/mol  [=(1)+(2)+(3)-(4)]
DOCKED: USER
DOCKED: USER    (1) Final Intermolecular Energy     = -10.25 kcal/mol
DOCKED: USER        vdW + Hbond + desolv Energy     = -10.25 kcal/mol
DOCKED: USER        Electrostatic Energy            =  +0.01 kcal/mol
DOCKED: USER        Moving Ligand-Fixed Receptor    = -10.25 kcal/mol
DOCKED: USER        Moving Ligand-Moving Receptor   =  +0.00 kcal/mol
DOCKED: USER    (2) Final Total Internal Energy     =  -1.39 kcal/mol
DOCKED: USER    (3) Torsional Free Energy           =  +1.49 kcal/mol
DOCKED: USER    (4) Unbound System's Energy         =  -1.39 kcal/mol
DOCKED: USER
DOCKED: USER
DOCKED: REMARK SMILES O=C(NCC(=O)N1CCCC[C@H]1C1CCCCC1)c1ccc2cc(Cl)ccc2n1
DOCKED: REMARK SMILES IDX 4 1 3 2 2 3 1 4 19 6 20 7 29 8 21 9 28 10 22 11 27 12 23 13
DOCKED: REMARK SMILES IDX 26 14 24 15 25 16 5 17 6 18 7 19 8 20 12 21 9 22 11 23 10 24
DOCKED: REMARK SMILES IDX 13 25 14 26 18 27 15 28 17 29 16 30
DOCKED: REMARK H PARENT 3 5
DOCKED: USER                              x       y       z     vdW  Elec       q    Type
DOCKED: USER                           _______ _______ _______ _____ _____    ______ ____
DOCKED: ROOT
DOCKED: ATOM      1  C   UNL     1     139.383  74.780 220.798 -0.12 -0.05    +0.216 C  
DOCKED: ENDROOT
DOCKED: BRANCH   1   2
DOCKED: ATOM      2  N   UNL     1     139.270  73.918 221.961 -0.14 +0.07    -0.342 N  
DOCKED: ATOM      3  C   UNL     1     140.170  72.802 222.010 -0.20 -0.03    +0.270 C  
DOCKED: ATOM      4  O   UNL     1     140.960  72.687 221.044 -0.15 +0.04    -0.268 OA 
DOCKED: ATOM      5  H   UNL     1     138.586  74.072 222.733 -0.56 -0.08    +0.164 HD 
DOCKED: BRANCH   3   6
DOCKED: ATOM      6  C   UNL     1     140.157  71.861 223.124 -0.30 -0.02    +0.128 A  
DOCKED: ATOM      7  C   UNL     1     139.638  70.614 222.910 -0.24 -0.01    +0.035 A  
DOCKED: ATOM      8  N   UNL     1     140.627  72.151 224.346 -0.08 +0.03    -0.243 NA 
DOCKED: ATOM      9  C   UNL     1     139.593  69.675 223.915 -0.28 -0.00    +0.013 A  
DOCKED: ATOM     10  C   UNL     1     140.605  71.255 225.370 -0.52 -0.01    +0.071 A  
DOCKED: ATOM     11  C   UNL     1     140.091  70.010 225.173 -0.44 -0.00    +0.002 A  
DOCKED: ATOM     12  C   UNL     1     141.102  71.607 226.607 -0.70 -0.00    +0.030 A  
DOCKED: ATOM     13  C   UNL     1     140.038  69.052 226.169 -0.50 -0.01    +0.030 A  
DOCKED: ATOM     14  C   UNL     1     141.054  70.656 227.613 -0.63 -0.00    +0.023 A  
DOCKED: ATOM     15  C   UNL     1     140.536  69.403 227.411 -0.57 -0.01    +0.041 A  
DOCKED: ATOM     16  Cl  UNL     1     140.485  68.210 228.707 -0.54 +0.02    -0.084 Cl 
DOCKED: ENDBRANCH   3   6
DOCKED: ENDBRANCH   1   2
DOCKED: BRANCH   1  17
DOCKED: ATOM     17  C   UNL     1     140.063  76.011 221.246 -0.20 -0.06    +0.242 C  
DOCKED: ATOM     18  O   UNL     1     141.333  76.003 221.214 -0.23 +0.11    -0.273 OA 
DOCKED: BRANCH  17  19
DOCKED: ATOM     19  N   UNL     1     139.341  77.176 221.700 -0.10 +0.08    -0.338 N  
DOCKED: ATOM     20  C   UNL     1     138.349  76.969 222.717 -0.24 -0.02    +0.120 C  
DOCKED: ATOM     21  C   UNL     1     139.666  78.448 221.106 -0.15 -0.02    +0.088 C  
DOCKED: ATOM     22  C   UNL     1     137.220  77.920 222.606 -0.20 -0.00    +0.022 C  
DOCKED: ATOM     23  C   UNL     1     138.538  79.430 221.084 -0.11 -0.01    +0.025 C  
DOCKED: ATOM     24  C   UNL     1     137.204  78.811 221.406 -0.10 -0.00    +0.004 C  
DOCKED: BRANCH  21  25
DOCKED: ATOM     25  C   UNL     1     140.931  78.951 221.763 -0.36 -0.00    +0.012 C  
DOCKED: ATOM     26  C   UNL     1     140.917  80.445 221.709 -0.36 -0.00    +0.006 C  
DOCKED: ATOM     27  C   UNL     1     141.146  78.389 223.134 -0.52 -0.00    +0.006 C  
DOCKED: ATOM     28  C   UNL     1     142.157  81.073 222.302 -0.50 -0.00    +0.000 C  
DOCKED: ATOM     29  C   UNL     1     141.961  79.354 224.006 -0.54 -0.00    +0.000 C  
DOCKED: ATOM     30  C   UNL     1     142.956  80.014 223.062 -0.65 -0.00    +0.000 C  
DOCKED: ENDBRANCH  21  25
DOCKED: ENDBRANCH  17  19
DOCKED: ENDBRANCH   1  17
DOCKED: TORSDOF 5
DOCKED: TER
DOCKED: ENDMDL
________________________________________________________________________________


    FINAL DOCKED STATE:
    ________________________


Run:   14 / 20
Time taken for this run:   0.023s

DOCKED: MODEL        14
DOCKED: USER    Run = 14
DOCKED: USER
DOCKED: USER    Estimated Free Energy of Binding    =  -8.64 kcal/mol  [=(1)+(2)+(3)-(4)]
DOCKED: USER
DOCKED: USER    (1) Final Intermolecular Energy     = -10.13 kcal/mol
DOCKED: USER        vdW + Hbond + desolv Energy     = -10.11 kcal/mol
DOCKED: USER        Electrostatic Energy            =  -0.02 kcal/mol
DOCKED: USER        Moving Ligand-Fixed Receptor    = -10.13 kcal/mol
DOCKED: USER        Moving Ligand-Moving Receptor   =  +0.00 kcal/mol
DOCKED: USER    (2) Final Total Internal Energy     =  -2.05 kcal/mol
DOCKED: USER    (3) Torsional Free Energy           =  +1.49 kcal/mol
DOCKED: USER    (4) Unbound System's Energy         =  -2.05 kcal/mol
DOCKED: USER
DOCKED: USER
DOCKED: REMARK SMILES O=C(NCC(=O)N1CCCC[C@H]1C1CCCCC1)c1ccc2cc(Cl)ccc2n1
DOCKED: REMARK SMILES IDX 4 1 3 2 2 3 1 4 19 6 20 7 29 8 21 9 28 10 22 11 27 12 23 13
DOCKED: REMARK SMILES IDX 26 14 24 15 25 16 5 17 6 18 7 19 8 20 12 21 9 22 11 23 10 24
DOCKED: REMARK SMILES IDX 13 25 14 26 18 27 15 28 17 29 16 30
DOCKED: REMARK H PARENT 3 5
DOCKED: USER                              x       y       z     vdW  Elec       q    Type
DOCKED: USER                           _______ _______ _______ _____ _____    ______ ____
DOCKED: ROOT
DOCKED: ATOM      1  C   UNL     1     139.409  74.751 220.933 -0.14 -0.05    +0.216 C  
DOCKED: ENDROOT
DOCKED: BRANCH   1   2
DOCKED: ATOM      2  N   UNL     1     139.536  73.958 222.143 -0.13 +0.06    -0.342 N  
DOCKED: ATOM      3  C   UNL     1     139.701  72.545 221.958 -0.18 -0.05    +0.270 C  
DOCKED: ATOM      4  O   UNL     1     139.719  72.142 220.771 -0.06 +0.05    -0.268 OA 
DOCKED: ATOM      5  H   UNL     1     139.512  74.360 223.105 -0.53 -0.02    +0.164 HD 
DOCKED: BRANCH   3   6
DOCKED: ATOM      6  C   UNL     1     139.839  71.640 223.092 -0.29 -0.02    +0.128 A  
DOCKED: ATOM      7  C   UNL     1     139.440  70.341 222.935 -0.23 -0.01    +0.035 A  
DOCKED: ATOM      8  N   UNL     1     140.337  72.009 224.281 -0.22 +0.04    -0.243 NA 
DOCKED: ATOM      9  C   UNL     1     139.541  69.431 223.962 -0.26 -0.00    +0.013 A  
DOCKED: ATOM     10  C   UNL     1     140.456  71.145 225.325 -0.51 -0.01    +0.071 A  
DOCKED: ATOM     11  C   UNL     1     140.063  69.849 225.184 -0.43 -0.00    +0.002 A  
DOCKED: ATOM     12  C   UNL     1     140.976  71.581 226.527 -0.69 -0.00    +0.030 A  
DOCKED: ATOM     13  C   UNL     1     140.157  68.920 226.204 -0.52 -0.01    +0.030 A  
DOCKED: ATOM     14  C   UNL     1     141.074  70.658 227.556 -0.63 -0.00    +0.023 A  
DOCKED: ATOM     15  C   UNL     1     140.677  69.354 227.409 -0.58 -0.01    +0.041 A  
DOCKED: ATOM     16  Cl  UNL     1     140.813  68.199 228.733 -0.65 +0.02    -0.084 Cl 
DOCKED: ENDBRANCH   3   6
DOCKED: ENDBRANCH   1   2
DOCKED: BRANCH   1  17
DOCKED: ATOM     17  C   UNL     1     139.653  76.155 221.317 -0.18 -0.06    +0.242 C  
DOCKED: ATOM     18  O   UNL     1     139.399  76.468 222.523 -0.28 +0.05    -0.273 OA 
DOCKED: BRANCH  17  19
DOCKED: ATOM     19  N   UNL     1     140.156  77.138 220.387 -0.03 +0.11    -0.338 N  
DOCKED: ATOM     20  C   UNL     1     139.336  77.432 219.247 -0.04 -0.03    +0.120 C  
DOCKED: ATOM     21  C   UNL     1     141.432  77.747 220.671 -0.27 -0.05    +0.088 C  
DOCKED: ATOM     22  C   UNL     1     140.135  77.803 218.057 -0.05 -0.01    +0.022 C  
DOCKED: ATOM     23  C   UNL     1     142.186  78.198 219.460 -0.24 -0.02    +0.025 C  
DOCKED: ATOM     24  C   UNL     1     141.619  77.665 218.171 -0.19 -0.00    +0.004 C  
DOCKED: BRANCH  21  25
DOCKED: ATOM     25  C   UNL     1     141.207  78.818 221.713 -0.38 -0.00    +0.012 C  
DOCKED: ATOM     26  C   UNL     1     141.669  78.283 223.031 -0.42 -0.00    +0.006 C  
DOCKED: ATOM     27  C   UNL     1     141.808  80.138 221.342 -0.42 -0.00    +0.006 C  
DOCKED: ATOM     28  C   UNL     1     141.458  79.251 224.172 -0.50 -0.00    +0.000 C  
DOCKED: ATOM     29  C   UNL     1     142.176  80.950 222.591 -0.56 -0.00    +0.000 C  
DOCKED: ATOM     30  C   UNL     1     141.098  80.630 223.616 -0.51 -0.00    +0.000 C  
DOCKED: ENDBRANCH  21  25
DOCKED: ENDBRANCH  17  19
DOCKED: ENDBRANCH   1  17
DOCKED: TORSDOF 5
DOCKED: TER
DOCKED: ENDMDL
________________________________________________________________________________


    FINAL DOCKED STATE:
    ________________________


Run:   15 / 20
Time taken for this run:   0.023s

DOCKED: MODEL        15
DOCKED: USER    Run = 15
DOCKED: USER
DOCKED: USER    Estimated Free Energy of Binding    =  -8.10 kcal/mol  [=(1)+(2)+(3)-(4)]
DOCKED: USER
DOCKED: USER    (1) Final Intermolecular Energy     =  -9.60 kcal/mol
DOCKED: USER        vdW + Hbond + desolv Energy     =  -9.64 kcal/mol
DOCKED: USER        Electrostatic Energy            =  +0.05 kcal/mol
DOCKED: USER        Moving Ligand-Fixed Receptor    =  -9.60 kcal/mol
DOCKED: USER        Moving Ligand-Moving Receptor   =  +0.00 kcal/mol
DOCKED: USER    (2) Final Total Internal Energy     =  -2.05 kcal/mol
DOCKED: USER    (3) Torsional Free Energy           =  +1.49 kcal/mol
DOCKED: USER    (4) Unbound System's Energy         =  -2.05 kcal/mol
DOCKED: USER
DOCKED: USER
DOCKED: REMARK SMILES O=C(NCC(=O)N1CCCC[C@H]1C1CCCCC1)c1ccc2cc(Cl)ccc2n1
DOCKED: REMARK SMILES IDX 4 1 3 2 2 3 1 4 19 6 20 7 29 8 21 9 28 10 22 11 27 12 23 13
DOCKED: REMARK SMILES IDX 26 14 24 15 25 16 5 17 6 18 7 19 8 20 12 21 9 22 11 23 10 24
DOCKED: REMARK SMILES IDX 13 25 14 26 18 27 15 28 17 29 16 30
DOCKED: REMARK H PARENT 3 5
DOCKED: USER                              x       y       z     vdW  Elec       q    Type
DOCKED: USER                           _______ _______ _______ _____ _____    ______ ____
DOCKED: ROOT
DOCKED: ATOM      1  C   UNL     1     140.362  74.780 220.795 -0.17 -0.05    +0.216 C  
DOCKED: ENDROOT
DOCKED: BRANCH   1   2
DOCKED: ATOM      2  N   UNL     1     140.568  73.934 221.958 -0.15 +0.01    -0.342 N  
DOCKED: ATOM      3  C   UNL     1     139.780  72.737 222.016 -0.19 -0.04    +0.270 C  
DOCKED: ATOM      4  O   UNL     1     138.994  72.546 221.058 -0.07 +0.05    -0.268 OA 
DOCKED: ATOM      5  H   UNL     1     141.241  74.155 222.723 +0.11 +0.06    +0.164 HD 
DOCKED: BRANCH   3   6
DOCKED: ATOM      6  C   UNL     1     139.892  71.805 223.131 -0.30 -0.02    +0.128 A  
DOCKED: ATOM      7  C   UNL     1     139.472  70.517 222.942 -0.24 -0.01    +0.035 A  
DOCKED: ATOM      8  N   UNL     1     140.386  72.140 224.332 -0.13 +0.04    -0.243 NA 
DOCKED: ATOM      9  C   UNL     1     139.549  69.583 223.950 -0.28 -0.00    +0.013 A  
DOCKED: ATOM     10  C   UNL     1     140.482  71.251 225.358 -0.51 -0.01    +0.071 A  
DOCKED: ATOM     11  C   UNL     1     140.068  69.966 225.186 -0.44 -0.00    +0.002 A  
DOCKED: ATOM     12  C   UNL     1     140.998  71.652 226.573 -0.69 -0.00    +0.030 A  
DOCKED: ATOM     13  C   UNL     1     140.137  69.013 226.185 -0.51 -0.01    +0.030 A  
DOCKED: ATOM     14  C   UNL     1     141.072  70.705 227.582 -0.64 -0.00    +0.023 A  
DOCKED: ATOM     15  C   UNL     1     140.654  69.412 227.404 -0.57 -0.01    +0.041 A  
DOCKED: ATOM     16  Cl  UNL     1     140.758  68.226 228.704 -0.66 +0.02    -0.084 Cl 
DOCKED: ENDBRANCH   3   6
DOCKED: ENDBRANCH   1   2
DOCKED: BRANCH   1  17
DOCKED: ATOM     17  C   UNL     1     140.742  76.149 221.193 -0.22 -0.08    +0.242 C  
DOCKED: ATOM     18  O   UNL     1     141.059  76.321 222.412 -0.34 +0.09    -0.273 OA 
DOCKED: BRANCH  17  19
DOCKED: ATOM     19  N   UNL     1     140.761  77.252 220.261 -0.06 +0.13    -0.338 N  
DOCKED: ATOM     20  C   UNL     1     139.732  77.272 219.260 -0.05 -0.04    +0.120 C  
DOCKED: ATOM     21  C   UNL     1     141.800  78.241 220.403 -0.27 -0.05    +0.088 C  
DOCKED: ATOM     22  C   UNL     1     140.186  77.895 217.996 -0.05 -0.01    +0.022 C  
DOCKED: ATOM     23  C   UNL     1     142.183  78.925 219.129 -0.24 -0.02    +0.025 C  
DOCKED: ATOM     24  C   UNL     1     141.635  78.248 217.901 -0.20 -0.00    +0.004 C  
DOCKED: BRANCH  21  25
DOCKED: ATOM     25  C   UNL     1     141.397  79.170 221.525 -0.38 -0.01    +0.012 C  
DOCKED: ATOM     26  C   UNL     1     142.401  79.027 222.625 -0.46 -0.00    +0.006 C  
DOCKED: ATOM     27  C   UNL     1     141.179  80.580 221.074 -0.34 -0.00    +0.006 C  
DOCKED: ATOM     28  C   UNL     1     142.085  79.880 223.832 -0.63 -0.00    +0.000 C  
DOCKED: ATOM     29  C   UNL     1     141.453  81.574 222.211 -0.46 -0.00    +0.000 C  
DOCKED: ATOM     30  C   UNL     1     140.982  80.879 223.480 -0.52 -0.00    +0.000 C  
DOCKED: ENDBRANCH  21  25
DOCKED: ENDBRANCH  17  19
DOCKED: ENDBRANCH   1  17
DOCKED: TORSDOF 5
DOCKED: TER
DOCKED: ENDMDL
________________________________________________________________________________


    FINAL DOCKED STATE:
    ________________________


Run:   16 / 20
Time taken for this run:   0.023s

DOCKED: MODEL        16
DOCKED: USER    Run = 16
DOCKED: USER
DOCKED: USER    Estimated Free Energy of Binding    =  -8.11 kcal/mol  [=(1)+(2)+(3)-(4)]
DOCKED: USER
DOCKED: USER    (1) Final Intermolecular Energy     =  -9.60 kcal/mol
DOCKED: USER        vdW + Hbond + desolv Energy     =  -9.58 kcal/mol
DOCKED: USER        Electrostatic Energy            =  -0.02 kcal/mol
DOCKED: USER        Moving Ligand-Fixed Receptor    =  -9.60 kcal/mol
DOCKED: USER        Moving Ligand-Moving Receptor   =  +0.00 kcal/mol
DOCKED: USER    (2) Final Total Internal Energy     =  -1.48 kcal/mol
DOCKED: USER    (3) Torsional Free Energy           =  +1.49 kcal/mol
DOCKED: USER    (4) Unbound System's Energy         =  -1.48 kcal/mol
DOCKED: USER
DOCKED: USER
DOCKED: REMARK SMILES O=C(NCC(=O)N1CCCC[C@H]1C1CCCCC1)c1ccc2cc(Cl)ccc2n1
DOCKED: REMARK SMILES IDX 4 1 3 2 2 3 1 4 19 6 20 7 29 8 21 9 28 10 22 11 27 12 23 13
DOCKED: REMARK SMILES IDX 26 14 24 15 25 16 5 17 6 18 7 19 8 20 12 21 9 22 11 23 10 24
DOCKED: REMARK SMILES IDX 13 25 14 26 18 27 15 28 17 29 16 30
DOCKED: REMARK H PARENT 3 5
DOCKED: USER                              x       y       z     vdW  Elec       q    Type
DOCKED: USER                           _______ _______ _______ _____ _____    ______ ____
DOCKED: ROOT
DOCKED: ATOM      1  C   UNL     1     139.373  74.780 220.940 -0.14 -0.05    +0.216 C  
DOCKED: ENDROOT
DOCKED: BRANCH   1   2
DOCKED: ATOM      2  N   UNL     1     139.399  73.959 222.137 -0.12 +0.07    -0.342 N  
DOCKED: ATOM      3  C   UNL     1     139.910  72.628 221.979 -0.19 -0.04    +0.270 C  
DOCKED: ATOM      4  O   UNL     1     140.280  72.312 220.824 -0.09 +0.04    -0.268 OA 
DOCKED: ATOM      5  H   UNL     1     139.074  74.286 223.072 -0.55 -0.07    +0.164 HD 
DOCKED: BRANCH   3   6
DOCKED: ATOM      6  C   UNL     1     139.989  71.704 223.104 -0.30 -0.02    +0.128 A  
DOCKED: ATOM      7  C   UNL     1     139.552  70.421 222.919 -0.24 -0.01    +0.035 A  
DOCKED: ATOM      8  N   UNL     1     140.467  72.042 224.310 -0.18 +0.03    -0.243 NA 
DOCKED: ATOM      9  C   UNL     1     139.596  69.495 223.936 -0.25 -0.00    +0.013 A  
DOCKED: ATOM     10  C   UNL     1     140.531  71.161 225.345 -0.51 -0.01    +0.071 A  
DOCKED: ATOM     11  C   UNL     1     140.099  69.881 225.177 -0.43 -0.00    +0.002 A  
DOCKED: ATOM     12  C   UNL     1     141.033  71.564 226.566 -0.69 -0.00    +0.030 A  
DOCKED: ATOM     13  C   UNL     1     140.137  68.935 226.185 -0.52 -0.01    +0.030 A  
DOCKED: ATOM     14  C   UNL     1     141.074  70.626 227.584 -0.62 -0.00    +0.023 A  
DOCKED: ATOM     15  C   UNL     1     140.639  69.337 227.410 -0.58 -0.01    +0.041 A  
DOCKED: ATOM     16  Cl  UNL     1     140.702  68.161 228.721 -0.63 +0.02    -0.084 Cl 
DOCKED: ENDBRANCH   3   6
DOCKED: ENDBRANCH   1   2
DOCKED: BRANCH   1  17
DOCKED: ATOM     17  C   UNL     1     140.609  75.587 220.949 -0.19 -0.07    +0.242 C  
DOCKED: ATOM     18  O   UNL     1     141.693  74.968 220.710 -0.20 +0.09    -0.273 OA 
DOCKED: BRANCH  17  19
DOCKED: ATOM     19  N   UNL     1     140.608  77.006 221.214 -0.11 +0.12    -0.338 N  
DOCKED: ATOM     20  C   UNL     1     141.217  77.850 220.226 -0.21 -0.06    +0.120 C  
DOCKED: ATOM     21  C   UNL     1     140.001  77.466 222.437 -0.32 -0.02    +0.088 C  
DOCKED: ATOM     22  C   UNL     1     141.832  79.059 220.818 -0.30 -0.01    +0.022 C  
DOCKED: ATOM     23  C   UNL     1     140.574  78.739 222.973 -0.45 -0.01    +0.025 C  
DOCKED: ATOM     24  C   UNL     1     141.866  79.137 222.310 -0.52 -0.00    +0.004 C  
DOCKED: BRANCH  21  25
DOCKED: ATOM     25  C   UNL     1     138.504  77.484 222.228 -0.27 -0.00    +0.012 C  
DOCKED: ATOM     26  C   UNL     1     137.904  76.424 223.096 -0.20 -0.00    +0.006 C  
DOCKED: ATOM     27  C   UNL     1     137.899  78.841 222.409 -0.22 -0.00    +0.006 C  
DOCKED: ATOM     28  C   UNL     1     136.404  76.311 222.946 -0.25 -0.00    +0.000 C  
DOCKED: ATOM     29  C   UNL     1     136.438  78.738 222.867 -0.17 -0.00    +0.000 C  
DOCKED: ATOM     30  C   UNL     1     135.875  77.513 222.162 -0.13 -0.00    +0.000 C  
DOCKED: ENDBRANCH  21  25
DOCKED: ENDBRANCH  17  19
DOCKED: ENDBRANCH   1  17
DOCKED: TORSDOF 5
DOCKED: TER
DOCKED: ENDMDL
________________________________________________________________________________


    FINAL DOCKED STATE:
    ________________________


Run:   17 / 20
Time taken for this run:   0.023s

DOCKED: MODEL        17
DOCKED: USER    Run = 17
DOCKED: USER
DOCKED: USER    Estimated Free Energy of Binding    =  -8.45 kcal/mol  [=(1)+(2)+(3)-(4)]
DOCKED: USER
DOCKED: USER    (1) Final Intermolecular Energy     =  -9.94 kcal/mol
DOCKED: USER        vdW + Hbond + desolv Energy     =  -9.91 kcal/mol
DOCKED: USER        Electrostatic Energy            =  -0.04 kcal/mol
DOCKED: USER        Moving Ligand-Fixed Receptor    =  -9.94 kcal/mol
DOCKED: USER        Moving Ligand-Moving Receptor   =  +0.00 kcal/mol
DOCKED: USER    (2) Final Total Internal Energy     =  -2.13 kcal/mol
DOCKED: USER    (3) Torsional Free Energy           =  +1.49 kcal/mol
DOCKED: USER    (4) Unbound System's Energy         =  -2.13 kcal/mol
DOCKED: USER
DOCKED: USER
DOCKED: REMARK SMILES O=C(NCC(=O)N1CCCC[C@H]1C1CCCCC1)c1ccc2cc(Cl)ccc2n1
DOCKED: REMARK SMILES IDX 4 1 3 2 2 3 1 4 19 6 20 7 29 8 21 9 28 10 22 11 27 12 23 13
DOCKED: REMARK SMILES IDX 26 14 24 15 25 16 5 17 6 18 7 19 8 20 12 21 9 22 11 23 10 24
DOCKED: REMARK SMILES IDX 13 25 14 26 18 27 15 28 17 29 16 30
DOCKED: REMARK H PARENT 3 5
DOCKED: USER                              x       y       z     vdW  Elec       q    Type
DOCKED: USER                           _______ _______ _______ _____ _____    ______ ____
DOCKED: ROOT
DOCKED: ATOM      1  C   UNL     1     139.610  74.912 220.981 -0.15 -0.05    +0.216 C  
DOCKED: ENDROOT
DOCKED: BRANCH   1   2
DOCKED: ATOM      2  N   UNL     1     139.582  74.077 222.168 -0.12 +0.05    -0.342 N  
DOCKED: ATOM      3  C   UNL     1     140.063  72.735 222.010 -0.20 -0.04    +0.270 C  
DOCKED: ATOM      4  O   UNL     1     140.457  72.423 220.861 -0.10 +0.04    -0.268 OA 
DOCKED: ATOM      5  H   UNL     1     139.238  74.403 223.098 -0.55 -0.05    +0.164 HD 
DOCKED: BRANCH   3   6
DOCKED: ATOM      6  C   UNL     1     140.086  71.797 223.125 -0.30 -0.02    +0.128 A  
DOCKED: ATOM      7  C   UNL     1     139.589  70.539 222.922 -0.24 -0.01    +0.035 A  
DOCKED: ATOM      8  N   UNL     1     140.569  72.099 224.339 -0.13 +0.03    -0.243 NA 
DOCKED: ATOM      9  C   UNL     1     139.580  69.602 223.930 -0.28 -0.00    +0.013 A  
DOCKED: ATOM     10  C   UNL     1     140.580  71.206 225.365 -0.51 -0.01    +0.071 A  
DOCKED: ATOM     11  C   UNL     1     140.089  69.950 225.179 -0.44 -0.00    +0.002 A  
DOCKED: ATOM     12  C   UNL     1     141.089  71.571 226.595 -0.70 -0.00    +0.030 A  
DOCKED: ATOM     13  C   UNL     1     140.071  68.993 226.178 -0.51 -0.01    +0.030 A  
DOCKED: ATOM     14  C   UNL     1     141.075  70.622 227.603 -0.62 -0.00    +0.023 A  
DOCKED: ATOM     15  C   UNL     1     140.580  69.358 227.411 -0.58 -0.01    +0.041 A  
DOCKED: ATOM     16  Cl  UNL     1     140.574  68.167 228.711 -0.57 +0.02    -0.084 Cl 
DOCKED: ENDBRANCH   3   6
DOCKED: ENDBRANCH   1   2
DOCKED: BRANCH   1  17
DOCKED: ATOM     17  C   UNL     1     140.709  75.880 221.167 -0.22 -0.07    +0.242 C  
DOCKED: ATOM     18  O   UNL     1     140.747  76.490 222.281 -0.33 +0.08    -0.273 OA 
DOCKED: BRANCH  17  19
DOCKED: ATOM     19  N   UNL     1     141.700  76.134 220.149 -0.11 +0.15    -0.338 N  
DOCKED: ATOM     20  C   UNL     1     142.202  77.476 220.053 -0.25 -0.08    +0.120 C  
DOCKED: ATOM     21  C   UNL     1     142.111  75.033 219.314 -0.17 -0.03    +0.088 C  
DOCKED: ATOM     22  C   UNL     1     142.575  77.841 218.668 -0.31 -0.02    +0.022 C  
DOCKED: ATOM     23  C   UNL     1     142.571  75.430 217.947 -0.16 -0.01    +0.025 C  
DOCKED: ATOM     24  C   UNL     1     142.237  76.855 217.596 -0.20 -0.00    +0.004 C  
DOCKED: BRANCH  21  25
DOCKED: ATOM     25  C   UNL     1     143.101  74.206 220.101 -0.32 -0.00    +0.012 C  
DOCKED: ATOM     26  C   UNL     1     143.137  72.836 219.502 -0.20 -0.00    +0.006 C  
DOCKED: ATOM     27  C   UNL     1     144.444  74.855 220.227 -0.36 -0.00    +0.006 C  
DOCKED: ATOM     28  C   UNL     1     144.067  71.893 220.230 -0.32 -0.00    +0.000 C  
DOCKED: ATOM     29  C   UNL     1     145.553  73.807 220.383 -0.59 -0.00    +0.000 C  
DOCKED: ATOM     30  C   UNL     1     144.940  72.683 221.205 -0.36 -0.00    +0.000 C  
DOCKED: ENDBRANCH  21  25
DOCKED: ENDBRANCH  17  19
DOCKED: ENDBRANCH   1  17
DOCKED: TORSDOF 5
DOCKED: TER
DOCKED: ENDMDL
________________________________________________________________________________


    FINAL DOCKED STATE:
    ________________________


Run:   18 / 20
Time taken for this run:   0.023s

DOCKED: MODEL        18
DOCKED: USER    Run = 18
DOCKED: USER
DOCKED: USER    Estimated Free Energy of Binding    =  -8.63 kcal/mol  [=(1)+(2)+(3)-(4)]
DOCKED: USER
DOCKED: USER    (1) Final Intermolecular Energy     = -10.12 kcal/mol
DOCKED: USER        vdW + Hbond + desolv Energy     = -10.09 kcal/mol
DOCKED: USER        Electrostatic Energy            =  -0.03 kcal/mol
DOCKED: USER        Moving Ligand-Fixed Receptor    = -10.12 kcal/mol
DOCKED: USER        Moving Ligand-Moving Receptor   =  +0.00 kcal/mol
DOCKED: USER    (2) Final Total Internal Energy     =  -2.05 kcal/mol
DOCKED: USER    (3) Torsional Free Energy           =  +1.49 kcal/mol
DOCKED: USER    (4) Unbound System's Energy         =  -2.05 kcal/mol
DOCKED: USER
DOCKED: USER
DOCKED: REMARK SMILES O=C(NCC(=O)N1CCCC[C@H]1C1CCCCC1)c1ccc2cc(Cl)ccc2n1
DOCKED: REMARK SMILES IDX 4 1 3 2 2 3 1 4 19 6 20 7 29 8 21 9 28 10 22 11 27 12 23 13
DOCKED: REMARK SMILES IDX 26 14 24 15 25 16 5 17 6 18 7 19 8 20 12 21 9 22 11 23 10 24
DOCKED: REMARK SMILES IDX 13 25 14 26 18 27 15 28 17 29 16 30
DOCKED: REMARK H PARENT 3 5
DOCKED: USER                              x       y       z     vdW  Elec       q    Type
DOCKED: USER                           _______ _______ _______ _____ _____    ______ ____
DOCKED: ROOT
DOCKED: ATOM      1  C   UNL     1     139.485  74.750 220.928 -0.14 -0.05    +0.216 C  
DOCKED: ENDROOT
DOCKED: BRANCH   1   2
DOCKED: ATOM      2  N   UNL     1     139.579  73.951 222.137 -0.13 +0.05    -0.342 N  
DOCKED: ATOM      3  C   UNL     1     139.788  72.544 221.950 -0.18 -0.05    +0.270 C  
DOCKED: ATOM      4  O   UNL     1     139.868  72.151 220.762 -0.07 +0.05    -0.268 OA 
DOCKED: ATOM      5  H   UNL     1     139.503  74.344 223.100 -0.53 -0.02    +0.164 HD 
DOCKED: BRANCH   3   6
DOCKED: ATOM      6  C   UNL     1     139.899  71.633 223.082 -0.29 -0.02    +0.128 A  
DOCKED: ATOM      7  C   UNL     1     139.466  70.345 222.921 -0.23 -0.01    +0.035 A  
DOCKED: ATOM      8  N   UNL     1     140.403  71.988 224.274 -0.22 +0.04    -0.243 NA 
DOCKED: ATOM      9  C   UNL     1     139.541  69.431 223.947 -0.26 -0.00    +0.013 A  
DOCKED: ATOM     10  C   UNL     1     140.496  71.118 225.316 -0.51 -0.01    +0.071 A  
DOCKED: ATOM     11  C   UNL     1     140.069  69.834 225.172 -0.43 -0.00    +0.002 A  
DOCKED: ATOM     12  C   UNL     1     141.022  71.538 226.521 -0.69 -0.00    +0.030 A  
DOCKED: ATOM     13  C   UNL     1     140.136  68.900 226.189 -0.52 -0.01    +0.030 A  
DOCKED: ATOM     14  C   UNL     1     141.094  70.612 227.548 -0.61 -0.00    +0.023 A  
DOCKED: ATOM     15  C   UNL     1     140.664  69.318 227.398 -0.58 -0.01    +0.041 A  
DOCKED: ATOM     16  Cl  UNL     1     140.765  68.158 228.720 -0.64 +0.02    -0.084 Cl 
DOCKED: ENDBRANCH   3   6
DOCKED: ENDBRANCH   1   2
DOCKED: BRANCH   1  17
DOCKED: ATOM     17  C   UNL     1     139.819  76.137 221.308 -0.19 -0.06    +0.242 C  
DOCKED: ATOM     18  O   UNL     1     139.723  76.427 222.542 -0.30 +0.05    -0.273 OA 
DOCKED: BRANCH  17  19
DOCKED: ATOM     19  N   UNL     1     140.236  77.127 220.344 -0.04 +0.11    -0.338 N  
DOCKED: ATOM     20  C   UNL     1     139.385  77.322 219.205 -0.04 -0.03    +0.120 C  
DOCKED: ATOM     21  C   UNL     1     141.462  77.841 220.595 -0.27 -0.05    +0.088 C  
DOCKED: ATOM     22  C   UNL     1     140.141  77.717 217.996 -0.05 -0.01    +0.022 C  
DOCKED: ATOM     23  C   UNL     1     142.168  78.313 219.363 -0.24 -0.02    +0.025 C  
DOCKED: ATOM     24  C   UNL     1     141.633  77.699 218.097 -0.19 -0.00    +0.004 C  
DOCKED: BRANCH  21  25
DOCKED: ATOM     25  C   UNL     1     141.164  78.923 221.608 -0.37 -0.00    +0.012 C  
DOCKED: ATOM     26  C   UNL     1     141.824  78.544 222.895 -0.46 -0.00    +0.006 C  
DOCKED: ATOM     27  C   UNL     1     141.509  80.297 221.123 -0.37 -0.00    +0.006 C  
DOCKED: ATOM     28  C   UNL     1     141.565  79.531 224.009 -0.52 -0.00    +0.000 C  
DOCKED: ATOM     29  C   UNL     1     141.854  81.226 222.294 -0.51 -0.00    +0.000 C  
DOCKED: ATOM     30  C   UNL     1     140.939  80.802 223.434 -0.51 -0.00    +0.000 C  
DOCKED: ENDBRANCH  21  25
DOCKED: ENDBRANCH  17  19
DOCKED: ENDBRANCH   1  17
DOCKED: TORSDOF 5
DOCKED: TER
DOCKED: ENDMDL
________________________________________________________________________________


    FINAL DOCKED STATE:
    ________________________


Run:   19 / 20
Time taken for this run:   0.023s

DOCKED: MODEL        19
DOCKED: USER    Run = 19
DOCKED: USER
DOCKED: USER    Estimated Free Energy of Binding    =  -8.71 kcal/mol  [=(1)+(2)+(3)-(4)]
DOCKED: USER
DOCKED: USER    (1) Final Intermolecular Energy     = -10.20 kcal/mol
DOCKED: USER        vdW + Hbond + desolv Energy     = -10.14 kcal/mol
DOCKED: USER        Electrostatic Energy            =  -0.06 kcal/mol
DOCKED: USER        Moving Ligand-Fixed Receptor    = -10.20 kcal/mol
DOCKED: USER        Moving Ligand-Moving Receptor   =  +0.00 kcal/mol
DOCKED: USER    (2) Final Total Internal Energy     =  -1.96 kcal/mol
DOCKED: USER    (3) Torsional Free Energy           =  +1.49 kcal/mol
DOCKED: USER    (4) Unbound System's Energy         =  -1.96 kcal/mol
DOCKED: USER
DOCKED: USER
DOCKED: REMARK SMILES O=C(NCC(=O)N1CCCC[C@H]1C1CCCCC1)c1ccc2cc(Cl)ccc2n1
DOCKED: REMARK SMILES IDX 4 1 3 2 2 3 1 4 19 6 20 7 29 8 21 9 28 10 22 11 27 12 23 13
DOCKED: REMARK SMILES IDX 26 14 24 15 25 16 5 17 6 18 7 19 8 20 12 21 9 22 11 23 10 24
DOCKED: REMARK SMILES IDX 13 25 14 26 18 27 15 28 17 29 16 30
DOCKED: REMARK H PARENT 3 5
DOCKED: USER                              x       y       z     vdW  Elec       q    Type
DOCKED: USER                           _______ _______ _______ _____ _____    ______ ____
DOCKED: ROOT
DOCKED: ATOM      1  C   UNL     1     139.361  74.736 220.924 -0.14 -0.05    +0.216 C  
DOCKED: ENDROOT
DOCKED: BRANCH   1   2
DOCKED: ATOM      2  N   UNL     1     139.418  73.930 222.131 -0.12 +0.07    -0.342 N  
DOCKED: ATOM      3  C   UNL     1     139.822  72.564 221.961 -0.19 -0.04    +0.270 C  
DOCKED: ATOM      4  O   UNL     1     140.083  72.208 220.787 -0.08 +0.04    -0.268 OA 
DOCKED: ATOM      5  H   UNL     1     139.186  74.292 223.081 -0.55 -0.06    +0.164 HD 
DOCKED: BRANCH   3   6
DOCKED: ATOM      6  C   UNL     1     139.918  71.651 223.093 -0.29 -0.02    +0.128 A  
DOCKED: ATOM      7  C   UNL     1     139.480  70.366 222.927 -0.23 -0.01    +0.035 A  
DOCKED: ATOM      8  N   UNL     1     140.415  72.001 224.289 -0.21 +0.04    -0.243 NA 
DOCKED: ATOM      9  C   UNL     1     139.541  69.450 223.952 -0.26 -0.00    +0.013 A  
DOCKED: ATOM     10  C   UNL     1     140.495  71.131 225.331 -0.51 -0.01    +0.071 A  
DOCKED: ATOM     11  C   UNL     1     140.062  69.848 225.182 -0.43 -0.00    +0.002 A  
DOCKED: ATOM     12  C   UNL     1     141.014  71.546 226.540 -0.69 -0.00    +0.030 A  
DOCKED: ATOM     13  C   UNL     1     140.116  68.913 226.199 -0.52 -0.01    +0.030 A  
DOCKED: ATOM     14  C   UNL     1     141.072  70.618 227.567 -0.62 -0.00    +0.023 A  
DOCKED: ATOM     15  C   UNL     1     140.636  69.327 227.412 -0.58 -0.01    +0.041 A  
DOCKED: ATOM     16  Cl  UNL     1     140.720  68.164 228.733 -0.63 +0.02    -0.084 Cl 
DOCKED: ENDBRANCH   3   6
DOCKED: ENDBRANCH   1   2
DOCKED: BRANCH   1  17
DOCKED: ATOM     17  C   UNL     1     139.695  76.118 221.319 -0.18 -0.06    +0.242 C  
DOCKED: ATOM     18  O   UNL     1     139.538  76.413 222.546 -0.29 +0.05    -0.273 OA 
DOCKED: BRANCH  17  19
DOCKED: ATOM     19  N   UNL     1     140.178  77.099 220.378 -0.04 +0.11    -0.338 N  
DOCKED: ATOM     20  C   UNL     1     139.344  77.374 219.242 -0.04 -0.03    +0.120 C  
DOCKED: ATOM     21  C   UNL     1     141.449  77.726 220.645 -0.27 -0.05    +0.088 C  
DOCKED: ATOM     22  C   UNL     1     140.128  77.745 218.042 -0.05 -0.01    +0.022 C  
DOCKED: ATOM     23  C   UNL     1     142.186  78.176 219.424 -0.25 -0.02    +0.025 C  
DOCKED: ATOM     24  C   UNL     1     141.614  77.626 218.145 -0.19 -0.00    +0.004 C  
DOCKED: BRANCH  21  25
DOCKED: ATOM     25  C   UNL     1     141.220  78.802 221.681 -0.38 -0.01    +0.012 C  
DOCKED: ATOM     26  C   UNL     1     141.675  78.274 223.004 -0.41 -0.00    +0.006 C  
DOCKED: ATOM     27  C   UNL     1     141.824  80.120 221.306 -0.42 -0.00    +0.006 C  
DOCKED: ATOM     28  C   UNL     1     141.460  79.248 224.139 -0.51 -0.00    +0.000 C  
DOCKED: ATOM     29  C   UNL     1     142.186  80.937 222.552 -0.56 -0.00    +0.000 C  
DOCKED: ATOM     30  C   UNL     1     141.103  80.624 223.574 -0.52 -0.00    +0.000 C  
DOCKED: ENDBRANCH  21  25
DOCKED: ENDBRANCH  17  19
DOCKED: ENDBRANCH   1  17
DOCKED: TORSDOF 5
DOCKED: TER
DOCKED: ENDMDL
________________________________________________________________________________


    FINAL DOCKED STATE:
    ________________________


Run:   20 / 20
Time taken for this run:   0.023s

DOCKED: MODEL        20
DOCKED: USER    Run = 20
DOCKED: USER
DOCKED: USER    Estimated Free Energy of Binding    =  -7.88 kcal/mol  [=(1)+(2)+(3)-(4)]
DOCKED: USER
DOCKED: USER    (1) Final Intermolecular Energy     =  -9.37 kcal/mol
DOCKED: USER        vdW + Hbond + desolv Energy     =  -9.34 kcal/mol
DOCKED: USER        Electrostatic Energy            =  -0.03 kcal/mol
DOCKED: USER        Moving Ligand-Fixed Receptor    =  -9.37 kcal/mol
DOCKED: USER        Moving Ligand-Moving Receptor   =  +0.00 kcal/mol
DOCKED: USER    (2) Final Total Internal Energy     =  -1.90 kcal/mol
DOCKED: USER    (3) Torsional Free Energy           =  +1.49 kcal/mol
DOCKED: USER    (4) Unbound System's Energy         =  -1.90 kcal/mol
DOCKED: USER
DOCKED: USER
DOCKED: REMARK SMILES O=C(NCC(=O)N1CCCC[C@H]1C1CCCCC1)c1ccc2cc(Cl)ccc2n1
DOCKED: REMARK SMILES IDX 4 1 3 2 2 3 1 4 19 6 20 7 29 8 21 9 28 10 22 11 27 12 23 13
DOCKED: REMARK SMILES IDX 26 14 24 15 25 16 5 17 6 18 7 19 8 20 12 21 9 22 11 23 10 24
DOCKED: REMARK SMILES IDX 13 25 14 26 18 27 15 28 17 29 16 30
DOCKED: REMARK H PARENT 3 5
DOCKED: USER                              x       y       z     vdW  Elec       q    Type
DOCKED: USER                           _______ _______ _______ _____ _____    ______ ____
DOCKED: ROOT
DOCKED: ATOM      1  C   UNL     1     136.714  72.154 222.112 -0.08 -0.05    +0.216 C  
DOCKED: ENDROOT
DOCKED: BRANCH   1   2
DOCKED: ATOM      2  N   UNL     1     137.363  73.418 222.412 -0.00 +0.12    -0.342 N  
DOCKED: ATOM      3  C   UNL     1     138.519  73.737 221.626 -0.12 -0.07    +0.270 C  
DOCKED: ATOM      4  O   UNL     1     138.851  72.891 220.762 -0.05 +0.05    -0.268 OA 
DOCKED: ATOM      5  H   UNL     1     137.033  74.078 223.149 -0.45 -0.09    +0.164 HD 
DOCKED: BRANCH   3   6
DOCKED: ATOM      6  C   UNL     1     139.260  74.976 221.829 -0.24 -0.03    +0.128 A  
DOCKED: ATOM      7  C   UNL     1     140.575  75.013 221.453 -0.31 -0.01    +0.035 A  
DOCKED: ATOM      8  N   UNL     1     138.723  76.083 222.364 -0.22 +0.05    -0.243 NA 
DOCKED: ATOM      9  C   UNL     1     141.335  76.148 221.614 -0.25 -0.01    +0.013 A  
DOCKED: ATOM     10  C   UNL     1     139.436  77.228 222.543 -0.28 -0.01    +0.071 A  
DOCKED: ATOM     11  C   UNL     1     140.745  77.280 222.174 -0.42 -0.00    +0.002 A  
DOCKED: ATOM     12  C   UNL     1     138.832  78.337 223.099 -0.27 -0.00    +0.030 A  
DOCKED: ATOM     13  C   UNL     1     141.525  78.411 222.327 -0.42 -0.01    +0.030 A  
DOCKED: ATOM     14  C   UNL     1     139.604  79.476 223.258 -0.39 -0.00    +0.023 A  
DOCKED: ATOM     15  C   UNL     1     140.923  79.524 222.885 -0.44 -0.01    +0.041 A  
DOCKED: ATOM     16  Cl  UNL     1     141.884  80.986 223.098 -0.71 +0.02    -0.084 Cl 
DOCKED: ENDBRANCH   3   6
DOCKED: ENDBRANCH   1   2
DOCKED: BRANCH   1  17
DOCKED: ATOM     17  C   UNL     1     137.009  71.246 223.238 -0.12 -0.05    +0.242 C  
DOCKED: ATOM     18  O   UNL     1     136.286  71.374 224.276 -0.14 +0.05    -0.273 OA 
DOCKED: BRANCH  17  19
DOCKED: ATOM     19  N   UNL     1     138.060  70.258 223.184 -0.08 +0.06    -0.338 N  
DOCKED: ATOM     20  C   UNL     1     138.784  70.147 221.950 -0.12 -0.02    +0.120 C  
DOCKED: ATOM     21  C   UNL     1     138.303  69.464 224.363 -0.29 -0.01    +0.088 C  
DOCKED: ATOM     22  C   UNL     1     139.255  68.767 221.693 -0.15 -0.00    +0.022 C  
DOCKED: ATOM     23  C   UNL     1     138.865  68.105 224.089 -0.26 -0.00    +0.025 C  
DOCKED: ATOM     24  C   UNL     1     138.787  67.708 222.639 -0.25 -0.00    +0.004 C  
DOCKED: BRANCH  21  25
DOCKED: ATOM     25  C   UNL     1     139.115  70.304 225.321 -0.34 -0.00    +0.012 C  
DOCKED: ATOM     26  C   UNL     1     139.396  69.477 226.536 -0.49 -0.00    +0.006 C  
DOCKED: ATOM     27  C   UNL     1     140.334  70.905 224.693 -0.49 -0.00    +0.006 C  
DOCKED: ATOM     28  C   UNL     1     140.172  70.223 227.596 -0.64 -0.00    +0.000 C  
DOCKED: ATOM     29  C   UNL     1     141.436  71.137 225.735 -0.58 -0.00    +0.000 C  
DOCKED: ATOM     30  C   UNL     1     140.712  71.530 227.014 -0.76 -0.00    +0.000 C  
DOCKED: ENDBRANCH  21  25
DOCKED: ENDBRANCH  17  19
DOCKED: ENDBRANCH   1  17
DOCKED: TORSDOF 5
DOCKED: TER
DOCKED: ENDMDL
________________________________________________________________________________


    CLUSTERING HISTOGRAM
    ____________________


________________________________________________________________________________
     |           |     |           |     |
Clus | Lowest    | Run | Mean      | Num | Histogram
-ter | Binding   |     | Binding   | in  |
Rank | Energy    |     | Energy    | Clus|    5    10   15   20   25   30   35
_____|___________|_____|___________|_____|____:____|____:____|____:____|____:___
   1 |     -8.76 |  13 |     -8.51 |  15 |###############
   2 |     -8.45 |  17 |     -8.26 |   3 |###
   3 |     -8.10 |  10 |     -8.10 |   1 |#
   4 |     -7.88 |  20 |     -7.88 |   1 |#
_____|___________|_____|___________|_____|______________________________________


    RMSD TABLE
    __________


_______________________________________________________________________
     |      |      |           |         |                 |
Rank | Sub- | Run  | Binding   | Cluster | Reference       | Grep
     | Rank |      | Energy    | RMSD    | RMSD            | Pattern
_____|______|______|___________|_________|_________________|___________
   1      1     13       -8.76      0.00    271.87           RANKING
   1      2     19       -8.71      1.33    271.66           RANKING
   1      3      2       -8.71      1.31    271.76           RANKING
   1      4     11       -8.68      1.31    271.73           RANKING
   1      5      6       -8.66      1.32    271.68           RANKING
   1      6      7       -8.65      1.30    271.74           RANKING
   1      7     14       -8.64      1.35    271.66           RANKING
   1      8     18       -8.63      1.35    271.64           RANKING
   1      9     12       -8.54      1.42    271.65           RANKING
   1     10      3       -8.46      1.23    271.66           RANKING
   1     11      4       -8.45      1.33    271.71           RANKING
   1     12      1       -8.33      0.99    271.90           RANKING
   1     13      5       -8.17      1.19    271.60           RANKING
   1     14     16       -8.11      0.90    271.50           RANKING
   1     15     15       -8.10      1.50    271.76           RANKING
   2      1     17       -8.45      0.00    271.27           RANKING
   2      2      8       -8.39      0.09    271.25           RANKING
   2      3      9       -7.94      0.53    271.16           RANKING
   3      1     10       -8.10      0.00    271.20           RANKING
   4      1     20       -7.88      0.00    271.06           RANKING

Run time 0.434 sec
Idle time 0.000 sec
