AutoDock-GPU version: v1.6

**********************************************************
**    AutoDock-GPU AUTODOCKTOOLS-COMPATIBLE DLG FILE    **
**********************************************************


    DOCKING PARAMETERS
    ________________________


Ligand file:                               /home/a/REINVENT4/ReinventStudies/pleaseWork/justmol2mol_4_Compounds_ontop/graph-dock-amy28i/graph-DockGPU/node-autodockgpu/inputs/SISUYXJYHXFPNK-ZGWWKFFJNA-N.pdbqt
Grid fld file:                             /home/a/REINVENT4/ReinventStudies/mols/Rad51/maps/rad51_receptor.maps.fld

Random seed:                               42
Number of runs:                            20
Number of energy evaluations:              1132076
Number of generations:                     42000
Size of population:                        150
Rate of crossover:                         80.000000%
Tournament selection probability limit:    60.000000%
Rate of mutation:                          2.000000%
Maximal allowed delta movement:            +/- 6.000000A
Maximal allowed delta angle:               +/- 90.000000

Rate of local search:                      100.000000%
Maximal number of local search iterations: 300
Rho lower bound:                           0.010000
Spread of local search delta movement:     2.000000A
Spread of local search delta angle:        74.999999
Limit of consecutive successes/failures:   4

Handle symmetry during clustering:         YES
RMSD tolerance:                            2.000000A

Program call in command line was:          /home/a/REINVENT4/ReinventStudies/adgpu-v1.6_linux_x64_cuda12_128wi --filelist batch.txt --heuristics 1 --nrun 20 --psize 150 --lsit 300 --seed 42 --heurmax 12000000 


    GRID PARAMETERS
    ________________________


Receptor name:                             rad51_receptor
Number of grid points (x, y, z):           53, 53, 53
Grid center (x, y, z):                     139.950000, 75.640000, 221.970000A
Grid size (x, y, z):                       19.500000, 19.500000, 19.500000A
Grid spacing:                              0.375000A


    LIGAND PARAMETERS
    ________________________


Ligand name:                               /home/a/REINVENT4/ReinventStudies/pleaseWork/justmol2mol_4_Compounds_ontop/graph-dock-amy28i/graph-DockGPU/node-autodockgpu/inputs/SISUYXJYHXFPNK-ZGWWKFFJNA-N
Number of atoms:                           25
Number of rotatable bonds:                 6
Number of atom types:                      6


    DUMMY DATA (only for ADT-compatibility)
    ________________________


DPF> outlev 1
DPF> ga_run 20
DPF> fld /home/a/REINVENT4/ReinventStudies/mols/Rad51/maps/rad51_receptor.maps.fld
DPF> move /home/a/REINVENT4/ReinventStudies/pleaseWork/justmol2mol_4_Compounds_ontop/graph-dock-amy28i/graph-DockGPU/node-autodockgpu/inputs/SISUYXJYHXFPNK-ZGWWKFFJNA-N.pdbqt


    COUNTER STATES
    ________________________


Number of energy evaluations performed:    504671
Number of generations used:                30


    INPUT LIGAND PDBQT FILE:
    ________________________


INPUT-LIGAND-PDBQT: REMARK SMILES COC[C@H]1CCCN1C(=O)CNC(=O)c1ccc2ccccc2n1
INPUT-LIGAND-PDBQT: REMARK SMILES IDX 4 1 5 2 6 3 7 4 8 5 3 6 2 7 1 8 9 9 10 10 11 11 12 12 13 13
INPUT-LIGAND-PDBQT: REMARK SMILES IDX 14 15 15 16 16 17 24 18 17 19 23 20 18 21 22 22 19 23 21 24
INPUT-LIGAND-PDBQT: REMARK SMILES IDX 20 25
INPUT-LIGAND-PDBQT: REMARK H PARENT 12 14
INPUT-LIGAND-PDBQT: ROOT
INPUT-LIGAND-PDBQT: ATOM      1  C   UNL     1      -4.489   0.083   0.017  1.00  0.00     0.111 C 
INPUT-LIGAND-PDBQT: ATOM      2  C   UNL     1      -5.147  -0.781  -1.042  1.00  0.00     0.029 C 
INPUT-LIGAND-PDBQT: ATOM      3  C   UNL     1      -4.780  -2.187  -0.589  1.00  0.00     0.024 C 
INPUT-LIGAND-PDBQT: ATOM      4  C   UNL     1      -3.717  -2.027   0.497  1.00  0.00     0.120 C 
INPUT-LIGAND-PDBQT: ATOM      5  N   UNL     1      -3.258  -0.652   0.203  1.00  0.00    -0.336 N 
INPUT-LIGAND-PDBQT: ENDROOT
INPUT-LIGAND-PDBQT: BRANCH   1   6
INPUT-LIGAND-PDBQT: ATOM      6  C   UNL     1      -4.341   1.502  -0.386  1.00  0.00     0.184 C 
INPUT-LIGAND-PDBQT: BRANCH   6   7
INPUT-LIGAND-PDBQT: ATOM      7  O   UNL     1      -3.655   2.255   0.528  1.00  0.00    -0.383 OA
INPUT-LIGAND-PDBQT: ATOM      8  C   UNL     1      -3.566   3.585   0.060  1.00  0.00     0.194 C 
INPUT-LIGAND-PDBQT: ENDBRANCH   6   7
INPUT-LIGAND-PDBQT: ENDBRANCH   1   6
INPUT-LIGAND-PDBQT: BRANCH   5   9
INPUT-LIGAND-PDBQT: ATOM      9  C   UNL     1      -1.906  -0.245   0.137  1.00  0.00     0.242 C 
INPUT-LIGAND-PDBQT: ATOM     10  O   UNL     1      -1.519   0.922  -0.117  1.00  0.00    -0.273 OA
INPUT-LIGAND-PDBQT: BRANCH   9  11
INPUT-LIGAND-PDBQT: ATOM     11  C   UNL     1      -0.824  -1.254   0.382  1.00  0.00     0.216 C 
INPUT-LIGAND-PDBQT: BRANCH  11  12
INPUT-LIGAND-PDBQT: ATOM     12  N   UNL     1       0.486  -0.642   0.269  1.00  0.00    -0.342 N 
INPUT-LIGAND-PDBQT: ATOM     13  C   UNL     1       1.609  -1.499   0.480  1.00  0.00     0.270 C 
INPUT-LIGAND-PDBQT: ATOM     14  H   UNL     1       0.635   0.370   0.045  1.00  0.00     0.164 HD
INPUT-LIGAND-PDBQT: ATOM     15  O   UNL     1       1.326  -2.710   0.746  1.00  0.00    -0.268 OA
INPUT-LIGAND-PDBQT: BRANCH  13  16
INPUT-LIGAND-PDBQT: ATOM     16  C   UNL     1       2.980  -1.023   0.399  1.00  0.00     0.128 A 
INPUT-LIGAND-PDBQT: ATOM     17  C   UNL     1       3.990  -1.931   0.620  1.00  0.00     0.035 A 
INPUT-LIGAND-PDBQT: ATOM     18  N   UNL     1       3.328   0.236   0.124  1.00  0.00    -0.243 NA
INPUT-LIGAND-PDBQT: ATOM     19  C   UNL     1       5.330  -1.596   0.569  1.00  0.00     0.013 A 
INPUT-LIGAND-PDBQT: ATOM     20  C   UNL     1       4.634   0.622   0.061  1.00  0.00     0.071 A 
INPUT-LIGAND-PDBQT: ATOM     21  C   UNL     1       5.660  -0.283   0.282  1.00  0.00     0.000 A 
INPUT-LIGAND-PDBQT: ATOM     22  C   UNL     1       4.935   1.936  -0.227  1.00  0.00     0.029 A 
INPUT-LIGAND-PDBQT: ATOM     23  C   UNL     1       6.991   0.073   0.226  1.00  0.00     0.010 A 
INPUT-LIGAND-PDBQT: ATOM     24  C   UNL     1       6.281   2.292  -0.282  1.00  0.00     0.002 A 
INPUT-LIGAND-PDBQT: ATOM     25  C   UNL     1       7.297   1.393  -0.063  1.00  0.00     0.001 A 
INPUT-LIGAND-PDBQT: ENDBRANCH  13  16
INPUT-LIGAND-PDBQT: ENDBRANCH  11  12
INPUT-LIGAND-PDBQT: ENDBRANCH   9  11
INPUT-LIGAND-PDBQT: ENDBRANCH   5   9
INPUT-LIGAND-PDBQT: TORSDOF 6


    FINAL DOCKED STATE:
    ________________________


Run:   1 / 20
Time taken for this run:   0.022s

DOCKED: MODEL        1
DOCKED: USER    Run = 1
DOCKED: USER
DOCKED: USER    Estimated Free Energy of Binding    =  -6.95 kcal/mol  [=(1)+(2)+(3)-(4)]
DOCKED: USER
DOCKED: USER    (1) Final Intermolecular Energy     =  -8.74 kcal/mol
DOCKED: USER        vdW + Hbond + desolv Energy     =  -8.75 kcal/mol
DOCKED: USER        Electrostatic Energy            =  +0.01 kcal/mol
DOCKED: USER        Moving Ligand-Fixed Receptor    =  -8.74 kcal/mol
DOCKED: USER        Moving Ligand-Moving Receptor   =  +0.00 kcal/mol
DOCKED: USER    (2) Final Total Internal Energy     =  -1.33 kcal/mol
DOCKED: USER    (3) Torsional Free Energy           =  +1.79 kcal/mol
DOCKED: USER    (4) Unbound System's Energy         =  -1.33 kcal/mol
DOCKED: USER
DOCKED: USER
DOCKED: REMARK SMILES COC[C@H]1CCCN1C(=O)CNC(=O)c1ccc2ccccc2n1
DOCKED: REMARK SMILES IDX 4 1 5 2 6 3 7 4 8 5 3 6 2 7 1 8 9 9 10 10 11 11 12 12 13 13
DOCKED: REMARK SMILES IDX 14 15 15 16 16 17 24 18 17 19 23 20 18 21 22 22 19 23 21 24
DOCKED: REMARK SMILES IDX 20 25
DOCKED: REMARK H PARENT 12 14
DOCKED: USER                              x       y       z     vdW  Elec       q    Type
DOCKED: USER                           _______ _______ _______ _____ _____    ______ ____
DOCKED: ROOT
DOCKED: ATOM      1  C   UNL     1     143.337  75.268 219.977 -0.31 -0.06    +0.111 C  
DOCKED: ATOM      2  C   UNL     1     143.134  75.402 218.479 -0.24 -0.01    +0.029 C  
DOCKED: ATOM      3  C   UNL     1     142.558  76.806 218.354 -0.28 -0.01    +0.024 C  
DOCKED: ATOM      4  C   UNL     1     142.201  77.254 219.770 -0.27 -0.08    +0.120 C  
DOCKED: ATOM      5  N   UNL     1     142.146  75.940 220.446 -0.13 +0.18    -0.336 N  
DOCKED: ENDROOT
DOCKED: BRANCH   1   6
DOCKED: ATOM      6  C   UNL     1     143.509  73.866 220.426 -0.27 -0.05    +0.184 C  
DOCKED: BRANCH   6   7
DOCKED: ATOM      7  O   UNL     1     144.599  73.687 221.234 -0.23 +0.10    -0.383 OA 
DOCKED: ATOM      8  C   UNL     1     145.741  73.470 220.431 -0.48 -0.01    +0.194 C  
DOCKED: ENDBRANCH   6   7
DOCKED: ENDBRANCH   1   6
DOCKED: BRANCH   5   9
DOCKED: ATOM      9  C   UNL     1     141.124  75.524 221.330 -0.23 -0.07    +0.242 C  
DOCKED: ATOM     10  O   UNL     1     140.740  76.167 222.337 -0.39 +0.07    -0.273 OA 
DOCKED: BRANCH   9  11
DOCKED: ATOM     11  C   UNL     1     140.423  74.223 221.079 -0.19 -0.04    +0.216 C  
DOCKED: BRANCH  11  12
DOCKED: ATOM     12  N   UNL     1     140.098  73.563 222.329 -0.08 +0.02    -0.342 N  
DOCKED: ATOM     13  C   UNL     1     140.592  72.233 222.493 -0.20 -0.02    +0.270 C  
DOCKED: ATOM     14  H   UNL     1     139.536  74.010 223.091 -0.52 -0.02    +0.164 HD 
DOCKED: ATOM     15  O   UNL     1     141.263  71.778 221.514 -0.16 +0.03    -0.268 OA 
DOCKED: BRANCH  13  16
DOCKED: ATOM     16  C   UNL     1     140.344  71.451 223.693 -0.33 -0.02    +0.128 A  
DOCKED: ATOM     17  C   UNL     1     139.683  70.252 223.554 -0.27 -0.01    +0.035 A  
DOCKED: ATOM     18  N   UNL     1     140.714  71.815 224.923 -0.29 +0.03    -0.243 NA 
DOCKED: ATOM     19  C   UNL     1     139.391  69.423 224.621 -0.36 -0.00    +0.013 A  
DOCKED: ATOM     20  C   UNL     1     140.453  71.037 226.011 -0.54 -0.01    +0.071 A  
DOCKED: ATOM     21  C   UNL     1     139.787  69.828 225.884 -0.47 -0.00    +0.000 A  
DOCKED: ATOM     22  C   UNL     1     140.858  71.464 227.257 -0.74 -0.01    +0.029 A  
DOCKED: ATOM     23  C   UNL     1     139.507  69.016 226.963 -0.54 -0.00    +0.010 A  
DOCKED: ATOM     24  C   UNL     1     140.573  70.641 228.345 -0.60 -0.00    +0.002 A  
DOCKED: ATOM     25  C   UNL     1     139.913  69.442 228.217 -0.63 -0.00    +0.001 A  
DOCKED: ENDBRANCH  13  16
DOCKED: ENDBRANCH  11  12
DOCKED: ENDBRANCH   9  11
DOCKED: ENDBRANCH   5   9
DOCKED: TORSDOF 6
DOCKED: TER
DOCKED: ENDMDL
________________________________________________________________________________


    FINAL DOCKED STATE:
    ________________________


Run:   2 / 20
Time taken for this run:   0.022s

DOCKED: MODEL        2
DOCKED: USER    Run = 2
DOCKED: USER
DOCKED: USER    Estimated Free Energy of Binding    =  -6.06 kcal/mol  [=(1)+(2)+(3)-(4)]
DOCKED: USER
DOCKED: USER    (1) Final Intermolecular Energy     =  -7.85 kcal/mol
DOCKED: USER        vdW + Hbond + desolv Energy     =  -7.77 kcal/mol
DOCKED: USER        Electrostatic Energy            =  -0.08 kcal/mol
DOCKED: USER        Moving Ligand-Fixed Receptor    =  -7.85 kcal/mol
DOCKED: USER        Moving Ligand-Moving Receptor   =  +0.00 kcal/mol
DOCKED: USER    (2) Final Total Internal Energy     =  -2.09 kcal/mol
DOCKED: USER    (3) Torsional Free Energy           =  +1.79 kcal/mol
DOCKED: USER    (4) Unbound System's Energy         =  -2.09 kcal/mol
DOCKED: USER
DOCKED: USER
DOCKED: REMARK SMILES COC[C@H]1CCCN1C(=O)CNC(=O)c1ccc2ccccc2n1
DOCKED: REMARK SMILES IDX 4 1 5 2 6 3 7 4 8 5 3 6 2 7 1 8 9 9 10 10 11 11 12 12 13 13
DOCKED: REMARK SMILES IDX 14 15 15 16 16 17 24 18 17 19 23 20 18 21 22 22 19 23 21 24
DOCKED: REMARK SMILES IDX 20 25
DOCKED: REMARK H PARENT 12 14
DOCKED: USER                              x       y       z     vdW  Elec       q    Type
DOCKED: USER                           _______ _______ _______ _____ _____    ______ ____
DOCKED: ROOT
DOCKED: ATOM      1  C   UNL     1     139.759  75.956 222.299 -0.28 -0.02    +0.111 C  
DOCKED: ATOM      2  C   UNL     1     139.920  77.451 222.103 -0.34 -0.01    +0.029 C  
DOCKED: ATOM      3  C   UNL     1     138.546  77.980 222.490 -0.27 -0.00    +0.024 C  
DOCKED: ATOM      4  C   UNL     1     137.627  76.763 222.591 -0.23 -0.02    +0.120 C  
DOCKED: ATOM      5  N   UNL     1     138.411  75.787 221.802 -0.12 +0.08    -0.336 N  
DOCKED: ENDROOT
DOCKED: BRANCH   1   6
DOCKED: ATOM      6  C   UNL     1     140.804  75.155 221.619 -0.25 -0.04    +0.184 C  
DOCKED: BRANCH   6   7
DOCKED: ATOM      7  O   UNL     1     140.804  73.838 221.992 -0.69 +0.01    -0.383 OA 
DOCKED: ATOM      8  C   UNL     1     141.400  73.066 220.969 -0.19 -0.03    +0.194 C  
DOCKED: ENDBRANCH   6   7
DOCKED: ENDBRANCH   1   6
DOCKED: BRANCH   5   9
DOCKED: ATOM      9  C   UNL     1     137.880  74.931 220.811 -0.07 -0.05    +0.242 C  
DOCKED: ATOM     10  O   UNL     1     137.683  75.254 219.614 -0.01 +0.06    -0.273 OA 
DOCKED: BRANCH   9  11
DOCKED: ATOM     11  C   UNL     1     137.509  73.526 221.179 -0.07 -0.05    +0.216 C  
DOCKED: BRANCH  11  12
DOCKED: ATOM     12  N   UNL     1     138.282  73.070 222.318 -0.04 +0.12    -0.342 N  
DOCKED: ATOM     13  C   UNL     1     138.248  71.669 222.591 -0.12 -0.07    +0.270 C  
DOCKED: ATOM     14  H   UNL     1     138.846  73.708 222.927 -0.54 -0.09    +0.164 HD 
DOCKED: ATOM     15  O   UNL     1     137.536  70.977 221.796 -0.04 +0.05    -0.268 OA 
DOCKED: BRANCH  13  16
DOCKED: ATOM     16  C   UNL     1     138.973  71.072 223.701 -0.27 -0.03    +0.128 A  
DOCKED: ATOM     17  C   UNL     1     140.019  71.783 224.242 -0.32 -0.01    +0.035 A  
DOCKED: ATOM     18  N   UNL     1     138.694  69.880 224.232 -0.17 +0.04    -0.243 NA 
DOCKED: ATOM     19  C   UNL     1     140.780  71.319 225.298 -0.55 -0.00    +0.013 A  
DOCKED: ATOM     20  C   UNL     1     139.411  69.373 225.275 -0.37 -0.01    +0.071 A  
DOCKED: ATOM     21  C   UNL     1     140.467  70.080 225.828 -0.52 -0.00    +0.000 A  
DOCKED: ATOM     22  C   UNL     1     139.078  68.136 225.784 -0.49 -0.00    +0.029 A  
DOCKED: ATOM     23  C   UNL     1     141.214  69.598 226.882 -0.51 -0.00    +0.010 A  
DOCKED: ATOM     24  C   UNL     1     139.836  67.652 226.849 -0.65 -0.00    +0.002 A  
DOCKED: ATOM     25  C   UNL     1     140.882  68.355 227.396 -0.66 -0.00    +0.001 A  
DOCKED: ENDBRANCH  13  16
DOCKED: ENDBRANCH  11  12
DOCKED: ENDBRANCH   9  11
DOCKED: ENDBRANCH   5   9
DOCKED: TORSDOF 6
DOCKED: TER
DOCKED: ENDMDL
________________________________________________________________________________


    FINAL DOCKED STATE:
    ________________________


Run:   3 / 20
Time taken for this run:   0.022s

DOCKED: MODEL        3
DOCKED: USER    Run = 3
DOCKED: USER
DOCKED: USER    Estimated Free Energy of Binding    =  -6.36 kcal/mol  [=(1)+(2)+(3)-(4)]
DOCKED: USER
DOCKED: USER    (1) Final Intermolecular Energy     =  -8.15 kcal/mol
DOCKED: USER        vdW + Hbond + desolv Energy     =  -8.08 kcal/mol
DOCKED: USER        Electrostatic Energy            =  -0.07 kcal/mol
DOCKED: USER        Moving Ligand-Fixed Receptor    =  -8.15 kcal/mol
DOCKED: USER        Moving Ligand-Moving Receptor   =  +0.00 kcal/mol
DOCKED: USER    (2) Final Total Internal Energy     =  -1.45 kcal/mol
DOCKED: USER    (3) Torsional Free Energy           =  +1.79 kcal/mol
DOCKED: USER    (4) Unbound System's Energy         =  -1.45 kcal/mol
DOCKED: USER
DOCKED: USER
DOCKED: REMARK SMILES COC[C@H]1CCCN1C(=O)CNC(=O)c1ccc2ccccc2n1
DOCKED: REMARK SMILES IDX 4 1 5 2 6 3 7 4 8 5 3 6 2 7 1 8 9 9 10 10 11 11 12 12 13 13
DOCKED: REMARK SMILES IDX 14 15 15 16 16 17 24 18 17 19 23 20 18 21 22 22 19 23 21 24
DOCKED: REMARK SMILES IDX 20 25
DOCKED: REMARK H PARENT 12 14
DOCKED: USER                              x       y       z     vdW  Elec       q    Type
DOCKED: USER                           _______ _______ _______ _____ _____    ______ ____
DOCKED: ROOT
DOCKED: ATOM      1  C   UNL     1     139.179  68.565 226.339 -0.42 -0.01    +0.111 C  
DOCKED: ATOM      2  C   UNL     1     140.190  67.439 226.436 -0.64 -0.01    +0.029 C  
DOCKED: ATOM      3  C   UNL     1     141.101  67.915 227.559 -0.58 -0.01    +0.024 C  
DOCKED: ATOM      4  C   UNL     1     140.738  69.377 227.818 -0.54 -0.02    +0.120 C  
DOCKED: ATOM      5  N   UNL     1     140.053  69.698 226.548 -0.21 +0.05    -0.336 N  
DOCKED: ENDROOT
DOCKED: BRANCH   1   6
DOCKED: ATOM      6  C   UNL     1     138.413  68.564 225.070 -0.23 -0.01    +0.184 C  
DOCKED: BRANCH   6   7
DOCKED: ATOM      7  O   UNL     1     138.876  67.653 224.160 -0.50 +0.00    -0.383 OA 
DOCKED: ATOM      8  C   UNL     1     138.518  68.074 222.859 -0.19 -0.03    +0.194 C  
DOCKED: ENDBRANCH   6   7
DOCKED: ENDBRANCH   1   6
DOCKED: BRANCH   5   9
DOCKED: ATOM      9  C   UNL     1     140.269  70.866 225.782 -0.39 -0.04    +0.242 C  
DOCKED: ATOM     10  O   UNL     1     140.647  71.970 226.247 -0.43 +0.05    -0.273 OA 
DOCKED: BRANCH   9  11
DOCKED: ATOM     11  C   UNL     1     140.041  70.825 224.301 -0.30 -0.04    +0.216 C  
DOCKED: BRANCH  11  12
DOCKED: ATOM     12  N   UNL     1     140.344  72.108 223.697 -0.18 +0.04    -0.342 N  
DOCKED: ATOM     13  C   UNL     1     140.678  72.094 222.308 -0.20 -0.02    +0.270 C  
DOCKED: ATOM     14  H   UNL     1     140.328  73.014 224.222 -0.16 -0.02    +0.164 HD 
DOCKED: ATOM     15  O   UNL     1     140.671  70.948 221.758 -0.10 +0.03    -0.268 OA 
DOCKED: BRANCH  13  16
DOCKED: ATOM     16  C   UNL     1     141.005  73.305 221.572 -0.24 -0.01    +0.128 A  
DOCKED: ATOM     17  C   UNL     1     141.681  73.170 220.381 -0.19 -0.01    +0.035 A  
DOCKED: ATOM     18  N   UNL     1     140.693  74.540 221.972 -0.69 +0.01    -0.243 NA 
DOCKED: ATOM     19  C   UNL     1     142.045  74.247 219.595 -0.18 -0.00    +0.013 A  
DOCKED: ATOM     20  C   UNL     1     141.027  75.637 221.236 -0.30 -0.02    +0.071 A  
DOCKED: ATOM     21  C   UNL     1     141.709  75.515 220.035 -0.24 -0.00    +0.000 A  
DOCKED: ATOM     22  C   UNL     1     140.680  76.889 221.697 -0.35 -0.01    +0.029 A  
DOCKED: ATOM     23  C   UNL     1     142.062  76.604 219.266 -0.26 -0.01    +0.010 A  
DOCKED: ATOM     24  C   UNL     1     141.039  77.986 220.917 -0.29 -0.00    +0.002 A  
DOCKED: ATOM     25  C   UNL     1     141.714  77.863 219.727 -0.28 -0.00    +0.001 A  
DOCKED: ENDBRANCH  13  16
DOCKED: ENDBRANCH  11  12
DOCKED: ENDBRANCH   9  11
DOCKED: ENDBRANCH   5   9
DOCKED: TORSDOF 6
DOCKED: TER
DOCKED: ENDMDL
________________________________________________________________________________


    FINAL DOCKED STATE:
    ________________________


Run:   4 / 20
Time taken for this run:   0.022s

DOCKED: MODEL        4
DOCKED: USER    Run = 4
DOCKED: USER
DOCKED: USER    Estimated Free Energy of Binding    =  -5.90 kcal/mol  [=(1)+(2)+(3)-(4)]
DOCKED: USER
DOCKED: USER    (1) Final Intermolecular Energy     =  -7.69 kcal/mol
DOCKED: USER        vdW + Hbond + desolv Energy     =  -7.76 kcal/mol
DOCKED: USER        Electrostatic Energy            =  +0.07 kcal/mol
DOCKED: USER        Moving Ligand-Fixed Receptor    =  -7.69 kcal/mol
DOCKED: USER        Moving Ligand-Moving Receptor   =  +0.00 kcal/mol
DOCKED: USER    (2) Final Total Internal Energy     =  -2.42 kcal/mol
DOCKED: USER    (3) Torsional Free Energy           =  +1.79 kcal/mol
DOCKED: USER    (4) Unbound System's Energy         =  -2.42 kcal/mol
DOCKED: USER
DOCKED: USER
DOCKED: REMARK SMILES COC[C@H]1CCCN1C(=O)CNC(=O)c1ccc2ccccc2n1
DOCKED: REMARK SMILES IDX 4 1 5 2 6 3 7 4 8 5 3 6 2 7 1 8 9 9 10 10 11 11 12 12 13 13
DOCKED: REMARK SMILES IDX 14 15 15 16 16 17 24 18 17 19 23 20 18 21 22 22 19 23 21 24
DOCKED: REMARK SMILES IDX 20 25
DOCKED: REMARK H PARENT 12 14
DOCKED: USER                              x       y       z     vdW  Elec       q    Type
DOCKED: USER                           _______ _______ _______ _____ _____    ______ ____
DOCKED: ROOT
DOCKED: ATOM      1  C   UNL     1     143.962  74.292 219.305 -0.27 -0.04    +0.111 C  
DOCKED: ATOM      2  C   UNL     1     144.899  74.525 220.475 -0.43 -0.01    +0.029 C  
DOCKED: ATOM      3  C   UNL     1     145.245  73.106 220.903 -0.57 -0.00    +0.024 C  
DOCKED: ATOM      4  C   UNL     1     144.277  72.184 220.163 -0.28 -0.01    +0.120 C  
DOCKED: ATOM      5  N   UNL     1     143.221  73.156 219.808 -0.08 +0.06    -0.336 N  
DOCKED: ENDROOT
DOCKED: BRANCH   1   6
DOCKED: ATOM      6  C   UNL     1     143.155  75.483 218.947 -0.23 -0.09    +0.184 C  
DOCKED: BRANCH   6   7
DOCKED: ATOM      7  O   UNL     1     143.047  76.390 219.966 -0.22 +0.27    -0.383 OA 
DOCKED: ATOM      8  C   UNL     1     142.288  77.496 219.524 -0.21 -0.13    +0.194 C  
DOCKED: ENDBRANCH   6   7
DOCKED: ENDBRANCH   1   6
DOCKED: BRANCH   5   9
DOCKED: ATOM      9  C   UNL     1     141.833  72.939 219.962 -0.10 -0.04    +0.242 C  
DOCKED: ATOM     10  O   UNL     1     141.079  72.457 219.081 -0.02 +0.05    -0.273 OA 
DOCKED: BRANCH   9  11
DOCKED: ATOM     11  C   UNL     1     141.174  73.298 221.260 -0.19 -0.03    +0.216 C  
DOCKED: BRANCH  11  12
DOCKED: ATOM     12  N   UNL     1     141.396  74.694 221.582 -0.14 +0.06    -0.342 N  
DOCKED: ATOM     13  C   UNL     1     140.248  75.447 221.976 -0.18 -0.04    +0.270 C  
DOCKED: ATOM     14  H   UNL     1     142.335  75.157 221.538 -0.31 -0.07    +0.164 HD 
DOCKED: ATOM     15  O   UNL     1     139.155  74.798 221.999 -0.40 +0.06    -0.268 OA 
DOCKED: BRANCH  13  16
DOCKED: ATOM     16  C   UNL     1     140.321  76.856 222.326 -0.34 -0.03    +0.128 A  
DOCKED: ATOM     17  C   UNL     1     139.140  77.552 222.443 -0.30 -0.01    +0.035 A  
DOCKED: ATOM     18  N   UNL     1     141.457  77.523 222.543 -0.17 +0.12    -0.243 NA 
DOCKED: ATOM     19  C   UNL     1     139.084  78.893 222.771 -0.31 -0.00    +0.013 A  
DOCKED: ATOM     20  C   UNL     1     141.461  78.847 222.870 -0.49 -0.03    +0.071 A  
DOCKED: ATOM     21  C   UNL     1     140.277  79.558 222.990 -0.42 -0.00    +0.000 A  
DOCKED: ATOM     22  C   UNL     1     142.664  79.485 223.083 -0.58 -0.01    +0.029 A  
DOCKED: ATOM     23  C   UNL     1     140.244  80.897 223.319 -0.42 -0.00    +0.010 A  
DOCKED: ATOM     24  C   UNL     1     142.626  80.838 223.414 -0.65 -0.00    +0.002 A  
DOCKED: ATOM     25  C   UNL     1     141.452  81.541 223.533 -0.45 -0.00    +0.001 A  
DOCKED: ENDBRANCH  13  16
DOCKED: ENDBRANCH  11  12
DOCKED: ENDBRANCH   9  11
DOCKED: ENDBRANCH   5   9
DOCKED: TORSDOF 6
DOCKED: TER
DOCKED: ENDMDL
________________________________________________________________________________


    FINAL DOCKED STATE:
    ________________________


Run:   5 / 20
Time taken for this run:   0.022s

DOCKED: MODEL        5
DOCKED: USER    Run = 5
DOCKED: USER
DOCKED: USER    Estimated Free Energy of Binding    =  -5.37 kcal/mol  [=(1)+(2)+(3)-(4)]
DOCKED: USER
DOCKED: USER    (1) Final Intermolecular Energy     =  -7.16 kcal/mol
DOCKED: USER        vdW + Hbond + desolv Energy     =  -7.11 kcal/mol
DOCKED: USER        Electrostatic Energy            =  -0.05 kcal/mol
DOCKED: USER        Moving Ligand-Fixed Receptor    =  -7.16 kcal/mol
DOCKED: USER        Moving Ligand-Moving Receptor   =  +0.00 kcal/mol
DOCKED: USER    (2) Final Total Internal Energy     =  -2.64 kcal/mol
DOCKED: USER    (3) Torsional Free Energy           =  +1.79 kcal/mol
DOCKED: USER    (4) Unbound System's Energy         =  -2.64 kcal/mol
DOCKED: USER
DOCKED: USER
DOCKED: REMARK SMILES COC[C@H]1CCCN1C(=O)CNC(=O)c1ccc2ccccc2n1
DOCKED: REMARK SMILES IDX 4 1 5 2 6 3 7 4 8 5 3 6 2 7 1 8 9 9 10 10 11 11 12 12 13 13
DOCKED: REMARK SMILES IDX 14 15 15 16 16 17 24 18 17 19 23 20 18 21 22 22 19 23 21 24
DOCKED: REMARK SMILES IDX 20 25
DOCKED: REMARK H PARENT 12 14
DOCKED: USER                              x       y       z     vdW  Elec       q    Type
DOCKED: USER                           _______ _______ _______ _____ _____    ______ ____
DOCKED: ROOT
DOCKED: ATOM      1  C   UNL     1     140.671  73.663 220.710 -0.18 -0.02    +0.111 C  
DOCKED: ATOM      2  C   UNL     1     141.274  72.927 221.891 -0.12 -0.00    +0.029 C  
DOCKED: ATOM      3  C   UNL     1     141.434  71.514 221.348 -0.14 -0.00    +0.024 C  
DOCKED: ATOM      4  C   UNL     1     140.658  71.467 220.032 -0.08 -0.02    +0.120 C  
DOCKED: ATOM      5  N   UNL     1     139.776  72.641 220.215 -0.02 +0.06    -0.336 N  
DOCKED: ENDROOT
DOCKED: BRANCH   1   6
DOCKED: ATOM      6  C   UNL     1     140.041  74.953 221.077 -0.20 -0.04    +0.184 C  
DOCKED: BRANCH   6   7
DOCKED: ATOM      7  O   UNL     1     139.557  74.974 222.357 -0.63 +0.05    -0.383 OA 
DOCKED: ATOM      8  C   UNL     1     138.624  76.028 222.482 -0.21 -0.04    +0.194 C  
DOCKED: ENDBRANCH   6   7
DOCKED: ENDBRANCH   1   6
DOCKED: BRANCH   5   9
DOCKED: ATOM      9  C   UNL     1     138.389  72.663 219.946 -0.02 -0.05    +0.242 C  
DOCKED: ATOM     10  O   UNL     1     137.876  72.523 218.808 -0.00 +0.05    -0.273 OA 
DOCKED: BRANCH   9  11
DOCKED: ATOM     11  C   UNL     1     137.425  72.867 221.076 -0.06 -0.05    +0.216 C  
DOCKED: BRANCH  11  12
DOCKED: ATOM     12  N   UNL     1     138.050  72.556 222.348 -0.07 +0.11    -0.342 N  
DOCKED: ATOM     13  C   UNL     1     138.195  71.171 222.663 -0.12 -0.06    +0.270 C  
DOCKED: ATOM     14  H   UNL     1     138.388  73.284 223.020 -0.50 -0.10    +0.164 HD 
DOCKED: ATOM     15  O   UNL     1     137.754  70.364 221.785 -0.04 +0.05    -0.268 OA 
DOCKED: BRANCH  13  16
DOCKED: ATOM     16  C   UNL     1     138.801  70.712 223.902 -0.26 -0.03    +0.128 A  
DOCKED: ATOM     17  C   UNL     1     138.682  69.379 224.221 -0.31 -0.00    +0.035 A  
DOCKED: ATOM     18  N   UNL     1     139.468  71.495 224.753 -0.21 +0.06    -0.243 NA 
DOCKED: ATOM     19  C   UNL     1     139.217  68.827 225.370 -0.44 -0.00    +0.013 A  
DOCKED: ATOM     20  C   UNL     1     140.017  71.004 225.900 -0.47 -0.01    +0.071 A  
DOCKED: ATOM     21  C   UNL     1     139.903  69.664 226.233 -0.50 -0.00    +0.000 A  
DOCKED: ATOM     22  C   UNL     1     140.695  71.860 226.742 -0.67 -0.01    +0.029 A  
DOCKED: ATOM     23  C   UNL     1     140.445  69.134 227.385 -0.61 -0.00    +0.010 A  
DOCKED: ATOM     24  C   UNL     1     141.240  71.321 227.906 -0.70 -0.00    +0.002 A  
DOCKED: ATOM     25  C   UNL     1     141.127  69.992 228.233 -0.55 -0.00    +0.001 A  
DOCKED: ENDBRANCH  13  16
DOCKED: ENDBRANCH  11  12
DOCKED: ENDBRANCH   9  11
DOCKED: ENDBRANCH   5   9
DOCKED: TORSDOF 6
DOCKED: TER
DOCKED: ENDMDL
________________________________________________________________________________


    FINAL DOCKED STATE:
    ________________________


Run:   6 / 20
Time taken for this run:   0.022s

DOCKED: MODEL        6
DOCKED: USER    Run = 6
DOCKED: USER
DOCKED: USER    Estimated Free Energy of Binding    =  -6.60 kcal/mol  [=(1)+(2)+(3)-(4)]
DOCKED: USER
DOCKED: USER    (1) Final Intermolecular Energy     =  -8.39 kcal/mol
DOCKED: USER        vdW + Hbond + desolv Energy     =  -8.34 kcal/mol
DOCKED: USER        Electrostatic Energy            =  -0.05 kcal/mol
DOCKED: USER        Moving Ligand-Fixed Receptor    =  -8.39 kcal/mol
DOCKED: USER        Moving Ligand-Moving Receptor   =  +0.00 kcal/mol
DOCKED: USER    (2) Final Total Internal Energy     =  -1.46 kcal/mol
DOCKED: USER    (3) Torsional Free Energy           =  +1.79 kcal/mol
DOCKED: USER    (4) Unbound System's Energy         =  -1.46 kcal/mol
DOCKED: USER
DOCKED: USER
DOCKED: REMARK SMILES COC[C@H]1CCCN1C(=O)CNC(=O)c1ccc2ccccc2n1
DOCKED: REMARK SMILES IDX 4 1 5 2 6 3 7 4 8 5 3 6 2 7 1 8 9 9 10 10 11 11 12 12 13 13
DOCKED: REMARK SMILES IDX 14 15 15 16 16 17 24 18 17 19 23 20 18 21 22 22 19 23 21 24
DOCKED: REMARK SMILES IDX 20 25
DOCKED: REMARK H PARENT 12 14
DOCKED: USER                              x       y       z     vdW  Elec       q    Type
DOCKED: USER                           _______ _______ _______ _____ _____    ______ ____
DOCKED: ROOT
DOCKED: ATOM      1  C   UNL     1     141.103  77.382 220.625 -0.23 -0.05    +0.111 C  
DOCKED: ATOM      2  C   UNL     1     142.495  77.168 220.062 -0.25 -0.02    +0.029 C  
DOCKED: ATOM      3  C   UNL     1     142.249  76.142 218.965 -0.25 -0.01    +0.024 C  
DOCKED: ATOM      4  C   UNL     1     140.824  75.629 219.166 -0.08 -0.04    +0.120 C  
DOCKED: ATOM      5  N   UNL     1     140.607  76.024 220.575 -0.08 +0.11    -0.336 N  
DOCKED: ENDROOT
DOCKED: BRANCH   1   6
DOCKED: ATOM      6  C   UNL     1     141.098  78.024 221.961 -0.31 -0.08    +0.184 C  
DOCKED: BRANCH   6   7
DOCKED: ATOM      7  O   UNL     1     141.658  79.272 221.963 -0.20 +0.17    -0.383 OA 
DOCKED: ATOM      8  C   UNL     1     142.184  79.542 223.247 -0.48 -0.07    +0.194 C  
DOCKED: ENDBRANCH   6   7
DOCKED: ENDBRANCH   1   6
DOCKED: BRANCH   5   9
DOCKED: ATOM      9  C   UNL     1     140.042  75.197 221.572 -0.23 -0.05    +0.242 C  
DOCKED: ATOM     10  O   UNL     1     139.559  75.607 222.655 -0.48 +0.04    -0.273 OA 
DOCKED: BRANCH   9  11
DOCKED: ATOM     11  C   UNL     1     139.999  73.714 221.356 -0.19 -0.03    +0.216 C  
DOCKED: BRANCH  11  12
DOCKED: ATOM     12  N   UNL     1     139.865  73.013 222.618 -0.12 +0.05    -0.342 N  
DOCKED: ATOM     13  C   UNL     1     140.149  71.614 222.603 -0.21 -0.04    +0.270 C  
DOCKED: ATOM     14  H   UNL     1     139.578  73.479 223.511 -0.42 -0.05    +0.164 HD 
DOCKED: ATOM     15  O   UNL     1     140.490  71.141 221.473 -0.12 +0.04    -0.268 OA 
DOCKED: BRANCH  13  16
DOCKED: ATOM     16  C   UNL     1     140.056  70.785 223.794 -0.29 -0.02    +0.128 A  
DOCKED: ATOM     17  C   UNL     1     139.382  69.590 223.694 -0.25 -0.01    +0.035 A  
DOCKED: ATOM     18  N   UNL     1     140.579  71.104 224.980 -0.32 +0.04    -0.243 NA 
DOCKED: ATOM     19  C   UNL     1     139.228  68.719 224.756 -0.38 -0.00    +0.013 A  
DOCKED: ATOM     20  C   UNL     1     140.458  70.283 226.061 -0.49 -0.01    +0.071 A  
DOCKED: ATOM     21  C   UNL     1     139.782  69.077 225.973 -0.50 -0.00    +0.000 A  
DOCKED: ATOM     22  C   UNL     1     141.019  70.663 227.262 -0.62 -0.00    +0.029 A  
DOCKED: ATOM     23  C   UNL     1     139.640  68.223 227.047 -0.61 -0.00    +0.010 A  
DOCKED: ATOM     24  C   UNL     1     140.874  69.798 228.344 -0.58 -0.00    +0.002 A  
DOCKED: ATOM     25  C   UNL     1     140.203  68.602 228.255 -0.65 -0.00    +0.001 A  
DOCKED: ENDBRANCH  13  16
DOCKED: ENDBRANCH  11  12
DOCKED: ENDBRANCH   9  11
DOCKED: ENDBRANCH   5   9
DOCKED: TORSDOF 6
DOCKED: TER
DOCKED: ENDMDL
________________________________________________________________________________


    FINAL DOCKED STATE:
    ________________________


Run:   7 / 20
Time taken for this run:   0.022s

DOCKED: MODEL        7
DOCKED: USER    Run = 7
DOCKED: USER
DOCKED: USER    Estimated Free Energy of Binding    =  -5.68 kcal/mol  [=(1)+(2)+(3)-(4)]
DOCKED: USER
DOCKED: USER    (1) Final Intermolecular Energy     =  -7.47 kcal/mol
DOCKED: USER        vdW + Hbond + desolv Energy     =  -7.39 kcal/mol
DOCKED: USER        Electrostatic Energy            =  -0.07 kcal/mol
DOCKED: USER        Moving Ligand-Fixed Receptor    =  -7.47 kcal/mol
DOCKED: USER        Moving Ligand-Moving Receptor   =  +0.00 kcal/mol
DOCKED: USER    (2) Final Total Internal Energy     =  -2.60 kcal/mol
DOCKED: USER    (3) Torsional Free Energy           =  +1.79 kcal/mol
DOCKED: USER    (4) Unbound System's Energy         =  -2.60 kcal/mol
DOCKED: USER
DOCKED: USER
DOCKED: REMARK SMILES COC[C@H]1CCCN1C(=O)CNC(=O)c1ccc2ccccc2n1
DOCKED: REMARK SMILES IDX 4 1 5 2 6 3 7 4 8 5 3 6 2 7 1 8 9 9 10 10 11 11 12 12 13 13
DOCKED: REMARK SMILES IDX 14 15 15 16 16 17 24 18 17 19 23 20 18 21 22 22 19 23 21 24
DOCKED: REMARK SMILES IDX 20 25
DOCKED: REMARK H PARENT 12 14
DOCKED: USER                              x       y       z     vdW  Elec       q    Type
DOCKED: USER                           _______ _______ _______ _____ _____    ______ ____
DOCKED: ROOT
DOCKED: ATOM      1  C   UNL     1     141.100  73.307 220.703 -0.19 -0.02    +0.111 C  
DOCKED: ATOM      2  C   UNL     1     141.489  72.099 221.535 -0.23 -0.00    +0.029 C  
DOCKED: ATOM      3  C   UNL     1     141.123  70.941 220.617 -0.11 -0.00    +0.024 C  
DOCKED: ATOM      4  C   UNL     1     140.298  71.536 219.478 -0.05 -0.02    +0.120 C  
DOCKED: ATOM      5  N   UNL     1     139.882  72.810 220.104 -0.02 +0.06    -0.336 N  
DOCKED: ENDROOT
DOCKED: BRANCH   1   6
DOCKED: ATOM      6  C   UNL     1     140.971  74.553 221.494 -0.23 -0.03    +0.184 C  
DOCKED: BRANCH   6   7
DOCKED: ATOM      7  O   UNL     1     139.898  74.546 222.344 -0.74 +0.02    -0.383 OA 
DOCKED: ATOM      8  C   UNL     1     139.281  75.817 222.322 -0.24 -0.04    +0.194 C  
DOCKED: ENDBRANCH   6   7
DOCKED: ENDBRANCH   1   6
DOCKED: BRANCH   5   9
DOCKED: ATOM      9  C   UNL     1     138.571  73.338 220.074 -0.03 -0.05    +0.242 C  
DOCKED: ATOM     10  O   UNL     1     138.194  74.282 219.337 -0.01 +0.06    -0.273 OA 
DOCKED: BRANCH   9  11
DOCKED: ATOM     11  C   UNL     1     137.525  72.755 220.976 -0.05 -0.05    +0.216 C  
DOCKED: BRANCH  11  12
DOCKED: ATOM     12  N   UNL     1     138.069  72.496 222.295 -0.07 +0.10    -0.342 N  
DOCKED: ATOM     13  C   UNL     1     138.313  71.128 222.625 -0.12 -0.06    +0.270 C  
DOCKED: ATOM     14  H   UNL     1     138.283  73.248 222.991 -0.49 -0.10    +0.164 HD 
DOCKED: ATOM     15  O   UNL     1     138.022  70.289 221.715 -0.04 +0.05    -0.268 OA 
DOCKED: BRANCH  13  16
DOCKED: ATOM     16  C   UNL     1     138.855  70.720 223.911 -0.26 -0.03    +0.128 A  
DOCKED: ATOM     17  C   UNL     1     138.570  69.449 224.355 -0.31 -0.00    +0.035 A  
DOCKED: ATOM     18  N   UNL     1     139.613  71.494 224.691 -0.24 +0.06    -0.243 NA 
DOCKED: ATOM     19  C   UNL     1     139.029  68.950 225.560 -0.44 -0.00    +0.013 A  
DOCKED: ATOM     20  C   UNL     1     140.094  71.053 225.889 -0.48 -0.01    +0.071 A  
DOCKED: ATOM     21  C   UNL     1     139.813  69.776 226.347 -0.50 -0.00    +0.000 A  
DOCKED: ATOM     22  C   UNL     1     140.871  71.896 226.654 -0.69 -0.00    +0.029 A  
DOCKED: ATOM     23  C   UNL     1     140.282  69.298 227.553 -0.61 -0.00    +0.010 A  
DOCKED: ATOM     24  C   UNL     1     141.343  71.410 227.871 -0.68 -0.00    +0.002 A  
DOCKED: ATOM     25  C   UNL     1     141.064  70.143 228.324 -0.56 -0.00    +0.001 A  
DOCKED: ENDBRANCH  13  16
DOCKED: ENDBRANCH  11  12
DOCKED: ENDBRANCH   9  11
DOCKED: ENDBRANCH   5   9
DOCKED: TORSDOF 6
DOCKED: TER
DOCKED: ENDMDL
________________________________________________________________________________


    FINAL DOCKED STATE:
    ________________________


Run:   8 / 20
Time taken for this run:   0.022s

DOCKED: MODEL        8
DOCKED: USER    Run = 8
DOCKED: USER
DOCKED: USER    Estimated Free Energy of Binding    =  -5.49 kcal/mol  [=(1)+(2)+(3)-(4)]
DOCKED: USER
DOCKED: USER    (1) Final Intermolecular Energy     =  -7.28 kcal/mol
DOCKED: USER        vdW + Hbond + desolv Energy     =  -7.22 kcal/mol
DOCKED: USER        Electrostatic Energy            =  -0.06 kcal/mol
DOCKED: USER        Moving Ligand-Fixed Receptor    =  -7.28 kcal/mol
DOCKED: USER        Moving Ligand-Moving Receptor   =  +0.00 kcal/mol
DOCKED: USER    (2) Final Total Internal Energy     =  -2.71 kcal/mol
DOCKED: USER    (3) Torsional Free Energy           =  +1.79 kcal/mol
DOCKED: USER    (4) Unbound System's Energy         =  -2.71 kcal/mol
DOCKED: USER
DOCKED: USER
DOCKED: REMARK SMILES COC[C@H]1CCCN1C(=O)CNC(=O)c1ccc2ccccc2n1
DOCKED: REMARK SMILES IDX 4 1 5 2 6 3 7 4 8 5 3 6 2 7 1 8 9 9 10 10 11 11 12 12 13 13
DOCKED: REMARK SMILES IDX 14 15 15 16 16 17 24 18 17 19 23 20 18 21 22 22 19 23 21 24
DOCKED: REMARK SMILES IDX 20 25
DOCKED: REMARK H PARENT 12 14
DOCKED: USER                              x       y       z     vdW  Elec       q    Type
DOCKED: USER                           _______ _______ _______ _____ _____    ______ ____
DOCKED: ROOT
DOCKED: ATOM      1  C   UNL     1     141.081  73.406 220.704 -0.19 -0.02    +0.111 C  
DOCKED: ATOM      2  C   UNL     1     141.405  72.303 221.694 -0.22 -0.00    +0.029 C  
DOCKED: ATOM      3  C   UNL     1     141.158  71.046 220.873 -0.10 -0.00    +0.024 C  
DOCKED: ATOM      4  C   UNL     1     140.443  71.495 219.600 -0.06 -0.02    +0.120 C  
DOCKED: ATOM      5  N   UNL     1     139.941  72.814 220.042 -0.01 +0.06    -0.336 N  
DOCKED: ENDROOT
DOCKED: BRANCH   1   6
DOCKED: ATOM      6  C   UNL     1     140.848  74.723 221.342 -0.24 -0.03    +0.184 C  
DOCKED: BRANCH   6   7
DOCKED: ATOM      7  O   UNL     1     139.890  74.689 222.319 -0.71 +0.02    -0.383 OA 
DOCKED: ATOM      8  C   UNL     1     139.178  75.909 222.314 -0.25 -0.04    +0.194 C  
DOCKED: ENDBRANCH   6   7
DOCKED: ENDBRANCH   1   6
DOCKED: BRANCH   5   9
DOCKED: ATOM      9  C   UNL     1     138.630  73.297 219.825 -0.03 -0.05    +0.242 C  
DOCKED: ATOM     10  O   UNL     1     138.269  73.971 218.829 -0.01 +0.05    -0.273 OA 
DOCKED: BRANCH   9  11
DOCKED: ATOM     11  C   UNL     1     137.564  73.003 220.837 -0.05 -0.05    +0.216 C  
DOCKED: BRANCH  11  12
DOCKED: ATOM     12  N   UNL     1     138.150  72.649 222.115 -0.07 +0.10    -0.342 N  
DOCKED: ATOM     13  C   UNL     1     138.253  71.254 222.404 -0.11 -0.06    +0.270 C  
DOCKED: ATOM     14  H   UNL     1     138.491  73.354 222.811 -0.51 -0.08    +0.164 HD 
DOCKED: ATOM     15  O   UNL     1     137.812  70.478 221.498 -0.03 +0.05    -0.268 OA 
DOCKED: BRANCH  13  16
DOCKED: ATOM     16  C   UNL     1     138.818  70.754 223.646 -0.24 -0.03    +0.128 A  
DOCKED: ATOM     17  C   UNL     1     138.659  69.418 223.934 -0.28 -0.01    +0.035 A  
DOCKED: ATOM     18  N   UNL     1     139.484  71.502 224.529 -0.23 +0.06    -0.243 NA 
DOCKED: ATOM     19  C   UNL     1     139.153  68.829 225.082 -0.41 -0.00    +0.013 A  
DOCKED: ATOM     20  C   UNL     1     139.993  70.974 225.678 -0.47 -0.01    +0.071 A  
DOCKED: ATOM     21  C   UNL     1     139.838  69.630 225.979 -0.48 -0.00    +0.000 A  
DOCKED: ATOM     22  C   UNL     1     140.672  71.794 226.554 -0.63 -0.01    +0.029 A  
DOCKED: ATOM     23  C   UNL     1     140.340  69.063 227.131 -0.60 -0.00    +0.010 A  
DOCKED: ATOM     24  C   UNL     1     141.177  71.218 227.718 -0.69 -0.00    +0.002 A  
DOCKED: ATOM     25  C   UNL     1     141.022  69.885 228.014 -0.61 -0.00    +0.001 A  
DOCKED: ENDBRANCH  13  16
DOCKED: ENDBRANCH  11  12
DOCKED: ENDBRANCH   9  11
DOCKED: ENDBRANCH   5   9
DOCKED: TORSDOF 6
DOCKED: TER
DOCKED: ENDMDL
________________________________________________________________________________


    FINAL DOCKED STATE:
    ________________________


Run:   9 / 20
Time taken for this run:   0.022s

DOCKED: MODEL        9
DOCKED: USER    Run = 9
DOCKED: USER
DOCKED: USER    Estimated Free Energy of Binding    =  -6.31 kcal/mol  [=(1)+(2)+(3)-(4)]
DOCKED: USER
DOCKED: USER    (1) Final Intermolecular Energy     =  -8.10 kcal/mol
DOCKED: USER        vdW + Hbond + desolv Energy     =  -8.16 kcal/mol
DOCKED: USER        Electrostatic Energy            =  +0.07 kcal/mol
DOCKED: USER        Moving Ligand-Fixed Receptor    =  -8.10 kcal/mol
DOCKED: USER        Moving Ligand-Moving Receptor   =  +0.00 kcal/mol
DOCKED: USER    (2) Final Total Internal Energy     =  -1.77 kcal/mol
DOCKED: USER    (3) Torsional Free Energy           =  +1.79 kcal/mol
DOCKED: USER    (4) Unbound System's Energy         =  -1.77 kcal/mol
DOCKED: USER
DOCKED: USER
DOCKED: REMARK SMILES COC[C@H]1CCCN1C(=O)CNC(=O)c1ccc2ccccc2n1
DOCKED: REMARK SMILES IDX 4 1 5 2 6 3 7 4 8 5 3 6 2 7 1 8 9 9 10 10 11 11 12 12 13 13
DOCKED: REMARK SMILES IDX 14 15 15 16 16 17 24 18 17 19 23 20 18 21 22 22 19 23 21 24
DOCKED: REMARK SMILES IDX 20 25
DOCKED: REMARK H PARENT 12 14
DOCKED: USER                              x       y       z     vdW  Elec       q    Type
DOCKED: USER                           _______ _______ _______ _____ _____    ______ ____
DOCKED: ROOT
DOCKED: ATOM      1  C   UNL     1     144.224  71.602 220.039 -0.23 -0.01    +0.111 C  
DOCKED: ATOM      2  C   UNL     1     145.542  71.913 219.355 -0.32 +0.01    +0.029 C  
DOCKED: ATOM      3  C   UNL     1     146.136  72.981 220.263 -0.51 +0.01    +0.024 C  
DOCKED: ATOM      4  C   UNL     1     145.018  73.412 221.211 -0.38 -0.03    +0.120 C  
DOCKED: ATOM      5  N   UNL     1     143.842  72.934 220.452 -0.15 +0.06    -0.336 N  
DOCKED: ENDROOT
DOCKED: BRANCH   1   6
DOCKED: ATOM      6  C   UNL     1     143.259  70.893 219.166 -0.10 -0.01    +0.184 C  
DOCKED: BRANCH   6   7
DOCKED: ATOM      7  O   UNL     1     142.599  69.876 219.804 -0.06 +0.04    -0.383 OA 
DOCKED: ATOM      8  C   UNL     1     143.133  68.639 219.378 -0.14 -0.02    +0.194 C  
DOCKED: ENDBRANCH   6   7
DOCKED: ENDBRANCH   1   6
DOCKED: BRANCH   5   9
DOCKED: ATOM      9  C   UNL     1     142.662  73.680 220.230 -0.17 -0.06    +0.242 C  
DOCKED: ATOM     10  O   UNL     1     142.624  74.914 220.002 -0.19 +0.11    -0.273 OA 
DOCKED: BRANCH   9  11
DOCKED: ATOM     11  C   UNL     1     141.336  72.980 220.262 -0.11 -0.04    +0.216 C  
DOCKED: BRANCH  11  12
DOCKED: ATOM     12  N   UNL     1     141.281  72.030 221.356 -0.10 +0.04    -0.342 N  
DOCKED: ATOM     13  C   UNL     1     140.496  72.407 222.488 -0.19 -0.02    +0.270 C  
DOCKED: ATOM     14  H   UNL     1     141.778  71.108 221.348 +0.06 -0.01    +0.164 HD 
DOCKED: ATOM     15  O   UNL     1     139.932  73.544 222.403 -0.81 +0.02    -0.268 OA 
DOCKED: BRANCH  13  16
DOCKED: ATOM     16  C   UNL     1     140.351  71.555 223.657 -0.33 -0.02    +0.128 A  
DOCKED: ATOM     17  C   UNL     1     139.745  70.331 223.489 -0.26 -0.01    +0.035 A  
DOCKED: ATOM     18  N   UNL     1     140.766  71.878 224.884 -0.26 +0.03    -0.243 NA 
DOCKED: ATOM     19  C   UNL     1     139.553  69.436 224.525 -0.34 -0.00    +0.013 A  
DOCKED: ATOM     20  C   UNL     1     140.603  71.034 225.942 -0.55 -0.01    +0.071 A  
DOCKED: ATOM     21  C   UNL     1     139.994  69.799 225.785 -0.48 -0.00    +0.000 A  
DOCKED: ATOM     22  C   UNL     1     141.051  71.419 227.187 -0.73 -0.00    +0.029 A  
DOCKED: ATOM     23  C   UNL     1     139.812  68.921 226.833 -0.57 -0.00    +0.010 A  
DOCKED: ATOM     24  C   UNL     1     140.865  70.530 228.243 -0.60 -0.00    +0.002 A  
DOCKED: ATOM     25  C   UNL     1     140.262  69.305 228.086 -0.64 -0.00    +0.001 A  
DOCKED: ENDBRANCH  13  16
DOCKED: ENDBRANCH  11  12
DOCKED: ENDBRANCH   9  11
DOCKED: ENDBRANCH   5   9
DOCKED: TORSDOF 6
DOCKED: TER
DOCKED: ENDMDL
________________________________________________________________________________


    FINAL DOCKED STATE:
    ________________________


Run:   10 / 20
Time taken for this run:   0.022s

DOCKED: MODEL        10
DOCKED: USER    Run = 10
DOCKED: USER
DOCKED: USER    Estimated Free Energy of Binding    =  -6.11 kcal/mol  [=(1)+(2)+(3)-(4)]
DOCKED: USER
DOCKED: USER    (1) Final Intermolecular Energy     =  -7.90 kcal/mol
DOCKED: USER        vdW + Hbond + desolv Energy     =  -7.85 kcal/mol
DOCKED: USER        Electrostatic Energy            =  -0.05 kcal/mol
DOCKED: USER        Moving Ligand-Fixed Receptor    =  -7.90 kcal/mol
DOCKED: USER        Moving Ligand-Moving Receptor   =  +0.00 kcal/mol
DOCKED: USER    (2) Final Total Internal Energy     =  -2.17 kcal/mol
DOCKED: USER    (3) Torsional Free Energy           =  +1.79 kcal/mol
DOCKED: USER    (4) Unbound System's Energy         =  -2.17 kcal/mol
DOCKED: USER
DOCKED: USER
DOCKED: REMARK SMILES COC[C@H]1CCCN1C(=O)CNC(=O)c1ccc2ccccc2n1
DOCKED: REMARK SMILES IDX 4 1 5 2 6 3 7 4 8 5 3 6 2 7 1 8 9 9 10 10 11 11 12 12 13 13
DOCKED: REMARK SMILES IDX 14 15 15 16 16 17 24 18 17 19 23 20 18 21 22 22 19 23 21 24
DOCKED: REMARK SMILES IDX 20 25
DOCKED: REMARK H PARENT 12 14
DOCKED: USER                              x       y       z     vdW  Elec       q    Type
DOCKED: USER                           _______ _______ _______ _____ _____    ______ ____
DOCKED: ROOT
DOCKED: ATOM      1  C   UNL     1     139.494  75.615 222.313 -0.25 -0.02    +0.111 C  
DOCKED: ATOM      2  C   UNL     1     139.406  77.127 222.221 -0.32 -0.01    +0.029 C  
DOCKED: ATOM      3  C   UNL     1     137.950  77.390 222.580 -0.26 -0.00    +0.024 C  
DOCKED: ATOM      4  C   UNL     1     137.248  76.033 222.560 -0.22 -0.03    +0.120 C  
DOCKED: ATOM      5  N   UNL     1     138.212  75.260 221.746 -0.11 +0.08    -0.336 N  
DOCKED: ENDROOT
DOCKED: BRANCH   1   6
DOCKED: ATOM      6  C   UNL     1     140.682  75.050 221.630 -0.25 -0.03    +0.184 C  
DOCKED: BRANCH   6   7
DOCKED: ATOM      7  O   UNL     1     140.924  73.744 221.958 -0.64 +0.01    -0.383 OA 
DOCKED: ATOM      8  C   UNL     1     141.548  73.099 220.866 -0.18 -0.03    +0.194 C  
DOCKED: ENDBRANCH   6   7
DOCKED: ENDBRANCH   1   6
DOCKED: BRANCH   5   9
DOCKED: ATOM      9  C   UNL     1     137.866  74.401 220.679 -0.06 -0.05    +0.242 C  
DOCKED: ATOM     10  O   UNL     1     137.483  74.781 219.545 -0.01 +0.05    -0.273 OA 
DOCKED: BRANCH   9  11
DOCKED: ATOM     11  C   UNL     1     137.949  72.916 220.877 -0.06 -0.05    +0.216 C  
DOCKED: BRANCH  11  12
DOCKED: ATOM     12  N   UNL     1     138.519  72.601 222.173 -0.08 +0.10    -0.342 N  
DOCKED: ATOM     13  C   UNL     1     138.467  71.231 222.574 -0.12 -0.06    +0.270 C  
DOCKED: ATOM     14  H   UNL     1     138.952  73.315 222.804 -0.45 -0.07    +0.164 HD 
DOCKED: ATOM     15  O   UNL     1     137.921  70.441 221.740 -0.04 +0.05    -0.268 OA 
DOCKED: BRANCH  13  16
DOCKED: ATOM     16  C   UNL     1     138.998  70.769 223.846 -0.27 -0.03    +0.128 A  
DOCKED: ATOM     17  C   UNL     1     138.808  69.449 224.181 -0.31 -0.01    +0.035 A  
DOCKED: ATOM     18  N   UNL     1     139.659  71.540 224.713 -0.23 +0.06    -0.243 NA 
DOCKED: ATOM     19  C   UNL     1     139.267  68.896 225.361 -0.43 -0.00    +0.013 A  
DOCKED: ATOM     20  C   UNL     1     140.134  71.048 225.892 -0.49 -0.01    +0.071 A  
DOCKED: ATOM     21  C   UNL     1     139.949  69.719 226.241 -0.50 -0.00    +0.000 A  
DOCKED: ATOM     22  C   UNL     1     140.810  71.889 226.750 -0.69 -0.01    +0.029 A  
DOCKED: ATOM     23  C   UNL     1     140.416  69.189 227.425 -0.61 -0.00    +0.010 A  
DOCKED: ATOM     24  C   UNL     1     141.280  71.349 227.945 -0.69 -0.00    +0.002 A  
DOCKED: ATOM     25  C   UNL     1     141.095  70.032 228.289 -0.56 -0.00    +0.001 A  
DOCKED: ENDBRANCH  13  16
DOCKED: ENDBRANCH  11  12
DOCKED: ENDBRANCH   9  11
DOCKED: ENDBRANCH   5   9
DOCKED: TORSDOF 6
DOCKED: TER
DOCKED: ENDMDL
________________________________________________________________________________


    FINAL DOCKED STATE:
    ________________________


Run:   11 / 20
Time taken for this run:   0.022s

DOCKED: MODEL        11
DOCKED: USER    Run = 11
DOCKED: USER
DOCKED: USER    Estimated Free Energy of Binding    =  -5.92 kcal/mol  [=(1)+(2)+(3)-(4)]
DOCKED: USER
DOCKED: USER    (1) Final Intermolecular Energy     =  -7.71 kcal/mol
DOCKED: USER        vdW + Hbond + desolv Energy     =  -7.77 kcal/mol
DOCKED: USER        Electrostatic Energy            =  +0.06 kcal/mol
DOCKED: USER        Moving Ligand-Fixed Receptor    =  -7.71 kcal/mol
DOCKED: USER        Moving Ligand-Moving Receptor   =  +0.00 kcal/mol
DOCKED: USER    (2) Final Total Internal Energy     =  -2.38 kcal/mol
DOCKED: USER    (3) Torsional Free Energy           =  +1.79 kcal/mol
DOCKED: USER    (4) Unbound System's Energy         =  -2.38 kcal/mol
DOCKED: USER
DOCKED: USER
DOCKED: REMARK SMILES COC[C@H]1CCCN1C(=O)CNC(=O)c1ccc2ccccc2n1
DOCKED: REMARK SMILES IDX 4 1 5 2 6 3 7 4 8 5 3 6 2 7 1 8 9 9 10 10 11 11 12 12 13 13
DOCKED: REMARK SMILES IDX 14 15 15 16 16 17 24 18 17 19 23 20 18 21 22 22 19 23 21 24
DOCKED: REMARK SMILES IDX 20 25
DOCKED: REMARK H PARENT 12 14
DOCKED: USER                              x       y       z     vdW  Elec       q    Type
DOCKED: USER                           _______ _______ _______ _____ _____    ______ ____
DOCKED: ROOT
DOCKED: ATOM      1  C   UNL     1     144.124  74.246 219.288 -0.25 -0.04    +0.111 C  
DOCKED: ATOM      2  C   UNL     1     145.022  74.488 220.487 -0.42 -0.01    +0.029 C  
DOCKED: ATOM      3  C   UNL     1     145.344  73.073 220.944 -0.58 -0.00    +0.024 C  
DOCKED: ATOM      4  C   UNL     1     144.396  72.147 220.183 -0.29 -0.01    +0.120 C  
DOCKED: ATOM      5  N   UNL     1     143.359  73.121 219.779 -0.08 +0.06    -0.336 N  
DOCKED: ENDROOT
DOCKED: BRANCH   1   6
DOCKED: ATOM      6  C   UNL     1     143.339  75.437 218.887 -0.23 -0.09    +0.184 C  
DOCKED: BRANCH   6   7
DOCKED: ATOM      7  O   UNL     1     143.078  76.288 219.926 -0.22 +0.26    -0.383 OA 
DOCKED: ATOM      8  C   UNL     1     142.388  77.420 219.438 -0.21 -0.13    +0.194 C  
DOCKED: ENDBRANCH   6   7
DOCKED: ENDBRANCH   1   6
DOCKED: BRANCH   5   9
DOCKED: ATOM      9  C   UNL     1     141.965  72.914 219.888 -0.09 -0.04    +0.242 C  
DOCKED: ATOM     10  O   UNL     1     141.238  72.429 218.986 -0.02 +0.05    -0.273 OA 
DOCKED: BRANCH   9  11
DOCKED: ATOM     11  C   UNL     1     141.265  73.290 221.159 -0.19 -0.03    +0.216 C  
DOCKED: BRANCH  11  12
DOCKED: ATOM     12  N   UNL     1     141.441  74.701 221.447 -0.15 +0.07    -0.342 N  
DOCKED: ATOM     13  C   UNL     1     140.308  75.389 221.978 -0.17 -0.04    +0.270 C  
DOCKED: ATOM     14  H   UNL     1     142.339  75.216 221.287 -0.24 -0.08    +0.164 HD 
DOCKED: ATOM     15  O   UNL     1     139.266  74.677 222.137 -0.54 +0.05    -0.268 OA 
DOCKED: BRANCH  13  16
DOCKED: ATOM     16  C   UNL     1     140.339  76.803 222.312 -0.34 -0.03    +0.128 A  
DOCKED: ATOM     17  C   UNL     1     139.140  77.473 222.388 -0.30 -0.01    +0.035 A  
DOCKED: ATOM     18  N   UNL     1     141.453  77.498 222.552 -0.17 +0.12    -0.243 NA 
DOCKED: ATOM     19  C   UNL     1     139.044  78.816 222.697 -0.30 -0.00    +0.013 A  
DOCKED: ATOM     20  C   UNL     1     141.418  78.825 222.862 -0.48 -0.03    +0.071 A  
DOCKED: ATOM     21  C   UNL     1     140.216  79.511 222.941 -0.41 -0.00    +0.000 A  
DOCKED: ATOM     22  C   UNL     1     142.600  79.493 223.100 -0.60 -0.01    +0.029 A  
DOCKED: ATOM     23  C   UNL     1     140.144  80.852 223.252 -0.41 -0.00    +0.010 A  
DOCKED: ATOM     24  C   UNL     1     142.523  80.849 223.413 -0.65 -0.00    +0.002 A  
DOCKED: ATOM     25  C   UNL     1     141.330  81.527 223.491 -0.42 -0.00    +0.001 A  
DOCKED: ENDBRANCH  13  16
DOCKED: ENDBRANCH  11  12
DOCKED: ENDBRANCH   9  11
DOCKED: ENDBRANCH   5   9
DOCKED: TORSDOF 6
DOCKED: TER
DOCKED: ENDMDL
________________________________________________________________________________


    FINAL DOCKED STATE:
    ________________________


Run:   12 / 20
Time taken for this run:   0.022s

DOCKED: MODEL        12
DOCKED: USER    Run = 12
DOCKED: USER
DOCKED: USER    Estimated Free Energy of Binding    =  -5.80 kcal/mol  [=(1)+(2)+(3)-(4)]
DOCKED: USER
DOCKED: USER    (1) Final Intermolecular Energy     =  -7.59 kcal/mol
DOCKED: USER        vdW + Hbond + desolv Energy     =  -7.65 kcal/mol
DOCKED: USER        Electrostatic Energy            =  +0.06 kcal/mol
DOCKED: USER        Moving Ligand-Fixed Receptor    =  -7.59 kcal/mol
DOCKED: USER        Moving Ligand-Moving Receptor   =  +0.00 kcal/mol
DOCKED: USER    (2) Final Total Internal Energy     =  -2.40 kcal/mol
DOCKED: USER    (3) Torsional Free Energy           =  +1.79 kcal/mol
DOCKED: USER    (4) Unbound System's Energy         =  -2.40 kcal/mol
DOCKED: USER
DOCKED: USER
DOCKED: REMARK SMILES COC[C@H]1CCCN1C(=O)CNC(=O)c1ccc2ccccc2n1
DOCKED: REMARK SMILES IDX 4 1 5 2 6 3 7 4 8 5 3 6 2 7 1 8 9 9 10 10 11 11 12 12 13 13
DOCKED: REMARK SMILES IDX 14 15 15 16 16 17 24 18 17 19 23 20 18 21 22 22 19 23 21 24
DOCKED: REMARK SMILES IDX 20 25
DOCKED: REMARK H PARENT 12 14
DOCKED: USER                              x       y       z     vdW  Elec       q    Type
DOCKED: USER                           _______ _______ _______ _____ _____    ______ ____
DOCKED: ROOT
DOCKED: ATOM      1  C   UNL     1     144.264  74.186 219.391 -0.26 -0.04    +0.111 C  
DOCKED: ATOM      2  C   UNL     1     145.060  74.432 220.658 -0.39 -0.01    +0.029 C  
DOCKED: ATOM      3  C   UNL     1     145.314  73.018 221.163 -0.55 -0.00    +0.024 C  
DOCKED: ATOM      4  C   UNL     1     144.416  72.098 220.337 -0.28 -0.01    +0.120 C  
DOCKED: ATOM      5  N   UNL     1     143.437  73.084 219.831 -0.09 +0.06    -0.336 N  
DOCKED: ENDROOT
DOCKED: BRANCH   1   6
DOCKED: ATOM      6  C   UNL     1     143.540  75.385 218.906 -0.21 -0.09    +0.184 C  
DOCKED: BRANCH   6   7
DOCKED: ATOM      7  O   UNL     1     143.159  76.231 219.913 -0.23 +0.26    -0.383 OA 
DOCKED: ATOM      8  C   UNL     1     142.391  77.284 219.368 -0.23 -0.13    +0.194 C  
DOCKED: ENDBRANCH   6   7
DOCKED: ENDBRANCH   1   6
DOCKED: BRANCH   5   9
DOCKED: ATOM      9  C   UNL     1     142.035  72.905 219.822 -0.09 -0.04    +0.242 C  
DOCKED: ATOM     10  O   UNL     1     141.374  72.462 218.851 -0.02 +0.05    -0.273 OA 
DOCKED: BRANCH   9  11
DOCKED: ATOM     11  C   UNL     1     141.243  73.260 221.045 -0.18 -0.03    +0.216 C  
DOCKED: BRANCH  11  12
DOCKED: ATOM     12  N   UNL     1     141.418  74.659 221.384 -0.15 +0.07    -0.342 N  
DOCKED: ATOM     13  C   UNL     1     140.284  75.326 221.940 -0.17 -0.04    +0.270 C  
DOCKED: ATOM     14  H   UNL     1     142.315  75.182 221.242 -0.20 -0.07    +0.164 HD 
DOCKED: ATOM     15  O   UNL     1     139.243  74.608 222.073 -0.51 +0.06    -0.268 OA 
DOCKED: BRANCH  13  16
DOCKED: ATOM     16  C   UNL     1     140.314  76.727 222.325 -0.34 -0.03    +0.128 A  
DOCKED: ATOM     17  C   UNL     1     139.116  77.341 222.613 -0.29 -0.01    +0.035 A  
DOCKED: ATOM     18  N   UNL     1     141.425  77.462 222.420 -0.16 +0.12    -0.243 NA 
DOCKED: ATOM     19  C   UNL     1     139.020  78.667 222.991 -0.32 -0.00    +0.013 A  
DOCKED: ATOM     20  C   UNL     1     141.388  78.774 222.788 -0.47 -0.03    +0.071 A  
DOCKED: ATOM     21  C   UNL     1     140.188  79.403 223.080 -0.42 -0.00    +0.000 A  
DOCKED: ATOM     22  C   UNL     1     142.567  79.484 222.870 -0.59 -0.01    +0.029 A  
DOCKED: ATOM     23  C   UNL     1     140.115  80.728 223.456 -0.43 -0.00    +0.010 A  
DOCKED: ATOM     24  C   UNL     1     142.489  80.822 223.249 -0.64 -0.00    +0.002 A  
DOCKED: ATOM     25  C   UNL     1     141.298  81.444 223.538 -0.43 -0.00    +0.001 A  
DOCKED: ENDBRANCH  13  16
DOCKED: ENDBRANCH  11  12
DOCKED: ENDBRANCH   9  11
DOCKED: ENDBRANCH   5   9
DOCKED: TORSDOF 6
DOCKED: TER
DOCKED: ENDMDL
________________________________________________________________________________


    FINAL DOCKED STATE:
    ________________________


Run:   13 / 20
Time taken for this run:   0.022s

DOCKED: MODEL        13
DOCKED: USER    Run = 13
DOCKED: USER
DOCKED: USER    Estimated Free Energy of Binding    =  -5.61 kcal/mol  [=(1)+(2)+(3)-(4)]
DOCKED: USER
DOCKED: USER    (1) Final Intermolecular Energy     =  -7.40 kcal/mol
DOCKED: USER        vdW + Hbond + desolv Energy     =  -7.31 kcal/mol
DOCKED: USER        Electrostatic Energy            =  -0.09 kcal/mol
DOCKED: USER        Moving Ligand-Fixed Receptor    =  -7.40 kcal/mol
DOCKED: USER        Moving Ligand-Moving Receptor   =  +0.00 kcal/mol
DOCKED: USER    (2) Final Total Internal Energy     =  -2.67 kcal/mol
DOCKED: USER    (3) Torsional Free Energy           =  +1.79 kcal/mol
DOCKED: USER    (4) Unbound System's Energy         =  -2.67 kcal/mol
DOCKED: USER
DOCKED: USER
DOCKED: REMARK SMILES COC[C@H]1CCCN1C(=O)CNC(=O)c1ccc2ccccc2n1
DOCKED: REMARK SMILES IDX 4 1 5 2 6 3 7 4 8 5 3 6 2 7 1 8 9 9 10 10 11 11 12 12 13 13
DOCKED: REMARK SMILES IDX 14 15 15 16 16 17 24 18 17 19 23 20 18 21 22 22 19 23 21 24
DOCKED: REMARK SMILES IDX 20 25
DOCKED: REMARK H PARENT 12 14
DOCKED: USER                              x       y       z     vdW  Elec       q    Type
DOCKED: USER                           _______ _______ _______ _____ _____    ______ ____
DOCKED: ROOT
DOCKED: ATOM      1  C   UNL     1     141.019  73.160 220.611 -0.17 -0.02    +0.111 C  
DOCKED: ATOM      2  C   UNL     1     141.432  72.034 221.541 -0.23 -0.00    +0.029 C  
DOCKED: ATOM      3  C   UNL     1     140.977  70.799 220.778 -0.09 -0.00    +0.024 C  
DOCKED: ATOM      4  C   UNL     1     140.091  71.298 219.637 -0.05 -0.02    +0.120 C  
DOCKED: ATOM      5  N   UNL     1     139.751  72.643 220.149 -0.02 +0.06    -0.336 N  
DOCKED: ENDROOT
DOCKED: BRANCH   1   6
DOCKED: ATOM      6  C   UNL     1     140.976  74.486 221.272 -0.23 -0.03    +0.184 C  
DOCKED: BRANCH   6   7
DOCKED: ATOM      7  O   UNL     1     140.109  74.535 222.330 -0.73 -0.00    -0.383 OA 
DOCKED: ATOM      8  C   UNL     1     139.426  75.771 222.314 -0.24 -0.04    +0.194 C  
DOCKED: ENDBRANCH   6   7
DOCKED: ENDBRANCH   1   6
DOCKED: BRANCH   5   9
DOCKED: ATOM      9  C   UNL     1     138.455  73.207 220.147 -0.03 -0.05    +0.242 C  
DOCKED: ATOM     10  O   UNL     1     138.044  74.060 219.323 -0.01 +0.05    -0.273 OA 
DOCKED: BRANCH   9  11
DOCKED: ATOM     11  C   UNL     1     137.469  72.781 221.193 -0.06 -0.05    +0.216 C  
DOCKED: BRANCH  11  12
DOCKED: ATOM     12  N   UNL     1     138.140  72.488 222.445 -0.06 +0.11    -0.342 N  
DOCKED: ATOM     13  C   UNL     1     138.228  71.111 222.813 -0.13 -0.06    +0.270 C  
DOCKED: ATOM     14  H   UNL     1     138.550  73.223 223.068 -0.49 -0.10    +0.164 HD 
DOCKED: ATOM     15  O   UNL     1     137.701  70.294 221.992 -0.05 +0.05    -0.268 OA 
DOCKED: BRANCH  13  16
DOCKED: ATOM     16  C   UNL     1     138.872  70.670 224.039 -0.27 -0.03    +0.128 A  
DOCKED: ATOM     17  C   UNL     1     138.858  69.324 224.325 -0.32 -0.00    +0.035 A  
DOCKED: ATOM     18  N   UNL     1     139.477  71.482 224.909 -0.20 +0.06    -0.243 NA 
DOCKED: ATOM     19  C   UNL     1     139.438  68.788 225.459 -0.45 -0.00    +0.013 A  
DOCKED: ATOM     20  C   UNL     1     140.065  71.007 226.044 -0.47 -0.01    +0.071 A  
DOCKED: ATOM     21  C   UNL     1     140.058  69.654 226.343 -0.52 -0.00    +0.000 A  
DOCKED: ATOM     22  C   UNL     1     140.676  71.892 226.907 -0.69 -0.01    +0.029 A  
DOCKED: ATOM     23  C   UNL     1     140.643  69.140 227.481 -0.62 -0.00    +0.010 A  
DOCKED: ATOM     24  C   UNL     1     141.265  71.369 228.056 -0.70 -0.00    +0.002 A  
DOCKED: ATOM     25  C   UNL     1     141.257  70.027 228.350 -0.49 -0.00    +0.001 A  
DOCKED: ENDBRANCH  13  16
DOCKED: ENDBRANCH  11  12
DOCKED: ENDBRANCH   9  11
DOCKED: ENDBRANCH   5   9
DOCKED: TORSDOF 6
DOCKED: TER
DOCKED: ENDMDL
________________________________________________________________________________


    FINAL DOCKED STATE:
    ________________________


Run:   14 / 20
Time taken for this run:   0.022s

DOCKED: MODEL        14
DOCKED: USER    Run = 14
DOCKED: USER
DOCKED: USER    Estimated Free Energy of Binding    =  -6.97 kcal/mol  [=(1)+(2)+(3)-(4)]
DOCKED: USER
DOCKED: USER    (1) Final Intermolecular Energy     =  -8.76 kcal/mol
DOCKED: USER        vdW + Hbond + desolv Energy     =  -8.72 kcal/mol
DOCKED: USER        Electrostatic Energy            =  -0.04 kcal/mol
DOCKED: USER        Moving Ligand-Fixed Receptor    =  -8.76 kcal/mol
DOCKED: USER        Moving Ligand-Moving Receptor   =  +0.00 kcal/mol
DOCKED: USER    (2) Final Total Internal Energy     =  -1.27 kcal/mol
DOCKED: USER    (3) Torsional Free Energy           =  +1.79 kcal/mol
DOCKED: USER    (4) Unbound System's Energy         =  -1.27 kcal/mol
DOCKED: USER
DOCKED: USER
DOCKED: REMARK SMILES COC[C@H]1CCCN1C(=O)CNC(=O)c1ccc2ccccc2n1
DOCKED: REMARK SMILES IDX 4 1 5 2 6 3 7 4 8 5 3 6 2 7 1 8 9 9 10 10 11 11 12 12 13 13
DOCKED: REMARK SMILES IDX 14 15 15 16 16 17 24 18 17 19 23 20 18 21 22 22 19 23 21 24
DOCKED: REMARK SMILES IDX 20 25
DOCKED: REMARK H PARENT 12 14
DOCKED: USER                              x       y       z     vdW  Elec       q    Type
DOCKED: USER                           _______ _______ _______ _____ _____    ______ ____
DOCKED: ROOT
DOCKED: ATOM      1  C   UNL     1     143.249  75.597 219.859 -0.30 -0.06    +0.111 C  
DOCKED: ATOM      2  C   UNL     1     143.020  75.545 218.361 -0.23 -0.01    +0.029 C  
DOCKED: ATOM      3  C   UNL     1     142.151  76.771 218.121 -0.21 -0.01    +0.024 C  
DOCKED: ATOM      4  C   UNL     1     141.705  77.260 219.498 -0.22 -0.06    +0.120 C  
DOCKED: ATOM      5  N   UNL     1     141.940  76.034 220.292 -0.12 +0.16    -0.336 N  
DOCKED: ENDROOT
DOCKED: BRANCH   1   6
DOCKED: ATOM      6  C   UNL     1     143.723  74.314 220.430 -0.29 -0.07    +0.184 C  
DOCKED: BRANCH   6   7
DOCKED: ATOM      7  O   UNL     1     145.082  74.260 220.584 -0.34 +0.12    -0.383 OA 
DOCKED: ATOM      8  C   UNL     1     145.434  73.023 221.168 -0.44 -0.04    +0.194 C  
DOCKED: ENDBRANCH   6   7
DOCKED: ENDBRANCH   1   6
DOCKED: BRANCH   5   9
DOCKED: ATOM      9  C   UNL     1     141.035  75.490 221.231 -0.23 -0.07    +0.242 C  
DOCKED: ATOM     10  O   UNL     1     140.725  76.026 222.323 -0.42 +0.06    -0.273 OA 
DOCKED: BRANCH   9  11
DOCKED: ATOM     11  C   UNL     1     140.375  74.176 220.936 -0.17 -0.04    +0.216 C  
DOCKED: BRANCH  11  12
DOCKED: ATOM     12  N   UNL     1     139.966  73.519 222.163 -0.14 +0.03    -0.342 N  
DOCKED: ATOM     13  C   UNL     1     140.641  72.303 222.488 -0.19 -0.02    +0.270 C  
DOCKED: ATOM     14  H   UNL     1     139.221  73.890 222.798 -0.51 -0.05    +0.164 HD 
DOCKED: ATOM     15  O   UNL     1     141.529  71.935 221.656 -0.18 +0.02    -0.268 OA 
DOCKED: BRANCH  13  16
DOCKED: ATOM     16  C   UNL     1     140.335  71.537 223.685 -0.34 -0.02    +0.128 A  
DOCKED: ATOM     17  C   UNL     1     139.634  70.362 223.535 -0.29 -0.01    +0.035 A  
DOCKED: ATOM     18  N   UNL     1     140.688  71.894 224.922 -0.28 +0.03    -0.243 NA 
DOCKED: ATOM     19  C   UNL     1     139.287  69.550 224.598 -0.35 -0.00    +0.013 A  
DOCKED: ATOM     20  C   UNL     1     140.372  71.131 226.006 -0.54 -0.01    +0.071 A  
DOCKED: ATOM     21  C   UNL     1     139.666  69.946 225.868 -0.47 -0.00    +0.000 A  
DOCKED: ATOM     22  C   UNL     1     140.762  71.549 227.261 -0.74 -0.01    +0.029 A  
DOCKED: ATOM     23  C   UNL     1     139.330  69.151 226.943 -0.50 -0.00    +0.010 A  
DOCKED: ATOM     24  C   UNL     1     140.420  70.743 228.344 -0.61 -0.00    +0.002 A  
DOCKED: ATOM     25  C   UNL     1     139.721  69.568 228.205 -0.62 -0.00    +0.001 A  
DOCKED: ENDBRANCH  13  16
DOCKED: ENDBRANCH  11  12
DOCKED: ENDBRANCH   9  11
DOCKED: ENDBRANCH   5   9
DOCKED: TORSDOF 6
DOCKED: TER
DOCKED: ENDMDL
________________________________________________________________________________


    FINAL DOCKED STATE:
    ________________________


Run:   15 / 20
Time taken for this run:   0.022s

DOCKED: MODEL        15
DOCKED: USER    Run = 15
DOCKED: USER
DOCKED: USER    Estimated Free Energy of Binding    =  -5.85 kcal/mol  [=(1)+(2)+(3)-(4)]
DOCKED: USER
DOCKED: USER    (1) Final Intermolecular Energy     =  -7.64 kcal/mol
DOCKED: USER        vdW + Hbond + desolv Energy     =  -7.59 kcal/mol
DOCKED: USER        Electrostatic Energy            =  -0.04 kcal/mol
DOCKED: USER        Moving Ligand-Fixed Receptor    =  -7.64 kcal/mol
DOCKED: USER        Moving Ligand-Moving Receptor   =  +0.00 kcal/mol
DOCKED: USER    (2) Final Total Internal Energy     =  -2.25 kcal/mol
DOCKED: USER    (3) Torsional Free Energy           =  +1.79 kcal/mol
DOCKED: USER    (4) Unbound System's Energy         =  -2.25 kcal/mol
DOCKED: USER
DOCKED: USER
DOCKED: REMARK SMILES COC[C@H]1CCCN1C(=O)CNC(=O)c1ccc2ccccc2n1
DOCKED: REMARK SMILES IDX 4 1 5 2 6 3 7 4 8 5 3 6 2 7 1 8 9 9 10 10 11 11 12 12 13 13
DOCKED: REMARK SMILES IDX 14 15 15 16 16 17 24 18 17 19 23 20 18 21 22 22 19 23 21 24
DOCKED: REMARK SMILES IDX 20 25
DOCKED: REMARK H PARENT 12 14
DOCKED: USER                              x       y       z     vdW  Elec       q    Type
DOCKED: USER                           _______ _______ _______ _____ _____    ______ ____
DOCKED: ROOT
DOCKED: ATOM      1  C   UNL     1     142.153  79.123 221.792 -0.32 -0.06    +0.111 C  
DOCKED: ATOM      2  C   UNL     1     142.529  80.532 222.211 -0.51 -0.01    +0.029 C  
DOCKED: ATOM      3  C   UNL     1     142.514  80.434 223.730 -0.66 -0.01    +0.024 C  
DOCKED: ATOM      4  C   UNL     1     141.858  79.096 224.070 -0.45 -0.03    +0.120 C  
DOCKED: ATOM      5  N   UNL     1     141.157  78.826 222.796 -0.22 +0.11    -0.336 N  
DOCKED: ENDROOT
DOCKED: BRANCH   1   6
DOCKED: ATOM      6  C   UNL     1     141.701  79.027 220.383 -0.20 -0.10    +0.184 C  
DOCKED: BRANCH   6   7
DOCKED: ATOM      7  O   UNL     1     141.465  77.741 219.977 -0.10 +0.20    -0.383 OA 
DOCKED: ATOM      8  C   UNL     1     142.580  77.274 219.246 -0.24 -0.13    +0.194 C  
DOCKED: ENDBRANCH   6   7
DOCKED: ENDBRANCH   1   6
DOCKED: BRANCH   5   9
DOCKED: ATOM      9  C   UNL     1     139.819  78.384 222.685 -0.24 -0.05    +0.242 C  
DOCKED: ATOM     10  O   UNL     1     138.809  79.126 222.758 -0.17 +0.05    -0.273 OA 
DOCKED: BRANCH   9  11
DOCKED: ATOM     11  C   UNL     1     139.545  76.926 222.463 -0.20 -0.04    +0.216 C  
DOCKED: BRANCH  11  12
DOCKED: ATOM     12  N   UNL     1     140.733  76.245 221.987 -0.21 +0.10    -0.342 N  
DOCKED: ATOM     13  C   UNL     1     140.594  74.855 221.690 -0.17 -0.04    +0.270 C  
DOCKED: ATOM     14  H   UNL     1     141.658  76.718 221.855 -0.38 -0.10    +0.164 HD 
DOCKED: ATOM     15  O   UNL     1     139.433  74.372 221.882 -0.51 +0.05    -0.268 OA 
DOCKED: BRANCH  13  16
DOCKED: ATOM     16  C   UNL     1     141.700  74.046 221.205 -0.20 -0.02    +0.128 A  
DOCKED: ATOM     17  C   UNL     1     141.437  72.740 220.859 -0.22 -0.00    +0.035 A  
DOCKED: ATOM     18  N   UNL     1     142.954  74.482 221.072 -0.00 +0.08    -0.243 NA 
DOCKED: ATOM     19  C   UNL     1     142.407  71.876 220.385 -0.21 -0.00    +0.013 A  
DOCKED: ATOM     20  C   UNL     1     143.950  73.674 220.610 -0.36 -0.02    +0.071 A  
DOCKED: ATOM     21  C   UNL     1     143.698  72.357 220.258 -0.31 -0.00    +0.000 A  
DOCKED: ATOM     22  C   UNL     1     145.227  74.178 220.493 -0.54 -0.01    +0.029 A  
DOCKED: ATOM     23  C   UNL     1     144.681  71.512 219.787 -0.29 +0.00    +0.010 A  
DOCKED: ATOM     24  C   UNL     1     146.218  73.321 220.018 -0.54 +0.00    +0.002 A  
DOCKED: ATOM     25  C   UNL     1     145.966  72.016 219.669 -0.33 +0.00    +0.001 A  
DOCKED: ENDBRANCH  13  16
DOCKED: ENDBRANCH  11  12
DOCKED: ENDBRANCH   9  11
DOCKED: ENDBRANCH   5   9
DOCKED: TORSDOF 6
DOCKED: TER
DOCKED: ENDMDL
________________________________________________________________________________


    FINAL DOCKED STATE:
    ________________________


Run:   16 / 20
Time taken for this run:   0.022s

DOCKED: MODEL        16
DOCKED: USER    Run = 16
DOCKED: USER
DOCKED: USER    Estimated Free Energy of Binding    =  -5.89 kcal/mol  [=(1)+(2)+(3)-(4)]
DOCKED: USER
DOCKED: USER    (1) Final Intermolecular Energy     =  -7.68 kcal/mol
DOCKED: USER        vdW + Hbond + desolv Energy     =  -7.73 kcal/mol
DOCKED: USER        Electrostatic Energy            =  +0.04 kcal/mol
DOCKED: USER        Moving Ligand-Fixed Receptor    =  -7.68 kcal/mol
DOCKED: USER        Moving Ligand-Moving Receptor   =  +0.00 kcal/mol
DOCKED: USER    (2) Final Total Internal Energy     =  -2.39 kcal/mol
DOCKED: USER    (3) Torsional Free Energy           =  +1.79 kcal/mol
DOCKED: USER    (4) Unbound System's Energy         =  -2.39 kcal/mol
DOCKED: USER
DOCKED: USER
DOCKED: REMARK SMILES COC[C@H]1CCCN1C(=O)CNC(=O)c1ccc2ccccc2n1
DOCKED: REMARK SMILES IDX 4 1 5 2 6 3 7 4 8 5 3 6 2 7 1 8 9 9 10 10 11 11 12 12 13 13
DOCKED: REMARK SMILES IDX 14 15 15 16 16 17 24 18 17 19 23 20 18 21 22 22 19 23 21 24
DOCKED: REMARK SMILES IDX 20 25
DOCKED: REMARK H PARENT 12 14
DOCKED: USER                              x       y       z     vdW  Elec       q    Type
DOCKED: USER                           _______ _______ _______ _____ _____    ______ ____
DOCKED: ROOT
DOCKED: ATOM      1  C   UNL     1     144.228  74.175 219.326 -0.25 -0.04    +0.111 C  
DOCKED: ATOM      2  C   UNL     1     145.074  74.507 220.541 -0.39 -0.01    +0.029 C  
DOCKED: ATOM      3  C   UNL     1     145.359  73.131 221.126 -0.57 -0.00    +0.024 C  
DOCKED: ATOM      4  C   UNL     1     144.435  72.154 220.400 -0.29 -0.01    +0.120 C  
DOCKED: ATOM      5  N   UNL     1     143.429  73.100 219.871 -0.09 +0.06    -0.336 N  
DOCKED: ENDROOT
DOCKED: BRANCH   1   6
DOCKED: ATOM      6  C   UNL     1     143.476  75.336 218.794 -0.20 -0.09    +0.184 C  
DOCKED: BRANCH   6   7
DOCKED: ATOM      7  O   UNL     1     143.067  76.207 219.768 -0.23 +0.25    -0.383 OA 
DOCKED: ATOM      8  C   UNL     1     142.495  77.347 219.159 -0.23 -0.13    +0.194 C  
DOCKED: ENDBRANCH   6   7
DOCKED: ENDBRANCH   1   6
DOCKED: BRANCH   5   9
DOCKED: ATOM      9  C   UNL     1     142.029  72.914 219.932 -0.10 -0.04    +0.242 C  
DOCKED: ATOM     10  O   UNL     1     141.321  72.478 218.992 -0.02 +0.05    -0.273 OA 
DOCKED: BRANCH   9  11
DOCKED: ATOM     11  C   UNL     1     141.299  73.252 221.198 -0.19 -0.03    +0.216 C  
DOCKED: BRANCH  11  12
DOCKED: ATOM     12  N   UNL     1     141.477  74.651 221.537 -0.13 +0.06    -0.342 N  
DOCKED: ATOM     13  C   UNL     1     140.307  75.358 221.952 -0.17 -0.04    +0.270 C  
DOCKED: ATOM     14  H   UNL     1     142.398  75.146 221.491 -0.31 -0.08    +0.164 HD 
DOCKED: ATOM     15  O   UNL     1     139.237  74.672 221.976 -0.44 +0.06    -0.268 OA 
DOCKED: BRANCH  13  16
DOCKED: ATOM     16  C   UNL     1     140.335  76.764 222.321 -0.34 -0.03    +0.128 A  
DOCKED: ATOM     17  C   UNL     1     139.131  77.404 222.505 -0.29 -0.01    +0.035 A  
DOCKED: ATOM     18  N   UNL     1     141.450  77.478 222.495 -0.17 +0.12    -0.243 NA 
DOCKED: ATOM     19  C   UNL     1     139.032  78.737 222.857 -0.31 -0.00    +0.013 A  
DOCKED: ATOM     20  C   UNL     1     141.411  78.795 222.842 -0.48 -0.03    +0.071 A  
DOCKED: ATOM     21  C   UNL     1     140.205  79.452 223.030 -0.42 -0.00    +0.000 A  
DOCKED: ATOM     22  C   UNL     1     142.594  79.483 223.008 -0.59 -0.01    +0.029 A  
DOCKED: ATOM     23  C   UNL     1     140.129  80.783 223.381 -0.42 -0.00    +0.010 A  
DOCKED: ATOM     24  C   UNL     1     142.513  80.828 223.363 -0.65 -0.00    +0.002 A  
DOCKED: ATOM     25  C   UNL     1     141.316  81.477 223.549 -0.42 -0.00    +0.001 A  
DOCKED: ENDBRANCH  13  16
DOCKED: ENDBRANCH  11  12
DOCKED: ENDBRANCH   9  11
DOCKED: ENDBRANCH   5   9
DOCKED: TORSDOF 6
DOCKED: TER
DOCKED: ENDMDL
________________________________________________________________________________


    FINAL DOCKED STATE:
    ________________________


Run:   17 / 20
Time taken for this run:   0.022s

DOCKED: MODEL        17
DOCKED: USER    Run = 17
DOCKED: USER
DOCKED: USER    Estimated Free Energy of Binding    =  -6.56 kcal/mol  [=(1)+(2)+(3)-(4)]
DOCKED: USER
DOCKED: USER    (1) Final Intermolecular Energy     =  -8.35 kcal/mol
DOCKED: USER        vdW + Hbond + desolv Energy     =  -8.30 kcal/mol
DOCKED: USER        Electrostatic Energy            =  -0.05 kcal/mol
DOCKED: USER        Moving Ligand-Fixed Receptor    =  -8.35 kcal/mol
DOCKED: USER        Moving Ligand-Moving Receptor   =  +0.00 kcal/mol
DOCKED: USER    (2) Final Total Internal Energy     =  -1.52 kcal/mol
DOCKED: USER    (3) Torsional Free Energy           =  +1.79 kcal/mol
DOCKED: USER    (4) Unbound System's Energy         =  -1.52 kcal/mol
DOCKED: USER
DOCKED: USER
DOCKED: REMARK SMILES COC[C@H]1CCCN1C(=O)CNC(=O)c1ccc2ccccc2n1
DOCKED: REMARK SMILES IDX 4 1 5 2 6 3 7 4 8 5 3 6 2 7 1 8 9 9 10 10 11 11 12 12 13 13
DOCKED: REMARK SMILES IDX 14 15 15 16 16 17 24 18 17 19 23 20 18 21 22 22 19 23 21 24
DOCKED: REMARK SMILES IDX 20 25
DOCKED: REMARK H PARENT 12 14
DOCKED: USER                              x       y       z     vdW  Elec       q    Type
DOCKED: USER                           _______ _______ _______ _____ _____    ______ ____
DOCKED: ROOT
DOCKED: ATOM      1  C   UNL     1     140.811  69.503 225.809 -0.42 -0.02    +0.111 C  
DOCKED: ATOM      2  C   UNL     1     140.167  68.915 227.051 -0.61 -0.01    +0.029 C  
DOCKED: ATOM      3  C   UNL     1     139.252  67.847 226.469 -0.54 -0.00    +0.024 C  
DOCKED: ATOM      4  C   UNL     1     139.210  68.090 224.961 -0.33 -0.01    +0.120 C  
DOCKED: ATOM      5  N   UNL     1     139.674  69.494 224.917 -0.14 +0.06    -0.336 N  
DOCKED: ENDROOT
DOCKED: BRANCH   1   6
DOCKED: ATOM      6  C   UNL     1     141.443  70.824 226.040 -0.44 -0.02    +0.184 C  
DOCKED: BRANCH   6   7
DOCKED: ATOM      7  O   UNL     1     140.598  71.735 226.614 -0.38 +0.07    -0.383 OA 
DOCKED: ATOM      8  C   UNL     1     140.961  71.916 227.967 -0.62 -0.05    +0.194 C  
DOCKED: ENDBRANCH   6   7
DOCKED: ENDBRANCH   1   6
DOCKED: BRANCH   5   9
DOCKED: ATOM      9  C   UNL     1     139.078  70.521 224.150 -0.24 -0.05    +0.242 C  
DOCKED: ATOM     10  O   UNL     1     138.054  71.166 224.486 -0.15 +0.07    -0.273 OA 
DOCKED: BRANCH   9  11
DOCKED: ATOM     11  C   UNL     1     139.684  70.898 222.832 -0.19 -0.04    +0.216 C  
DOCKED: BRANCH  11  12
DOCKED: ATOM     12  N   UNL     1     139.758  72.340 222.692 -0.17 +0.06    -0.342 N  
DOCKED: ATOM     13  C   UNL     1     140.771  72.843 221.820 -0.19 -0.02    +0.270 C  
DOCKED: ATOM     14  H   UNL     1     139.118  73.003 223.188 -0.43 -0.08    +0.164 HD 
DOCKED: ATOM     15  O   UNL     1     141.497  71.960 221.263 -0.16 +0.03    -0.268 OA 
DOCKED: BRANCH  13  16
DOCKED: ATOM     16  C   UNL     1     140.962  74.265 221.584 -0.26 -0.01    +0.128 A  
DOCKED: ATOM     17  C   UNL     1     141.877  74.641 220.628 -0.28 -0.01    +0.035 A  
DOCKED: ATOM     18  N   UNL     1     140.309  75.233 222.232 -0.54 +0.02    -0.243 NA 
DOCKED: ATOM     19  C   UNL     1     142.143  75.961 220.316 -0.28 -0.01    +0.013 A  
DOCKED: ATOM     20  C   UNL     1     140.532  76.551 221.965 -0.36 -0.02    +0.071 A  
DOCKED: ATOM     21  C   UNL     1     141.451  76.942 221.005 -0.30 -0.00    +0.000 A  
DOCKED: ATOM     22  C   UNL     1     139.829  77.508 222.665 -0.31 -0.01    +0.029 A  
DOCKED: ATOM     23  C   UNL     1     141.701  78.266 220.710 -0.32 -0.01    +0.010 A  
DOCKED: ATOM     24  C   UNL     1     140.085  78.844 222.364 -0.33 -0.00    +0.002 A  
DOCKED: ATOM     25  C   UNL     1     140.997  79.230 221.412 -0.32 -0.00    +0.001 A  
DOCKED: ENDBRANCH  13  16
DOCKED: ENDBRANCH  11  12
DOCKED: ENDBRANCH   9  11
DOCKED: ENDBRANCH   5   9
DOCKED: TORSDOF 6
DOCKED: TER
DOCKED: ENDMDL
________________________________________________________________________________


    FINAL DOCKED STATE:
    ________________________


Run:   18 / 20
Time taken for this run:   0.022s

DOCKED: MODEL        18
DOCKED: USER    Run = 18
DOCKED: USER
DOCKED: USER    Estimated Free Energy of Binding    =  -5.61 kcal/mol  [=(1)+(2)+(3)-(4)]
DOCKED: USER
DOCKED: USER    (1) Final Intermolecular Energy     =  -7.40 kcal/mol
DOCKED: USER        vdW + Hbond + desolv Energy     =  -7.33 kcal/mol
DOCKED: USER        Electrostatic Energy            =  -0.07 kcal/mol
DOCKED: USER        Moving Ligand-Fixed Receptor    =  -7.40 kcal/mol
DOCKED: USER        Moving Ligand-Moving Receptor   =  +0.00 kcal/mol
DOCKED: USER    (2) Final Total Internal Energy     =  -2.60 kcal/mol
DOCKED: USER    (3) Torsional Free Energy           =  +1.79 kcal/mol
DOCKED: USER    (4) Unbound System's Energy         =  -2.60 kcal/mol
DOCKED: USER
DOCKED: USER
DOCKED: REMARK SMILES COC[C@H]1CCCN1C(=O)CNC(=O)c1ccc2ccccc2n1
DOCKED: REMARK SMILES IDX 4 1 5 2 6 3 7 4 8 5 3 6 2 7 1 8 9 9 10 10 11 11 12 12 13 13
DOCKED: REMARK SMILES IDX 14 15 15 16 16 17 24 18 17 19 23 20 18 21 22 22 19 23 21 24
DOCKED: REMARK SMILES IDX 20 25
DOCKED: REMARK H PARENT 12 14
DOCKED: USER                              x       y       z     vdW  Elec       q    Type
DOCKED: USER                           _______ _______ _______ _____ _____    ______ ____
DOCKED: ROOT
DOCKED: ATOM      1  C   UNL     1     141.353  73.430 220.755 -0.21 -0.02    +0.111 C  
DOCKED: ATOM      2  C   UNL     1     141.727  72.213 221.580 -0.17 -0.00    +0.029 C  
DOCKED: ATOM      3  C   UNL     1     141.499  71.072 220.599 -0.11 -0.00    +0.024 C  
DOCKED: ATOM      4  C   UNL     1     140.747  71.669 219.410 -0.05 -0.02    +0.120 C  
DOCKED: ATOM      5  N   UNL     1     140.217  72.899 220.037 -0.02 +0.06    -0.336 N  
DOCKED: ENDROOT
DOCKED: BRANCH   1   6
DOCKED: ATOM      6  C   UNL     1     141.096  74.641 221.571 -0.21 -0.03    +0.184 C  
DOCKED: BRANCH   6   7
DOCKED: ATOM      7  O   UNL     1     139.973  74.541 222.347 -0.74 +0.01    -0.383 OA 
DOCKED: ATOM      8  C   UNL     1     139.292  75.779 222.337 -0.24 -0.04    +0.194 C  
DOCKED: ENDBRANCH   6   7
DOCKED: ENDBRANCH   1   6
DOCKED: BRANCH   5   9
DOCKED: ATOM      9  C   UNL     1     138.889  73.367 219.908 -0.03 -0.05    +0.242 C  
DOCKED: ATOM     10  O   UNL     1     138.528  74.307 219.158 -0.01 +0.06    -0.273 OA 
DOCKED: BRANCH   9  11
DOCKED: ATOM     11  C   UNL     1     137.802  72.719 220.713 -0.04 -0.04    +0.216 C  
DOCKED: BRANCH  11  12
DOCKED: ATOM     12  N   UNL     1     138.238  72.490 222.077 -0.07 +0.09    -0.342 N  
DOCKED: ATOM     13  C   UNL     1     138.592  71.148 222.415 -0.12 -0.06    +0.270 C  
DOCKED: ATOM     14  H   UNL     1     138.302  73.245 222.799 -0.47 -0.08    +0.164 HD 
DOCKED: ATOM     15  O   UNL     1     138.482  70.303 221.471 -0.05 +0.05    -0.268 OA 
DOCKED: BRANCH  13  16
DOCKED: ATOM     16  C   UNL     1     139.046  70.771 223.743 -0.26 -0.03    +0.128 A  
DOCKED: ATOM     17  C   UNL     1     138.627  69.561 224.247 -0.31 -0.00    +0.035 A  
DOCKED: ATOM     18  N   UNL     1     139.842  71.519 224.510 -0.27 +0.05    -0.243 NA 
DOCKED: ATOM     19  C   UNL     1     138.993  69.096 225.496 -0.42 -0.00    +0.013 A  
DOCKED: ATOM     20  C   UNL     1     140.235  71.110 225.750 -0.51 -0.01    +0.071 A  
DOCKED: ATOM     21  C   UNL     1     139.819  69.894 226.268 -0.50 -0.00    +0.000 A  
DOCKED: ATOM     22  C   UNL     1     141.058  71.923 226.499 -0.68 -0.00    +0.029 A  
DOCKED: ATOM     23  C   UNL     1     140.197  69.449 227.518 -0.60 -0.00    +0.010 A  
DOCKED: ATOM     24  C   UNL     1     141.437  71.471 227.761 -0.65 -0.00    +0.002 A  
DOCKED: ATOM     25  C   UNL     1     141.024  70.264 228.273 -0.57 -0.00    +0.001 A  
DOCKED: ENDBRANCH  13  16
DOCKED: ENDBRANCH  11  12
DOCKED: ENDBRANCH   9  11
DOCKED: ENDBRANCH   5   9
DOCKED: TORSDOF 6
DOCKED: TER
DOCKED: ENDMDL
________________________________________________________________________________


    FINAL DOCKED STATE:
    ________________________


Run:   19 / 20
Time taken for this run:   0.022s

DOCKED: MODEL        19
DOCKED: USER    Run = 19
DOCKED: USER
DOCKED: USER    Estimated Free Energy of Binding    =  -5.82 kcal/mol  [=(1)+(2)+(3)-(4)]
DOCKED: USER
DOCKED: USER    (1) Final Intermolecular Energy     =  -7.61 kcal/mol
DOCKED: USER        vdW + Hbond + desolv Energy     =  -7.55 kcal/mol
DOCKED: USER        Electrostatic Energy            =  -0.06 kcal/mol
DOCKED: USER        Moving Ligand-Fixed Receptor    =  -7.61 kcal/mol
DOCKED: USER        Moving Ligand-Moving Receptor   =  +0.00 kcal/mol
DOCKED: USER    (2) Final Total Internal Energy     =  -2.27 kcal/mol
DOCKED: USER    (3) Torsional Free Energy           =  +1.79 kcal/mol
DOCKED: USER    (4) Unbound System's Energy         =  -2.27 kcal/mol
DOCKED: USER
DOCKED: USER
DOCKED: REMARK SMILES COC[C@H]1CCCN1C(=O)CNC(=O)c1ccc2ccccc2n1
DOCKED: REMARK SMILES IDX 4 1 5 2 6 3 7 4 8 5 3 6 2 7 1 8 9 9 10 10 11 11 12 12 13 13
DOCKED: REMARK SMILES IDX 14 15 15 16 16 17 24 18 17 19 23 20 18 21 22 22 19 23 21 24
DOCKED: REMARK SMILES IDX 20 25
DOCKED: REMARK H PARENT 12 14
DOCKED: USER                              x       y       z     vdW  Elec       q    Type
DOCKED: USER                           _______ _______ _______ _____ _____    ______ ____
DOCKED: ROOT
DOCKED: ATOM      1  C   UNL     1     139.690  75.330 221.963 -0.27 -0.02    +0.111 C  
DOCKED: ATOM      2  C   UNL     1     139.956  76.728 221.437 -0.28 -0.01    +0.029 C  
DOCKED: ATOM      3  C   UNL     1     138.578  77.370 221.507 -0.19 -0.01    +0.024 C  
DOCKED: ATOM      4  C   UNL     1     137.588  76.239 221.778 -0.17 -0.03    +0.120 C  
DOCKED: ATOM      5  N   UNL     1     138.403  75.080 221.354 -0.08 +0.08    -0.336 N  
DOCKED: ENDROOT
DOCKED: BRANCH   1   6
DOCKED: ATOM      6  C   UNL     1     140.761  74.360 221.634 -0.21 -0.02    +0.184 C  
DOCKED: BRANCH   6   7
DOCKED: ATOM      7  O   UNL     1     140.681  73.200 222.355 -0.65 -0.00    -0.383 OA 
DOCKED: ATOM      8  C   UNL     1     141.184  72.134 221.576 -0.19 -0.02    +0.194 C  
DOCKED: ENDBRANCH   6   7
DOCKED: ENDBRANCH   1   6
DOCKED: BRANCH   5   9
DOCKED: ATOM      9  C   UNL     1     137.944  74.021 220.537 -0.05 -0.05    +0.242 C  
DOCKED: ATOM     10  O   UNL     1     137.963  74.023 219.281 -0.01 +0.05    -0.273 OA 
DOCKED: BRANCH   9  11
DOCKED: ATOM     11  C   UNL     1     137.386  72.787 221.181 -0.06 -0.05    +0.216 C  
DOCKED: BRANCH  11  12
DOCKED: ATOM     12  N   UNL     1     138.080  72.494 222.420 -0.06 +0.11    -0.342 N  
DOCKED: ATOM     13  C   UNL     1     138.052  71.135 222.859 -0.12 -0.06    +0.270 C  
DOCKED: ATOM     14  H   UNL     1     138.585  73.216 222.986 -0.48 -0.09    +0.164 HD 
DOCKED: ATOM     15  O   UNL     1     137.414  70.334 222.105 -0.04 +0.05    -0.268 OA 
DOCKED: BRANCH  13  16
DOCKED: ATOM     16  C   UNL     1     138.703  70.697 224.082 -0.26 -0.03    +0.128 A  
DOCKED: ATOM     17  C   UNL     1     138.601  69.368 224.424 -0.32 -0.00    +0.035 A  
DOCKED: ATOM     18  N   UNL     1     139.396  71.495 224.897 -0.17 +0.06    -0.243 NA 
DOCKED: ATOM     19  C   UNL     1     139.178  68.835 225.561 -0.45 -0.00    +0.013 A  
DOCKED: ATOM     20  C   UNL     1     139.987  71.023 226.032 -0.45 -0.01    +0.071 A  
DOCKED: ATOM     21  C   UNL     1     139.890  69.687 226.388 -0.51 -0.00    +0.000 A  
DOCKED: ATOM     22  C   UNL     1     140.690  71.893 226.837 -0.69 -0.01    +0.029 A  
DOCKED: ATOM     23  C   UNL     1     140.474  69.176 227.527 -0.62 -0.00    +0.010 A  
DOCKED: ATOM     24  C   UNL     1     141.278  71.373 227.988 -0.70 -0.00    +0.002 A  
DOCKED: ATOM     25  C   UNL     1     141.182  70.048 228.339 -0.52 -0.00    +0.001 A  
DOCKED: ENDBRANCH  13  16
DOCKED: ENDBRANCH  11  12
DOCKED: ENDBRANCH   9  11
DOCKED: ENDBRANCH   5   9
DOCKED: TORSDOF 6
DOCKED: TER
DOCKED: ENDMDL
________________________________________________________________________________


    FINAL DOCKED STATE:
    ________________________


Run:   20 / 20
Time taken for this run:   0.022s

DOCKED: MODEL        20
DOCKED: USER    Run = 20
DOCKED: USER
DOCKED: USER    Estimated Free Energy of Binding    =  -6.65 kcal/mol  [=(1)+(2)+(3)-(4)]
DOCKED: USER
DOCKED: USER    (1) Final Intermolecular Energy     =  -8.44 kcal/mol
DOCKED: USER        vdW + Hbond + desolv Energy     =  -8.31 kcal/mol
DOCKED: USER        Electrostatic Energy            =  -0.14 kcal/mol
DOCKED: USER        Moving Ligand-Fixed Receptor    =  -8.44 kcal/mol
DOCKED: USER        Moving Ligand-Moving Receptor   =  +0.00 kcal/mol
DOCKED: USER    (2) Final Total Internal Energy     =  -1.36 kcal/mol
DOCKED: USER    (3) Torsional Free Energy           =  +1.79 kcal/mol
DOCKED: USER    (4) Unbound System's Energy         =  -1.36 kcal/mol
DOCKED: USER
DOCKED: USER
DOCKED: REMARK SMILES COC[C@H]1CCCN1C(=O)CNC(=O)c1ccc2ccccc2n1
DOCKED: REMARK SMILES IDX 4 1 5 2 6 3 7 4 8 5 3 6 2 7 1 8 9 9 10 10 11 11 12 12 13 13
DOCKED: REMARK SMILES IDX 14 15 15 16 16 17 24 18 17 19 23 20 18 21 22 22 19 23 21 24
DOCKED: REMARK SMILES IDX 20 25
DOCKED: REMARK H PARENT 12 14
DOCKED: USER                              x       y       z     vdW  Elec       q    Type
DOCKED: USER                           _______ _______ _______ _____ _____    ______ ____
DOCKED: ROOT
DOCKED: ATOM      1  C   UNL     1     140.862  77.858 221.256 -0.27 -0.05    +0.111 C  
DOCKED: ATOM      2  C   UNL     1     142.138  77.646 220.464 -0.23 -0.02    +0.029 C  
DOCKED: ATOM      3  C   UNL     1     141.610  77.209 219.106 -0.22 -0.01    +0.024 C  
DOCKED: ATOM      4  C   UNL     1     140.122  76.919 219.294 -0.06 -0.04    +0.120 C  
DOCKED: ATOM      5  N   UNL     1     140.080  76.747 220.763 -0.06 +0.10    -0.336 N  
DOCKED: ENDROOT
DOCKED: BRANCH   1   6
DOCKED: ATOM      6  C   UNL     1     141.076  77.899 222.723 -0.37 -0.07    +0.184 C  
DOCKED: BRANCH   6   7
DOCKED: ATOM      7  O   UNL     1     141.024  79.164 223.242 -0.24 +0.10    -0.383 OA 
DOCKED: ATOM      8  C   UNL     1     142.301  79.760 223.139 -0.49 -0.06    +0.194 C  
DOCKED: ENDBRANCH   6   7
DOCKED: ENDBRANCH   1   6
DOCKED: BRANCH   5   9
DOCKED: ATOM      9  C   UNL     1     139.408  75.702 221.438 -0.19 -0.05    +0.242 C  
DOCKED: ATOM     10  O   UNL     1     138.425  75.858 222.203 -0.22 +0.07    -0.273 OA 
DOCKED: BRANCH   9  11
DOCKED: ATOM     11  C   UNL     1     139.876  74.290 221.253 -0.19 -0.04    +0.216 C  
DOCKED: BRANCH  11  12
DOCKED: ATOM     12  N   UNL     1     139.584  73.492 222.429 -0.07 +0.06    -0.342 N  
DOCKED: ATOM     13  C   UNL     1     140.433  72.367 222.661 -0.19 -0.02    +0.270 C  
DOCKED: ATOM     14  H   UNL     1     138.803  73.704 223.093 -0.54 -0.10    +0.164 HD 
DOCKED: ATOM     15  O   UNL     1     141.352  72.193 221.800 -0.20 +0.02    -0.268 OA 
DOCKED: BRANCH  13  16
DOCKED: ATOM     16  C   UNL     1     140.258  71.480 223.799 -0.35 -0.02    +0.128 A  
DOCKED: ATOM     17  C   UNL     1     139.594  70.292 223.593 -0.29 -0.01    +0.035 A  
DOCKED: ATOM     18  N   UNL     1     140.699  71.737 225.032 -0.31 +0.03    -0.243 NA 
DOCKED: ATOM     19  C   UNL     1     139.369  69.370 224.597 -0.35 -0.00    +0.013 A  
DOCKED: ATOM     20  C   UNL     1     140.505  70.863 226.060 -0.54 -0.01    +0.071 A  
DOCKED: ATOM     21  C   UNL     1     139.838  69.664 225.865 -0.47 -0.00    +0.000 A  
DOCKED: ATOM     22  C   UNL     1     140.983  71.181 227.314 -0.70 -0.00    +0.029 A  
DOCKED: ATOM     23  C   UNL     1     139.624  68.758 226.882 -0.57 -0.00    +0.010 A  
DOCKED: ATOM     24  C   UNL     1     140.764  70.262 228.339 -0.57 -0.00    +0.002 A  
DOCKED: ATOM     25  C   UNL     1     140.102  69.074 228.143 -0.64 -0.00    +0.001 A  
DOCKED: ENDBRANCH  13  16
DOCKED: ENDBRANCH  11  12
DOCKED: ENDBRANCH   9  11
DOCKED: ENDBRANCH   5   9
DOCKED: TORSDOF 6
DOCKED: TER
DOCKED: ENDMDL
________________________________________________________________________________


    CLUSTERING HISTOGRAM
    ____________________


________________________________________________________________________________
     |           |     |           |     |
Clus | Lowest    | Run | Mean      | Num | Histogram
-ter | Binding   |     | Binding   | in  |
Rank | Energy    |     | Energy    | Clus|    5    10   15   20   25   30   35
_____|___________|_____|___________|_____|____:____|____:____|____:____|____:___
   1 |     -6.97 |  14 |     -6.41 |   6 |######
   2 |     -6.56 |  17 |     -6.46 |   2 |##
   3 |     -6.31 |   9 |     -6.31 |   1 |#
   4 |     -6.11 |  10 |     -5.74 |   6 |######
   5 |     -5.92 |  11 |     -5.88 |   4 |####
   6 |     -5.85 |  15 |     -5.85 |   1 |#
_____|___________|_____|___________|_____|______________________________________


    RMSD TABLE
    __________


_______________________________________________________________________
     |      |      |           |         |                 |
Rank | Sub- | Run  | Binding   | Cluster | Reference       | Grep
     | Rank |      | Energy    | RMSD    | RMSD            | Pattern
_____|______|______|___________|_________|_________________|___________
   1      1     14       -6.97      0.00    271.88           RANKING
   1      2      1       -6.95      0.38    271.95           RANKING
   1      3     20       -6.65      1.57    272.08           RANKING
   1      4      6       -6.60      1.58    271.95           RANKING
   1      5      7       -5.68      1.99    271.03           RANKING
   1      6     18       -5.61      1.91    271.05           RANKING
   2      1     17       -6.56      0.00    271.91           RANKING
   2      2      3       -6.36      1.37    271.62           RANKING
   3      1      9       -6.31      0.00    271.64           RANKING
   4      1     10       -6.11      0.00    271.33           RANKING
   4      2      2       -6.06      0.86    271.17           RANKING
   4      3     19       -5.82      0.61    271.25           RANKING
   4      4     13       -5.61      1.01    271.07           RANKING
   4      5      8       -5.49      1.01    270.88           RANKING
   4      6      5       -5.37      1.06    270.99           RANKING
   5      1     11       -5.92      0.00    271.89           RANKING
   5      2      4       -5.90      0.14    271.91           RANKING
   5      3     16       -5.89      0.14    271.92           RANKING
   5      4     12       -5.80      0.17    271.90           RANKING
   6      1     15       -5.85      0.00    271.93           RANKING

Run time 0.366 sec
Idle time 0.000 sec
