AutoDock-GPU version: v1.6

**********************************************************
**    AutoDock-GPU AUTODOCKTOOLS-COMPATIBLE DLG FILE    **
**********************************************************


    DOCKING PARAMETERS
    ________________________


Ligand file:                               /home/a/REINVENT4/ReinventStudies/pleaseWork/justmol2mol_4_Compounds_ontop/graph-dock-amy28i/graph-DockGPU/node-autodockgpu/inputs/VUPZCEIWEVHNHA-KERCIZIMNA-N.pdbqt
Grid fld file:                             /home/a/REINVENT4/ReinventStudies/mols/Rad51/maps/rad51_receptor.maps.fld

Random seed:                               42
Number of runs:                            20
Number of energy evaluations:              1259779
Number of generations:                     42000
Size of population:                        150
Rate of crossover:                         80.000000%
Tournament selection probability limit:    60.000000%
Rate of mutation:                          2.000000%
Maximal allowed delta movement:            +/- 6.000000A
Maximal allowed delta angle:               +/- 90.000000

Rate of local search:                      100.000000%
Maximal number of local search iterations: 300
Rho lower bound:                           0.010000
Spread of local search delta movement:     2.000000A
Spread of local search delta angle:        74.999999
Limit of consecutive successes/failures:   4

Handle symmetry during clustering:         YES
RMSD tolerance:                            2.000000A

Program call in command line was:          /home/a/REINVENT4/ReinventStudies/adgpu-v1.6_linux_x64_cuda12_128wi --filelist batch.txt --heuristics 1 --nrun 20 --psize 150 --lsit 300 --seed 42 --heurmax 12000000 


    GRID PARAMETERS
    ________________________


Receptor name:                             rad51_receptor
Number of grid points (x, y, z):           53, 53, 53
Grid center (x, y, z):                     139.950000, 75.640000, 221.970000A
Grid size (x, y, z):                       19.500000, 19.500000, 19.500000A
Grid spacing:                              0.375000A


    LIGAND PARAMETERS
    ________________________


Ligand name:                               /home/a/REINVENT4/ReinventStudies/pleaseWork/justmol2mol_4_Compounds_ontop/graph-dock-amy28i/graph-DockGPU/node-autodockgpu/inputs/VUPZCEIWEVHNHA-KERCIZIMNA-N
Number of atoms:                           31
Number of rotatable bonds:                 7
Number of atom types:                      7


    DUMMY DATA (only for ADT-compatibility)
    ________________________


DPF> outlev 1
DPF> ga_run 20
DPF> fld /home/a/REINVENT4/ReinventStudies/mols/Rad51/maps/rad51_receptor.maps.fld
DPF> move /home/a/REINVENT4/ReinventStudies/pleaseWork/justmol2mol_4_Compounds_ontop/graph-dock-amy28i/graph-DockGPU/node-autodockgpu/inputs/VUPZCEIWEVHNHA-KERCIZIMNA-N.pdbqt


    COUNTER STATES
    ________________________


Number of energy evaluations performed:    700938
Number of generations used:                40


    INPUT LIGAND PDBQT FILE:
    ________________________


INPUT-LIGAND-PDBQT: REMARK SMILES O=C(NCC(=O)N1C[C@H](O)C[C@H]1CN1CCCC1)c1ccc2cc(Cl)ccc2n1
INPUT-LIGAND-PDBQT: REMARK SMILES IDX 4 1 3 2 2 3 1 4 19 6 20 7 29 8 21 9 28 10 22 11 27 12 23 13
INPUT-LIGAND-PDBQT: REMARK SMILES IDX 26 14 24 15 25 16 5 17 6 18 7 19 8 20 12 21 9 22 11 23 13 24
INPUT-LIGAND-PDBQT: REMARK SMILES IDX 14 25 15 26 18 27 16 28 17 29 10 30
INPUT-LIGAND-PDBQT: REMARK H PARENT 3 5 10 31
INPUT-LIGAND-PDBQT: ROOT
INPUT-LIGAND-PDBQT: ATOM      1  C   UNL     1       0.227   0.242   0.291  1.00  0.00     0.216 C 
INPUT-LIGAND-PDBQT: ENDROOT
INPUT-LIGAND-PDBQT: BRANCH   1   2
INPUT-LIGAND-PDBQT: ATOM      2  N   UNL     1       1.691   0.380   0.177  1.00  0.00    -0.342 N 
INPUT-LIGAND-PDBQT: ATOM      3  C   UNL     1       2.505  -0.773  -0.006  1.00  0.00     0.270 C 
INPUT-LIGAND-PDBQT: ATOM      4  O   UNL     1       2.006  -1.924  -0.073  1.00  0.00    -0.268 OA
INPUT-LIGAND-PDBQT: ATOM      5  H   UNL     1       2.124   1.341   0.232  1.00  0.00     0.164 HD
INPUT-LIGAND-PDBQT: BRANCH   3   6
INPUT-LIGAND-PDBQT: ATOM      6  C   UNL     1       3.960  -0.556  -0.111  1.00  0.00     0.128 A 
INPUT-LIGAND-PDBQT: ATOM      7  C   UNL     1       4.766  -1.686  -0.291  1.00  0.00     0.035 A 
INPUT-LIGAND-PDBQT: ATOM      8  N   UNL     1       4.511   0.657  -0.042  1.00  0.00    -0.243 NA
INPUT-LIGAND-PDBQT: ATOM      9  C   UNL     1       6.128  -1.449  -0.386  1.00  0.00     0.013 A 
INPUT-LIGAND-PDBQT: ATOM     10  C   UNL     1       5.837   0.869  -0.137  1.00  0.00     0.071 A 
INPUT-LIGAND-PDBQT: ATOM     11  C   UNL     1       6.687  -0.203  -0.315  1.00  0.00     0.002 A 
INPUT-LIGAND-PDBQT: ATOM     12  C   UNL     1       6.277   2.173  -0.049  1.00  0.00     0.030 A 
INPUT-LIGAND-PDBQT: ATOM     13  C   UNL     1       8.064   0.006  -0.414  1.00  0.00     0.030 A 
INPUT-LIGAND-PDBQT: ATOM     14  C   UNL     1       7.641   2.383  -0.148  1.00  0.00     0.023 A 
INPUT-LIGAND-PDBQT: ATOM     15  C   UNL     1       8.497   1.317  -0.325  1.00  0.00     0.041 A 
INPUT-LIGAND-PDBQT: ATOM     16  Cl  UNL     1      10.210   1.670  -0.440  1.00  0.00    -0.084 Cl
INPUT-LIGAND-PDBQT: ENDBRANCH   3   6
INPUT-LIGAND-PDBQT: ENDBRANCH   1   2
INPUT-LIGAND-PDBQT: BRANCH   1  17
INPUT-LIGAND-PDBQT: ATOM     17  C   UNL     1      -0.339  -0.370  -0.912  1.00  0.00     0.242 C 
INPUT-LIGAND-PDBQT: ATOM     18  O   UNL     1       0.496  -0.680  -1.838  1.00  0.00    -0.273 OA
INPUT-LIGAND-PDBQT: BRANCH  17  19
INPUT-LIGAND-PDBQT: ATOM     19  N   UNL     1      -1.684  -0.661  -1.175  1.00  0.00    -0.334 N 
INPUT-LIGAND-PDBQT: ATOM     20  C   UNL     1      -2.095  -1.292  -2.454  1.00  0.00     0.151 C 
INPUT-LIGAND-PDBQT: ATOM     21  C   UNL     1      -2.917  -0.495  -0.460  1.00  0.00     0.102 C 
INPUT-LIGAND-PDBQT: ATOM     22  C   UNL     1      -3.092  -2.320  -1.929  1.00  0.00     0.136 C 
INPUT-LIGAND-PDBQT: ATOM     23  C   UNL     1      -3.430  -1.924  -0.507  1.00  0.00     0.060 C 
INPUT-LIGAND-PDBQT: BRANCH  21  24
INPUT-LIGAND-PDBQT: ATOM     24  C   UNL     1      -2.843   0.058   0.907  1.00  0.00     0.109 C 
INPUT-LIGAND-PDBQT: BRANCH  24  25
INPUT-LIGAND-PDBQT: ATOM     25  N   UNL     1      -4.236   0.114   1.396  1.00  0.00    -0.301 NA
INPUT-LIGAND-PDBQT: ATOM     26  C   UNL     1      -4.287   0.643   2.735  1.00  0.00     0.084 C 
INPUT-LIGAND-PDBQT: ATOM     27  C   UNL     1      -5.049   0.929   0.557  1.00  0.00     0.084 C 
INPUT-LIGAND-PDBQT: ATOM     28  C   UNL     1      -5.336   1.720   2.784  1.00  0.00     0.017 C 
INPUT-LIGAND-PDBQT: ATOM     29  C   UNL     1      -6.013   1.685   1.434  1.00  0.00     0.017 C 
INPUT-LIGAND-PDBQT: ENDBRANCH  24  25
INPUT-LIGAND-PDBQT: ENDBRANCH  21  24
INPUT-LIGAND-PDBQT: BRANCH  22  30
INPUT-LIGAND-PDBQT: ATOM     30  O   UNL     1      -4.251  -2.358  -2.668  1.00  0.00    -0.391 OA
INPUT-LIGAND-PDBQT: ATOM     31  H   UNL     1      -5.059  -2.180  -2.130  1.00  0.00     0.211 HD
INPUT-LIGAND-PDBQT: ENDBRANCH  22  30
INPUT-LIGAND-PDBQT: ENDBRANCH  17  19
INPUT-LIGAND-PDBQT: ENDBRANCH   1  17
INPUT-LIGAND-PDBQT: TORSDOF 7


    FINAL DOCKED STATE:
    ________________________


Run:   1 / 20
Time taken for this run:   0.031s

DOCKED: MODEL        1
DOCKED: USER    Run = 1
DOCKED: USER
DOCKED: USER    Estimated Free Energy of Binding    =  -8.96 kcal/mol  [=(1)+(2)+(3)-(4)]
DOCKED: USER
DOCKED: USER    (1) Final Intermolecular Energy     = -11.05 kcal/mol
DOCKED: USER        vdW + Hbond + desolv Energy     = -10.95 kcal/mol
DOCKED: USER        Electrostatic Energy            =  -0.10 kcal/mol
DOCKED: USER        Moving Ligand-Fixed Receptor    = -11.05 kcal/mol
DOCKED: USER        Moving Ligand-Moving Receptor   =  +0.00 kcal/mol
DOCKED: USER    (2) Final Total Internal Energy     =  -1.30 kcal/mol
DOCKED: USER    (3) Torsional Free Energy           =  +2.09 kcal/mol
DOCKED: USER    (4) Unbound System's Energy         =  -1.30 kcal/mol
DOCKED: USER
DOCKED: USER
DOCKED: REMARK SMILES O=C(NCC(=O)N1C[C@H](O)C[C@H]1CN1CCCC1)c1ccc2cc(Cl)ccc2n1
DOCKED: REMARK SMILES IDX 4 1 3 2 2 3 1 4 19 6 20 7 29 8 21 9 28 10 22 11 27 12 23 13
DOCKED: REMARK SMILES IDX 26 14 24 15 25 16 5 17 6 18 7 19 8 20 12 21 9 22 11 23 13 24
DOCKED: REMARK SMILES IDX 14 25 15 26 18 27 16 28 17 29 10 30
DOCKED: REMARK H PARENT 3 5 10 31
DOCKED: USER                              x       y       z     vdW  Elec       q    Type
DOCKED: USER                           _______ _______ _______ _____ _____    ______ ____
DOCKED: ROOT
DOCKED: ATOM      1  C   UNL     1     138.903  74.638 221.192 -0.14 -0.05    +0.216 C  
DOCKED: ENDROOT
DOCKED: BRANCH   1   2
DOCKED: ATOM      2  N   UNL     1     138.983  73.610 222.247 -0.05 +0.10    -0.342 N  
DOCKED: ATOM      3  C   UNL     1     140.066  72.687 222.265 -0.20 -0.04    +0.270 C  
DOCKED: ATOM      4  O   UNL     1     140.971  72.721 221.394 -0.20 +0.03    -0.268 OA 
DOCKED: ATOM      5  H   UNL     1     138.229  73.569 222.985 -0.53 -0.11    +0.164 HD 
DOCKED: BRANCH   3   6
DOCKED: ATOM      6  C   UNL     1     140.077  71.688 223.350 -0.31 -0.02    +0.128 A  
DOCKED: ATOM      7  C   UNL     1     139.572  70.416 223.056 -0.25 -0.01    +0.035 A  
DOCKED: ATOM      8  N   UNL     1     140.544  71.959 224.570 -0.20 +0.03    -0.243 NA 
DOCKED: ATOM      9  C   UNL     1     139.597  69.500 224.096 -0.28 -0.00    +0.013 A  
DOCKED: ATOM     10  C   UNL     1     140.560  71.056 225.568 -0.52 -0.01    +0.071 A  
DOCKED: ATOM     11  C   UNL     1     140.077  69.784 225.344 -0.44 -0.00    +0.002 A  
DOCKED: ATOM     12  C   UNL     1     141.070  71.466 226.783 -0.71 -0.00    +0.030 A  
DOCKED: ATOM     13  C   UNL     1     140.089  68.840 226.373 -0.54 -0.01    +0.030 A  
DOCKED: ATOM     14  C   UNL     1     141.084  70.532 227.804 -0.62 -0.00    +0.023 A  
DOCKED: ATOM     15  C   UNL     1     140.602  69.259 227.588 -0.59 -0.01    +0.041 A  
DOCKED: ATOM     16  Cl  UNL     1     140.656  68.138 228.935 -0.43 +0.02    -0.084 Cl 
DOCKED: ENDBRANCH   3   6
DOCKED: ENDBRANCH   1   2
DOCKED: BRANCH   1  17
DOCKED: ATOM     17  C   UNL     1     139.560  75.876 221.614 -0.21 -0.05    +0.242 C  
DOCKED: ATOM     18  O   UNL     1     138.917  76.601 222.458 -0.24 +0.05    -0.273 OA 
DOCKED: BRANCH  17  19
DOCKED: ATOM     19  N   UNL     1     140.808  76.366 221.209 -0.14 +0.12    -0.334 N  
DOCKED: ATOM     20  C   UNL     1     141.808  75.477 220.566 -0.23 -0.06    +0.151 C  
DOCKED: ATOM     21  C   UNL     1     141.459  77.644 221.251 -0.26 -0.05    +0.102 C  
DOCKED: ATOM     22  C   UNL     1     142.288  76.392 219.444 -0.25 -0.07    +0.136 C  
DOCKED: ATOM     23  C   UNL     1     141.820  77.792 219.783 -0.27 -0.04    +0.060 C  
DOCKED: BRANCH  21  24
DOCKED: ATOM     24  C   UNL     1     140.688  78.785 221.784 -0.29 -0.04    +0.109 C  
DOCKED: BRANCH  24  25
DOCKED: ATOM     25  N   UNL     1     141.671  79.861 222.023 -0.22 +0.11    -0.301 NA 
DOCKED: ATOM     26  C   UNL     1     141.040  81.005 222.631 -0.41 -0.02    +0.084 C  
DOCKED: ATOM     27  C   UNL     1     142.727  79.422 222.873 -0.49 -0.04    +0.084 C  
DOCKED: ATOM     28  C   UNL     1     141.861  81.428 223.819 -0.54 -0.00    +0.017 C  
DOCKED: ATOM     29  C   UNL     1     143.100  80.565 223.781 -0.63 -0.00    +0.017 C  
DOCKED: ENDBRANCH  24  25
DOCKED: ENDBRANCH  21  24
DOCKED: BRANCH  22  30
DOCKED: ATOM     30  O   UNL     1     143.657  76.399 219.316 -0.26 +0.27    -0.391 OA 
DOCKED: ATOM     31  H   UNL     1     144.087  77.145 219.798 -0.49 -0.21    +0.211 HD 
DOCKED: ENDBRANCH  22  30
DOCKED: ENDBRANCH  17  19
DOCKED: ENDBRANCH   1  17
DOCKED: TORSDOF 7
DOCKED: TER
DOCKED: ENDMDL
________________________________________________________________________________


    FINAL DOCKED STATE:
    ________________________


Run:   2 / 20
Time taken for this run:   0.031s

DOCKED: MODEL        2
DOCKED: USER    Run = 2
DOCKED: USER
DOCKED: USER    Estimated Free Energy of Binding    =  -8.70 kcal/mol  [=(1)+(2)+(3)-(4)]
DOCKED: USER
DOCKED: USER    (1) Final Intermolecular Energy     = -10.79 kcal/mol
DOCKED: USER        vdW + Hbond + desolv Energy     = -10.73 kcal/mol
DOCKED: USER        Electrostatic Energy            =  -0.06 kcal/mol
DOCKED: USER        Moving Ligand-Fixed Receptor    = -10.79 kcal/mol
DOCKED: USER        Moving Ligand-Moving Receptor   =  +0.00 kcal/mol
DOCKED: USER    (2) Final Total Internal Energy     =  -1.42 kcal/mol
DOCKED: USER    (3) Torsional Free Energy           =  +2.09 kcal/mol
DOCKED: USER    (4) Unbound System's Energy         =  -1.42 kcal/mol
DOCKED: USER
DOCKED: USER
DOCKED: REMARK SMILES O=C(NCC(=O)N1C[C@H](O)C[C@H]1CN1CCCC1)c1ccc2cc(Cl)ccc2n1
DOCKED: REMARK SMILES IDX 4 1 3 2 2 3 1 4 19 6 20 7 29 8 21 9 28 10 22 11 27 12 23 13
DOCKED: REMARK SMILES IDX 26 14 24 15 25 16 5 17 6 18 7 19 8 20 12 21 9 22 11 23 13 24
DOCKED: REMARK SMILES IDX 14 25 15 26 18 27 16 28 17 29 10 30
DOCKED: REMARK H PARENT 3 5 10 31
DOCKED: USER                              x       y       z     vdW  Elec       q    Type
DOCKED: USER                           _______ _______ _______ _____ _____    ______ ____
DOCKED: ROOT
DOCKED: ATOM      1  C   UNL     1     139.948  75.202 221.067 -0.18 -0.05    +0.216 C  
DOCKED: ENDROOT
DOCKED: BRANCH   1   2
DOCKED: ATOM      2  N   UNL     1     139.883  74.189 222.138 -0.08 +0.03    -0.342 N  
DOCKED: ATOM      3  C   UNL     1     140.252  72.841 221.870 -0.20 -0.03    +0.270 C  
DOCKED: ATOM      4  O   UNL     1     140.637  72.481 220.730 -0.10 +0.04    -0.268 OA 
DOCKED: ATOM      5  H   UNL     1     139.562  74.478 223.101 -0.53 -0.01    +0.164 HD 
DOCKED: BRANCH   3   6
DOCKED: ATOM      6  C   UNL     1     140.161  71.886 222.990 -0.30 -0.02    +0.128 A  
DOCKED: ATOM      7  C   UNL     1     139.555  70.652 222.733 -0.24 -0.01    +0.035 A  
DOCKED: ATOM      8  N   UNL     1     140.631  72.163 224.208 -0.11 +0.03    -0.243 NA 
DOCKED: ATOM      9  C   UNL     1     139.484  69.777 223.806 -0.28 -0.00    +0.013 A  
DOCKED: ATOM     10  C   UNL     1     140.555  71.300 225.239 -0.50 -0.01    +0.071 A  
DOCKED: ATOM     11  C   UNL     1     139.968  70.065 225.052 -0.43 -0.00    +0.002 A  
DOCKED: ATOM     12  C   UNL     1     141.079  71.710 226.447 -0.69 -0.00    +0.030 A  
DOCKED: ATOM     13  C   UNL     1     139.884  69.164 226.115 -0.48 -0.00    +0.030 A  
DOCKED: ATOM     14  C   UNL     1     140.998  70.818 227.501 -0.65 -0.00    +0.023 A  
DOCKED: ATOM     15  C   UNL     1     140.412  69.583 227.323 -0.56 -0.01    +0.041 A  
DOCKED: ATOM     16  Cl  UNL     1     140.349  68.513 228.710 -0.67 +0.02    -0.084 Cl 
DOCKED: ENDBRANCH   3   6
DOCKED: ENDBRANCH   1   2
DOCKED: BRANCH   1  17
DOCKED: ATOM     17  C   UNL     1     141.314  75.698 220.895 -0.20 -0.09    +0.242 C  
DOCKED: ATOM     18  O   UNL     1     142.258  74.867 221.155 -0.22 +0.10    -0.273 OA 
DOCKED: BRANCH  17  19
DOCKED: ATOM     19  N   UNL     1     141.717  76.973 220.477 -0.13 +0.18    -0.334 N  
DOCKED: ATOM     20  C   UNL     1     142.717  77.144 219.394 -0.25 -0.10    +0.151 C  
DOCKED: ATOM     21  C   UNL     1     141.386  78.317 220.856 -0.28 -0.05    +0.102 C  
DOCKED: ATOM     22  C   UNL     1     142.059  78.271 218.605 -0.23 -0.09    +0.136 C  
DOCKED: ATOM     23  C   UNL     1     140.994  78.873 219.498 -0.18 -0.03    +0.060 C  
DOCKED: BRANCH  21  24
DOCKED: ATOM     24  C   UNL     1     140.346  78.498 221.888 -0.27 -0.03    +0.109 C  
DOCKED: BRANCH  24  25
DOCKED: ATOM     25  N   UNL     1     141.035  79.075 223.060 -0.25 +0.08    -0.301 NA 
DOCKED: ATOM     26  C   UNL     1     142.464  79.055 222.874 -0.41 -0.04    +0.084 C  
DOCKED: ATOM     27  C   UNL     1     140.629  80.420 223.293 -0.43 -0.01    +0.084 C  
DOCKED: ATOM     28  C   UNL     1     143.008  80.418 223.202 -0.64 -0.00    +0.017 C  
DOCKED: ATOM     29  C   UNL     1     141.835  81.200 223.747 -0.59 -0.00    +0.017 C  
DOCKED: ENDBRANCH  24  25
DOCKED: ENDBRANCH  21  24
DOCKED: BRANCH  22  30
DOCKED: ATOM     30  O   UNL     1     142.949  79.257 218.248 -0.22 +0.40    -0.391 OA 
DOCKED: ATOM     31  H   UNL     1     143.503  79.013 217.468 -0.41 -0.34    +0.211 HD 
DOCKED: ENDBRANCH  22  30
DOCKED: ENDBRANCH  17  19
DOCKED: ENDBRANCH   1  17
DOCKED: TORSDOF 7
DOCKED: TER
DOCKED: ENDMDL
________________________________________________________________________________


    FINAL DOCKED STATE:
    ________________________


Run:   3 / 20
Time taken for this run:   0.031s

DOCKED: MODEL        3
DOCKED: USER    Run = 3
DOCKED: USER
DOCKED: USER    Estimated Free Energy of Binding    =  -7.66 kcal/mol  [=(1)+(2)+(3)-(4)]
DOCKED: USER
DOCKED: USER    (1) Final Intermolecular Energy     =  -9.74 kcal/mol
DOCKED: USER        vdW + Hbond + desolv Energy     =  -9.79 kcal/mol
DOCKED: USER        Electrostatic Energy            =  +0.05 kcal/mol
DOCKED: USER        Moving Ligand-Fixed Receptor    =  -9.74 kcal/mol
DOCKED: USER        Moving Ligand-Moving Receptor   =  +0.00 kcal/mol
DOCKED: USER    (2) Final Total Internal Energy     =  -2.28 kcal/mol
DOCKED: USER    (3) Torsional Free Energy           =  +2.09 kcal/mol
DOCKED: USER    (4) Unbound System's Energy         =  -2.28 kcal/mol
DOCKED: USER
DOCKED: USER
DOCKED: REMARK SMILES O=C(NCC(=O)N1C[C@H](O)C[C@H]1CN1CCCC1)c1ccc2cc(Cl)ccc2n1
DOCKED: REMARK SMILES IDX 4 1 3 2 2 3 1 4 19 6 20 7 29 8 21 9 28 10 22 11 27 12 23 13
DOCKED: REMARK SMILES IDX 26 14 24 15 25 16 5 17 6 18 7 19 8 20 12 21 9 22 11 23 13 24
DOCKED: REMARK SMILES IDX 14 25 15 26 18 27 16 28 17 29 10 30
DOCKED: REMARK H PARENT 3 5 10 31
DOCKED: USER                              x       y       z     vdW  Elec       q    Type
DOCKED: USER                           _______ _______ _______ _____ _____    ______ ____
DOCKED: ROOT
DOCKED: ATOM      1  C   UNL     1     140.555  75.166 220.668 -0.16 -0.06    +0.216 C  
DOCKED: ENDROOT
DOCKED: BRANCH   1   2
DOCKED: ATOM      2  N   UNL     1     140.522  74.167 221.752 -0.16 +0.03    -0.342 N  
DOCKED: ATOM      3  C   UNL     1     139.885  72.911 221.546 -0.17 -0.04    +0.270 C  
DOCKED: ATOM      4  O   UNL     1     139.340  72.623 220.451 -0.04 +0.05    -0.268 OA 
DOCKED: ATOM      5  H   UNL     1     140.976  74.395 222.677 +0.10 +0.06    +0.164 HD 
DOCKED: BRANCH   3   6
DOCKED: ATOM      6  C   UNL     1     139.892  71.963 222.676 -0.27 -0.02    +0.128 A  
DOCKED: ATOM      7  C   UNL     1     139.291  70.716 222.472 -0.21 -0.01    +0.035 A  
DOCKED: ATOM      8  N   UNL     1     140.444  72.257 223.855 -0.23 +0.03    -0.243 NA 
DOCKED: ATOM      9  C   UNL     1     139.314  69.849 223.552 -0.27 -0.00    +0.013 A  
DOCKED: ATOM     10  C   UNL     1     140.458  71.401 224.894 -0.46 -0.01    +0.071 A  
DOCKED: ATOM     11  C   UNL     1     139.881  70.155 224.758 -0.41 -0.00    +0.002 A  
DOCKED: ATOM     12  C   UNL     1     141.060  71.830 226.058 -0.60 -0.00    +0.030 A  
DOCKED: ATOM     13  C   UNL     1     139.890  69.261 225.830 -0.46 -0.00    +0.030 A  
DOCKED: ATOM     14  C   UNL     1     141.071  70.945 227.122 -0.66 -0.00    +0.023 A  
DOCKED: ATOM     15  C   UNL     1     140.496  69.698 226.994 -0.54 -0.01    +0.041 A  
DOCKED: ATOM     16  Cl  UNL     1     140.552  68.638 228.389 -0.78 +0.02    -0.084 Cl 
DOCKED: ENDBRANCH   3   6
DOCKED: ENDBRANCH   1   2
DOCKED: BRANCH   1  17
DOCKED: ATOM     17  C   UNL     1     141.067  76.450 221.150 -0.22 -0.10    +0.242 C  
DOCKED: ATOM     18  O   UNL     1     141.082  76.612 222.425 -0.33 +0.10    -0.273 OA 
DOCKED: BRANCH  17  19
DOCKED: ATOM     19  N   UNL     1     141.546  77.524 220.389 -0.12 +0.18    -0.334 N  
DOCKED: ATOM     20  C   UNL     1     142.627  77.332 219.390 -0.22 -0.11    +0.151 C  
DOCKED: ATOM     21  C   UNL     1     141.239  78.923 220.302 -0.23 -0.05    +0.102 C  
DOCKED: ATOM     22  C   UNL     1     142.069  78.164 218.239 -0.22 -0.09    +0.136 C  
DOCKED: ATOM     23  C   UNL     1     140.966  79.029 218.811 -0.15 -0.03    +0.060 C  
DOCKED: BRANCH  21  24
DOCKED: ATOM     24  C   UNL     1     140.135  79.432 221.140 -0.17 -0.03    +0.109 C  
DOCKED: BRANCH  24  25
DOCKED: ATOM     25  N   UNL     1     140.774  80.196 222.230 -0.15 +0.08    -0.301 NA 
DOCKED: ATOM     26  C   UNL     1     140.773  79.438 223.455 -0.47 -0.02    +0.084 C  
DOCKED: ATOM     27  C   UNL     1     142.121  80.533 221.909 -0.44 -0.03    +0.084 C  
DOCKED: ATOM     28  C   UNL     1     142.159  79.468 224.038 -0.48 -0.00    +0.017 C  
DOCKED: ATOM     29  C   UNL     1     142.942  80.423 223.167 -0.65 -0.00    +0.017 C  
DOCKED: ENDBRANCH  24  25
DOCKED: ENDBRANCH  21  24
DOCKED: BRANCH  22  30
DOCKED: ATOM     30  O   UNL     1     143.018  78.975 217.664 -0.18 +0.46    -0.391 OA 
DOCKED: ATOM     31  H   UNL     1     143.332  78.644 216.789 -0.42 -0.34    +0.211 HD 
DOCKED: ENDBRANCH  22  30
DOCKED: ENDBRANCH  17  19
DOCKED: ENDBRANCH   1  17
DOCKED: TORSDOF 7
DOCKED: TER
DOCKED: ENDMDL
________________________________________________________________________________


    FINAL DOCKED STATE:
    ________________________


Run:   4 / 20
Time taken for this run:   0.031s

DOCKED: MODEL        4
DOCKED: USER    Run = 4
DOCKED: USER
DOCKED: USER    Estimated Free Energy of Binding    =  -8.46 kcal/mol  [=(1)+(2)+(3)-(4)]
DOCKED: USER
DOCKED: USER    (1) Final Intermolecular Energy     = -10.55 kcal/mol
DOCKED: USER        vdW + Hbond + desolv Energy     = -10.51 kcal/mol
DOCKED: USER        Electrostatic Energy            =  -0.04 kcal/mol
DOCKED: USER        Moving Ligand-Fixed Receptor    = -10.55 kcal/mol
DOCKED: USER        Moving Ligand-Moving Receptor   =  +0.00 kcal/mol
DOCKED: USER    (2) Final Total Internal Energy     =  -1.73 kcal/mol
DOCKED: USER    (3) Torsional Free Energy           =  +2.09 kcal/mol
DOCKED: USER    (4) Unbound System's Energy         =  -1.73 kcal/mol
DOCKED: USER
DOCKED: USER
DOCKED: REMARK SMILES O=C(NCC(=O)N1C[C@H](O)C[C@H]1CN1CCCC1)c1ccc2cc(Cl)ccc2n1
DOCKED: REMARK SMILES IDX 4 1 3 2 2 3 1 4 19 6 20 7 29 8 21 9 28 10 22 11 27 12 23 13
DOCKED: REMARK SMILES IDX 26 14 24 15 25 16 5 17 6 18 7 19 8 20 12 21 9 22 11 23 13 24
DOCKED: REMARK SMILES IDX 14 25 15 26 18 27 16 28 17 29 10 30
DOCKED: REMARK H PARENT 3 5 10 31
DOCKED: USER                              x       y       z     vdW  Elec       q    Type
DOCKED: USER                           _______ _______ _______ _____ _____    ______ ____
DOCKED: ROOT
DOCKED: ATOM      1  C   UNL     1     139.866  75.349 221.062 -0.18 -0.05    +0.216 C  
DOCKED: ENDROOT
DOCKED: BRANCH   1   2
DOCKED: ATOM      2  N   UNL     1     139.821  74.318 222.116 -0.09 +0.04    -0.342 N  
DOCKED: ATOM      3  C   UNL     1     140.082  72.957 221.795 -0.19 -0.04    +0.270 C  
DOCKED: ATOM      4  O   UNL     1     140.352  72.600 220.621 -0.08 +0.04    -0.268 OA 
DOCKED: ATOM      5  H   UNL     1     139.595  74.604 223.107 -0.49 -0.00    +0.164 HD 
DOCKED: BRANCH   3   6
DOCKED: ATOM      6  C   UNL     1     140.018  71.983 222.902 -0.29 -0.02    +0.128 A  
DOCKED: ATOM      7  C   UNL     1     139.383  70.763 222.647 -0.23 -0.01    +0.035 A  
DOCKED: ATOM      8  N   UNL     1     140.538  72.231 224.105 -0.13 +0.03    -0.243 NA 
DOCKED: ATOM      9  C   UNL     1     139.340  69.870 223.706 -0.28 -0.00    +0.013 A  
DOCKED: ATOM     10  C   UNL     1     140.487  71.351 225.123 -0.48 -0.01    +0.071 A  
DOCKED: ATOM     11  C   UNL     1     139.875  70.129 224.937 -0.42 -0.00    +0.002 A  
DOCKED: ATOM     12  C   UNL     1     141.063  71.732 226.317 -0.67 -0.00    +0.030 A  
DOCKED: ATOM     13  C   UNL     1     139.817  69.210 225.987 -0.47 -0.00    +0.030 A  
DOCKED: ATOM     14  C   UNL     1     141.008  70.823 227.358 -0.65 -0.00    +0.023 A  
DOCKED: ATOM     15  C   UNL     1     140.397  69.600 227.181 -0.55 -0.01    +0.041 A  
DOCKED: ATOM     16  Cl  UNL     1     140.369  68.507 228.551 -0.72 +0.02    -0.084 Cl 
DOCKED: ENDBRANCH   3   6
DOCKED: ENDBRANCH   1   2
DOCKED: BRANCH   1  17
DOCKED: ATOM     17  C   UNL     1     140.695  76.484 221.471 -0.24 -0.08    +0.242 C  
DOCKED: ATOM     18  O   UNL     1     140.719  76.745 222.728 -0.33 +0.08    -0.273 OA 
DOCKED: BRANCH  17  19
DOCKED: ATOM     19  N   UNL     1     141.469  77.319 220.654 -0.12 +0.17    -0.334 N  
DOCKED: ATOM     20  C   UNL     1     142.464  76.756 219.708 -0.28 -0.09    +0.151 C  
DOCKED: ATOM     21  C   UNL     1     141.572  78.737 220.462 -0.25 -0.06    +0.102 C  
DOCKED: ATOM     22  C   UNL     1     142.180  77.622 218.485 -0.23 -0.08    +0.136 C  
DOCKED: ATOM     23  C   UNL     1     141.360  78.804 218.959 -0.20 -0.03    +0.060 C  
DOCKED: BRANCH  21  24
DOCKED: ATOM     24  C   UNL     1     140.647  79.598 221.225 -0.22 -0.04    +0.109 C  
DOCKED: BRANCH  24  25
DOCKED: ATOM     25  N   UNL     1     141.200  79.673 222.593 -0.21 +0.09    -0.301 NA 
DOCKED: ATOM     26  C   UNL     1     142.615  79.405 222.587 -0.48 -0.04    +0.084 C  
DOCKED: ATOM     27  C   UNL     1     140.985  80.958 223.170 -0.44 -0.01    +0.084 C  
DOCKED: ATOM     28  C   UNL     1     143.308  80.481 223.378 -0.60 -0.00    +0.017 C  
DOCKED: ATOM     29  C   UNL     1     142.202  81.312 223.985 -0.59 -0.00    +0.017 C  
DOCKED: ENDBRANCH  24  25
DOCKED: ENDBRANCH  21  24
DOCKED: BRANCH  22  30
DOCKED: ATOM     30  O   UNL     1     143.328  78.088 217.889 -0.14 +0.38    -0.391 OA 
DOCKED: ATOM     31  H   UNL     1     143.179  78.894 217.338 -0.26 -0.29    +0.211 HD 
DOCKED: ENDBRANCH  22  30
DOCKED: ENDBRANCH  17  19
DOCKED: ENDBRANCH   1  17
DOCKED: TORSDOF 7
DOCKED: TER
DOCKED: ENDMDL
________________________________________________________________________________


    FINAL DOCKED STATE:
    ________________________


Run:   5 / 20
Time taken for this run:   0.031s

DOCKED: MODEL        5
DOCKED: USER    Run = 5
DOCKED: USER
DOCKED: USER    Estimated Free Energy of Binding    =  -5.59 kcal/mol  [=(1)+(2)+(3)-(4)]
DOCKED: USER
DOCKED: USER    (1) Final Intermolecular Energy     =  -7.68 kcal/mol
DOCKED: USER        vdW + Hbond + desolv Energy     =  -7.41 kcal/mol
DOCKED: USER        Electrostatic Energy            =  -0.27 kcal/mol
DOCKED: USER        Moving Ligand-Fixed Receptor    =  -7.68 kcal/mol
DOCKED: USER        Moving Ligand-Moving Receptor   =  +0.00 kcal/mol
DOCKED: USER    (2) Final Total Internal Energy     =  -3.39 kcal/mol
DOCKED: USER    (3) Torsional Free Energy           =  +2.09 kcal/mol
DOCKED: USER    (4) Unbound System's Energy         =  -3.39 kcal/mol
DOCKED: USER
DOCKED: USER
DOCKED: REMARK SMILES O=C(NCC(=O)N1C[C@H](O)C[C@H]1CN1CCCC1)c1ccc2cc(Cl)ccc2n1
DOCKED: REMARK SMILES IDX 4 1 3 2 2 3 1 4 19 6 20 7 29 8 21 9 28 10 22 11 27 12 23 13
DOCKED: REMARK SMILES IDX 26 14 24 15 25 16 5 17 6 18 7 19 8 20 12 21 9 22 11 23 13 24
DOCKED: REMARK SMILES IDX 14 25 15 26 18 27 16 28 17 29 10 30
DOCKED: REMARK H PARENT 3 5 10 31
DOCKED: USER                              x       y       z     vdW  Elec       q    Type
DOCKED: USER                           _______ _______ _______ _____ _____    ______ ____
DOCKED: ROOT
DOCKED: ATOM      1  C   UNL     1     141.086  72.516 221.369 -0.18 -0.02    +0.216 C  
DOCKED: ENDROOT
DOCKED: BRANCH   1   2
DOCKED: ATOM      2  N   UNL     1     141.011  73.988 221.423 -0.15 +0.04    -0.342 N  
DOCKED: ATOM      3  C   UNL     1     139.845  74.626 221.931 -0.15 -0.04    +0.270 C  
DOCKED: ATOM      4  O   UNL     1     138.860  73.962 222.340 -0.33 +0.08    -0.268 OA 
DOCKED: ATOM      5  H   UNL     1     141.831  74.559 221.082 +0.04 -0.04    +0.164 HD 
DOCKED: BRANCH   3   6
DOCKED: ATOM      6  C   UNL     1     139.843  76.101 221.953 -0.30 -0.03    +0.128 A  
DOCKED: ATOM      7  C   UNL     1     138.602  76.740 222.052 -0.27 -0.01    +0.035 A  
DOCKED: ATOM      8  N   UNL     1     140.965  76.820 221.885 -0.24 +0.10    -0.243 NA 
DOCKED: ATOM      9  C   UNL     1     138.634  78.125 222.070 -0.23 -0.00    +0.013 A  
DOCKED: ATOM     10  C   UNL     1     140.977  78.166 221.905 -0.35 -0.03    +0.071 A  
DOCKED: ATOM     11  C   UNL     1     139.787  78.857 222.000 -0.27 -0.00    +0.002 A  
DOCKED: ATOM     12  C   UNL     1     142.206  78.788 221.827 -0.33 -0.02    +0.030 A  
DOCKED: ATOM     13  C   UNL     1     139.789  80.253 222.021 -0.24 -0.01    +0.030 A  
DOCKED: ATOM     14  C   UNL     1     142.211  80.172 221.848 -0.47 -0.01    +0.023 A  
DOCKED: ATOM     15  C   UNL     1     141.025  80.869 221.943 -0.36 -0.01    +0.041 A  
DOCKED: ATOM     16  Cl  UNL     1     141.120  82.619 221.963 -0.22 +0.01    -0.084 Cl 
DOCKED: ENDBRANCH   3   6
DOCKED: ENDBRANCH   1   2
DOCKED: BRANCH   1  17
DOCKED: ATOM     17  C   UNL     1     142.377  72.074 220.839 -0.15 -0.03    +0.242 C  
DOCKED: ATOM     18  O   UNL     1     142.573  70.805 220.806 +0.07 +0.02    -0.273 OA 
DOCKED: BRANCH  17  19
DOCKED: ATOM     19  N   UNL     1     143.426  72.870 220.360 -0.12 +0.05    -0.334 N  
DOCKED: ATOM     20  C   UNL     1     144.821  72.654 220.818 -0.36 -0.03    +0.151 C  
DOCKED: ATOM     21  C   UNL     1     143.530  73.966 219.439 -0.25 -0.03    +0.102 C  
DOCKED: ATOM     22  C   UNL     1     145.554  72.774 219.485 -0.33 +0.04    +0.136 C  
DOCKED: ATOM     23  C   UNL     1     144.591  73.411 218.505 -0.21 -0.00    +0.060 C  
DOCKED: BRANCH  21  24
DOCKED: ATOM     24  C   UNL     1     142.299  74.391 218.744 -0.11 -0.03    +0.109 C  
DOCKED: BRANCH  24  25
DOCKED: ATOM     25  N   UNL     1     141.968  75.725 219.287 -0.08 +0.12    -0.301 NA 
DOCKED: ATOM     26  C   UNL     1     143.097  76.614 219.183 -0.33 -0.06    +0.084 C  
DOCKED: ATOM     27  C   UNL     1     140.868  76.309 218.596 -0.08 -0.03    +0.084 C  
DOCKED: ATOM     28  C   UNL     1     142.632  77.907 218.571 -0.31 -0.01    +0.017 C  
DOCKED: ATOM     29  C   UNL     1     141.130  77.787 218.467 -0.15 -0.01    +0.017 C  
DOCKED: ENDBRANCH  24  25
DOCKED: ENDBRANCH  21  24
DOCKED: BRANCH  22  30
DOCKED: ATOM     30  O   UNL     1     146.682  73.555 219.571 -0.52 -0.21    -0.391 OA 
DOCKED: ATOM     31  H   UNL     1     146.500  74.516 219.436 -0.45 -0.09    +0.211 HD 
DOCKED: ENDBRANCH  22  30
DOCKED: ENDBRANCH  17  19
DOCKED: ENDBRANCH   1  17
DOCKED: TORSDOF 7
DOCKED: TER
DOCKED: ENDMDL
________________________________________________________________________________


    FINAL DOCKED STATE:
    ________________________


Run:   6 / 20
Time taken for this run:   0.031s

DOCKED: MODEL        6
DOCKED: USER    Run = 6
DOCKED: USER
DOCKED: USER    Estimated Free Energy of Binding    =  -8.64 kcal/mol  [=(1)+(2)+(3)-(4)]
DOCKED: USER
DOCKED: USER    (1) Final Intermolecular Energy     = -10.73 kcal/mol
DOCKED: USER        vdW + Hbond + desolv Energy     = -10.72 kcal/mol
DOCKED: USER        Electrostatic Energy            =  -0.01 kcal/mol
DOCKED: USER        Moving Ligand-Fixed Receptor    = -10.73 kcal/mol
DOCKED: USER        Moving Ligand-Moving Receptor   =  +0.00 kcal/mol
DOCKED: USER    (2) Final Total Internal Energy     =  -1.47 kcal/mol
DOCKED: USER    (3) Torsional Free Energy           =  +2.09 kcal/mol
DOCKED: USER    (4) Unbound System's Energy         =  -1.47 kcal/mol
DOCKED: USER
DOCKED: USER
DOCKED: REMARK SMILES O=C(NCC(=O)N1C[C@H](O)C[C@H]1CN1CCCC1)c1ccc2cc(Cl)ccc2n1
DOCKED: REMARK SMILES IDX 4 1 3 2 2 3 1 4 19 6 20 7 29 8 21 9 28 10 22 11 27 12 23 13
DOCKED: REMARK SMILES IDX 26 14 24 15 25 16 5 17 6 18 7 19 8 20 12 21 9 22 11 23 13 24
DOCKED: REMARK SMILES IDX 14 25 15 26 18 27 16 28 17 29 10 30
DOCKED: REMARK H PARENT 3 5 10 31
DOCKED: USER                              x       y       z     vdW  Elec       q    Type
DOCKED: USER                           _______ _______ _______ _____ _____    ______ ____
DOCKED: ROOT
DOCKED: ATOM      1  C   UNL     1     138.967  74.606 221.240 -0.15 -0.05    +0.216 C  
DOCKED: ENDROOT
DOCKED: BRANCH   1   2
DOCKED: ATOM      2  N   UNL     1     139.245  73.614 222.296 -0.09 +0.08    -0.342 N  
DOCKED: ATOM      3  C   UNL     1     138.980  72.235 222.067 -0.14 -0.06    +0.270 C  
DOCKED: ATOM      4  O   UNL     1     138.508  71.830 220.976 -0.04 +0.05    -0.268 OA 
DOCKED: ATOM      5  H   UNL     1     139.641  73.940 223.218 -0.44 -0.01    +0.164 HD 
DOCKED: BRANCH   3   6
DOCKED: ATOM      6  C   UNL     1     139.282  71.303 223.170 -0.26 -0.03    +0.128 A  
DOCKED: ATOM      7  C   UNL     1     138.942  69.958 222.985 -0.21 -0.01    +0.035 A  
DOCKED: ATOM      8  N   UNL     1     139.857  71.699 224.306 -0.23 +0.05    -0.243 NA 
DOCKED: ATOM      9  C   UNL     1     139.239  69.108 224.038 -0.30 -0.00    +0.013 A  
DOCKED: ATOM     10  C   UNL     1     140.140  70.859 225.320 -0.47 -0.01    +0.071 A  
DOCKED: ATOM     11  C   UNL     1     139.829  69.520 225.201 -0.42 -0.00    +0.002 A  
DOCKED: ATOM     12  C   UNL     1     140.735  71.398 226.441 -0.65 -0.00    +0.030 A  
DOCKED: ATOM     13  C   UNL     1     140.117  68.641 226.247 -0.55 -0.01    +0.030 A  
DOCKED: ATOM     14  C   UNL     1     141.022  70.529 227.478 -0.61 -0.00    +0.023 A  
DOCKED: ATOM     15  C   UNL     1     140.714  69.189 227.368 -0.58 -0.01    +0.041 A  
DOCKED: ATOM     16  Cl  UNL     1     141.111  68.157 228.727 -0.69 +0.02    -0.084 Cl 
DOCKED: ENDBRANCH   3   6
DOCKED: ENDBRANCH   1   2
DOCKED: BRANCH   1  17
DOCKED: ATOM     17  C   UNL     1     139.563  75.902 221.566 -0.21 -0.05    +0.242 C  
DOCKED: ATOM     18  O   UNL     1     138.851  76.688 222.292 -0.22 +0.06    -0.273 OA 
DOCKED: BRANCH  17  19
DOCKED: ATOM     19  N   UNL     1     140.820  76.390 221.184 -0.14 +0.12    -0.334 N  
DOCKED: ATOM     20  C   UNL     1     141.860  75.482 220.641 -0.22 -0.06    +0.151 C  
DOCKED: ATOM     21  C   UNL     1     141.448  77.680 221.174 -0.28 -0.05    +0.102 C  
DOCKED: ATOM     22  C   UNL     1     142.373  76.335 219.485 -0.26 -0.07    +0.136 C  
DOCKED: ATOM     23  C   UNL     1     141.869  77.744 219.716 -0.27 -0.04    +0.060 C  
DOCKED: BRANCH  21  24
DOCKED: ATOM     24  C   UNL     1     140.636  78.837 221.602 -0.26 -0.04    +0.109 C  
DOCKED: BRANCH  24  25
DOCKED: ATOM     25  N   UNL     1     141.599  79.906 221.933 -0.21 +0.11    -0.301 NA 
DOCKED: ATOM     26  C   UNL     1     140.943  80.992 222.615 -0.40 -0.02    +0.084 C  
DOCKED: ATOM     27  C   UNL     1     142.650  79.420 222.763 -0.51 -0.04    +0.084 C  
DOCKED: ATOM     28  C   UNL     1     141.742  81.338 223.843 -0.54 -0.00    +0.017 C  
DOCKED: ATOM     29  C   UNL     1     142.994  80.498 223.758 -0.65 -0.00    +0.017 C  
DOCKED: ENDBRANCH  24  25
DOCKED: ENDBRANCH  21  24
DOCKED: BRANCH  22  30
DOCKED: ATOM     30  O   UNL     1     143.746  76.359 219.414 -0.26 +0.28    -0.391 OA 
DOCKED: ATOM     31  H   UNL     1     144.136  77.200 219.752 -0.49 -0.22    +0.211 HD 
DOCKED: ENDBRANCH  22  30
DOCKED: ENDBRANCH  17  19
DOCKED: ENDBRANCH   1  17
DOCKED: TORSDOF 7
DOCKED: TER
DOCKED: ENDMDL
________________________________________________________________________________


    FINAL DOCKED STATE:
    ________________________


Run:   7 / 20
Time taken for this run:   0.031s

DOCKED: MODEL        7
DOCKED: USER    Run = 7
DOCKED: USER
DOCKED: USER    Estimated Free Energy of Binding    =  -8.71 kcal/mol  [=(1)+(2)+(3)-(4)]
DOCKED: USER
DOCKED: USER    (1) Final Intermolecular Energy     = -10.80 kcal/mol
DOCKED: USER        vdW + Hbond + desolv Energy     = -10.66 kcal/mol
DOCKED: USER        Electrostatic Energy            =  -0.14 kcal/mol
DOCKED: USER        Moving Ligand-Fixed Receptor    = -10.80 kcal/mol
DOCKED: USER        Moving Ligand-Moving Receptor   =  +0.00 kcal/mol
DOCKED: USER    (2) Final Total Internal Energy     =  -1.59 kcal/mol
DOCKED: USER    (3) Torsional Free Energy           =  +2.09 kcal/mol
DOCKED: USER    (4) Unbound System's Energy         =  -1.59 kcal/mol
DOCKED: USER
DOCKED: USER
DOCKED: REMARK SMILES O=C(NCC(=O)N1C[C@H](O)C[C@H]1CN1CCCC1)c1ccc2cc(Cl)ccc2n1
DOCKED: REMARK SMILES IDX 4 1 3 2 2 3 1 4 19 6 20 7 29 8 21 9 28 10 22 11 27 12 23 13
DOCKED: REMARK SMILES IDX 26 14 24 15 25 16 5 17 6 18 7 19 8 20 12 21 9 22 11 23 13 24
DOCKED: REMARK SMILES IDX 14 25 15 26 18 27 16 28 17 29 10 30
DOCKED: REMARK H PARENT 3 5 10 31
DOCKED: USER                              x       y       z     vdW  Elec       q    Type
DOCKED: USER                           _______ _______ _______ _____ _____    ______ ____
DOCKED: ROOT
DOCKED: ATOM      1  C   UNL     1     138.829  74.821 221.041 -0.12 -0.05    +0.216 C  
DOCKED: ENDROOT
DOCKED: BRANCH   1   2
DOCKED: ATOM      2  N   UNL     1     138.929  73.790 222.092 -0.08 +0.09    -0.342 N  
DOCKED: ATOM      3  C   UNL     1     139.973  72.824 222.047 -0.19 -0.04    +0.270 C  
DOCKED: ATOM      4  O   UNL     1     140.825  72.822 221.124 -0.16 +0.04    -0.268 OA 
DOCKED: ATOM      5  H   UNL     1     138.219  73.780 222.873 -0.54 -0.10    +0.164 HD 
DOCKED: BRANCH   3   6
DOCKED: ATOM      6  C   UNL     1     140.008  71.825 223.131 -0.30 -0.02    +0.128 A  
DOCKED: ATOM      7  C   UNL     1     139.510  70.549 222.844 -0.24 -0.01    +0.035 A  
DOCKED: ATOM      8  N   UNL     1     140.490  72.100 224.345 -0.13 +0.03    -0.243 NA 
DOCKED: ATOM      9  C   UNL     1     139.557  69.633 223.883 -0.28 -0.00    +0.013 A  
DOCKED: ATOM     10  C   UNL     1     140.528  71.197 225.343 -0.51 -0.01    +0.071 A  
DOCKED: ATOM     11  C   UNL     1     140.053  69.921 225.125 -0.43 -0.00    +0.002 A  
DOCKED: ATOM     12  C   UNL     1     141.051  71.611 226.550 -0.70 -0.00    +0.030 A  
DOCKED: ATOM     13  C   UNL     1     140.087  68.977 226.154 -0.51 -0.01    +0.030 A  
DOCKED: ATOM     14  C   UNL     1     141.087  70.678 227.571 -0.62 -0.00    +0.023 A  
DOCKED: ATOM     15  C   UNL     1     140.614  69.400 227.361 -0.57 -0.01    +0.041 A  
DOCKED: ATOM     16  Cl  UNL     1     140.696  68.280 228.707 -0.66 +0.02    -0.084 Cl 
DOCKED: ENDBRANCH   3   6
DOCKED: ENDBRANCH   1   2
DOCKED: BRANCH   1  17
DOCKED: ATOM     17  C   UNL     1     139.443  76.077 221.476 -0.19 -0.06    +0.242 C  
DOCKED: ATOM     18  O   UNL     1     138.753  76.794 222.289 -0.21 +0.05    -0.273 OA 
DOCKED: BRANCH  17  19
DOCKED: ATOM     19  N   UNL     1     140.695  76.590 221.114 -0.12 +0.12    -0.334 N  
DOCKED: ATOM     20  C   UNL     1     141.849  75.690 220.868 -0.16 -0.07    +0.151 C  
DOCKED: ATOM     21  C   UNL     1     141.227  77.904 220.890 -0.27 -0.05    +0.102 C  
DOCKED: ATOM     22  C   UNL     1     142.420  76.336 219.610 -0.27 -0.08    +0.136 C  
DOCKED: ATOM     23  C   UNL     1     141.796  77.711 219.495 -0.26 -0.03    +0.060 C  
DOCKED: BRANCH  21  24
DOCKED: ATOM     24  C   UNL     1     140.294  79.044 220.993 -0.18 -0.03    +0.109 C  
DOCKED: BRANCH  24  25
DOCKED: ATOM     25  N   UNL     1     140.727  79.815 222.176 -0.14 +0.08    -0.301 NA 
DOCKED: ATOM     26  C   UNL     1     140.566  79.039 223.379 -0.43 -0.02    +0.084 C  
DOCKED: ATOM     27  C   UNL     1     142.093  80.206 222.070 -0.47 -0.03    +0.084 C  
DOCKED: ATOM     28  C   UNL     1     141.843  79.113 224.170 -0.51 -0.00    +0.017 C  
DOCKED: ATOM     29  C   UNL     1     142.713  80.109 223.440 -0.65 -0.00    +0.017 C  
DOCKED: ENDBRANCH  24  25
DOCKED: ENDBRANCH  21  24
DOCKED: BRANCH  22  30
DOCKED: ATOM     30  O   UNL     1     143.788  76.471 219.659 -0.27 +0.30    -0.391 OA 
DOCKED: ATOM     31  H   UNL     1     144.084  77.194 220.262 -0.49 -0.25    +0.211 HD 
DOCKED: ENDBRANCH  22  30
DOCKED: ENDBRANCH  17  19
DOCKED: ENDBRANCH   1  17
DOCKED: TORSDOF 7
DOCKED: TER
DOCKED: ENDMDL
________________________________________________________________________________


    FINAL DOCKED STATE:
    ________________________


Run:   8 / 20
Time taken for this run:   0.031s

DOCKED: MODEL        8
DOCKED: USER    Run = 8
DOCKED: USER
DOCKED: USER    Estimated Free Energy of Binding    =  -8.37 kcal/mol  [=(1)+(2)+(3)-(4)]
DOCKED: USER
DOCKED: USER    (1) Final Intermolecular Energy     = -10.46 kcal/mol
DOCKED: USER        vdW + Hbond + desolv Energy     = -10.41 kcal/mol
DOCKED: USER        Electrostatic Energy            =  -0.04 kcal/mol
DOCKED: USER        Moving Ligand-Fixed Receptor    = -10.46 kcal/mol
DOCKED: USER        Moving Ligand-Moving Receptor   =  +0.00 kcal/mol
DOCKED: USER    (2) Final Total Internal Energy     =  -1.91 kcal/mol
DOCKED: USER    (3) Torsional Free Energy           =  +2.09 kcal/mol
DOCKED: USER    (4) Unbound System's Energy         =  -1.91 kcal/mol
DOCKED: USER
DOCKED: USER
DOCKED: REMARK SMILES O=C(NCC(=O)N1C[C@H](O)C[C@H]1CN1CCCC1)c1ccc2cc(Cl)ccc2n1
DOCKED: REMARK SMILES IDX 4 1 3 2 2 3 1 4 19 6 20 7 29 8 21 9 28 10 22 11 27 12 23 13
DOCKED: REMARK SMILES IDX 26 14 24 15 25 16 5 17 6 18 7 19 8 20 12 21 9 22 11 23 13 24
DOCKED: REMARK SMILES IDX 14 25 15 26 18 27 16 28 17 29 10 30
DOCKED: REMARK H PARENT 3 5 10 31
DOCKED: USER                              x       y       z     vdW  Elec       q    Type
DOCKED: USER                           _______ _______ _______ _____ _____    ______ ____
DOCKED: ROOT
DOCKED: ATOM      1  C   UNL     1     139.623  74.892 221.056 -0.16 -0.05    +0.216 C  
DOCKED: ENDROOT
DOCKED: BRANCH   1   2
DOCKED: ATOM      2  N   UNL     1     139.666  73.893 222.140 -0.13 +0.05    -0.342 N  
DOCKED: ATOM      3  C   UNL     1     139.929  72.526 221.842 -0.18 -0.04    +0.270 C  
DOCKED: ATOM      4  O   UNL     1     140.127  72.139 220.663 -0.07 +0.04    -0.268 OA 
DOCKED: ATOM      5  H   UNL     1     139.501  74.204 223.135 -0.52 -0.02    +0.164 HD 
DOCKED: BRANCH   3   6
DOCKED: ATOM      6  C   UNL     1     139.956  71.586 222.978 -0.29 -0.02    +0.128 A  
DOCKED: ATOM      7  C   UNL     1     139.429  70.307 222.764 -0.21 -0.01    +0.035 A  
DOCKED: ATOM      8  N   UNL     1     140.457  71.915 224.169 -0.26 +0.03    -0.243 NA 
DOCKED: ATOM      9  C   UNL     1     139.469  69.447 223.850 -0.26 -0.00    +0.013 A  
DOCKED: ATOM     10  C   UNL     1     140.489  71.066 225.214 -0.49 -0.01    +0.071 A  
DOCKED: ATOM     11  C   UNL     1     139.985  69.790 225.069 -0.42 -0.00    +0.002 A  
DOCKED: ATOM     12  C   UNL     1     141.034  71.532 226.392 -0.68 -0.00    +0.030 A  
DOCKED: ATOM     13  C   UNL     1     140.012  68.902 226.147 -0.51 -0.01    +0.030 A  
DOCKED: ATOM     14  C   UNL     1     141.063  70.654 227.460 -0.63 -0.00    +0.023 A  
DOCKED: ATOM     15  C   UNL     1     140.561  69.377 227.324 -0.57 -0.01    +0.041 A  
DOCKED: ATOM     16  Cl  UNL     1     140.636  68.329 228.727 -0.64 +0.02    -0.084 Cl 
DOCKED: ENDBRANCH   3   6
DOCKED: ENDBRANCH   1   2
DOCKED: BRANCH   1  17
DOCKED: ATOM     17  C   UNL     1     140.173  76.174 221.500 -0.23 -0.06    +0.242 C  
DOCKED: ATOM     18  O   UNL     1     139.828  76.564 222.674 -0.30 +0.05    -0.273 OA 
DOCKED: BRANCH  17  19
DOCKED: ATOM     19  N   UNL     1     141.035  77.026 220.798 -0.11 +0.14    -0.334 N  
DOCKED: ATOM     20  C   UNL     1     142.187  76.489 220.032 -0.24 -0.09    +0.151 C  
DOCKED: ATOM     21  C   UNL     1     141.116  78.445 220.595 -0.24 -0.05    +0.102 C  
DOCKED: ATOM     22  C   UNL     1     142.068  77.325 218.761 -0.22 -0.08    +0.136 C  
DOCKED: ATOM     23  C   UNL     1     141.141  78.481 219.076 -0.17 -0.03    +0.060 C  
DOCKED: BRANCH  21  24
DOCKED: ATOM     24  C   UNL     1     140.051  79.280 221.185 -0.17 -0.03    +0.109 C  
DOCKED: BRANCH  24  25
DOCKED: ATOM     25  N   UNL     1     140.706  80.085 222.236 -0.14 +0.08    -0.301 NA 
DOCKED: ATOM     26  C   UNL     1     140.753  79.361 223.481 -0.47 -0.02    +0.084 C  
DOCKED: ATOM     27  C   UNL     1     142.036  80.438 221.869 -0.43 -0.03    +0.084 C  
DOCKED: ATOM     28  C   UNL     1     142.154  79.433 224.023 -0.49 -0.00    +0.017 C  
DOCKED: ATOM     29  C   UNL     1     142.893  80.378 223.106 -0.65 -0.00    +0.017 C  
DOCKED: ENDBRANCH  24  25
DOCKED: ENDBRANCH  21  24
DOCKED: BRANCH  22  30
DOCKED: ATOM     30  O   UNL     1     143.278  77.827 218.343 -0.17 +0.34    -0.391 OA 
DOCKED: ATOM     31  H   UNL     1     143.919  77.957 219.082 -0.37 -0.23    +0.211 HD 
DOCKED: ENDBRANCH  22  30
DOCKED: ENDBRANCH  17  19
DOCKED: ENDBRANCH   1  17
DOCKED: TORSDOF 7
DOCKED: TER
DOCKED: ENDMDL
________________________________________________________________________________


    FINAL DOCKED STATE:
    ________________________


Run:   9 / 20
Time taken for this run:   0.031s

DOCKED: MODEL        9
DOCKED: USER    Run = 9
DOCKED: USER
DOCKED: USER    Estimated Free Energy of Binding    =  -8.09 kcal/mol  [=(1)+(2)+(3)-(4)]
DOCKED: USER
DOCKED: USER    (1) Final Intermolecular Energy     = -10.18 kcal/mol
DOCKED: USER        vdW + Hbond + desolv Energy     = -10.14 kcal/mol
DOCKED: USER        Electrostatic Energy            =  -0.04 kcal/mol
DOCKED: USER        Moving Ligand-Fixed Receptor    = -10.18 kcal/mol
DOCKED: USER        Moving Ligand-Moving Receptor   =  +0.00 kcal/mol
DOCKED: USER    (2) Final Total Internal Energy     =  -1.80 kcal/mol
DOCKED: USER    (3) Torsional Free Energy           =  +2.09 kcal/mol
DOCKED: USER    (4) Unbound System's Energy         =  -1.80 kcal/mol
DOCKED: USER
DOCKED: USER
DOCKED: REMARK SMILES O=C(NCC(=O)N1C[C@H](O)C[C@H]1CN1CCCC1)c1ccc2cc(Cl)ccc2n1
DOCKED: REMARK SMILES IDX 4 1 3 2 2 3 1 4 19 6 20 7 29 8 21 9 28 10 22 11 27 12 23 13
DOCKED: REMARK SMILES IDX 26 14 24 15 25 16 5 17 6 18 7 19 8 20 12 21 9 22 11 23 13 24
DOCKED: REMARK SMILES IDX 14 25 15 26 18 27 16 28 17 29 10 30
DOCKED: REMARK H PARENT 3 5 10 31
DOCKED: USER                              x       y       z     vdW  Elec       q    Type
DOCKED: USER                           _______ _______ _______ _____ _____    ______ ____
DOCKED: ROOT
DOCKED: ATOM      1  C   UNL     1     140.558  74.655 220.756 -0.17 -0.05    +0.216 C  
DOCKED: ENDROOT
DOCKED: BRANCH   1   2
DOCKED: ATOM      2  N   UNL     1     140.603  73.640 221.826 -0.16 +0.02    -0.342 N  
DOCKED: ATOM      3  C   UNL     1     139.528  72.722 221.985 -0.18 -0.05    +0.270 C  
DOCKED: ATOM      4  O   UNL     1     138.523  72.751 221.231 -0.07 +0.06    -0.268 OA 
DOCKED: ATOM      5  H   UNL     1     141.441  73.604 222.467 +0.07 +0.03    +0.164 HD 
DOCKED: BRANCH   3   6
DOCKED: ATOM      6  C   UNL     1     139.644  71.737 223.077 -0.28 -0.03    +0.128 A  
DOCKED: ATOM      7  C   UNL     1     139.096  70.468 222.857 -0.22 -0.01    +0.035 A  
DOCKED: ATOM      8  N   UNL     1     140.244  72.017 224.235 -0.20 +0.04    -0.243 NA 
DOCKED: ATOM      9  C   UNL     1     139.222  69.565 223.901 -0.29 -0.00    +0.013 A  
DOCKED: ATOM     10  C   UNL     1     140.357  71.127 225.239 -0.49 -0.01    +0.071 A  
DOCKED: ATOM     11  C   UNL     1     139.838  69.858 225.086 -0.42 -0.00    +0.002 A  
DOCKED: ATOM     12  C   UNL     1     141.000  71.545 226.385 -0.67 -0.00    +0.030 A  
DOCKED: ATOM     13  C   UNL     1     139.950  68.928 226.121 -0.51 -0.00    +0.030 A  
DOCKED: ATOM     14  C   UNL     1     141.114  70.625 227.412 -0.59 -0.00    +0.023 A  
DOCKED: ATOM     15  C   UNL     1     140.596  69.355 227.267 -0.57 -0.01    +0.041 A  
DOCKED: ATOM     16  Cl  UNL     1     140.782  68.252 228.616 -0.69 +0.02    -0.084 Cl 
DOCKED: ENDBRANCH   3   6
DOCKED: ENDBRANCH   1   2
DOCKED: BRANCH   1  17
DOCKED: ATOM     17  C   UNL     1     141.844  75.341 220.627 -0.19 -0.09    +0.242 C  
DOCKED: ATOM     18  O   UNL     1     142.892  74.629 220.841 -0.24 +0.10    -0.273 OA 
DOCKED: BRANCH  17  19
DOCKED: ATOM     19  N   UNL     1     142.071  76.683 220.296 -0.13 +0.20    -0.334 N  
DOCKED: ATOM     20  C   UNL     1     142.994  77.055 219.195 -0.24 -0.11    +0.151 C  
DOCKED: ATOM     21  C   UNL     1     141.598  77.945 220.791 -0.28 -0.06    +0.102 C  
DOCKED: ATOM     22  C   UNL     1     142.169  78.147 218.521 -0.24 -0.09    +0.136 C  
DOCKED: ATOM     23  C   UNL     1     141.080  78.545 219.495 -0.19 -0.03    +0.060 C  
DOCKED: BRANCH  21  24
DOCKED: ATOM     24  C   UNL     1     140.591  77.919 221.870 -0.31 -0.04    +0.109 C  
DOCKED: BRANCH  24  25
DOCKED: ATOM     25  N   UNL     1     141.160  78.720 222.973 -0.26 +0.10    -0.301 NA 
DOCKED: ATOM     26  C   UNL     1     142.545  79.029 222.719 -0.36 -0.05    +0.084 C  
DOCKED: ATOM     27  C   UNL     1     140.450  79.943 223.148 -0.41 -0.02    +0.084 C  
DOCKED: ATOM     28  C   UNL     1     142.755  80.501 222.942 -0.63 -0.00    +0.017 C  
DOCKED: ATOM     29  C   UNL     1     141.448  81.016 223.498 -0.55 -0.00    +0.017 C  
DOCKED: ENDBRANCH  24  25
DOCKED: ENDBRANCH  21  24
DOCKED: BRANCH  22  30
DOCKED: ATOM     30  O   UNL     1     142.917  79.258 218.210 -0.23 +0.40    -0.391 OA 
DOCKED: ATOM     31  H   UNL     1     143.522  79.116 217.443 -0.45 -0.35    +0.211 HD 
DOCKED: ENDBRANCH  22  30
DOCKED: ENDBRANCH  17  19
DOCKED: ENDBRANCH   1  17
DOCKED: TORSDOF 7
DOCKED: TER
DOCKED: ENDMDL
________________________________________________________________________________


    FINAL DOCKED STATE:
    ________________________


Run:   10 / 20
Time taken for this run:   0.031s

DOCKED: MODEL        10
DOCKED: USER    Run = 10
DOCKED: USER
DOCKED: USER    Estimated Free Energy of Binding    =  -8.39 kcal/mol  [=(1)+(2)+(3)-(4)]
DOCKED: USER
DOCKED: USER    (1) Final Intermolecular Energy     = -10.48 kcal/mol
DOCKED: USER        vdW + Hbond + desolv Energy     = -10.45 kcal/mol
DOCKED: USER        Electrostatic Energy            =  -0.03 kcal/mol
DOCKED: USER        Moving Ligand-Fixed Receptor    = -10.48 kcal/mol
DOCKED: USER        Moving Ligand-Moving Receptor   =  +0.00 kcal/mol
DOCKED: USER    (2) Final Total Internal Energy     =  -1.93 kcal/mol
DOCKED: USER    (3) Torsional Free Energy           =  +2.09 kcal/mol
DOCKED: USER    (4) Unbound System's Energy         =  -1.93 kcal/mol
DOCKED: USER
DOCKED: USER
DOCKED: REMARK SMILES O=C(NCC(=O)N1C[C@H](O)C[C@H]1CN1CCCC1)c1ccc2cc(Cl)ccc2n1
DOCKED: REMARK SMILES IDX 4 1 3 2 2 3 1 4 19 6 20 7 29 8 21 9 28 10 22 11 27 12 23 13
DOCKED: REMARK SMILES IDX 26 14 24 15 25 16 5 17 6 18 7 19 8 20 12 21 9 22 11 23 13 24
DOCKED: REMARK SMILES IDX 14 25 15 26 18 27 16 28 17 29 10 30
DOCKED: REMARK H PARENT 3 5 10 31
DOCKED: USER                              x       y       z     vdW  Elec       q    Type
DOCKED: USER                           _______ _______ _______ _____ _____    ______ ____
DOCKED: ROOT
DOCKED: ATOM      1  C   UNL     1     139.613  74.881 221.101 -0.17 -0.05    +0.216 C  
DOCKED: ENDROOT
DOCKED: BRANCH   1   2
DOCKED: ATOM      2  N   UNL     1     139.678  73.879 222.181 -0.12 +0.05    -0.342 N  
DOCKED: ATOM      3  C   UNL     1     139.911  72.509 221.871 -0.18 -0.04    +0.270 C  
DOCKED: ATOM      4  O   UNL     1     140.064  72.122 220.686 -0.07 +0.04    -0.268 OA 
DOCKED: ATOM      5  H   UNL     1     139.551  74.190 223.182 -0.51 -0.02    +0.164 HD 
DOCKED: BRANCH   3   6
DOCKED: ATOM      6  C   UNL     1     139.962  71.566 223.003 -0.29 -0.02    +0.128 A  
DOCKED: ATOM      7  C   UNL     1     139.467  70.275 222.785 -0.21 -0.01    +0.035 A  
DOCKED: ATOM      8  N   UNL     1     140.455  71.903 224.196 -0.26 +0.03    -0.243 NA 
DOCKED: ATOM      9  C   UNL     1     139.529  69.412 223.868 -0.25 -0.00    +0.013 A  
DOCKED: ATOM     10  C   UNL     1     140.508  71.051 225.238 -0.50 -0.01    +0.071 A  
DOCKED: ATOM     11  C   UNL     1     140.036  69.763 225.088 -0.42 -0.00    +0.002 A  
DOCKED: ATOM     12  C   UNL     1     141.042  71.526 226.417 -0.68 -0.00    +0.030 A  
DOCKED: ATOM     13  C   UNL     1     140.086  68.872 226.162 -0.52 -0.01    +0.030 A  
DOCKED: ATOM     14  C   UNL     1     141.093  70.645 227.482 -0.61 -0.00    +0.023 A  
DOCKED: ATOM     15  C   UNL     1     140.623  69.357 227.342 -0.57 -0.01    +0.041 A  
DOCKED: ATOM     16  Cl  UNL     1     140.725  68.305 228.740 -0.65 +0.02    -0.084 Cl 
DOCKED: ENDBRANCH   3   6
DOCKED: ENDBRANCH   1   2
DOCKED: BRANCH   1  17
DOCKED: ATOM     17  C   UNL     1     140.210  76.149 221.524 -0.23 -0.06    +0.242 C  
DOCKED: ATOM     18  O   UNL     1     139.921  76.545 222.712 -0.31 +0.05    -0.273 OA 
DOCKED: BRANCH  17  19
DOCKED: ATOM     19  N   UNL     1     141.063  76.983 220.789 -0.11 +0.14    -0.334 N  
DOCKED: ATOM     20  C   UNL     1     142.225  76.431 220.050 -0.24 -0.09    +0.151 C  
DOCKED: ATOM     21  C   UNL     1     141.125  78.393 220.526 -0.23 -0.05    +0.102 C  
DOCKED: ATOM     22  C   UNL     1     142.099  77.210 218.745 -0.22 -0.08    +0.136 C  
DOCKED: ATOM     23  C   UNL     1     141.154  78.365 219.008 -0.17 -0.03    +0.060 C  
DOCKED: BRANCH  21  24
DOCKED: ATOM     24  C   UNL     1     140.046  79.237 221.077 -0.16 -0.03    +0.109 C  
DOCKED: BRANCH  24  25
DOCKED: ATOM     25  N   UNL     1     140.678  80.071 222.120 -0.13 +0.08    -0.301 NA 
DOCKED: ATOM     26  C   UNL     1     140.765  79.353 223.366 -0.47 -0.02    +0.084 C  
DOCKED: ATOM     27  C   UNL     1     141.990  80.474 221.738 -0.42 -0.03    +0.084 C  
DOCKED: ATOM     28  C   UNL     1     142.167  79.481 223.895 -0.56 -0.00    +0.017 C  
DOCKED: ATOM     29  C   UNL     1     142.861  80.451 222.968 -0.63 -0.00    +0.017 C  
DOCKED: ENDBRANCH  24  25
DOCKED: ENDBRANCH  21  24
DOCKED: BRANCH  22  30
DOCKED: ATOM     30  O   UNL     1     143.303  77.710 218.309 -0.18 +0.33    -0.391 OA 
DOCKED: ATOM     31  H   UNL     1     143.947  77.862 219.042 -0.39 -0.22    +0.211 HD 
DOCKED: ENDBRANCH  22  30
DOCKED: ENDBRANCH  17  19
DOCKED: ENDBRANCH   1  17
DOCKED: TORSDOF 7
DOCKED: TER
DOCKED: ENDMDL
________________________________________________________________________________


    FINAL DOCKED STATE:
    ________________________


Run:   11 / 20
Time taken for this run:   0.031s

DOCKED: MODEL        11
DOCKED: USER    Run = 11
DOCKED: USER
DOCKED: USER    Estimated Free Energy of Binding    =  -8.42 kcal/mol  [=(1)+(2)+(3)-(4)]
DOCKED: USER
DOCKED: USER    (1) Final Intermolecular Energy     = -10.51 kcal/mol
DOCKED: USER        vdW + Hbond + desolv Energy     = -10.52 kcal/mol
DOCKED: USER        Electrostatic Energy            =  +0.02 kcal/mol
DOCKED: USER        Moving Ligand-Fixed Receptor    = -10.51 kcal/mol
DOCKED: USER        Moving Ligand-Moving Receptor   =  +0.00 kcal/mol
DOCKED: USER    (2) Final Total Internal Energy     =  -1.50 kcal/mol
DOCKED: USER    (3) Torsional Free Energy           =  +2.09 kcal/mol
DOCKED: USER    (4) Unbound System's Energy         =  -1.50 kcal/mol
DOCKED: USER
DOCKED: USER
DOCKED: REMARK SMILES O=C(NCC(=O)N1C[C@H](O)C[C@H]1CN1CCCC1)c1ccc2cc(Cl)ccc2n1
DOCKED: REMARK SMILES IDX 4 1 3 2 2 3 1 4 19 6 20 7 29 8 21 9 28 10 22 11 27 12 23 13
DOCKED: REMARK SMILES IDX 26 14 24 15 25 16 5 17 6 18 7 19 8 20 12 21 9 22 11 23 13 24
DOCKED: REMARK SMILES IDX 14 25 15 26 18 27 16 28 17 29 10 30
DOCKED: REMARK H PARENT 3 5 10 31
DOCKED: USER                              x       y       z     vdW  Elec       q    Type
DOCKED: USER                           _______ _______ _______ _____ _____    ______ ____
DOCKED: ROOT
DOCKED: ATOM      1  C   UNL     1     139.052  74.815 221.257 -0.16 -0.05    +0.216 C  
DOCKED: ENDROOT
DOCKED: BRANCH   1   2
DOCKED: ATOM      2  N   UNL     1     139.285  73.811 222.312 -0.08 +0.08    -0.342 N  
DOCKED: ATOM      3  C   UNL     1     139.246  72.423 221.999 -0.15 -0.06    +0.270 C  
DOCKED: ATOM      4  O   UNL     1     139.013  72.021 220.832 -0.05 +0.05    -0.268 OA 
DOCKED: ATOM      5  H   UNL     1     139.482  74.134 223.298 -0.47 -0.03    +0.164 HD 
DOCKED: BRANCH   3   6
DOCKED: ATOM      6  C   UNL     1     139.488  71.479 223.106 -0.27 -0.03    +0.128 A  
DOCKED: ATOM      7  C   UNL     1     139.118  70.144 222.904 -0.21 -0.01    +0.035 A  
DOCKED: ATOM      8  N   UNL     1     140.036  71.855 224.263 -0.24 +0.05    -0.243 NA 
DOCKED: ATOM      9  C   UNL     1     139.358  69.283 223.962 -0.28 -0.00    +0.013 A  
DOCKED: ATOM     10  C   UNL     1     140.263  71.004 225.281 -0.48 -0.01    +0.071 A  
DOCKED: ATOM     11  C   UNL     1     139.921  69.674 225.145 -0.42 -0.00    +0.002 A  
DOCKED: ATOM     12  C   UNL     1     140.836  71.523 226.423 -0.66 -0.00    +0.030 A  
DOCKED: ATOM     13  C   UNL     1     140.152  68.784 226.196 -0.53 -0.01    +0.030 A  
DOCKED: ATOM     14  C   UNL     1     141.066  70.642 227.465 -0.62 -0.00    +0.023 A  
DOCKED: ATOM     15  C   UNL     1     140.727  69.312 227.338 -0.57 -0.01    +0.041 A  
DOCKED: ATOM     16  Cl  UNL     1     141.052  68.263 228.704 -0.70 +0.02    -0.084 Cl 
DOCKED: ENDBRANCH   3   6
DOCKED: ENDBRANCH   1   2
DOCKED: BRANCH   1  17
DOCKED: ATOM     17  C   UNL     1     139.813  76.038 221.518 -0.22 -0.06    +0.242 C  
DOCKED: ATOM     18  O   UNL     1     139.221  76.936 222.220 -0.21 +0.06    -0.273 OA 
DOCKED: BRANCH  17  19
DOCKED: ATOM     19  N   UNL     1     141.113  76.346 221.094 -0.15 +0.13    -0.334 N  
DOCKED: ATOM     20  C   UNL     1     142.091  75.275 220.783 -0.18 -0.06    +0.151 C  
DOCKED: ATOM     21  C   UNL     1     141.840  77.559 220.852 -0.20 -0.06    +0.102 C  
DOCKED: ATOM     22  C   UNL     1     142.696  75.838 219.501 -0.27 -0.07    +0.136 C  
DOCKED: ATOM     23  C   UNL     1     142.298  77.297 219.427 -0.29 -0.04    +0.060 C  
DOCKED: BRANCH  21  24
DOCKED: ATOM     24  C   UNL     1     141.111  78.834 221.009 -0.26 -0.05    +0.109 C  
DOCKED: BRANCH  24  25
DOCKED: ATOM     25  N   UNL     1     142.066  79.770 221.638 -0.22 +0.14    -0.301 NA 
DOCKED: ATOM     26  C   UNL     1     141.495  81.088 221.745 -0.39 -0.02    +0.084 C  
DOCKED: ATOM     27  C   UNL     1     142.441  79.332 222.941 -0.52 -0.04    +0.084 C  
DOCKED: ATOM     28  C   UNL     1     141.700  81.586 223.149 -0.49 -0.00    +0.017 C  
DOCKED: ATOM     29  C   UNL     1     142.569  80.548 223.822 -0.68 -0.00    +0.017 C  
DOCKED: ENDBRANCH  24  25
DOCKED: ENDBRANCH  21  24
DOCKED: BRANCH  22  30
DOCKED: ATOM     30  O   UNL     1     144.068  75.749 219.479 -0.21 +0.26    -0.391 OA 
DOCKED: ATOM     31  H   UNL     1     144.442  75.763 218.566 -0.32 -0.16    +0.211 HD 
DOCKED: ENDBRANCH  22  30
DOCKED: ENDBRANCH  17  19
DOCKED: ENDBRANCH   1  17
DOCKED: TORSDOF 7
DOCKED: TER
DOCKED: ENDMDL
________________________________________________________________________________


    FINAL DOCKED STATE:
    ________________________


Run:   12 / 20
Time taken for this run:   0.031s

DOCKED: MODEL        12
DOCKED: USER    Run = 12
DOCKED: USER
DOCKED: USER    Estimated Free Energy of Binding    =  -8.37 kcal/mol  [=(1)+(2)+(3)-(4)]
DOCKED: USER
DOCKED: USER    (1) Final Intermolecular Energy     = -10.46 kcal/mol
DOCKED: USER        vdW + Hbond + desolv Energy     = -10.43 kcal/mol
DOCKED: USER        Electrostatic Energy            =  -0.03 kcal/mol
DOCKED: USER        Moving Ligand-Fixed Receptor    = -10.46 kcal/mol
DOCKED: USER        Moving Ligand-Moving Receptor   =  +0.00 kcal/mol
DOCKED: USER    (2) Final Total Internal Energy     =  -1.94 kcal/mol
DOCKED: USER    (3) Torsional Free Energy           =  +2.09 kcal/mol
DOCKED: USER    (4) Unbound System's Energy         =  -1.94 kcal/mol
DOCKED: USER
DOCKED: USER
DOCKED: REMARK SMILES O=C(NCC(=O)N1C[C@H](O)C[C@H]1CN1CCCC1)c1ccc2cc(Cl)ccc2n1
DOCKED: REMARK SMILES IDX 4 1 3 2 2 3 1 4 19 6 20 7 29 8 21 9 28 10 22 11 27 12 23 13
DOCKED: REMARK SMILES IDX 26 14 24 15 25 16 5 17 6 18 7 19 8 20 12 21 9 22 11 23 13 24
DOCKED: REMARK SMILES IDX 14 25 15 26 18 27 16 28 17 29 10 30
DOCKED: REMARK H PARENT 3 5 10 31
DOCKED: USER                              x       y       z     vdW  Elec       q    Type
DOCKED: USER                           _______ _______ _______ _____ _____    ______ ____
DOCKED: ROOT
DOCKED: ATOM      1  C   UNL     1     139.684  74.864 221.056 -0.17 -0.05    +0.216 C  
DOCKED: ENDROOT
DOCKED: BRANCH   1   2
DOCKED: ATOM      2  N   UNL     1     139.717  73.861 222.137 -0.13 +0.05    -0.342 N  
DOCKED: ATOM      3  C   UNL     1     139.976  72.495 221.836 -0.18 -0.04    +0.270 C  
DOCKED: ATOM      4  O   UNL     1     140.179  72.110 220.657 -0.07 +0.04    -0.268 OA 
DOCKED: ATOM      5  H   UNL     1     139.548  74.170 223.132 -0.52 -0.02    +0.164 HD 
DOCKED: BRANCH   3   6
DOCKED: ATOM      6  C   UNL     1     139.993  71.550 222.968 -0.29 -0.02    +0.128 A  
DOCKED: ATOM      7  C   UNL     1     139.462  70.274 222.748 -0.21 -0.01    +0.035 A  
DOCKED: ATOM      8  N   UNL     1     140.489  71.873 224.164 -0.27 +0.03    -0.243 NA 
DOCKED: ATOM      9  C   UNL     1     139.493  69.410 223.831 -0.25 -0.00    +0.013 A  
DOCKED: ATOM     10  C   UNL     1     140.511  71.021 225.206 -0.49 -0.01    +0.071 A  
DOCKED: ATOM     11  C   UNL     1     140.003  69.747 225.054 -0.41 -0.00    +0.002 A  
DOCKED: ATOM     12  C   UNL     1     141.052  71.481 226.388 -0.68 -0.00    +0.030 A  
DOCKED: ATOM     13  C   UNL     1     140.021  68.855 226.128 -0.51 -0.01    +0.030 A  
DOCKED: ATOM     14  C   UNL     1     141.072  70.599 227.454 -0.62 -0.00    +0.023 A  
DOCKED: ATOM     15  C   UNL     1     140.565  69.325 227.311 -0.57 -0.01    +0.041 A  
DOCKED: ATOM     16  Cl  UNL     1     140.628  68.271 228.710 -0.63 +0.02    -0.084 Cl 
DOCKED: ENDBRANCH   3   6
DOCKED: ENDBRANCH   1   2
DOCKED: BRANCH   1  17
DOCKED: ATOM     17  C   UNL     1     140.250  76.138 221.503 -0.23 -0.06    +0.242 C  
DOCKED: ATOM     18  O   UNL     1     139.942  76.509 222.694 -0.31 +0.05    -0.273 OA 
DOCKED: BRANCH  17  19
DOCKED: ATOM     19  N   UNL     1     141.089  77.002 220.788 -0.11 +0.15    -0.334 N  
DOCKED: ATOM     20  C   UNL     1     142.262  76.485 220.040 -0.24 -0.09    +0.151 C  
DOCKED: ATOM     21  C   UNL     1     141.127  78.418 220.555 -0.23 -0.05    +0.102 C  
DOCKED: ATOM     22  C   UNL     1     142.125  77.290 218.752 -0.23 -0.08    +0.136 C  
DOCKED: ATOM     23  C   UNL     1     141.161  78.422 219.036 -0.17 -0.03    +0.060 C  
DOCKED: BRANCH  21  24
DOCKED: ATOM     24  C   UNL     1     140.033  79.232 221.121 -0.16 -0.03    +0.109 C  
DOCKED: BRANCH  24  25
DOCKED: ATOM     25  N   UNL     1     140.638  80.013 222.220 -0.14 +0.08    -0.301 NA 
DOCKED: ATOM     26  C   UNL     1     140.487  79.328 223.478 -0.44 -0.02    +0.084 C  
DOCKED: ATOM     27  C   UNL     1     142.026  80.240 221.993 -0.45 -0.03    +0.084 C  
DOCKED: ATOM     28  C   UNL     1     141.822  79.300 224.170 -0.51 -0.00    +0.017 C  
DOCKED: ATOM     29  C   UNL     1     142.736  80.149 223.319 -0.66 -0.00    +0.017 C  
DOCKED: ENDBRANCH  24  25
DOCKED: ENDBRANCH  21  24
DOCKED: BRANCH  22  30
DOCKED: ATOM     30  O   UNL     1     143.322  77.820 218.329 -0.16 +0.34    -0.391 OA 
DOCKED: ATOM     31  H   UNL     1     143.994  77.879 219.049 -0.39 -0.23    +0.211 HD 
DOCKED: ENDBRANCH  22  30
DOCKED: ENDBRANCH  17  19
DOCKED: ENDBRANCH   1  17
DOCKED: TORSDOF 7
DOCKED: TER
DOCKED: ENDMDL
________________________________________________________________________________


    FINAL DOCKED STATE:
    ________________________


Run:   13 / 20
Time taken for this run:   0.031s

DOCKED: MODEL        13
DOCKED: USER    Run = 13
DOCKED: USER
DOCKED: USER    Estimated Free Energy of Binding    =  -8.27 kcal/mol  [=(1)+(2)+(3)-(4)]
DOCKED: USER
DOCKED: USER    (1) Final Intermolecular Energy     = -10.36 kcal/mol
DOCKED: USER        vdW + Hbond + desolv Energy     = -10.34 kcal/mol
DOCKED: USER        Electrostatic Energy            =  -0.02 kcal/mol
DOCKED: USER        Moving Ligand-Fixed Receptor    = -10.36 kcal/mol
DOCKED: USER        Moving Ligand-Moving Receptor   =  +0.00 kcal/mol
DOCKED: USER    (2) Final Total Internal Energy     =  -1.97 kcal/mol
DOCKED: USER    (3) Torsional Free Energy           =  +2.09 kcal/mol
DOCKED: USER    (4) Unbound System's Energy         =  -1.97 kcal/mol
DOCKED: USER
DOCKED: USER
DOCKED: REMARK SMILES O=C(NCC(=O)N1C[C@H](O)C[C@H]1CN1CCCC1)c1ccc2cc(Cl)ccc2n1
DOCKED: REMARK SMILES IDX 4 1 3 2 2 3 1 4 19 6 20 7 29 8 21 9 28 10 22 11 27 12 23 13
DOCKED: REMARK SMILES IDX 26 14 24 15 25 16 5 17 6 18 7 19 8 20 12 21 9 22 11 23 13 24
DOCKED: REMARK SMILES IDX 14 25 15 26 18 27 16 28 17 29 10 30
DOCKED: REMARK H PARENT 3 5 10 31
DOCKED: USER                              x       y       z     vdW  Elec       q    Type
DOCKED: USER                           _______ _______ _______ _____ _____    ______ ____
DOCKED: ROOT
DOCKED: ATOM      1  C   UNL     1     139.712  75.007 221.081 -0.17 -0.05    +0.216 C  
DOCKED: ENDROOT
DOCKED: BRANCH   1   2
DOCKED: ATOM      2  N   UNL     1     139.734  74.002 222.160 -0.11 +0.04    -0.342 N  
DOCKED: ATOM      3  C   UNL     1     139.958  72.630 221.854 -0.19 -0.04    +0.270 C  
DOCKED: ATOM      4  O   UNL     1     140.140  72.243 220.673 -0.07 +0.04    -0.268 OA 
DOCKED: ATOM      5  H   UNL     1     139.582  74.312 223.157 -0.50 -0.01    +0.164 HD 
DOCKED: BRANCH   3   6
DOCKED: ATOM      6  C   UNL     1     139.965  71.684 222.985 -0.29 -0.02    +0.128 A  
DOCKED: ATOM      7  C   UNL     1     139.397  70.423 222.771 -0.22 -0.01    +0.035 A  
DOCKED: ATOM      8  N   UNL     1     140.487  71.991 224.174 -0.22 +0.03    -0.243 NA 
DOCKED: ATOM      9  C   UNL     1     139.419  69.557 223.853 -0.27 -0.00    +0.013 A  
DOCKED: ATOM     10  C   UNL     1     140.501  71.137 225.214 -0.50 -0.01    +0.071 A  
DOCKED: ATOM     11  C   UNL     1     139.956  69.878 225.069 -0.42 -0.00    +0.002 A  
DOCKED: ATOM     12  C   UNL     1     141.071  71.580 226.389 -0.68 -0.00    +0.030 A  
DOCKED: ATOM     13  C   UNL     1     139.964  68.984 226.142 -0.50 -0.00    +0.030 A  
DOCKED: ATOM     14  C   UNL     1     141.081  70.696 227.454 -0.63 -0.00    +0.023 A  
DOCKED: ATOM     15  C   UNL     1     140.538  69.436 227.317 -0.57 -0.01    +0.041 A  
DOCKED: ATOM     16  Cl  UNL     1     140.591  68.379 228.714 -0.65 +0.02    -0.084 Cl 
DOCKED: ENDBRANCH   3   6
DOCKED: ENDBRANCH   1   2
DOCKED: BRANCH   1  17
DOCKED: ATOM     17  C   UNL     1     140.409  76.228 221.486 -0.23 -0.07    +0.242 C  
DOCKED: ATOM     18  O   UNL     1     140.304  76.558 222.723 -0.33 +0.06    -0.273 OA 
DOCKED: BRANCH  17  19
DOCKED: ATOM     19  N   UNL     1     141.180  77.082 220.686 -0.11 +0.15    -0.334 N  
DOCKED: ATOM     20  C   UNL     1     142.311  76.560 219.878 -0.25 -0.09    +0.151 C  
DOCKED: ATOM     21  C   UNL     1     141.173  78.489 220.402 -0.23 -0.05    +0.102 C  
DOCKED: ATOM     22  C   UNL     1     142.070  77.316 218.575 -0.21 -0.08    +0.136 C  
DOCKED: ATOM     23  C   UNL     1     141.104  78.439 218.886 -0.16 -0.03    +0.060 C  
DOCKED: BRANCH  21  24
DOCKED: ATOM     24  C   UNL     1     140.103  79.302 221.013 -0.16 -0.03    +0.109 C  
DOCKED: BRANCH  24  25
DOCKED: ATOM     25  N   UNL     1     140.751  80.082 222.087 -0.14 +0.08    -0.301 NA 
DOCKED: ATOM     26  C   UNL     1     140.577  79.438 223.364 -0.45 -0.02    +0.084 C  
DOCKED: ATOM     27  C   UNL     1     142.146  80.238 221.846 -0.44 -0.03    +0.084 C  
DOCKED: ATOM     28  C   UNL     1     141.915  79.365 224.048 -0.52 -0.00    +0.017 C  
DOCKED: ATOM     29  C   UNL     1     142.861  80.148 223.169 -0.65 -0.01    +0.017 C  
DOCKED: ENDBRANCH  24  25
DOCKED: ENDBRANCH  21  24
DOCKED: BRANCH  22  30
DOCKED: ATOM     30  O   UNL     1     143.224  77.852 218.054 -0.17 +0.34    -0.391 OA 
DOCKED: ATOM     31  H   UNL     1     143.786  78.296 218.734 -0.29 -0.23    +0.211 HD 
DOCKED: ENDBRANCH  22  30
DOCKED: ENDBRANCH  17  19
DOCKED: ENDBRANCH   1  17
DOCKED: TORSDOF 7
DOCKED: TER
DOCKED: ENDMDL
________________________________________________________________________________


    FINAL DOCKED STATE:
    ________________________


Run:   14 / 20
Time taken for this run:   0.031s

DOCKED: MODEL        14
DOCKED: USER    Run = 14
DOCKED: USER
DOCKED: USER    Estimated Free Energy of Binding    =  -8.35 kcal/mol  [=(1)+(2)+(3)-(4)]
DOCKED: USER
DOCKED: USER    (1) Final Intermolecular Energy     = -10.44 kcal/mol
DOCKED: USER        vdW + Hbond + desolv Energy     = -10.41 kcal/mol
DOCKED: USER        Electrostatic Energy            =  -0.03 kcal/mol
DOCKED: USER        Moving Ligand-Fixed Receptor    = -10.44 kcal/mol
DOCKED: USER        Moving Ligand-Moving Receptor   =  +0.00 kcal/mol
DOCKED: USER    (2) Final Total Internal Energy     =  -1.94 kcal/mol
DOCKED: USER    (3) Torsional Free Energy           =  +2.09 kcal/mol
DOCKED: USER    (4) Unbound System's Energy         =  -1.94 kcal/mol
DOCKED: USER
DOCKED: USER
DOCKED: REMARK SMILES O=C(NCC(=O)N1C[C@H](O)C[C@H]1CN1CCCC1)c1ccc2cc(Cl)ccc2n1
DOCKED: REMARK SMILES IDX 4 1 3 2 2 3 1 4 19 6 20 7 29 8 21 9 28 10 22 11 27 12 23 13
DOCKED: REMARK SMILES IDX 26 14 24 15 25 16 5 17 6 18 7 19 8 20 12 21 9 22 11 23 13 24
DOCKED: REMARK SMILES IDX 14 25 15 26 18 27 16 28 17 29 10 30
DOCKED: REMARK H PARENT 3 5 10 31
DOCKED: USER                              x       y       z     vdW  Elec       q    Type
DOCKED: USER                           _______ _______ _______ _____ _____    ______ ____
DOCKED: ROOT
DOCKED: ATOM      1  C   UNL     1     139.625  74.875 221.076 -0.17 -0.05    +0.216 C  
DOCKED: ENDROOT
DOCKED: BRANCH   1   2
DOCKED: ATOM      2  N   UNL     1     139.685  73.872 222.156 -0.12 +0.05    -0.342 N  
DOCKED: ATOM      3  C   UNL     1     139.902  72.500 221.846 -0.18 -0.04    +0.270 C  
DOCKED: ATOM      4  O   UNL     1     140.045  72.111 220.660 -0.07 +0.05    -0.268 OA 
DOCKED: ATOM      5  H   UNL     1     139.567  74.185 223.157 -0.51 -0.01    +0.164 HD 
DOCKED: BRANCH   3   6
DOCKED: ATOM      6  C   UNL     1     139.950  71.557 222.979 -0.29 -0.02    +0.128 A  
DOCKED: ATOM      7  C   UNL     1     139.440  70.271 222.765 -0.21 -0.01    +0.035 A  
DOCKED: ATOM      8  N   UNL     1     140.453  71.890 224.169 -0.27 +0.03    -0.243 NA 
DOCKED: ATOM      9  C   UNL     1     139.499  69.409 223.848 -0.25 -0.00    +0.013 A  
DOCKED: ATOM     10  C   UNL     1     140.503  71.038 225.210 -0.49 -0.01    +0.071 A  
DOCKED: ATOM     11  C   UNL     1     140.018  69.755 225.065 -0.41 -0.00    +0.002 A  
DOCKED: ATOM     12  C   UNL     1     141.049  71.509 226.386 -0.68 -0.00    +0.030 A  
DOCKED: ATOM     13  C   UNL     1     140.064  68.865 226.139 -0.51 -0.01    +0.030 A  
DOCKED: ATOM     14  C   UNL     1     141.098  70.628 227.452 -0.60 -0.00    +0.023 A  
DOCKED: ATOM     15  C   UNL     1     140.613  69.345 227.315 -0.57 -0.01    +0.041 A  
DOCKED: ATOM     16  Cl  UNL     1     140.712  68.293 228.714 -0.67 +0.02    -0.084 Cl 
DOCKED: ENDBRANCH   3   6
DOCKED: ENDBRANCH   1   2
DOCKED: BRANCH   1  17
DOCKED: ATOM     17  C   UNL     1     140.271  76.124 221.481 -0.23 -0.06    +0.242 C  
DOCKED: ATOM     18  O   UNL     1     140.045  76.517 222.683 -0.32 +0.05    -0.273 OA 
DOCKED: BRANCH  17  19
DOCKED: ATOM     19  N   UNL     1     141.110  76.944 220.715 -0.11 +0.15    -0.334 N  
DOCKED: ATOM     20  C   UNL     1     142.270  76.380 219.981 -0.24 -0.09    +0.151 C  
DOCKED: ATOM     21  C   UNL     1     141.157  78.346 220.411 -0.23 -0.05    +0.102 C  
DOCKED: ATOM     22  C   UNL     1     142.126  77.121 218.656 -0.22 -0.08    +0.136 C  
DOCKED: ATOM     23  C   UNL     1     141.174  78.274 218.894 -0.17 -0.03    +0.060 C  
DOCKED: BRANCH  21  24
DOCKED: ATOM     24  C   UNL     1     140.076  79.196 220.947 -0.15 -0.03    +0.109 C  
DOCKED: BRANCH  24  25
DOCKED: ATOM     25  N   UNL     1     140.695  80.014 222.010 -0.13 +0.08    -0.301 NA 
DOCKED: ATOM     26  C   UNL     1     140.537  79.385 223.297 -0.44 -0.02    +0.084 C  
DOCKED: ATOM     27  C   UNL     1     142.086  80.210 221.772 -0.42 -0.03    +0.084 C  
DOCKED: ATOM     28  C   UNL     1     141.873  79.365 223.987 -0.56 -0.00    +0.017 C  
DOCKED: ATOM     29  C   UNL     1     142.797  80.164 223.099 -0.66 -0.01    +0.017 C  
DOCKED: ENDBRANCH  24  25
DOCKED: ENDBRANCH  21  24
DOCKED: BRANCH  22  30
DOCKED: ATOM     30  O   UNL     1     143.322  77.618 218.195 -0.18 +0.32    -0.391 OA 
DOCKED: ATOM     31  H   UNL     1     143.918  77.926 218.919 -0.36 -0.22    +0.211 HD 
DOCKED: ENDBRANCH  22  30
DOCKED: ENDBRANCH  17  19
DOCKED: ENDBRANCH   1  17
DOCKED: TORSDOF 7
DOCKED: TER
DOCKED: ENDMDL
________________________________________________________________________________


    FINAL DOCKED STATE:
    ________________________


Run:   15 / 20
Time taken for this run:   0.031s

DOCKED: MODEL        15
DOCKED: USER    Run = 15
DOCKED: USER
DOCKED: USER    Estimated Free Energy of Binding    =  -8.05 kcal/mol  [=(1)+(2)+(3)-(4)]
DOCKED: USER
DOCKED: USER    (1) Final Intermolecular Energy     = -10.13 kcal/mol
DOCKED: USER        vdW + Hbond + desolv Energy     = -10.07 kcal/mol
DOCKED: USER        Electrostatic Energy            =  -0.06 kcal/mol
DOCKED: USER        Moving Ligand-Fixed Receptor    = -10.13 kcal/mol
DOCKED: USER        Moving Ligand-Moving Receptor   =  +0.00 kcal/mol
DOCKED: USER    (2) Final Total Internal Energy     =  -1.64 kcal/mol
DOCKED: USER    (3) Torsional Free Energy           =  +2.09 kcal/mol
DOCKED: USER    (4) Unbound System's Energy         =  -1.64 kcal/mol
DOCKED: USER
DOCKED: USER
DOCKED: REMARK SMILES O=C(NCC(=O)N1C[C@H](O)C[C@H]1CN1CCCC1)c1ccc2cc(Cl)ccc2n1
DOCKED: REMARK SMILES IDX 4 1 3 2 2 3 1 4 19 6 20 7 29 8 21 9 28 10 22 11 27 12 23 13
DOCKED: REMARK SMILES IDX 26 14 24 15 25 16 5 17 6 18 7 19 8 20 12 21 9 22 11 23 13 24
DOCKED: REMARK SMILES IDX 14 25 15 26 18 27 16 28 17 29 10 30
DOCKED: REMARK H PARENT 3 5 10 31
DOCKED: USER                              x       y       z     vdW  Elec       q    Type
DOCKED: USER                           _______ _______ _______ _____ _____    ______ ____
DOCKED: ROOT
DOCKED: ATOM      1  C   UNL     1     139.337  74.855 221.077 -0.15 -0.05    +0.216 C  
DOCKED: ENDROOT
DOCKED: BRANCH   1   2
DOCKED: ATOM      2  N   UNL     1     139.295  73.809 222.116 -0.12 +0.07    -0.342 N  
DOCKED: ATOM      3  C   UNL     1     140.396  72.922 222.281 -0.16 -0.02    +0.270 C  
DOCKED: ATOM      4  O   UNL     1     141.418  73.004 221.555 -0.25 +0.02    -0.268 OA 
DOCKED: ATOM      5  H   UNL     1     138.442  73.728 222.732 -0.55 -0.08    +0.164 HD 
DOCKED: BRANCH   3   6
DOCKED: ATOM      6  C   UNL     1     140.281  71.901 223.339 -0.31 -0.02    +0.128 A  
DOCKED: ATOM      7  C   UNL     1     139.665  70.691 222.999 -0.26 -0.01    +0.035 A  
DOCKED: ATOM      8  N   UNL     1     140.737  72.097 224.577 -0.04 +0.03    -0.243 NA 
DOCKED: ATOM      9  C   UNL     1     139.573  69.753 224.015 -0.30 -0.00    +0.013 A  
DOCKED: ATOM     10  C   UNL     1     140.639  71.174 225.552 -0.53 -0.01    +0.071 A  
DOCKED: ATOM     11  C   UNL     1     140.043  69.960 225.282 -0.45 -0.00    +0.002 A  
DOCKED: ATOM     12  C   UNL     1     141.152  71.504 226.789 -0.70 -0.00    +0.030 A  
DOCKED: ATOM     13  C   UNL     1     139.936  68.996 226.287 -0.51 -0.00    +0.030 A  
DOCKED: ATOM     14  C   UNL     1     141.048  70.550 227.786 -0.63 -0.00    +0.023 A  
DOCKED: ATOM     15  C   UNL     1     140.452  69.335 227.525 -0.58 -0.01    +0.041 A  
DOCKED: ATOM     16  Cl  UNL     1     140.361  68.183 228.843 -0.34 +0.02    -0.084 Cl 
DOCKED: ENDBRANCH   3   6
DOCKED: ENDBRANCH   1   2
DOCKED: BRANCH   1  17
DOCKED: ATOM     17  C   UNL     1     140.242  75.941 221.460 -0.23 -0.06    +0.242 C  
DOCKED: ATOM     18  O   UNL     1     140.164  76.342 222.678 -0.34 +0.05    -0.273 OA 
DOCKED: BRANCH  17  19
DOCKED: ATOM     19  N   UNL     1     141.186  76.594 220.657 -0.11 +0.14    -0.334 N  
DOCKED: ATOM     20  C   UNL     1     142.369  75.874 220.126 -0.23 -0.08    +0.151 C  
DOCKED: ATOM     21  C   UNL     1     141.337  77.928 220.150 -0.23 -0.05    +0.102 C  
DOCKED: ATOM     22  C   UNL     1     142.377  76.404 218.696 -0.22 -0.07    +0.136 C  
DOCKED: ATOM     23  C   UNL     1     141.475  77.620 218.669 -0.18 -0.03    +0.060 C  
DOCKED: BRANCH  21  24
DOCKED: ATOM     24  C   UNL     1     140.265  78.898 220.451 -0.14 -0.04    +0.109 C  
DOCKED: BRANCH  24  25
DOCKED: ATOM     25  N   UNL     1     140.770  79.724 221.567 -0.11 +0.09    -0.301 NA 
DOCKED: ATOM     26  C   UNL     1     140.269  79.242 222.828 -0.37 -0.02    +0.084 C  
DOCKED: ATOM     27  C   UNL     1     142.193  79.720 221.614 -0.35 -0.04    +0.084 C  
DOCKED: ATOM     28  C   UNL     1     141.423  79.117 223.785 -0.60 -0.00    +0.017 C  
DOCKED: ATOM     29  C   UNL     1     142.611  79.706 223.062 -0.63 -0.01    +0.017 C  
DOCKED: ENDBRANCH  24  25
DOCKED: ENDBRANCH  21  24
DOCKED: BRANCH  22  30
DOCKED: ATOM     30  O   UNL     1     143.633  76.772 218.275 -0.17 +0.27    -0.391 OA 
DOCKED: ATOM     31  H   UNL     1     144.274  76.021 218.266 -0.29 -0.16    +0.211 HD 
DOCKED: ENDBRANCH  22  30
DOCKED: ENDBRANCH  17  19
DOCKED: ENDBRANCH   1  17
DOCKED: TORSDOF 7
DOCKED: TER
DOCKED: ENDMDL
________________________________________________________________________________


    FINAL DOCKED STATE:
    ________________________


Run:   16 / 20
Time taken for this run:   0.031s

DOCKED: MODEL        16
DOCKED: USER    Run = 16
DOCKED: USER
DOCKED: USER    Estimated Free Energy of Binding    =  -7.93 kcal/mol  [=(1)+(2)+(3)-(4)]
DOCKED: USER
DOCKED: USER    (1) Final Intermolecular Energy     = -10.02 kcal/mol
DOCKED: USER        vdW + Hbond + desolv Energy     = -10.05 kcal/mol
DOCKED: USER        Electrostatic Energy            =  +0.03 kcal/mol
DOCKED: USER        Moving Ligand-Fixed Receptor    = -10.02 kcal/mol
DOCKED: USER        Moving Ligand-Moving Receptor   =  +0.00 kcal/mol
DOCKED: USER    (2) Final Total Internal Energy     =  -2.04 kcal/mol
DOCKED: USER    (3) Torsional Free Energy           =  +2.09 kcal/mol
DOCKED: USER    (4) Unbound System's Energy         =  -2.04 kcal/mol
DOCKED: USER
DOCKED: USER
DOCKED: REMARK SMILES O=C(NCC(=O)N1C[C@H](O)C[C@H]1CN1CCCC1)c1ccc2cc(Cl)ccc2n1
DOCKED: REMARK SMILES IDX 4 1 3 2 2 3 1 4 19 6 20 7 29 8 21 9 28 10 22 11 27 12 23 13
DOCKED: REMARK SMILES IDX 26 14 24 15 25 16 5 17 6 18 7 19 8 20 12 21 9 22 11 23 13 24
DOCKED: REMARK SMILES IDX 14 25 15 26 18 27 16 28 17 29 10 30
DOCKED: REMARK H PARENT 3 5 10 31
DOCKED: USER                              x       y       z     vdW  Elec       q    Type
DOCKED: USER                           _______ _______ _______ _____ _____    ______ ____
DOCKED: ROOT
DOCKED: ATOM      1  C   UNL     1     140.689  75.209 220.731 -0.18 -0.06    +0.216 C  
DOCKED: ENDROOT
DOCKED: BRANCH   1   2
DOCKED: ATOM      2  N   UNL     1     140.630  74.183 221.789 -0.15 +0.02    -0.342 N  
DOCKED: ATOM      3  C   UNL     1     139.925  72.967 221.567 -0.17 -0.04    +0.270 C  
DOCKED: ATOM      4  O   UNL     1     139.339  72.738 220.480 -0.04 +0.05    -0.268 OA 
DOCKED: ATOM      5  H   UNL     1     141.117  74.363 222.709 +0.10 +0.06    +0.164 HD 
DOCKED: BRANCH   3   6
DOCKED: ATOM      6  C   UNL     1     139.909  71.990 222.672 -0.27 -0.02    +0.128 A  
DOCKED: ATOM      7  C   UNL     1     139.286  70.760 222.432 -0.20 -0.01    +0.035 A  
DOCKED: ATOM      8  N   UNL     1     140.461  72.242 223.860 -0.23 +0.03    -0.243 NA 
DOCKED: ATOM      9  C   UNL     1     139.288  69.864 223.489 -0.26 -0.00    +0.013 A  
DOCKED: ATOM     10  C   UNL     1     140.455  71.359 224.876 -0.46 -0.01    +0.071 A  
DOCKED: ATOM     11  C   UNL     1     139.856  70.128 224.705 -0.40 -0.00    +0.002 A  
DOCKED: ATOM     12  C   UNL     1     141.061  71.745 226.053 -0.61 -0.00    +0.030 A  
DOCKED: ATOM     13  C   UNL     1     139.844  69.206 225.753 -0.45 -0.00    +0.030 A  
DOCKED: ATOM     14  C   UNL     1     141.051  70.833 227.093 -0.64 -0.00    +0.023 A  
DOCKED: ATOM     15  C   UNL     1     140.454  69.601 226.930 -0.54 -0.01    +0.041 A  
DOCKED: ATOM     16  Cl  UNL     1     140.485  68.504 228.297 -0.80 +0.02    -0.084 Cl 
DOCKED: ENDBRANCH   3   6
DOCKED: ENDBRANCH   1   2
DOCKED: BRANCH   1  17
DOCKED: ATOM     17  C   UNL     1     141.151  76.490 221.266 -0.20 -0.10    +0.242 C  
DOCKED: ATOM     18  O   UNL     1     141.104  76.624 222.543 -0.32 +0.10    -0.273 OA 
DOCKED: BRANCH  17  19
DOCKED: ATOM     19  N   UNL     1     141.643  77.591 220.551 -0.13 +0.19    -0.334 N  
DOCKED: ATOM     20  C   UNL     1     142.617  77.413 219.446 -0.19 -0.11    +0.151 C  
DOCKED: ATOM     21  C   UNL     1     141.436  79.010 220.604 -0.27 -0.05    +0.102 C  
DOCKED: ATOM     22  C   UNL     1     142.027  78.376 218.421 -0.23 -0.09    +0.136 C  
DOCKED: ATOM     23  C   UNL     1     141.045  79.262 219.158 -0.18 -0.03    +0.060 C  
DOCKED: BRANCH  21  24
DOCKED: ATOM     24  C   UNL     1     140.449  79.519 221.577 -0.23 -0.03    +0.109 C  
DOCKED: BRANCH  24  25
DOCKED: ATOM     25  N   UNL     1     141.166  79.621 222.865 -0.23 +0.08    -0.301 NA 
DOCKED: ATOM     26  C   UNL     1     142.578  79.397 222.683 -0.52 -0.04    +0.084 C  
DOCKED: ATOM     27  C   UNL     1     140.985  80.902 223.461 -0.45 -0.01    +0.084 C  
DOCKED: ATOM     28  C   UNL     1     143.330  80.499 223.377 -0.60 -0.00    +0.017 C  
DOCKED: ATOM     29  C   UNL     1     142.282  81.299 224.116 -0.56 -0.00    +0.017 C  
DOCKED: ENDBRANCH  24  25
DOCKED: ENDBRANCH  21  24
DOCKED: BRANCH  22  30
DOCKED: ATOM     30  O   UNL     1     142.983  79.167 217.828 -0.21 +0.45    -0.391 OA 
DOCKED: ATOM     31  H   UNL     1     143.475  78.706 217.108 -0.41 -0.34    +0.211 HD 
DOCKED: ENDBRANCH  22  30
DOCKED: ENDBRANCH  17  19
DOCKED: ENDBRANCH   1  17
DOCKED: TORSDOF 7
DOCKED: TER
DOCKED: ENDMDL
________________________________________________________________________________


    FINAL DOCKED STATE:
    ________________________


Run:   17 / 20
Time taken for this run:   0.031s

DOCKED: MODEL        17
DOCKED: USER    Run = 17
DOCKED: USER
DOCKED: USER    Estimated Free Energy of Binding    =  -7.84 kcal/mol  [=(1)+(2)+(3)-(4)]
DOCKED: USER
DOCKED: USER    (1) Final Intermolecular Energy     =  -9.93 kcal/mol
DOCKED: USER        vdW + Hbond + desolv Energy     =  -9.86 kcal/mol
DOCKED: USER        Electrostatic Energy            =  -0.07 kcal/mol
DOCKED: USER        Moving Ligand-Fixed Receptor    =  -9.93 kcal/mol
DOCKED: USER        Moving Ligand-Moving Receptor   =  +0.00 kcal/mol
DOCKED: USER    (2) Final Total Internal Energy     =  -1.83 kcal/mol
DOCKED: USER    (3) Torsional Free Energy           =  +2.09 kcal/mol
DOCKED: USER    (4) Unbound System's Energy         =  -1.83 kcal/mol
DOCKED: USER
DOCKED: USER
DOCKED: REMARK SMILES O=C(NCC(=O)N1C[C@H](O)C[C@H]1CN1CCCC1)c1ccc2cc(Cl)ccc2n1
DOCKED: REMARK SMILES IDX 4 1 3 2 2 3 1 4 19 6 20 7 29 8 21 9 28 10 22 11 27 12 23 13
DOCKED: REMARK SMILES IDX 26 14 24 15 25 16 5 17 6 18 7 19 8 20 12 21 9 22 11 23 13 24
DOCKED: REMARK SMILES IDX 14 25 15 26 18 27 16 28 17 29 10 30
DOCKED: REMARK H PARENT 3 5 10 31
DOCKED: USER                              x       y       z     vdW  Elec       q    Type
DOCKED: USER                           _______ _______ _______ _____ _____    ______ ____
DOCKED: ROOT
DOCKED: ATOM      1  C   UNL     1     139.467  75.087 221.026 -0.15 -0.05    +0.216 C  
DOCKED: ENDROOT
DOCKED: BRANCH   1   2
DOCKED: ATOM      2  N   UNL     1     139.515  74.075 222.098 -0.13 +0.06    -0.342 N  
DOCKED: ATOM      3  C   UNL     1     140.042  72.779 221.835 -0.19 -0.04    +0.270 C  
DOCKED: ATOM      4  O   UNL     1     140.473  72.466 220.697 -0.09 +0.04    -0.268 OA 
DOCKED: ATOM      5  H   UNL     1     139.156  74.324 223.059 -0.55 -0.06    +0.164 HD 
DOCKED: BRANCH   3   6
DOCKED: ATOM      6  C   UNL     1     140.057  71.822 222.956 -0.29 -0.02    +0.128 A  
DOCKED: ATOM      7  C   UNL     1     139.566  70.535 222.708 -0.23 -0.01    +0.035 A  
DOCKED: ATOM      8  N   UNL     1     140.516  72.142 224.167 -0.15 +0.03    -0.243 NA 
DOCKED: ATOM      9  C   UNL     1     139.594  69.659 223.781 -0.26 -0.00    +0.013 A  
DOCKED: ATOM     10  C   UNL     1     140.536  71.278 225.199 -0.50 -0.01    +0.071 A  
DOCKED: ATOM     11  C   UNL     1     140.066  69.993 225.020 -0.42 -0.00    +0.002 A  
DOCKED: ATOM     12  C   UNL     1     141.036  71.736 226.399 -0.68 -0.00    +0.030 A  
DOCKED: ATOM     13  C   UNL     1     140.081  69.089 226.084 -0.50 -0.01    +0.030 A  
DOCKED: ATOM     14  C   UNL     1     141.054  70.842 227.455 -0.65 -0.00    +0.023 A  
DOCKED: ATOM     15  C   UNL     1     140.585  69.557 227.284 -0.56 -0.01    +0.041 A  
DOCKED: ATOM     16  Cl  UNL     1     140.643  68.488 228.672 -0.71 +0.02    -0.084 Cl 
DOCKED: ENDBRANCH   3   6
DOCKED: ENDBRANCH   1   2
DOCKED: BRANCH   1  17
DOCKED: ATOM     17  C   UNL     1     140.772  75.723 220.844 -0.19 -0.07    +0.242 C  
DOCKED: ATOM     18  O   UNL     1     141.470  75.901 221.908 -0.27 +0.11    -0.273 OA 
DOCKED: BRANCH  17  19
DOCKED: ATOM     19  N   UNL     1     141.354  76.161 219.647 -0.06 +0.13    -0.334 N  
DOCKED: ATOM     20  C   UNL     1     141.121  77.537 219.141 -0.13 -0.07    +0.151 C  
DOCKED: ATOM     21  C   UNL     1     142.214  75.571 218.661 -0.16 -0.04    +0.102 C  
DOCKED: ATOM     22  C   UNL     1     142.538  77.898 218.707 -0.25 -0.10    +0.136 C  
DOCKED: ATOM     23  C   UNL     1     143.326  76.606 218.646 -0.30 -0.04    +0.060 C  
DOCKED: BRANCH  21  24
DOCKED: ATOM     24  C   UNL     1     142.693  74.197 218.909 -0.14 -0.03    +0.109 C  
DOCKED: BRANCH  24  25
DOCKED: ATOM     25  N   UNL     1     144.075  74.336 219.414 -0.16 +0.11    -0.301 NA 
DOCKED: ATOM     26  C   UNL     1     144.122  74.132 220.839 -0.27 -0.03    +0.084 C  
DOCKED: ATOM     27  C   UNL     1     144.951  73.399 218.794 -0.24 -0.00    +0.084 C  
DOCKED: ATOM     28  C   UNL     1     145.226  73.158 221.146 -0.55 -0.00    +0.017 C  
DOCKED: ATOM     29  C   UNL     1     145.933  72.922 219.832 -0.48 +0.01    +0.017 C  
DOCKED: ENDBRANCH  24  25
DOCKED: ENDBRANCH  21  24
DOCKED: BRANCH  22  30
DOCKED: ATOM     30  O   UNL     1     142.575  78.500 217.472 -0.18 +0.36    -0.391 OA 
DOCKED: ATOM     31  H   UNL     1     143.400  79.020 217.319 -0.42 -0.34    +0.211 HD 
DOCKED: ENDBRANCH  22  30
DOCKED: ENDBRANCH  17  19
DOCKED: ENDBRANCH   1  17
DOCKED: TORSDOF 7
DOCKED: TER
DOCKED: ENDMDL
________________________________________________________________________________


    FINAL DOCKED STATE:
    ________________________


Run:   18 / 20
Time taken for this run:   0.031s

DOCKED: MODEL        18
DOCKED: USER    Run = 18
DOCKED: USER
DOCKED: USER    Estimated Free Energy of Binding    =  -8.65 kcal/mol  [=(1)+(2)+(3)-(4)]
DOCKED: USER
DOCKED: USER    (1) Final Intermolecular Energy     = -10.74 kcal/mol
DOCKED: USER        vdW + Hbond + desolv Energy     = -10.71 kcal/mol
DOCKED: USER        Electrostatic Energy            =  -0.03 kcal/mol
DOCKED: USER        Moving Ligand-Fixed Receptor    = -10.74 kcal/mol
DOCKED: USER        Moving Ligand-Moving Receptor   =  +0.00 kcal/mol
DOCKED: USER    (2) Final Total Internal Energy     =  -1.73 kcal/mol
DOCKED: USER    (3) Torsional Free Energy           =  +2.09 kcal/mol
DOCKED: USER    (4) Unbound System's Energy         =  -1.73 kcal/mol
DOCKED: USER
DOCKED: USER
DOCKED: REMARK SMILES O=C(NCC(=O)N1C[C@H](O)C[C@H]1CN1CCCC1)c1ccc2cc(Cl)ccc2n1
DOCKED: REMARK SMILES IDX 4 1 3 2 2 3 1 4 19 6 20 7 29 8 21 9 28 10 22 11 27 12 23 13
DOCKED: REMARK SMILES IDX 26 14 24 15 25 16 5 17 6 18 7 19 8 20 12 21 9 22 11 23 13 24
DOCKED: REMARK SMILES IDX 14 25 15 26 18 27 16 28 17 29 10 30
DOCKED: REMARK H PARENT 3 5 10 31
DOCKED: USER                              x       y       z     vdW  Elec       q    Type
DOCKED: USER                           _______ _______ _______ _____ _____    ______ ____
DOCKED: ROOT
DOCKED: ATOM      1  C   UNL     1     139.543  74.984 221.175 -0.17 -0.05    +0.216 C  
DOCKED: ENDROOT
DOCKED: BRANCH   1   2
DOCKED: ATOM      2  N   UNL     1     139.618  73.972 222.245 -0.11 +0.05    -0.342 N  
DOCKED: ATOM      3  C   UNL     1     139.784  72.597 221.918 -0.18 -0.05    +0.270 C  
DOCKED: ATOM      4  O   UNL     1     139.868  72.213 220.724 -0.06 +0.05    -0.268 OA 
DOCKED: ATOM      5  H   UNL     1     139.549  74.281 223.252 -0.49 -0.02    +0.164 HD 
DOCKED: BRANCH   3   6
DOCKED: ATOM      6  C   UNL     1     139.850  71.644 223.041 -0.29 -0.02    +0.128 A  
DOCKED: ATOM      7  C   UNL     1     139.327  70.363 222.828 -0.22 -0.01    +0.035 A  
DOCKED: ATOM      8  N   UNL     1     140.382  71.963 224.222 -0.24 +0.04    -0.243 NA 
DOCKED: ATOM      9  C   UNL     1     139.404  69.491 223.902 -0.28 -0.00    +0.013 A  
DOCKED: ATOM     10  C   UNL     1     140.449  71.103 225.255 -0.50 -0.01    +0.071 A  
DOCKED: ATOM     11  C   UNL     1     139.951  69.824 225.110 -0.42 -0.00    +0.002 A  
DOCKED: ATOM     12  C   UNL     1     141.024  71.560 226.423 -0.68 -0.00    +0.030 A  
DOCKED: ATOM     13  C   UNL     1     140.015  68.924 226.176 -0.51 -0.01    +0.030 A  
DOCKED: ATOM     14  C   UNL     1     141.090  70.670 227.480 -0.62 -0.00    +0.023 A  
DOCKED: ATOM     15  C   UNL     1     140.594  69.391 227.343 -0.57 -0.01    +0.041 A  
DOCKED: ATOM     16  Cl  UNL     1     140.716  68.327 228.731 -0.66 +0.02    -0.084 Cl 
DOCKED: ENDBRANCH   3   6
DOCKED: ENDBRANCH   1   2
DOCKED: BRANCH   1  17
DOCKED: ATOM     17  C   UNL     1     140.193  76.231 221.583 -0.24 -0.06    +0.242 C  
DOCKED: ATOM     18  O   UNL     1     139.871  76.687 222.740 -0.27 +0.05    -0.273 OA 
DOCKED: BRANCH  17  19
DOCKED: ATOM     19  N   UNL     1     141.128  76.986 220.863 -0.12 +0.15    -0.334 N  
DOCKED: ATOM     20  C   UNL     1     142.143  76.330 220.002 -0.24 -0.08    +0.151 C  
DOCKED: ATOM     21  C   UNL     1     141.402  78.387 220.715 -0.27 -0.05    +0.102 C  
DOCKED: ATOM     22  C   UNL     1     142.073  77.238 218.779 -0.22 -0.08    +0.136 C  
DOCKED: ATOM     23  C   UNL     1     141.344  78.496 219.201 -0.20 -0.03    +0.060 C  
DOCKED: BRANCH  21  24
DOCKED: ATOM     24  C   UNL     1     140.506  79.334 221.407 -0.23 -0.03    +0.109 C  
DOCKED: BRANCH  24  25
DOCKED: ATOM     25  N   UNL     1     141.109  79.563 222.736 -0.21 +0.09    -0.301 NA 
DOCKED: ATOM     26  C   UNL     1     142.531  79.337 222.698 -0.50 -0.04    +0.084 C  
DOCKED: ATOM     27  C   UNL     1     140.875  80.893 223.191 -0.43 -0.01    +0.084 C  
DOCKED: ATOM     28  C   UNL     1     143.219  80.507 223.347 -0.62 -0.00    +0.017 C  
DOCKED: ATOM     29  C   UNL     1     142.110  81.362 223.915 -0.58 -0.00    +0.017 C  
DOCKED: ENDBRANCH  24  25
DOCKED: ENDBRANCH  21  24
DOCKED: BRANCH  22  30
DOCKED: ATOM     30  O   UNL     1     143.317  77.583 218.304 -0.19 +0.32    -0.391 OA 
DOCKED: ATOM     31  H   UNL     1     143.946  77.841 219.020 -0.39 -0.22    +0.211 HD 
DOCKED: ENDBRANCH  22  30
DOCKED: ENDBRANCH  17  19
DOCKED: ENDBRANCH   1  17
DOCKED: TORSDOF 7
DOCKED: TER
DOCKED: ENDMDL
________________________________________________________________________________


    FINAL DOCKED STATE:
    ________________________


Run:   19 / 20
Time taken for this run:   0.031s

DOCKED: MODEL        19
DOCKED: USER    Run = 19
DOCKED: USER
DOCKED: USER    Estimated Free Energy of Binding    =  -8.39 kcal/mol  [=(1)+(2)+(3)-(4)]
DOCKED: USER
DOCKED: USER    (1) Final Intermolecular Energy     = -10.48 kcal/mol
DOCKED: USER        vdW + Hbond + desolv Energy     = -10.44 kcal/mol
DOCKED: USER        Electrostatic Energy            =  -0.05 kcal/mol
DOCKED: USER        Moving Ligand-Fixed Receptor    = -10.48 kcal/mol
DOCKED: USER        Moving Ligand-Moving Receptor   =  +0.00 kcal/mol
DOCKED: USER    (2) Final Total Internal Energy     =  -1.91 kcal/mol
DOCKED: USER    (3) Torsional Free Energy           =  +2.09 kcal/mol
DOCKED: USER    (4) Unbound System's Energy         =  -1.91 kcal/mol
DOCKED: USER
DOCKED: USER
DOCKED: REMARK SMILES O=C(NCC(=O)N1C[C@H](O)C[C@H]1CN1CCCC1)c1ccc2cc(Cl)ccc2n1
DOCKED: REMARK SMILES IDX 4 1 3 2 2 3 1 4 19 6 20 7 29 8 21 9 28 10 22 11 27 12 23 13
DOCKED: REMARK SMILES IDX 26 14 24 15 25 16 5 17 6 18 7 19 8 20 12 21 9 22 11 23 13 24
DOCKED: REMARK SMILES IDX 14 25 15 26 18 27 16 28 17 29 10 30
DOCKED: REMARK H PARENT 3 5 10 31
DOCKED: USER                              x       y       z     vdW  Elec       q    Type
DOCKED: USER                           _______ _______ _______ _____ _____    ______ ____
DOCKED: ROOT
DOCKED: ATOM      1  C   UNL     1     139.489  74.872 221.104 -0.16 -0.05    +0.216 C  
DOCKED: ENDROOT
DOCKED: BRANCH   1   2
DOCKED: ATOM      2  N   UNL     1     139.586  73.870 222.182 -0.13 +0.05    -0.342 N  
DOCKED: ATOM      3  C   UNL     1     139.721  72.489 221.863 -0.17 -0.05    +0.270 C  
DOCKED: ATOM      4  O   UNL     1     139.760  72.092 220.672 -0.06 +0.05    -0.268 OA 
DOCKED: ATOM      5  H   UNL     1     139.554  74.189 223.187 -0.51 -0.02    +0.164 HD 
DOCKED: BRANCH   3   6
DOCKED: ATOM      6  C   UNL     1     139.812  71.547 222.993 -0.28 -0.02    +0.128 A  
DOCKED: ATOM      7  C   UNL     1     139.324  70.251 222.789 -0.21 -0.01    +0.035 A  
DOCKED: ATOM      8  N   UNL     1     140.334  71.888 224.172 -0.28 +0.04    -0.243 NA 
DOCKED: ATOM      9  C   UNL     1     139.423  69.389 223.870 -0.26 -0.00    +0.013 A  
DOCKED: ATOM     10  C   UNL     1     140.423  71.038 225.212 -0.49 -0.01    +0.071 A  
DOCKED: ATOM     11  C   UNL     1     139.960  69.745 225.076 -0.41 -0.00    +0.002 A  
DOCKED: ATOM     12  C   UNL     1     140.985  71.518 226.376 -0.67 -0.00    +0.030 A  
DOCKED: ATOM     13  C   UNL     1     140.047  68.855 226.148 -0.52 -0.01    +0.030 A  
DOCKED: ATOM     14  C   UNL     1     141.073  70.638 227.440 -0.62 -0.00    +0.023 A  
DOCKED: ATOM     15  C   UNL     1     140.611  69.345 227.312 -0.57 -0.01    +0.041 A  
DOCKED: ATOM     16  Cl  UNL     1     140.761  68.295 228.708 -0.67 +0.02    -0.084 Cl 
DOCKED: ENDBRANCH   3   6
DOCKED: ENDBRANCH   1   2
DOCKED: BRANCH   1  17
DOCKED: ATOM     17  C   UNL     1     140.046  76.157 221.529 -0.23 -0.06    +0.242 C  
DOCKED: ATOM     18  O   UNL     1     139.652  76.597 222.670 -0.28 +0.05    -0.273 OA 
DOCKED: BRANCH  17  19
DOCKED: ATOM     19  N   UNL     1     140.961  76.965 220.842 -0.11 +0.14    -0.334 N  
DOCKED: ATOM     20  C   UNL     1     142.132  76.375 220.146 -0.22 -0.08    +0.151 C  
DOCKED: ATOM     21  C   UNL     1     141.089  78.374 220.600 -0.23 -0.05    +0.102 C  
DOCKED: ATOM     22  C   UNL     1     142.092  77.174 218.847 -0.22 -0.08    +0.136 C  
DOCKED: ATOM     23  C   UNL     1     141.183  78.361 219.084 -0.18 -0.03    +0.060 C  
DOCKED: BRANCH  21  24
DOCKED: ATOM     24  C   UNL     1     140.021  79.254 221.115 -0.16 -0.03    +0.109 C  
DOCKED: BRANCH  24  25
DOCKED: ATOM     25  N   UNL     1     140.637  80.041 222.203 -0.13 +0.08    -0.301 NA 
DOCKED: ATOM     26  C   UNL     1     140.509  79.357 223.465 -0.45 -0.02    +0.084 C  
DOCKED: ATOM     27  C   UNL     1     142.020  80.278 221.955 -0.45 -0.03    +0.084 C  
DOCKED: ATOM     28  C   UNL     1     141.855  79.339 224.137 -0.51 -0.00    +0.017 C  
DOCKED: ATOM     29  C   UNL     1     142.750  80.193 223.271 -0.66 -0.00    +0.017 C  
DOCKED: ENDBRANCH  24  25
DOCKED: ENDBRANCH  21  24
DOCKED: BRANCH  22  30
DOCKED: ATOM     30  O   UNL     1     143.333  77.631 218.469 -0.18 +0.32    -0.391 OA 
DOCKED: ATOM     31  H   UNL     1     143.924  77.824 219.235 -0.42 -0.24    +0.211 HD 
DOCKED: ENDBRANCH  22  30
DOCKED: ENDBRANCH  17  19
DOCKED: ENDBRANCH   1  17
DOCKED: TORSDOF 7
DOCKED: TER
DOCKED: ENDMDL
________________________________________________________________________________


    FINAL DOCKED STATE:
    ________________________


Run:   20 / 20
Time taken for this run:   0.031s

DOCKED: MODEL        20
DOCKED: USER    Run = 20
DOCKED: USER
DOCKED: USER    Estimated Free Energy of Binding    =  -8.52 kcal/mol  [=(1)+(2)+(3)-(4)]
DOCKED: USER
DOCKED: USER    (1) Final Intermolecular Energy     = -10.60 kcal/mol
DOCKED: USER        vdW + Hbond + desolv Energy     = -10.56 kcal/mol
DOCKED: USER        Electrostatic Energy            =  -0.04 kcal/mol
DOCKED: USER        Moving Ligand-Fixed Receptor    = -10.60 kcal/mol
DOCKED: USER        Moving Ligand-Moving Receptor   =  +0.00 kcal/mol
DOCKED: USER    (2) Final Total Internal Energy     =  -1.75 kcal/mol
DOCKED: USER    (3) Torsional Free Energy           =  +2.09 kcal/mol
DOCKED: USER    (4) Unbound System's Energy         =  -1.75 kcal/mol
DOCKED: USER
DOCKED: USER
DOCKED: REMARK SMILES O=C(NCC(=O)N1C[C@H](O)C[C@H]1CN1CCCC1)c1ccc2cc(Cl)ccc2n1
DOCKED: REMARK SMILES IDX 4 1 3 2 2 3 1 4 19 6 20 7 29 8 21 9 28 10 22 11 27 12 23 13
DOCKED: REMARK SMILES IDX 26 14 24 15 25 16 5 17 6 18 7 19 8 20 12 21 9 22 11 23 13 24
DOCKED: REMARK SMILES IDX 14 25 15 26 18 27 16 28 17 29 10 30
DOCKED: REMARK H PARENT 3 5 10 31
DOCKED: USER                              x       y       z     vdW  Elec       q    Type
DOCKED: USER                           _______ _______ _______ _____ _____    ______ ____
DOCKED: ROOT
DOCKED: ATOM      1  C   UNL     1     139.877  75.272 221.040 -0.18 -0.05    +0.216 C  
DOCKED: ENDROOT
DOCKED: BRANCH   1   2
DOCKED: ATOM      2  N   UNL     1     139.831  74.252 222.104 -0.10 +0.04    -0.342 N  
DOCKED: ATOM      3  C   UNL     1     140.129  72.893 221.804 -0.19 -0.04    +0.270 C  
DOCKED: ATOM      4  O   UNL     1     140.433  72.530 220.640 -0.08 +0.04    -0.268 OA 
DOCKED: ATOM      5  H   UNL     1     139.577  74.543 223.086 -0.52 -0.00    +0.164 HD 
DOCKED: BRANCH   3   6
DOCKED: ATOM      6  C   UNL     1     140.063  71.930 222.919 -0.29 -0.02    +0.128 A  
DOCKED: ATOM      7  C   UNL     1     139.457  70.694 222.665 -0.23 -0.01    +0.035 A  
DOCKED: ATOM      8  N   UNL     1     140.553  72.201 224.130 -0.13 +0.03    -0.243 NA 
DOCKED: ATOM      9  C   UNL     1     139.410  69.812 223.732 -0.28 -0.00    +0.013 A  
DOCKED: ATOM     10  C   UNL     1     140.500  71.331 225.156 -0.49 -0.01    +0.071 A  
DOCKED: ATOM     11  C   UNL     1     139.916  70.095 224.971 -0.42 -0.00    +0.002 A  
DOCKED: ATOM     12  C   UNL     1     141.044  71.735 226.357 -0.67 -0.00    +0.030 A  
DOCKED: ATOM     13  C   UNL     1     139.854  69.186 226.029 -0.47 -0.00    +0.030 A  
DOCKED: ATOM     14  C   UNL     1     140.986  70.836 227.407 -0.65 -0.00    +0.023 A  
DOCKED: ATOM     15  C   UNL     1     140.403  69.599 227.230 -0.56 -0.01    +0.041 A  
DOCKED: ATOM     16  Cl  UNL     1     140.370  68.520 228.611 -0.71 +0.02    -0.084 Cl 
DOCKED: ENDBRANCH   3   6
DOCKED: ENDBRANCH   1   2
DOCKED: BRANCH   1  17
DOCKED: ATOM     17  C   UNL     1     140.601  76.464 221.484 -0.24 -0.08    +0.242 C  
DOCKED: ATOM     18  O   UNL     1     140.498  76.759 222.730 -0.32 +0.07    -0.273 OA 
DOCKED: BRANCH  17  19
DOCKED: ATOM     19  N   UNL     1     141.397  77.321 220.713 -0.12 +0.17    -0.334 N  
DOCKED: ATOM     20  C   UNL     1     142.407  76.785 219.768 -0.27 -0.09    +0.151 C  
DOCKED: ATOM     21  C   UNL     1     141.514  78.745 220.573 -0.26 -0.05    +0.102 C  
DOCKED: ATOM     22  C   UNL     1     142.154  77.695 218.570 -0.23 -0.08    +0.136 C  
DOCKED: ATOM     23  C   UNL     1     141.332  78.866 219.070 -0.20 -0.03    +0.060 C  
DOCKED: BRANCH  21  24
DOCKED: ATOM     24  C   UNL     1     140.579  79.585 221.347 -0.23 -0.03    +0.109 C  
DOCKED: BRANCH  24  25
DOCKED: ATOM     25  N   UNL     1     141.155  79.685 222.704 -0.21 +0.08    -0.301 NA 
DOCKED: ATOM     26  C   UNL     1     142.568  79.404 222.682 -0.52 -0.04    +0.084 C  
DOCKED: ATOM     27  C   UNL     1     140.961  80.983 223.257 -0.43 -0.01    +0.084 C  
DOCKED: ATOM     28  C   UNL     1     143.283  80.491 223.438 -0.61 -0.00    +0.017 C  
DOCKED: ATOM     29  C   UNL     1     142.194  81.344 224.044 -0.57 -0.00    +0.017 C  
DOCKED: ENDBRANCH  24  25
DOCKED: ENDBRANCH  21  24
DOCKED: BRANCH  22  30
DOCKED: ATOM     30  O   UNL     1     143.317  78.173 218.014 -0.14 +0.38    -0.391 OA 
DOCKED: ATOM     31  H   UNL     1     143.160  78.851 217.313 -0.24 -0.29    +0.211 HD 
DOCKED: ENDBRANCH  22  30
DOCKED: ENDBRANCH  17  19
DOCKED: ENDBRANCH   1  17
DOCKED: TORSDOF 7
DOCKED: TER
DOCKED: ENDMDL
________________________________________________________________________________


    CLUSTERING HISTOGRAM
    ____________________


________________________________________________________________________________
     |           |     |           |     |
Clus | Lowest    | Run | Mean      | Num | Histogram
-ter | Binding   |     | Binding   | in  |
Rank | Energy    |     | Energy    | Clus|    5    10   15   20   25   30   35
_____|___________|_____|___________|_____|____:____|____:____|____:____|____:___
   1 |     -8.96 |   1 |     -8.39 |  18 |##################
   2 |     -7.84 |  17 |     -7.84 |   1 |#
   3 |     -5.59 |   5 |     -5.59 |   1 |#
_____|___________|_____|___________|_____|______________________________________


    RMSD TABLE
    __________


_______________________________________________________________________
     |      |      |           |         |                 |
Rank | Sub- | Run  | Binding   | Cluster | Reference       | Grep
     | Rank |      | Energy    | RMSD    | RMSD            | Pattern
_____|______|______|___________|_________|_________________|___________
   1      1      1       -8.96      0.00    272.01           RANKING
   1      2      7       -8.71      0.60    271.84           RANKING
   1      3      2       -8.70      1.19    271.87           RANKING
   1      4     18       -8.65      0.76    271.88           RANKING
   1      5      6       -8.64      0.68    271.82           RANKING
   1      6     20       -8.52      1.09    271.88           RANKING
   1      7      4       -8.46      1.12    271.85           RANKING
   1      8     11       -8.42      0.78    271.78           RANKING
   1      9     19       -8.39      0.91    271.74           RANKING
   1     10     10       -8.39      0.91    271.75           RANKING
   1     11     12       -8.37      0.94    271.75           RANKING
   1     12      8       -8.37      0.92    271.76           RANKING
   1     13     14       -8.35      0.94    271.71           RANKING
   1     14     13       -8.27      1.01    271.74           RANKING
   1     15      9       -8.09      1.43    271.75           RANKING
   1     16     15       -8.05      0.83    271.71           RANKING
   1     17     16       -7.93      1.44    271.81           RANKING
   1     18      3       -7.66      1.52    271.65           RANKING
   2      1     17       -7.84      0.00    271.12           RANKING
   3      1      5       -5.59      0.00    270.93           RANKING

Run time 0.596 sec
Idle time 0.000 sec
