AutoDock-GPU version: v1.6

**********************************************************
**    AutoDock-GPU AUTODOCKTOOLS-COMPATIBLE DLG FILE    **
**********************************************************


    DOCKING PARAMETERS
    ________________________


Ligand file:                               /home/a/REINVENT4/ReinventStudies/pleaseWork/justmol2mol_4_Compounds_ontop/graph-dock-amy28i/graph-DockGPU/node-autodockgpu/inputs/WDPZMOSFMFUVDG-HCAYBZGYNA-N.pdbqt
Grid fld file:                             /home/a/REINVENT4/ReinventStudies/mols/Rad51/maps/rad51_receptor.maps.fld

Random seed:                               42
Number of runs:                            20
Number of energy evaluations:              1132076
Number of generations:                     42000
Size of population:                        150
Rate of crossover:                         80.000000%
Tournament selection probability limit:    60.000000%
Rate of mutation:                          2.000000%
Maximal allowed delta movement:            +/- 6.000000A
Maximal allowed delta angle:               +/- 90.000000

Rate of local search:                      100.000000%
Maximal number of local search iterations: 300
Rho lower bound:                           0.010000
Spread of local search delta movement:     2.000000A
Spread of local search delta angle:        74.999999
Limit of consecutive successes/failures:   4

Handle symmetry during clustering:         YES
RMSD tolerance:                            2.000000A

Program call in command line was:          /home/a/REINVENT4/ReinventStudies/adgpu-v1.6_linux_x64_cuda12_128wi --filelist batch.txt --heuristics 1 --nrun 20 --psize 150 --lsit 300 --seed 42 --heurmax 12000000 


    GRID PARAMETERS
    ________________________


Receptor name:                             rad51_receptor
Number of grid points (x, y, z):           53, 53, 53
Grid center (x, y, z):                     139.950000, 75.640000, 221.970000A
Grid size (x, y, z):                       19.500000, 19.500000, 19.500000A
Grid spacing:                              0.375000A


    LIGAND PARAMETERS
    ________________________


Ligand name:                               /home/a/REINVENT4/ReinventStudies/pleaseWork/justmol2mol_4_Compounds_ontop/graph-dock-amy28i/graph-DockGPU/node-autodockgpu/inputs/WDPZMOSFMFUVDG-HCAYBZGYNA-N
Number of atoms:                           29
Number of rotatable bonds:                 6
Number of atom types:                      7


    DUMMY DATA (only for ADT-compatibility)
    ________________________


DPF> outlev 1
DPF> ga_run 20
DPF> fld /home/a/REINVENT4/ReinventStudies/mols/Rad51/maps/rad51_receptor.maps.fld
DPF> move /home/a/REINVENT4/ReinventStudies/pleaseWork/justmol2mol_4_Compounds_ontop/graph-dock-amy28i/graph-DockGPU/node-autodockgpu/inputs/WDPZMOSFMFUVDG-HCAYBZGYNA-N.pdbqt


    COUNTER STATES
    ________________________


Number of energy evaluations performed:    1144632
Number of generations used:                72


    INPUT LIGAND PDBQT FILE:
    ________________________


INPUT-LIGAND-PDBQT: REMARK SMILES C[C@H](NC(=O)CCNC(=O)c1ccc2cc(F)ccc2n1)c1ccccc1
INPUT-LIGAND-PDBQT: REMARK SMILES IDX 6 1 4 2 3 3 5 5 2 6 1 7 22 8 23 9 27 10 24 11 26 12 25 13
INPUT-LIGAND-PDBQT: REMARK SMILES IDX 7 14 8 15 9 16 10 18 11 19 12 20 21 21 13 22 20 23 14 24
INPUT-LIGAND-PDBQT: REMARK SMILES IDX 19 25 15 26 18 27 16 28 17 29
INPUT-LIGAND-PDBQT: REMARK H PARENT 3 4 8 17
INPUT-LIGAND-PDBQT: ROOT
INPUT-LIGAND-PDBQT: ATOM      1  C   UNL     1       0.631  -0.423   0.339  1.00  0.00     0.121 C 
INPUT-LIGAND-PDBQT: ENDROOT
INPUT-LIGAND-PDBQT: BRANCH   1   2
INPUT-LIGAND-PDBQT: ATOM      2  C   UNL     1       2.007  -0.697   0.881  1.00  0.00     0.222 C 
INPUT-LIGAND-PDBQT: ATOM      3  N   UNL     1       3.088  -0.609  -0.053  1.00  0.00    -0.350 N 
INPUT-LIGAND-PDBQT: ATOM      4  H   UNL     1       2.943  -0.367  -1.061  1.00  0.00     0.164 HD
INPUT-LIGAND-PDBQT: ATOM      5  O   UNL     1       2.203  -0.989   2.089  1.00  0.00    -0.275 OA
INPUT-LIGAND-PDBQT: BRANCH   3   6
INPUT-LIGAND-PDBQT: ATOM      6  C   UNL     1       4.432  -0.868   0.441  1.00  0.00     0.109 C 
INPUT-LIGAND-PDBQT: ATOM      7  C   UNL     1       4.882  -2.189  -0.185  1.00  0.00     0.036 C 
INPUT-LIGAND-PDBQT: BRANCH   6   8
INPUT-LIGAND-PDBQT: ATOM      8  C   UNL     1       5.373   0.226   0.212  1.00  0.00    -0.026 A 
INPUT-LIGAND-PDBQT: ATOM      9  C   UNL     1       6.217   0.620   1.240  1.00  0.00     0.006 A 
INPUT-LIGAND-PDBQT: ATOM     10  C   UNL     1       5.423   0.852  -0.994  1.00  0.00     0.006 A 
INPUT-LIGAND-PDBQT: ATOM     11  C   UNL     1       7.098   1.655   1.004  1.00  0.00     0.000 A 
INPUT-LIGAND-PDBQT: ATOM     12  C   UNL     1       6.308   1.902  -1.252  1.00  0.00     0.000 A 
INPUT-LIGAND-PDBQT: ATOM     13  C   UNL     1       7.152   2.291  -0.213  1.00  0.00     0.000 A 
INPUT-LIGAND-PDBQT: ENDBRANCH   6   8
INPUT-LIGAND-PDBQT: ENDBRANCH   3   6
INPUT-LIGAND-PDBQT: ENDBRANCH   1   2
INPUT-LIGAND-PDBQT: BRANCH   1  14
INPUT-LIGAND-PDBQT: ATOM     14  C   UNL     1      -0.412  -0.545   1.403  1.00  0.00     0.126 C 
INPUT-LIGAND-PDBQT: BRANCH  14  15
INPUT-LIGAND-PDBQT: ATOM     15  N   UNL     1      -1.760  -0.292   0.943  1.00  0.00    -0.350 N 
INPUT-LIGAND-PDBQT: ATOM     16  C   UNL     1      -2.371  -1.070  -0.080  1.00  0.00     0.269 C 
INPUT-LIGAND-PDBQT: ATOM     17  H   UNL     1      -2.342   0.492   1.360  1.00  0.00     0.163 HD
INPUT-LIGAND-PDBQT: ATOM     18  O   UNL     1      -1.764  -2.031  -0.645  1.00  0.00    -0.268 OA
INPUT-LIGAND-PDBQT: BRANCH  16  19
INPUT-LIGAND-PDBQT: ATOM     19  C   UNL     1      -3.743  -0.754  -0.495  1.00  0.00     0.128 A 
INPUT-LIGAND-PDBQT: ATOM     20  C   UNL     1      -4.358  -1.490  -1.481  1.00  0.00     0.035 A 
INPUT-LIGAND-PDBQT: ATOM     21  N   UNL     1      -4.422   0.256   0.079  1.00  0.00    -0.243 NA
INPUT-LIGAND-PDBQT: ATOM     22  C   UNL     1      -5.628  -1.166  -1.837  1.00  0.00     0.013 A 
INPUT-LIGAND-PDBQT: ATOM     23  C   UNL     1      -5.679   0.608  -0.244  1.00  0.00     0.071 A 
INPUT-LIGAND-PDBQT: ATOM     24  C   UNL     1      -6.313  -0.134  -1.246  1.00  0.00     0.003 A 
INPUT-LIGAND-PDBQT: ATOM     25  C   UNL     1      -6.330   1.654   0.376  1.00  0.00     0.032 A 
INPUT-LIGAND-PDBQT: ATOM     26  C   UNL     1      -7.608   0.200  -1.604  1.00  0.00     0.049 A 
INPUT-LIGAND-PDBQT: ATOM     27  C   UNL     1      -7.635   1.964  -0.010  1.00  0.00     0.041 A 
INPUT-LIGAND-PDBQT: ATOM     28  C   UNL     1      -8.284   1.251  -0.993  1.00  0.00     0.123 A 
INPUT-LIGAND-PDBQT: ATOM     29  F   UNL     1      -9.563   1.549  -1.376  1.00  0.00    -0.207 F 
INPUT-LIGAND-PDBQT: ENDBRANCH  16  19
INPUT-LIGAND-PDBQT: ENDBRANCH  14  15
INPUT-LIGAND-PDBQT: ENDBRANCH   1  14
INPUT-LIGAND-PDBQT: TORSDOF 6


    FINAL DOCKED STATE:
    ________________________


Run:   1 / 20
Time taken for this run:   0.047s

DOCKED: MODEL        1
DOCKED: USER    Run = 1
DOCKED: USER
DOCKED: USER    Estimated Free Energy of Binding    =  -7.92 kcal/mol  [=(1)+(2)+(3)-(4)]
DOCKED: USER
DOCKED: USER    (1) Final Intermolecular Energy     =  -9.71 kcal/mol
DOCKED: USER        vdW + Hbond + desolv Energy     =  -9.61 kcal/mol
DOCKED: USER        Electrostatic Energy            =  -0.10 kcal/mol
DOCKED: USER        Moving Ligand-Fixed Receptor    =  -9.71 kcal/mol
DOCKED: USER        Moving Ligand-Moving Receptor   =  +0.00 kcal/mol
DOCKED: USER    (2) Final Total Internal Energy     =  -1.66 kcal/mol
DOCKED: USER    (3) Torsional Free Energy           =  +1.79 kcal/mol
DOCKED: USER    (4) Unbound System's Energy         =  -1.66 kcal/mol
DOCKED: USER
DOCKED: USER
DOCKED: REMARK SMILES C[C@H](NC(=O)CCNC(=O)c1ccc2cc(F)ccc2n1)c1ccccc1
DOCKED: REMARK SMILES IDX 6 1 4 2 3 3 5 5 2 6 1 7 22 8 23 9 27 10 24 11 26 12 25 13
DOCKED: REMARK SMILES IDX 7 14 8 15 9 16 10 18 11 19 12 20 21 21 13 22 20 23 14 24
DOCKED: REMARK SMILES IDX 19 25 15 26 18 27 16 28 17 29
DOCKED: REMARK H PARENT 3 4 8 17
DOCKED: USER                              x       y       z     vdW  Elec       q    Type
DOCKED: USER                           _______ _______ _______ _____ _____    ______ ____
DOCKED: ROOT
DOCKED: ATOM      1  C   UNL     1     138.620  73.593 220.665 -0.09 -0.03    +0.121 C  
DOCKED: ENDROOT
DOCKED: BRANCH   1   2
DOCKED: ATOM      2  C   UNL     1     139.721  74.354 221.352 -0.19 -0.04    +0.222 C  
DOCKED: ATOM      3  N   UNL     1     140.005  75.661 220.842 -0.08 +0.09    -0.350 N  
DOCKED: ATOM      4  H   UNL     1     139.483  76.076 220.036 +0.04 -0.04    +0.164 HD 
DOCKED: ATOM      5  O   UNL     1     140.360  73.873 222.323 -0.82 -0.01    -0.275 OA 
DOCKED: BRANCH   3   6
DOCKED: ATOM      6  C   UNL     1     141.065  76.423 221.486 -0.29 -0.04    +0.109 C  
DOCKED: ATOM      7  C   UNL     1     142.025  76.859 220.379 -0.23 -0.02    +0.036 C  
DOCKED: BRANCH   6   8
DOCKED: ATOM      8  C   UNL     1     140.587  77.535 222.303 -0.41 +0.01    -0.026 A  
DOCKED: ATOM      9  C   UNL     1     139.230  77.820 222.333 -0.31 -0.00    +0.006 A  
DOCKED: ATOM     10  C   UNL     1     141.460  78.283 223.029 -0.53 -0.00    +0.006 A  
DOCKED: ATOM     11  C   UNL     1     138.798  78.875 223.110 -0.32 -0.00    +0.000 A  
DOCKED: ATOM     12  C   UNL     1     141.043  79.355 223.822 -0.56 -0.00    +0.000 A  
DOCKED: ATOM     13  C   UNL     1     139.677  79.634 223.845 -0.45 -0.00    +0.000 A  
DOCKED: ENDBRANCH   6   8
DOCKED: ENDBRANCH   3   6
DOCKED: ENDBRANCH   1   2
DOCKED: BRANCH   1  14
DOCKED: ATOM     14  C   UNL     1     137.632  73.050 221.647 -0.11 -0.03    +0.126 C  
DOCKED: BRANCH  14  15
DOCKED: ATOM     15  N   UNL     1     138.224  72.271 222.713 -0.06 +0.11    -0.350 N  
DOCKED: ATOM     16  C   UNL     1     137.979  70.877 222.858 -0.12 -0.06    +0.269 C  
DOCKED: ATOM     17  H   UNL     1     138.866  72.721 223.428 -0.37 -0.09    +0.163 HD 
DOCKED: ATOM     18  O   UNL     1     137.227  70.240 222.058 -0.04 +0.05    -0.268 OA 
DOCKED: BRANCH  16  19
DOCKED: ATOM     19  C   UNL     1     138.614  70.151 223.965 -0.25 -0.02    +0.128 A  
DOCKED: ATOM     20  C   UNL     1     138.571  68.777 224.011 -0.30 -0.00    +0.035 A  
DOCKED: ATOM     21  N   UNL     1     139.249  70.813 224.950 -0.23 +0.05    -0.243 NA 
DOCKED: ATOM     22  C   UNL     1     139.170  68.143 225.052 -0.43 -0.00    +0.013 A  
DOCKED: ATOM     23  C   UNL     1     139.854  70.224 225.996 -0.44 -0.01    +0.071 A  
DOCKED: ATOM     24  C   UNL     1     139.815  68.827 226.052 -0.52 -0.00    +0.003 A  
DOCKED: ATOM     25  C   UNL     1     140.490  70.951 226.980 -0.62 -0.01    +0.032 A  
DOCKED: ATOM     26  C   UNL     1     140.429  68.185 227.115 -0.63 -0.01    +0.049 A  
DOCKED: ATOM     27  C   UNL     1     141.098  70.272 228.038 -0.56 -0.01    +0.041 A  
DOCKED: ATOM     28  C   UNL     1     141.076  68.898 228.119 -0.51 -0.03    +0.123 A  
DOCKED: ATOM     29  F   UNL     1     141.670  68.226 229.153 -0.16 +0.05    -0.207 F  
DOCKED: ENDBRANCH  16  19
DOCKED: ENDBRANCH  14  15
DOCKED: ENDBRANCH   1  14
DOCKED: TORSDOF 6
DOCKED: TER
DOCKED: ENDMDL
________________________________________________________________________________


    FINAL DOCKED STATE:
    ________________________


Run:   2 / 20
Time taken for this run:   0.047s

DOCKED: MODEL        2
DOCKED: USER    Run = 2
DOCKED: USER
DOCKED: USER    Estimated Free Energy of Binding    =  -7.94 kcal/mol  [=(1)+(2)+(3)-(4)]
DOCKED: USER
DOCKED: USER    (1) Final Intermolecular Energy     =  -9.73 kcal/mol
DOCKED: USER        vdW + Hbond + desolv Energy     =  -9.71 kcal/mol
DOCKED: USER        Electrostatic Energy            =  -0.01 kcal/mol
DOCKED: USER        Moving Ligand-Fixed Receptor    =  -9.73 kcal/mol
DOCKED: USER        Moving Ligand-Moving Receptor   =  +0.00 kcal/mol
DOCKED: USER    (2) Final Total Internal Energy     =  -1.63 kcal/mol
DOCKED: USER    (3) Torsional Free Energy           =  +1.79 kcal/mol
DOCKED: USER    (4) Unbound System's Energy         =  -1.63 kcal/mol
DOCKED: USER
DOCKED: USER
DOCKED: REMARK SMILES C[C@H](NC(=O)CCNC(=O)c1ccc2cc(F)ccc2n1)c1ccccc1
DOCKED: REMARK SMILES IDX 6 1 4 2 3 3 5 5 2 6 1 7 22 8 23 9 27 10 24 11 26 12 25 13
DOCKED: REMARK SMILES IDX 7 14 8 15 9 16 10 18 11 19 12 20 21 21 13 22 20 23 14 24
DOCKED: REMARK SMILES IDX 19 25 15 26 18 27 16 28 17 29
DOCKED: REMARK H PARENT 3 4 8 17
DOCKED: USER                              x       y       z     vdW  Elec       q    Type
DOCKED: USER                           _______ _______ _______ _____ _____    ______ ____
DOCKED: ROOT
DOCKED: ATOM      1  C   UNL     1     136.670  69.430 223.629 -0.17 -0.01    +0.121 C  
DOCKED: ENDROOT
DOCKED: BRANCH   1   2
DOCKED: ATOM      2  C   UNL     1     137.867  70.255 224.013 -0.19 -0.04    +0.222 C  
DOCKED: ATOM      3  N   UNL     1     139.145  69.625 223.877 -0.10 +0.06    -0.350 N  
DOCKED: ATOM      4  H   UNL     1     139.255  68.643 223.531 +0.01 -0.03    +0.164 HD 
DOCKED: ATOM      5  O   UNL     1     137.757  71.437 224.431 -0.07 +0.08    -0.275 OA 
DOCKED: BRANCH   3   6
DOCKED: ATOM      6  C   UNL     1     140.323  70.399 224.240 -0.26 -0.02    +0.109 C  
DOCKED: ATOM      7  C   UNL     1     140.322  71.642 223.349 -0.36 -0.00    +0.036 C  
DOCKED: BRANCH   6   8
DOCKED: ATOM      8  C   UNL     1     140.415  70.713 225.664 -0.54 +0.00    -0.026 A  
DOCKED: ATOM      9  C   UNL     1     141.068  71.871 226.061 -0.62 -0.00    +0.006 A  
DOCKED: ATOM     10  C   UNL     1     139.868  69.882 226.591 -0.52 -0.00    +0.006 A  
DOCKED: ATOM     11  C   UNL     1     141.145  72.149 227.410 -0.83 -0.00    +0.000 A  
DOCKED: ATOM     12  C   UNL     1     139.936  70.147 227.961 -0.64 -0.00    +0.000 A  
DOCKED: ATOM     13  C   UNL     1     140.594  71.313 228.351 -0.70 -0.00    +0.000 A  
DOCKED: ENDBRANCH   6   8
DOCKED: ENDBRANCH   3   6
DOCKED: ENDBRANCH   1   2
DOCKED: BRANCH   1  14
DOCKED: ATOM     14  C   UNL     1     135.722  69.272 224.775 -0.19 -0.01    +0.126 C  
DOCKED: BRANCH  14  15
DOCKED: ATOM     15  N   UNL     1     135.123  70.510 225.222 -0.07 +0.02    -0.350 N  
DOCKED: ATOM     16  C   UNL     1     133.970  70.536 226.056 -0.20 -0.02    +0.269 C  
DOCKED: ATOM     17  H   UNL     1     135.529  71.448 224.938 +0.05 -0.01    +0.163 HD 
DOCKED: ATOM     18  O   UNL     1     133.405  69.471 226.454 -0.67 -0.01    -0.268 OA 
DOCKED: BRANCH  16  19
DOCKED: ATOM     19  C   UNL     1     133.417  71.831 226.470 -0.32 -0.01    +0.128 A  
DOCKED: ATOM     20  C   UNL     1     132.266  71.887 227.222 -0.38 -0.01    +0.035 A  
DOCKED: ATOM     21  N   UNL     1     134.022  72.982 226.125 -0.42 -0.01    -0.243 NA 
DOCKED: ATOM     22  C   UNL     1     131.786  73.104 227.585 -0.41 -0.00    +0.013 A  
DOCKED: ATOM     23  C   UNL     1     133.580  74.206 226.465 -0.26 +0.01    +0.071 A  
DOCKED: ATOM     24  C   UNL     1     132.410  74.273 227.228 -0.42 -0.00    +0.003 A  
DOCKED: ATOM     25  C   UNL     1     134.240  75.355 226.084 -0.40 +0.00    +0.032 A  
DOCKED: ATOM     26  C   UNL     1     131.926  75.517 227.596 -0.36 -0.00    +0.049 A  
DOCKED: ATOM     27  C   UNL     1     133.724  76.593 226.472 -0.31 -0.00    +0.041 A  
DOCKED: ATOM     28  C   UNL     1     132.574  76.690 227.223 -0.30 -0.00    +0.123 A  
DOCKED: ATOM     29  F   UNL     1     132.063  77.899 227.607 -0.05 -0.00    -0.207 F  
DOCKED: ENDBRANCH  16  19
DOCKED: ENDBRANCH  14  15
DOCKED: ENDBRANCH   1  14
DOCKED: TORSDOF 6
DOCKED: TER
DOCKED: ENDMDL
________________________________________________________________________________


    FINAL DOCKED STATE:
    ________________________


Run:   3 / 20
Time taken for this run:   0.047s

DOCKED: MODEL        3
DOCKED: USER    Run = 3
DOCKED: USER
DOCKED: USER    Estimated Free Energy of Binding    =  -8.50 kcal/mol  [=(1)+(2)+(3)-(4)]
DOCKED: USER
DOCKED: USER    (1) Final Intermolecular Energy     = -10.29 kcal/mol
DOCKED: USER        vdW + Hbond + desolv Energy     = -10.17 kcal/mol
DOCKED: USER        Electrostatic Energy            =  -0.12 kcal/mol
DOCKED: USER        Moving Ligand-Fixed Receptor    = -10.29 kcal/mol
DOCKED: USER        Moving Ligand-Moving Receptor   =  +0.00 kcal/mol
DOCKED: USER    (2) Final Total Internal Energy     =  -0.97 kcal/mol
DOCKED: USER    (3) Torsional Free Energy           =  +1.79 kcal/mol
DOCKED: USER    (4) Unbound System's Energy         =  -0.97 kcal/mol
DOCKED: USER
DOCKED: USER
DOCKED: REMARK SMILES C[C@H](NC(=O)CCNC(=O)c1ccc2cc(F)ccc2n1)c1ccccc1
DOCKED: REMARK SMILES IDX 6 1 4 2 3 3 5 5 2 6 1 7 22 8 23 9 27 10 24 11 26 12 25 13
DOCKED: REMARK SMILES IDX 7 14 8 15 9 16 10 18 11 19 12 20 21 21 13 22 20 23 14 24
DOCKED: REMARK SMILES IDX 19 25 15 26 18 27 16 28 17 29
DOCKED: REMARK H PARENT 3 4 8 17
DOCKED: USER                              x       y       z     vdW  Elec       q    Type
DOCKED: USER                           _______ _______ _______ _____ _____    ______ ____
DOCKED: ROOT
DOCKED: ATOM      1  C   UNL     1     136.181  70.098 223.576 -0.14 -0.02    +0.121 C  
DOCKED: ENDROOT
DOCKED: BRANCH   1   2
DOCKED: ATOM      2  C   UNL     1     137.635  69.811 223.830 -0.18 -0.03    +0.222 C  
DOCKED: ATOM      3  N   UNL     1     138.475  70.944 224.075 -0.13 +0.08    -0.350 N  
DOCKED: ATOM      4  H   UNL     1     138.109  71.925 224.081 -0.30 -0.07    +0.164 HD 
DOCKED: ATOM      5  O   UNL     1     138.095  68.640 223.827 -0.21 +0.02    -0.275 OA 
DOCKED: BRANCH   3   6
DOCKED: ATOM      6  C   UNL     1     139.887  70.699 224.324 -0.36 -0.02    +0.109 C  
DOCKED: ATOM      7  C   UNL     1     140.665  71.610 223.372 -0.30 -0.00    +0.036 C  
DOCKED: BRANCH   6   8
DOCKED: ATOM      8  C   UNL     1     140.282  70.858 225.722 -0.54 +0.00    -0.026 A  
DOCKED: ATOM      9  C   UNL     1     139.860  69.924 226.656 -0.52 -0.00    +0.006 A  
DOCKED: ATOM     10  C   UNL     1     141.056  71.909 226.105 -0.61 -0.00    +0.006 A  
DOCKED: ATOM     11  C   UNL     1     140.243  70.092 227.971 -0.64 -0.00    +0.000 A  
DOCKED: ATOM     12  C   UNL     1     141.454  72.096 227.431 -0.79 -0.00    +0.000 A  
DOCKED: ATOM     13  C   UNL     1     141.025  71.152 228.362 -0.66 -0.00    +0.000 A  
DOCKED: ENDBRANCH   6   8
DOCKED: ENDBRANCH   3   6
DOCKED: ENDBRANCH   1   2
DOCKED: BRANCH   1  14
DOCKED: ATOM     14  C   UNL     1     135.363  69.920 224.815 -0.19 -0.01    +0.126 C  
DOCKED: BRANCH  14  15
DOCKED: ATOM     15  N   UNL     1     134.715  71.129 225.275 -0.08 +0.02    -0.350 N  
DOCKED: ATOM     16  C   UNL     1     133.712  71.115 226.284 -0.23 -0.02    +0.269 C  
DOCKED: ATOM     17  H   UNL     1     134.972  72.076 224.869 +0.05 -0.01    +0.163 HD 
DOCKED: ATOM     18  O   UNL     1     133.331  70.037 226.836 -0.48 -0.01    -0.268 OA 
DOCKED: BRANCH  16  19
DOCKED: ATOM     19  C   UNL     1     133.098  72.382 226.700 -0.33 -0.01    +0.128 A  
DOCKED: ATOM     20  C   UNL     1     131.868  72.390 227.316 -0.39 -0.01    +0.035 A  
DOCKED: ATOM     21  N   UNL     1     133.725  73.554 226.490 -0.77 -0.02    -0.243 NA 
DOCKED: ATOM     22  C   UNL     1     131.335  73.583 227.686 -0.35 -0.00    +0.013 A  
DOCKED: ATOM     23  C   UNL     1     133.232  74.754 226.840 -0.29 +0.01    +0.071 A  
DOCKED: ATOM     24  C   UNL     1     131.981  74.773 227.467 -0.41 -0.00    +0.003 A  
DOCKED: ATOM     25  C   UNL     1     133.916  75.927 226.600 -0.40 -0.00    +0.032 A  
DOCKED: ATOM     26  C   UNL     1     131.443  75.992 227.842 -0.29 +0.00    +0.049 A  
DOCKED: ATOM     27  C   UNL     1     133.344  77.139 226.991 -0.33 -0.00    +0.041 A  
DOCKED: ATOM     28  C   UNL     1     132.114  77.187 227.609 -0.27 +0.00    +0.123 A  
DOCKED: ATOM     29  F   UNL     1     131.547  78.371 227.996 -0.05 -0.02    -0.207 F  
DOCKED: ENDBRANCH  16  19
DOCKED: ENDBRANCH  14  15
DOCKED: ENDBRANCH   1  14
DOCKED: TORSDOF 6
DOCKED: TER
DOCKED: ENDMDL
________________________________________________________________________________


    FINAL DOCKED STATE:
    ________________________


Run:   4 / 20
Time taken for this run:   0.047s

DOCKED: MODEL        4
DOCKED: USER    Run = 4
DOCKED: USER
DOCKED: USER    Estimated Free Energy of Binding    =  -7.38 kcal/mol  [=(1)+(2)+(3)-(4)]
DOCKED: USER
DOCKED: USER    (1) Final Intermolecular Energy     =  -9.17 kcal/mol
DOCKED: USER        vdW + Hbond + desolv Energy     =  -9.20 kcal/mol
DOCKED: USER        Electrostatic Energy            =  +0.03 kcal/mol
DOCKED: USER        Moving Ligand-Fixed Receptor    =  -9.17 kcal/mol
DOCKED: USER        Moving Ligand-Moving Receptor   =  +0.00 kcal/mol
DOCKED: USER    (2) Final Total Internal Energy     =  -1.73 kcal/mol
DOCKED: USER    (3) Torsional Free Energy           =  +1.79 kcal/mol
DOCKED: USER    (4) Unbound System's Energy         =  -1.73 kcal/mol
DOCKED: USER
DOCKED: USER
DOCKED: REMARK SMILES C[C@H](NC(=O)CCNC(=O)c1ccc2cc(F)ccc2n1)c1ccccc1
DOCKED: REMARK SMILES IDX 6 1 4 2 3 3 5 5 2 6 1 7 22 8 23 9 27 10 24 11 26 12 25 13
DOCKED: REMARK SMILES IDX 7 14 8 15 9 16 10 18 11 19 12 20 21 21 13 22 20 23 14 24
DOCKED: REMARK SMILES IDX 19 25 15 26 18 27 16 28 17 29
DOCKED: REMARK H PARENT 3 4 8 17
DOCKED: USER                              x       y       z     vdW  Elec       q    Type
DOCKED: USER                           _______ _______ _______ _____ _____    ______ ____
DOCKED: ROOT
DOCKED: ATOM      1  C   UNL     1     141.430  75.245 221.295 -0.26 -0.04    +0.121 C  
DOCKED: ENDROOT
DOCKED: BRANCH   1   2
DOCKED: ATOM      2  C   UNL     1     142.678  74.905 220.527 -0.18 -0.09    +0.222 C  
DOCKED: ATOM      3  N   UNL     1     143.249  73.618 220.780 -0.12 +0.08    -0.350 N  
DOCKED: ATOM      4  H   UNL     1     142.831  72.939 221.458 +0.07 -0.02    +0.164 HD 
DOCKED: ATOM      5  O   UNL     1     143.196  75.706 219.707 -0.27 +0.15    -0.275 OA 
DOCKED: BRANCH   3   6
DOCKED: ATOM      6  C   UNL     1     144.457  73.259 220.052 -0.36 -0.02    +0.109 C  
DOCKED: ATOM      7  C   UNL     1     145.633  73.835 220.843 -0.63 -0.01    +0.036 C  
DOCKED: BRANCH   6   8
DOCKED: ATOM      8  C   UNL     1     144.591  71.829 219.785 -0.30 -0.00    -0.026 A  
DOCKED: ATOM      9  C   UNL     1     145.811  71.331 219.352 -0.29 +0.00    +0.006 A  
DOCKED: ATOM     10  C   UNL     1     143.532  70.993 219.959 -0.23 -0.00    +0.006 A  
DOCKED: ATOM     11  C   UNL     1     145.916  69.978 219.105 -0.33 +0.00    +0.000 A  
DOCKED: ATOM     12  C   UNL     1     143.619  69.620 219.715 -0.23 -0.00    +0.000 A  
DOCKED: ATOM     13  C   UNL     1     144.850  69.129 219.279 -0.32 +0.00    +0.000 A  
DOCKED: ENDBRANCH   6   8
DOCKED: ENDBRANCH   3   6
DOCKED: ENDBRANCH   1   2
DOCKED: BRANCH   1  14
DOCKED: ATOM     14  C   UNL     1     140.366  74.214 221.097 -0.22 -0.02    +0.126 C  
DOCKED: BRANCH  14  15
DOCKED: ATOM     15  N   UNL     1     140.111  73.394 222.262 -0.14 +0.03    -0.350 N  
DOCKED: ATOM     16  C   UNL     1     140.567  72.050 222.358 -0.20 -0.03    +0.269 C  
DOCKED: ATOM     17  H   UNL     1     139.568  73.776 223.091 -0.51 -0.03    +0.163 HD 
DOCKED: ATOM     18  O   UNL     1     141.225  71.496 221.424 -0.14 +0.03    -0.268 OA 
DOCKED: BRANCH  16  19
DOCKED: ATOM     19  C   UNL     1     140.270  71.280 223.572 -0.32 -0.02    +0.128 A  
DOCKED: ATOM     20  C   UNL     1     139.601  70.081 223.488 -0.26 -0.01    +0.035 A  
DOCKED: ATOM     21  N   UNL     1     140.645  71.729 224.783 -0.29 +0.03    -0.243 NA 
DOCKED: ATOM     22  C   UNL     1     139.345  69.398 224.634 -0.36 -0.00    +0.013 A  
DOCKED: ATOM     23  C   UNL     1     140.412  71.085 225.940 -0.54 -0.01    +0.071 A  
DOCKED: ATOM     24  C   UNL     1     139.731  69.865 225.865 -0.47 -0.00    +0.003 A  
DOCKED: ATOM     25  C   UNL     1     140.818  71.591 227.157 -0.74 -0.01    +0.032 A  
DOCKED: ATOM     26  C   UNL     1     139.474  69.173 227.037 -0.50 -0.01    +0.049 A  
DOCKED: ATOM     27  C   UNL     1     140.541  70.867 228.318 -0.60 -0.01    +0.041 A  
DOCKED: ATOM     28  C   UNL     1     139.874  69.664 228.275 -0.51 -0.02    +0.123 A  
DOCKED: ATOM     29  F   UNL     1     139.599  68.950 229.409 +0.01 +0.03    -0.207 F  
DOCKED: ENDBRANCH  16  19
DOCKED: ENDBRANCH  14  15
DOCKED: ENDBRANCH   1  14
DOCKED: TORSDOF 6
DOCKED: TER
DOCKED: ENDMDL
________________________________________________________________________________


    FINAL DOCKED STATE:
    ________________________


Run:   5 / 20
Time taken for this run:   0.047s

DOCKED: MODEL        5
DOCKED: USER    Run = 5
DOCKED: USER
DOCKED: USER    Estimated Free Energy of Binding    =  -8.28 kcal/mol  [=(1)+(2)+(3)-(4)]
DOCKED: USER
DOCKED: USER    (1) Final Intermolecular Energy     = -10.07 kcal/mol
DOCKED: USER        vdW + Hbond + desolv Energy     =  -9.98 kcal/mol
DOCKED: USER        Electrostatic Energy            =  -0.09 kcal/mol
DOCKED: USER        Moving Ligand-Fixed Receptor    = -10.07 kcal/mol
DOCKED: USER        Moving Ligand-Moving Receptor   =  +0.00 kcal/mol
DOCKED: USER    (2) Final Total Internal Energy     =  -1.60 kcal/mol
DOCKED: USER    (3) Torsional Free Energy           =  +1.79 kcal/mol
DOCKED: USER    (4) Unbound System's Energy         =  -1.60 kcal/mol
DOCKED: USER
DOCKED: USER
DOCKED: REMARK SMILES C[C@H](NC(=O)CCNC(=O)c1ccc2cc(F)ccc2n1)c1ccccc1
DOCKED: REMARK SMILES IDX 6 1 4 2 3 3 5 5 2 6 1 7 22 8 23 9 27 10 24 11 26 12 25 13
DOCKED: REMARK SMILES IDX 7 14 8 15 9 16 10 18 11 19 12 20 21 21 13 22 20 23 14 24
DOCKED: REMARK SMILES IDX 19 25 15 26 18 27 16 28 17 29
DOCKED: REMARK H PARENT 3 4 8 17
DOCKED: USER                              x       y       z     vdW  Elec       q    Type
DOCKED: USER                           _______ _______ _______ _____ _____    ______ ____
DOCKED: ROOT
DOCKED: ATOM      1  C   UNL     1     138.218  74.999 221.421 -0.16 -0.03    +0.121 C  
DOCKED: ENDROOT
DOCKED: BRANCH   1   2
DOCKED: ATOM      2  C   UNL     1     139.648  75.420 221.625 -0.22 -0.05    +0.222 C  
DOCKED: ATOM      3  N   UNL     1     140.038  76.660 221.026 -0.08 +0.10    -0.350 N  
DOCKED: ATOM      4  H   UNL     1     139.374  77.252 220.474 +0.05 -0.04    +0.164 HD 
DOCKED: ATOM      5  O   UNL     1     140.462  74.724 222.286 -0.69 -0.01    -0.275 OA 
DOCKED: BRANCH   3   6
DOCKED: ATOM      6  C   UNL     1     141.414  77.095 221.206 -0.22 -0.06    +0.109 C  
DOCKED: ATOM      7  C   UNL     1     142.028  77.196 219.808 -0.30 -0.02    +0.036 C  
DOCKED: BRANCH   6   8
DOCKED: ATOM      8  C   UNL     1     141.555  78.323 221.985 -0.38 +0.01    -0.026 A  
DOCKED: ATOM      9  C   UNL     1     141.451  78.264 223.367 -0.54 -0.00    +0.006 A  
DOCKED: ATOM     10  C   UNL     1     141.785  79.511 221.365 -0.40 -0.00    +0.006 A  
DOCKED: ATOM     11  C   UNL     1     141.586  79.434 224.085 -0.54 -0.00    +0.000 A  
DOCKED: ATOM     12  C   UNL     1     141.924  80.707 222.074 -0.49 -0.00    +0.000 A  
DOCKED: ATOM     13  C   UNL     1     141.819  80.638 223.463 -0.60 -0.00    +0.000 A  
DOCKED: ENDBRANCH   6   8
DOCKED: ENDBRANCH   3   6
DOCKED: ENDBRANCH   1   2
DOCKED: BRANCH   1  14
DOCKED: ATOM     14  C   UNL     1     138.103  73.519 221.240 -0.11 -0.03    +0.126 C  
DOCKED: BRANCH  14  15
DOCKED: ATOM     15  N   UNL     1     138.578  72.746 222.366 -0.07 +0.11    -0.350 N  
DOCKED: ATOM     16  C   UNL     1     138.308  71.354 222.498 -0.12 -0.06    +0.269 C  
DOCKED: ATOM     17  H   UNL     1     139.149  73.198 223.139 -0.46 -0.07    +0.163 HD 
DOCKED: ATOM     18  O   UNL     1     137.635  70.716 221.632 -0.04 +0.05    -0.268 OA 
DOCKED: BRANCH  16  19
DOCKED: ATOM     19  C   UNL     1     138.823  70.635 223.670 -0.24 -0.03    +0.128 A  
DOCKED: ATOM     20  C   UNL     1     138.673  69.271 223.769 -0.27 -0.01    +0.035 A  
DOCKED: ATOM     21  N   UNL     1     139.448  71.292 224.663 -0.24 +0.06    -0.243 NA 
DOCKED: ATOM     22  C   UNL     1     139.163  68.642 224.868 -0.40 -0.00    +0.013 A  
DOCKED: ATOM     23  C   UNL     1     139.947  70.707 225.767 -0.46 -0.01    +0.071 A  
DOCKED: ATOM     24  C   UNL     1     139.800  69.321 225.877 -0.47 -0.00    +0.003 A  
DOCKED: ATOM     25  C   UNL     1     140.580  71.429 226.757 -0.66 -0.01    +0.032 A  
DOCKED: ATOM     26  C   UNL     1     140.302  68.685 227.000 -0.59 -0.01    +0.049 A  
DOCKED: ATOM     27  C   UNL     1     141.074  70.756 227.876 -0.64 -0.01    +0.041 A  
DOCKED: ATOM     28  C   UNL     1     140.943  69.392 228.011 -0.50 -0.03    +0.123 A  
DOCKED: ATOM     29  F   UNL     1     141.425  68.726 229.105 -0.13 +0.05    -0.207 F  
DOCKED: ENDBRANCH  16  19
DOCKED: ENDBRANCH  14  15
DOCKED: ENDBRANCH   1  14
DOCKED: TORSDOF 6
DOCKED: TER
DOCKED: ENDMDL
________________________________________________________________________________


    FINAL DOCKED STATE:
    ________________________


Run:   6 / 20
Time taken for this run:   0.047s

DOCKED: MODEL        6
DOCKED: USER    Run = 6
DOCKED: USER
DOCKED: USER    Estimated Free Energy of Binding    =  -7.86 kcal/mol  [=(1)+(2)+(3)-(4)]
DOCKED: USER
DOCKED: USER    (1) Final Intermolecular Energy     =  -9.65 kcal/mol
DOCKED: USER        vdW + Hbond + desolv Energy     =  -9.63 kcal/mol
DOCKED: USER        Electrostatic Energy            =  -0.02 kcal/mol
DOCKED: USER        Moving Ligand-Fixed Receptor    =  -9.65 kcal/mol
DOCKED: USER        Moving Ligand-Moving Receptor   =  +0.00 kcal/mol
DOCKED: USER    (2) Final Total Internal Energy     =  -1.54 kcal/mol
DOCKED: USER    (3) Torsional Free Energy           =  +1.79 kcal/mol
DOCKED: USER    (4) Unbound System's Energy         =  -1.54 kcal/mol
DOCKED: USER
DOCKED: USER
DOCKED: REMARK SMILES C[C@H](NC(=O)CCNC(=O)c1ccc2cc(F)ccc2n1)c1ccccc1
DOCKED: REMARK SMILES IDX 6 1 4 2 3 3 5 5 2 6 1 7 22 8 23 9 27 10 24 11 26 12 25 13
DOCKED: REMARK SMILES IDX 7 14 8 15 9 16 10 18 11 19 12 20 21 21 13 22 20 23 14 24
DOCKED: REMARK SMILES IDX 19 25 15 26 18 27 16 28 17 29
DOCKED: REMARK H PARENT 3 4 8 17
DOCKED: USER                              x       y       z     vdW  Elec       q    Type
DOCKED: USER                           _______ _______ _______ _____ _____    ______ ____
DOCKED: ROOT
DOCKED: ATOM      1  C   UNL     1     139.701  75.519 221.491 -0.25 -0.03    +0.121 C  
DOCKED: ENDROOT
DOCKED: BRANCH   1   2
DOCKED: ATOM      2  C   UNL     1     140.778  75.615 220.445 -0.15 -0.07    +0.222 C  
DOCKED: ATOM      3  N   UNL     1     142.014  74.959 220.744 -0.14 +0.12    -0.350 N  
DOCKED: ATOM      4  H   UNL     1     142.173  74.436 221.636 -0.00 -0.03    +0.164 HD 
DOCKED: ATOM      5  O   UNL     1     140.607  76.238 219.366 -0.04 +0.09    -0.275 OA 
DOCKED: BRANCH   3   6
DOCKED: ATOM      6  C   UNL     1     143.076  75.033 219.752 -0.30 -0.05    +0.109 C  
DOCKED: ATOM      7  C   UNL     1     143.495  76.502 219.667 -0.28 -0.03    +0.036 C  
DOCKED: BRANCH   6   8
DOCKED: ATOM      8  C   UNL     1     144.197  74.131 220.008 -0.41 +0.01    -0.026 A  
DOCKED: ATOM      9  C   UNL     1     144.200  72.872 219.426 -0.28 -0.00    +0.006 A  
DOCKED: ATOM     10  C   UNL     1     145.225  74.519 220.808 -0.44 -0.00    +0.006 A  
DOCKED: ATOM     11  C   UNL     1     145.266  72.035 219.680 -0.37 +0.00    +0.000 A  
DOCKED: ATOM     12  C   UNL     1     146.314  73.685 221.078 -0.72 -0.00    +0.000 A  
DOCKED: ATOM     13  C   UNL     1     146.308  72.422 220.489 -0.33 +0.00    +0.000 A  
DOCKED: ENDBRANCH   6   8
DOCKED: ENDBRANCH   3   6
DOCKED: ENDBRANCH   1   2
DOCKED: BRANCH   1  14
DOCKED: ATOM     14  C   UNL     1     138.834  74.320 221.277 -0.16 -0.03    +0.126 C  
DOCKED: BRANCH  14  15
DOCKED: ATOM     15  N   UNL     1     138.899  73.344 222.342 -0.04 +0.11    -0.350 N  
DOCKED: ATOM     16  C   UNL     1     140.041  72.519 222.547 -0.19 -0.04    +0.269 C  
DOCKED: ATOM     17  H   UNL     1     138.087  73.212 223.013 -0.48 -0.10    +0.163 HD 
DOCKED: ATOM     18  O   UNL     1     141.066  72.596 221.803 -0.26 +0.02    -0.268 OA 
DOCKED: BRANCH  16  19
DOCKED: ATOM     19  C   UNL     1     140.035  71.551 223.650 -0.33 -0.02    +0.128 A  
DOCKED: ATOM     20  C   UNL     1     139.544  70.280 223.457 -0.28 -0.01    +0.035 A  
DOCKED: ATOM     21  N   UNL     1     140.507  71.886 224.865 -0.27 +0.04    -0.243 NA 
DOCKED: ATOM     22  C   UNL     1     139.555  69.414 224.503 -0.34 -0.00    +0.013 A  
DOCKED: ATOM     23  C   UNL     1     140.537  71.058 225.924 -0.54 -0.01    +0.071 A  
DOCKED: ATOM     24  C   UNL     1     140.039  69.764 225.738 -0.47 -0.00    +0.003 A  
DOCKED: ATOM     25  C   UNL     1     141.032  71.453 227.149 -0.73 -0.01    +0.032 A  
DOCKED: ATOM     26  C   UNL     1     140.054  68.885 226.807 -0.55 -0.01    +0.049 A  
DOCKED: ATOM     27  C   UNL     1     141.031  70.540 228.206 -0.57 -0.01    +0.041 A  
DOCKED: ATOM     28  C   UNL     1     140.548  69.260 228.052 -0.53 -0.02    +0.123 A  
DOCKED: ATOM     29  F   UNL     1     140.545  68.361 229.083 -0.17 +0.05    -0.207 F  
DOCKED: ENDBRANCH  16  19
DOCKED: ENDBRANCH  14  15
DOCKED: ENDBRANCH   1  14
DOCKED: TORSDOF 6
DOCKED: TER
DOCKED: ENDMDL
________________________________________________________________________________


    FINAL DOCKED STATE:
    ________________________


Run:   7 / 20
Time taken for this run:   0.047s

DOCKED: MODEL        7
DOCKED: USER    Run = 7
DOCKED: USER
DOCKED: USER    Estimated Free Energy of Binding    =  -8.51 kcal/mol  [=(1)+(2)+(3)-(4)]
DOCKED: USER
DOCKED: USER    (1) Final Intermolecular Energy     = -10.30 kcal/mol
DOCKED: USER        vdW + Hbond + desolv Energy     = -10.20 kcal/mol
DOCKED: USER        Electrostatic Energy            =  -0.10 kcal/mol
DOCKED: USER        Moving Ligand-Fixed Receptor    = -10.30 kcal/mol
DOCKED: USER        Moving Ligand-Moving Receptor   =  +0.00 kcal/mol
DOCKED: USER    (2) Final Total Internal Energy     =  -1.54 kcal/mol
DOCKED: USER    (3) Torsional Free Energy           =  +1.79 kcal/mol
DOCKED: USER    (4) Unbound System's Energy         =  -1.54 kcal/mol
DOCKED: USER
DOCKED: USER
DOCKED: REMARK SMILES C[C@H](NC(=O)CCNC(=O)c1ccc2cc(F)ccc2n1)c1ccccc1
DOCKED: REMARK SMILES IDX 6 1 4 2 3 3 5 5 2 6 1 7 22 8 23 9 27 10 24 11 26 12 25 13
DOCKED: REMARK SMILES IDX 7 14 8 15 9 16 10 18 11 19 12 20 21 21 13 22 20 23 14 24
DOCKED: REMARK SMILES IDX 19 25 15 26 18 27 16 28 17 29
DOCKED: REMARK H PARENT 3 4 8 17
DOCKED: USER                              x       y       z     vdW  Elec       q    Type
DOCKED: USER                           _______ _______ _______ _____ _____    ______ ____
DOCKED: ROOT
DOCKED: ATOM      1  C   UNL     1     137.988  74.862 221.736 -0.17 -0.03    +0.121 C  
DOCKED: ENDROOT
DOCKED: BRANCH   1   2
DOCKED: ATOM      2  C   UNL     1     139.411  75.301 221.945 -0.22 -0.04    +0.222 C  
DOCKED: ATOM      3  N   UNL     1     139.688  76.688 221.727 -0.13 +0.09    -0.350 N  
DOCKED: ATOM      4  H   UNL     1     138.949  77.371 221.439 +0.05 -0.04    +0.164 HD 
DOCKED: ATOM      5  O   UNL     1     140.314  74.496 222.291 -0.77 -0.01    -0.275 OA 
DOCKED: BRANCH   3   6
DOCKED: ATOM      6  C   UNL     1     141.056  77.144 221.922 -0.31 -0.05    +0.109 C  
DOCKED: ATOM      7  C   UNL     1     141.727  77.117 220.547 -0.27 -0.02    +0.036 C  
DOCKED: BRANCH   6   8
DOCKED: ATOM      8  C   UNL     1     141.164  78.440 222.588 -0.46 +0.01    -0.026 A  
DOCKED: ATOM      9  C   UNL     1     140.024  79.026 223.120 -0.41 -0.00    +0.006 A  
DOCKED: ATOM     10  C   UNL     1     142.366  79.067 222.687 -0.52 -0.00    +0.006 A  
DOCKED: ATOM     11  C   UNL     1     140.147  80.249 223.744 -0.43 -0.00    +0.000 A  
DOCKED: ATOM     12  C   UNL     1     142.510  80.307 223.316 -0.66 -0.00    +0.000 A  
DOCKED: ATOM     13  C   UNL     1     141.360  80.887 223.847 -0.53 -0.00    +0.000 A  
DOCKED: ENDBRANCH   6   8
DOCKED: ENDBRANCH   3   6
DOCKED: ENDBRANCH   1   2
DOCKED: BRANCH   1  14
DOCKED: ATOM     14  C   UNL     1     137.897  73.388 221.503 -0.12 -0.03    +0.126 C  
DOCKED: BRANCH  14  15
DOCKED: ATOM     15  N   UNL     1     138.435  72.584 222.579 -0.01 +0.12    -0.350 N  
DOCKED: ATOM     16  C   UNL     1     138.121  71.203 222.724 -0.12 -0.06    +0.269 C  
DOCKED: ATOM     17  H   UNL     1     139.088  73.005 223.302 -0.42 -0.09    +0.163 HD 
DOCKED: ATOM     18  O   UNL     1     137.350  70.602 221.914 -0.04 +0.05    -0.268 OA 
DOCKED: BRANCH  16  19
DOCKED: ATOM     19  C   UNL     1     138.705  70.452 223.841 -0.25 -0.02    +0.128 A  
DOCKED: ATOM     20  C   UNL     1     138.624  69.079 223.873 -0.29 -0.00    +0.035 A  
DOCKED: ATOM     21  N   UNL     1     139.328  71.088 224.850 -0.24 +0.05    -0.243 NA 
DOCKED: ATOM     22  C   UNL     1     139.176  68.420 224.924 -0.41 -0.00    +0.013 A  
DOCKED: ATOM     23  C   UNL     1     139.887  70.473 225.907 -0.45 -0.01    +0.071 A  
DOCKED: ATOM     24  C   UNL     1     139.810  69.077 225.949 -0.49 -0.00    +0.003 A  
DOCKED: ATOM     25  C   UNL     1     140.514  71.174 226.916 -0.64 -0.01    +0.032 A  
DOCKED: ATOM     26  C   UNL     1     140.376  68.410 227.022 -0.61 -0.01    +0.049 A  
DOCKED: ATOM     27  C   UNL     1     141.073  70.470 227.984 -0.60 -0.01    +0.041 A  
DOCKED: ATOM     28  C   UNL     1     141.012  69.096 228.051 -0.51 -0.03    +0.123 A  
DOCKED: ATOM     29  F   UNL     1     141.558  68.399 229.094 -0.17 +0.05    -0.207 F  
DOCKED: ENDBRANCH  16  19
DOCKED: ENDBRANCH  14  15
DOCKED: ENDBRANCH   1  14
DOCKED: TORSDOF 6
DOCKED: TER
DOCKED: ENDMDL
________________________________________________________________________________


    FINAL DOCKED STATE:
    ________________________


Run:   8 / 20
Time taken for this run:   0.047s

DOCKED: MODEL        8
DOCKED: USER    Run = 8
DOCKED: USER
DOCKED: USER    Estimated Free Energy of Binding    =  -8.38 kcal/mol  [=(1)+(2)+(3)-(4)]
DOCKED: USER
DOCKED: USER    (1) Final Intermolecular Energy     = -10.17 kcal/mol
DOCKED: USER        vdW + Hbond + desolv Energy     = -10.23 kcal/mol
DOCKED: USER        Electrostatic Energy            =  +0.06 kcal/mol
DOCKED: USER        Moving Ligand-Fixed Receptor    = -10.17 kcal/mol
DOCKED: USER        Moving Ligand-Moving Receptor   =  +0.00 kcal/mol
DOCKED: USER    (2) Final Total Internal Energy     =  -1.55 kcal/mol
DOCKED: USER    (3) Torsional Free Energy           =  +1.79 kcal/mol
DOCKED: USER    (4) Unbound System's Energy         =  -1.55 kcal/mol
DOCKED: USER
DOCKED: USER
DOCKED: REMARK SMILES C[C@H](NC(=O)CCNC(=O)c1ccc2cc(F)ccc2n1)c1ccccc1
DOCKED: REMARK SMILES IDX 6 1 4 2 3 3 5 5 2 6 1 7 22 8 23 9 27 10 24 11 26 12 25 13
DOCKED: REMARK SMILES IDX 7 14 8 15 9 16 10 18 11 19 12 20 21 21 13 22 20 23 14 24
DOCKED: REMARK SMILES IDX 19 25 15 26 18 27 16 28 17 29
DOCKED: REMARK H PARENT 3 4 8 17
DOCKED: USER                              x       y       z     vdW  Elec       q    Type
DOCKED: USER                           _______ _______ _______ _____ _____    ______ ____
DOCKED: ROOT
DOCKED: ATOM      1  C   UNL     1     142.628  74.296 220.538 -0.24 -0.04    +0.121 C  
DOCKED: ENDROOT
DOCKED: BRANCH   1   2
DOCKED: ATOM      2  C   UNL     1     141.929  75.626 220.467 -0.19 -0.10    +0.222 C  
DOCKED: ATOM      3  N   UNL     1     141.222  76.036 221.642 -0.16 +0.13    -0.350 N  
DOCKED: ATOM      4  H   UNL     1     141.185  75.452 222.510 -0.02 -0.02    +0.164 HD 
DOCKED: ATOM      5  O   UNL     1     141.961  76.343 219.434 -0.14 +0.13    -0.275 OA 
DOCKED: BRANCH   3   6
DOCKED: ATOM      6  C   UNL     1     140.536  77.319 221.606 -0.29 -0.04    +0.109 C  
DOCKED: ATOM      7  C   UNL     1     139.171  77.105 222.263 -0.31 -0.01    +0.036 C  
DOCKED: BRANCH   6   8
DOCKED: ATOM      8  C   UNL     1     141.293  78.417 222.201 -0.42 +0.01    -0.026 A  
DOCKED: ATOM      9  C   UNL     1     141.830  79.395 221.376 -0.40 -0.00    +0.006 A  
DOCKED: ATOM     10  C   UNL     1     141.472  78.483 223.547 -0.56 -0.00    +0.006 A  
DOCKED: ATOM     11  C   UNL     1     142.542  80.424 221.956 -0.49 -0.00    +0.000 A  
DOCKED: ATOM     12  C   UNL     1     142.190  79.517 224.154 -0.50 -0.00    +0.000 A  
DOCKED: ATOM     13  C   UNL     1     142.725  80.494 223.316 -0.67 -0.00    +0.000 A  
DOCKED: ENDBRANCH   6   8
DOCKED: ENDBRANCH   3   6
DOCKED: ENDBRANCH   1   2
DOCKED: BRANCH   1  14
DOCKED: ATOM     14  C   UNL     1     141.699  73.170 220.213 -0.15 -0.02    +0.126 C  
DOCKED: BRANCH  14  15
DOCKED: ATOM     15  N   UNL     1     141.421  72.291 221.328 -0.10 +0.04    -0.350 N  
DOCKED: ATOM     16  C   UNL     1     140.499  72.637 222.356 -0.20 -0.02    +0.269 C  
DOCKED: ATOM     17  H   UNL     1     141.903  71.349 221.415 +0.06 -0.01    +0.163 HD 
DOCKED: ATOM     18  O   UNL     1     139.869  73.738 222.349 -0.83 +0.02    -0.268 OA 
DOCKED: BRANCH  16  19
DOCKED: ATOM     19  C   UNL     1     140.269  71.693 223.456 -0.32 -0.02    +0.128 A  
DOCKED: ATOM     20  C   UNL     1     139.588  70.519 223.234 -0.27 -0.01    +0.035 A  
DOCKED: ATOM     21  N   UNL     1     140.719  71.957 224.697 -0.19 +0.03    -0.243 NA 
DOCKED: ATOM     22  C   UNL     1     139.395  69.672 224.279 -0.33 -0.00    +0.013 A  
DOCKED: ATOM     23  C   UNL     1     140.550  71.146 225.756 -0.54 -0.01    +0.071 A  
DOCKED: ATOM     24  C   UNL     1     139.858  69.950 225.541 -0.46 -0.00    +0.003 A  
DOCKED: ATOM     25  C   UNL     1     141.031  71.466 227.008 -0.72 -0.01    +0.032 A  
DOCKED: ATOM     26  C   UNL     1     139.665  69.090 226.609 -0.50 -0.01    +0.049 A  
DOCKED: ATOM     27  C   UNL     1     140.818  70.576 228.063 -0.61 -0.01    +0.041 A  
DOCKED: ATOM     28  C   UNL     1     140.141  69.392 227.881 -0.52 -0.02    +0.123 A  
DOCKED: ATOM     29  F   UNL     1     139.930  68.515 228.909 -0.15 +0.04    -0.207 F  
DOCKED: ENDBRANCH  16  19
DOCKED: ENDBRANCH  14  15
DOCKED: ENDBRANCH   1  14
DOCKED: TORSDOF 6
DOCKED: TER
DOCKED: ENDMDL
________________________________________________________________________________


    FINAL DOCKED STATE:
    ________________________


Run:   9 / 20
Time taken for this run:   0.047s

DOCKED: MODEL        9
DOCKED: USER    Run = 9
DOCKED: USER
DOCKED: USER    Estimated Free Energy of Binding    =  -7.90 kcal/mol  [=(1)+(2)+(3)-(4)]
DOCKED: USER
DOCKED: USER    (1) Final Intermolecular Energy     =  -9.68 kcal/mol
DOCKED: USER        vdW + Hbond + desolv Energy     =  -9.58 kcal/mol
DOCKED: USER        Electrostatic Energy            =  -0.11 kcal/mol
DOCKED: USER        Moving Ligand-Fixed Receptor    =  -9.68 kcal/mol
DOCKED: USER        Moving Ligand-Moving Receptor   =  +0.00 kcal/mol
DOCKED: USER    (2) Final Total Internal Energy     =  -1.68 kcal/mol
DOCKED: USER    (3) Torsional Free Energy           =  +1.79 kcal/mol
DOCKED: USER    (4) Unbound System's Energy         =  -1.68 kcal/mol
DOCKED: USER
DOCKED: USER
DOCKED: REMARK SMILES C[C@H](NC(=O)CCNC(=O)c1ccc2cc(F)ccc2n1)c1ccccc1
DOCKED: REMARK SMILES IDX 6 1 4 2 3 3 5 5 2 6 1 7 22 8 23 9 27 10 24 11 26 12 25 13
DOCKED: REMARK SMILES IDX 7 14 8 15 9 16 10 18 11 19 12 20 21 21 13 22 20 23 14 24
DOCKED: REMARK SMILES IDX 19 25 15 26 18 27 16 28 17 29
DOCKED: REMARK H PARENT 3 4 8 17
DOCKED: USER                              x       y       z     vdW  Elec       q    Type
DOCKED: USER                           _______ _______ _______ _____ _____    ______ ____
DOCKED: ROOT
DOCKED: ATOM      1  C   UNL     1     138.482  73.737 220.658 -0.09 -0.03    +0.121 C  
DOCKED: ENDROOT
DOCKED: BRANCH   1   2
DOCKED: ATOM      2  C   UNL     1     139.608  74.465 221.339 -0.18 -0.04    +0.222 C  
DOCKED: ATOM      3  N   UNL     1     139.958  75.743 220.798 -0.07 +0.09    -0.350 N  
DOCKED: ATOM      4  H   UNL     1     139.464  76.161 219.975 +0.04 -0.04    +0.164 HD 
DOCKED: ATOM      5  O   UNL     1     140.214  73.981 222.330 -0.83 -0.00    -0.275 OA 
DOCKED: BRANCH   3   6
DOCKED: ATOM      6  C   UNL     1     141.044  76.473 221.435 -0.29 -0.04    +0.109 C  
DOCKED: ATOM      7  C   UNL     1     141.999  76.900 220.319 -0.25 -0.02    +0.036 C  
DOCKED: BRANCH   6   8
DOCKED: ATOM      8  C   UNL     1     140.603  77.588 222.272 -0.40 +0.01    -0.026 A  
DOCKED: ATOM      9  C   UNL     1     139.255  77.909 222.317 -0.30 -0.00    +0.006 A  
DOCKED: ATOM     10  C   UNL     1     141.503  78.303 222.998 -0.52 -0.00    +0.006 A  
DOCKED: ATOM     11  C   UNL     1     138.859  78.964 223.113 -0.33 -0.00    +0.000 A  
DOCKED: ATOM     12  C   UNL     1     141.122  79.375 223.809 -0.57 -0.00    +0.000 A  
DOCKED: ATOM     13  C   UNL     1     139.765  79.690 223.848 -0.45 -0.00    +0.000 A  
DOCKED: ENDBRANCH   6   8
DOCKED: ENDBRANCH   3   6
DOCKED: ENDBRANCH   1   2
DOCKED: BRANCH   1  14
DOCKED: ATOM     14  C   UNL     1     137.509  73.183 221.649 -0.11 -0.03    +0.126 C  
DOCKED: BRANCH  14  15
DOCKED: ATOM     15  N   UNL     1     138.118  72.414 222.711 -0.02 +0.12    -0.350 N  
DOCKED: ATOM     16  C   UNL     1     137.939  71.006 222.827 -0.12 -0.06    +0.269 C  
DOCKED: ATOM     17  H   UNL     1     138.724  72.881 223.447 -0.41 -0.11    +0.163 HD 
DOCKED: ATOM     18  O   UNL     1     137.234  70.350 222.001 -0.04 +0.05    -0.268 OA 
DOCKED: BRANCH  16  19
DOCKED: ATOM     19  C   UNL     1     138.589  70.292 223.932 -0.24 -0.02    +0.128 A  
DOCKED: ATOM     20  C   UNL     1     138.569  68.917 223.979 -0.30 -0.00    +0.035 A  
DOCKED: ATOM     21  N   UNL     1     139.213  70.965 224.916 -0.22 +0.05    -0.243 NA 
DOCKED: ATOM     22  C   UNL     1     139.181  68.294 225.018 -0.42 -0.00    +0.013 A  
DOCKED: ATOM     23  C   UNL     1     139.831  70.386 225.961 -0.44 -0.01    +0.071 A  
DOCKED: ATOM     24  C   UNL     1     139.816  68.988 226.017 -0.51 -0.00    +0.003 A  
DOCKED: ATOM     25  C   UNL     1     140.457  71.123 226.944 -0.63 -0.01    +0.032 A  
DOCKED: ATOM     26  C   UNL     1     140.443  68.357 227.079 -0.62 -0.01    +0.049 A  
DOCKED: ATOM     27  C   UNL     1     141.078  70.455 228.000 -0.59 -0.01    +0.041 A  
DOCKED: ATOM     28  C   UNL     1     141.080  69.081 228.082 -0.50 -0.03    +0.123 A  
DOCKED: ATOM     29  F   UNL     1     141.687  68.419 229.114 -0.16 +0.05    -0.207 F  
DOCKED: ENDBRANCH  16  19
DOCKED: ENDBRANCH  14  15
DOCKED: ENDBRANCH   1  14
DOCKED: TORSDOF 6
DOCKED: TER
DOCKED: ENDMDL
________________________________________________________________________________


    FINAL DOCKED STATE:
    ________________________


Run:   10 / 20
Time taken for this run:   0.047s

DOCKED: MODEL        10
DOCKED: USER    Run = 10
DOCKED: USER
DOCKED: USER    Estimated Free Energy of Binding    =  -8.40 kcal/mol  [=(1)+(2)+(3)-(4)]
DOCKED: USER
DOCKED: USER    (1) Final Intermolecular Energy     = -10.19 kcal/mol
DOCKED: USER        vdW + Hbond + desolv Energy     = -10.09 kcal/mol
DOCKED: USER        Electrostatic Energy            =  -0.10 kcal/mol
DOCKED: USER        Moving Ligand-Fixed Receptor    = -10.19 kcal/mol
DOCKED: USER        Moving Ligand-Moving Receptor   =  +0.00 kcal/mol
DOCKED: USER    (2) Final Total Internal Energy     =  -1.59 kcal/mol
DOCKED: USER    (3) Torsional Free Energy           =  +1.79 kcal/mol
DOCKED: USER    (4) Unbound System's Energy         =  -1.59 kcal/mol
DOCKED: USER
DOCKED: USER
DOCKED: REMARK SMILES C[C@H](NC(=O)CCNC(=O)c1ccc2cc(F)ccc2n1)c1ccccc1
DOCKED: REMARK SMILES IDX 6 1 4 2 3 3 5 5 2 6 1 7 22 8 23 9 27 10 24 11 26 12 25 13
DOCKED: REMARK SMILES IDX 7 14 8 15 9 16 10 18 11 19 12 20 21 21 13 22 20 23 14 24
DOCKED: REMARK SMILES IDX 19 25 15 26 18 27 16 28 17 29
DOCKED: REMARK H PARENT 3 4 8 17
DOCKED: USER                              x       y       z     vdW  Elec       q    Type
DOCKED: USER                           _______ _______ _______ _____ _____    ______ ____
DOCKED: ROOT
DOCKED: ATOM      1  C   UNL     1     138.055  74.824 221.452 -0.15 -0.03    +0.121 C  
DOCKED: ENDROOT
DOCKED: BRANCH   1   2
DOCKED: ATOM      2  C   UNL     1     139.454  75.290 221.750 -0.22 -0.04    +0.222 C  
DOCKED: ATOM      3  N   UNL     1     139.768  76.637 221.383 -0.10 +0.09    -0.350 N  
DOCKED: ATOM      4  H   UNL     1     139.071  77.275 220.933 +0.05 -0.04    +0.164 HD 
DOCKED: ATOM      5  O   UNL     1     140.307  74.539 222.292 -0.77 -0.01    -0.275 OA 
DOCKED: BRANCH   3   6
DOCKED: ATOM      6  C   UNL     1     141.114  77.118 221.659 -0.28 -0.05    +0.109 C  
DOCKED: ATOM      7  C   UNL     1     141.835  77.199 220.313 -0.29 -0.02    +0.036 C  
DOCKED: BRANCH   6   8
DOCKED: ATOM      8  C   UNL     1     141.157  78.370 222.411 -0.44 +0.01    -0.026 A  
DOCKED: ATOM      9  C   UNL     1     142.342  79.090 222.460 -0.49 -0.00    +0.006 A  
DOCKED: ATOM     10  C   UNL     1     140.051  78.828 223.055 -0.40 -0.00    +0.006 A  
DOCKED: ATOM     11  C   UNL     1     142.363  80.269 223.174 -0.64 -0.00    +0.000 A  
DOCKED: ATOM     12  C   UNL     1     140.052  80.020 223.783 -0.44 -0.00    +0.000 A  
DOCKED: ATOM     13  C   UNL     1     141.248  80.736 223.827 -0.51 -0.00    +0.000 A  
DOCKED: ENDBRANCH   6   8
DOCKED: ENDBRANCH   3   6
DOCKED: ENDBRANCH   1   2
DOCKED: BRANCH   1  14
DOCKED: ATOM     14  C   UNL     1     138.000  73.343 221.259 -0.11 -0.03    +0.126 C  
DOCKED: BRANCH  14  15
DOCKED: ATOM     15  N   UNL     1     138.502  72.580 222.381 -0.07 +0.11    -0.350 N  
DOCKED: ATOM     16  C   UNL     1     138.267  71.183 222.515 -0.11 -0.06    +0.269 C  
DOCKED: ATOM     17  H   UNL     1     139.069  73.045 223.149 -0.45 -0.08    +0.163 HD 
DOCKED: ATOM     18  O   UNL     1     137.602  70.529 221.653 -0.04 +0.05    -0.268 OA 
DOCKED: BRANCH  16  19
DOCKED: ATOM     19  C   UNL     1     138.808  70.475 223.681 -0.24 -0.02    +0.128 A  
DOCKED: ATOM     20  C   UNL     1     138.689  69.109 223.782 -0.28 -0.00    +0.035 A  
DOCKED: ATOM     21  N   UNL     1     139.429  71.146 224.668 -0.25 +0.05    -0.243 NA 
DOCKED: ATOM     22  C   UNL     1     139.203  68.491 224.877 -0.40 -0.00    +0.013 A  
DOCKED: ATOM     23  C   UNL     1     139.952  70.573 225.767 -0.46 -0.01    +0.071 A  
DOCKED: ATOM     24  C   UNL     1     139.835  69.184 225.879 -0.48 -0.00    +0.003 A  
DOCKED: ATOM     25  C   UNL     1     140.578  71.309 226.750 -0.65 -0.01    +0.032 A  
DOCKED: ATOM     26  C   UNL     1     140.361  68.559 226.997 -0.60 -0.01    +0.049 A  
DOCKED: ATOM     27  C   UNL     1     141.097  70.647 227.864 -0.61 -0.01    +0.041 A  
DOCKED: ATOM     28  C   UNL     1     140.997  69.281 228.002 -0.50 -0.03    +0.123 A  
DOCKED: ATOM     29  F   UNL     1     141.504  68.626 229.091 -0.15 +0.05    -0.207 F  
DOCKED: ENDBRANCH  16  19
DOCKED: ENDBRANCH  14  15
DOCKED: ENDBRANCH   1  14
DOCKED: TORSDOF 6
DOCKED: TER
DOCKED: ENDMDL
________________________________________________________________________________


    FINAL DOCKED STATE:
    ________________________


Run:   11 / 20
Time taken for this run:   0.047s

DOCKED: MODEL        11
DOCKED: USER    Run = 11
DOCKED: USER
DOCKED: USER    Estimated Free Energy of Binding    =  -7.79 kcal/mol  [=(1)+(2)+(3)-(4)]
DOCKED: USER
DOCKED: USER    (1) Final Intermolecular Energy     =  -9.58 kcal/mol
DOCKED: USER        vdW + Hbond + desolv Energy     =  -9.55 kcal/mol
DOCKED: USER        Electrostatic Energy            =  -0.03 kcal/mol
DOCKED: USER        Moving Ligand-Fixed Receptor    =  -9.58 kcal/mol
DOCKED: USER        Moving Ligand-Moving Receptor   =  +0.00 kcal/mol
DOCKED: USER    (2) Final Total Internal Energy     =  -1.44 kcal/mol
DOCKED: USER    (3) Torsional Free Energy           =  +1.79 kcal/mol
DOCKED: USER    (4) Unbound System's Energy         =  -1.44 kcal/mol
DOCKED: USER
DOCKED: USER
DOCKED: REMARK SMILES C[C@H](NC(=O)CCNC(=O)c1ccc2cc(F)ccc2n1)c1ccccc1
DOCKED: REMARK SMILES IDX 6 1 4 2 3 3 5 5 2 6 1 7 22 8 23 9 27 10 24 11 26 12 25 13
DOCKED: REMARK SMILES IDX 7 14 8 15 9 16 10 18 11 19 12 20 21 21 13 22 20 23 14 24
DOCKED: REMARK SMILES IDX 19 25 15 26 18 27 16 28 17 29
DOCKED: REMARK H PARENT 3 4 8 17
DOCKED: USER                              x       y       z     vdW  Elec       q    Type
DOCKED: USER                           _______ _______ _______ _____ _____    ______ ____
DOCKED: ROOT
DOCKED: ATOM      1  C   UNL     1     139.799  75.594 221.476 -0.26 -0.03    +0.121 C  
DOCKED: ENDROOT
DOCKED: BRANCH   1   2
DOCKED: ATOM      2  C   UNL     1     140.915  75.758 220.482 -0.16 -0.07    +0.222 C  
DOCKED: ATOM      3  N   UNL     1     142.032  74.874 220.627 -0.13 +0.12    -0.350 N  
DOCKED: ATOM      4  H   UNL     1     142.081  74.148 221.380 +0.04 -0.03    +0.164 HD 
DOCKED: ATOM      5  O   UNL     1     140.876  76.624 219.570 -0.07 +0.10    -0.275 OA 
DOCKED: BRANCH   3   6
DOCKED: ATOM      6  C   UNL     1     143.128  75.008 219.680 -0.30 -0.05    +0.109 C  
DOCKED: ATOM      7  C   UNL     1     143.566  76.473 219.720 -0.28 -0.03    +0.036 C  
DOCKED: BRANCH   6   8
DOCKED: ATOM      8  C   UNL     1     144.229  74.074 219.906 -0.40 +0.01    -0.026 A  
DOCKED: ATOM      9  C   UNL     1     145.207  74.392 220.838 -0.48 -0.00    +0.006 A  
DOCKED: ATOM     10  C   UNL     1     144.297  72.906 219.213 -0.26 -0.00    +0.006 A  
DOCKED: ATOM     11  C   UNL     1     146.238  73.497 221.036 -0.72 -0.00    +0.000 A  
DOCKED: ATOM     12  C   UNL     1     145.333  71.988 219.400 -0.34 +0.00    +0.000 A  
DOCKED: ATOM     13  C   UNL     1     146.311  72.316 220.338 -0.30 +0.00    +0.000 A  
DOCKED: ENDBRANCH   6   8
DOCKED: ENDBRANCH   3   6
DOCKED: ENDBRANCH   1   2
DOCKED: BRANCH   1  14
DOCKED: ATOM     14  C   UNL     1     139.026  74.337 221.231 -0.17 -0.03    +0.126 C  
DOCKED: BRANCH  14  15
DOCKED: ATOM     15  N   UNL     1     139.070  73.392 222.325 -0.07 +0.10    -0.350 N  
DOCKED: ATOM     16  C   UNL     1     140.085  72.400 222.430 -0.21 -0.04    +0.269 C  
DOCKED: ATOM     17  H   UNL     1     138.336  73.410 223.092 -0.51 -0.11    +0.163 HD 
DOCKED: ATOM     18  O   UNL     1     141.009  72.292 221.567 -0.19 +0.03    -0.268 OA 
DOCKED: BRANCH  16  19
DOCKED: ATOM     19  C   UNL     1     140.064  71.474 223.569 -0.33 -0.02    +0.128 A  
DOCKED: ATOM     20  C   UNL     1     139.570  70.199 223.420 -0.27 -0.01    +0.035 A  
DOCKED: ATOM     21  N   UNL     1     140.526  71.854 224.775 -0.27 +0.04    -0.243 NA 
DOCKED: ATOM     22  C   UNL     1     139.567  69.373 224.498 -0.34 -0.00    +0.013 A  
DOCKED: ATOM     23  C   UNL     1     140.541  71.067 225.865 -0.54 -0.01    +0.071 A  
DOCKED: ATOM     24  C   UNL     1     140.041  69.769 225.724 -0.47 -0.00    +0.003 A  
DOCKED: ATOM     25  C   UNL     1     141.026  71.506 227.079 -0.73 -0.01    +0.032 A  
DOCKED: ATOM     26  C   UNL     1     140.042  68.931 226.826 -0.55 -0.01    +0.049 A  
DOCKED: ATOM     27  C   UNL     1     141.011  70.635 228.170 -0.59 -0.01    +0.041 A  
DOCKED: ATOM     28  C   UNL     1     140.525  69.352 228.060 -0.52 -0.02    +0.123 A  
DOCKED: ATOM     29  F   UNL     1     140.508  68.493 229.125 -0.14 +0.04    -0.207 F  
DOCKED: ENDBRANCH  16  19
DOCKED: ENDBRANCH  14  15
DOCKED: ENDBRANCH   1  14
DOCKED: TORSDOF 6
DOCKED: TER
DOCKED: ENDMDL
________________________________________________________________________________


    FINAL DOCKED STATE:
    ________________________


Run:   12 / 20
Time taken for this run:   0.047s

DOCKED: MODEL        12
DOCKED: USER    Run = 12
DOCKED: USER
DOCKED: USER    Estimated Free Energy of Binding    =  -7.92 kcal/mol  [=(1)+(2)+(3)-(4)]
DOCKED: USER
DOCKED: USER    (1) Final Intermolecular Energy     =  -9.71 kcal/mol
DOCKED: USER        vdW + Hbond + desolv Energy     =  -9.61 kcal/mol
DOCKED: USER        Electrostatic Energy            =  -0.10 kcal/mol
DOCKED: USER        Moving Ligand-Fixed Receptor    =  -9.71 kcal/mol
DOCKED: USER        Moving Ligand-Moving Receptor   =  +0.00 kcal/mol
DOCKED: USER    (2) Final Total Internal Energy     =  -1.65 kcal/mol
DOCKED: USER    (3) Torsional Free Energy           =  +1.79 kcal/mol
DOCKED: USER    (4) Unbound System's Energy         =  -1.65 kcal/mol
DOCKED: USER
DOCKED: USER
DOCKED: REMARK SMILES C[C@H](NC(=O)CCNC(=O)c1ccc2cc(F)ccc2n1)c1ccccc1
DOCKED: REMARK SMILES IDX 6 1 4 2 3 3 5 5 2 6 1 7 22 8 23 9 27 10 24 11 26 12 25 13
DOCKED: REMARK SMILES IDX 7 14 8 15 9 16 10 18 11 19 12 20 21 21 13 22 20 23 14 24
DOCKED: REMARK SMILES IDX 19 25 15 26 18 27 16 28 17 29
DOCKED: REMARK H PARENT 3 4 8 17
DOCKED: USER                              x       y       z     vdW  Elec       q    Type
DOCKED: USER                           _______ _______ _______ _____ _____    ______ ____
DOCKED: ROOT
DOCKED: ATOM      1  C   UNL     1     138.560  73.599 220.687 -0.09 -0.03    +0.121 C  
DOCKED: ENDROOT
DOCKED: BRANCH   1   2
DOCKED: ATOM      2  C   UNL     1     139.673  74.336 221.379 -0.19 -0.04    +0.222 C  
DOCKED: ATOM      3  N   UNL     1     139.959  75.654 220.899 -0.08 +0.09    -0.350 N  
DOCKED: ATOM      4  H   UNL     1     139.429  76.093 220.110 +0.04 -0.04    +0.164 HD 
DOCKED: ATOM      5  O   UNL     1     140.322  73.827 222.329 -0.83 -0.01    -0.275 OA 
DOCKED: BRANCH   3   6
DOCKED: ATOM      6  C   UNL     1     141.030  76.394 221.549 -0.30 -0.04    +0.109 C  
DOCKED: ATOM      7  C   UNL     1     142.018  76.790 220.451 -0.21 -0.02    +0.036 C  
DOCKED: BRANCH   6   8
DOCKED: ATOM      8  C   UNL     1     140.573  77.529 222.347 -0.41 +0.01    -0.026 A  
DOCKED: ATOM      9  C   UNL     1     139.220  77.835 222.376 -0.31 -0.00    +0.006 A  
DOCKED: ATOM     10  C   UNL     1     141.461  78.279 223.053 -0.54 -0.00    +0.006 A  
DOCKED: ATOM     11  C   UNL     1     138.808  78.911 223.135 -0.32 -0.00    +0.000 A  
DOCKED: ATOM     12  C   UNL     1     141.063  79.372 223.827 -0.57 -0.00    +0.000 A  
DOCKED: ATOM     13  C   UNL     1     139.702  79.672 223.850 -0.45 -0.00    +0.000 A  
DOCKED: ENDBRANCH   6   8
DOCKED: ENDBRANCH   3   6
DOCKED: ENDBRANCH   1   2
DOCKED: BRANCH   1  14
DOCKED: ATOM     14  C   UNL     1     137.580  73.039 221.667 -0.11 -0.03    +0.126 C  
DOCKED: BRANCH  14  15
DOCKED: ATOM     15  N   UNL     1     138.182  72.262 222.729 -0.06 +0.12    -0.350 N  
DOCKED: ATOM     16  C   UNL     1     137.957  70.864 222.866 -0.12 -0.06    +0.269 C  
DOCKED: ATOM     17  H   UNL     1     138.818  72.718 223.446 -0.38 -0.10    +0.163 HD 
DOCKED: ATOM     18  O   UNL     1     137.215  70.221 222.062 -0.04 +0.05    -0.268 OA 
DOCKED: BRANCH  16  19
DOCKED: ATOM     19  C   UNL     1     138.603  70.142 223.969 -0.25 -0.02    +0.128 A  
DOCKED: ATOM     20  C   UNL     1     138.579  68.767 224.008 -0.30 -0.00    +0.035 A  
DOCKED: ATOM     21  N   UNL     1     139.227  70.807 224.958 -0.23 +0.05    -0.243 NA 
DOCKED: ATOM     22  C   UNL     1     139.187  68.136 225.046 -0.43 -0.00    +0.013 A  
DOCKED: ATOM     23  C   UNL     1     139.841  70.221 226.001 -0.44 -0.01    +0.071 A  
DOCKED: ATOM     24  C   UNL     1     139.822  68.823 226.050 -0.52 -0.00    +0.003 A  
DOCKED: ATOM     25  C   UNL     1     140.466  70.951 226.989 -0.62 -0.01    +0.032 A  
DOCKED: ATOM     26  C   UNL     1     140.444  68.185 227.109 -0.63 -0.01    +0.049 A  
DOCKED: ATOM     27  C   UNL     1     141.084  70.276 228.043 -0.57 -0.01    +0.041 A  
DOCKED: ATOM     28  C   UNL     1     141.081  68.901 228.118 -0.51 -0.03    +0.123 A  
DOCKED: ATOM     29  F   UNL     1     141.684  68.232 229.148 -0.16 +0.05    -0.207 F  
DOCKED: ENDBRANCH  16  19
DOCKED: ENDBRANCH  14  15
DOCKED: ENDBRANCH   1  14
DOCKED: TORSDOF 6
DOCKED: TER
DOCKED: ENDMDL
________________________________________________________________________________


    FINAL DOCKED STATE:
    ________________________


Run:   13 / 20
Time taken for this run:   0.047s

DOCKED: MODEL        13
DOCKED: USER    Run = 13
DOCKED: USER
DOCKED: USER    Estimated Free Energy of Binding    =  -8.23 kcal/mol  [=(1)+(2)+(3)-(4)]
DOCKED: USER
DOCKED: USER    (1) Final Intermolecular Energy     = -10.02 kcal/mol
DOCKED: USER        vdW + Hbond + desolv Energy     =  -9.92 kcal/mol
DOCKED: USER        Electrostatic Energy            =  -0.10 kcal/mol
DOCKED: USER        Moving Ligand-Fixed Receptor    = -10.02 kcal/mol
DOCKED: USER        Moving Ligand-Moving Receptor   =  +0.00 kcal/mol
DOCKED: USER    (2) Final Total Internal Energy     =  -1.60 kcal/mol
DOCKED: USER    (3) Torsional Free Energy           =  +1.79 kcal/mol
DOCKED: USER    (4) Unbound System's Energy         =  -1.60 kcal/mol
DOCKED: USER
DOCKED: USER
DOCKED: REMARK SMILES C[C@H](NC(=O)CCNC(=O)c1ccc2cc(F)ccc2n1)c1ccccc1
DOCKED: REMARK SMILES IDX 6 1 4 2 3 3 5 5 2 6 1 7 22 8 23 9 27 10 24 11 26 12 25 13
DOCKED: REMARK SMILES IDX 7 14 8 15 9 16 10 18 11 19 12 20 21 21 13 22 20 23 14 24
DOCKED: REMARK SMILES IDX 19 25 15 26 18 27 16 28 17 29
DOCKED: REMARK H PARENT 3 4 8 17
DOCKED: USER                              x       y       z     vdW  Elec       q    Type
DOCKED: USER                           _______ _______ _______ _____ _____    ______ ____
DOCKED: ROOT
DOCKED: ATOM      1  C   UNL     1     138.180  75.011 221.260 -0.14 -0.03    +0.121 C  
DOCKED: ENDROOT
DOCKED: BRANCH   1   2
DOCKED: ATOM      2  C   UNL     1     139.605  75.397 221.552 -0.22 -0.05    +0.222 C  
DOCKED: ATOM      3  N   UNL     1     140.066  76.619 220.966 -0.07 +0.10    -0.350 N  
DOCKED: ATOM      4  H   UNL     1     139.455  77.222 220.366 +0.05 -0.04    +0.164 HD 
DOCKED: ATOM      5  O   UNL     1     140.355  74.688 222.271 -0.72 -0.01    -0.275 OA 
DOCKED: BRANCH   3   6
DOCKED: ATOM      6  C   UNL     1     141.439  77.021 221.230 -0.21 -0.06    +0.109 C  
DOCKED: ATOM      7  C   UNL     1     142.142  77.098 219.874 -0.31 -0.02    +0.036 C  
DOCKED: BRANCH   6   8
DOCKED: ATOM      8  C   UNL     1     141.562  78.249 222.012 -0.37 +0.01    -0.026 A  
DOCKED: ATOM      9  C   UNL     1     141.793  79.449 221.355 -0.40 -0.00    +0.006 A  
DOCKED: ATOM     10  C   UNL     1     141.451  78.219 223.367 -0.53 -0.00    +0.006 A  
DOCKED: ATOM     11  C   UNL     1     141.906  80.598 222.111 -0.50 -0.00    +0.000 A  
DOCKED: ATOM     12  C   UNL     1     141.563  79.371 224.149 -0.54 -0.00    +0.000 A  
DOCKED: ATOM     13  C   UNL     1     141.795  80.572 223.480 -0.60 -0.00    +0.000 A  
DOCKED: ENDBRANCH   6   8
DOCKED: ENDBRANCH   3   6
DOCKED: ENDBRANCH   1   2
DOCKED: BRANCH   1  14
DOCKED: ATOM     14  C   UNL     1     138.028  73.530 221.134 -0.10 -0.03    +0.126 C  
DOCKED: BRANCH  14  15
DOCKED: ATOM     15  N   UNL     1     138.494  72.786 222.285 -0.07 +0.11    -0.350 N  
DOCKED: ATOM     16  C   UNL     1     138.405  71.368 222.358 -0.11 -0.06    +0.269 C  
DOCKED: ATOM     17  H   UNL     1     138.922  73.283 223.120 -0.48 -0.09    +0.163 HD 
DOCKED: ATOM     18  O   UNL     1     137.911  70.677 221.415 -0.03 +0.05    -0.268 OA 
DOCKED: BRANCH  16  19
DOCKED: ATOM     19  C   UNL     1     138.898  70.682 223.559 -0.24 -0.03    +0.128 A  
DOCKED: ATOM     20  C   UNL     1     138.733  69.324 223.700 -0.27 -0.01    +0.035 A  
DOCKED: ATOM     21  N   UNL     1     139.519  71.366 224.537 -0.24 +0.06    -0.243 NA 
DOCKED: ATOM     22  C   UNL     1     139.203  68.727 224.826 -0.39 -0.00    +0.013 A  
DOCKED: ATOM     23  C   UNL     1     139.998  70.812 225.665 -0.47 -0.01    +0.071 A  
DOCKED: ATOM     24  C   UNL     1     139.835  69.432 225.819 -0.47 -0.00    +0.003 A  
DOCKED: ATOM     25  C   UNL     1     140.627  71.560 226.639 -0.65 -0.01    +0.032 A  
DOCKED: ATOM     26  C   UNL     1     140.317  68.828 226.968 -0.58 -0.01    +0.049 A  
DOCKED: ATOM     27  C   UNL     1     141.100  70.919 227.785 -0.65 -0.01    +0.041 A  
DOCKED: ATOM     28  C   UNL     1     140.954  69.562 227.964 -0.50 -0.02    +0.123 A  
DOCKED: ATOM     29  F   UNL     1     141.416  68.927 229.084 -0.11 +0.05    -0.207 F  
DOCKED: ENDBRANCH  16  19
DOCKED: ENDBRANCH  14  15
DOCKED: ENDBRANCH   1  14
DOCKED: TORSDOF 6
DOCKED: TER
DOCKED: ENDMDL
________________________________________________________________________________


    FINAL DOCKED STATE:
    ________________________


Run:   14 / 20
Time taken for this run:   0.047s

DOCKED: MODEL        14
DOCKED: USER    Run = 14
DOCKED: USER
DOCKED: USER    Estimated Free Energy of Binding    =  -7.91 kcal/mol  [=(1)+(2)+(3)-(4)]
DOCKED: USER
DOCKED: USER    (1) Final Intermolecular Energy     =  -9.70 kcal/mol
DOCKED: USER        vdW + Hbond + desolv Energy     =  -9.59 kcal/mol
DOCKED: USER        Electrostatic Energy            =  -0.11 kcal/mol
DOCKED: USER        Moving Ligand-Fixed Receptor    =  -9.70 kcal/mol
DOCKED: USER        Moving Ligand-Moving Receptor   =  +0.00 kcal/mol
DOCKED: USER    (2) Final Total Internal Energy     =  -1.67 kcal/mol
DOCKED: USER    (3) Torsional Free Energy           =  +1.79 kcal/mol
DOCKED: USER    (4) Unbound System's Energy         =  -1.67 kcal/mol
DOCKED: USER
DOCKED: USER
DOCKED: REMARK SMILES C[C@H](NC(=O)CCNC(=O)c1ccc2cc(F)ccc2n1)c1ccccc1
DOCKED: REMARK SMILES IDX 6 1 4 2 3 3 5 5 2 6 1 7 22 8 23 9 27 10 24 11 26 12 25 13
DOCKED: REMARK SMILES IDX 7 14 8 15 9 16 10 18 11 19 12 20 21 21 13 22 20 23 14 24
DOCKED: REMARK SMILES IDX 19 25 15 26 18 27 16 28 17 29
DOCKED: REMARK H PARENT 3 4 8 17
DOCKED: USER                              x       y       z     vdW  Elec       q    Type
DOCKED: USER                           _______ _______ _______ _____ _____    ______ ____
DOCKED: ROOT
DOCKED: ATOM      1  C   UNL     1     138.570  73.651 220.649 -0.09 -0.03    +0.121 C  
DOCKED: ENDROOT
DOCKED: BRANCH   1   2
DOCKED: ATOM      2  C   UNL     1     139.668  74.406 221.347 -0.19 -0.04    +0.222 C  
DOCKED: ATOM      3  N   UNL     1     139.988  75.698 220.819 -0.07 +0.09    -0.350 N  
DOCKED: ATOM      4  H   UNL     1     139.491  76.107 219.994 +0.04 -0.04    +0.164 HD 
DOCKED: ATOM      5  O   UNL     1     140.277  73.932 222.341 -0.83 -0.01    -0.275 OA 
DOCKED: BRANCH   3   6
DOCKED: ATOM      6  C   UNL     1     141.045  76.453 221.473 -0.29 -0.04    +0.109 C  
DOCKED: ATOM      7  C   UNL     1     142.018  76.885 220.375 -0.23 -0.02    +0.036 C  
DOCKED: BRANCH   6   8
DOCKED: ATOM      8  C   UNL     1     140.567  77.568 222.287 -0.40 +0.01    -0.026 A  
DOCKED: ATOM      9  C   UNL     1     139.209  77.853 222.315 -0.30 -0.00    +0.006 A  
DOCKED: ATOM     10  C   UNL     1     141.440  78.318 223.012 -0.54 -0.00    +0.006 A  
DOCKED: ATOM     11  C   UNL     1     138.777  78.910 223.089 -0.33 -0.00    +0.000 A  
DOCKED: ATOM     12  C   UNL     1     141.021  79.392 223.802 -0.56 -0.00    +0.000 A  
DOCKED: ATOM     13  C   UNL     1     139.656  79.671 223.822 -0.45 -0.00    +0.000 A  
DOCKED: ENDBRANCH   6   8
DOCKED: ENDBRANCH   3   6
DOCKED: ENDBRANCH   1   2
DOCKED: BRANCH   1  14
DOCKED: ATOM     14  C   UNL     1     137.582  73.095 221.623 -0.11 -0.03    +0.126 C  
DOCKED: BRANCH  14  15
DOCKED: ATOM     15  N   UNL     1     138.176  72.328 222.697 -0.05 +0.12    -0.350 N  
DOCKED: ATOM     16  C   UNL     1     137.984  70.924 222.823 -0.12 -0.06    +0.269 C  
DOCKED: ATOM     17  H   UNL     1     138.782  72.796 223.433 -0.39 -0.10    +0.163 HD 
DOCKED: ATOM     18  O   UNL     1     137.279  70.266 221.997 -0.04 +0.05    -0.268 OA 
DOCKED: BRANCH  16  19
DOCKED: ATOM     19  C   UNL     1     138.619  70.213 223.939 -0.25 -0.02    +0.128 A  
DOCKED: ATOM     20  C   UNL     1     138.589  68.839 223.995 -0.30 -0.00    +0.035 A  
DOCKED: ATOM     21  N   UNL     1     139.239  70.888 224.923 -0.23 +0.05    -0.243 NA 
DOCKED: ATOM     22  C   UNL     1     139.187  68.218 225.044 -0.43 -0.00    +0.013 A  
DOCKED: ATOM     23  C   UNL     1     139.844  70.312 225.978 -0.44 -0.01    +0.071 A  
DOCKED: ATOM     24  C   UNL     1     139.818  68.915 226.044 -0.51 -0.00    +0.003 A  
DOCKED: ATOM     25  C   UNL     1     140.466  71.052 226.961 -0.63 -0.01    +0.032 A  
DOCKED: ATOM     26  C   UNL     1     140.431  68.288 227.115 -0.63 -0.01    +0.049 A  
DOCKED: ATOM     27  C   UNL     1     141.073  70.387 228.027 -0.58 -0.01    +0.041 A  
DOCKED: ATOM     28  C   UNL     1     141.064  69.014 228.119 -0.51 -0.03    +0.123 A  
DOCKED: ATOM     29  F   UNL     1     141.658  68.355 229.161 -0.15 +0.05    -0.207 F  
DOCKED: ENDBRANCH  16  19
DOCKED: ENDBRANCH  14  15
DOCKED: ENDBRANCH   1  14
DOCKED: TORSDOF 6
DOCKED: TER
DOCKED: ENDMDL
________________________________________________________________________________


    FINAL DOCKED STATE:
    ________________________


Run:   15 / 20
Time taken for this run:   0.047s

DOCKED: MODEL        15
DOCKED: USER    Run = 15
DOCKED: USER
DOCKED: USER    Estimated Free Energy of Binding    =  -7.93 kcal/mol  [=(1)+(2)+(3)-(4)]
DOCKED: USER
DOCKED: USER    (1) Final Intermolecular Energy     =  -9.72 kcal/mol
DOCKED: USER        vdW + Hbond + desolv Energy     =  -9.71 kcal/mol
DOCKED: USER        Electrostatic Energy            =  -0.01 kcal/mol
DOCKED: USER        Moving Ligand-Fixed Receptor    =  -9.72 kcal/mol
DOCKED: USER        Moving Ligand-Moving Receptor   =  +0.00 kcal/mol
DOCKED: USER    (2) Final Total Internal Energy     =  -1.69 kcal/mol
DOCKED: USER    (3) Torsional Free Energy           =  +1.79 kcal/mol
DOCKED: USER    (4) Unbound System's Energy         =  -1.69 kcal/mol
DOCKED: USER
DOCKED: USER
DOCKED: REMARK SMILES C[C@H](NC(=O)CCNC(=O)c1ccc2cc(F)ccc2n1)c1ccccc1
DOCKED: REMARK SMILES IDX 6 1 4 2 3 3 5 5 2 6 1 7 22 8 23 9 27 10 24 11 26 12 25 13
DOCKED: REMARK SMILES IDX 7 14 8 15 9 16 10 18 11 19 12 20 21 21 13 22 20 23 14 24
DOCKED: REMARK SMILES IDX 19 25 15 26 18 27 16 28 17 29
DOCKED: REMARK H PARENT 3 4 8 17
DOCKED: USER                              x       y       z     vdW  Elec       q    Type
DOCKED: USER                           _______ _______ _______ _____ _____    ______ ____
DOCKED: ROOT
DOCKED: ATOM      1  C   UNL     1     136.619  69.341 223.758 -0.17 -0.01    +0.121 C  
DOCKED: ENDROOT
DOCKED: BRANCH   1   2
DOCKED: ATOM      2  C   UNL     1     137.802  70.210 224.086 -0.19 -0.03    +0.222 C  
DOCKED: ATOM      3  N   UNL     1     139.092  69.604 223.956 -0.11 +0.06    -0.350 N  
DOCKED: ATOM      4  H   UNL     1     139.220  68.612 223.649 +0.01 -0.03    +0.164 HD 
DOCKED: ATOM      5  O   UNL     1     137.670  71.406 224.456 -0.06 +0.07    -0.275 OA 
DOCKED: BRANCH   3   6
DOCKED: ATOM      6  C   UNL     1     140.257  70.420 224.265 -0.28 -0.02    +0.109 C  
DOCKED: ATOM      7  C   UNL     1     140.186  71.648 223.357 -0.36 -0.01    +0.036 C  
DOCKED: BRANCH   6   8
DOCKED: ATOM      8  C   UNL     1     140.389  70.759 225.681 -0.54 +0.00    -0.026 A  
DOCKED: ATOM      9  C   UNL     1     139.819  69.927 226.633 -0.51 -0.00    +0.006 A  
DOCKED: ATOM     10  C   UNL     1     141.064  71.876 226.062 -0.62 -0.00    +0.006 A  
DOCKED: ATOM     11  C   UNL     1     139.954  70.264 227.963 -0.64 -0.00    +0.000 A  
DOCKED: ATOM     12  C   UNL     1     141.212  72.234 227.405 -0.83 -0.00    +0.000 A  
DOCKED: ATOM     13  C   UNL     1     140.635  71.392 228.354 -0.72 -0.00    +0.000 A  
DOCKED: ENDBRANCH   6   8
DOCKED: ENDBRANCH   3   6
DOCKED: ENDBRANCH   1   2
DOCKED: BRANCH   1  14
DOCKED: ATOM     14  C   UNL     1     135.689  69.218 224.923 -0.17 -0.00    +0.126 C  
DOCKED: BRANCH  14  15
DOCKED: ATOM     15  N   UNL     1     135.103  70.470 225.347 -0.07 +0.02    -0.350 N  
DOCKED: ATOM     16  C   UNL     1     133.897  70.526 226.101 -0.20 -0.02    +0.269 C  
DOCKED: ATOM     17  H   UNL     1     135.560  71.398 225.107 +0.06 -0.01    +0.163 HD 
DOCKED: ATOM     18  O   UNL     1     133.269  69.477 226.441 -0.65 -0.02    -0.268 OA 
DOCKED: BRANCH  16  19
DOCKED: ATOM     19  C   UNL     1     133.361  71.834 226.496 -0.32 -0.01    +0.128 A  
DOCKED: ATOM     20  C   UNL     1     132.202  71.917 227.231 -0.38 -0.01    +0.035 A  
DOCKED: ATOM     21  N   UNL     1     133.992  72.971 226.150 -0.43 -0.01    -0.243 NA 
DOCKED: ATOM     22  C   UNL     1     131.738  73.146 227.577 -0.42 -0.00    +0.013 A  
DOCKED: ATOM     23  C   UNL     1     133.568  74.206 226.473 -0.26 +0.01    +0.071 A  
DOCKED: ATOM     24  C   UNL     1     132.389  74.301 227.220 -0.42 -0.00    +0.003 A  
DOCKED: ATOM     25  C   UNL     1     134.253  75.340 226.092 -0.41 +0.00    +0.032 A  
DOCKED: ATOM     26  C   UNL     1     131.922  75.556 227.571 -0.36 -0.00    +0.049 A  
DOCKED: ATOM     27  C   UNL     1     133.754  76.590 226.462 -0.31 -0.00    +0.041 A  
DOCKED: ATOM     28  C   UNL     1     132.596  76.714 227.197 -0.29 -0.00    +0.123 A  
DOCKED: ATOM     29  F   UNL     1     132.101  77.936 227.564 -0.05 +0.00    -0.207 F  
DOCKED: ENDBRANCH  16  19
DOCKED: ENDBRANCH  14  15
DOCKED: ENDBRANCH   1  14
DOCKED: TORSDOF 6
DOCKED: TER
DOCKED: ENDMDL
________________________________________________________________________________


    FINAL DOCKED STATE:
    ________________________


Run:   16 / 20
Time taken for this run:   0.047s

DOCKED: MODEL        16
DOCKED: USER    Run = 16
DOCKED: USER
DOCKED: USER    Estimated Free Energy of Binding    =  -8.27 kcal/mol  [=(1)+(2)+(3)-(4)]
DOCKED: USER
DOCKED: USER    (1) Final Intermolecular Energy     = -10.06 kcal/mol
DOCKED: USER        vdW + Hbond + desolv Energy     =  -9.96 kcal/mol
DOCKED: USER        Electrostatic Energy            =  -0.09 kcal/mol
DOCKED: USER        Moving Ligand-Fixed Receptor    = -10.06 kcal/mol
DOCKED: USER        Moving Ligand-Moving Receptor   =  +0.00 kcal/mol
DOCKED: USER    (2) Final Total Internal Energy     =  -1.61 kcal/mol
DOCKED: USER    (3) Torsional Free Energy           =  +1.79 kcal/mol
DOCKED: USER    (4) Unbound System's Energy         =  -1.61 kcal/mol
DOCKED: USER
DOCKED: USER
DOCKED: REMARK SMILES C[C@H](NC(=O)CCNC(=O)c1ccc2cc(F)ccc2n1)c1ccccc1
DOCKED: REMARK SMILES IDX 6 1 4 2 3 3 5 5 2 6 1 7 22 8 23 9 27 10 24 11 26 12 25 13
DOCKED: REMARK SMILES IDX 7 14 8 15 9 16 10 18 11 19 12 20 21 21 13 22 20 23 14 24
DOCKED: REMARK SMILES IDX 19 25 15 26 18 27 16 28 17 29
DOCKED: REMARK H PARENT 3 4 8 17
DOCKED: USER                              x       y       z     vdW  Elec       q    Type
DOCKED: USER                           _______ _______ _______ _____ _____    ______ ____
DOCKED: ROOT
DOCKED: ATOM      1  C   UNL     1     138.195  75.061 221.376 -0.15 -0.03    +0.121 C  
DOCKED: ENDROOT
DOCKED: BRANCH   1   2
DOCKED: ATOM      2  C   UNL     1     139.624  75.473 221.598 -0.22 -0.05    +0.222 C  
DOCKED: ATOM      3  N   UNL     1     140.045  76.680 220.955 -0.07 +0.10    -0.350 N  
DOCKED: ATOM      4  H   UNL     1     139.403  77.256 220.362 +0.05 -0.04    +0.164 HD 
DOCKED: ATOM      5  O   UNL     1     140.412  74.796 222.308 -0.68 -0.01    -0.275 OA 
DOCKED: BRANCH   3   6
DOCKED: ATOM      6  C   UNL     1     141.423  77.106 221.151 -0.23 -0.06    +0.109 C  
DOCKED: ATOM      7  C   UNL     1     142.041  77.244 219.759 -0.30 -0.02    +0.036 C  
DOCKED: BRANCH   6   8
DOCKED: ATOM      8  C   UNL     1     141.565  78.312 221.964 -0.38 +0.01    -0.026 A  
DOCKED: ATOM      9  C   UNL     1     141.825  79.523 221.340 -0.40 -0.00    +0.006 A  
DOCKED: ATOM     10  C   UNL     1     141.445  78.250 223.317 -0.54 -0.00    +0.006 A  
DOCKED: ATOM     11  C   UNL     1     141.956  80.650 222.125 -0.50 -0.00    +0.000 A  
DOCKED: ATOM     12  C   UNL     1     141.575  79.380 224.129 -0.54 -0.00    +0.000 A  
DOCKED: ATOM     13  C   UNL     1     141.835  80.592 223.493 -0.61 -0.00    +0.000 A  
DOCKED: ENDBRANCH   6   8
DOCKED: ENDBRANCH   3   6
DOCKED: ENDBRANCH   1   2
DOCKED: BRANCH   1  14
DOCKED: ATOM     14  C   UNL     1     138.070  73.581 221.207 -0.11 -0.03    +0.126 C  
DOCKED: BRANCH  14  15
DOCKED: ATOM     15  N   UNL     1     138.549  72.813 222.336 -0.07 +0.11    -0.350 N  
DOCKED: ATOM     16  C   UNL     1     138.335  71.410 222.445 -0.11 -0.06    +0.269 C  
DOCKED: ATOM     17  H   UNL     1     139.080  73.279 223.129 -0.48 -0.08    +0.163 HD 
DOCKED: ATOM     18  O   UNL     1     137.713  70.755 221.554 -0.04 +0.05    -0.268 OA 
DOCKED: BRANCH  16  19
DOCKED: ATOM     19  C   UNL     1     138.850  70.698 223.621 -0.24 -0.03    +0.128 A  
DOCKED: ATOM     20  C   UNL     1     138.707  69.334 223.725 -0.27 -0.01    +0.035 A  
DOCKED: ATOM     21  N   UNL     1     139.470  71.362 224.613 -0.23 +0.06    -0.243 NA 
DOCKED: ATOM     22  C   UNL     1     139.196  68.712 224.829 -0.39 -0.00    +0.013 A  
DOCKED: ATOM     23  C   UNL     1     139.968  70.784 225.720 -0.47 -0.01    +0.071 A  
DOCKED: ATOM     24  C   UNL     1     139.827  69.398 225.836 -0.47 -0.00    +0.003 A  
DOCKED: ATOM     25  C   UNL     1     140.594  71.513 226.710 -0.66 -0.01    +0.032 A  
DOCKED: ATOM     26  C   UNL     1     140.329  68.769 226.963 -0.58 -0.01    +0.049 A  
DOCKED: ATOM     27  C   UNL     1     141.088  70.847 227.832 -0.64 -0.01    +0.041 A  
DOCKED: ATOM     28  C   UNL     1     140.964  69.483 227.973 -0.50 -0.03    +0.123 A  
DOCKED: ATOM     29  F   UNL     1     141.446  68.824 229.071 -0.13 +0.05    -0.207 F  
DOCKED: ENDBRANCH  16  19
DOCKED: ENDBRANCH  14  15
DOCKED: ENDBRANCH   1  14
DOCKED: TORSDOF 6
DOCKED: TER
DOCKED: ENDMDL
________________________________________________________________________________


    FINAL DOCKED STATE:
    ________________________


Run:   17 / 20
Time taken for this run:   0.047s

DOCKED: MODEL        17
DOCKED: USER    Run = 17
DOCKED: USER
DOCKED: USER    Estimated Free Energy of Binding    =  -7.91 kcal/mol  [=(1)+(2)+(3)-(4)]
DOCKED: USER
DOCKED: USER    (1) Final Intermolecular Energy     =  -9.70 kcal/mol
DOCKED: USER        vdW + Hbond + desolv Energy     =  -9.69 kcal/mol
DOCKED: USER        Electrostatic Energy            =  -0.01 kcal/mol
DOCKED: USER        Moving Ligand-Fixed Receptor    =  -9.70 kcal/mol
DOCKED: USER        Moving Ligand-Moving Receptor   =  +0.00 kcal/mol
DOCKED: USER    (2) Final Total Internal Energy     =  -1.67 kcal/mol
DOCKED: USER    (3) Torsional Free Energy           =  +1.79 kcal/mol
DOCKED: USER    (4) Unbound System's Energy         =  -1.67 kcal/mol
DOCKED: USER
DOCKED: USER
DOCKED: REMARK SMILES C[C@H](NC(=O)CCNC(=O)c1ccc2cc(F)ccc2n1)c1ccccc1
DOCKED: REMARK SMILES IDX 6 1 4 2 3 3 5 5 2 6 1 7 22 8 23 9 27 10 24 11 26 12 25 13
DOCKED: REMARK SMILES IDX 7 14 8 15 9 16 10 18 11 19 12 20 21 21 13 22 20 23 14 24
DOCKED: REMARK SMILES IDX 19 25 15 26 18 27 16 28 17 29
DOCKED: REMARK H PARENT 3 4 8 17
DOCKED: USER                              x       y       z     vdW  Elec       q    Type
DOCKED: USER                           _______ _______ _______ _____ _____    ______ ____
DOCKED: ROOT
DOCKED: ATOM      1  C   UNL     1     136.653  69.341 223.643 -0.17 -0.01    +0.121 C  
DOCKED: ENDROOT
DOCKED: BRANCH   1   2
DOCKED: ATOM      2  C   UNL     1     137.813  70.230 223.998 -0.19 -0.04    +0.222 C  
DOCKED: ATOM      3  N   UNL     1     139.117  69.647 223.894 -0.10 +0.06    -0.350 N  
DOCKED: ATOM      4  H   UNL     1     139.268  68.658 223.587 +0.01 -0.03    +0.164 HD 
DOCKED: ATOM      5  O   UNL     1     137.653  71.421 224.368 -0.09 +0.07    -0.275 OA 
DOCKED: BRANCH   3   6
DOCKED: ATOM      6  C   UNL     1     140.260  70.482 224.230 -0.28 -0.02    +0.109 C  
DOCKED: ATOM      7  C   UNL     1     140.162  71.733 223.355 -0.35 -0.01    +0.036 C  
DOCKED: BRANCH   6   8
DOCKED: ATOM      8  C   UNL     1     140.379  70.785 225.654 -0.54 +0.00    -0.026 A  
DOCKED: ATOM      9  C   UNL     1     139.805  69.926 226.580 -0.51 -0.00    +0.006 A  
DOCKED: ATOM     10  C   UNL     1     141.044  71.896 226.070 -0.61 -0.00    +0.006 A  
DOCKED: ATOM     11  C   UNL     1     139.928  70.230 227.920 -0.63 -0.00    +0.000 A  
DOCKED: ATOM     12  C   UNL     1     141.179  72.221 227.422 -0.83 -0.00    +0.000 A  
DOCKED: ATOM     13  C   UNL     1     140.599  71.352 228.345 -0.72 -0.00    +0.000 A  
DOCKED: ENDBRANCH   6   8
DOCKED: ENDBRANCH   3   6
DOCKED: ENDBRANCH   1   2
DOCKED: BRANCH   1  14
DOCKED: ATOM     14  C   UNL     1     135.700  69.199 224.786 -0.17 -0.00    +0.126 C  
DOCKED: BRANCH  14  15
DOCKED: ATOM     15  N   UNL     1     135.112  70.446 225.224 -0.08 +0.02    -0.350 N  
DOCKED: ATOM     16  C   UNL     1     133.954  70.489 226.051 -0.20 -0.02    +0.269 C  
DOCKED: ATOM     17  H   UNL     1     135.531  71.379 224.939 +0.05 -0.01    +0.163 HD 
DOCKED: ATOM     18  O   UNL     1     133.375  69.432 226.450 -0.67 -0.02    -0.268 OA 
DOCKED: BRANCH  16  19
DOCKED: ATOM     19  C   UNL     1     133.414  71.792 226.456 -0.32 -0.01    +0.128 A  
DOCKED: ATOM     20  C   UNL     1     132.251  71.865 227.187 -0.37 -0.01    +0.035 A  
DOCKED: ATOM     21  N   UNL     1     134.042  72.934 226.122 -0.40 -0.01    -0.243 NA 
DOCKED: ATOM     22  C   UNL     1     131.782  73.090 227.542 -0.41 -0.00    +0.013 A  
DOCKED: ATOM     23  C   UNL     1     133.612  74.164 226.454 -0.24 +0.01    +0.071 A  
DOCKED: ATOM     24  C   UNL     1     132.430  74.249 227.197 -0.42 -0.00    +0.003 A  
DOCKED: ATOM     25  C   UNL     1     134.295  75.304 226.085 -0.41 +0.00    +0.032 A  
DOCKED: ATOM     26  C   UNL     1     131.958  75.500 227.557 -0.36 -0.00    +0.049 A  
DOCKED: ATOM     27  C   UNL     1     133.791  76.549 226.464 -0.31 -0.00    +0.041 A  
DOCKED: ATOM     28  C   UNL     1     132.630  76.663 227.196 -0.30 -0.00    +0.123 A  
DOCKED: ATOM     29  F   UNL     1     132.130  77.880 227.572 -0.06 +0.00    -0.207 F  
DOCKED: ENDBRANCH  16  19
DOCKED: ENDBRANCH  14  15
DOCKED: ENDBRANCH   1  14
DOCKED: TORSDOF 6
DOCKED: TER
DOCKED: ENDMDL
________________________________________________________________________________


    FINAL DOCKED STATE:
    ________________________


Run:   18 / 20
Time taken for this run:   0.047s

DOCKED: MODEL        18
DOCKED: USER    Run = 18
DOCKED: USER
DOCKED: USER    Estimated Free Energy of Binding    =  -7.92 kcal/mol  [=(1)+(2)+(3)-(4)]
DOCKED: USER
DOCKED: USER    (1) Final Intermolecular Energy     =  -9.71 kcal/mol
DOCKED: USER        vdW + Hbond + desolv Energy     =  -9.61 kcal/mol
DOCKED: USER        Electrostatic Energy            =  -0.10 kcal/mol
DOCKED: USER        Moving Ligand-Fixed Receptor    =  -9.71 kcal/mol
DOCKED: USER        Moving Ligand-Moving Receptor   =  +0.00 kcal/mol
DOCKED: USER    (2) Final Total Internal Energy     =  -1.66 kcal/mol
DOCKED: USER    (3) Torsional Free Energy           =  +1.79 kcal/mol
DOCKED: USER    (4) Unbound System's Energy         =  -1.66 kcal/mol
DOCKED: USER
DOCKED: USER
DOCKED: REMARK SMILES C[C@H](NC(=O)CCNC(=O)c1ccc2cc(F)ccc2n1)c1ccccc1
DOCKED: REMARK SMILES IDX 6 1 4 2 3 3 5 5 2 6 1 7 22 8 23 9 27 10 24 11 26 12 25 13
DOCKED: REMARK SMILES IDX 7 14 8 15 9 16 10 18 11 19 12 20 21 21 13 22 20 23 14 24
DOCKED: REMARK SMILES IDX 19 25 15 26 18 27 16 28 17 29
DOCKED: REMARK H PARENT 3 4 8 17
DOCKED: USER                              x       y       z     vdW  Elec       q    Type
DOCKED: USER                           _______ _______ _______ _____ _____    ______ ____
DOCKED: ROOT
DOCKED: ATOM      1  C   UNL     1     138.558  73.593 220.684 -0.09 -0.03    +0.121 C  
DOCKED: ENDROOT
DOCKED: BRANCH   1   2
DOCKED: ATOM      2  C   UNL     1     139.674  74.336 221.365 -0.19 -0.04    +0.222 C  
DOCKED: ATOM      3  N   UNL     1     139.968  75.644 220.862 -0.08 +0.09    -0.350 N  
DOCKED: ATOM      4  H   UNL     1     139.441  76.072 220.065 +0.04 -0.04    +0.164 HD 
DOCKED: ATOM      5  O   UNL     1     140.320  73.840 222.325 -0.83 -0.01    -0.275 OA 
DOCKED: BRANCH   3   6
DOCKED: ATOM      6  C   UNL     1     141.042  76.389 221.501 -0.29 -0.04    +0.109 C  
DOCKED: ATOM      7  C   UNL     1     142.008  76.805 220.389 -0.23 -0.02    +0.036 C  
DOCKED: BRANCH   6   8
DOCKED: ATOM      8  C   UNL     1     140.587  77.513 222.316 -0.41 +0.01    -0.026 A  
DOCKED: ATOM      9  C   UNL     1     139.235  77.821 222.350 -0.31 -0.00    +0.006 A  
DOCKED: ATOM     10  C   UNL     1     141.476  78.250 223.034 -0.52 -0.00    +0.006 A  
DOCKED: ATOM     11  C   UNL     1     138.825  78.886 223.125 -0.33 -0.00    +0.000 A  
DOCKED: ATOM     12  C   UNL     1     141.080  79.332 223.824 -0.57 -0.00    +0.000 A  
DOCKED: ATOM     13  C   UNL     1     139.719  79.633 223.852 -0.44 -0.00    +0.000 A  
DOCKED: ENDBRANCH   6   8
DOCKED: ENDBRANCH   3   6
DOCKED: ENDBRANCH   1   2
DOCKED: BRANCH   1  14
DOCKED: ATOM     14  C   UNL     1     137.582  73.043 221.674 -0.11 -0.03    +0.126 C  
DOCKED: BRANCH  14  15
DOCKED: ATOM     15  N   UNL     1     138.186  72.257 222.728 -0.06 +0.12    -0.350 N  
DOCKED: ATOM     16  C   UNL     1     137.944  70.861 222.867 -0.12 -0.06    +0.269 C  
DOCKED: ATOM     17  H   UNL     1     138.836  72.703 223.439 -0.37 -0.09    +0.163 HD 
DOCKED: ATOM     18  O   UNL     1     137.184  70.230 222.070 -0.04 +0.05    -0.268 OA 
DOCKED: BRANCH  16  19
DOCKED: ATOM     19  C   UNL     1     138.592  70.130 223.961 -0.24 -0.02    +0.128 A  
DOCKED: ATOM     20  C   UNL     1     138.574  68.754 223.985 -0.30 -0.00    +0.035 A  
DOCKED: ATOM     21  N   UNL     1     139.214  70.787 224.957 -0.22 +0.05    -0.243 NA 
DOCKED: ATOM     22  C   UNL     1     139.185  68.114 225.015 -0.42 -0.00    +0.013 A  
DOCKED: ATOM     23  C   UNL     1     139.830  70.191 225.994 -0.44 -0.01    +0.071 A  
DOCKED: ATOM     24  C   UNL     1     139.816  68.793 226.027 -0.52 -0.00    +0.003 A  
DOCKED: ATOM     25  C   UNL     1     140.453  70.913 226.990 -0.62 -0.01    +0.032 A  
DOCKED: ATOM     26  C   UNL     1     140.442  68.145 227.079 -0.63 -0.01    +0.049 A  
DOCKED: ATOM     27  C   UNL     1     141.073  70.228 228.037 -0.57 -0.01    +0.041 A  
DOCKED: ATOM     28  C   UNL     1     141.075  68.852 228.095 -0.52 -0.03    +0.123 A  
DOCKED: ATOM     29  F   UNL     1     141.681  68.174 229.118 -0.17 +0.05    -0.207 F  
DOCKED: ENDBRANCH  16  19
DOCKED: ENDBRANCH  14  15
DOCKED: ENDBRANCH   1  14
DOCKED: TORSDOF 6
DOCKED: TER
DOCKED: ENDMDL
________________________________________________________________________________


    FINAL DOCKED STATE:
    ________________________


Run:   19 / 20
Time taken for this run:   0.047s

DOCKED: MODEL        19
DOCKED: USER    Run = 19
DOCKED: USER
DOCKED: USER    Estimated Free Energy of Binding    =  -7.86 kcal/mol  [=(1)+(2)+(3)-(4)]
DOCKED: USER
DOCKED: USER    (1) Final Intermolecular Energy     =  -9.65 kcal/mol
DOCKED: USER        vdW + Hbond + desolv Energy     =  -9.55 kcal/mol
DOCKED: USER        Electrostatic Energy            =  -0.10 kcal/mol
DOCKED: USER        Moving Ligand-Fixed Receptor    =  -9.65 kcal/mol
DOCKED: USER        Moving Ligand-Moving Receptor   =  +0.00 kcal/mol
DOCKED: USER    (2) Final Total Internal Energy     =  -1.67 kcal/mol
DOCKED: USER    (3) Torsional Free Energy           =  +1.79 kcal/mol
DOCKED: USER    (4) Unbound System's Energy         =  -1.67 kcal/mol
DOCKED: USER
DOCKED: USER
DOCKED: REMARK SMILES C[C@H](NC(=O)CCNC(=O)c1ccc2cc(F)ccc2n1)c1ccccc1
DOCKED: REMARK SMILES IDX 6 1 4 2 3 3 5 5 2 6 1 7 22 8 23 9 27 10 24 11 26 12 25 13
DOCKED: REMARK SMILES IDX 7 14 8 15 9 16 10 18 11 19 12 20 21 21 13 22 20 23 14 24
DOCKED: REMARK SMILES IDX 19 25 15 26 18 27 16 28 17 29
DOCKED: REMARK H PARENT 3 4 8 17
DOCKED: USER                              x       y       z     vdW  Elec       q    Type
DOCKED: USER                           _______ _______ _______ _____ _____    ______ ____
DOCKED: ROOT
DOCKED: ATOM      1  C   UNL     1     138.708  73.557 220.631 -0.09 -0.03    +0.121 C  
DOCKED: ENDROOT
DOCKED: BRANCH   1   2
DOCKED: ATOM      2  C   UNL     1     139.768  74.396 221.290 -0.18 -0.04    +0.222 C  
DOCKED: ATOM      3  N   UNL     1     140.086  75.637 220.652 -0.06 +0.09    -0.350 N  
DOCKED: ATOM      4  H   UNL     1     139.614  75.956 219.774 +0.04 -0.04    +0.164 HD 
DOCKED: ATOM      5  O   UNL     1     140.348  74.031 222.345 -0.82 -0.02    -0.275 OA 
DOCKED: BRANCH   3   6
DOCKED: ATOM      6  C   UNL     1     141.108  76.471 221.266 -0.28 -0.04    +0.109 C  
DOCKED: ATOM      7  C   UNL     1     141.958  77.034 220.126 -0.29 -0.02    +0.036 C  
DOCKED: BRANCH   6   8
DOCKED: ATOM      8  C   UNL     1     140.580  77.505 222.153 -0.39 +0.01    -0.026 A  
DOCKED: ATOM      9  C   UNL     1     141.463  78.289 222.881 -0.51 -0.00    +0.006 A  
DOCKED: ATOM     10  C   UNL     1     139.238  77.699 222.265 -0.30 -0.00    +0.006 A  
DOCKED: ATOM     11  C   UNL     1     140.944  79.260 223.713 -0.54 -0.00    +0.000 A  
DOCKED: ATOM     12  C   UNL     1     138.694  78.677 223.102 -0.31 -0.00    +0.000 A  
DOCKED: ATOM     13  C   UNL     1     139.590  79.459 223.829 -0.44 -0.00    +0.000 A  
DOCKED: ENDBRANCH   6   8
DOCKED: ENDBRANCH   3   6
DOCKED: ENDBRANCH   1   2
DOCKED: BRANCH   1  14
DOCKED: ATOM     14  C   UNL     1     137.708  73.057 221.623 -0.11 -0.03    +0.126 C  
DOCKED: BRANCH  14  15
DOCKED: ATOM     15  N   UNL     1     138.281  72.288 222.706 -0.06 +0.11    -0.350 N  
DOCKED: ATOM     16  C   UNL     1     138.026  70.898 222.867 -0.12 -0.06    +0.269 C  
DOCKED: ATOM     17  H   UNL     1     138.918  72.744 223.423 -0.38 -0.09    +0.163 HD 
DOCKED: ATOM     18  O   UNL     1     137.279  70.255 222.066 -0.04 +0.05    -0.268 OA 
DOCKED: BRANCH  16  19
DOCKED: ATOM     19  C   UNL     1     138.643  70.183 223.991 -0.25 -0.02    +0.128 A  
DOCKED: ATOM     20  C   UNL     1     138.596  68.810 224.051 -0.31 -0.00    +0.035 A  
DOCKED: ATOM     21  N   UNL     1     139.263  70.855 224.978 -0.23 +0.05    -0.243 NA 
DOCKED: ATOM     22  C   UNL     1     139.179  68.186 225.108 -0.44 -0.00    +0.013 A  
DOCKED: ATOM     23  C   UNL     1     139.852  70.275 226.039 -0.44 -0.01    +0.071 A  
DOCKED: ATOM     24  C   UNL     1     139.810  68.879 226.110 -0.52 -0.00    +0.003 A  
DOCKED: ATOM     25  C   UNL     1     140.475  71.012 227.025 -0.63 -0.01    +0.032 A  
DOCKED: ATOM     26  C   UNL     1     140.406  68.248 227.189 -0.63 -0.01    +0.049 A  
DOCKED: ATOM     27  C   UNL     1     141.065  70.344 228.099 -0.57 -0.01    +0.041 A  
DOCKED: ATOM     28  C   UNL     1     141.039  68.970 228.195 -0.51 -0.03    +0.123 A  
DOCKED: ATOM     29  F   UNL     1     141.616  68.309 229.244 -0.13 +0.05    -0.207 F  
DOCKED: ENDBRANCH  16  19
DOCKED: ENDBRANCH  14  15
DOCKED: ENDBRANCH   1  14
DOCKED: TORSDOF 6
DOCKED: TER
DOCKED: ENDMDL
________________________________________________________________________________


    FINAL DOCKED STATE:
    ________________________


Run:   20 / 20
Time taken for this run:   0.047s

DOCKED: MODEL        20
DOCKED: USER    Run = 20
DOCKED: USER
DOCKED: USER    Estimated Free Energy of Binding    =  -8.49 kcal/mol  [=(1)+(2)+(3)-(4)]
DOCKED: USER
DOCKED: USER    (1) Final Intermolecular Energy     = -10.28 kcal/mol
DOCKED: USER        vdW + Hbond + desolv Energy     = -10.18 kcal/mol
DOCKED: USER        Electrostatic Energy            =  -0.10 kcal/mol
DOCKED: USER        Moving Ligand-Fixed Receptor    = -10.28 kcal/mol
DOCKED: USER        Moving Ligand-Moving Receptor   =  +0.00 kcal/mol
DOCKED: USER    (2) Final Total Internal Energy     =  -1.56 kcal/mol
DOCKED: USER    (3) Torsional Free Energy           =  +1.79 kcal/mol
DOCKED: USER    (4) Unbound System's Energy         =  -1.56 kcal/mol
DOCKED: USER
DOCKED: USER
DOCKED: REMARK SMILES C[C@H](NC(=O)CCNC(=O)c1ccc2cc(F)ccc2n1)c1ccccc1
DOCKED: REMARK SMILES IDX 6 1 4 2 3 3 5 5 2 6 1 7 22 8 23 9 27 10 24 11 26 12 25 13
DOCKED: REMARK SMILES IDX 7 14 8 15 9 16 10 18 11 19 12 20 21 21 13 22 20 23 14 24
DOCKED: REMARK SMILES IDX 19 25 15 26 18 27 16 28 17 29
DOCKED: REMARK H PARENT 3 4 8 17
DOCKED: USER                              x       y       z     vdW  Elec       q    Type
DOCKED: USER                           _______ _______ _______ _____ _____    ______ ____
DOCKED: ROOT
DOCKED: ATOM      1  C   UNL     1     138.021  74.848 221.627 -0.17 -0.03    +0.121 C  
DOCKED: ENDROOT
DOCKED: BRANCH   1   2
DOCKED: ATOM      2  C   UNL     1     139.434  75.294 221.882 -0.22 -0.04    +0.222 C  
DOCKED: ATOM      3  N   UNL     1     139.711  76.682 221.671 -0.13 +0.09    -0.350 N  
DOCKED: ATOM      4  H   UNL     1     138.979  77.362 221.358 +0.05 -0.04    +0.164 HD 
DOCKED: ATOM      5  O   UNL     1     140.329  74.494 222.259 -0.77 -0.01    -0.275 OA 
DOCKED: BRANCH   3   6
DOCKED: ATOM      6  C   UNL     1     141.070  77.145 221.910 -0.31 -0.05    +0.109 C  
DOCKED: ATOM      7  C   UNL     1     141.786  77.119 220.558 -0.26 -0.02    +0.036 C  
DOCKED: BRANCH   6   8
DOCKED: ATOM      8  C   UNL     1     141.150  78.443 222.577 -0.46 +0.01    -0.026 A  
DOCKED: ATOM      9  C   UNL     1     142.376  79.087 222.661 -0.52 -0.00    +0.006 A  
DOCKED: ATOM     10  C   UNL     1     140.037  79.014 223.110 -0.41 -0.00    +0.006 A  
DOCKED: ATOM     11  C   UNL     1     142.431  80.311 223.294 -0.66 -0.00    +0.000 A  
DOCKED: ATOM     12  C   UNL     1     140.073  80.253 223.755 -0.43 -0.00    +0.000 A  
DOCKED: ATOM     13  C   UNL     1     141.309  80.893 223.835 -0.52 -0.00    +0.000 A  
DOCKED: ENDBRANCH   6   8
DOCKED: ENDBRANCH   3   6
DOCKED: ENDBRANCH   1   2
DOCKED: BRANCH   1  14
DOCKED: ATOM     14  C   UNL     1     137.941  73.370 221.421 -0.12 -0.03    +0.126 C  
DOCKED: BRANCH  14  15
DOCKED: ATOM     15  N   UNL     1     138.461  72.589 222.522 -0.03 +0.12    -0.350 N  
DOCKED: ATOM     16  C   UNL     1     138.198  71.197 222.656 -0.12 -0.06    +0.269 C  
DOCKED: ATOM     17  H   UNL     1     139.063  73.037 223.274 -0.43 -0.09    +0.163 HD 
DOCKED: ATOM     18  O   UNL     1     137.491  70.563 221.813 -0.04 +0.05    -0.268 OA 
DOCKED: BRANCH  16  19
DOCKED: ATOM     19  C   UNL     1     138.760  70.470 223.801 -0.25 -0.02    +0.128 A  
DOCKED: ATOM     20  C   UNL     1     138.662  69.100 223.871 -0.29 -0.00    +0.035 A  
DOCKED: ATOM     21  N   UNL     1     139.380  71.127 224.798 -0.25 +0.05    -0.243 NA 
DOCKED: ATOM     22  C   UNL     1     139.195  68.464 224.946 -0.41 -0.00    +0.013 A  
DOCKED: ATOM     23  C   UNL     1     139.921  70.536 225.878 -0.45 -0.01    +0.071 A  
DOCKED: ATOM     24  C   UNL     1     139.825  69.143 225.959 -0.49 -0.00    +0.003 A  
DOCKED: ATOM     25  C   UNL     1     140.545  71.258 226.874 -0.65 -0.01    +0.032 A  
DOCKED: ATOM     26  C   UNL     1     140.371  68.500 227.057 -0.61 -0.01    +0.049 A  
DOCKED: ATOM     27  C   UNL     1     141.084  70.578 227.967 -0.61 -0.01    +0.041 A  
DOCKED: ATOM     28  C   UNL     1     141.005  69.207 228.073 -0.50 -0.03    +0.123 A  
DOCKED: ATOM     29  F   UNL     1     141.531  68.534 229.142 -0.14 +0.05    -0.207 F  
DOCKED: ENDBRANCH  16  19
DOCKED: ENDBRANCH  14  15
DOCKED: ENDBRANCH   1  14
DOCKED: TORSDOF 6
DOCKED: TER
DOCKED: ENDMDL
________________________________________________________________________________


    CLUSTERING HISTOGRAM
    ____________________


________________________________________________________________________________
     |           |     |           |     |
Clus | Lowest    | Run | Mean      | Num | Histogram
-ter | Binding   |     | Binding   | in  |
Rank | Energy    |     | Energy    | Clus|    5    10   15   20   25   30   35
_____|___________|_____|___________|_____|____:____|____:____|____:____|____:___
   1 |     -8.51 |   7 |     -8.15 |  13 |#############
   2 |     -8.50 |   3 |     -8.07 |   4 |####
   3 |     -7.86 |   6 |     -7.68 |   3 |###
_____|___________|_____|___________|_____|______________________________________


    RMSD TABLE
    __________


_______________________________________________________________________
     |      |      |           |         |                 |
Rank | Sub- | Run  | Binding   | Cluster | Reference       | Grep
     | Rank |      | Energy    | RMSD    | RMSD            | Pattern
_____|______|______|___________|_________|_________________|___________
   1      1      7       -8.51      0.00    271.10           RANKING
   1      2     20       -8.49      0.08    271.10           RANKING
   1      3     10       -8.40      0.24    271.00           RANKING
   1      4      8       -8.38      1.94    271.33           RANKING
   1      5      5       -8.28      0.67    270.97           RANKING
   1      6     16       -8.27      0.70    270.96           RANKING
   1      7     13       -8.23      0.73    270.94           RANKING
   1      8     12       -7.92      0.81    270.75           RANKING
   1      9     18       -7.92      0.82    270.73           RANKING
   1     10      1       -7.92      0.82    270.74           RANKING
   1     11     14       -7.91      0.80    270.74           RANKING
   1     12      9       -7.90      0.78    270.74           RANKING
   1     13     19       -7.86      0.87    270.73           RANKING
   2      1      3       -8.50      0.00    270.66           RANKING
   2      2      2       -7.94      1.07    270.55           RANKING
   2      3     15       -7.93      1.07    270.57           RANKING
   2      4     17       -7.91      1.08    270.54           RANKING
   3      1      6       -7.86      0.00    270.80           RANKING
   3      2     11       -7.79      0.20    270.77           RANKING
   3      3      4       -7.38      1.54    270.68           RANKING

Run time 0.912 sec
Idle time 0.000 sec
