AutoDock-GPU version: v1.6

**********************************************************
**    AutoDock-GPU AUTODOCKTOOLS-COMPATIBLE DLG FILE    **
**********************************************************


    DOCKING PARAMETERS
    ________________________


Ligand file:                               /home/a/REINVENT4/ReinventStudies/pleaseWork/justmol2mol_4_Compounds_ontop/graph-dock-amy28i/graph-DockGPU/node-autodockgpu/inputs/WWMVZUZFWROBEU-AATXMJDANA-N.pdbqt
Grid fld file:                             /home/a/REINVENT4/ReinventStudies/mols/Rad51/maps/rad51_receptor.maps.fld

Random seed:                               42
Number of runs:                            20
Number of energy evaluations:              1132076
Number of generations:                     42000
Size of population:                        150
Rate of crossover:                         80.000000%
Tournament selection probability limit:    60.000000%
Rate of mutation:                          2.000000%
Maximal allowed delta movement:            +/- 6.000000A
Maximal allowed delta angle:               +/- 90.000000

Rate of local search:                      100.000000%
Maximal number of local search iterations: 300
Rho lower bound:                           0.010000
Spread of local search delta movement:     2.000000A
Spread of local search delta angle:        74.999999
Limit of consecutive successes/failures:   4

Handle symmetry during clustering:         YES
RMSD tolerance:                            2.000000A

Program call in command line was:          /home/a/REINVENT4/ReinventStudies/adgpu-v1.6_linux_x64_cuda12_128wi --filelist batch.txt --heuristics 1 --nrun 20 --psize 150 --lsit 300 --seed 42 --heurmax 12000000 


    GRID PARAMETERS
    ________________________


Receptor name:                             rad51_receptor
Number of grid points (x, y, z):           53, 53, 53
Grid center (x, y, z):                     139.950000, 75.640000, 221.970000A
Grid size (x, y, z):                       19.500000, 19.500000, 19.500000A
Grid spacing:                              0.375000A


    LIGAND PARAMETERS
    ________________________


Ligand name:                               /home/a/REINVENT4/ReinventStudies/pleaseWork/justmol2mol_4_Compounds_ontop/graph-dock-amy28i/graph-DockGPU/node-autodockgpu/inputs/WWMVZUZFWROBEU-AATXMJDANA-N
Number of atoms:                           29
Number of rotatable bonds:                 5
Number of atom types:                      6


    DUMMY DATA (only for ADT-compatibility)
    ________________________


DPF> outlev 1
DPF> ga_run 20
DPF> fld /home/a/REINVENT4/ReinventStudies/mols/Rad51/maps/rad51_receptor.maps.fld
DPF> move /home/a/REINVENT4/ReinventStudies/pleaseWork/justmol2mol_4_Compounds_ontop/graph-dock-amy28i/graph-DockGPU/node-autodockgpu/inputs/WWMVZUZFWROBEU-AATXMJDANA-N.pdbqt


    COUNTER STATES
    ________________________


Number of energy evaluations performed:    643961
Number of generations used:                30


    INPUT LIGAND PDBQT FILE:
    ________________________


INPUT-LIGAND-PDBQT: REMARK SMILES O=C(NCC(=O)N1CCCC[C@H]1c1ccccc1)c1ccc2ccccc2n1
INPUT-LIGAND-PDBQT: REMARK SMILES IDX 4 1 3 2 2 3 1 4 19 6 20 7 28 8 21 9 27 10 22 11 26 12 23 13
INPUT-LIGAND-PDBQT: REMARK SMILES IDX 25 14 24 15 5 16 6 17 7 18 8 19 12 20 9 21 11 22 10 23 13 24
INPUT-LIGAND-PDBQT: REMARK SMILES IDX 14 25 18 26 15 27 17 28 16 29
INPUT-LIGAND-PDBQT: REMARK H PARENT 3 5
INPUT-LIGAND-PDBQT: ROOT
INPUT-LIGAND-PDBQT: ATOM      1  C   UNL     1      -0.174  -1.185  -1.690  1.00  0.00     0.216 C 
INPUT-LIGAND-PDBQT: ENDROOT
INPUT-LIGAND-PDBQT: BRANCH   1   2
INPUT-LIGAND-PDBQT: ATOM      2  N   UNL     1       1.132  -0.974  -1.107  1.00  0.00    -0.342 N 
INPUT-LIGAND-PDBQT: ATOM      3  C   UNL     1       1.767   0.301  -1.124  1.00  0.00     0.270 C 
INPUT-LIGAND-PDBQT: ATOM      4  O   UNL     1       1.187   1.302  -1.663  1.00  0.00    -0.268 OA
INPUT-LIGAND-PDBQT: ATOM      5  H   UNL     1       1.666  -1.753  -0.648  1.00  0.00     0.164 HD
INPUT-LIGAND-PDBQT: BRANCH   3   6
INPUT-LIGAND-PDBQT: ATOM      6  C   UNL     1       3.087   0.464  -0.523  1.00  0.00     0.128 A 
INPUT-LIGAND-PDBQT: ATOM      7  C   UNL     1       3.701   1.698  -0.539  1.00  0.00     0.035 A 
INPUT-LIGAND-PDBQT: ATOM      8  N   UNL     1       3.718  -0.587   0.053  1.00  0.00    -0.243 NA
INPUT-LIGAND-PDBQT: ATOM      9  C   UNL     1       4.945   1.914   0.012  1.00  0.00     0.013 A 
INPUT-LIGAND-PDBQT: ATOM     10  C   UNL     1       4.935  -0.411   0.601  1.00  0.00     0.071 A 
INPUT-LIGAND-PDBQT: ATOM     11  C   UNL     1       5.566   0.820   0.594  1.00  0.00     0.000 A 
INPUT-LIGAND-PDBQT: ATOM     12  C   UNL     1       5.624  -1.456   1.204  1.00  0.00     0.029 A 
INPUT-LIGAND-PDBQT: ATOM     13  C   UNL     1       6.807   1.031   1.145  1.00  0.00     0.010 A 
INPUT-LIGAND-PDBQT: ATOM     14  C   UNL     1       6.885  -1.247   1.765  1.00  0.00     0.002 A 
INPUT-LIGAND-PDBQT: ATOM     15  C   UNL     1       7.490  -0.003   1.742  1.00  0.00     0.001 A 
INPUT-LIGAND-PDBQT: ENDBRANCH   3   6
INPUT-LIGAND-PDBQT: ENDBRANCH   1   2
INPUT-LIGAND-PDBQT: BRANCH   1  16
INPUT-LIGAND-PDBQT: ATOM     16  C   UNL     1      -1.180  -0.316  -1.021  1.00  0.00     0.242 C 
INPUT-LIGAND-PDBQT: ATOM     17  O   UNL     1      -0.740   0.434  -0.090  1.00  0.00    -0.273 OA
INPUT-LIGAND-PDBQT: BRANCH  16  18
INPUT-LIGAND-PDBQT: ATOM     18  N   UNL     1      -2.538  -0.333  -1.408  1.00  0.00    -0.334 N 
INPUT-LIGAND-PDBQT: ATOM     19  C   UNL     1      -2.948  -1.235  -2.496  1.00  0.00     0.120 C 
INPUT-LIGAND-PDBQT: ATOM     20  C   UNL     1      -3.463   0.517  -0.738  1.00  0.00     0.115 C 
INPUT-LIGAND-PDBQT: ATOM     21  C   UNL     1      -4.169  -1.954  -1.966  1.00  0.00     0.022 C 
INPUT-LIGAND-PDBQT: ATOM     22  C   UNL     1      -4.899   0.183  -0.862  1.00  0.00     0.030 C 
INPUT-LIGAND-PDBQT: ATOM     23  C   UNL     1      -5.255  -0.928  -1.796  1.00  0.00     0.004 C 
INPUT-LIGAND-PDBQT: BRANCH  20  24
INPUT-LIGAND-PDBQT: ATOM     24  C   UNL     1      -3.107   0.539   0.726  1.00  0.00    -0.025 A 
INPUT-LIGAND-PDBQT: ATOM     25  C   UNL     1      -3.068   1.727   1.439  1.00  0.00     0.006 A 
INPUT-LIGAND-PDBQT: ATOM     26  C   UNL     1      -2.807  -0.630   1.402  1.00  0.00     0.006 A 
INPUT-LIGAND-PDBQT: ATOM     27  C   UNL     1      -2.739   1.746   2.790  1.00  0.00     0.000 A 
INPUT-LIGAND-PDBQT: ATOM     28  C   UNL     1      -2.474  -0.646   2.750  1.00  0.00     0.000 A 
INPUT-LIGAND-PDBQT: ATOM     29  C   UNL     1      -2.442   0.560   3.445  1.00  0.00     0.000 A 
INPUT-LIGAND-PDBQT: ENDBRANCH  20  24
INPUT-LIGAND-PDBQT: ENDBRANCH  16  18
INPUT-LIGAND-PDBQT: ENDBRANCH   1  16
INPUT-LIGAND-PDBQT: TORSDOF 5


    FINAL DOCKED STATE:
    ________________________


Run:   1 / 20
Time taken for this run:   0.026s

DOCKED: MODEL        1
DOCKED: USER    Run = 1
DOCKED: USER
DOCKED: USER    Estimated Free Energy of Binding    =  -8.60 kcal/mol  [=(1)+(2)+(3)-(4)]
DOCKED: USER
DOCKED: USER    (1) Final Intermolecular Energy     = -10.09 kcal/mol
DOCKED: USER        vdW + Hbond + desolv Energy     = -10.06 kcal/mol
DOCKED: USER        Electrostatic Energy            =  -0.03 kcal/mol
DOCKED: USER        Moving Ligand-Fixed Receptor    = -10.09 kcal/mol
DOCKED: USER        Moving Ligand-Moving Receptor   =  +0.00 kcal/mol
DOCKED: USER    (2) Final Total Internal Energy     =  -2.02 kcal/mol
DOCKED: USER    (3) Torsional Free Energy           =  +1.49 kcal/mol
DOCKED: USER    (4) Unbound System's Energy         =  -2.02 kcal/mol
DOCKED: USER
DOCKED: USER
DOCKED: REMARK SMILES O=C(NCC(=O)N1CCCC[C@H]1c1ccccc1)c1ccc2ccccc2n1
DOCKED: REMARK SMILES IDX 4 1 3 2 2 3 1 4 19 6 20 7 28 8 21 9 27 10 22 11 26 12 23 13
DOCKED: REMARK SMILES IDX 25 14 24 15 5 16 6 17 7 18 8 19 12 20 9 21 11 22 10 23 13 24
DOCKED: REMARK SMILES IDX 14 25 18 26 15 27 17 28 16 29
DOCKED: REMARK H PARENT 3 5
DOCKED: USER                              x       y       z     vdW  Elec       q    Type
DOCKED: USER                           _______ _______ _______ _____ _____    ______ ____
DOCKED: ROOT
DOCKED: ATOM      1  C   UNL     1     139.910  74.085 220.953 -0.15 -0.04    +0.216 C  
DOCKED: ENDROOT
DOCKED: BRANCH   1   2
DOCKED: ATOM      2  N   UNL     1     139.868  73.371 222.209 -0.15 +0.04    -0.342 N  
DOCKED: ATOM      3  C   UNL     1     140.204  71.990 222.302 -0.20 -0.04    +0.270 C  
DOCKED: ATOM      4  O   UNL     1     140.556  71.342 221.260 -0.11 +0.04    -0.268 OA 
DOCKED: ATOM      5  H   UNL     1     139.587  73.842 223.105 -0.51 -0.02    +0.164 HD 
DOCKED: BRANCH   3   6
DOCKED: ATOM      6  C   UNL     1     140.146  71.313 223.593 -0.32 -0.02    +0.128 A  
DOCKED: ATOM      7  C   UNL     1     139.577  70.060 223.686 -0.28 -0.01    +0.035 A  
DOCKED: ATOM      8  N   UNL     1     140.646  71.902 224.706 -0.26 +0.03    -0.243 NA 
DOCKED: ATOM      9  C   UNL     1     139.493  69.371 224.876 -0.38 -0.00    +0.013 A  
DOCKED: ATOM     10  C   UNL     1     140.581  71.256 225.885 -0.55 -0.01    +0.071 A  
DOCKED: ATOM     11  C   UNL     1     140.014  69.999 225.997 -0.50 -0.00    +0.000 A  
DOCKED: ATOM     12  C   UNL     1     141.079  71.816 227.055 -0.77 -0.01    +0.029 A  
DOCKED: ATOM     13  C   UNL     1     139.932  69.315 227.186 -0.58 -0.00    +0.010 A  
DOCKED: ATOM     14  C   UNL     1     140.999  71.126 228.265 -0.69 -0.00    +0.002 A  
DOCKED: ATOM     15  C   UNL     1     140.425  69.869 228.345 -0.59 -0.00    +0.001 A  
DOCKED: ENDBRANCH   3   6
DOCKED: ENDBRANCH   1   2
DOCKED: BRANCH   1  16
DOCKED: ATOM     16  C   UNL     1     140.946  75.153 221.005 -0.20 -0.06    +0.242 C  
DOCKED: ATOM     17  O   UNL     1     141.422  75.414 222.157 -0.30 +0.06    -0.273 OA 
DOCKED: BRANCH  16  18
DOCKED: ATOM     18  N   UNL     1     141.365  75.826 219.837 -0.07 +0.13    -0.334 N  
DOCKED: ATOM     19  C   UNL     1     140.922  77.214 219.627 -0.14 -0.05    +0.120 C  
DOCKED: ATOM     20  C   UNL     1     142.199  75.147 218.904 -0.14 -0.04    +0.115 C  
DOCKED: ATOM     21  C   UNL     1     142.179  77.972 219.261 -0.28 -0.01    +0.022 C  
DOCKED: ATOM     22  C   UNL     1     142.950  75.979 217.938 -0.23 -0.02    +0.030 C  
DOCKED: ATOM     23  C   UNL     1     142.652  77.444 217.936 -0.30 -0.00    +0.004 C  
DOCKED: BRANCH  20  24
DOCKED: ATOM     24  C   UNL     1     143.187  74.312 219.677 -0.29 +0.01    -0.025 A  
DOCKED: ATOM     25  C   UNL     1     142.931  72.981 219.969 -0.23 -0.00    +0.006 A  
DOCKED: ATOM     26  C   UNL     1     144.382  74.851 220.118 -0.43 -0.00    +0.006 A  
DOCKED: ATOM     27  C   UNL     1     143.843  72.212 220.683 -0.34 -0.00    +0.000 A  
DOCKED: ATOM     28  C   UNL     1     145.314  74.111 220.834 -0.59 -0.00    +0.000 A  
DOCKED: ATOM     29  C   UNL     1     145.034  72.777 221.115 -0.47 -0.00    +0.000 A  
DOCKED: ENDBRANCH  20  24
DOCKED: ENDBRANCH  16  18
DOCKED: ENDBRANCH   1  16
DOCKED: TORSDOF 5
DOCKED: TER
DOCKED: ENDMDL
________________________________________________________________________________


    FINAL DOCKED STATE:
    ________________________


Run:   2 / 20
Time taken for this run:   0.026s

DOCKED: MODEL        2
DOCKED: USER    Run = 2
DOCKED: USER
DOCKED: USER    Estimated Free Energy of Binding    =  -8.38 kcal/mol  [=(1)+(2)+(3)-(4)]
DOCKED: USER
DOCKED: USER    (1) Final Intermolecular Energy     =  -9.87 kcal/mol
DOCKED: USER        vdW + Hbond + desolv Energy     =  -9.88 kcal/mol
DOCKED: USER        Electrostatic Energy            =  +0.01 kcal/mol
DOCKED: USER        Moving Ligand-Fixed Receptor    =  -9.87 kcal/mol
DOCKED: USER        Moving Ligand-Moving Receptor   =  +0.00 kcal/mol
DOCKED: USER    (2) Final Total Internal Energy     =  -2.24 kcal/mol
DOCKED: USER    (3) Torsional Free Energy           =  +1.49 kcal/mol
DOCKED: USER    (4) Unbound System's Energy         =  -2.24 kcal/mol
DOCKED: USER
DOCKED: USER
DOCKED: REMARK SMILES O=C(NCC(=O)N1CCCC[C@H]1c1ccccc1)c1ccc2ccccc2n1
DOCKED: REMARK SMILES IDX 4 1 3 2 2 3 1 4 19 6 20 7 28 8 21 9 27 10 22 11 26 12 23 13
DOCKED: REMARK SMILES IDX 25 14 24 15 5 16 6 17 7 18 8 19 12 20 9 21 11 22 10 23 13 24
DOCKED: REMARK SMILES IDX 14 25 18 26 15 27 17 28 16 29
DOCKED: REMARK H PARENT 3 5
DOCKED: USER                              x       y       z     vdW  Elec       q    Type
DOCKED: USER                           _______ _______ _______ _____ _____    ______ ____
DOCKED: ROOT
DOCKED: ATOM      1  C   UNL     1     140.038  73.971 220.900 -0.15 -0.04    +0.216 C  
DOCKED: ENDROOT
DOCKED: BRANCH   1   2
DOCKED: ATOM      2  N   UNL     1     140.021  73.275 222.167 -0.15 +0.04    -0.342 N  
DOCKED: ATOM      3  C   UNL     1     140.114  71.856 222.248 -0.20 -0.04    +0.270 C  
DOCKED: ATOM      4  O   UNL     1     140.216  71.156 221.185 -0.09 +0.04    -0.268 OA 
DOCKED: ATOM      5  H   UNL     1     139.939  73.788 223.080 -0.34 +0.02    +0.164 HD 
DOCKED: BRANCH   3   6
DOCKED: ATOM      6  C   UNL     1     140.092  71.199 223.551 -0.31 -0.02    +0.128 A  
DOCKED: ATOM      7  C   UNL     1     139.566  69.930 223.671 -0.27 -0.01    +0.035 A  
DOCKED: ATOM      8  N   UNL     1     140.585  71.823 224.647 -0.27 +0.03    -0.243 NA 
DOCKED: ATOM      9  C   UNL     1     139.518  69.259 224.873 -0.38 -0.00    +0.013 A  
DOCKED: ATOM     10  C   UNL     1     140.554  71.195 225.838 -0.54 -0.01    +0.071 A  
DOCKED: ATOM     11  C   UNL     1     140.030  69.923 225.977 -0.50 -0.00    +0.000 A  
DOCKED: ATOM     12  C   UNL     1     141.046  71.791 226.992 -0.75 -0.01    +0.029 A  
DOCKED: ATOM     13  C   UNL     1     139.984  69.257 227.178 -0.58 -0.00    +0.010 A  
DOCKED: ATOM     14  C   UNL     1     141.002  71.119 228.215 -0.70 -0.00    +0.002 A  
DOCKED: ATOM     15  C   UNL     1     140.471  69.846 228.322 -0.59 -0.00    +0.001 A  
DOCKED: ENDBRANCH   3   6
DOCKED: ENDBRANCH   1   2
DOCKED: BRANCH   1  16
DOCKED: ATOM     16  C   UNL     1     140.912  75.172 220.987 -0.20 -0.06    +0.242 C  
DOCKED: ATOM     17  O   UNL     1     141.261  75.526 222.160 -0.37 +0.06    -0.273 OA 
DOCKED: BRANCH  16  18
DOCKED: ATOM     18  N   UNL     1     141.323  75.866 219.828 -0.06 +0.13    -0.334 N  
DOCKED: ATOM     19  C   UNL     1     140.881  77.258 219.647 -0.14 -0.05    +0.120 C  
DOCKED: ATOM     20  C   UNL     1     142.149  75.203 218.876 -0.14 -0.04    +0.115 C  
DOCKED: ATOM     21  C   UNL     1     142.136  78.022 219.285 -0.28 -0.01    +0.022 C  
DOCKED: ATOM     22  C   UNL     1     142.892  76.052 217.919 -0.23 -0.02    +0.030 C  
DOCKED: ATOM     23  C   UNL     1     142.597  77.517 217.946 -0.31 -0.00    +0.004 C  
DOCKED: BRANCH  20  24
DOCKED: ATOM     24  C   UNL     1     143.142  74.353 219.625 -0.28 +0.01    -0.025 A  
DOCKED: ATOM     25  C   UNL     1     144.321  74.889 220.117 -0.43 -0.00    +0.006 A  
DOCKED: ATOM     26  C   UNL     1     142.904  73.007 219.842 -0.22 -0.00    +0.006 A  
DOCKED: ATOM     27  C   UNL     1     145.237  74.103 220.808 -0.58 -0.00    +0.000 A  
DOCKED: ATOM     28  C   UNL     1     143.797  72.194 220.527 -0.33 -0.00    +0.000 A  
DOCKED: ATOM     29  C   UNL     1     144.975  72.756 221.012 -0.47 -0.00    +0.000 A  
DOCKED: ENDBRANCH  20  24
DOCKED: ENDBRANCH  16  18
DOCKED: ENDBRANCH   1  16
DOCKED: TORSDOF 5
DOCKED: TER
DOCKED: ENDMDL
________________________________________________________________________________


    FINAL DOCKED STATE:
    ________________________


Run:   3 / 20
Time taken for this run:   0.026s

DOCKED: MODEL        3
DOCKED: USER    Run = 3
DOCKED: USER
DOCKED: USER    Estimated Free Energy of Binding    =  -8.56 kcal/mol  [=(1)+(2)+(3)-(4)]
DOCKED: USER
DOCKED: USER    (1) Final Intermolecular Energy     = -10.05 kcal/mol
DOCKED: USER        vdW + Hbond + desolv Energy     = -10.02 kcal/mol
DOCKED: USER        Electrostatic Energy            =  -0.03 kcal/mol
DOCKED: USER        Moving Ligand-Fixed Receptor    = -10.05 kcal/mol
DOCKED: USER        Moving Ligand-Moving Receptor   =  +0.00 kcal/mol
DOCKED: USER    (2) Final Total Internal Energy     =  -2.08 kcal/mol
DOCKED: USER    (3) Torsional Free Energy           =  +1.49 kcal/mol
DOCKED: USER    (4) Unbound System's Energy         =  -2.08 kcal/mol
DOCKED: USER
DOCKED: USER
DOCKED: REMARK SMILES O=C(NCC(=O)N1CCCC[C@H]1c1ccccc1)c1ccc2ccccc2n1
DOCKED: REMARK SMILES IDX 4 1 3 2 2 3 1 4 19 6 20 7 28 8 21 9 27 10 22 11 26 12 23 13
DOCKED: REMARK SMILES IDX 25 14 24 15 5 16 6 17 7 18 8 19 12 20 9 21 11 22 10 23 13 24
DOCKED: REMARK SMILES IDX 14 25 18 26 15 27 17 28 16 29
DOCKED: REMARK H PARENT 3 5
DOCKED: USER                              x       y       z     vdW  Elec       q    Type
DOCKED: USER                           _______ _______ _______ _____ _____    ______ ____
DOCKED: ROOT
DOCKED: ATOM      1  C   UNL     1     140.035  74.025 220.943 -0.16 -0.04    +0.216 C  
DOCKED: ENDROOT
DOCKED: BRANCH   1   2
DOCKED: ATOM      2  N   UNL     1     139.965  73.317 222.201 -0.15 +0.04    -0.342 N  
DOCKED: ATOM      3  C   UNL     1     140.269  71.929 222.302 -0.20 -0.04    +0.270 C  
DOCKED: ATOM      4  O   UNL     1     140.617  71.270 221.266 -0.11 +0.04    -0.268 OA 
DOCKED: ATOM      5  H   UNL     1     139.686  73.798 223.092 -0.46 -0.01    +0.164 HD 
DOCKED: BRANCH   3   6
DOCKED: ATOM      6  C   UNL     1     140.184  71.258 223.595 -0.32 -0.02    +0.128 A  
DOCKED: ATOM      7  C   UNL     1     139.596  70.015 223.686 -0.27 -0.01    +0.035 A  
DOCKED: ATOM      8  N   UNL     1     140.677  71.845 224.712 -0.27 +0.03    -0.243 NA 
DOCKED: ATOM      9  C   UNL     1     139.486  69.332 224.877 -0.38 -0.00    +0.013 A  
DOCKED: ATOM     10  C   UNL     1     140.586  71.205 225.893 -0.55 -0.01    +0.071 A  
DOCKED: ATOM     11  C   UNL     1     140.000  69.957 226.002 -0.50 -0.00    +0.000 A  
DOCKED: ATOM     12  C   UNL     1     141.077  71.763 227.067 -0.76 -0.01    +0.029 A  
DOCKED: ATOM     13  C   UNL     1     139.892  69.279 227.193 -0.58 -0.00    +0.010 A  
DOCKED: ATOM     14  C   UNL     1     140.970  71.079 228.279 -0.68 -0.00    +0.002 A  
DOCKED: ATOM     15  C   UNL     1     140.377  69.831 228.356 -0.58 -0.00    +0.001 A  
DOCKED: ENDBRANCH   3   6
DOCKED: ENDBRANCH   1   2
DOCKED: BRANCH   1  16
DOCKED: ATOM     16  C   UNL     1     140.850  75.261 221.095 -0.21 -0.06    +0.242 C  
DOCKED: ATOM     17  O   UNL     1     141.140  75.596 222.289 -0.39 +0.06    -0.273 OA 
DOCKED: BRANCH  16  18
DOCKED: ATOM     18  N   UNL     1     141.269  76.007 219.972 -0.07 +0.13    -0.334 N  
DOCKED: ATOM     19  C   UNL     1     140.860  77.417 219.870 -0.15 -0.05    +0.120 C  
DOCKED: ATOM     20  C   UNL     1     142.071  75.376 218.978 -0.15 -0.04    +0.115 C  
DOCKED: ATOM     21  C   UNL     1     142.131  78.168 219.539 -0.24 -0.01    +0.022 C  
DOCKED: ATOM     22  C   UNL     1     142.828  76.257 218.062 -0.25 -0.02    +0.030 C  
DOCKED: ATOM     23  C   UNL     1     142.570  77.725 218.171 -0.32 -0.00    +0.004 C  
DOCKED: BRANCH  20  24
DOCKED: ATOM     24  C   UNL     1     143.048  74.462 219.671 -0.29 +0.01    -0.025 A  
DOCKED: ATOM     25  C   UNL     1     144.236  74.945 220.197 -0.41 -0.00    +0.006 A  
DOCKED: ATOM     26  C   UNL     1     142.786  73.110 219.803 -0.21 -0.00    +0.006 A  
DOCKED: ATOM     27  C   UNL     1     145.137  74.101 220.837 -0.57 -0.00    +0.000 A  
DOCKED: ATOM     28  C   UNL     1     143.664  72.240 220.435 -0.32 -0.00    +0.000 A  
DOCKED: ATOM     29  C   UNL     1     144.851  72.749 220.955 -0.47 -0.00    +0.000 A  
DOCKED: ENDBRANCH  20  24
DOCKED: ENDBRANCH  16  18
DOCKED: ENDBRANCH   1  16
DOCKED: TORSDOF 5
DOCKED: TER
DOCKED: ENDMDL
________________________________________________________________________________


    FINAL DOCKED STATE:
    ________________________


Run:   4 / 20
Time taken for this run:   0.026s

DOCKED: MODEL        4
DOCKED: USER    Run = 4
DOCKED: USER
DOCKED: USER    Estimated Free Energy of Binding    =  -7.98 kcal/mol  [=(1)+(2)+(3)-(4)]
DOCKED: USER
DOCKED: USER    (1) Final Intermolecular Energy     =  -9.47 kcal/mol
DOCKED: USER        vdW + Hbond + desolv Energy     =  -9.50 kcal/mol
DOCKED: USER        Electrostatic Energy            =  +0.03 kcal/mol
DOCKED: USER        Moving Ligand-Fixed Receptor    =  -9.47 kcal/mol
DOCKED: USER        Moving Ligand-Moving Receptor   =  +0.00 kcal/mol
DOCKED: USER    (2) Final Total Internal Energy     =  -2.44 kcal/mol
DOCKED: USER    (3) Torsional Free Energy           =  +1.49 kcal/mol
DOCKED: USER    (4) Unbound System's Energy         =  -2.44 kcal/mol
DOCKED: USER
DOCKED: USER
DOCKED: REMARK SMILES O=C(NCC(=O)N1CCCC[C@H]1c1ccccc1)c1ccc2ccccc2n1
DOCKED: REMARK SMILES IDX 4 1 3 2 2 3 1 4 19 6 20 7 28 8 21 9 27 10 22 11 26 12 23 13
DOCKED: REMARK SMILES IDX 25 14 24 15 5 16 6 17 7 18 8 19 12 20 9 21 11 22 10 23 13 24
DOCKED: REMARK SMILES IDX 14 25 18 26 15 27 17 28 16 29
DOCKED: REMARK H PARENT 3 5
DOCKED: USER                              x       y       z     vdW  Elec       q    Type
DOCKED: USER                           _______ _______ _______ _____ _____    ______ ____
DOCKED: ROOT
DOCKED: ATOM      1  C   UNL     1     140.296  73.627 220.781 -0.14 -0.04    +0.216 C  
DOCKED: ENDROOT
DOCKED: BRANCH   1   2
DOCKED: ATOM      2  N   UNL     1     140.348  72.952 222.058 -0.16 +0.03    -0.342 N  
DOCKED: ATOM      3  C   UNL     1     139.750  71.675 222.260 -0.18 -0.05    +0.270 C  
DOCKED: ATOM      4  O   UNL     1     139.145  71.089 221.301 -0.06 +0.05    -0.268 OA 
DOCKED: ATOM      5  H   UNL     1     140.829  73.376 222.890 +0.03 +0.04    +0.164 HD 
DOCKED: BRANCH   3   6
DOCKED: ATOM      6  C   UNL     1     139.829  71.034 223.569 -0.30 -0.02    +0.128 A  
DOCKED: ATOM      7  C   UNL     1     139.314  69.767 223.745 -0.27 -0.01    +0.035 A  
DOCKED: ATOM      8  N   UNL     1     140.404  71.671 224.616 -0.29 +0.04    -0.243 NA 
DOCKED: ATOM      9  C   UNL     1     139.359  69.110 224.955 -0.39 -0.00    +0.013 A  
DOCKED: ATOM     10  C   UNL     1     140.465  71.058 225.814 -0.53 -0.01    +0.071 A  
DOCKED: ATOM     11  C   UNL     1     139.954  69.787 226.008 -0.49 -0.00    +0.000 A  
DOCKED: ATOM     12  C   UNL     1     141.044  71.668 226.919 -0.74 -0.00    +0.029 A  
DOCKED: ATOM     13  C   UNL     1     140.001  69.136 227.217 -0.59 -0.00    +0.010 A  
DOCKED: ATOM     14  C   UNL     1     141.094  71.011 228.150 -0.68 -0.00    +0.002 A  
DOCKED: ATOM     15  C   UNL     1     140.574  69.739 228.313 -0.60 -0.00    +0.001 A  
DOCKED: ENDBRANCH   3   6
DOCKED: ENDBRANCH   1   2
DOCKED: BRANCH   1  16
DOCKED: ATOM     16  C   UNL     1     141.104  74.876 220.828 -0.19 -0.06    +0.242 C  
DOCKED: ATOM     17  O   UNL     1     141.418  75.294 221.989 -0.41 +0.06    -0.273 OA 
DOCKED: BRANCH  16  18
DOCKED: ATOM     18  N   UNL     1     141.492  75.544 219.646 -0.06 +0.12    -0.334 N  
DOCKED: ATOM     19  C   UNL     1     140.967  76.896 219.397 -0.13 -0.05    +0.120 C  
DOCKED: ATOM     20  C   UNL     1     142.374  74.894 218.737 -0.14 -0.04    +0.115 C  
DOCKED: ATOM     21  C   UNL     1     142.178  77.721 219.022 -0.29 -0.01    +0.022 C  
DOCKED: ATOM     22  C   UNL     1     143.081  75.746 217.756 -0.21 -0.01    +0.030 C  
DOCKED: ATOM     23  C   UNL     1     142.695  77.189 217.714 -0.28 -0.00    +0.004 C  
DOCKED: BRANCH  20  24
DOCKED: ATOM     24  C   UNL     1     143.404  74.140 219.538 -0.28 +0.01    -0.025 A  
DOCKED: ATOM     25  C   UNL     1     143.299  72.773 219.741 -0.23 -0.00    +0.006 A  
DOCKED: ATOM     26  C   UNL     1     144.488  74.794 220.096 -0.41 -0.00    +0.006 A  
DOCKED: ATOM     27  C   UNL     1     144.250  72.079 220.481 -0.35 -0.00    +0.000 A  
DOCKED: ATOM     28  C   UNL     1     145.455  74.132 220.840 -0.61 -0.00    +0.000 A  
DOCKED: ATOM     29  C   UNL     1     145.328  72.758 221.030 -0.50 -0.00    +0.000 A  
DOCKED: ENDBRANCH  20  24
DOCKED: ENDBRANCH  16  18
DOCKED: ENDBRANCH   1  16
DOCKED: TORSDOF 5
DOCKED: TER
DOCKED: ENDMDL
________________________________________________________________________________


    FINAL DOCKED STATE:
    ________________________


Run:   5 / 20
Time taken for this run:   0.026s

DOCKED: MODEL        5
DOCKED: USER    Run = 5
DOCKED: USER
DOCKED: USER    Estimated Free Energy of Binding    =  -8.61 kcal/mol  [=(1)+(2)+(3)-(4)]
DOCKED: USER
DOCKED: USER    (1) Final Intermolecular Energy     = -10.10 kcal/mol
DOCKED: USER        vdW + Hbond + desolv Energy     = -10.07 kcal/mol
DOCKED: USER        Electrostatic Energy            =  -0.04 kcal/mol
DOCKED: USER        Moving Ligand-Fixed Receptor    = -10.10 kcal/mol
DOCKED: USER        Moving Ligand-Moving Receptor   =  +0.00 kcal/mol
DOCKED: USER    (2) Final Total Internal Energy     =  -2.04 kcal/mol
DOCKED: USER    (3) Torsional Free Energy           =  +1.49 kcal/mol
DOCKED: USER    (4) Unbound System's Energy         =  -2.04 kcal/mol
DOCKED: USER
DOCKED: USER
DOCKED: REMARK SMILES O=C(NCC(=O)N1CCCC[C@H]1c1ccccc1)c1ccc2ccccc2n1
DOCKED: REMARK SMILES IDX 4 1 3 2 2 3 1 4 19 6 20 7 28 8 21 9 27 10 22 11 26 12 23 13
DOCKED: REMARK SMILES IDX 25 14 24 15 5 16 6 17 7 18 8 19 12 20 9 21 11 22 10 23 13 24
DOCKED: REMARK SMILES IDX 14 25 18 26 15 27 17 28 16 29
DOCKED: REMARK H PARENT 3 5
DOCKED: USER                              x       y       z     vdW  Elec       q    Type
DOCKED: USER                           _______ _______ _______ _____ _____    ______ ____
DOCKED: ROOT
DOCKED: ATOM      1  C   UNL     1     140.013  74.070 220.955 -0.16 -0.04    +0.216 C  
DOCKED: ENDROOT
DOCKED: BRANCH   1   2
DOCKED: ATOM      2  N   UNL     1     139.932  73.351 222.207 -0.15 +0.04    -0.342 N  
DOCKED: ATOM      3  C   UNL     1     140.284  71.975 222.310 -0.20 -0.04    +0.270 C  
DOCKED: ATOM      4  O   UNL     1     140.686  71.335 221.282 -0.12 +0.04    -0.268 OA 
DOCKED: ATOM      5  H   UNL     1     139.608  73.816 223.092 -0.49 -0.02    +0.164 HD 
DOCKED: BRANCH   3   6
DOCKED: ATOM      6  C   UNL     1     140.184  71.293 223.597 -0.32 -0.02    +0.128 A  
DOCKED: ATOM      7  C   UNL     1     139.576  70.058 223.674 -0.28 -0.01    +0.035 A  
DOCKED: ATOM      8  N   UNL     1     140.683  71.861 224.720 -0.27 +0.03    -0.243 NA 
DOCKED: ATOM      9  C   UNL     1     139.452  69.366 224.858 -0.38 -0.00    +0.013 A  
DOCKED: ATOM     10  C   UNL     1     140.579  71.212 225.895 -0.55 -0.01    +0.071 A  
DOCKED: ATOM     11  C   UNL     1     139.972  69.972 225.991 -0.50 -0.00    +0.000 A  
DOCKED: ATOM     12  C   UNL     1     141.074  71.751 227.076 -0.76 -0.01    +0.029 A  
DOCKED: ATOM     13  C   UNL     1     139.851  69.285 227.175 -0.57 -0.00    +0.010 A  
DOCKED: ATOM     14  C   UNL     1     140.953  71.057 228.281 -0.67 -0.00    +0.002 A  
DOCKED: ATOM     15  C   UNL     1     140.341  69.818 228.344 -0.60 -0.00    +0.001 A  
DOCKED: ENDBRANCH   3   6
DOCKED: ENDBRANCH   1   2
DOCKED: BRANCH   1  16
DOCKED: ATOM     16  C   UNL     1     140.858  75.284 221.116 -0.21 -0.06    +0.242 C  
DOCKED: ATOM     17  O   UNL     1     141.169  75.595 222.311 -0.38 +0.06    -0.273 OA 
DOCKED: BRANCH  16  18
DOCKED: ATOM     18  N   UNL     1     141.283  76.036 219.998 -0.07 +0.13    -0.334 N  
DOCKED: ATOM     19  C   UNL     1     140.882  77.449 219.907 -0.16 -0.05    +0.120 C  
DOCKED: ATOM     20  C   UNL     1     142.080  75.408 219.000 -0.15 -0.04    +0.115 C  
DOCKED: ATOM     21  C   UNL     1     142.157  78.195 219.583 -0.23 -0.02    +0.022 C  
DOCKED: ATOM     22  C   UNL     1     142.844  76.292 218.091 -0.25 -0.02    +0.030 C  
DOCKED: ATOM     23  C   UNL     1     142.594  77.760 218.211 -0.32 -0.00    +0.004 C  
DOCKED: BRANCH  20  24
DOCKED: ATOM     24  C   UNL     1     143.052  74.483 219.687 -0.29 +0.01    -0.025 A  
DOCKED: ATOM     25  C   UNL     1     142.784  73.130 219.820 -0.21 -0.00    +0.006 A  
DOCKED: ATOM     26  C   UNL     1     144.242  74.961 220.206 -0.40 -0.00    +0.006 A  
DOCKED: ATOM     27  C   UNL     1     143.681  72.277 220.454 -0.32 -0.00    +0.000 A  
DOCKED: ATOM     28  C   UNL     1     145.159  74.137 220.845 -0.57 -0.00    +0.000 A  
DOCKED: ATOM     29  C   UNL     1     144.868  72.781 220.967 -0.47 -0.00    +0.000 A  
DOCKED: ENDBRANCH  20  24
DOCKED: ENDBRANCH  16  18
DOCKED: ENDBRANCH   1  16
DOCKED: TORSDOF 5
DOCKED: TER
DOCKED: ENDMDL
________________________________________________________________________________


    FINAL DOCKED STATE:
    ________________________


Run:   6 / 20
Time taken for this run:   0.026s

DOCKED: MODEL        6
DOCKED: USER    Run = 6
DOCKED: USER
DOCKED: USER    Estimated Free Energy of Binding    =  -7.78 kcal/mol  [=(1)+(2)+(3)-(4)]
DOCKED: USER
DOCKED: USER    (1) Final Intermolecular Energy     =  -9.27 kcal/mol
DOCKED: USER        vdW + Hbond + desolv Energy     =  -9.29 kcal/mol
DOCKED: USER        Electrostatic Energy            =  +0.02 kcal/mol
DOCKED: USER        Moving Ligand-Fixed Receptor    =  -9.27 kcal/mol
DOCKED: USER        Moving Ligand-Moving Receptor   =  +0.00 kcal/mol
DOCKED: USER    (2) Final Total Internal Energy     =  -2.40 kcal/mol
DOCKED: USER    (3) Torsional Free Energy           =  +1.49 kcal/mol
DOCKED: USER    (4) Unbound System's Energy         =  -2.40 kcal/mol
DOCKED: USER
DOCKED: USER
DOCKED: REMARK SMILES O=C(NCC(=O)N1CCCC[C@H]1c1ccccc1)c1ccc2ccccc2n1
DOCKED: REMARK SMILES IDX 4 1 3 2 2 3 1 4 19 6 20 7 28 8 21 9 27 10 22 11 26 12 23 13
DOCKED: REMARK SMILES IDX 25 14 24 15 5 16 6 17 7 18 8 19 12 20 9 21 11 22 10 23 13 24
DOCKED: REMARK SMILES IDX 14 25 18 26 15 27 17 28 16 29
DOCKED: REMARK H PARENT 3 5
DOCKED: USER                              x       y       z     vdW  Elec       q    Type
DOCKED: USER                           _______ _______ _______ _____ _____    ______ ____
DOCKED: ROOT
DOCKED: ATOM      1  C   UNL     1     140.856  73.615 221.303 -0.20 -0.03    +0.216 C  
DOCKED: ENDROOT
DOCKED: BRANCH   1   2
DOCKED: ATOM      2  N   UNL     1     141.045  74.977 221.749 -0.17 +0.05    -0.342 N  
DOCKED: ATOM      3  C   UNL     1     139.946  75.859 221.961 -0.24 -0.05    +0.270 C  
DOCKED: ATOM      4  O   UNL     1     138.751  75.460 221.758 -0.19 +0.06    -0.268 OA 
DOCKED: ATOM      5  H   UNL     1     142.000  75.372 221.935 -0.37 -0.07    +0.164 HD 
DOCKED: BRANCH   3   6
DOCKED: ATOM      6  C   UNL     1     140.188  77.226 222.412 -0.32 -0.03    +0.128 A  
DOCKED: ATOM      7  C   UNL     1     139.123  78.045 222.723 -0.30 -0.01    +0.035 A  
DOCKED: ATOM      8  N   UNL     1     141.451  77.702 222.529 -0.22 +0.12    -0.243 NA 
DOCKED: ATOM      9  C   UNL     1     139.288  79.343 223.154 -0.36 -0.00    +0.013 A  
DOCKED: ATOM     10  C   UNL     1     141.647  78.966 222.947 -0.50 -0.03    +0.071 A  
DOCKED: ATOM     11  C   UNL     1     140.591  79.802 223.263 -0.47 -0.00    +0.000 A  
DOCKED: ATOM     12  C   UNL     1     142.922  79.502 223.084 -0.54 -0.01    +0.029 A  
DOCKED: ATOM     13  C   UNL     1     140.760  81.096 223.693 -0.39 -0.00    +0.010 A  
DOCKED: ATOM     14  C   UNL     1     143.099  80.816 223.519 -0.59 -0.00    +0.002 A  
DOCKED: ATOM     15  C   UNL     1     142.021  81.627 223.828 -0.55 -0.00    +0.001 A  
DOCKED: ENDBRANCH   3   6
DOCKED: ENDBRANCH   1   2
DOCKED: BRANCH   1  16
DOCKED: ATOM     16  C   UNL     1     141.812  73.299 220.207 -0.12 -0.05    +0.242 C  
DOCKED: ATOM     17  O   UNL     1     141.309  73.187 219.042 -0.02 +0.06    -0.273 OA 
DOCKED: BRANCH  16  18
DOCKED: ATOM     18  N   UNL     1     143.192  73.136 220.460 -0.12 +0.06    -0.334 N  
DOCKED: ATOM     19  C   UNL     1     143.728  71.772 220.582 -0.24 -0.02    +0.120 C  
DOCKED: ATOM     20  C   UNL     1     144.016  74.290 220.588 -0.29 -0.04    +0.115 C  
DOCKED: ATOM     21  C   UNL     1     144.952  71.754 219.691 -0.32 +0.00    +0.022 C  
DOCKED: ATOM     22  C   UNL     1     145.474  74.099 220.430 -0.51 -0.01    +0.030 C  
DOCKED: ATOM     23  C   UNL     1     145.960  72.692 220.296 -0.53 +0.00    +0.004 C  
DOCKED: BRANCH  20  24
DOCKED: ATOM     24  C   UNL     1     143.560  75.309 219.576 -0.38 +0.01    -0.025 A  
DOCKED: ATOM     25  C   UNL     1     143.694  75.081 218.215 -0.22 -0.00    +0.006 A  
DOCKED: ATOM     26  C   UNL     1     142.994  76.506 219.977 -0.28 -0.00    +0.006 A  
DOCKED: ATOM     27  C   UNL     1     143.273  76.023 217.282 -0.23 -0.00    +0.000 A  
DOCKED: ATOM     28  C   UNL     1     142.564  77.467 219.072 -0.33 -0.00    +0.000 A  
DOCKED: ATOM     29  C   UNL     1     142.709  77.215 217.710 -0.29 -0.00    +0.000 A  
DOCKED: ENDBRANCH  20  24
DOCKED: ENDBRANCH  16  18
DOCKED: ENDBRANCH   1  16
DOCKED: TORSDOF 5
DOCKED: TER
DOCKED: ENDMDL
________________________________________________________________________________


    FINAL DOCKED STATE:
    ________________________


Run:   7 / 20
Time taken for this run:   0.026s

DOCKED: MODEL        7
DOCKED: USER    Run = 7
DOCKED: USER
DOCKED: USER    Estimated Free Energy of Binding    =  -8.23 kcal/mol  [=(1)+(2)+(3)-(4)]
DOCKED: USER
DOCKED: USER    (1) Final Intermolecular Energy     =  -9.72 kcal/mol
DOCKED: USER        vdW + Hbond + desolv Energy     =  -9.74 kcal/mol
DOCKED: USER        Electrostatic Energy            =  +0.02 kcal/mol
DOCKED: USER        Moving Ligand-Fixed Receptor    =  -9.72 kcal/mol
DOCKED: USER        Moving Ligand-Moving Receptor   =  +0.00 kcal/mol
DOCKED: USER    (2) Final Total Internal Energy     =  -2.28 kcal/mol
DOCKED: USER    (3) Torsional Free Energy           =  +1.49 kcal/mol
DOCKED: USER    (4) Unbound System's Energy         =  -2.28 kcal/mol
DOCKED: USER
DOCKED: USER
DOCKED: REMARK SMILES O=C(NCC(=O)N1CCCC[C@H]1c1ccccc1)c1ccc2ccccc2n1
DOCKED: REMARK SMILES IDX 4 1 3 2 2 3 1 4 19 6 20 7 28 8 21 9 27 10 22 11 26 12 23 13
DOCKED: REMARK SMILES IDX 25 14 24 15 5 16 6 17 7 18 8 19 12 20 9 21 11 22 10 23 13 24
DOCKED: REMARK SMILES IDX 14 25 18 26 15 27 17 28 16 29
DOCKED: REMARK H PARENT 3 5
DOCKED: USER                              x       y       z     vdW  Elec       q    Type
DOCKED: USER                           _______ _______ _______ _____ _____    ______ ____
DOCKED: ROOT
DOCKED: ATOM      1  C   UNL     1     139.873  73.947 220.937 -0.15 -0.04    +0.216 C  
DOCKED: ENDROOT
DOCKED: BRANCH   1   2
DOCKED: ATOM      2  N   UNL     1     139.912  73.236 222.195 -0.16 +0.04    -0.342 N  
DOCKED: ATOM      3  C   UNL     1     139.896  71.813 222.256 -0.19 -0.04    +0.270 C  
DOCKED: ATOM      4  O   UNL     1     139.847  71.123 221.184 -0.08 +0.04    -0.268 OA 
DOCKED: ATOM      5  H   UNL     1     139.952  73.740 223.115 -0.34 +0.02    +0.164 HD 
DOCKED: BRANCH   3   6
DOCKED: ATOM      6  C   UNL     1     139.936  71.141 223.551 -0.31 -0.02    +0.128 A  
DOCKED: ATOM      7  C   UNL     1     139.499  69.838 223.662 -0.26 -0.01    +0.035 A  
DOCKED: ATOM      8  N   UNL     1     140.399  71.784 224.649 -0.28 +0.04    -0.243 NA 
DOCKED: ATOM      9  C   UNL     1     139.512  69.151 224.855 -0.38 -0.00    +0.013 A  
DOCKED: ATOM     10  C   UNL     1     140.426  71.141 225.832 -0.54 -0.01    +0.071 A  
DOCKED: ATOM     11  C   UNL     1     139.992  69.835 225.962 -0.49 -0.00    +0.000 A  
DOCKED: ATOM     12  C   UNL     1     140.892  71.756 226.988 -0.74 -0.01    +0.029 A  
DOCKED: ATOM     13  C   UNL     1     140.007  69.153 227.154 -0.59 -0.00    +0.010 A  
DOCKED: ATOM     14  C   UNL     1     140.910  71.068 228.202 -0.69 -0.00    +0.002 A  
DOCKED: ATOM     15  C   UNL     1     140.468  69.760 228.299 -0.60 -0.00    +0.001 A  
DOCKED: ENDBRANCH   3   6
DOCKED: ENDBRANCH   1   2
DOCKED: BRANCH   1  16
DOCKED: ATOM     16  C   UNL     1     140.879  75.044 220.937 -0.20 -0.06    +0.242 C  
DOCKED: ATOM     17  O   UNL     1     141.348  75.372 222.075 -0.38 +0.06    -0.273 OA 
DOCKED: BRANCH  16  18
DOCKED: ATOM     18  N   UNL     1     141.280  75.672 219.738 -0.05 +0.12    -0.334 N  
DOCKED: ATOM     19  C   UNL     1     140.778  77.026 219.451 -0.11 -0.05    +0.120 C  
DOCKED: ATOM     20  C   UNL     1     142.152  74.983 218.848 -0.13 -0.04    +0.115 C  
DOCKED: ATOM     21  C   UNL     1     142.004  77.819 219.055 -0.28 -0.01    +0.022 C  
DOCKED: ATOM     22  C   UNL     1     142.874  75.795 217.845 -0.20 -0.01    +0.030 C  
DOCKED: ATOM     23  C   UNL     1     142.513  77.243 217.763 -0.27 -0.00    +0.004 C  
DOCKED: BRANCH  20  24
DOCKED: ATOM     24  C   UNL     1     143.168  74.234 219.671 -0.28 +0.01    -0.025 A  
DOCKED: ATOM     25  C   UNL     1     144.338  74.843 220.097 -0.44 -0.00    +0.006 A  
DOCKED: ATOM     26  C   UNL     1     142.961  72.913 220.025 -0.24 -0.00    +0.006 A  
DOCKED: ATOM     27  C   UNL     1     145.275  74.150 220.856 -0.57 -0.00    +0.000 A  
DOCKED: ATOM     28  C   UNL     1     143.877  72.193 220.782 -0.34 -0.00    +0.000 A  
DOCKED: ATOM     29  C   UNL     1     145.045  72.826 221.198 -0.47 -0.00    +0.000 A  
DOCKED: ENDBRANCH  20  24
DOCKED: ENDBRANCH  16  18
DOCKED: ENDBRANCH   1  16
DOCKED: TORSDOF 5
DOCKED: TER
DOCKED: ENDMDL
________________________________________________________________________________


    FINAL DOCKED STATE:
    ________________________


Run:   8 / 20
Time taken for this run:   0.026s

DOCKED: MODEL        8
DOCKED: USER    Run = 8
DOCKED: USER
DOCKED: USER    Estimated Free Energy of Binding    =  -7.79 kcal/mol  [=(1)+(2)+(3)-(4)]
DOCKED: USER
DOCKED: USER    (1) Final Intermolecular Energy     =  -9.28 kcal/mol
DOCKED: USER        vdW + Hbond + desolv Energy     =  -9.30 kcal/mol
DOCKED: USER        Electrostatic Energy            =  +0.02 kcal/mol
DOCKED: USER        Moving Ligand-Fixed Receptor    =  -9.28 kcal/mol
DOCKED: USER        Moving Ligand-Moving Receptor   =  +0.00 kcal/mol
DOCKED: USER    (2) Final Total Internal Energy     =  -2.39 kcal/mol
DOCKED: USER    (3) Torsional Free Energy           =  +1.49 kcal/mol
DOCKED: USER    (4) Unbound System's Energy         =  -2.39 kcal/mol
DOCKED: USER
DOCKED: USER
DOCKED: REMARK SMILES O=C(NCC(=O)N1CCCC[C@H]1c1ccccc1)c1ccc2ccccc2n1
DOCKED: REMARK SMILES IDX 4 1 3 2 2 3 1 4 19 6 20 7 28 8 21 9 27 10 22 11 26 12 23 13
DOCKED: REMARK SMILES IDX 25 14 24 15 5 16 6 17 7 18 8 19 12 20 9 21 11 22 10 23 13 24
DOCKED: REMARK SMILES IDX 14 25 18 26 15 27 17 28 16 29
DOCKED: REMARK H PARENT 3 5
DOCKED: USER                              x       y       z     vdW  Elec       q    Type
DOCKED: USER                           _______ _______ _______ _____ _____    ______ ____
DOCKED: ROOT
DOCKED: ATOM      1  C   UNL     1     140.830  73.657 221.272 -0.20 -0.03    +0.216 C  
DOCKED: ENDROOT
DOCKED: BRANCH   1   2
DOCKED: ATOM      2  N   UNL     1     141.021  75.013 221.734 -0.17 +0.06    -0.342 N  
DOCKED: ATOM      3  C   UNL     1     139.924  75.896 221.951 -0.24 -0.06    +0.270 C  
DOCKED: ATOM      4  O   UNL     1     138.729  75.502 221.740 -0.19 +0.06    -0.268 OA 
DOCKED: ATOM      5  H   UNL     1     141.977  75.403 221.927 -0.36 -0.07    +0.164 HD 
DOCKED: BRANCH   3   6
DOCKED: ATOM      6  C   UNL     1     140.168  77.258 222.417 -0.32 -0.03    +0.128 A  
DOCKED: ATOM      7  C   UNL     1     139.106  78.069 222.753 -0.29 -0.01    +0.035 A  
DOCKED: ATOM      8  N   UNL     1     141.431  77.735 222.525 -0.23 +0.12    -0.243 NA 
DOCKED: ATOM      9  C   UNL     1     139.272  79.362 223.198 -0.36 -0.00    +0.013 A  
DOCKED: ATOM     10  C   UNL     1     141.630  78.994 222.957 -0.50 -0.03    +0.071 A  
DOCKED: ATOM     11  C   UNL     1     140.576  79.823 223.298 -0.47 -0.00    +0.000 A  
DOCKED: ATOM     12  C   UNL     1     142.905  79.531 223.085 -0.55 -0.01    +0.029 A  
DOCKED: ATOM     13  C   UNL     1     140.747  81.111 223.742 -0.37 -0.00    +0.010 A  
DOCKED: ATOM     14  C   UNL     1     143.084  80.840 223.536 -0.59 -0.00    +0.002 A  
DOCKED: ATOM     15  C   UNL     1     142.009  81.644 223.869 -0.54 -0.00    +0.001 A  
DOCKED: ENDBRANCH   3   6
DOCKED: ENDBRANCH   1   2
DOCKED: BRANCH   1  16
DOCKED: ATOM     16  C   UNL     1     141.799  73.343 220.188 -0.12 -0.05    +0.242 C  
DOCKED: ATOM     17  O   UNL     1     141.311  73.233 219.016 -0.02 +0.06    -0.273 OA 
DOCKED: BRANCH  16  18
DOCKED: ATOM     18  N   UNL     1     143.176  73.182 220.458 -0.12 +0.06    -0.334 N  
DOCKED: ATOM     19  C   UNL     1     143.713  71.817 220.583 -0.24 -0.02    +0.120 C  
DOCKED: ATOM     20  C   UNL     1     143.997  74.336 220.599 -0.27 -0.04    +0.115 C  
DOCKED: ATOM     21  C   UNL     1     144.947  71.803 219.708 -0.32 +0.00    +0.022 C  
DOCKED: ATOM     22  C   UNL     1     145.458  74.146 220.460 -0.52 -0.01    +0.030 C  
DOCKED: ATOM     23  C   UNL     1     145.946  72.740 220.328 -0.54 +0.00    +0.004 C  
DOCKED: BRANCH  20  24
DOCKED: ATOM     24  C   UNL     1     143.554  75.357 219.584 -0.38 +0.01    -0.025 A  
DOCKED: ATOM     25  C   UNL     1     143.701  75.131 218.225 -0.22 -0.00    +0.006 A  
DOCKED: ATOM     26  C   UNL     1     142.985  76.554 219.982 -0.28 -0.00    +0.006 A  
DOCKED: ATOM     27  C   UNL     1     143.291  76.074 217.289 -0.24 -0.00    +0.000 A  
DOCKED: ATOM     28  C   UNL     1     142.566  77.517 219.074 -0.33 -0.00    +0.000 A  
DOCKED: ATOM     29  C   UNL     1     142.724  77.267 217.713 -0.29 -0.00    +0.000 A  
DOCKED: ENDBRANCH  20  24
DOCKED: ENDBRANCH  16  18
DOCKED: ENDBRANCH   1  16
DOCKED: TORSDOF 5
DOCKED: TER
DOCKED: ENDMDL
________________________________________________________________________________


    FINAL DOCKED STATE:
    ________________________


Run:   9 / 20
Time taken for this run:   0.026s

DOCKED: MODEL        9
DOCKED: USER    Run = 9
DOCKED: USER
DOCKED: USER    Estimated Free Energy of Binding    =  -8.00 kcal/mol  [=(1)+(2)+(3)-(4)]
DOCKED: USER
DOCKED: USER    (1) Final Intermolecular Energy     =  -9.49 kcal/mol
DOCKED: USER        vdW + Hbond + desolv Energy     =  -9.52 kcal/mol
DOCKED: USER        Electrostatic Energy            =  +0.03 kcal/mol
DOCKED: USER        Moving Ligand-Fixed Receptor    =  -9.49 kcal/mol
DOCKED: USER        Moving Ligand-Moving Receptor   =  +0.00 kcal/mol
DOCKED: USER    (2) Final Total Internal Energy     =  -2.46 kcal/mol
DOCKED: USER    (3) Torsional Free Energy           =  +1.49 kcal/mol
DOCKED: USER    (4) Unbound System's Energy         =  -2.46 kcal/mol
DOCKED: USER
DOCKED: USER
DOCKED: REMARK SMILES O=C(NCC(=O)N1CCCC[C@H]1c1ccccc1)c1ccc2ccccc2n1
DOCKED: REMARK SMILES IDX 4 1 3 2 2 3 1 4 19 6 20 7 28 8 21 9 27 10 22 11 26 12 23 13
DOCKED: REMARK SMILES IDX 25 14 24 15 5 16 6 17 7 18 8 19 12 20 9 21 11 22 10 23 13 24
DOCKED: REMARK SMILES IDX 14 25 18 26 15 27 17 28 16 29
DOCKED: REMARK H PARENT 3 5
DOCKED: USER                              x       y       z     vdW  Elec       q    Type
DOCKED: USER                           _______ _______ _______ _____ _____    ______ ____
DOCKED: ROOT
DOCKED: ATOM      1  C   UNL     1     140.410  73.588 220.737 -0.14 -0.04    +0.216 C  
DOCKED: ENDROOT
DOCKED: BRANCH   1   2
DOCKED: ATOM      2  N   UNL     1     140.425  72.933 222.025 -0.16 +0.03    -0.342 N  
DOCKED: ATOM      3  C   UNL     1     139.927  71.610 222.203 -0.18 -0.04    +0.270 C  
DOCKED: ATOM      4  O   UNL     1     139.450  70.963 221.212 -0.07 +0.05    -0.268 OA 
DOCKED: ATOM      5  H   UNL     1     140.803  73.406 222.883 +0.04 +0.04    +0.164 HD 
DOCKED: BRANCH   3   6
DOCKED: ATOM      6  C   UNL     1     139.964  70.991 223.525 -0.30 -0.02    +0.128 A  
DOCKED: ATOM      7  C   UNL     1     139.467  69.717 223.700 -0.26 -0.01    +0.035 A  
DOCKED: ATOM      8  N   UNL     1     140.482  71.656 224.585 -0.29 +0.04    -0.243 NA 
DOCKED: ATOM      9  C   UNL     1     139.474  69.081 224.921 -0.39 -0.00    +0.013 A  
DOCKED: ATOM     10  C   UNL     1     140.504  71.063 225.793 -0.54 -0.01    +0.071 A  
DOCKED: ATOM     11  C   UNL     1     140.010  69.786 225.987 -0.49 -0.00    +0.000 A  
DOCKED: ATOM     12  C   UNL     1     141.024  71.702 226.912 -0.74 -0.00    +0.029 A  
DOCKED: ATOM     13  C   UNL     1     140.019  69.155 227.208 -0.59 -0.00    +0.010 A  
DOCKED: ATOM     14  C   UNL     1     141.036  71.065 228.154 -0.70 -0.00    +0.002 A  
DOCKED: ATOM     15  C   UNL     1     140.534  69.786 228.316 -0.60 -0.00    +0.001 A  
DOCKED: ENDBRANCH   3   6
DOCKED: ENDBRANCH   1   2
DOCKED: BRANCH   1  16
DOCKED: ATOM     16  C   UNL     1     141.155  74.874 220.808 -0.19 -0.06    +0.242 C  
DOCKED: ATOM     17  O   UNL     1     141.440  75.292 221.977 -0.41 +0.06    -0.273 OA 
DOCKED: BRANCH  16  18
DOCKED: ATOM     18  N   UNL     1     141.519  75.577 219.638 -0.06 +0.12    -0.334 N  
DOCKED: ATOM     19  C   UNL     1     140.979  76.930 219.434 -0.13 -0.05    +0.120 C  
DOCKED: ATOM     20  C   UNL     1     142.392  74.959 218.698 -0.14 -0.04    +0.115 C  
DOCKED: ATOM     21  C   UNL     1     142.177  77.776 219.062 -0.29 -0.01    +0.022 C  
DOCKED: ATOM     22  C   UNL     1     143.077  75.843 217.729 -0.22 -0.02    +0.030 C  
DOCKED: ATOM     23  C   UNL     1     142.678  77.284 217.732 -0.29 -0.00    +0.004 C  
DOCKED: BRANCH  20  24
DOCKED: ATOM     24  C   UNL     1     143.441  74.194 219.463 -0.28 +0.01    -0.025 A  
DOCKED: ATOM     25  C   UNL     1     144.466  74.848 220.129 -0.42 -0.00    +0.006 A  
DOCKED: ATOM     26  C   UNL     1     143.411  72.812 219.522 -0.21 -0.00    +0.006 A  
DOCKED: ATOM     27  C   UNL     1     145.434  74.140 220.834 -0.61 -0.00    +0.000 A  
DOCKED: ATOM     28  C   UNL     1     144.362  72.076 220.216 -0.35 -0.00    +0.000 A  
DOCKED: ATOM     29  C   UNL     1     145.382  72.755 220.878 -0.53 -0.00    +0.000 A  
DOCKED: ENDBRANCH  20  24
DOCKED: ENDBRANCH  16  18
DOCKED: ENDBRANCH   1  16
DOCKED: TORSDOF 5
DOCKED: TER
DOCKED: ENDMDL
________________________________________________________________________________


    FINAL DOCKED STATE:
    ________________________


Run:   10 / 20
Time taken for this run:   0.026s

DOCKED: MODEL        10
DOCKED: USER    Run = 10
DOCKED: USER
DOCKED: USER    Estimated Free Energy of Binding    =  -8.57 kcal/mol  [=(1)+(2)+(3)-(4)]
DOCKED: USER
DOCKED: USER    (1) Final Intermolecular Energy     = -10.06 kcal/mol
DOCKED: USER        vdW + Hbond + desolv Energy     = -10.03 kcal/mol
DOCKED: USER        Electrostatic Energy            =  -0.03 kcal/mol
DOCKED: USER        Moving Ligand-Fixed Receptor    = -10.06 kcal/mol
DOCKED: USER        Moving Ligand-Moving Receptor   =  +0.00 kcal/mol
DOCKED: USER    (2) Final Total Internal Energy     =  -2.08 kcal/mol
DOCKED: USER    (3) Torsional Free Energy           =  +1.49 kcal/mol
DOCKED: USER    (4) Unbound System's Energy         =  -2.08 kcal/mol
DOCKED: USER
DOCKED: USER
DOCKED: REMARK SMILES O=C(NCC(=O)N1CCCC[C@H]1c1ccccc1)c1ccc2ccccc2n1
DOCKED: REMARK SMILES IDX 4 1 3 2 2 3 1 4 19 6 20 7 28 8 21 9 27 10 22 11 26 12 23 13
DOCKED: REMARK SMILES IDX 25 14 24 15 5 16 6 17 7 18 8 19 12 20 9 21 11 22 10 23 13 24
DOCKED: REMARK SMILES IDX 14 25 18 26 15 27 17 28 16 29
DOCKED: REMARK H PARENT 3 5
DOCKED: USER                              x       y       z     vdW  Elec       q    Type
DOCKED: USER                           _______ _______ _______ _____ _____    ______ ____
DOCKED: ROOT
DOCKED: ATOM      1  C   UNL     1     139.975  74.069 220.947 -0.16 -0.04    +0.216 C  
DOCKED: ENDROOT
DOCKED: BRANCH   1   2
DOCKED: ATOM      2  N   UNL     1     139.909  73.358 222.204 -0.15 +0.04    -0.342 N  
DOCKED: ATOM      3  C   UNL     1     140.216  71.971 222.301 -0.20 -0.04    +0.270 C  
DOCKED: ATOM      4  O   UNL     1     140.563  71.314 221.263 -0.11 +0.04    -0.268 OA 
DOCKED: ATOM      5  H   UNL     1     139.631  73.836 223.096 -0.49 -0.02    +0.164 HD 
DOCKED: BRANCH   3   6
DOCKED: ATOM      6  C   UNL     1     140.135  71.296 223.593 -0.32 -0.02    +0.128 A  
DOCKED: ATOM      7  C   UNL     1     139.550  70.051 223.681 -0.28 -0.01    +0.035 A  
DOCKED: ATOM      8  N   UNL     1     140.629  71.882 224.710 -0.27 +0.03    -0.243 NA 
DOCKED: ATOM      9  C   UNL     1     139.444  69.365 224.871 -0.38 -0.00    +0.013 A  
DOCKED: ATOM     10  C   UNL     1     140.541  71.239 225.890 -0.55 -0.01    +0.071 A  
DOCKED: ATOM     11  C   UNL     1     139.958  69.990 225.997 -0.50 -0.00    +0.000 A  
DOCKED: ATOM     12  C   UNL     1     141.033  71.796 227.064 -0.76 -0.01    +0.029 A  
DOCKED: ATOM     13  C   UNL     1     139.854  69.309 227.186 -0.57 -0.00    +0.010 A  
DOCKED: ATOM     14  C   UNL     1     140.930  71.109 228.275 -0.68 -0.00    +0.002 A  
DOCKED: ATOM     15  C   UNL     1     140.340  69.859 228.350 -0.59 -0.00    +0.001 A  
DOCKED: ENDBRANCH   3   6
DOCKED: ENDBRANCH   1   2
DOCKED: BRANCH   1  16
DOCKED: ATOM     16  C   UNL     1     140.830  75.279 221.087 -0.21 -0.06    +0.242 C  
DOCKED: ATOM     17  O   UNL     1     141.153  75.601 222.276 -0.39 +0.06    -0.273 OA 
DOCKED: BRANCH  16  18
DOCKED: ATOM     18  N   UNL     1     141.252  76.014 219.957 -0.07 +0.13    -0.334 N  
DOCKED: ATOM     19  C   UNL     1     140.841  77.423 219.842 -0.15 -0.05    +0.120 C  
DOCKED: ATOM     20  C   UNL     1     142.056  75.375 218.972 -0.15 -0.04    +0.115 C  
DOCKED: ATOM     21  C   UNL     1     142.112  78.172 219.507 -0.24 -0.01    +0.022 C  
DOCKED: ATOM     22  C   UNL     1     142.815  76.249 218.050 -0.25 -0.02    +0.030 C  
DOCKED: ATOM     23  C   UNL     1     142.555  77.718 218.144 -0.32 -0.00    +0.004 C  
DOCKED: BRANCH  20  24
DOCKED: ATOM     24  C   UNL     1     143.033  74.469 219.676 -0.29 +0.01    -0.025 A  
DOCKED: ATOM     25  C   UNL     1     144.227  74.955 220.185 -0.41 -0.00    +0.006 A  
DOCKED: ATOM     26  C   UNL     1     142.764  73.121 219.834 -0.21 -0.00    +0.006 A  
DOCKED: ATOM     27  C   UNL     1     145.127  74.118 220.834 -0.56 -0.00    +0.000 A  
DOCKED: ATOM     28  C   UNL     1     143.642  72.258 220.476 -0.32 -0.00    +0.000 A  
DOCKED: ATOM     29  C   UNL     1     144.835  72.770 220.980 -0.46 -0.00    +0.000 A  
DOCKED: ENDBRANCH  20  24
DOCKED: ENDBRANCH  16  18
DOCKED: ENDBRANCH   1  16
DOCKED: TORSDOF 5
DOCKED: TER
DOCKED: ENDMDL
________________________________________________________________________________


    FINAL DOCKED STATE:
    ________________________


Run:   11 / 20
Time taken for this run:   0.026s

DOCKED: MODEL        11
DOCKED: USER    Run = 11
DOCKED: USER
DOCKED: USER    Estimated Free Energy of Binding    =  -7.80 kcal/mol  [=(1)+(2)+(3)-(4)]
DOCKED: USER
DOCKED: USER    (1) Final Intermolecular Energy     =  -9.29 kcal/mol
DOCKED: USER        vdW + Hbond + desolv Energy     =  -9.31 kcal/mol
DOCKED: USER        Electrostatic Energy            =  +0.02 kcal/mol
DOCKED: USER        Moving Ligand-Fixed Receptor    =  -9.29 kcal/mol
DOCKED: USER        Moving Ligand-Moving Receptor   =  +0.00 kcal/mol
DOCKED: USER    (2) Final Total Internal Energy     =  -2.38 kcal/mol
DOCKED: USER    (3) Torsional Free Energy           =  +1.49 kcal/mol
DOCKED: USER    (4) Unbound System's Energy         =  -2.38 kcal/mol
DOCKED: USER
DOCKED: USER
DOCKED: REMARK SMILES O=C(NCC(=O)N1CCCC[C@H]1c1ccccc1)c1ccc2ccccc2n1
DOCKED: REMARK SMILES IDX 4 1 3 2 2 3 1 4 19 6 20 7 28 8 21 9 27 10 22 11 26 12 23 13
DOCKED: REMARK SMILES IDX 25 14 24 15 5 16 6 17 7 18 8 19 12 20 9 21 11 22 10 23 13 24
DOCKED: REMARK SMILES IDX 14 25 18 26 15 27 17 28 16 29
DOCKED: REMARK H PARENT 3 5
DOCKED: USER                              x       y       z     vdW  Elec       q    Type
DOCKED: USER                           _______ _______ _______ _____ _____    ______ ____
DOCKED: ROOT
DOCKED: ATOM      1  C   UNL     1     140.824  73.648 221.220 -0.20 -0.03    +0.216 C  
DOCKED: ENDROOT
DOCKED: BRANCH   1   2
DOCKED: ATOM      2  N   UNL     1     141.024  75.005 221.678 -0.18 +0.06    -0.342 N  
DOCKED: ATOM      3  C   UNL     1     139.930  75.871 221.965 -0.24 -0.05    +0.270 C  
DOCKED: ATOM      4  O   UNL     1     138.730  75.462 221.822 -0.20 +0.06    -0.268 OA 
DOCKED: ATOM      5  H   UNL     1     141.984  75.407 221.817 -0.34 -0.07    +0.164 HD 
DOCKED: BRANCH   3   6
DOCKED: ATOM      6  C   UNL     1     140.183  77.234 222.424 -0.32 -0.03    +0.128 A  
DOCKED: ATOM      7  C   UNL     1     139.125  78.059 222.740 -0.30 -0.01    +0.035 A  
DOCKED: ATOM      8  N   UNL     1     141.450  77.698 222.544 -0.22 +0.12    -0.243 NA 
DOCKED: ATOM      9  C   UNL     1     139.300  79.353 223.179 -0.36 -0.00    +0.013 A  
DOCKED: ATOM     10  C   UNL     1     141.657  78.958 222.970 -0.51 -0.03    +0.071 A  
DOCKED: ATOM     11  C   UNL     1     140.607  79.800 223.291 -0.47 -0.00    +0.000 A  
DOCKED: ATOM     12  C   UNL     1     142.936  79.482 223.110 -0.52 -0.01    +0.029 A  
DOCKED: ATOM     13  C   UNL     1     140.787  81.090 223.729 -0.39 -0.00    +0.010 A  
DOCKED: ATOM     14  C   UNL     1     143.123  80.792 223.554 -0.60 -0.00    +0.002 A  
DOCKED: ATOM     15  C   UNL     1     142.053  81.610 223.868 -0.56 -0.00    +0.001 A  
DOCKED: ENDBRANCH   3   6
DOCKED: ENDBRANCH   1   2
DOCKED: BRANCH   1  16
DOCKED: ATOM     16  C   UNL     1     141.804  73.319 220.150 -0.12 -0.05    +0.242 C  
DOCKED: ATOM     17  O   UNL     1     141.328  73.192 218.975 -0.02 +0.06    -0.273 OA 
DOCKED: BRANCH  16  18
DOCKED: ATOM     18  N   UNL     1     143.178  73.162 220.436 -0.12 +0.06    -0.334 N  
DOCKED: ATOM     19  C   UNL     1     143.716  71.799 220.573 -0.24 -0.02    +0.120 C  
DOCKED: ATOM     20  C   UNL     1     143.996  74.318 220.580 -0.29 -0.04    +0.115 C  
DOCKED: ATOM     21  C   UNL     1     144.960  71.783 219.712 -0.32 +0.00    +0.022 C  
DOCKED: ATOM     22  C   UNL     1     145.458  74.131 220.458 -0.52 -0.01    +0.030 C  
DOCKED: ATOM     23  C   UNL     1     145.951  72.725 220.338 -0.54 +0.00    +0.004 C  
DOCKED: BRANCH  20  24
DOCKED: ATOM     24  C   UNL     1     143.561  75.334 219.555 -0.38 +0.01    -0.025 A  
DOCKED: ATOM     25  C   UNL     1     143.710  75.095 218.198 -0.21 -0.00    +0.006 A  
DOCKED: ATOM     26  C   UNL     1     143.000  76.538 219.941 -0.29 -0.00    +0.006 A  
DOCKED: ATOM     27  C   UNL     1     143.308  76.033 217.253 -0.23 -0.00    +0.000 A  
DOCKED: ATOM     28  C   UNL     1     142.589  77.496 219.024 -0.33 -0.00    +0.000 A  
DOCKED: ATOM     29  C   UNL     1     142.748  77.233 217.666 -0.29 -0.00    +0.000 A  
DOCKED: ENDBRANCH  20  24
DOCKED: ENDBRANCH  16  18
DOCKED: ENDBRANCH   1  16
DOCKED: TORSDOF 5
DOCKED: TER
DOCKED: ENDMDL
________________________________________________________________________________


    FINAL DOCKED STATE:
    ________________________


Run:   12 / 20
Time taken for this run:   0.026s

DOCKED: MODEL        12
DOCKED: USER    Run = 12
DOCKED: USER
DOCKED: USER    Estimated Free Energy of Binding    =  -8.47 kcal/mol  [=(1)+(2)+(3)-(4)]
DOCKED: USER
DOCKED: USER    (1) Final Intermolecular Energy     =  -9.96 kcal/mol
DOCKED: USER        vdW + Hbond + desolv Energy     =  -9.97 kcal/mol
DOCKED: USER        Electrostatic Energy            =  +0.01 kcal/mol
DOCKED: USER        Moving Ligand-Fixed Receptor    =  -9.96 kcal/mol
DOCKED: USER        Moving Ligand-Moving Receptor   =  +0.00 kcal/mol
DOCKED: USER    (2) Final Total Internal Energy     =  -2.17 kcal/mol
DOCKED: USER    (3) Torsional Free Energy           =  +1.49 kcal/mol
DOCKED: USER    (4) Unbound System's Energy         =  -2.17 kcal/mol
DOCKED: USER
DOCKED: USER
DOCKED: REMARK SMILES O=C(NCC(=O)N1CCCC[C@H]1c1ccccc1)c1ccc2ccccc2n1
DOCKED: REMARK SMILES IDX 4 1 3 2 2 3 1 4 19 6 20 7 28 8 21 9 27 10 22 11 26 12 23 13
DOCKED: REMARK SMILES IDX 25 14 24 15 5 16 6 17 7 18 8 19 12 20 9 21 11 22 10 23 13 24
DOCKED: REMARK SMILES IDX 14 25 18 26 15 27 17 28 16 29
DOCKED: REMARK H PARENT 3 5
DOCKED: USER                              x       y       z     vdW  Elec       q    Type
DOCKED: USER                           _______ _______ _______ _____ _____    ______ ____
DOCKED: ROOT
DOCKED: ATOM      1  C   UNL     1     139.994  74.014 220.909 -0.15 -0.04    +0.216 C  
DOCKED: ENDROOT
DOCKED: BRANCH   1   2
DOCKED: ATOM      2  N   UNL     1     139.973  73.324 222.179 -0.15 +0.04    -0.342 N  
DOCKED: ATOM      3  C   UNL     1     140.133  71.911 222.270 -0.20 -0.04    +0.270 C  
DOCKED: ATOM      4  O   UNL     1     140.301  71.212 221.216 -0.10 +0.04    -0.268 OA 
DOCKED: ATOM      5  H   UNL     1     139.839  73.836 223.085 -0.39 +0.01    +0.164 HD 
DOCKED: BRANCH   3   6
DOCKED: ATOM      6  C   UNL     1     140.104  71.259 223.576 -0.32 -0.02    +0.128 A  
DOCKED: ATOM      7  C   UNL     1     139.574  69.993 223.699 -0.28 -0.01    +0.035 A  
DOCKED: ATOM      8  N   UNL     1     140.593  71.886 224.672 -0.27 +0.03    -0.243 NA 
DOCKED: ATOM      9  C   UNL     1     139.519  69.326 224.903 -0.38 -0.00    +0.013 A  
DOCKED: ATOM     10  C   UNL     1     140.555  71.264 225.865 -0.54 -0.01    +0.071 A  
DOCKED: ATOM     11  C   UNL     1     140.027  69.993 226.007 -0.50 -0.00    +0.000 A  
DOCKED: ATOM     12  C   UNL     1     141.045  71.863 227.019 -0.76 -0.01    +0.029 A  
DOCKED: ATOM     13  C   UNL     1     139.975  69.332 227.210 -0.58 -0.00    +0.010 A  
DOCKED: ATOM     14  C   UNL     1     140.993  71.196 228.244 -0.71 -0.00    +0.002 A  
DOCKED: ATOM     15  C   UNL     1     140.459  69.925 228.354 -0.58 -0.00    +0.001 A  
DOCKED: ENDBRANCH   3   6
DOCKED: ENDBRANCH   1   2
DOCKED: BRANCH   1  16
DOCKED: ATOM     16  C   UNL     1     140.959  75.146 220.957 -0.20 -0.06    +0.242 C  
DOCKED: ATOM     17  O   UNL     1     141.379  75.474 222.114 -0.34 +0.07    -0.273 OA 
DOCKED: BRANCH  16  18
DOCKED: ATOM     18  N   UNL     1     141.375  75.806 219.780 -0.06 +0.13    -0.334 N  
DOCKED: ATOM     19  C   UNL     1     140.913  77.184 219.546 -0.14 -0.05    +0.120 C  
DOCKED: ATOM     20  C   UNL     1     142.224  75.124 218.863 -0.14 -0.04    +0.115 C  
DOCKED: ATOM     21  C   UNL     1     142.161  77.955 219.174 -0.29 -0.01    +0.022 C  
DOCKED: ATOM     22  C   UNL     1     142.968  75.952 217.887 -0.23 -0.02    +0.030 C  
DOCKED: ATOM     23  C   UNL     1     142.649  77.412 217.860 -0.30 -0.00    +0.004 C  
DOCKED: BRANCH  20  24
DOCKED: ATOM     24  C   UNL     1     143.220  74.316 219.654 -0.29 +0.01    -0.025 A  
DOCKED: ATOM     25  C   UNL     1     142.986  72.984 219.957 -0.23 -0.00    +0.006 A  
DOCKED: ATOM     26  C   UNL     1     144.399  74.884 220.103 -0.43 -0.00    +0.006 A  
DOCKED: ATOM     27  C   UNL     1     143.906  72.240 220.687 -0.34 -0.00    +0.000 A  
DOCKED: ATOM     28  C   UNL     1     145.338  74.169 220.835 -0.58 -0.00    +0.000 A  
DOCKED: ATOM     29  C   UNL     1     145.081  72.832 221.126 -0.49 -0.00    +0.000 A  
DOCKED: ENDBRANCH  20  24
DOCKED: ENDBRANCH  16  18
DOCKED: ENDBRANCH   1  16
DOCKED: TORSDOF 5
DOCKED: TER
DOCKED: ENDMDL
________________________________________________________________________________


    FINAL DOCKED STATE:
    ________________________


Run:   13 / 20
Time taken for this run:   0.026s

DOCKED: MODEL        13
DOCKED: USER    Run = 13
DOCKED: USER
DOCKED: USER    Estimated Free Energy of Binding    =  -8.58 kcal/mol  [=(1)+(2)+(3)-(4)]
DOCKED: USER
DOCKED: USER    (1) Final Intermolecular Energy     = -10.07 kcal/mol
DOCKED: USER        vdW + Hbond + desolv Energy     = -10.04 kcal/mol
DOCKED: USER        Electrostatic Energy            =  -0.04 kcal/mol
DOCKED: USER        Moving Ligand-Fixed Receptor    = -10.07 kcal/mol
DOCKED: USER        Moving Ligand-Moving Receptor   =  +0.00 kcal/mol
DOCKED: USER    (2) Final Total Internal Energy     =  -2.06 kcal/mol
DOCKED: USER    (3) Torsional Free Energy           =  +1.49 kcal/mol
DOCKED: USER    (4) Unbound System's Energy         =  -2.06 kcal/mol
DOCKED: USER
DOCKED: USER
DOCKED: REMARK SMILES O=C(NCC(=O)N1CCCC[C@H]1c1ccccc1)c1ccc2ccccc2n1
DOCKED: REMARK SMILES IDX 4 1 3 2 2 3 1 4 19 6 20 7 28 8 21 9 27 10 22 11 26 12 23 13
DOCKED: REMARK SMILES IDX 25 14 24 15 5 16 6 17 7 18 8 19 12 20 9 21 11 22 10 23 13 24
DOCKED: REMARK SMILES IDX 14 25 18 26 15 27 17 28 16 29
DOCKED: REMARK H PARENT 3 5
DOCKED: USER                              x       y       z     vdW  Elec       q    Type
DOCKED: USER                           _______ _______ _______ _____ _____    ______ ____
DOCKED: ROOT
DOCKED: ATOM      1  C   UNL     1     140.013  74.043 220.952 -0.16 -0.04    +0.216 C  
DOCKED: ENDROOT
DOCKED: BRANCH   1   2
DOCKED: ATOM      2  N   UNL     1     139.934  73.333 222.209 -0.15 +0.04    -0.342 N  
DOCKED: ATOM      3  C   UNL     1     140.266  71.952 222.316 -0.20 -0.04    +0.270 C  
DOCKED: ATOM      4  O   UNL     1     140.646  71.300 221.287 -0.12 +0.04    -0.268 OA 
DOCKED: ATOM      5  H   UNL     1     139.629  73.807 223.095 -0.49 -0.02    +0.164 HD 
DOCKED: BRANCH   3   6
DOCKED: ATOM      6  C   UNL     1     140.170  71.278 223.607 -0.32 -0.02    +0.128 A  
DOCKED: ATOM      7  C   UNL     1     139.562  70.044 223.694 -0.28 -0.01    +0.035 A  
DOCKED: ATOM      8  N   UNL     1     140.673  71.854 224.725 -0.27 +0.03    -0.243 NA 
DOCKED: ATOM      9  C   UNL     1     139.442  69.360 224.884 -0.38 -0.00    +0.013 A  
DOCKED: ATOM     10  C   UNL     1     140.572  71.212 225.905 -0.55 -0.01    +0.071 A  
DOCKED: ATOM     11  C   UNL     1     139.966  69.974 226.011 -0.50 -0.00    +0.000 A  
DOCKED: ATOM     12  C   UNL     1     141.072  71.759 227.080 -0.76 -0.01    +0.029 A  
DOCKED: ATOM     13  C   UNL     1     139.848  69.294 227.199 -0.57 -0.00    +0.010 A  
DOCKED: ATOM     14  C   UNL     1     140.955  71.073 228.290 -0.67 -0.00    +0.002 A  
DOCKED: ATOM     15  C   UNL     1     140.342  69.835 228.363 -0.58 -0.00    +0.001 A  
DOCKED: ENDBRANCH   3   6
DOCKED: ENDBRANCH   1   2
DOCKED: BRANCH   1  16
DOCKED: ATOM     16  C   UNL     1     140.821  75.282 221.114 -0.21 -0.06    +0.242 C  
DOCKED: ATOM     17  O   UNL     1     141.108  75.610 222.311 -0.40 +0.05    -0.273 OA 
DOCKED: BRANCH  16  18
DOCKED: ATOM     18  N   UNL     1     141.238  76.037 219.996 -0.07 +0.13    -0.334 N  
DOCKED: ATOM     19  C   UNL     1     140.833  77.449 219.910 -0.15 -0.05    +0.120 C  
DOCKED: ATOM     20  C   UNL     1     142.033  75.414 218.992 -0.15 -0.04    +0.115 C  
DOCKED: ATOM     21  C   UNL     1     142.105  78.200 219.581 -0.23 -0.01    +0.022 C  
DOCKED: ATOM     22  C   UNL     1     142.790  76.301 218.082 -0.25 -0.02    +0.030 C  
DOCKED: ATOM     23  C   UNL     1     142.536  77.769 218.206 -0.32 -0.00    +0.004 C  
DOCKED: BRANCH  20  24
DOCKED: ATOM     24  C   UNL     1     143.010  74.490 219.673 -0.29 +0.01    -0.025 A  
DOCKED: ATOM     25  C   UNL     1     142.752  73.134 219.794 -0.21 -0.00    +0.006 A  
DOCKED: ATOM     26  C   UNL     1     144.196  74.972 220.197 -0.40 -0.00    +0.006 A  
DOCKED: ATOM     27  C   UNL     1     143.655  72.282 220.422 -0.32 -0.00    +0.000 A  
DOCKED: ATOM     28  C   UNL     1     145.118  74.149 220.831 -0.55 -0.00    +0.000 A  
DOCKED: ATOM     29  C   UNL     1     144.837  72.790 220.941 -0.47 -0.00    +0.000 A  
DOCKED: ENDBRANCH  20  24
DOCKED: ENDBRANCH  16  18
DOCKED: ENDBRANCH   1  16
DOCKED: TORSDOF 5
DOCKED: TER
DOCKED: ENDMDL
________________________________________________________________________________


    FINAL DOCKED STATE:
    ________________________


Run:   14 / 20
Time taken for this run:   0.026s

DOCKED: MODEL        14
DOCKED: USER    Run = 14
DOCKED: USER
DOCKED: USER    Estimated Free Energy of Binding    =  -8.55 kcal/mol  [=(1)+(2)+(3)-(4)]
DOCKED: USER
DOCKED: USER    (1) Final Intermolecular Energy     = -10.05 kcal/mol
DOCKED: USER        vdW + Hbond + desolv Energy     = -10.01 kcal/mol
DOCKED: USER        Electrostatic Energy            =  -0.03 kcal/mol
DOCKED: USER        Moving Ligand-Fixed Receptor    = -10.05 kcal/mol
DOCKED: USER        Moving Ligand-Moving Receptor   =  +0.00 kcal/mol
DOCKED: USER    (2) Final Total Internal Energy     =  -2.08 kcal/mol
DOCKED: USER    (3) Torsional Free Energy           =  +1.49 kcal/mol
DOCKED: USER    (4) Unbound System's Energy         =  -2.08 kcal/mol
DOCKED: USER
DOCKED: USER
DOCKED: REMARK SMILES O=C(NCC(=O)N1CCCC[C@H]1c1ccccc1)c1ccc2ccccc2n1
DOCKED: REMARK SMILES IDX 4 1 3 2 2 3 1 4 19 6 20 7 28 8 21 9 27 10 22 11 26 12 23 13
DOCKED: REMARK SMILES IDX 25 14 24 15 5 16 6 17 7 18 8 19 12 20 9 21 11 22 10 23 13 24
DOCKED: REMARK SMILES IDX 14 25 18 26 15 27 17 28 16 29
DOCKED: REMARK H PARENT 3 5
DOCKED: USER                              x       y       z     vdW  Elec       q    Type
DOCKED: USER                           _______ _______ _______ _____ _____    ______ ____
DOCKED: ROOT
DOCKED: ATOM      1  C   UNL     1     140.002  74.036 220.946 -0.16 -0.04    +0.216 C  
DOCKED: ENDROOT
DOCKED: BRANCH   1   2
DOCKED: ATOM      2  N   UNL     1     139.930  73.328 222.205 -0.15 +0.04    -0.342 N  
DOCKED: ATOM      3  C   UNL     1     140.226  71.938 222.305 -0.20 -0.04    +0.270 C  
DOCKED: ATOM      4  O   UNL     1     140.567  71.276 221.268 -0.11 +0.04    -0.268 OA 
DOCKED: ATOM      5  H   UNL     1     139.656  73.810 223.096 -0.47 -0.01    +0.164 HD 
DOCKED: BRANCH   3   6
DOCKED: ATOM      6  C   UNL     1     140.138  71.267 223.598 -0.32 -0.02    +0.128 A  
DOCKED: ATOM      7  C   UNL     1     139.542  70.027 223.689 -0.28 -0.01    +0.035 A  
DOCKED: ATOM      8  N   UNL     1     140.637  71.850 224.714 -0.27 +0.03    -0.243 NA 
DOCKED: ATOM      9  C   UNL     1     139.430  69.345 224.880 -0.38 -0.00    +0.013 A  
DOCKED: ATOM     10  C   UNL     1     140.544  71.211 225.895 -0.55 -0.01    +0.071 A  
DOCKED: ATOM     11  C   UNL     1     139.950  69.967 226.005 -0.50 -0.00    +0.000 A  
DOCKED: ATOM     12  C   UNL     1     141.040  71.766 227.068 -0.76 -0.01    +0.029 A  
DOCKED: ATOM     13  C   UNL     1     139.840  69.289 227.195 -0.57 -0.00    +0.010 A  
DOCKED: ATOM     14  C   UNL     1     140.931  71.082 228.280 -0.68 -0.00    +0.002 A  
DOCKED: ATOM     15  C   UNL     1     140.330  69.838 228.358 -0.58 -0.00    +0.001 A  
DOCKED: ENDBRANCH   3   6
DOCKED: ENDBRANCH   1   2
DOCKED: BRANCH   1  16
DOCKED: ATOM     16  C   UNL     1     140.814  75.274 221.101 -0.21 -0.06    +0.242 C  
DOCKED: ATOM     17  O   UNL     1     141.101  75.608 222.296 -0.41 +0.05    -0.273 OA 
DOCKED: BRANCH  16  18
DOCKED: ATOM     18  N   UNL     1     141.233  76.021 219.979 -0.07 +0.13    -0.334 N  
DOCKED: ATOM     19  C   UNL     1     140.822  77.431 219.879 -0.15 -0.05    +0.120 C  
DOCKED: ATOM     20  C   UNL     1     142.037  75.393 218.985 -0.15 -0.04    +0.115 C  
DOCKED: ATOM     21  C   UNL     1     142.091  78.184 219.550 -0.24 -0.01    +0.022 C  
DOCKED: ATOM     22  C   UNL     1     142.794  76.277 218.071 -0.25 -0.02    +0.030 C  
DOCKED: ATOM     23  C   UNL     1     142.533  77.744 218.182 -0.32 -0.00    +0.004 C  
DOCKED: BRANCH  20  24
DOCKED: ATOM     24  C   UNL     1     143.015  74.480 219.679 -0.29 +0.01    -0.025 A  
DOCKED: ATOM     25  C   UNL     1     144.207  74.963 220.196 -0.40 -0.00    +0.006 A  
DOCKED: ATOM     26  C   UNL     1     142.750  73.130 219.819 -0.21 -0.00    +0.006 A  
DOCKED: ATOM     27  C   UNL     1     145.109  74.119 220.835 -0.56 -0.00    +0.000 A  
DOCKED: ATOM     28  C   UNL     1     143.628  72.260 220.451 -0.32 -0.00    +0.000 A  
DOCKED: ATOM     29  C   UNL     1     144.820  72.768 220.963 -0.46 -0.00    +0.000 A  
DOCKED: ENDBRANCH  20  24
DOCKED: ENDBRANCH  16  18
DOCKED: ENDBRANCH   1  16
DOCKED: TORSDOF 5
DOCKED: TER
DOCKED: ENDMDL
________________________________________________________________________________


    FINAL DOCKED STATE:
    ________________________


Run:   15 / 20
Time taken for this run:   0.026s

DOCKED: MODEL        15
DOCKED: USER    Run = 15
DOCKED: USER
DOCKED: USER    Estimated Free Energy of Binding    =  -8.50 kcal/mol  [=(1)+(2)+(3)-(4)]
DOCKED: USER
DOCKED: USER    (1) Final Intermolecular Energy     =  -9.99 kcal/mol
DOCKED: USER        vdW + Hbond + desolv Energy     =  -9.99 kcal/mol
DOCKED: USER        Electrostatic Energy            =  -0.00 kcal/mol
DOCKED: USER        Moving Ligand-Fixed Receptor    =  -9.99 kcal/mol
DOCKED: USER        Moving Ligand-Moving Receptor   =  +0.00 kcal/mol
DOCKED: USER    (2) Final Total Internal Energy     =  -2.12 kcal/mol
DOCKED: USER    (3) Torsional Free Energy           =  +1.49 kcal/mol
DOCKED: USER    (4) Unbound System's Energy         =  -2.12 kcal/mol
DOCKED: USER
DOCKED: USER
DOCKED: REMARK SMILES O=C(NCC(=O)N1CCCC[C@H]1c1ccccc1)c1ccc2ccccc2n1
DOCKED: REMARK SMILES IDX 4 1 3 2 2 3 1 4 19 6 20 7 28 8 21 9 27 10 22 11 26 12 23 13
DOCKED: REMARK SMILES IDX 25 14 24 15 5 16 6 17 7 18 8 19 12 20 9 21 11 22 10 23 13 24
DOCKED: REMARK SMILES IDX 14 25 18 26 15 27 17 28 16 29
DOCKED: REMARK H PARENT 3 5
DOCKED: USER                              x       y       z     vdW  Elec       q    Type
DOCKED: USER                           _______ _______ _______ _____ _____    ______ ____
DOCKED: ROOT
DOCKED: ATOM      1  C   UNL     1     139.943  74.066 220.937 -0.15 -0.04    +0.216 C  
DOCKED: ENDROOT
DOCKED: BRANCH   1   2
DOCKED: ATOM      2  N   UNL     1     139.930  73.360 222.199 -0.15 +0.04    -0.342 N  
DOCKED: ATOM      3  C   UNL     1     140.147  71.954 222.277 -0.20 -0.04    +0.270 C  
DOCKED: ATOM      4  O   UNL     1     140.362  71.276 221.218 -0.10 +0.04    -0.268 OA 
DOCKED: ATOM      5  H   UNL     1     139.759  73.855 223.109 -0.42 +0.00    +0.164 HD 
DOCKED: BRANCH   3   6
DOCKED: ATOM      6  C   UNL     1     140.123  71.286 223.574 -0.32 -0.02    +0.128 A  
DOCKED: ATOM      7  C   UNL     1     139.590  70.019 223.685 -0.27 -0.01    +0.035 A  
DOCKED: ATOM      8  N   UNL     1     140.621  71.897 224.675 -0.26 +0.03    -0.243 NA 
DOCKED: ATOM      9  C   UNL     1     139.539  69.338 224.881 -0.38 -0.00    +0.013 A  
DOCKED: ATOM     10  C   UNL     1     140.588  71.260 225.861 -0.55 -0.01    +0.071 A  
DOCKED: ATOM     11  C   UNL     1     140.056  69.989 225.990 -0.50 -0.00    +0.000 A  
DOCKED: ATOM     12  C   UNL     1     141.086  71.843 227.019 -0.76 -0.01    +0.029 A  
DOCKED: ATOM     13  C   UNL     1     140.008  69.313 227.185 -0.58 -0.00    +0.010 A  
DOCKED: ATOM     14  C   UNL     1     141.039  71.160 228.236 -0.70 -0.00    +0.002 A  
DOCKED: ATOM     15  C   UNL     1     140.501  69.890 228.333 -0.59 -0.00    +0.001 A  
DOCKED: ENDBRANCH   3   6
DOCKED: ENDBRANCH   1   2
DOCKED: BRANCH   1  16
DOCKED: ATOM     16  C   UNL     1     140.974  75.139 220.962 -0.20 -0.06    +0.242 C  
DOCKED: ATOM     17  O   UNL     1     141.450  75.431 222.107 -0.32 +0.07    -0.273 OA 
DOCKED: BRANCH  16  18
DOCKED: ATOM     18  N   UNL     1     141.390  75.785 219.777 -0.06 +0.13    -0.334 N  
DOCKED: ATOM     19  C   UNL     1     140.929  77.160 219.527 -0.14 -0.05    +0.120 C  
DOCKED: ATOM     20  C   UNL     1     142.236  75.091 218.866 -0.14 -0.04    +0.115 C  
DOCKED: ATOM     21  C   UNL     1     142.177  77.925 219.145 -0.29 -0.01    +0.022 C  
DOCKED: ATOM     22  C   UNL     1     142.980  75.906 217.881 -0.22 -0.02    +0.030 C  
DOCKED: ATOM     23  C   UNL     1     142.663  77.366 217.837 -0.29 -0.00    +0.004 C  
DOCKED: BRANCH  20  24
DOCKED: ATOM     24  C   UNL     1     143.232  74.291 219.666 -0.29 +0.01    -0.025 A  
DOCKED: ATOM     25  C   UNL     1     142.997  72.962 219.983 -0.24 -0.00    +0.006 A  
DOCKED: ATOM     26  C   UNL     1     144.411  74.862 220.108 -0.43 -0.00    +0.006 A  
DOCKED: ATOM     27  C   UNL     1     143.916  72.225 220.721 -0.34 -0.00    +0.000 A  
DOCKED: ATOM     28  C   UNL     1     145.350  74.154 220.847 -0.59 -0.00    +0.000 A  
DOCKED: ATOM     29  C   UNL     1     145.092  72.821 221.153 -0.48 -0.00    +0.000 A  
DOCKED: ENDBRANCH  20  24
DOCKED: ENDBRANCH  16  18
DOCKED: ENDBRANCH   1  16
DOCKED: TORSDOF 5
DOCKED: TER
DOCKED: ENDMDL
________________________________________________________________________________


    FINAL DOCKED STATE:
    ________________________


Run:   16 / 20
Time taken for this run:   0.026s

DOCKED: MODEL        16
DOCKED: USER    Run = 16
DOCKED: USER
DOCKED: USER    Estimated Free Energy of Binding    =  -8.37 kcal/mol  [=(1)+(2)+(3)-(4)]
DOCKED: USER
DOCKED: USER    (1) Final Intermolecular Energy     =  -9.86 kcal/mol
DOCKED: USER        vdW + Hbond + desolv Energy     =  -9.89 kcal/mol
DOCKED: USER        Electrostatic Energy            =  +0.02 kcal/mol
DOCKED: USER        Moving Ligand-Fixed Receptor    =  -9.86 kcal/mol
DOCKED: USER        Moving Ligand-Moving Receptor   =  +0.00 kcal/mol
DOCKED: USER    (2) Final Total Internal Energy     =  -2.25 kcal/mol
DOCKED: USER    (3) Torsional Free Energy           =  +1.49 kcal/mol
DOCKED: USER    (4) Unbound System's Energy         =  -2.25 kcal/mol
DOCKED: USER
DOCKED: USER
DOCKED: REMARK SMILES O=C(NCC(=O)N1CCCC[C@H]1c1ccccc1)c1ccc2ccccc2n1
DOCKED: REMARK SMILES IDX 4 1 3 2 2 3 1 4 19 6 20 7 28 8 21 9 27 10 22 11 26 12 23 13
DOCKED: REMARK SMILES IDX 25 14 24 15 5 16 6 17 7 18 8 19 12 20 9 21 11 22 10 23 13 24
DOCKED: REMARK SMILES IDX 14 25 18 26 15 27 17 28 16 29
DOCKED: REMARK H PARENT 3 5
DOCKED: USER                              x       y       z     vdW  Elec       q    Type
DOCKED: USER                           _______ _______ _______ _____ _____    ______ ____
DOCKED: ROOT
DOCKED: ATOM      1  C   UNL     1     139.977  74.000 220.917 -0.15 -0.04    +0.216 C  
DOCKED: ENDROOT
DOCKED: BRANCH   1   2
DOCKED: ATOM      2  N   UNL     1     139.978  73.301 222.182 -0.15 +0.04    -0.342 N  
DOCKED: ATOM      3  C   UNL     1     140.036  71.880 222.258 -0.20 -0.04    +0.270 C  
DOCKED: ATOM      4  O   UNL     1     140.088  71.180 221.191 -0.09 +0.04    -0.268 OA 
DOCKED: ATOM      5  H   UNL     1     139.936  73.813 223.098 -0.35 +0.03    +0.164 HD 
DOCKED: BRANCH   3   6
DOCKED: ATOM      6  C   UNL     1     140.034  71.220 223.559 -0.32 -0.02    +0.128 A  
DOCKED: ATOM      7  C   UNL     1     139.560  69.930 223.675 -0.27 -0.01    +0.035 A  
DOCKED: ATOM      8  N   UNL     1     140.494  71.861 224.660 -0.27 +0.04    -0.243 NA 
DOCKED: ATOM      9  C   UNL     1     139.533  69.255 224.875 -0.38 -0.00    +0.013 A  
DOCKED: ATOM     10  C   UNL     1     140.483  71.231 225.849 -0.54 -0.01    +0.071 A  
DOCKED: ATOM     11  C   UNL     1     140.011  69.938 225.983 -0.50 -0.00    +0.000 A  
DOCKED: ATOM     12  C   UNL     1     140.944  71.845 227.007 -0.75 -0.01    +0.029 A  
DOCKED: ATOM     13  C   UNL     1     139.986  69.268 227.183 -0.58 -0.00    +0.010 A  
DOCKED: ATOM     14  C   UNL     1     140.921  71.169 228.228 -0.71 -0.00    +0.002 A  
DOCKED: ATOM     15  C   UNL     1     140.442  69.875 228.330 -0.59 -0.00    +0.001 A  
DOCKED: ENDBRANCH   3   6
DOCKED: ENDBRANCH   1   2
DOCKED: BRANCH   1  16
DOCKED: ATOM     16  C   UNL     1     140.910  75.158 220.970 -0.20 -0.06    +0.242 C  
DOCKED: ATOM     17  O   UNL     1     141.304  75.506 222.131 -0.36 +0.07    -0.273 OA 
DOCKED: BRANCH  16  18
DOCKED: ATOM     18  N   UNL     1     141.325  75.821 219.795 -0.06 +0.12    -0.334 N  
DOCKED: ATOM     19  C   UNL     1     140.858  77.196 219.560 -0.13 -0.05    +0.120 C  
DOCKED: ATOM     20  C   UNL     1     142.178  75.143 218.878 -0.14 -0.04    +0.115 C  
DOCKED: ATOM     21  C   UNL     1     142.102  77.973 219.192 -0.28 -0.01    +0.022 C  
DOCKED: ATOM     22  C   UNL     1     142.920  75.975 217.905 -0.22 -0.02    +0.030 C  
DOCKED: ATOM     23  C   UNL     1     142.595  77.433 217.878 -0.30 -0.00    +0.004 C  
DOCKED: BRANCH  20  24
DOCKED: ATOM     24  C   UNL     1     143.176  74.339 219.671 -0.29 +0.01    -0.025 A  
DOCKED: ATOM     25  C   UNL     1     142.935  73.013 219.996 -0.24 -0.00    +0.006 A  
DOCKED: ATOM     26  C   UNL     1     144.365  74.903 220.098 -0.43 -0.00    +0.006 A  
DOCKED: ATOM     27  C   UNL     1     143.857  72.272 220.728 -0.34 -0.00    +0.000 A  
DOCKED: ATOM     28  C   UNL     1     145.306  74.192 220.830 -0.57 -0.00    +0.000 A  
DOCKED: ATOM     29  C   UNL     1     145.042  72.861 221.145 -0.49 -0.00    +0.000 A  
DOCKED: ENDBRANCH  20  24
DOCKED: ENDBRANCH  16  18
DOCKED: ENDBRANCH   1  16
DOCKED: TORSDOF 5
DOCKED: TER
DOCKED: ENDMDL
________________________________________________________________________________


    FINAL DOCKED STATE:
    ________________________


Run:   17 / 20
Time taken for this run:   0.026s

DOCKED: MODEL        17
DOCKED: USER    Run = 17
DOCKED: USER
DOCKED: USER    Estimated Free Energy of Binding    =  -7.35 kcal/mol  [=(1)+(2)+(3)-(4)]
DOCKED: USER
DOCKED: USER    (1) Final Intermolecular Energy     =  -8.84 kcal/mol
DOCKED: USER        vdW + Hbond + desolv Energy     =  -8.79 kcal/mol
DOCKED: USER        Electrostatic Energy            =  -0.05 kcal/mol
DOCKED: USER        Moving Ligand-Fixed Receptor    =  -8.84 kcal/mol
DOCKED: USER        Moving Ligand-Moving Receptor   =  +0.00 kcal/mol
DOCKED: USER    (2) Final Total Internal Energy     =  -2.39 kcal/mol
DOCKED: USER    (3) Torsional Free Energy           =  +1.49 kcal/mol
DOCKED: USER    (4) Unbound System's Energy         =  -2.39 kcal/mol
DOCKED: USER
DOCKED: USER
DOCKED: REMARK SMILES O=C(NCC(=O)N1CCCC[C@H]1c1ccccc1)c1ccc2ccccc2n1
DOCKED: REMARK SMILES IDX 4 1 3 2 2 3 1 4 19 6 20 7 28 8 21 9 27 10 22 11 26 12 23 13
DOCKED: REMARK SMILES IDX 25 14 24 15 5 16 6 17 7 18 8 19 12 20 9 21 11 22 10 23 13 24
DOCKED: REMARK SMILES IDX 14 25 18 26 15 27 17 28 16 29
DOCKED: REMARK H PARENT 3 5
DOCKED: USER                              x       y       z     vdW  Elec       q    Type
DOCKED: USER                           _______ _______ _______ _____ _____    ______ ____
DOCKED: ROOT
DOCKED: ATOM      1  C   UNL     1     141.718  79.441 218.838 -0.19 -0.13    +0.216 C  
DOCKED: ENDROOT
DOCKED: BRANCH   1   2
DOCKED: ATOM      2  N   UNL     1     142.479  78.219 218.974 -0.14 +0.26    -0.342 N  
DOCKED: ATOM      3  C   UNL     1     141.934  76.950 218.623 -0.14 -0.14    +0.270 C  
DOCKED: ATOM      4  O   UNL     1     140.743  76.863 218.174 -0.03 +0.10    -0.268 OA 
DOCKED: ATOM      5  H   UNL     1     143.464  78.217 219.338 -0.38 -0.19    +0.164 HD 
DOCKED: BRANCH   3   6
DOCKED: ATOM      6  C   UNL     1     142.741  75.744 218.780 -0.22 -0.06    +0.128 A  
DOCKED: ATOM      7  C   UNL     1     142.549  74.675 217.931 -0.11 -0.01    +0.035 A  
DOCKED: ATOM      8  N   UNL     1     143.681  75.663 219.751 -0.28 +0.15    -0.243 NA 
DOCKED: ATOM      9  C   UNL     1     143.279  73.511 218.029 -0.11 -0.00    +0.013 A  
DOCKED: ATOM     10  C   UNL     1     144.413  74.540 219.875 -0.36 -0.03    +0.071 A  
DOCKED: ATOM     11  C   UNL     1     144.233  73.457 219.033 -0.26 -0.00    +0.000 A  
DOCKED: ATOM     12  C   UNL     1     145.389  74.407 220.854 -0.47 -0.01    +0.029 A  
DOCKED: ATOM     13  C   UNL     1     144.965  72.298 219.133 -0.30 +0.00    +0.010 A  
DOCKED: ATOM     14  C   UNL     1     146.135  73.231 220.961 -0.68 -0.00    +0.002 A  
DOCKED: ATOM     15  C   UNL     1     145.931  72.165 220.103 -0.39 +0.00    +0.001 A  
DOCKED: ENDBRANCH   3   6
DOCKED: ENDBRANCH   1   2
DOCKED: BRANCH   1  16
DOCKED: ATOM     16  C   UNL     1     140.932  79.695 220.075 -0.14 -0.10    +0.242 C  
DOCKED: ATOM     17  O   UNL     1     139.666  79.596 219.964 -0.04 +0.08    -0.273 OA 
DOCKED: BRANCH  16  18
DOCKED: ATOM     18  N   UNL     1     141.566  80.024 221.294 -0.16 +0.13    -0.334 N  
DOCKED: ATOM     19  C   UNL     1     141.821  81.442 221.593 -0.33 -0.03    +0.120 C  
DOCKED: ATOM     20  C   UNL     1     141.936  78.981 222.189 -0.41 -0.06    +0.115 C  
DOCKED: ATOM     21  C   UNL     1     141.316  81.639 223.005 -0.43 -0.00    +0.022 C  
DOCKED: ATOM     22  C   UNL     1     142.198  79.360 223.595 -0.59 -0.01    +0.030 C  
DOCKED: ATOM     23  C   UNL     1     142.192  80.820 223.913 -0.62 -0.00    +0.004 C  
DOCKED: BRANCH  20  24
DOCKED: ATOM     24  C   UNL     1     140.847  77.940 222.175 -0.40 +0.01    -0.025 A  
DOCKED: ATOM     25  C   UNL     1     139.578  78.219 222.660 -0.34 -0.00    +0.006 A  
DOCKED: ATOM     26  C   UNL     1     141.083  76.671 221.677 -0.36 -0.00    +0.006 A  
DOCKED: ATOM     27  C   UNL     1     138.574  77.257 222.647 -0.30 -0.00    +0.000 A  
DOCKED: ATOM     28  C   UNL     1     140.103  75.687 221.650 -0.34 -0.00    +0.000 A  
DOCKED: ATOM     29  C   UNL     1     138.837  75.992 222.142 -0.31 -0.00    +0.000 A  
DOCKED: ENDBRANCH  20  24
DOCKED: ENDBRANCH  16  18
DOCKED: ENDBRANCH   1  16
DOCKED: TORSDOF 5
DOCKED: TER
DOCKED: ENDMDL
________________________________________________________________________________


    FINAL DOCKED STATE:
    ________________________


Run:   18 / 20
Time taken for this run:   0.026s

DOCKED: MODEL        18
DOCKED: USER    Run = 18
DOCKED: USER
DOCKED: USER    Estimated Free Energy of Binding    =  -8.57 kcal/mol  [=(1)+(2)+(3)-(4)]
DOCKED: USER
DOCKED: USER    (1) Final Intermolecular Energy     = -10.06 kcal/mol
DOCKED: USER        vdW + Hbond + desolv Energy     = -10.03 kcal/mol
DOCKED: USER        Electrostatic Energy            =  -0.03 kcal/mol
DOCKED: USER        Moving Ligand-Fixed Receptor    = -10.06 kcal/mol
DOCKED: USER        Moving Ligand-Moving Receptor   =  +0.00 kcal/mol
DOCKED: USER    (2) Final Total Internal Energy     =  -2.07 kcal/mol
DOCKED: USER    (3) Torsional Free Energy           =  +1.49 kcal/mol
DOCKED: USER    (4) Unbound System's Energy         =  -2.07 kcal/mol
DOCKED: USER
DOCKED: USER
DOCKED: REMARK SMILES O=C(NCC(=O)N1CCCC[C@H]1c1ccccc1)c1ccc2ccccc2n1
DOCKED: REMARK SMILES IDX 4 1 3 2 2 3 1 4 19 6 20 7 28 8 21 9 27 10 22 11 26 12 23 13
DOCKED: REMARK SMILES IDX 25 14 24 15 5 16 6 17 7 18 8 19 12 20 9 21 11 22 10 23 13 24
DOCKED: REMARK SMILES IDX 14 25 18 26 15 27 17 28 16 29
DOCKED: REMARK H PARENT 3 5
DOCKED: USER                              x       y       z     vdW  Elec       q    Type
DOCKED: USER                           _______ _______ _______ _____ _____    ______ ____
DOCKED: ROOT
DOCKED: ATOM      1  C   UNL     1     139.947  74.093 220.964 -0.16 -0.04    +0.216 C  
DOCKED: ENDROOT
DOCKED: BRANCH   1   2
DOCKED: ATOM      2  N   UNL     1     139.892  73.376 222.219 -0.15 +0.04    -0.342 N  
DOCKED: ATOM      3  C   UNL     1     140.214  71.992 222.310 -0.20 -0.04    +0.270 C  
DOCKED: ATOM      4  O   UNL     1     140.565  71.342 221.269 -0.11 +0.04    -0.268 OA 
DOCKED: ATOM      5  H   UNL     1     139.611  73.848 223.114 -0.49 -0.02    +0.164 HD 
DOCKED: BRANCH   3   6
DOCKED: ATOM      6  C   UNL     1     140.142  71.312 223.599 -0.32 -0.02    +0.128 A  
DOCKED: ATOM      7  C   UNL     1     139.578  70.057 223.683 -0.28 -0.01    +0.035 A  
DOCKED: ATOM      8  N   UNL     1     140.626  71.901 224.719 -0.26 +0.03    -0.243 NA 
DOCKED: ATOM      9  C   UNL     1     139.482  69.365 224.871 -0.38 -0.00    +0.013 A  
DOCKED: ATOM     10  C   UNL     1     140.548  71.253 225.896 -0.55 -0.01    +0.071 A  
DOCKED: ATOM     11  C   UNL     1     139.985  69.994 225.999 -0.50 -0.00    +0.000 A  
DOCKED: ATOM     12  C   UNL     1     141.029  71.814 227.073 -0.76 -0.01    +0.029 A  
DOCKED: ATOM     13  C   UNL     1     139.892  69.307 227.186 -0.57 -0.00    +0.010 A  
DOCKED: ATOM     14  C   UNL     1     140.937  71.121 228.281 -0.69 -0.00    +0.002 A  
DOCKED: ATOM     15  C   UNL     1     140.368  69.862 228.351 -0.59 -0.00    +0.001 A  
DOCKED: ENDBRANCH   3   6
DOCKED: ENDBRANCH   1   2
DOCKED: BRANCH   1  16
DOCKED: ATOM     16  C   UNL     1     140.867  75.257 221.080 -0.21 -0.06    +0.242 C  
DOCKED: ATOM     17  O   UNL     1     141.244  75.557 222.259 -0.35 +0.06    -0.273 OA 
DOCKED: BRANCH  16  18
DOCKED: ATOM     18  N   UNL     1     141.290  75.974 219.939 -0.07 +0.13    -0.334 N  
DOCKED: ATOM     19  C   UNL     1     140.886  77.383 219.804 -0.15 -0.05    +0.120 C  
DOCKED: ATOM     20  C   UNL     1     142.089  75.317 218.961 -0.15 -0.04    +0.115 C  
DOCKED: ATOM     21  C   UNL     1     142.159  78.121 219.456 -0.25 -0.01    +0.022 C  
DOCKED: ATOM     22  C   UNL     1     142.850  76.174 218.024 -0.24 -0.02    +0.030 C  
DOCKED: ATOM     23  C   UNL     1     142.597  77.645 218.099 -0.31 -0.00    +0.004 C  
DOCKED: BRANCH  20  24
DOCKED: ATOM     24  C   UNL     1     143.062  74.416 219.675 -0.29 +0.01    -0.025 A  
DOCKED: ATOM     25  C   UNL     1     142.787  73.072 219.873 -0.22 -0.00    +0.006 A  
DOCKED: ATOM     26  C   UNL     1     144.263  74.907 220.157 -0.42 -0.00    +0.006 A  
DOCKED: ATOM     27  C   UNL     1     143.686  72.242 220.533 -0.32 -0.00    +0.000 A  
DOCKED: ATOM     28  C   UNL     1     145.182  74.106 220.821 -0.57 -0.00    +0.000 A  
DOCKED: ATOM     29  C   UNL     1     144.883  72.759 221.007 -0.46 -0.00    +0.000 A  
DOCKED: ENDBRANCH  20  24
DOCKED: ENDBRANCH  16  18
DOCKED: ENDBRANCH   1  16
DOCKED: TORSDOF 5
DOCKED: TER
DOCKED: ENDMDL
________________________________________________________________________________


    FINAL DOCKED STATE:
    ________________________


Run:   19 / 20
Time taken for this run:   0.026s

DOCKED: MODEL        19
DOCKED: USER    Run = 19
DOCKED: USER
DOCKED: USER    Estimated Free Energy of Binding    =  -8.57 kcal/mol  [=(1)+(2)+(3)-(4)]
DOCKED: USER
DOCKED: USER    (1) Final Intermolecular Energy     = -10.06 kcal/mol
DOCKED: USER        vdW + Hbond + desolv Energy     = -10.03 kcal/mol
DOCKED: USER        Electrostatic Energy            =  -0.03 kcal/mol
DOCKED: USER        Moving Ligand-Fixed Receptor    = -10.06 kcal/mol
DOCKED: USER        Moving Ligand-Moving Receptor   =  +0.00 kcal/mol
DOCKED: USER    (2) Final Total Internal Energy     =  -2.09 kcal/mol
DOCKED: USER    (3) Torsional Free Energy           =  +1.49 kcal/mol
DOCKED: USER    (4) Unbound System's Energy         =  -2.09 kcal/mol
DOCKED: USER
DOCKED: USER
DOCKED: REMARK SMILES O=C(NCC(=O)N1CCCC[C@H]1c1ccccc1)c1ccc2ccccc2n1
DOCKED: REMARK SMILES IDX 4 1 3 2 2 3 1 4 19 6 20 7 28 8 21 9 27 10 22 11 26 12 23 13
DOCKED: REMARK SMILES IDX 25 14 24 15 5 16 6 17 7 18 8 19 12 20 9 21 11 22 10 23 13 24
DOCKED: REMARK SMILES IDX 14 25 18 26 15 27 17 28 16 29
DOCKED: REMARK H PARENT 3 5
DOCKED: USER                              x       y       z     vdW  Elec       q    Type
DOCKED: USER                           _______ _______ _______ _____ _____    ______ ____
DOCKED: ROOT
DOCKED: ATOM      1  C   UNL     1     139.962  74.059 220.972 -0.16 -0.04    +0.216 C  
DOCKED: ENDROOT
DOCKED: BRANCH   1   2
DOCKED: ATOM      2  N   UNL     1     139.911  73.340 222.226 -0.15 +0.04    -0.342 N  
DOCKED: ATOM      3  C   UNL     1     140.220  71.952 222.310 -0.20 -0.04    +0.270 C  
DOCKED: ATOM      4  O   UNL     1     140.554  71.302 221.264 -0.11 +0.04    -0.268 OA 
DOCKED: ATOM      5  H   UNL     1     139.643  73.812 223.124 -0.47 -0.02    +0.164 HD 
DOCKED: BRANCH   3   6
DOCKED: ATOM      6  C   UNL     1     140.153  71.269 223.599 -0.32 -0.02    +0.128 A  
DOCKED: ATOM      7  C   UNL     1     139.586  70.016 223.683 -0.27 -0.01    +0.035 A  
DOCKED: ATOM      8  N   UNL     1     140.645  71.855 224.717 -0.27 +0.03    -0.243 NA 
DOCKED: ATOM      9  C   UNL     1     139.495  69.322 224.870 -0.38 -0.00    +0.013 A  
DOCKED: ATOM     10  C   UNL     1     140.572  71.205 225.893 -0.55 -0.01    +0.071 A  
DOCKED: ATOM     11  C   UNL     1     140.006  69.947 225.996 -0.50 -0.00    +0.000 A  
DOCKED: ATOM     12  C   UNL     1     141.061  71.762 227.068 -0.76 -0.01    +0.029 A  
DOCKED: ATOM     13  C   UNL     1     139.918  69.258 227.182 -0.58 -0.00    +0.010 A  
DOCKED: ATOM     14  C   UNL     1     140.973  71.067 228.276 -0.68 -0.00    +0.002 A  
DOCKED: ATOM     15  C   UNL     1     140.401  69.809 228.346 -0.59 -0.00    +0.001 A  
DOCKED: ENDBRANCH   3   6
DOCKED: ENDBRANCH   1   2
DOCKED: BRANCH   1  16
DOCKED: ATOM     16  C   UNL     1     140.846  75.249 221.100 -0.21 -0.06    +0.242 C  
DOCKED: ATOM     17  O   UNL     1     141.191  75.565 222.285 -0.37 +0.06    -0.273 OA 
DOCKED: BRANCH  16  18
DOCKED: ATOM     18  N   UNL     1     141.271  75.973 219.965 -0.07 +0.13    -0.334 N  
DOCKED: ATOM     19  C   UNL     1     140.868  77.383 219.838 -0.15 -0.05    +0.120 C  
DOCKED: ATOM     20  C   UNL     1     142.071  75.322 218.984 -0.15 -0.04    +0.115 C  
DOCKED: ATOM     21  C   UNL     1     142.143  78.123 219.497 -0.25 -0.01    +0.022 C  
DOCKED: ATOM     22  C   UNL     1     142.834  76.184 218.054 -0.24 -0.02    +0.030 C  
DOCKED: ATOM     23  C   UNL     1     142.582  77.655 218.137 -0.32 -0.00    +0.004 C  
DOCKED: BRANCH  20  24
DOCKED: ATOM     24  C   UNL     1     143.043  74.416 219.694 -0.29 +0.01    -0.025 A  
DOCKED: ATOM     25  C   UNL     1     142.766  73.071 219.885 -0.21 -0.00    +0.006 A  
DOCKED: ATOM     26  C   UNL     1     144.244  74.903 220.179 -0.42 -0.00    +0.006 A  
DOCKED: ATOM     27  C   UNL     1     143.663  72.236 220.541 -0.32 -0.00    +0.000 A  
DOCKED: ATOM     28  C   UNL     1     145.162  74.096 220.840 -0.57 -0.00    +0.000 A  
DOCKED: ATOM     29  C   UNL     1     144.861  72.749 221.019 -0.46 -0.00    +0.000 A  
DOCKED: ENDBRANCH  20  24
DOCKED: ENDBRANCH  16  18
DOCKED: ENDBRANCH   1  16
DOCKED: TORSDOF 5
DOCKED: TER
DOCKED: ENDMDL
________________________________________________________________________________


    FINAL DOCKED STATE:
    ________________________


Run:   20 / 20
Time taken for this run:   0.026s

DOCKED: MODEL        20
DOCKED: USER    Run = 20
DOCKED: USER
DOCKED: USER    Estimated Free Energy of Binding    =  -7.79 kcal/mol  [=(1)+(2)+(3)-(4)]
DOCKED: USER
DOCKED: USER    (1) Final Intermolecular Energy     =  -9.28 kcal/mol
DOCKED: USER        vdW + Hbond + desolv Energy     =  -9.30 kcal/mol
DOCKED: USER        Electrostatic Energy            =  +0.02 kcal/mol
DOCKED: USER        Moving Ligand-Fixed Receptor    =  -9.28 kcal/mol
DOCKED: USER        Moving Ligand-Moving Receptor   =  +0.00 kcal/mol
DOCKED: USER    (2) Final Total Internal Energy     =  -2.40 kcal/mol
DOCKED: USER    (3) Torsional Free Energy           =  +1.49 kcal/mol
DOCKED: USER    (4) Unbound System's Energy         =  -2.40 kcal/mol
DOCKED: USER
DOCKED: USER
DOCKED: REMARK SMILES O=C(NCC(=O)N1CCCC[C@H]1c1ccccc1)c1ccc2ccccc2n1
DOCKED: REMARK SMILES IDX 4 1 3 2 2 3 1 4 19 6 20 7 28 8 21 9 27 10 22 11 26 12 23 13
DOCKED: REMARK SMILES IDX 25 14 24 15 5 16 6 17 7 18 8 19 12 20 9 21 11 22 10 23 13 24
DOCKED: REMARK SMILES IDX 14 25 18 26 15 27 17 28 16 29
DOCKED: REMARK H PARENT 3 5
DOCKED: USER                              x       y       z     vdW  Elec       q    Type
DOCKED: USER                           _______ _______ _______ _____ _____    ______ ____
DOCKED: ROOT
DOCKED: ATOM      1  C   UNL     1     140.834  73.626 221.279 -0.20 -0.03    +0.216 C  
DOCKED: ENDROOT
DOCKED: BRANCH   1   2
DOCKED: ATOM      2  N   UNL     1     141.024  74.981 221.744 -0.17 +0.06    -0.342 N  
DOCKED: ATOM      3  C   UNL     1     139.929  75.873 221.935 -0.24 -0.06    +0.270 C  
DOCKED: ATOM      4  O   UNL     1     138.736  75.488 221.695 -0.18 +0.06    -0.268 OA 
DOCKED: ATOM      5  H   UNL     1     141.978  75.364 221.960 -0.36 -0.07    +0.164 HD 
DOCKED: BRANCH   3   6
DOCKED: ATOM      6  C   UNL     1     140.172  77.232 222.406 -0.32 -0.03    +0.128 A  
DOCKED: ATOM      7  C   UNL     1     139.109  78.044 222.738 -0.30 -0.01    +0.035 A  
DOCKED: ATOM      8  N   UNL     1     141.435  77.708 222.522 -0.22 +0.12    -0.243 NA 
DOCKED: ATOM      9  C   UNL     1     139.275  79.336 223.188 -0.36 -0.00    +0.013 A  
DOCKED: ATOM     10  C   UNL     1     141.633  78.965 222.959 -0.50 -0.03    +0.071 A  
DOCKED: ATOM     11  C   UNL     1     140.578  79.794 223.296 -0.47 -0.00    +0.000 A  
DOCKED: ATOM     12  C   UNL     1     142.908  79.500 223.095 -0.54 -0.01    +0.029 A  
DOCKED: ATOM     13  C   UNL     1     140.749  81.082 223.745 -0.38 -0.00    +0.010 A  
DOCKED: ATOM     14  C   UNL     1     143.087  80.808 223.551 -0.60 -0.00    +0.002 A  
DOCKED: ATOM     15  C   UNL     1     142.010  81.612 223.881 -0.55 -0.00    +0.001 A  
DOCKED: ENDBRANCH   3   6
DOCKED: ENDBRANCH   1   2
DOCKED: BRANCH   1  16
DOCKED: ATOM     16  C   UNL     1     141.803  73.316 220.193 -0.12 -0.05    +0.242 C  
DOCKED: ATOM     17  O   UNL     1     141.313  73.203 219.022 -0.02 +0.06    -0.273 OA 
DOCKED: BRANCH  16  18
DOCKED: ATOM     18  N   UNL     1     143.181  73.162 220.461 -0.12 +0.06    -0.334 N  
DOCKED: ATOM     19  C   UNL     1     143.723  71.801 220.595 -0.24 -0.02    +0.120 C  
DOCKED: ATOM     20  C   UNL     1     143.998  74.320 220.591 -0.28 -0.04    +0.115 C  
DOCKED: ATOM     21  C   UNL     1     144.955  71.784 219.717 -0.32 +0.00    +0.022 C  
DOCKED: ATOM     22  C   UNL     1     145.459  74.135 220.449 -0.52 -0.01    +0.030 C  
DOCKED: ATOM     23  C   UNL     1     145.952  72.730 220.327 -0.54 +0.00    +0.004 C  
DOCKED: BRANCH  20  24
DOCKED: ATOM     24  C   UNL     1     143.548  75.332 219.569 -0.38 +0.01    -0.025 A  
DOCKED: ATOM     25  C   UNL     1     143.691  75.095 218.211 -0.22 -0.00    +0.006 A  
DOCKED: ATOM     26  C   UNL     1     142.977  76.530 219.959 -0.29 -0.00    +0.006 A  
DOCKED: ATOM     27  C   UNL     1     143.275  76.030 217.269 -0.23 -0.00    +0.000 A  
DOCKED: ATOM     28  C   UNL     1     142.552  77.485 219.045 -0.33 -0.00    +0.000 A  
DOCKED: ATOM     29  C   UNL     1     142.706  77.224 217.686 -0.29 -0.00    +0.000 A  
DOCKED: ENDBRANCH  20  24
DOCKED: ENDBRANCH  16  18
DOCKED: ENDBRANCH   1  16
DOCKED: TORSDOF 5
DOCKED: TER
DOCKED: ENDMDL
________________________________________________________________________________


    CLUSTERING HISTOGRAM
    ____________________


________________________________________________________________________________
     |           |     |           |     |
Clus | Lowest    | Run | Mean      | Num | Histogram
-ter | Binding   |     | Binding   | in  |
Rank | Energy    |     | Energy    | Clus|    5    10   15   20   25   30   35
_____|___________|_____|___________|_____|____:____|____:____|____:____|____:___
   1 |     -8.61 |   5 |     -8.44 |  15 |###############
   2 |     -7.80 |  11 |     -7.79 |   4 |####
   3 |     -7.35 |  17 |     -7.35 |   1 |#
_____|___________|_____|___________|_____|______________________________________


    RMSD TABLE
    __________


_______________________________________________________________________
     |      |      |           |         |                 |
Rank | Sub- | Run  | Binding   | Cluster | Reference       | Grep
     | Rank |      | Energy    | RMSD    | RMSD            | Pattern
_____|______|______|___________|_________|_________________|___________
   1      1      5       -8.61      0.00    270.85           RANKING
   1      2      1       -8.60      0.21    270.83           RANKING
   1      3     13       -8.58      0.04    270.84           RANKING
   1      4     18       -8.57      0.08    270.83           RANKING
   1      5     19       -8.57      0.07    270.84           RANKING
   1      6     10       -8.57      0.05    270.83           RANKING
   1      7      3       -8.56      0.05    270.84           RANKING
   1      8     14       -8.55      0.05    270.83           RANKING
   1      9     15       -8.50      0.28    270.82           RANKING
   1     10     12       -8.47      0.26    270.81           RANKING
   1     11      2       -8.38      0.22    270.78           RANKING
   1     12     16       -8.37      0.27    270.79           RANKING
   1     13      7       -8.23      0.39    270.72           RANKING
   1     14      9       -8.00      0.59    270.71           RANKING
   1     15      4       -7.98      0.62    270.71           RANKING
   2      1     11       -7.80      0.00    271.04           RANKING
   2      2      8       -7.79      0.05    271.05           RANKING
   2      3     20       -7.79      0.05    271.04           RANKING
   2      4      6       -7.78      0.05    271.04           RANKING
   3      1     17       -7.35      0.00    270.82           RANKING

Run time 0.488 sec
Idle time 0.000 sec
