AutoDock-GPU version: v1.6

**********************************************************
**    AutoDock-GPU AUTODOCKTOOLS-COMPATIBLE DLG FILE    **
**********************************************************


    DOCKING PARAMETERS
    ________________________


Ligand file:                               /home/a/REINVENT4/ReinventStudies/pleaseWork/justmol2mol_4_Compounds_ontop/graph-dock-amy28i/graph-DockGPU/node-autodockgpu/inputs/YMLHHFFOOLDBSZ-FLOLCARYNA-N.pdbqt
Grid fld file:                             /home/a/REINVENT4/ReinventStudies/mols/Rad51/maps/rad51_receptor.maps.fld

Random seed:                               42
Number of runs:                            20
Number of energy evaluations:              1132076
Number of generations:                     42000
Size of population:                        150
Rate of crossover:                         80.000000%
Tournament selection probability limit:    60.000000%
Rate of mutation:                          2.000000%
Maximal allowed delta movement:            +/- 6.000000A
Maximal allowed delta angle:               +/- 90.000000

Rate of local search:                      100.000000%
Maximal number of local search iterations: 300
Rho lower bound:                           0.010000
Spread of local search delta movement:     2.000000A
Spread of local search delta angle:        74.999999
Limit of consecutive successes/failures:   4

Handle symmetry during clustering:         YES
RMSD tolerance:                            2.000000A

Program call in command line was:          /home/a/REINVENT4/ReinventStudies/adgpu-v1.6_linux_x64_cuda12_128wi --filelist batch.txt --heuristics 1 --nrun 20 --psize 150 --lsit 300 --seed 42 --heurmax 12000000 


    GRID PARAMETERS
    ________________________


Receptor name:                             rad51_receptor
Number of grid points (x, y, z):           53, 53, 53
Grid center (x, y, z):                     139.950000, 75.640000, 221.970000A
Grid size (x, y, z):                       19.500000, 19.500000, 19.500000A
Grid spacing:                              0.375000A


    LIGAND PARAMETERS
    ________________________


Ligand name:                               /home/a/REINVENT4/ReinventStudies/pleaseWork/justmol2mol_4_Compounds_ontop/graph-dock-amy28i/graph-DockGPU/node-autodockgpu/inputs/YMLHHFFOOLDBSZ-FLOLCARYNA-N
Number of atoms:                           29
Number of rotatable bonds:                 5
Number of atom types:                      7


    DUMMY DATA (only for ADT-compatibility)
    ________________________


DPF> outlev 1
DPF> ga_run 20
DPF> fld /home/a/REINVENT4/ReinventStudies/mols/Rad51/maps/rad51_receptor.maps.fld
DPF> move /home/a/REINVENT4/ReinventStudies/pleaseWork/justmol2mol_4_Compounds_ontop/graph-dock-amy28i/graph-DockGPU/node-autodockgpu/inputs/YMLHHFFOOLDBSZ-FLOLCARYNA-N.pdbqt


    COUNTER STATES
    ________________________


Number of energy evaluations performed:    523881
Number of generations used:                30


    INPUT LIGAND PDBQT FILE:
    ________________________


INPUT-LIGAND-PDBQT: REMARK SMILES O=C(NCC(=O)N1CC[C@@H](c2cnc[nH]2)C1)c1ccc2cc(F)ccc2n1
INPUT-LIGAND-PDBQT: REMARK SMILES IDX 4 1 3 2 2 3 1 4 17 6 18 7 27 8 19 9 26 10 20 11 25 12 21 13
INPUT-LIGAND-PDBQT: REMARK SMILES IDX 24 14 22 15 23 16 5 17 6 18 7 19 8 20 16 21 9 22 10 23 11 24
INPUT-LIGAND-PDBQT: REMARK SMILES IDX 12 25 15 26 13 27 14 28
INPUT-LIGAND-PDBQT: REMARK H PARENT 3 5 15 29
INPUT-LIGAND-PDBQT: ROOT
INPUT-LIGAND-PDBQT: ATOM      1  C   UNL     1      -0.177   0.377   1.038  1.00  0.00     0.216 C 
INPUT-LIGAND-PDBQT: ENDROOT
INPUT-LIGAND-PDBQT: BRANCH   1   2
INPUT-LIGAND-PDBQT: ATOM      2  N   UNL     1       1.190   0.196   0.610  1.00  0.00    -0.342 N 
INPUT-LIGAND-PDBQT: ATOM      3  C   UNL     1       2.247   0.312   1.551  1.00  0.00     0.270 C 
INPUT-LIGAND-PDBQT: ATOM      4  O   UNL     1       1.931   0.575   2.750  1.00  0.00    -0.268 OA
INPUT-LIGAND-PDBQT: ATOM      5  H   UNL     1       1.423  -0.023  -0.402  1.00  0.00     0.164 HD
INPUT-LIGAND-PDBQT: BRANCH   3   6
INPUT-LIGAND-PDBQT: ATOM      6  C   UNL     1       3.620   0.130   1.118  1.00  0.00     0.128 A 
INPUT-LIGAND-PDBQT: ATOM      7  C   UNL     1       4.610   0.257   2.082  1.00  0.00     0.035 A 
INPUT-LIGAND-PDBQT: ATOM      8  N   UNL     1       3.952  -0.152  -0.170  1.00  0.00    -0.243 NA
INPUT-LIGAND-PDBQT: ATOM      9  C   UNL     1       5.942   0.095   1.729  1.00  0.00     0.013 A 
INPUT-LIGAND-PDBQT: ATOM     10  C   UNL     1       5.251  -0.309  -0.508  1.00  0.00     0.071 A 
INPUT-LIGAND-PDBQT: ATOM     11  C   UNL     1       6.269  -0.189   0.430  1.00  0.00     0.003 A 
INPUT-LIGAND-PDBQT: ATOM     12  C   UNL     1       5.525  -0.595  -1.840  1.00  0.00     0.032 A 
INPUT-LIGAND-PDBQT: ATOM     13  C   UNL     1       7.575  -0.365  -0.001  1.00  0.00     0.049 A 
INPUT-LIGAND-PDBQT: ATOM     14  C   UNL     1       6.843  -0.758  -2.198  1.00  0.00     0.041 A 
INPUT-LIGAND-PDBQT: ATOM     15  C   UNL     1       7.894  -0.651  -1.313  1.00  0.00     0.123 A 
INPUT-LIGAND-PDBQT: ATOM     16  F   UNL     1       9.171  -0.816  -1.697  1.00  0.00    -0.207 F 
INPUT-LIGAND-PDBQT: ENDBRANCH   3   6
INPUT-LIGAND-PDBQT: ENDBRANCH   1   2
INPUT-LIGAND-PDBQT: BRANCH   1  17
INPUT-LIGAND-PDBQT: ATOM     17  C   UNL     1      -1.117   0.212  -0.109  1.00  0.00     0.241 C 
INPUT-LIGAND-PDBQT: ATOM     18  O   UNL     1      -0.668  -0.052  -1.270  1.00  0.00    -0.273 OA
INPUT-LIGAND-PDBQT: BRANCH  17  19
INPUT-LIGAND-PDBQT: ATOM     19  N   UNL     1      -2.515   0.353   0.106  1.00  0.00    -0.340 N 
INPUT-LIGAND-PDBQT: ATOM     20  C   UNL     1      -3.159   0.655   1.386  1.00  0.00     0.120 C 
INPUT-LIGAND-PDBQT: ATOM     21  C   UNL     1      -3.553   0.223  -0.899  1.00  0.00     0.129 C 
INPUT-LIGAND-PDBQT: ATOM     22  C   UNL     1      -4.634   0.450   1.161  1.00  0.00     0.033 C 
INPUT-LIGAND-PDBQT: ATOM     23  C   UNL     1      -4.659  -0.419  -0.077  1.00  0.00     0.059 C 
INPUT-LIGAND-PDBQT: BRANCH  23  24
INPUT-LIGAND-PDBQT: ATOM     24  C   UNL     1      -5.969  -0.412  -0.773  1.00  0.00     0.039 A 
INPUT-LIGAND-PDBQT: ATOM     25  C   UNL     1      -6.794  -1.477  -1.085  1.00  0.00     0.134 A 
INPUT-LIGAND-PDBQT: ATOM     26  N   UNL     1      -6.550   0.719  -1.215  1.00  0.00    -0.348 N 
INPUT-LIGAND-PDBQT: ATOM     27  N   UNL     1      -7.864  -0.989  -1.711  1.00  0.00    -0.245 NA
INPUT-LIGAND-PDBQT: ATOM     28  C   UNL     1      -7.696   0.341  -1.779  1.00  0.00     0.196 A 
INPUT-LIGAND-PDBQT: ATOM     29  H   UNL     1      -6.222   1.709  -1.158  1.00  0.00     0.167 HD
INPUT-LIGAND-PDBQT: ENDBRANCH  23  24
INPUT-LIGAND-PDBQT: ENDBRANCH  17  19
INPUT-LIGAND-PDBQT: ENDBRANCH   1  17
INPUT-LIGAND-PDBQT: TORSDOF 5


    FINAL DOCKED STATE:
    ________________________


Run:   1 / 20
Time taken for this run:   0.023s

DOCKED: MODEL        1
DOCKED: USER    Run = 1
DOCKED: USER
DOCKED: USER    Estimated Free Energy of Binding    =  -8.39 kcal/mol  [=(1)+(2)+(3)-(4)]
DOCKED: USER
DOCKED: USER    (1) Final Intermolecular Energy     =  -9.88 kcal/mol
DOCKED: USER        vdW + Hbond + desolv Energy     =  -9.80 kcal/mol
DOCKED: USER        Electrostatic Energy            =  -0.08 kcal/mol
DOCKED: USER        Moving Ligand-Fixed Receptor    =  -9.88 kcal/mol
DOCKED: USER        Moving Ligand-Moving Receptor   =  +0.00 kcal/mol
DOCKED: USER    (2) Final Total Internal Energy     =  -0.91 kcal/mol
DOCKED: USER    (3) Torsional Free Energy           =  +1.49 kcal/mol
DOCKED: USER    (4) Unbound System's Energy         =  -0.91 kcal/mol
DOCKED: USER
DOCKED: USER
DOCKED: REMARK SMILES O=C(NCC(=O)N1CC[C@@H](c2cnc[nH]2)C1)c1ccc2cc(F)ccc2n1
DOCKED: REMARK SMILES IDX 4 1 3 2 2 3 1 4 17 6 18 7 27 8 19 9 26 10 20 11 25 12 21 13
DOCKED: REMARK SMILES IDX 24 14 22 15 23 16 5 17 6 18 7 19 8 20 16 21 9 22 10 23 11 24
DOCKED: REMARK SMILES IDX 12 25 15 26 13 27 14 28
DOCKED: REMARK H PARENT 3 5 15 29
DOCKED: USER                              x       y       z     vdW  Elec       q    Type
DOCKED: USER                           _______ _______ _______ _____ _____    ______ ____
DOCKED: ROOT
DOCKED: ATOM      1  C   UNL     1     139.976  74.442 221.035 -0.17 -0.04    +0.216 C  
DOCKED: ENDROOT
DOCKED: BRANCH   1   2
DOCKED: ATOM      2  N   UNL     1     139.885  73.640 222.232 -0.12 +0.04    -0.342 N  
DOCKED: ATOM      3  C   UNL     1     140.213  72.259 222.185 -0.20 -0.04    +0.270 C  
DOCKED: ATOM      4  O   UNL     1     140.579  71.787 221.067 -0.11 +0.04    -0.268 OA 
DOCKED: ATOM      5  H   UNL     1     139.575  74.064 223.154 -0.51 -0.02    +0.164 HD 
DOCKED: BRANCH   3   6
DOCKED: ATOM      6  C   UNL     1     140.120  71.455 223.390 -0.31 -0.02    +0.128 A  
DOCKED: ATOM      7  C   UNL     1     139.553  70.195 223.268 -0.25 -0.01    +0.035 A  
DOCKED: ATOM      8  N   UNL     1     140.561  71.893 224.600 -0.26 +0.03    -0.243 NA 
DOCKED: ATOM      9  C   UNL     1     139.436  69.380 224.384 -0.33 -0.00    +0.013 A  
DOCKED: ATOM     10  C   UNL     1     140.444  71.094 225.684 -0.53 -0.01    +0.071 A  
DOCKED: ATOM     11  C   UNL     1     139.881  69.827 225.599 -0.46 -0.00    +0.003 A  
DOCKED: ATOM     12  C   UNL     1     140.912  71.599 226.891 -0.72 -0.01    +0.032 A  
DOCKED: ATOM     13  C   UNL     1     139.800  69.073 226.760 -0.52 -0.01    +0.049 A  
DOCKED: ATOM     14  C   UNL     1     140.800  70.797 228.002 -0.66 -0.01    +0.041 A  
DOCKED: ATOM     15  C   UNL     1     140.252  69.533 227.980 -0.52 -0.02    +0.123 A  
DOCKED: ATOM     16  F   UNL     1     140.158  68.775 229.086 -0.14 +0.04    -0.207 F  
DOCKED: ENDBRANCH   3   6
DOCKED: ENDBRANCH   1   2
DOCKED: BRANCH   1  17
DOCKED: ATOM     17  C   UNL     1     139.010  75.577 221.084 -0.13 -0.05    +0.241 C  
DOCKED: ATOM     18  O   UNL     1     137.942  75.538 220.393 -0.03 +0.06    -0.273 OA 
DOCKED: BRANCH  17  19
DOCKED: ATOM     19  N   UNL     1     139.291  76.702 221.907 -0.14 +0.08    -0.340 N  
DOCKED: ATOM     20  C   UNL     1     138.302  77.511 222.620 -0.24 -0.02    +0.120 C  
DOCKED: ATOM     21  C   UNL     1     140.605  77.249 222.188 -0.35 -0.04    +0.129 C  
DOCKED: ATOM     22  C   UNL     1     139.049  78.715 223.132 -0.30 -0.01    +0.033 C  
DOCKED: ATOM     23  C   UNL     1     140.281  78.733 222.255 -0.33 -0.02    +0.059 C  
DOCKED: BRANCH  23  24
DOCKED: ATOM     24  C   UNL     1     141.392  79.537 222.820 -0.49 -0.01    +0.039 A  
DOCKED: ATOM     25  C   UNL     1     141.349  80.512 223.801 -0.43 -0.02    +0.134 A  
DOCKED: ATOM     26  N   UNL     1     142.667  79.401 222.412 -0.25 +0.19    -0.348 N  
DOCKED: ATOM     27  N   UNL     1     142.591  80.958 223.980 -0.41 +0.04    -0.245 NA 
DOCKED: ATOM     28  C   UNL     1     143.373  80.274 223.131 -0.44 -0.06    +0.196 A  
DOCKED: ATOM     29  H   UNL     1     143.078  78.766 221.692 -0.47 -0.17    +0.167 HD 
DOCKED: ENDBRANCH  23  24
DOCKED: ENDBRANCH  17  19
DOCKED: ENDBRANCH   1  17
DOCKED: TORSDOF 5
DOCKED: TER
DOCKED: ENDMDL
________________________________________________________________________________


    FINAL DOCKED STATE:
    ________________________


Run:   2 / 20
Time taken for this run:   0.023s

DOCKED: MODEL        2
DOCKED: USER    Run = 2
DOCKED: USER
DOCKED: USER    Estimated Free Energy of Binding    =  -8.30 kcal/mol  [=(1)+(2)+(3)-(4)]
DOCKED: USER
DOCKED: USER    (1) Final Intermolecular Energy     =  -9.80 kcal/mol
DOCKED: USER        vdW + Hbond + desolv Energy     =  -9.73 kcal/mol
DOCKED: USER        Electrostatic Energy            =  -0.06 kcal/mol
DOCKED: USER        Moving Ligand-Fixed Receptor    =  -9.80 kcal/mol
DOCKED: USER        Moving Ligand-Moving Receptor   =  +0.00 kcal/mol
DOCKED: USER    (2) Final Total Internal Energy     =  -1.03 kcal/mol
DOCKED: USER    (3) Torsional Free Energy           =  +1.49 kcal/mol
DOCKED: USER    (4) Unbound System's Energy         =  -1.03 kcal/mol
DOCKED: USER
DOCKED: USER
DOCKED: REMARK SMILES O=C(NCC(=O)N1CC[C@@H](c2cnc[nH]2)C1)c1ccc2cc(F)ccc2n1
DOCKED: REMARK SMILES IDX 4 1 3 2 2 3 1 4 17 6 18 7 27 8 19 9 26 10 20 11 25 12 21 13
DOCKED: REMARK SMILES IDX 24 14 22 15 23 16 5 17 6 18 7 19 8 20 16 21 9 22 10 23 11 24
DOCKED: REMARK SMILES IDX 12 25 15 26 13 27 14 28
DOCKED: REMARK H PARENT 3 5 15 29
DOCKED: USER                              x       y       z     vdW  Elec       q    Type
DOCKED: USER                           _______ _______ _______ _____ _____    ______ ____
DOCKED: ROOT
DOCKED: ATOM      1  C   UNL     1     139.094  73.577 221.541 -0.16 -0.05    +0.216 C  
DOCKED: ENDROOT
DOCKED: BRANCH   1   2
DOCKED: ATOM      2  N   UNL     1     139.344  72.771 222.713 -0.06 +0.09    -0.342 N  
DOCKED: ATOM      3  C   UNL     1     139.163  71.364 222.656 -0.17 -0.06    +0.270 C  
DOCKED: ATOM      4  O   UNL     1     138.782  70.872 221.552 -0.06 +0.05    -0.268 OA 
DOCKED: ATOM      5  H   UNL     1     139.662  73.213 223.624 -0.37 -0.05    +0.164 HD 
DOCKED: BRANCH   3   6
DOCKED: ATOM      6  C   UNL     1     139.415  70.557 223.836 -0.28 -0.02    +0.128 A  
DOCKED: ATOM      7  C   UNL     1     139.018  69.229 223.791 -0.28 -0.01    +0.035 A  
DOCKED: ATOM      8  N   UNL     1     140.011  71.055 224.952 -0.30 +0.04    -0.243 NA 
DOCKED: ATOM      9  C   UNL     1     139.231  68.407 224.888 -0.40 -0.00    +0.013 A  
DOCKED: ATOM     10  C   UNL     1     140.216  70.250 226.018 -0.48 -0.01    +0.071 A  
DOCKED: ATOM     11  C   UNL     1     139.832  68.915 226.009 -0.51 -0.00    +0.003 A  
DOCKED: ATOM     12  C   UNL     1     140.829  70.818 227.128 -0.64 -0.01    +0.032 A  
DOCKED: ATOM     13  C   UNL     1     140.079  68.158 227.144 -0.62 -0.01    +0.049 A  
DOCKED: ATOM     14  C   UNL     1     141.045  70.010 228.219 -0.54 -0.01    +0.041 A  
DOCKED: ATOM     15  C   UNL     1     140.686  68.680 228.269 -0.55 -0.03    +0.123 A  
DOCKED: ATOM     16  F   UNL     1     140.911  67.919 229.353 -0.14 +0.06    -0.207 F  
DOCKED: ENDBRANCH   3   6
DOCKED: ENDBRANCH   1   2
DOCKED: BRANCH   1  17
DOCKED: ATOM     17  C   UNL     1     140.159  74.608 221.371 -0.20 -0.04    +0.241 C  
DOCKED: ATOM     18  O   UNL     1     141.198  74.346 220.685 -0.16 +0.06    -0.273 OA 
DOCKED: BRANCH  17  19
DOCKED: ATOM     19  N   UNL     1     140.003  75.882 221.981 -0.20 +0.07    -0.340 N  
DOCKED: ATOM     20  C   UNL     1     138.729  76.544 222.271 -0.26 -0.02    +0.120 C  
DOCKED: ATOM     21  C   UNL     1     141.073  76.756 222.425 -0.24 -0.05    +0.129 C  
DOCKED: ATOM     22  C   UNL     1     139.080  77.952 222.672 -0.29 -0.01    +0.033 C  
DOCKED: ATOM     23  C   UNL     1     140.474  78.116 222.106 -0.35 -0.02    +0.059 C  
DOCKED: BRANCH  23  24
DOCKED: ATOM     24  C   UNL     1     141.229  79.234 222.721 -0.46 -0.01    +0.039 A  
DOCKED: ATOM     25  C   UNL     1     140.768  80.252 223.536 -0.40 -0.02    +0.134 A  
DOCKED: ATOM     26  N   UNL     1     142.554  79.400 222.544 -0.28 +0.17    -0.348 N  
DOCKED: ATOM     27  N   UNL     1     141.808  81.025 223.845 -0.36 +0.04    -0.245 NA 
DOCKED: ATOM     28  C   UNL     1     142.878  80.491 223.235 -0.50 -0.05    +0.196 A  
DOCKED: ATOM     29  H   UNL     1     143.234  78.829 221.994 -0.48 -0.16    +0.167 HD 
DOCKED: ENDBRANCH  23  24
DOCKED: ENDBRANCH  17  19
DOCKED: ENDBRANCH   1  17
DOCKED: TORSDOF 5
DOCKED: TER
DOCKED: ENDMDL
________________________________________________________________________________


    FINAL DOCKED STATE:
    ________________________


Run:   3 / 20
Time taken for this run:   0.023s

DOCKED: MODEL        3
DOCKED: USER    Run = 3
DOCKED: USER
DOCKED: USER    Estimated Free Energy of Binding    =  -6.07 kcal/mol  [=(1)+(2)+(3)-(4)]
DOCKED: USER
DOCKED: USER    (1) Final Intermolecular Energy     =  -7.56 kcal/mol
DOCKED: USER        vdW + Hbond + desolv Energy     =  -7.46 kcal/mol
DOCKED: USER        Electrostatic Energy            =  -0.10 kcal/mol
DOCKED: USER        Moving Ligand-Fixed Receptor    =  -7.56 kcal/mol
DOCKED: USER        Moving Ligand-Moving Receptor   =  +0.00 kcal/mol
DOCKED: USER    (2) Final Total Internal Energy     =  -2.40 kcal/mol
DOCKED: USER    (3) Torsional Free Energy           =  +1.49 kcal/mol
DOCKED: USER    (4) Unbound System's Energy         =  -2.40 kcal/mol
DOCKED: USER
DOCKED: USER
DOCKED: REMARK SMILES O=C(NCC(=O)N1CC[C@@H](c2cnc[nH]2)C1)c1ccc2cc(F)ccc2n1
DOCKED: REMARK SMILES IDX 4 1 3 2 2 3 1 4 17 6 18 7 27 8 19 9 26 10 20 11 25 12 21 13
DOCKED: REMARK SMILES IDX 24 14 22 15 23 16 5 17 6 18 7 19 8 20 16 21 9 22 10 23 11 24
DOCKED: REMARK SMILES IDX 12 25 15 26 13 27 14 28
DOCKED: REMARK H PARENT 3 5 15 29
DOCKED: USER                              x       y       z     vdW  Elec       q    Type
DOCKED: USER                           _______ _______ _______ _____ _____    ______ ____
DOCKED: ROOT
DOCKED: ATOM      1  C   UNL     1     140.637  74.402 220.216 -0.11 -0.05    +0.216 C  
DOCKED: ENDROOT
DOCKED: BRANCH   1   2
DOCKED: ATOM      2  N   UNL     1     140.751  75.685 219.563 -0.02 +0.11    -0.342 N  
DOCKED: ATOM      3  C   UNL     1     141.995  76.369 219.560 -0.17 -0.13    +0.270 C  
DOCKED: ATOM      4  O   UNL     1     142.969  75.807 220.144 -0.25 +0.16    -0.268 OA 
DOCKED: ATOM      5  H   UNL     1     139.916  76.131 219.082 +0.03 -0.05    +0.164 HD 
DOCKED: BRANCH   3   6
DOCKED: ATOM      6  C   UNL     1     142.106  77.659 218.903 -0.23 -0.08    +0.128 A  
DOCKED: ATOM      7  C   UNL     1     142.445  77.657 217.558 -0.26 -0.02    +0.035 A  
DOCKED: ATOM      8  N   UNL     1     141.894  78.834 219.554 -0.16 +0.15    -0.243 NA 
DOCKED: ATOM      9  C   UNL     1     142.567  78.859 216.875 -0.17 -0.01    +0.013 A  
DOCKED: ATOM     10  C   UNL     1     142.015  80.001 218.884 -0.28 -0.04    +0.071 A  
DOCKED: ATOM     11  C   UNL     1     142.352  80.038 217.536 -0.28 -0.00    +0.003 A  
DOCKED: ATOM     12  C   UNL     1     141.787  81.167 219.605 -0.27 -0.01    +0.032 A  
DOCKED: ATOM     13  C   UNL     1     142.455  81.279 216.925 -0.23 -0.05    +0.049 A  
DOCKED: ATOM     14  C   UNL     1     141.905  82.363 218.935 -0.17 -0.02    +0.041 A  
DOCKED: ATOM     15  C   UNL     1     142.237  82.462 217.601 -0.21 -0.07    +0.123 A  
DOCKED: ATOM     16  F   UNL     1     142.344  83.648 216.978 -0.04 +0.10    -0.207 F  
DOCKED: ENDBRANCH   3   6
DOCKED: ENDBRANCH   1   2
DOCKED: BRANCH   1  17
DOCKED: ATOM     17  C   UNL     1     140.174  74.564 221.625 -0.21 -0.03    +0.241 C  
DOCKED: ATOM     18  O   UNL     1     139.929  73.540 222.339 -0.81 +0.02    -0.273 OA 
DOCKED: BRANCH  17  19
DOCKED: ATOM     19  N   UNL     1     140.009  75.870 222.161 -0.19 +0.06    -0.340 N  
DOCKED: ATOM     20  C   UNL     1     138.730  76.547 222.390 -0.26 -0.02    +0.120 C  
DOCKED: ATOM     21  C   UNL     1     141.071  76.766 222.577 -0.21 -0.05    +0.129 C  
DOCKED: ATOM     22  C   UNL     1     139.076  77.975 222.719 -0.30 -0.01    +0.033 C  
DOCKED: ATOM     23  C   UNL     1     140.481  78.107 222.173 -0.36 -0.02    +0.059 C  
DOCKED: BRANCH  23  24
DOCKED: ATOM     24  C   UNL     1     141.226  79.257 222.740 -0.46 -0.01    +0.039 A  
DOCKED: ATOM     25  C   UNL     1     140.895  80.065 223.812 -0.39 -0.02    +0.134 A  
DOCKED: ATOM     26  N   UNL     1     142.402  79.679 222.238 -0.25 +0.16    -0.348 N  
DOCKED: ATOM     27  N   UNL     1     141.865  80.967 223.953 -0.34 +0.04    -0.245 NA 
DOCKED: ATOM     28  C   UNL     1     142.767  80.715 222.991 -0.43 -0.05    +0.196 A  
DOCKED: ATOM     29  H   UNL     1     142.958  79.313 221.433 -0.43 -0.15    +0.167 HD 
DOCKED: ENDBRANCH  23  24
DOCKED: ENDBRANCH  17  19
DOCKED: ENDBRANCH   1  17
DOCKED: TORSDOF 5
DOCKED: TER
DOCKED: ENDMDL
________________________________________________________________________________


    FINAL DOCKED STATE:
    ________________________


Run:   4 / 20
Time taken for this run:   0.023s

DOCKED: MODEL        4
DOCKED: USER    Run = 4
DOCKED: USER
DOCKED: USER    Estimated Free Energy of Binding    =  -8.05 kcal/mol  [=(1)+(2)+(3)-(4)]
DOCKED: USER
DOCKED: USER    (1) Final Intermolecular Energy     =  -9.54 kcal/mol
DOCKED: USER        vdW + Hbond + desolv Energy     =  -9.26 kcal/mol
DOCKED: USER        Electrostatic Energy            =  -0.28 kcal/mol
DOCKED: USER        Moving Ligand-Fixed Receptor    =  -9.54 kcal/mol
DOCKED: USER        Moving Ligand-Moving Receptor   =  +0.00 kcal/mol
DOCKED: USER    (2) Final Total Internal Energy     =  -1.06 kcal/mol
DOCKED: USER    (3) Torsional Free Energy           =  +1.49 kcal/mol
DOCKED: USER    (4) Unbound System's Energy         =  -1.06 kcal/mol
DOCKED: USER
DOCKED: USER
DOCKED: REMARK SMILES O=C(NCC(=O)N1CC[C@@H](c2cnc[nH]2)C1)c1ccc2cc(F)ccc2n1
DOCKED: REMARK SMILES IDX 4 1 3 2 2 3 1 4 17 6 18 7 27 8 19 9 26 10 20 11 25 12 21 13
DOCKED: REMARK SMILES IDX 24 14 22 15 23 16 5 17 6 18 7 19 8 20 16 21 9 22 10 23 11 24
DOCKED: REMARK SMILES IDX 12 25 15 26 13 27 14 28
DOCKED: REMARK H PARENT 3 5 15 29
DOCKED: USER                              x       y       z     vdW  Elec       q    Type
DOCKED: USER                           _______ _______ _______ _____ _____    ______ ____
DOCKED: ROOT
DOCKED: ATOM      1  C   UNL     1     139.266  74.262 220.983 -0.13 -0.04    +0.216 C  
DOCKED: ENDROOT
DOCKED: BRANCH   1   2
DOCKED: ATOM      2  N   UNL     1     139.306  73.463 222.185 -0.12 +0.08    -0.342 N  
DOCKED: ATOM      3  C   UNL     1     139.976  72.211 222.179 -0.20 -0.04    +0.270 C  
DOCKED: ATOM      4  O   UNL     1     140.519  71.848 221.093 -0.11 +0.04    -0.268 OA 
DOCKED: ATOM      5  H   UNL     1     138.841  73.794 223.079 -0.55 -0.10    +0.164 HD 
DOCKED: BRANCH   3   6
DOCKED: ATOM      6  C   UNL     1     140.014  71.409 223.388 -0.31 -0.02    +0.128 A  
DOCKED: ATOM      7  C   UNL     1     139.550  70.104 223.298 -0.25 -0.01    +0.035 A  
DOCKED: ATOM      8  N   UNL     1     140.478  71.889 224.573 -0.27 +0.04    -0.243 NA 
DOCKED: ATOM      9  C   UNL     1     139.561  69.288 224.420 -0.32 -0.00    +0.013 A  
DOCKED: ATOM     10  C   UNL     1     140.485  71.090 225.663 -0.53 -0.01    +0.071 A  
DOCKED: ATOM     11  C   UNL     1     140.029  69.779 225.610 -0.46 -0.00    +0.003 A  
DOCKED: ATOM     12  C   UNL     1     140.970  71.640 226.843 -0.72 -0.01    +0.032 A  
DOCKED: ATOM     13  C   UNL     1     140.072  69.027 226.774 -0.54 -0.01    +0.049 A  
DOCKED: ATOM     14  C   UNL     1     140.985  70.837 227.960 -0.66 -0.01    +0.041 A  
DOCKED: ATOM     15  C   UNL     1     140.546  69.531 227.968 -0.52 -0.02    +0.123 A  
DOCKED: ATOM     16  F   UNL     1     140.574  68.775 229.079 -0.12 +0.04    -0.207 F  
DOCKED: ENDBRANCH   3   6
DOCKED: ENDBRANCH   1   2
DOCKED: BRANCH   1  17
DOCKED: ATOM     17  C   UNL     1     139.998  75.548 221.179 -0.19 -0.06    +0.241 C  
DOCKED: ATOM     18  O   UNL     1     139.410  76.543 221.710 -0.17 +0.06    -0.273 OA 
DOCKED: BRANCH  17  19
DOCKED: ATOM     19  N   UNL     1     141.354  75.651 220.766 -0.13 +0.12    -0.340 N  
DOCKED: ATOM     20  C   UNL     1     141.976  76.825 220.150 -0.24 -0.07    +0.120 C  
DOCKED: ATOM     21  C   UNL     1     142.364  74.615 220.879 -0.17 -0.04    +0.129 C  
DOCKED: ATOM     22  C   UNL     1     143.327  76.367 219.667 -0.37 -0.02    +0.033 C  
DOCKED: ATOM     23  C   UNL     1     143.163  74.864 219.609 -0.31 -0.02    +0.059 C  
DOCKED: BRANCH  23  24
DOCKED: ATOM     24  C   UNL     1     144.453  74.132 219.590 -0.36 -0.01    +0.039 A  
DOCKED: ATOM     25  C   UNL     1     145.022  73.398 218.566 -0.19 +0.00    +0.134 A  
DOCKED: ATOM     26  N   UNL     1     145.283  74.097 220.650 -0.31 +0.09    -0.348 N  
DOCKED: ATOM     27  N   UNL     1     146.186  72.923 219.007 -0.69 -0.23    -0.245 NA 
DOCKED: ATOM     28  C   UNL     1     146.324  73.358 220.270 -0.43 +0.04    +0.196 A  
DOCKED: ATOM     29  H   UNL     1     145.186  74.533 221.594 +0.11 -0.07    +0.167 HD 
DOCKED: ENDBRANCH  23  24
DOCKED: ENDBRANCH  17  19
DOCKED: ENDBRANCH   1  17
DOCKED: TORSDOF 5
DOCKED: TER
DOCKED: ENDMDL
________________________________________________________________________________


    FINAL DOCKED STATE:
    ________________________


Run:   5 / 20
Time taken for this run:   0.023s

DOCKED: MODEL        5
DOCKED: USER    Run = 5
DOCKED: USER
DOCKED: USER    Estimated Free Energy of Binding    =  -8.58 kcal/mol  [=(1)+(2)+(3)-(4)]
DOCKED: USER
DOCKED: USER    (1) Final Intermolecular Energy     = -10.07 kcal/mol
DOCKED: USER        vdW + Hbond + desolv Energy     =  -9.93 kcal/mol
DOCKED: USER        Electrostatic Energy            =  -0.13 kcal/mol
DOCKED: USER        Moving Ligand-Fixed Receptor    = -10.07 kcal/mol
DOCKED: USER        Moving Ligand-Moving Receptor   =  +0.00 kcal/mol
DOCKED: USER    (2) Final Total Internal Energy     =  -0.82 kcal/mol
DOCKED: USER    (3) Torsional Free Energy           =  +1.49 kcal/mol
DOCKED: USER    (4) Unbound System's Energy         =  -0.82 kcal/mol
DOCKED: USER
DOCKED: USER
DOCKED: REMARK SMILES O=C(NCC(=O)N1CC[C@@H](c2cnc[nH]2)C1)c1ccc2cc(F)ccc2n1
DOCKED: REMARK SMILES IDX 4 1 3 2 2 3 1 4 17 6 18 7 27 8 19 9 26 10 20 11 25 12 21 13
DOCKED: REMARK SMILES IDX 24 14 22 15 23 16 5 17 6 18 7 19 8 20 16 21 9 22 10 23 11 24
DOCKED: REMARK SMILES IDX 12 25 15 26 13 27 14 28
DOCKED: REMARK H PARENT 3 5 15 29
DOCKED: USER                              x       y       z     vdW  Elec       q    Type
DOCKED: USER                           _______ _______ _______ _____ _____    ______ ____
DOCKED: ROOT
DOCKED: ATOM      1  C   UNL     1     139.784  74.442 221.148 -0.18 -0.04    +0.216 C  
DOCKED: ENDROOT
DOCKED: BRANCH   1   2
DOCKED: ATOM      2  N   UNL     1     139.615  73.589 222.301 -0.13 +0.06    -0.342 N  
DOCKED: ATOM      3  C   UNL     1     140.394  72.410 222.429 -0.20 -0.03    +0.270 C  
DOCKED: ATOM      4  O   UNL     1     141.221  72.156 221.502 -0.18 +0.03    -0.268 OA 
DOCKED: ATOM      5  H   UNL     1     138.913  73.828 223.061 -0.55 -0.09    +0.164 HD 
DOCKED: BRANCH   3   6
DOCKED: ATOM      6  C   UNL     1     140.222  71.554 223.589 -0.33 -0.02    +0.128 A  
DOCKED: ATOM      7  C   UNL     1     139.543  70.359 223.398 -0.28 -0.01    +0.035 A  
DOCKED: ATOM      8  N   UNL     1     140.693  71.885 224.821 -0.28 +0.03    -0.243 NA 
DOCKED: ATOM      9  C   UNL     1     139.346  69.499 224.469 -0.34 -0.00    +0.013 A  
DOCKED: ATOM     10  C   UNL     1     140.498  71.044 225.860 -0.54 -0.01    +0.071 A  
DOCKED: ATOM     11  C   UNL     1     139.823  69.839 225.707 -0.46 -0.00    +0.003 A  
DOCKED: ATOM     12  C   UNL     1     141.002  71.439 227.093 -0.72 -0.01    +0.032 A  
DOCKED: ATOM     13  C   UNL     1     139.666  69.034 226.826 -0.52 -0.01    +0.049 A  
DOCKED: ATOM     14  C   UNL     1     140.812  70.592 228.160 -0.59 -0.01    +0.041 A  
DOCKED: ATOM     15  C   UNL     1     140.151  69.385 228.069 -0.52 -0.02    +0.123 A  
DOCKED: ATOM     16  F   UNL     1     139.982  68.582 229.133 -0.13 +0.04    -0.207 F  
DOCKED: ENDBRANCH   3   6
DOCKED: ENDBRANCH   1   2
DOCKED: BRANCH   1  17
DOCKED: ATOM     17  C   UNL     1     138.836  75.594 221.198 -0.14 -0.05    +0.241 C  
DOCKED: ATOM     18  O   UNL     1     137.755  75.560 220.529 -0.03 +0.06    -0.273 OA 
DOCKED: BRANCH  17  19
DOCKED: ATOM     19  N   UNL     1     139.153  76.726 221.997 -0.14 +0.07    -0.340 N  
DOCKED: ATOM     20  C   UNL     1     138.189  77.572 222.704 -0.23 -0.02    +0.120 C  
DOCKED: ATOM     21  C   UNL     1     140.481  77.248 222.254 -0.35 -0.04    +0.129 C  
DOCKED: ATOM     22  C   UNL     1     138.969  78.767 223.186 -0.29 -0.01    +0.033 C  
DOCKED: ATOM     23  C   UNL     1     140.192  78.740 222.297 -0.33 -0.02    +0.059 C  
DOCKED: BRANCH  23  24
DOCKED: ATOM     24  C   UNL     1     141.327  79.529 222.836 -0.48 -0.01    +0.039 A  
DOCKED: ATOM     25  C   UNL     1     141.320  80.509 223.811 -0.42 -0.02    +0.134 A  
DOCKED: ATOM     26  N   UNL     1     142.592  79.368 222.405 -0.26 +0.19    -0.348 N  
DOCKED: ATOM     27  N   UNL     1     142.572  80.936 223.964 -0.41 +0.04    -0.245 NA 
DOCKED: ATOM     28  C   UNL     1     143.326  80.233 223.104 -0.46 -0.06    +0.196 A  
DOCKED: ATOM     29  H   UNL     1     142.978  78.723 221.680 -0.46 -0.17    +0.167 HD 
DOCKED: ENDBRANCH  23  24
DOCKED: ENDBRANCH  17  19
DOCKED: ENDBRANCH   1  17
DOCKED: TORSDOF 5
DOCKED: TER
DOCKED: ENDMDL
________________________________________________________________________________


    FINAL DOCKED STATE:
    ________________________


Run:   6 / 20
Time taken for this run:   0.023s

DOCKED: MODEL        6
DOCKED: USER    Run = 6
DOCKED: USER
DOCKED: USER    Estimated Free Energy of Binding    =  -8.63 kcal/mol  [=(1)+(2)+(3)-(4)]
DOCKED: USER
DOCKED: USER    (1) Final Intermolecular Energy     = -10.12 kcal/mol
DOCKED: USER        vdW + Hbond + desolv Energy     = -10.03 kcal/mol
DOCKED: USER        Electrostatic Energy            =  -0.09 kcal/mol
DOCKED: USER        Moving Ligand-Fixed Receptor    = -10.12 kcal/mol
DOCKED: USER        Moving Ligand-Moving Receptor   =  +0.00 kcal/mol
DOCKED: USER    (2) Final Total Internal Energy     =  -0.98 kcal/mol
DOCKED: USER    (3) Torsional Free Energy           =  +1.49 kcal/mol
DOCKED: USER    (4) Unbound System's Energy         =  -0.98 kcal/mol
DOCKED: USER
DOCKED: USER
DOCKED: REMARK SMILES O=C(NCC(=O)N1CC[C@@H](c2cnc[nH]2)C1)c1ccc2cc(F)ccc2n1
DOCKED: REMARK SMILES IDX 4 1 3 2 2 3 1 4 17 6 18 7 27 8 19 9 26 10 20 11 25 12 21 13
DOCKED: REMARK SMILES IDX 24 14 22 15 23 16 5 17 6 18 7 19 8 20 16 21 9 22 10 23 11 24
DOCKED: REMARK SMILES IDX 12 25 15 26 13 27 14 28
DOCKED: REMARK H PARENT 3 5 15 29
DOCKED: USER                              x       y       z     vdW  Elec       q    Type
DOCKED: USER                           _______ _______ _______ _____ _____    ______ ____
DOCKED: ROOT
DOCKED: ATOM      1  C   UNL     1     138.629  73.992 221.373 -0.13 -0.05    +0.216 C  
DOCKED: ENDROOT
DOCKED: BRANCH   1   2
DOCKED: ATOM      2  N   UNL     1     138.692  73.006 222.425 +0.01 +0.11    -0.342 N  
DOCKED: ATOM      3  C   UNL     1     139.953  72.533 222.877 -0.11 -0.04    +0.270 C  
DOCKED: ATOM      4  O   UNL     1     140.986  73.013 222.321 -0.58 -0.00    -0.268 OA 
DOCKED: ATOM      5  H   UNL     1     137.808  72.622 222.871 -0.25 -0.07    +0.164 HD 
DOCKED: BRANCH   3   6
DOCKED: ATOM      6  C   UNL     1     140.013  71.541 223.934 -0.35 -0.02    +0.128 A  
DOCKED: ATOM      7  C   UNL     1     139.544  70.270 223.637 -0.29 -0.01    +0.035 A  
DOCKED: ATOM      8  N   UNL     1     140.501  71.818 225.173 -0.28 +0.04    -0.243 NA 
DOCKED: ATOM      9  C   UNL     1     139.575  69.278 224.607 -0.35 -0.00    +0.013 A  
DOCKED: ATOM     10  C   UNL     1     140.529  70.848 226.114 -0.54 -0.01    +0.071 A  
DOCKED: ATOM     11  C   UNL     1     140.068  69.564 225.852 -0.48 -0.00    +0.003 A  
DOCKED: ATOM     12  C   UNL     1     141.039  71.194 227.359 -0.70 -0.01    +0.032 A  
DOCKED: ATOM     13  C   UNL     1     140.133  68.628 226.874 -0.58 -0.01    +0.049 A  
DOCKED: ATOM     14  C   UNL     1     141.073  70.216 228.327 -0.53 -0.01    +0.041 A  
DOCKED: ATOM     15  C   UNL     1     140.631  68.926 228.126 -0.54 -0.03    +0.123 A  
DOCKED: ATOM     16  F   UNL     1     140.680  67.996 229.093 -0.17 +0.06    -0.207 F  
DOCKED: ENDBRANCH   3   6
DOCKED: ENDBRANCH   1   2
DOCKED: BRANCH   1  17
DOCKED: ATOM     17  C   UNL     1     138.448  75.361 221.940 -0.18 -0.06    +0.241 C  
DOCKED: ATOM     18  O   UNL     1     137.398  75.644 222.601 -0.19 +0.08    -0.273 OA 
DOCKED: BRANCH  17  19
DOCKED: ATOM     19  N   UNL     1     139.456  76.342 221.737 -0.14 +0.08    -0.340 N  
DOCKED: ATOM     20  C   UNL     1     140.499  76.298 220.710 -0.20 -0.04    +0.120 C  
DOCKED: ATOM     21  C   UNL     1     139.634  77.559 222.506 -0.26 -0.03    +0.129 C  
DOCKED: ATOM     22  C   UNL     1     141.460  77.405 221.055 -0.29 -0.02    +0.033 C  
DOCKED: ATOM     23  C   UNL     1     141.150  77.666 222.512 -0.36 -0.02    +0.059 C  
DOCKED: BRANCH  23  24
DOCKED: ATOM     24  C   UNL     1     141.630  78.987 222.988 -0.53 -0.01    +0.039 A  
DOCKED: ATOM     25  C   UNL     1     140.938  79.969 223.673 -0.41 -0.03    +0.134 A  
DOCKED: ATOM     26  N   UNL     1     142.891  79.414 222.791 -0.29 +0.17    -0.348 N  
DOCKED: ATOM     27  N   UNL     1     141.778  80.980 223.887 -0.35 +0.04    -0.245 NA 
DOCKED: ATOM     28  C   UNL     1     142.954  80.624 223.345 -0.48 -0.05    +0.196 A  
DOCKED: ATOM     29  H   UNL     1     143.693  78.945 222.315 -0.50 -0.15    +0.167 HD 
DOCKED: ENDBRANCH  23  24
DOCKED: ENDBRANCH  17  19
DOCKED: ENDBRANCH   1  17
DOCKED: TORSDOF 5
DOCKED: TER
DOCKED: ENDMDL
________________________________________________________________________________


    FINAL DOCKED STATE:
    ________________________


Run:   7 / 20
Time taken for this run:   0.023s

DOCKED: MODEL        7
DOCKED: USER    Run = 7
DOCKED: USER
DOCKED: USER    Estimated Free Energy of Binding    =  -8.48 kcal/mol  [=(1)+(2)+(3)-(4)]
DOCKED: USER
DOCKED: USER    (1) Final Intermolecular Energy     =  -9.97 kcal/mol
DOCKED: USER        vdW + Hbond + desolv Energy     =  -9.85 kcal/mol
DOCKED: USER        Electrostatic Energy            =  -0.12 kcal/mol
DOCKED: USER        Moving Ligand-Fixed Receptor    =  -9.97 kcal/mol
DOCKED: USER        Moving Ligand-Moving Receptor   =  +0.00 kcal/mol
DOCKED: USER    (2) Final Total Internal Energy     =  -0.88 kcal/mol
DOCKED: USER    (3) Torsional Free Energy           =  +1.49 kcal/mol
DOCKED: USER    (4) Unbound System's Energy         =  -0.88 kcal/mol
DOCKED: USER
DOCKED: USER
DOCKED: REMARK SMILES O=C(NCC(=O)N1CC[C@@H](c2cnc[nH]2)C1)c1ccc2cc(F)ccc2n1
DOCKED: REMARK SMILES IDX 4 1 3 2 2 3 1 4 17 6 18 7 27 8 19 9 26 10 20 11 25 12 21 13
DOCKED: REMARK SMILES IDX 24 14 22 15 23 16 5 17 6 18 7 19 8 20 16 21 9 22 10 23 11 24
DOCKED: REMARK SMILES IDX 12 25 15 26 13 27 14 28
DOCKED: REMARK H PARENT 3 5 15 29
DOCKED: USER                              x       y       z     vdW  Elec       q    Type
DOCKED: USER                           _______ _______ _______ _____ _____    ______ ____
DOCKED: ROOT
DOCKED: ATOM      1  C   UNL     1     138.932  74.111 221.062 -0.12 -0.05    +0.216 C  
DOCKED: ENDROOT
DOCKED: BRANCH   1   2
DOCKED: ATOM      2  N   UNL     1     138.958  73.288 222.248 -0.07 +0.10    -0.342 N  
DOCKED: ATOM      3  C   UNL     1     139.843  72.179 222.320 -0.20 -0.05    +0.270 C  
DOCKED: ATOM      4  O   UNL     1     140.584  71.961 221.316 -0.13 +0.04    -0.268 OA 
DOCKED: ATOM      5  H   UNL     1     138.324  73.496 223.073 -0.52 -0.12    +0.164 HD 
DOCKED: BRANCH   3   6
DOCKED: ATOM      6  C   UNL     1     139.866  71.353 223.513 -0.32 -0.02    +0.128 A  
DOCKED: ATOM      7  C   UNL     1     139.317  70.083 223.415 -0.26 -0.01    +0.035 A  
DOCKED: ATOM      8  N   UNL     1     140.396  71.780 224.691 -0.28 +0.04    -0.243 NA 
DOCKED: ATOM      9  C   UNL     1     139.309  69.246 224.521 -0.35 -0.00    +0.013 A  
DOCKED: ATOM     10  C   UNL     1     140.385  70.961 225.765 -0.52 -0.01    +0.071 A  
DOCKED: ATOM     11  C   UNL     1     139.844  69.682 225.704 -0.46 -0.00    +0.003 A  
DOCKED: ATOM     12  C   UNL     1     140.941  71.455 226.939 -0.71 -0.01    +0.032 A  
DOCKED: ATOM     13  C   UNL     1     139.874  68.907 226.853 -0.54 -0.01    +0.049 A  
DOCKED: ATOM     14  C   UNL     1     140.938  70.632 228.041 -0.62 -0.01    +0.041 A  
DOCKED: ATOM     15  C   UNL     1     140.416  69.356 228.040 -0.52 -0.02    +0.123 A  
DOCKED: ATOM     16  F   UNL     1     140.429  68.578 229.136 -0.13 +0.04    -0.207 F  
DOCKED: ENDBRANCH   3   6
DOCKED: ENDBRANCH   1   2
DOCKED: BRANCH   1  17
DOCKED: ATOM     17  C   UNL     1     140.077  75.068 221.057 -0.18 -0.05    +0.241 C  
DOCKED: ATOM     18  O   UNL     1     141.133  74.797 220.400 -0.13 +0.07    -0.273 OA 
DOCKED: BRANCH  17  19
DOCKED: ATOM     19  N   UNL     1     139.979  76.281 221.792 -0.17 +0.08    -0.340 N  
DOCKED: ATOM     20  C   UNL     1     138.735  76.961 222.160 -0.25 -0.02    +0.120 C  
DOCKED: ATOM     21  C   UNL     1     141.087  77.062 222.306 -0.27 -0.05    +0.129 C  
DOCKED: ATOM     22  C   UNL     1     139.147  78.308 222.693 -0.31 -0.01    +0.033 C  
DOCKED: ATOM     23  C   UNL     1     140.542  78.471 222.130 -0.34 -0.02    +0.059 C  
DOCKED: BRANCH  23  24
DOCKED: ATOM     24  C   UNL     1     141.348  79.491 222.844 -0.48 -0.01    +0.039 A  
DOCKED: ATOM     25  C   UNL     1     140.932  80.456 223.742 -0.38 -0.02    +0.134 A  
DOCKED: ATOM     26  N   UNL     1     142.680  79.605 222.686 -0.29 +0.16    -0.348 N  
DOCKED: ATOM     27  N   UNL     1     142.007  81.145 224.122 -0.34 +0.03    -0.245 NA 
DOCKED: ATOM     28  C   UNL     1     143.054  80.614 223.471 -0.48 -0.05    +0.196 A  
DOCKED: ATOM     29  H   UNL     1     143.335  79.050 222.090 -0.47 -0.15    +0.167 HD 
DOCKED: ENDBRANCH  23  24
DOCKED: ENDBRANCH  17  19
DOCKED: ENDBRANCH   1  17
DOCKED: TORSDOF 5
DOCKED: TER
DOCKED: ENDMDL
________________________________________________________________________________


    FINAL DOCKED STATE:
    ________________________


Run:   8 / 20
Time taken for this run:   0.023s

DOCKED: MODEL        8
DOCKED: USER    Run = 8
DOCKED: USER
DOCKED: USER    Estimated Free Energy of Binding    =  -8.49 kcal/mol  [=(1)+(2)+(3)-(4)]
DOCKED: USER
DOCKED: USER    (1) Final Intermolecular Energy     =  -9.99 kcal/mol
DOCKED: USER        vdW + Hbond + desolv Energy     =  -9.88 kcal/mol
DOCKED: USER        Electrostatic Energy            =  -0.10 kcal/mol
DOCKED: USER        Moving Ligand-Fixed Receptor    =  -9.99 kcal/mol
DOCKED: USER        Moving Ligand-Moving Receptor   =  +0.00 kcal/mol
DOCKED: USER    (2) Final Total Internal Energy     =  -0.86 kcal/mol
DOCKED: USER    (3) Torsional Free Energy           =  +1.49 kcal/mol
DOCKED: USER    (4) Unbound System's Energy         =  -0.86 kcal/mol
DOCKED: USER
DOCKED: USER
DOCKED: REMARK SMILES O=C(NCC(=O)N1CC[C@@H](c2cnc[nH]2)C1)c1ccc2cc(F)ccc2n1
DOCKED: REMARK SMILES IDX 4 1 3 2 2 3 1 4 17 6 18 7 27 8 19 9 26 10 20 11 25 12 21 13
DOCKED: REMARK SMILES IDX 24 14 22 15 23 16 5 17 6 18 7 19 8 20 16 21 9 22 10 23 11 24
DOCKED: REMARK SMILES IDX 12 25 15 26 13 27 14 28
DOCKED: REMARK H PARENT 3 5 15 29
DOCKED: USER                              x       y       z     vdW  Elec       q    Type
DOCKED: USER                           _______ _______ _______ _____ _____    ______ ____
DOCKED: ROOT
DOCKED: ATOM      1  C   UNL     1     140.127  74.509 221.157 -0.19 -0.04    +0.216 C  
DOCKED: ENDROOT
DOCKED: BRANCH   1   2
DOCKED: ATOM      2  N   UNL     1     139.958  73.680 222.327 -0.09 +0.02    -0.342 N  
DOCKED: ATOM      3  C   UNL     1     140.408  72.334 222.311 -0.21 -0.03    +0.270 C  
DOCKED: ATOM      4  O   UNL     1     140.950  71.916 221.244 -0.14 +0.03    -0.268 OA 
DOCKED: ATOM      5  H   UNL     1     139.499  74.059 223.205 -0.50 -0.03    +0.164 HD 
DOCKED: BRANCH   3   6
DOCKED: ATOM      6  C   UNL     1     140.236  71.503 223.488 -0.32 -0.02    +0.128 A  
DOCKED: ATOM      7  C   UNL     1     139.587  70.289 223.316 -0.26 -0.01    +0.035 A  
DOCKED: ATOM      8  N   UNL     1     140.681  71.872 224.718 -0.27 +0.03    -0.243 NA 
DOCKED: ATOM      9  C   UNL     1     139.391  69.450 224.404 -0.33 -0.00    +0.013 A  
DOCKED: ATOM     10  C   UNL     1     140.488  71.052 225.774 -0.53 -0.01    +0.071 A  
DOCKED: ATOM     11  C   UNL     1     139.842  69.829 225.640 -0.46 -0.00    +0.003 A  
DOCKED: ATOM     12  C   UNL     1     140.964  71.487 227.005 -0.72 -0.01    +0.032 A  
DOCKED: ATOM     13  C   UNL     1     139.685  69.048 226.775 -0.52 -0.01    +0.049 A  
DOCKED: ATOM     14  C   UNL     1     140.776  70.661 228.089 -0.62 -0.01    +0.041 A  
DOCKED: ATOM     15  C   UNL     1     140.143  69.439 228.017 -0.52 -0.02    +0.123 A  
DOCKED: ATOM     16  F   UNL     1     139.975  68.657 229.097 -0.14 +0.04    -0.207 F  
DOCKED: ENDBRANCH   3   6
DOCKED: ENDBRANCH   1   2
DOCKED: BRANCH   1  17
DOCKED: ATOM     17  C   UNL     1     139.142  75.630 221.155 -0.15 -0.05    +0.241 C  
DOCKED: ATOM     18  O   UNL     1     138.093  75.557 220.438 -0.03 +0.06    -0.273 OA 
DOCKED: BRANCH  17  19
DOCKED: ATOM     19  N   UNL     1     139.385  76.777 221.959 -0.15 +0.08    -0.340 N  
DOCKED: ATOM     20  C   UNL     1     138.364  77.584 222.631 -0.24 -0.02    +0.120 C  
DOCKED: ATOM     21  C   UNL     1     140.682  77.353 222.258 -0.36 -0.04    +0.129 C  
DOCKED: ATOM     22  C   UNL     1     139.078  78.812 223.133 -0.32 -0.01    +0.033 C  
DOCKED: ATOM     23  C   UNL     1     140.331  78.832 222.285 -0.33 -0.02    +0.059 C  
DOCKED: BRANCH  23  24
DOCKED: ATOM     24  C   UNL     1     141.414  79.669 222.857 -0.49 -0.01    +0.039 A  
DOCKED: ATOM     25  C   UNL     1     141.318  80.743 223.723 -0.43 -0.02    +0.134 A  
DOCKED: ATOM     26  N   UNL     1     142.714  79.463 222.579 -0.27 +0.17    -0.348 N  
DOCKED: ATOM     27  N   UNL     1     142.553  81.180 223.963 -0.40 +0.04    -0.245 NA 
DOCKED: ATOM     28  C   UNL     1     143.383  80.392 223.261 -0.43 -0.06    +0.196 A  
DOCKED: ATOM     29  H   UNL     1     143.165  78.746 221.967 -0.47 -0.16    +0.167 HD 
DOCKED: ENDBRANCH  23  24
DOCKED: ENDBRANCH  17  19
DOCKED: ENDBRANCH   1  17
DOCKED: TORSDOF 5
DOCKED: TER
DOCKED: ENDMDL
________________________________________________________________________________


    FINAL DOCKED STATE:
    ________________________


Run:   9 / 20
Time taken for this run:   0.023s

DOCKED: MODEL        9
DOCKED: USER    Run = 9
DOCKED: USER
DOCKED: USER    Estimated Free Energy of Binding    =  -8.14 kcal/mol  [=(1)+(2)+(3)-(4)]
DOCKED: USER
DOCKED: USER    (1) Final Intermolecular Energy     =  -9.63 kcal/mol
DOCKED: USER        vdW + Hbond + desolv Energy     =  -9.55 kcal/mol
DOCKED: USER        Electrostatic Energy            =  -0.08 kcal/mol
DOCKED: USER        Moving Ligand-Fixed Receptor    =  -9.63 kcal/mol
DOCKED: USER        Moving Ligand-Moving Receptor   =  +0.00 kcal/mol
DOCKED: USER    (2) Final Total Internal Energy     =  -0.95 kcal/mol
DOCKED: USER    (3) Torsional Free Energy           =  +1.49 kcal/mol
DOCKED: USER    (4) Unbound System's Energy         =  -0.95 kcal/mol
DOCKED: USER
DOCKED: USER
DOCKED: REMARK SMILES O=C(NCC(=O)N1CC[C@@H](c2cnc[nH]2)C1)c1ccc2cc(F)ccc2n1
DOCKED: REMARK SMILES IDX 4 1 3 2 2 3 1 4 17 6 18 7 27 8 19 9 26 10 20 11 25 12 21 13
DOCKED: REMARK SMILES IDX 24 14 22 15 23 16 5 17 6 18 7 19 8 20 16 21 9 22 10 23 11 24
DOCKED: REMARK SMILES IDX 12 25 15 26 13 27 14 28
DOCKED: REMARK H PARENT 3 5 15 29
DOCKED: USER                              x       y       z     vdW  Elec       q    Type
DOCKED: USER                           _______ _______ _______ _____ _____    ______ ____
DOCKED: ROOT
DOCKED: ATOM      1  C   UNL     1     139.806  74.448 221.159 -0.18 -0.04    +0.216 C  
DOCKED: ENDROOT
DOCKED: BRANCH   1   2
DOCKED: ATOM      2  N   UNL     1     139.773  73.621 222.342 -0.11 +0.04    -0.342 N  
DOCKED: ATOM      3  C   UNL     1     140.080  72.238 222.246 -0.20 -0.04    +0.270 C  
DOCKED: ATOM      4  O   UNL     1     140.376  71.787 221.099 -0.10 +0.04    -0.268 OA 
DOCKED: ATOM      5  H   UNL     1     139.521  74.028 223.289 -0.48 -0.03    +0.164 HD 
DOCKED: BRANCH   3   6
DOCKED: ATOM      6  C   UNL     1     140.046  71.409 223.437 -0.31 -0.02    +0.128 A  
DOCKED: ATOM      7  C   UNL     1     139.528  70.129 223.302 -0.25 -0.01    +0.035 A  
DOCKED: ATOM      8  N   UNL     1     140.494  71.841 224.645 -0.27 +0.04    -0.243 NA 
DOCKED: ATOM      9  C   UNL     1     139.468  69.288 224.404 -0.32 -0.00    +0.013 A  
DOCKED: ATOM     10  C   UNL     1     140.433  71.018 225.716 -0.52 -0.01    +0.071 A  
DOCKED: ATOM     11  C   UNL     1     139.921  69.730 225.618 -0.46 -0.00    +0.003 A  
DOCKED: ATOM     12  C   UNL     1     140.906  71.519 226.923 -0.72 -0.01    +0.032 A  
DOCKED: ATOM     13  C   UNL     1     139.894  68.952 226.765 -0.53 -0.01    +0.049 A  
DOCKED: ATOM     14  C   UNL     1     140.851  70.692 228.020 -0.64 -0.01    +0.041 A  
DOCKED: ATOM     15  C   UNL     1     140.354  69.407 227.985 -0.53 -0.02    +0.123 A  
DOCKED: ATOM     16  F   UNL     1     140.314  68.626 229.077 -0.15 +0.04    -0.207 F  
DOCKED: ENDBRANCH   3   6
DOCKED: ENDBRANCH   1   2
DOCKED: BRANCH   1  17
DOCKED: ATOM     17  C   UNL     1     138.937  75.650 221.329 -0.16 -0.05    +0.241 C  
DOCKED: ATOM     18  O   UNL     1     137.684  75.513 221.500 -0.10 +0.06    -0.273 OA 
DOCKED: BRANCH  17  19
DOCKED: ATOM     19  N   UNL     1     139.521  76.945 221.298 -0.08 +0.09    -0.340 N  
DOCKED: ATOM     20  C   UNL     1     139.646  77.801 220.116 -0.08 -0.04    +0.120 C  
DOCKED: ATOM     21  C   UNL     1     140.098  77.652 222.426 -0.31 -0.03    +0.129 C  
DOCKED: ATOM     22  C   UNL     1     140.545  78.937 220.526 -0.20 -0.01    +0.033 C  
DOCKED: ATOM     23  C   UNL     1     141.246  78.378 221.744 -0.36 -0.03    +0.059 C  
DOCKED: BRANCH  23  24
DOCKED: ATOM     24  C   UNL     1     141.855  79.423 222.603 -0.52 -0.02    +0.039 A  
DOCKED: ATOM     25  C   UNL     1     141.233  80.404 223.353 -0.43 -0.03    +0.134 A  
DOCKED: ATOM     26  N   UNL     1     143.186  79.547 222.762 -0.24 +0.17    -0.348 N  
DOCKED: ATOM     27  N   UNL     1     142.184  81.112 223.960 -0.38 +0.04    -0.245 NA 
DOCKED: ATOM     28  C   UNL     1     143.358  80.577 223.588 -0.43 -0.05    +0.196 A  
DOCKED: ATOM     29  H   UNL     1     143.966  78.986 222.352 -0.48 -0.15    +0.167 HD 
DOCKED: ENDBRANCH  23  24
DOCKED: ENDBRANCH  17  19
DOCKED: ENDBRANCH   1  17
DOCKED: TORSDOF 5
DOCKED: TER
DOCKED: ENDMDL
________________________________________________________________________________


    FINAL DOCKED STATE:
    ________________________


Run:   10 / 20
Time taken for this run:   0.023s

DOCKED: MODEL        10
DOCKED: USER    Run = 10
DOCKED: USER
DOCKED: USER    Estimated Free Energy of Binding    =  -8.44 kcal/mol  [=(1)+(2)+(3)-(4)]
DOCKED: USER
DOCKED: USER    (1) Final Intermolecular Energy     =  -9.94 kcal/mol
DOCKED: USER        vdW + Hbond + desolv Energy     =  -9.83 kcal/mol
DOCKED: USER        Electrostatic Energy            =  -0.11 kcal/mol
DOCKED: USER        Moving Ligand-Fixed Receptor    =  -9.94 kcal/mol
DOCKED: USER        Moving Ligand-Moving Receptor   =  +0.00 kcal/mol
DOCKED: USER    (2) Final Total Internal Energy     =  -0.83 kcal/mol
DOCKED: USER    (3) Torsional Free Energy           =  +1.49 kcal/mol
DOCKED: USER    (4) Unbound System's Energy         =  -0.83 kcal/mol
DOCKED: USER
DOCKED: USER
DOCKED: REMARK SMILES O=C(NCC(=O)N1CC[C@@H](c2cnc[nH]2)C1)c1ccc2cc(F)ccc2n1
DOCKED: REMARK SMILES IDX 4 1 3 2 2 3 1 4 17 6 18 7 27 8 19 9 26 10 20 11 25 12 21 13
DOCKED: REMARK SMILES IDX 24 14 22 15 23 16 5 17 6 18 7 19 8 20 16 21 9 22 10 23 11 24
DOCKED: REMARK SMILES IDX 12 25 15 26 13 27 14 28
DOCKED: REMARK H PARENT 3 5 15 29
DOCKED: USER                              x       y       z     vdW  Elec       q    Type
DOCKED: USER                           _______ _______ _______ _____ _____    ______ ____
DOCKED: ROOT
DOCKED: ATOM      1  C   UNL     1     139.296  74.287 221.075 -0.14 -0.04    +0.216 C  
DOCKED: ENDROOT
DOCKED: BRANCH   1   2
DOCKED: ATOM      2  N   UNL     1     139.267  73.451 222.252 -0.11 +0.08    -0.342 N  
DOCKED: ATOM      3  C   UNL     1     140.069  72.281 222.309 -0.21 -0.04    +0.270 C  
DOCKED: ATOM      4  O   UNL     1     140.790  72.021 221.299 -0.14 +0.03    -0.268 OA 
DOCKED: ATOM      5  H   UNL     1     138.652  73.695 223.082 -0.54 -0.11    +0.164 HD 
DOCKED: BRANCH   3   6
DOCKED: ATOM      6  C   UNL     1     140.037  71.442 223.493 -0.32 -0.02    +0.128 A  
DOCKED: ATOM      7  C   UNL     1     139.432  70.200 223.373 -0.26 -0.01    +0.035 A  
DOCKED: ATOM      8  N   UNL     1     140.568  71.832 224.682 -0.27 +0.03    -0.243 NA 
DOCKED: ATOM      9  C   UNL     1     139.370  69.353 224.470 -0.34 -0.00    +0.013 A  
DOCKED: ATOM     10  C   UNL     1     140.505  71.003 225.748 -0.53 -0.01    +0.071 A  
DOCKED: ATOM     11  C   UNL     1     139.907  69.752 225.665 -0.46 -0.00    +0.003 A  
DOCKED: ATOM     12  C   UNL     1     141.065  71.460 226.935 -0.71 -0.01    +0.032 A  
DOCKED: ATOM     13  C   UNL     1     139.884  68.964 226.806 -0.54 -0.01    +0.049 A  
DOCKED: ATOM     14  C   UNL     1     141.008  70.626 228.028 -0.62 -0.01    +0.041 A  
DOCKED: ATOM     15  C   UNL     1     140.428  69.376 228.005 -0.52 -0.02    +0.123 A  
DOCKED: ATOM     16  F   UNL     1     140.390  68.587 229.092 -0.15 +0.04    -0.207 F  
DOCKED: ENDBRANCH   3   6
DOCKED: ENDBRANCH   1   2
DOCKED: BRANCH   1  17
DOCKED: ATOM     17  C   UNL     1     140.547  75.100 221.035 -0.19 -0.06    +0.241 C  
DOCKED: ATOM     18  O   UNL     1     141.664  74.542 220.791 -0.20 +0.07    -0.273 OA 
DOCKED: BRANCH  17  19
DOCKED: ATOM     19  N   UNL     1     140.479  76.500 221.271 -0.13 +0.11    -0.340 N  
DOCKED: ATOM     20  C   UNL     1     139.794  77.480 220.424 -0.11 -0.04    +0.120 C  
DOCKED: ATOM     21  C   UNL     1     141.074  77.210 222.387 -0.31 -0.05    +0.129 C  
DOCKED: ATOM     22  C   UNL     1     140.216  78.831 220.938 -0.20 -0.01    +0.033 C  
DOCKED: ATOM     23  C   UNL     1     141.477  78.509 221.709 -0.37 -0.03    +0.059 C  
DOCKED: BRANCH  23  24
DOCKED: ATOM     24  C   UNL     1     141.860  79.567 222.677 -0.53 -0.01    +0.039 A  
DOCKED: ATOM     25  C   UNL     1     141.054  80.295 223.533 -0.42 -0.02    +0.134 A  
DOCKED: ATOM     26  N   UNL     1     143.133  79.970 222.845 -0.31 +0.14    -0.348 N  
DOCKED: ATOM     27  N   UNL     1     141.839  81.131 224.212 -0.30 +0.03    -0.245 NA 
DOCKED: ATOM     28  C   UNL     1     143.092  80.918 223.780 -0.42 -0.04    +0.196 A  
DOCKED: ATOM     29  H   UNL     1     144.007  79.648 222.374 -0.46 -0.11    +0.167 HD 
DOCKED: ENDBRANCH  23  24
DOCKED: ENDBRANCH  17  19
DOCKED: ENDBRANCH   1  17
DOCKED: TORSDOF 5
DOCKED: TER
DOCKED: ENDMDL
________________________________________________________________________________


    FINAL DOCKED STATE:
    ________________________


Run:   11 / 20
Time taken for this run:   0.023s

DOCKED: MODEL        11
DOCKED: USER    Run = 11
DOCKED: USER
DOCKED: USER    Estimated Free Energy of Binding    =  -8.66 kcal/mol  [=(1)+(2)+(3)-(4)]
DOCKED: USER
DOCKED: USER    (1) Final Intermolecular Energy     = -10.15 kcal/mol
DOCKED: USER        vdW + Hbond + desolv Energy     = -10.05 kcal/mol
DOCKED: USER        Electrostatic Energy            =  -0.10 kcal/mol
DOCKED: USER        Moving Ligand-Fixed Receptor    = -10.15 kcal/mol
DOCKED: USER        Moving Ligand-Moving Receptor   =  +0.00 kcal/mol
DOCKED: USER    (2) Final Total Internal Energy     =  -0.96 kcal/mol
DOCKED: USER    (3) Torsional Free Energy           =  +1.49 kcal/mol
DOCKED: USER    (4) Unbound System's Energy         =  -0.96 kcal/mol
DOCKED: USER
DOCKED: USER
DOCKED: REMARK SMILES O=C(NCC(=O)N1CC[C@@H](c2cnc[nH]2)C1)c1ccc2cc(F)ccc2n1
DOCKED: REMARK SMILES IDX 4 1 3 2 2 3 1 4 17 6 18 7 27 8 19 9 26 10 20 11 25 12 21 13
DOCKED: REMARK SMILES IDX 24 14 22 15 23 16 5 17 6 18 7 19 8 20 16 21 9 22 10 23 11 24
DOCKED: REMARK SMILES IDX 12 25 15 26 13 27 14 28
DOCKED: REMARK H PARENT 3 5 15 29
DOCKED: USER                              x       y       z     vdW  Elec       q    Type
DOCKED: USER                           _______ _______ _______ _____ _____    ______ ____
DOCKED: ROOT
DOCKED: ATOM      1  C   UNL     1     138.799  74.174 221.293 -0.14 -0.05    +0.216 C  
DOCKED: ENDROOT
DOCKED: BRANCH   1   2
DOCKED: ATOM      2  N   UNL     1     138.818  73.198 222.356 -0.03 +0.11    -0.342 N  
DOCKED: ATOM      3  C   UNL     1     140.046  72.603 222.750 -0.15 -0.04    +0.270 C  
DOCKED: ATOM      4  O   UNL     1     141.092  72.969 222.134 -0.45 +0.00    -0.268 OA 
DOCKED: ATOM      5  H   UNL     1     137.924  72.911 222.853 -0.35 -0.08    +0.164 HD 
DOCKED: BRANCH   3   6
DOCKED: ATOM      6  C   UNL     1     140.061  71.622 223.818 -0.33 -0.02    +0.128 A  
DOCKED: ATOM      7  C   UNL     1     139.543  70.366 223.532 -0.29 -0.01    +0.035 A  
DOCKED: ATOM      8  N   UNL     1     140.553  71.892 225.056 -0.27 +0.04    -0.243 NA 
DOCKED: ATOM      9  C   UNL     1     139.530  69.385 224.513 -0.34 -0.00    +0.013 A  
DOCKED: ATOM     10  C   UNL     1     140.538  70.933 226.008 -0.54 -0.01    +0.071 A  
DOCKED: ATOM     11  C   UNL     1     140.027  69.665 225.758 -0.47 -0.00    +0.003 A  
DOCKED: ATOM     12  C   UNL     1     141.054  71.272 227.253 -0.71 -0.01    +0.032 A  
DOCKED: ATOM     13  C   UNL     1     140.049  68.740 226.790 -0.56 -0.01    +0.049 A  
DOCKED: ATOM     14  C   UNL     1     141.045  70.305 228.231 -0.54 -0.01    +0.041 A  
DOCKED: ATOM     15  C   UNL     1     140.553  69.031 228.042 -0.54 -0.02    +0.123 A  
DOCKED: ATOM     16  F   UNL     1     140.559  68.110 229.020 -0.18 +0.05    -0.207 F  
DOCKED: ENDBRANCH   3   6
DOCKED: ENDBRANCH   1   2
DOCKED: BRANCH   1  17
DOCKED: ATOM     17  C   UNL     1     138.550  75.542 221.835 -0.18 -0.06    +0.241 C  
DOCKED: ATOM     18  O   UNL     1     137.472  75.794 222.462 -0.19 +0.07    -0.273 OA 
DOCKED: BRANCH  17  19
DOCKED: ATOM     19  N   UNL     1     139.525  76.559 221.644 -0.13 +0.08    -0.340 N  
DOCKED: ATOM     20  C   UNL     1     140.535  76.589 220.585 -0.18 -0.04    +0.120 C  
DOCKED: ATOM     21  C   UNL     1     139.696  77.745 222.462 -0.28 -0.03    +0.129 C  
DOCKED: ATOM     22  C   UNL     1     141.477  77.707 220.949 -0.31 -0.02    +0.033 C  
DOCKED: ATOM     23  C   UNL     1     141.208  77.894 222.426 -0.39 -0.03    +0.059 C  
DOCKED: BRANCH  23  24
DOCKED: ATOM     24  C   UNL     1     141.668  79.205 222.945 -0.53 -0.01    +0.039 A  
DOCKED: ATOM     25  C   UNL     1     140.962  80.152 223.664 -0.40 -0.02    +0.134 A  
DOCKED: ATOM     26  N   UNL     1     142.922  79.659 222.762 -0.30 +0.16    -0.348 N  
DOCKED: ATOM     27  N   UNL     1     141.787  81.169 223.911 -0.35 +0.03    -0.245 NA 
DOCKED: ATOM     28  C   UNL     1     142.967  80.850 223.357 -0.42 -0.04    +0.196 A  
DOCKED: ATOM     29  H   UNL     1     143.730  79.218 222.268 -0.50 -0.14    +0.167 HD 
DOCKED: ENDBRANCH  23  24
DOCKED: ENDBRANCH  17  19
DOCKED: ENDBRANCH   1  17
DOCKED: TORSDOF 5
DOCKED: TER
DOCKED: ENDMDL
________________________________________________________________________________


    FINAL DOCKED STATE:
    ________________________


Run:   12 / 20
Time taken for this run:   0.023s

DOCKED: MODEL        12
DOCKED: USER    Run = 12
DOCKED: USER
DOCKED: USER    Estimated Free Energy of Binding    =  -8.43 kcal/mol  [=(1)+(2)+(3)-(4)]
DOCKED: USER
DOCKED: USER    (1) Final Intermolecular Energy     =  -9.92 kcal/mol
DOCKED: USER        vdW + Hbond + desolv Energy     =  -9.81 kcal/mol
DOCKED: USER        Electrostatic Energy            =  -0.11 kcal/mol
DOCKED: USER        Moving Ligand-Fixed Receptor    =  -9.92 kcal/mol
DOCKED: USER        Moving Ligand-Moving Receptor   =  +0.00 kcal/mol
DOCKED: USER    (2) Final Total Internal Energy     =  -0.85 kcal/mol
DOCKED: USER    (3) Torsional Free Energy           =  +1.49 kcal/mol
DOCKED: USER    (4) Unbound System's Energy         =  -0.85 kcal/mol
DOCKED: USER
DOCKED: USER
DOCKED: REMARK SMILES O=C(NCC(=O)N1CC[C@@H](c2cnc[nH]2)C1)c1ccc2cc(F)ccc2n1
DOCKED: REMARK SMILES IDX 4 1 3 2 2 3 1 4 17 6 18 7 27 8 19 9 26 10 20 11 25 12 21 13
DOCKED: REMARK SMILES IDX 24 14 22 15 23 16 5 17 6 18 7 19 8 20 16 21 9 22 10 23 11 24
DOCKED: REMARK SMILES IDX 12 25 15 26 13 27 14 28
DOCKED: REMARK H PARENT 3 5 15 29
DOCKED: USER                              x       y       z     vdW  Elec       q    Type
DOCKED: USER                           _______ _______ _______ _____ _____    ______ ____
DOCKED: ROOT
DOCKED: ATOM      1  C   UNL     1     139.303  74.270 221.059 -0.14 -0.04    +0.216 C  
DOCKED: ENDROOT
DOCKED: BRANCH   1   2
DOCKED: ATOM      2  N   UNL     1     139.293  73.443 222.243 -0.11 +0.08    -0.342 N  
DOCKED: ATOM      3  C   UNL     1     140.065  72.252 222.279 -0.21 -0.04    +0.270 C  
DOCKED: ATOM      4  O   UNL     1     140.742  71.966 221.246 -0.13 +0.04    -0.268 OA 
DOCKED: ATOM      5  H   UNL     1     138.715  73.708 223.092 -0.54 -0.11    +0.164 HD 
DOCKED: BRANCH   3   6
DOCKED: ATOM      6  C   UNL     1     140.054  71.422 223.470 -0.32 -0.02    +0.128 A  
DOCKED: ATOM      7  C   UNL     1     139.494  70.157 223.354 -0.26 -0.01    +0.035 A  
DOCKED: ATOM      8  N   UNL     1     140.561  71.839 224.660 -0.27 +0.03    -0.243 NA 
DOCKED: ATOM      9  C   UNL     1     139.452  69.318 224.458 -0.33 -0.00    +0.013 A  
DOCKED: ATOM     10  C   UNL     1     140.518  71.017 225.732 -0.53 -0.01    +0.071 A  
DOCKED: ATOM     11  C   UNL     1     139.965  69.745 225.654 -0.46 -0.00    +0.003 A  
DOCKED: ATOM     12  C   UNL     1     141.051  71.502 226.920 -0.72 -0.01    +0.032 A  
DOCKED: ATOM     13  C   UNL     1     139.961  68.965 226.801 -0.54 -0.01    +0.049 A  
DOCKED: ATOM     14  C   UNL     1     141.015  70.675 228.018 -0.63 -0.01    +0.041 A  
DOCKED: ATOM     15  C   UNL     1     140.480  69.405 228.002 -0.52 -0.02    +0.123 A  
DOCKED: ATOM     16  F   UNL     1     140.460  68.624 229.094 -0.15 +0.04    -0.207 F  
DOCKED: ENDBRANCH   3   6
DOCKED: ENDBRANCH   1   2
DOCKED: BRANCH   1  17
DOCKED: ATOM     17  C   UNL     1     140.553  75.082 220.991 -0.19 -0.06    +0.241 C  
DOCKED: ATOM     18  O   UNL     1     141.664  74.522 220.724 -0.20 +0.07    -0.273 OA 
DOCKED: BRANCH  17  19
DOCKED: ATOM     19  N   UNL     1     140.492  76.482 221.228 -0.13 +0.11    -0.340 N  
DOCKED: ATOM     20  C   UNL     1     139.822  77.466 220.376 -0.11 -0.04    +0.120 C  
DOCKED: ATOM     21  C   UNL     1     141.082  77.187 222.350 -0.30 -0.05    +0.129 C  
DOCKED: ATOM     22  C   UNL     1     140.247  78.815 220.895 -0.20 -0.01    +0.033 C  
DOCKED: ATOM     23  C   UNL     1     141.499  78.484 221.678 -0.37 -0.03    +0.059 C  
DOCKED: BRANCH  23  24
DOCKED: ATOM     24  C   UNL     1     141.880  79.538 222.650 -0.52 -0.01    +0.039 A  
DOCKED: ATOM     25  C   UNL     1     141.072  80.266 223.504 -0.43 -0.03    +0.134 A  
DOCKED: ATOM     26  N   UNL     1     143.153  79.938 222.826 -0.30 +0.14    -0.348 N  
DOCKED: ATOM     27  N   UNL     1     141.855  81.098 224.189 -0.31 +0.03    -0.245 NA 
DOCKED: ATOM     28  C   UNL     1     143.110  80.884 223.763 -0.44 -0.04    +0.196 A  
DOCKED: ATOM     29  H   UNL     1     144.029  79.615 222.358 -0.47 -0.11    +0.167 HD 
DOCKED: ENDBRANCH  23  24
DOCKED: ENDBRANCH  17  19
DOCKED: ENDBRANCH   1  17
DOCKED: TORSDOF 5
DOCKED: TER
DOCKED: ENDMDL
________________________________________________________________________________


    FINAL DOCKED STATE:
    ________________________


Run:   13 / 20
Time taken for this run:   0.023s

DOCKED: MODEL        13
DOCKED: USER    Run = 13
DOCKED: USER
DOCKED: USER    Estimated Free Energy of Binding    =  -7.77 kcal/mol  [=(1)+(2)+(3)-(4)]
DOCKED: USER
DOCKED: USER    (1) Final Intermolecular Energy     =  -9.27 kcal/mol
DOCKED: USER        vdW + Hbond + desolv Energy     =  -9.26 kcal/mol
DOCKED: USER        Electrostatic Energy            =  -0.01 kcal/mol
DOCKED: USER        Moving Ligand-Fixed Receptor    =  -9.27 kcal/mol
DOCKED: USER        Moving Ligand-Moving Receptor   =  +0.00 kcal/mol
DOCKED: USER    (2) Final Total Internal Energy     =  -1.03 kcal/mol
DOCKED: USER    (3) Torsional Free Energy           =  +1.49 kcal/mol
DOCKED: USER    (4) Unbound System's Energy         =  -1.03 kcal/mol
DOCKED: USER
DOCKED: USER
DOCKED: REMARK SMILES O=C(NCC(=O)N1CC[C@@H](c2cnc[nH]2)C1)c1ccc2cc(F)ccc2n1
DOCKED: REMARK SMILES IDX 4 1 3 2 2 3 1 4 17 6 18 7 27 8 19 9 26 10 20 11 25 12 21 13
DOCKED: REMARK SMILES IDX 24 14 22 15 23 16 5 17 6 18 7 19 8 20 16 21 9 22 10 23 11 24
DOCKED: REMARK SMILES IDX 12 25 15 26 13 27 14 28
DOCKED: REMARK H PARENT 3 5 15 29
DOCKED: USER                              x       y       z     vdW  Elec       q    Type
DOCKED: USER                           _______ _______ _______ _____ _____    ______ ____
DOCKED: ROOT
DOCKED: ATOM      1  C   UNL     1     139.729  73.554 221.546 -0.19 -0.04    +0.216 C  
DOCKED: ENDROOT
DOCKED: BRANCH   1   2
DOCKED: ATOM      2  N   UNL     1     140.032  72.649 222.630 -0.17 +0.05    -0.342 N  
DOCKED: ATOM      3  C   UNL     1     139.048  71.728 223.077 -0.15 -0.07    +0.270 C  
DOCKED: ATOM      4  O   UNL     1     137.926  71.745 222.489 -0.11 +0.07    -0.268 OA 
DOCKED: ATOM      5  H   UNL     1     140.981  72.659 223.103 +0.04 +0.01    +0.164 HD 
DOCKED: BRANCH   3   6
DOCKED: ATOM      6  C   UNL     1     139.355  70.820 224.167 -0.31 -0.03    +0.128 A  
DOCKED: ATOM      7  C   UNL     1     138.916  69.509 224.041 -0.29 -0.01    +0.035 A  
DOCKED: ATOM      8  N   UNL     1     140.039  71.208 225.275 -0.31 +0.04    -0.243 NA 
DOCKED: ATOM      9  C   UNL     1     139.177  68.594 225.050 -0.42 -0.00    +0.013 A  
DOCKED: ATOM     10  C   UNL     1     140.291  70.312 226.255 -0.50 -0.01    +0.071 A  
DOCKED: ATOM     11  C   UNL     1     139.867  68.992 226.164 -0.52 -0.00    +0.003 A  
DOCKED: ATOM     12  C   UNL     1     140.994  70.771 227.363 -0.63 -0.01    +0.032 A  
DOCKED: ATOM     13  C   UNL     1     140.168  68.139 227.214 -0.63 -0.01    +0.049 A  
DOCKED: ATOM     14  C   UNL     1     141.258  69.870 228.367 -0.45 -0.01    +0.041 A  
DOCKED: ATOM     15  C   UNL     1     140.864  68.550 228.333 -0.55 -0.03    +0.123 A  
DOCKED: ATOM     16  F   UNL     1     141.139  67.696 229.333 -0.16 +0.06    -0.207 F  
DOCKED: ENDBRANCH   3   6
DOCKED: ENDBRANCH   1   2
DOCKED: BRANCH   1  17
DOCKED: ATOM     17  C   UNL     1     140.879  74.469 221.284 -0.21 -0.04    +0.241 C  
DOCKED: ATOM     18  O   UNL     1     142.030  73.991 221.029 -0.21 +0.05    -0.273 OA 
DOCKED: BRANCH  17  19
DOCKED: ATOM     19  N   UNL     1     140.677  75.876 221.323 -0.16 +0.10    -0.340 N  
DOCKED: ATOM     20  C   UNL     1     140.051  76.680 220.272 -0.12 -0.04    +0.120 C  
DOCKED: ATOM     21  C   UNL     1     141.054  76.765 222.405 -0.26 -0.05    +0.129 C  
DOCKED: ATOM     22  C   UNL     1     140.296  78.116 220.655 -0.19 -0.01    +0.033 C  
DOCKED: ATOM     23  C   UNL     1     141.454  78.005 221.621 -0.32 -0.03    +0.059 C  
DOCKED: BRANCH  23  24
DOCKED: ATOM     24  C   UNL     1     141.617  79.201 222.483 -0.48 -0.02    +0.039 A  
DOCKED: ATOM     25  C   UNL     1     140.663  79.881 223.217 -0.38 -0.03    +0.134 A  
DOCKED: ATOM     26  N   UNL     1     142.805  79.809 222.664 -0.30 +0.15    -0.348 N  
DOCKED: ATOM     27  N   UNL     1     141.273  80.892 223.835 -0.31 +0.03    -0.245 NA 
DOCKED: ATOM     28  C   UNL     1     142.567  80.829 223.487 -0.49 -0.04    +0.196 A  
DOCKED: ATOM     29  H   UNL     1     143.744  79.577 222.272 -0.48 -0.12    +0.167 HD 
DOCKED: ENDBRANCH  23  24
DOCKED: ENDBRANCH  17  19
DOCKED: ENDBRANCH   1  17
DOCKED: TORSDOF 5
DOCKED: TER
DOCKED: ENDMDL
________________________________________________________________________________


    FINAL DOCKED STATE:
    ________________________


Run:   14 / 20
Time taken for this run:   0.023s

DOCKED: MODEL        14
DOCKED: USER    Run = 14
DOCKED: USER
DOCKED: USER    Estimated Free Energy of Binding    =  -8.49 kcal/mol  [=(1)+(2)+(3)-(4)]
DOCKED: USER
DOCKED: USER    (1) Final Intermolecular Energy     =  -9.98 kcal/mol
DOCKED: USER        vdW + Hbond + desolv Energy     =  -9.88 kcal/mol
DOCKED: USER        Electrostatic Energy            =  -0.10 kcal/mol
DOCKED: USER        Moving Ligand-Fixed Receptor    =  -9.98 kcal/mol
DOCKED: USER        Moving Ligand-Moving Receptor   =  +0.00 kcal/mol
DOCKED: USER    (2) Final Total Internal Energy     =  -0.86 kcal/mol
DOCKED: USER    (3) Torsional Free Energy           =  +1.49 kcal/mol
DOCKED: USER    (4) Unbound System's Energy         =  -0.86 kcal/mol
DOCKED: USER
DOCKED: USER
DOCKED: REMARK SMILES O=C(NCC(=O)N1CC[C@@H](c2cnc[nH]2)C1)c1ccc2cc(F)ccc2n1
DOCKED: REMARK SMILES IDX 4 1 3 2 2 3 1 4 17 6 18 7 27 8 19 9 26 10 20 11 25 12 21 13
DOCKED: REMARK SMILES IDX 24 14 22 15 23 16 5 17 6 18 7 19 8 20 16 21 9 22 10 23 11 24
DOCKED: REMARK SMILES IDX 12 25 15 26 13 27 14 28
DOCKED: REMARK H PARENT 3 5 15 29
DOCKED: USER                              x       y       z     vdW  Elec       q    Type
DOCKED: USER                           _______ _______ _______ _____ _____    ______ ____
DOCKED: ROOT
DOCKED: ATOM      1  C   UNL     1     140.132  74.505 221.134 -0.19 -0.04    +0.216 C  
DOCKED: ENDROOT
DOCKED: BRANCH   1   2
DOCKED: ATOM      2  N   UNL     1     139.963  73.684 222.309 -0.09 +0.02    -0.342 N  
DOCKED: ATOM      3  C   UNL     1     140.413  72.337 222.301 -0.21 -0.03    +0.270 C  
DOCKED: ATOM      4  O   UNL     1     140.955  71.912 221.237 -0.14 +0.03    -0.268 OA 
DOCKED: ATOM      5  H   UNL     1     139.504  74.068 223.185 -0.51 -0.03    +0.164 HD 
DOCKED: BRANCH   3   6
DOCKED: ATOM      6  C   UNL     1     140.241  71.513 223.483 -0.32 -0.02    +0.128 A  
DOCKED: ATOM      7  C   UNL     1     139.586  70.301 223.319 -0.26 -0.01    +0.035 A  
DOCKED: ATOM      8  N   UNL     1     140.690  71.888 224.710 -0.27 +0.03    -0.243 NA 
DOCKED: ATOM      9  C   UNL     1     139.390  69.469 224.413 -0.33 -0.00    +0.013 A  
DOCKED: ATOM     10  C   UNL     1     140.497  71.074 225.771 -0.53 -0.01    +0.071 A  
DOCKED: ATOM     11  C   UNL     1     139.845  69.853 225.646 -0.46 -0.00    +0.003 A  
DOCKED: ATOM     12  C   UNL     1     140.979  71.513 226.998 -0.72 -0.01    +0.032 A  
DOCKED: ATOM     13  C   UNL     1     139.689  69.079 226.786 -0.52 -0.01    +0.049 A  
DOCKED: ATOM     14  C   UNL     1     140.789  70.695 228.087 -0.62 -0.01    +0.041 A  
DOCKED: ATOM     15  C   UNL     1     140.151  69.475 228.024 -0.52 -0.02    +0.123 A  
DOCKED: ATOM     16  F   UNL     1     139.983  68.700 229.109 -0.14 +0.04    -0.207 F  
DOCKED: ENDBRANCH   3   6
DOCKED: ENDBRANCH   1   2
DOCKED: BRANCH   1  17
DOCKED: ATOM     17  C   UNL     1     139.155  75.633 221.131 -0.14 -0.05    +0.241 C  
DOCKED: ATOM     18  O   UNL     1     138.106  75.566 220.413 -0.03 +0.06    -0.273 OA 
DOCKED: BRANCH  17  19
DOCKED: ATOM     19  N   UNL     1     139.405  76.779 221.933 -0.14 +0.08    -0.340 N  
DOCKED: ATOM     20  C   UNL     1     138.392  77.581 222.622 -0.24 -0.02    +0.120 C  
DOCKED: ATOM     21  C   UNL     1     140.704  77.360 222.214 -0.36 -0.04    +0.129 C  
DOCKED: ATOM     22  C   UNL     1     139.109  78.810 223.116 -0.32 -0.01    +0.033 C  
DOCKED: ATOM     23  C   UNL     1     140.348  78.837 222.249 -0.33 -0.02    +0.059 C  
DOCKED: BRANCH  23  24
DOCKED: ATOM     24  C   UNL     1     141.436  79.677 222.807 -0.49 -0.01    +0.039 A  
DOCKED: ATOM     25  C   UNL     1     141.350  80.743 223.683 -0.43 -0.02    +0.134 A  
DOCKED: ATOM     26  N   UNL     1     142.733  79.482 222.501 -0.26 +0.18    -0.348 N  
DOCKED: ATOM     27  N   UNL     1     142.587  81.187 223.902 -0.40 +0.04    -0.245 NA 
DOCKED: ATOM     28  C   UNL     1     143.408  80.410 223.177 -0.42 -0.06    +0.196 A  
DOCKED: ATOM     29  H   UNL     1     143.176  78.773 221.874 -0.47 -0.17    +0.167 HD 
DOCKED: ENDBRANCH  23  24
DOCKED: ENDBRANCH  17  19
DOCKED: ENDBRANCH   1  17
DOCKED: TORSDOF 5
DOCKED: TER
DOCKED: ENDMDL
________________________________________________________________________________


    FINAL DOCKED STATE:
    ________________________


Run:   15 / 20
Time taken for this run:   0.023s

DOCKED: MODEL        15
DOCKED: USER    Run = 15
DOCKED: USER
DOCKED: USER    Estimated Free Energy of Binding    =  -6.06 kcal/mol  [=(1)+(2)+(3)-(4)]
DOCKED: USER
DOCKED: USER    (1) Final Intermolecular Energy     =  -7.56 kcal/mol
DOCKED: USER        vdW + Hbond + desolv Energy     =  -7.44 kcal/mol
DOCKED: USER        Electrostatic Energy            =  -0.12 kcal/mol
DOCKED: USER        Moving Ligand-Fixed Receptor    =  -7.56 kcal/mol
DOCKED: USER        Moving Ligand-Moving Receptor   =  +0.00 kcal/mol
DOCKED: USER    (2) Final Total Internal Energy     =  -2.39 kcal/mol
DOCKED: USER    (3) Torsional Free Energy           =  +1.49 kcal/mol
DOCKED: USER    (4) Unbound System's Energy         =  -2.39 kcal/mol
DOCKED: USER
DOCKED: USER
DOCKED: REMARK SMILES O=C(NCC(=O)N1CC[C@@H](c2cnc[nH]2)C1)c1ccc2cc(F)ccc2n1
DOCKED: REMARK SMILES IDX 4 1 3 2 2 3 1 4 17 6 18 7 27 8 19 9 26 10 20 11 25 12 21 13
DOCKED: REMARK SMILES IDX 24 14 22 15 23 16 5 17 6 18 7 19 8 20 16 21 9 22 10 23 11 24
DOCKED: REMARK SMILES IDX 12 25 15 26 13 27 14 28
DOCKED: REMARK H PARENT 3 5 15 29
DOCKED: USER                              x       y       z     vdW  Elec       q    Type
DOCKED: USER                           _______ _______ _______ _____ _____    ______ ____
DOCKED: ROOT
DOCKED: ATOM      1  C   UNL     1     140.511  74.437 220.180 -0.10 -0.05    +0.216 C  
DOCKED: ENDROOT
DOCKED: BRANCH   1   2
DOCKED: ATOM      2  N   UNL     1     140.650  75.722 219.536 -0.02 +0.11    -0.342 N  
DOCKED: ATOM      3  C   UNL     1     141.909  76.379 219.532 -0.16 -0.13    +0.270 C  
DOCKED: ATOM      4  O   UNL     1     142.872  75.791 220.109 -0.26 +0.16    -0.268 OA 
DOCKED: ATOM      5  H   UNL     1     139.824  76.190 219.061 +0.03 -0.05    +0.164 HD 
DOCKED: BRANCH   3   6
DOCKED: ATOM      6  C   UNL     1     142.046  77.670 218.884 -0.23 -0.08    +0.128 A  
DOCKED: ATOM      7  C   UNL     1     142.418  77.672 217.548 -0.25 -0.02    +0.035 A  
DOCKED: ATOM      8  N   UNL     1     141.826  78.844 219.534 -0.16 +0.15    -0.243 NA 
DOCKED: ATOM      9  C   UNL     1     142.566  78.875 216.874 -0.16 -0.01    +0.013 A  
DOCKED: ATOM     10  C   UNL     1     141.972  80.014 218.872 -0.28 -0.04    +0.071 A  
DOCKED: ATOM     11  C   UNL     1     142.343  80.054 217.534 -0.28 -0.00    +0.003 A  
DOCKED: ATOM     12  C   UNL     1     141.734  81.178 219.592 -0.27 -0.01    +0.032 A  
DOCKED: ATOM     13  C   UNL     1     142.470  81.296 216.931 -0.23 -0.05    +0.049 A  
DOCKED: ATOM     14  C   UNL     1     141.878  82.376 218.931 -0.18 -0.02    +0.041 A  
DOCKED: ATOM     15  C   UNL     1     142.244  82.478 217.606 -0.21 -0.07    +0.123 A  
DOCKED: ATOM     16  F   UNL     1     142.375  83.665 216.991 -0.04 +0.10    -0.207 F  
DOCKED: ENDBRANCH   3   6
DOCKED: ENDBRANCH   1   2
DOCKED: BRANCH   1  17
DOCKED: ATOM     17  C   UNL     1     140.156  74.603 221.620 -0.21 -0.04    +0.241 C  
DOCKED: ATOM     18  O   UNL     1     139.989  73.580 222.358 -0.82 +0.02    -0.273 OA 
DOCKED: BRANCH  17  19
DOCKED: ATOM     19  N   UNL     1     140.005  75.910 222.157 -0.20 +0.06    -0.340 N  
DOCKED: ATOM     20  C   UNL     1     138.733  76.594 222.403 -0.26 -0.02    +0.120 C  
DOCKED: ATOM     21  C   UNL     1     141.078  76.800 222.558 -0.21 -0.05    +0.129 C  
DOCKED: ATOM     22  C   UNL     1     139.092  78.021 222.727 -0.30 -0.01    +0.033 C  
DOCKED: ATOM     23  C   UNL     1     140.489  78.144 222.161 -0.36 -0.02    +0.059 C  
DOCKED: BRANCH  23  24
DOCKED: ATOM     24  C   UNL     1     141.249  79.291 222.717 -0.46 -0.01    +0.039 A  
DOCKED: ATOM     25  C   UNL     1     140.940  80.097 223.797 -0.40 -0.02    +0.134 A  
DOCKED: ATOM     26  N   UNL     1     142.416  79.710 222.194 -0.24 +0.16    -0.348 N  
DOCKED: ATOM     27  N   UNL     1     141.915  80.996 223.922 -0.36 +0.04    -0.245 NA 
DOCKED: ATOM     28  C   UNL     1     142.798  80.744 222.943 -0.41 -0.05    +0.196 A  
DOCKED: ATOM     29  H   UNL     1     142.956  79.345 221.378 -0.42 -0.15    +0.167 HD 
DOCKED: ENDBRANCH  23  24
DOCKED: ENDBRANCH  17  19
DOCKED: ENDBRANCH   1  17
DOCKED: TORSDOF 5
DOCKED: TER
DOCKED: ENDMDL
________________________________________________________________________________


    FINAL DOCKED STATE:
    ________________________


Run:   16 / 20
Time taken for this run:   0.023s

DOCKED: MODEL        16
DOCKED: USER    Run = 16
DOCKED: USER
DOCKED: USER    Estimated Free Energy of Binding    =  -8.24 kcal/mol  [=(1)+(2)+(3)-(4)]
DOCKED: USER
DOCKED: USER    (1) Final Intermolecular Energy     =  -9.74 kcal/mol
DOCKED: USER        vdW + Hbond + desolv Energy     =  -9.69 kcal/mol
DOCKED: USER        Electrostatic Energy            =  -0.05 kcal/mol
DOCKED: USER        Moving Ligand-Fixed Receptor    =  -9.74 kcal/mol
DOCKED: USER        Moving Ligand-Moving Receptor   =  +0.00 kcal/mol
DOCKED: USER    (2) Final Total Internal Energy     =  -1.05 kcal/mol
DOCKED: USER    (3) Torsional Free Energy           =  +1.49 kcal/mol
DOCKED: USER    (4) Unbound System's Energy         =  -1.05 kcal/mol
DOCKED: USER
DOCKED: USER
DOCKED: REMARK SMILES O=C(NCC(=O)N1CC[C@@H](c2cnc[nH]2)C1)c1ccc2cc(F)ccc2n1
DOCKED: REMARK SMILES IDX 4 1 3 2 2 3 1 4 17 6 18 7 27 8 19 9 26 10 20 11 25 12 21 13
DOCKED: REMARK SMILES IDX 24 14 22 15 23 16 5 17 6 18 7 19 8 20 16 21 9 22 10 23 11 24
DOCKED: REMARK SMILES IDX 12 25 15 26 13 27 14 28
DOCKED: REMARK H PARENT 3 5 15 29
DOCKED: USER                              x       y       z     vdW  Elec       q    Type
DOCKED: USER                           _______ _______ _______ _____ _____    ______ ____
DOCKED: ROOT
DOCKED: ATOM      1  C   UNL     1     138.948  73.941 221.218 -0.13 -0.05    +0.216 C  
DOCKED: ENDROOT
DOCKED: BRANCH   1   2
DOCKED: ATOM      2  N   UNL     1     139.240  73.167 222.401 -0.07 +0.09    -0.342 N  
DOCKED: ATOM      3  C   UNL     1     139.082  71.756 222.380 -0.16 -0.06    +0.270 C  
DOCKED: ATOM      4  O   UNL     1     138.682  71.232 221.298 -0.05 +0.05    -0.268 OA 
DOCKED: ATOM      5  H   UNL     1     139.573  73.635 223.293 -0.47 -0.04    +0.164 HD 
DOCKED: BRANCH   3   6
DOCKED: ATOM      6  C   UNL     1     139.376  70.981 223.571 -0.28 -0.03    +0.128 A  
DOCKED: ATOM      7  C   UNL     1     139.036  69.636 223.551 -0.25 -0.01    +0.035 A  
DOCKED: ATOM      8  N   UNL     1     139.958  71.523 224.674 -0.28 +0.05    -0.243 NA 
DOCKED: ATOM      9  C   UNL     1     139.291  68.843 224.660 -0.36 -0.00    +0.013 A  
DOCKED: ATOM     10  C   UNL     1     140.204  70.745 225.752 -0.50 -0.01    +0.071 A  
DOCKED: ATOM     11  C   UNL     1     139.877  69.395 225.768 -0.47 -0.00    +0.003 A  
DOCKED: ATOM     12  C   UNL     1     140.800  71.358 226.848 -0.69 -0.01    +0.032 A  
DOCKED: ATOM     13  C   UNL     1     140.164  68.669 226.914 -0.58 -0.01    +0.049 A  
DOCKED: ATOM     14  C   UNL     1     141.057  70.578 227.951 -0.62 -0.01    +0.041 A  
DOCKED: ATOM     15  C   UNL     1     140.756  69.236 228.025 -0.52 -0.03    +0.123 A  
DOCKED: ATOM     16  F   UNL     1     141.020  68.503 229.120 -0.14 +0.05    -0.207 F  
DOCKED: ENDBRANCH   3   6
DOCKED: ENDBRANCH   1   2
DOCKED: BRANCH   1  17
DOCKED: ATOM     17  C   UNL     1     139.988  74.988 221.000 -0.17 -0.05    +0.241 C  
DOCKED: ATOM     18  O   UNL     1     140.916  74.800 220.150 -0.09 +0.07    -0.273 OA 
DOCKED: BRANCH  17  19
DOCKED: ATOM     19  N   UNL     1     139.934  76.195 221.749 -0.17 +0.08    -0.340 N  
DOCKED: ATOM     20  C   UNL     1     138.716  76.858 222.219 -0.25 -0.02    +0.120 C  
DOCKED: ATOM     21  C   UNL     1     141.071  76.986 222.181 -0.29 -0.05    +0.129 C  
DOCKED: ATOM     22  C   UNL     1     139.154  78.206 222.729 -0.31 -0.01    +0.033 C  
DOCKED: ATOM     23  C   UNL     1     140.498  78.389 222.059 -0.33 -0.02    +0.059 C  
DOCKED: BRANCH  23  24
DOCKED: ATOM     24  C   UNL     1     141.346  79.414 222.715 -0.47 -0.01    +0.039 A  
DOCKED: ATOM     25  C   UNL     1     140.970  80.447 223.554 -0.41 -0.02    +0.134 A  
DOCKED: ATOM     26  N   UNL     1     142.682  79.460 222.557 -0.27 +0.17    -0.348 N  
DOCKED: ATOM     27  N   UNL     1     142.074  81.110 223.898 -0.38 +0.04    -0.245 NA 
DOCKED: ATOM     28  C   UNL     1     143.098  80.496 223.284 -0.49 -0.05    +0.196 A  
DOCKED: ATOM     29  H   UNL     1     143.314  78.844 221.998 -0.49 -0.17    +0.167 HD 
DOCKED: ENDBRANCH  23  24
DOCKED: ENDBRANCH  17  19
DOCKED: ENDBRANCH   1  17
DOCKED: TORSDOF 5
DOCKED: TER
DOCKED: ENDMDL
________________________________________________________________________________


    FINAL DOCKED STATE:
    ________________________


Run:   17 / 20
Time taken for this run:   0.023s

DOCKED: MODEL        17
DOCKED: USER    Run = 17
DOCKED: USER
DOCKED: USER    Estimated Free Energy of Binding    =  -8.27 kcal/mol  [=(1)+(2)+(3)-(4)]
DOCKED: USER
DOCKED: USER    (1) Final Intermolecular Energy     =  -9.76 kcal/mol
DOCKED: USER        vdW + Hbond + desolv Energy     =  -9.71 kcal/mol
DOCKED: USER        Electrostatic Energy            =  -0.06 kcal/mol
DOCKED: USER        Moving Ligand-Fixed Receptor    =  -9.76 kcal/mol
DOCKED: USER        Moving Ligand-Moving Receptor   =  +0.00 kcal/mol
DOCKED: USER    (2) Final Total Internal Energy     =  -1.04 kcal/mol
DOCKED: USER    (3) Torsional Free Energy           =  +1.49 kcal/mol
DOCKED: USER    (4) Unbound System's Energy         =  -1.04 kcal/mol
DOCKED: USER
DOCKED: USER
DOCKED: REMARK SMILES O=C(NCC(=O)N1CC[C@@H](c2cnc[nH]2)C1)c1ccc2cc(F)ccc2n1
DOCKED: REMARK SMILES IDX 4 1 3 2 2 3 1 4 17 6 18 7 27 8 19 9 26 10 20 11 25 12 21 13
DOCKED: REMARK SMILES IDX 24 14 22 15 23 16 5 17 6 18 7 19 8 20 16 21 9 22 10 23 11 24
DOCKED: REMARK SMILES IDX 12 25 15 26 13 27 14 28
DOCKED: REMARK H PARENT 3 5 15 29
DOCKED: USER                              x       y       z     vdW  Elec       q    Type
DOCKED: USER                           _______ _______ _______ _____ _____    ______ ____
DOCKED: ROOT
DOCKED: ATOM      1  C   UNL     1     139.237  74.094 221.238 -0.15 -0.04    +0.216 C  
DOCKED: ENDROOT
DOCKED: BRANCH   1   2
DOCKED: ATOM      2  N   UNL     1     139.435  73.298 222.426 -0.07 +0.07    -0.342 N  
DOCKED: ATOM      3  C   UNL     1     139.434  71.881 222.336 -0.18 -0.05    +0.270 C  
DOCKED: ATOM      4  O   UNL     1     139.256  71.372 221.189 -0.06 +0.05    -0.268 OA 
DOCKED: ATOM      5  H   UNL     1     139.582  73.754 223.374 -0.47 -0.04    +0.164 HD 
DOCKED: BRANCH   3   6
DOCKED: ATOM      6  C   UNL     1     139.633  71.083 223.532 -0.30 -0.02    +0.128 A  
DOCKED: ATOM      7  C   UNL     1     139.238  69.754 223.479 -0.25 -0.01    +0.035 A  
DOCKED: ATOM      8  N   UNL     1     140.179  71.589 224.670 -0.28 +0.04    -0.243 NA 
DOCKED: ATOM      9  C   UNL     1     139.401  68.940 224.591 -0.34 -0.00    +0.013 A  
DOCKED: ATOM     10  C   UNL     1     140.336  70.792 225.750 -0.51 -0.01    +0.071 A  
DOCKED: ATOM     11  C   UNL     1     139.952  69.457 225.734 -0.47 -0.00    +0.003 A  
DOCKED: ATOM     12  C   UNL     1     140.898  71.369 226.882 -0.69 -0.01    +0.032 A  
DOCKED: ATOM     13  C   UNL     1     140.148  68.709 226.885 -0.58 -0.01    +0.049 A  
DOCKED: ATOM     14  C   UNL     1     141.065  70.569 227.988 -0.61 -0.01    +0.041 A  
DOCKED: ATOM     15  C   UNL     1     140.704  69.240 228.032 -0.52 -0.02    +0.123 A  
DOCKED: ATOM     16  F   UNL     1     140.880  68.487 229.130 -0.14 +0.05    -0.207 F  
DOCKED: ENDBRANCH   3   6
DOCKED: ENDBRANCH   1   2
DOCKED: BRANCH   1  17
DOCKED: ATOM     17  C   UNL     1     138.800  75.475 221.594 -0.18 -0.05    +0.241 C  
DOCKED: ATOM     18  O   UNL     1     137.614  75.684 222.005 -0.14 +0.07    -0.273 OA 
DOCKED: BRANCH  17  19
DOCKED: ATOM     19  N   UNL     1     139.717  76.554 221.469 -0.11 +0.09    -0.340 N  
DOCKED: ATOM     20  C   UNL     1     140.721  76.707 220.414 -0.18 -0.04    +0.120 C  
DOCKED: ATOM     21  C   UNL     1     139.826  77.693 222.361 -0.30 -0.03    +0.129 C  
DOCKED: ATOM     22  C   UNL     1     141.603  77.848 220.850 -0.31 -0.02    +0.033 C  
DOCKED: ATOM     23  C   UNL     1     141.328  77.926 222.335 -0.35 -0.03    +0.059 C  
DOCKED: BRANCH  23  24
DOCKED: ATOM     24  C   UNL     1     141.718  79.224 222.938 -0.53 -0.01    +0.039 A  
DOCKED: ATOM     25  C   UNL     1     140.952  80.102 223.682 -0.41 -0.02    +0.134 A  
DOCKED: ATOM     26  N   UNL     1     142.957  79.736 222.819 -0.31 +0.15    -0.348 N  
DOCKED: ATOM     27  N   UNL     1     141.727  81.136 224.009 -0.32 +0.03    -0.245 NA 
DOCKED: ATOM     28  C   UNL     1     142.935  80.894 223.477 -0.44 -0.04    +0.196 A  
DOCKED: ATOM     29  H   UNL     1     143.798  79.355 222.330 -0.49 -0.13    +0.167 HD 
DOCKED: ENDBRANCH  23  24
DOCKED: ENDBRANCH  17  19
DOCKED: ENDBRANCH   1  17
DOCKED: TORSDOF 5
DOCKED: TER
DOCKED: ENDMDL
________________________________________________________________________________


    FINAL DOCKED STATE:
    ________________________


Run:   18 / 20
Time taken for this run:   0.023s

DOCKED: MODEL        18
DOCKED: USER    Run = 18
DOCKED: USER
DOCKED: USER    Estimated Free Energy of Binding    =  -8.26 kcal/mol  [=(1)+(2)+(3)-(4)]
DOCKED: USER
DOCKED: USER    (1) Final Intermolecular Energy     =  -9.75 kcal/mol
DOCKED: USER        vdW + Hbond + desolv Energy     =  -9.67 kcal/mol
DOCKED: USER        Electrostatic Energy            =  -0.08 kcal/mol
DOCKED: USER        Moving Ligand-Fixed Receptor    =  -9.75 kcal/mol
DOCKED: USER        Moving Ligand-Moving Receptor   =  +0.00 kcal/mol
DOCKED: USER    (2) Final Total Internal Energy     =  -0.99 kcal/mol
DOCKED: USER    (3) Torsional Free Energy           =  +1.49 kcal/mol
DOCKED: USER    (4) Unbound System's Energy         =  -0.99 kcal/mol
DOCKED: USER
DOCKED: USER
DOCKED: REMARK SMILES O=C(NCC(=O)N1CC[C@@H](c2cnc[nH]2)C1)c1ccc2cc(F)ccc2n1
DOCKED: REMARK SMILES IDX 4 1 3 2 2 3 1 4 17 6 18 7 27 8 19 9 26 10 20 11 25 12 21 13
DOCKED: REMARK SMILES IDX 24 14 22 15 23 16 5 17 6 18 7 19 8 20 16 21 9 22 10 23 11 24
DOCKED: REMARK SMILES IDX 12 25 15 26 13 27 14 28
DOCKED: REMARK H PARENT 3 5 15 29
DOCKED: USER                              x       y       z     vdW  Elec       q    Type
DOCKED: USER                           _______ _______ _______ _____ _____    ______ ____
DOCKED: ROOT
DOCKED: ATOM      1  C   UNL     1     139.687  73.762 221.471 -0.19 -0.04    +0.216 C  
DOCKED: ENDROOT
DOCKED: BRANCH   1   2
DOCKED: ATOM      2  N   UNL     1     139.706  72.957 222.670 -0.11 +0.06    -0.342 N  
DOCKED: ATOM      3  C   UNL     1     139.908  71.555 222.577 -0.20 -0.04    +0.270 C  
DOCKED: ATOM      4  O   UNL     1     140.065  71.066 221.418 -0.10 +0.04    -0.268 OA 
DOCKED: ATOM      5  H   UNL     1     139.571  73.396 223.627 -0.39 -0.06    +0.164 HD 
DOCKED: BRANCH   3   6
DOCKED: ATOM      6  C   UNL     1     139.927  70.748 223.783 -0.30 -0.02    +0.128 A  
DOCKED: ATOM      7  C   UNL     1     139.387  69.472 223.700 -0.24 -0.01    +0.035 A  
DOCKED: ATOM      8  N   UNL     1     140.443  71.197 224.958 -0.32 +0.04    -0.243 NA 
DOCKED: ATOM      9  C   UNL     1     139.375  68.653 224.820 -0.37 -0.00    +0.013 A  
DOCKED: ATOM     10  C   UNL     1     140.429  70.395 226.045 -0.50 -0.01    +0.071 A  
DOCKED: ATOM     11  C   UNL     1     139.896  69.112 226.000 -0.50 -0.00    +0.003 A  
DOCKED: ATOM     12  C   UNL     1     140.970  70.912 227.216 -0.65 -0.01    +0.032 A  
DOCKED: ATOM     13  C   UNL     1     139.922  68.355 227.161 -0.60 -0.01    +0.049 A  
DOCKED: ATOM     14  C   UNL     1     140.963  70.106 228.331 -0.53 -0.01    +0.041 A  
DOCKED: ATOM     15  C   UNL     1     140.450  68.827 228.346 -0.54 -0.03    +0.123 A  
DOCKED: ATOM     16  F   UNL     1     140.459  68.067 229.454 -0.09 +0.05    -0.207 F  
DOCKED: ENDBRANCH   3   6
DOCKED: ENDBRANCH   1   2
DOCKED: BRANCH   1  17
DOCKED: ATOM     17  C   UNL     1     139.038  75.081 221.730 -0.19 -0.05    +0.241 C  
DOCKED: ATOM     18  O   UNL     1     137.832  75.131 222.133 -0.16 +0.08    -0.273 OA 
DOCKED: BRANCH  17  19
DOCKED: ATOM     19  N   UNL     1     139.777  76.277 221.522 -0.13 +0.08    -0.340 N  
DOCKED: ATOM     20  C   UNL     1     140.566  76.600 220.332 -0.16 -0.04    +0.120 C  
DOCKED: ATOM     21  C   UNL     1     139.883  77.389 222.447 -0.28 -0.03    +0.129 C  
DOCKED: ATOM     22  C   UNL     1     141.353  77.835 220.685 -0.30 -0.02    +0.033 C  
DOCKED: ATOM     23  C   UNL     1     141.318  77.824 222.197 -0.31 -0.03    +0.059 C  
DOCKED: BRANCH  23  24
DOCKED: ATOM     24  C   UNL     1     141.632  79.142 222.801 -0.51 -0.01    +0.039 A  
DOCKED: ATOM     25  C   UNL     1     140.797  80.005 223.488 -0.41 -0.03    +0.134 A  
DOCKED: ATOM     26  N   UNL     1     142.859  79.693 222.746 -0.30 +0.15    -0.348 N  
DOCKED: ATOM     27  N   UNL     1     141.518  81.067 223.843 -0.34 +0.03    -0.245 NA 
DOCKED: ATOM     28  C   UNL     1     142.762  80.858 223.384 -0.46 -0.04    +0.196 A  
DOCKED: ATOM     29  H   UNL     1     143.737  79.332 222.311 -0.50 -0.13    +0.167 HD 
DOCKED: ENDBRANCH  23  24
DOCKED: ENDBRANCH  17  19
DOCKED: ENDBRANCH   1  17
DOCKED: TORSDOF 5
DOCKED: TER
DOCKED: ENDMDL
________________________________________________________________________________


    FINAL DOCKED STATE:
    ________________________


Run:   19 / 20
Time taken for this run:   0.023s

DOCKED: MODEL        19
DOCKED: USER    Run = 19
DOCKED: USER
DOCKED: USER    Estimated Free Energy of Binding    =  -8.25 kcal/mol  [=(1)+(2)+(3)-(4)]
DOCKED: USER
DOCKED: USER    (1) Final Intermolecular Energy     =  -9.74 kcal/mol
DOCKED: USER        vdW + Hbond + desolv Energy     =  -9.67 kcal/mol
DOCKED: USER        Electrostatic Energy            =  -0.07 kcal/mol
DOCKED: USER        Moving Ligand-Fixed Receptor    =  -9.74 kcal/mol
DOCKED: USER        Moving Ligand-Moving Receptor   =  +0.00 kcal/mol
DOCKED: USER    (2) Final Total Internal Energy     =  -1.03 kcal/mol
DOCKED: USER    (3) Torsional Free Energy           =  +1.49 kcal/mol
DOCKED: USER    (4) Unbound System's Energy         =  -1.03 kcal/mol
DOCKED: USER
DOCKED: USER
DOCKED: REMARK SMILES O=C(NCC(=O)N1CC[C@@H](c2cnc[nH]2)C1)c1ccc2cc(F)ccc2n1
DOCKED: REMARK SMILES IDX 4 1 3 2 2 3 1 4 17 6 18 7 27 8 19 9 26 10 20 11 25 12 21 13
DOCKED: REMARK SMILES IDX 24 14 22 15 23 16 5 17 6 18 7 19 8 20 16 21 9 22 10 23 11 24
DOCKED: REMARK SMILES IDX 12 25 15 26 13 27 14 28
DOCKED: REMARK H PARENT 3 5 15 29
DOCKED: USER                              x       y       z     vdW  Elec       q    Type
DOCKED: USER                           _______ _______ _______ _____ _____    ______ ____
DOCKED: ROOT
DOCKED: ATOM      1  C   UNL     1     138.971  73.918 221.180 -0.13 -0.05    +0.216 C  
DOCKED: ENDROOT
DOCKED: BRANCH   1   2
DOCKED: ATOM      2  N   UNL     1     139.222  73.156 222.380 -0.08 +0.09    -0.342 N  
DOCKED: ATOM      3  C   UNL     1     139.224  71.737 222.329 -0.16 -0.06    +0.270 C  
DOCKED: ATOM      4  O   UNL     1     139.001  71.196 221.205 -0.05 +0.05    -0.268 OA 
DOCKED: ATOM      5  H   UNL     1     139.405  73.638 223.308 -0.46 -0.06    +0.164 HD 
DOCKED: BRANCH   3   6
DOCKED: ATOM      6  C   UNL     1     139.476  70.973 223.537 -0.28 -0.03    +0.128 A  
DOCKED: ATOM      7  C   UNL     1     139.116  69.633 223.525 -0.25 -0.01    +0.035 A  
DOCKED: ATOM      8  N   UNL     1     140.036  71.521 224.648 -0.29 +0.05    -0.243 NA 
DOCKED: ATOM      9  C   UNL     1     139.331  68.850 224.651 -0.35 -0.00    +0.013 A  
DOCKED: ATOM     10  C   UNL     1     140.243  70.754 225.742 -0.50 -0.01    +0.071 A  
DOCKED: ATOM     11  C   UNL     1     139.896  69.408 225.766 -0.47 -0.00    +0.003 A  
DOCKED: ATOM     12  C   UNL     1     140.818  71.372 226.845 -0.69 -0.01    +0.032 A  
DOCKED: ATOM     13  C   UNL     1     140.142  68.694 226.929 -0.58 -0.01    +0.049 A  
DOCKED: ATOM     14  C   UNL     1     141.035  70.603 227.965 -0.62 -0.01    +0.041 A  
DOCKED: ATOM     15  C   UNL     1     140.712  69.266 228.048 -0.52 -0.02    +0.123 A  
DOCKED: ATOM     16  F   UNL     1     140.938  68.544 229.158 -0.11 +0.05    -0.207 F  
DOCKED: ENDBRANCH   3   6
DOCKED: ENDBRANCH   1   2
DOCKED: BRANCH   1  17
DOCKED: ATOM     17  C   UNL     1     140.018  74.964 220.989 -0.17 -0.05    +0.241 C  
DOCKED: ATOM     18  O   UNL     1     140.967  74.775 220.162 -0.09 +0.07    -0.273 OA 
DOCKED: BRANCH  17  19
DOCKED: ATOM     19  N   UNL     1     139.948  76.170 221.739 -0.17 +0.08    -0.340 N  
DOCKED: ATOM     20  C   UNL     1     138.721  76.814 222.212 -0.26 -0.02    +0.120 C  
DOCKED: ATOM     21  C   UNL     1     141.073  76.979 222.167 -0.29 -0.05    +0.129 C  
DOCKED: ATOM     22  C   UNL     1     139.139  78.168 222.721 -0.31 -0.01    +0.033 C  
DOCKED: ATOM     23  C   UNL     1     140.478  78.372 222.047 -0.33 -0.02    +0.059 C  
DOCKED: BRANCH  23  24
DOCKED: ATOM     24  C   UNL     1     141.312  79.411 222.700 -0.47 -0.01    +0.039 A  
DOCKED: ATOM     25  C   UNL     1     140.919  80.454 223.519 -0.41 -0.02    +0.134 A  
DOCKED: ATOM     26  N   UNL     1     142.650  79.461 222.560 -0.27 +0.17    -0.348 N  
DOCKED: ATOM     27  N   UNL     1     142.014  81.127 223.868 -0.38 +0.03    -0.245 NA 
DOCKED: ATOM     28  C   UNL     1     143.050  80.510 223.278 -0.49 -0.05    +0.196 A  
DOCKED: ATOM     29  H   UNL     1     143.292  78.840 222.019 -0.48 -0.16    +0.167 HD 
DOCKED: ENDBRANCH  23  24
DOCKED: ENDBRANCH  17  19
DOCKED: ENDBRANCH   1  17
DOCKED: TORSDOF 5
DOCKED: TER
DOCKED: ENDMDL
________________________________________________________________________________


    FINAL DOCKED STATE:
    ________________________


Run:   20 / 20
Time taken for this run:   0.023s

DOCKED: MODEL        20
DOCKED: USER    Run = 20
DOCKED: USER
DOCKED: USER    Estimated Free Energy of Binding    =  -8.61 kcal/mol  [=(1)+(2)+(3)-(4)]
DOCKED: USER
DOCKED: USER    (1) Final Intermolecular Energy     = -10.10 kcal/mol
DOCKED: USER        vdW + Hbond + desolv Energy     =  -9.97 kcal/mol
DOCKED: USER        Electrostatic Energy            =  -0.13 kcal/mol
DOCKED: USER        Moving Ligand-Fixed Receptor    = -10.10 kcal/mol
DOCKED: USER        Moving Ligand-Moving Receptor   =  +0.00 kcal/mol
DOCKED: USER    (2) Final Total Internal Energy     =  -0.96 kcal/mol
DOCKED: USER    (3) Torsional Free Energy           =  +1.49 kcal/mol
DOCKED: USER    (4) Unbound System's Energy         =  -0.96 kcal/mol
DOCKED: USER
DOCKED: USER
DOCKED: REMARK SMILES O=C(NCC(=O)N1CC[C@@H](c2cnc[nH]2)C1)c1ccc2cc(F)ccc2n1
DOCKED: REMARK SMILES IDX 4 1 3 2 2 3 1 4 17 6 18 7 27 8 19 9 26 10 20 11 25 12 21 13
DOCKED: REMARK SMILES IDX 24 14 22 15 23 16 5 17 6 18 7 19 8 20 16 21 9 22 10 23 11 24
DOCKED: REMARK SMILES IDX 12 25 15 26 13 27 14 28
DOCKED: REMARK H PARENT 3 5 15 29
DOCKED: USER                              x       y       z     vdW  Elec       q    Type
DOCKED: USER                           _______ _______ _______ _____ _____    ______ ____
DOCKED: ROOT
DOCKED: ATOM      1  C   UNL     1     139.281  74.275 221.199 -0.15 -0.04    +0.216 C  
DOCKED: ENDROOT
DOCKED: BRANCH   1   2
DOCKED: ATOM      2  N   UNL     1     139.221  73.371 222.323 -0.10 +0.09    -0.342 N  
DOCKED: ATOM      3  C   UNL     1     140.281  72.454 222.551 -0.20 -0.03    +0.270 C  
DOCKED: ATOM      4  O   UNL     1     141.251  72.474 221.736 -0.23 +0.02    -0.268 OA 
DOCKED: ATOM      5  H   UNL     1     138.394  73.378 222.988 -0.51 -0.10    +0.164 HD 
DOCKED: BRANCH   3   6
DOCKED: ATOM      6  C   UNL     1     140.217  71.546 223.681 -0.34 -0.02    +0.128 A  
DOCKED: ATOM      7  C   UNL     1     139.645  70.301 223.462 -0.27 -0.01    +0.035 A  
DOCKED: ATOM      8  N   UNL     1     140.689  71.875 224.913 -0.28 +0.03    -0.243 NA 
DOCKED: ATOM      9  C   UNL     1     139.555  69.390 224.504 -0.34 -0.00    +0.013 A  
DOCKED: ATOM     10  C   UNL     1     140.599  70.983 225.925 -0.55 -0.01    +0.071 A  
DOCKED: ATOM     11  C   UNL     1     140.032  69.727 225.743 -0.47 -0.00    +0.003 A  
DOCKED: ATOM     12  C   UNL     1     141.098  71.379 227.160 -0.71 -0.01    +0.032 A  
DOCKED: ATOM     13  C   UNL     1     139.979  68.873 226.833 -0.55 -0.01    +0.049 A  
DOCKED: ATOM     14  C   UNL     1     141.014  70.481 228.198 -0.56 -0.01    +0.041 A  
DOCKED: ATOM     15  C   UNL     1     140.463  69.223 228.078 -0.53 -0.02    +0.123 A  
DOCKED: ATOM     16  F   UNL     1     140.396  68.371 229.114 -0.16 +0.04    -0.207 F  
DOCKED: ENDBRANCH   3   6
DOCKED: ENDBRANCH   1   2
DOCKED: BRANCH   1  17
DOCKED: ATOM     17  C   UNL     1     138.832  75.642 221.594 -0.18 -0.05    +0.241 C  
DOCKED: ATOM     18  O   UNL     1     137.656  75.823 222.045 -0.15 +0.07    -0.273 OA 
DOCKED: BRANCH  17  19
DOCKED: ATOM     19  N   UNL     1     139.727  76.738 221.463 -0.11 +0.09    -0.340 N  
DOCKED: ATOM     20  C   UNL     1     140.607  76.994 220.320 -0.16 -0.04    +0.120 C  
DOCKED: ATOM     21  C   UNL     1     139.932  77.797 222.433 -0.30 -0.03    +0.129 C  
DOCKED: ATOM     22  C   UNL     1     141.528  78.104 220.753 -0.31 -0.02    +0.033 C  
DOCKED: ATOM     23  C   UNL     1     141.422  78.049 222.261 -0.35 -0.03    +0.059 C  
DOCKED: BRANCH  23  24
DOCKED: ATOM     24  C   UNL     1     141.873  79.295 222.927 -0.54 -0.01    +0.039 A  
DOCKED: ATOM     25  C   UNL     1     141.158  80.157 223.738 -0.42 -0.02    +0.134 A  
DOCKED: ATOM     26  N   UNL     1     143.129  79.767 222.810 -0.29 +0.15    -0.348 N  
DOCKED: ATOM     27  N   UNL     1     141.978  81.141 224.105 -0.34 +0.03    -0.245 NA 
DOCKED: ATOM     28  C   UNL     1     143.165  80.885 223.533 -0.38 -0.04    +0.196 A  
DOCKED: ATOM     29  H   UNL     1     143.943  79.384 222.280 -0.49 -0.13    +0.167 HD 
DOCKED: ENDBRANCH  23  24
DOCKED: ENDBRANCH  17  19
DOCKED: ENDBRANCH   1  17
DOCKED: TORSDOF 5
DOCKED: TER
DOCKED: ENDMDL
________________________________________________________________________________


    CLUSTERING HISTOGRAM
    ____________________


________________________________________________________________________________
     |           |     |           |     |
Clus | Lowest    | Run | Mean      | Num | Histogram
-ter | Binding   |     | Binding   | in  |
Rank | Energy    |     | Energy    | Clus|    5    10   15   20   25   30   35
_____|___________|_____|___________|_____|____:____|____:____|____:____|____:___
   1 |     -8.66 |  11 |     -8.38 |  17 |#################
   2 |     -8.05 |   4 |     -8.05 |   1 |#
   3 |     -6.07 |   3 |     -6.07 |   2 |##
_____|___________|_____|___________|_____|______________________________________


    RMSD TABLE
    __________


_______________________________________________________________________
     |      |      |           |         |                 |
Rank | Sub- | Run  | Binding   | Cluster | Reference       | Grep
     | Rank |      | Energy    | RMSD    | RMSD            | Pattern
_____|______|______|___________|_________|_________________|___________
   1      1     11       -8.66      0.00    271.48           RANKING
   1      2      6       -8.63      0.21    271.48           RANKING
   1      3     20       -8.61      0.33    271.52           RANKING
   1      4      5       -8.58      0.85    271.42           RANKING
   1      5      8       -8.49      0.94    271.47           RANKING
   1      6     14       -8.49      0.95    271.46           RANKING
   1      7      7       -8.48      0.79    271.39           RANKING
   1      8     10       -8.44      0.83    271.47           RANKING
   1      9     12       -8.43      0.84    271.46           RANKING
   1     10      1       -8.39      0.97    271.38           RANKING
   1     11      2       -8.30      1.09    271.36           RANKING
   1     12     17       -8.27      0.73    271.37           RANKING
   1     13     18       -8.26      0.78    271.43           RANKING
   1     14     19       -8.25      1.04    271.30           RANKING
   1     15     16       -8.24      1.07    271.30           RANKING
   1     16      9       -8.14      0.83    271.37           RANKING
   1     17     13       -7.77      1.27    271.47           RANKING
   2      1      4       -8.05      0.00    270.73           RANKING
   3      1      3       -6.07      0.00    270.34           RANKING
   3      2     15       -6.06      0.06    270.32           RANKING

Run time 0.413 sec
Idle time 0.000 sec
