AutoDock-GPU version: v1.6

**********************************************************
**    AutoDock-GPU AUTODOCKTOOLS-COMPATIBLE DLG FILE    **
**********************************************************


    DOCKING PARAMETERS
    ________________________


Ligand file:                               /home/a/REINVENT4/ReinventStudies/pleaseWork/justmol2mol_4_Compounds_ontop/graph-dock-amy28i/graph-DockGPU/node-autodockgpu/inputs/YSTMYBIXAQGUQB-RGPFYFNFNA-N.pdbqt
Grid fld file:                             /home/a/REINVENT4/ReinventStudies/mols/Rad51/maps/rad51_receptor.maps.fld

Random seed:                               42
Number of runs:                            20
Number of energy evaluations:              1259779
Number of generations:                     42000
Size of population:                        150
Rate of crossover:                         80.000000%
Tournament selection probability limit:    60.000000%
Rate of mutation:                          2.000000%
Maximal allowed delta movement:            +/- 6.000000A
Maximal allowed delta angle:               +/- 90.000000

Rate of local search:                      100.000000%
Maximal number of local search iterations: 300
Rho lower bound:                           0.010000
Spread of local search delta movement:     2.000000A
Spread of local search delta angle:        74.999999
Limit of consecutive successes/failures:   4

Handle symmetry during clustering:         YES
RMSD tolerance:                            2.000000A

Program call in command line was:          /home/a/REINVENT4/ReinventStudies/adgpu-v1.6_linux_x64_cuda12_128wi --filelist batch.txt --heuristics 1 --nrun 20 --psize 150 --lsit 300 --seed 42 --heurmax 12000000 


    GRID PARAMETERS
    ________________________


Receptor name:                             rad51_receptor
Number of grid points (x, y, z):           53, 53, 53
Grid center (x, y, z):                     139.950000, 75.640000, 221.970000A
Grid size (x, y, z):                       19.500000, 19.500000, 19.500000A
Grid spacing:                              0.375000A


    LIGAND PARAMETERS
    ________________________


Ligand name:                               /home/a/REINVENT4/ReinventStudies/pleaseWork/justmol2mol_4_Compounds_ontop/graph-dock-amy28i/graph-DockGPU/node-autodockgpu/inputs/YSTMYBIXAQGUQB-RGPFYFNFNA-N
Number of atoms:                           35
Number of rotatable bonds:                 7
Number of atom types:                      8


    DUMMY DATA (only for ADT-compatibility)
    ________________________


DPF> outlev 1
DPF> ga_run 20
DPF> fld /home/a/REINVENT4/ReinventStudies/mols/Rad51/maps/rad51_receptor.maps.fld
DPF> move /home/a/REINVENT4/ReinventStudies/pleaseWork/justmol2mol_4_Compounds_ontop/graph-dock-amy28i/graph-DockGPU/node-autodockgpu/inputs/YSTMYBIXAQGUQB-RGPFYFNFNA-N.pdbqt


    COUNTER STATES
    ________________________


Number of energy evaluations performed:    1271420
Number of generations used:                76


    INPUT LIGAND PDBQT FILE:
    ________________________


INPUT-LIGAND-PDBQT: REMARK SMILES O=C(NCC(=O)N1C[C@H](O)C[C@@H]1c1ccc(Cl)cc1)c1ccc2cc(C(F)(F)F)ccc2n1
INPUT-LIGAND-PDBQT: REMARK SMILES IDX 4 1 3 2 2 3 1 4 20 6 21 7 33 8 22 9 32 10 23 11 31 12 24 13
INPUT-LIGAND-PDBQT: REMARK SMILES IDX 30 14 25 15 26 16 27 17 28 18 29 19 5 20 6 21 7 22 8 23
INPUT-LIGAND-PDBQT: REMARK SMILES IDX 12 24 9 25 11 26 13 27 14 28 19 29 15 30 18 31 16 32 17 33
INPUT-LIGAND-PDBQT: REMARK SMILES IDX 10 34
INPUT-LIGAND-PDBQT: REMARK H PARENT 3 5 10 35
INPUT-LIGAND-PDBQT: ROOT
INPUT-LIGAND-PDBQT: ATOM      1  C   UNL     1      -1.261  -0.816   0.302  1.00  0.00     0.216 C 
INPUT-LIGAND-PDBQT: ENDROOT
INPUT-LIGAND-PDBQT: BRANCH   1   2
INPUT-LIGAND-PDBQT: ATOM      2  N   UNL     1       0.186  -0.816   0.411  1.00  0.00    -0.342 N 
INPUT-LIGAND-PDBQT: ATOM      3  C   UNL     1       0.919   0.364   0.099  1.00  0.00     0.270 C 
INPUT-LIGAND-PDBQT: ATOM      4  O   UNL     1       0.265   1.390  -0.269  1.00  0.00    -0.268 OA
INPUT-LIGAND-PDBQT: ATOM      5  H   UNL     1       0.734  -1.657   0.714  1.00  0.00     0.164 HD
INPUT-LIGAND-PDBQT: BRANCH   3   6
INPUT-LIGAND-PDBQT: ATOM      6  C   UNL     1       2.371   0.396   0.199  1.00  0.00     0.128 A 
INPUT-LIGAND-PDBQT: ATOM      7  C   UNL     1       3.035   1.559  -0.113  1.00  0.00     0.035 A 
INPUT-LIGAND-PDBQT: ATOM      8  N   UNL     1       3.112  -0.659   0.582  1.00  0.00    -0.243 NA
INPUT-LIGAND-PDBQT: ATOM      9  C   UNL     1       4.397   1.675  -0.047  1.00  0.00     0.013 A 
INPUT-LIGAND-PDBQT: ATOM     10  C   UNL     1       4.469  -0.577   0.659  1.00  0.00     0.071 A 
INPUT-LIGAND-PDBQT: ATOM     11  C   UNL     1       5.146   0.583   0.349  1.00  0.00     0.001 A 
INPUT-LIGAND-PDBQT: ATOM     12  C   UNL     1       5.182  -1.708   1.064  1.00  0.00     0.029 A 
INPUT-LIGAND-PDBQT: ATOM     13  C   UNL     1       6.512   0.597   0.448  1.00  0.00     0.023 A 
INPUT-LIGAND-PDBQT: ATOM     14  C   UNL     1       6.569  -1.647   1.150  1.00  0.00     0.015 A 
INPUT-LIGAND-PDBQT: ATOM     15  C   UNL     1       7.249  -0.485   0.839  1.00  0.00     0.056 A 
INPUT-LIGAND-PDBQT: BRANCH  15  16
INPUT-LIGAND-PDBQT: ATOM     16  C   UNL     1       8.731  -0.482   0.950  1.00  0.00     0.416 C 
INPUT-LIGAND-PDBQT: ATOM     17  F   UNL     1       9.125  -1.051   2.154  1.00  0.00    -0.166 F 
INPUT-LIGAND-PDBQT: ATOM     18  F   UNL     1       9.222   0.826   0.970  1.00  0.00    -0.166 F 
INPUT-LIGAND-PDBQT: ATOM     19  F   UNL     1       9.279  -1.191  -0.095  1.00  0.00    -0.166 F 
INPUT-LIGAND-PDBQT: ENDBRANCH  15  16
INPUT-LIGAND-PDBQT: ENDBRANCH   3   6
INPUT-LIGAND-PDBQT: ENDBRANCH   1   2
INPUT-LIGAND-PDBQT: BRANCH   1  20
INPUT-LIGAND-PDBQT: ATOM     20  C   UNL     1      -1.701  -0.512  -1.079  1.00  0.00     0.242 C 
INPUT-LIGAND-PDBQT: ATOM     21  O   UNL     1      -0.825  -0.290  -1.983  1.00  0.00    -0.273 OA
INPUT-LIGAND-PDBQT: BRANCH  20  22
INPUT-LIGAND-PDBQT: ATOM     22  N   UNL     1      -3.050  -0.444  -1.494  1.00  0.00    -0.331 N 
INPUT-LIGAND-PDBQT: ATOM     23  C   UNL     1      -3.399  -0.143  -2.895  1.00  0.00     0.152 C 
INPUT-LIGAND-PDBQT: ATOM     24  C   UNL     1      -4.199  -0.645  -0.694  1.00  0.00     0.118 C 
INPUT-LIGAND-PDBQT: ATOM     25  C   UNL     1      -4.856  -0.643  -2.968  1.00  0.00     0.136 C 
INPUT-LIGAND-PDBQT: ATOM     26  C   UNL     1      -5.377  -0.370  -1.582  1.00  0.00     0.063 C 
INPUT-LIGAND-PDBQT: BRANCH  24  27
INPUT-LIGAND-PDBQT: ATOM     27  C   UNL     1      -4.228   0.212   0.529  1.00  0.00    -0.025 A 
INPUT-LIGAND-PDBQT: ATOM     28  C   UNL     1      -3.914   1.560   0.325  1.00  0.00     0.007 A 
INPUT-LIGAND-PDBQT: ATOM     29  C   UNL     1      -4.543  -0.282   1.778  1.00  0.00     0.007 A 
INPUT-LIGAND-PDBQT: ATOM     30  C   UNL     1      -3.932   2.393   1.445  1.00  0.00     0.021 A 
INPUT-LIGAND-PDBQT: ATOM     31  C   UNL     1      -4.560   0.542   2.884  1.00  0.00     0.021 A 
INPUT-LIGAND-PDBQT: ATOM     32  C   UNL     1      -4.253   1.869   2.698  1.00  0.00     0.041 A 
INPUT-LIGAND-PDBQT: ATOM     33  Cl  UNL     1      -4.284   2.895   4.132  1.00  0.00    -0.084 Cl
INPUT-LIGAND-PDBQT: ENDBRANCH  24  27
INPUT-LIGAND-PDBQT: BRANCH  25  34
INPUT-LIGAND-PDBQT: ATOM     34  O   UNL     1      -5.538   0.032  -3.966  1.00  0.00    -0.391 OA
INPUT-LIGAND-PDBQT: ATOM     35  H   UNL     1      -5.463  -0.529  -4.788  1.00  0.00     0.211 HD
INPUT-LIGAND-PDBQT: ENDBRANCH  25  34
INPUT-LIGAND-PDBQT: ENDBRANCH  20  22
INPUT-LIGAND-PDBQT: ENDBRANCH   1  20
INPUT-LIGAND-PDBQT: TORSDOF 7


    FINAL DOCKED STATE:
    ________________________


Run:   1 / 20
Time taken for this run:   0.065s

DOCKED: MODEL        1
DOCKED: USER    Run = 1
DOCKED: USER
DOCKED: USER    Estimated Free Energy of Binding    =  -7.54 kcal/mol  [=(1)+(2)+(3)-(4)]
DOCKED: USER
DOCKED: USER    (1) Final Intermolecular Energy     =  -9.63 kcal/mol
DOCKED: USER        vdW + Hbond + desolv Energy     =  -9.56 kcal/mol
DOCKED: USER        Electrostatic Energy            =  -0.07 kcal/mol
DOCKED: USER        Moving Ligand-Fixed Receptor    =  -9.63 kcal/mol
DOCKED: USER        Moving Ligand-Moving Receptor   =  +0.00 kcal/mol
DOCKED: USER    (2) Final Total Internal Energy     =  -1.98 kcal/mol
DOCKED: USER    (3) Torsional Free Energy           =  +2.09 kcal/mol
DOCKED: USER    (4) Unbound System's Energy         =  -1.98 kcal/mol
DOCKED: USER
DOCKED: USER
DOCKED: REMARK SMILES O=C(NCC(=O)N1C[C@H](O)C[C@@H]1c1ccc(Cl)cc1)c1ccc2cc(C(F)(F)F)ccc2n1
DOCKED: REMARK SMILES IDX 4 1 3 2 2 3 1 4 20 6 21 7 33 8 22 9 32 10 23 11 31 12 24 13
DOCKED: REMARK SMILES IDX 30 14 25 15 26 16 27 17 28 18 29 19 5 20 6 21 7 22 8 23
DOCKED: REMARK SMILES IDX 12 24 9 25 11 26 13 27 14 28 19 29 15 30 18 31 16 32 17 33
DOCKED: REMARK SMILES IDX 10 34
DOCKED: REMARK H PARENT 3 5 10 35
DOCKED: USER                              x       y       z     vdW  Elec       q    Type
DOCKED: USER                           _______ _______ _______ _____ _____    ______ ____
DOCKED: ROOT
DOCKED: ATOM      1  C   UNL     1     135.526  69.982 224.857 -0.15 -0.02    +0.216 C  
DOCKED: ENDROOT
DOCKED: BRANCH   1   2
DOCKED: ATOM      2  N   UNL     1     134.972  71.238 225.327 -0.02 +0.02    -0.342 N  
DOCKED: ATOM      3  C   UNL     1     133.817  71.234 226.161 -0.22 -0.02    +0.270 C  
DOCKED: ATOM      4  O   UNL     1     133.309  70.109 226.466 -0.50 +0.00    -0.268 OA 
DOCKED: ATOM      5  H   UNL     1     135.384  72.170 225.080 +0.04 -0.01    +0.164 HD 
DOCKED: BRANCH   3   6
DOCKED: ATOM      6  C   UNL     1     133.238  72.477 226.648 -0.33 -0.01    +0.128 A  
DOCKED: ATOM      7  C   UNL     1     132.071  72.428 227.375 -0.38 -0.01    +0.035 A  
DOCKED: ATOM      8  N   UNL     1     133.781  73.687 226.426 -0.76 -0.03    -0.243 NA 
DOCKED: ATOM      9  C   UNL     1     131.459  73.547 227.870 -0.32 -0.00    +0.013 A  
DOCKED: ATOM     10  C   UNL     1     133.198  74.820 226.904 -0.29 +0.01    +0.071 A  
DOCKED: ATOM     11  C   UNL     1     132.029  74.784 227.634 -0.42 -0.00    +0.001 A  
DOCKED: ATOM     12  C   UNL     1     133.812  76.047 226.640 -0.40 -0.00    +0.029 A  
DOCKED: ATOM     13  C   UNL     1     131.496  75.962 228.086 -0.25 +0.00    +0.023 A  
DOCKED: ATOM     14  C   UNL     1     133.234  77.218 227.119 -0.35 -0.00    +0.015 A  
DOCKED: ATOM     15  C   UNL     1     132.062  77.183 227.851 -0.31 +0.00    +0.056 A  
DOCKED: BRANCH  15  16
DOCKED: ATOM     16  C   UNL     1     131.493  78.468 228.335 -0.11 +0.07    +0.416 C  
DOCKED: ATOM     17  F   UNL     1     132.462  79.199 229.010 -0.10 -0.04    -0.166 F  
DOCKED: ATOM     18  F   UNL     1     130.476  78.238 229.265 -0.11 -0.07    -0.166 F  
DOCKED: ATOM     19  F   UNL     1     131.022  79.201 227.270 -0.01 -0.01    -0.166 F  
DOCKED: ENDBRANCH  15  16
DOCKED: ENDBRANCH   3   6
DOCKED: ENDBRANCH   1   2
DOCKED: BRANCH   1  20
DOCKED: ATOM     20  C   UNL     1     136.574  70.200 223.833 -0.14 -0.03    +0.242 C  
DOCKED: ATOM     21  O   UNL     1     136.877  71.394 223.490 -0.13 +0.06    -0.273 OA 
DOCKED: BRANCH  20  22
DOCKED: ATOM     22  N   UNL     1     137.287  69.168 223.183 -0.07 +0.04    -0.331 N  
DOCKED: ATOM     23  C   UNL     1     136.585  68.147 222.384 -0.11 -0.02    +0.152 C  
DOCKED: ATOM     24  C   UNL     1     138.687  68.966 223.187 -0.21 -0.02    +0.118 C  
DOCKED: ATOM     25  C   UNL     1     137.732  67.582 221.521 -0.13 -0.02    +0.136 C  
DOCKED: ATOM     26  C   UNL     1     138.925  67.691 222.433 -0.18 -0.01    +0.063 C  
DOCKED: BRANCH  24  27
DOCKED: ATOM     27  C   UNL     1     139.273  68.904 224.560 -0.34 +0.00    -0.025 A  
DOCKED: ATOM     28  C   UNL     1     139.848  70.093 225.021 -0.42 -0.00    +0.007 A  
DOCKED: ATOM     29  C   UNL     1     139.253  67.759 225.328 -0.44 -0.00    +0.007 A  
DOCKED: ATOM     30  C   UNL     1     140.406  70.075 226.301 -0.53 -0.00    +0.021 A  
DOCKED: ATOM     31  C   UNL     1     139.804  67.741 226.592 -0.65 -0.00    +0.021 A  
DOCKED: ATOM     32  C   UNL     1     140.373  68.903 227.058 -0.58 -0.01    +0.041 A  
DOCKED: ATOM     33  Cl  UNL     1     141.069  68.847 228.677 -0.60 +0.02    -0.084 Cl 
DOCKED: ENDBRANCH  24  27
DOCKED: BRANCH  25  34
DOCKED: ATOM     34  O   UNL     1     137.438  66.286 221.135 -0.07 +0.08    -0.391 OA 
DOCKED: ATOM     35  H   UNL     1     138.271  65.918 220.727 +0.05 -0.05    +0.211 HD 
DOCKED: ENDBRANCH  25  34
DOCKED: ENDBRANCH  20  22
DOCKED: ENDBRANCH   1  20
DOCKED: TORSDOF 7
DOCKED: TER
DOCKED: ENDMDL
________________________________________________________________________________


    FINAL DOCKED STATE:
    ________________________


Run:   2 / 20
Time taken for this run:   0.065s

DOCKED: MODEL        2
DOCKED: USER    Run = 2
DOCKED: USER
DOCKED: USER    Estimated Free Energy of Binding    =  -7.21 kcal/mol  [=(1)+(2)+(3)-(4)]
DOCKED: USER
DOCKED: USER    (1) Final Intermolecular Energy     =  -9.30 kcal/mol
DOCKED: USER        vdW + Hbond + desolv Energy     =  -9.31 kcal/mol
DOCKED: USER        Electrostatic Energy            =  +0.02 kcal/mol
DOCKED: USER        Moving Ligand-Fixed Receptor    =  -9.30 kcal/mol
DOCKED: USER        Moving Ligand-Moving Receptor   =  +0.00 kcal/mol
DOCKED: USER    (2) Final Total Internal Energy     =  -2.05 kcal/mol
DOCKED: USER    (3) Torsional Free Energy           =  +2.09 kcal/mol
DOCKED: USER    (4) Unbound System's Energy         =  -2.05 kcal/mol
DOCKED: USER
DOCKED: USER
DOCKED: REMARK SMILES O=C(NCC(=O)N1C[C@H](O)C[C@@H]1c1ccc(Cl)cc1)c1ccc2cc(C(F)(F)F)ccc2n1
DOCKED: REMARK SMILES IDX 4 1 3 2 2 3 1 4 20 6 21 7 33 8 22 9 32 10 23 11 31 12 24 13
DOCKED: REMARK SMILES IDX 30 14 25 15 26 16 27 17 28 18 29 19 5 20 6 21 7 22 8 23
DOCKED: REMARK SMILES IDX 12 24 9 25 11 26 13 27 14 28 19 29 15 30 18 31 16 32 17 33
DOCKED: REMARK SMILES IDX 10 34
DOCKED: REMARK H PARENT 3 5 10 35
DOCKED: USER                              x       y       z     vdW  Elec       q    Type
DOCKED: USER                           _______ _______ _______ _____ _____    ______ ____
DOCKED: ROOT
DOCKED: ATOM      1  C   UNL     1     141.319  74.829 220.049 -0.13 -0.06    +0.216 C  
DOCKED: ENDROOT
DOCKED: BRANCH   1   2
DOCKED: ATOM      2  N   UNL     1     141.175  73.969 221.209 -0.14 +0.05    -0.342 N  
DOCKED: ATOM      3  C   UNL     1     140.060  73.088 221.301 -0.16 -0.04    +0.270 C  
DOCKED: ATOM      4  O   UNL     1     139.220  73.089 220.347 -0.04 +0.05    -0.268 OA 
DOCKED: ATOM      5  H   UNL     1     141.862  73.960 222.001 +0.06 -0.00    +0.164 HD 
DOCKED: BRANCH   3   6
DOCKED: ATOM      6  C   UNL     1     139.887  72.212 222.451 -0.26 -0.02    +0.128 A  
DOCKED: ATOM      7  C   UNL     1     138.877  71.278 222.432 -0.20 -0.01    +0.035 A  
DOCKED: ATOM      8  N   UNL     1     140.666  72.263 223.547 -0.27 +0.01    -0.243 NA 
DOCKED: ATOM      9  C   UNL     1     138.645  70.417 223.470 -0.26 -0.00    +0.013 A  
DOCKED: ATOM     10  C   UNL     1     140.461  71.420 224.597 -0.44 -0.01    +0.071 A  
DOCKED: ATOM     11  C   UNL     1     139.453  70.480 224.589 -0.40 -0.00    +0.001 A  
DOCKED: ATOM     12  C   UNL     1     141.305  71.522 225.706 -0.54 -0.00    +0.029 A  
DOCKED: ATOM     13  C   UNL     1     139.303  69.664 225.679 -0.42 -0.00    +0.023 A  
DOCKED: ATOM     14  C   UNL     1     141.115  70.672 226.789 -0.60 -0.00    +0.015 A  
DOCKED: ATOM     15  C   UNL     1     140.104  69.729 226.784 -0.51 -0.01    +0.056 A  
DOCKED: BRANCH  15  16
DOCKED: ATOM     16  C   UNL     1     139.951  68.849 227.971 -0.27 -0.07    +0.416 C  
DOCKED: ATOM     17  F   UNL     1     139.212  69.492 228.955 -0.18 +0.02    -0.166 F  
DOCKED: ATOM     18  F   UNL     1     141.195  68.578 228.548 -0.21 +0.04    -0.166 F  
DOCKED: ATOM     19  F   UNL     1     139.318  67.682 227.609 -0.14 +0.03    -0.166 F  
DOCKED: ENDBRANCH  15  16
DOCKED: ENDBRANCH   3   6
DOCKED: ENDBRANCH   1   2
DOCKED: BRANCH   1  20
DOCKED: ATOM     20  C   UNL     1     140.628  76.124 220.245 -0.12 -0.08    +0.242 C  
DOCKED: ATOM     21  O   UNL     1     141.123  77.185 219.733 -0.10 +0.12    -0.273 OA 
DOCKED: BRANCH  20  22
DOCKED: ATOM     22  N   UNL     1     139.429  76.291 220.974 -0.06 +0.08    -0.331 N  
DOCKED: ATOM     23  C   UNL     1     138.115  76.136 220.321 -0.05 -0.03    +0.152 C  
DOCKED: ATOM     24  C   UNL     1     139.303  76.602 222.348 -0.28 -0.02    +0.118 C  
DOCKED: ATOM     25  C   UNL     1     137.187  75.923 221.534 -0.12 -0.03    +0.136 C  
DOCKED: ATOM     26  C   UNL     1     137.833  76.760 222.606 -0.26 -0.01    +0.063 C  
DOCKED: BRANCH  24  27
DOCKED: ATOM     27  C   UNL     1     140.060  77.826 222.751 -0.34 +0.01    -0.025 A  
DOCKED: ATOM     28  C   UNL     1     139.287  78.978 222.932 -0.34 -0.00    +0.007 A  
DOCKED: ATOM     29  C   UNL     1     141.427  77.829 222.936 -0.41 -0.00    +0.007 A  
DOCKED: ATOM     30  C   UNL     1     139.959  80.141 223.309 -0.41 -0.00    +0.021 A  
DOCKED: ATOM     31  C   UNL     1     142.090  78.980 223.309 -0.57 -0.01    +0.021 A  
DOCKED: ATOM     32  C   UNL     1     141.343  80.119 223.489 -0.53 -0.01    +0.041 A  
DOCKED: ATOM     33  Cl  UNL     1     142.221  81.572 223.966 -0.59 +0.01    -0.084 Cl 
DOCKED: ENDBRANCH  24  27
DOCKED: BRANCH  25  34
DOCKED: ATOM     34  O   UNL     1     135.898  76.316 221.218 -0.01 +0.07    -0.391 OA 
DOCKED: ATOM     35  H   UNL     1     135.750  76.056 220.265 +0.02 -0.04    +0.211 HD 
DOCKED: ENDBRANCH  25  34
DOCKED: ENDBRANCH  20  22
DOCKED: ENDBRANCH   1  20
DOCKED: TORSDOF 7
DOCKED: TER
DOCKED: ENDMDL
________________________________________________________________________________


    FINAL DOCKED STATE:
    ________________________


Run:   3 / 20
Time taken for this run:   0.065s

DOCKED: MODEL        3
DOCKED: USER    Run = 3
DOCKED: USER
DOCKED: USER    Estimated Free Energy of Binding    =  -7.69 kcal/mol  [=(1)+(2)+(3)-(4)]
DOCKED: USER
DOCKED: USER    (1) Final Intermolecular Energy     =  -9.78 kcal/mol
DOCKED: USER        vdW + Hbond + desolv Energy     =  -9.64 kcal/mol
DOCKED: USER        Electrostatic Energy            =  -0.14 kcal/mol
DOCKED: USER        Moving Ligand-Fixed Receptor    =  -9.78 kcal/mol
DOCKED: USER        Moving Ligand-Moving Receptor   =  +0.00 kcal/mol
DOCKED: USER    (2) Final Total Internal Energy     =  -2.13 kcal/mol
DOCKED: USER    (3) Torsional Free Energy           =  +2.09 kcal/mol
DOCKED: USER    (4) Unbound System's Energy         =  -2.13 kcal/mol
DOCKED: USER
DOCKED: USER
DOCKED: REMARK SMILES O=C(NCC(=O)N1C[C@H](O)C[C@@H]1c1ccc(Cl)cc1)c1ccc2cc(C(F)(F)F)ccc2n1
DOCKED: REMARK SMILES IDX 4 1 3 2 2 3 1 4 20 6 21 7 33 8 22 9 32 10 23 11 31 12 24 13
DOCKED: REMARK SMILES IDX 30 14 25 15 26 16 27 17 28 18 29 19 5 20 6 21 7 22 8 23
DOCKED: REMARK SMILES IDX 12 24 9 25 11 26 13 27 14 28 19 29 15 30 18 31 16 32 17 33
DOCKED: REMARK SMILES IDX 10 34
DOCKED: REMARK H PARENT 3 5 10 35
DOCKED: USER                              x       y       z     vdW  Elec       q    Type
DOCKED: USER                           _______ _______ _______ _____ _____    ______ ____
DOCKED: ROOT
DOCKED: ATOM      1  C   UNL     1     139.569  75.753 221.046 -0.16 -0.05    +0.216 C  
DOCKED: ENDROOT
DOCKED: BRANCH   1   2
DOCKED: ATOM      2  N   UNL     1     139.562  74.702 222.047 -0.16 +0.05    -0.342 N  
DOCKED: ATOM      3  C   UNL     1     139.588  73.338 221.642 -0.17 -0.05    +0.270 C  
DOCKED: ATOM      4  O   UNL     1     139.618  73.089 220.395 -0.05 +0.05    -0.268 OA 
DOCKED: ATOM      5  H   UNL     1     139.537  74.898 223.077 -0.47 -0.01    +0.164 HD 
DOCKED: BRANCH   3   6
DOCKED: ATOM      6  C   UNL     1     139.581  72.262 222.622 -0.25 -0.03    +0.128 A  
DOCKED: ATOM      7  C   UNL     1     138.801  71.153 222.390 -0.19 -0.01    +0.035 A  
DOCKED: ATOM      8  N   UNL     1     140.302  72.287 223.757 -0.26 +0.03    -0.243 NA 
DOCKED: ATOM      9  C   UNL     1     138.736  70.098 223.258 -0.24 -0.00    +0.013 A  
DOCKED: ATOM     10  C   UNL     1     140.261  71.254 224.642 -0.44 -0.01    +0.071 A  
DOCKED: ATOM     11  C   UNL     1     139.483  70.138 224.421 -0.37 -0.00    +0.001 A  
DOCKED: ATOM     12  C   UNL     1     141.033  71.341 225.803 -0.61 -0.00    +0.029 A  
DOCKED: ATOM     13  C   UNL     1     139.488  69.134 225.353 -0.42 -0.00    +0.023 A  
DOCKED: ATOM     14  C   UNL     1     141.006  70.296 226.722 -0.58 -0.00    +0.015 A  
DOCKED: ATOM     15  C   UNL     1     140.226  69.177 226.501 -0.51 -0.01    +0.056 A  
DOCKED: BRANCH  15  16
DOCKED: ATOM     16  C   UNL     1     140.240  68.095 227.519 -0.27 -0.10    +0.416 C  
DOCKED: ATOM     17  F   UNL     1     141.462  67.436 227.507 -0.14 +0.05    -0.166 F  
DOCKED: ATOM     18  F   UNL     1     139.282  67.122 227.219 -0.14 +0.03    -0.166 F  
DOCKED: ATOM     19  F   UNL     1     140.016  68.626 228.769 -0.21 +0.03    -0.166 F  
DOCKED: ENDBRANCH  15  16
DOCKED: ENDBRANCH   3   6
DOCKED: ENDBRANCH   1   2
DOCKED: BRANCH   1  20
DOCKED: ATOM     20  C   UNL     1     140.782  76.596 221.153 -0.21 -0.09    +0.242 C  
DOCKED: ATOM     21  O   UNL     1     141.133  77.050 222.295 -0.30 +0.12    -0.273 OA 
DOCKED: BRANCH  20  22
DOCKED: ATOM     22  N   UNL     1     141.610  76.952 220.065 -0.11 +0.17    -0.331 N  
DOCKED: ATOM     23  C   UNL     1     141.127  77.863 219.010 -0.13 -0.07    +0.152 C  
DOCKED: ATOM     24  C   UNL     1     142.939  76.529 219.831 -0.25 -0.08    +0.118 C  
DOCKED: ATOM     25  C   UNL     1     142.450  78.321 218.364 -0.25 -0.10    +0.136 C  
DOCKED: ATOM     26  C   UNL     1     143.332  77.109 218.504 -0.20 -0.05    +0.063 C  
DOCKED: BRANCH  24  27
DOCKED: ATOM     27  C   UNL     1     143.100  75.044 219.844 -0.34 +0.01    -0.025 A  
DOCKED: ATOM     28  C   UNL     1     144.246  74.570 220.494 -0.43 -0.00    +0.007 A  
DOCKED: ATOM     29  C   UNL     1     142.188  74.189 219.261 -0.16 -0.00    +0.007 A  
DOCKED: ATOM     30  C   UNL     1     144.430  73.187 220.529 -0.44 -0.00    +0.021 A  
DOCKED: ATOM     31  C   UNL     1     142.372  72.823 219.296 -0.12 -0.00    +0.021 A  
DOCKED: ATOM     32  C   UNL     1     143.493  72.344 219.930 -0.24 -0.00    +0.041 A  
DOCKED: ATOM     33  Cl  UNL     1     143.698  70.592 219.957 -0.26 +0.00    -0.084 Cl 
DOCKED: ENDBRANCH  24  27
DOCKED: BRANCH  25  34
DOCKED: ATOM     34  O   UNL     1     142.228  78.703 217.052 -0.13 +0.35    -0.391 OA 
DOCKED: ATOM     35  H   UNL     1     143.051  79.183 216.755 -0.44 -0.36    +0.211 HD 
DOCKED: ENDBRANCH  25  34
DOCKED: ENDBRANCH  20  22
DOCKED: ENDBRANCH   1  20
DOCKED: TORSDOF 7
DOCKED: TER
DOCKED: ENDMDL
________________________________________________________________________________


    FINAL DOCKED STATE:
    ________________________


Run:   4 / 20
Time taken for this run:   0.065s

DOCKED: MODEL        4
DOCKED: USER    Run = 4
DOCKED: USER
DOCKED: USER    Estimated Free Energy of Binding    =  -8.09 kcal/mol  [=(1)+(2)+(3)-(4)]
DOCKED: USER
DOCKED: USER    (1) Final Intermolecular Energy     = -10.18 kcal/mol
DOCKED: USER        vdW + Hbond + desolv Energy     = -10.01 kcal/mol
DOCKED: USER        Electrostatic Energy            =  -0.17 kcal/mol
DOCKED: USER        Moving Ligand-Fixed Receptor    = -10.18 kcal/mol
DOCKED: USER        Moving Ligand-Moving Receptor   =  +0.00 kcal/mol
DOCKED: USER    (2) Final Total Internal Energy     =  -1.43 kcal/mol
DOCKED: USER    (3) Torsional Free Energy           =  +2.09 kcal/mol
DOCKED: USER    (4) Unbound System's Energy         =  -1.43 kcal/mol
DOCKED: USER
DOCKED: USER
DOCKED: REMARK SMILES O=C(NCC(=O)N1C[C@H](O)C[C@@H]1c1ccc(Cl)cc1)c1ccc2cc(C(F)(F)F)ccc2n1
DOCKED: REMARK SMILES IDX 4 1 3 2 2 3 1 4 20 6 21 7 33 8 22 9 32 10 23 11 31 12 24 13
DOCKED: REMARK SMILES IDX 30 14 25 15 26 16 27 17 28 18 29 19 5 20 6 21 7 22 8 23
DOCKED: REMARK SMILES IDX 12 24 9 25 11 26 13 27 14 28 19 29 15 30 18 31 16 32 17 33
DOCKED: REMARK SMILES IDX 10 34
DOCKED: REMARK H PARENT 3 5 10 35
DOCKED: USER                              x       y       z     vdW  Elec       q    Type
DOCKED: USER                           _______ _______ _______ _____ _____    ______ ____
DOCKED: ROOT
DOCKED: ATOM      1  C   UNL     1     139.231  76.253 221.455 -0.18 -0.05    +0.216 C  
DOCKED: ENDROOT
DOCKED: BRANCH   1   2
DOCKED: ATOM      2  N   UNL     1     139.130  75.059 222.275 -0.14 +0.08    -0.342 N  
DOCKED: ATOM      3  C   UNL     1     139.783  73.862 221.864 -0.17 -0.04    +0.270 C  
DOCKED: ATOM      4  O   UNL     1     140.440  73.887 220.777 -0.14 +0.05    -0.268 OA 
DOCKED: ATOM      5  H   UNL     1     138.591  75.030 223.173 -0.49 -0.08    +0.164 HD 
DOCKED: BRANCH   3   6
DOCKED: ATOM      6  C   UNL     1     139.701  72.649 222.665 -0.22 -0.02    +0.128 A  
DOCKED: ATOM      7  C   UNL     1     138.903  71.617 222.231 -0.19 -0.01    +0.035 A  
DOCKED: ATOM      8  N   UNL     1     140.368  72.475 223.820 -0.02 +0.03    -0.243 NA 
DOCKED: ATOM      9  C   UNL     1     138.768  70.444 222.922 -0.22 -0.00    +0.013 A  
DOCKED: ATOM     10  C   UNL     1     140.258  71.320 224.531 -0.43 -0.01    +0.071 A  
DOCKED: ATOM     11  C   UNL     1     139.460  70.279 224.107 -0.35 -0.00    +0.001 A  
DOCKED: ATOM     12  C   UNL     1     140.977  71.201 225.723 -0.59 -0.00    +0.029 A  
DOCKED: ATOM     13  C   UNL     1     139.394  69.144 224.871 -0.37 -0.00    +0.023 A  
DOCKED: ATOM     14  C   UNL     1     140.879  70.029 226.466 -0.55 -0.00    +0.015 A  
DOCKED: ATOM     15  C   UNL     1     140.079  68.985 226.043 -0.48 -0.01    +0.056 A  
DOCKED: BRANCH  15  16
DOCKED: ATOM     16  C   UNL     1     140.016  67.759 226.880 -0.30 -0.09    +0.416 C  
DOCKED: ATOM     17  F   UNL     1     141.084  66.921 226.590 -0.11 +0.05    -0.166 F  
DOCKED: ATOM     18  F   UNL     1     138.865  67.021 226.589 -0.21 -0.00    -0.166 F  
DOCKED: ATOM     19  F   UNL     1     140.049  68.102 228.213 -0.21 +0.04    -0.166 F  
DOCKED: ENDBRANCH  15  16
DOCKED: ENDBRANCH   3   6
DOCKED: ENDBRANCH   1   2
DOCKED: BRANCH   1  20
DOCKED: ATOM     20  C   UNL     1     139.083  77.482 222.267 -0.21 -0.05    +0.242 C  
DOCKED: ATOM     21  O   UNL     1     138.044  77.633 222.996 -0.19 +0.04    -0.273 OA 
DOCKED: BRANCH  20  22
DOCKED: ATOM     22  N   UNL     1     140.024  78.536 222.304 -0.13 +0.08    -0.331 N  
DOCKED: ATOM     23  C   UNL     1     141.437  78.282 222.642 -0.38 -0.07    +0.152 C  
DOCKED: ATOM     24  C   UNL     1     139.782  79.904 222.036 -0.22 -0.03    +0.118 C  
DOCKED: ATOM     25  C   UNL     1     142.122  79.551 222.096 -0.42 -0.06    +0.136 C  
DOCKED: ATOM     26  C   UNL     1     141.077  80.615 222.303 -0.40 -0.02    +0.063 C  
DOCKED: BRANCH  24  27
DOCKED: ATOM     27  C   UNL     1     138.669  80.480 222.849 -0.28 +0.00    -0.025 A  
DOCKED: ATOM     28  C   UNL     1     138.812  80.360 224.235 -0.40 -0.00    +0.007 A  
DOCKED: ATOM     29  C   UNL     1     137.570  81.091 222.280 -0.15 -0.00    +0.007 A  
DOCKED: ATOM     30  C   UNL     1     137.792  80.888 225.028 -0.39 -0.00    +0.021 A  
DOCKED: ATOM     31  C   UNL     1     136.562  81.612 223.064 -0.14 -0.00    +0.021 A  
DOCKED: ATOM     32  C   UNL     1     136.691  81.501 224.429 -0.27 -0.00    +0.041 A  
DOCKED: ATOM     33  Cl  UNL     1     135.385  82.177 225.402 -0.25 +0.01    -0.084 Cl 
DOCKED: ENDBRANCH  24  27
DOCKED: BRANCH  25  34
DOCKED: ATOM     34  O   UNL     1     143.301  79.783 222.782 -0.36 +0.18    -0.391 OA 
DOCKED: ATOM     35  H   UNL     1     144.025  79.341 222.257 -0.44 -0.18    +0.211 HD 
DOCKED: ENDBRANCH  25  34
DOCKED: ENDBRANCH  20  22
DOCKED: ENDBRANCH   1  20
DOCKED: TORSDOF 7
DOCKED: TER
DOCKED: ENDMDL
________________________________________________________________________________


    FINAL DOCKED STATE:
    ________________________


Run:   5 / 20
Time taken for this run:   0.065s

DOCKED: MODEL        5
DOCKED: USER    Run = 5
DOCKED: USER
DOCKED: USER    Estimated Free Energy of Binding    =  -7.13 kcal/mol  [=(1)+(2)+(3)-(4)]
DOCKED: USER
DOCKED: USER    (1) Final Intermolecular Energy     =  -9.21 kcal/mol
DOCKED: USER        vdW + Hbond + desolv Energy     =  -9.04 kcal/mol
DOCKED: USER        Electrostatic Energy            =  -0.17 kcal/mol
DOCKED: USER        Moving Ligand-Fixed Receptor    =  -9.21 kcal/mol
DOCKED: USER        Moving Ligand-Moving Receptor   =  +0.00 kcal/mol
DOCKED: USER    (2) Final Total Internal Energy     =  -2.09 kcal/mol
DOCKED: USER    (3) Torsional Free Energy           =  +2.09 kcal/mol
DOCKED: USER    (4) Unbound System's Energy         =  -2.09 kcal/mol
DOCKED: USER
DOCKED: USER
DOCKED: REMARK SMILES O=C(NCC(=O)N1C[C@H](O)C[C@@H]1c1ccc(Cl)cc1)c1ccc2cc(C(F)(F)F)ccc2n1
DOCKED: REMARK SMILES IDX 4 1 3 2 2 3 1 4 20 6 21 7 33 8 22 9 32 10 23 11 31 12 24 13
DOCKED: REMARK SMILES IDX 30 14 25 15 26 16 27 17 28 18 29 19 5 20 6 21 7 22 8 23
DOCKED: REMARK SMILES IDX 12 24 9 25 11 26 13 27 14 28 19 29 15 30 18 31 16 32 17 33
DOCKED: REMARK SMILES IDX 10 34
DOCKED: REMARK H PARENT 3 5 10 35
DOCKED: USER                              x       y       z     vdW  Elec       q    Type
DOCKED: USER                           _______ _______ _______ _____ _____    ______ ____
DOCKED: ROOT
DOCKED: ATOM      1  C   UNL     1     138.631  75.952 221.236 -0.13 -0.05    +0.216 C  
DOCKED: ENDROOT
DOCKED: BRANCH   1   2
DOCKED: ATOM      2  N   UNL     1     138.353  76.895 222.304 -0.14 +0.07    -0.342 N  
DOCKED: ATOM      3  C   UNL     1     137.955  78.225 221.989 -0.11 -0.05    +0.270 C  
DOCKED: ATOM      4  O   UNL     1     137.856  78.540 220.761 -0.03 +0.05    -0.268 OA 
DOCKED: ATOM      5  H   UNL     1     138.431  76.644 223.319 +0.01 -0.03    +0.164 HD 
DOCKED: BRANCH   3   6
DOCKED: ATOM      6  C   UNL     1     137.669  79.193 223.037 -0.19 -0.02    +0.128 A  
DOCKED: ATOM      7  C   UNL     1     138.697  79.955 223.539 -0.36 -0.00    +0.035 A  
DOCKED: ATOM      8  N   UNL     1     136.442  79.388 223.553 -0.10 +0.03    -0.243 NA 
DOCKED: ATOM      9  C   UNL     1     138.516  80.887 224.525 -0.34 -0.00    +0.013 A  
DOCKED: ATOM     10  C   UNL     1     136.228  80.307 224.535 -0.16 -0.01    +0.071 A  
DOCKED: ATOM     11  C   UNL     1     137.250  81.077 225.045 -0.39 -0.00    +0.001 A  
DOCKED: ATOM     12  C   UNL     1     134.930  80.462 225.028 -0.17 -0.00    +0.029 A  
DOCKED: ATOM     13  C   UNL     1     136.965  81.984 226.032 -0.44 -0.00    +0.023 A  
DOCKED: ATOM     14  C   UNL     1     134.688  81.396 226.031 -0.20 -0.00    +0.015 A  
DOCKED: ATOM     15  C   UNL     1     135.712  82.168 226.544 -0.32 -0.01    +0.056 A  
DOCKED: BRANCH  15  16
DOCKED: ATOM     16  C   UNL     1     135.390  83.148 227.614 -0.12 -0.03    +0.416 C  
DOCKED: ATOM     17  F   UNL     1     136.301  84.196 227.598 -0.12 +0.00    -0.166 F  
DOCKED: ATOM     18  F   UNL     1     135.511  82.559 228.876 -0.13 +0.03    -0.166 F  
DOCKED: ATOM     19  F   UNL     1     134.118  83.642 227.429 -0.01 -0.00    -0.166 F  
DOCKED: ENDBRANCH  15  16
DOCKED: ENDBRANCH   3   6
DOCKED: ENDBRANCH   1   2
DOCKED: BRANCH   1  20
DOCKED: ATOM     20  C   UNL     1     139.967  75.334 221.392 -0.21 -0.05    +0.242 C  
DOCKED: ATOM     21  O   UNL     1     140.169  74.505 222.344 -0.78 -0.01    -0.273 OA 
DOCKED: BRANCH  20  22
DOCKED: ATOM     22  N   UNL     1     141.073  75.591 220.551 -0.10 +0.11    -0.331 N  
DOCKED: ATOM     23  C   UNL     1     142.007  74.514 220.174 -0.20 -0.04    +0.152 C  
DOCKED: ATOM     24  C   UNL     1     141.433  76.830 219.972 -0.21 -0.05    +0.118 C  
DOCKED: ATOM     25  C   UNL     1     142.698  75.119 218.935 -0.19 -0.05    +0.136 C  
DOCKED: ATOM     26  C   UNL     1     142.726  76.592 219.250 -0.32 -0.04    +0.063 C  
DOCKED: BRANCH  24  27
DOCKED: ATOM     27  C   UNL     1     141.562  77.936 220.968 -0.32 +0.01    -0.025 A  
DOCKED: ATOM     28  C   UNL     1     141.812  79.203 220.429 -0.30 -0.00    +0.007 A  
DOCKED: ATOM     29  C   UNL     1     141.444  77.732 222.327 -0.30 -0.00    +0.007 A  
DOCKED: ATOM     30  C   UNL     1     141.938  80.262 221.330 -0.40 -0.01    +0.021 A  
DOCKED: ATOM     31  C   UNL     1     141.569  78.780 223.216 -0.56 -0.01    +0.021 A  
DOCKED: ATOM     32  C   UNL     1     141.814  80.030 222.700 -0.53 -0.01    +0.041 A  
DOCKED: ATOM     33  Cl  UNL     1     141.968  81.347 223.863 -0.66 +0.01    -0.084 Cl 
DOCKED: ENDBRANCH  24  27
DOCKED: BRANCH  25  34
DOCKED: ATOM     34  O   UNL     1     143.953  74.557 218.772 -0.11 +0.15    -0.391 OA 
DOCKED: ATOM     35  H   UNL     1     144.508  75.239 218.299 -0.40 -0.14    +0.211 HD 
DOCKED: ENDBRANCH  25  34
DOCKED: ENDBRANCH  20  22
DOCKED: ENDBRANCH   1  20
DOCKED: TORSDOF 7
DOCKED: TER
DOCKED: ENDMDL
________________________________________________________________________________


    FINAL DOCKED STATE:
    ________________________


Run:   6 / 20
Time taken for this run:   0.065s

DOCKED: MODEL        6
DOCKED: USER    Run = 6
DOCKED: USER
DOCKED: USER    Estimated Free Energy of Binding    =  -7.63 kcal/mol  [=(1)+(2)+(3)-(4)]
DOCKED: USER
DOCKED: USER    (1) Final Intermolecular Energy     =  -9.72 kcal/mol
DOCKED: USER        vdW + Hbond + desolv Energy     =  -9.57 kcal/mol
DOCKED: USER        Electrostatic Energy            =  -0.14 kcal/mol
DOCKED: USER        Moving Ligand-Fixed Receptor    =  -9.72 kcal/mol
DOCKED: USER        Moving Ligand-Moving Receptor   =  +0.00 kcal/mol
DOCKED: USER    (2) Final Total Internal Energy     =  -2.17 kcal/mol
DOCKED: USER    (3) Torsional Free Energy           =  +2.09 kcal/mol
DOCKED: USER    (4) Unbound System's Energy         =  -2.17 kcal/mol
DOCKED: USER
DOCKED: USER
DOCKED: REMARK SMILES O=C(NCC(=O)N1C[C@H](O)C[C@@H]1c1ccc(Cl)cc1)c1ccc2cc(C(F)(F)F)ccc2n1
DOCKED: REMARK SMILES IDX 4 1 3 2 2 3 1 4 20 6 21 7 33 8 22 9 32 10 23 11 31 12 24 13
DOCKED: REMARK SMILES IDX 30 14 25 15 26 16 27 17 28 18 29 19 5 20 6 21 7 22 8 23
DOCKED: REMARK SMILES IDX 12 24 9 25 11 26 13 27 14 28 19 29 15 30 18 31 16 32 17 33
DOCKED: REMARK SMILES IDX 10 34
DOCKED: REMARK H PARENT 3 5 10 35
DOCKED: USER                              x       y       z     vdW  Elec       q    Type
DOCKED: USER                           _______ _______ _______ _____ _____    ______ ____
DOCKED: ROOT
DOCKED: ATOM      1  C   UNL     1     139.561  75.747 220.998 -0.15 -0.05    +0.216 C  
DOCKED: ENDROOT
DOCKED: BRANCH   1   2
DOCKED: ATOM      2  N   UNL     1     139.577  74.689 221.990 -0.17 +0.06    -0.342 N  
DOCKED: ATOM      3  C   UNL     1     139.580  73.328 221.572 -0.16 -0.05    +0.270 C  
DOCKED: ATOM      4  O   UNL     1     139.569  73.089 220.324 -0.05 +0.05    -0.268 OA 
DOCKED: ATOM      5  H   UNL     1     139.587  74.876 223.022 -0.42 -0.00    +0.164 HD 
DOCKED: BRANCH   3   6
DOCKED: ATOM      6  C   UNL     1     139.597  72.243 222.543 -0.25 -0.03    +0.128 A  
DOCKED: ATOM      7  C   UNL     1     138.924  71.080 222.255 -0.18 -0.01    +0.035 A  
DOCKED: ATOM      8  N   UNL     1     140.240  72.312 223.722 -0.23 +0.04    -0.243 NA 
DOCKED: ATOM      9  C   UNL     1     138.888  70.012 223.111 -0.23 -0.00    +0.013 A  
DOCKED: ATOM     10  C   UNL     1     140.225  71.268 224.597 -0.44 -0.01    +0.071 A  
DOCKED: ATOM     11  C   UNL     1     139.553  70.097 224.319 -0.36 -0.00    +0.001 A  
DOCKED: ATOM     12  C   UNL     1     140.913  71.403 225.805 -0.60 -0.00    +0.029 A  
DOCKED: ATOM     13  C   UNL     1     139.579  69.086 225.242 -0.41 -0.00    +0.023 A  
DOCKED: ATOM     14  C   UNL     1     140.911  70.349 226.713 -0.58 -0.00    +0.015 A  
DOCKED: ATOM     15  C   UNL     1     140.238  69.174 226.436 -0.50 -0.01    +0.056 A  
DOCKED: BRANCH  15  16
DOCKED: ATOM     16  C   UNL     1     140.272  68.085 227.446 -0.28 -0.10    +0.416 C  
DOCKED: ATOM     17  F   UNL     1     141.464  67.377 227.350 -0.15 +0.05    -0.166 F  
DOCKED: ATOM     18  F   UNL     1     139.258  67.154 227.204 -0.16 +0.03    -0.166 F  
DOCKED: ATOM     19  F   UNL     1     140.153  68.616 228.710 -0.22 +0.03    -0.166 F  
DOCKED: ENDBRANCH  15  16
DOCKED: ENDBRANCH   3   6
DOCKED: ENDBRANCH   1   2
DOCKED: BRANCH   1  20
DOCKED: ATOM     20  C   UNL     1     140.757  76.614 221.109 -0.20 -0.09    +0.242 C  
DOCKED: ATOM     21  O   UNL     1     141.081  77.093 222.248 -0.31 +0.11    -0.273 OA 
DOCKED: BRANCH  20  22
DOCKED: ATOM     22  N   UNL     1     141.595  76.966 220.027 -0.11 +0.17    -0.331 N  
DOCKED: ATOM     23  C   UNL     1     141.120  77.869 218.962 -0.13 -0.07    +0.152 C  
DOCKED: ATOM     24  C   UNL     1     142.928  76.547 219.810 -0.26 -0.08    +0.118 C  
DOCKED: ATOM     25  C   UNL     1     142.448  78.328 218.327 -0.26 -0.10    +0.136 C  
DOCKED: ATOM     26  C   UNL     1     143.333  77.120 218.484 -0.20 -0.05    +0.063 C  
DOCKED: BRANCH  24  27
DOCKED: ATOM     27  C   UNL     1     143.095  75.063 219.835 -0.34 +0.01    -0.025 A  
DOCKED: ATOM     28  C   UNL     1     144.258  74.600 220.459 -0.44 -0.00    +0.007 A  
DOCKED: ATOM     29  C   UNL     1     142.170  74.199 219.284 -0.16 -0.00    +0.007 A  
DOCKED: ATOM     30  C   UNL     1     144.448  73.218 220.503 -0.44 -0.00    +0.021 A  
DOCKED: ATOM     31  C   UNL     1     142.359  72.834 219.328 -0.12 -0.00    +0.021 A  
DOCKED: ATOM     32  C   UNL     1     143.499  72.365 219.938 -0.24 -0.00    +0.041 A  
DOCKED: ATOM     33  Cl  UNL     1     143.710  70.615 219.977 -0.26 +0.00    -0.084 Cl 
DOCKED: ENDBRANCH  24  27
DOCKED: BRANCH  25  34
DOCKED: ATOM     34  O   UNL     1     142.238  78.702 217.010 -0.13 +0.35    -0.391 OA 
DOCKED: ATOM     35  H   UNL     1     143.066  79.174 216.716 -0.45 -0.37    +0.211 HD 
DOCKED: ENDBRANCH  25  34
DOCKED: ENDBRANCH  20  22
DOCKED: ENDBRANCH   1  20
DOCKED: TORSDOF 7
DOCKED: TER
DOCKED: ENDMDL
________________________________________________________________________________


    FINAL DOCKED STATE:
    ________________________


Run:   7 / 20
Time taken for this run:   0.065s

DOCKED: MODEL        7
DOCKED: USER    Run = 7
DOCKED: USER
DOCKED: USER    Estimated Free Energy of Binding    =  -7.14 kcal/mol  [=(1)+(2)+(3)-(4)]
DOCKED: USER
DOCKED: USER    (1) Final Intermolecular Energy     =  -9.22 kcal/mol
DOCKED: USER        vdW + Hbond + desolv Energy     =  -9.09 kcal/mol
DOCKED: USER        Electrostatic Energy            =  -0.13 kcal/mol
DOCKED: USER        Moving Ligand-Fixed Receptor    =  -9.22 kcal/mol
DOCKED: USER        Moving Ligand-Moving Receptor   =  +0.00 kcal/mol
DOCKED: USER    (2) Final Total Internal Energy     =  -2.35 kcal/mol
DOCKED: USER    (3) Torsional Free Energy           =  +2.09 kcal/mol
DOCKED: USER    (4) Unbound System's Energy         =  -2.35 kcal/mol
DOCKED: USER
DOCKED: USER
DOCKED: REMARK SMILES O=C(NCC(=O)N1C[C@H](O)C[C@@H]1c1ccc(Cl)cc1)c1ccc2cc(C(F)(F)F)ccc2n1
DOCKED: REMARK SMILES IDX 4 1 3 2 2 3 1 4 20 6 21 7 33 8 22 9 32 10 23 11 31 12 24 13
DOCKED: REMARK SMILES IDX 30 14 25 15 26 16 27 17 28 18 29 19 5 20 6 21 7 22 8 23
DOCKED: REMARK SMILES IDX 12 24 9 25 11 26 13 27 14 28 19 29 15 30 18 31 16 32 17 33
DOCKED: REMARK SMILES IDX 10 34
DOCKED: REMARK H PARENT 3 5 10 35
DOCKED: USER                              x       y       z     vdW  Elec       q    Type
DOCKED: USER                           _______ _______ _______ _____ _____    ______ ____
DOCKED: ROOT
DOCKED: ATOM      1  C   UNL     1     137.262  78.125 220.263 -0.02 -0.04    +0.216 C  
DOCKED: ENDROOT
DOCKED: BRANCH   1   2
DOCKED: ATOM      2  N   UNL     1     136.965  78.604 221.600 -0.03 +0.06    -0.342 N  
DOCKED: ATOM      3  C   UNL     1     137.528  79.830 222.054 -0.08 -0.04    +0.270 C  
DOCKED: ATOM      4  O   UNL     1     138.282  80.470 221.255 -0.05 +0.05    -0.268 OA 
DOCKED: ATOM      5  H   UNL     1     136.344  78.084 222.266 +0.04 -0.03    +0.164 HD 
DOCKED: BRANCH   3   6
DOCKED: ATOM      6  C   UNL     1     137.249  80.338 223.390 -0.20 -0.02    +0.128 A  
DOCKED: ATOM      7  C   UNL     1     138.242  81.000 224.072 -0.35 -0.00    +0.035 A  
DOCKED: ATOM      8  N   UNL     1     136.062  80.194 224.005 -0.12 +0.03    -0.243 NA 
DOCKED: ATOM      9  C   UNL     1     138.065  81.507 225.331 -0.17 -0.00    +0.013 A  
DOCKED: ATOM     10  C   UNL     1     135.852  80.687 225.257 -0.14 -0.01    +0.071 A  
DOCKED: ATOM     11  C   UNL     1     136.839  81.352 225.951 -0.43 -0.00    +0.001 A  
DOCKED: ATOM     12  C   UNL     1     134.596  80.505 225.841 -0.17 -0.00    +0.029 A  
DOCKED: ATOM     13  C   UNL     1     136.561  81.823 227.207 -0.49 -0.00    +0.023 A  
DOCKED: ATOM     14  C   UNL     1     134.359  81.001 227.119 -0.23 -0.00    +0.015 A  
DOCKED: ATOM     15  C   UNL     1     135.348  81.668 227.817 -0.37 -0.02    +0.056 A  
DOCKED: BRANCH  15  16
DOCKED: ATOM     16  C   UNL     1     135.034  82.174 229.178 -0.21 -0.06    +0.416 C  
DOCKED: ATOM     17  F   UNL     1     135.941  81.668 230.101 -0.26 +0.06    -0.166 F  
DOCKED: ATOM     18  F   UNL     1     133.779  81.725 229.595 -0.09 +0.00    -0.166 F  
DOCKED: ATOM     19  F   UNL     1     135.087  83.550 229.189 -0.11 -0.03    -0.166 F  
DOCKED: ENDBRANCH  15  16
DOCKED: ENDBRANCH   3   6
DOCKED: ENDBRANCH   1   2
DOCKED: BRANCH   1  20
DOCKED: ATOM     20  C   UNL     1     138.710  77.867 220.088 -0.03 -0.06    +0.242 C  
DOCKED: ATOM     21  O   UNL     1     139.385  78.595 219.284 -0.02 +0.08    -0.273 OA 
DOCKED: BRANCH  20  22
DOCKED: ATOM     22  N   UNL     1     139.429  76.851 220.756 -0.04 +0.09    -0.331 N  
DOCKED: ATOM     23  C   UNL     1     138.759  75.617 221.208 -0.16 -0.03    +0.152 C  
DOCKED: ATOM     24  C   UNL     1     140.808  76.849 221.071 -0.25 -0.05    +0.118 C  
DOCKED: ATOM     25  C   UNL     1     139.956  74.667 221.409 -0.24 -0.02    +0.136 C  
DOCKED: ATOM     26  C   UNL     1     141.053  75.595 221.858 -0.28 -0.02    +0.063 C  
DOCKED: BRANCH  24  27
DOCKED: ATOM     27  C   UNL     1     141.246  78.060 221.828 -0.37 +0.01    -0.025 A  
DOCKED: ATOM     28  C   UNL     1     141.110  77.981 223.218 -0.40 -0.00    +0.007 A  
DOCKED: ATOM     29  C   UNL     1     141.752  79.184 221.208 -0.37 -0.00    +0.007 A  
DOCKED: ATOM     30  C   UNL     1     141.510  79.094 223.960 -0.58 -0.01    +0.021 A  
DOCKED: ATOM     31  C   UNL     1     142.146  80.283 221.942 -0.49 -0.01    +0.021 A  
DOCKED: ATOM     32  C   UNL     1     142.018  80.219 223.310 -0.59 -0.01    +0.041 A  
DOCKED: ATOM     33  Cl  UNL     1     142.531  81.640 224.218 -0.53 +0.01    -0.084 Cl 
DOCKED: ENDBRANCH  24  27
DOCKED: BRANCH  25  34
DOCKED: ATOM     34  O   UNL     1     139.634  73.690 222.335 -0.74 +0.06    -0.391 OA 
DOCKED: ATOM     35  H   UNL     1     138.869  74.047 222.867 -0.54 -0.10    +0.211 HD 
DOCKED: ENDBRANCH  25  34
DOCKED: ENDBRANCH  20  22
DOCKED: ENDBRANCH   1  20
DOCKED: TORSDOF 7
DOCKED: TER
DOCKED: ENDMDL
________________________________________________________________________________


    FINAL DOCKED STATE:
    ________________________


Run:   8 / 20
Time taken for this run:   0.065s

DOCKED: MODEL        8
DOCKED: USER    Run = 8
DOCKED: USER
DOCKED: USER    Estimated Free Energy of Binding    =  -7.42 kcal/mol  [=(1)+(2)+(3)-(4)]
DOCKED: USER
DOCKED: USER    (1) Final Intermolecular Energy     =  -9.51 kcal/mol
DOCKED: USER        vdW + Hbond + desolv Energy     =  -9.34 kcal/mol
DOCKED: USER        Electrostatic Energy            =  -0.17 kcal/mol
DOCKED: USER        Moving Ligand-Fixed Receptor    =  -9.51 kcal/mol
DOCKED: USER        Moving Ligand-Moving Receptor   =  +0.00 kcal/mol
DOCKED: USER    (2) Final Total Internal Energy     =  -2.29 kcal/mol
DOCKED: USER    (3) Torsional Free Energy           =  +2.09 kcal/mol
DOCKED: USER    (4) Unbound System's Energy         =  -2.29 kcal/mol
DOCKED: USER
DOCKED: USER
DOCKED: REMARK SMILES O=C(NCC(=O)N1C[C@H](O)C[C@@H]1c1ccc(Cl)cc1)c1ccc2cc(C(F)(F)F)ccc2n1
DOCKED: REMARK SMILES IDX 4 1 3 2 2 3 1 4 20 6 21 7 33 8 22 9 32 10 23 11 31 12 24 13
DOCKED: REMARK SMILES IDX 30 14 25 15 26 16 27 17 28 18 29 19 5 20 6 21 7 22 8 23
DOCKED: REMARK SMILES IDX 12 24 9 25 11 26 13 27 14 28 19 29 15 30 18 31 16 32 17 33
DOCKED: REMARK SMILES IDX 10 34
DOCKED: REMARK H PARENT 3 5 10 35
DOCKED: USER                              x       y       z     vdW  Elec       q    Type
DOCKED: USER                           _______ _______ _______ _____ _____    ______ ____
DOCKED: ROOT
DOCKED: ATOM      1  C   UNL     1     139.492  75.630 220.857 -0.13 -0.05    +0.216 C  
DOCKED: ENDROOT
DOCKED: BRANCH   1   2
DOCKED: ATOM      2  N   UNL     1     139.431  74.575 221.852 -0.15 +0.06    -0.342 N  
DOCKED: ATOM      3  C   UNL     1     139.957  73.287 221.550 -0.18 -0.04    +0.270 C  
DOCKED: ATOM      4  O   UNL     1     140.469  73.108 220.400 -0.07 +0.05    -0.268 OA 
DOCKED: ATOM      5  H   UNL     1     139.012  74.713 222.803 -0.47 -0.05    +0.164 HD 
DOCKED: BRANCH   3   6
DOCKED: ATOM      6  C   UNL     1     139.912  72.208 222.527 -0.27 -0.02    +0.128 A  
DOCKED: ATOM      7  C   UNL     1     139.356  71.004 222.165 -0.19 -0.01    +0.035 A  
DOCKED: ATOM      8  N   UNL     1     140.388  72.322 223.780 -0.21 +0.03    -0.243 NA 
DOCKED: ATOM      9  C   UNL     1     139.273  69.939 223.021 -0.23 -0.00    +0.013 A  
DOCKED: ATOM     10  C   UNL     1     140.321  71.281 224.656 -0.45 -0.01    +0.071 A  
DOCKED: ATOM     11  C   UNL     1     139.766  70.070 224.305 -0.35 -0.00    +0.001 A  
DOCKED: ATOM     12  C   UNL     1     140.833  71.462 225.943 -0.61 -0.00    +0.029 A  
DOCKED: ATOM     13  C   UNL     1     139.731  69.065 225.235 -0.41 -0.00    +0.023 A  
DOCKED: ATOM     14  C   UNL     1     140.776  70.413 226.855 -0.59 -0.00    +0.015 A  
DOCKED: ATOM     15  C   UNL     1     140.219  69.198 226.505 -0.50 -0.01    +0.056 A  
DOCKED: BRANCH  15  16
DOCKED: ATOM     16  C   UNL     1     140.186  68.115 227.523 -0.28 -0.10    +0.416 C  
DOCKED: ATOM     17  F   UNL     1     139.196  67.193 227.213 -0.17 +0.03    -0.166 F  
DOCKED: ATOM     18  F   UNL     1     139.848  68.628 228.778 -0.19 +0.03    -0.166 F  
DOCKED: ATOM     19  F   UNL     1     141.407  67.481 227.569 -0.16 +0.05    -0.166 F  
DOCKED: ENDBRANCH  15  16
DOCKED: ENDBRANCH   3   6
DOCKED: ENDBRANCH   1   2
DOCKED: BRANCH   1  20
DOCKED: ATOM     20  C   UNL     1     140.722  76.441 221.001 -0.19 -0.08    +0.242 C  
DOCKED: ATOM     21  O   UNL     1     141.073  76.851 222.159 -0.31 +0.11    -0.273 OA 
DOCKED: BRANCH  20  22
DOCKED: ATOM     22  N   UNL     1     141.567  76.812 219.931 -0.10 +0.16    -0.331 N  
DOCKED: ATOM     23  C   UNL     1     141.091  77.713 218.864 -0.12 -0.07    +0.152 C  
DOCKED: ATOM     24  C   UNL     1     142.909  76.414 219.727 -0.31 -0.08    +0.118 C  
DOCKED: ATOM     25  C   UNL     1     142.419  78.196 218.248 -0.26 -0.10    +0.136 C  
DOCKED: ATOM     26  C   UNL     1     143.321  77.001 218.409 -0.23 -0.04    +0.063 C  
DOCKED: BRANCH  24  27
DOCKED: ATOM     27  C   UNL     1     143.098  74.933 219.746 -0.33 +0.01    -0.025 A  
DOCKED: ATOM     28  C   UNL     1     142.726  74.265 218.575 -0.14 -0.00    +0.007 A  
DOCKED: ATOM     29  C   UNL     1     143.606  74.260 220.839 -0.28 -0.00    +0.007 A  
DOCKED: ATOM     30  C   UNL     1     142.890  72.879 218.555 -0.09 -0.00    +0.021 A  
DOCKED: ATOM     31  C   UNL     1     143.767  72.891 220.818 -0.33 -0.00    +0.021 A  
DOCKED: ATOM     32  C   UNL     1     143.405  72.221 219.673 -0.20 -0.00    +0.041 A  
DOCKED: ATOM     33  Cl  UNL     1     143.623  70.472 219.679 -0.27 +0.00    -0.084 Cl 
DOCKED: ENDBRANCH  24  27
DOCKED: BRANCH  25  34
DOCKED: ATOM     34  O   UNL     1     142.219  78.573 216.931 -0.12 +0.34    -0.391 OA 
DOCKED: ATOM     35  H   UNL     1     143.001  79.139 216.677 -0.43 -0.35    +0.211 HD 
DOCKED: ENDBRANCH  25  34
DOCKED: ENDBRANCH  20  22
DOCKED: ENDBRANCH   1  20
DOCKED: TORSDOF 7
DOCKED: TER
DOCKED: ENDMDL
________________________________________________________________________________


    FINAL DOCKED STATE:
    ________________________


Run:   9 / 20
Time taken for this run:   0.065s

DOCKED: MODEL        9
DOCKED: USER    Run = 9
DOCKED: USER
DOCKED: USER    Estimated Free Energy of Binding    =  -7.12 kcal/mol  [=(1)+(2)+(3)-(4)]
DOCKED: USER
DOCKED: USER    (1) Final Intermolecular Energy     =  -9.21 kcal/mol
DOCKED: USER        vdW + Hbond + desolv Energy     =  -9.23 kcal/mol
DOCKED: USER        Electrostatic Energy            =  +0.02 kcal/mol
DOCKED: USER        Moving Ligand-Fixed Receptor    =  -9.21 kcal/mol
DOCKED: USER        Moving Ligand-Moving Receptor   =  +0.00 kcal/mol
DOCKED: USER    (2) Final Total Internal Energy     =  -2.13 kcal/mol
DOCKED: USER    (3) Torsional Free Energy           =  +2.09 kcal/mol
DOCKED: USER    (4) Unbound System's Energy         =  -2.13 kcal/mol
DOCKED: USER
DOCKED: USER
DOCKED: REMARK SMILES O=C(NCC(=O)N1C[C@H](O)C[C@@H]1c1ccc(Cl)cc1)c1ccc2cc(C(F)(F)F)ccc2n1
DOCKED: REMARK SMILES IDX 4 1 3 2 2 3 1 4 20 6 21 7 33 8 22 9 32 10 23 11 31 12 24 13
DOCKED: REMARK SMILES IDX 30 14 25 15 26 16 27 17 28 18 29 19 5 20 6 21 7 22 8 23
DOCKED: REMARK SMILES IDX 12 24 9 25 11 26 13 27 14 28 19 29 15 30 18 31 16 32 17 33
DOCKED: REMARK SMILES IDX 10 34
DOCKED: REMARK H PARENT 3 5 10 35
DOCKED: USER                              x       y       z     vdW  Elec       q    Type
DOCKED: USER                           _______ _______ _______ _____ _____    ______ ____
DOCKED: ROOT
DOCKED: ATOM      1  C   UNL     1     141.361  74.705 220.062 -0.13 -0.06    +0.216 C  
DOCKED: ENDROOT
DOCKED: BRANCH   1   2
DOCKED: ATOM      2  N   UNL     1     141.233  73.877 221.247 -0.14 +0.05    -0.342 N  
DOCKED: ATOM      3  C   UNL     1     140.156  72.952 221.351 -0.16 -0.04    +0.270 C  
DOCKED: ATOM      4  O   UNL     1     139.333  72.887 220.385 -0.04 +0.05    -0.268 OA 
DOCKED: ATOM      5  H   UNL     1     141.907  73.924 222.049 +0.08 +0.00    +0.164 HD 
DOCKED: BRANCH   3   6
DOCKED: ATOM      6  C   UNL     1     140.001  72.107 222.527 -0.27 -0.02    +0.128 A  
DOCKED: ATOM      7  C   UNL     1     139.110  71.061 222.483 -0.21 -0.01    +0.035 A  
DOCKED: ATOM      8  N   UNL     1     140.685  72.293 223.670 -0.19 +0.01    -0.243 NA 
DOCKED: ATOM      9  C   UNL     1     138.903  70.219 223.542 -0.27 -0.00    +0.013 A  
DOCKED: ATOM     10  C   UNL     1     140.503  71.474 224.742 -0.45 -0.01    +0.071 A  
DOCKED: ATOM     11  C   UNL     1     139.614  70.421 224.710 -0.42 -0.00    +0.001 A  
DOCKED: ATOM     12  C   UNL     1     141.245  71.719 225.900 -0.54 -0.00    +0.029 A  
DOCKED: ATOM     13  C   UNL     1     139.480  69.636 225.824 -0.44 -0.00    +0.023 A  
DOCKED: ATOM     14  C   UNL     1     141.075  70.894 227.007 -0.65 -0.00    +0.015 A  
DOCKED: ATOM     15  C   UNL     1     140.183  69.839 226.977 -0.52 -0.01    +0.056 A  
DOCKED: BRANCH  15  16
DOCKED: ATOM     16  C   UNL     1     140.046  68.994 228.192 -0.26 -0.07    +0.416 C  
DOCKED: ATOM     17  F   UNL     1     141.290  68.774 228.768 -0.20 +0.04    -0.166 F  
DOCKED: ATOM     18  F   UNL     1     139.552  67.730 227.860 -0.14 +0.04    -0.166 F  
DOCKED: ATOM     19  F   UNL     1     139.221  69.615 229.102 -0.17 +0.02    -0.166 F  
DOCKED: ENDBRANCH  15  16
DOCKED: ENDBRANCH   3   6
DOCKED: ENDBRANCH   1   2
DOCKED: BRANCH   1  20
DOCKED: ATOM     20  C   UNL     1     140.517  75.919 220.155 -0.10 -0.07    +0.242 C  
DOCKED: ATOM     21  O   UNL     1     140.824  76.951 219.467 -0.06 +0.11    -0.273 OA 
DOCKED: BRANCH  20  22
DOCKED: ATOM     22  N   UNL     1     139.366  76.035 220.967 -0.07 +0.08    -0.331 N  
DOCKED: ATOM     23  C   UNL     1     138.017  75.851 220.401 -0.06 -0.03    +0.152 C  
DOCKED: ATOM     24  C   UNL     1     139.325  76.319 222.352 -0.29 -0.02    +0.118 C  
DOCKED: ATOM     25  C   UNL     1     137.180  75.588 221.669 -0.14 -0.03    +0.136 C  
DOCKED: ATOM     26  C   UNL     1     137.872  76.426 222.711 -0.27 -0.01    +0.063 C  
DOCKED: BRANCH  24  27
DOCKED: ATOM     27  C   UNL     1     140.070  77.559 222.725 -0.33 +0.01    -0.025 A  
DOCKED: ATOM     28  C   UNL     1     139.317  78.737 222.719 -0.33 -0.00    +0.007 A  
DOCKED: ATOM     29  C   UNL     1     141.409  77.552 223.058 -0.31 -0.00    +0.007 A  
DOCKED: ATOM     30  C   UNL     1     139.979  79.917 223.064 -0.39 -0.00    +0.021 A  
DOCKED: ATOM     31  C   UNL     1     142.062  78.718 223.398 -0.53 -0.01    +0.021 A  
DOCKED: ATOM     32  C   UNL     1     141.334  79.884 223.395 -0.52 -0.01    +0.041 A  
DOCKED: ATOM     33  Cl  UNL     1     142.199  81.356 223.836 -0.71 +0.01    -0.084 Cl 
DOCKED: ENDBRANCH  24  27
DOCKED: BRANCH  25  34
DOCKED: ATOM     34  O   UNL     1     135.861  75.945 221.448 -0.02 +0.07    -0.391 OA 
DOCKED: ATOM     35  H   UNL     1     135.854  76.936 221.326 +0.03 -0.04    +0.211 HD 
DOCKED: ENDBRANCH  25  34
DOCKED: ENDBRANCH  20  22
DOCKED: ENDBRANCH   1  20
DOCKED: TORSDOF 7
DOCKED: TER
DOCKED: ENDMDL
________________________________________________________________________________


    FINAL DOCKED STATE:
    ________________________


Run:   10 / 20
Time taken for this run:   0.065s

DOCKED: MODEL        10
DOCKED: USER    Run = 10
DOCKED: USER
DOCKED: USER    Estimated Free Energy of Binding    =  -6.53 kcal/mol  [=(1)+(2)+(3)-(4)]
DOCKED: USER
DOCKED: USER    (1) Final Intermolecular Energy     =  -8.62 kcal/mol
DOCKED: USER        vdW + Hbond + desolv Energy     =  -8.44 kcal/mol
DOCKED: USER        Electrostatic Energy            =  -0.18 kcal/mol
DOCKED: USER        Moving Ligand-Fixed Receptor    =  -8.62 kcal/mol
DOCKED: USER        Moving Ligand-Moving Receptor   =  +0.00 kcal/mol
DOCKED: USER    (2) Final Total Internal Energy     =  -2.62 kcal/mol
DOCKED: USER    (3) Torsional Free Energy           =  +2.09 kcal/mol
DOCKED: USER    (4) Unbound System's Energy         =  -2.62 kcal/mol
DOCKED: USER
DOCKED: USER
DOCKED: REMARK SMILES O=C(NCC(=O)N1C[C@H](O)C[C@@H]1c1ccc(Cl)cc1)c1ccc2cc(C(F)(F)F)ccc2n1
DOCKED: REMARK SMILES IDX 4 1 3 2 2 3 1 4 20 6 21 7 33 8 22 9 32 10 23 11 31 12 24 13
DOCKED: REMARK SMILES IDX 30 14 25 15 26 16 27 17 28 18 29 19 5 20 6 21 7 22 8 23
DOCKED: REMARK SMILES IDX 12 24 9 25 11 26 13 27 14 28 19 29 15 30 18 31 16 32 17 33
DOCKED: REMARK SMILES IDX 10 34
DOCKED: REMARK H PARENT 3 5 10 35
DOCKED: USER                              x       y       z     vdW  Elec       q    Type
DOCKED: USER                           _______ _______ _______ _____ _____    ______ ____
DOCKED: ROOT
DOCKED: ATOM      1  C   UNL     1     139.626  80.397 219.746 -0.06 -0.06    +0.216 C  
DOCKED: ENDROOT
DOCKED: BRANCH   1   2
DOCKED: ATOM      2  N   UNL     1     140.279  79.126 219.494 -0.02 +0.12    -0.342 N  
DOCKED: ATOM      3  C   UNL     1     141.629  79.101 219.042 -0.16 -0.16    +0.270 C  
DOCKED: ATOM      4  O   UNL     1     142.221  80.213 218.876 -0.24 +0.18    -0.268 OA 
DOCKED: ATOM      5  H   UNL     1     139.799  78.203 219.628 +0.05 -0.05    +0.164 HD 
DOCKED: BRANCH   3   6
DOCKED: ATOM      6  C   UNL     1     142.312  77.842 218.781 -0.25 -0.09    +0.128 A  
DOCKED: ATOM      7  C   UNL     1     142.725  77.562 217.500 -0.27 -0.03    +0.035 A  
DOCKED: ATOM      8  N   UNL     1     142.564  76.923 219.730 -0.22 +0.16    -0.243 NA 
DOCKED: ATOM      9  C   UNL     1     143.372  76.403 217.167 -0.25 -0.01    +0.013 A  
DOCKED: ATOM     10  C   UNL     1     143.206  75.759 219.432 -0.34 -0.04    +0.071 A  
DOCKED: ATOM     11  C   UNL     1     143.625  75.467 218.152 -0.23 -0.00    +0.001 A  
DOCKED: ATOM     12  C   UNL     1     143.438  74.845 220.463 -0.33 -0.01    +0.029 A  
DOCKED: ATOM     13  C   UNL     1     144.266  74.279 217.922 -0.13 -0.01    +0.023 A  
DOCKED: ATOM     14  C   UNL     1     144.093  73.651 220.182 -0.40 -0.00    +0.015 A  
DOCKED: ATOM     15  C   UNL     1     144.514  73.356 218.899 -0.24 -0.01    +0.056 A  
DOCKED: BRANCH  15  16
DOCKED: ATOM     16  C   UNL     1     145.207  72.064 218.662 -0.08 +0.18    +0.416 C  
DOCKED: ATOM     17  F   UNL     1     145.769  72.044 217.392 -0.03 -0.14    -0.166 F  
DOCKED: ATOM     18  F   UNL     1     144.298  71.003 218.691 -0.03 -0.02    -0.166 F  
DOCKED: ATOM     19  F   UNL     1     146.195  71.884 219.604 -0.10 -0.15    -0.166 F  
DOCKED: ENDBRANCH  15  16
DOCKED: ENDBRANCH   3   6
DOCKED: ENDBRANCH   1   2
DOCKED: BRANCH   1  20
DOCKED: ATOM     20  C   UNL     1     139.754  80.799 221.166 -0.11 -0.05    +0.242 C  
DOCKED: ATOM     21  O   UNL     1     138.872  81.566 221.683 -0.09 +0.04    -0.273 OA 
DOCKED: BRANCH  20  22
DOCKED: ATOM     22  N   UNL     1     140.802  80.395 222.023 -0.13 +0.08    -0.331 N  
DOCKED: ATOM     23  C   UNL     1     142.165  80.937 221.864 -0.35 -0.04    +0.152 C  
DOCKED: ATOM     24  C   UNL     1     140.720  79.477 223.096 -0.41 -0.03    +0.118 C  
DOCKED: ATOM     25  C   UNL     1     142.790  80.616 223.236 -0.53 -0.03    +0.136 C  
DOCKED: ATOM     26  C   UNL     1     142.118  79.325 223.621 -0.56 -0.02    +0.063 C  
DOCKED: BRANCH  24  27
DOCKED: ATOM     27  C   UNL     1     140.139  78.158 222.706 -0.38 +0.01    -0.025 A  
DOCKED: ATOM     28  C   UNL     1     141.068  77.175 222.348 -0.41 -0.00    +0.007 A  
DOCKED: ATOM     29  C   UNL     1     138.781  77.915 222.697 -0.30 -0.00    +0.007 A  
DOCKED: ATOM     30  C   UNL     1     140.562  75.928 221.978 -0.37 -0.00    +0.021 A  
DOCKED: ATOM     31  C   UNL     1     138.282  76.682 222.331 -0.29 -0.00    +0.021 A  
DOCKED: ATOM     32  C   UNL     1     139.184  75.707 221.976 -0.29 -0.01    +0.041 A  
DOCKED: ATOM     33  Cl  UNL     1     138.514  74.143 221.514 -0.24 +0.02    -0.084 Cl 
DOCKED: ENDBRANCH  24  27
DOCKED: BRANCH  25  34
DOCKED: ATOM     34  O   UNL     1     144.166  80.517 223.117 -0.28 +0.10    -0.391 OA 
DOCKED: ATOM     35  H   UNL     1     144.339  79.921 222.336 -0.39 -0.11    +0.211 HD 
DOCKED: ENDBRANCH  25  34
DOCKED: ENDBRANCH  20  22
DOCKED: ENDBRANCH   1  20
DOCKED: TORSDOF 7
DOCKED: TER
DOCKED: ENDMDL
________________________________________________________________________________


    FINAL DOCKED STATE:
    ________________________


Run:   11 / 20
Time taken for this run:   0.065s

DOCKED: MODEL        11
DOCKED: USER    Run = 11
DOCKED: USER
DOCKED: USER    Estimated Free Energy of Binding    =  -7.61 kcal/mol  [=(1)+(2)+(3)-(4)]
DOCKED: USER
DOCKED: USER    (1) Final Intermolecular Energy     =  -9.70 kcal/mol
DOCKED: USER        vdW + Hbond + desolv Energy     =  -9.55 kcal/mol
DOCKED: USER        Electrostatic Energy            =  -0.15 kcal/mol
DOCKED: USER        Moving Ligand-Fixed Receptor    =  -9.70 kcal/mol
DOCKED: USER        Moving Ligand-Moving Receptor   =  +0.00 kcal/mol
DOCKED: USER    (2) Final Total Internal Energy     =  -2.18 kcal/mol
DOCKED: USER    (3) Torsional Free Energy           =  +2.09 kcal/mol
DOCKED: USER    (4) Unbound System's Energy         =  -2.18 kcal/mol
DOCKED: USER
DOCKED: USER
DOCKED: REMARK SMILES O=C(NCC(=O)N1C[C@H](O)C[C@@H]1c1ccc(Cl)cc1)c1ccc2cc(C(F)(F)F)ccc2n1
DOCKED: REMARK SMILES IDX 4 1 3 2 2 3 1 4 20 6 21 7 33 8 22 9 32 10 23 11 31 12 24 13
DOCKED: REMARK SMILES IDX 30 14 25 15 26 16 27 17 28 18 29 19 5 20 6 21 7 22 8 23
DOCKED: REMARK SMILES IDX 12 24 9 25 11 26 13 27 14 28 19 29 15 30 18 31 16 32 17 33
DOCKED: REMARK SMILES IDX 10 34
DOCKED: REMARK H PARENT 3 5 10 35
DOCKED: USER                              x       y       z     vdW  Elec       q    Type
DOCKED: USER                           _______ _______ _______ _____ _____    ______ ____
DOCKED: ROOT
DOCKED: ATOM      1  C   UNL     1     139.589  75.780 220.972 -0.15 -0.05    +0.216 C  
DOCKED: ENDROOT
DOCKED: BRANCH   1   2
DOCKED: ATOM      2  N   UNL     1     139.573  74.718 221.962 -0.17 +0.06    -0.342 N  
DOCKED: ATOM      3  C   UNL     1     139.698  73.362 221.546 -0.17 -0.05    +0.270 C  
DOCKED: ATOM      4  O   UNL     1     139.822  73.131 220.302 -0.05 +0.05    -0.268 OA 
DOCKED: ATOM      5  H   UNL     1     139.472  74.899 222.989 -0.42 -0.02    +0.164 HD 
DOCKED: BRANCH   3   6
DOCKED: ATOM      6  C   UNL     1     139.686  72.275 222.514 -0.25 -0.02    +0.128 A  
DOCKED: ATOM      7  C   UNL     1     138.975  71.134 222.226 -0.19 -0.01    +0.035 A  
DOCKED: ATOM      8  N   UNL     1     140.338  72.321 223.690 -0.26 +0.03    -0.243 NA 
DOCKED: ATOM      9  C   UNL     1     138.910  70.066 223.079 -0.23 -0.00    +0.013 A  
DOCKED: ATOM     10  C   UNL     1     140.294  71.276 224.561 -0.44 -0.01    +0.071 A  
DOCKED: ATOM     11  C   UNL     1     139.585  70.127 224.284 -0.36 -0.00    +0.001 A  
DOCKED: ATOM     12  C   UNL     1     140.993  71.385 225.766 -0.60 -0.00    +0.029 A  
DOCKED: ATOM     13  C   UNL     1     139.583  69.113 225.205 -0.41 -0.00    +0.023 A  
DOCKED: ATOM     14  C   UNL     1     140.963  70.329 226.672 -0.58 -0.00    +0.015 A  
DOCKED: ATOM     15  C   UNL     1     140.251  69.177 226.395 -0.50 -0.01    +0.056 A  
DOCKED: BRANCH  15  16
DOCKED: ATOM     16  C   UNL     1     140.257  68.084 227.402 -0.28 -0.10    +0.416 C  
DOCKED: ATOM     17  F   UNL     1     139.233  67.183 227.141 -0.18 +0.03    -0.166 F  
DOCKED: ATOM     18  F   UNL     1     140.002  68.588 228.680 -0.21 +0.03    -0.166 F  
DOCKED: ATOM     19  F   UNL     1     141.467  67.427 227.371 -0.16 +0.05    -0.166 F  
DOCKED: ENDBRANCH  15  16
DOCKED: ENDBRANCH   3   6
DOCKED: ENDBRANCH   1   2
DOCKED: BRANCH   1  20
DOCKED: ATOM     20  C   UNL     1     140.818  76.599 221.076 -0.20 -0.09    +0.242 C  
DOCKED: ATOM     21  O   UNL     1     141.197  77.022 222.221 -0.27 +0.12    -0.273 OA 
DOCKED: BRANCH  20  22
DOCKED: ATOM     22  N   UNL     1     141.633  76.964 219.980 -0.11 +0.17    -0.331 N  
DOCKED: ATOM     23  C   UNL     1     141.150  77.911 218.958 -0.13 -0.07    +0.152 C  
DOCKED: ATOM     24  C   UNL     1     142.948  76.519 219.710 -0.31 -0.08    +0.118 C  
DOCKED: ATOM     25  C   UNL     1     142.470  78.357 218.297 -0.26 -0.10    +0.136 C  
DOCKED: ATOM     26  C   UNL     1     143.328  77.123 218.390 -0.20 -0.05    +0.063 C  
DOCKED: BRANCH  24  27
DOCKED: ATOM     27  C   UNL     1     143.077  75.031 219.684 -0.33 +0.01    -0.025 A  
DOCKED: ATOM     28  C   UNL     1     144.093  74.503 220.488 -0.44 -0.00    +0.007 A  
DOCKED: ATOM     29  C   UNL     1     142.255  74.225 218.925 -0.13 -0.00    +0.007 A  
DOCKED: ATOM     30  C   UNL     1     144.244  73.115 220.491 -0.41 -0.00    +0.021 A  
DOCKED: ATOM     31  C   UNL     1     142.405  72.853 218.928 -0.09 -0.00    +0.021 A  
DOCKED: ATOM     32  C   UNL     1     143.400  72.321 219.714 -0.21 -0.00    +0.041 A  
DOCKED: ATOM     33  Cl  UNL     1     143.565  70.565 219.696 -0.27 +0.00    -0.084 Cl 
DOCKED: ENDBRANCH  24  27
DOCKED: BRANCH  25  34
DOCKED: ATOM     34  O   UNL     1     142.231  78.777 216.999 -0.13 +0.36    -0.391 OA 
DOCKED: ATOM     35  H   UNL     1     143.045  79.278 216.711 -0.47 -0.37    +0.211 HD 
DOCKED: ENDBRANCH  25  34
DOCKED: ENDBRANCH  20  22
DOCKED: ENDBRANCH   1  20
DOCKED: TORSDOF 7
DOCKED: TER
DOCKED: ENDMDL
________________________________________________________________________________


    FINAL DOCKED STATE:
    ________________________


Run:   12 / 20
Time taken for this run:   0.065s

DOCKED: MODEL        12
DOCKED: USER    Run = 12
DOCKED: USER
DOCKED: USER    Estimated Free Energy of Binding    =  -7.55 kcal/mol  [=(1)+(2)+(3)-(4)]
DOCKED: USER
DOCKED: USER    (1) Final Intermolecular Energy     =  -9.64 kcal/mol
DOCKED: USER        vdW + Hbond + desolv Energy     =  -9.49 kcal/mol
DOCKED: USER        Electrostatic Energy            =  -0.14 kcal/mol
DOCKED: USER        Moving Ligand-Fixed Receptor    =  -9.64 kcal/mol
DOCKED: USER        Moving Ligand-Moving Receptor   =  +0.00 kcal/mol
DOCKED: USER    (2) Final Total Internal Energy     =  -2.18 kcal/mol
DOCKED: USER    (3) Torsional Free Energy           =  +2.09 kcal/mol
DOCKED: USER    (4) Unbound System's Energy         =  -2.18 kcal/mol
DOCKED: USER
DOCKED: USER
DOCKED: REMARK SMILES O=C(NCC(=O)N1C[C@H](O)C[C@@H]1c1ccc(Cl)cc1)c1ccc2cc(C(F)(F)F)ccc2n1
DOCKED: REMARK SMILES IDX 4 1 3 2 2 3 1 4 20 6 21 7 33 8 22 9 32 10 23 11 31 12 24 13
DOCKED: REMARK SMILES IDX 30 14 25 15 26 16 27 17 28 18 29 19 5 20 6 21 7 22 8 23
DOCKED: REMARK SMILES IDX 12 24 9 25 11 26 13 27 14 28 19 29 15 30 18 31 16 32 17 33
DOCKED: REMARK SMILES IDX 10 34
DOCKED: REMARK H PARENT 3 5 10 35
DOCKED: USER                              x       y       z     vdW  Elec       q    Type
DOCKED: USER                           _______ _______ _______ _____ _____    ______ ____
DOCKED: ROOT
DOCKED: ATOM      1  C   UNL     1     139.572  75.799 221.009 -0.15 -0.05    +0.216 C  
DOCKED: ENDROOT
DOCKED: BRANCH   1   2
DOCKED: ATOM      2  N   UNL     1     139.578  74.744 222.005 -0.16 +0.06    -0.342 N  
DOCKED: ATOM      3  C   UNL     1     139.619  73.382 221.594 -0.17 -0.05    +0.270 C  
DOCKED: ATOM      4  O   UNL     1     139.650  73.139 220.346 -0.05 +0.05    -0.268 OA 
DOCKED: ATOM      5  H   UNL     1     139.553  74.934 223.036 -0.42 -0.01    +0.164 HD 
DOCKED: BRANCH   3   6
DOCKED: ATOM      6  C   UNL     1     139.627  72.301 222.569 -0.25 -0.03    +0.128 A  
DOCKED: ATOM      7  C   UNL     1     138.900  71.163 222.309 -0.19 -0.01    +0.035 A  
DOCKED: ATOM      8  N   UNL     1     140.312  72.350 223.725 -0.22 +0.03    -0.243 NA 
DOCKED: ATOM      9  C   UNL     1     138.852  70.102 223.171 -0.24 -0.00    +0.013 A  
DOCKED: ATOM     10  C   UNL     1     140.286  71.311 224.605 -0.44 -0.01    +0.071 A  
DOCKED: ATOM     11  C   UNL     1     139.561  70.165 224.356 -0.37 -0.00    +0.001 A  
DOCKED: ATOM     12  C   UNL     1     141.019  71.423 225.789 -0.61 -0.00    +0.029 A  
DOCKED: ATOM     13  C   UNL     1     139.578  69.157 225.283 -0.41 -0.00    +0.023 A  
DOCKED: ATOM     14  C   UNL     1     141.007  70.373 226.702 -0.58 -0.00    +0.015 A  
DOCKED: ATOM     15  C   UNL     1     140.280  69.225 226.454 -0.50 -0.01    +0.056 A  
DOCKED: BRANCH  15  16
DOCKED: ATOM     16  C   UNL     1     140.307  68.138 227.467 -0.30 -0.10    +0.416 C  
DOCKED: ATOM     17  F   UNL     1     141.527  67.476 227.431 -0.12 +0.05    -0.166 F  
DOCKED: ATOM     18  F   UNL     1     139.341  67.170 227.179 -0.16 +0.03    -0.166 F  
DOCKED: ATOM     19  F   UNL     1     140.106  68.666 228.723 -0.21 +0.03    -0.166 F  
DOCKED: ENDBRANCH  15  16
DOCKED: ENDBRANCH   3   6
DOCKED: ENDBRANCH   1   2
DOCKED: BRANCH   1  20
DOCKED: ATOM     20  C   UNL     1     140.772  76.658 221.121 -0.21 -0.09    +0.242 C  
DOCKED: ATOM     21  O   UNL     1     141.113  77.115 222.265 -0.30 +0.12    -0.273 OA 
DOCKED: BRANCH  20  22
DOCKED: ATOM     22  N   UNL     1     141.598  77.028 220.036 -0.11 +0.17    -0.331 N  
DOCKED: ATOM     23  C   UNL     1     141.103  77.928 218.977 -0.13 -0.07    +0.152 C  
DOCKED: ATOM     24  C   UNL     1     142.936  76.629 219.808 -0.25 -0.08    +0.118 C  
DOCKED: ATOM     25  C   UNL     1     142.420  78.410 218.336 -0.25 -0.10    +0.136 C  
DOCKED: ATOM     26  C   UNL     1     143.324  77.214 218.482 -0.17 -0.05    +0.063 C  
DOCKED: BRANCH  24  27
DOCKED: ATOM     27  C   UNL     1     143.125  75.148 219.825 -0.35 +0.01    -0.025 A  
DOCKED: ATOM     28  C   UNL     1     142.182  74.414 219.098 -0.15 -0.00    +0.007 A  
DOCKED: ATOM     29  C   UNL     1     144.157  74.536 220.507 -0.42 -0.00    +0.007 A  
DOCKED: ATOM     30  C   UNL     1     142.327  73.025 219.090 -0.11 -0.00    +0.021 A  
DOCKED: ATOM     31  C   UNL     1     144.298  73.164 220.499 -0.42 -0.00    +0.021 A  
DOCKED: ATOM     32  C   UNL     1     143.378  72.430 219.788 -0.22 -0.01    +0.041 A  
DOCKED: ATOM     33  Cl  UNL     1     143.588  70.679 219.797 -0.27 +0.00    -0.084 Cl 
DOCKED: ENDBRANCH  24  27
DOCKED: BRANCH  25  34
DOCKED: ATOM     34  O   UNL     1     142.196  78.786 217.022 -0.12 +0.35    -0.391 OA 
DOCKED: ATOM     35  H   UNL     1     143.017  79.269 216.724 -0.46 -0.36    +0.211 HD 
DOCKED: ENDBRANCH  25  34
DOCKED: ENDBRANCH  20  22
DOCKED: ENDBRANCH   1  20
DOCKED: TORSDOF 7
DOCKED: TER
DOCKED: ENDMDL
________________________________________________________________________________


    FINAL DOCKED STATE:
    ________________________


Run:   13 / 20
Time taken for this run:   0.065s

DOCKED: MODEL        13
DOCKED: USER    Run = 13
DOCKED: USER
DOCKED: USER    Estimated Free Energy of Binding    =  -7.73 kcal/mol  [=(1)+(2)+(3)-(4)]
DOCKED: USER
DOCKED: USER    (1) Final Intermolecular Energy     =  -9.82 kcal/mol
DOCKED: USER        vdW + Hbond + desolv Energy     =  -9.67 kcal/mol
DOCKED: USER        Electrostatic Energy            =  -0.15 kcal/mol
DOCKED: USER        Moving Ligand-Fixed Receptor    =  -9.82 kcal/mol
DOCKED: USER        Moving Ligand-Moving Receptor   =  +0.00 kcal/mol
DOCKED: USER    (2) Final Total Internal Energy     =  -2.04 kcal/mol
DOCKED: USER    (3) Torsional Free Energy           =  +2.09 kcal/mol
DOCKED: USER    (4) Unbound System's Energy         =  -2.04 kcal/mol
DOCKED: USER
DOCKED: USER
DOCKED: REMARK SMILES O=C(NCC(=O)N1C[C@H](O)C[C@@H]1c1ccc(Cl)cc1)c1ccc2cc(C(F)(F)F)ccc2n1
DOCKED: REMARK SMILES IDX 4 1 3 2 2 3 1 4 20 6 21 7 33 8 22 9 32 10 23 11 31 12 24 13
DOCKED: REMARK SMILES IDX 30 14 25 15 26 16 27 17 28 18 29 19 5 20 6 21 7 22 8 23
DOCKED: REMARK SMILES IDX 12 24 9 25 11 26 13 27 14 28 19 29 15 30 18 31 16 32 17 33
DOCKED: REMARK SMILES IDX 10 34
DOCKED: REMARK H PARENT 3 5 10 35
DOCKED: USER                              x       y       z     vdW  Elec       q    Type
DOCKED: USER                           _______ _______ _______ _____ _____    ______ ____
DOCKED: ROOT
DOCKED: ATOM      1  C   UNL     1     139.585  75.675 220.956 -0.15 -0.05    +0.216 C  
DOCKED: ENDROOT
DOCKED: BRANCH   1   2
DOCKED: ATOM      2  N   UNL     1     139.529  74.632 221.963 -0.17 +0.06    -0.342 N  
DOCKED: ATOM      3  C   UNL     1     139.780  73.280 221.596 -0.17 -0.04    +0.270 C  
DOCKED: ATOM      4  O   UNL     1     140.049  73.034 220.378 -0.06 +0.05    -0.268 OA 
DOCKED: ATOM      5  H   UNL     1     139.308  74.824 222.970 -0.46 -0.03    +0.164 HD 
DOCKED: BRANCH   3   6
DOCKED: ATOM      6  C   UNL     1     139.733  72.211 222.584 -0.26 -0.02    +0.128 A  
DOCKED: ATOM      7  C   UNL     1     138.959  71.103 222.329 -0.19 -0.01    +0.035 A  
DOCKED: ATOM      8  N   UNL     1     140.408  72.244 223.746 -0.27 +0.03    -0.243 NA 
DOCKED: ATOM      9  C   UNL     1     138.857  70.054 223.203 -0.24 -0.00    +0.013 A  
DOCKED: ATOM     10  C   UNL     1     140.329  71.217 224.637 -0.45 -0.01    +0.071 A  
DOCKED: ATOM     11  C   UNL     1     139.557  70.101 224.394 -0.37 -0.00    +0.001 A  
DOCKED: ATOM     12  C   UNL     1     141.054  71.312 225.827 -0.61 -0.00    +0.029 A  
DOCKED: ATOM     13  C   UNL     1     139.523  69.104 225.332 -0.42 -0.00    +0.023 A  
DOCKED: ATOM     14  C   UNL     1     140.988  70.274 226.752 -0.58 -0.00    +0.015 A  
DOCKED: ATOM     15  C   UNL     1     140.215  69.155 226.509 -0.51 -0.01    +0.056 A  
DOCKED: BRANCH  15  16
DOCKED: ATOM     16  C   UNL     1     140.185  68.080 227.535 -0.25 -0.10    +0.416 C  
DOCKED: ATOM     17  F   UNL     1     141.395  67.399 227.554 -0.15 +0.05    -0.166 F  
DOCKED: ATOM     18  F   UNL     1     139.216  67.124 227.221 -0.15 +0.03    -0.166 F  
DOCKED: ATOM     19  F   UNL     1     139.945  68.626 228.776 -0.20 +0.03    -0.166 F  
DOCKED: ENDBRANCH  15  16
DOCKED: ENDBRANCH   3   6
DOCKED: ENDBRANCH   1   2
DOCKED: BRANCH   1  20
DOCKED: ATOM     20  C   UNL     1     140.814  76.491 221.087 -0.21 -0.09    +0.242 C  
DOCKED: ATOM     21  O   UNL     1     141.207  76.851 222.248 -0.27 +0.12    -0.273 OA 
DOCKED: BRANCH  20  22
DOCKED: ATOM     22  N   UNL     1     141.612  76.918 220.002 -0.11 +0.17    -0.331 N  
DOCKED: ATOM     23  C   UNL     1     141.074  77.833 218.978 -0.12 -0.07    +0.152 C  
DOCKED: ATOM     24  C   UNL     1     142.958  76.569 219.745 -0.29 -0.08    +0.118 C  
DOCKED: ATOM     25  C   UNL     1     142.367  78.374 218.334 -0.25 -0.10    +0.136 C  
DOCKED: ATOM     26  C   UNL     1     143.309  77.204 218.432 -0.18 -0.05    +0.063 C  
DOCKED: BRANCH  24  27
DOCKED: ATOM     27  C   UNL     1     143.194  75.094 219.716 -0.35 +0.01    -0.025 A  
DOCKED: ATOM     28  C   UNL     1     144.286  74.646 220.467 -0.44 -0.00    +0.007 A  
DOCKED: ATOM     29  C   UNL     1     142.394  74.226 219.002 -0.15 -0.00    +0.007 A  
DOCKED: ATOM     30  C   UNL     1     144.537  73.272 220.465 -0.46 -0.00    +0.021 A  
DOCKED: ATOM     31  C   UNL     1     142.643  72.869 219.001 -0.11 -0.00    +0.021 A  
DOCKED: ATOM     32  C   UNL     1     143.714  72.415 219.734 -0.24 -0.00    +0.041 A  
DOCKED: ATOM     33  Cl  UNL     1     144.005  70.675 219.711 -0.30 -0.00    -0.084 Cl 
DOCKED: ENDBRANCH  24  27
DOCKED: BRANCH  25  34
DOCKED: ATOM     34  O   UNL     1     142.113  78.781 217.035 -0.12 +0.34    -0.391 OA 
DOCKED: ATOM     35  H   UNL     1     142.957  79.193 216.698 -0.44 -0.34    +0.211 HD 
DOCKED: ENDBRANCH  25  34
DOCKED: ENDBRANCH  20  22
DOCKED: ENDBRANCH   1  20
DOCKED: TORSDOF 7
DOCKED: TER
DOCKED: ENDMDL
________________________________________________________________________________


    FINAL DOCKED STATE:
    ________________________


Run:   14 / 20
Time taken for this run:   0.065s

DOCKED: MODEL        14
DOCKED: USER    Run = 14
DOCKED: USER
DOCKED: USER    Estimated Free Energy of Binding    =  -7.66 kcal/mol  [=(1)+(2)+(3)-(4)]
DOCKED: USER
DOCKED: USER    (1) Final Intermolecular Energy     =  -9.75 kcal/mol
DOCKED: USER        vdW + Hbond + desolv Energy     =  -9.75 kcal/mol
DOCKED: USER        Electrostatic Energy            =  +0.00 kcal/mol
DOCKED: USER        Moving Ligand-Fixed Receptor    =  -9.75 kcal/mol
DOCKED: USER        Moving Ligand-Moving Receptor   =  +0.00 kcal/mol
DOCKED: USER    (2) Final Total Internal Energy     =  -1.64 kcal/mol
DOCKED: USER    (3) Torsional Free Energy           =  +2.09 kcal/mol
DOCKED: USER    (4) Unbound System's Energy         =  -1.64 kcal/mol
DOCKED: USER
DOCKED: USER
DOCKED: REMARK SMILES O=C(NCC(=O)N1C[C@H](O)C[C@@H]1c1ccc(Cl)cc1)c1ccc2cc(C(F)(F)F)ccc2n1
DOCKED: REMARK SMILES IDX 4 1 3 2 2 3 1 4 20 6 21 7 33 8 22 9 32 10 23 11 31 12 24 13
DOCKED: REMARK SMILES IDX 30 14 25 15 26 16 27 17 28 18 29 19 5 20 6 21 7 22 8 23
DOCKED: REMARK SMILES IDX 12 24 9 25 11 26 13 27 14 28 19 29 15 30 18 31 16 32 17 33
DOCKED: REMARK SMILES IDX 10 34
DOCKED: REMARK H PARENT 3 5 10 35
DOCKED: USER                              x       y       z     vdW  Elec       q    Type
DOCKED: USER                           _______ _______ _______ _____ _____    ______ ____
DOCKED: ROOT
DOCKED: ATOM      1  C   UNL     1     136.707  68.609 223.142 -0.06 -0.02    +0.216 C  
DOCKED: ENDROOT
DOCKED: BRANCH   1   2
DOCKED: ATOM      2  N   UNL     1     136.124  69.795 223.741 -0.07 +0.04    -0.342 N  
DOCKED: ATOM      3  C   UNL     1     135.115  69.662 224.737 -0.13 -0.02    +0.270 C  
DOCKED: ATOM      4  O   UNL     1     134.759  68.488 225.068 -0.64 +0.00    -0.268 OA 
DOCKED: ATOM      5  H   UNL     1     136.412  70.767 223.475 +0.04 -0.03    +0.164 HD 
DOCKED: BRANCH   3   6
DOCKED: ATOM      6  C   UNL     1     134.512  70.833 225.357 -0.19 -0.01    +0.128 A  
DOCKED: ATOM      7  C   UNL     1     133.549  70.653 226.323 -0.32 -0.00    +0.035 A  
DOCKED: ATOM      8  N   UNL     1     134.843  72.096 225.037 -0.11 +0.02    -0.243 NA 
DOCKED: ATOM      9  C   UNL     1     132.931  71.698 226.955 -0.40 -0.00    +0.013 A  
DOCKED: ATOM     10  C   UNL     1     134.248  73.158 225.648 -0.27 -0.00    +0.071 A  
DOCKED: ATOM     11  C   UNL     1     133.282  72.991 226.617 -0.38 -0.00    +0.001 A  
DOCKED: ATOM     12  C   UNL     1     134.636  74.446 225.271 -0.34 -0.00    +0.029 A  
DOCKED: ATOM     13  C   UNL     1     132.724  74.102 227.191 -0.38 +0.00    +0.023 A  
DOCKED: ATOM     14  C   UNL     1     134.042  75.545 225.882 -0.37 -0.00    +0.015 A  
DOCKED: ATOM     15  C   UNL     1     133.073  75.379 226.853 -0.36 +0.00    +0.056 A  
DOCKED: BRANCH  15  16
DOCKED: ATOM     16  C   UNL     1     132.475  76.592 227.469 -0.13 -0.00    +0.416 C  
DOCKED: ATOM     17  F   UNL     1     131.733  77.294 226.528 -0.03 +0.01    -0.166 F  
DOCKED: ATOM     18  F   UNL     1     133.472  77.472 227.897 -0.13 +0.03    -0.166 F  
DOCKED: ATOM     19  F   UNL     1     131.662  76.231 228.519 -0.12 -0.02    -0.166 F  
DOCKED: ENDBRANCH  15  16
DOCKED: ENDBRANCH   3   6
DOCKED: ENDBRANCH   1   2
DOCKED: BRANCH   1  20
DOCKED: ATOM     20  C   UNL     1     138.183  68.701 223.081 -0.16 -0.03    +0.242 C  
DOCKED: ATOM     21  O   UNL     1     138.878  67.630 223.010 -0.24 +0.04    -0.273 OA 
DOCKED: BRANCH  20  22
DOCKED: ATOM     22  N   UNL     1     138.912  69.912 223.094 -0.09 +0.06    -0.331 N  
DOCKED: ATOM     23  C   UNL     1     139.575  70.412 221.876 -0.13 -0.03    +0.152 C  
DOCKED: ATOM     24  C   UNL     1     139.105  70.778 224.196 -0.31 -0.02    +0.118 C  
DOCKED: ATOM     25  C   UNL     1     139.793  71.898 222.227 -0.23 -0.02    +0.136 C  
DOCKED: ATOM     26  C   UNL     1     140.022  71.864 223.715 -0.31 -0.01    +0.063 C  
DOCKED: BRANCH  24  27
DOCKED: ATOM     27  C   UNL     1     139.659  70.092 225.401 -0.43 +0.00    -0.025 A  
DOCKED: ATOM     28  C   UNL     1     140.537  70.856 226.176 -0.60 -0.00    +0.007 A  
DOCKED: ATOM     29  C   UNL     1     139.331  68.794 225.736 -0.48 -0.00    +0.007 A  
DOCKED: ATOM     30  C   UNL     1     141.075  70.249 227.312 -0.58 -0.00    +0.021 A  
DOCKED: ATOM     31  C   UNL     1     139.864  68.195 226.859 -0.63 -0.00    +0.021 A  
DOCKED: ATOM     32  C   UNL     1     140.729  68.935 227.630 -0.61 -0.01    +0.041 A  
DOCKED: ATOM     33  Cl  UNL     1     141.391  68.140 229.058 -0.49 +0.02    -0.084 Cl 
DOCKED: ENDBRANCH  24  27
DOCKED: BRANCH  25  34
DOCKED: ATOM     34  O   UNL     1     140.862  72.403 221.507 -0.14 +0.04    -0.391 OA 
DOCKED: ATOM     35  H   UNL     1     141.086  71.717 220.817 +0.06 -0.03    +0.211 HD 
DOCKED: ENDBRANCH  25  34
DOCKED: ENDBRANCH  20  22
DOCKED: ENDBRANCH   1  20
DOCKED: TORSDOF 7
DOCKED: TER
DOCKED: ENDMDL
________________________________________________________________________________


    FINAL DOCKED STATE:
    ________________________


Run:   15 / 20
Time taken for this run:   0.065s

DOCKED: MODEL        15
DOCKED: USER    Run = 15
DOCKED: USER
DOCKED: USER    Estimated Free Energy of Binding    =  -7.04 kcal/mol  [=(1)+(2)+(3)-(4)]
DOCKED: USER
DOCKED: USER    (1) Final Intermolecular Energy     =  -9.13 kcal/mol
DOCKED: USER        vdW + Hbond + desolv Energy     =  -8.99 kcal/mol
DOCKED: USER        Electrostatic Energy            =  -0.13 kcal/mol
DOCKED: USER        Moving Ligand-Fixed Receptor    =  -9.13 kcal/mol
DOCKED: USER        Moving Ligand-Moving Receptor   =  +0.00 kcal/mol
DOCKED: USER    (2) Final Total Internal Energy     =  -1.82 kcal/mol
DOCKED: USER    (3) Torsional Free Energy           =  +2.09 kcal/mol
DOCKED: USER    (4) Unbound System's Energy         =  -1.82 kcal/mol
DOCKED: USER
DOCKED: USER
DOCKED: REMARK SMILES O=C(NCC(=O)N1C[C@H](O)C[C@@H]1c1ccc(Cl)cc1)c1ccc2cc(C(F)(F)F)ccc2n1
DOCKED: REMARK SMILES IDX 4 1 3 2 2 3 1 4 20 6 21 7 33 8 22 9 32 10 23 11 31 12 24 13
DOCKED: REMARK SMILES IDX 30 14 25 15 26 16 27 17 28 18 29 19 5 20 6 21 7 22 8 23
DOCKED: REMARK SMILES IDX 12 24 9 25 11 26 13 27 14 28 19 29 15 30 18 31 16 32 17 33
DOCKED: REMARK SMILES IDX 10 34
DOCKED: REMARK H PARENT 3 5 10 35
DOCKED: USER                              x       y       z     vdW  Elec       q    Type
DOCKED: USER                           _______ _______ _______ _____ _____    ______ ____
DOCKED: ROOT
DOCKED: ATOM      1  C   UNL     1     141.208  71.824 218.562 -0.01 -0.04    +0.216 C  
DOCKED: ENDROOT
DOCKED: BRANCH   1   2
DOCKED: ATOM      2  N   UNL     1     141.088  71.183 219.858 -0.03 +0.05    -0.342 N  
DOCKED: ATOM      3  C   UNL     1     140.260  71.763 220.860 -0.09 -0.04    +0.270 C  
DOCKED: ATOM      4  O   UNL     1     139.647  72.839 220.575 -0.06 +0.05    -0.268 OA 
DOCKED: ATOM      5  H   UNL     1     141.590  70.295 220.102 +0.04 -0.02    +0.164 HD 
DOCKED: BRANCH   3   6
DOCKED: ATOM      6  C   UNL     1     140.119  71.144 222.170 -0.19 -0.02    +0.128 A  
DOCKED: ATOM      7  C   UNL     1     139.371  69.996 222.288 -0.17 -0.01    +0.035 A  
DOCKED: ATOM      8  N   UNL     1     140.684  71.635 223.288 -0.24 +0.02    -0.243 NA 
DOCKED: ATOM      9  C   UNL     1     139.186  69.351 223.480 -0.26 -0.00    +0.013 A  
DOCKED: ATOM     10  C   UNL     1     140.520  71.017 224.490 -0.42 -0.01    +0.071 A  
DOCKED: ATOM     11  C   UNL     1     139.773  69.866 224.621 -0.37 -0.00    +0.001 A  
DOCKED: ATOM     12  C   UNL     1     141.133  71.576 225.614 -0.53 -0.00    +0.029 A  
DOCKED: ATOM     13  C   UNL     1     139.650  69.295 225.860 -0.45 -0.00    +0.023 A  
DOCKED: ATOM     14  C   UNL     1     140.980  70.962 226.853 -0.66 -0.00    +0.015 A  
DOCKED: ATOM     15  C   UNL     1     140.230  69.808 226.985 -0.52 -0.01    +0.056 A  
DOCKED: BRANCH  15  16
DOCKED: ATOM     16  C   UNL     1     140.103  69.199 228.335 -0.26 -0.07    +0.416 C  
DOCKED: ATOM     17  F   UNL     1     139.648  67.891 228.231 -0.11 +0.04    -0.166 F  
DOCKED: ATOM     18  F   UNL     1     139.145  69.875 229.094 -0.17 +0.02    -0.166 F  
DOCKED: ATOM     19  F   UNL     1     141.325  69.212 228.970 -0.12 +0.04    -0.166 F  
DOCKED: ENDBRANCH  15  16
DOCKED: ENDBRANCH   3   6
DOCKED: ENDBRANCH   1   2
DOCKED: BRANCH   1  20
DOCKED: ATOM     20  C   UNL     1     141.756  73.195 218.683 -0.02 -0.05    +0.242 C  
DOCKED: ATOM     21  O   UNL     1     141.120  74.174 218.164 -0.01 +0.07    -0.273 OA 
DOCKED: BRANCH  20  22
DOCKED: ATOM     22  N   UNL     1     142.962  73.520 219.344 -0.05 +0.07    -0.331 N  
DOCKED: ATOM     23  C   UNL     1     143.876  72.465 219.818 -0.22 -0.01    +0.152 C  
DOCKED: ATOM     24  C   UNL     1     143.454  74.815 219.631 -0.30 -0.05    +0.118 C  
DOCKED: ATOM     25  C   UNL     1     145.191  73.250 220.003 -0.42 -0.01    +0.136 C  
DOCKED: ATOM     26  C   UNL     1     144.713  74.615 220.423 -0.36 -0.03    +0.063 C  
DOCKED: BRANCH  24  27
DOCKED: ATOM     27  C   UNL     1     142.477  75.670 220.370 -0.24 +0.01    -0.025 A  
DOCKED: ATOM     28  C   UNL     1     142.523  77.034 220.064 -0.31 -0.00    +0.007 A  
DOCKED: ATOM     29  C   UNL     1     141.587  75.159 221.292 -0.29 -0.00    +0.007 A  
DOCKED: ATOM     30  C   UNL     1     141.624  77.866 220.734 -0.31 -0.01    +0.021 A  
DOCKED: ATOM     31  C   UNL     1     140.699  75.982 221.953 -0.38 -0.01    +0.021 A  
DOCKED: ATOM     32  C   UNL     1     140.733  77.325 221.663 -0.34 -0.02    +0.041 A  
DOCKED: ATOM     33  Cl  UNL     1     139.586  78.349 222.525 -0.40 +0.02    -0.084 Cl 
DOCKED: ENDBRANCH  24  27
DOCKED: BRANCH  25  34
DOCKED: ATOM     34  O   UNL     1     145.989  72.622 220.943 -0.31 +0.02    -0.391 OA 
DOCKED: ATOM     35  H   UNL     1     145.439  71.886 221.333 -0.42 -0.13    +0.211 HD 
DOCKED: ENDBRANCH  25  34
DOCKED: ENDBRANCH  20  22
DOCKED: ENDBRANCH   1  20
DOCKED: TORSDOF 7
DOCKED: TER
DOCKED: ENDMDL
________________________________________________________________________________


    FINAL DOCKED STATE:
    ________________________


Run:   16 / 20
Time taken for this run:   0.065s

DOCKED: MODEL        16
DOCKED: USER    Run = 16
DOCKED: USER
DOCKED: USER    Estimated Free Energy of Binding    =  -7.14 kcal/mol  [=(1)+(2)+(3)-(4)]
DOCKED: USER
DOCKED: USER    (1) Final Intermolecular Energy     =  -9.22 kcal/mol
DOCKED: USER        vdW + Hbond + desolv Energy     =  -9.24 kcal/mol
DOCKED: USER        Electrostatic Energy            =  +0.01 kcal/mol
DOCKED: USER        Moving Ligand-Fixed Receptor    =  -9.22 kcal/mol
DOCKED: USER        Moving Ligand-Moving Receptor   =  +0.00 kcal/mol
DOCKED: USER    (2) Final Total Internal Energy     =  -2.12 kcal/mol
DOCKED: USER    (3) Torsional Free Energy           =  +2.09 kcal/mol
DOCKED: USER    (4) Unbound System's Energy         =  -2.12 kcal/mol
DOCKED: USER
DOCKED: USER
DOCKED: REMARK SMILES O=C(NCC(=O)N1C[C@H](O)C[C@@H]1c1ccc(Cl)cc1)c1ccc2cc(C(F)(F)F)ccc2n1
DOCKED: REMARK SMILES IDX 4 1 3 2 2 3 1 4 20 6 21 7 33 8 22 9 32 10 23 11 31 12 24 13
DOCKED: REMARK SMILES IDX 30 14 25 15 26 16 27 17 28 18 29 19 5 20 6 21 7 22 8 23
DOCKED: REMARK SMILES IDX 12 24 9 25 11 26 13 27 14 28 19 29 15 30 18 31 16 32 17 33
DOCKED: REMARK SMILES IDX 10 34
DOCKED: REMARK H PARENT 3 5 10 35
DOCKED: USER                              x       y       z     vdW  Elec       q    Type
DOCKED: USER                           _______ _______ _______ _____ _____    ______ ____
DOCKED: ROOT
DOCKED: ATOM      1  C   UNL     1     141.301  74.683 220.037 -0.13 -0.06    +0.216 C  
DOCKED: ENDROOT
DOCKED: BRANCH   1   2
DOCKED: ATOM      2  N   UNL     1     141.192  73.851 221.221 -0.14 +0.05    -0.342 N  
DOCKED: ATOM      3  C   UNL     1     140.123  72.917 221.333 -0.16 -0.04    +0.270 C  
DOCKED: ATOM      4  O   UNL     1     139.292  72.847 220.374 -0.04 +0.05    -0.268 OA 
DOCKED: ATOM      5  H   UNL     1     141.873  73.901 222.017 +0.07 +0.00    +0.164 HD 
DOCKED: BRANCH   3   6
DOCKED: ATOM      6  C   UNL     1     139.986  72.068 222.508 -0.27 -0.02    +0.128 A  
DOCKED: ATOM      7  C   UNL     1     139.136  70.988 222.454 -0.21 -0.01    +0.035 A  
DOCKED: ATOM      8  N   UNL     1     140.649  72.281 223.659 -0.22 +0.02    -0.243 NA 
DOCKED: ATOM      9  C   UNL     1     138.948  70.141 223.512 -0.27 -0.00    +0.013 A  
DOCKED: ATOM     10  C   UNL     1     140.485  71.456 224.730 -0.45 -0.01    +0.071 A  
DOCKED: ATOM     11  C   UNL     1     139.636  70.371 224.688 -0.41 -0.00    +0.001 A  
DOCKED: ATOM     12  C   UNL     1     141.202  71.730 225.896 -0.55 -0.00    +0.029 A  
DOCKED: ATOM     13  C   UNL     1     139.518  69.582 225.802 -0.44 -0.00    +0.023 A  
DOCKED: ATOM     14  C   UNL     1     141.051  70.901 227.003 -0.65 -0.00    +0.015 A  
DOCKED: ATOM     15  C   UNL     1     140.200  69.813 226.963 -0.52 -0.01    +0.056 A  
DOCKED: BRANCH  15  16
DOCKED: ATOM     16  C   UNL     1     140.080  68.964 228.177 -0.27 -0.08    +0.416 C  
DOCKED: ATOM     17  F   UNL     1     139.553  67.723 227.847 -0.13 +0.04    -0.166 F  
DOCKED: ATOM     18  F   UNL     1     139.181  69.528 229.087 -0.17 +0.02    -0.166 F  
DOCKED: ATOM     19  F   UNL     1     141.318  68.800 228.756 -0.20 +0.04    -0.166 F  
DOCKED: ENDBRANCH  15  16
DOCKED: ENDBRANCH   3   6
DOCKED: ENDBRANCH   1   2
DOCKED: BRANCH   1  20
DOCKED: ATOM     20  C   UNL     1     140.465  75.899 220.150 -0.10 -0.07    +0.242 C  
DOCKED: ATOM     21  O   UNL     1     140.772  76.938 219.471 -0.06 +0.10    -0.273 OA 
DOCKED: BRANCH  20  22
DOCKED: ATOM     22  N   UNL     1     139.320  76.012 220.971 -0.07 +0.08    -0.331 N  
DOCKED: ATOM     23  C   UNL     1     137.967  75.824 220.416 -0.06 -0.03    +0.152 C  
DOCKED: ATOM     24  C   UNL     1     139.290  76.297 222.356 -0.28 -0.02    +0.118 C  
DOCKED: ATOM     25  C   UNL     1     137.141  75.559 221.691 -0.14 -0.03    +0.136 C  
DOCKED: ATOM     26  C   UNL     1     137.839  76.400 222.727 -0.27 -0.01    +0.063 C  
DOCKED: BRANCH  24  27
DOCKED: ATOM     27  C   UNL     1     140.034  77.539 222.723 -0.33 +0.01    -0.025 A  
DOCKED: ATOM     28  C   UNL     1     139.278  78.716 222.715 -0.32 -0.00    +0.007 A  
DOCKED: ATOM     29  C   UNL     1     141.374  77.536 223.050 -0.31 -0.00    +0.007 A  
DOCKED: ATOM     30  C   UNL     1     139.939  79.898 223.055 -0.38 -0.00    +0.021 A  
DOCKED: ATOM     31  C   UNL     1     142.027  78.704 223.384 -0.53 -0.01    +0.021 A  
DOCKED: ATOM     32  C   UNL     1     141.296  79.869 223.381 -0.52 -0.01    +0.041 A  
DOCKED: ATOM     33  Cl  UNL     1     142.160  81.344 223.813 -0.71 +0.01    -0.084 Cl 
DOCKED: ENDBRANCH  24  27
DOCKED: BRANCH  25  34
DOCKED: ATOM     34  O   UNL     1     135.819  75.912 221.481 -0.02 +0.07    -0.391 OA 
DOCKED: ATOM     35  H   UNL     1     135.795  76.410 220.616 +0.02 -0.04    +0.211 HD 
DOCKED: ENDBRANCH  25  34
DOCKED: ENDBRANCH  20  22
DOCKED: ENDBRANCH   1  20
DOCKED: TORSDOF 7
DOCKED: TER
DOCKED: ENDMDL
________________________________________________________________________________


    FINAL DOCKED STATE:
    ________________________


Run:   17 / 20
Time taken for this run:   0.065s

DOCKED: MODEL        17
DOCKED: USER    Run = 17
DOCKED: USER
DOCKED: USER    Estimated Free Energy of Binding    =  -7.72 kcal/mol  [=(1)+(2)+(3)-(4)]
DOCKED: USER
DOCKED: USER    (1) Final Intermolecular Energy     =  -9.81 kcal/mol
DOCKED: USER        vdW + Hbond + desolv Energy     =  -9.65 kcal/mol
DOCKED: USER        Electrostatic Energy            =  -0.16 kcal/mol
DOCKED: USER        Moving Ligand-Fixed Receptor    =  -9.81 kcal/mol
DOCKED: USER        Moving Ligand-Moving Receptor   =  +0.00 kcal/mol
DOCKED: USER    (2) Final Total Internal Energy     =  -2.06 kcal/mol
DOCKED: USER    (3) Torsional Free Energy           =  +2.09 kcal/mol
DOCKED: USER    (4) Unbound System's Energy         =  -2.06 kcal/mol
DOCKED: USER
DOCKED: USER
DOCKED: REMARK SMILES O=C(NCC(=O)N1C[C@H](O)C[C@@H]1c1ccc(Cl)cc1)c1ccc2cc(C(F)(F)F)ccc2n1
DOCKED: REMARK SMILES IDX 4 1 3 2 2 3 1 4 20 6 21 7 33 8 22 9 32 10 23 11 31 12 24 13
DOCKED: REMARK SMILES IDX 30 14 25 15 26 16 27 17 28 18 29 19 5 20 6 21 7 22 8 23
DOCKED: REMARK SMILES IDX 12 24 9 25 11 26 13 27 14 28 19 29 15 30 18 31 16 32 17 33
DOCKED: REMARK SMILES IDX 10 34
DOCKED: REMARK H PARENT 3 5 10 35
DOCKED: USER                              x       y       z     vdW  Elec       q    Type
DOCKED: USER                           _______ _______ _______ _____ _____    ______ ____
DOCKED: ROOT
DOCKED: ATOM      1  C   UNL     1     139.540  75.746 221.000 -0.15 -0.05    +0.216 C  
DOCKED: ENDROOT
DOCKED: BRANCH   1   2
DOCKED: ATOM      2  N   UNL     1     139.499  74.717 222.023 -0.16 +0.06    -0.342 N  
DOCKED: ATOM      3  C   UNL     1     139.545  73.344 221.649 -0.17 -0.05    +0.270 C  
DOCKED: ATOM      4  O   UNL     1     139.621  73.069 220.410 -0.05 +0.05    -0.268 OA 
DOCKED: ATOM      5  H   UNL     1     139.437  74.935 223.047 -0.45 -0.02    +0.164 HD 
DOCKED: BRANCH   3   6
DOCKED: ATOM      6  C   UNL     1     139.506  72.289 222.651 -0.24 -0.03    +0.128 A  
DOCKED: ATOM      7  C   UNL     1     138.601  71.265 222.506 -0.19 -0.01    +0.035 A  
DOCKED: ATOM      8  N   UNL     1     140.313  72.258 223.726 -0.29 +0.03    -0.243 NA 
DOCKED: ATOM      9  C   UNL     1     138.497  70.235 223.401 -0.25 -0.00    +0.013 A  
DOCKED: ATOM     10  C   UNL     1     140.237  71.247 224.636 -0.44 -0.01    +0.071 A  
DOCKED: ATOM     11  C   UNL     1     139.334  70.215 224.501 -0.37 -0.00    +0.001 A  
DOCKED: ATOM     12  C   UNL     1     141.104  71.271 225.731 -0.60 -0.00    +0.029 A  
DOCKED: ATOM     13  C   UNL     1     139.310  69.230 225.453 -0.42 -0.00    +0.023 A  
DOCKED: ATOM     14  C   UNL     1     141.043  70.249 226.673 -0.57 -0.00    +0.015 A  
DOCKED: ATOM     15  C   UNL     1     140.138  69.214 226.540 -0.50 -0.01    +0.056 A  
DOCKED: BRANCH  15  16
DOCKED: ATOM     16  C   UNL     1     140.121  68.151 227.578 -0.28 -0.09    +0.416 C  
DOCKED: ATOM     17  F   UNL     1     139.276  67.117 227.196 -0.15 +0.03    -0.166 F  
DOCKED: ATOM     18  F   UNL     1     139.601  68.642 228.779 -0.15 +0.02    -0.166 F  
DOCKED: ATOM     19  F   UNL     1     141.394  67.660 227.765 -0.19 +0.05    -0.166 F  
DOCKED: ENDBRANCH  15  16
DOCKED: ENDBRANCH   3   6
DOCKED: ENDBRANCH   1   2
DOCKED: BRANCH   1  20
DOCKED: ATOM     20  C   UNL     1     140.756  76.583 221.121 -0.21 -0.09    +0.242 C  
DOCKED: ATOM     21  O   UNL     1     141.098  77.032 222.267 -0.30 +0.11    -0.273 OA 
DOCKED: BRANCH  20  22
DOCKED: ATOM     22  N   UNL     1     141.595  76.938 220.041 -0.11 +0.17    -0.331 N  
DOCKED: ATOM     23  C   UNL     1     141.118  77.837 218.973 -0.13 -0.07    +0.152 C  
DOCKED: ATOM     24  C   UNL     1     142.931  76.525 219.827 -0.25 -0.08    +0.118 C  
DOCKED: ATOM     25  C   UNL     1     142.445  78.302 218.340 -0.26 -0.10    +0.136 C  
DOCKED: ATOM     26  C   UNL     1     143.336  77.099 218.501 -0.20 -0.05    +0.063 C  
DOCKED: BRANCH  24  27
DOCKED: ATOM     27  C   UNL     1     143.105  75.042 219.855 -0.34 +0.01    -0.025 A  
DOCKED: ATOM     28  C   UNL     1     144.274  74.587 220.473 -0.44 -0.00    +0.007 A  
DOCKED: ATOM     29  C   UNL     1     142.182  74.173 219.311 -0.16 -0.00    +0.007 A  
DOCKED: ATOM     30  C   UNL     1     144.472  73.206 220.520 -0.45 -0.00    +0.021 A  
DOCKED: ATOM     31  C   UNL     1     142.379  72.808 219.357 -0.13 -0.00    +0.021 A  
DOCKED: ATOM     32  C   UNL     1     143.524  72.347 219.962 -0.25 -0.00    +0.041 A  
DOCKED: ATOM     33  Cl  UNL     1     143.744  70.598 220.004 -0.25 +0.00    -0.084 Cl 
DOCKED: ENDBRANCH  24  27
DOCKED: BRANCH  25  34
DOCKED: ATOM     34  O   UNL     1     142.237  78.673 217.023 -0.13 +0.35    -0.391 OA 
DOCKED: ATOM     35  H   UNL     1     143.062  79.153 216.731 -0.44 -0.36    +0.211 HD 
DOCKED: ENDBRANCH  25  34
DOCKED: ENDBRANCH  20  22
DOCKED: ENDBRANCH   1  20
DOCKED: TORSDOF 7
DOCKED: TER
DOCKED: ENDMDL
________________________________________________________________________________


    FINAL DOCKED STATE:
    ________________________


Run:   18 / 20
Time taken for this run:   0.065s

DOCKED: MODEL        18
DOCKED: USER    Run = 18
DOCKED: USER
DOCKED: USER    Estimated Free Energy of Binding    =  -7.67 kcal/mol  [=(1)+(2)+(3)-(4)]
DOCKED: USER
DOCKED: USER    (1) Final Intermolecular Energy     =  -9.76 kcal/mol
DOCKED: USER        vdW + Hbond + desolv Energy     =  -9.62 kcal/mol
DOCKED: USER        Electrostatic Energy            =  -0.14 kcal/mol
DOCKED: USER        Moving Ligand-Fixed Receptor    =  -9.76 kcal/mol
DOCKED: USER        Moving Ligand-Moving Receptor   =  +0.00 kcal/mol
DOCKED: USER    (2) Final Total Internal Energy     =  -2.15 kcal/mol
DOCKED: USER    (3) Torsional Free Energy           =  +2.09 kcal/mol
DOCKED: USER    (4) Unbound System's Energy         =  -2.15 kcal/mol
DOCKED: USER
DOCKED: USER
DOCKED: REMARK SMILES O=C(NCC(=O)N1C[C@H](O)C[C@@H]1c1ccc(Cl)cc1)c1ccc2cc(C(F)(F)F)ccc2n1
DOCKED: REMARK SMILES IDX 4 1 3 2 2 3 1 4 20 6 21 7 33 8 22 9 32 10 23 11 31 12 24 13
DOCKED: REMARK SMILES IDX 30 14 25 15 26 16 27 17 28 18 29 19 5 20 6 21 7 22 8 23
DOCKED: REMARK SMILES IDX 12 24 9 25 11 26 13 27 14 28 19 29 15 30 18 31 16 32 17 33
DOCKED: REMARK SMILES IDX 10 34
DOCKED: REMARK H PARENT 3 5 10 35
DOCKED: USER                              x       y       z     vdW  Elec       q    Type
DOCKED: USER                           _______ _______ _______ _____ _____    ______ ____
DOCKED: ROOT
DOCKED: ATOM      1  C   UNL     1     139.585  75.744 221.025 -0.16 -0.05    +0.216 C  
DOCKED: ENDROOT
DOCKED: BRANCH   1   2
DOCKED: ATOM      2  N   UNL     1     139.575  74.695 222.028 -0.16 +0.05    -0.342 N  
DOCKED: ATOM      3  C   UNL     1     139.608  73.330 221.625 -0.17 -0.05    +0.270 C  
DOCKED: ATOM      4  O   UNL     1     139.646  73.079 220.379 -0.05 +0.05    -0.268 OA 
DOCKED: ATOM      5  H   UNL     1     139.544  74.892 223.057 -0.45 -0.01    +0.164 HD 
DOCKED: BRANCH   3   6
DOCKED: ATOM      6  C   UNL     1     139.600  72.255 222.607 -0.25 -0.03    +0.128 A  
DOCKED: ATOM      7  C   UNL     1     138.824  71.144 222.372 -0.19 -0.01    +0.035 A  
DOCKED: ATOM      8  N   UNL     1     140.313  72.285 223.746 -0.27 +0.03    -0.243 NA 
DOCKED: ATOM      9  C   UNL     1     138.758  70.090 223.242 -0.24 -0.00    +0.013 A  
DOCKED: ATOM     10  C   UNL     1     140.270  71.253 224.633 -0.44 -0.01    +0.071 A  
DOCKED: ATOM     11  C   UNL     1     139.497  70.134 224.409 -0.37 -0.00    +0.001 A  
DOCKED: ATOM     12  C   UNL     1     141.035  71.344 225.798 -0.61 -0.00    +0.029 A  
DOCKED: ATOM     13  C   UNL     1     139.500  69.132 225.342 -0.42 -0.00    +0.023 A  
DOCKED: ATOM     14  C   UNL     1     141.007  70.301 226.718 -0.58 -0.00    +0.015 A  
DOCKED: ATOM     15  C   UNL     1     140.232  69.179 226.495 -0.51 -0.01    +0.056 A  
DOCKED: BRANCH  15  16
DOCKED: ATOM     16  C   UNL     1     140.243  68.098 227.515 -0.27 -0.10    +0.416 C  
DOCKED: ATOM     17  F   UNL     1     141.462  67.433 227.499 -0.15 +0.05    -0.166 F  
DOCKED: ATOM     18  F   UNL     1     139.279  67.131 227.219 -0.15 +0.03    -0.166 F  
DOCKED: ATOM     19  F   UNL     1     140.027  68.633 228.765 -0.21 +0.03    -0.166 F  
DOCKED: ENDBRANCH  15  16
DOCKED: ENDBRANCH   3   6
DOCKED: ENDBRANCH   1   2
DOCKED: BRANCH   1  20
DOCKED: ATOM     20  C   UNL     1     140.801  76.582 221.129 -0.21 -0.09    +0.242 C  
DOCKED: ATOM     21  O   UNL     1     141.157  77.034 222.270 -0.29 +0.12    -0.273 OA 
DOCKED: BRANCH  20  22
DOCKED: ATOM     22  N   UNL     1     141.626  76.937 220.038 -0.11 +0.17    -0.331 N  
DOCKED: ATOM     23  C   UNL     1     141.143  77.852 218.987 -0.13 -0.07    +0.152 C  
DOCKED: ATOM     24  C   UNL     1     142.952  76.508 219.798 -0.27 -0.08    +0.118 C  
DOCKED: ATOM     25  C   UNL     1     142.466  78.305 218.336 -0.26 -0.10    +0.136 C  
DOCKED: ATOM     26  C   UNL     1     143.343  77.089 218.470 -0.18 -0.05    +0.063 C  
DOCKED: BRANCH  24  27
DOCKED: ATOM     27  C   UNL     1     143.107  75.022 219.808 -0.34 +0.01    -0.025 A  
DOCKED: ATOM     28  C   UNL     1     144.226  74.540 220.495 -0.44 -0.00    +0.007 A  
DOCKED: ATOM     29  C   UNL     1     142.212  74.175 219.187 -0.15 -0.00    +0.007 A  
DOCKED: ATOM     30  C   UNL     1     144.404  73.156 220.528 -0.43 -0.00    +0.021 A  
DOCKED: ATOM     31  C   UNL     1     142.389  72.808 219.220 -0.12 -0.00    +0.021 A  
DOCKED: ATOM     32  C   UNL     1     143.485  72.320 219.891 -0.23 -0.00    +0.041 A  
DOCKED: ATOM     33  Cl  UNL     1     143.682  70.568 219.914 -0.26 +0.00    -0.084 Cl 
DOCKED: ENDBRANCH  24  27
DOCKED: BRANCH  25  34
DOCKED: ATOM     34  O   UNL     1     142.240  78.691 217.026 -0.13 +0.35    -0.391 OA 
DOCKED: ATOM     35  H   UNL     1     143.033  79.231 216.751 -0.45 -0.36    +0.211 HD 
DOCKED: ENDBRANCH  25  34
DOCKED: ENDBRANCH  20  22
DOCKED: ENDBRANCH   1  20
DOCKED: TORSDOF 7
DOCKED: TER
DOCKED: ENDMDL
________________________________________________________________________________


    FINAL DOCKED STATE:
    ________________________


Run:   19 / 20
Time taken for this run:   0.065s

DOCKED: MODEL        19
DOCKED: USER    Run = 19
DOCKED: USER
DOCKED: USER    Estimated Free Energy of Binding    =  -7.12 kcal/mol  [=(1)+(2)+(3)-(4)]
DOCKED: USER
DOCKED: USER    (1) Final Intermolecular Energy     =  -9.21 kcal/mol
DOCKED: USER        vdW + Hbond + desolv Energy     =  -9.08 kcal/mol
DOCKED: USER        Electrostatic Energy            =  -0.14 kcal/mol
DOCKED: USER        Moving Ligand-Fixed Receptor    =  -9.21 kcal/mol
DOCKED: USER        Moving Ligand-Moving Receptor   =  +0.00 kcal/mol
DOCKED: USER    (2) Final Total Internal Energy     =  -2.35 kcal/mol
DOCKED: USER    (3) Torsional Free Energy           =  +2.09 kcal/mol
DOCKED: USER    (4) Unbound System's Energy         =  -2.35 kcal/mol
DOCKED: USER
DOCKED: USER
DOCKED: REMARK SMILES O=C(NCC(=O)N1C[C@H](O)C[C@@H]1c1ccc(Cl)cc1)c1ccc2cc(C(F)(F)F)ccc2n1
DOCKED: REMARK SMILES IDX 4 1 3 2 2 3 1 4 20 6 21 7 33 8 22 9 32 10 23 11 31 12 24 13
DOCKED: REMARK SMILES IDX 30 14 25 15 26 16 27 17 28 18 29 19 5 20 6 21 7 22 8 23
DOCKED: REMARK SMILES IDX 12 24 9 25 11 26 13 27 14 28 19 29 15 30 18 31 16 32 17 33
DOCKED: REMARK SMILES IDX 10 34
DOCKED: REMARK H PARENT 3 5 10 35
DOCKED: USER                              x       y       z     vdW  Elec       q    Type
DOCKED: USER                           _______ _______ _______ _____ _____    ______ ____
DOCKED: ROOT
DOCKED: ATOM      1  C   UNL     1     137.277  78.113 220.270 -0.02 -0.04    +0.216 C  
DOCKED: ENDROOT
DOCKED: BRANCH   1   2
DOCKED: ATOM      2  N   UNL     1     136.967  78.601 221.600 -0.03 +0.06    -0.342 N  
DOCKED: ATOM      3  C   UNL     1     137.565  79.805 222.070 -0.08 -0.04    +0.270 C  
DOCKED: ATOM      4  O   UNL     1     138.362  80.416 221.291 -0.05 +0.05    -0.268 OA 
DOCKED: ATOM      5  H   UNL     1     136.310  78.105 222.250 +0.04 -0.03    +0.164 HD 
DOCKED: BRANCH   3   6
DOCKED: ATOM      6  C   UNL     1     137.273  80.321 223.400 -0.21 -0.02    +0.128 A  
DOCKED: ATOM      7  C   UNL     1     138.258  80.994 224.084 -0.36 -0.00    +0.035 A  
DOCKED: ATOM      8  N   UNL     1     136.083  80.175 224.008 -0.12 +0.03    -0.243 NA 
DOCKED: ATOM      9  C   UNL     1     138.068  81.511 225.337 -0.16 -0.00    +0.013 A  
DOCKED: ATOM     10  C   UNL     1     135.861  80.677 225.254 -0.14 -0.01    +0.071 A  
DOCKED: ATOM     11  C   UNL     1     136.839  81.354 225.950 -0.43 -0.00    +0.001 A  
DOCKED: ATOM     12  C   UNL     1     134.602  80.492 225.831 -0.16 -0.00    +0.029 A  
DOCKED: ATOM     13  C   UNL     1     136.549  81.833 227.199 -0.49 -0.00    +0.023 A  
DOCKED: ATOM     14  C   UNL     1     134.353  80.997 227.103 -0.23 -0.00    +0.015 A  
DOCKED: ATOM     15  C   UNL     1     135.333  81.675 227.802 -0.37 -0.01    +0.056 A  
DOCKED: BRANCH  15  16
DOCKED: ATOM     16  C   UNL     1     135.007  82.191 229.157 -0.21 -0.06    +0.416 C  
DOCKED: ATOM     17  F   UNL     1     135.125  83.574 229.188 -0.11 -0.03    -0.166 F  
DOCKED: ATOM     18  F   UNL     1     135.919  81.711 230.101 -0.26 +0.06    -0.166 F  
DOCKED: ATOM     19  F   UNL     1     133.722  81.831 229.497 -0.07 -0.00    -0.166 F  
DOCKED: ENDBRANCH  15  16
DOCKED: ENDBRANCH   3   6
DOCKED: ENDBRANCH   1   2
DOCKED: BRANCH   1  20
DOCKED: ATOM     20  C   UNL     1     138.729  77.868 220.107 -0.03 -0.06    +0.242 C  
DOCKED: ATOM     21  O   UNL     1     139.406  78.610 219.315 -0.02 +0.08    -0.273 OA 
DOCKED: BRANCH  20  22
DOCKED: ATOM     22  N   UNL     1     139.450  76.852 220.773 -0.04 +0.09    -0.331 N  
DOCKED: ATOM     23  C   UNL     1     138.781  75.620 221.228 -0.16 -0.03    +0.152 C  
DOCKED: ATOM     24  C   UNL     1     140.831  76.850 221.082 -0.25 -0.05    +0.118 C  
DOCKED: ATOM     25  C   UNL     1     139.979  74.669 221.425 -0.24 -0.02    +0.136 C  
DOCKED: ATOM     26  C   UNL     1     141.078  75.597 221.869 -0.27 -0.02    +0.063 C  
DOCKED: BRANCH  24  27
DOCKED: ATOM     27  C   UNL     1     141.272  78.062 221.836 -0.37 +0.01    -0.025 A  
DOCKED: ATOM     28  C   UNL     1     141.105  77.999 223.224 -0.40 -0.00    +0.007 A  
DOCKED: ATOM     29  C   UNL     1     141.810  79.171 221.216 -0.38 -0.00    +0.007 A  
DOCKED: ATOM     30  C   UNL     1     141.507  79.113 223.963 -0.58 -0.01    +0.021 A  
DOCKED: ATOM     31  C   UNL     1     142.207  80.270 221.948 -0.49 -0.01    +0.021 A  
DOCKED: ATOM     32  C   UNL     1     142.048  80.223 223.313 -0.59 -0.01    +0.041 A  
DOCKED: ATOM     33  Cl  UNL     1     142.565  81.645 224.218 -0.52 +0.01    -0.084 Cl 
DOCKED: ENDBRANCH  24  27
DOCKED: BRANCH  25  34
DOCKED: ATOM     34  O   UNL     1     139.660  73.693 222.354 -0.74 +0.06    -0.391 OA 
DOCKED: ATOM     35  H   UNL     1     138.888  74.045 222.879 -0.53 -0.10    +0.211 HD 
DOCKED: ENDBRANCH  25  34
DOCKED: ENDBRANCH  20  22
DOCKED: ENDBRANCH   1  20
DOCKED: TORSDOF 7
DOCKED: TER
DOCKED: ENDMDL
________________________________________________________________________________


    FINAL DOCKED STATE:
    ________________________


Run:   20 / 20
Time taken for this run:   0.065s

DOCKED: MODEL        20
DOCKED: USER    Run = 20
DOCKED: USER
DOCKED: USER    Estimated Free Energy of Binding    =  -6.53 kcal/mol  [=(1)+(2)+(3)-(4)]
DOCKED: USER
DOCKED: USER    (1) Final Intermolecular Energy     =  -8.61 kcal/mol
DOCKED: USER        vdW + Hbond + desolv Energy     =  -8.46 kcal/mol
DOCKED: USER        Electrostatic Energy            =  -0.15 kcal/mol
DOCKED: USER        Moving Ligand-Fixed Receptor    =  -8.61 kcal/mol
DOCKED: USER        Moving Ligand-Moving Receptor   =  +0.00 kcal/mol
DOCKED: USER    (2) Final Total Internal Energy     =  -2.62 kcal/mol
DOCKED: USER    (3) Torsional Free Energy           =  +2.09 kcal/mol
DOCKED: USER    (4) Unbound System's Energy         =  -2.62 kcal/mol
DOCKED: USER
DOCKED: USER
DOCKED: REMARK SMILES O=C(NCC(=O)N1C[C@H](O)C[C@@H]1c1ccc(Cl)cc1)c1ccc2cc(C(F)(F)F)ccc2n1
DOCKED: REMARK SMILES IDX 4 1 3 2 2 3 1 4 20 6 21 7 33 8 22 9 32 10 23 11 31 12 24 13
DOCKED: REMARK SMILES IDX 30 14 25 15 26 16 27 17 28 18 29 19 5 20 6 21 7 22 8 23
DOCKED: REMARK SMILES IDX 12 24 9 25 11 26 13 27 14 28 19 29 15 30 18 31 16 32 17 33
DOCKED: REMARK SMILES IDX 10 34
DOCKED: REMARK H PARENT 3 5 10 35
DOCKED: USER                              x       y       z     vdW  Elec       q    Type
DOCKED: USER                           _______ _______ _______ _____ _____    ______ ____
DOCKED: ROOT
DOCKED: ATOM      1  C   UNL     1     139.670  80.310 219.654 -0.05 -0.06    +0.216 C  
DOCKED: ENDROOT
DOCKED: BRANCH   1   2
DOCKED: ATOM      2  N   UNL     1     140.329  79.032 219.460 -0.02 +0.13    -0.342 N  
DOCKED: ATOM      3  C   UNL     1     141.675  78.994 218.996 -0.16 -0.16    +0.270 C  
DOCKED: ATOM      4  O   UNL     1     142.256  80.100 218.767 -0.24 +0.18    -0.268 OA 
DOCKED: ATOM      5  H   UNL     1     139.858  78.114 219.646 +0.05 -0.05    +0.164 HD 
DOCKED: BRANCH   3   6
DOCKED: ATOM      6  C   UNL     1     142.364  77.728 218.792 -0.25 -0.09    +0.128 A  
DOCKED: ATOM      7  C   UNL     1     142.909  77.457 217.559 -0.28 -0.03    +0.035 A  
DOCKED: ATOM      8  N   UNL     1     142.500  76.794 219.750 -0.21 +0.15    -0.243 NA 
DOCKED: ATOM      9  C   UNL     1     143.572  76.292 217.281 -0.24 -0.01    +0.013 A  
DOCKED: ATOM     10  C   UNL     1     143.155  75.625 219.508 -0.33 -0.04    +0.071 A  
DOCKED: ATOM     11  C   UNL     1     143.705  75.341 218.276 -0.22 -0.00    +0.001 A  
DOCKED: ATOM     12  C   UNL     1     143.263  74.695 220.545 -0.30 -0.01    +0.029 A  
DOCKED: ATOM     13  C   UNL     1     144.350  74.146 218.100 -0.15 -0.01    +0.023 A  
DOCKED: ATOM     14  C   UNL     1     143.927  73.494 220.320 -0.38 -0.00    +0.015 A  
DOCKED: ATOM     15  C   UNL     1     144.479  73.209 219.085 -0.25 -0.00    +0.056 A  
DOCKED: BRANCH  15  16
DOCKED: ATOM     16  C   UNL     1     145.176  71.908 218.906 -0.09 +0.16    +0.416 C  
DOCKED: ATOM     17  F   UNL     1     144.362  70.864 219.324 -0.05 -0.01    -0.166 F  
DOCKED: ATOM     18  F   UNL     1     146.317  71.845 219.711 -0.12 -0.15    -0.166 F  
DOCKED: ATOM     19  F   UNL     1     145.505  71.734 217.581 -0.04 -0.11    -0.166 F  
DOCKED: ENDBRANCH  15  16
DOCKED: ENDBRANCH   3   6
DOCKED: ENDBRANCH   1   2
DOCKED: BRANCH   1  20
DOCKED: ATOM     20  C   UNL     1     139.778  80.769 221.058 -0.11 -0.06    +0.242 C  
DOCKED: ATOM     21  O   UNL     1     138.902  81.573 221.525 -0.09 +0.05    -0.273 OA 
DOCKED: BRANCH  20  22
DOCKED: ATOM     22  N   UNL     1     140.801  80.380 221.952 -0.12 +0.09    -0.331 N  
DOCKED: ATOM     23  C   UNL     1     142.170  80.911 221.816 -0.35 -0.05    +0.152 C  
DOCKED: ATOM     24  C   UNL     1     140.685  79.489 223.044 -0.40 -0.03    +0.118 C  
DOCKED: ATOM     25  C   UNL     1     142.757  80.620 223.212 -0.53 -0.03    +0.136 C  
DOCKED: ATOM     26  C   UNL     1     142.067  79.342 223.609 -0.57 -0.02    +0.063 C  
DOCKED: BRANCH  24  27
DOCKED: ATOM     27  C   UNL     1     140.106  78.163 222.670 -0.38 +0.01    -0.025 A  
DOCKED: ATOM     28  C   UNL     1     141.038  77.177 222.328 -0.41 -0.00    +0.007 A  
DOCKED: ATOM     29  C   UNL     1     138.749  77.918 222.661 -0.30 -0.00    +0.007 A  
DOCKED: ATOM     30  C   UNL     1     140.535  75.924 221.974 -0.37 -0.00    +0.021 A  
DOCKED: ATOM     31  C   UNL     1     138.253  76.680 222.311 -0.28 -0.00    +0.021 A  
DOCKED: ATOM     32  C   UNL     1     139.158  75.701 221.971 -0.29 -0.01    +0.041 A  
DOCKED: ATOM     33  Cl  UNL     1     138.491  74.130 221.529 -0.24 +0.02    -0.084 Cl 
DOCKED: ENDBRANCH  24  27
DOCKED: BRANCH  25  34
DOCKED: ATOM     34  O   UNL     1     144.135  80.511 223.132 -0.29 +0.10    -0.391 OA 
DOCKED: ATOM     35  H   UNL     1     144.327  79.953 222.327 -0.38 -0.11    +0.211 HD 
DOCKED: ENDBRANCH  25  34
DOCKED: ENDBRANCH  20  22
DOCKED: ENDBRANCH   1  20
DOCKED: TORSDOF 7
DOCKED: TER
DOCKED: ENDMDL
________________________________________________________________________________


    CLUSTERING HISTOGRAM
    ____________________


________________________________________________________________________________
     |           |     |           |     |
Clus | Lowest    | Run | Mean      | Num | Histogram
-ter | Binding   |     | Binding   | in  |
Rank | Energy    |     | Energy    | Clus|    5    10   15   20   25   30   35
_____|___________|_____|___________|_____|____:____|____:____|____:____|____:___
   1 |     -8.09 |   4 |     -8.09 |   1 |#
   2 |     -7.73 |  13 |     -7.63 |   8 |########
   3 |     -7.66 |  14 |     -7.66 |   1 |#
   4 |     -7.54 |   1 |     -7.54 |   1 |#
   5 |     -7.21 |   2 |     -7.16 |   3 |###
   6 |     -7.14 |   7 |     -7.13 |   2 |##
   7 |     -7.13 |   5 |     -7.13 |   1 |#
   8 |     -7.04 |  15 |     -7.04 |   1 |#
   9 |     -6.53 |  10 |     -6.53 |   2 |##
_____|___________|_____|___________|_____|______________________________________


    RMSD TABLE
    __________


_______________________________________________________________________
     |      |      |           |         |                 |
Rank | Sub- | Run  | Binding   | Cluster | Reference       | Grep
     | Rank |      | Energy    | RMSD    | RMSD            | Pattern
_____|______|______|___________|_________|_________________|___________
   1      1      4       -8.09      0.00    270.65           RANKING
   2      1     13       -7.73      0.00    269.58           RANKING
   2      2     17       -7.72      0.24    269.60           RANKING
   2      3      3       -7.69      0.18    269.61           RANKING
   2      4     18       -7.67      0.17    269.59           RANKING
   2      5      6       -7.63      0.20    269.57           RANKING
   2      6     11       -7.61      0.17    269.52           RANKING
   2      7     12       -7.55      0.20    269.58           RANKING
   2      8      8       -7.42      0.34    269.52           RANKING
   3      1     14       -7.66      0.00    269.52           RANKING
   4      1      1       -7.54      0.00    269.42           RANKING
   5      1      2       -7.21      0.00    270.14           RANKING
   5      2     16       -7.14      0.31    270.16           RANKING
   5      3      9       -7.12      0.36    270.21           RANKING
   6      1      7       -7.14      0.00    271.18           RANKING
   6      2     19       -7.12      0.04    271.19           RANKING
   7      1      5       -7.13      0.00    270.85           RANKING
   8      1     15       -7.04      0.00    269.78           RANKING
   9      1     10       -6.53      0.00    269.74           RANKING
   9      2     20       -6.53      0.20    269.75           RANKING

Run time 1.264 sec
Idle time 0.000 sec
