REMARK SMILES O=C(CCCOc1ccc(Cl)cc1Cl)[N-]/N=C/c1cccnc1F
REMARK SMILES IDX 2 1 1 2 15 3 16 4 17 5 18 6 23 7 19 8 22 9 20 10 21 11 24 12
REMARK SMILES IDX 3 13 4 14 5 15 6 16 7 17 8 18 13 19 9 20 12 21 10 22 14 23
REMARK SMILES IDX 11 24
REMARK H PARENT
ROOT
ATOM      1  C   UNL     1      -0.510   0.826  -3.947  1.00  0.00     0.068 C 
ATOM      2  O   UNL     1      -1.104   1.003  -5.043  1.00  0.00    -0.319 OA
ENDROOT
BRANCH   1   3
ATOM      3  N   UNL     1      -0.571   1.852  -2.952  1.00  0.00    -0.545 NA
BRANCH   3   4
ATOM      4  N   UNL     1       0.063   1.716  -1.711  1.00  0.00    -0.372 NA
BRANCH   4   5
ATOM      5  C   UNL     1      -0.133   2.581  -0.767  1.00  0.00     0.099 C 
BRANCH   5   6
ATOM      6  C   UNL     1       0.498   2.411   0.558  1.00  0.00     0.046 A 
ATOM      7  C   UNL     1       0.023   3.131   1.666  1.00  0.00     0.221 A 
ATOM      8  C   UNL     1       1.568   1.520   0.748  1.00  0.00     0.016 A 
ATOM      9  N   UNL     1       0.578   2.943   2.893  1.00  0.00    -0.228 NA
ATOM     10  C   UNL     1       2.123   1.353   2.017  1.00  0.00     0.021 A 
ATOM     11  C   UNL     1       1.604   2.075   3.091  1.00  0.00     0.114 A 
ATOM     12  F   UNL     1      -1.009   4.002   1.533  1.00  0.00    -0.184 F 
ENDBRANCH   5   6
ENDBRANCH   4   5
ENDBRANCH   3   4
ENDBRANCH   1   3
BRANCH   1  13
ATOM     13  C   UNL     1       0.201  -0.477  -3.697  1.00  0.00     0.060 C 
BRANCH  13  14
ATOM     14  C   UNL     1      -0.755  -1.565  -3.178  1.00  0.00     0.048 C 
BRANCH  14  15
ATOM     15  C   UNL     1      -1.256  -1.294  -1.755  1.00  0.00     0.230 C 
BRANCH  15  16
ATOM     16  O   UNL     1      -0.149  -1.271  -0.858  1.00  0.00    -0.492 OA
BRANCH  16  17
ATOM     17  C   UNL     1      -0.200  -1.313   0.547  1.00  0.00     0.137 A 
ATOM     18  C   UNL     1       0.933  -1.827   1.195  1.00  0.00     0.049 A 
ATOM     19  C   UNL     1      -1.286  -0.845   1.335  1.00  0.00     0.084 A 
ATOM     20  C   UNL     1       0.998  -1.891   2.588  1.00  0.00     0.024 A 
ATOM     21  C   UNL     1      -1.207  -0.915   2.733  1.00  0.00     0.045 A 
ATOM     22  C   UNL     1      -0.070  -1.433   3.358  1.00  0.00     0.042 A 
ATOM     23  Cl  UNL     1      -2.723  -0.077   0.674  1.00  0.00    -0.080 Cl
ATOM     24  Cl  UNL     1       0.022  -1.484   5.109  1.00  0.00    -0.084 Cl
ENDBRANCH  16  17
ENDBRANCH  15  16
ENDBRANCH  14  15
ENDBRANCH  13  14
ENDBRANCH   1  13
TORSDOF 9
