REMARK SMILES O=C(CCCOc1ccc(Cl)cc1Cl)[N-]/N=C\c1cccnc1F
REMARK SMILES IDX 2 1 1 2 15 3 16 4 17 5 18 6 23 7 19 8 22 9 20 10 21 11 24 12
REMARK SMILES IDX 3 13 4 14 5 15 6 16 7 17 8 18 13 19 9 20 12 21 10 22 14 23
REMARK SMILES IDX 11 24
REMARK H PARENT
ROOT
ATOM      1  C   UNL     1      -0.035  -2.649   2.024  1.00  0.00     0.068 C 
ATOM      2  O   UNL     1      -0.460  -2.505   3.200  1.00  0.00    -0.319 OA
ENDROOT
BRANCH   1   3
ATOM      3  N   UNL     1       0.786  -1.628   1.452  1.00  0.00    -0.545 NA
BRANCH   3   4
ATOM      4  N   UNL     1       1.242  -1.699   0.128  1.00  0.00    -0.372 NA
BRANCH   4   5
ATOM      5  C   UNL     1       1.953  -0.770  -0.438  1.00  0.00     0.099 C 
BRANCH   5   6
ATOM      6  C   UNL     1       2.356   0.490   0.230  1.00  0.00     0.046 A 
ATOM      7  C   UNL     1       3.623   1.040  -0.034  1.00  0.00     0.221 A 
ATOM      8  C   UNL     1       1.480   1.206   1.064  1.00  0.00     0.016 A 
ATOM      9  N   UNL     1       3.993   2.216   0.541  1.00  0.00    -0.228 NA
ATOM     10  C   UNL     1       1.885   2.411   1.638  1.00  0.00     0.021 A 
ATOM     11  C   UNL     1       3.161   2.903   1.367  1.00  0.00     0.114 A 
ATOM     12  F   UNL     1       4.496   0.400  -0.852  1.00  0.00    -0.184 F 
ENDBRANCH   5   6
ENDBRANCH   4   5
ENDBRANCH   3   4
ENDBRANCH   1   3
BRANCH   1  13
ATOM     13  C   UNL     1      -0.427  -3.875   1.243  1.00  0.00     0.060 C 
BRANCH  13  14
ATOM     14  C   UNL     1      -1.828  -3.751   0.621  1.00  0.00     0.048 C 
BRANCH  14  15
ATOM     15  C   UNL     1      -1.908  -2.668  -0.460  1.00  0.00     0.230 C 
BRANCH  15  16
ATOM     16  O   UNL     1      -1.998  -1.383   0.151  1.00  0.00    -0.492 OA
BRANCH  16  17
ATOM     17  C   UNL     1      -1.938  -0.161  -0.534  1.00  0.00     0.137 A 
ATOM     18  C   UNL     1      -1.693  -0.087  -1.920  1.00  0.00     0.049 A 
ATOM     19  C   UNL     1      -2.114   1.028   0.193  1.00  0.00     0.084 A 
ATOM     20  C   UNL     1      -1.602   1.156  -2.554  1.00  0.00     0.024 A 
ATOM     21  C   UNL     1      -2.021   2.268  -0.447  1.00  0.00     0.045 A 
ATOM     22  C   UNL     1      -1.761   2.333  -1.819  1.00  0.00     0.042 A 
ATOM     23  Cl  UNL     1      -2.442   0.974   1.919  1.00  0.00    -0.080 Cl
ATOM     24  Cl  UNL     1      -1.639   3.890  -2.616  1.00  0.00    -0.084 Cl
ENDBRANCH  16  17
ENDBRANCH  15  16
ENDBRANCH  14  15
ENDBRANCH  13  14
ENDBRANCH   1  13
TORSDOF 9
