REMARK SMILES O=c1c2ccccc2nc(/C=C/c2cccnc2)n1Cc1ccc(Cl)cc1
REMARK SMILES IDX 10 1 9 2 8 3 7 4 6 5 5 6 4 7 3 8 2 9 1 10 19 11 11 12 12 13
REMARK SMILES IDX 13 14 18 15 14 16 17 17 15 18 16 19 20 20 21 21 22 22 27 23
REMARK SMILES IDX 23 24 26 25 24 26 25 27
REMARK H PARENT
ROOT
ATOM      1  C   UNL     1      -0.148   1.173  -1.762  1.00  0.00     0.136 A 
ATOM      2  N   UNL     1      -0.168   2.445  -1.290  1.00  0.00    -0.230 NA
ATOM      3  C   UNL     1      -1.328   3.086  -1.025  1.00  0.00     0.078 A 
ATOM      4  C   UNL     1      -1.307   4.406  -0.565  1.00  0.00     0.029 A 
ATOM      5  C   UNL     1      -2.506   5.072  -0.297  1.00  0.00     0.002 A 
ATOM      6  C   UNL     1      -3.728   4.418  -0.479  1.00  0.00     0.001 A 
ATOM      7  C   UNL     1      -3.756   3.099  -0.935  1.00  0.00     0.016 A 
ATOM      8  C   UNL     1      -2.552   2.423  -1.219  1.00  0.00     0.066 A 
ATOM      9  C   UNL     1      -2.525   1.100  -1.696  1.00  0.00     0.261 A 
ATOM     10  O   UNL     1      -3.613   0.479  -1.862  1.00  0.00    -0.269 OA
ATOM     11  N   UNL     1      -1.325   0.488  -1.977  1.00  0.00    -0.288 N 
ENDROOT
BRANCH   1  12
ATOM     12  C   UNL     1       1.162   0.558  -2.034  1.00  0.00     0.048 C 
BRANCH  12  13
ATOM     13  C   UNL     1       1.992   0.241  -1.047  1.00  0.00     0.013 C 
BRANCH  13  14
ATOM     14  C   UNL     1       3.268  -0.466  -1.265  1.00  0.00    -0.007 A 
ATOM     15  C   UNL     1       4.065  -0.223  -2.393  1.00  0.00     0.119 A 
ATOM     16  C   UNL     1       3.718  -1.388  -0.307  1.00  0.00     0.011 A 
ATOM     17  N   UNL     1       5.249  -0.872  -2.550  1.00  0.00    -0.264 NA
ATOM     18  C   UNL     1       4.925  -2.055  -0.500  1.00  0.00     0.021 A 
ATOM     19  C   UNL     1       5.691  -1.771  -1.629  1.00  0.00     0.111 A 
ENDBRANCH  13  14
ENDBRANCH  12  13
ENDBRANCH   1  12
BRANCH  11  20
ATOM     20  C   UNL     1      -1.299  -0.910  -2.471  1.00  0.00     0.163 C 
BRANCH  20  21
ATOM     21  C   UNL     1      -0.720  -1.845  -1.435  1.00  0.00    -0.028 A 
ATOM     22  C   UNL     1      -1.248  -1.874  -0.133  1.00  0.00     0.007 A 
ATOM     23  C   UNL     1       0.341  -2.708  -1.766  1.00  0.00     0.007 A 
ATOM     24  C   UNL     1      -0.694  -2.725   0.831  1.00  0.00     0.021 A 
ATOM     25  C   UNL     1       0.895  -3.549  -0.798  1.00  0.00     0.021 A 
ATOM     26  C   UNL     1       0.372  -3.565   0.499  1.00  0.00     0.041 A 
ATOM     27  Cl  UNL     1       1.064  -4.614   1.714  1.00  0.00    -0.084 Cl
ENDBRANCH  20  21
ENDBRANCH  11  20
TORSDOF 5
