REMARK SMILES NC(=O)c1ccc2cc(C(=O)N3C[C@]4(CCN([C@H]5CCNC5)C4)c4ccccc43)[nH]c2c1
REMARK SMILES IDX 10 1 11 2 9 3 4 4 5 5 32 6 6 7 31 8 7 9 30 10 8 11 2 13 1 14
REMARK SMILES IDX 3 17 12 18 13 19 29 20 14 21 28 22 24 23 15 24 23 25 27 26
REMARK SMILES IDX 25 27 16 28 17 29 26 30 18 31 19 32 22 33 20 34 21 35
REMARK H PARENT 30 12 1 15 1 16 21 36
ROOT
ATOM      1  C   UNL     1       1.257   0.001   1.697  1.00  0.00     0.274 C 
ATOM      2  O   UNL     1       1.970   0.981   2.042  1.00  0.00    -0.267 OA
ENDROOT
BRANCH   1   3
ATOM      3  C   UNL     1       1.002  -1.081   2.664  1.00  0.00     0.106 A 
ATOM      4  C   UNL     1       0.844  -4.008   6.104  1.00  0.00     0.041 A 
ATOM      5  C   UNL     1      -0.237  -4.519   5.335  1.00  0.00     0.014 A 
ATOM      6  C   UNL     1       1.563  -2.885   5.627  1.00  0.00     0.040 A 
ATOM      7  C   UNL     1      -0.608  -3.916   4.120  1.00  0.00     0.011 A 
ATOM      8  C   UNL     1       1.168  -2.313   4.419  1.00  0.00     0.047 A 
ATOM      9  C   UNL     1       0.121  -2.811   3.694  1.00  0.00     0.000 A 
ATOM     10  N   UNL     1       1.716  -1.252   3.803  1.00  0.00    -0.350 N 
ATOM     11  C   UNL     1      -0.011  -2.034   2.565  1.00  0.00     0.042 A 
ATOM     12  H   UNL     1       2.525  -0.681   4.136  1.00  0.00     0.167 HD
BRANCH   4  13
ATOM     13  C   UNL     1       1.217  -4.668   7.379  1.00  0.00     0.248 C 
ATOM     14  N   UNL     1       1.951  -3.977   8.393  1.00  0.00    -0.366 N 
ATOM     15  H   UNL     1       2.126  -2.950   8.343  1.00  0.00     0.159 HD
ATOM     16  H   UNL     1       2.250  -4.485   9.255  1.00  0.00     0.159 HD
ATOM     17  O   UNL     1       0.870  -5.863   7.587  1.00  0.00    -0.270 OA
ENDBRANCH   4  13
ENDBRANCH   1   3
BRANCH   1  18
ATOM     18  N   UNL     1       0.665  -0.013   0.392  1.00  0.00    -0.306 N 
ATOM     19  C   UNL     1      -0.018   1.132  -0.205  1.00  0.00     0.139 C 
ATOM     20  C   UNL     1       0.685  -1.084  -0.540  1.00  0.00     0.048 A 
ATOM     21  C   UNL     1      -0.558   0.629  -1.590  1.00  0.00     0.029 C 
ATOM     22  C   UNL     1       1.353  -2.307  -0.409  1.00  0.00     0.026 A 
ATOM     23  C   UNL     1      -0.003  -0.766  -1.683  1.00  0.00    -0.015 A 
ATOM     24  C   UNL     1      -2.076   0.658  -1.657  1.00  0.00     0.030 C 
ATOM     25  C   UNL     1      -0.135   1.539  -2.753  1.00  0.00     0.098 C 
ATOM     26  C   UNL     1       1.264  -3.235  -1.457  1.00  0.00     0.002 A 
ATOM     27  C   UNL     1      -0.106  -1.680  -2.739  1.00  0.00     0.006 A 
ATOM     28  C   UNL     1      -2.369   2.059  -2.154  1.00  0.00     0.086 C 
ATOM     29  N   UNL     1      -1.258   2.454  -3.042  1.00  0.00    -0.298 NA
ATOM     30  C   UNL     1       0.531  -2.925  -2.617  1.00  0.00     0.000 A 
BRANCH  29  31
ATOM     31  C   UNL     1      -0.888   3.881  -2.880  1.00  0.00     0.071 C 
ATOM     32  C   UNL     1       0.151   4.316  -3.902  1.00  0.00     0.036 C 
ATOM     33  C   UNL     1      -2.056   4.815  -3.180  1.00  0.00     0.100 C 
ATOM     34  C   UNL     1      -0.174   5.772  -4.205  1.00  0.00     0.082 C 
ATOM     35  N   UNL     1      -1.503   6.076  -3.669  1.00  0.00    -0.315 NA
ATOM     36  H   UNL     1      -1.386   6.715  -2.848  1.00  0.00     0.122 HD
ENDBRANCH  29  31
ENDBRANCH   1  18
TORSDOF 4
