REMARK SMILES [N-]=C(O)c1ccc2cc(C(=O)N3C[C@]4(CCN([C@@H]5CCNC5)C4)c4ccccc43)[nH]c2c1
REMARK SMILES IDX 4 1 5 2 6 3 7 4 8 5 9 6 30 7 31 8 32 9 2 11 1 12 3 13 10 15
REMARK SMILES IDX 11 16 12 17 13 18 29 19 14 20 28 21 24 22 15 23 23 24 27 25
REMARK SMILES IDX 25 26 16 27 17 28 26 29 18 30 19 31 22 32 20 33 21 34
REMARK H PARENT 30 10 3 14 21 35
ROOT
ATOM      1  C   UNL     1      -0.755  -5.272   2.516  1.00  0.00    -0.006 A 
ATOM      2  C   UNL     1      -1.430  -4.282   3.282  1.00  0.00     0.010 A 
ATOM      3  C   UNL     1      -1.808  -3.057   2.704  1.00  0.00     0.011 A 
ATOM      4  C   UNL     1      -1.496  -2.845   1.365  1.00  0.00     0.000 A 
ATOM      5  C   UNL     1      -1.743  -1.764   0.549  1.00  0.00     0.042 A 
ATOM      6  C   UNL     1      -1.205  -2.117  -0.689  1.00  0.00     0.106 A 
ATOM      7  N   UNL     1      -0.670  -3.360  -0.643  1.00  0.00    -0.350 N 
ATOM      8  C   UNL     1      -0.849  -3.789   0.617  1.00  0.00     0.047 A 
ATOM      9  C   UNL     1      -0.464  -5.016   1.155  1.00  0.00     0.036 A 
ATOM     10  H   UNL     1      -0.209  -3.880  -1.423  1.00  0.00     0.167 HD
ENDROOT
BRANCH   1  11
ATOM     11  C   UNL     1      -0.356  -6.564   3.123  1.00  0.00    -0.000 C 
ATOM     12  N   UNL     1      -0.583  -6.801   4.375  1.00  0.00    -0.771 NA
BRANCH  11  13
ATOM     13  O   UNL     1       0.262  -7.540   2.345  1.00  0.00    -0.532 OA
ATOM     14  H   UNL     1       0.542  -8.429   2.744  1.00  0.00     0.290 HD
ENDBRANCH  11  13
ENDBRANCH   1  11
BRANCH   6  15
ATOM     15  C   UNL     1      -1.238  -1.296  -1.914  1.00  0.00     0.274 C 
ATOM     16  O   UNL     1      -1.093  -1.867  -3.029  1.00  0.00    -0.267 OA
BRANCH  15  17
ATOM     17  N   UNL     1      -1.389   0.134  -1.860  1.00  0.00    -0.306 N 
ATOM     18  C   UNL     1      -0.699   0.987  -0.887  1.00  0.00     0.139 C 
ATOM     19  C   UNL     1      -1.801   0.947  -2.949  1.00  0.00     0.048 A 
ATOM     20  C   UNL     1      -0.538   2.389  -1.570  1.00  0.00     0.029 C 
ATOM     21  C   UNL     1      -2.596   0.557  -4.034  1.00  0.00     0.026 A 
ATOM     22  C   UNL     1      -1.366   2.240  -2.815  1.00  0.00    -0.015 A 
ATOM     23  C   UNL     1      -0.996   3.556  -0.683  1.00  0.00     0.030 C 
ATOM     24  C   UNL     1       0.931   2.711  -1.908  1.00  0.00     0.098 C 
ATOM     25  C   UNL     1      -2.917   1.515  -5.009  1.00  0.00     0.002 A 
ATOM     26  C   UNL     1      -1.669   3.208  -3.780  1.00  0.00     0.006 A 
ATOM     27  C   UNL     1       0.197   4.499  -0.637  1.00  0.00     0.086 C 
ATOM     28  N   UNL     1       1.407   3.716  -0.941  1.00  0.00    -0.298 NA
ATOM     29  C   UNL     1      -2.451   2.836  -4.884  1.00  0.00     0.000 A 
BRANCH  28  30
ATOM     30  C   UNL     1       1.985   3.090   0.281  1.00  0.00     0.071 C 
ATOM     31  C   UNL     1       2.519   4.127   1.256  1.00  0.00     0.036 C 
ATOM     32  C   UNL     1       3.232   2.254  -0.025  1.00  0.00     0.100 C 
ATOM     33  C   UNL     1       3.657   3.429   1.974  1.00  0.00     0.082 C 
ATOM     34  N   UNL     1       4.150   2.357   1.110  1.00  0.00    -0.315 NA
ATOM     35  H   UNL     1       5.099   2.622   0.752  1.00  0.00     0.122 HD
ENDBRANCH  28  30
ENDBRANCH  15  17
ENDBRANCH   6  15
TORSDOF 5
