REMARK SMILES CC[NH2+][C@H]1CN(c2nc(N3CCc4ccccc4C3)nc(N3CCc4ccccc4C3)n2)CCO1
REMARK SMILES IDX 4 1 5 2 6 3 33 4 34 5 35 6 3 7 2 10 1 11 7 12 8 13 32 14
REMARK SMILES IDX 9 15 21 16 20 17 10 18 11 19 19 20 12 21 18 22 13 23 17 24
REMARK SMILES IDX 14 25 16 26 15 27 22 28 23 29 31 30 24 31 30 32 25 33 29 34
REMARK SMILES IDX 26 35 28 36 27 37
REMARK H PARENT 3 8 3 9
ROOT
ATOM      1  C   UNL     1       4.492  -0.045   1.415  1.00  0.00     0.340 C 
ATOM      2  C   UNL     1       3.168   0.549   0.890  1.00  0.00     0.217 C 
ATOM      3  N   UNL     1       2.330  -0.522   0.340  1.00  0.00    -0.330 N 
ATOM      4  C   UNL     1       2.982  -1.525  -0.510  1.00  0.00     0.148 C 
ATOM      5  C   UNL     1       4.321  -1.953   0.100  1.00  0.00     0.188 C 
ATOM      6  O   UNL     1       5.121  -0.827   0.410  1.00  0.00    -0.326 OA
ENDROOT
BRANCH   1   7
ATOM      7  N   UNL     1       5.418   0.997   1.907  1.00  0.00    -0.320 N 
ATOM      8  H   UNL     1       4.927   1.589   2.617  1.00  0.00     0.348 HD
ATOM      9  H   UNL     1       6.211   0.511   2.389  1.00  0.00     0.348 HD
BRANCH   7  10
ATOM     10  C   UNL     1       5.960   1.865   0.844  1.00  0.00     0.259 C 
ATOM     11  C   UNL     1       7.076   2.757   1.386  1.00  0.00     0.071 C 
ENDBRANCH   7  10
ENDBRANCH   1   7
BRANCH   3  12
ATOM     12  C   UNL     1       0.899  -0.354   0.274  1.00  0.00     0.232 A 
ATOM     13  N   UNL     1       0.336   0.853   0.543  1.00  0.00    -0.176 NA
ATOM     14  N   UNL     1       0.101  -1.395  -0.075  1.00  0.00    -0.176 NA
ATOM     15  C   UNL     1      -1.008   1.030   0.452  1.00  0.00     0.232 A 
ATOM     16  C   UNL     1      -1.247  -1.243  -0.158  1.00  0.00     0.232 A 
ATOM     17  N   UNL     1      -1.792  -0.024   0.100  1.00  0.00    -0.176 NA
BRANCH  15  18
ATOM     18  N   UNL     1      -1.597   2.320   0.721  1.00  0.00    -0.336 N 
ATOM     19  C   UNL     1      -2.947   2.654   0.258  1.00  0.00     0.125 C 
ATOM     20  C   UNL     1      -0.798   3.443   1.229  1.00  0.00     0.155 C 
ATOM     21  C   UNL     1      -2.840   3.580  -0.955  1.00  0.00     0.057 C 
ATOM     22  C   UNL     1      -0.813   4.584   0.243  1.00  0.00    -0.025 A 
ATOM     23  C   UNL     1      -1.823   4.683  -0.747  1.00  0.00    -0.041 A 
ATOM     24  C   UNL     1       0.138   5.610   0.366  1.00  0.00     0.006 A 
ATOM     25  C   UNL     1      -1.825   5.782  -1.621  1.00  0.00     0.004 A 
ATOM     26  C   UNL     1       0.113   6.704  -0.503  1.00  0.00     0.000 A 
ATOM     27  C   UNL     1      -0.864   6.788  -1.497  1.00  0.00     0.000 A 
ENDBRANCH  15  18
BRANCH  16  28
ATOM     28  N   UNL     1      -2.093  -2.361  -0.505  1.00  0.00    -0.336 N 
ATOM     29  C   UNL     1      -1.523  -3.698  -0.724  1.00  0.00     0.125 C 
ATOM     30  C   UNL     1      -3.504  -2.128  -0.857  1.00  0.00     0.155 C 
ATOM     31  C   UNL     1      -2.355  -4.735   0.022  1.00  0.00     0.057 C 
ATOM     32  C   UNL     1      -4.359  -3.367  -0.716  1.00  0.00    -0.025 A 
ATOM     33  C   UNL     1      -3.812  -4.611  -0.328  1.00  0.00    -0.041 A 
ATOM     34  C   UNL     1      -5.733  -3.277  -0.995  1.00  0.00     0.006 A 
ATOM     35  C   UNL     1      -4.652  -5.728  -0.192  1.00  0.00     0.004 A 
ATOM     36  C   UNL     1      -6.555  -4.400  -0.872  1.00  0.00     0.000 A 
ATOM     37  C   UNL     1      -6.016  -5.623  -0.470  1.00  0.00     0.000 A 
ENDBRANCH  16  28
ENDBRANCH   3  12
TORSDOF 5
