REMARK SMILES [H]/N=c1\[n-]c2nc3ccccn3c(=O)c2cc1/C(O)=N\[C@@H](C)c1ccccc1
REMARK SMILES IDX 18 1 17 2 3 3 4 4 5 5 16 6 6 7 15 8 7 9 13 10 8 11 12 12
REMARK SMILES IDX 9 13 11 14 10 15 14 16 2 17 1 18 20 19 21 20 22 21 23 22
REMARK SMILES IDX 24 23 28 24 25 25 27 26 26 27 19 28
REMARK H PARENT 19 29
ROOT
ATOM      1  C   UNL     1       2.028   1.542  -0.917  1.00  0.00     0.215 C 
ENDROOT
BRANCH   1   2
ATOM      2  C   UNL     1       1.436   0.190  -0.972  1.00  0.00     0.049 A 
ATOM      3  C   UNL     1       2.235  -0.967  -1.045  1.00  0.00     0.015 A 
ATOM      4  N   UNL     1       1.648  -2.195  -1.010  1.00  0.00    -0.357 NA
ATOM      5  C   UNL     1       0.303  -2.349  -0.905  1.00  0.00     0.025 A 
ATOM      6  C   UNL     1       0.045   0.053  -0.898  1.00  0.00     0.029 A 
ATOM      7  N   UNL     1      -0.231  -3.591  -0.848  1.00  0.00    -0.345 NA
ATOM      8  C   UNL     1      -0.535  -1.224  -0.845  1.00  0.00     0.054 A 
ATOM      9  C   UNL     1      -1.570  -3.781  -0.728  1.00  0.00     0.069 A 
ATOM     10  C   UNL     1      -1.920  -1.425  -0.717  1.00  0.00     0.263 A 
ATOM     11  C   UNL     1      -2.067  -5.087  -0.671  1.00  0.00     0.030 A 
ATOM     12  N   UNL     1      -2.427  -2.701  -0.659  1.00  0.00    -0.281 N 
ATOM     13  C   UNL     1      -3.437  -5.297  -0.543  1.00  0.00     0.004 A 
ATOM     14  C   UNL     1      -3.778  -2.912  -0.532  1.00  0.00     0.095 A 
ATOM     15  C   UNL     1      -4.299  -4.206  -0.472  1.00  0.00     0.019 A 
ATOM     16  O   UNL     1      -2.691  -0.425  -0.651  1.00  0.00    -0.268 OA
BRANCH   3  17
ATOM     17  N   UNL     1       3.523  -0.873  -1.142  1.00  0.00    -0.412 NA
ATOM     18  H   UNL     1       4.131  -1.721  -1.194  1.00  0.00     0.076 HD
ENDBRANCH   3  17
ENDBRANCH   1   2
BRANCH   1  19
ATOM     19  N   UNL     1       2.551   2.023   0.177  1.00  0.00    -0.243 NA
BRANCH  19  20
ATOM     20  C   UNL     1       2.643   1.328   1.468  1.00  0.00     0.136 C 
ATOM     21  C   UNL     1       3.414   2.200   2.458  1.00  0.00     0.038 C 
BRANCH  20  22
ATOM     22  C   UNL     1       1.267   1.002   2.013  1.00  0.00    -0.024 A 
ATOM     23  C   UNL     1       0.268   1.991   2.087  1.00  0.00     0.006 A 
ATOM     24  C   UNL     1       0.961  -0.310   2.418  1.00  0.00     0.006 A 
ATOM     25  C   UNL     1      -1.015   1.666   2.537  1.00  0.00     0.000 A 
ATOM     26  C   UNL     1      -0.324  -0.630   2.864  1.00  0.00     0.000 A 
ATOM     27  C   UNL     1      -1.312   0.356   2.921  1.00  0.00     0.000 A 
ENDBRANCH  20  22
ENDBRANCH  19  20
ENDBRANCH   1  19
BRANCH   1  28
ATOM     28  O   UNL     1       1.992   2.331  -2.062  1.00  0.00    -0.493 OA
ATOM     29  H   UNL     1       2.376   3.268  -2.063  1.00  0.00     0.295 HD
ENDBRANCH   1  28
TORSDOF 6
