REMARK SMILES [H]/N=c1\[n-]c2nc3ccccn3c(=O)c2cc1/C(O)=N/[C@@H](C)c1ccccc1
REMARK SMILES IDX 18 1 17 2 3 3 4 4 5 5 16 6 6 7 15 8 7 9 13 10 8 11 12 12
REMARK SMILES IDX 9 13 11 14 10 15 14 16 2 17 1 18 20 19 21 20 22 21 23 22
REMARK SMILES IDX 24 23 28 24 25 25 27 26 26 27 19 28
REMARK H PARENT 19 29
ROOT
ATOM      1  C   UNL     1       0.224   0.516  -1.721  1.00  0.00     0.215 C 
ENDROOT
BRANCH   1   2
ATOM      2  C   UNL     1      -0.395   0.532  -0.365  1.00  0.00     0.049 A 
ATOM      3  C   UNL     1      -1.012   1.689   0.171  1.00  0.00     0.015 A 
ATOM      4  N   UNL     1      -1.553   1.654   1.419  1.00  0.00    -0.357 NA
ATOM      5  C   UNL     1      -1.529   0.539   2.191  1.00  0.00     0.025 A 
ATOM      6  C   UNL     1      -0.371  -0.633   0.427  1.00  0.00     0.029 A 
ATOM      7  N   UNL     1      -2.082   0.563   3.426  1.00  0.00    -0.345 NA
ATOM      8  C   UNL     1      -0.938  -0.637   1.712  1.00  0.00     0.054 A 
ATOM      9  C   UNL     1      -2.077  -0.535   4.225  1.00  0.00     0.069 A 
ATOM     10  C   UNL     1      -0.934  -1.773   2.542  1.00  0.00     0.263 A 
ATOM     11  C   UNL     1      -2.662  -0.454   5.493  1.00  0.00     0.030 A 
ATOM     12  N   UNL     1      -1.504  -1.713   3.792  1.00  0.00    -0.281 N 
ATOM     13  C   UNL     1      -2.665  -1.572   6.323  1.00  0.00     0.004 A 
ATOM     14  C   UNL     1      -1.508  -2.814   4.612  1.00  0.00     0.095 A 
ATOM     15  C   UNL     1      -2.086  -2.758   5.883  1.00  0.00     0.019 A 
ATOM     16  O   UNL     1      -0.405  -2.844   2.129  1.00  0.00    -0.268 OA
BRANCH   3  17
ATOM     17  N   UNL     1      -1.088   2.784  -0.517  1.00  0.00    -0.412 NA
ATOM     18  H   UNL     1      -1.546   3.642  -0.134  1.00  0.00     0.076 HD
ENDBRANCH   3  17
ENDBRANCH   1   2
BRANCH   1  19
ATOM     19  N   UNL     1       0.470  -0.633  -2.292  1.00  0.00    -0.243 NA
BRANCH  19  20
ATOM     20  C   UNL     1       1.062  -0.900  -3.609  1.00  0.00     0.136 C 
ATOM     21  C   UNL     1       0.079  -0.525  -4.729  1.00  0.00     0.038 C 
BRANCH  20  22
ATOM     22  C   UNL     1       2.465  -0.315  -3.720  1.00  0.00    -0.024 A 
ATOM     23  C   UNL     1       2.872   0.502  -4.797  1.00  0.00     0.006 A 
ATOM     24  C   UNL     1       3.408  -0.638  -2.727  1.00  0.00     0.006 A 
ATOM     25  C   UNL     1       4.178   0.997  -4.857  1.00  0.00     0.000 A 
ATOM     26  C   UNL     1       4.713  -0.140  -2.792  1.00  0.00     0.000 A 
ATOM     27  C   UNL     1       5.097   0.678  -3.855  1.00  0.00     0.000 A 
ENDBRANCH  20  22
ENDBRANCH  19  20
ENDBRANCH   1  19
BRANCH   1  28
ATOM     28  O   UNL     1       0.539   1.728  -2.342  1.00  0.00    -0.493 OA
ATOM     29  H   UNL     1       0.988   1.805  -3.242  1.00  0.00     0.295 HD
ENDBRANCH   1  28
TORSDOF 6
