REMARK SMILES O/C(=C\CCOc1ccc(Cl)cc1Cl)[N-]/N=C/c1cccc(C(F)(F)F)c1
REMARK SMILES IDX 2 1 1 2 15 4 16 5 17 6 18 7 19 8 27 9 20 10 22 11 21 12
REMARK SMILES IDX 23 13 24 14 25 15 26 16 3 17 4 18 5 19 6 20 7 21 8 22 13 23
REMARK SMILES IDX 9 24 12 25 10 26 14 27 11 28
REMARK H PARENT 1 3
ROOT
ATOM      1  C   UNL     1       1.070   0.014  -2.193  1.00  0.00     0.023 C 
ENDROOT
BRANCH   1   2
ATOM      2  O   UNL     1      -0.081   0.008  -1.403  1.00  0.00    -0.530 OA
ATOM      3  H   UNL     1      -0.590   0.857  -1.194  1.00  0.00     0.290 HD
ENDBRANCH   1   2
BRANCH   1   4
ATOM      4  N   UNL     1       1.653   1.250  -2.631  1.00  0.00    -0.546 NA
BRANCH   4   5
ATOM      5  N   UNL     1       1.526   2.478  -1.956  1.00  0.00    -0.372 NA
BRANCH   5   6
ATOM      6  C   UNL     1       1.416   2.575  -0.666  1.00  0.00     0.094 C 
BRANCH   6   7
ATOM      7  C   UNL     1       1.265   3.891  -0.011  1.00  0.00    -0.009 A 
ATOM      8  C   UNL     1       1.214   5.080  -0.759  1.00  0.00     0.009 A 
ATOM      9  C   UNL     1       1.162   3.956   1.388  1.00  0.00     0.022 A 
ATOM     10  C   UNL     1       1.055   6.309  -0.117  1.00  0.00     0.001 A 
ATOM     11  C   UNL     1       1.029   5.194   2.043  1.00  0.00     0.056 A 
ATOM     12  C   UNL     1       0.953   6.368   1.275  1.00  0.00     0.013 A 
BRANCH  11  13
ATOM     13  C   UNL     1       0.869   5.250   3.542  1.00  0.00     0.416 C 
ATOM     14  F   UNL     1       1.584   4.230   4.146  1.00  0.00    -0.166 F 
ATOM     15  F   UNL     1       1.332   6.455   4.040  1.00  0.00    -0.166 F 
ATOM     16  F   UNL     1      -0.468   5.114   3.862  1.00  0.00    -0.166 F 
ENDBRANCH  11  13
ENDBRANCH   6   7
ENDBRANCH   5   6
ENDBRANCH   4   5
ENDBRANCH   1   4
BRANCH   1  17
ATOM     17  C   UNL     1       1.625  -1.138  -2.580  1.00  0.00    -0.001 C 
BRANCH  17  18
ATOM     18  C   UNL     1       1.078  -2.478  -2.176  1.00  0.00     0.071 C 
BRANCH  18  19
ATOM     19  C   UNL     1      -0.185  -2.824  -2.971  1.00  0.00     0.234 C 
BRANCH  19  20
ATOM     20  O   UNL     1      -0.672  -4.114  -2.601  1.00  0.00    -0.492 OA
BRANCH  20  21
ATOM     21  C   UNL     1      -1.357  -4.421  -1.413  1.00  0.00     0.137 A 
ATOM     22  C   UNL     1      -1.747  -3.432  -0.486  1.00  0.00     0.049 A 
ATOM     23  C   UNL     1      -1.669  -5.765  -1.146  1.00  0.00     0.084 A 
ATOM     24  C   UNL     1      -2.427  -3.787   0.682  1.00  0.00     0.024 A 
ATOM     25  C   UNL     1      -2.351  -6.114   0.025  1.00  0.00     0.045 A 
ATOM     26  C   UNL     1      -2.729  -5.127   0.939  1.00  0.00     0.042 A 
ATOM     27  Cl  UNL     1      -1.205  -7.028  -2.276  1.00  0.00    -0.080 Cl
ATOM     28  Cl  UNL     1      -3.584  -5.568   2.406  1.00  0.00    -0.084 Cl
ENDBRANCH  20  21
ENDBRANCH  19  20
ENDBRANCH  18  19
ENDBRANCH  17  18
ENDBRANCH   1  17
TORSDOF 11
