REMARK SMILES O/C(=C\CCOc1ccc(Cl)cc1Cl)[N-]/N=C\c1cccc(C(F)(F)F)c1
REMARK SMILES IDX 2 1 1 2 15 4 16 5 17 6 18 7 19 8 27 9 20 10 22 11 21 12
REMARK SMILES IDX 23 13 24 14 25 15 26 16 3 17 4 18 5 19 6 20 7 21 8 22 13 23
REMARK SMILES IDX 9 24 12 25 10 26 14 27 11 28
REMARK H PARENT 1 3
ROOT
ATOM      1  C   UNL     1      -1.040  -0.573  -0.306  1.00  0.00     0.023 C 
ENDROOT
BRANCH   1   2
ATOM      2  O   UNL     1      -1.540   0.710  -0.094  1.00  0.00    -0.530 OA
ATOM      3  H   UNL     1      -1.800   1.018   0.835  1.00  0.00     0.290 HD
ENDBRANCH   1   2
BRANCH   1   4
ATOM      4  N   UNL     1      -0.901  -1.453   0.816  1.00  0.00    -0.546 NA
BRANCH   4   5
ATOM      5  N   UNL     1      -0.381  -2.750   0.701  1.00  0.00    -0.372 NA
BRANCH   5   6
ATOM      6  C   UNL     1      -0.242  -3.551   1.715  1.00  0.00     0.094 C 
BRANCH   6   7
ATOM      7  C   UNL     1      -0.600  -3.184   3.105  1.00  0.00    -0.009 A 
ATOM      8  C   UNL     1      -1.221  -4.141   3.919  1.00  0.00     0.009 A 
ATOM      9  C   UNL     1      -0.260  -1.932   3.651  1.00  0.00     0.022 A 
ATOM     10  C   UNL     1      -1.536  -3.842   5.246  1.00  0.00     0.001 A 
ATOM     11  C   UNL     1      -0.594  -1.617   4.981  1.00  0.00     0.056 A 
ATOM     12  C   UNL     1      -1.224  -2.588   5.776  1.00  0.00     0.013 A 
BRANCH  11  13
ATOM     13  C   UNL     1      -0.205  -0.291   5.588  1.00  0.00     0.416 C 
ATOM     14  F   UNL     1      -1.222   0.175   6.401  1.00  0.00    -0.166 F 
ATOM     15  F   UNL     1       0.038   0.658   4.610  1.00  0.00    -0.166 F 
ATOM     16  F   UNL     1       0.940  -0.456   6.346  1.00  0.00    -0.166 F 
ENDBRANCH  11  13
ENDBRANCH   6   7
ENDBRANCH   5   6
ENDBRANCH   4   5
ENDBRANCH   1   4
BRANCH   1  17
ATOM     17  C   UNL     1      -0.696  -0.959  -1.543  1.00  0.00    -0.001 C 
BRANCH  17  18
ATOM     18  C   UNL     1      -0.833  -0.035  -2.721  1.00  0.00     0.071 C 
BRANCH  18  19
ATOM     19  C   UNL     1      -0.375  -0.711  -4.016  1.00  0.00     0.234 C 
BRANCH  19  20
ATOM     20  O   UNL     1      -0.538   0.171  -5.126  1.00  0.00    -0.492 OA
BRANCH  20  21
ATOM     21  C   UNL     1       0.274   1.281  -5.418  1.00  0.00     0.137 A 
ATOM     22  C   UNL     1       1.469   1.549  -4.718  1.00  0.00     0.049 A 
ATOM     23  C   UNL     1      -0.121   2.148  -6.451  1.00  0.00     0.084 A 
ATOM     24  C   UNL     1       2.246   2.663  -5.050  1.00  0.00     0.024 A 
ATOM     25  C   UNL     1       0.661   3.262  -6.777  1.00  0.00     0.045 A 
ATOM     26  C   UNL     1       1.844   3.519  -6.079  1.00  0.00     0.042 A 
ATOM     27  Cl  UNL     1      -1.607   1.854  -7.343  1.00  0.00    -0.080 Cl
ATOM     28  Cl  UNL     1       2.824   4.914  -6.494  1.00  0.00    -0.084 Cl
ENDBRANCH  20  21
ENDBRANCH  19  20
ENDBRANCH  18  19
ENDBRANCH  17  18
ENDBRANCH   1  17
TORSDOF 11
