REMARK SMILES COc1ccc([C@H](C)NC(=O)[C@@H]2C[C@@H](O)C/[N+]2=C(\O)CNC(=O)c2ccc3cc(F)ccc3n2)c(Cl)c1
REMARK SMILES IDX 17 1 16 2 14 3 13 4 12 5 18 6 19 7 20 9 21 10 22 11 23 13
REMARK SMILES IDX 24 14 34 15 25 16 33 17 26 18 32 19 27 20 31 21 28 22 29 23
REMARK SMILES IDX 30 24 10 25 9 26 11 27 7 29 8 30 6 31 5 32 35 33 4 34 37 35
REMARK SMILES IDX 3 36 36 37 2 38 1 39 15 40
REMARK H PARENT 19 8 21 12 9 28 15 41
ROOT
ATOM      1  N   UNL     1      -2.673   2.109  -1.419  1.00  0.00    -0.186 N 
ATOM      2  C   UNL     1      -3.406   2.583  -2.591  1.00  0.00     0.386 C 
ATOM      3  C   UNL     1      -2.930   1.743  -3.775  1.00  0.00     0.186 C 
ATOM      4  C   UNL     1      -1.592   1.166  -3.337  1.00  0.00     0.125 C 
ATOM      5  C   UNL     1      -1.636   1.142  -1.808  1.00  0.00     0.355 C 
ENDROOT
BRANCH   1   6
ATOM      6  C   UNL     1      -3.013   2.447  -0.188  1.00  0.00     0.354 C 
BRANCH   6   7
ATOM      7  O   UNL     1      -4.031   3.378   0.050  1.00  0.00    -0.462 OA
ATOM      8  H   UNL     1      -4.513   3.886  -0.680  1.00  0.00     0.299 HD
ENDBRANCH   6   7
BRANCH   6   9
ATOM      9  C   UNL     1      -2.320   1.908   1.040  1.00  0.00     0.269 C 
BRANCH   9  10
ATOM     10  N   UNL     1      -2.306   0.449   1.066  1.00  0.00    -0.337 N 
ATOM     11  C   UNL     1      -1.256  -0.265   1.735  1.00  0.00     0.270 C 
ATOM     12  H   UNL     1      -3.072  -0.083   0.592  1.00  0.00     0.164 HD
ATOM     13  O   UNL     1      -0.609   0.296   2.663  1.00  0.00    -0.268 OA
BRANCH  11  14
ATOM     14  C   UNL     1      -0.896  -1.630   1.305  1.00  0.00     0.128 A 
ATOM     15  N   UNL     1      -1.549  -2.194   0.250  1.00  0.00    -0.243 NA
ATOM     16  C   UNL     1       0.152  -2.332   1.923  1.00  0.00     0.035 A 
ATOM     17  C   UNL     1      -1.219  -3.420  -0.234  1.00  0.00     0.071 A 
ATOM     18  C   UNL     1       0.513  -3.594   1.449  1.00  0.00     0.013 A 
ATOM     19  C   UNL     1      -1.914  -3.957  -1.323  1.00  0.00     0.032 A 
ATOM     20  C   UNL     1      -0.166  -4.150   0.358  1.00  0.00     0.003 A 
ATOM     21  C   UNL     1      -1.561  -5.212  -1.827  1.00  0.00     0.041 A 
ATOM     22  C   UNL     1       0.178  -5.411  -0.152  1.00  0.00     0.049 A 
ATOM     23  C   UNL     1      -0.520  -5.939  -1.243  1.00  0.00     0.123 A 
ATOM     24  F   UNL     1      -0.183  -7.155  -1.739  1.00  0.00    -0.207 F 
ENDBRANCH  11  14
ENDBRANCH   9  10
ENDBRANCH   6   9
ENDBRANCH   1   6
BRANCH   5  25
ATOM     25  C   UNL     1      -0.270   1.455  -1.251  1.00  0.00     0.289 C 
ATOM     26  N   UNL     1       0.219   2.806  -1.196  1.00  0.00    -0.344 N 
ATOM     27  O   UNL     1       0.467   0.502  -0.880  1.00  0.00    -0.267 OA
ATOM     28  H   UNL     1      -0.418   3.581  -1.489  1.00  0.00     0.164 HD
BRANCH  26  29
ATOM     29  C   UNL     1       1.623   3.098  -0.885  1.00  0.00     0.111 C 
ATOM     30  C   UNL     1       1.949   4.569  -1.175  1.00  0.00     0.036 C 
BRANCH  29  31
ATOM     31  C   UNL     1       1.928   2.751   0.565  1.00  0.00    -0.007 A 
ATOM     32  C   UNL     1       1.209   3.391   1.592  1.00  0.00     0.011 A 
ATOM     33  C   UNL     1       2.897   1.781   0.918  1.00  0.00     0.049 A 
ATOM     34  C   UNL     1       1.437   3.074   2.932  1.00  0.00     0.047 A 
ATOM     35  C   UNL     1       3.120   1.473   2.265  1.00  0.00     0.067 A 
ATOM     36  C   UNL     1       2.398   2.108   3.278  1.00  0.00     0.120 A 
ATOM     37  Cl  UNL     1       3.853   0.913  -0.282  1.00  0.00    -0.084 Cl
BRANCH  36  38
ATOM     38  O   UNL     1       2.663   1.751   4.609  1.00  0.00    -0.497 OA
ATOM     39  C   UNL     1       1.987   2.295   5.737  1.00  0.00     0.278 C 
ENDBRANCH  36  38
ENDBRANCH  29  31
ENDBRANCH  26  29
ENDBRANCH   5  25
BRANCH   3  40
ATOM     40  O   UNL     1      -3.831   0.694  -4.023  1.00  0.00    -0.386 OA
ATOM     41  H   UNL     1      -4.584   1.082  -4.542  1.00  0.00     0.211 HD
ENDBRANCH   3  40
TORSDOF 10
