REMARK SMILES COc1ccc([C@H](C)/N=C(\O)[C@@H]2C[C@@H](O)CN2C(=O)C[N-]C(=O)c2ccc3cc(F)ccc3n2)c(Cl)c1
REMARK SMILES IDX 12 1 17 2 16 3 14 4 13 5 10 6 11 7 9 9 7 10 8 11 6 12 5 13
REMARK SMILES IDX 35 14 4 15 37 16 3 17 36 18 2 19 1 20 18 21 19 22 20 23
REMARK SMILES IDX 21 24 22 25 23 26 24 27 34 28 25 29 33 30 26 31 32 32 27 33
REMARK SMILES IDX 31 34 28 35 29 36 30 37 15 38
REMARK H PARENT 11 8 15 39
ROOT
ATOM      1  C   UNL     1      -0.061  -0.496  -1.955  1.00  0.00     0.173 C 
ATOM      2  N   UNL     1       0.159  -0.454  -0.512  1.00  0.00    -0.329 N 
ATOM      3  C   UNL     1      -0.248  -1.682   0.152  1.00  0.00     0.152 C 
ATOM      4  C   UNL     1      -0.553  -2.676  -0.968  1.00  0.00     0.136 C 
ATOM      5  C   UNL     1      -0.758  -1.832  -2.230  1.00  0.00     0.068 C 
ENDROOT
BRANCH   1   6
ATOM      6  C   UNL     1      -0.903   0.663  -2.418  1.00  0.00     0.205 C 
BRANCH   6   7
ATOM      7  O   UNL     1      -0.665   1.179  -3.692  1.00  0.00    -0.495 OA
ATOM      8  H   UNL     1      -1.173   1.952  -4.092  1.00  0.00     0.295 HD
ENDBRANCH   6   7
BRANCH   6   9
ATOM      9  N   UNL     1      -1.839   1.124  -1.636  1.00  0.00    -0.246 NA
BRANCH   9  10
ATOM     10  C   UNL     1      -2.782   2.223  -1.865  1.00  0.00     0.137 C 
ATOM     11  C   UNL     1      -2.053   3.576  -1.828  1.00  0.00     0.039 C 
BRANCH  10  12
ATOM     12  C   UNL     1      -3.674   1.957  -3.077  1.00  0.00    -0.005 A 
ATOM     13  C   UNL     1      -3.692   2.820  -4.192  1.00  0.00     0.011 A 
ATOM     14  C   UNL     1      -4.530   0.829  -3.088  1.00  0.00     0.050 A 
ATOM     15  C   UNL     1      -4.515   2.556  -5.288  1.00  0.00     0.047 A 
ATOM     16  C   UNL     1      -5.355   0.577  -4.191  1.00  0.00     0.067 A 
ATOM     17  C   UNL     1      -5.348   1.437  -5.301  1.00  0.00     0.120 A 
ATOM     18  Cl  UNL     1      -4.617  -0.284  -1.728  1.00  0.00    -0.084 Cl
BRANCH  17  19
ATOM     19  O   UNL     1      -6.151   1.215  -6.430  1.00  0.00    -0.497 OA
ATOM     20  C   UNL     1      -7.044   0.114  -6.577  1.00  0.00     0.278 C 
ENDBRANCH  17  19
ENDBRANCH  10  12
ENDBRANCH   9  10
ENDBRANCH   6   9
ENDBRANCH   1   6
BRANCH   2  21
ATOM     21  C   UNL     1       0.798   0.648   0.166  1.00  0.00     0.205 C 
ATOM     22  O   UNL     1       1.387   1.543  -0.502  1.00  0.00    -0.277 OA
BRANCH  21  23
ATOM     23  C   UNL     1       0.780   0.754   1.660  1.00  0.00    -0.015 C 
BRANCH  23  24
ATOM     24  N   UNL     1       1.889  -0.006   2.222  1.00  0.00    -0.640 NA
BRANCH  24  25
ATOM     25  C   UNL     1       2.041  -0.210   3.630  1.00  0.00     0.101 C 
ATOM     26  O   UNL     1       1.200   0.285   4.432  1.00  0.00    -0.313 OA
BRANCH  25  27
ATOM     27  C   UNL     1       3.163  -1.023   4.138  1.00  0.00     0.088 A 
ATOM     28  N   UNL     1       4.134  -1.437   3.280  1.00  0.00    -0.246 NA
ATOM     29  C   UNL     1       3.235  -1.391   5.490  1.00  0.00     0.031 A 
ATOM     30  C   UNL     1       5.181  -2.204   3.691  1.00  0.00     0.071 A 
ATOM     31  C   UNL     1       4.296  -2.179   5.939  1.00  0.00     0.013 A 
ATOM     32  C   UNL     1       6.167  -2.595   2.780  1.00  0.00     0.032 A 
ATOM     33  C   UNL     1       5.279  -2.599   5.042  1.00  0.00     0.003 A 
ATOM     34  C   UNL     1       7.244  -3.382   3.205  1.00  0.00     0.041 A 
ATOM     35  C   UNL     1       6.357  -3.393   5.460  1.00  0.00     0.049 A 
ATOM     36  C   UNL     1       7.335  -3.786   4.541  1.00  0.00     0.123 A 
ATOM     37  F   UNL     1       8.376  -4.555   4.946  1.00  0.00    -0.207 F 
ENDBRANCH  25  27
ENDBRANCH  24  25
ENDBRANCH  23  24
ENDBRANCH  21  23
ENDBRANCH   2  21
BRANCH   4  38
ATOM     38  O   UNL     1       0.504  -3.587  -1.135  1.00  0.00    -0.391 OA
ATOM     39  H   UNL     1       1.317  -3.071  -1.362  1.00  0.00     0.211 HD
ENDBRANCH   4  38
TORSDOF 12
