REMARK SMILES COc1ccc([C@H](C)NC(=O)[C@@H]2C[C@@H](O)CN2C(=O)C[N-]C(=O)c2ccc3cc(F)ccc3n2)c(Cl)c1
REMARK SMILES IDX 12 1 13 2 14 3 16 4 17 5 10 6 9 7 11 9 7 10 8 11 6 12 3 13
REMARK SMILES IDX 4 14 37 15 5 16 35 17 36 18 2 19 1 20 18 21 19 22 20 23
REMARK SMILES IDX 21 24 22 25 23 26 24 27 25 28 34 29 26 30 33 31 27 32 32 33
REMARK SMILES IDX 28 34 31 35 29 36 30 37 15 38
REMARK H PARENT 9 8 15 39
ROOT
ATOM      1  C   UNL     1      -2.972   2.642  -0.246  1.00  0.00     0.177 C 
ATOM      2  C   UNL     1      -4.058   3.695  -0.017  1.00  0.00     0.069 C 
ATOM      3  C   UNL     1      -4.238   4.402  -1.364  1.00  0.00     0.136 C 
ATOM      4  C   UNL     1      -3.722   3.417  -2.415  1.00  0.00     0.152 C 
ATOM      5  N   UNL     1      -2.956   2.428  -1.680  1.00  0.00    -0.329 N 
ENDROOT
BRANCH   1   6
ATOM      6  C   UNL     1      -3.245   1.356   0.495  1.00  0.00     0.243 C 
ATOM      7  N   UNL     1      -2.249   0.813   1.381  1.00  0.00    -0.348 N 
ATOM      8  H   UNL     1      -1.384   1.375   1.547  1.00  0.00     0.164 HD
ATOM      9  O   UNL     1      -4.318   0.728   0.282  1.00  0.00    -0.273 OA
BRANCH   7  10
ATOM     10  C   UNL     1      -2.374  -0.522   1.979  1.00  0.00     0.111 C 
ATOM     11  C   UNL     1      -2.068  -1.599   0.935  1.00  0.00     0.036 C 
BRANCH  10  12
ATOM     12  C   UNL     1      -1.448  -0.664   3.178  1.00  0.00    -0.007 A 
ATOM     13  C   UNL     1       0.350  -0.929   5.346  1.00  0.00     0.120 A 
ATOM     14  C   UNL     1       0.829  -0.660   4.062  1.00  0.00     0.047 A 
ATOM     15  C   UNL     1      -1.037  -1.064   5.549  1.00  0.00     0.067 A 
ATOM     16  C   UNL     1      -0.055  -0.532   2.993  1.00  0.00     0.011 A 
ATOM     17  C   UNL     1      -1.932  -0.940   4.480  1.00  0.00     0.049 A 
ATOM     18  Cl  UNL     1      -3.647  -1.139   4.831  1.00  0.00    -0.084 Cl
BRANCH  13  19
ATOM     19  O   UNL     1       1.281  -1.055   6.387  1.00  0.00    -0.497 OA
ATOM     20  C   UNL     1       0.947  -1.372   7.735  1.00  0.00     0.278 C 
ENDBRANCH  13  19
ENDBRANCH  10  12
ENDBRANCH   7  10
ENDBRANCH   1   6
BRANCH   5  21
ATOM     21  C   UNL     1      -2.122   1.455  -2.322  1.00  0.00     0.205 C 
ATOM     22  O   UNL     1      -2.443   0.239  -2.285  1.00  0.00    -0.277 OA
BRANCH  21  23
ATOM     23  C   UNL     1      -0.883   1.873  -3.051  1.00  0.00    -0.015 C 
BRANCH  23  24
ATOM     24  N   UNL     1       0.249   1.068  -2.605  1.00  0.00    -0.640 NA
BRANCH  24  25
ATOM     25  C   UNL     1       0.818   1.175  -1.296  1.00  0.00     0.101 C 
ATOM     26  O   UNL     1       0.477   2.123  -0.537  1.00  0.00    -0.313 OA
BRANCH  25  27
ATOM     27  C   UNL     1       1.786   0.166  -0.834  1.00  0.00     0.088 A 
ATOM     28  C   UNL     1       2.477   0.321   0.378  1.00  0.00     0.031 A 
ATOM     29  N   UNL     1       1.983  -0.955  -1.579  1.00  0.00    -0.246 NA
ATOM     30  C   UNL     1       3.348  -0.682   0.813  1.00  0.00     0.013 A 
ATOM     31  C   UNL     1       2.823  -1.950  -1.182  1.00  0.00     0.071 A 
ATOM     32  C   UNL     1       3.530  -1.832   0.036  1.00  0.00     0.003 A 
ATOM     33  C   UNL     1       2.978  -3.097  -1.969  1.00  0.00     0.032 A 
ATOM     34  C   UNL     1       4.390  -2.861   0.448  1.00  0.00     0.049 A 
ATOM     35  C   UNL     1       3.832  -4.126  -1.547  1.00  0.00     0.041 A 
ATOM     36  C   UNL     1       4.540  -4.004  -0.345  1.00  0.00     0.123 A 
ATOM     37  F   UNL     1       5.382  -4.996   0.048  1.00  0.00    -0.207 F 
ENDBRANCH  25  27
ENDBRANCH  24  25
ENDBRANCH  23  24
ENDBRANCH  21  23
ENDBRANCH   5  21
BRANCH   3  38
ATOM     38  O   UNL     1      -3.475   5.582  -1.379  1.00  0.00    -0.391 OA
ATOM     39  H   UNL     1      -3.802   6.118  -2.149  1.00  0.00     0.211 HD
ENDBRANCH   3  38
TORSDOF 10
