REMARK SMILES CCC(=O)N(c1ccccc1)C1CC[N+](=C(O)[C@@H]([NH3+])C2Cc3ccccc3C2)CC1
REMARK SMILES IDX 12 1 13 2 14 3 15 4 29 5 30 6 5 7 3 8 4 9 2 10 1 11 6 12
REMARK SMILES IDX 7 13 11 14 8 15 10 16 9 17 16 18 17 19 18 21 19 22 20 26
REMARK SMILES IDX 21 27 28 28 22 29 27 30 23 31 26 32 24 33 25 34
REMARK H PARENT 17 20 19 23 19 24 19 25
ROOT
ATOM      1  C   UNL     1       0.915   0.582  -2.828  1.00  0.00     0.103 C 
ATOM      2  C   UNL     1       1.258  -0.573  -1.896  1.00  0.00     0.098 C 
ATOM      3  C   UNL     1       0.412  -0.623  -0.623  1.00  0.00     0.356 C 
ATOM      4  N   UNL     1      -0.989  -0.153  -0.751  1.00  0.00    -0.197 N 
ATOM      5  C   UNL     1      -1.540   0.372  -2.025  1.00  0.00     0.356 C 
ATOM      6  C   UNL     1      -0.562   0.532  -3.202  1.00  0.00     0.098 C 
ENDROOT
BRANCH   1   7
ATOM      7  N   UNL     1       1.359   1.907  -2.336  1.00  0.00    -0.309 N 
BRANCH   7   8
ATOM      8  C   UNL     1       0.878   2.506  -1.121  1.00  0.00     0.226 C 
ATOM      9  O   UNL     1       1.528   2.351  -0.053  1.00  0.00    -0.275 OA
BRANCH   8  10
ATOM     10  C   UNL     1      -0.315   3.414  -1.128  1.00  0.00     0.097 C 
ATOM     11  C   UNL     1       0.066   4.832  -0.713  1.00  0.00     0.014 C 
ENDBRANCH   8  10
ENDBRANCH   7   8
BRANCH   7  12
ATOM     12  C   UNL     1       2.405   2.597  -3.039  1.00  0.00     0.044 A 
ATOM     13  C   UNL     1       2.145   3.828  -3.661  1.00  0.00     0.026 A 
ATOM     14  C   UNL     1       3.693   2.044  -3.114  1.00  0.00     0.026 A 
ATOM     15  C   UNL     1       3.166   4.506  -4.332  1.00  0.00     0.002 A 
ATOM     16  C   UNL     1       4.713   2.724  -3.786  1.00  0.00     0.002 A 
ATOM     17  C   UNL     1       4.450   3.956  -4.393  1.00  0.00     0.000 A 
ENDBRANCH   7  12
ENDBRANCH   1   7
BRANCH   4  18
ATOM     18  C   UNL     1      -1.787  -0.179   0.311  1.00  0.00     0.394 C 
BRANCH  18  19
ATOM     19  O   UNL     1      -3.132   0.218   0.231  1.00  0.00    -0.459 OA
ATOM     20  H   UNL     1      -3.628   0.443  -0.620  1.00  0.00     0.299 HD
ENDBRANCH  18  19
BRANCH  18  21
ATOM     21  C   UNL     1      -1.325  -0.592   1.712  1.00  0.00     0.322 C 
BRANCH  21  22
ATOM     22  N   UNL     1      -1.193   0.611   2.546  1.00  0.00    -0.343 N 
ATOM     23  H   UNL     1      -0.797   0.371   3.482  1.00  0.00     0.345 HD
ATOM     24  H   UNL     1      -0.539   1.287   2.086  1.00  0.00     0.345 HD
ATOM     25  H   UNL     1      -2.123   1.075   2.674  1.00  0.00     0.345 HD
ENDBRANCH  21  22
BRANCH  21  26
ATOM     26  C   UNL     1      -2.332  -1.597   2.339  1.00  0.00     0.071 C 
ATOM     27  C   UNL     1      -1.888  -2.127   3.728  1.00  0.00     0.046 C 
ATOM     28  C   UNL     1      -2.553  -2.851   1.453  1.00  0.00     0.046 C 
ATOM     29  C   UNL     1      -2.259  -3.561   3.689  1.00  0.00    -0.044 A 
ATOM     30  C   UNL     1      -2.625  -3.962   2.429  1.00  0.00    -0.044 A 
ATOM     31  C   UNL     1      -2.239  -4.462   4.757  1.00  0.00     0.004 A 
ATOM     32  C   UNL     1      -2.994  -5.285   2.170  1.00  0.00     0.004 A 
ATOM     33  C   UNL     1      -2.613  -5.794   4.522  1.00  0.00     0.000 A 
ATOM     34  C   UNL     1      -2.989  -6.205   3.229  1.00  0.00     0.000 A 
ENDBRANCH  21  26
ENDBRANCH  18  21
ENDBRANCH   4  18
TORSDOF 9
