REMARK SMILES CC/C(O)=[N+](\c1ccccc1)[C@H]1CC[N@H+](C(=O)[C@@H](N)C2Cc3ccccc3C2)CC1
REMARK SMILES IDX 12 1 13 2 14 3 15 4 29 6 30 7 5 8 3 9 4 10 2 12 1 13 6 14
REMARK SMILES IDX 7 15 11 16 8 17 10 18 9 19 16 20 17 21 18 22 19 23 20 26
REMARK SMILES IDX 21 27 28 28 22 29 27 30 23 31 26 32 24 33 25 34
REMARK H PARENT 15 5 4 11 19 24 19 25
ROOT
ATOM      1  C   UNL     1      -1.171  -1.637   0.298  1.00  0.00     0.281 C 
ATOM      2  C   UNL     1      -0.867  -0.962   1.669  1.00  0.00     0.139 C 
ATOM      3  C   UNL     1      -0.769   0.577   1.581  1.00  0.00     0.277 C 
ATOM      4  N   UNL     1      -0.154   1.063   0.325  1.00  0.00    -0.270 N 
ATOM      5  H   UNL     1      -0.301   2.100   0.325  1.00  0.00     0.356 HD
ATOM      6  C   UNL     1      -0.805   0.550  -0.918  1.00  0.00     0.277 C 
ATOM      7  C   UNL     1      -1.777  -0.622  -0.681  1.00  0.00     0.139 C 
ENDROOT
BRANCH   1   8
ATOM      8  N   UNL     1      -2.029  -2.850   0.396  1.00  0.00    -0.162 N 
BRANCH   8   9
ATOM      9  C   UNL     1      -1.903  -3.865  -0.447  1.00  0.00     0.339 C 
BRANCH   9  10
ATOM     10  O   UNL     1      -1.011  -3.827  -1.529  1.00  0.00    -0.463 OA
ATOM     11  H   UNL     1      -0.528  -3.002  -1.861  1.00  0.00     0.299 HD
ENDBRANCH   9  10
BRANCH   9  12
ATOM     12  C   UNL     1      -2.742  -5.124  -0.293  1.00  0.00     0.150 C 
ATOM     13  C   UNL     1      -2.405  -6.201  -1.324  1.00  0.00     0.019 C 
ENDBRANCH   9  12
ENDBRANCH   8   9
BRANCH   8  14
ATOM     14  C   UNL     1      -3.102  -2.872   1.363  1.00  0.00     0.208 A 
ATOM     15  C   UNL     1      -4.337  -2.277   1.064  1.00  0.00     0.079 A 
ATOM     16  C   UNL     1      -2.922  -3.505   2.604  1.00  0.00     0.079 A 
ATOM     17  C   UNL     1      -5.374  -2.301   2.002  1.00  0.00     0.007 A 
ATOM     18  C   UNL     1      -3.960  -3.526   3.540  1.00  0.00     0.007 A 
ATOM     19  C   UNL     1      -5.185  -2.921   3.240  1.00  0.00     0.000 A 
ENDBRANCH   8  14
ENDBRANCH   1   8
BRANCH   4  20
ATOM     20  C   UNL     1       1.282   0.826   0.333  1.00  0.00     0.329 C 
ATOM     21  O   UNL     1       1.724  -0.298   0.133  1.00  0.00    -0.229 OA
BRANCH  20  22
ATOM     22  C   UNL     1       2.258   1.954   0.608  1.00  0.00     0.186 C 
BRANCH  22  23
ATOM     23  N   UNL     1       3.124   1.564   1.726  1.00  0.00    -0.316 NA
ATOM     24  H   UNL     1       3.855   0.893   1.392  1.00  0.00     0.119 HD
ATOM     25  H   UNL     1       3.618   2.410   2.093  1.00  0.00     0.119 HD
ENDBRANCH  22  23
BRANCH  22  26
ATOM     26  C   UNL     1       3.080   2.288  -0.666  1.00  0.00     0.028 C 
ATOM     27  C   UNL     1       2.190   2.737  -1.854  1.00  0.00     0.042 C 
ATOM     28  C   UNL     1       4.109   3.425  -0.444  1.00  0.00     0.042 C 
ATOM     29  C   UNL     1       2.955   3.847  -2.465  1.00  0.00    -0.044 A 
ATOM     30  C   UNL     1       4.022   4.223  -1.688  1.00  0.00    -0.044 A 
ATOM     31  C   UNL     1       2.664   4.508  -3.660  1.00  0.00     0.004 A 
ATOM     32  C   UNL     1       4.856   5.279  -2.066  1.00  0.00     0.004 A 
ATOM     33  C   UNL     1       3.492   5.569  -4.063  1.00  0.00     0.000 A 
ATOM     34  C   UNL     1       4.587   5.952  -3.267  1.00  0.00     0.000 A 
ENDBRANCH  22  26
ENDBRANCH  20  22
ENDBRANCH   4  20
TORSDOF 9
