REMARK SMILES [H]/N=c1\[nH]c2nc3ccccn3c(=O)c2cc1C(=O)N[C@@H](C)c1ccccc1
REMARK SMILES IDX 3 1 17 2 16 3 15 4 13 5 14 6 12 7 11 8 10 9 9 10 8 11 7 12
REMARK SMILES IDX 6 13 5 14 4 15 2 17 1 18 18 19 20 20 19 21 21 23 22 24 23 25
REMARK SMILES IDX 24 26 28 27 25 28 27 29 26 30
REMARK H PARENT 4 16 20 22
ROOT
ATOM      1  C   UNL     1       2.947   2.142   1.635  1.00  0.00     0.136 A 
ATOM      2  C   UNL     1       1.756   1.627   1.073  1.00  0.00     0.082 A 
ATOM      3  C   UNL     1       1.609   0.234   0.974  1.00  0.00     0.035 A 
ATOM      4  C   UNL     1       2.621  -0.623   1.431  1.00  0.00     0.084 A 
ATOM      5  C   UNL     1       2.520  -2.024   1.353  1.00  0.00     0.267 A 
ATOM      6  O   UNL     1       1.482  -2.547   0.857  1.00  0.00    -0.268 OA
ATOM      7  N   UNL     1       3.546  -2.815   1.815  1.00  0.00    -0.267 N 
ATOM      8  C   UNL     1       3.460  -4.184   1.746  1.00  0.00     0.096 A 
ATOM      9  C   UNL     1       4.499  -4.991   2.214  1.00  0.00     0.019 A 
ATOM     10  C   UNL     1       5.636  -4.400   2.757  1.00  0.00     0.005 A 
ATOM     11  C   UNL     1       5.726  -3.013   2.829  1.00  0.00     0.048 A 
ATOM     12  C   UNL     1       4.671  -2.227   2.353  1.00  0.00     0.142 A 
ATOM     13  N   UNL     1       4.773  -0.875   2.428  1.00  0.00    -0.212 NA
ATOM     14  C   UNL     1       3.783  -0.064   1.982  1.00  0.00     0.146 A 
ATOM     15  N   UNL     1       3.920   1.287   2.071  1.00  0.00    -0.324 N 
ATOM     16  H   UNL     1       4.798   1.674   2.489  1.00  0.00     0.170 HD
ENDROOT
BRANCH   1  17
ATOM     17  N   UNL     1       3.113   3.423   1.757  1.00  0.00    -0.284 NA
ATOM     18  H   UNL     1       3.976   3.838   2.174  1.00  0.00     0.189 HD
ENDBRANCH   1  17
BRANCH   2  19
ATOM     19  C   UNL     1       0.678   2.516   0.568  1.00  0.00     0.255 C 
ATOM     20  N   UNL     1      -0.703   2.127   0.685  1.00  0.00    -0.345 N 
ATOM     21  O   UNL     1       0.982   3.614   0.029  1.00  0.00    -0.269 OA
ATOM     22  H   UNL     1      -0.940   1.287   1.259  1.00  0.00     0.164 HD
BRANCH  20  23
ATOM     23  C   UNL     1      -1.815   2.830   0.036  1.00  0.00     0.109 C 
ATOM     24  C   UNL     1      -2.062   4.194   0.699  1.00  0.00     0.036 C 
BRANCH  23  25
ATOM     25  C   UNL     1      -1.617   2.874  -1.471  1.00  0.00    -0.026 A 
ATOM     26  C   UNL     1      -1.160   4.025  -2.148  1.00  0.00     0.006 A 
ATOM     27  C   UNL     1      -1.842   1.700  -2.212  1.00  0.00     0.006 A 
ATOM     28  C   UNL     1      -0.959   3.999  -3.531  1.00  0.00     0.000 A 
ATOM     29  C   UNL     1      -1.638   1.680  -3.595  1.00  0.00     0.000 A 
ATOM     30  C   UNL     1      -1.199   2.829  -4.254  1.00  0.00     0.000 A 
ENDBRANCH  23  25
ENDBRANCH  20  23
ENDBRANCH   2  19
TORSDOF 4
