REMARK SMILES C[C@H](NC(=O)c1cc2c(=O)n3ccccc3nc2nc1N)c1ccccc1
REMARK SMILES IDX 6 1 7 2 8 3 9 4 10 5 11 6 12 7 13 8 14 9 15 10 16 11 17 12
REMARK SMILES IDX 18 13 19 14 20 15 4 16 3 17 5 19 2 20 1 21 22 22 23 23 27 24
REMARK SMILES IDX 24 25 26 26 25 27 21 28
REMARK H PARENT 3 18 21 29 21 30
ROOT
ATOM      1  C   UNL     1      -1.492   1.777   0.013  1.00  0.00     0.082 A 
ATOM      2  C   UNL     1      -0.347   1.275  -0.626  1.00  0.00     0.035 A 
ATOM      3  C   UNL     1       0.427   2.103  -1.454  1.00  0.00     0.086 A 
ATOM      4  C   UNL     1       1.587   1.654  -2.109  1.00  0.00     0.267 A 
ATOM      5  O   UNL     1       1.961   0.455  -1.963  1.00  0.00    -0.268 OA
ATOM      6  N   UNL     1       2.307   2.517  -2.902  1.00  0.00    -0.267 N 
ATOM      7  C   UNL     1       3.442   2.092  -3.548  1.00  0.00     0.096 A 
ATOM      8  C   UNL     1       4.176   2.965  -4.354  1.00  0.00     0.019 A 
ATOM      9  C   UNL     1       3.752   4.282  -4.504  1.00  0.00     0.005 A 
ATOM     10  C   UNL     1       2.603   4.716  -3.851  1.00  0.00     0.048 A 
ATOM     11  C   UNL     1       1.884   3.823  -3.049  1.00  0.00     0.142 A 
ATOM     12  N   UNL     1       0.765   4.259  -2.417  1.00  0.00    -0.210 NA
ATOM     13  C   UNL     1       0.033   3.437  -1.629  1.00  0.00     0.169 A 
ATOM     14  N   UNL     1      -1.083   3.906  -1.016  1.00  0.00    -0.210 NA
ATOM     15  C   UNL     1      -1.856   3.126  -0.211  1.00  0.00     0.138 A 
ENDROOT
BRANCH   1  16
ATOM     16  C   UNL     1      -2.243   0.894   0.931  1.00  0.00     0.255 C 
ATOM     17  N   UNL     1      -2.497  -0.474   0.574  1.00  0.00    -0.345 N 
ATOM     18  H   UNL     1      -2.279  -0.785  -0.400  1.00  0.00     0.164 HD
ATOM     19  O   UNL     1      -2.625   1.334   2.050  1.00  0.00    -0.269 OA
BRANCH  17  20
ATOM     20  C   UNL     1      -3.040  -1.439   1.535  1.00  0.00     0.109 C 
ATOM     21  C   UNL     1      -3.459  -2.730   0.826  1.00  0.00     0.036 C 
BRANCH  20  22
ATOM     22  C   UNL     1      -2.019  -1.743   2.611  1.00  0.00    -0.026 A 
ATOM     23  C   UNL     1      -0.689  -2.057   2.271  1.00  0.00     0.006 A 
ATOM     24  C   UNL     1      -2.398  -1.745   3.965  1.00  0.00     0.006 A 
ATOM     25  C   UNL     1       0.244  -2.349   3.270  1.00  0.00     0.000 A 
ATOM     26  C   UNL     1      -1.460  -2.039   4.960  1.00  0.00     0.000 A 
ATOM     27  C   UNL     1      -0.140  -2.339   4.613  1.00  0.00     0.000 A 
ENDBRANCH  20  22
ENDBRANCH  17  20
ENDBRANCH   1  16
BRANCH  15  28
ATOM     28  N   UNL     1      -3.049   3.691   0.344  1.00  0.00    -0.383 N 
ATOM     29  H   UNL     1      -3.785   3.107   0.796  1.00  0.00     0.158 HD
ATOM     30  H   UNL     1      -3.250   4.707   0.211  1.00  0.00     0.158 HD
ENDBRANCH  15  28
TORSDOF 4
