REMARK SMILES O/C(=C\CCOc1ccc(Cl)cc1Cl)[N-]/N=C/c1cccnc1F
REMARK SMILES IDX 2 1 1 2 15 4 16 5 17 6 18 7 23 8 19 9 22 10 20 11 21 12
REMARK SMILES IDX 24 13 3 14 4 15 5 16 6 17 7 18 8 19 13 20 9 21 12 22 10 23
REMARK SMILES IDX 14 24 11 25
REMARK H PARENT 1 3
ROOT
ATOM      1  C   UNL     1       2.835   1.423   0.141  1.00  0.00     0.023 C 
ENDROOT
BRANCH   1   2
ATOM      2  O   UNL     1       4.210   1.612   0.254  1.00  0.00    -0.530 OA
ATOM      3  H   UNL     1       4.667   1.564   1.156  1.00  0.00     0.290 HD
ENDBRANCH   1   2
BRANCH   1   4
ATOM      4  N   UNL     1       2.073   1.148   1.322  1.00  0.00    -0.546 NA
BRANCH   4   5
ATOM      5  N   UNL     1       0.748   0.697   1.256  1.00  0.00    -0.372 NA
BRANCH   5   6
ATOM      6  C   UNL     1       0.103   0.350   2.322  1.00  0.00     0.099 C 
BRANCH   6   7
ATOM      7  C   UNL     1      -1.276  -0.177   2.244  1.00  0.00     0.046 A 
ATOM      8  C   UNL     1      -1.996  -0.246   1.032  1.00  0.00     0.221 A 
ATOM      9  C   UNL     1      -1.893  -0.646   3.413  1.00  0.00     0.016 A 
ATOM     10  N   UNL     1      -3.255  -0.762   1.016  1.00  0.00    -0.228 NA
ATOM     11  C   UNL     1      -3.186  -1.170   3.365  1.00  0.00     0.021 A 
ATOM     12  C   UNL     1      -3.858  -1.221   2.144  1.00  0.00     0.114 A 
ATOM     13  F   UNL     1      -1.459   0.194  -0.133  1.00  0.00    -0.184 F 
ENDBRANCH   6   7
ENDBRANCH   5   6
ENDBRANCH   4   5
ENDBRANCH   1   4
BRANCH   1  14
ATOM     14  C   UNL     1       2.246   1.472  -1.063  1.00  0.00    -0.001 C 
BRANCH  14  15
ATOM     15  C   UNL     1       3.023   1.578  -2.342  1.00  0.00     0.071 C 
BRANCH  15  16
ATOM     16  C   UNL     1       3.604   0.221  -2.764  1.00  0.00     0.234 C 
BRANCH  16  17
ATOM     17  O   UNL     1       2.562  -0.713  -3.066  1.00  0.00    -0.492 OA
BRANCH  17  18
ATOM     18  C   UNL     1       1.813  -1.442  -2.125  1.00  0.00     0.137 A 
ATOM     19  C   UNL     1       2.305  -1.745  -0.839  1.00  0.00     0.049 A 
ATOM     20  C   UNL     1       0.530  -1.887  -2.485  1.00  0.00     0.084 A 
ATOM     21  C   UNL     1       1.510  -2.442   0.076  1.00  0.00     0.024 A 
ATOM     22  C   UNL     1      -0.261  -2.585  -1.565  1.00  0.00     0.045 A 
ATOM     23  C   UNL     1       0.226  -2.857  -0.283  1.00  0.00     0.042 A 
ATOM     24  Cl  UNL     1      -0.117  -1.539  -4.081  1.00  0.00    -0.080 Cl
ATOM     25  Cl  UNL     1      -0.775  -3.716   0.873  1.00  0.00    -0.084 Cl
ENDBRANCH  17  18
ENDBRANCH  16  17
ENDBRANCH  15  16
ENDBRANCH  14  15
ENDBRANCH   1  14
TORSDOF 10
