REMARK SMILES O/C(=C/CCOc1ccc(Cl)cc1Cl)[N-]/N=C/c1cccnc1F
REMARK SMILES IDX 2 1 1 2 15 4 16 5 17 6 18 7 23 8 19 9 22 10 20 11 21 12
REMARK SMILES IDX 24 13 3 14 4 15 5 16 6 17 7 18 8 19 13 20 9 21 12 22 10 23
REMARK SMILES IDX 14 24 11 25
REMARK H PARENT 1 3
ROOT
ATOM      1  C   UNL     1      -0.400   0.245  -0.983  1.00  0.00     0.023 C 
ENDROOT
BRANCH   1   2
ATOM      2  O   UNL     1      -1.102   1.426  -0.735  1.00  0.00    -0.530 OA
ATOM      3  H   UNL     1      -0.653   2.335  -0.765  1.00  0.00     0.290 HD
ENDBRANCH   1   2
BRANCH   1   4
ATOM      4  N   UNL     1      -1.080  -1.018  -0.916  1.00  0.00    -0.546 NA
BRANCH   4   5
ATOM      5  N   UNL     1      -2.478  -1.178  -0.919  1.00  0.00    -0.372 NA
BRANCH   5   6
ATOM      6  C   UNL     1      -3.295  -0.374  -1.529  1.00  0.00     0.099 C 
BRANCH   6   7
ATOM      7  C   UNL     1      -4.759  -0.582  -1.481  1.00  0.00     0.046 A 
ATOM      8  C   UNL     1      -5.357  -1.624  -0.742  1.00  0.00     0.221 A 
ATOM      9  C   UNL     1      -5.594   0.292  -2.194  1.00  0.00     0.016 A 
ATOM     10  N   UNL     1      -6.710  -1.764  -0.734  1.00  0.00    -0.228 NA
ATOM     11  C   UNL     1      -6.979   0.123  -2.167  1.00  0.00     0.021 A 
ATOM     12  C   UNL     1      -7.524  -0.923  -1.423  1.00  0.00     0.114 A 
ATOM     13  F   UNL     1      -4.608  -2.501  -0.028  1.00  0.00    -0.184 F 
ENDBRANCH   6   7
ENDBRANCH   5   6
ENDBRANCH   4   5
ENDBRANCH   1   4
BRANCH   1  14
ATOM     14  C   UNL     1       0.911   0.294  -1.253  1.00  0.00    -0.001 C 
BRANCH  14  15
ATOM     15  C   UNL     1       1.746  -0.931  -1.515  1.00  0.00     0.071 C 
BRANCH  15  16
ATOM     16  C   UNL     1       2.067  -1.686  -0.220  1.00  0.00     0.234 C 
BRANCH  16  17
ATOM     17  O   UNL     1       2.707  -0.833   0.731  1.00  0.00    -0.492 OA
BRANCH  17  18
ATOM     18  C   UNL     1       4.032  -0.371   0.659  1.00  0.00     0.137 A 
ATOM     19  C   UNL     1       4.952  -0.856  -0.292  1.00  0.00     0.049 A 
ATOM     20  C   UNL     1       4.453   0.604   1.579  1.00  0.00     0.084 A 
ATOM     21  C   UNL     1       6.261  -0.365  -0.323  1.00  0.00     0.024 A 
ATOM     22  C   UNL     1       5.764   1.092   1.543  1.00  0.00     0.045 A 
ATOM     23  C   UNL     1       6.668   0.608   0.593  1.00  0.00     0.042 A 
ATOM     24  Cl  UNL     1       3.336   1.234   2.781  1.00  0.00    -0.080 Cl
ATOM     25  Cl  UNL     1       8.311   1.222   0.551  1.00  0.00    -0.084 Cl
ENDBRANCH  17  18
ENDBRANCH  16  17
ENDBRANCH  15  16
ENDBRANCH  14  15
ENDBRANCH   1  14
TORSDOF 10
