REMARK SMILES C[NH+]1CCN(C(=O)c2cccc(C3=Nc4ccc(C#Cc5ccccc5)cc4NC(=O)C3)c2)CC1
REMARK SMILES IDX 14 1 13 2 12 4 8 5 9 6 33 7 10 8 11 9 6 10 2 11 3 12 35 13
REMARK SMILES IDX 4 14 34 15 5 16 1 17 7 19 15 20 16 21 28 22 17 23 27 24
REMARK SMILES IDX 18 25 29 26 30 27 31 29 32 30 19 32 20 33 21 34 22 35 26 36
REMARK SMILES IDX 23 37 25 38 24 39
REMARK H PARENT 2 18 29 28
REMARK Flexibility Score:   84.900
ROOT
ATOM      1  N   UNL     1       0.547   1.021   0.645  1.00  0.00    -0.250 NA
ENDROOT
BRANCH   1   2
ATOM      2  C   UNL     1       1.421   1.964   0.444  1.00  0.00     0.058 CG0
ATOM      3  G   UNL     1       2.688   2.018   1.247  1.00  0.00     0.000 G0
BRANCH   2   4
ATOM      4  C   UNL     1       1.158   2.959  -0.623  1.00  0.00    -0.003 A 
ATOM      5  C   UNL     1       0.227   3.496  -2.817  1.00  0.00     0.040 A 
ATOM      6  C   UNL     1       0.607   4.836  -2.644  1.00  0.00     0.014 A 
ATOM      7  C   UNL     1       0.486   2.570  -1.795  1.00  0.00     0.023 A 
ATOM      8  C   UNL     1       1.264   5.234  -1.477  1.00  0.00     0.002 A 
ATOM      9  C   UNL     1       1.543   4.304  -0.473  1.00  0.00     0.010 A 
BRANCH   5  10
ATOM     10  C   UNL     1      -0.474   3.069  -4.046  1.00  0.00     0.254 C 
ATOM     11  N   UNL     1       0.214  -0.967  -5.121  1.00  0.00    -0.334 N 
ATOM     12  C   UNL     1      -1.188  -0.453  -5.111  1.00  0.00     0.283 C 
ATOM     13  C   UNL     1       1.204   0.016  -5.619  1.00  0.00     0.283 C 
ATOM     14  C   UNL     1      -1.311   1.071  -5.317  1.00  0.00     0.181 C 
ATOM     15  C   UNL     1       1.157   1.329  -4.823  1.00  0.00     0.181 C 
ATOM     16  N   UNL     1      -0.227   1.778  -4.630  1.00  0.00    -0.327 N 
ATOM     17  C   UNL     1       0.602  -1.492  -3.796  1.00  0.00     0.332 C 
ATOM     18  H   UNL     1       0.249  -1.782  -5.780  1.00  0.00     0.347 HD
ATOM     19  O   UNL     1      -1.312   3.847  -4.581  1.00  0.00    -0.269 OA
ENDBRANCH   5  10
ENDBRANCH   2   4
ENDBRANCH   1   2
BRANCH   1  20
ATOM     20  C   UNL     1       0.585  -0.013   1.644  1.00  0.00     0.087 A 
ATOM     21  C   UNL     1       0.033  -1.254   1.299  1.00  0.00     0.032 A 
ATOM     22  C   UNL     1       1.045   0.199   2.973  1.00  0.00     0.068 A 
ATOM     23  C   UNL     1      -0.034  -2.292   2.228  1.00  0.00     0.019 A 
ATOM     24  C   UNL     1       0.954  -0.852   3.902  1.00  0.00     0.045 A 
ATOM     25  C   UNL     1       0.429  -2.095   3.530  1.00  0.00     0.027 A 
BRANCH  22  26
ATOM     26  N   UNL     1       1.531   1.472   3.438  1.00  0.00    -0.324 N 
ATOM     27  C   UNL     1       2.343   2.353   2.656  1.00  0.00     0.230 C 
ATOM     28  H   UNL     1       1.417   1.702   4.451  1.00  0.00     0.170 HD
ATOM     29  O   UNL     1       2.769   3.424   3.164  1.00  0.00    -0.274 OA
BRANCH  27  30
ATOM     30  C   UNL     1       2.688   2.018   1.247  1.00  0.00     0.157 CG0
ATOM     31  G   UNL     1       1.421   1.964   0.444  1.00  0.00     0.000 G0
ENDBRANCH  27  30
ENDBRANCH  22  26
BRANCH  25  32
ATOM     32  C   UNL     1       0.357  -3.165   4.490  1.00  0.00    -0.062 C 
BRANCH  32  33
ATOM     33  C   UNL     1       0.299  -4.064   5.292  1.00  0.00    -0.062 C 
BRANCH  33  34
ATOM     34  C   UNL     1       0.230  -5.140   6.245  1.00  0.00     0.025 A 
ATOM     35  C   UNL     1      -0.964  -5.853   6.413  1.00  0.00     0.017 A 
ATOM     36  C   UNL     1       1.358  -5.480   7.003  1.00  0.00     0.017 A 
ATOM     37  C   UNL     1      -1.029  -6.904   7.336  1.00  0.00     0.001 A 
ATOM     38  C   UNL     1       1.292  -6.534   7.923  1.00  0.00     0.001 A 
ATOM     39  C   UNL     1       0.099  -7.245   8.089  1.00  0.00     0.000 A 
ENDBRANCH  33  34
ENDBRANCH  32  33
ENDBRANCH  25  32
ENDBRANCH   1  20
TORSDOF 5
