REMARK SMILES O=C(CCCOc1ccc(Cl)cc1Cl)[N-]/N=C/c1cccc(C(F)(F)F)c1
REMARK SMILES IDX 2 1 1 2 15 3 16 4 17 5 18 6 19 7 27 8 20 9 22 10 21 11 23 12
REMARK SMILES IDX 24 13 25 14 26 15 3 16 4 17 5 18 6 19 7 20 8 21 13 22 9 23
REMARK SMILES IDX 12 24 10 25 14 26 11 27
REMARK H PARENT
ROOT
ATOM      1  C   UNL     1      -2.290  -2.844  -1.284  1.00  0.00     0.068 C 
ATOM      2  O   UNL     1      -2.946  -3.807  -0.804  1.00  0.00    -0.319 OA
ENDROOT
BRANCH   1   3
ATOM      3  N   UNL     1      -3.010  -1.778  -1.919  1.00  0.00    -0.545 NA
BRANCH   3   4
ATOM      4  N   UNL     1      -2.438  -0.545  -2.276  1.00  0.00    -0.372 NA
BRANCH   4   5
ATOM      5  C   UNL     1      -1.823   0.207  -1.416  1.00  0.00     0.094 C 
BRANCH   5   6
ATOM      6  C   UNL     1      -1.184   1.474  -1.829  1.00  0.00    -0.009 A 
ATOM      7  C   UNL     1      -1.178   1.887  -3.174  1.00  0.00     0.009 A 
ATOM      8  C   UNL     1      -0.550   2.271  -0.862  1.00  0.00     0.022 A 
ATOM      9  C   UNL     1      -0.530   3.068  -3.542  1.00  0.00     0.001 A 
ATOM     10  C   UNL     1       0.088   3.470  -1.223  1.00  0.00     0.056 A 
ATOM     11  C   UNL     1       0.110   3.851  -2.577  1.00  0.00     0.013 A 
BRANCH  10  12
ATOM     12  C   UNL     1       0.818   4.274  -0.175  1.00  0.00     0.416 C 
ATOM     13  F   UNL     1       2.038   3.676   0.091  1.00  0.00    -0.166 F 
ATOM     14  F   UNL     1       0.075   4.324   0.993  1.00  0.00    -0.166 F 
ATOM     15  F   UNL     1       1.038   5.573  -0.603  1.00  0.00    -0.166 F 
ENDBRANCH  10  12
ENDBRANCH   5   6
ENDBRANCH   4   5
ENDBRANCH   3   4
ENDBRANCH   1   3
BRANCH   1  16
ATOM     16  C   UNL     1      -0.779  -2.895  -1.321  1.00  0.00     0.060 C 
BRANCH  16  17
ATOM     17  C   UNL     1      -0.165  -4.013  -0.461  1.00  0.00     0.048 C 
BRANCH  17  18
ATOM     18  C   UNL     1      -0.324  -3.770   1.049  1.00  0.00     0.230 C 
BRANCH  18  19
ATOM     19  O   UNL     1       0.274  -2.535   1.449  1.00  0.00    -0.492 OA
BRANCH  19  20
ATOM     20  C   UNL     1       1.653  -2.290   1.568  1.00  0.00     0.137 A 
ATOM     21  C   UNL     1       2.620  -3.304   1.405  1.00  0.00     0.049 A 
ATOM     22  C   UNL     1       2.079  -0.985   1.870  1.00  0.00     0.084 A 
ATOM     23  C   UNL     1       3.980  -3.008   1.528  1.00  0.00     0.024 A 
ATOM     24  C   UNL     1       3.442  -0.696   1.993  1.00  0.00     0.045 A 
ATOM     25  C   UNL     1       4.392  -1.706   1.819  1.00  0.00     0.042 A 
ATOM     26  Cl  UNL     1       0.905   0.301   2.108  1.00  0.00    -0.080 Cl
ATOM     27  Cl  UNL     1       6.102  -1.337   1.963  1.00  0.00    -0.084 Cl
ENDBRANCH  19  20
ENDBRANCH  18  19
ENDBRANCH  17  18
ENDBRANCH  16  17
ENDBRANCH   1  16
TORSDOF 10
