REMARK SMILES O=C(CCCOc1ccc(Cl)cc1Cl)[N-]/N=C\c1cccc(C(F)(F)F)c1
REMARK SMILES IDX 2 1 1 2 15 3 16 4 17 5 18 6 19 7 27 8 20 9 22 10 21 11 23 12
REMARK SMILES IDX 24 13 25 14 26 15 3 16 4 17 5 18 6 19 7 20 8 21 13 22 9 23
REMARK SMILES IDX 12 24 10 25 14 26 11 27
REMARK H PARENT
ROOT
ATOM      1  C   UNL     1       1.689  -1.535   0.736  1.00  0.00     0.068 C 
ATOM      2  O   UNL     1       2.322  -2.419   1.376  1.00  0.00    -0.319 OA
ENDROOT
BRANCH   1   3
ATOM      3  N   UNL     1       2.180  -1.069  -0.519  1.00  0.00    -0.545 NA
BRANCH   3   4
ATOM      4  N   UNL     1       3.368  -1.569  -1.072  1.00  0.00    -0.372 NA
BRANCH   4   5
ATOM      5  C   UNL     1       3.878  -1.110  -2.176  1.00  0.00     0.094 C 
BRANCH   5   6
ATOM      6  C   UNL     1       3.291   0.009  -2.950  1.00  0.00    -0.009 A 
ATOM      7  C   UNL     1       3.318  -0.047  -4.349  1.00  0.00     0.009 A 
ATOM      8  C   UNL     1       2.784   1.162  -2.320  1.00  0.00     0.022 A 
ATOM      9  C   UNL     1       2.786   0.996  -5.110  1.00  0.00     0.001 A 
ATOM     10  C   UNL     1       2.262   2.223  -3.080  1.00  0.00     0.056 A 
ATOM     11  C   UNL     1       2.243   2.118  -4.482  1.00  0.00     0.013 A 
BRANCH  10  12
ATOM     12  C   UNL     1       1.706   3.435  -2.374  1.00  0.00     0.416 C 
ATOM     13  F   UNL     1       0.552   3.082  -1.700  1.00  0.00    -0.166 F 
ATOM     14  F   UNL     1       2.634   3.907  -1.461  1.00  0.00    -0.166 F 
ATOM     15  F   UNL     1       1.408   4.456  -3.261  1.00  0.00    -0.166 F 
ENDBRANCH  10  12
ENDBRANCH   5   6
ENDBRANCH   4   5
ENDBRANCH   3   4
ENDBRANCH   1   3
BRANCH   1  16
ATOM     16  C   UNL     1       0.461  -0.904   1.321  1.00  0.00     0.060 C 
BRANCH  16  17
ATOM     17  C   UNL     1      -0.512  -1.950   1.878  1.00  0.00     0.048 C 
BRANCH  17  18
ATOM     18  C   UNL     1      -1.758  -1.317   2.515  1.00  0.00     0.230 C 
BRANCH  18  19
ATOM     19  O   UNL     1      -2.690  -0.884   1.521  1.00  0.00    -0.492 OA
BRANCH  19  20
ATOM     20  C   UNL     1      -2.684   0.349   0.845  1.00  0.00     0.137 A 
ATOM     21  C   UNL     1      -1.926   1.455   1.285  1.00  0.00     0.049 A 
ATOM     22  C   UNL     1      -3.464   0.476  -0.315  1.00  0.00     0.084 A 
ATOM     23  C   UNL     1      -1.927   2.646   0.552  1.00  0.00     0.024 A 
ATOM     24  C   UNL     1      -3.459   1.671  -1.043  1.00  0.00     0.045 A 
ATOM     25  C   UNL     1      -2.686   2.753  -0.614  1.00  0.00     0.042 A 
ATOM     26  Cl  UNL     1      -4.445  -0.869  -0.879  1.00  0.00    -0.080 Cl
ATOM     27  Cl  UNL     1      -2.672   4.243  -1.538  1.00  0.00    -0.084 Cl
ENDBRANCH  19  20
ENDBRANCH  18  19
ENDBRANCH  17  18
ENDBRANCH  16  17
ENDBRANCH   1  16
TORSDOF 10
