REMARK SMILES O=S(=O)(Cc1ccccc1)N1Cc2ccccc2[C@@H]1c1c[nH]c2ccccc12
REMARK SMILES IDX 11 1 12 2 13 3 14 4 15 5 16 6 17 7 18 8 19 9 2 10 1 11 3 12
REMARK SMILES IDX 4 13 5 14 6 15 10 16 7 17 9 18 8 19 20 20 21 21 28 22 22 23
REMARK SMILES IDX 27 24 23 25 26 26 24 27 25 28
REMARK H PARENT 22 29
ROOT
ATOM      1  N   UNL     1      -1.348  -0.183  -0.874  1.00  0.00    -0.185 NA
ATOM      2  C   UNL     1      -1.407   0.021   0.587  1.00  0.00     0.139 C 
ATOM      3  C   UNL     1      -1.576  -1.338   1.145  1.00  0.00    -0.028 A 
ATOM      4  C   UNL     1      -1.868  -1.703   2.461  1.00  0.00     0.005 A 
ATOM      5  C   UNL     1      -1.975  -3.069   2.768  1.00  0.00     0.000 A 
ATOM      6  C   UNL     1      -1.783  -4.038   1.764  1.00  0.00     0.000 A 
ATOM      7  C   UNL     1      -1.482  -3.643   0.450  1.00  0.00     0.006 A 
ATOM      8  C   UNL     1      -1.390  -2.277   0.170  1.00  0.00    -0.021 A 
ATOM      9  C   UNL     1      -1.030  -1.618  -1.110  1.00  0.00     0.136 C 
ENDROOT
BRANCH   1  10
ATOM     10  S   UNL     1      -0.346   0.992  -1.706  1.00  0.00     0.219 S 
ATOM     11  O   UNL     1      -0.107   0.534  -3.118  1.00  0.00    -0.212 OA
ATOM     12  O   UNL     1       0.979   1.149  -1.013  1.00  0.00    -0.212 OA
BRANCH  10  13
ATOM     13  C   UNL     1      -1.167   2.581  -1.796  1.00  0.00     0.189 C 
BRANCH  13  14
ATOM     14  C   UNL     1      -1.446   3.151  -0.433  1.00  0.00    -0.032 A 
ATOM     15  C   UNL     1      -2.761   3.196   0.064  1.00  0.00     0.005 A 
ATOM     16  C   UNL     1      -0.397   3.651   0.357  1.00  0.00     0.005 A 
ATOM     17  C   UNL     1      -3.016   3.715   1.337  1.00  0.00     0.000 A 
ATOM     18  C   UNL     1      -0.656   4.168   1.629  1.00  0.00     0.000 A 
ATOM     19  C   UNL     1      -1.964   4.199   2.120  1.00  0.00     0.000 A 
ENDBRANCH  13  14
ENDBRANCH  10  13
ENDBRANCH   1  10
BRANCH   9  20
ATOM     20  C   UNL     1       0.428  -1.903  -1.418  1.00  0.00     0.000 A 
ATOM     21  C   UNL     1       1.512  -1.783  -0.548  1.00  0.00     0.089 A 
ATOM     22  C   UNL     1       0.964  -2.347  -2.614  1.00  0.00     0.005 A 
ATOM     23  N   UNL     1       2.661  -2.128  -1.170  1.00  0.00    -0.361 N 
ATOM     24  C   UNL     1       0.367  -2.643  -3.841  1.00  0.00     0.011 A 
ATOM     25  C   UNL     1       2.317  -2.468  -2.424  1.00  0.00     0.046 A 
ATOM     26  C   UNL     1       1.200  -3.075  -4.889  1.00  0.00     0.001 A 
ATOM     27  C   UNL     1       3.166  -2.894  -3.444  1.00  0.00     0.026 A 
ATOM     28  C   UNL     1       2.593  -3.200  -4.692  1.00  0.00     0.002 A 
ATOM     29  H   UNL     1       3.620  -2.128  -0.757  1.00  0.00     0.166 HD
ENDBRANCH   9  20
TORSDOF 4
