REMARK SMILES O=S(=O)(Cc1ccccc1)N1Cc2ccccc2[C@H]1c1c[nH]c2ccccc12
REMARK SMILES IDX 11 1 12 2 13 3 14 4 15 5 16 6 17 7 18 8 19 9 2 10 1 11 3 12
REMARK SMILES IDX 4 13 5 14 6 15 10 16 7 17 9 18 8 19 20 20 21 21 28 22 22 23
REMARK SMILES IDX 27 24 23 25 26 26 24 27 25 28
REMARK H PARENT 22 29
ROOT
ATOM      1  N   UNL     1      -0.391  -0.148  -0.125  1.00  0.00    -0.185 NA
ATOM      2  C   UNL     1      -0.994  -0.047   1.219  1.00  0.00     0.139 C 
ATOM      3  C   UNL     1      -2.219   0.757   1.016  1.00  0.00    -0.028 A 
ATOM      4  C   UNL     1      -3.253   0.999   1.921  1.00  0.00     0.005 A 
ATOM      5  C   UNL     1      -4.324   1.810   1.511  1.00  0.00     0.000 A 
ATOM      6  C   UNL     1      -4.338   2.364   0.216  1.00  0.00     0.000 A 
ATOM      7  C   UNL     1      -3.280   2.110  -0.671  1.00  0.00     0.006 A 
ATOM      8  C   UNL     1      -2.231   1.294  -0.240  1.00  0.00    -0.021 A 
ATOM      9  C   UNL     1      -0.986   0.931  -0.961  1.00  0.00     0.136 C 
ENDROOT
BRANCH   1  10
ATOM     10  S   UNL     1       1.360  -0.251  -0.102  1.00  0.00     0.219 S 
ATOM     11  O   UNL     1       1.943   0.801   0.801  1.00  0.00    -0.212 OA
ATOM     12  O   UNL     1       1.891  -0.048  -1.493  1.00  0.00    -0.212 OA
BRANCH  10  13
ATOM     13  C   UNL     1       1.897  -1.870   0.440  1.00  0.00     0.189 C 
BRANCH  13  14
ATOM     14  C   UNL     1       1.435  -2.181   1.837  1.00  0.00    -0.032 A 
ATOM     15  C   UNL     1       0.419  -3.128   2.056  1.00  0.00     0.005 A 
ATOM     16  C   UNL     1       2.019  -1.533   2.939  1.00  0.00     0.005 A 
ATOM     17  C   UNL     1      -0.017  -3.405   3.356  1.00  0.00     0.000 A 
ATOM     18  C   UNL     1       1.579  -1.814   4.236  1.00  0.00     0.000 A 
ATOM     19  C   UNL     1       0.561  -2.747   4.444  1.00  0.00     0.000 A 
ENDBRANCH  13  14
ENDBRANCH  10  13
ENDBRANCH   1  10
BRANCH   9  20
ATOM     20  C   UNL     1      -0.122   2.168  -1.109  1.00  0.00     0.000 A 
ATOM     21  C   UNL     1       0.206   3.091  -0.113  1.00  0.00     0.089 A 
ATOM     22  C   UNL     1       0.497   2.630  -2.256  1.00  0.00     0.005 A 
ATOM     23  N   UNL     1       0.992   4.070  -0.614  1.00  0.00    -0.361 N 
ATOM     24  C   UNL     1       0.528   2.125  -3.558  1.00  0.00     0.011 A 
ATOM     25  C   UNL     1       1.163   3.781  -1.915  1.00  0.00     0.046 A 
ATOM     26  C   UNL     1       1.267   2.836  -4.521  1.00  0.00     0.001 A 
ATOM     27  C   UNL     1       1.902   4.505  -2.849  1.00  0.00     0.026 A 
ATOM     28  C   UNL     1       1.951   4.020  -4.168  1.00  0.00     0.002 A 
ATOM     29  H   UNL     1       1.385   4.884  -0.091  1.00  0.00     0.166 HD
ENDBRANCH   9  20
TORSDOF 4
