REMARK SMILES O=S(=O)(Cc1ccccc1)N1C=Cc2ccccc2[C@@H]1c1c[nH]c2ccccc12
REMARK SMILES IDX 11 1 12 2 13 3 14 4 15 5 16 6 17 7 18 8 19 9 20 10 2 11 1 12
REMARK SMILES IDX 3 13 4 14 5 15 6 16 10 17 7 18 9 19 8 20 21 21 22 22 29 23
REMARK SMILES IDX 23 24 28 25 24 26 27 27 25 28 26 29
REMARK H PARENT 23 30
ROOT
ATOM      1  N   UNL     1      -0.781   0.294  -1.412  1.00  0.00    -0.265 N 
ATOM      2  C   UNL     1      -1.994   0.847  -0.872  1.00  0.00     0.099 C 
ATOM      3  C   UNL     1      -2.345   0.638   0.393  1.00  0.00     0.027 C 
ATOM      4  C   UNL     1      -1.494  -0.156   1.289  1.00  0.00    -0.019 A 
ATOM      5  C   UNL     1      -1.918  -0.426   2.599  1.00  0.00     0.008 A 
ATOM      6  C   UNL     1      -1.123  -1.196   3.451  1.00  0.00     0.001 A 
ATOM      7  C   UNL     1       0.098  -1.703   3.000  1.00  0.00     0.000 A 
ATOM      8  C   UNL     1       0.528  -1.438   1.698  1.00  0.00     0.007 A 
ATOM      9  C   UNL     1      -0.259  -0.657   0.833  1.00  0.00    -0.013 A 
ATOM     10  C   UNL     1       0.231  -0.370  -0.572  1.00  0.00     0.162 C 
ENDROOT
BRANCH   1  11
ATOM     11  S   UNL     1      -0.613   0.223  -3.142  1.00  0.00     0.239 S 
ATOM     12  O   UNL     1       0.834   0.361  -3.525  1.00  0.00    -0.206 OA
ATOM     13  O   UNL     1      -1.384   1.347  -3.778  1.00  0.00    -0.206 OA
BRANCH  11  14
ATOM     14  C   UNL     1      -1.238  -1.341  -3.734  1.00  0.00     0.195 C 
BRANCH  14  15
ATOM     15  C   UNL     1      -2.518  -1.686  -3.026  1.00  0.00    -0.031 A 
ATOM     16  C   UNL     1      -2.495  -2.479  -1.865  1.00  0.00     0.005 A 
ATOM     17  C   UNL     1      -3.737  -1.142  -3.463  1.00  0.00     0.005 A 
ATOM     18  C   UNL     1      -3.675  -2.729  -1.160  1.00  0.00     0.000 A 
ATOM     19  C   UNL     1      -4.916  -1.398  -2.756  1.00  0.00     0.000 A 
ATOM     20  C   UNL     1      -4.885  -2.190  -1.605  1.00  0.00     0.000 A 
ENDBRANCH  14  15
ENDBRANCH  11  14
ENDBRANCH   1  11
BRANCH  10  21
ATOM     21  C   UNL     1       1.497   0.449  -0.534  1.00  0.00     0.005 A 
ATOM     22  C   UNL     1       2.750   0.025  -0.970  1.00  0.00     0.089 A 
ATOM     23  C   UNL     1       1.685   1.739  -0.064  1.00  0.00     0.005 A 
ATOM     24  N   UNL     1       3.671   0.998  -0.789  1.00  0.00    -0.361 N 
ATOM     25  C   UNL     1       0.804   2.660   0.504  1.00  0.00     0.011 A 
ATOM     26  C   UNL     1       3.014   2.033  -0.239  1.00  0.00     0.046 A 
ATOM     27  C   UNL     1       1.316   3.912   0.891  1.00  0.00     0.001 A 
ATOM     28  C   UNL     1       3.550   3.265   0.135  1.00  0.00     0.026 A 
ATOM     29  C   UNL     1       2.683   4.213   0.706  1.00  0.00     0.002 A 
ATOM     30  H   UNL     1       4.686   0.949  -1.028  1.00  0.00     0.166 HD
ENDBRANCH  10  21
TORSDOF 4
