REMARK SMILES O=S(=O)(Cc1ccccc1)N1C=Cc2ccccc2[C@H]1c1c[nH]c2ccccc12
REMARK SMILES IDX 11 1 12 2 13 3 14 4 15 5 16 6 17 7 18 8 19 9 20 10 2 11 1 12
REMARK SMILES IDX 3 13 4 14 5 15 6 16 10 17 7 18 9 19 8 20 21 21 22 22 29 23
REMARK SMILES IDX 23 24 28 25 24 26 27 27 25 28 26 29
REMARK H PARENT 23 30
ROOT
ATOM      1  N   UNL     1       0.130   0.539  -0.655  1.00  0.00    -0.265 N 
ATOM      2  C   UNL     1       0.734   0.400   0.642  1.00  0.00     0.099 C 
ATOM      3  C   UNL     1       0.456  -0.637   1.427  1.00  0.00     0.027 C 
ATOM      4  C   UNL     1      -0.494  -1.672   0.997  1.00  0.00    -0.019 A 
ATOM      5  C   UNL     1      -0.718  -2.794   1.808  1.00  0.00     0.008 A 
ATOM      6  C   UNL     1      -1.606  -3.792   1.398  1.00  0.00     0.001 A 
ATOM      7  C   UNL     1      -2.273  -3.676   0.177  1.00  0.00     0.000 A 
ATOM      8  C   UNL     1      -2.057  -2.561  -0.635  1.00  0.00     0.007 A 
ATOM      9  C   UNL     1      -1.172  -1.546  -0.231  1.00  0.00    -0.013 A 
ATOM     10  C   UNL     1      -0.961  -0.337  -1.120  1.00  0.00     0.162 C 
ENDROOT
BRANCH   1  11
ATOM     11  S   UNL     1       0.859   1.643  -1.785  1.00  0.00     0.239 S 
ATOM     12  O   UNL     1      -0.192   2.228  -2.685  1.00  0.00    -0.206 OA
ATOM     13  O   UNL     1       1.531   2.764  -1.042  1.00  0.00    -0.206 OA
BRANCH  11  14
ATOM     14  C   UNL     1       2.066   0.770  -2.769  1.00  0.00     0.195 C 
BRANCH  14  15
ATOM     15  C   UNL     1       2.870  -0.155  -1.899  1.00  0.00    -0.031 A 
ATOM     16  C   UNL     1       2.479  -1.495  -1.737  1.00  0.00     0.005 A 
ATOM     17  C   UNL     1       3.964   0.336  -1.167  1.00  0.00     0.005 A 
ATOM     18  C   UNL     1       3.178  -2.332  -0.862  1.00  0.00     0.000 A 
ATOM     19  C   UNL     1       4.662  -0.505  -0.295  1.00  0.00     0.000 A 
ATOM     20  C   UNL     1       4.269  -1.838  -0.142  1.00  0.00     0.000 A 
ENDBRANCH  14  15
ENDBRANCH  11  14
ENDBRANCH   1  11
BRANCH  10  21
ATOM     21  C   UNL     1      -2.240   0.449  -1.258  1.00  0.00     0.005 A 
ATOM     22  C   UNL     1      -2.962   0.622  -2.437  1.00  0.00     0.089 A 
ATOM     23  C   UNL     1      -2.953   1.128  -0.283  1.00  0.00     0.005 A 
ATOM     24  N   UNL     1      -4.063   1.374  -2.214  1.00  0.00    -0.361 N 
ATOM     25  C   UNL     1      -2.731   1.297   1.084  1.00  0.00     0.011 A 
ATOM     26  C   UNL     1      -4.049   1.675  -0.905  1.00  0.00     0.046 A 
ATOM     27  C   UNL     1      -3.664   2.055   1.815  1.00  0.00     0.001 A 
ATOM     28  C   UNL     1      -4.989   2.430  -0.205  1.00  0.00     0.026 A 
ATOM     29  C   UNL     1      -4.788   2.619   1.173  1.00  0.00     0.002 A 
ATOM     30  H   UNL     1      -4.779   1.657  -2.919  1.00  0.00     0.166 HD
ENDBRANCH  10  21
TORSDOF 4
