AutoDock-GPU version: v1.6

**********************************************************
**    AutoDock-GPU AUTODOCKTOOLS-COMPATIBLE DLG FILE    **
**********************************************************


    DOCKING PARAMETERS
    ________________________


Ligand file:                               /home/a/REINVENT4/ReinventStudies/pleaseWork/DH_paper_finaltest_rnv_als_qed_tani/graph-dock/graph-DockGPU/node-autodockgpu/inputs/PLYFEKJTBGHLFX-WYUMXYHSNA-N.pdbqt
Grid fld file:                             /home/a/REINVENT4/ReinventStudies/mols/Rad51/maps/rad51_receptor.maps.fld

Random seed:                               42
Number of runs:                            20
Number of energy evaluations:              1132076
Number of generations:                     42000
Size of population:                        150
Rate of crossover:                         80.000000%
Tournament selection probability limit:    60.000000%
Rate of mutation:                          2.000000%
Maximal allowed delta movement:            +/- 6.000000A
Maximal allowed delta angle:               +/- 90.000000

Rate of local search:                      100.000000%
Maximal number of local search iterations: 300
Rho lower bound:                           0.010000
Spread of local search delta movement:     2.000000A
Spread of local search delta angle:        74.999999
Limit of consecutive successes/failures:   4

Handle symmetry during clustering:         YES
RMSD tolerance:                            2.000000A

Program call in command line was:          /home/a/REINVENT4/ReinventStudies/adgpu-v1.6_linux_x64_cuda12_128wi --filelist batch.txt --heuristics 1 --nrun 20 --psize 150 --lsit 300 --seed 42 --heurmax 12000000 


    GRID PARAMETERS
    ________________________


Receptor name:                             rad51_receptor
Number of grid points (x, y, z):           53, 53, 53
Grid center (x, y, z):                     139.950000, 75.640000, 221.970000A
Grid size (x, y, z):                       19.500000, 19.500000, 19.500000A
Grid spacing:                              0.375000A


    LIGAND PARAMETERS
    ________________________


Ligand name:                               /home/a/REINVENT4/ReinventStudies/pleaseWork/DH_paper_finaltest_rnv_als_qed_tani/graph-dock/graph-DockGPU/node-autodockgpu/inputs/PLYFEKJTBGHLFX-WYUMXYHSNA-N
Number of atoms:                           19
Number of rotatable bonds:                 3
Number of atom types:                      6


    DUMMY DATA (only for ADT-compatibility)
    ________________________


DPF> outlev 1
DPF> ga_run 20
DPF> fld /home/a/REINVENT4/ReinventStudies/mols/Rad51/maps/rad51_receptor.maps.fld
DPF> move /home/a/REINVENT4/ReinventStudies/pleaseWork/DH_paper_finaltest_rnv_als_qed_tani/graph-dock/graph-DockGPU/node-autodockgpu/inputs/PLYFEKJTBGHLFX-WYUMXYHSNA-N.pdbqt


    COUNTER STATES
    ________________________


Number of energy evaluations performed:    566980
Number of generations used:                25


    INPUT LIGAND PDBQT FILE:
    ________________________


INPUT-LIGAND-PDBQT: REMARK SMILES COc1cc(C)ccc1NC(=O)c1cccnc1
INPUT-LIGAND-PDBQT: REMARK SMILES IDX 3 1 4 2 5 3 6 4 7 5 8 6 9 7 2 8 1 9 10 10 11 11 12 13 13 14
INPUT-LIGAND-PDBQT: REMARK SMILES IDX 14 15 18 16 15 17 17 18 16 19
INPUT-LIGAND-PDBQT: REMARK H PARENT 10 12
INPUT-LIGAND-PDBQT: ROOT
INPUT-LIGAND-PDBQT: ATOM      1  C   UNL     1       0.987  -1.281   2.314  1.00  0.00     0.142 A 
INPUT-LIGAND-PDBQT: ATOM      2  C   UNL     1       1.609  -2.474   2.734  1.00  0.00     0.052 A 
INPUT-LIGAND-PDBQT: ATOM      3  C   UNL     1       2.630  -3.054   1.968  1.00  0.00    -0.047 A 
INPUT-LIGAND-PDBQT: ATOM      4  C   UNL     1       3.313  -4.303   2.443  1.00  0.00     0.044 C 
INPUT-LIGAND-PDBQT: ATOM      5  C   UNL     1       3.059  -2.418   0.797  1.00  0.00     0.006 A 
INPUT-LIGAND-PDBQT: ATOM      6  C   UNL     1       2.450  -1.236   0.374  1.00  0.00     0.030 A 
INPUT-LIGAND-PDBQT: ATOM      7  C   UNL     1       1.399  -0.670   1.115  1.00  0.00     0.084 A 
INPUT-LIGAND-PDBQT: ENDROOT
INPUT-LIGAND-PDBQT: BRANCH   1   8
INPUT-LIGAND-PDBQT: ATOM      8  O   UNL     1      -0.046  -0.682   3.055  1.00  0.00    -0.495 OA
INPUT-LIGAND-PDBQT: ATOM      9  C   UNL     1      -0.563  -1.191   4.280  1.00  0.00     0.278 C 
INPUT-LIGAND-PDBQT: ENDBRANCH   1   8
INPUT-LIGAND-PDBQT: BRANCH   7  10
INPUT-LIGAND-PDBQT: ATOM     10  N   UNL     1       0.788   0.564   0.698  1.00  0.00    -0.319 N 
INPUT-LIGAND-PDBQT: ATOM     11  C   UNL     1       0.443   0.858  -0.669  1.00  0.00     0.257 C 
INPUT-LIGAND-PDBQT: ATOM     12  H   UNL     1       0.555   1.255   1.444  1.00  0.00     0.170 HD
INPUT-LIGAND-PDBQT: ATOM     13  O   UNL     1       0.626  -0.012  -1.564  1.00  0.00    -0.269 OA
INPUT-LIGAND-PDBQT: BRANCH  11  14
INPUT-LIGAND-PDBQT: ATOM     14  C   UNL     1      -0.134   2.170  -1.052  1.00  0.00     0.058 A 
INPUT-LIGAND-PDBQT: ATOM     15  C   UNL     1      -0.905   2.930  -0.154  1.00  0.00     0.017 A 
INPUT-LIGAND-PDBQT: ATOM     16  C   UNL     1       0.059   2.671  -2.351  1.00  0.00     0.124 A 
INPUT-LIGAND-PDBQT: ATOM     17  C   UNL     1      -1.438   4.157  -0.552  1.00  0.00     0.021 A 
INPUT-LIGAND-PDBQT: ATOM     18  N   UNL     1      -0.470   3.870  -2.712  1.00  0.00    -0.264 NA
INPUT-LIGAND-PDBQT: ATOM     19  C   UNL     1      -1.205   4.617  -1.847  1.00  0.00     0.111 A 
INPUT-LIGAND-PDBQT: ENDBRANCH  11  14
INPUT-LIGAND-PDBQT: ENDBRANCH   7  10
INPUT-LIGAND-PDBQT: TORSDOF 3


    FINAL DOCKED STATE:
    ________________________


Run:   1 / 20
Time taken for this run:   0.016s

DOCKED: MODEL        1
DOCKED: USER    Run = 1
DOCKED: USER
DOCKED: USER    Estimated Free Energy of Binding    =  -5.17 kcal/mol  [=(1)+(2)+(3)-(4)]
DOCKED: USER
DOCKED: USER    (1) Final Intermolecular Energy     =  -6.07 kcal/mol
DOCKED: USER        vdW + Hbond + desolv Energy     =  -6.09 kcal/mol
DOCKED: USER        Electrostatic Energy            =  +0.03 kcal/mol
DOCKED: USER        Moving Ligand-Fixed Receptor    =  -6.07 kcal/mol
DOCKED: USER        Moving Ligand-Moving Receptor   =  +0.00 kcal/mol
DOCKED: USER    (2) Final Total Internal Energy     =  -0.73 kcal/mol
DOCKED: USER    (3) Torsional Free Energy           =  +0.89 kcal/mol
DOCKED: USER    (4) Unbound System's Energy         =  -0.73 kcal/mol
DOCKED: USER
DOCKED: USER
DOCKED: REMARK SMILES COc1cc(C)ccc1NC(=O)c1cccnc1
DOCKED: REMARK SMILES IDX 3 1 4 2 5 3 6 4 7 5 8 6 9 7 2 8 1 9 10 10 11 11 12 13 13 14
DOCKED: REMARK SMILES IDX 14 15 18 16 15 17 17 18 16 19
DOCKED: REMARK H PARENT 10 12
DOCKED: USER                              x       y       z     vdW  Elec       q    Type
DOCKED: USER                           _______ _______ _______ _____ _____    ______ ____
DOCKED: ROOT
DOCKED: ATOM      1  C   UNL     1     141.025  78.832 222.958 -0.41 -0.04    +0.142 A  
DOCKED: ATOM      2  C   UNL     1     140.149  79.751 223.570 -0.43 -0.01    +0.052 A  
DOCKED: ATOM      3  C   UNL     1     138.762  79.544 223.537 -0.34 +0.01    -0.047 A  
DOCKED: ATOM      4  C   UNL     1     137.840  80.508 224.225 -0.35 -0.00    +0.044 C  
DOCKED: ATOM      5  C   UNL     1     138.251  78.394 222.925 -0.25 -0.00    +0.006 A  
DOCKED: ATOM      6  C   UNL     1     139.111  77.478 222.317 -0.30 -0.01    +0.030 A  
DOCKED: ATOM      7  C   UNL     1     140.499  77.698 222.311 -0.36 -0.03    +0.084 A  
DOCKED: ENDROOT
DOCKED: BRANCH   1   8
DOCKED: ATOM      8  O   UNL     1     142.418  79.017 222.965 -0.22 +0.24    -0.495 OA 
DOCKED: ATOM      9  C   UNL     1     143.066  80.276 223.119 -0.40 -0.09    +0.278 C  
DOCKED: ENDBRANCH   1   8
DOCKED: BRANCH   7  10
DOCKED: ATOM     10  N   UNL     1     141.391  76.742 221.712 -0.09 +0.16    -0.319 N  
DOCKED: ATOM     11  C   UNL     1     141.088  75.339 221.591 -0.23 -0.06    +0.257 C  
DOCKED: ATOM     12  H   UNL     1     142.284  77.108 221.315 -0.47 -0.15    +0.170 HD 
DOCKED: ATOM     13  O   UNL     1     139.968  74.903 221.974 -0.73 +0.03    -0.269 OA 
DOCKED: BRANCH  11  14
DOCKED: ATOM     14  C   UNL     1     142.069  74.387 221.015 -0.22 -0.01    +0.058 A  
DOCKED: ATOM     15  C   UNL     1     143.253  74.827 220.397 -0.35 -0.01    +0.017 A  
DOCKED: ATOM     16  C   UNL     1     141.813  73.005 221.052 -0.21 -0.02    +0.124 A  
DOCKED: ATOM     17  C   UNL     1     144.149  73.902 219.859 -0.38 -0.01    +0.021 A  
DOCKED: ATOM     18  N   UNL     1     142.704  72.126 220.522 -0.12 +0.03    -0.264 NA 
DOCKED: ATOM     19  C   UNL     1     143.857  72.542 219.935 -0.24 -0.01    +0.111 A  
DOCKED: ENDBRANCH  11  14
DOCKED: ENDBRANCH   7  10
DOCKED: TORSDOF 3
DOCKED: TER
DOCKED: ENDMDL
________________________________________________________________________________


    FINAL DOCKED STATE:
    ________________________


Run:   2 / 20
Time taken for this run:   0.016s

DOCKED: MODEL        2
DOCKED: USER    Run = 2
DOCKED: USER
DOCKED: USER    Estimated Free Energy of Binding    =  -5.17 kcal/mol  [=(1)+(2)+(3)-(4)]
DOCKED: USER
DOCKED: USER    (1) Final Intermolecular Energy     =  -6.07 kcal/mol
DOCKED: USER        vdW + Hbond + desolv Energy     =  -6.09 kcal/mol
DOCKED: USER        Electrostatic Energy            =  +0.03 kcal/mol
DOCKED: USER        Moving Ligand-Fixed Receptor    =  -6.07 kcal/mol
DOCKED: USER        Moving Ligand-Moving Receptor   =  +0.00 kcal/mol
DOCKED: USER    (2) Final Total Internal Energy     =  -0.73 kcal/mol
DOCKED: USER    (3) Torsional Free Energy           =  +0.89 kcal/mol
DOCKED: USER    (4) Unbound System's Energy         =  -0.73 kcal/mol
DOCKED: USER
DOCKED: USER
DOCKED: REMARK SMILES COc1cc(C)ccc1NC(=O)c1cccnc1
DOCKED: REMARK SMILES IDX 3 1 4 2 5 3 6 4 7 5 8 6 9 7 2 8 1 9 10 10 11 11 12 13 13 14
DOCKED: REMARK SMILES IDX 14 15 18 16 15 17 17 18 16 19
DOCKED: REMARK H PARENT 10 12
DOCKED: USER                              x       y       z     vdW  Elec       q    Type
DOCKED: USER                           _______ _______ _______ _____ _____    ______ ____
DOCKED: ROOT
DOCKED: ATOM      1  C   UNL     1     140.993  78.835 222.959 -0.40 -0.04    +0.142 A  
DOCKED: ATOM      2  C   UNL     1     140.116  79.752 223.572 -0.42 -0.01    +0.052 A  
DOCKED: ATOM      3  C   UNL     1     138.729  79.552 223.526 -0.33 +0.01    -0.047 A  
DOCKED: ATOM      4  C   UNL     1     137.805  80.513 224.216 -0.35 -0.00    +0.044 C  
DOCKED: ATOM      5  C   UNL     1     138.218  78.410 222.899 -0.25 -0.00    +0.006 A  
DOCKED: ATOM      6  C   UNL     1     139.078  77.496 222.290 -0.29 -0.01    +0.030 A  
DOCKED: ATOM      7  C   UNL     1     140.467  77.710 222.297 -0.36 -0.03    +0.084 A  
DOCKED: ENDROOT
DOCKED: BRANCH   1   8
DOCKED: ATOM      8  O   UNL     1     142.387  79.014 222.979 -0.22 +0.23    -0.495 OA 
DOCKED: ATOM      9  C   UNL     1     143.039  80.273 223.106 -0.41 -0.09    +0.278 C  
DOCKED: ENDBRANCH   1   8
DOCKED: BRANCH   7  10
DOCKED: ATOM     10  N   UNL     1     141.360  76.755 221.696 -0.10 +0.16    -0.319 N  
DOCKED: ATOM     11  C   UNL     1     141.066  75.349 221.590 -0.23 -0.06    +0.257 C  
DOCKED: ATOM     12  H   UNL     1     142.245  77.125 221.286 -0.47 -0.15    +0.170 HD 
DOCKED: ATOM     13  O   UNL     1     139.954  74.908 221.990 -0.73 +0.03    -0.269 OA 
DOCKED: BRANCH  11  14
DOCKED: ATOM     14  C   UNL     1     142.048  74.399 221.011 -0.22 -0.01    +0.058 A  
DOCKED: ATOM     15  C   UNL     1     143.242  74.841 220.414 -0.34 -0.01    +0.017 A  
DOCKED: ATOM     16  C   UNL     1     141.782  73.019 221.023 -0.21 -0.02    +0.124 A  
DOCKED: ATOM     17  C   UNL     1     144.139  73.919 219.873 -0.38 -0.01    +0.021 A  
DOCKED: ATOM     18  N   UNL     1     142.674  72.142 220.491 -0.12 +0.04    -0.264 NA 
DOCKED: ATOM     19  C   UNL     1     143.836  72.559 219.924 -0.24 -0.01    +0.111 A  
DOCKED: ENDBRANCH  11  14
DOCKED: ENDBRANCH   7  10
DOCKED: TORSDOF 3
DOCKED: TER
DOCKED: ENDMDL
________________________________________________________________________________


    FINAL DOCKED STATE:
    ________________________


Run:   3 / 20
Time taken for this run:   0.016s

DOCKED: MODEL        3
DOCKED: USER    Run = 3
DOCKED: USER
DOCKED: USER    Estimated Free Energy of Binding    =  -5.17 kcal/mol  [=(1)+(2)+(3)-(4)]
DOCKED: USER
DOCKED: USER    (1) Final Intermolecular Energy     =  -6.06 kcal/mol
DOCKED: USER        vdW + Hbond + desolv Energy     =  -6.09 kcal/mol
DOCKED: USER        Electrostatic Energy            =  +0.02 kcal/mol
DOCKED: USER        Moving Ligand-Fixed Receptor    =  -6.06 kcal/mol
DOCKED: USER        Moving Ligand-Moving Receptor   =  +0.00 kcal/mol
DOCKED: USER    (2) Final Total Internal Energy     =  -0.73 kcal/mol
DOCKED: USER    (3) Torsional Free Energy           =  +0.89 kcal/mol
DOCKED: USER    (4) Unbound System's Energy         =  -0.73 kcal/mol
DOCKED: USER
DOCKED: USER
DOCKED: REMARK SMILES COc1cc(C)ccc1NC(=O)c1cccnc1
DOCKED: REMARK SMILES IDX 3 1 4 2 5 3 6 4 7 5 8 6 9 7 2 8 1 9 10 10 11 11 12 13 13 14
DOCKED: REMARK SMILES IDX 14 15 18 16 15 17 17 18 16 19
DOCKED: REMARK H PARENT 10 12
DOCKED: USER                              x       y       z     vdW  Elec       q    Type
DOCKED: USER                           _______ _______ _______ _____ _____    ______ ____
DOCKED: ROOT
DOCKED: ATOM      1  C   UNL     1     141.005  78.846 222.980 -0.41 -0.04    +0.142 A  
DOCKED: ATOM      2  C   UNL     1     140.123  79.759 223.594 -0.42 -0.01    +0.052 A  
DOCKED: ATOM      3  C   UNL     1     138.736  79.567 223.525 -0.34 +0.01    -0.047 A  
DOCKED: ATOM      4  C   UNL     1     137.807  80.522 224.214 -0.35 -0.00    +0.044 C  
DOCKED: ATOM      5  C   UNL     1     138.229  78.436 222.873 -0.25 -0.00    +0.006 A  
DOCKED: ATOM      6  C   UNL     1     139.094  77.527 222.264 -0.29 -0.01    +0.030 A  
DOCKED: ATOM      7  C   UNL     1     140.483  77.734 222.294 -0.36 -0.03    +0.084 A  
DOCKED: ENDROOT
DOCKED: BRANCH   1   8
DOCKED: ATOM      8  O   UNL     1     142.399  79.018 223.023 -0.22 +0.23    -0.495 OA 
DOCKED: ATOM      9  C   UNL     1     143.057  80.278 223.092 -0.41 -0.09    +0.278 C  
DOCKED: ENDBRANCH   1   8
DOCKED: BRANCH   7  10
DOCKED: ATOM     10  N   UNL     1     141.380  76.783 221.692 -0.10 +0.16    -0.319 N  
DOCKED: ATOM     11  C   UNL     1     141.091  75.377 221.582 -0.23 -0.07    +0.257 C  
DOCKED: ATOM     12  H   UNL     1     142.265  77.156 221.285 -0.47 -0.15    +0.170 HD 
DOCKED: ATOM     13  O   UNL     1     139.979  74.931 221.978 -0.72 +0.03    -0.269 OA 
DOCKED: BRANCH  11  14
DOCKED: ATOM     14  C   UNL     1     142.076  74.431 221.002 -0.22 -0.02    +0.058 A  
DOCKED: ATOM     15  C   UNL     1     143.258  74.880 220.386 -0.34 -0.01    +0.017 A  
DOCKED: ATOM     16  C   UNL     1     141.827  73.048 221.034 -0.21 -0.02    +0.124 A  
DOCKED: ATOM     17  C   UNL     1     144.159  73.961 219.846 -0.38 -0.01    +0.021 A  
DOCKED: ATOM     18  N   UNL     1     142.722  72.175 220.501 -0.12 +0.04    -0.264 NA 
DOCKED: ATOM     19  C   UNL     1     143.873  72.599 219.915 -0.24 -0.01    +0.111 A  
DOCKED: ENDBRANCH  11  14
DOCKED: ENDBRANCH   7  10
DOCKED: TORSDOF 3
DOCKED: TER
DOCKED: ENDMDL
________________________________________________________________________________


    FINAL DOCKED STATE:
    ________________________


Run:   4 / 20
Time taken for this run:   0.016s

DOCKED: MODEL        4
DOCKED: USER    Run = 4
DOCKED: USER
DOCKED: USER    Estimated Free Energy of Binding    =  -5.17 kcal/mol  [=(1)+(2)+(3)-(4)]
DOCKED: USER
DOCKED: USER    (1) Final Intermolecular Energy     =  -6.07 kcal/mol
DOCKED: USER        vdW + Hbond + desolv Energy     =  -6.09 kcal/mol
DOCKED: USER        Electrostatic Energy            =  +0.02 kcal/mol
DOCKED: USER        Moving Ligand-Fixed Receptor    =  -6.07 kcal/mol
DOCKED: USER        Moving Ligand-Moving Receptor   =  +0.00 kcal/mol
DOCKED: USER    (2) Final Total Internal Energy     =  -0.73 kcal/mol
DOCKED: USER    (3) Torsional Free Energy           =  +0.89 kcal/mol
DOCKED: USER    (4) Unbound System's Energy         =  -0.73 kcal/mol
DOCKED: USER
DOCKED: USER
DOCKED: REMARK SMILES COc1cc(C)ccc1NC(=O)c1cccnc1
DOCKED: REMARK SMILES IDX 3 1 4 2 5 3 6 4 7 5 8 6 9 7 2 8 1 9 10 10 11 11 12 13 13 14
DOCKED: REMARK SMILES IDX 14 15 18 16 15 17 17 18 16 19
DOCKED: REMARK H PARENT 10 12
DOCKED: USER                              x       y       z     vdW  Elec       q    Type
DOCKED: USER                           _______ _______ _______ _____ _____    ______ ____
DOCKED: ROOT
DOCKED: ATOM      1  C   UNL     1     140.998  78.844 222.995 -0.41 -0.04    +0.142 A  
DOCKED: ATOM      2  C   UNL     1     140.116  79.759 223.603 -0.42 -0.01    +0.052 A  
DOCKED: ATOM      3  C   UNL     1     138.729  79.572 223.525 -0.34 +0.01    -0.047 A  
DOCKED: ATOM      4  C   UNL     1     137.798  80.530 224.209 -0.35 -0.00    +0.044 C  
DOCKED: ATOM      5  C   UNL     1     138.221  78.443 222.869 -0.25 -0.00    +0.006 A  
DOCKED: ATOM      6  C   UNL     1     139.087  77.531 222.265 -0.29 -0.01    +0.030 A  
DOCKED: ATOM      7  C   UNL     1     140.477  77.733 222.305 -0.36 -0.03    +0.084 A  
DOCKED: ENDROOT
DOCKED: BRANCH   1   8
DOCKED: ATOM      8  O   UNL     1     142.393  79.011 223.047 -0.22 +0.23    -0.495 OA 
DOCKED: ATOM      9  C   UNL     1     143.055  80.270 223.107 -0.41 -0.09    +0.278 C  
DOCKED: ENDBRANCH   1   8
DOCKED: BRANCH   7  10
DOCKED: ATOM     10  N   UNL     1     141.375  76.780 221.708 -0.10 +0.16    -0.319 N  
DOCKED: ATOM     11  C   UNL     1     141.081  75.375 221.593 -0.23 -0.07    +0.257 C  
DOCKED: ATOM     12  H   UNL     1     142.265  77.151 221.309 -0.47 -0.15    +0.170 HD 
DOCKED: ATOM     13  O   UNL     1     139.964  74.934 221.979 -0.72 +0.03    -0.269 OA 
DOCKED: BRANCH  11  14
DOCKED: ATOM     14  C   UNL     1     142.067  74.427 221.019 -0.22 -0.01    +0.058 A  
DOCKED: ATOM     15  C   UNL     1     143.261  74.871 220.424 -0.34 -0.01    +0.017 A  
DOCKED: ATOM     16  C   UNL     1     141.806  73.046 221.035 -0.21 -0.02    +0.124 A  
DOCKED: ATOM     17  C   UNL     1     144.163  73.950 219.888 -0.39 -0.01    +0.021 A  
DOCKED: ATOM     18  N   UNL     1     142.702  72.170 220.507 -0.12 +0.04    -0.264 NA 
DOCKED: ATOM     19  C   UNL     1     143.864  72.589 219.942 -0.24 -0.01    +0.111 A  
DOCKED: ENDBRANCH  11  14
DOCKED: ENDBRANCH   7  10
DOCKED: TORSDOF 3
DOCKED: TER
DOCKED: ENDMDL
________________________________________________________________________________


    FINAL DOCKED STATE:
    ________________________


Run:   5 / 20
Time taken for this run:   0.016s

DOCKED: MODEL        5
DOCKED: USER    Run = 5
DOCKED: USER
DOCKED: USER    Estimated Free Energy of Binding    =  -5.17 kcal/mol  [=(1)+(2)+(3)-(4)]
DOCKED: USER
DOCKED: USER    (1) Final Intermolecular Energy     =  -6.07 kcal/mol
DOCKED: USER        vdW + Hbond + desolv Energy     =  -6.09 kcal/mol
DOCKED: USER        Electrostatic Energy            =  +0.02 kcal/mol
DOCKED: USER        Moving Ligand-Fixed Receptor    =  -6.07 kcal/mol
DOCKED: USER        Moving Ligand-Moving Receptor   =  +0.00 kcal/mol
DOCKED: USER    (2) Final Total Internal Energy     =  -0.73 kcal/mol
DOCKED: USER    (3) Torsional Free Energy           =  +0.89 kcal/mol
DOCKED: USER    (4) Unbound System's Energy         =  -0.73 kcal/mol
DOCKED: USER
DOCKED: USER
DOCKED: REMARK SMILES COc1cc(C)ccc1NC(=O)c1cccnc1
DOCKED: REMARK SMILES IDX 3 1 4 2 5 3 6 4 7 5 8 6 9 7 2 8 1 9 10 10 11 11 12 13 13 14
DOCKED: REMARK SMILES IDX 14 15 18 16 15 17 17 18 16 19
DOCKED: REMARK H PARENT 10 12
DOCKED: USER                              x       y       z     vdW  Elec       q    Type
DOCKED: USER                           _______ _______ _______ _____ _____    ______ ____
DOCKED: ROOT
DOCKED: ATOM      1  C   UNL     1     140.980  78.847 222.972 -0.40 -0.04    +0.142 A  
DOCKED: ATOM      2  C   UNL     1     140.096  79.759 223.581 -0.42 -0.01    +0.052 A  
DOCKED: ATOM      3  C   UNL     1     138.710  79.556 223.522 -0.33 +0.01    -0.047 A  
DOCKED: ATOM      4  C   UNL     1     137.778  80.513 224.207 -0.35 -0.00    +0.044 C  
DOCKED: ATOM      5  C   UNL     1     138.207  78.416 222.886 -0.25 -0.00    +0.006 A  
DOCKED: ATOM      6  C   UNL     1     139.075  77.506 222.281 -0.29 -0.01    +0.030 A  
DOCKED: ATOM      7  C   UNL     1     140.463  77.723 222.301 -0.36 -0.03    +0.084 A  
DOCKED: ENDROOT
DOCKED: BRANCH   1   8
DOCKED: ATOM      8  O   UNL     1     142.374  79.029 223.005 -0.22 +0.23    -0.495 OA 
DOCKED: ATOM      9  C   UNL     1     143.022  80.290 223.134 -0.41 -0.08    +0.278 C  
DOCKED: ENDBRANCH   1   8
DOCKED: BRANCH   7  10
DOCKED: ATOM     10  N   UNL     1     141.363  76.772 221.704 -0.10 +0.16    -0.319 N  
DOCKED: ATOM     11  C   UNL     1     141.073  75.367 221.589 -0.23 -0.06    +0.257 C  
DOCKED: ATOM     12  H   UNL     1     142.252  77.145 221.305 -0.47 -0.15    +0.170 HD 
DOCKED: ATOM     13  O   UNL     1     139.957  74.922 221.975 -0.72 +0.03    -0.269 OA 
DOCKED: BRANCH  11  14
DOCKED: ATOM     14  C   UNL     1     142.062  74.421 221.015 -0.22 -0.01    +0.058 A  
DOCKED: ATOM     15  C   UNL     1     143.265  74.868 220.440 -0.34 -0.01    +0.017 A  
DOCKED: ATOM     16  C   UNL     1     141.795  73.041 221.011 -0.21 -0.02    +0.124 A  
DOCKED: ATOM     17  C   UNL     1     144.169  73.949 219.903 -0.39 -0.01    +0.021 A  
DOCKED: ATOM     18  N   UNL     1     142.693  72.168 220.483 -0.12 +0.04    -0.264 NA 
DOCKED: ATOM     19  C   UNL     1     143.864  72.589 219.937 -0.24 -0.01    +0.111 A  
DOCKED: ENDBRANCH  11  14
DOCKED: ENDBRANCH   7  10
DOCKED: TORSDOF 3
DOCKED: TER
DOCKED: ENDMDL
________________________________________________________________________________


    FINAL DOCKED STATE:
    ________________________


Run:   6 / 20
Time taken for this run:   0.016s

DOCKED: MODEL        6
DOCKED: USER    Run = 6
DOCKED: USER
DOCKED: USER    Estimated Free Energy of Binding    =  -5.17 kcal/mol  [=(1)+(2)+(3)-(4)]
DOCKED: USER
DOCKED: USER    (1) Final Intermolecular Energy     =  -6.07 kcal/mol
DOCKED: USER        vdW + Hbond + desolv Energy     =  -6.10 kcal/mol
DOCKED: USER        Electrostatic Energy            =  +0.03 kcal/mol
DOCKED: USER        Moving Ligand-Fixed Receptor    =  -6.07 kcal/mol
DOCKED: USER        Moving Ligand-Moving Receptor   =  +0.00 kcal/mol
DOCKED: USER    (2) Final Total Internal Energy     =  -0.73 kcal/mol
DOCKED: USER    (3) Torsional Free Energy           =  +0.89 kcal/mol
DOCKED: USER    (4) Unbound System's Energy         =  -0.73 kcal/mol
DOCKED: USER
DOCKED: USER
DOCKED: REMARK SMILES COc1cc(C)ccc1NC(=O)c1cccnc1
DOCKED: REMARK SMILES IDX 3 1 4 2 5 3 6 4 7 5 8 6 9 7 2 8 1 9 10 10 11 11 12 13 13 14
DOCKED: REMARK SMILES IDX 14 15 18 16 15 17 17 18 16 19
DOCKED: REMARK H PARENT 10 12
DOCKED: USER                              x       y       z     vdW  Elec       q    Type
DOCKED: USER                           _______ _______ _______ _____ _____    ______ ____
DOCKED: ROOT
DOCKED: ATOM      1  C   UNL     1     141.006  78.832 222.957 -0.41 -0.04    +0.142 A  
DOCKED: ATOM      2  C   UNL     1     140.132  79.750 223.572 -0.43 -0.01    +0.052 A  
DOCKED: ATOM      3  C   UNL     1     138.745  79.553 223.530 -0.34 +0.01    -0.047 A  
DOCKED: ATOM      4  C   UNL     1     137.824  80.515 224.221 -0.35 -0.00    +0.044 C  
DOCKED: ATOM      5  C   UNL     1     138.230  78.411 222.904 -0.25 -0.00    +0.006 A  
DOCKED: ATOM      6  C   UNL     1     139.088  77.495 222.293 -0.30 -0.01    +0.030 A  
DOCKED: ATOM      7  C   UNL     1     140.477  77.707 222.297 -0.36 -0.03    +0.084 A  
DOCKED: ENDROOT
DOCKED: BRANCH   1   8
DOCKED: ATOM      8  O   UNL     1     142.400  79.009 222.973 -0.22 +0.24    -0.495 OA 
DOCKED: ATOM      9  C   UNL     1     143.055  80.268 223.095 -0.41 -0.09    +0.278 C  
DOCKED: ENDBRANCH   1   8
DOCKED: BRANCH   7  10
DOCKED: ATOM     10  N   UNL     1     141.367  76.751 221.694 -0.10 +0.16    -0.319 N  
DOCKED: ATOM     11  C   UNL     1     141.072  75.345 221.592 -0.23 -0.06    +0.257 C  
DOCKED: ATOM     12  H   UNL     1     142.251  77.119 221.280 -0.47 -0.15    +0.170 HD 
DOCKED: ATOM     13  O   UNL     1     139.961  74.905 221.996 -0.73 +0.03    -0.269 OA 
DOCKED: BRANCH  11  14
DOCKED: ATOM     14  C   UNL     1     142.051  74.394 221.010 -0.22 -0.01    +0.058 A  
DOCKED: ATOM     15  C   UNL     1     143.243  74.834 220.408 -0.34 -0.01    +0.017 A  
DOCKED: ATOM     16  C   UNL     1     141.786  73.014 221.026 -0.21 -0.02    +0.124 A  
DOCKED: ATOM     17  C   UNL     1     144.138  73.910 219.865 -0.38 -0.01    +0.021 A  
DOCKED: ATOM     18  N   UNL     1     142.675  72.135 220.492 -0.12 +0.03    -0.264 NA 
DOCKED: ATOM     19  C   UNL     1     143.835  72.551 219.920 -0.24 -0.01    +0.111 A  
DOCKED: ENDBRANCH  11  14
DOCKED: ENDBRANCH   7  10
DOCKED: TORSDOF 3
DOCKED: TER
DOCKED: ENDMDL
________________________________________________________________________________


    FINAL DOCKED STATE:
    ________________________


Run:   7 / 20
Time taken for this run:   0.016s

DOCKED: MODEL        7
DOCKED: USER    Run = 7
DOCKED: USER
DOCKED: USER    Estimated Free Energy of Binding    =  -5.17 kcal/mol  [=(1)+(2)+(3)-(4)]
DOCKED: USER
DOCKED: USER    (1) Final Intermolecular Energy     =  -6.07 kcal/mol
DOCKED: USER        vdW + Hbond + desolv Energy     =  -6.09 kcal/mol
DOCKED: USER        Electrostatic Energy            =  +0.03 kcal/mol
DOCKED: USER        Moving Ligand-Fixed Receptor    =  -6.07 kcal/mol
DOCKED: USER        Moving Ligand-Moving Receptor   =  +0.00 kcal/mol
DOCKED: USER    (2) Final Total Internal Energy     =  -0.73 kcal/mol
DOCKED: USER    (3) Torsional Free Energy           =  +0.89 kcal/mol
DOCKED: USER    (4) Unbound System's Energy         =  -0.73 kcal/mol
DOCKED: USER
DOCKED: USER
DOCKED: REMARK SMILES COc1cc(C)ccc1NC(=O)c1cccnc1
DOCKED: REMARK SMILES IDX 3 1 4 2 5 3 6 4 7 5 8 6 9 7 2 8 1 9 10 10 11 11 12 13 13 14
DOCKED: REMARK SMILES IDX 14 15 18 16 15 17 17 18 16 19
DOCKED: REMARK H PARENT 10 12
DOCKED: USER                              x       y       z     vdW  Elec       q    Type
DOCKED: USER                           _______ _______ _______ _____ _____    ______ ____
DOCKED: ROOT
DOCKED: ATOM      1  C   UNL     1     141.008  78.832 222.966 -0.41 -0.04    +0.142 A  
DOCKED: ATOM      2  C   UNL     1     140.134  79.750 223.583 -0.43 -0.01    +0.052 A  
DOCKED: ATOM      3  C   UNL     1     138.746  79.555 223.537 -0.34 +0.01    -0.047 A  
DOCKED: ATOM      4  C   UNL     1     137.826  80.517 224.229 -0.35 -0.00    +0.044 C  
DOCKED: ATOM      5  C   UNL     1     138.231  78.417 222.906 -0.25 -0.00    +0.006 A  
DOCKED: ATOM      6  C   UNL     1     139.088  77.502 222.294 -0.30 -0.01    +0.030 A  
DOCKED: ATOM      7  C   UNL     1     140.477  77.711 222.301 -0.36 -0.03    +0.084 A  
DOCKED: ENDROOT
DOCKED: BRANCH   1   8
DOCKED: ATOM      8  O   UNL     1     142.402  79.006 222.987 -0.22 +0.23    -0.495 OA 
DOCKED: ATOM      9  C   UNL     1     143.058  80.264 223.097 -0.41 -0.09    +0.278 C  
DOCKED: ENDBRANCH   1   8
DOCKED: BRANCH   7  10
DOCKED: ATOM     10  N   UNL     1     141.367  76.755 221.697 -0.10 +0.16    -0.319 N  
DOCKED: ATOM     11  C   UNL     1     141.068  75.350 221.587 -0.23 -0.06    +0.257 C  
DOCKED: ATOM     12  H   UNL     1     142.253  77.123 221.287 -0.47 -0.15    +0.170 HD 
DOCKED: ATOM     13  O   UNL     1     139.955  74.912 221.986 -0.73 +0.03    -0.269 OA 
DOCKED: BRANCH  11  14
DOCKED: ATOM     14  C   UNL     1     142.046  74.399 221.005 -0.22 -0.01    +0.058 A  
DOCKED: ATOM     15  C   UNL     1     143.234  74.840 220.393 -0.34 -0.01    +0.017 A  
DOCKED: ATOM     16  C   UNL     1     141.785  73.018 221.029 -0.21 -0.02    +0.124 A  
DOCKED: ATOM     17  C   UNL     1     144.127  73.916 219.849 -0.38 -0.01    +0.021 A  
DOCKED: ATOM     18  N   UNL     1     142.673  72.139 220.494 -0.12 +0.04    -0.264 NA 
DOCKED: ATOM     19  C   UNL     1     143.829  72.556 219.913 -0.24 -0.01    +0.111 A  
DOCKED: ENDBRANCH  11  14
DOCKED: ENDBRANCH   7  10
DOCKED: TORSDOF 3
DOCKED: TER
DOCKED: ENDMDL
________________________________________________________________________________


    FINAL DOCKED STATE:
    ________________________


Run:   8 / 20
Time taken for this run:   0.016s

DOCKED: MODEL        8
DOCKED: USER    Run = 8
DOCKED: USER
DOCKED: USER    Estimated Free Energy of Binding    =  -5.17 kcal/mol  [=(1)+(2)+(3)-(4)]
DOCKED: USER
DOCKED: USER    (1) Final Intermolecular Energy     =  -6.07 kcal/mol
DOCKED: USER        vdW + Hbond + desolv Energy     =  -6.09 kcal/mol
DOCKED: USER        Electrostatic Energy            =  +0.02 kcal/mol
DOCKED: USER        Moving Ligand-Fixed Receptor    =  -6.07 kcal/mol
DOCKED: USER        Moving Ligand-Moving Receptor   =  +0.00 kcal/mol
DOCKED: USER    (2) Final Total Internal Energy     =  -0.73 kcal/mol
DOCKED: USER    (3) Torsional Free Energy           =  +0.89 kcal/mol
DOCKED: USER    (4) Unbound System's Energy         =  -0.73 kcal/mol
DOCKED: USER
DOCKED: USER
DOCKED: REMARK SMILES COc1cc(C)ccc1NC(=O)c1cccnc1
DOCKED: REMARK SMILES IDX 3 1 4 2 5 3 6 4 7 5 8 6 9 7 2 8 1 9 10 10 11 11 12 13 13 14
DOCKED: REMARK SMILES IDX 14 15 18 16 15 17 17 18 16 19
DOCKED: REMARK H PARENT 10 12
DOCKED: USER                              x       y       z     vdW  Elec       q    Type
DOCKED: USER                           _______ _______ _______ _____ _____    ______ ____
DOCKED: ROOT
DOCKED: ATOM      1  C   UNL     1     141.000  78.834 223.003 -0.41 -0.04    +0.142 A  
DOCKED: ATOM      2  C   UNL     1     140.119  79.752 223.611 -0.42 -0.01    +0.052 A  
DOCKED: ATOM      3  C   UNL     1     138.731  79.574 223.522 -0.34 +0.01    -0.047 A  
DOCKED: ATOM      4  C   UNL     1     137.802  80.535 224.205 -0.35 -0.00    +0.044 C  
DOCKED: ATOM      5  C   UNL     1     138.221  78.453 222.856 -0.25 -0.00    +0.006 A  
DOCKED: ATOM      6  C   UNL     1     139.086  77.539 222.253 -0.29 -0.01    +0.030 A  
DOCKED: ATOM      7  C   UNL     1     140.477  77.731 222.303 -0.36 -0.03    +0.084 A  
DOCKED: ENDROOT
DOCKED: BRANCH   1   8
DOCKED: ATOM      8  O   UNL     1     142.395  78.992 223.067 -0.22 +0.23    -0.495 OA 
DOCKED: ATOM      9  C   UNL     1     143.067  80.247 223.094 -0.41 -0.09    +0.278 C  
DOCKED: ENDBRANCH   1   8
DOCKED: BRANCH   7  10
DOCKED: ATOM     10  N   UNL     1     141.372  76.776 221.707 -0.10 +0.16    -0.319 N  
DOCKED: ATOM     11  C   UNL     1     141.075  75.371 221.593 -0.23 -0.06    +0.257 C  
DOCKED: ATOM     12  H   UNL     1     142.263  77.144 221.308 -0.47 -0.15    +0.170 HD 
DOCKED: ATOM     13  O   UNL     1     139.957  74.933 221.980 -0.72 +0.03    -0.269 OA 
DOCKED: BRANCH  11  14
DOCKED: ATOM     14  C   UNL     1     142.059  74.421 221.021 -0.22 -0.01    +0.058 A  
DOCKED: ATOM     15  C   UNL     1     143.255  74.862 220.425 -0.34 -0.01    +0.017 A  
DOCKED: ATOM     16  C   UNL     1     141.795  73.040 221.037 -0.21 -0.02    +0.124 A  
DOCKED: ATOM     17  C   UNL     1     144.154  73.938 219.890 -0.38 -0.01    +0.021 A  
DOCKED: ATOM     18  N   UNL     1     142.689  72.162 220.511 -0.12 +0.04    -0.264 NA 
DOCKED: ATOM     19  C   UNL     1     143.853  72.578 219.946 -0.24 -0.01    +0.111 A  
DOCKED: ENDBRANCH  11  14
DOCKED: ENDBRANCH   7  10
DOCKED: TORSDOF 3
DOCKED: TER
DOCKED: ENDMDL
________________________________________________________________________________


    FINAL DOCKED STATE:
    ________________________


Run:   9 / 20
Time taken for this run:   0.016s

DOCKED: MODEL        9
DOCKED: USER    Run = 9
DOCKED: USER
DOCKED: USER    Estimated Free Energy of Binding    =  -5.17 kcal/mol  [=(1)+(2)+(3)-(4)]
DOCKED: USER
DOCKED: USER    (1) Final Intermolecular Energy     =  -6.07 kcal/mol
DOCKED: USER        vdW + Hbond + desolv Energy     =  -6.10 kcal/mol
DOCKED: USER        Electrostatic Energy            =  +0.03 kcal/mol
DOCKED: USER        Moving Ligand-Fixed Receptor    =  -6.07 kcal/mol
DOCKED: USER        Moving Ligand-Moving Receptor   =  +0.00 kcal/mol
DOCKED: USER    (2) Final Total Internal Energy     =  -0.73 kcal/mol
DOCKED: USER    (3) Torsional Free Energy           =  +0.89 kcal/mol
DOCKED: USER    (4) Unbound System's Energy         =  -0.73 kcal/mol
DOCKED: USER
DOCKED: USER
DOCKED: REMARK SMILES COc1cc(C)ccc1NC(=O)c1cccnc1
DOCKED: REMARK SMILES IDX 3 1 4 2 5 3 6 4 7 5 8 6 9 7 2 8 1 9 10 10 11 11 12 13 13 14
DOCKED: REMARK SMILES IDX 14 15 18 16 15 17 17 18 16 19
DOCKED: REMARK H PARENT 10 12
DOCKED: USER                              x       y       z     vdW  Elec       q    Type
DOCKED: USER                           _______ _______ _______ _____ _____    ______ ____
DOCKED: ROOT
DOCKED: ATOM      1  C   UNL     1     141.031  78.843 222.946 -0.41 -0.04    +0.142 A  
DOCKED: ATOM      2  C   UNL     1     140.161  79.765 223.563 -0.43 -0.01    +0.052 A  
DOCKED: ATOM      3  C   UNL     1     138.775  79.553 223.554 -0.34 +0.01    -0.047 A  
DOCKED: ATOM      4  C   UNL     1     137.860  80.520 224.248 -0.35 -0.00    +0.044 C  
DOCKED: ATOM      5  C   UNL     1     138.258  78.396 222.960 -0.25 -0.00    +0.006 A  
DOCKED: ATOM      6  C   UNL     1     139.111  77.478 222.347 -0.30 -0.01    +0.030 A  
DOCKED: ATOM      7  C   UNL     1     140.498  77.702 222.317 -0.37 -0.03    +0.084 A  
DOCKED: ENDROOT
DOCKED: BRANCH   1   8
DOCKED: ATOM      8  O   UNL     1     142.423  79.034 222.930 -0.22 +0.24    -0.495 OA 
DOCKED: ATOM      9  C   UNL     1     143.070  80.290 223.101 -0.40 -0.09    +0.278 C  
DOCKED: ENDBRANCH   1   8
DOCKED: BRANCH   7  10
DOCKED: ATOM     10  N   UNL     1     141.384  76.744 221.712 -0.09 +0.16    -0.319 N  
DOCKED: ATOM     11  C   UNL     1     141.078  75.342 221.595 -0.23 -0.06    +0.257 C  
DOCKED: ATOM     12  H   UNL     1     142.274  77.108 221.308 -0.47 -0.15    +0.170 HD 
DOCKED: ATOM     13  O   UNL     1     139.960  74.908 221.988 -0.73 +0.03    -0.269 OA 
DOCKED: BRANCH  11  14
DOCKED: ATOM     14  C   UNL     1     142.053  74.387 221.013 -0.22 -0.01    +0.058 A  
DOCKED: ATOM     15  C   UNL     1     143.258  74.822 220.432 -0.34 -0.01    +0.017 A  
DOCKED: ATOM     16  C   UNL     1     141.770  73.010 221.005 -0.21 -0.02    +0.124 A  
DOCKED: ATOM     17  C   UNL     1     144.148  73.895 219.887 -0.38 -0.01    +0.021 A  
DOCKED: ATOM     18  N   UNL     1     142.655  72.129 220.469 -0.11 +0.04    -0.264 NA 
DOCKED: ATOM     19  C   UNL     1     143.828  72.538 219.918 -0.24 -0.01    +0.111 A  
DOCKED: ENDBRANCH  11  14
DOCKED: ENDBRANCH   7  10
DOCKED: TORSDOF 3
DOCKED: TER
DOCKED: ENDMDL
________________________________________________________________________________


    FINAL DOCKED STATE:
    ________________________


Run:   10 / 20
Time taken for this run:   0.016s

DOCKED: MODEL        10
DOCKED: USER    Run = 10
DOCKED: USER
DOCKED: USER    Estimated Free Energy of Binding    =  -5.17 kcal/mol  [=(1)+(2)+(3)-(4)]
DOCKED: USER
DOCKED: USER    (1) Final Intermolecular Energy     =  -6.06 kcal/mol
DOCKED: USER        vdW + Hbond + desolv Energy     =  -6.10 kcal/mol
DOCKED: USER        Electrostatic Energy            =  +0.03 kcal/mol
DOCKED: USER        Moving Ligand-Fixed Receptor    =  -6.06 kcal/mol
DOCKED: USER        Moving Ligand-Moving Receptor   =  +0.00 kcal/mol
DOCKED: USER    (2) Final Total Internal Energy     =  -0.73 kcal/mol
DOCKED: USER    (3) Torsional Free Energy           =  +0.89 kcal/mol
DOCKED: USER    (4) Unbound System's Energy         =  -0.73 kcal/mol
DOCKED: USER
DOCKED: USER
DOCKED: REMARK SMILES COc1cc(C)ccc1NC(=O)c1cccnc1
DOCKED: REMARK SMILES IDX 3 1 4 2 5 3 6 4 7 5 8 6 9 7 2 8 1 9 10 10 11 11 12 13 13 14
DOCKED: REMARK SMILES IDX 14 15 18 16 15 17 17 18 16 19
DOCKED: REMARK H PARENT 10 12
DOCKED: USER                              x       y       z     vdW  Elec       q    Type
DOCKED: USER                           _______ _______ _______ _____ _____    ______ ____
DOCKED: ROOT
DOCKED: ATOM      1  C   UNL     1     141.013  78.825 222.936 -0.40 -0.04    +0.142 A  
DOCKED: ATOM      2  C   UNL     1     140.142  79.745 223.552 -0.43 -0.01    +0.052 A  
DOCKED: ATOM      3  C   UNL     1     138.756  79.535 223.539 -0.34 +0.01    -0.047 A  
DOCKED: ATOM      4  C   UNL     1     137.839  80.500 224.232 -0.35 -0.00    +0.044 C  
DOCKED: ATOM      5  C   UNL     1     138.241  78.379 222.940 -0.25 -0.00    +0.006 A  
DOCKED: ATOM      6  C   UNL     1     139.095  77.462 222.329 -0.30 -0.01    +0.030 A  
DOCKED: ATOM      7  C   UNL     1     140.482  77.686 222.303 -0.36 -0.03    +0.084 A  
DOCKED: ENDROOT
DOCKED: BRANCH   1   8
DOCKED: ATOM      8  O   UNL     1     142.406  79.014 222.924 -0.22 +0.24    -0.495 OA 
DOCKED: ATOM      9  C   UNL     1     143.053  80.270 223.103 -0.41 -0.09    +0.278 C  
DOCKED: ENDBRANCH   1   8
DOCKED: BRANCH   7  10
DOCKED: ATOM     10  N   UNL     1     141.370  76.728 221.699 -0.10 +0.16    -0.319 N  
DOCKED: ATOM     11  C   UNL     1     141.066  75.324 221.585 -0.23 -0.06    +0.257 C  
DOCKED: ATOM     12  H   UNL     1     142.258  77.093 221.293 -0.47 -0.15    +0.170 HD 
DOCKED: ATOM     13  O   UNL     1     139.950  74.889 221.980 -0.73 +0.03    -0.269 OA 
DOCKED: BRANCH  11  14
DOCKED: ATOM     14  C   UNL     1     142.043  74.371 221.003 -0.22 -0.01    +0.058 A  
DOCKED: ATOM     15  C   UNL     1     143.232  74.809 220.394 -0.35 -0.01    +0.017 A  
DOCKED: ATOM     16  C   UNL     1     141.777  72.991 221.025 -0.21 -0.02    +0.124 A  
DOCKED: ATOM     17  C   UNL     1     144.124  73.883 219.851 -0.37 -0.01    +0.021 A  
DOCKED: ATOM     18  N   UNL     1     142.663  72.110 220.490 -0.12 +0.03    -0.264 NA 
DOCKED: ATOM     19  C   UNL     1     143.821  72.524 219.912 -0.24 -0.01    +0.111 A  
DOCKED: ENDBRANCH  11  14
DOCKED: ENDBRANCH   7  10
DOCKED: TORSDOF 3
DOCKED: TER
DOCKED: ENDMDL
________________________________________________________________________________


    FINAL DOCKED STATE:
    ________________________


Run:   11 / 20
Time taken for this run:   0.016s

DOCKED: MODEL        11
DOCKED: USER    Run = 11
DOCKED: USER
DOCKED: USER    Estimated Free Energy of Binding    =  -5.17 kcal/mol  [=(1)+(2)+(3)-(4)]
DOCKED: USER
DOCKED: USER    (1) Final Intermolecular Energy     =  -6.06 kcal/mol
DOCKED: USER        vdW + Hbond + desolv Energy     =  -6.10 kcal/mol
DOCKED: USER        Electrostatic Energy            =  +0.03 kcal/mol
DOCKED: USER        Moving Ligand-Fixed Receptor    =  -6.06 kcal/mol
DOCKED: USER        Moving Ligand-Moving Receptor   =  +0.00 kcal/mol
DOCKED: USER    (2) Final Total Internal Energy     =  -0.73 kcal/mol
DOCKED: USER    (3) Torsional Free Energy           =  +0.89 kcal/mol
DOCKED: USER    (4) Unbound System's Energy         =  -0.73 kcal/mol
DOCKED: USER
DOCKED: USER
DOCKED: REMARK SMILES COc1cc(C)ccc1NC(=O)c1cccnc1
DOCKED: REMARK SMILES IDX 3 1 4 2 5 3 6 4 7 5 8 6 9 7 2 8 1 9 10 10 11 11 12 13 13 14
DOCKED: REMARK SMILES IDX 14 15 18 16 15 17 17 18 16 19
DOCKED: REMARK H PARENT 10 12
DOCKED: USER                              x       y       z     vdW  Elec       q    Type
DOCKED: USER                           _______ _______ _______ _____ _____    ______ ____
DOCKED: ROOT
DOCKED: ATOM      1  C   UNL     1     141.018  78.840 222.931 -0.40 -0.04    +0.142 A  
DOCKED: ATOM      2  C   UNL     1     140.147  79.761 223.547 -0.43 -0.01    +0.052 A  
DOCKED: ATOM      3  C   UNL     1     138.761  79.553 223.530 -0.34 +0.01    -0.047 A  
DOCKED: ATOM      4  C   UNL     1     137.844  80.519 224.222 -0.35 -0.00    +0.044 C  
DOCKED: ATOM      5  C   UNL     1     138.245  78.399 222.928 -0.25 -0.00    +0.006 A  
DOCKED: ATOM      6  C   UNL     1     139.099  77.481 222.317 -0.30 -0.01    +0.030 A  
DOCKED: ATOM      7  C   UNL     1     140.487  77.703 222.295 -0.36 -0.03    +0.084 A  
DOCKED: ENDROOT
DOCKED: BRANCH   1   8
DOCKED: ATOM      8  O   UNL     1     142.411  79.027 222.923 -0.22 +0.24    -0.495 OA 
DOCKED: ATOM      9  C   UNL     1     143.060  80.279 223.118 -0.41 -0.08    +0.278 C  
DOCKED: ENDBRANCH   1   8
DOCKED: BRANCH   7  10
DOCKED: ATOM     10  N   UNL     1     141.374  76.745 221.692 -0.10 +0.16    -0.319 N  
DOCKED: ATOM     11  C   UNL     1     141.075  75.339 221.588 -0.23 -0.06    +0.257 C  
DOCKED: ATOM     12  H   UNL     1     142.259  77.111 221.278 -0.47 -0.15    +0.170 HD 
DOCKED: ATOM     13  O   UNL     1     139.963  74.903 221.993 -0.73 +0.03    -0.269 OA 
DOCKED: BRANCH  11  14
DOCKED: ATOM     14  C   UNL     1     142.051  74.386 221.007 -0.22 -0.01    +0.058 A  
DOCKED: ATOM     15  C   UNL     1     143.241  74.824 220.397 -0.35 -0.01    +0.017 A  
DOCKED: ATOM     16  C   UNL     1     141.785  73.006 221.029 -0.21 -0.02    +0.124 A  
DOCKED: ATOM     17  C   UNL     1     144.133  73.898 219.854 -0.38 -0.01    +0.021 A  
DOCKED: ATOM     18  N   UNL     1     142.672  72.125 220.494 -0.12 +0.03    -0.264 NA 
DOCKED: ATOM     19  C   UNL     1     143.830  72.538 219.915 -0.24 -0.01    +0.111 A  
DOCKED: ENDBRANCH  11  14
DOCKED: ENDBRANCH   7  10
DOCKED: TORSDOF 3
DOCKED: TER
DOCKED: ENDMDL
________________________________________________________________________________


    FINAL DOCKED STATE:
    ________________________


Run:   12 / 20
Time taken for this run:   0.016s

DOCKED: MODEL        12
DOCKED: USER    Run = 12
DOCKED: USER
DOCKED: USER    Estimated Free Energy of Binding    =  -5.17 kcal/mol  [=(1)+(2)+(3)-(4)]
DOCKED: USER
DOCKED: USER    (1) Final Intermolecular Energy     =  -6.06 kcal/mol
DOCKED: USER        vdW + Hbond + desolv Energy     =  -6.09 kcal/mol
DOCKED: USER        Electrostatic Energy            =  +0.03 kcal/mol
DOCKED: USER        Moving Ligand-Fixed Receptor    =  -6.06 kcal/mol
DOCKED: USER        Moving Ligand-Moving Receptor   =  +0.00 kcal/mol
DOCKED: USER    (2) Final Total Internal Energy     =  -0.73 kcal/mol
DOCKED: USER    (3) Torsional Free Energy           =  +0.89 kcal/mol
DOCKED: USER    (4) Unbound System's Energy         =  -0.73 kcal/mol
DOCKED: USER
DOCKED: USER
DOCKED: REMARK SMILES COc1cc(C)ccc1NC(=O)c1cccnc1
DOCKED: REMARK SMILES IDX 3 1 4 2 5 3 6 4 7 5 8 6 9 7 2 8 1 9 10 10 11 11 12 13 13 14
DOCKED: REMARK SMILES IDX 14 15 18 16 15 17 17 18 16 19
DOCKED: REMARK H PARENT 10 12
DOCKED: USER                              x       y       z     vdW  Elec       q    Type
DOCKED: USER                           _______ _______ _______ _____ _____    ______ ____
DOCKED: ROOT
DOCKED: ATOM      1  C   UNL     1     141.043  78.824 222.947 -0.41 -0.04    +0.142 A  
DOCKED: ATOM      2  C   UNL     1     140.171  79.745 223.562 -0.43 -0.01    +0.052 A  
DOCKED: ATOM      3  C   UNL     1     138.786  79.532 223.552 -0.34 +0.01    -0.047 A  
DOCKED: ATOM      4  C   UNL     1     137.869  80.498 224.243 -0.35 -0.00    +0.044 C  
DOCKED: ATOM      5  C   UNL     1     138.271  78.373 222.959 -0.25 -0.00    +0.006 A  
DOCKED: ATOM      6  C   UNL     1     139.126  77.455 222.349 -0.30 -0.01    +0.030 A  
DOCKED: ATOM      7  C   UNL     1     140.513  77.681 222.320 -0.37 -0.03    +0.084 A  
DOCKED: ENDROOT
DOCKED: BRANCH   1   8
DOCKED: ATOM      8  O   UNL     1     142.435  79.015 222.933 -0.22 +0.24    -0.495 OA 
DOCKED: ATOM      9  C   UNL     1     143.081  80.272 223.113 -0.40 -0.09    +0.278 C  
DOCKED: ENDBRANCH   1   8
DOCKED: BRANCH   7  10
DOCKED: ATOM     10  N   UNL     1     141.401  76.723 221.717 -0.09 +0.16    -0.319 N  
DOCKED: ATOM     11  C   UNL     1     141.091  75.322 221.591 -0.23 -0.06    +0.257 C  
DOCKED: ATOM     12  H   UNL     1     142.295  77.086 221.323 -0.47 -0.15    +0.170 HD 
DOCKED: ATOM     13  O   UNL     1     139.968  74.890 221.972 -0.73 +0.03    -0.269 OA 
DOCKED: BRANCH  11  14
DOCKED: ATOM     14  C   UNL     1     142.067  74.367 221.012 -0.22 -0.01    +0.058 A  
DOCKED: ATOM     15  C   UNL     1     143.249  74.804 220.387 -0.35 -0.01    +0.017 A  
DOCKED: ATOM     16  C   UNL     1     141.810  72.986 221.053 -0.21 -0.02    +0.124 A  
DOCKED: ATOM     17  C   UNL     1     144.141  73.877 219.847 -0.37 -0.01    +0.021 A  
DOCKED: ATOM     18  N   UNL     1     142.697  72.104 220.521 -0.12 +0.03    -0.264 NA 
DOCKED: ATOM     19  C   UNL     1     143.847  72.517 219.927 -0.24 -0.01    +0.111 A  
DOCKED: ENDBRANCH  11  14
DOCKED: ENDBRANCH   7  10
DOCKED: TORSDOF 3
DOCKED: TER
DOCKED: ENDMDL
________________________________________________________________________________


    FINAL DOCKED STATE:
    ________________________


Run:   13 / 20
Time taken for this run:   0.016s

DOCKED: MODEL        13
DOCKED: USER    Run = 13
DOCKED: USER
DOCKED: USER    Estimated Free Energy of Binding    =  -5.17 kcal/mol  [=(1)+(2)+(3)-(4)]
DOCKED: USER
DOCKED: USER    (1) Final Intermolecular Energy     =  -6.06 kcal/mol
DOCKED: USER        vdW + Hbond + desolv Energy     =  -6.10 kcal/mol
DOCKED: USER        Electrostatic Energy            =  +0.03 kcal/mol
DOCKED: USER        Moving Ligand-Fixed Receptor    =  -6.06 kcal/mol
DOCKED: USER        Moving Ligand-Moving Receptor   =  +0.00 kcal/mol
DOCKED: USER    (2) Final Total Internal Energy     =  -0.73 kcal/mol
DOCKED: USER    (3) Torsional Free Energy           =  +0.89 kcal/mol
DOCKED: USER    (4) Unbound System's Energy         =  -0.73 kcal/mol
DOCKED: USER
DOCKED: USER
DOCKED: REMARK SMILES COc1cc(C)ccc1NC(=O)c1cccnc1
DOCKED: REMARK SMILES IDX 3 1 4 2 5 3 6 4 7 5 8 6 9 7 2 8 1 9 10 10 11 11 12 13 13 14
DOCKED: REMARK SMILES IDX 14 15 18 16 15 17 17 18 16 19
DOCKED: REMARK H PARENT 10 12
DOCKED: USER                              x       y       z     vdW  Elec       q    Type
DOCKED: USER                           _______ _______ _______ _____ _____    ______ ____
DOCKED: ROOT
DOCKED: ATOM      1  C   UNL     1     141.019  78.836 222.934 -0.40 -0.04    +0.142 A  
DOCKED: ATOM      2  C   UNL     1     140.147  79.754 223.553 -0.43 -0.01    +0.052 A  
DOCKED: ATOM      3  C   UNL     1     138.760  79.550 223.527 -0.34 +0.01    -0.047 A  
DOCKED: ATOM      4  C   UNL     1     137.842  80.512 224.223 -0.35 -0.00    +0.044 C  
DOCKED: ATOM      5  C   UNL     1     138.244  78.402 222.914 -0.25 -0.00    +0.006 A  
DOCKED: ATOM      6  C   UNL     1     139.099  77.487 222.299 -0.30 -0.01    +0.030 A  
DOCKED: ATOM      7  C   UNL     1     140.487  77.705 222.286 -0.36 -0.03    +0.084 A  
DOCKED: ENDROOT
DOCKED: BRANCH   1   8
DOCKED: ATOM      8  O   UNL     1     142.412  79.019 222.935 -0.22 +0.24    -0.495 OA 
DOCKED: ATOM      9  C   UNL     1     143.062  80.275 223.100 -0.41 -0.09    +0.278 C  
DOCKED: ENDBRANCH   1   8
DOCKED: BRANCH   7  10
DOCKED: ATOM     10  N   UNL     1     141.375  76.749 221.679 -0.10 +0.16    -0.319 N  
DOCKED: ATOM     11  C   UNL     1     141.078  75.344 221.572 -0.23 -0.06    +0.257 C  
DOCKED: ATOM     12  H   UNL     1     142.259  77.118 221.266 -0.47 -0.15    +0.170 HD 
DOCKED: ATOM     13  O   UNL     1     139.966  74.905 221.977 -0.73 +0.03    -0.269 OA 
DOCKED: BRANCH  11  14
DOCKED: ATOM     14  C   UNL     1     142.054  74.393 220.987 -0.23 -0.01    +0.058 A  
DOCKED: ATOM     15  C   UNL     1     143.252  74.833 220.395 -0.35 -0.01    +0.017 A  
DOCKED: ATOM     16  C   UNL     1     141.781  73.015 220.988 -0.21 -0.02    +0.124 A  
DOCKED: ATOM     17  C   UNL     1     144.144  73.910 219.848 -0.38 -0.01    +0.021 A  
DOCKED: ATOM     18  N   UNL     1     142.668  72.137 220.449 -0.11 +0.04    -0.264 NA 
DOCKED: ATOM     19  C   UNL     1     143.833  72.551 219.887 -0.23 -0.01    +0.111 A  
DOCKED: ENDBRANCH  11  14
DOCKED: ENDBRANCH   7  10
DOCKED: TORSDOF 3
DOCKED: TER
DOCKED: ENDMDL
________________________________________________________________________________


    FINAL DOCKED STATE:
    ________________________


Run:   14 / 20
Time taken for this run:   0.016s

DOCKED: MODEL        14
DOCKED: USER    Run = 14
DOCKED: USER
DOCKED: USER    Estimated Free Energy of Binding    =  -5.17 kcal/mol  [=(1)+(2)+(3)-(4)]
DOCKED: USER
DOCKED: USER    (1) Final Intermolecular Energy     =  -6.07 kcal/mol
DOCKED: USER        vdW + Hbond + desolv Energy     =  -6.10 kcal/mol
DOCKED: USER        Electrostatic Energy            =  +0.03 kcal/mol
DOCKED: USER        Moving Ligand-Fixed Receptor    =  -6.07 kcal/mol
DOCKED: USER        Moving Ligand-Moving Receptor   =  +0.00 kcal/mol
DOCKED: USER    (2) Final Total Internal Energy     =  -0.73 kcal/mol
DOCKED: USER    (3) Torsional Free Energy           =  +0.89 kcal/mol
DOCKED: USER    (4) Unbound System's Energy         =  -0.73 kcal/mol
DOCKED: USER
DOCKED: USER
DOCKED: REMARK SMILES COc1cc(C)ccc1NC(=O)c1cccnc1
DOCKED: REMARK SMILES IDX 3 1 4 2 5 3 6 4 7 5 8 6 9 7 2 8 1 9 10 10 11 11 12 13 13 14
DOCKED: REMARK SMILES IDX 14 15 18 16 15 17 17 18 16 19
DOCKED: REMARK H PARENT 10 12
DOCKED: USER                              x       y       z     vdW  Elec       q    Type
DOCKED: USER                           _______ _______ _______ _____ _____    ______ ____
DOCKED: ROOT
DOCKED: ATOM      1  C   UNL     1     141.020  78.842 222.929 -0.40 -0.04    +0.142 A  
DOCKED: ATOM      2  C   UNL     1     140.146  79.766 223.537 -0.43 -0.01    +0.052 A  
DOCKED: ATOM      3  C   UNL     1     138.761  79.551 223.525 -0.34 +0.01    -0.047 A  
DOCKED: ATOM      4  C   UNL     1     137.841  80.521 224.209 -0.35 -0.00    +0.044 C  
DOCKED: ATOM      5  C   UNL     1     138.248  78.388 222.938 -0.25 -0.00    +0.006 A  
DOCKED: ATOM      6  C   UNL     1     139.105  77.467 222.335 -0.30 -0.01    +0.030 A  
DOCKED: ATOM      7  C   UNL     1     140.491  77.695 222.307 -0.36 -0.03    +0.084 A  
DOCKED: ENDROOT
DOCKED: BRANCH   1   8
DOCKED: ATOM      8  O   UNL     1     142.412  79.035 222.915 -0.22 +0.24    -0.495 OA 
DOCKED: ATOM      9  C   UNL     1     143.055  80.294 223.082 -0.41 -0.09    +0.278 C  
DOCKED: ENDBRANCH   1   8
DOCKED: BRANCH   7  10
DOCKED: ATOM     10  N   UNL     1     141.381  76.734 221.712 -0.10 +0.16    -0.319 N  
DOCKED: ATOM     11  C   UNL     1     141.073  75.332 221.593 -0.23 -0.06    +0.257 C  
DOCKED: ATOM     12  H   UNL     1     142.277  77.096 221.317 -0.47 -0.15    +0.170 HD 
DOCKED: ATOM     13  O   UNL     1     139.950  74.902 221.974 -0.73 +0.03    -0.269 OA 
DOCKED: BRANCH  11  14
DOCKED: ATOM     14  C   UNL     1     142.051  74.375 221.021 -0.22 -0.01    +0.058 A  
DOCKED: ATOM     15  C   UNL     1     143.227  74.810 220.384 -0.35 -0.01    +0.017 A  
DOCKED: ATOM     16  C   UNL     1     141.801  72.993 221.081 -0.21 -0.02    +0.124 A  
DOCKED: ATOM     17  C   UNL     1     144.122  73.880 219.851 -0.37 -0.01    +0.021 A  
DOCKED: ATOM     18  N   UNL     1     142.690  72.109 220.556 -0.12 +0.03    -0.264 NA 
DOCKED: ATOM     19  C   UNL     1     143.835  72.520 219.951 -0.24 -0.01    +0.111 A  
DOCKED: ENDBRANCH  11  14
DOCKED: ENDBRANCH   7  10
DOCKED: TORSDOF 3
DOCKED: TER
DOCKED: ENDMDL
________________________________________________________________________________


    FINAL DOCKED STATE:
    ________________________


Run:   15 / 20
Time taken for this run:   0.016s

DOCKED: MODEL        15
DOCKED: USER    Run = 15
DOCKED: USER
DOCKED: USER    Estimated Free Energy of Binding    =  -5.17 kcal/mol  [=(1)+(2)+(3)-(4)]
DOCKED: USER
DOCKED: USER    (1) Final Intermolecular Energy     =  -6.07 kcal/mol
DOCKED: USER        vdW + Hbond + desolv Energy     =  -6.09 kcal/mol
DOCKED: USER        Electrostatic Energy            =  +0.02 kcal/mol
DOCKED: USER        Moving Ligand-Fixed Receptor    =  -6.07 kcal/mol
DOCKED: USER        Moving Ligand-Moving Receptor   =  +0.00 kcal/mol
DOCKED: USER    (2) Final Total Internal Energy     =  -0.73 kcal/mol
DOCKED: USER    (3) Torsional Free Energy           =  +0.89 kcal/mol
DOCKED: USER    (4) Unbound System's Energy         =  -0.73 kcal/mol
DOCKED: USER
DOCKED: USER
DOCKED: REMARK SMILES COc1cc(C)ccc1NC(=O)c1cccnc1
DOCKED: REMARK SMILES IDX 3 1 4 2 5 3 6 4 7 5 8 6 9 7 2 8 1 9 10 10 11 11 12 13 13 14
DOCKED: REMARK SMILES IDX 14 15 18 16 15 17 17 18 16 19
DOCKED: REMARK H PARENT 10 12
DOCKED: USER                              x       y       z     vdW  Elec       q    Type
DOCKED: USER                           _______ _______ _______ _____ _____    ______ ____
DOCKED: ROOT
DOCKED: ATOM      1  C   UNL     1     141.028  78.845 222.963 -0.41 -0.04    +0.142 A  
DOCKED: ATOM      2  C   UNL     1     140.153  79.766 223.572 -0.43 -0.01    +0.052 A  
DOCKED: ATOM      3  C   UNL     1     138.766  79.564 223.536 -0.34 +0.01    -0.047 A  
DOCKED: ATOM      4  C   UNL     1     137.844  80.530 224.221 -0.35 -0.00    +0.044 C  
DOCKED: ATOM      5  C   UNL     1     138.253  78.415 222.922 -0.25 -0.00    +0.006 A  
DOCKED: ATOM      6  C   UNL     1     139.112  77.497 222.317 -0.30 -0.01    +0.030 A  
DOCKED: ATOM      7  C   UNL     1     140.500  77.713 222.315 -0.36 -0.03    +0.084 A  
DOCKED: ENDROOT
DOCKED: BRANCH   1   8
DOCKED: ATOM      8  O   UNL     1     142.422  79.026 222.974 -0.22 +0.24    -0.495 OA 
DOCKED: ATOM      9  C   UNL     1     143.072  80.287 223.090 -0.40 -0.09    +0.278 C  
DOCKED: ENDBRANCH   1   8
DOCKED: BRANCH   7  10
DOCKED: ATOM     10  N   UNL     1     141.391  76.754 221.718 -0.09 +0.16    -0.319 N  
DOCKED: ATOM     11  C   UNL     1     141.086  75.352 221.599 -0.23 -0.06    +0.257 C  
DOCKED: ATOM     12  H   UNL     1     142.285  77.118 221.322 -0.47 -0.15    +0.170 HD 
DOCKED: ATOM     13  O   UNL     1     139.964  74.918 221.981 -0.72 +0.03    -0.269 OA 
DOCKED: BRANCH  11  14
DOCKED: ATOM     14  C   UNL     1     142.066  74.396 221.025 -0.21 -0.01    +0.058 A  
DOCKED: ATOM     15  C   UNL     1     143.255  74.833 220.415 -0.34 -0.01    +0.017 A  
DOCKED: ATOM     16  C   UNL     1     141.803  73.016 221.056 -0.21 -0.02    +0.124 A  
DOCKED: ATOM     17  C   UNL     1     144.150  73.906 219.880 -0.38 -0.01    +0.021 A  
DOCKED: ATOM     18  N   UNL     1     142.693  72.134 220.529 -0.12 +0.03    -0.264 NA 
DOCKED: ATOM     19  C   UNL     1     143.851  72.546 219.949 -0.24 -0.01    +0.111 A  
DOCKED: ENDBRANCH  11  14
DOCKED: ENDBRANCH   7  10
DOCKED: TORSDOF 3
DOCKED: TER
DOCKED: ENDMDL
________________________________________________________________________________


    FINAL DOCKED STATE:
    ________________________


Run:   16 / 20
Time taken for this run:   0.016s

DOCKED: MODEL        16
DOCKED: USER    Run = 16
DOCKED: USER
DOCKED: USER    Estimated Free Energy of Binding    =  -5.17 kcal/mol  [=(1)+(2)+(3)-(4)]
DOCKED: USER
DOCKED: USER    (1) Final Intermolecular Energy     =  -6.07 kcal/mol
DOCKED: USER        vdW + Hbond + desolv Energy     =  -6.09 kcal/mol
DOCKED: USER        Electrostatic Energy            =  +0.03 kcal/mol
DOCKED: USER        Moving Ligand-Fixed Receptor    =  -6.07 kcal/mol
DOCKED: USER        Moving Ligand-Moving Receptor   =  +0.00 kcal/mol
DOCKED: USER    (2) Final Total Internal Energy     =  -0.73 kcal/mol
DOCKED: USER    (3) Torsional Free Energy           =  +0.89 kcal/mol
DOCKED: USER    (4) Unbound System's Energy         =  -0.73 kcal/mol
DOCKED: USER
DOCKED: USER
DOCKED: REMARK SMILES COc1cc(C)ccc1NC(=O)c1cccnc1
DOCKED: REMARK SMILES IDX 3 1 4 2 5 3 6 4 7 5 8 6 9 7 2 8 1 9 10 10 11 11 12 13 13 14
DOCKED: REMARK SMILES IDX 14 15 18 16 15 17 17 18 16 19
DOCKED: REMARK H PARENT 10 12
DOCKED: USER                              x       y       z     vdW  Elec       q    Type
DOCKED: USER                           _______ _______ _______ _____ _____    ______ ____
DOCKED: ROOT
DOCKED: ATOM      1  C   UNL     1     141.025  78.840 222.972 -0.41 -0.04    +0.142 A  
DOCKED: ATOM      2  C   UNL     1     140.152  79.759 223.589 -0.43 -0.01    +0.052 A  
DOCKED: ATOM      3  C   UNL     1     138.765  79.562 223.550 -0.34 +0.01    -0.047 A  
DOCKED: ATOM      4  C   UNL     1     137.846  80.525 224.242 -0.35 -0.00    +0.044 C  
DOCKED: ATOM      5  C   UNL     1     138.249  78.420 222.925 -0.25 -0.00    +0.006 A  
DOCKED: ATOM      6  C   UNL     1     139.105  77.505 222.313 -0.30 -0.01    +0.030 A  
DOCKED: ATOM      7  C   UNL     1     140.494  77.716 222.313 -0.36 -0.03    +0.084 A  
DOCKED: ENDROOT
DOCKED: BRANCH   1   8
DOCKED: ATOM      8  O   UNL     1     142.419  79.016 222.986 -0.22 +0.23    -0.495 OA 
DOCKED: ATOM      9  C   UNL     1     143.074  80.274 223.113 -0.40 -0.09    +0.278 C  
DOCKED: ENDBRANCH   1   8
DOCKED: BRANCH   7  10
DOCKED: ATOM     10  N   UNL     1     141.382  76.759 221.709 -0.09 +0.16    -0.319 N  
DOCKED: ATOM     11  C   UNL     1     141.078  75.357 221.589 -0.23 -0.06    +0.257 C  
DOCKED: ATOM     12  H   UNL     1     142.273  77.125 221.307 -0.47 -0.15    +0.170 HD 
DOCKED: ATOM     13  O   UNL     1     139.960  74.921 221.978 -0.72 +0.03    -0.269 OA 
DOCKED: BRANCH  11  14
DOCKED: ATOM     14  C   UNL     1     142.055  74.404 221.007 -0.22 -0.01    +0.058 A  
DOCKED: ATOM     15  C   UNL     1     143.247  74.843 220.402 -0.34 -0.01    +0.017 A  
DOCKED: ATOM     16  C   UNL     1     141.788  73.024 221.024 -0.21 -0.02    +0.124 A  
DOCKED: ATOM     17  C   UNL     1     144.139  73.918 219.859 -0.38 -0.01    +0.021 A  
DOCKED: ATOM     18  N   UNL     1     142.675  72.144 220.488 -0.12 +0.04    -0.264 NA 
DOCKED: ATOM     19  C   UNL     1     143.835  72.559 219.914 -0.24 -0.01    +0.111 A  
DOCKED: ENDBRANCH  11  14
DOCKED: ENDBRANCH   7  10
DOCKED: TORSDOF 3
DOCKED: TER
DOCKED: ENDMDL
________________________________________________________________________________


    FINAL DOCKED STATE:
    ________________________


Run:   17 / 20
Time taken for this run:   0.016s

DOCKED: MODEL        17
DOCKED: USER    Run = 17
DOCKED: USER
DOCKED: USER    Estimated Free Energy of Binding    =  -5.17 kcal/mol  [=(1)+(2)+(3)-(4)]
DOCKED: USER
DOCKED: USER    (1) Final Intermolecular Energy     =  -6.07 kcal/mol
DOCKED: USER        vdW + Hbond + desolv Energy     =  -6.09 kcal/mol
DOCKED: USER        Electrostatic Energy            =  +0.02 kcal/mol
DOCKED: USER        Moving Ligand-Fixed Receptor    =  -6.07 kcal/mol
DOCKED: USER        Moving Ligand-Moving Receptor   =  +0.00 kcal/mol
DOCKED: USER    (2) Final Total Internal Energy     =  -0.72 kcal/mol
DOCKED: USER    (3) Torsional Free Energy           =  +0.89 kcal/mol
DOCKED: USER    (4) Unbound System's Energy         =  -0.72 kcal/mol
DOCKED: USER
DOCKED: USER
DOCKED: REMARK SMILES COc1cc(C)ccc1NC(=O)c1cccnc1
DOCKED: REMARK SMILES IDX 3 1 4 2 5 3 6 4 7 5 8 6 9 7 2 8 1 9 10 10 11 11 12 13 13 14
DOCKED: REMARK SMILES IDX 14 15 18 16 15 17 17 18 16 19
DOCKED: REMARK H PARENT 10 12
DOCKED: USER                              x       y       z     vdW  Elec       q    Type
DOCKED: USER                           _______ _______ _______ _____ _____    ______ ____
DOCKED: ROOT
DOCKED: ATOM      1  C   UNL     1     141.011  78.840 222.989 -0.41 -0.04    +0.142 A  
DOCKED: ATOM      2  C   UNL     1     140.137  79.758 223.605 -0.43 -0.01    +0.052 A  
DOCKED: ATOM      3  C   UNL     1     138.749  79.565 223.555 -0.34 +0.01    -0.047 A  
DOCKED: ATOM      4  C   UNL     1     137.828  80.527 224.247 -0.35 -0.00    +0.044 C  
DOCKED: ATOM      5  C   UNL     1     138.234  78.428 222.922 -0.25 -0.00    +0.006 A  
DOCKED: ATOM      6  C   UNL     1     139.092  77.513 222.311 -0.30 -0.01    +0.030 A  
DOCKED: ATOM      7  C   UNL     1     140.481  77.720 222.322 -0.36 -0.03    +0.084 A  
DOCKED: ENDROOT
DOCKED: BRANCH   1   8
DOCKED: ATOM      8  O   UNL     1     142.406  79.013 223.013 -0.22 +0.23    -0.495 OA 
DOCKED: ATOM      9  C   UNL     1     143.064  80.273 223.089 -0.41 -0.09    +0.278 C  
DOCKED: ENDBRANCH   1   8
DOCKED: BRANCH   7  10
DOCKED: ATOM     10  N   UNL     1     141.371  76.764 221.719 -0.10 +0.16    -0.319 N  
DOCKED: ATOM     11  C   UNL     1     141.066  75.362 221.596 -0.23 -0.06    +0.257 C  
DOCKED: ATOM     12  H   UNL     1     142.263  77.130 221.320 -0.47 -0.15    +0.170 HD 
DOCKED: ATOM     13  O   UNL     1     139.946  74.926 221.981 -0.72 +0.03    -0.269 OA 
DOCKED: BRANCH  11  14
DOCKED: ATOM     14  C   UNL     1     142.044  74.409 221.015 -0.22 -0.01    +0.058 A  
DOCKED: ATOM     15  C   UNL     1     143.231  74.849 220.402 -0.34 -0.01    +0.017 A  
DOCKED: ATOM     16  C   UNL     1     141.784  73.028 221.044 -0.21 -0.02    +0.124 A  
DOCKED: ATOM     17  C   UNL     1     144.125  73.924 219.860 -0.38 -0.01    +0.021 A  
DOCKED: ATOM     18  N   UNL     1     142.672  72.149 220.510 -0.12 +0.03    -0.264 NA 
DOCKED: ATOM     19  C   UNL     1     143.827  72.564 219.927 -0.24 -0.01    +0.111 A  
DOCKED: ENDBRANCH  11  14
DOCKED: ENDBRANCH   7  10
DOCKED: TORSDOF 3
DOCKED: TER
DOCKED: ENDMDL
________________________________________________________________________________


    FINAL DOCKED STATE:
    ________________________


Run:   18 / 20
Time taken for this run:   0.016s

DOCKED: MODEL        18
DOCKED: USER    Run = 18
DOCKED: USER
DOCKED: USER    Estimated Free Energy of Binding    =  -5.17 kcal/mol  [=(1)+(2)+(3)-(4)]
DOCKED: USER
DOCKED: USER    (1) Final Intermolecular Energy     =  -6.06 kcal/mol
DOCKED: USER        vdW + Hbond + desolv Energy     =  -6.09 kcal/mol
DOCKED: USER        Electrostatic Energy            =  +0.03 kcal/mol
DOCKED: USER        Moving Ligand-Fixed Receptor    =  -6.06 kcal/mol
DOCKED: USER        Moving Ligand-Moving Receptor   =  +0.00 kcal/mol
DOCKED: USER    (2) Final Total Internal Energy     =  -0.72 kcal/mol
DOCKED: USER    (3) Torsional Free Energy           =  +0.89 kcal/mol
DOCKED: USER    (4) Unbound System's Energy         =  -0.72 kcal/mol
DOCKED: USER
DOCKED: USER
DOCKED: REMARK SMILES COc1cc(C)ccc1NC(=O)c1cccnc1
DOCKED: REMARK SMILES IDX 3 1 4 2 5 3 6 4 7 5 8 6 9 7 2 8 1 9 10 10 11 11 12 13 13 14
DOCKED: REMARK SMILES IDX 14 15 18 16 15 17 17 18 16 19
DOCKED: REMARK H PARENT 10 12
DOCKED: USER                              x       y       z     vdW  Elec       q    Type
DOCKED: USER                           _______ _______ _______ _____ _____    ______ ____
DOCKED: ROOT
DOCKED: ATOM      1  C   UNL     1     141.007  78.834 222.949 -0.40 -0.04    +0.142 A  
DOCKED: ATOM      2  C   UNL     1     140.133  79.751 223.565 -0.43 -0.01    +0.052 A  
DOCKED: ATOM      3  C   UNL     1     138.747  79.548 223.533 -0.34 +0.01    -0.047 A  
DOCKED: ATOM      4  C   UNL     1     137.827  80.510 224.226 -0.35 -0.00    +0.044 C  
DOCKED: ATOM      5  C   UNL     1     138.232  78.402 222.915 -0.25 -0.00    +0.006 A  
DOCKED: ATOM      6  C   UNL     1     139.090  77.487 222.303 -0.30 -0.01    +0.030 A  
DOCKED: ATOM      7  C   UNL     1     140.478  77.704 222.296 -0.36 -0.03    +0.084 A  
DOCKED: ENDROOT
DOCKED: BRANCH   1   8
DOCKED: ATOM      8  O   UNL     1     142.401  79.016 222.956 -0.22 +0.24    -0.495 OA 
DOCKED: ATOM      9  C   UNL     1     143.052  80.272 223.120 -0.41 -0.09    +0.278 C  
DOCKED: ENDBRANCH   1   8
DOCKED: BRANCH   7  10
DOCKED: ATOM     10  N   UNL     1     141.368  76.749 221.692 -0.10 +0.16    -0.319 N  
DOCKED: ATOM     11  C   UNL     1     141.072  75.344 221.586 -0.23 -0.06    +0.257 C  
DOCKED: ATOM     12  H   UNL     1     142.253  77.118 221.280 -0.47 -0.15    +0.170 HD 
DOCKED: ATOM     13  O   UNL     1     139.961  74.904 221.988 -0.73 +0.03    -0.269 OA 
DOCKED: BRANCH  11  14
DOCKED: ATOM     14  C   UNL     1     142.051  74.393 221.003 -0.22 -0.01    +0.058 A  
DOCKED: ATOM     15  C   UNL     1     143.248  74.834 220.410 -0.34 -0.01    +0.017 A  
DOCKED: ATOM     16  C   UNL     1     141.780  73.014 221.008 -0.21 -0.02    +0.124 A  
DOCKED: ATOM     17  C   UNL     1     144.142  73.911 219.865 -0.38 -0.01    +0.021 A  
DOCKED: ATOM     18  N   UNL     1     142.669  72.136 220.472 -0.11 +0.04    -0.264 NA 
DOCKED: ATOM     19  C   UNL     1     143.834  72.552 219.909 -0.24 -0.01    +0.111 A  
DOCKED: ENDBRANCH  11  14
DOCKED: ENDBRANCH   7  10
DOCKED: TORSDOF 3
DOCKED: TER
DOCKED: ENDMDL
________________________________________________________________________________


    FINAL DOCKED STATE:
    ________________________


Run:   19 / 20
Time taken for this run:   0.016s

DOCKED: MODEL        19
DOCKED: USER    Run = 19
DOCKED: USER
DOCKED: USER    Estimated Free Energy of Binding    =  -5.17 kcal/mol  [=(1)+(2)+(3)-(4)]
DOCKED: USER
DOCKED: USER    (1) Final Intermolecular Energy     =  -6.07 kcal/mol
DOCKED: USER        vdW + Hbond + desolv Energy     =  -6.09 kcal/mol
DOCKED: USER        Electrostatic Energy            =  +0.02 kcal/mol
DOCKED: USER        Moving Ligand-Fixed Receptor    =  -6.07 kcal/mol
DOCKED: USER        Moving Ligand-Moving Receptor   =  +0.00 kcal/mol
DOCKED: USER    (2) Final Total Internal Energy     =  -0.73 kcal/mol
DOCKED: USER    (3) Torsional Free Energy           =  +0.89 kcal/mol
DOCKED: USER    (4) Unbound System's Energy         =  -0.73 kcal/mol
DOCKED: USER
DOCKED: USER
DOCKED: REMARK SMILES COc1cc(C)ccc1NC(=O)c1cccnc1
DOCKED: REMARK SMILES IDX 3 1 4 2 5 3 6 4 7 5 8 6 9 7 2 8 1 9 10 10 11 11 12 13 13 14
DOCKED: REMARK SMILES IDX 14 15 18 16 15 17 17 18 16 19
DOCKED: REMARK H PARENT 10 12
DOCKED: USER                              x       y       z     vdW  Elec       q    Type
DOCKED: USER                           _______ _______ _______ _____ _____    ______ ____
DOCKED: ROOT
DOCKED: ATOM      1  C   UNL     1     141.007  78.833 222.999 -0.41 -0.04    +0.142 A  
DOCKED: ATOM      2  C   UNL     1     140.129  79.748 223.614 -0.43 -0.01    +0.052 A  
DOCKED: ATOM      3  C   UNL     1     138.741  79.556 223.551 -0.33 +0.01    -0.047 A  
DOCKED: ATOM      4  C   UNL     1     137.815  80.514 224.242 -0.35 -0.00    +0.044 C  
DOCKED: ATOM      5  C   UNL     1     138.230  78.424 222.906 -0.25 -0.00    +0.006 A  
DOCKED: ATOM      6  C   UNL     1     139.093  77.512 222.295 -0.30 -0.01    +0.030 A  
DOCKED: ATOM      7  C   UNL     1     140.482  77.718 222.319 -0.36 -0.03    +0.084 A  
DOCKED: ENDROOT
DOCKED: BRANCH   1   8
DOCKED: ATOM      8  O   UNL     1     142.402  79.004 223.036 -0.22 +0.23    -0.495 OA 
DOCKED: ATOM      9  C   UNL     1     143.061  80.265 223.089 -0.41 -0.09    +0.278 C  
DOCKED: ENDBRANCH   1   8
DOCKED: BRANCH   7  10
DOCKED: ATOM     10  N   UNL     1     141.376  76.766 221.716 -0.10 +0.16    -0.319 N  
DOCKED: ATOM     11  C   UNL     1     141.076  75.363 221.591 -0.23 -0.06    +0.257 C  
DOCKED: ATOM     12  H   UNL     1     142.268  77.135 221.320 -0.47 -0.15    +0.170 HD 
DOCKED: ATOM     13  O   UNL     1     139.957  74.923 221.974 -0.72 +0.03    -0.269 OA 
DOCKED: BRANCH  11  14
DOCKED: ATOM     14  C   UNL     1     142.059  74.414 221.012 -0.22 -0.01    +0.058 A  
DOCKED: ATOM     15  C   UNL     1     143.235  74.860 220.381 -0.34 -0.01    +0.017 A  
DOCKED: ATOM     16  C   UNL     1     141.813  73.031 221.058 -0.21 -0.02    +0.124 A  
DOCKED: ATOM     17  C   UNL     1     144.133  73.938 219.841 -0.38 -0.01    +0.021 A  
DOCKED: ATOM     18  N   UNL     1     142.705  72.155 220.525 -0.12 +0.03    -0.264 NA 
DOCKED: ATOM     19  C   UNL     1     143.850  72.576 219.926 -0.24 -0.01    +0.111 A  
DOCKED: ENDBRANCH  11  14
DOCKED: ENDBRANCH   7  10
DOCKED: TORSDOF 3
DOCKED: TER
DOCKED: ENDMDL
________________________________________________________________________________


    FINAL DOCKED STATE:
    ________________________


Run:   20 / 20
Time taken for this run:   0.016s

DOCKED: MODEL        20
DOCKED: USER    Run = 20
DOCKED: USER
DOCKED: USER    Estimated Free Energy of Binding    =  -5.17 kcal/mol  [=(1)+(2)+(3)-(4)]
DOCKED: USER
DOCKED: USER    (1) Final Intermolecular Energy     =  -6.06 kcal/mol
DOCKED: USER        vdW + Hbond + desolv Energy     =  -6.09 kcal/mol
DOCKED: USER        Electrostatic Energy            =  +0.03 kcal/mol
DOCKED: USER        Moving Ligand-Fixed Receptor    =  -6.06 kcal/mol
DOCKED: USER        Moving Ligand-Moving Receptor   =  +0.00 kcal/mol
DOCKED: USER    (2) Final Total Internal Energy     =  -0.72 kcal/mol
DOCKED: USER    (3) Torsional Free Energy           =  +0.89 kcal/mol
DOCKED: USER    (4) Unbound System's Energy         =  -0.72 kcal/mol
DOCKED: USER
DOCKED: USER
DOCKED: REMARK SMILES COc1cc(C)ccc1NC(=O)c1cccnc1
DOCKED: REMARK SMILES IDX 3 1 4 2 5 3 6 4 7 5 8 6 9 7 2 8 1 9 10 10 11 11 12 13 13 14
DOCKED: REMARK SMILES IDX 14 15 18 16 15 17 17 18 16 19
DOCKED: REMARK H PARENT 10 12
DOCKED: USER                              x       y       z     vdW  Elec       q    Type
DOCKED: USER                           _______ _______ _______ _____ _____    ______ ____
DOCKED: ROOT
DOCKED: ATOM      1  C   UNL     1     141.021  78.854 222.920 -0.40 -0.04    +0.142 A  
DOCKED: ATOM      2  C   UNL     1     140.150  79.774 223.538 -0.43 -0.01    +0.052 A  
DOCKED: ATOM      3  C   UNL     1     138.765  79.557 223.537 -0.34 +0.01    -0.047 A  
DOCKED: ATOM      4  C   UNL     1     137.850  80.522 224.232 -0.35 -0.00    +0.044 C  
DOCKED: ATOM      5  C   UNL     1     138.251  78.395 222.951 -0.25 -0.00    +0.006 A  
DOCKED: ATOM      6  C   UNL     1     139.105  77.478 222.337 -0.30 -0.01    +0.030 A  
DOCKED: ATOM      7  C   UNL     1     140.490  77.708 222.298 -0.36 -0.03    +0.084 A  
DOCKED: ENDROOT
DOCKED: BRANCH   1   8
DOCKED: ATOM      8  O   UNL     1     142.412  79.051 222.895 -0.22 +0.24    -0.495 OA 
DOCKED: ATOM      9  C   UNL     1     143.057  80.301 223.113 -0.41 -0.08    +0.278 C  
DOCKED: ENDBRANCH   1   8
DOCKED: BRANCH   7  10
DOCKED: ATOM     10  N   UNL     1     141.377  76.751 221.693 -0.10 +0.16    -0.319 N  
DOCKED: ATOM     11  C   UNL     1     141.081  75.346 221.591 -0.23 -0.06    +0.257 C  
DOCKED: ATOM     12  H   UNL     1     142.260  77.119 221.276 -0.47 -0.15    +0.170 HD 
DOCKED: ATOM     13  O   UNL     1     139.971  74.907 222.000 -0.73 +0.03    -0.269 OA 
DOCKED: BRANCH  11  14
DOCKED: ATOM     14  C   UNL     1     142.057  74.393 221.007 -0.22 -0.01    +0.058 A  
DOCKED: ATOM     15  C   UNL     1     143.250  74.832 220.406 -0.34 -0.01    +0.017 A  
DOCKED: ATOM     16  C   UNL     1     141.787  73.014 221.018 -0.21 -0.02    +0.124 A  
DOCKED: ATOM     17  C   UNL     1     144.142  73.908 219.860 -0.38 -0.01    +0.021 A  
DOCKED: ATOM     18  N   UNL     1     142.674  72.135 220.481 -0.12 +0.04    -0.264 NA 
DOCKED: ATOM     19  C   UNL     1     143.835  72.549 219.910 -0.24 -0.01    +0.111 A  
DOCKED: ENDBRANCH  11  14
DOCKED: ENDBRANCH   7  10
DOCKED: TORSDOF 3
DOCKED: TER
DOCKED: ENDMDL
________________________________________________________________________________


    CLUSTERING HISTOGRAM
    ____________________


________________________________________________________________________________
     |           |     |           |     |
Clus | Lowest    | Run | Mean      | Num | Histogram
-ter | Binding   |     | Binding   | in  |
Rank | Energy    |     | Energy    | Clus|    5    10   15   20   25   30   35
_____|___________|_____|___________|_____|____:____|____:____|____:____|____:___
   1 |     -5.17 |  19 |     -5.17 |  20 |####################
_____|___________|_____|___________|_____|______________________________________


    RMSD TABLE
    __________


_______________________________________________________________________
     |      |      |           |         |                 |
Rank | Sub- | Run  | Binding   | Cluster | Reference       | Grep
     | Rank |      | Energy    | RMSD    | RMSD            | Pattern
_____|______|______|___________|_________|_________________|___________
   1      1     19       -5.17      0.00    271.95           RANKING
   1      2      6       -5.17      0.03    271.93           RANKING
   1      3      4       -5.17      0.03    271.95           RANKING
   1      4      2       -5.17      0.04    271.93           RANKING
   1      5      8       -5.17      0.03    271.94           RANKING
   1      6     17       -5.17      0.02    271.94           RANKING
   1      7      5       -5.17      0.04    271.93           RANKING
   1      8     16       -5.17      0.03    271.94           RANKING
   1      9      7       -5.17      0.03    271.93           RANKING
   1     10     15       -5.17      0.04    271.95           RANKING
   1     11      9       -5.17      0.06    271.94           RANKING
   1     12     14       -5.17      0.06    271.93           RANKING
   1     13      1       -5.17      0.04    271.94           RANKING
   1     14     18       -5.17      0.04    271.93           RANKING
   1     15      3       -5.17      0.03    271.94           RANKING
   1     16     13       -5.17      0.05    271.92           RANKING
   1     17     10       -5.17      0.06    271.92           RANKING
   1     18     11       -5.17      0.05    271.93           RANKING
   1     19     12       -5.17      0.06    271.94           RANKING
   1     20     20       -5.17      0.06    271.93           RANKING

Run time 0.298 sec
Idle time 0.000 sec
