AutoDock-GPU version: v1.6

**********************************************************
**    AutoDock-GPU AUTODOCKTOOLS-COMPATIBLE DLG FILE    **
**********************************************************


    DOCKING PARAMETERS
    ________________________


Ligand file:                               /home/a/REINVENT4/ReinventStudies/pleaseWork/DH_paper_finaltest_rnv_als_qed_tani/graph-dock/graph-DockGPU/node-autodockgpu/inputs/PLYFEKJTBGHLFX-WIXUSHOQNA-M.pdbqt
Grid fld file:                             /home/a/REINVENT4/ReinventStudies/mols/Rad51/maps/rad51_receptor.maps.fld

Random seed:                               42
Number of runs:                            20
Number of energy evaluations:              1132076
Number of generations:                     42000
Size of population:                        150
Rate of crossover:                         80.000000%
Tournament selection probability limit:    60.000000%
Rate of mutation:                          2.000000%
Maximal allowed delta movement:            +/- 6.000000A
Maximal allowed delta angle:               +/- 90.000000

Rate of local search:                      100.000000%
Maximal number of local search iterations: 300
Rho lower bound:                           0.010000
Spread of local search delta movement:     2.000000A
Spread of local search delta angle:        74.999999
Limit of consecutive successes/failures:   4

Handle symmetry during clustering:         YES
RMSD tolerance:                            2.000000A

Program call in command line was:          /home/a/REINVENT4/ReinventStudies/adgpu-v1.6_linux_x64_cuda12_128wi --filelist batch.txt --heuristics 1 --nrun 20 --psize 150 --lsit 300 --seed 42 --heurmax 12000000 


    GRID PARAMETERS
    ________________________


Receptor name:                             rad51_receptor
Number of grid points (x, y, z):           53, 53, 53
Grid center (x, y, z):                     139.950000, 75.640000, 221.970000A
Grid size (x, y, z):                       19.500000, 19.500000, 19.500000A
Grid spacing:                              0.375000A


    LIGAND PARAMETERS
    ________________________


Ligand name:                               /home/a/REINVENT4/ReinventStudies/pleaseWork/DH_paper_finaltest_rnv_als_qed_tani/graph-dock/graph-DockGPU/node-autodockgpu/inputs/PLYFEKJTBGHLFX-WIXUSHOQNA-M
Number of atoms:                           18
Number of rotatable bonds:                 4
Number of atom types:                      4


    DUMMY DATA (only for ADT-compatibility)
    ________________________


DPF> outlev 1
DPF> ga_run 20
DPF> fld /home/a/REINVENT4/ReinventStudies/mols/Rad51/maps/rad51_receptor.maps.fld
DPF> move /home/a/REINVENT4/ReinventStudies/pleaseWork/DH_paper_finaltest_rnv_als_qed_tani/graph-dock/graph-DockGPU/node-autodockgpu/inputs/PLYFEKJTBGHLFX-WIXUSHOQNA-M.pdbqt


    COUNTER STATES
    ________________________


Number of energy evaluations performed:    833433
Number of generations used:                35


    INPUT LIGAND PDBQT FILE:
    ________________________


INPUT-LIGAND-PDBQT: REMARK SMILES COc1cc(C)ccc1[N-]C(=O)c1cccnc1
INPUT-LIGAND-PDBQT: REMARK SMILES IDX 3 1 4 2 5 3 6 4 7 5 8 6 9 7 2 8 1 9 10 10 11 11 12 12 13 13
INPUT-LIGAND-PDBQT: REMARK SMILES IDX 14 14 18 15 15 16 17 17 16 18
INPUT-LIGAND-PDBQT: REMARK H PARENT
INPUT-LIGAND-PDBQT: ROOT
INPUT-LIGAND-PDBQT: ATOM      1  C   UNL     1      -0.002  -1.928   0.776  1.00  0.00     0.104 A 
INPUT-LIGAND-PDBQT: ATOM      2  C   UNL     1       1.398  -1.967   0.849  1.00  0.00     0.048 A 
INPUT-LIGAND-PDBQT: ATOM      3  C   UNL     1       2.193  -1.259  -0.061  1.00  0.00    -0.048 A 
INPUT-LIGAND-PDBQT: ATOM      4  C   UNL     1       3.689  -1.343   0.015  1.00  0.00     0.044 C 
INPUT-LIGAND-PDBQT: ATOM      5  C   UNL     1       1.581  -0.534  -1.088  1.00  0.00     0.002 A 
INPUT-LIGAND-PDBQT: ATOM      6  C   UNL     1       0.190  -0.488  -1.183  1.00  0.00    -0.012 A 
INPUT-LIGAND-PDBQT: ATOM      7  C   UNL     1      -0.619  -1.162  -0.249  1.00  0.00    -0.091 A 
INPUT-LIGAND-PDBQT: ENDROOT
INPUT-LIGAND-PDBQT: BRANCH   1   8
INPUT-LIGAND-PDBQT: ATOM      8  O   UNL     1      -0.701  -2.661   1.753  1.00  0.00    -0.498 OA
INPUT-LIGAND-PDBQT: ATOM      9  C   UNL     1      -2.112  -2.713   1.931  1.00  0.00     0.278 C 
INPUT-LIGAND-PDBQT: ENDBRANCH   1   8
INPUT-LIGAND-PDBQT: BRANCH   7  10
INPUT-LIGAND-PDBQT: ATOM     10  N   UNL     1      -2.047  -1.124  -0.385  1.00  0.00    -0.620 NA
INPUT-LIGAND-PDBQT: BRANCH  10  11
INPUT-LIGAND-PDBQT: ATOM     11  C   UNL     1      -2.815  -0.072  -0.986  1.00  0.00     0.087 C 
INPUT-LIGAND-PDBQT: ATOM     12  O   UNL     1      -3.876  -0.372  -1.594  1.00  0.00    -0.315 OA
INPUT-LIGAND-PDBQT: BRANCH  11  13
INPUT-LIGAND-PDBQT: ATOM     13  C   UNL     1      -2.425   1.353  -0.864  1.00  0.00     0.018 A 
INPUT-LIGAND-PDBQT: ATOM     14  C   UNL     1      -1.699   1.816   0.245  1.00  0.00     0.013 A 
INPUT-LIGAND-PDBQT: ATOM     15  C   UNL     1      -2.804   2.280  -1.849  1.00  0.00     0.121 A 
INPUT-LIGAND-PDBQT: ATOM     16  C   UNL     1      -1.348   3.163   0.340  1.00  0.00     0.021 A 
INPUT-LIGAND-PDBQT: ATOM     17  N   UNL     1      -2.450   3.588  -1.733  1.00  0.00    -0.264 NA
INPUT-LIGAND-PDBQT: ATOM     18  C   UNL     1      -1.734   4.044  -0.671  1.00  0.00     0.111 A 
INPUT-LIGAND-PDBQT: ENDBRANCH  11  13
INPUT-LIGAND-PDBQT: ENDBRANCH  10  11
INPUT-LIGAND-PDBQT: ENDBRANCH   7  10
INPUT-LIGAND-PDBQT: TORSDOF 4


    FINAL DOCKED STATE:
    ________________________


Run:   1 / 20
Time taken for this run:   0.022s

DOCKED: MODEL        1
DOCKED: USER    Run = 1
DOCKED: USER
DOCKED: USER    Estimated Free Energy of Binding    =  -5.35 kcal/mol  [=(1)+(2)+(3)-(4)]
DOCKED: USER
DOCKED: USER    (1) Final Intermolecular Energy     =  -6.54 kcal/mol
DOCKED: USER        vdW + Hbond + desolv Energy     =  -6.58 kcal/mol
DOCKED: USER        Electrostatic Energy            =  +0.04 kcal/mol
DOCKED: USER        Moving Ligand-Fixed Receptor    =  -6.54 kcal/mol
DOCKED: USER        Moving Ligand-Moving Receptor   =  +0.00 kcal/mol
DOCKED: USER    (2) Final Total Internal Energy     =  -0.72 kcal/mol
DOCKED: USER    (3) Torsional Free Energy           =  +1.19 kcal/mol
DOCKED: USER    (4) Unbound System's Energy         =  -0.72 kcal/mol
DOCKED: USER
DOCKED: USER
DOCKED: REMARK SMILES COc1cc(C)ccc1[N-]C(=O)c1cccnc1
DOCKED: REMARK SMILES IDX 3 1 4 2 5 3 6 4 7 5 8 6 9 7 2 8 1 9 10 10 11 11 12 12 13 13
DOCKED: REMARK SMILES IDX 14 14 18 15 15 16 17 17 16 18
DOCKED: REMARK H PARENT
DOCKED: USER                              x       y       z     vdW  Elec       q    Type
DOCKED: USER                           _______ _______ _______ _____ _____    ______ ____
DOCKED: ROOT
DOCKED: ATOM      1  C   UNL     1     136.931  69.610 224.265 -0.21 -0.01    +0.104 A  
DOCKED: ATOM      2  C   UNL     1     136.490  70.735 223.553 -0.17 -0.01    +0.048 A  
DOCKED: ATOM      3  C   UNL     1     137.383  71.524 222.816 -0.16 +0.01    -0.048 A  
DOCKED: ATOM      4  C   UNL     1     136.894  72.742 222.090 -0.13 -0.01    +0.044 C  
DOCKED: ATOM      5  C   UNL     1     138.745  71.210 222.825 -0.24 -0.00    +0.002 A  
DOCKED: ATOM      6  C   UNL     1     139.206  70.100 223.533 -0.28 +0.00    -0.012 A  
DOCKED: ATOM      7  C   UNL     1     138.312  69.276 224.243 -0.28 +0.01    -0.091 A  
DOCKED: ENDROOT
DOCKED: BRANCH   1   8
DOCKED: ATOM      8  O   UNL     1     135.946  68.879 224.954 -0.28 -0.00    -0.498 OA 
DOCKED: ATOM      9  C   UNL     1     134.658  69.343 225.343 -0.16 -0.02    +0.278 C  
DOCKED: ENDBRANCH   1   8
DOCKED: BRANCH   7  10
DOCKED: ATOM     10  N   UNL     1     138.813  68.156 224.988 -0.38 +0.01    -0.620 NA 
DOCKED: BRANCH  10  11
DOCKED: ATOM     11  C   UNL     1     139.719  68.213 226.098 -0.54 -0.01    +0.087 C  
DOCKED: ATOM     12  O   UNL     1     140.220  67.138 226.522 -0.47 +0.07    -0.315 OA 
DOCKED: BRANCH  11  13
DOCKED: ATOM     13  C   UNL     1     140.120  69.497 226.720 -0.54 -0.00    +0.018 A  
DOCKED: ATOM     14  C   UNL     1     141.074  70.332 226.116 -0.56 -0.00    +0.013 A  
DOCKED: ATOM     15  C   UNL     1     139.570  69.893 227.951 -0.49 -0.02    +0.121 A  
DOCKED: ATOM     16  C   UNL     1     141.438  71.534 226.723 -0.66 -0.00    +0.021 A  
DOCKED: ATOM     17  N   UNL     1     139.943  71.069 228.523 -0.31 +0.05    -0.264 NA 
DOCKED: ATOM     18  C   UNL     1     140.854  71.891 227.939 -0.73 -0.03    +0.111 A  
DOCKED: ENDBRANCH  11  13
DOCKED: ENDBRANCH  10  11
DOCKED: ENDBRANCH   7  10
DOCKED: TORSDOF 4
DOCKED: TER
DOCKED: ENDMDL
________________________________________________________________________________


    FINAL DOCKED STATE:
    ________________________


Run:   2 / 20
Time taken for this run:   0.022s

DOCKED: MODEL        2
DOCKED: USER    Run = 2
DOCKED: USER
DOCKED: USER    Estimated Free Energy of Binding    =  -5.44 kcal/mol  [=(1)+(2)+(3)-(4)]
DOCKED: USER
DOCKED: USER    (1) Final Intermolecular Energy     =  -6.64 kcal/mol
DOCKED: USER        vdW + Hbond + desolv Energy     =  -6.71 kcal/mol
DOCKED: USER        Electrostatic Energy            =  +0.07 kcal/mol
DOCKED: USER        Moving Ligand-Fixed Receptor    =  -6.64 kcal/mol
DOCKED: USER        Moving Ligand-Moving Receptor   =  +0.00 kcal/mol
DOCKED: USER    (2) Final Total Internal Energy     =  -0.63 kcal/mol
DOCKED: USER    (3) Torsional Free Energy           =  +1.19 kcal/mol
DOCKED: USER    (4) Unbound System's Energy         =  -0.63 kcal/mol
DOCKED: USER
DOCKED: USER
DOCKED: REMARK SMILES COc1cc(C)ccc1[N-]C(=O)c1cccnc1
DOCKED: REMARK SMILES IDX 3 1 4 2 5 3 6 4 7 5 8 6 9 7 2 8 1 9 10 10 11 11 12 12 13 13
DOCKED: REMARK SMILES IDX 14 14 18 15 15 16 17 17 16 18
DOCKED: REMARK H PARENT
DOCKED: USER                              x       y       z     vdW  Elec       q    Type
DOCKED: USER                           _______ _______ _______ _____ _____    ______ ____
DOCKED: ROOT
DOCKED: ATOM      1  C   UNL     1     138.564  67.825 223.233 -0.21 -0.01    +0.104 A  
DOCKED: ATOM      2  C   UNL     1     138.058  68.544 222.140 -0.16 -0.01    +0.048 A  
DOCKED: ATOM      3  C   UNL     1     137.711  69.895 222.257 -0.12 +0.01    -0.048 A  
DOCKED: ATOM      4  C   UNL     1     137.140  70.635 221.084 -0.05 -0.01    +0.044 C  
DOCKED: ATOM      5  C   UNL     1     137.830  70.529 223.498 -0.23 -0.00    +0.002 A  
DOCKED: ATOM      6  C   UNL     1     138.324  69.831 224.599 -0.33 +0.00    -0.012 A  
DOCKED: ATOM      7  C   UNL     1     138.715  68.483 224.483 -0.30 +0.01    -0.091 A  
DOCKED: ENDROOT
DOCKED: BRANCH   1   8
DOCKED: ATOM      8  O   UNL     1     138.898  66.478 222.997 -0.19 +0.06    -0.498 OA 
DOCKED: ATOM      9  C   UNL     1     139.360  65.918 221.773 -0.19 -0.06    +0.278 C  
DOCKED: ENDBRANCH   1   8
DOCKED: BRANCH   7  10
DOCKED: ATOM     10  N   UNL     1     139.192  67.777 225.637 -0.53 +0.01    -0.620 NA 
DOCKED: BRANCH  10  11
DOCKED: ATOM     11  C   UNL     1     140.261  68.187 226.501 -0.59 -0.02    +0.087 C  
DOCKED: ATOM     12  O   UNL     1     141.067  67.313 226.918 -0.40 +0.09    -0.315 OA 
DOCKED: BRANCH  11  13
DOCKED: ATOM     13  C   UNL     1     140.475  69.607 226.867 -0.55 -0.00    +0.018 A  
DOCKED: ATOM     14  C   UNL     1     141.250  70.457 226.063 -0.56 -0.00    +0.013 A  
DOCKED: ATOM     15  C   UNL     1     139.925  70.125 228.052 -0.52 -0.02    +0.121 A  
DOCKED: ATOM     16  C   UNL     1     141.441  71.789 226.432 -0.68 -0.00    +0.021 A  
DOCKED: ATOM     17  N   UNL     1     140.126  71.427 228.389 -0.41 +0.06    -0.264 NA 
DOCKED: ATOM     18  C   UNL     1     140.863  72.263 227.610 -0.69 -0.03    +0.111 A  
DOCKED: ENDBRANCH  11  13
DOCKED: ENDBRANCH  10  11
DOCKED: ENDBRANCH   7  10
DOCKED: TORSDOF 4
DOCKED: TER
DOCKED: ENDMDL
________________________________________________________________________________


    FINAL DOCKED STATE:
    ________________________


Run:   3 / 20
Time taken for this run:   0.022s

DOCKED: MODEL        3
DOCKED: USER    Run = 3
DOCKED: USER
DOCKED: USER    Estimated Free Energy of Binding    =  -5.22 kcal/mol  [=(1)+(2)+(3)-(4)]
DOCKED: USER
DOCKED: USER    (1) Final Intermolecular Energy     =  -6.41 kcal/mol
DOCKED: USER        vdW + Hbond + desolv Energy     =  -6.49 kcal/mol
DOCKED: USER        Electrostatic Energy            =  +0.09 kcal/mol
DOCKED: USER        Moving Ligand-Fixed Receptor    =  -6.41 kcal/mol
DOCKED: USER        Moving Ligand-Moving Receptor   =  +0.00 kcal/mol
DOCKED: USER    (2) Final Total Internal Energy     =  -0.85 kcal/mol
DOCKED: USER    (3) Torsional Free Energy           =  +1.19 kcal/mol
DOCKED: USER    (4) Unbound System's Energy         =  -0.85 kcal/mol
DOCKED: USER
DOCKED: USER
DOCKED: REMARK SMILES COc1cc(C)ccc1[N-]C(=O)c1cccnc1
DOCKED: REMARK SMILES IDX 3 1 4 2 5 3 6 4 7 5 8 6 9 7 2 8 1 9 10 10 11 11 12 12 13 13
DOCKED: REMARK SMILES IDX 14 14 18 15 15 16 17 17 16 18
DOCKED: REMARK H PARENT
DOCKED: USER                              x       y       z     vdW  Elec       q    Type
DOCKED: USER                           _______ _______ _______ _____ _____    ______ ____
DOCKED: ROOT
DOCKED: ATOM      1  C   UNL     1     138.427  70.337 223.869 -0.24 -0.02    +0.104 A  
DOCKED: ATOM      2  C   UNL     1     137.519  71.310 223.426 -0.20 -0.01    +0.048 A  
DOCKED: ATOM      3  C   UNL     1     136.178  71.290 223.830 -0.19 +0.01    -0.048 A  
DOCKED: ATOM      4  C   UNL     1     135.217  72.321 223.316 -0.14 -0.01    +0.044 C  
DOCKED: ATOM      5  C   UNL     1     135.725  70.256 224.655 -0.22 -0.00    +0.002 A  
DOCKED: ATOM      6  C   UNL     1     136.610  69.274 225.101 -0.21 +0.00    -0.012 A  
DOCKED: ATOM      7  C   UNL     1     137.969  69.308 224.735 -0.29 +0.01    -0.091 A  
DOCKED: ENDROOT
DOCKED: BRANCH   1   8
DOCKED: ATOM      8  O   UNL     1     139.753  70.465 223.417 -0.07 +0.09    -0.498 OA 
DOCKED: ATOM      9  C   UNL     1     140.334  71.605 222.793 -0.21 -0.04    +0.278 C  
DOCKED: ENDBRANCH   1   8
DOCKED: BRANCH   7  10
DOCKED: ATOM     10  N   UNL     1     138.853  68.271 225.183 -0.32 +0.02    -0.620 NA 
DOCKED: BRANCH  10  11
DOCKED: ATOM     11  C   UNL     1     139.870  68.396 226.187 -0.53 -0.01    +0.087 C  
DOCKED: ATOM     12  O   UNL     1     140.414  67.349 226.627 -0.45 +0.08    -0.315 OA 
DOCKED: BRANCH  11  13
DOCKED: ATOM     13  C   UNL     1     140.330  69.717 226.678 -0.54 -0.00    +0.018 A  
DOCKED: ATOM     14  C   UNL     1     139.882  70.234 227.904 -0.61 -0.00    +0.013 A  
DOCKED: ATOM     15  C   UNL     1     141.208  70.495 225.905 -0.47 -0.02    +0.121 A  
DOCKED: ATOM     16  C   UNL     1     140.326  71.482 228.342 -0.71 -0.00    +0.021 A  
DOCKED: ATOM     17  N   UNL     1     141.625  71.709 226.354 -0.37 +0.03    -0.264 NA 
DOCKED: ATOM     18  C   UNL     1     141.209  72.213 227.546 -0.72 -0.02    +0.111 A  
DOCKED: ENDBRANCH  11  13
DOCKED: ENDBRANCH  10  11
DOCKED: ENDBRANCH   7  10
DOCKED: TORSDOF 4
DOCKED: TER
DOCKED: ENDMDL
________________________________________________________________________________


    FINAL DOCKED STATE:
    ________________________


Run:   4 / 20
Time taken for this run:   0.022s

DOCKED: MODEL        4
DOCKED: USER    Run = 4
DOCKED: USER
DOCKED: USER    Estimated Free Energy of Binding    =  -5.36 kcal/mol  [=(1)+(2)+(3)-(4)]
DOCKED: USER
DOCKED: USER    (1) Final Intermolecular Energy     =  -6.55 kcal/mol
DOCKED: USER        vdW + Hbond + desolv Energy     =  -6.56 kcal/mol
DOCKED: USER        Electrostatic Energy            =  +0.01 kcal/mol
DOCKED: USER        Moving Ligand-Fixed Receptor    =  -6.55 kcal/mol
DOCKED: USER        Moving Ligand-Moving Receptor   =  +0.00 kcal/mol
DOCKED: USER    (2) Final Total Internal Energy     =  -0.71 kcal/mol
DOCKED: USER    (3) Torsional Free Energy           =  +1.19 kcal/mol
DOCKED: USER    (4) Unbound System's Energy         =  -0.71 kcal/mol
DOCKED: USER
DOCKED: USER
DOCKED: REMARK SMILES COc1cc(C)ccc1[N-]C(=O)c1cccnc1
DOCKED: REMARK SMILES IDX 3 1 4 2 5 3 6 4 7 5 8 6 9 7 2 8 1 9 10 10 11 11 12 12 13 13
DOCKED: REMARK SMILES IDX 14 14 18 15 15 16 17 17 16 18
DOCKED: REMARK H PARENT
DOCKED: USER                              x       y       z     vdW  Elec       q    Type
DOCKED: USER                           _______ _______ _______ _____ _____    ______ ____
DOCKED: ROOT
DOCKED: ATOM      1  C   UNL     1     136.847  69.593 224.255 -0.21 -0.01    +0.104 A  
DOCKED: ATOM      2  C   UNL     1     136.381  70.718 223.560 -0.17 -0.01    +0.048 A  
DOCKED: ATOM      3  C   UNL     1     137.246  71.510 222.795 -0.16 +0.01    -0.048 A  
DOCKED: ATOM      4  C   UNL     1     136.731  72.729 222.088 -0.12 -0.01    +0.044 C  
DOCKED: ATOM      5  C   UNL     1     138.609  71.198 222.757 -0.22 -0.00    +0.002 A  
DOCKED: ATOM      6  C   UNL     1     139.095  70.088 223.447 -0.27 +0.00    -0.012 A  
DOCKED: ATOM      7  C   UNL     1     138.227  69.261 224.186 -0.27 +0.01    -0.091 A  
DOCKED: ENDROOT
DOCKED: BRANCH   1   8
DOCKED: ATOM      8  O   UNL     1     135.887  68.859 224.976 -0.29 -0.00    -0.498 OA 
DOCKED: ATOM      9  C   UNL     1     134.562  69.271 225.293 -0.16 -0.02    +0.278 C  
DOCKED: ENDBRANCH   1   8
DOCKED: BRANCH   7  10
DOCKED: ATOM     10  N   UNL     1     138.755  68.142 224.911 -0.36 +0.00    -0.620 NA 
DOCKED: BRANCH  10  11
DOCKED: ATOM     11  C   UNL     1     139.664  68.200 226.019 -0.53 -0.01    +0.087 C  
DOCKED: ATOM     12  O   UNL     1     140.131  67.123 226.474 -0.49 +0.06    -0.315 OA 
DOCKED: BRANCH  11  13
DOCKED: ATOM     13  C   UNL     1     140.109  69.489 226.603 -0.53 -0.00    +0.018 A  
DOCKED: ATOM     14  C   UNL     1     139.580  69.958 227.816 -0.57 -0.00    +0.013 A  
DOCKED: ATOM     15  C   UNL     1     141.052  70.284 225.932 -0.46 -0.02    +0.121 A  
DOCKED: ATOM     16  C   UNL     1     140.010  71.177 228.343 -0.63 -0.00    +0.021 A  
DOCKED: ATOM     17  N   UNL     1     141.455  71.468 226.466 -0.41 +0.03    -0.264 NA 
DOCKED: ATOM     18  C   UNL     1     140.961  71.925 227.648 -0.73 -0.02    +0.111 A  
DOCKED: ENDBRANCH  11  13
DOCKED: ENDBRANCH  10  11
DOCKED: ENDBRANCH   7  10
DOCKED: TORSDOF 4
DOCKED: TER
DOCKED: ENDMDL
________________________________________________________________________________


    FINAL DOCKED STATE:
    ________________________


Run:   5 / 20
Time taken for this run:   0.022s

DOCKED: MODEL        5
DOCKED: USER    Run = 5
DOCKED: USER
DOCKED: USER    Estimated Free Energy of Binding    =  -5.52 kcal/mol  [=(1)+(2)+(3)-(4)]
DOCKED: USER
DOCKED: USER    (1) Final Intermolecular Energy     =  -6.72 kcal/mol
DOCKED: USER        vdW + Hbond + desolv Energy     =  -6.77 kcal/mol
DOCKED: USER        Electrostatic Energy            =  +0.06 kcal/mol
DOCKED: USER        Moving Ligand-Fixed Receptor    =  -6.72 kcal/mol
DOCKED: USER        Moving Ligand-Moving Receptor   =  +0.00 kcal/mol
DOCKED: USER    (2) Final Total Internal Energy     =  -0.62 kcal/mol
DOCKED: USER    (3) Torsional Free Energy           =  +1.19 kcal/mol
DOCKED: USER    (4) Unbound System's Energy         =  -0.62 kcal/mol
DOCKED: USER
DOCKED: USER
DOCKED: REMARK SMILES COc1cc(C)ccc1[N-]C(=O)c1cccnc1
DOCKED: REMARK SMILES IDX 3 1 4 2 5 3 6 4 7 5 8 6 9 7 2 8 1 9 10 10 11 11 12 12 13 13
DOCKED: REMARK SMILES IDX 14 14 18 15 15 16 17 17 16 18
DOCKED: REMARK H PARENT
DOCKED: USER                              x       y       z     vdW  Elec       q    Type
DOCKED: USER                           _______ _______ _______ _____ _____    ______ ____
DOCKED: ROOT
DOCKED: ATOM      1  C   UNL     1     138.495  67.927 223.359 -0.20 -0.01    +0.104 A  
DOCKED: ATOM      2  C   UNL     1     137.932  68.695 222.329 -0.17 -0.01    +0.048 A  
DOCKED: ATOM      3  C   UNL     1     137.544  70.024 222.542 -0.13 +0.01    -0.048 A  
DOCKED: ATOM      4  C   UNL     1     136.912  70.815 221.435 -0.06 -0.01    +0.044 C  
DOCKED: ATOM      5  C   UNL     1     137.680  70.583 223.817 -0.25 -0.00    +0.002 A  
DOCKED: ATOM      6  C   UNL     1     138.231  69.834 224.857 -0.32 +0.00    -0.012 A  
DOCKED: ATOM      7  C   UNL     1     138.663  68.511 224.643 -0.31 +0.01    -0.091 A  
DOCKED: ENDROOT
DOCKED: BRANCH   1   8
DOCKED: ATOM      8  O   UNL     1     138.866  66.611 223.028 -0.20 +0.05    -0.498 OA 
DOCKED: ATOM      9  C   UNL     1     139.191  66.118 221.733 -0.19 -0.06    +0.278 C  
DOCKED: ENDBRANCH   1   8
DOCKED: BRANCH   7  10
DOCKED: ATOM     10  N   UNL     1     139.199  67.752 225.736 -0.53 +0.02    -0.620 NA 
DOCKED: BRANCH  10  11
DOCKED: ATOM     11  C   UNL     1     140.265  68.155 226.608 -0.59 -0.02    +0.087 C  
DOCKED: ATOM     12  O   UNL     1     141.014  67.267 227.093 -0.36 +0.10    -0.315 OA 
DOCKED: BRANCH  11  13
DOCKED: ATOM     13  C   UNL     1     140.539  69.581 226.906 -0.56 -0.00    +0.018 A  
DOCKED: ATOM     14  C   UNL     1     140.053  70.185 228.076 -0.62 -0.00    +0.013 A  
DOCKED: ATOM     15  C   UNL     1     141.270  70.368 226.001 -0.46 -0.02    +0.121 A  
DOCKED: ATOM     16  C   UNL     1     140.320  71.531 228.332 -0.72 -0.00    +0.021 A  
DOCKED: ATOM     17  N   UNL     1     141.516  71.677 226.273 -0.39 +0.03    -0.264 NA 
DOCKED: ATOM     18  C   UNL     1     141.063  72.269 227.411 -0.72 -0.02    +0.111 A  
DOCKED: ENDBRANCH  11  13
DOCKED: ENDBRANCH  10  11
DOCKED: ENDBRANCH   7  10
DOCKED: TORSDOF 4
DOCKED: TER
DOCKED: ENDMDL
________________________________________________________________________________


    FINAL DOCKED STATE:
    ________________________


Run:   6 / 20
Time taken for this run:   0.022s

DOCKED: MODEL        6
DOCKED: USER    Run = 6
DOCKED: USER
DOCKED: USER    Estimated Free Energy of Binding    =  -5.22 kcal/mol  [=(1)+(2)+(3)-(4)]
DOCKED: USER
DOCKED: USER    (1) Final Intermolecular Energy     =  -6.41 kcal/mol
DOCKED: USER        vdW + Hbond + desolv Energy     =  -6.50 kcal/mol
DOCKED: USER        Electrostatic Energy            =  +0.08 kcal/mol
DOCKED: USER        Moving Ligand-Fixed Receptor    =  -6.41 kcal/mol
DOCKED: USER        Moving Ligand-Moving Receptor   =  +0.00 kcal/mol
DOCKED: USER    (2) Final Total Internal Energy     =  -0.85 kcal/mol
DOCKED: USER    (3) Torsional Free Energy           =  +1.19 kcal/mol
DOCKED: USER    (4) Unbound System's Energy         =  -0.85 kcal/mol
DOCKED: USER
DOCKED: USER
DOCKED: REMARK SMILES COc1cc(C)ccc1[N-]C(=O)c1cccnc1
DOCKED: REMARK SMILES IDX 3 1 4 2 5 3 6 4 7 5 8 6 9 7 2 8 1 9 10 10 11 11 12 12 13 13
DOCKED: REMARK SMILES IDX 14 14 18 15 15 16 17 17 16 18
DOCKED: REMARK H PARENT
DOCKED: USER                              x       y       z     vdW  Elec       q    Type
DOCKED: USER                           _______ _______ _______ _____ _____    ______ ____
DOCKED: ROOT
DOCKED: ATOM      1  C   UNL     1     138.417  70.302 223.827 -0.24 -0.02    +0.104 A  
DOCKED: ATOM      2  C   UNL     1     137.508  71.275 223.386 -0.20 -0.01    +0.048 A  
DOCKED: ATOM      3  C   UNL     1     136.173  71.266 223.807 -0.18 +0.01    -0.048 A  
DOCKED: ATOM      4  C   UNL     1     135.210  72.296 223.295 -0.14 -0.01    +0.044 C  
DOCKED: ATOM      5  C   UNL     1     135.726  70.243 224.650 -0.22 -0.00    +0.002 A  
DOCKED: ATOM      6  C   UNL     1     136.612  69.262 225.094 -0.21 +0.00    -0.012 A  
DOCKED: ATOM      7  C   UNL     1     137.965  69.285 224.710 -0.29 +0.01    -0.091 A  
DOCKED: ENDROOT
DOCKED: BRANCH   1   8
DOCKED: ATOM      8  O   UNL     1     139.738  70.419 223.356 -0.07 +0.09    -0.498 OA 
DOCKED: ATOM      9  C   UNL     1     140.323  71.558 222.736 -0.21 -0.04    +0.278 C  
DOCKED: ENDBRANCH   1   8
DOCKED: BRANCH   7  10
DOCKED: ATOM     10  N   UNL     1     138.851  68.248 225.157 -0.34 +0.02    -0.620 NA 
DOCKED: BRANCH  10  11
DOCKED: ATOM     11  C   UNL     1     139.887  68.381 226.139 -0.53 -0.01    +0.087 C  
DOCKED: ATOM     12  O   UNL     1     140.472  67.341 226.543 -0.45 +0.08    -0.315 OA 
DOCKED: BRANCH  11  13
DOCKED: ATOM     13  C   UNL     1     140.323  69.704 226.647 -0.54 -0.00    +0.018 A  
DOCKED: ATOM     14  C   UNL     1     139.880  70.188 227.888 -0.61 -0.00    +0.013 A  
DOCKED: ATOM     15  C   UNL     1     141.169  70.518 225.875 -0.48 -0.02    +0.121 A  
DOCKED: ATOM     16  C   UNL     1     140.300  71.439 228.343 -0.70 -0.00    +0.021 A  
DOCKED: ATOM     17  N   UNL     1     141.563  71.733 226.340 -0.39 +0.03    -0.264 NA 
DOCKED: ATOM     18  C   UNL     1     141.153  72.205 227.548 -0.72 -0.02    +0.111 A  
DOCKED: ENDBRANCH  11  13
DOCKED: ENDBRANCH  10  11
DOCKED: ENDBRANCH   7  10
DOCKED: TORSDOF 4
DOCKED: TER
DOCKED: ENDMDL
________________________________________________________________________________


    FINAL DOCKED STATE:
    ________________________


Run:   7 / 20
Time taken for this run:   0.022s

DOCKED: MODEL        7
DOCKED: USER    Run = 7
DOCKED: USER
DOCKED: USER    Estimated Free Energy of Binding    =  -5.05 kcal/mol  [=(1)+(2)+(3)-(4)]
DOCKED: USER
DOCKED: USER    (1) Final Intermolecular Energy     =  -6.25 kcal/mol
DOCKED: USER        vdW + Hbond + desolv Energy     =  -6.32 kcal/mol
DOCKED: USER        Electrostatic Energy            =  +0.07 kcal/mol
DOCKED: USER        Moving Ligand-Fixed Receptor    =  -6.25 kcal/mol
DOCKED: USER        Moving Ligand-Moving Receptor   =  +0.00 kcal/mol
DOCKED: USER    (2) Final Total Internal Energy     =  -0.81 kcal/mol
DOCKED: USER    (3) Torsional Free Energy           =  +1.19 kcal/mol
DOCKED: USER    (4) Unbound System's Energy         =  -0.81 kcal/mol
DOCKED: USER
DOCKED: USER
DOCKED: REMARK SMILES COc1cc(C)ccc1[N-]C(=O)c1cccnc1
DOCKED: REMARK SMILES IDX 3 1 4 2 5 3 6 4 7 5 8 6 9 7 2 8 1 9 10 10 11 11 12 12 13 13
DOCKED: REMARK SMILES IDX 14 14 18 15 15 16 17 17 16 18
DOCKED: REMARK H PARENT
DOCKED: USER                              x       y       z     vdW  Elec       q    Type
DOCKED: USER                           _______ _______ _______ _____ _____    ______ ____
DOCKED: ROOT
DOCKED: ATOM      1  C   UNL     1     137.088  69.831 224.346 -0.22 -0.01    +0.104 A  
DOCKED: ATOM      2  C   UNL     1     136.687  70.943 223.591 -0.18 -0.01    +0.048 A  
DOCKED: ATOM      3  C   UNL     1     137.512  71.479 222.594 -0.15 +0.01    -0.048 A  
DOCKED: ATOM      4  C   UNL     1     137.078  72.690 221.822 -0.12 -0.01    +0.044 C  
DOCKED: ATOM      5  C   UNL     1     138.776  70.923 222.376 -0.19 -0.00    +0.002 A  
DOCKED: ATOM      6  C   UNL     1     139.196  69.821 223.121 -0.24 +0.00    -0.012 A  
DOCKED: ATOM      7  C   UNL     1     138.359  69.249 224.097 -0.27 +0.01    -0.091 A  
DOCKED: ENDROOT
DOCKED: BRANCH   1   8
DOCKED: ATOM      8  O   UNL     1     136.172  69.364 225.308 -0.09 +0.02    -0.498 OA 
DOCKED: ATOM      9  C   UNL     1     134.838  68.927 225.072 -0.13 -0.01    +0.278 C  
DOCKED: ENDBRANCH   1   8
DOCKED: BRANCH   7  10
DOCKED: ATOM     10  N   UNL     1     138.825  68.134 224.871 -0.38 +0.01    -0.620 NA 
DOCKED: BRANCH  10  11
DOCKED: ATOM     11  C   UNL     1     139.705  68.195 226.003 -0.53 -0.01    +0.087 C  
DOCKED: ATOM     12  O   UNL     1     140.151  67.117 226.478 -0.49 +0.07    -0.315 OA 
DOCKED: BRANCH  11  13
DOCKED: ATOM     13  C   UNL     1     140.144  69.484 226.587 -0.53 -0.00    +0.018 A  
DOCKED: ATOM     14  C   UNL     1     141.031  70.329 225.901 -0.55 -0.00    +0.013 A  
DOCKED: ATOM     15  C   UNL     1     139.701  69.873 227.862 -0.50 -0.02    +0.121 A  
DOCKED: ATOM     16  C   UNL     1     141.434  71.536 226.475 -0.67 -0.00    +0.021 A  
DOCKED: ATOM     17  N   UNL     1     140.109  71.054 228.400 -0.36 +0.05    -0.264 NA 
DOCKED: ATOM     18  C   UNL     1     140.956  71.887 227.738 -0.73 -0.02    +0.111 A  
DOCKED: ENDBRANCH  11  13
DOCKED: ENDBRANCH  10  11
DOCKED: ENDBRANCH   7  10
DOCKED: TORSDOF 4
DOCKED: TER
DOCKED: ENDMDL
________________________________________________________________________________


    FINAL DOCKED STATE:
    ________________________


Run:   8 / 20
Time taken for this run:   0.022s

DOCKED: MODEL        8
DOCKED: USER    Run = 8
DOCKED: USER
DOCKED: USER    Estimated Free Energy of Binding    =  -5.34 kcal/mol  [=(1)+(2)+(3)-(4)]
DOCKED: USER
DOCKED: USER    (1) Final Intermolecular Energy     =  -6.54 kcal/mol
DOCKED: USER        vdW + Hbond + desolv Energy     =  -6.58 kcal/mol
DOCKED: USER        Electrostatic Energy            =  +0.04 kcal/mol
DOCKED: USER        Moving Ligand-Fixed Receptor    =  -6.54 kcal/mol
DOCKED: USER        Moving Ligand-Moving Receptor   =  +0.00 kcal/mol
DOCKED: USER    (2) Final Total Internal Energy     =  -0.72 kcal/mol
DOCKED: USER    (3) Torsional Free Energy           =  +1.19 kcal/mol
DOCKED: USER    (4) Unbound System's Energy         =  -0.72 kcal/mol
DOCKED: USER
DOCKED: USER
DOCKED: REMARK SMILES COc1cc(C)ccc1[N-]C(=O)c1cccnc1
DOCKED: REMARK SMILES IDX 3 1 4 2 5 3 6 4 7 5 8 6 9 7 2 8 1 9 10 10 11 11 12 12 13 13
DOCKED: REMARK SMILES IDX 14 14 18 15 15 16 17 17 16 18
DOCKED: REMARK H PARENT
DOCKED: USER                              x       y       z     vdW  Elec       q    Type
DOCKED: USER                           _______ _______ _______ _____ _____    ______ ____
DOCKED: ROOT
DOCKED: ATOM      1  C   UNL     1     136.936  69.619 224.262 -0.21 -0.01    +0.104 A  
DOCKED: ATOM      2  C   UNL     1     136.487  70.751 223.565 -0.17 -0.01    +0.048 A  
DOCKED: ATOM      3  C   UNL     1     137.369  71.540 222.816 -0.16 +0.01    -0.048 A  
DOCKED: ATOM      4  C   UNL     1     136.873  72.765 222.106 -0.13 -0.01    +0.044 C  
DOCKED: ATOM      5  C   UNL     1     138.730  71.219 222.797 -0.23 -0.00    +0.002 A  
DOCKED: ATOM      6  C   UNL     1     139.198  70.102 223.489 -0.27 +0.00    -0.012 A  
DOCKED: ATOM      7  C   UNL     1     138.314  69.278 224.211 -0.27 +0.01    -0.091 A  
DOCKED: ENDROOT
DOCKED: BRANCH   1   8
DOCKED: ATOM      8  O   UNL     1     135.960  68.889 224.965 -0.28 -0.00    -0.498 OA 
DOCKED: ATOM      9  C   UNL     1     134.669  69.347 225.353 -0.16 -0.02    +0.278 C  
DOCKED: ENDBRANCH   1   8
DOCKED: BRANCH   7  10
DOCKED: ATOM     10  N   UNL     1     138.824  68.152 224.939 -0.38 +0.01    -0.620 NA 
DOCKED: BRANCH  10  11
DOCKED: ATOM     11  C   UNL     1     139.700  68.200 226.074 -0.53 -0.01    +0.087 C  
DOCKED: ATOM     12  O   UNL     1     140.162  67.120 226.525 -0.48 +0.07    -0.315 OA 
DOCKED: BRANCH  11  13
DOCKED: ATOM     13  C   UNL     1     140.115  69.483 226.691 -0.53 -0.00    +0.018 A  
DOCKED: ATOM     14  C   UNL     1     141.058  70.317 226.069 -0.56 -0.00    +0.013 A  
DOCKED: ATOM     15  C   UNL     1     139.592  69.876 227.934 -0.49 -0.02    +0.121 A  
DOCKED: ATOM     16  C   UNL     1     141.438  71.517 226.671 -0.66 -0.00    +0.021 A  
DOCKED: ATOM     17  N   UNL     1     139.979  71.050 228.501 -0.32 +0.05    -0.264 NA 
DOCKED: ATOM     18  C   UNL     1     140.879  71.872 227.900 -0.73 -0.03    +0.111 A  
DOCKED: ENDBRANCH  11  13
DOCKED: ENDBRANCH  10  11
DOCKED: ENDBRANCH   7  10
DOCKED: TORSDOF 4
DOCKED: TER
DOCKED: ENDMDL
________________________________________________________________________________


    FINAL DOCKED STATE:
    ________________________


Run:   9 / 20
Time taken for this run:   0.022s

DOCKED: MODEL        9
DOCKED: USER    Run = 9
DOCKED: USER
DOCKED: USER    Estimated Free Energy of Binding    =  -5.14 kcal/mol  [=(1)+(2)+(3)-(4)]
DOCKED: USER
DOCKED: USER    (1) Final Intermolecular Energy     =  -6.33 kcal/mol
DOCKED: USER        vdW + Hbond + desolv Energy     =  -6.43 kcal/mol
DOCKED: USER        Electrostatic Energy            =  +0.10 kcal/mol
DOCKED: USER        Moving Ligand-Fixed Receptor    =  -6.33 kcal/mol
DOCKED: USER        Moving Ligand-Moving Receptor   =  +0.00 kcal/mol
DOCKED: USER    (2) Final Total Internal Energy     =  -0.86 kcal/mol
DOCKED: USER    (3) Torsional Free Energy           =  +1.19 kcal/mol
DOCKED: USER    (4) Unbound System's Energy         =  -0.86 kcal/mol
DOCKED: USER
DOCKED: USER
DOCKED: REMARK SMILES COc1cc(C)ccc1[N-]C(=O)c1cccnc1
DOCKED: REMARK SMILES IDX 3 1 4 2 5 3 6 4 7 5 8 6 9 7 2 8 1 9 10 10 11 11 12 12 13 13
DOCKED: REMARK SMILES IDX 14 14 18 15 15 16 17 17 16 18
DOCKED: REMARK H PARENT
DOCKED: USER                              x       y       z     vdW  Elec       q    Type
DOCKED: USER                           _______ _______ _______ _____ _____    ______ ____
DOCKED: ROOT
DOCKED: ATOM      1  C   UNL     1     138.394  70.240 223.745 -0.23 -0.02    +0.104 A  
DOCKED: ATOM      2  C   UNL     1     137.483  71.218 223.321 -0.20 -0.01    +0.048 A  
DOCKED: ATOM      3  C   UNL     1     136.144  71.192 223.733 -0.18 +0.01    -0.048 A  
DOCKED: ATOM      4  C   UNL     1     135.179  72.229 223.239 -0.13 -0.01    +0.044 C  
DOCKED: ATOM      5  C   UNL     1     135.698  70.148 224.549 -0.22 -0.00    +0.002 A  
DOCKED: ATOM      6  C   UNL     1     136.587  69.161 224.977 -0.21 +0.00    -0.012 A  
DOCKED: ATOM      7  C   UNL     1     137.943  69.201 224.602 -0.28 +0.01    -0.091 A  
DOCKED: ENDROOT
DOCKED: BRANCH   1   8
DOCKED: ATOM      8  O   UNL     1     139.717  70.375 223.285 -0.06 +0.09    -0.498 OA 
DOCKED: ATOM      9  C   UNL     1     140.319  71.551 222.755 -0.21 -0.04    +0.278 C  
DOCKED: ENDBRANCH   1   8
DOCKED: BRANCH   7  10
DOCKED: ATOM     10  N   UNL     1     138.831  68.159 225.031 -0.38 +0.01    -0.620 NA 
DOCKED: BRANCH  10  11
DOCKED: ATOM     11  C   UNL     1     139.819  68.257 226.065 -0.53 -0.01    +0.087 C  
DOCKED: ATOM     12  O   UNL     1     140.383  67.204 226.463 -0.46 +0.07    -0.315 OA 
DOCKED: BRANCH  11  13
DOCKED: ATOM     13  C   UNL     1     140.231  69.562 226.636 -0.53 -0.00    +0.018 A  
DOCKED: ATOM     14  C   UNL     1     141.092  70.423 225.937 -0.56 -0.00    +0.013 A  
DOCKED: ATOM     15  C   UNL     1     139.788  69.951 227.911 -0.51 -0.02    +0.121 A  
DOCKED: ATOM     16  C   UNL     1     141.469  71.644 226.497 -0.66 -0.00    +0.021 A  
DOCKED: ATOM     17  N   UNL     1     140.170  71.146 228.436 -0.35 +0.05    -0.264 NA 
DOCKED: ATOM     18  C   UNL     1     140.991  71.994 227.761 -0.72 -0.03    +0.111 A  
DOCKED: ENDBRANCH  11  13
DOCKED: ENDBRANCH  10  11
DOCKED: ENDBRANCH   7  10
DOCKED: TORSDOF 4
DOCKED: TER
DOCKED: ENDMDL
________________________________________________________________________________


    FINAL DOCKED STATE:
    ________________________


Run:   10 / 20
Time taken for this run:   0.022s

DOCKED: MODEL        10
DOCKED: USER    Run = 10
DOCKED: USER
DOCKED: USER    Estimated Free Energy of Binding    =  -5.37 kcal/mol  [=(1)+(2)+(3)-(4)]
DOCKED: USER
DOCKED: USER    (1) Final Intermolecular Energy     =  -6.56 kcal/mol
DOCKED: USER        vdW + Hbond + desolv Energy     =  -6.52 kcal/mol
DOCKED: USER        Electrostatic Energy            =  -0.04 kcal/mol
DOCKED: USER        Moving Ligand-Fixed Receptor    =  -6.56 kcal/mol
DOCKED: USER        Moving Ligand-Moving Receptor   =  +0.00 kcal/mol
DOCKED: USER    (2) Final Total Internal Energy     =  -0.68 kcal/mol
DOCKED: USER    (3) Torsional Free Energy           =  +1.19 kcal/mol
DOCKED: USER    (4) Unbound System's Energy         =  -0.68 kcal/mol
DOCKED: USER
DOCKED: USER
DOCKED: REMARK SMILES COc1cc(C)ccc1[N-]C(=O)c1cccnc1
DOCKED: REMARK SMILES IDX 3 1 4 2 5 3 6 4 7 5 8 6 9 7 2 8 1 9 10 10 11 11 12 12 13 13
DOCKED: REMARK SMILES IDX 14 14 18 15 15 16 17 17 16 18
DOCKED: REMARK H PARENT
DOCKED: USER                              x       y       z     vdW  Elec       q    Type
DOCKED: USER                           _______ _______ _______ _____ _____    ______ ____
DOCKED: ROOT
DOCKED: ATOM      1  C   UNL     1     136.493  69.536 224.385 -0.20 -0.01    +0.104 A  
DOCKED: ATOM      2  C   UNL     1     135.928  70.711 223.868 -0.17 -0.01    +0.048 A  
DOCKED: ATOM      3  C   UNL     1     136.718  71.681 223.240 -0.17 +0.01    -0.048 A  
DOCKED: ATOM      4  C   UNL     1     136.096  72.946 222.725 -0.15 -0.01    +0.044 C  
DOCKED: ATOM      5  C   UNL     1     138.102  71.496 223.164 -0.22 -0.00    +0.002 A  
DOCKED: ATOM      6  C   UNL     1     138.685  70.338 223.678 -0.28 +0.00    -0.012 A  
DOCKED: ATOM      7  C   UNL     1     137.895  69.337 224.274 -0.26 +0.01    -0.091 A  
DOCKED: ENDROOT
DOCKED: BRANCH   1   8
DOCKED: ATOM      8  O   UNL     1     135.603  68.621 224.978 -0.33 -0.02    -0.498 OA 
DOCKED: ATOM      9  C   UNL     1     134.339  68.917 225.560 -0.16 -0.01    +0.278 C  
DOCKED: ENDBRANCH   1   8
DOCKED: BRANCH   7  10
DOCKED: ATOM     10  N   UNL     1     138.522  68.168 224.822 -0.25 -0.01    -0.620 NA 
DOCKED: BRANCH  10  11
DOCKED: ATOM     11  C   UNL     1     139.403  68.128 225.954 -0.51 -0.01    +0.087 C  
DOCKED: ATOM     12  O   UNL     1     139.733  67.006 226.421 -0.58 +0.04    -0.315 OA 
DOCKED: BRANCH  11  13
DOCKED: ATOM     13  C   UNL     1     139.973  69.360 226.548 -0.52 -0.00    +0.018 A  
DOCKED: ATOM     14  C   UNL     1     139.554  69.822 227.807 -0.57 -0.00    +0.013 A  
DOCKED: ATOM     15  C   UNL     1     140.929  70.112 225.845 -0.44 -0.02    +0.121 A  
DOCKED: ATOM     16  C   UNL     1     140.102  70.987 228.343 -0.62 -0.00    +0.021 A  
DOCKED: ATOM     17  N   UNL     1     141.448  71.245 226.390 -0.38 +0.03    -0.264 NA 
DOCKED: ATOM     18  C   UNL     1     141.060  71.692 227.614 -0.71 -0.02    +0.111 A  
DOCKED: ENDBRANCH  11  13
DOCKED: ENDBRANCH  10  11
DOCKED: ENDBRANCH   7  10
DOCKED: TORSDOF 4
DOCKED: TER
DOCKED: ENDMDL
________________________________________________________________________________


    FINAL DOCKED STATE:
    ________________________


Run:   11 / 20
Time taken for this run:   0.022s

DOCKED: MODEL        11
DOCKED: USER    Run = 11
DOCKED: USER
DOCKED: USER    Estimated Free Energy of Binding    =  -5.36 kcal/mol  [=(1)+(2)+(3)-(4)]
DOCKED: USER
DOCKED: USER    (1) Final Intermolecular Energy     =  -6.55 kcal/mol
DOCKED: USER        vdW + Hbond + desolv Energy     =  -6.67 kcal/mol
DOCKED: USER        Electrostatic Energy            =  +0.12 kcal/mol
DOCKED: USER        Moving Ligand-Fixed Receptor    =  -6.55 kcal/mol
DOCKED: USER        Moving Ligand-Moving Receptor   =  +0.00 kcal/mol
DOCKED: USER    (2) Final Total Internal Energy     =  -0.70 kcal/mol
DOCKED: USER    (3) Torsional Free Energy           =  +1.19 kcal/mol
DOCKED: USER    (4) Unbound System's Energy         =  -0.70 kcal/mol
DOCKED: USER
DOCKED: USER
DOCKED: REMARK SMILES COc1cc(C)ccc1[N-]C(=O)c1cccnc1
DOCKED: REMARK SMILES IDX 3 1 4 2 5 3 6 4 7 5 8 6 9 7 2 8 1 9 10 10 11 11 12 12 13 13
DOCKED: REMARK SMILES IDX 14 14 18 15 15 16 17 17 16 18
DOCKED: REMARK H PARENT
DOCKED: USER                              x       y       z     vdW  Elec       q    Type
DOCKED: USER                           _______ _______ _______ _____ _____    ______ ____
DOCKED: ROOT
DOCKED: ATOM      1  C   UNL     1     138.534  68.074 223.312 -0.23 -0.01    +0.104 A  
DOCKED: ATOM      2  C   UNL     1     137.876  68.848 222.345 -0.16 -0.01    +0.048 A  
DOCKED: ATOM      3  C   UNL     1     137.239  70.048 222.686 -0.13 +0.01    -0.048 A  
DOCKED: ATOM      4  C   UNL     1     136.512  70.843 221.642 -0.05 -0.01    +0.044 C  
DOCKED: ATOM      5  C   UNL     1     137.222  70.461 224.022 -0.24 -0.00    +0.002 A  
DOCKED: ATOM      6  C   UNL     1     137.864  69.701 225.000 -0.29 +0.00    -0.012 A  
DOCKED: ATOM      7  C   UNL     1     138.542  68.515 224.662 -0.30 +0.00    -0.091 A  
DOCKED: ENDROOT
DOCKED: BRANCH   1   8
DOCKED: ATOM      8  O   UNL     1     139.156  66.897 222.854 -0.15 +0.09    -0.498 OA 
DOCKED: ATOM      9  C   UNL     1     138.604  65.933 221.965 -0.19 -0.05    +0.278 C  
DOCKED: ENDBRANCH   1   8
DOCKED: BRANCH   7  10
DOCKED: ATOM     10  N   UNL     1     139.170  67.735 225.690 -0.53 +0.01    -0.620 NA 
DOCKED: BRANCH  10  11
DOCKED: ATOM     11  C   UNL     1     140.257  68.152 226.528 -0.59 -0.02    +0.087 C  
DOCKED: ATOM     12  O   UNL     1     141.058  67.280 226.954 -0.38 +0.09    -0.315 OA 
DOCKED: BRANCH  11  13
DOCKED: ATOM     13  C   UNL     1     140.493  69.579 226.856 -0.55 -0.00    +0.018 A  
DOCKED: ATOM     14  C   UNL     1     141.229  70.410 225.998 -0.56 -0.00    +0.013 A  
DOCKED: ATOM     15  C   UNL     1     140.005  70.121 228.057 -0.52 -0.02    +0.121 A  
DOCKED: ATOM     16  C   UNL     1     141.442  71.748 226.331 -0.65 -0.00    +0.021 A  
DOCKED: ATOM     17  N   UNL     1     140.227  71.428 228.359 -0.43 +0.06    -0.264 NA 
DOCKED: ATOM     18  C   UNL     1     140.925  72.246 227.528 -0.70 -0.03    +0.111 A  
DOCKED: ENDBRANCH  11  13
DOCKED: ENDBRANCH  10  11
DOCKED: ENDBRANCH   7  10
DOCKED: TORSDOF 4
DOCKED: TER
DOCKED: ENDMDL
________________________________________________________________________________


    FINAL DOCKED STATE:
    ________________________


Run:   12 / 20
Time taken for this run:   0.022s

DOCKED: MODEL        12
DOCKED: USER    Run = 12
DOCKED: USER
DOCKED: USER    Estimated Free Energy of Binding    =  -5.34 kcal/mol  [=(1)+(2)+(3)-(4)]
DOCKED: USER
DOCKED: USER    (1) Final Intermolecular Energy     =  -6.54 kcal/mol
DOCKED: USER        vdW + Hbond + desolv Energy     =  -6.58 kcal/mol
DOCKED: USER        Electrostatic Energy            =  +0.04 kcal/mol
DOCKED: USER        Moving Ligand-Fixed Receptor    =  -6.54 kcal/mol
DOCKED: USER        Moving Ligand-Moving Receptor   =  +0.00 kcal/mol
DOCKED: USER    (2) Final Total Internal Energy     =  -0.72 kcal/mol
DOCKED: USER    (3) Torsional Free Energy           =  +1.19 kcal/mol
DOCKED: USER    (4) Unbound System's Energy         =  -0.72 kcal/mol
DOCKED: USER
DOCKED: USER
DOCKED: REMARK SMILES COc1cc(C)ccc1[N-]C(=O)c1cccnc1
DOCKED: REMARK SMILES IDX 3 1 4 2 5 3 6 4 7 5 8 6 9 7 2 8 1 9 10 10 11 11 12 12 13 13
DOCKED: REMARK SMILES IDX 14 14 18 15 15 16 17 17 16 18
DOCKED: REMARK H PARENT
DOCKED: USER                              x       y       z     vdW  Elec       q    Type
DOCKED: USER                           _______ _______ _______ _____ _____    ______ ____
DOCKED: ROOT
DOCKED: ATOM      1  C   UNL     1     136.925  69.607 224.282 -0.21 -0.01    +0.104 A  
DOCKED: ATOM      2  C   UNL     1     136.484  70.730 223.568 -0.17 -0.01    +0.048 A  
DOCKED: ATOM      3  C   UNL     1     137.376  71.515 222.825 -0.17 +0.01    -0.048 A  
DOCKED: ATOM      4  C   UNL     1     136.887  72.732 222.097 -0.13 -0.01    +0.044 C  
DOCKED: ATOM      5  C   UNL     1     138.737  71.198 222.830 -0.24 -0.00    +0.002 A  
DOCKED: ATOM      6  C   UNL     1     139.198  70.089 223.540 -0.28 +0.00    -0.012 A  
DOCKED: ATOM      7  C   UNL     1     138.305  69.270 224.256 -0.28 +0.01    -0.091 A  
DOCKED: ENDROOT
DOCKED: BRANCH   1   8
DOCKED: ATOM      8  O   UNL     1     135.940  68.880 224.977 -0.28 -0.00    -0.498 OA 
DOCKED: ATOM      9  C   UNL     1     134.667  69.358 225.396 -0.16 -0.02    +0.278 C  
DOCKED: ENDBRANCH   1   8
DOCKED: BRANCH   7  10
DOCKED: ATOM     10  N   UNL     1     138.806  68.152 225.003 -0.38 +0.01    -0.620 NA 
DOCKED: BRANCH  10  11
DOCKED: ATOM     11  C   UNL     1     139.720  68.209 226.107 -0.54 -0.01    +0.087 C  
DOCKED: ATOM     12  O   UNL     1     140.233  67.136 226.522 -0.47 +0.07    -0.315 OA 
DOCKED: BRANCH  11  13
DOCKED: ATOM     13  C   UNL     1     140.116  69.494 226.733 -0.54 -0.00    +0.018 A  
DOCKED: ATOM     14  C   UNL     1     141.053  70.341 226.122 -0.56 -0.00    +0.013 A  
DOCKED: ATOM     15  C   UNL     1     139.578  69.875 227.973 -0.50 -0.02    +0.121 A  
DOCKED: ATOM     16  C   UNL     1     141.414  71.543 226.733 -0.67 -0.00    +0.021 A  
DOCKED: ATOM     17  N   UNL     1     139.946  71.051 228.548 -0.30 +0.05    -0.264 NA 
DOCKED: ATOM     18  C   UNL     1     140.842  71.887 227.958 -0.73 -0.03    +0.111 A  
DOCKED: ENDBRANCH  11  13
DOCKED: ENDBRANCH  10  11
DOCKED: ENDBRANCH   7  10
DOCKED: TORSDOF 4
DOCKED: TER
DOCKED: ENDMDL
________________________________________________________________________________


    FINAL DOCKED STATE:
    ________________________


Run:   13 / 20
Time taken for this run:   0.022s

DOCKED: MODEL        13
DOCKED: USER    Run = 13
DOCKED: USER
DOCKED: USER    Estimated Free Energy of Binding    =  -5.22 kcal/mol  [=(1)+(2)+(3)-(4)]
DOCKED: USER
DOCKED: USER    (1) Final Intermolecular Energy     =  -6.41 kcal/mol
DOCKED: USER        vdW + Hbond + desolv Energy     =  -6.49 kcal/mol
DOCKED: USER        Electrostatic Energy            =  +0.08 kcal/mol
DOCKED: USER        Moving Ligand-Fixed Receptor    =  -6.41 kcal/mol
DOCKED: USER        Moving Ligand-Moving Receptor   =  +0.00 kcal/mol
DOCKED: USER    (2) Final Total Internal Energy     =  -0.85 kcal/mol
DOCKED: USER    (3) Torsional Free Energy           =  +1.19 kcal/mol
DOCKED: USER    (4) Unbound System's Energy         =  -0.85 kcal/mol
DOCKED: USER
DOCKED: USER
DOCKED: REMARK SMILES COc1cc(C)ccc1[N-]C(=O)c1cccnc1
DOCKED: REMARK SMILES IDX 3 1 4 2 5 3 6 4 7 5 8 6 9 7 2 8 1 9 10 10 11 11 12 12 13 13
DOCKED: REMARK SMILES IDX 14 14 18 15 15 16 17 17 16 18
DOCKED: REMARK H PARENT
DOCKED: USER                              x       y       z     vdW  Elec       q    Type
DOCKED: USER                           _______ _______ _______ _____ _____    ______ ____
DOCKED: ROOT
DOCKED: ATOM      1  C   UNL     1     138.422  70.298 223.823 -0.24 -0.02    +0.104 A  
DOCKED: ATOM      2  C   UNL     1     137.519  71.274 223.378 -0.20 -0.01    +0.048 A  
DOCKED: ATOM      3  C   UNL     1     136.182  71.273 223.798 -0.18 +0.01    -0.048 A  
DOCKED: ATOM      4  C   UNL     1     135.226  72.307 223.282 -0.14 -0.01    +0.044 C  
DOCKED: ATOM      5  C   UNL     1     135.729  70.255 224.643 -0.22 -0.00    +0.002 A  
DOCKED: ATOM      6  C   UNL     1     136.610  69.271 225.092 -0.21 +0.00    -0.012 A  
DOCKED: ATOM      7  C   UNL     1     137.964  69.286 224.709 -0.29 +0.01    -0.091 A  
DOCKED: ENDROOT
DOCKED: BRANCH   1   8
DOCKED: ATOM      8  O   UNL     1     139.744  70.407 223.353 -0.07 +0.09    -0.498 OA 
DOCKED: ATOM      9  C   UNL     1     140.343  71.550 222.753 -0.21 -0.04    +0.278 C  
DOCKED: ENDBRANCH   1   8
DOCKED: BRANCH   7  10
DOCKED: ATOM     10  N   UNL     1     138.843  68.246 225.160 -0.34 +0.02    -0.620 NA 
DOCKED: BRANCH  10  11
DOCKED: ATOM     11  C   UNL     1     139.908  68.386 226.111 -0.53 -0.01    +0.087 C  
DOCKED: ATOM     12  O   UNL     1     140.536  67.356 226.469 -0.45 +0.08    -0.315 OA 
DOCKED: BRANCH  11  13
DOCKED: ATOM     13  C   UNL     1     140.320  69.709 226.638 -0.53 -0.00    +0.018 A  
DOCKED: ATOM     14  C   UNL     1     139.863  70.171 227.883 -0.60 -0.00    +0.013 A  
DOCKED: ATOM     15  C   UNL     1     141.158  70.545 225.882 -0.48 -0.02    +0.121 A  
DOCKED: ATOM     16  C   UNL     1     140.260  71.422 228.355 -0.68 -0.00    +0.021 A  
DOCKED: ATOM     17  N   UNL     1     141.531  71.761 226.365 -0.40 +0.03    -0.264 NA 
DOCKED: ATOM     18  C   UNL     1     141.107  72.211 227.575 -0.73 -0.03    +0.111 A  
DOCKED: ENDBRANCH  11  13
DOCKED: ENDBRANCH  10  11
DOCKED: ENDBRANCH   7  10
DOCKED: TORSDOF 4
DOCKED: TER
DOCKED: ENDMDL
________________________________________________________________________________


    FINAL DOCKED STATE:
    ________________________


Run:   14 / 20
Time taken for this run:   0.022s

DOCKED: MODEL        14
DOCKED: USER    Run = 14
DOCKED: USER
DOCKED: USER    Estimated Free Energy of Binding    =  -5.34 kcal/mol  [=(1)+(2)+(3)-(4)]
DOCKED: USER
DOCKED: USER    (1) Final Intermolecular Energy     =  -6.54 kcal/mol
DOCKED: USER        vdW + Hbond + desolv Energy     =  -6.51 kcal/mol
DOCKED: USER        Electrostatic Energy            =  -0.03 kcal/mol
DOCKED: USER        Moving Ligand-Fixed Receptor    =  -6.54 kcal/mol
DOCKED: USER        Moving Ligand-Moving Receptor   =  +0.00 kcal/mol
DOCKED: USER    (2) Final Total Internal Energy     =  -0.70 kcal/mol
DOCKED: USER    (3) Torsional Free Energy           =  +1.19 kcal/mol
DOCKED: USER    (4) Unbound System's Energy         =  -0.70 kcal/mol
DOCKED: USER
DOCKED: USER
DOCKED: REMARK SMILES COc1cc(C)ccc1[N-]C(=O)c1cccnc1
DOCKED: REMARK SMILES IDX 3 1 4 2 5 3 6 4 7 5 8 6 9 7 2 8 1 9 10 10 11 11 12 12 13 13
DOCKED: REMARK SMILES IDX 14 14 18 15 15 16 17 17 16 18
DOCKED: REMARK H PARENT
DOCKED: USER                              x       y       z     vdW  Elec       q    Type
DOCKED: USER                           _______ _______ _______ _____ _____    ______ ____
DOCKED: ROOT
DOCKED: ATOM      1  C   UNL     1     136.458  69.686 224.365 -0.20 -0.01    +0.104 A  
DOCKED: ATOM      2  C   UNL     1     135.869  70.882 223.931 -0.17 -0.01    +0.048 A  
DOCKED: ATOM      3  C   UNL     1     136.620  71.866 223.275 -0.18 +0.01    -0.048 A  
DOCKED: ATOM      4  C   UNL     1     135.976  73.153 222.850 -0.15 -0.01    +0.044 C  
DOCKED: ATOM      5  C   UNL     1     137.992  71.670 223.087 -0.19 -0.00    +0.002 A  
DOCKED: ATOM      6  C   UNL     1     138.599  70.490 223.517 -0.27 +0.00    -0.012 A  
DOCKED: ATOM      7  C   UNL     1     137.845  69.478 224.141 -0.25 +0.01    -0.091 A  
DOCKED: ENDROOT
DOCKED: BRANCH   1   8
DOCKED: ATOM      8  O   UNL     1     135.605  68.760 224.995 -0.34 -0.01    -0.498 OA 
DOCKED: ATOM      9  C   UNL     1     134.251  68.972 225.375 -0.17 -0.02    +0.278 C  
DOCKED: ENDBRANCH   1   8
DOCKED: BRANCH   7  10
DOCKED: ATOM     10  N   UNL     1     138.498  68.286 224.601 -0.21 +0.00    -0.620 NA 
DOCKED: BRANCH  10  11
DOCKED: ATOM     11  C   UNL     1     139.320  68.165 225.770 -0.48 -0.01    +0.087 C  
DOCKED: ATOM     12  O   UNL     1     139.572  67.014 226.215 -0.69 +0.02    -0.315 OA 
DOCKED: BRANCH  11  13
DOCKED: ATOM     13  C   UNL     1     139.922  69.348 226.432 -0.51 -0.00    +0.018 A  
DOCKED: ATOM     14  C   UNL     1     139.552  69.720 227.734 -0.57 -0.00    +0.013 A  
DOCKED: ATOM     15  C   UNL     1     140.860  70.142 225.751 -0.44 -0.02    +0.121 A  
DOCKED: ATOM     16  C   UNL     1     140.129  70.840 228.333 -0.61 -0.00    +0.021 A  
DOCKED: ATOM     17  N   UNL     1     141.407  71.229 226.357 -0.38 +0.03    -0.264 NA 
DOCKED: ATOM     18  C   UNL     1     141.067  71.589 227.623 -0.70 -0.02    +0.111 A  
DOCKED: ENDBRANCH  11  13
DOCKED: ENDBRANCH  10  11
DOCKED: ENDBRANCH   7  10
DOCKED: TORSDOF 4
DOCKED: TER
DOCKED: ENDMDL
________________________________________________________________________________


    FINAL DOCKED STATE:
    ________________________


Run:   15 / 20
Time taken for this run:   0.022s

DOCKED: MODEL        15
DOCKED: USER    Run = 15
DOCKED: USER
DOCKED: USER    Estimated Free Energy of Binding    =  -4.88 kcal/mol  [=(1)+(2)+(3)-(4)]
DOCKED: USER
DOCKED: USER    (1) Final Intermolecular Energy     =  -6.08 kcal/mol
DOCKED: USER        vdW + Hbond + desolv Energy     =  -6.14 kcal/mol
DOCKED: USER        Electrostatic Energy            =  +0.06 kcal/mol
DOCKED: USER        Moving Ligand-Fixed Receptor    =  -6.08 kcal/mol
DOCKED: USER        Moving Ligand-Moving Receptor   =  +0.00 kcal/mol
DOCKED: USER    (2) Final Total Internal Energy     =  -0.88 kcal/mol
DOCKED: USER    (3) Torsional Free Energy           =  +1.19 kcal/mol
DOCKED: USER    (4) Unbound System's Energy         =  -0.88 kcal/mol
DOCKED: USER
DOCKED: USER
DOCKED: REMARK SMILES COc1cc(C)ccc1[N-]C(=O)c1cccnc1
DOCKED: REMARK SMILES IDX 3 1 4 2 5 3 6 4 7 5 8 6 9 7 2 8 1 9 10 10 11 11 12 12 13 13
DOCKED: REMARK SMILES IDX 14 14 18 15 15 16 17 17 16 18
DOCKED: REMARK H PARENT
DOCKED: USER                              x       y       z     vdW  Elec       q    Type
DOCKED: USER                           _______ _______ _______ _____ _____    ______ ____
DOCKED: ROOT
DOCKED: ATOM      1  C   UNL     1     139.361  68.343 225.387 -0.41 -0.01    +0.104 A  
DOCKED: ATOM      2  C   UNL     1     139.960  67.845 226.553 -0.63 -0.01    +0.048 A  
DOCKED: ATOM      3  C   UNL     1     140.487  68.706 227.524 -0.61 +0.01    -0.048 A  
DOCKED: ATOM      4  C   UNL     1     141.153  68.150 228.748 -0.56 -0.01    +0.044 C  
DOCKED: ATOM      5  C   UNL     1     140.455  70.087 227.307 -0.60 -0.00    +0.002 A  
DOCKED: ATOM      6  C   UNL     1     139.871  70.603 226.149 -0.47 +0.00    -0.012 A  
DOCKED: ATOM      7  C   UNL     1     139.301  69.748 225.187 -0.35 +0.01    -0.091 A  
DOCKED: ENDROOT
DOCKED: BRANCH   1   8
DOCKED: ATOM      8  O   UNL     1     138.848  67.388 224.489 -0.47 -0.07    -0.498 OA 
DOCKED: ATOM      9  C   UNL     1     138.816  67.484 223.070 -0.13 -0.04    +0.278 C  
DOCKED: ENDBRANCH   1   8
DOCKED: BRANCH   7  10
DOCKED: ATOM     10  N   UNL     1     138.733  70.301 223.991 +0.01 +0.11    -0.620 NA 
DOCKED: BRANCH  10  11
DOCKED: ATOM     11  C   UNL     1     137.380  70.745 223.820 -0.21 -0.02    +0.087 C  
DOCKED: ATOM     12  O   UNL     1     137.178  71.881 223.315 -0.13 +0.09    -0.315 OA 
DOCKED: BRANCH  11  13
DOCKED: ATOM     13  C   UNL     1     136.222  69.888 224.169 -0.21 -0.00    +0.018 A  
DOCKED: ATOM     14  C   UNL     1     135.566  70.019 225.404 -0.18 -0.00    +0.013 A  
DOCKED: ATOM     15  C   UNL     1     135.775  68.900 223.276 -0.13 -0.01    +0.121 A  
DOCKED: ATOM     16  C   UNL     1     134.482  69.196 225.712 -0.27 -0.00    +0.021 A  
DOCKED: ATOM     17  N   UNL     1     134.716  68.111 223.600 -0.61 +0.01    -0.264 NA 
DOCKED: ATOM     18  C   UNL     1     134.064  68.239 224.786 -0.18 -0.01    +0.111 A  
DOCKED: ENDBRANCH  11  13
DOCKED: ENDBRANCH  10  11
DOCKED: ENDBRANCH   7  10
DOCKED: TORSDOF 4
DOCKED: TER
DOCKED: ENDMDL
________________________________________________________________________________


    FINAL DOCKED STATE:
    ________________________


Run:   16 / 20
Time taken for this run:   0.022s

DOCKED: MODEL        16
DOCKED: USER    Run = 16
DOCKED: USER
DOCKED: USER    Estimated Free Energy of Binding    =  -5.25 kcal/mol  [=(1)+(2)+(3)-(4)]
DOCKED: USER
DOCKED: USER    (1) Final Intermolecular Energy     =  -6.45 kcal/mol
DOCKED: USER        vdW + Hbond + desolv Energy     =  -6.57 kcal/mol
DOCKED: USER        Electrostatic Energy            =  +0.12 kcal/mol
DOCKED: USER        Moving Ligand-Fixed Receptor    =  -6.45 kcal/mol
DOCKED: USER        Moving Ligand-Moving Receptor   =  +0.00 kcal/mol
DOCKED: USER    (2) Final Total Internal Energy     =  -0.79 kcal/mol
DOCKED: USER    (3) Torsional Free Energy           =  +1.19 kcal/mol
DOCKED: USER    (4) Unbound System's Energy         =  -0.79 kcal/mol
DOCKED: USER
DOCKED: USER
DOCKED: REMARK SMILES COc1cc(C)ccc1[N-]C(=O)c1cccnc1
DOCKED: REMARK SMILES IDX 3 1 4 2 5 3 6 4 7 5 8 6 9 7 2 8 1 9 10 10 11 11 12 12 13 13
DOCKED: REMARK SMILES IDX 14 14 18 15 15 16 17 17 16 18
DOCKED: REMARK H PARENT
DOCKED: USER                              x       y       z     vdW  Elec       q    Type
DOCKED: USER                           _______ _______ _______ _____ _____    ______ ____
DOCKED: ROOT
DOCKED: ATOM      1  C   UNL     1     138.500  68.427 223.020 -0.22 -0.02    +0.104 A  
DOCKED: ATOM      2  C   UNL     1     137.780  69.345 222.241 -0.13 -0.01    +0.048 A  
DOCKED: ATOM      3  C   UNL     1     137.084  70.408 222.828 -0.13 +0.01    -0.048 A  
DOCKED: ATOM      4  C   UNL     1     136.293  71.358 221.978 -0.07 -0.01    +0.044 C  
DOCKED: ATOM      5  C   UNL     1     137.069  70.533 224.221 -0.24 -0.00    +0.002 A  
DOCKED: ATOM      6  C   UNL     1     137.772  69.626 225.015 -0.30 +0.00    -0.012 A  
DOCKED: ATOM      7  C   UNL     1     138.509  68.578 224.432 -0.29 +0.01    -0.091 A  
DOCKED: ENDROOT
DOCKED: BRANCH   1   8
DOCKED: ATOM      8  O   UNL     1     139.178  67.410 222.323 -0.08 +0.11    -0.498 OA 
DOCKED: ATOM      9  C   UNL     1     138.884  66.018 222.349 -0.20 -0.05    +0.278 C  
DOCKED: ENDBRANCH   1   8
DOCKED: BRANCH   7  10
DOCKED: ATOM     10  N   UNL     1     139.200  67.641 225.271 -0.56 -0.01    -0.620 NA 
DOCKED: BRANCH  10  11
DOCKED: ATOM     11  C   UNL     1     140.145  67.960 226.302 -0.58 -0.02    +0.087 C  
DOCKED: ATOM     12  O   UNL     1     140.789  67.022 226.840 -0.38 +0.10    -0.315 OA 
DOCKED: BRANCH  11  13
DOCKED: ATOM     13  C   UNL     1     140.422  69.359 226.707 -0.55 -0.00    +0.018 A  
DOCKED: ATOM     14  C   UNL     1     141.156  70.224 225.881 -0.54 -0.00    +0.013 A  
DOCKED: ATOM     15  C   UNL     1     139.978  69.839 227.951 -0.53 -0.02    +0.121 A  
DOCKED: ATOM     16  C   UNL     1     141.408  71.535 226.287 -0.65 -0.00    +0.021 A  
DOCKED: ATOM     17  N   UNL     1     140.237  71.121 228.324 -0.41 +0.05    -0.264 NA 
DOCKED: ATOM     18  C   UNL     1     140.934  71.972 227.524 -0.72 -0.02    +0.111 A  
DOCKED: ENDBRANCH  11  13
DOCKED: ENDBRANCH  10  11
DOCKED: ENDBRANCH   7  10
DOCKED: TORSDOF 4
DOCKED: TER
DOCKED: ENDMDL
________________________________________________________________________________


    FINAL DOCKED STATE:
    ________________________


Run:   17 / 20
Time taken for this run:   0.022s

DOCKED: MODEL        17
DOCKED: USER    Run = 17
DOCKED: USER
DOCKED: USER    Estimated Free Energy of Binding    =  -5.33 kcal/mol  [=(1)+(2)+(3)-(4)]
DOCKED: USER
DOCKED: USER    (1) Final Intermolecular Energy     =  -6.53 kcal/mol
DOCKED: USER        vdW + Hbond + desolv Energy     =  -6.57 kcal/mol
DOCKED: USER        Electrostatic Energy            =  +0.04 kcal/mol
DOCKED: USER        Moving Ligand-Fixed Receptor    =  -6.53 kcal/mol
DOCKED: USER        Moving Ligand-Moving Receptor   =  +0.00 kcal/mol
DOCKED: USER    (2) Final Total Internal Energy     =  -0.72 kcal/mol
DOCKED: USER    (3) Torsional Free Energy           =  +1.19 kcal/mol
DOCKED: USER    (4) Unbound System's Energy         =  -0.72 kcal/mol
DOCKED: USER
DOCKED: USER
DOCKED: REMARK SMILES COc1cc(C)ccc1[N-]C(=O)c1cccnc1
DOCKED: REMARK SMILES IDX 3 1 4 2 5 3 6 4 7 5 8 6 9 7 2 8 1 9 10 10 11 11 12 12 13 13
DOCKED: REMARK SMILES IDX 14 14 18 15 15 16 17 17 16 18
DOCKED: REMARK H PARENT
DOCKED: USER                              x       y       z     vdW  Elec       q    Type
DOCKED: USER                           _______ _______ _______ _____ _____    ______ ____
DOCKED: ROOT
DOCKED: ATOM      1  C   UNL     1     136.929  69.618 224.267 -0.21 -0.01    +0.104 A  
DOCKED: ATOM      2  C   UNL     1     136.473  70.752 223.580 -0.17 -0.01    +0.048 A  
DOCKED: ATOM      3  C   UNL     1     137.350  71.555 222.840 -0.17 +0.01    -0.048 A  
DOCKED: ATOM      4  C   UNL     1     136.845  72.783 222.141 -0.13 -0.01    +0.044 C  
DOCKED: ATOM      5  C   UNL     1     138.713  71.245 222.819 -0.24 -0.00    +0.002 A  
DOCKED: ATOM      6  C   UNL     1     139.189  70.125 223.502 -0.28 +0.00    -0.012 A  
DOCKED: ATOM      7  C   UNL     1     138.310  69.288 224.215 -0.27 +0.01    -0.091 A  
DOCKED: ENDROOT
DOCKED: BRANCH   1   8
DOCKED: ATOM      8  O   UNL     1     135.958  68.874 224.962 -0.28 -0.00    -0.498 OA 
DOCKED: ATOM      9  C   UNL     1     134.665  69.319 225.356 -0.16 -0.02    +0.278 C  
DOCKED: ENDBRANCH   1   8
DOCKED: BRANCH   7  10
DOCKED: ATOM     10  N   UNL     1     138.827  68.159 224.933 -0.38 +0.01    -0.620 NA 
DOCKED: BRANCH  10  11
DOCKED: ATOM     11  C   UNL     1     139.667  68.204 226.095 -0.54 -0.01    +0.087 C  
DOCKED: ATOM     12  O   UNL     1     140.085  67.119 226.579 -0.48 +0.07    -0.315 OA 
DOCKED: BRANCH  11  13
DOCKED: ATOM     13  C   UNL     1     140.096  69.485 226.705 -0.53 -0.00    +0.018 A  
DOCKED: ATOM     14  C   UNL     1     141.055  70.301 226.084 -0.56 -0.00    +0.013 A  
DOCKED: ATOM     15  C   UNL     1     139.569  69.895 227.941 -0.49 -0.02    +0.121 A  
DOCKED: ATOM     16  C   UNL     1     141.446  71.500 226.679 -0.65 -0.00    +0.021 A  
DOCKED: ATOM     17  N   UNL     1     139.967  71.069 228.501 -0.32 +0.05    -0.264 NA 
DOCKED: ATOM     18  C   UNL     1     140.884  71.873 227.901 -0.73 -0.03    +0.111 A  
DOCKED: ENDBRANCH  11  13
DOCKED: ENDBRANCH  10  11
DOCKED: ENDBRANCH   7  10
DOCKED: TORSDOF 4
DOCKED: TER
DOCKED: ENDMDL
________________________________________________________________________________


    FINAL DOCKED STATE:
    ________________________


Run:   18 / 20
Time taken for this run:   0.022s

DOCKED: MODEL        18
DOCKED: USER    Run = 18
DOCKED: USER
DOCKED: USER    Estimated Free Energy of Binding    =  -5.36 kcal/mol  [=(1)+(2)+(3)-(4)]
DOCKED: USER
DOCKED: USER    (1) Final Intermolecular Energy     =  -6.55 kcal/mol
DOCKED: USER        vdW + Hbond + desolv Energy     =  -6.51 kcal/mol
DOCKED: USER        Electrostatic Energy            =  -0.04 kcal/mol
DOCKED: USER        Moving Ligand-Fixed Receptor    =  -6.55 kcal/mol
DOCKED: USER        Moving Ligand-Moving Receptor   =  +0.00 kcal/mol
DOCKED: USER    (2) Final Total Internal Energy     =  -0.69 kcal/mol
DOCKED: USER    (3) Torsional Free Energy           =  +1.19 kcal/mol
DOCKED: USER    (4) Unbound System's Energy         =  -0.69 kcal/mol
DOCKED: USER
DOCKED: USER
DOCKED: REMARK SMILES COc1cc(C)ccc1[N-]C(=O)c1cccnc1
DOCKED: REMARK SMILES IDX 3 1 4 2 5 3 6 4 7 5 8 6 9 7 2 8 1 9 10 10 11 11 12 12 13 13
DOCKED: REMARK SMILES IDX 14 14 18 15 15 16 17 17 16 18
DOCKED: REMARK H PARENT
DOCKED: USER                              x       y       z     vdW  Elec       q    Type
DOCKED: USER                           _______ _______ _______ _____ _____    ______ ____
DOCKED: ROOT
DOCKED: ATOM      1  C   UNL     1     136.386  69.490 224.620 -0.21 -0.01    +0.104 A  
DOCKED: ATOM      2  C   UNL     1     135.761  70.653 224.145 -0.18 -0.01    +0.048 A  
DOCKED: ATOM      3  C   UNL     1     136.488  71.651 223.486 -0.18 +0.01    -0.048 A  
DOCKED: ATOM      4  C   UNL     1     135.805  72.902 223.017 -0.16 -0.01    +0.044 C  
DOCKED: ATOM      5  C   UNL     1     137.871  71.508 223.336 -0.22 -0.00    +0.002 A  
DOCKED: ATOM      6  C   UNL     1     138.514  70.363 223.808 -0.28 +0.00    -0.012 A  
DOCKED: ATOM      7  C   UNL     1     137.786  69.334 224.435 -0.26 +0.01    -0.091 A  
DOCKED: ENDROOT
DOCKED: BRANCH   1   8
DOCKED: ATOM      8  O   UNL     1     135.555  68.545 225.249 -0.27 -0.02    -0.498 OA 
DOCKED: ATOM      9  C   UNL     1     134.139  68.603 225.371 -0.17 -0.02    +0.278 C  
DOCKED: ENDBRANCH   1   8
DOCKED: BRANCH   7  10
DOCKED: ATOM     10  N   UNL     1     138.473  68.179 224.938 -0.24 -0.02    -0.620 NA 
DOCKED: BRANCH  10  11
DOCKED: ATOM     11  C   UNL     1     139.420  68.157 226.015 -0.51 -0.01    +0.087 C  
DOCKED: ATOM     12  O   UNL     1     139.808  67.043 226.454 -0.56 +0.05    -0.315 OA 
DOCKED: BRANCH  11  13
DOCKED: ATOM     13  C   UNL     1     139.992  69.401 226.583 -0.52 -0.00    +0.018 A  
DOCKED: ATOM     14  C   UNL     1     139.580  69.885 227.836 -0.58 -0.00    +0.013 A  
DOCKED: ATOM     15  C   UNL     1     140.942  70.142 225.860 -0.44 -0.02    +0.121 A  
DOCKED: ATOM     16  C   UNL     1     140.129  71.061 228.347 -0.63 -0.00    +0.021 A  
DOCKED: ATOM     17  N   UNL     1     141.461  71.286 226.381 -0.38 +0.03    -0.264 NA 
DOCKED: ATOM     18  C   UNL     1     141.081  71.755 227.599 -0.72 -0.02    +0.111 A  
DOCKED: ENDBRANCH  11  13
DOCKED: ENDBRANCH  10  11
DOCKED: ENDBRANCH   7  10
DOCKED: TORSDOF 4
DOCKED: TER
DOCKED: ENDMDL
________________________________________________________________________________


    FINAL DOCKED STATE:
    ________________________


Run:   19 / 20
Time taken for this run:   0.022s

DOCKED: MODEL        19
DOCKED: USER    Run = 19
DOCKED: USER
DOCKED: USER    Estimated Free Energy of Binding    =  -5.22 kcal/mol  [=(1)+(2)+(3)-(4)]
DOCKED: USER
DOCKED: USER    (1) Final Intermolecular Energy     =  -6.41 kcal/mol
DOCKED: USER        vdW + Hbond + desolv Energy     =  -6.50 kcal/mol
DOCKED: USER        Electrostatic Energy            =  +0.08 kcal/mol
DOCKED: USER        Moving Ligand-Fixed Receptor    =  -6.41 kcal/mol
DOCKED: USER        Moving Ligand-Moving Receptor   =  +0.00 kcal/mol
DOCKED: USER    (2) Final Total Internal Energy     =  -0.85 kcal/mol
DOCKED: USER    (3) Torsional Free Energy           =  +1.19 kcal/mol
DOCKED: USER    (4) Unbound System's Energy         =  -0.85 kcal/mol
DOCKED: USER
DOCKED: USER
DOCKED: REMARK SMILES COc1cc(C)ccc1[N-]C(=O)c1cccnc1
DOCKED: REMARK SMILES IDX 3 1 4 2 5 3 6 4 7 5 8 6 9 7 2 8 1 9 10 10 11 11 12 12 13 13
DOCKED: REMARK SMILES IDX 14 14 18 15 15 16 17 17 16 18
DOCKED: REMARK H PARENT
DOCKED: USER                              x       y       z     vdW  Elec       q    Type
DOCKED: USER                           _______ _______ _______ _____ _____    ______ ____
DOCKED: ROOT
DOCKED: ATOM      1  C   UNL     1     138.449  70.319 223.882 -0.25 -0.02    +0.104 A  
DOCKED: ATOM      2  C   UNL     1     137.550  71.299 223.438 -0.20 -0.01    +0.048 A  
DOCKED: ATOM      3  C   UNL     1     136.207  71.286 223.835 -0.19 +0.01    -0.048 A  
DOCKED: ATOM      4  C   UNL     1     135.255  72.325 223.319 -0.14 -0.01    +0.044 C  
DOCKED: ATOM      5  C   UNL     1     135.743  70.253 224.656 -0.22 -0.00    +0.002 A  
DOCKED: ATOM      6  C   UNL     1     136.620  69.265 225.103 -0.21 +0.00    -0.012 A  
DOCKED: ATOM      7  C   UNL     1     137.981  69.291 224.744 -0.29 +0.01    -0.091 A  
DOCKED: ENDROOT
DOCKED: BRANCH   1   8
DOCKED: ATOM      8  O   UNL     1     139.778  70.440 223.436 -0.07 +0.09    -0.498 OA 
DOCKED: ATOM      9  C   UNL     1     140.358  71.564 222.783 -0.21 -0.04    +0.278 C  
DOCKED: ENDBRANCH   1   8
DOCKED: BRANCH   7  10
DOCKED: ATOM     10  N   UNL     1     138.856  68.247 225.192 -0.34 +0.02    -0.620 NA 
DOCKED: BRANCH  10  11
DOCKED: ATOM     11  C   UNL     1     139.911  68.378 226.156 -0.53 -0.01    +0.087 C  
DOCKED: ATOM     12  O   UNL     1     140.510  67.339 226.540 -0.45 +0.08    -0.315 OA 
DOCKED: BRANCH  11  13
DOCKED: ATOM     13  C   UNL     1     140.348  69.700 226.665 -0.54 -0.00    +0.018 A  
DOCKED: ATOM     14  C   UNL     1     139.875  70.201 227.888 -0.61 -0.00    +0.013 A  
DOCKED: ATOM     15  C   UNL     1     141.229  70.495 225.913 -0.47 -0.02    +0.121 A  
DOCKED: ATOM     16  C   UNL     1     140.297  71.450 228.345 -0.70 -0.00    +0.021 A  
DOCKED: ATOM     17  N   UNL     1     141.625  71.710 226.380 -0.37 +0.03    -0.264 NA 
DOCKED: ATOM     18  C   UNL     1     141.184  72.198 227.570 -0.72 -0.02    +0.111 A  
DOCKED: ENDBRANCH  11  13
DOCKED: ENDBRANCH  10  11
DOCKED: ENDBRANCH   7  10
DOCKED: TORSDOF 4
DOCKED: TER
DOCKED: ENDMDL
________________________________________________________________________________


    FINAL DOCKED STATE:
    ________________________


Run:   20 / 20
Time taken for this run:   0.022s

DOCKED: MODEL        20
DOCKED: USER    Run = 20
DOCKED: USER
DOCKED: USER    Estimated Free Energy of Binding    =  -5.32 kcal/mol  [=(1)+(2)+(3)-(4)]
DOCKED: USER
DOCKED: USER    (1) Final Intermolecular Energy     =  -6.52 kcal/mol
DOCKED: USER        vdW + Hbond + desolv Energy     =  -6.56 kcal/mol
DOCKED: USER        Electrostatic Energy            =  +0.04 kcal/mol
DOCKED: USER        Moving Ligand-Fixed Receptor    =  -6.52 kcal/mol
DOCKED: USER        Moving Ligand-Moving Receptor   =  +0.00 kcal/mol
DOCKED: USER    (2) Final Total Internal Energy     =  -0.72 kcal/mol
DOCKED: USER    (3) Torsional Free Energy           =  +1.19 kcal/mol
DOCKED: USER    (4) Unbound System's Energy         =  -0.72 kcal/mol
DOCKED: USER
DOCKED: USER
DOCKED: REMARK SMILES COc1cc(C)ccc1[N-]C(=O)c1cccnc1
DOCKED: REMARK SMILES IDX 3 1 4 2 5 3 6 4 7 5 8 6 9 7 2 8 1 9 10 10 11 11 12 12 13 13
DOCKED: REMARK SMILES IDX 14 14 18 15 15 16 17 17 16 18
DOCKED: REMARK H PARENT
DOCKED: USER                              x       y       z     vdW  Elec       q    Type
DOCKED: USER                           _______ _______ _______ _____ _____    ______ ____
DOCKED: ROOT
DOCKED: ATOM      1  C   UNL     1     136.894  69.607 224.225 -0.21 -0.01    +0.104 A  
DOCKED: ATOM      2  C   UNL     1     136.414  70.738 223.548 -0.17 -0.01    +0.048 A  
DOCKED: ATOM      3  C   UNL     1     137.262  71.530 222.765 -0.16 +0.01    -0.048 A  
DOCKED: ATOM      4  C   UNL     1     136.734  72.755 222.078 -0.12 -0.01    +0.044 C  
DOCKED: ATOM      5  C   UNL     1     138.622  71.214 222.690 -0.22 -0.00    +0.002 A  
DOCKED: ATOM      6  C   UNL     1     139.121  70.097 223.361 -0.26 +0.00    -0.012 A  
DOCKED: ATOM      7  C   UNL     1     138.270  69.270 224.117 -0.27 +0.01    -0.091 A  
DOCKED: ENDROOT
DOCKED: BRANCH   1   8
DOCKED: ATOM      8  O   UNL     1     135.949  68.873 224.966 -0.28 -0.00    -0.498 OA 
DOCKED: ATOM      9  C   UNL     1     134.647  69.301 225.348 -0.16 -0.02    +0.278 C  
DOCKED: ENDBRANCH   1   8
DOCKED: BRANCH   7  10
DOCKED: ATOM     10  N   UNL     1     138.812  68.144 224.822 -0.37 +0.01    -0.620 NA 
DOCKED: BRANCH  10  11
DOCKED: ATOM     11  C   UNL     1     139.649  68.194 225.986 -0.52 -0.01    +0.087 C  
DOCKED: ATOM     12  O   UNL     1     140.043  67.110 226.492 -0.50 +0.06    -0.315 OA 
DOCKED: BRANCH  11  13
DOCKED: ATOM     13  C   UNL     1     140.106  69.478 226.570 -0.52 -0.00    +0.018 A  
DOCKED: ATOM     14  C   UNL     1     141.022  70.299 225.895 -0.55 -0.00    +0.013 A  
DOCKED: ATOM     15  C   UNL     1     139.649  69.885 227.835 -0.49 -0.02    +0.121 A  
DOCKED: ATOM     16  C   UNL     1     141.441  71.501 226.468 -0.66 -0.00    +0.021 A  
DOCKED: ATOM     17  N   UNL     1     140.073  71.060 228.372 -0.38 +0.05    -0.264 NA 
DOCKED: ATOM     18  C   UNL     1     140.948  71.870 227.720 -0.73 -0.02    +0.111 A  
DOCKED: ENDBRANCH  11  13
DOCKED: ENDBRANCH  10  11
DOCKED: ENDBRANCH   7  10
DOCKED: TORSDOF 4
DOCKED: TER
DOCKED: ENDMDL
________________________________________________________________________________


    CLUSTERING HISTOGRAM
    ____________________


________________________________________________________________________________
     |           |     |           |     |
Clus | Lowest    | Run | Mean      | Num | Histogram
-ter | Binding   |     | Binding   | in  |
Rank | Energy    |     | Energy    | Clus|    5    10   15   20   25   30   35
_____|___________|_____|___________|_____|____:____|____:____|____:____|____:___
   1 |     -5.52 |   5 |     -5.30 |  17 |#################
   2 |     -5.36 |  18 |     -5.35 |   2 |##
   3 |     -4.88 |  15 |     -4.88 |   1 |#
_____|___________|_____|___________|_____|______________________________________


    RMSD TABLE
    __________


_______________________________________________________________________
     |      |      |           |         |                 |
Rank | Sub- | Run  | Binding   | Cluster | Reference       | Grep
     | Rank |      | Energy    | RMSD    | RMSD            | Pattern
_____|______|______|___________|_________|_________________|___________
   1      1      5       -5.52      0.00    272.96           RANKING
   1      2      2       -5.44      0.70    272.89           RANKING
   1      3     10       -5.37      1.99    272.88           RANKING
   1      4      4       -5.36      1.83    272.93           RANKING
   1      5     11       -5.36      0.71    272.93           RANKING
   1      6      1       -5.35      1.94    273.04           RANKING
   1      7     12       -5.34      1.94    273.04           RANKING
   1      8      8       -5.34      1.94    273.02           RANKING
   1      9     17       -5.33      1.95    273.02           RANKING
   1     10     20       -5.32      1.95    272.93           RANKING
   1     11     16       -5.25      0.86    272.84           RANKING
   1     12     19       -5.22      1.70    273.28           RANKING
   1     13      6       -5.22      1.70    273.25           RANKING
   1     14     13       -5.22      1.70    273.24           RANKING
   1     15      3       -5.22      1.71    273.28           RANKING
   1     16      9       -5.14      1.83    273.17           RANKING
   1     17      7       -5.05      1.94    272.95           RANKING
   2      1     18       -5.36      0.00    272.92           RANKING
   2      2     14       -5.34      0.29    272.81           RANKING
   3      1     15       -4.88      0.00    272.29           RANKING

Run time 0.438 sec
Idle time 0.000 sec
