AutoDock-GPU version: v1.6

**********************************************************
**    AutoDock-GPU AUTODOCKTOOLS-COMPATIBLE DLG FILE    **
**********************************************************


    DOCKING PARAMETERS
    ________________________


Ligand file:                               /home/a/REINVENT4/ReinventStudies/pleaseWork/DH_paper_finaltest_rnv_als_qed_tani/graph-dock/graph-DockGPU/node-autodockgpu/inputs/WRBPVZICHJPYKP-PKSOQXRJNA-N.pdbqt
Grid fld file:                             /home/a/REINVENT4/ReinventStudies/mols/Rad51/maps/rad51_receptor.maps.fld

Random seed:                               42
Number of runs:                            20
Number of energy evaluations:              1132076
Number of generations:                     42000
Size of population:                        150
Rate of crossover:                         80.000000%
Tournament selection probability limit:    60.000000%
Rate of mutation:                          2.000000%
Maximal allowed delta movement:            +/- 6.000000A
Maximal allowed delta angle:               +/- 90.000000

Rate of local search:                      100.000000%
Maximal number of local search iterations: 300
Rho lower bound:                           0.010000
Spread of local search delta movement:     2.000000A
Spread of local search delta angle:        74.999999
Limit of consecutive successes/failures:   4

Handle symmetry during clustering:         YES
RMSD tolerance:                            2.000000A

Program call in command line was:          /home/a/REINVENT4/ReinventStudies/adgpu-v1.6_linux_x64_cuda12_128wi --filelist batch.txt --heuristics 1 --nrun 20 --psize 150 --lsit 300 --seed 42 --heurmax 12000000 


    GRID PARAMETERS
    ________________________


Receptor name:                             rad51_receptor
Number of grid points (x, y, z):           53, 53, 53
Grid center (x, y, z):                     139.950000, 75.640000, 221.970000A
Grid size (x, y, z):                       19.500000, 19.500000, 19.500000A
Grid spacing:                              0.375000A


    LIGAND PARAMETERS
    ________________________


Ligand name:                               /home/a/REINVENT4/ReinventStudies/pleaseWork/DH_paper_finaltest_rnv_als_qed_tani/graph-dock/graph-DockGPU/node-autodockgpu/inputs/WRBPVZICHJPYKP-PKSOQXRJNA-N
Number of atoms:                           24
Number of rotatable bonds:                 5
Number of atom types:                      7


    DUMMY DATA (only for ADT-compatibility)
    ________________________


DPF> outlev 1
DPF> ga_run 20
DPF> fld /home/a/REINVENT4/ReinventStudies/mols/Rad51/maps/rad51_receptor.maps.fld
DPF> move /home/a/REINVENT4/ReinventStudies/pleaseWork/DH_paper_finaltest_rnv_als_qed_tani/graph-dock/graph-DockGPU/node-autodockgpu/inputs/WRBPVZICHJPYKP-PKSOQXRJNA-N.pdbqt


    COUNTER STATES
    ________________________


Number of energy evaluations performed:    867647
Number of generations used:                40


    INPUT LIGAND PDBQT FILE:
    ________________________


INPUT-LIGAND-PDBQT: REMARK SMILES O=C(NCCOc1ccc2ccc(Cl)cc2c1)c1ccccn1
INPUT-LIGAND-PDBQT: REMARK SMILES IDX 5 1 4 2 3 3 2 4 1 5 18 7 19 8 23 9 20 10 22 11 21 12 6 13
INPUT-LIGAND-PDBQT: REMARK SMILES IDX 7 14 8 15 17 16 9 17 16 18 10 19 15 20 11 21 13 22 12 23
INPUT-LIGAND-PDBQT: REMARK SMILES IDX 14 24
INPUT-LIGAND-PDBQT: REMARK H PARENT 3 6
INPUT-LIGAND-PDBQT: ROOT
INPUT-LIGAND-PDBQT: ATOM      1  C   UNL     1       0.052  -2.641   0.623  1.00  0.00     0.250 C 
INPUT-LIGAND-PDBQT: ENDROOT
INPUT-LIGAND-PDBQT: BRANCH   1   2
INPUT-LIGAND-PDBQT: ATOM      2  C   UNL     1      -1.175  -1.744   0.426  1.00  0.00     0.157 C 
INPUT-LIGAND-PDBQT: BRANCH   2   3
INPUT-LIGAND-PDBQT: ATOM      3  N   UNL     1      -1.062  -0.951  -0.799  1.00  0.00    -0.347 N 
INPUT-LIGAND-PDBQT: ATOM      4  C   UNL     1      -2.084  -0.016  -1.178  1.00  0.00     0.269 C 
INPUT-LIGAND-PDBQT: ATOM      5  O   UNL     1      -3.111   0.113  -0.456  1.00  0.00    -0.268 OA
INPUT-LIGAND-PDBQT: ATOM      6  H   UNL     1      -0.219  -1.061  -1.407  1.00  0.00     0.164 HD
INPUT-LIGAND-PDBQT: BRANCH   4   7
INPUT-LIGAND-PDBQT: ATOM      7  C   UNL     1      -1.943   0.796  -2.407  1.00  0.00     0.128 A 
INPUT-LIGAND-PDBQT: ATOM      8  C   UNL     1      -2.940   1.711  -2.789  1.00  0.00     0.034 A 
INPUT-LIGAND-PDBQT: ATOM      9  N   UNL     1      -0.831   0.662  -3.183  1.00  0.00    -0.251 NA
INPUT-LIGAND-PDBQT: ATOM     10  C   UNL     1      -2.773   2.462  -3.955  1.00  0.00     0.004 A 
INPUT-LIGAND-PDBQT: ATOM     11  C   UNL     1      -0.651   1.385  -4.321  1.00  0.00     0.112 A 
INPUT-LIGAND-PDBQT: ATOM     12  C   UNL     1      -1.622   2.301  -4.727  1.00  0.00     0.020 A 
INPUT-LIGAND-PDBQT: ENDBRANCH   4   7
INPUT-LIGAND-PDBQT: ENDBRANCH   2   3
INPUT-LIGAND-PDBQT: ENDBRANCH   1   2
INPUT-LIGAND-PDBQT: BRANCH   1  13
INPUT-LIGAND-PDBQT: ATOM     13  O   UNL     1       1.248  -1.864   0.706  1.00  0.00    -0.492 OA
INPUT-LIGAND-PDBQT: BRANCH  13  14
INPUT-LIGAND-PDBQT: ATOM     14  C   UNL     1       1.640  -1.079   1.803  1.00  0.00     0.120 A 
INPUT-LIGAND-PDBQT: ATOM     15  C   UNL     1       2.768  -0.263   1.655  1.00  0.00     0.047 A 
INPUT-LIGAND-PDBQT: ATOM     16  C   UNL     1       0.953  -1.088   3.033  1.00  0.00     0.055 A 
INPUT-LIGAND-PDBQT: ATOM     17  C   UNL     1       3.210   0.545   2.705  1.00  0.00     0.012 A 
INPUT-LIGAND-PDBQT: ATOM     18  C   UNL     1       1.389  -0.279   4.095  1.00  0.00    -0.013 A 
INPUT-LIGAND-PDBQT: ATOM     19  C   UNL     1       2.527   0.545   3.929  1.00  0.00    -0.018 A 
INPUT-LIGAND-PDBQT: ATOM     20  C   UNL     1       0.706  -0.280   5.321  1.00  0.00     0.029 A 
INPUT-LIGAND-PDBQT: ATOM     21  C   UNL     1       2.961   1.354   4.990  1.00  0.00     0.010 A 
INPUT-LIGAND-PDBQT: ATOM     22  C   UNL     1       1.148   0.530   6.373  1.00  0.00     0.041 A 
INPUT-LIGAND-PDBQT: ATOM     23  C   UNL     1       2.273   1.344   6.207  1.00  0.00     0.021 A 
INPUT-LIGAND-PDBQT: ATOM     24  Cl  UNL     1       0.290   0.525   7.903  1.00  0.00    -0.084 Cl
INPUT-LIGAND-PDBQT: ENDBRANCH  13  14
INPUT-LIGAND-PDBQT: ENDBRANCH   1  13
INPUT-LIGAND-PDBQT: TORSDOF 5


    FINAL DOCKED STATE:
    ________________________


Run:   1 / 20
Time taken for this run:   0.030s

DOCKED: MODEL        1
DOCKED: USER    Run = 1
DOCKED: USER
DOCKED: USER    Estimated Free Energy of Binding    =  -7.93 kcal/mol  [=(1)+(2)+(3)-(4)]
DOCKED: USER
DOCKED: USER    (1) Final Intermolecular Energy     =  -9.42 kcal/mol
DOCKED: USER        vdW + Hbond + desolv Energy     =  -9.35 kcal/mol
DOCKED: USER        Electrostatic Energy            =  -0.07 kcal/mol
DOCKED: USER        Moving Ligand-Fixed Receptor    =  -9.42 kcal/mol
DOCKED: USER        Moving Ligand-Moving Receptor   =  +0.00 kcal/mol
DOCKED: USER    (2) Final Total Internal Energy     =  -1.51 kcal/mol
DOCKED: USER    (3) Torsional Free Energy           =  +1.49 kcal/mol
DOCKED: USER    (4) Unbound System's Energy         =  -1.51 kcal/mol
DOCKED: USER
DOCKED: USER
DOCKED: REMARK SMILES O=C(NCCOc1ccc2ccc(Cl)cc2c1)c1ccccn1
DOCKED: REMARK SMILES IDX 5 1 4 2 3 3 2 4 1 5 18 7 19 8 23 9 20 10 22 11 21 12 6 13
DOCKED: REMARK SMILES IDX 7 14 8 15 17 16 9 17 16 18 10 19 15 20 11 21 13 22 12 23
DOCKED: REMARK SMILES IDX 14 24
DOCKED: REMARK H PARENT 3 6
DOCKED: USER                              x       y       z     vdW  Elec       q    Type
DOCKED: USER                           _______ _______ _______ _____ _____    ______ ____
DOCKED: ROOT
DOCKED: ATOM      1  C   UNL     1     139.527  73.231 221.268 -0.14 -0.05    +0.250 C  
DOCKED: ENDROOT
DOCKED: BRANCH   1   2
DOCKED: ATOM      2  C   UNL     1     139.656  71.860 221.939 -0.19 -0.03    +0.157 C  
DOCKED: BRANCH   2   3
DOCKED: ATOM      3  N   UNL     1     139.963  71.993 223.364 -0.19 +0.06    -0.347 N  
DOCKED: ATOM      4  C   UNL     1     140.033  70.843 224.222 -0.27 -0.05    +0.269 C  
DOCKED: ATOM      5  O   UNL     1     139.806  69.696 223.748 -0.15 +0.05    -0.268 OA 
DOCKED: ATOM      6  H   UNL     1     140.141  72.941 223.766 -0.21 -0.02    +0.164 HD 
DOCKED: BRANCH   4   7
DOCKED: ATOM      7  C   UNL     1     140.368  70.992 225.655 -0.47 -0.02    +0.128 A  
DOCKED: ATOM      8  C   UNL     1     139.977  70.022 226.595 -0.51 -0.01    +0.034 A  
DOCKED: ATOM      9  N   UNL     1     141.068  72.083 226.077 -0.32 +0.04    -0.251 NA 
DOCKED: ATOM     10  C   UNL     1     140.312  70.195 227.941 -0.64 -0.00    +0.004 A  
DOCKED: ATOM     11  C   UNL     1     141.403  72.268 227.382 -0.71 -0.02    +0.112 A  
DOCKED: ATOM     12  C   UNL     1     141.030  71.323 228.339 -0.70 -0.00    +0.020 A  
DOCKED: ENDBRANCH   4   7
DOCKED: ENDBRANCH   2   3
DOCKED: ENDBRANCH   1   2
DOCKED: BRANCH   1  13
DOCKED: ATOM     13  O   UNL     1     139.908  74.279 222.162 -0.72 +0.04    -0.492 OA 
DOCKED: BRANCH  13  14
DOCKED: ATOM     14  C   UNL     1     140.379  75.547 221.783 -0.29 -0.02    +0.120 A  
DOCKED: ATOM     15  C   UNL     1     140.576  75.793 220.419 -0.18 -0.01    +0.047 A  
DOCKED: ATOM     16  C   UNL     1     140.662  76.566 222.715 -0.24 -0.01    +0.055 A  
DOCKED: ATOM     17  C   UNL     1     141.039  77.033 219.975 -0.20 -0.01    +0.012 A  
DOCKED: ATOM     18  C   UNL     1     141.127  77.817 222.278 -0.42 +0.01    -0.013 A  
DOCKED: ATOM     19  C   UNL     1     141.316  78.053 220.896 -0.31 +0.01    -0.018 A  
DOCKED: ATOM     20  C   UNL     1     141.406  78.837 223.201 -0.55 -0.01    +0.029 A  
DOCKED: ATOM     21  C   UNL     1     141.779  79.303 220.461 -0.31 -0.01    +0.010 A  
DOCKED: ATOM     22  C   UNL     1     141.868  80.081 222.756 -0.54 -0.01    +0.041 A  
DOCKED: ATOM     23  C   UNL     1     142.055  80.312 221.389 -0.40 -0.01    +0.021 A  
DOCKED: ATOM     24  Cl  UNL     1     142.215  81.352 223.913 -0.69 +0.01    -0.084 Cl 
DOCKED: ENDBRANCH  13  14
DOCKED: ENDBRANCH   1  13
DOCKED: TORSDOF 5
DOCKED: TER
DOCKED: ENDMDL
________________________________________________________________________________


    FINAL DOCKED STATE:
    ________________________


Run:   2 / 20
Time taken for this run:   0.030s

DOCKED: MODEL        2
DOCKED: USER    Run = 2
DOCKED: USER
DOCKED: USER    Estimated Free Energy of Binding    =  -7.99 kcal/mol  [=(1)+(2)+(3)-(4)]
DOCKED: USER
DOCKED: USER    (1) Final Intermolecular Energy     =  -9.49 kcal/mol
DOCKED: USER        vdW + Hbond + desolv Energy     =  -9.39 kcal/mol
DOCKED: USER        Electrostatic Energy            =  -0.10 kcal/mol
DOCKED: USER        Moving Ligand-Fixed Receptor    =  -9.49 kcal/mol
DOCKED: USER        Moving Ligand-Moving Receptor   =  +0.00 kcal/mol
DOCKED: USER    (2) Final Total Internal Energy     =  -1.50 kcal/mol
DOCKED: USER    (3) Torsional Free Energy           =  +1.49 kcal/mol
DOCKED: USER    (4) Unbound System's Energy         =  -1.50 kcal/mol
DOCKED: USER
DOCKED: USER
DOCKED: REMARK SMILES O=C(NCCOc1ccc2ccc(Cl)cc2c1)c1ccccn1
DOCKED: REMARK SMILES IDX 5 1 4 2 3 3 2 4 1 5 18 7 19 8 23 9 20 10 22 11 21 12 6 13
DOCKED: REMARK SMILES IDX 7 14 8 15 17 16 9 17 16 18 10 19 15 20 11 21 13 22 12 23
DOCKED: REMARK SMILES IDX 14 24
DOCKED: REMARK H PARENT 3 6
DOCKED: USER                              x       y       z     vdW  Elec       q    Type
DOCKED: USER                           _______ _______ _______ _____ _____    ______ ____
DOCKED: ROOT
DOCKED: ATOM      1  C   UNL     1     139.818  73.250 221.223 -0.15 -0.04    +0.250 C  
DOCKED: ENDROOT
DOCKED: BRANCH   1   2
DOCKED: ATOM      2  C   UNL     1     139.505  71.951 221.974 -0.19 -0.03    +0.157 C  
DOCKED: BRANCH   2   3
DOCKED: ATOM      3  N   UNL     1     139.841  72.065 223.394 -0.16 +0.07    -0.347 N  
DOCKED: ATOM      4  C   UNL     1     139.956  70.902 224.228 -0.27 -0.05    +0.269 C  
DOCKED: ATOM      5  O   UNL     1     139.743  69.759 223.737 -0.16 +0.05    -0.268 OA 
DOCKED: ATOM      6  H   UNL     1     140.008  73.010 223.809 -0.28 -0.03    +0.164 HD 
DOCKED: BRANCH   4   7
DOCKED: ATOM      7  C   UNL     1     140.321  71.032 225.656 -0.47 -0.02    +0.128 A  
DOCKED: ATOM      8  C   UNL     1     139.947  70.051 226.592 -0.51 -0.01    +0.034 A  
DOCKED: ATOM      9  N   UNL     1     141.032  72.116 226.077 -0.30 +0.04    -0.251 NA 
DOCKED: ATOM     10  C   UNL     1     140.310  70.207 227.932 -0.64 -0.00    +0.004 A  
DOCKED: ATOM     11  C   UNL     1     141.395  72.283 227.377 -0.70 -0.02    +0.112 A  
DOCKED: ATOM     12  C   UNL     1     141.039  71.328 228.329 -0.70 -0.00    +0.020 A  
DOCKED: ENDBRANCH   4   7
DOCKED: ENDBRANCH   2   3
DOCKED: ENDBRANCH   1   2
DOCKED: BRANCH   1  13
DOCKED: ATOM     13  O   UNL     1     140.188  74.291 222.128 -0.72 +0.02    -0.492 OA 
DOCKED: BRANCH  13  14
DOCKED: ATOM     14  C   UNL     1     140.591  75.587 221.766 -0.30 -0.03    +0.120 A  
DOCKED: ATOM     15  C   UNL     1     140.751  75.866 220.404 -0.20 -0.02    +0.047 A  
DOCKED: ATOM     16  C   UNL     1     140.844  76.601 222.711 -0.24 -0.02    +0.055 A  
DOCKED: ATOM     17  C   UNL     1     141.146  77.136 219.974 -0.22 -0.01    +0.012 A  
DOCKED: ATOM     18  C   UNL     1     141.241  77.880 222.290 -0.41 +0.01    -0.013 A  
DOCKED: ATOM     19  C   UNL     1     141.393  78.150 220.910 -0.32 +0.01    -0.018 A  
DOCKED: ATOM     20  C   UNL     1     141.490  78.895 223.227 -0.55 -0.01    +0.029 A  
DOCKED: ATOM     21  C   UNL     1     141.788  79.429 220.490 -0.31 -0.01    +0.010 A  
DOCKED: ATOM     22  C   UNL     1     141.884  80.167 222.797 -0.54 -0.01    +0.041 A  
DOCKED: ATOM     23  C   UNL     1     142.034  80.432 221.432 -0.41 -0.01    +0.021 A  
DOCKED: ATOM     24  Cl  UNL     1     142.193  81.432 223.973 -0.64 +0.01    -0.084 Cl 
DOCKED: ENDBRANCH  13  14
DOCKED: ENDBRANCH   1  13
DOCKED: TORSDOF 5
DOCKED: TER
DOCKED: ENDMDL
________________________________________________________________________________


    FINAL DOCKED STATE:
    ________________________


Run:   3 / 20
Time taken for this run:   0.030s

DOCKED: MODEL        3
DOCKED: USER    Run = 3
DOCKED: USER
DOCKED: USER    Estimated Free Energy of Binding    =  -7.94 kcal/mol  [=(1)+(2)+(3)-(4)]
DOCKED: USER
DOCKED: USER    (1) Final Intermolecular Energy     =  -9.43 kcal/mol
DOCKED: USER        vdW + Hbond + desolv Energy     =  -9.31 kcal/mol
DOCKED: USER        Electrostatic Energy            =  -0.12 kcal/mol
DOCKED: USER        Moving Ligand-Fixed Receptor    =  -9.43 kcal/mol
DOCKED: USER        Moving Ligand-Moving Receptor   =  +0.00 kcal/mol
DOCKED: USER    (2) Final Total Internal Energy     =  -1.48 kcal/mol
DOCKED: USER    (3) Torsional Free Energy           =  +1.49 kcal/mol
DOCKED: USER    (4) Unbound System's Energy         =  -1.48 kcal/mol
DOCKED: USER
DOCKED: USER
DOCKED: REMARK SMILES O=C(NCCOc1ccc2ccc(Cl)cc2c1)c1ccccn1
DOCKED: REMARK SMILES IDX 5 1 4 2 3 3 2 4 1 5 18 7 19 8 23 9 20 10 22 11 21 12 6 13
DOCKED: REMARK SMILES IDX 7 14 8 15 17 16 9 17 16 18 10 19 15 20 11 21 13 22 12 23
DOCKED: REMARK SMILES IDX 14 24
DOCKED: REMARK H PARENT 3 6
DOCKED: USER                              x       y       z     vdW  Elec       q    Type
DOCKED: USER                           _______ _______ _______ _____ _____    ______ ____
DOCKED: ROOT
DOCKED: ATOM      1  C   UNL     1     140.070  73.216 221.247 -0.16 -0.04    +0.250 C  
DOCKED: ENDROOT
DOCKED: BRANCH   1   2
DOCKED: ATOM      2  C   UNL     1     139.484  72.029 222.019 -0.20 -0.03    +0.157 C  
DOCKED: BRANCH   2   3
DOCKED: ATOM      3  N   UNL     1     139.839  72.090 223.438 -0.15 +0.07    -0.347 N  
DOCKED: ATOM      4  C   UNL     1     139.940  70.898 224.233 -0.27 -0.05    +0.269 C  
DOCKED: ATOM      5  O   UNL     1     139.698  69.776 223.709 -0.16 +0.05    -0.268 OA 
DOCKED: ATOM      6  H   UNL     1     140.030  73.017 223.881 -0.27 -0.03    +0.164 HD 
DOCKED: BRANCH   4   7
DOCKED: ATOM      7  C   UNL     1     140.324  70.975 225.660 -0.47 -0.02    +0.128 A  
DOCKED: ATOM      8  C   UNL     1     139.980  69.951 226.559 -0.51 -0.01    +0.034 A  
DOCKED: ATOM      9  N   UNL     1     141.025  72.052 226.115 -0.33 +0.04    -0.251 NA 
DOCKED: ATOM     10  C   UNL     1     140.361  70.056 227.899 -0.63 -0.00    +0.004 A  
DOCKED: ATOM     11  C   UNL     1     141.404  72.172 227.415 -0.70 -0.02    +0.112 A  
DOCKED: ATOM     12  C   UNL     1     141.078  71.172 228.332 -0.67 -0.00    +0.020 A  
DOCKED: ENDBRANCH   4   7
DOCKED: ENDBRANCH   2   3
DOCKED: ENDBRANCH   1   2
DOCKED: BRANCH   1  13
DOCKED: ATOM     13  O   UNL     1     140.444  74.271 222.135 -0.68 -0.00    -0.492 OA 
DOCKED: BRANCH  13  14
DOCKED: ATOM     14  C   UNL     1     140.785  75.579 221.754 -0.30 -0.03    +0.120 A  
DOCKED: ATOM     15  C   UNL     1     140.900  75.854 220.386 -0.20 -0.02    +0.047 A  
DOCKED: ATOM     16  C   UNL     1     141.018  76.610 222.686 -0.24 -0.02    +0.055 A  
DOCKED: ATOM     17  C   UNL     1     141.232  77.135 219.938 -0.22 -0.01    +0.012 A  
DOCKED: ATOM     18  C   UNL     1     141.352  77.901 222.246 -0.39 +0.01    -0.013 A  
DOCKED: ATOM     19  C   UNL     1     141.459  78.166 220.860 -0.32 +0.01    -0.018 A  
DOCKED: ATOM     20  C   UNL     1     141.581  78.933 223.169 -0.55 -0.01    +0.029 A  
DOCKED: ATOM     21  C   UNL     1     141.792  79.457 220.422 -0.31 -0.01    +0.010 A  
DOCKED: ATOM     22  C   UNL     1     141.913  80.217 222.721 -0.54 -0.01    +0.041 A  
DOCKED: ATOM     23  C   UNL     1     142.018  80.476 221.351 -0.40 -0.01    +0.021 A  
DOCKED: ATOM     24  Cl  UNL     1     142.198  81.503 223.880 -0.64 +0.01    -0.084 Cl 
DOCKED: ENDBRANCH  13  14
DOCKED: ENDBRANCH   1  13
DOCKED: TORSDOF 5
DOCKED: TER
DOCKED: ENDMDL
________________________________________________________________________________


    FINAL DOCKED STATE:
    ________________________


Run:   4 / 20
Time taken for this run:   0.030s

DOCKED: MODEL        4
DOCKED: USER    Run = 4
DOCKED: USER
DOCKED: USER    Estimated Free Energy of Binding    =  -7.97 kcal/mol  [=(1)+(2)+(3)-(4)]
DOCKED: USER
DOCKED: USER    (1) Final Intermolecular Energy     =  -9.46 kcal/mol
DOCKED: USER        vdW + Hbond + desolv Energy     =  -9.39 kcal/mol
DOCKED: USER        Electrostatic Energy            =  -0.07 kcal/mol
DOCKED: USER        Moving Ligand-Fixed Receptor    =  -9.46 kcal/mol
DOCKED: USER        Moving Ligand-Moving Receptor   =  +0.00 kcal/mol
DOCKED: USER    (2) Final Total Internal Energy     =  -1.55 kcal/mol
DOCKED: USER    (3) Torsional Free Energy           =  +1.49 kcal/mol
DOCKED: USER    (4) Unbound System's Energy         =  -1.55 kcal/mol
DOCKED: USER
DOCKED: USER
DOCKED: REMARK SMILES O=C(NCCOc1ccc2ccc(Cl)cc2c1)c1ccccn1
DOCKED: REMARK SMILES IDX 5 1 4 2 3 3 2 4 1 5 18 7 19 8 23 9 20 10 22 11 21 12 6 13
DOCKED: REMARK SMILES IDX 7 14 8 15 17 16 9 17 16 18 10 19 15 20 11 21 13 22 12 23
DOCKED: REMARK SMILES IDX 14 24
DOCKED: REMARK H PARENT 3 6
DOCKED: USER                              x       y       z     vdW  Elec       q    Type
DOCKED: USER                           _______ _______ _______ _____ _____    ______ ____
DOCKED: ROOT
DOCKED: ATOM      1  C   UNL     1     139.334  73.348 221.307 -0.14 -0.05    +0.250 C  
DOCKED: ENDROOT
DOCKED: BRANCH   1   2
DOCKED: ATOM      2  C   UNL     1     139.273  71.979 221.994 -0.18 -0.03    +0.157 C  
DOCKED: BRANCH   2   3
DOCKED: ATOM      3  N   UNL     1     139.694  72.068 223.393 -0.14 +0.08    -0.347 N  
DOCKED: ATOM      4  C   UNL     1     139.737  70.904 224.233 -0.27 -0.05    +0.269 C  
DOCKED: ATOM      5  O   UNL     1     139.385  69.785 223.768 -0.17 +0.05    -0.268 OA 
DOCKED: ATOM      6  H   UNL     1     139.976  72.994 223.787 -0.29 -0.03    +0.164 HD 
DOCKED: BRANCH   4   7
DOCKED: ATOM      7  C   UNL     1     140.189  71.006 225.638 -0.45 -0.02    +0.128 A  
DOCKED: ATOM      8  C   UNL     1     139.905  69.989 226.566 -0.50 -0.01    +0.034 A  
DOCKED: ATOM      9  N   UNL     1     140.894  72.099 226.045 -0.26 +0.04    -0.251 NA 
DOCKED: ATOM     10  C   UNL     1     140.348  70.118 227.885 -0.63 -0.00    +0.004 A  
DOCKED: ATOM     11  C   UNL     1     141.334  72.242 227.324 -0.71 -0.02    +0.112 A  
DOCKED: ATOM     12  C   UNL     1     141.069  71.250 228.268 -0.70 -0.00    +0.020 A  
DOCKED: ENDBRANCH   4   7
DOCKED: ENDBRANCH   2   3
DOCKED: ENDBRANCH   1   2
DOCKED: BRANCH   1  13
DOCKED: ATOM     13  O   UNL     1     140.206  74.236 222.009 -0.72 +0.03    -0.492 OA 
DOCKED: BRANCH  13  14
DOCKED: ATOM     14  C   UNL     1     139.946  75.588 222.288 -0.21 -0.02    +0.120 A  
DOCKED: ATOM     15  C   UNL     1     138.615  76.021 222.247 -0.29 -0.01    +0.047 A  
DOCKED: ATOM     16  C   UNL     1     140.962  76.513 222.597 -0.24 -0.02    +0.055 A  
DOCKED: ATOM     17  C   UNL     1     138.287  77.351 222.518 -0.28 -0.00    +0.012 A  
DOCKED: ATOM     18  C   UNL     1     140.643  77.853 222.871 -0.38 +0.00    -0.013 A  
DOCKED: ATOM     19  C   UNL     1     139.293  78.275 222.832 -0.31 +0.00    -0.018 A  
DOCKED: ATOM     20  C   UNL     1     141.650  78.778 223.184 -0.56 -0.01    +0.029 A  
DOCKED: ATOM     21  C   UNL     1     138.974  79.614 223.107 -0.34 -0.00    +0.010 A  
DOCKED: ATOM     22  C   UNL     1     141.322  80.111 223.456 -0.52 -0.01    +0.041 A  
DOCKED: ATOM     23  C   UNL     1     139.987  80.527 223.417 -0.42 -0.00    +0.021 A  
DOCKED: ATOM     24  Cl  UNL     1     142.585  81.263 223.847 -0.69 +0.01    -0.084 Cl 
DOCKED: ENDBRANCH  13  14
DOCKED: ENDBRANCH   1  13
DOCKED: TORSDOF 5
DOCKED: TER
DOCKED: ENDMDL
________________________________________________________________________________


    FINAL DOCKED STATE:
    ________________________


Run:   5 / 20
Time taken for this run:   0.030s

DOCKED: MODEL        5
DOCKED: USER    Run = 5
DOCKED: USER
DOCKED: USER    Estimated Free Energy of Binding    =  -8.01 kcal/mol  [=(1)+(2)+(3)-(4)]
DOCKED: USER
DOCKED: USER    (1) Final Intermolecular Energy     =  -9.50 kcal/mol
DOCKED: USER        vdW + Hbond + desolv Energy     =  -9.40 kcal/mol
DOCKED: USER        Electrostatic Energy            =  -0.10 kcal/mol
DOCKED: USER        Moving Ligand-Fixed Receptor    =  -9.50 kcal/mol
DOCKED: USER        Moving Ligand-Moving Receptor   =  +0.00 kcal/mol
DOCKED: USER    (2) Final Total Internal Energy     =  -1.49 kcal/mol
DOCKED: USER    (3) Torsional Free Energy           =  +1.49 kcal/mol
DOCKED: USER    (4) Unbound System's Energy         =  -1.49 kcal/mol
DOCKED: USER
DOCKED: USER
DOCKED: REMARK SMILES O=C(NCCOc1ccc2ccc(Cl)cc2c1)c1ccccn1
DOCKED: REMARK SMILES IDX 5 1 4 2 3 3 2 4 1 5 18 7 19 8 23 9 20 10 22 11 21 12 6 13
DOCKED: REMARK SMILES IDX 7 14 8 15 17 16 9 17 16 18 10 19 15 20 11 21 13 22 12 23
DOCKED: REMARK SMILES IDX 14 24
DOCKED: REMARK H PARENT 3 6
DOCKED: USER                              x       y       z     vdW  Elec       q    Type
DOCKED: USER                           _______ _______ _______ _____ _____    ______ ____
DOCKED: ROOT
DOCKED: ATOM      1  C   UNL     1     139.878  73.243 221.221 -0.15 -0.04    +0.250 C  
DOCKED: ENDROOT
DOCKED: BRANCH   1   2
DOCKED: ATOM      2  C   UNL     1     139.549  71.950 221.976 -0.20 -0.03    +0.157 C  
DOCKED: BRANCH   2   3
DOCKED: ATOM      3  N   UNL     1     139.869  72.071 223.399 -0.17 +0.07    -0.347 N  
DOCKED: ATOM      4  C   UNL     1     140.006  70.910 224.233 -0.27 -0.05    +0.269 C  
DOCKED: ATOM      5  O   UNL     1     139.827  69.762 223.739 -0.15 +0.05    -0.268 OA 
DOCKED: ATOM      6  H   UNL     1     140.008  73.019 223.817 -0.28 -0.03    +0.164 HD 
DOCKED: BRANCH   4   7
DOCKED: ATOM      7  C   UNL     1     140.354  71.048 225.665 -0.47 -0.02    +0.128 A  
DOCKED: ATOM      8  C   UNL     1     139.967  70.073 226.602 -0.51 -0.01    +0.034 A  
DOCKED: ATOM      9  N   UNL     1     141.062  72.132 226.088 -0.30 +0.04    -0.251 NA 
DOCKED: ATOM     10  C   UNL     1     140.313  70.235 227.945 -0.64 -0.00    +0.004 A  
DOCKED: ATOM     11  C   UNL     1     141.409  72.306 227.391 -0.70 -0.02    +0.112 A  
DOCKED: ATOM     12  C   UNL     1     141.040  71.357 228.345 -0.71 -0.00    +0.020 A  
DOCKED: ENDBRANCH   4   7
DOCKED: ENDBRANCH   2   3
DOCKED: ENDBRANCH   1   2
DOCKED: BRANCH   1  13
DOCKED: ATOM     13  O   UNL     1     140.199  74.300 222.127 -0.71 +0.02    -0.492 OA 
DOCKED: BRANCH  13  14
DOCKED: ATOM     14  C   UNL     1     140.603  75.595 221.764 -0.30 -0.03    +0.120 A  
DOCKED: ATOM     15  C   UNL     1     140.774  75.870 220.402 -0.20 -0.02    +0.047 A  
DOCKED: ATOM     16  C   UNL     1     140.848  76.612 222.708 -0.25 -0.02    +0.055 A  
DOCKED: ATOM     17  C   UNL     1     141.172  77.138 219.972 -0.22 -0.01    +0.012 A  
DOCKED: ATOM     18  C   UNL     1     141.247  77.890 222.287 -0.41 +0.01    -0.013 A  
DOCKED: ATOM     19  C   UNL     1     141.410  78.156 220.907 -0.32 +0.01    -0.018 A  
DOCKED: ATOM     20  C   UNL     1     141.487  78.908 223.222 -0.55 -0.01    +0.029 A  
DOCKED: ATOM     21  C   UNL     1     141.808  79.434 220.486 -0.31 -0.01    +0.010 A  
DOCKED: ATOM     22  C   UNL     1     141.885  80.179 222.792 -0.54 -0.01    +0.041 A  
DOCKED: ATOM     23  C   UNL     1     142.045  80.440 221.427 -0.41 -0.01    +0.021 A  
DOCKED: ATOM     24  Cl  UNL     1     142.183  81.448 223.966 -0.63 +0.01    -0.084 Cl 
DOCKED: ENDBRANCH  13  14
DOCKED: ENDBRANCH   1  13
DOCKED: TORSDOF 5
DOCKED: TER
DOCKED: ENDMDL
________________________________________________________________________________


    FINAL DOCKED STATE:
    ________________________


Run:   6 / 20
Time taken for this run:   0.030s

DOCKED: MODEL        6
DOCKED: USER    Run = 6
DOCKED: USER
DOCKED: USER    Estimated Free Energy of Binding    =  -7.96 kcal/mol  [=(1)+(2)+(3)-(4)]
DOCKED: USER
DOCKED: USER    (1) Final Intermolecular Energy     =  -9.45 kcal/mol
DOCKED: USER        vdW + Hbond + desolv Energy     =  -9.38 kcal/mol
DOCKED: USER        Electrostatic Energy            =  -0.07 kcal/mol
DOCKED: USER        Moving Ligand-Fixed Receptor    =  -9.45 kcal/mol
DOCKED: USER        Moving Ligand-Moving Receptor   =  +0.00 kcal/mol
DOCKED: USER    (2) Final Total Internal Energy     =  -1.55 kcal/mol
DOCKED: USER    (3) Torsional Free Energy           =  +1.49 kcal/mol
DOCKED: USER    (4) Unbound System's Energy         =  -1.55 kcal/mol
DOCKED: USER
DOCKED: USER
DOCKED: REMARK SMILES O=C(NCCOc1ccc2ccc(Cl)cc2c1)c1ccccn1
DOCKED: REMARK SMILES IDX 5 1 4 2 3 3 2 4 1 5 18 7 19 8 23 9 20 10 22 11 21 12 6 13
DOCKED: REMARK SMILES IDX 7 14 8 15 17 16 9 17 16 18 10 19 15 20 11 21 13 22 12 23
DOCKED: REMARK SMILES IDX 14 24
DOCKED: REMARK H PARENT 3 6
DOCKED: USER                              x       y       z     vdW  Elec       q    Type
DOCKED: USER                           _______ _______ _______ _____ _____    ______ ____
DOCKED: ROOT
DOCKED: ATOM      1  C   UNL     1     139.370  73.334 221.298 -0.14 -0.05    +0.250 C  
DOCKED: ENDROOT
DOCKED: BRANCH   1   2
DOCKED: ATOM      2  C   UNL     1     139.285  71.975 222.001 -0.18 -0.03    +0.157 C  
DOCKED: BRANCH   2   3
DOCKED: ATOM      3  N   UNL     1     139.700  72.075 223.401 -0.13 +0.08    -0.347 N  
DOCKED: ATOM      4  C   UNL     1     139.759  70.915 224.245 -0.27 -0.05    +0.269 C  
DOCKED: ATOM      5  O   UNL     1     139.426  69.789 223.783 -0.17 +0.05    -0.268 OA 
DOCKED: ATOM      6  H   UNL     1     139.967  73.006 223.793 -0.29 -0.03    +0.164 HD 
DOCKED: BRANCH   4   7
DOCKED: ATOM      7  C   UNL     1     140.204  71.029 225.652 -0.45 -0.02    +0.128 A  
DOCKED: ATOM      8  C   UNL     1     139.904  70.026 226.590 -0.50 -0.01    +0.034 A  
DOCKED: ATOM      9  N   UNL     1     140.920  72.119 226.049 -0.26 +0.04    -0.251 NA 
DOCKED: ATOM     10  C   UNL     1     140.342  70.166 227.909 -0.64 -0.00    +0.004 A  
DOCKED: ATOM     11  C   UNL     1     141.355  72.272 227.328 -0.71 -0.02    +0.112 A  
DOCKED: ATOM     12  C   UNL     1     141.073  71.294 228.283 -0.70 -0.00    +0.020 A  
DOCKED: ENDBRANCH   4   7
DOCKED: ENDBRANCH   2   3
DOCKED: ENDBRANCH   1   2
DOCKED: BRANCH   1  13
DOCKED: ATOM     13  O   UNL     1     140.222  74.230 222.013 -0.72 +0.03    -0.492 OA 
DOCKED: BRANCH  13  14
DOCKED: ATOM     14  C   UNL     1     139.946  75.581 222.285 -0.21 -0.02    +0.120 A  
DOCKED: ATOM     15  C   UNL     1     138.611  76.000 222.232 -0.29 -0.01    +0.047 A  
DOCKED: ATOM     16  C   UNL     1     140.950  76.517 222.600 -0.24 -0.02    +0.055 A  
DOCKED: ATOM     17  C   UNL     1     138.267  77.328 222.495 -0.28 -0.00    +0.012 A  
DOCKED: ATOM     18  C   UNL     1     140.614  77.855 222.866 -0.38 +0.00    -0.013 A  
DOCKED: ATOM     19  C   UNL     1     139.261  78.263 222.814 -0.31 +0.00    -0.018 A  
DOCKED: ATOM     20  C   UNL     1     141.610  78.791 223.185 -0.55 -0.01    +0.029 A  
DOCKED: ATOM     21  C   UNL     1     138.926  79.599 223.082 -0.33 -0.00    +0.010 A  
DOCKED: ATOM     22  C   UNL     1     141.265  80.122 223.449 -0.52 -0.01    +0.041 A  
DOCKED: ATOM     23  C   UNL     1     139.927  80.523 223.397 -0.42 -0.00    +0.021 A  
DOCKED: ATOM     24  Cl  UNL     1     142.514  81.288 223.847 -0.69 +0.01    -0.084 Cl 
DOCKED: ENDBRANCH  13  14
DOCKED: ENDBRANCH   1  13
DOCKED: TORSDOF 5
DOCKED: TER
DOCKED: ENDMDL
________________________________________________________________________________


    FINAL DOCKED STATE:
    ________________________


Run:   7 / 20
Time taken for this run:   0.030s

DOCKED: MODEL        7
DOCKED: USER    Run = 7
DOCKED: USER
DOCKED: USER    Estimated Free Energy of Binding    =  -7.99 kcal/mol  [=(1)+(2)+(3)-(4)]
DOCKED: USER
DOCKED: USER    (1) Final Intermolecular Energy     =  -9.49 kcal/mol
DOCKED: USER        vdW + Hbond + desolv Energy     =  -9.42 kcal/mol
DOCKED: USER        Electrostatic Energy            =  -0.07 kcal/mol
DOCKED: USER        Moving Ligand-Fixed Receptor    =  -9.49 kcal/mol
DOCKED: USER        Moving Ligand-Moving Receptor   =  +0.00 kcal/mol
DOCKED: USER    (2) Final Total Internal Energy     =  -1.53 kcal/mol
DOCKED: USER    (3) Torsional Free Energy           =  +1.49 kcal/mol
DOCKED: USER    (4) Unbound System's Energy         =  -1.53 kcal/mol
DOCKED: USER
DOCKED: USER
DOCKED: REMARK SMILES O=C(NCCOc1ccc2ccc(Cl)cc2c1)c1ccccn1
DOCKED: REMARK SMILES IDX 5 1 4 2 3 3 2 4 1 5 18 7 19 8 23 9 20 10 22 11 21 12 6 13
DOCKED: REMARK SMILES IDX 7 14 8 15 17 16 9 17 16 18 10 19 15 20 11 21 13 22 12 23
DOCKED: REMARK SMILES IDX 14 24
DOCKED: REMARK H PARENT 3 6
DOCKED: USER                              x       y       z     vdW  Elec       q    Type
DOCKED: USER                           _______ _______ _______ _____ _____    ______ ____
DOCKED: ROOT
DOCKED: ATOM      1  C   UNL     1     139.271  73.338 221.373 -0.14 -0.05    +0.250 C  
DOCKED: ENDROOT
DOCKED: BRANCH   1   2
DOCKED: ATOM      2  C   UNL     1     139.289  71.965 222.054 -0.18 -0.03    +0.157 C  
DOCKED: BRANCH   2   3
DOCKED: ATOM      3  N   UNL     1     139.721  72.069 223.448 -0.13 +0.08    -0.347 N  
DOCKED: ATOM      4  C   UNL     1     139.751  70.917 224.306 -0.27 -0.05    +0.269 C  
DOCKED: ATOM      5  O   UNL     1     139.378  69.797 223.861 -0.17 +0.05    -0.268 OA 
DOCKED: ATOM      6  H   UNL     1     140.022  72.996 223.826 -0.27 -0.03    +0.164 HD 
DOCKED: BRANCH   4   7
DOCKED: ATOM      7  C   UNL     1     140.215  71.034 225.707 -0.46 -0.02    +0.128 A  
DOCKED: ATOM      8  C   UNL     1     139.919  70.037 226.653 -0.50 -0.01    +0.034 A  
DOCKED: ATOM      9  N   UNL     1     140.942  72.121 226.090 -0.28 +0.04    -0.251 NA 
DOCKED: ATOM     10  C   UNL     1     140.374  70.180 227.966 -0.64 -0.00    +0.004 A  
DOCKED: ATOM     11  C   UNL     1     141.394  72.276 227.364 -0.71 -0.02    +0.112 A  
DOCKED: ATOM     12  C   UNL     1     141.117  71.305 228.326 -0.69 -0.00    +0.020 A  
DOCKED: ENDBRANCH   4   7
DOCKED: ENDBRANCH   2   3
DOCKED: ENDBRANCH   1   2
DOCKED: BRANCH   1  13
DOCKED: ATOM     13  O   UNL     1     140.173  74.241 222.016 -0.72 +0.03    -0.492 OA 
DOCKED: BRANCH  13  14
DOCKED: ATOM     14  C   UNL     1     139.918  75.594 222.295 -0.22 -0.02    +0.120 A  
DOCKED: ATOM     15  C   UNL     1     138.588  76.031 222.254 -0.29 -0.01    +0.047 A  
DOCKED: ATOM     16  C   UNL     1     140.937  76.516 222.603 -0.24 -0.02    +0.055 A  
DOCKED: ATOM     17  C   UNL     1     138.264  77.363 222.525 -0.28 -0.00    +0.012 A  
DOCKED: ATOM     18  C   UNL     1     140.622  77.857 222.877 -0.38 +0.00    -0.013 A  
DOCKED: ATOM     19  C   UNL     1     139.274  78.283 222.838 -0.31 +0.00    -0.018 A  
DOCKED: ATOM     20  C   UNL     1     141.633  78.779 223.189 -0.56 -0.01    +0.029 A  
DOCKED: ATOM     21  C   UNL     1     138.960  79.623 223.113 -0.34 -0.00    +0.010 A  
DOCKED: ATOM     22  C   UNL     1     141.308  80.113 223.461 -0.52 -0.01    +0.041 A  
DOCKED: ATOM     23  C   UNL     1     139.975  80.533 223.422 -0.42 -0.00    +0.021 A  
DOCKED: ATOM     24  Cl  UNL     1     142.576  81.261 223.851 -0.70 +0.01    -0.084 Cl 
DOCKED: ENDBRANCH  13  14
DOCKED: ENDBRANCH   1  13
DOCKED: TORSDOF 5
DOCKED: TER
DOCKED: ENDMDL
________________________________________________________________________________


    FINAL DOCKED STATE:
    ________________________


Run:   8 / 20
Time taken for this run:   0.030s

DOCKED: MODEL        8
DOCKED: USER    Run = 8
DOCKED: USER
DOCKED: USER    Estimated Free Energy of Binding    =  -7.98 kcal/mol  [=(1)+(2)+(3)-(4)]
DOCKED: USER
DOCKED: USER    (1) Final Intermolecular Energy     =  -9.47 kcal/mol
DOCKED: USER        vdW + Hbond + desolv Energy     =  -9.36 kcal/mol
DOCKED: USER        Electrostatic Energy            =  -0.12 kcal/mol
DOCKED: USER        Moving Ligand-Fixed Receptor    =  -9.47 kcal/mol
DOCKED: USER        Moving Ligand-Moving Receptor   =  +0.00 kcal/mol
DOCKED: USER    (2) Final Total Internal Energy     =  -0.84 kcal/mol
DOCKED: USER    (3) Torsional Free Energy           =  +1.49 kcal/mol
DOCKED: USER    (4) Unbound System's Energy         =  -0.84 kcal/mol
DOCKED: USER
DOCKED: USER
DOCKED: REMARK SMILES O=C(NCCOc1ccc2ccc(Cl)cc2c1)c1ccccn1
DOCKED: REMARK SMILES IDX 5 1 4 2 3 3 2 4 1 5 18 7 19 8 23 9 20 10 22 11 21 12 6 13
DOCKED: REMARK SMILES IDX 7 14 8 15 17 16 9 17 16 18 10 19 15 20 11 21 13 22 12 23
DOCKED: REMARK SMILES IDX 14 24
DOCKED: REMARK H PARENT 3 6
DOCKED: USER                              x       y       z     vdW  Elec       q    Type
DOCKED: USER                           _______ _______ _______ _____ _____    ______ ____
DOCKED: ROOT
DOCKED: ATOM      1  C   UNL     1     139.745  74.141 221.913 -0.16 -0.04    +0.250 C  
DOCKED: ENDROOT
DOCKED: BRANCH   1   2
DOCKED: ATOM      2  C   UNL     1     140.570  74.938 220.897 -0.21 -0.04    +0.157 C  
DOCKED: BRANCH   2   3
DOCKED: ATOM      3  N   UNL     1     141.086  76.175 221.485 -0.17 +0.13    -0.347 N  
DOCKED: ATOM      4  C   UNL     1     140.202  77.161 222.041 -0.25 -0.08    +0.269 C  
DOCKED: ATOM      5  O   UNL     1     138.955  76.972 222.005 -0.17 +0.06    -0.268 OA 
DOCKED: ATOM      6  H   UNL     1     142.117  76.342 221.508 -0.49 -0.13    +0.164 HD 
DOCKED: BRANCH   4   7
DOCKED: ATOM      7  C   UNL     1     140.741  78.395 222.654 -0.37 -0.04    +0.128 A  
DOCKED: ATOM      8  C   UNL     1     139.890  79.331 223.267 -0.40 -0.01    +0.034 A  
DOCKED: ATOM      9  N   UNL     1     142.083  78.632 222.630 -0.25 +0.14    -0.251 NA 
DOCKED: ATOM     10  C   UNL     1     140.434  80.484 223.837 -0.42 -0.00    +0.004 A  
DOCKED: ATOM     11  C   UNL     1     142.630  79.749 223.180 -0.55 -0.04    +0.112 A  
DOCKED: ATOM     12  C   UNL     1     141.812  80.697 223.796 -0.58 -0.00    +0.020 A  
DOCKED: ENDBRANCH   4   7
DOCKED: ENDBRANCH   2   3
DOCKED: ENDBRANCH   1   2
DOCKED: BRANCH   1  13
DOCKED: ATOM     13  O   UNL     1     140.583  73.301 222.710 -0.51 -0.05    -0.492 OA 
DOCKED: BRANCH  13  14
DOCKED: ATOM     14  C   UNL     1     140.178  72.129 223.369 -0.27 -0.02    +0.120 A  
DOCKED: ATOM     15  C   UNL     1     139.208  71.331 222.751 -0.25 -0.01    +0.047 A  
DOCKED: ATOM     16  C   UNL     1     140.700  71.736 224.617 -0.37 -0.01    +0.055 A  
DOCKED: ATOM     17  C   UNL     1     138.763  70.151 223.351 -0.25 -0.00    +0.012 A  
DOCKED: ATOM     18  C   UNL     1     140.260  70.551 225.229 -0.49 +0.00    -0.013 A  
DOCKED: ATOM     19  C   UNL     1     139.283  69.751 224.590 -0.35 +0.00    -0.018 A  
DOCKED: ATOM     20  C   UNL     1     140.780  70.151 226.470 -0.55 -0.00    +0.029 A  
DOCKED: ATOM     21  C   UNL     1     138.845  68.567 225.201 -0.42 -0.00    +0.010 A  
DOCKED: ATOM     22  C   UNL     1     140.335  68.969 227.071 -0.58 -0.01    +0.041 A  
DOCKED: ATOM     23  C   UNL     1     139.370  68.180 226.438 -0.56 -0.00    +0.021 A  
DOCKED: ATOM     24  Cl  UNL     1     140.989  68.474 228.622 -0.73 +0.02    -0.084 Cl 
DOCKED: ENDBRANCH  13  14
DOCKED: ENDBRANCH   1  13
DOCKED: TORSDOF 5
DOCKED: TER
DOCKED: ENDMDL
________________________________________________________________________________


    FINAL DOCKED STATE:
    ________________________


Run:   9 / 20
Time taken for this run:   0.030s

DOCKED: MODEL        9
DOCKED: USER    Run = 9
DOCKED: USER
DOCKED: USER    Estimated Free Energy of Binding    =  -8.00 kcal/mol  [=(1)+(2)+(3)-(4)]
DOCKED: USER
DOCKED: USER    (1) Final Intermolecular Energy     =  -9.49 kcal/mol
DOCKED: USER        vdW + Hbond + desolv Energy     =  -9.37 kcal/mol
DOCKED: USER        Electrostatic Energy            =  -0.12 kcal/mol
DOCKED: USER        Moving Ligand-Fixed Receptor    =  -9.49 kcal/mol
DOCKED: USER        Moving Ligand-Moving Receptor   =  +0.00 kcal/mol
DOCKED: USER    (2) Final Total Internal Energy     =  -1.49 kcal/mol
DOCKED: USER    (3) Torsional Free Energy           =  +1.49 kcal/mol
DOCKED: USER    (4) Unbound System's Energy         =  -1.49 kcal/mol
DOCKED: USER
DOCKED: USER
DOCKED: REMARK SMILES O=C(NCCOc1ccc2ccc(Cl)cc2c1)c1ccccn1
DOCKED: REMARK SMILES IDX 5 1 4 2 3 3 2 4 1 5 18 7 19 8 23 9 20 10 22 11 21 12 6 13
DOCKED: REMARK SMILES IDX 7 14 8 15 17 16 9 17 16 18 10 19 15 20 11 21 13 22 12 23
DOCKED: REMARK SMILES IDX 14 24
DOCKED: REMARK H PARENT 3 6
DOCKED: USER                              x       y       z     vdW  Elec       q    Type
DOCKED: USER                           _______ _______ _______ _____ _____    ______ ____
DOCKED: ROOT
DOCKED: ATOM      1  C   UNL     1     139.639  73.329 221.295 -0.15 -0.05    +0.250 C  
DOCKED: ENDROOT
DOCKED: BRANCH   1   2
DOCKED: ATOM      2  C   UNL     1     139.467  71.984 222.008 -0.19 -0.03    +0.157 C  
DOCKED: BRANCH   2   3
DOCKED: ATOM      3  N   UNL     1     139.812  72.087 223.427 -0.15 +0.07    -0.347 N  
DOCKED: ATOM      4  C   UNL     1     139.953  70.917 224.247 -0.28 -0.05    +0.269 C  
DOCKED: ATOM      5  O   UNL     1     139.755  69.776 223.745 -0.16 +0.05    -0.268 OA 
DOCKED: ATOM      6  H   UNL     1     139.967  73.030 223.851 -0.29 -0.03    +0.164 HD 
DOCKED: BRANCH   4   7
DOCKED: ATOM      7  C   UNL     1     140.327  71.037 225.673 -0.47 -0.02    +0.128 A  
DOCKED: ATOM      8  C   UNL     1     139.953  70.053 226.606 -0.51 -0.01    +0.034 A  
DOCKED: ATOM      9  N   UNL     1     141.047  72.114 226.096 -0.31 +0.04    -0.251 NA 
DOCKED: ATOM     10  C   UNL     1     140.324  70.198 227.944 -0.64 -0.00    +0.004 A  
DOCKED: ATOM     11  C   UNL     1     141.418  72.272 227.395 -0.71 -0.02    +0.112 A  
DOCKED: ATOM     12  C   UNL     1     141.062  71.313 228.344 -0.70 -0.00    +0.020 A  
DOCKED: ENDBRANCH   4   7
DOCKED: ENDBRANCH   2   3
DOCKED: ENDBRANCH   1   2
DOCKED: BRANCH   1  13
DOCKED: ATOM     13  O   UNL     1     140.320  74.269 222.128 -0.71 +0.00    -0.492 OA 
DOCKED: BRANCH  13  14
DOCKED: ATOM     14  C   UNL     1     140.685  75.575 221.761 -0.30 -0.03    +0.120 A  
DOCKED: ATOM     15  C   UNL     1     140.798  75.864 220.395 -0.20 -0.02    +0.047 A  
DOCKED: ATOM     16  C   UNL     1     140.946  76.589 222.703 -0.23 -0.02    +0.055 A  
DOCKED: ATOM     17  C   UNL     1     141.154  77.143 219.962 -0.22 -0.01    +0.012 A  
DOCKED: ATOM     18  C   UNL     1     141.305  77.878 222.278 -0.39 +0.01    -0.013 A  
DOCKED: ATOM     19  C   UNL     1     141.409  78.158 220.895 -0.32 +0.01    -0.018 A  
DOCKED: ATOM     20  C   UNL     1     141.561  78.894 223.212 -0.56 -0.01    +0.029 A  
DOCKED: ATOM     21  C   UNL     1     141.765  79.446 220.470 -0.31 -0.01    +0.010 A  
DOCKED: ATOM     22  C   UNL     1     141.917  80.175 222.778 -0.54 -0.01    +0.041 A  
DOCKED: ATOM     23  C   UNL     1     142.019  80.450 221.410 -0.41 -0.01    +0.021 A  
DOCKED: ATOM     24  Cl  UNL     1     142.236  81.441 223.950 -0.64 +0.01    -0.084 Cl 
DOCKED: ENDBRANCH  13  14
DOCKED: ENDBRANCH   1  13
DOCKED: TORSDOF 5
DOCKED: TER
DOCKED: ENDMDL
________________________________________________________________________________


    FINAL DOCKED STATE:
    ________________________


Run:   10 / 20
Time taken for this run:   0.030s

DOCKED: MODEL        10
DOCKED: USER    Run = 10
DOCKED: USER
DOCKED: USER    Estimated Free Energy of Binding    =  -8.02 kcal/mol  [=(1)+(2)+(3)-(4)]
DOCKED: USER
DOCKED: USER    (1) Final Intermolecular Energy     =  -9.51 kcal/mol
DOCKED: USER        vdW + Hbond + desolv Energy     =  -9.45 kcal/mol
DOCKED: USER        Electrostatic Energy            =  -0.06 kcal/mol
DOCKED: USER        Moving Ligand-Fixed Receptor    =  -9.51 kcal/mol
DOCKED: USER        Moving Ligand-Moving Receptor   =  +0.00 kcal/mol
DOCKED: USER    (2) Final Total Internal Energy     =  -1.48 kcal/mol
DOCKED: USER    (3) Torsional Free Energy           =  +1.49 kcal/mol
DOCKED: USER    (4) Unbound System's Energy         =  -1.48 kcal/mol
DOCKED: USER
DOCKED: USER
DOCKED: REMARK SMILES O=C(NCCOc1ccc2ccc(Cl)cc2c1)c1ccccn1
DOCKED: REMARK SMILES IDX 5 1 4 2 3 3 2 4 1 5 18 7 19 8 23 9 20 10 22 11 21 12 6 13
DOCKED: REMARK SMILES IDX 7 14 8 15 17 16 9 17 16 18 10 19 15 20 11 21 13 22 12 23
DOCKED: REMARK SMILES IDX 14 24
DOCKED: REMARK H PARENT 3 6
DOCKED: USER                              x       y       z     vdW  Elec       q    Type
DOCKED: USER                           _______ _______ _______ _____ _____    ______ ____
DOCKED: ROOT
DOCKED: ATOM      1  C   UNL     1     139.226  73.361 221.412 -0.14 -0.05    +0.250 C  
DOCKED: ENDROOT
DOCKED: BRANCH   1   2
DOCKED: ATOM      2  C   UNL     1     139.321  71.976 222.063 -0.19 -0.03    +0.157 C  
DOCKED: BRANCH   2   3
DOCKED: ATOM      3  N   UNL     1     139.742  72.074 223.461 -0.14 +0.08    -0.347 N  
DOCKED: ATOM      4  C   UNL     1     139.786  70.916 224.309 -0.27 -0.05    +0.269 C  
DOCKED: ATOM      5  O   UNL     1     139.436  69.793 223.850 -0.17 +0.05    -0.268 OA 
DOCKED: ATOM      6  H   UNL     1     140.023  73.003 223.850 -0.27 -0.03    +0.164 HD 
DOCKED: BRANCH   4   7
DOCKED: ATOM      7  C   UNL     1     140.237  71.028 225.713 -0.46 -0.02    +0.128 A  
DOCKED: ATOM      8  C   UNL     1     139.928  70.031 226.655 -0.51 -0.01    +0.034 A  
DOCKED: ATOM      9  N   UNL     1     140.967  72.109 226.106 -0.29 +0.04    -0.251 NA 
DOCKED: ATOM     10  C   UNL     1     140.372  70.168 227.973 -0.64 -0.00    +0.004 A  
DOCKED: ATOM     11  C   UNL     1     141.408  72.260 227.384 -0.71 -0.02    +0.112 A  
DOCKED: ATOM     12  C   UNL     1     141.117  71.288 228.342 -0.68 -0.00    +0.020 A  
DOCKED: ENDBRANCH   4   7
DOCKED: ENDBRANCH   2   3
DOCKED: ENDBRANCH   1   2
DOCKED: BRANCH   1  13
DOCKED: ATOM     13  O   UNL     1     140.155  74.271 222.004 -0.72 +0.04    -0.492 OA 
DOCKED: BRANCH  13  14
DOCKED: ATOM     14  C   UNL     1     139.906  75.624 222.290 -0.23 -0.02    +0.120 A  
DOCKED: ATOM     15  C   UNL     1     138.580  76.071 222.243 -0.29 -0.01    +0.047 A  
DOCKED: ATOM     16  C   UNL     1     140.930  76.537 222.611 -0.25 -0.02    +0.055 A  
DOCKED: ATOM     17  C   UNL     1     138.263  77.403 222.519 -0.28 -0.00    +0.012 A  
DOCKED: ATOM     18  C   UNL     1     140.622  77.878 222.891 -0.38 +0.00    -0.013 A  
DOCKED: ATOM     19  C   UNL     1     139.277  78.315 222.845 -0.31 +0.00    -0.018 A  
DOCKED: ATOM     20  C   UNL     1     141.637  78.792 223.216 -0.56 -0.01    +0.029 A  
DOCKED: ATOM     21  C   UNL     1     138.970  79.654 223.126 -0.34 -0.00    +0.010 A  
DOCKED: ATOM     22  C   UNL     1     141.320  80.126 223.494 -0.52 -0.01    +0.041 A  
DOCKED: ATOM     23  C   UNL     1     139.989  80.555 223.448 -0.42 -0.00    +0.021 A  
DOCKED: ATOM     24  Cl  UNL     1     142.592  81.263 223.900 -0.68 +0.01    -0.084 Cl 
DOCKED: ENDBRANCH  13  14
DOCKED: ENDBRANCH   1  13
DOCKED: TORSDOF 5
DOCKED: TER
DOCKED: ENDMDL
________________________________________________________________________________


    FINAL DOCKED STATE:
    ________________________


Run:   11 / 20
Time taken for this run:   0.030s

DOCKED: MODEL        11
DOCKED: USER    Run = 11
DOCKED: USER
DOCKED: USER    Estimated Free Energy of Binding    =  -7.82 kcal/mol  [=(1)+(2)+(3)-(4)]
DOCKED: USER
DOCKED: USER    (1) Final Intermolecular Energy     =  -9.31 kcal/mol
DOCKED: USER        vdW + Hbond + desolv Energy     =  -9.20 kcal/mol
DOCKED: USER        Electrostatic Energy            =  -0.11 kcal/mol
DOCKED: USER        Moving Ligand-Fixed Receptor    =  -9.31 kcal/mol
DOCKED: USER        Moving Ligand-Moving Receptor   =  +0.00 kcal/mol
DOCKED: USER    (2) Final Total Internal Energy     =  -1.36 kcal/mol
DOCKED: USER    (3) Torsional Free Energy           =  +1.49 kcal/mol
DOCKED: USER    (4) Unbound System's Energy         =  -1.36 kcal/mol
DOCKED: USER
DOCKED: USER
DOCKED: REMARK SMILES O=C(NCCOc1ccc2ccc(Cl)cc2c1)c1ccccn1
DOCKED: REMARK SMILES IDX 5 1 4 2 3 3 2 4 1 5 18 7 19 8 23 9 20 10 22 11 21 12 6 13
DOCKED: REMARK SMILES IDX 7 14 8 15 17 16 9 17 16 18 10 19 15 20 11 21 13 22 12 23
DOCKED: REMARK SMILES IDX 14 24
DOCKED: REMARK H PARENT 3 6
DOCKED: USER                              x       y       z     vdW  Elec       q    Type
DOCKED: USER                           _______ _______ _______ _____ _____    ______ ____
DOCKED: ROOT
DOCKED: ATOM      1  C   UNL     1     139.259  73.679 221.548 -0.16 -0.05    +0.250 C  
DOCKED: ENDROOT
DOCKED: BRANCH   1   2
DOCKED: ATOM      2  C   UNL     1     139.247  72.230 222.046 -0.19 -0.03    +0.157 C  
DOCKED: BRANCH   2   3
DOCKED: ATOM      3  N   UNL     1     139.702  72.142 223.435 -0.11 +0.08    -0.347 N  
DOCKED: ATOM      4  C   UNL     1     139.617  70.912 224.171 -0.26 -0.05    +0.269 C  
DOCKED: ATOM      5  O   UNL     1     139.122  69.889 223.622 -0.16 +0.05    -0.268 OA 
DOCKED: ATOM      6  H   UNL     1     140.103  72.989 223.899 -0.23 -0.02    +0.164 HD 
DOCKED: BRANCH   4   7
DOCKED: ATOM      7  C   UNL     1     140.103  70.834 225.566 -0.44 -0.02    +0.128 A  
DOCKED: ATOM      8  C   UNL     1     139.962  69.654 226.318 -0.48 -0.01    +0.034 A  
DOCKED: ATOM      9  N   UNL     1     140.702  71.918 226.136 -0.36 +0.04    -0.251 NA 
DOCKED: ATOM     10  C   UNL     1     140.435  69.616 227.632 -0.61 -0.00    +0.004 A  
DOCKED: ATOM     11  C   UNL     1     141.168  71.899 227.413 -0.71 -0.02    +0.112 A  
DOCKED: ATOM     12  C   UNL     1     141.043  70.743 228.185 -0.62 -0.00    +0.020 A  
DOCKED: ENDBRANCH   4   7
DOCKED: ENDBRANCH   2   3
DOCKED: ENDBRANCH   1   2
DOCKED: BRANCH   1  13
DOCKED: ATOM     13  O   UNL     1     140.376  74.395 222.076 -0.69 +0.01    -0.492 OA 
DOCKED: BRANCH  13  14
DOCKED: ATOM     14  C   UNL     1     140.739  75.710 221.741 -0.31 -0.03    +0.120 A  
DOCKED: ATOM     15  C   UNL     1     140.874  76.026 220.383 -0.20 -0.02    +0.047 A  
DOCKED: ATOM     16  C   UNL     1     140.977  76.707 222.707 -0.28 -0.02    +0.055 A  
DOCKED: ATOM     17  C   UNL     1     141.229  77.315 219.980 -0.23 -0.01    +0.012 A  
DOCKED: ATOM     18  C   UNL     1     141.334  78.007 222.312 -0.41 +0.01    -0.013 A  
DOCKED: ATOM     19  C   UNL     1     141.461  78.313 220.937 -0.32 +0.01    -0.018 A  
DOCKED: ATOM     20  C   UNL     1     141.568  79.006 223.270 -0.56 -0.01    +0.029 A  
DOCKED: ATOM     21  C   UNL     1     141.816  79.612 220.543 -0.32 -0.01    +0.010 A  
DOCKED: ATOM     22  C   UNL     1     141.923  80.298 222.867 -0.55 -0.01    +0.041 A  
DOCKED: ATOM     23  C   UNL     1     142.047  80.599 221.507 -0.42 -0.01    +0.021 A  
DOCKED: ATOM     24  Cl  UNL     1     142.213  81.542 224.068 -0.58 +0.01    -0.084 Cl 
DOCKED: ENDBRANCH  13  14
DOCKED: ENDBRANCH   1  13
DOCKED: TORSDOF 5
DOCKED: TER
DOCKED: ENDMDL
________________________________________________________________________________


    FINAL DOCKED STATE:
    ________________________


Run:   12 / 20
Time taken for this run:   0.030s

DOCKED: MODEL        12
DOCKED: USER    Run = 12
DOCKED: USER
DOCKED: USER    Estimated Free Energy of Binding    =  -8.00 kcal/mol  [=(1)+(2)+(3)-(4)]
DOCKED: USER
DOCKED: USER    (1) Final Intermolecular Energy     =  -9.49 kcal/mol
DOCKED: USER        vdW + Hbond + desolv Energy     =  -9.42 kcal/mol
DOCKED: USER        Electrostatic Energy            =  -0.07 kcal/mol
DOCKED: USER        Moving Ligand-Fixed Receptor    =  -9.49 kcal/mol
DOCKED: USER        Moving Ligand-Moving Receptor   =  +0.00 kcal/mol
DOCKED: USER    (2) Final Total Internal Energy     =  -1.53 kcal/mol
DOCKED: USER    (3) Torsional Free Energy           =  +1.49 kcal/mol
DOCKED: USER    (4) Unbound System's Energy         =  -1.53 kcal/mol
DOCKED: USER
DOCKED: USER
DOCKED: REMARK SMILES O=C(NCCOc1ccc2ccc(Cl)cc2c1)c1ccccn1
DOCKED: REMARK SMILES IDX 5 1 4 2 3 3 2 4 1 5 18 7 19 8 23 9 20 10 22 11 21 12 6 13
DOCKED: REMARK SMILES IDX 7 14 8 15 17 16 9 17 16 18 10 19 15 20 11 21 13 22 12 23
DOCKED: REMARK SMILES IDX 14 24
DOCKED: REMARK H PARENT 3 6
DOCKED: USER                              x       y       z     vdW  Elec       q    Type
DOCKED: USER                           _______ _______ _______ _____ _____    ______ ____
DOCKED: ROOT
DOCKED: ATOM      1  C   UNL     1     139.337  73.323 221.355 -0.14 -0.05    +0.250 C  
DOCKED: ENDROOT
DOCKED: BRANCH   1   2
DOCKED: ATOM      2  C   UNL     1     139.310  71.959 222.052 -0.19 -0.03    +0.157 C  
DOCKED: BRANCH   2   3
DOCKED: ATOM      3  N   UNL     1     139.736  72.067 223.448 -0.14 +0.08    -0.347 N  
DOCKED: ATOM      4  C   UNL     1     139.802  70.912 224.299 -0.27 -0.05    +0.269 C  
DOCKED: ATOM      5  O   UNL     1     139.467  69.783 223.845 -0.17 +0.05    -0.268 OA 
DOCKED: ATOM      6  H   UNL     1     140.005  73.001 223.833 -0.28 -0.03    +0.164 HD 
DOCKED: BRANCH   4   7
DOCKED: ATOM      7  C   UNL     1     140.259  71.035 225.701 -0.46 -0.02    +0.128 A  
DOCKED: ATOM      8  C   UNL     1     139.949  70.048 226.653 -0.51 -0.01    +0.034 A  
DOCKED: ATOM      9  N   UNL     1     140.994  72.117 226.081 -0.29 +0.04    -0.251 NA 
DOCKED: ATOM     10  C   UNL     1     140.397  70.196 227.967 -0.64 -0.00    +0.004 A  
DOCKED: ATOM     11  C   UNL     1     141.439  72.278 227.356 -0.70 -0.02    +0.112 A  
DOCKED: ATOM     12  C   UNL     1     141.148  71.316 228.324 -0.68 -0.00    +0.020 A  
DOCKED: ENDBRANCH   4   7
DOCKED: ENDBRANCH   2   3
DOCKED: ENDBRANCH   1   2
DOCKED: BRANCH   1  13
DOCKED: ATOM     13  O   UNL     1     140.222  74.224 222.022 -0.72 +0.03    -0.492 OA 
DOCKED: BRANCH  13  14
DOCKED: ATOM     14  C   UNL     1     139.957  75.574 222.304 -0.20 -0.02    +0.120 A  
DOCKED: ATOM     15  C   UNL     1     138.626  76.004 222.259 -0.29 -0.01    +0.047 A  
DOCKED: ATOM     16  C   UNL     1     140.970  76.501 222.620 -0.22 -0.02    +0.055 A  
DOCKED: ATOM     17  C   UNL     1     138.292  77.333 222.532 -0.28 -0.00    +0.012 A  
DOCKED: ATOM     18  C   UNL     1     140.645  77.840 222.897 -0.37 +0.00    -0.013 A  
DOCKED: ATOM     19  C   UNL     1     139.295  78.258 222.853 -0.31 +0.00    -0.018 A  
DOCKED: ATOM     20  C   UNL     1     141.649  78.767 223.217 -0.56 -0.01    +0.029 A  
DOCKED: ATOM     21  C   UNL     1     138.971  79.595 223.131 -0.34 -0.00    +0.010 A  
DOCKED: ATOM     22  C   UNL     1     141.316  80.098 223.491 -0.52 -0.01    +0.041 A  
DOCKED: ATOM     23  C   UNL     1     139.980  80.510 223.447 -0.42 -0.00    +0.021 A  
DOCKED: ATOM     24  Cl  UNL     1     142.574  81.252 223.891 -0.69 +0.01    -0.084 Cl 
DOCKED: ENDBRANCH  13  14
DOCKED: ENDBRANCH   1  13
DOCKED: TORSDOF 5
DOCKED: TER
DOCKED: ENDMDL
________________________________________________________________________________


    FINAL DOCKED STATE:
    ________________________


Run:   13 / 20
Time taken for this run:   0.030s

DOCKED: MODEL        13
DOCKED: USER    Run = 13
DOCKED: USER
DOCKED: USER    Estimated Free Energy of Binding    =  -7.91 kcal/mol  [=(1)+(2)+(3)-(4)]
DOCKED: USER
DOCKED: USER    (1) Final Intermolecular Energy     =  -9.40 kcal/mol
DOCKED: USER        vdW + Hbond + desolv Energy     =  -9.33 kcal/mol
DOCKED: USER        Electrostatic Energy            =  -0.07 kcal/mol
DOCKED: USER        Moving Ligand-Fixed Receptor    =  -9.40 kcal/mol
DOCKED: USER        Moving Ligand-Moving Receptor   =  +0.00 kcal/mol
DOCKED: USER    (2) Final Total Internal Energy     =  -1.58 kcal/mol
DOCKED: USER    (3) Torsional Free Energy           =  +1.49 kcal/mol
DOCKED: USER    (4) Unbound System's Energy         =  -1.58 kcal/mol
DOCKED: USER
DOCKED: USER
DOCKED: REMARK SMILES O=C(NCCOc1ccc2ccc(Cl)cc2c1)c1ccccn1
DOCKED: REMARK SMILES IDX 5 1 4 2 3 3 2 4 1 5 18 7 19 8 23 9 20 10 22 11 21 12 6 13
DOCKED: REMARK SMILES IDX 7 14 8 15 17 16 9 17 16 18 10 19 15 20 11 21 13 22 12 23
DOCKED: REMARK SMILES IDX 14 24
DOCKED: REMARK H PARENT 3 6
DOCKED: USER                              x       y       z     vdW  Elec       q    Type
DOCKED: USER                           _______ _______ _______ _____ _____    ______ ____
DOCKED: ROOT
DOCKED: ATOM      1  C   UNL     1     139.461  73.286 221.263 -0.14 -0.05    +0.250 C  
DOCKED: ENDROOT
DOCKED: BRANCH   1   2
DOCKED: ATOM      2  C   UNL     1     139.253  71.975 222.030 -0.18 -0.03    +0.157 C  
DOCKED: BRANCH   2   3
DOCKED: ATOM      3  N   UNL     1     139.699  72.095 223.419 -0.13 +0.08    -0.347 N  
DOCKED: ATOM      4  C   UNL     1     139.765  70.949 224.282 -0.27 -0.05    +0.269 C  
DOCKED: ATOM      5  O   UNL     1     139.412  69.819 223.846 -0.17 +0.05    -0.268 OA 
DOCKED: ATOM      6  H   UNL     1     139.983  73.031 223.788 -0.29 -0.03    +0.164 HD 
DOCKED: BRANCH   4   7
DOCKED: ATOM      7  C   UNL     1     140.241  71.084 225.676 -0.46 -0.02    +0.128 A  
DOCKED: ATOM      8  C   UNL     1     139.946  70.104 226.640 -0.51 -0.01    +0.034 A  
DOCKED: ATOM      9  N   UNL     1     140.981  72.170 226.037 -0.24 +0.04    -0.251 NA 
DOCKED: ATOM     10  C   UNL     1     140.413  70.263 227.947 -0.65 -0.00    +0.004 A  
DOCKED: ATOM     11  C   UNL     1     141.445  72.341 227.304 -0.69 -0.02    +0.112 A  
DOCKED: ATOM     12  C   UNL     1     141.169  71.387 228.284 -0.70 -0.00    +0.020 A  
DOCKED: ENDBRANCH   4   7
DOCKED: ENDBRANCH   2   3
DOCKED: ENDBRANCH   1   2
DOCKED: BRANCH   1  13
DOCKED: ATOM     13  O   UNL     1     140.302  74.180 221.994 -0.73 +0.03    -0.492 OA 
DOCKED: BRANCH  13  14
DOCKED: ATOM     14  C   UNL     1     140.016  75.526 222.277 -0.17 -0.02    +0.120 A  
DOCKED: ATOM     15  C   UNL     1     138.677  75.933 222.240 -0.29 -0.01    +0.047 A  
DOCKED: ATOM     16  C   UNL     1     141.015  76.470 222.585 -0.22 -0.02    +0.055 A  
DOCKED: ATOM     17  C   UNL     1     138.323  77.256 222.514 -0.29 -0.00    +0.012 A  
DOCKED: ATOM     18  C   UNL     1     140.670  77.803 222.862 -0.38 +0.00    -0.013 A  
DOCKED: ATOM     19  C   UNL     1     139.312  78.199 222.827 -0.30 +0.00    -0.018 A  
DOCKED: ATOM     20  C   UNL     1     141.660  78.747 223.175 -0.55 -0.01    +0.029 A  
DOCKED: ATOM     21  C   UNL     1     138.968  79.530 223.106 -0.34 -0.00    +0.010 A  
DOCKED: ATOM     22  C   UNL     1     141.306  80.073 223.450 -0.52 -0.01    +0.041 A  
DOCKED: ATOM     23  C   UNL     1     139.963  80.462 223.415 -0.42 -0.00    +0.021 A  
DOCKED: ATOM     24  Cl  UNL     1     142.548  81.249 223.841 -0.70 +0.01    -0.084 Cl 
DOCKED: ENDBRANCH  13  14
DOCKED: ENDBRANCH   1  13
DOCKED: TORSDOF 5
DOCKED: TER
DOCKED: ENDMDL
________________________________________________________________________________


    FINAL DOCKED STATE:
    ________________________


Run:   14 / 20
Time taken for this run:   0.030s

DOCKED: MODEL        14
DOCKED: USER    Run = 14
DOCKED: USER
DOCKED: USER    Estimated Free Energy of Binding    =  -7.79 kcal/mol  [=(1)+(2)+(3)-(4)]
DOCKED: USER
DOCKED: USER    (1) Final Intermolecular Energy     =  -9.28 kcal/mol
DOCKED: USER        vdW + Hbond + desolv Energy     =  -9.20 kcal/mol
DOCKED: USER        Electrostatic Energy            =  -0.09 kcal/mol
DOCKED: USER        Moving Ligand-Fixed Receptor    =  -9.28 kcal/mol
DOCKED: USER        Moving Ligand-Moving Receptor   =  +0.00 kcal/mol
DOCKED: USER    (2) Final Total Internal Energy     =  -0.99 kcal/mol
DOCKED: USER    (3) Torsional Free Energy           =  +1.49 kcal/mol
DOCKED: USER    (4) Unbound System's Energy         =  -0.99 kcal/mol
DOCKED: USER
DOCKED: USER
DOCKED: REMARK SMILES O=C(NCCOc1ccc2ccc(Cl)cc2c1)c1ccccn1
DOCKED: REMARK SMILES IDX 5 1 4 2 3 3 2 4 1 5 18 7 19 8 23 9 20 10 22 11 21 12 6 13
DOCKED: REMARK SMILES IDX 7 14 8 15 17 16 9 17 16 18 10 19 15 20 11 21 13 22 12 23
DOCKED: REMARK SMILES IDX 14 24
DOCKED: REMARK H PARENT 3 6
DOCKED: USER                              x       y       z     vdW  Elec       q    Type
DOCKED: USER                           _______ _______ _______ _____ _____    ______ ____
DOCKED: ROOT
DOCKED: ATOM      1  C   UNL     1     141.241  73.405 221.209 -0.18 -0.03    +0.250 C  
DOCKED: ENDROOT
DOCKED: BRANCH   1   2
DOCKED: ATOM      2  C   UNL     1     141.068  74.762 220.519 -0.19 -0.04    +0.157 C  
DOCKED: BRANCH   2   3
DOCKED: ATOM      3  N   UNL     1     141.399  75.864 221.423 -0.15 +0.14    -0.347 N  
DOCKED: ATOM      4  C   UNL     1     141.185  77.232 221.041 -0.19 -0.13    +0.269 C  
DOCKED: ATOM      5  O   UNL     1     140.722  77.495 219.897 -0.08 +0.11    -0.268 OA 
DOCKED: ATOM      6  H   UNL     1     141.793  75.653 222.368 -0.45 -0.06    +0.164 HD 
DOCKED: BRANCH   4   7
DOCKED: ATOM      7  C   UNL     1     141.503  78.333 221.977 -0.33 -0.06    +0.128 A  
DOCKED: ATOM      8  C   UNL     1     141.836  79.614 221.502 -0.40 -0.02    +0.034 A  
DOCKED: ATOM      9  N   UNL     1     141.471  78.110 223.321 -0.32 +0.09    -0.251 NA 
DOCKED: ATOM     10  C   UNL     1     142.129  80.630 222.414 -0.55 -0.00    +0.004 A  
DOCKED: ATOM     11  C   UNL     1     141.753  79.088 224.224 -0.46 -0.03    +0.112 A  
DOCKED: ATOM     12  C   UNL     1     142.087  80.369 223.784 -0.62 -0.00    +0.020 A  
DOCKED: ENDBRANCH   4   7
DOCKED: ENDBRANCH   2   3
DOCKED: ENDBRANCH   1   2
DOCKED: BRANCH   1  13
DOCKED: ATOM     13  O   UNL     1     140.584  73.386 222.477 -0.59 -0.03    -0.492 OA 
DOCKED: BRANCH  13  14
DOCKED: ATOM     14  C   UNL     1     140.161  72.235 223.163 -0.28 -0.02    +0.120 A  
DOCKED: ATOM     15  C   UNL     1     139.153  71.458 222.580 -0.23 -0.01    +0.047 A  
DOCKED: ATOM     16  C   UNL     1     140.702  71.844 224.404 -0.32 -0.01    +0.055 A  
DOCKED: ATOM     17  C   UNL     1     138.688  70.300 223.207 -0.24 -0.00    +0.012 A  
DOCKED: ATOM     18  C   UNL     1     140.242  70.681 225.043 -0.49 +0.00    -0.013 A  
DOCKED: ATOM     19  C   UNL     1     139.227  69.902 224.438 -0.34 +0.00    -0.018 A  
DOCKED: ATOM     20  C   UNL     1     140.780  70.283 226.276 -0.55 -0.00    +0.029 A  
DOCKED: ATOM     21  C   UNL     1     138.769  68.739 225.077 -0.40 -0.00    +0.010 A  
DOCKED: ATOM     22  C   UNL     1     140.315  69.122 226.905 -0.56 -0.01    +0.041 A  
DOCKED: ATOM     23  C   UNL     1     139.312  68.353 226.306 -0.53 -0.00    +0.021 A  
DOCKED: ATOM     24  Cl  UNL     1     140.991  68.629 228.446 -0.75 +0.02    -0.084 Cl 
DOCKED: ENDBRANCH  13  14
DOCKED: ENDBRANCH   1  13
DOCKED: TORSDOF 5
DOCKED: TER
DOCKED: ENDMDL
________________________________________________________________________________


    FINAL DOCKED STATE:
    ________________________


Run:   15 / 20
Time taken for this run:   0.030s

DOCKED: MODEL        15
DOCKED: USER    Run = 15
DOCKED: USER
DOCKED: USER    Estimated Free Energy of Binding    =  -7.96 kcal/mol  [=(1)+(2)+(3)-(4)]
DOCKED: USER
DOCKED: USER    (1) Final Intermolecular Energy     =  -9.45 kcal/mol
DOCKED: USER        vdW + Hbond + desolv Energy     =  -9.34 kcal/mol
DOCKED: USER        Electrostatic Energy            =  -0.12 kcal/mol
DOCKED: USER        Moving Ligand-Fixed Receptor    =  -9.45 kcal/mol
DOCKED: USER        Moving Ligand-Moving Receptor   =  +0.00 kcal/mol
DOCKED: USER    (2) Final Total Internal Energy     =  -1.49 kcal/mol
DOCKED: USER    (3) Torsional Free Energy           =  +1.49 kcal/mol
DOCKED: USER    (4) Unbound System's Energy         =  -1.49 kcal/mol
DOCKED: USER
DOCKED: USER
DOCKED: REMARK SMILES O=C(NCCOc1ccc2ccc(Cl)cc2c1)c1ccccn1
DOCKED: REMARK SMILES IDX 5 1 4 2 3 3 2 4 1 5 18 7 19 8 23 9 20 10 22 11 21 12 6 13
DOCKED: REMARK SMILES IDX 7 14 8 15 17 16 9 17 16 18 10 19 15 20 11 21 13 22 12 23
DOCKED: REMARK SMILES IDX 14 24
DOCKED: REMARK H PARENT 3 6
DOCKED: USER                              x       y       z     vdW  Elec       q    Type
DOCKED: USER                           _______ _______ _______ _____ _____    ______ ____
DOCKED: ROOT
DOCKED: ATOM      1  C   UNL     1     139.599  73.386 221.327 -0.15 -0.05    +0.250 C  
DOCKED: ENDROOT
DOCKED: BRANCH   1   2
DOCKED: ATOM      2  C   UNL     1     139.451  72.028 222.022 -0.19 -0.03    +0.157 C  
DOCKED: BRANCH   2   3
DOCKED: ATOM      3  N   UNL     1     139.815  72.113 223.437 -0.14 +0.07    -0.347 N  
DOCKED: ATOM      4  C   UNL     1     139.920  70.935 224.252 -0.28 -0.05    +0.269 C  
DOCKED: ATOM      5  O   UNL     1     139.674  69.804 223.748 -0.16 +0.05    -0.268 OA 
DOCKED: ATOM      6  H   UNL     1     140.008  73.048 223.863 -0.27 -0.03    +0.164 HD 
DOCKED: BRANCH   4   7
DOCKED: ATOM      7  C   UNL     1     140.312  71.037 225.675 -0.47 -0.02    +0.128 A  
DOCKED: ATOM      8  C   UNL     1     139.967  70.031 226.595 -0.51 -0.01    +0.034 A  
DOCKED: ATOM      9  N   UNL     1     141.022  72.117 226.106 -0.30 +0.04    -0.251 NA 
DOCKED: ATOM     10  C   UNL     1     140.355  70.159 227.931 -0.64 -0.00    +0.004 A  
DOCKED: ATOM     11  C   UNL     1     141.409  72.258 227.402 -0.71 -0.02    +0.112 A  
DOCKED: ATOM     12  C   UNL     1     141.082  71.278 228.340 -0.69 -0.00    +0.020 A  
DOCKED: ENDBRANCH   4   7
DOCKED: ENDBRANCH   2   3
DOCKED: ENDBRANCH   1   2
DOCKED: BRANCH   1  13
DOCKED: ATOM     13  O   UNL     1     140.355  74.294 222.130 -0.70 +0.00    -0.492 OA 
DOCKED: BRANCH  13  14
DOCKED: ATOM     14  C   UNL     1     140.716  75.602 221.767 -0.31 -0.03    +0.120 A  
DOCKED: ATOM     15  C   UNL     1     140.818  75.900 220.403 -0.20 -0.02    +0.047 A  
DOCKED: ATOM     16  C   UNL     1     140.983  76.611 222.714 -0.23 -0.02    +0.055 A  
DOCKED: ATOM     17  C   UNL     1     141.169  77.181 219.974 -0.22 -0.01    +0.012 A  
DOCKED: ATOM     18  C   UNL     1     141.336  77.903 222.293 -0.39 +0.01    -0.013 A  
DOCKED: ATOM     19  C   UNL     1     141.429  78.191 220.911 -0.32 +0.01    -0.018 A  
DOCKED: ATOM     20  C   UNL     1     141.598  78.914 223.231 -0.56 -0.01    +0.029 A  
DOCKED: ATOM     21  C   UNL     1     141.781  79.483 220.491 -0.31 -0.01    +0.010 A  
DOCKED: ATOM     22  C   UNL     1     141.949  80.198 222.801 -0.55 -0.01    +0.041 A  
DOCKED: ATOM     23  C   UNL     1     142.040  80.481 221.435 -0.41 -0.01    +0.021 A  
DOCKED: ATOM     24  Cl  UNL     1     142.275  81.457 223.978 -0.61 +0.01    -0.084 Cl 
DOCKED: ENDBRANCH  13  14
DOCKED: ENDBRANCH   1  13
DOCKED: TORSDOF 5
DOCKED: TER
DOCKED: ENDMDL
________________________________________________________________________________


    FINAL DOCKED STATE:
    ________________________


Run:   16 / 20
Time taken for this run:   0.030s

DOCKED: MODEL        16
DOCKED: USER    Run = 16
DOCKED: USER
DOCKED: USER    Estimated Free Energy of Binding    =  -7.98 kcal/mol  [=(1)+(2)+(3)-(4)]
DOCKED: USER
DOCKED: USER    (1) Final Intermolecular Energy     =  -9.47 kcal/mol
DOCKED: USER        vdW + Hbond + desolv Energy     =  -9.40 kcal/mol
DOCKED: USER        Electrostatic Energy            =  -0.07 kcal/mol
DOCKED: USER        Moving Ligand-Fixed Receptor    =  -9.47 kcal/mol
DOCKED: USER        Moving Ligand-Moving Receptor   =  +0.00 kcal/mol
DOCKED: USER    (2) Final Total Internal Energy     =  -1.54 kcal/mol
DOCKED: USER    (3) Torsional Free Energy           =  +1.49 kcal/mol
DOCKED: USER    (4) Unbound System's Energy         =  -1.54 kcal/mol
DOCKED: USER
DOCKED: USER
DOCKED: REMARK SMILES O=C(NCCOc1ccc2ccc(Cl)cc2c1)c1ccccn1
DOCKED: REMARK SMILES IDX 5 1 4 2 3 3 2 4 1 5 18 7 19 8 23 9 20 10 22 11 21 12 6 13
DOCKED: REMARK SMILES IDX 7 14 8 15 17 16 9 17 16 18 10 19 15 20 11 21 13 22 12 23
DOCKED: REMARK SMILES IDX 14 24
DOCKED: REMARK H PARENT 3 6
DOCKED: USER                              x       y       z     vdW  Elec       q    Type
DOCKED: USER                           _______ _______ _______ _____ _____    ______ ____
DOCKED: ROOT
DOCKED: ATOM      1  C   UNL     1     139.380  73.312 221.328 -0.14 -0.05    +0.250 C  
DOCKED: ENDROOT
DOCKED: BRANCH   1   2
DOCKED: ATOM      2  C   UNL     1     139.316  71.956 222.039 -0.18 -0.03    +0.157 C  
DOCKED: BRANCH   2   3
DOCKED: ATOM      3  N   UNL     1     139.735  72.069 223.437 -0.14 +0.08    -0.347 N  
DOCKED: ATOM      4  C   UNL     1     139.803  70.916 224.290 -0.27 -0.05    +0.269 C  
DOCKED: ATOM      5  O   UNL     1     139.477  69.784 223.837 -0.17 +0.05    -0.268 OA 
DOCKED: ATOM      6  H   UNL     1     139.996  73.006 223.822 -0.28 -0.03    +0.164 HD 
DOCKED: BRANCH   4   7
DOCKED: ATOM      7  C   UNL     1     140.252  71.044 225.694 -0.46 -0.02    +0.128 A  
DOCKED: ATOM      8  C   UNL     1     139.930  70.063 226.650 -0.51 -0.01    +0.034 A  
DOCKED: ATOM      9  N   UNL     1     140.991  72.124 226.073 -0.28 +0.04    -0.251 NA 
DOCKED: ATOM     10  C   UNL     1     140.371  70.216 227.966 -0.64 -0.00    +0.004 A  
DOCKED: ATOM     11  C   UNL     1     141.429  72.289 227.350 -0.70 -0.02    +0.112 A  
DOCKED: ATOM     12  C   UNL     1     141.127  71.334 228.321 -0.69 -0.00    +0.020 A  
DOCKED: ENDBRANCH   4   7
DOCKED: ENDBRANCH   2   3
DOCKED: ENDBRANCH   1   2
DOCKED: BRANCH   1  13
DOCKED: ATOM     13  O   UNL     1     140.252  74.212 222.015 -0.72 +0.03    -0.492 OA 
DOCKED: BRANCH  13  14
DOCKED: ATOM     14  C   UNL     1     139.974  75.557 222.308 -0.19 -0.02    +0.120 A  
DOCKED: ATOM     15  C   UNL     1     138.636  75.969 222.289 -0.29 -0.01    +0.047 A  
DOCKED: ATOM     16  C   UNL     1     140.980  76.497 222.610 -0.22 -0.02    +0.055 A  
DOCKED: ATOM     17  C   UNL     1     138.290  77.292 222.575 -0.29 -0.00    +0.012 A  
DOCKED: ATOM     18  C   UNL     1     140.642  77.829 222.898 -0.37 +0.00    -0.013 A  
DOCKED: ATOM     19  C   UNL     1     139.285  78.230 222.881 -0.30 +0.00    -0.018 A  
DOCKED: ATOM     20  C   UNL     1     141.639  78.769 223.204 -0.56 -0.01    +0.029 A  
DOCKED: ATOM     21  C   UNL     1     138.949  79.561 223.171 -0.34 -0.00    +0.010 A  
DOCKED: ATOM     22  C   UNL     1     141.293  80.094 223.490 -0.52 -0.01    +0.041 A  
DOCKED: ATOM     23  C   UNL     1     139.951  80.488 223.473 -0.43 -0.00    +0.021 A  
DOCKED: ATOM     24  Cl  UNL     1     142.543  81.263 223.872 -0.70 +0.01    -0.084 Cl 
DOCKED: ENDBRANCH  13  14
DOCKED: ENDBRANCH   1  13
DOCKED: TORSDOF 5
DOCKED: TER
DOCKED: ENDMDL
________________________________________________________________________________


    FINAL DOCKED STATE:
    ________________________


Run:   17 / 20
Time taken for this run:   0.030s

DOCKED: MODEL        17
DOCKED: USER    Run = 17
DOCKED: USER
DOCKED: USER    Estimated Free Energy of Binding    =  -8.00 kcal/mol  [=(1)+(2)+(3)-(4)]
DOCKED: USER
DOCKED: USER    (1) Final Intermolecular Energy     =  -9.49 kcal/mol
DOCKED: USER        vdW + Hbond + desolv Energy     =  -9.43 kcal/mol
DOCKED: USER        Electrostatic Energy            =  -0.06 kcal/mol
DOCKED: USER        Moving Ligand-Fixed Receptor    =  -9.49 kcal/mol
DOCKED: USER        Moving Ligand-Moving Receptor   =  +0.00 kcal/mol
DOCKED: USER    (2) Final Total Internal Energy     =  -1.53 kcal/mol
DOCKED: USER    (3) Torsional Free Energy           =  +1.49 kcal/mol
DOCKED: USER    (4) Unbound System's Energy         =  -1.53 kcal/mol
DOCKED: USER
DOCKED: USER
DOCKED: REMARK SMILES O=C(NCCOc1ccc2ccc(Cl)cc2c1)c1ccccn1
DOCKED: REMARK SMILES IDX 5 1 4 2 3 3 2 4 1 5 18 7 19 8 23 9 20 10 22 11 21 12 6 13
DOCKED: REMARK SMILES IDX 7 14 8 15 17 16 9 17 16 18 10 19 15 20 11 21 13 22 12 23
DOCKED: REMARK SMILES IDX 14 24
DOCKED: REMARK H PARENT 3 6
DOCKED: USER                              x       y       z     vdW  Elec       q    Type
DOCKED: USER                           _______ _______ _______ _____ _____    ______ ____
DOCKED: ROOT
DOCKED: ATOM      1  C   UNL     1     139.304  73.305 221.350 -0.14 -0.05    +0.250 C  
DOCKED: ENDROOT
DOCKED: BRANCH   1   2
DOCKED: ATOM      2  C   UNL     1     139.305  71.939 222.043 -0.18 -0.03    +0.157 C  
DOCKED: BRANCH   2   3
DOCKED: ATOM      3  N   UNL     1     139.733  72.051 223.438 -0.14 +0.08    -0.347 N  
DOCKED: ATOM      4  C   UNL     1     139.779  70.902 224.298 -0.27 -0.05    +0.269 C  
DOCKED: ATOM      5  O   UNL     1     139.424  69.775 223.854 -0.17 +0.05    -0.268 OA 
DOCKED: ATOM      6  H   UNL     1     140.019  72.983 223.815 -0.27 -0.03    +0.164 HD 
DOCKED: BRANCH   4   7
DOCKED: ATOM      7  C   UNL     1     140.239  71.028 225.699 -0.46 -0.02    +0.128 A  
DOCKED: ATOM      8  C   UNL     1     139.929  70.043 226.654 -0.51 -0.01    +0.034 A  
DOCKED: ATOM      9  N   UNL     1     140.976  72.110 226.075 -0.28 +0.04    -0.251 NA 
DOCKED: ATOM     10  C   UNL     1     140.381  70.194 227.967 -0.64 -0.00    +0.004 A  
DOCKED: ATOM     11  C   UNL     1     141.424  72.274 227.349 -0.71 -0.02    +0.112 A  
DOCKED: ATOM     12  C   UNL     1     141.134  71.315 228.319 -0.69 -0.00    +0.020 A  
DOCKED: ENDBRANCH   4   7
DOCKED: ENDBRANCH   2   3
DOCKED: ENDBRANCH   1   2
DOCKED: BRANCH   1  13
DOCKED: ATOM     13  O   UNL     1     140.203  74.209 221.995 -0.73 +0.03    -0.492 OA 
DOCKED: BRANCH  13  14
DOCKED: ATOM     14  C   UNL     1     139.941  75.558 222.284 -0.20 -0.02    +0.120 A  
DOCKED: ATOM     15  C   UNL     1     138.609  75.986 222.261 -0.29 -0.01    +0.047 A  
DOCKED: ATOM     16  C   UNL     1     140.958  76.486 222.586 -0.23 -0.02    +0.055 A  
DOCKED: ATOM     17  C   UNL     1     138.278  77.314 222.543 -0.28 -0.00    +0.012 A  
DOCKED: ATOM     18  C   UNL     1     140.636  77.823 222.870 -0.38 +0.00    -0.013 A  
DOCKED: ATOM     19  C   UNL     1     139.284  78.240 222.849 -0.31 +0.00    -0.018 A  
DOCKED: ATOM     20  C   UNL     1     141.644  78.751 223.176 -0.55 -0.01    +0.029 A  
DOCKED: ATOM     21  C   UNL     1     138.963  79.576 223.135 -0.34 -0.00    +0.010 A  
DOCKED: ATOM     22  C   UNL     1     141.313  80.081 223.458 -0.52 -0.01    +0.041 A  
DOCKED: ATOM     23  C   UNL     1     139.976  80.491 223.437 -0.42 -0.00    +0.021 A  
DOCKED: ATOM     24  Cl  UNL     1     142.576  81.236 223.840 -0.70 +0.01    -0.084 Cl 
DOCKED: ENDBRANCH  13  14
DOCKED: ENDBRANCH   1  13
DOCKED: TORSDOF 5
DOCKED: TER
DOCKED: ENDMDL
________________________________________________________________________________


    FINAL DOCKED STATE:
    ________________________


Run:   18 / 20
Time taken for this run:   0.030s

DOCKED: MODEL        18
DOCKED: USER    Run = 18
DOCKED: USER
DOCKED: USER    Estimated Free Energy of Binding    =  -7.88 kcal/mol  [=(1)+(2)+(3)-(4)]
DOCKED: USER
DOCKED: USER    (1) Final Intermolecular Energy     =  -9.37 kcal/mol
DOCKED: USER        vdW + Hbond + desolv Energy     =  -9.30 kcal/mol
DOCKED: USER        Electrostatic Energy            =  -0.06 kcal/mol
DOCKED: USER        Moving Ligand-Fixed Receptor    =  -9.37 kcal/mol
DOCKED: USER        Moving Ligand-Moving Receptor   =  +0.00 kcal/mol
DOCKED: USER    (2) Final Total Internal Energy     =  -1.56 kcal/mol
DOCKED: USER    (3) Torsional Free Energy           =  +1.49 kcal/mol
DOCKED: USER    (4) Unbound System's Energy         =  -1.56 kcal/mol
DOCKED: USER
DOCKED: USER
DOCKED: REMARK SMILES O=C(NCCOc1ccc2ccc(Cl)cc2c1)c1ccccn1
DOCKED: REMARK SMILES IDX 5 1 4 2 3 3 2 4 1 5 18 7 19 8 23 9 20 10 22 11 21 12 6 13
DOCKED: REMARK SMILES IDX 7 14 8 15 17 16 9 17 16 18 10 19 15 20 11 21 13 22 12 23
DOCKED: REMARK SMILES IDX 14 24
DOCKED: REMARK H PARENT 3 6
DOCKED: USER                              x       y       z     vdW  Elec       q    Type
DOCKED: USER                           _______ _______ _______ _____ _____    ______ ____
DOCKED: ROOT
DOCKED: ATOM      1  C   UNL     1     139.435  73.355 221.352 -0.15 -0.05    +0.250 C  
DOCKED: ENDROOT
DOCKED: BRANCH   1   2
DOCKED: ATOM      2  C   UNL     1     139.521  71.971 222.005 -0.20 -0.03    +0.157 C  
DOCKED: BRANCH   2   3
DOCKED: ATOM      3  N   UNL     1     139.924  72.070 223.408 -0.18 +0.07    -0.347 N  
DOCKED: ATOM      4  C   UNL     1     139.869  70.931 224.281 -0.28 -0.05    +0.269 C  
DOCKED: ATOM      5  O   UNL     1     139.446  69.827 223.841 -0.17 +0.05    -0.268 OA 
DOCKED: ATOM      6  H   UNL     1     140.266  72.984 223.782 -0.17 -0.00    +0.164 HD 
DOCKED: BRANCH   4   7
DOCKED: ATOM      7  C   UNL     1     140.304  71.041 225.691 -0.47 -0.02    +0.128 A  
DOCKED: ATOM      8  C   UNL     1     140.004  70.032 226.623 -0.51 -0.01    +0.034 A  
DOCKED: ATOM      9  N   UNL     1     141.009  72.134 226.099 -0.29 +0.04    -0.251 NA 
DOCKED: ATOM     10  C   UNL     1     140.432  70.169 227.946 -0.64 -0.00    +0.004 A  
DOCKED: ATOM     11  C   UNL     1     141.434  72.284 227.382 -0.70 -0.02    +0.112 A  
DOCKED: ATOM     12  C   UNL     1     141.152  71.300 228.330 -0.68 -0.00    +0.020 A  
DOCKED: ENDBRANCH   4   7
DOCKED: ENDBRANCH   2   3
DOCKED: ENDBRANCH   1   2
DOCKED: BRANCH   1  13
DOCKED: ATOM     13  O   UNL     1     140.254  74.300 222.043 -0.71 +0.02    -0.492 OA 
DOCKED: BRANCH  13  14
DOCKED: ATOM     14  C   UNL     1     139.913  75.636 222.313 -0.23 -0.02    +0.120 A  
DOCKED: ATOM     15  C   UNL     1     138.558  75.987 222.276 -0.29 -0.01    +0.047 A  
DOCKED: ATOM     16  C   UNL     1     140.872  76.625 222.609 -0.28 -0.02    +0.055 A  
DOCKED: ATOM     17  C   UNL     1     138.150  77.297 222.537 -0.28 -0.00    +0.012 A  
DOCKED: ATOM     18  C   UNL     1     140.472  77.945 222.874 -0.36 +0.00    -0.013 A  
DOCKED: ATOM     19  C   UNL     1     139.099  78.283 222.839 -0.30 +0.00    -0.018 A  
DOCKED: ATOM     20  C   UNL     1     141.423  78.932 223.174 -0.54 -0.01    +0.029 A  
DOCKED: ATOM     21  C   UNL     1     138.701  79.602 223.105 -0.32 -0.00    +0.010 A  
DOCKED: ATOM     22  C   UNL     1     141.015  80.245 223.438 -0.49 -0.01    +0.041 A  
DOCKED: ATOM     23  C   UNL     1     139.657  80.577 223.402 -0.40 -0.00    +0.021 A  
DOCKED: ATOM     24  Cl  UNL     1     142.207  81.475 223.813 -0.65 +0.01    -0.084 Cl 
DOCKED: ENDBRANCH  13  14
DOCKED: ENDBRANCH   1  13
DOCKED: TORSDOF 5
DOCKED: TER
DOCKED: ENDMDL
________________________________________________________________________________


    FINAL DOCKED STATE:
    ________________________


Run:   19 / 20
Time taken for this run:   0.030s

DOCKED: MODEL        19
DOCKED: USER    Run = 19
DOCKED: USER
DOCKED: USER    Estimated Free Energy of Binding    =  -7.99 kcal/mol  [=(1)+(2)+(3)-(4)]
DOCKED: USER
DOCKED: USER    (1) Final Intermolecular Energy     =  -9.48 kcal/mol
DOCKED: USER        vdW + Hbond + desolv Energy     =  -9.37 kcal/mol
DOCKED: USER        Electrostatic Energy            =  -0.11 kcal/mol
DOCKED: USER        Moving Ligand-Fixed Receptor    =  -9.48 kcal/mol
DOCKED: USER        Moving Ligand-Moving Receptor   =  +0.00 kcal/mol
DOCKED: USER    (2) Final Total Internal Energy     =  -1.50 kcal/mol
DOCKED: USER    (3) Torsional Free Energy           =  +1.49 kcal/mol
DOCKED: USER    (4) Unbound System's Energy         =  -1.50 kcal/mol
DOCKED: USER
DOCKED: USER
DOCKED: REMARK SMILES O=C(NCCOc1ccc2ccc(Cl)cc2c1)c1ccccn1
DOCKED: REMARK SMILES IDX 5 1 4 2 3 3 2 4 1 5 18 7 19 8 23 9 20 10 22 11 21 12 6 13
DOCKED: REMARK SMILES IDX 7 14 8 15 17 16 9 17 16 18 10 19 15 20 11 21 13 22 12 23
DOCKED: REMARK SMILES IDX 14 24
DOCKED: REMARK H PARENT 3 6
DOCKED: USER                              x       y       z     vdW  Elec       q    Type
DOCKED: USER                           _______ _______ _______ _____ _____    ______ ____
DOCKED: ROOT
DOCKED: ATOM      1  C   UNL     1     139.813  73.224 221.240 -0.15 -0.04    +0.250 C  
DOCKED: ENDROOT
DOCKED: BRANCH   1   2
DOCKED: ATOM      2  C   UNL     1     139.479  71.938 222.004 -0.19 -0.03    +0.157 C  
DOCKED: BRANCH   2   3
DOCKED: ATOM      3  N   UNL     1     139.828  72.056 223.421 -0.16 +0.07    -0.347 N  
DOCKED: ATOM      4  C   UNL     1     139.973  70.893 224.252 -0.27 -0.05    +0.269 C  
DOCKED: ATOM      5  O   UNL     1     139.775  69.747 223.762 -0.15 +0.05    -0.268 OA 
DOCKED: ATOM      6  H   UNL     1     139.983  73.003 223.835 -0.29 -0.03    +0.164 HD 
DOCKED: BRANCH   4   7
DOCKED: ATOM      7  C   UNL     1     140.351  71.028 225.676 -0.47 -0.02    +0.128 A  
DOCKED: ATOM      8  C   UNL     1     139.984  70.051 226.618 -0.51 -0.01    +0.034 A  
DOCKED: ATOM      9  N   UNL     1     141.068  72.112 226.086 -0.31 +0.04    -0.251 NA 
DOCKED: ATOM     10  C   UNL     1     140.359  70.211 227.955 -0.64 -0.00    +0.004 A  
DOCKED: ATOM     11  C   UNL     1     141.442  72.284 227.383 -0.70 -0.02    +0.112 A  
DOCKED: ATOM     12  C   UNL     1     141.093  71.332 228.342 -0.70 -0.00    +0.020 A  
DOCKED: ENDBRANCH   4   7
DOCKED: ENDBRANCH   2   3
DOCKED: ENDBRANCH   1   2
DOCKED: BRANCH   1  13
DOCKED: ATOM     13  O   UNL     1     140.297  74.236 222.125 -0.72 +0.01    -0.492 OA 
DOCKED: BRANCH  13  14
DOCKED: ATOM     14  C   UNL     1     140.676  75.536 221.753 -0.30 -0.03    +0.120 A  
DOCKED: ATOM     15  C   UNL     1     140.805  75.815 220.387 -0.20 -0.02    +0.047 A  
DOCKED: ATOM     16  C   UNL     1     140.933  76.555 222.691 -0.22 -0.02    +0.055 A  
DOCKED: ATOM     17  C   UNL     1     141.175  77.088 219.948 -0.22 -0.01    +0.012 A  
DOCKED: ATOM     18  C   UNL     1     141.306  77.839 222.260 -0.38 +0.01    -0.013 A  
DOCKED: ATOM     19  C   UNL     1     141.427  78.108 220.876 -0.32 +0.01    -0.018 A  
DOCKED: ATOM     20  C   UNL     1     141.559  78.859 223.190 -0.55 -0.01    +0.029 A  
DOCKED: ATOM     21  C   UNL     1     141.797  79.391 220.447 -0.31 -0.01    +0.010 A  
DOCKED: ATOM     22  C   UNL     1     141.929  80.135 222.751 -0.54 -0.01    +0.041 A  
DOCKED: ATOM     23  C   UNL     1     142.048  80.399 221.383 -0.40 -0.01    +0.021 A  
DOCKED: ATOM     24  Cl  UNL     1     142.243  81.406 223.918 -0.66 +0.01    -0.084 Cl 
DOCKED: ENDBRANCH  13  14
DOCKED: ENDBRANCH   1  13
DOCKED: TORSDOF 5
DOCKED: TER
DOCKED: ENDMDL
________________________________________________________________________________


    FINAL DOCKED STATE:
    ________________________


Run:   20 / 20
Time taken for this run:   0.030s

DOCKED: MODEL        20
DOCKED: USER    Run = 20
DOCKED: USER
DOCKED: USER    Estimated Free Energy of Binding    =  -7.93 kcal/mol  [=(1)+(2)+(3)-(4)]
DOCKED: USER
DOCKED: USER    (1) Final Intermolecular Energy     =  -9.42 kcal/mol
DOCKED: USER        vdW + Hbond + desolv Energy     =  -9.35 kcal/mol
DOCKED: USER        Electrostatic Energy            =  -0.07 kcal/mol
DOCKED: USER        Moving Ligand-Fixed Receptor    =  -9.42 kcal/mol
DOCKED: USER        Moving Ligand-Moving Receptor   =  +0.00 kcal/mol
DOCKED: USER    (2) Final Total Internal Energy     =  -1.57 kcal/mol
DOCKED: USER    (3) Torsional Free Energy           =  +1.49 kcal/mol
DOCKED: USER    (4) Unbound System's Energy         =  -1.57 kcal/mol
DOCKED: USER
DOCKED: USER
DOCKED: REMARK SMILES O=C(NCCOc1ccc2ccc(Cl)cc2c1)c1ccccn1
DOCKED: REMARK SMILES IDX 5 1 4 2 3 3 2 4 1 5 18 7 19 8 23 9 20 10 22 11 21 12 6 13
DOCKED: REMARK SMILES IDX 7 14 8 15 17 16 9 17 16 18 10 19 15 20 11 21 13 22 12 23
DOCKED: REMARK SMILES IDX 14 24
DOCKED: REMARK H PARENT 3 6
DOCKED: USER                              x       y       z     vdW  Elec       q    Type
DOCKED: USER                           _______ _______ _______ _____ _____    ______ ____
DOCKED: ROOT
DOCKED: ATOM      1  C   UNL     1     139.506  73.270 221.234 -0.14 -0.05    +0.250 C  
DOCKED: ENDROOT
DOCKED: BRANCH   1   2
DOCKED: ATOM      2  C   UNL     1     139.292  71.959 221.998 -0.18 -0.03    +0.157 C  
DOCKED: BRANCH   2   3
DOCKED: ATOM      3  N   UNL     1     139.718  72.081 223.393 -0.14 +0.08    -0.347 N  
DOCKED: ATOM      4  C   UNL     1     139.811  70.930 224.247 -0.27 -0.05    +0.269 C  
DOCKED: ATOM      5  O   UNL     1     139.501  69.793 223.798 -0.17 +0.05    -0.268 OA 
DOCKED: ATOM      6  H   UNL     1     139.966  73.022 223.775 -0.30 -0.03    +0.164 HD 
DOCKED: BRANCH   4   7
DOCKED: ATOM      7  C   UNL     1     140.267  71.068 225.648 -0.46 -0.02    +0.128 A  
DOCKED: ATOM      8  C   UNL     1     139.952  70.093 226.612 -0.51 -0.01    +0.034 A  
DOCKED: ATOM      9  N   UNL     1     141.007  72.151 226.016 -0.25 +0.04    -0.251 NA 
DOCKED: ATOM     10  C   UNL     1     140.400  70.255 227.925 -0.64 -0.00    +0.004 A  
DOCKED: ATOM     11  C   UNL     1     141.452  72.325 227.290 -0.69 -0.02    +0.112 A  
DOCKED: ATOM     12  C   UNL     1     141.156  71.376 228.269 -0.70 -0.00    +0.020 A  
DOCKED: ENDBRANCH   4   7
DOCKED: ENDBRANCH   2   3
DOCKED: ENDBRANCH   1   2
DOCKED: BRANCH   1  13
DOCKED: ATOM     13  O   UNL     1     140.333  74.168 221.977 -0.73 +0.03    -0.492 OA 
DOCKED: BRANCH  13  14
DOCKED: ATOM     14  C   UNL     1     140.035  75.511 222.260 -0.16 -0.02    +0.120 A  
DOCKED: ATOM     15  C   UNL     1     138.693  75.909 222.211 -0.28 -0.01    +0.047 A  
DOCKED: ATOM     16  C   UNL     1     141.024  76.462 222.578 -0.22 -0.02    +0.055 A  
DOCKED: ATOM     17  C   UNL     1     138.328  77.229 222.484 -0.28 -0.00    +0.012 A  
DOCKED: ATOM     18  C   UNL     1     140.667  77.792 222.855 -0.38 +0.00    -0.013 A  
DOCKED: ATOM     19  C   UNL     1     139.307  78.178 222.808 -0.31 +0.00    -0.018 A  
DOCKED: ATOM     20  C   UNL     1     141.648  78.743 223.178 -0.55 -0.01    +0.029 A  
DOCKED: ATOM     21  C   UNL     1     138.951  79.507 223.086 -0.34 -0.00    +0.010 A  
DOCKED: ATOM     22  C   UNL     1     141.282  80.065 223.453 -0.52 -0.01    +0.041 A  
DOCKED: ATOM     23  C   UNL     1     139.937  80.445 223.406 -0.42 -0.00    +0.021 A  
DOCKED: ATOM     24  Cl  UNL     1     142.512  81.249 223.856 -0.71 +0.01    -0.084 Cl 
DOCKED: ENDBRANCH  13  14
DOCKED: ENDBRANCH   1  13
DOCKED: TORSDOF 5
DOCKED: TER
DOCKED: ENDMDL
________________________________________________________________________________


    CLUSTERING HISTOGRAM
    ____________________


________________________________________________________________________________
     |           |     |           |     |
Clus | Lowest    | Run | Mean      | Num | Histogram
-ter | Binding   |     | Binding   | in  |
Rank | Energy    |     | Energy    | Clus|    5    10   15   20   25   30   35
_____|___________|_____|___________|_____|____:____|____:____|____:____|____:___
   1 |     -8.02 |  10 |     -7.96 |  18 |##################
   2 |     -7.98 |   8 |     -7.89 |   2 |##
_____|___________|_____|___________|_____|______________________________________


    RMSD TABLE
    __________


_______________________________________________________________________
     |      |      |           |         |                 |
Rank | Sub- | Run  | Binding   | Cluster | Reference       | Grep
     | Rank |      | Energy    | RMSD    | RMSD            | Pattern
_____|______|______|___________|_________|_________________|___________
   1      1     10       -8.02      0.00    270.46           RANKING
   1      2      5       -8.01      1.17    270.34           RANKING
   1      3     17       -8.00      0.06    270.44           RANKING
   1      4      9       -8.00      1.17    270.34           RANKING
   1      5     12       -8.00      0.05    270.46           RANKING
   1      6      7       -7.99      0.04    270.44           RANKING
   1      7      2       -7.99      1.16    270.32           RANKING
   1      8     19       -7.99      1.18    270.33           RANKING
   1      9     16       -7.98      0.08    270.46           RANKING
   1     10      4       -7.97      0.08    270.41           RANKING
   1     11      6       -7.96      0.08    270.41           RANKING
   1     12     15       -7.96      1.17    270.36           RANKING
   1     13      3       -7.94      1.21    270.34           RANKING
   1     14      1       -7.93      1.15    270.28           RANKING
   1     15     20       -7.93      0.14    270.42           RANKING
   1     16     13       -7.91      0.12    270.44           RANKING
   1     17     18       -7.88      0.19    270.43           RANKING
   1     18     11       -7.82      1.20    270.29           RANKING
   2      1      8       -7.98      0.00    270.18           RANKING
   2      2     14       -7.79      1.02    270.07           RANKING

Run time 0.561 sec
Idle time 0.000 sec
