AutoDock-GPU version: v1.6

**********************************************************
**    AutoDock-GPU AUTODOCKTOOLS-COMPATIBLE DLG FILE    **
**********************************************************


    DOCKING PARAMETERS
    ________________________


Ligand file:                               /home/a/REINVENT4/ReinventStudies/pleaseWork/DH_paper_finaltest_rnv_als_qed_tani/graph-dock/graph-DockGPU/node-autodockgpu/inputs/WRBPVZICHJPYKP-YLHJWNBTNA-N.pdbqt
Grid fld file:                             /home/a/REINVENT4/ReinventStudies/mols/Rad51/maps/rad51_receptor.maps.fld

Random seed:                               42
Number of runs:                            20
Number of energy evaluations:              1259779
Number of generations:                     42000
Size of population:                        150
Rate of crossover:                         80.000000%
Tournament selection probability limit:    60.000000%
Rate of mutation:                          2.000000%
Maximal allowed delta movement:            +/- 6.000000A
Maximal allowed delta angle:               +/- 90.000000

Rate of local search:                      100.000000%
Maximal number of local search iterations: 300
Rho lower bound:                           0.010000
Spread of local search delta movement:     2.000000A
Spread of local search delta angle:        74.999999
Limit of consecutive successes/failures:   4

Handle symmetry during clustering:         YES
RMSD tolerance:                            2.000000A

Program call in command line was:          /home/a/REINVENT4/ReinventStudies/adgpu-v1.6_linux_x64_cuda12_128wi --filelist batch.txt --heuristics 1 --nrun 20 --psize 150 --lsit 300 --seed 42 --heurmax 12000000 


    GRID PARAMETERS
    ________________________


Receptor name:                             rad51_receptor
Number of grid points (x, y, z):           53, 53, 53
Grid center (x, y, z):                     139.950000, 75.640000, 221.970000A
Grid size (x, y, z):                       19.500000, 19.500000, 19.500000A
Grid spacing:                              0.375000A


    LIGAND PARAMETERS
    ________________________


Ligand name:                               /home/a/REINVENT4/ReinventStudies/pleaseWork/DH_paper_finaltest_rnv_als_qed_tani/graph-dock/graph-DockGPU/node-autodockgpu/inputs/WRBPVZICHJPYKP-YLHJWNBTNA-N
Number of atoms:                           24
Number of rotatable bonds:                 7
Number of atom types:                      6


    DUMMY DATA (only for ADT-compatibility)
    ________________________


DPF> outlev 1
DPF> ga_run 20
DPF> fld /home/a/REINVENT4/ReinventStudies/mols/Rad51/maps/rad51_receptor.maps.fld
DPF> move /home/a/REINVENT4/ReinventStudies/pleaseWork/DH_paper_finaltest_rnv_als_qed_tani/graph-dock/graph-DockGPU/node-autodockgpu/inputs/WRBPVZICHJPYKP-YLHJWNBTNA-N.pdbqt


    COUNTER STATES
    ________________________


Number of energy evaluations performed:    1001985
Number of generations used:                50


    INPUT LIGAND PDBQT FILE:
    ________________________


INPUT-LIGAND-PDBQT: REMARK SMILES O/C(=N\CCOc1ccc2ccc(Cl)cc2c1)c1ccccn1
INPUT-LIGAND-PDBQT: REMARK SMILES IDX 4 1 3 2 2 3 1 4 18 6 23 7 19 8 22 9 20 10 21 11 5 12 6 13
INPUT-LIGAND-PDBQT: REMARK SMILES IDX 7 14 8 15 17 16 9 17 16 18 10 19 15 20 11 21 13 22 12 23
INPUT-LIGAND-PDBQT: REMARK SMILES IDX 14 24
INPUT-LIGAND-PDBQT: REMARK H PARENT 1 5
INPUT-LIGAND-PDBQT: ROOT
INPUT-LIGAND-PDBQT: ATOM      1  C   UNL     1       0.019  -0.194  -3.649  1.00  0.00     0.188 C 
INPUT-LIGAND-PDBQT: ENDROOT
INPUT-LIGAND-PDBQT: BRANCH   1   2
INPUT-LIGAND-PDBQT: ATOM      2  N   UNL     1       0.933  -0.318  -2.517  1.00  0.00    -0.246 NA
INPUT-LIGAND-PDBQT: BRANCH   2   3
INPUT-LIGAND-PDBQT: ATOM      3  C   UNL     1       1.219  -1.441  -1.918  1.00  0.00     0.232 C 
INPUT-LIGAND-PDBQT: BRANCH   3   4
INPUT-LIGAND-PDBQT: ATOM      4  O   UNL     1       0.691  -2.661  -2.359  1.00  0.00    -0.492 OA
INPUT-LIGAND-PDBQT: ATOM      5  H   UNL     1       0.111  -2.750  -3.182  1.00  0.00     0.295 HD
INPUT-LIGAND-PDBQT: ENDBRANCH   3   4
INPUT-LIGAND-PDBQT: BRANCH   3   6
INPUT-LIGAND-PDBQT: ATOM      6  C   UNL     1       2.098  -1.453  -0.730  1.00  0.00     0.124 A 
INPUT-LIGAND-PDBQT: ATOM      7  N   UNL     1       2.269  -2.623  -0.050  1.00  0.00    -0.251 NA
INPUT-LIGAND-PDBQT: ATOM      8  C   UNL     1       2.749  -0.291  -0.274  1.00  0.00     0.034 A 
INPUT-LIGAND-PDBQT: ATOM      9  C   UNL     1       3.054  -2.708   1.057  1.00  0.00     0.112 A 
INPUT-LIGAND-PDBQT: ATOM     10  C   UNL     1       3.565  -0.361   0.859  1.00  0.00     0.004 A 
INPUT-LIGAND-PDBQT: ATOM     11  C   UNL     1       3.720  -1.575   1.531  1.00  0.00     0.020 A 
INPUT-LIGAND-PDBQT: ENDBRANCH   3   6
INPUT-LIGAND-PDBQT: ENDBRANCH   2   3
INPUT-LIGAND-PDBQT: ENDBRANCH   1   2
INPUT-LIGAND-PDBQT: BRANCH   1  12
INPUT-LIGAND-PDBQT: ATOM     12  C   UNL     1      -0.196   1.280  -4.021  1.00  0.00     0.253 C 
INPUT-LIGAND-PDBQT: BRANCH  12  13
INPUT-LIGAND-PDBQT: ATOM     13  O   UNL     1      -0.060   2.151  -2.898  1.00  0.00    -0.492 OA
INPUT-LIGAND-PDBQT: BRANCH  13  14
INPUT-LIGAND-PDBQT: ATOM     14  C   UNL     1      -0.910   2.194  -1.783  1.00  0.00     0.120 A 
INPUT-LIGAND-PDBQT: ATOM     15  C   UNL     1      -0.515   2.970  -0.686  1.00  0.00     0.047 A 
INPUT-LIGAND-PDBQT: ATOM     16  C   UNL     1      -2.122   1.482  -1.722  1.00  0.00     0.055 A 
INPUT-LIGAND-PDBQT: ATOM     17  C   UNL     1      -1.290   3.015   0.476  1.00  0.00     0.012 A 
INPUT-LIGAND-PDBQT: ATOM     18  C   UNL     1      -2.894   1.494  -0.547  1.00  0.00    -0.013 A 
INPUT-LIGAND-PDBQT: ATOM     19  C   UNL     1      -2.470   2.261   0.565  1.00  0.00    -0.018 A 
INPUT-LIGAND-PDBQT: ATOM     20  C   UNL     1      -4.079   0.744  -0.461  1.00  0.00     0.029 A 
INPUT-LIGAND-PDBQT: ATOM     21  C   UNL     1      -3.235   2.263   1.742  1.00  0.00     0.010 A 
INPUT-LIGAND-PDBQT: ATOM     22  C   UNL     1      -4.833   0.755   0.717  1.00  0.00     0.041 A 
INPUT-LIGAND-PDBQT: ATOM     23  C   UNL     1      -4.412   1.513   1.814  1.00  0.00     0.021 A 
INPUT-LIGAND-PDBQT: ATOM     24  Cl  UNL     1      -6.317  -0.175   0.814  1.00  0.00    -0.084 Cl
INPUT-LIGAND-PDBQT: ENDBRANCH  13  14
INPUT-LIGAND-PDBQT: ENDBRANCH  12  13
INPUT-LIGAND-PDBQT: ENDBRANCH   1  12
INPUT-LIGAND-PDBQT: TORSDOF 7


    FINAL DOCKED STATE:
    ________________________


Run:   1 / 20
Time taken for this run:   0.035s

DOCKED: MODEL        1
DOCKED: USER    Run = 1
DOCKED: USER
DOCKED: USER    Estimated Free Energy of Binding    =  -7.37 kcal/mol  [=(1)+(2)+(3)-(4)]
DOCKED: USER
DOCKED: USER    (1) Final Intermolecular Energy     =  -9.46 kcal/mol
DOCKED: USER        vdW + Hbond + desolv Energy     =  -9.35 kcal/mol
DOCKED: USER        Electrostatic Energy            =  -0.11 kcal/mol
DOCKED: USER        Moving Ligand-Fixed Receptor    =  -9.46 kcal/mol
DOCKED: USER        Moving Ligand-Moving Receptor   =  +0.00 kcal/mol
DOCKED: USER    (2) Final Total Internal Energy     =  -1.22 kcal/mol
DOCKED: USER    (3) Torsional Free Energy           =  +2.09 kcal/mol
DOCKED: USER    (4) Unbound System's Energy         =  -1.22 kcal/mol
DOCKED: USER
DOCKED: USER
DOCKED: REMARK SMILES O/C(=N\CCOc1ccc2ccc(Cl)cc2c1)c1ccccn1
DOCKED: REMARK SMILES IDX 4 1 3 2 2 3 1 4 18 6 23 7 19 8 22 9 20 10 21 11 5 12 6 13
DOCKED: REMARK SMILES IDX 7 14 8 15 17 16 9 17 16 18 10 19 15 20 11 21 13 22 12 23
DOCKED: REMARK SMILES IDX 14 24
DOCKED: REMARK H PARENT 1 5
DOCKED: USER                              x       y       z     vdW  Elec       q    Type
DOCKED: USER                           _______ _______ _______ _____ _____    ______ ____
DOCKED: ROOT
DOCKED: ATOM      1  C   UNL     1     141.248  74.499 220.792 -0.21 -0.04    +0.188 C  
DOCKED: ENDROOT
DOCKED: BRANCH   1   2
DOCKED: ATOM      2  N   UNL     1     141.224  75.423 221.923 -0.37 +0.06    -0.246 NA 
DOCKED: BRANCH   2   3
DOCKED: ATOM      3  C   UNL     1     140.158  76.044 222.347 -0.20 -0.04    +0.232 C  
DOCKED: BRANCH   3   4
DOCKED: ATOM      4  O   UNL     1     138.927  75.388 222.464 -0.26 +0.12    -0.492 OA 
DOCKED: ATOM      5  H   UNL     1     138.827  74.458 222.847 -0.50 -0.13    +0.295 HD 
DOCKED: ENDBRANCH   3   4
DOCKED: BRANCH   3   6
DOCKED: ATOM      6  C   UNL     1     140.218  77.479 222.698 -0.29 -0.03    +0.124 A  
DOCKED: ATOM      7  N   UNL     1     139.055  78.190 222.757 -0.17 +0.04    -0.251 NA 
DOCKED: ATOM      8  C   UNL     1     141.437  78.132 222.956 -0.48 -0.01    +0.034 A  
DOCKED: ATOM      9  C   UNL     1     139.032  79.514 223.063 -0.29 -0.02    +0.112 A  
DOCKED: ATOM     10  C   UNL     1     141.433  79.493 223.277 -0.56 -0.00    +0.004 A  
DOCKED: ATOM     11  C   UNL     1     140.225  80.191 223.331 -0.43 -0.00    +0.020 A  
DOCKED: ENDBRANCH   3   6
DOCKED: ENDBRANCH   2   3
DOCKED: ENDBRANCH   1   2
DOCKED: BRANCH   1  12
DOCKED: ATOM     12  C   UNL     1     140.956  73.063 221.251 -0.18 -0.03    +0.253 C  
DOCKED: BRANCH  12  13
DOCKED: ATOM     13  O   UNL     1     140.405  73.013 222.567 -0.58 +0.01    -0.492 OA 
DOCKED: BRANCH  13  14
DOCKED: ATOM     14  C   UNL     1     140.082  71.849 223.280 -0.31 -0.02    +0.120 A  
DOCKED: ATOM     15  C   UNL     1     139.093  71.010 222.753 -0.23 -0.01    +0.047 A  
DOCKED: ATOM     16  C   UNL     1     140.698  71.507 224.498 -0.43 -0.01    +0.055 A  
DOCKED: ATOM     17  C   UNL     1     138.687  69.862 223.438 -0.25 -0.00    +0.012 A  
DOCKED: ATOM     18  C   UNL     1     140.277  70.372 225.212 -0.48 +0.00    -0.013 A  
DOCKED: ATOM     19  C   UNL     1     139.256  69.546 224.681 -0.36 +0.00    -0.018 A  
DOCKED: ATOM     20  C   UNL     1     140.851  70.052 226.454 -0.54 -0.00    +0.029 A  
DOCKED: ATOM     21  C   UNL     1     138.827  68.419 225.401 -0.43 -0.00    +0.010 A  
DOCKED: ATOM     22  C   UNL     1     140.416  68.927 227.161 -0.59 -0.01    +0.041 A  
DOCKED: ATOM     23  C   UNL     1     139.408  68.113 226.635 -0.56 -0.00    +0.021 A  
DOCKED: ATOM     24  Cl  UNL     1     141.145  68.528 228.705 -0.68 +0.02    -0.084 Cl 
DOCKED: ENDBRANCH  13  14
DOCKED: ENDBRANCH  12  13
DOCKED: ENDBRANCH   1  12
DOCKED: TORSDOF 7
DOCKED: TER
DOCKED: ENDMDL
________________________________________________________________________________


    FINAL DOCKED STATE:
    ________________________


Run:   2 / 20
Time taken for this run:   0.035s

DOCKED: MODEL        2
DOCKED: USER    Run = 2
DOCKED: USER
DOCKED: USER    Estimated Free Energy of Binding    =  -7.48 kcal/mol  [=(1)+(2)+(3)-(4)]
DOCKED: USER
DOCKED: USER    (1) Final Intermolecular Energy     =  -9.56 kcal/mol
DOCKED: USER        vdW + Hbond + desolv Energy     =  -9.45 kcal/mol
DOCKED: USER        Electrostatic Energy            =  -0.11 kcal/mol
DOCKED: USER        Moving Ligand-Fixed Receptor    =  -9.56 kcal/mol
DOCKED: USER        Moving Ligand-Moving Receptor   =  +0.00 kcal/mol
DOCKED: USER    (2) Final Total Internal Energy     =  -1.18 kcal/mol
DOCKED: USER    (3) Torsional Free Energy           =  +2.09 kcal/mol
DOCKED: USER    (4) Unbound System's Energy         =  -1.18 kcal/mol
DOCKED: USER
DOCKED: USER
DOCKED: REMARK SMILES O/C(=N\CCOc1ccc2ccc(Cl)cc2c1)c1ccccn1
DOCKED: REMARK SMILES IDX 4 1 3 2 2 3 1 4 18 6 23 7 19 8 22 9 20 10 21 11 5 12 6 13
DOCKED: REMARK SMILES IDX 7 14 8 15 17 16 9 17 16 18 10 19 15 20 11 21 13 22 12 23
DOCKED: REMARK SMILES IDX 14 24
DOCKED: REMARK H PARENT 1 5
DOCKED: USER                              x       y       z     vdW  Elec       q    Type
DOCKED: USER                           _______ _______ _______ _____ _____    ______ ____
DOCKED: ROOT
DOCKED: ATOM      1  C   UNL     1     141.064  74.232 220.773 -0.19 -0.04    +0.188 C  
DOCKED: ENDROOT
DOCKED: BRANCH   1   2
DOCKED: ATOM      2  N   UNL     1     141.420  75.187 221.819 -0.30 +0.06    -0.246 NA 
DOCKED: BRANCH   2   3
DOCKED: ATOM      3  C   UNL     1     140.627  76.120 222.268 -0.19 -0.06    +0.232 C  
DOCKED: BRANCH   3   4
DOCKED: ATOM      4  O   UNL     1     139.335  75.827 222.724 -0.30 +0.09    -0.492 OA 
DOCKED: ATOM      5  H   UNL     1     139.069  74.925 223.095 -0.46 -0.09    +0.295 HD 
DOCKED: ENDBRANCH   3   4
DOCKED: BRANCH   3   6
DOCKED: ATOM      6  C   UNL     1     141.066  77.532 222.285 -0.36 -0.05    +0.124 A  
DOCKED: ATOM      7  N   UNL     1     141.137  78.184 223.480 -0.26 +0.07    -0.251 NA 
DOCKED: ATOM      8  C   UNL     1     141.396  78.222 221.103 -0.32 -0.02    +0.034 A  
DOCKED: ATOM      9  C   UNL     1     141.523  79.485 223.572 -0.50 -0.03    +0.112 A  
DOCKED: ATOM     10  C   UNL     1     141.800  79.558 221.179 -0.38 -0.00    +0.004 A  
DOCKED: ATOM     11  C   UNL     1     141.865  80.196 222.419 -0.52 -0.01    +0.020 A  
DOCKED: ENDBRANCH   3   6
DOCKED: ENDBRANCH   2   3
DOCKED: ENDBRANCH   1   2
DOCKED: BRANCH   1  12
DOCKED: ATOM     12  C   UNL     1     139.987  73.255 221.266 -0.16 -0.04    +0.253 C  
DOCKED: BRANCH  12  13
DOCKED: ATOM     13  O   UNL     1     140.054  73.035 222.675 -0.59 +0.04    -0.492 OA 
DOCKED: BRANCH  13  14
DOCKED: ATOM     14  C   UNL     1     139.866  71.807 223.325 -0.30 -0.02    +0.120 A  
DOCKED: ATOM     15  C   UNL     1     139.050  70.853 222.705 -0.22 -0.01    +0.047 A  
DOCKED: ATOM     16  C   UNL     1     140.449  71.508 224.571 -0.45 -0.01    +0.055 A  
DOCKED: ATOM     17  C   UNL     1     138.779  69.630 223.323 -0.24 -0.00    +0.012 A  
DOCKED: ATOM     18  C   UNL     1     140.159  70.294 225.217 -0.46 +0.00    -0.013 A  
DOCKED: ATOM     19  C   UNL     1     139.310  69.349 224.591 -0.35 +0.00    -0.018 A  
DOCKED: ATOM     20  C   UNL     1     140.696  70.011 226.484 -0.54 -0.00    +0.029 A  
DOCKED: ATOM     21  C   UNL     1     139.011  68.142 225.243 -0.42 -0.00    +0.010 A  
DOCKED: ATOM     22  C   UNL     1     140.391  68.804 227.123 -0.60 -0.01    +0.041 A  
DOCKED: ATOM     23  C   UNL     1     139.552  67.873 226.503 -0.62 -0.00    +0.021 A  
DOCKED: ATOM     24  Cl  UNL     1     141.073  68.453 228.700 -0.71 +0.02    -0.084 Cl 
DOCKED: ENDBRANCH  13  14
DOCKED: ENDBRANCH  12  13
DOCKED: ENDBRANCH   1  12
DOCKED: TORSDOF 7
DOCKED: TER
DOCKED: ENDMDL
________________________________________________________________________________


    FINAL DOCKED STATE:
    ________________________


Run:   3 / 20
Time taken for this run:   0.035s

DOCKED: MODEL        3
DOCKED: USER    Run = 3
DOCKED: USER
DOCKED: USER    Estimated Free Energy of Binding    =  -7.05 kcal/mol  [=(1)+(2)+(3)-(4)]
DOCKED: USER
DOCKED: USER    (1) Final Intermolecular Energy     =  -9.14 kcal/mol
DOCKED: USER        vdW + Hbond + desolv Energy     =  -9.00 kcal/mol
DOCKED: USER        Electrostatic Energy            =  -0.13 kcal/mol
DOCKED: USER        Moving Ligand-Fixed Receptor    =  -9.14 kcal/mol
DOCKED: USER        Moving Ligand-Moving Receptor   =  +0.00 kcal/mol
DOCKED: USER    (2) Final Total Internal Energy     =  -0.63 kcal/mol
DOCKED: USER    (3) Torsional Free Energy           =  +2.09 kcal/mol
DOCKED: USER    (4) Unbound System's Energy         =  -0.63 kcal/mol
DOCKED: USER
DOCKED: USER
DOCKED: REMARK SMILES O/C(=N\CCOc1ccc2ccc(Cl)cc2c1)c1ccccn1
DOCKED: REMARK SMILES IDX 4 1 3 2 2 3 1 4 18 6 23 7 19 8 22 9 20 10 21 11 5 12 6 13
DOCKED: REMARK SMILES IDX 7 14 8 15 17 16 9 17 16 18 10 19 15 20 11 21 13 22 12 23
DOCKED: REMARK SMILES IDX 14 24
DOCKED: REMARK H PARENT 1 5
DOCKED: USER                              x       y       z     vdW  Elec       q    Type
DOCKED: USER                           _______ _______ _______ _____ _____    ______ ____
DOCKED: ROOT
DOCKED: ATOM      1  C   UNL     1     140.193  74.921 220.791 -0.17 -0.04    +0.188 C  
DOCKED: ENDROOT
DOCKED: BRANCH   1   2
DOCKED: ATOM      2  N   UNL     1     140.582  76.046 221.637 -0.25 +0.07    -0.246 NA 
DOCKED: BRANCH   2   3
DOCKED: ATOM      3  C   UNL     1     141.405  76.992 221.276 -0.13 -0.12    +0.232 C  
DOCKED: BRANCH   3   4
DOCKED: ATOM      4  O   UNL     1     142.214  76.865 220.140 -0.11 +0.31    -0.492 OA 
DOCKED: ATOM      5  H   UNL     1     142.970  77.499 219.923 -0.23 -0.27    +0.295 HD 
DOCKED: ENDBRANCH   3   4
DOCKED: BRANCH   3   6
DOCKED: ATOM      6  C   UNL     1     141.524  78.227 222.079 -0.31 -0.06    +0.124 A  
DOCKED: ATOM      7  N   UNL     1     141.762  79.408 221.439 -0.22 +0.12    -0.251 NA 
DOCKED: ATOM      8  C   UNL     1     141.415  78.216 223.483 -0.48 -0.01    +0.034 A  
DOCKED: ATOM      9  C   UNL     1     141.894  80.582 222.112 -0.42 -0.03    +0.112 A  
DOCKED: ATOM     10  C   UNL     1     141.541  79.414 224.191 -0.51 -0.00    +0.004 A  
DOCKED: ATOM     11  C   UNL     1     141.783  80.606 223.505 -0.58 -0.00    +0.020 A  
DOCKED: ENDBRANCH   3   6
DOCKED: ENDBRANCH   2   3
DOCKED: ENDBRANCH   1   2
DOCKED: BRANCH   1  12
DOCKED: ATOM     12  C   UNL     1     140.765  73.604 221.334 -0.19 -0.03    +0.253 C  
DOCKED: BRANCH  12  13
DOCKED: ATOM     13  O   UNL     1     140.392  73.367 222.692 -0.58 -0.03    -0.492 OA 
DOCKED: BRANCH  13  14
DOCKED: ATOM     14  C   UNL     1     140.171  72.111 223.276 -0.28 -0.02    +0.120 A  
DOCKED: ATOM     15  C   UNL     1     139.408  71.179 222.561 -0.24 -0.01    +0.047 A  
DOCKED: ATOM     16  C   UNL     1     140.668  71.764 224.546 -0.36 -0.01    +0.055 A  
DOCKED: ATOM     17  C   UNL     1     139.107  69.929 223.108 -0.23 -0.00    +0.012 A  
DOCKED: ATOM     18  C   UNL     1     140.345  70.522 225.120 -0.49 +0.00    -0.013 A  
DOCKED: ATOM     19  C   UNL     1     139.550  69.599 224.398 -0.33 +0.00    -0.018 A  
DOCKED: ATOM     20  C   UNL     1     140.794  70.190 226.409 -0.55 -0.00    +0.029 A  
DOCKED: ATOM     21  C   UNL     1     139.218  68.364 224.976 -0.42 -0.00    +0.010 A  
DOCKED: ATOM     22  C   UNL     1     140.457  68.956 226.974 -0.58 -0.01    +0.041 A  
DOCKED: ATOM     23  C   UNL     1     139.672  68.046 226.259 -0.60 -0.00    +0.021 A  
DOCKED: ATOM     24  Cl  UNL     1     141.031  68.543 228.580 -0.73 +0.02    -0.084 Cl 
DOCKED: ENDBRANCH  13  14
DOCKED: ENDBRANCH  12  13
DOCKED: ENDBRANCH   1  12
DOCKED: TORSDOF 7
DOCKED: TER
DOCKED: ENDMDL
________________________________________________________________________________


    FINAL DOCKED STATE:
    ________________________


Run:   4 / 20
Time taken for this run:   0.035s

DOCKED: MODEL        4
DOCKED: USER    Run = 4
DOCKED: USER
DOCKED: USER    Estimated Free Energy of Binding    =  -7.33 kcal/mol  [=(1)+(2)+(3)-(4)]
DOCKED: USER
DOCKED: USER    (1) Final Intermolecular Energy     =  -9.42 kcal/mol
DOCKED: USER        vdW + Hbond + desolv Energy     =  -9.22 kcal/mol
DOCKED: USER        Electrostatic Energy            =  -0.19 kcal/mol
DOCKED: USER        Moving Ligand-Fixed Receptor    =  -9.42 kcal/mol
DOCKED: USER        Moving Ligand-Moving Receptor   =  +0.00 kcal/mol
DOCKED: USER    (2) Final Total Internal Energy     =  -0.55 kcal/mol
DOCKED: USER    (3) Torsional Free Energy           =  +2.09 kcal/mol
DOCKED: USER    (4) Unbound System's Energy         =  -0.55 kcal/mol
DOCKED: USER
DOCKED: USER
DOCKED: REMARK SMILES O/C(=N\CCOc1ccc2ccc(Cl)cc2c1)c1ccccn1
DOCKED: REMARK SMILES IDX 4 1 3 2 2 3 1 4 18 6 23 7 19 8 22 9 20 10 21 11 5 12 6 13
DOCKED: REMARK SMILES IDX 7 14 8 15 17 16 9 17 16 18 10 19 15 20 11 21 13 22 12 23
DOCKED: REMARK SMILES IDX 14 24
DOCKED: REMARK H PARENT 1 5
DOCKED: USER                              x       y       z     vdW  Elec       q    Type
DOCKED: USER                           _______ _______ _______ _____ _____    ______ ____
DOCKED: ROOT
DOCKED: ATOM      1  C   UNL     1     140.512  71.820 221.710 -0.19 -0.02    +0.188 C  
DOCKED: ENDROOT
DOCKED: BRANCH   1   2
DOCKED: ATOM      2  N   UNL     1     140.668  71.771 223.161 -0.25 +0.02    -0.246 NA 
DOCKED: BRANCH   2   3
DOCKED: ATOM      3  C   UNL     1     139.712  71.478 223.998 -0.25 -0.05    +0.232 C  
DOCKED: BRANCH   3   4
DOCKED: ATOM      4  O   UNL     1     138.363  71.565 223.629 -0.08 +0.15    -0.492 OA 
DOCKED: ATOM      5  H   UNL     1     137.730  72.260 224.000 -0.38 -0.16    +0.295 HD 
DOCKED: ENDBRANCH   3   4
DOCKED: BRANCH   3   6
DOCKED: ATOM      6  C   UNL     1     140.028  71.065 225.381 -0.43 -0.02    +0.124 A  
DOCKED: ATOM      7  N   UNL     1     139.531  69.882 225.844 -0.23 +0.04    -0.251 NA 
DOCKED: ATOM      8  C   UNL     1     140.812  71.862 226.236 -0.60 -0.01    +0.034 A  
DOCKED: ATOM      9  C   UNL     1     139.771  69.442 227.108 -0.47 -0.02    +0.112 A  
DOCKED: ATOM     10  C   UNL     1     141.075  71.423 227.537 -0.77 -0.00    +0.004 A  
DOCKED: ATOM     11  C   UNL     1     140.552  70.206 227.979 -0.62 -0.00    +0.020 A  
DOCKED: ENDBRANCH   3   6
DOCKED: ENDBRANCH   2   3
DOCKED: ENDBRANCH   1   2
DOCKED: BRANCH   1  12
DOCKED: ATOM     12  C   UNL     1     140.028  73.205 221.258 -0.16 -0.04    +0.253 C  
DOCKED: BRANCH  12  13
DOCKED: ATOM     13  O   UNL     1     140.470  74.248 222.127 -0.68 -0.00    -0.492 OA 
DOCKED: BRANCH  13  14
DOCKED: ATOM     14  C   UNL     1     140.740  75.572 221.752 -0.30 -0.03    +0.120 A  
DOCKED: ATOM     15  C   UNL     1     140.818  75.864 220.385 -0.20 -0.02    +0.047 A  
DOCKED: ATOM     16  C   UNL     1     140.950  76.601 222.689 -0.24 -0.02    +0.055 A  
DOCKED: ATOM     17  C   UNL     1     141.136  77.152 219.944 -0.21 -0.01    +0.012 A  
DOCKED: ATOM     18  C   UNL     1     141.301  77.892 222.258 -0.40 +0.01    -0.013 A  
DOCKED: ATOM     19  C   UNL     1     141.403  78.168 220.873 -0.31 +0.01    -0.018 A  
DOCKED: ATOM     20  C   UNL     1     141.562  78.912 223.190 -0.55 -0.01    +0.029 A  
DOCKED: ATOM     21  C   UNL     1     141.766  79.455 220.444 -0.31 -0.01    +0.010 A  
DOCKED: ATOM     22  C   UNL     1     141.921  80.190 222.750 -0.54 -0.01    +0.041 A  
DOCKED: ATOM     23  C   UNL     1     142.022  80.460 221.381 -0.40 -0.01    +0.021 A  
DOCKED: ATOM     24  Cl  UNL     1     142.235  81.460 223.917 -0.64 +0.01    -0.084 Cl 
DOCKED: ENDBRANCH  13  14
DOCKED: ENDBRANCH  12  13
DOCKED: ENDBRANCH   1  12
DOCKED: TORSDOF 7
DOCKED: TER
DOCKED: ENDMDL
________________________________________________________________________________


    FINAL DOCKED STATE:
    ________________________


Run:   5 / 20
Time taken for this run:   0.035s

DOCKED: MODEL        5
DOCKED: USER    Run = 5
DOCKED: USER
DOCKED: USER    Estimated Free Energy of Binding    =  -6.88 kcal/mol  [=(1)+(2)+(3)-(4)]
DOCKED: USER
DOCKED: USER    (1) Final Intermolecular Energy     =  -8.96 kcal/mol
DOCKED: USER        vdW + Hbond + desolv Energy     =  -8.94 kcal/mol
DOCKED: USER        Electrostatic Energy            =  -0.02 kcal/mol
DOCKED: USER        Moving Ligand-Fixed Receptor    =  -8.96 kcal/mol
DOCKED: USER        Moving Ligand-Moving Receptor   =  +0.00 kcal/mol
DOCKED: USER    (2) Final Total Internal Energy     =  -0.78 kcal/mol
DOCKED: USER    (3) Torsional Free Energy           =  +2.09 kcal/mol
DOCKED: USER    (4) Unbound System's Energy         =  -0.78 kcal/mol
DOCKED: USER
DOCKED: USER
DOCKED: REMARK SMILES O/C(=N\CCOc1ccc2ccc(Cl)cc2c1)c1ccccn1
DOCKED: REMARK SMILES IDX 4 1 3 2 2 3 1 4 18 6 23 7 19 8 22 9 20 10 21 11 5 12 6 13
DOCKED: REMARK SMILES IDX 7 14 8 15 17 16 9 17 16 18 10 19 15 20 11 21 13 22 12 23
DOCKED: REMARK SMILES IDX 14 24
DOCKED: REMARK H PARENT 1 5
DOCKED: USER                              x       y       z     vdW  Elec       q    Type
DOCKED: USER                           _______ _______ _______ _____ _____    ______ ____
DOCKED: ROOT
DOCKED: ATOM      1  C   UNL     1     140.630  72.256 222.528 -0.23 -0.02    +0.188 C  
DOCKED: ENDROOT
DOCKED: BRANCH   1   2
DOCKED: ATOM      2  N   UNL     1     140.273  71.897 223.898 -0.28 +0.04    -0.246 NA 
DOCKED: BRANCH   2   3
DOCKED: ATOM      3  C   UNL     1     140.053  70.678 224.308 -0.28 -0.04    +0.232 C  
DOCKED: BRANCH   3   4
DOCKED: ATOM      4  O   UNL     1     139.531  69.700 223.452 -0.05 +0.09    -0.492 OA 
DOCKED: ATOM      5  H   UNL     1     139.473  68.721 223.697 +0.06 -0.06    +0.295 HD 
DOCKED: ENDBRANCH   3   4
DOCKED: BRANCH   3   6
DOCKED: ATOM      6  C   UNL     1     140.329  70.299 225.710 -0.43 -0.02    +0.124 A  
DOCKED: ATOM      7  N   UNL     1     140.195  68.992 226.077 -0.27 +0.04    -0.251 NA 
DOCKED: ATOM      8  C   UNL     1     140.710  71.249 226.677 -0.66 -0.01    +0.034 A  
DOCKED: ATOM      9  C   UNL     1     140.422  68.571 227.349 -0.56 -0.02    +0.112 A  
DOCKED: ATOM     10  C   UNL     1     140.953  70.834 227.989 -0.70 -0.00    +0.004 A  
DOCKED: ATOM     11  C   UNL     1     140.808  69.488 228.331 -0.59 -0.00    +0.020 A  
DOCKED: ENDBRANCH   3   6
DOCKED: ENDBRANCH   2   3
DOCKED: ENDBRANCH   1   2
DOCKED: BRANCH   1  12
DOCKED: ATOM     12  C   UNL     1     139.575  73.188 221.914 -0.18 -0.05    +0.253 C  
DOCKED: BRANCH  12  13
DOCKED: ATOM     13  O   UNL     1     140.139  74.410 221.437 -0.31 +0.08    -0.492 OA 
DOCKED: BRANCH  13  14
DOCKED: ATOM     14  C   UNL     1     139.890  75.689 221.957 -0.30 -0.02    +0.120 A  
DOCKED: ATOM     15  C   UNL     1     138.556  76.091 222.099 -0.27 -0.01    +0.047 A  
DOCKED: ATOM     16  C   UNL     1     140.919  76.576 222.321 -0.36 -0.02    +0.055 A  
DOCKED: ATOM     17  C   UNL     1     138.238  77.371 222.561 -0.28 -0.00    +0.012 A  
DOCKED: ATOM     18  C   UNL     1     140.613  77.877 222.758 -0.42 +0.00    -0.013 A  
DOCKED: ATOM     19  C   UNL     1     139.260  78.281 222.871 -0.31 +0.00    -0.018 A  
DOCKED: ATOM     20  C   UNL     1     141.636  78.786 223.074 -0.54 -0.01    +0.029 A  
DOCKED: ATOM     21  C   UNL     1     138.955  79.584 223.295 -0.36 -0.00    +0.010 A  
DOCKED: ATOM     22  C   UNL     1     141.320  80.081 223.497 -0.52 -0.01    +0.041 A  
DOCKED: ATOM     23  C   UNL     1     139.983  80.478 223.607 -0.42 -0.00    +0.021 A  
DOCKED: ATOM     24  Cl  UNL     1     142.603  81.207 223.900 -0.69 +0.01    -0.084 Cl 
DOCKED: ENDBRANCH  13  14
DOCKED: ENDBRANCH  12  13
DOCKED: ENDBRANCH   1  12
DOCKED: TORSDOF 7
DOCKED: TER
DOCKED: ENDMDL
________________________________________________________________________________


    FINAL DOCKED STATE:
    ________________________


Run:   6 / 20
Time taken for this run:   0.035s

DOCKED: MODEL        6
DOCKED: USER    Run = 6
DOCKED: USER
DOCKED: USER    Estimated Free Energy of Binding    =  -6.81 kcal/mol  [=(1)+(2)+(3)-(4)]
DOCKED: USER
DOCKED: USER    (1) Final Intermolecular Energy     =  -8.90 kcal/mol
DOCKED: USER        vdW + Hbond + desolv Energy     =  -8.86 kcal/mol
DOCKED: USER        Electrostatic Energy            =  -0.04 kcal/mol
DOCKED: USER        Moving Ligand-Fixed Receptor    =  -8.90 kcal/mol
DOCKED: USER        Moving Ligand-Moving Receptor   =  +0.00 kcal/mol
DOCKED: USER    (2) Final Total Internal Energy     =  -1.27 kcal/mol
DOCKED: USER    (3) Torsional Free Energy           =  +2.09 kcal/mol
DOCKED: USER    (4) Unbound System's Energy         =  -1.27 kcal/mol
DOCKED: USER
DOCKED: USER
DOCKED: REMARK SMILES O/C(=N\CCOc1ccc2ccc(Cl)cc2c1)c1ccccn1
DOCKED: REMARK SMILES IDX 4 1 3 2 2 3 1 4 18 6 23 7 19 8 22 9 20 10 21 11 5 12 6 13
DOCKED: REMARK SMILES IDX 7 14 8 15 17 16 9 17 16 18 10 19 15 20 11 21 13 22 12 23
DOCKED: REMARK SMILES IDX 14 24
DOCKED: REMARK H PARENT 1 5
DOCKED: USER                              x       y       z     vdW  Elec       q    Type
DOCKED: USER                           _______ _______ _______ _____ _____    ______ ____
DOCKED: ROOT
DOCKED: ATOM      1  C   UNL     1     141.078  72.073 221.383 -0.18 -0.02    +0.188 C  
DOCKED: ENDROOT
DOCKED: BRANCH   1   2
DOCKED: ATOM      2  N   UNL     1     141.076  71.716 222.798 -0.14 +0.01    -0.246 NA 
DOCKED: BRANCH   2   3
DOCKED: ATOM      3  C   UNL     1     140.013  71.701 223.555 -0.25 -0.04    +0.232 C  
DOCKED: BRANCH   3   4
DOCKED: ATOM      4  O   UNL     1     138.792  72.226 223.114 -0.03 +0.17    -0.492 OA 
DOCKED: ATOM      5  H   UNL     1     138.658  73.201 222.884 -0.41 -0.15    +0.295 HD 
DOCKED: ENDBRANCH   3   4
DOCKED: BRANCH   3   6
DOCKED: ATOM      6  C   UNL     1     140.076  71.145 224.923 -0.42 -0.02    +0.124 A  
DOCKED: ATOM      7  N   UNL     1     139.442  69.966 225.184 -0.21 +0.04    -0.251 NA 
DOCKED: ATOM      8  C   UNL     1     140.759  71.804 225.964 -0.54 -0.01    +0.034 A  
DOCKED: ATOM      9  C   UNL     1     139.448  69.400 226.421 -0.41 -0.02    +0.112 A  
DOCKED: ATOM     10  C   UNL     1     140.781  71.234 227.240 -0.73 -0.00    +0.004 A  
DOCKED: ATOM     11  C   UNL     1     140.122  70.025 227.473 -0.59 -0.00    +0.020 A  
DOCKED: ENDBRANCH   3   6
DOCKED: ENDBRANCH   2   3
DOCKED: ENDBRANCH   1   2
DOCKED: BRANCH   1  12
DOCKED: ATOM     12  C   UNL     1     141.163  73.596 221.202 -0.18 -0.03    +0.253 C  
DOCKED: BRANCH  12  13
DOCKED: ATOM     13  O   UNL     1     139.926  74.249 221.488 -0.31 +0.08    -0.492 OA 
DOCKED: BRANCH  13  14
DOCKED: ATOM     14  C   UNL     1     139.780  75.537 222.024 -0.28 -0.02    +0.120 A  
DOCKED: ATOM     15  C   UNL     1     138.482  76.021 222.226 -0.28 -0.01    +0.047 A  
DOCKED: ATOM     16  C   UNL     1     140.879  76.356 222.346 -0.34 -0.02    +0.055 A  
DOCKED: ATOM     17  C   UNL     1     138.267  77.315 222.707 -0.29 -0.00    +0.012 A  
DOCKED: ATOM     18  C   UNL     1     140.675  77.671 222.800 -0.39 +0.00    -0.013 A  
DOCKED: ATOM     19  C   UNL     1     139.357  78.158 222.975 -0.27 +0.00    -0.018 A  
DOCKED: ATOM     20  C   UNL     1     141.767  78.511 223.074 -0.50 -0.01    +0.029 A  
DOCKED: ATOM     21  C   UNL     1     139.154  79.474 223.417 -0.38 -0.00    +0.010 A  
DOCKED: ATOM     22  C   UNL     1     141.551  79.821 223.515 -0.55 -0.01    +0.041 A  
DOCKED: ATOM     23  C   UNL     1     140.249  80.300 223.687 -0.42 -0.00    +0.021 A  
DOCKED: ATOM     24  Cl  UNL     1     142.919  80.861 223.866 -0.75 +0.02    -0.084 Cl 
DOCKED: ENDBRANCH  13  14
DOCKED: ENDBRANCH  12  13
DOCKED: ENDBRANCH   1  12
DOCKED: TORSDOF 7
DOCKED: TER
DOCKED: ENDMDL
________________________________________________________________________________


    FINAL DOCKED STATE:
    ________________________


Run:   7 / 20
Time taken for this run:   0.035s

DOCKED: MODEL        7
DOCKED: USER    Run = 7
DOCKED: USER
DOCKED: USER    Estimated Free Energy of Binding    =  -7.39 kcal/mol  [=(1)+(2)+(3)-(4)]
DOCKED: USER
DOCKED: USER    (1) Final Intermolecular Energy     =  -9.47 kcal/mol
DOCKED: USER        vdW + Hbond + desolv Energy     =  -9.25 kcal/mol
DOCKED: USER        Electrostatic Energy            =  -0.22 kcal/mol
DOCKED: USER        Moving Ligand-Fixed Receptor    =  -9.47 kcal/mol
DOCKED: USER        Moving Ligand-Moving Receptor   =  +0.00 kcal/mol
DOCKED: USER    (2) Final Total Internal Energy     =  -0.51 kcal/mol
DOCKED: USER    (3) Torsional Free Energy           =  +2.09 kcal/mol
DOCKED: USER    (4) Unbound System's Energy         =  -0.51 kcal/mol
DOCKED: USER
DOCKED: USER
DOCKED: REMARK SMILES O/C(=N\CCOc1ccc2ccc(Cl)cc2c1)c1ccccn1
DOCKED: REMARK SMILES IDX 4 1 3 2 2 3 1 4 18 6 23 7 19 8 22 9 20 10 21 11 5 12 6 13
DOCKED: REMARK SMILES IDX 7 14 8 15 17 16 9 17 16 18 10 19 15 20 11 21 13 22 12 23
DOCKED: REMARK SMILES IDX 14 24
DOCKED: REMARK H PARENT 1 5
DOCKED: USER                              x       y       z     vdW  Elec       q    Type
DOCKED: USER                           _______ _______ _______ _____ _____    ______ ____
DOCKED: ROOT
DOCKED: ATOM      1  C   UNL     1     140.370  71.969 221.758 -0.20 -0.03    +0.188 C  
DOCKED: ENDROOT
DOCKED: BRANCH   1   2
DOCKED: ATOM      2  N   UNL     1     140.586  71.855 223.198 -0.26 +0.02    -0.246 NA 
DOCKED: BRANCH   2   3
DOCKED: ATOM      3  C   UNL     1     139.673  71.492 224.056 -0.24 -0.05    +0.232 C  
DOCKED: BRANCH   3   4
DOCKED: ATOM      4  O   UNL     1     138.311  71.525 223.733 -0.09 +0.15    -0.492 OA 
DOCKED: ATOM      5  H   UNL     1     137.725  72.335 223.880 -0.40 -0.17    +0.295 HD 
DOCKED: ENDBRANCH   3   4
DOCKED: BRANCH   3   6
DOCKED: ATOM      6  C   UNL     1     140.055  71.054 225.415 -0.43 -0.02    +0.124 A  
DOCKED: ATOM      7  N   UNL     1     139.713  69.798 225.821 -0.24 +0.04    -0.251 NA 
DOCKED: ATOM      8  C   UNL     1     140.746  71.900 226.303 -0.58 -0.01    +0.034 A  
DOCKED: ATOM      9  C   UNL     1     140.021  69.330 227.060 -0.48 -0.02    +0.112 A  
DOCKED: ATOM     10  C   UNL     1     141.077  71.433 227.578 -0.78 -0.00    +0.004 A  
DOCKED: ATOM     11  C   UNL     1     140.713  70.141 227.962 -0.62 -0.00    +0.020 A  
DOCKED: ENDBRANCH   3   6
DOCKED: ENDBRANCH   2   3
DOCKED: ENDBRANCH   1   2
DOCKED: BRANCH   1  12
DOCKED: ATOM     12  C   UNL     1     139.916  73.387 221.382 -0.17 -0.04    +0.253 C  
DOCKED: BRANCH  12  13
DOCKED: ATOM     13  O   UNL     1     140.525  74.388 222.197 -0.64 -0.02    -0.492 OA 
DOCKED: BRANCH  13  14
DOCKED: ATOM     14  C   UNL     1     140.782  75.714 221.817 -0.31 -0.03    +0.120 A  
DOCKED: ATOM     15  C   UNL     1     140.857  76.001 220.448 -0.21 -0.02    +0.047 A  
DOCKED: ATOM     16  C   UNL     1     140.981  76.748 222.750 -0.26 -0.02    +0.055 A  
DOCKED: ATOM     17  C   UNL     1     141.161  77.290 220.002 -0.22 -0.01    +0.012 A  
DOCKED: ATOM     18  C   UNL     1     141.319  78.041 222.314 -0.41 +0.01    -0.013 A  
DOCKED: ATOM     19  C   UNL     1     141.418  78.313 220.928 -0.32 +0.01    -0.018 A  
DOCKED: ATOM     20  C   UNL     1     141.569  79.067 223.241 -0.56 -0.01    +0.029 A  
DOCKED: ATOM     21  C   UNL     1     141.767  79.602 220.494 -0.32 -0.01    +0.010 A  
DOCKED: ATOM     22  C   UNL     1     141.915  80.347 222.796 -0.54 -0.01    +0.041 A  
DOCKED: ATOM     23  C   UNL     1     142.013  80.613 221.427 -0.41 -0.01    +0.021 A  
DOCKED: ATOM     24  Cl  UNL     1     142.216  81.625 223.959 -0.58 +0.01    -0.084 Cl 
DOCKED: ENDBRANCH  13  14
DOCKED: ENDBRANCH  12  13
DOCKED: ENDBRANCH   1  12
DOCKED: TORSDOF 7
DOCKED: TER
DOCKED: ENDMDL
________________________________________________________________________________


    FINAL DOCKED STATE:
    ________________________


Run:   8 / 20
Time taken for this run:   0.035s

DOCKED: MODEL        8
DOCKED: USER    Run = 8
DOCKED: USER
DOCKED: USER    Estimated Free Energy of Binding    =  -7.36 kcal/mol  [=(1)+(2)+(3)-(4)]
DOCKED: USER
DOCKED: USER    (1) Final Intermolecular Energy     =  -9.45 kcal/mol
DOCKED: USER        vdW + Hbond + desolv Energy     =  -9.42 kcal/mol
DOCKED: USER        Electrostatic Energy            =  -0.03 kcal/mol
DOCKED: USER        Moving Ligand-Fixed Receptor    =  -9.45 kcal/mol
DOCKED: USER        Moving Ligand-Moving Receptor   =  +0.00 kcal/mol
DOCKED: USER    (2) Final Total Internal Energy     =  -1.16 kcal/mol
DOCKED: USER    (3) Torsional Free Energy           =  +2.09 kcal/mol
DOCKED: USER    (4) Unbound System's Energy         =  -1.16 kcal/mol
DOCKED: USER
DOCKED: USER
DOCKED: REMARK SMILES O/C(=N\CCOc1ccc2ccc(Cl)cc2c1)c1ccccn1
DOCKED: REMARK SMILES IDX 4 1 3 2 2 3 1 4 18 6 23 7 19 8 22 9 20 10 21 11 5 12 6 13
DOCKED: REMARK SMILES IDX 7 14 8 15 17 16 9 17 16 18 10 19 15 20 11 21 13 22 12 23
DOCKED: REMARK SMILES IDX 14 24
DOCKED: REMARK H PARENT 1 5
DOCKED: USER                              x       y       z     vdW  Elec       q    Type
DOCKED: USER                           _______ _______ _______ _____ _____    ______ ____
DOCKED: ROOT
DOCKED: ATOM      1  C   UNL     1     140.532  74.303 220.593 -0.15 -0.04    +0.188 C  
DOCKED: ENDROOT
DOCKED: BRANCH   1   2
DOCKED: ATOM      2  N   UNL     1     141.043  75.610 220.996 -0.19 +0.08    -0.246 NA 
DOCKED: BRANCH   2   3
DOCKED: ATOM      3  C   UNL     1     140.541  76.335 221.958 -0.28 -0.07    +0.232 C  
DOCKED: BRANCH   3   4
DOCKED: ATOM      4  O   UNL     1     139.484  75.869 222.750 -0.28 +0.08    -0.492 OA 
DOCKED: ATOM      5  H   UNL     1     139.427  74.923 223.100 -0.42 -0.04    +0.295 HD 
DOCKED: ENDBRANCH   3   4
DOCKED: BRANCH   3   6
DOCKED: ATOM      6  C   UNL     1     141.065  77.691 222.225 -0.36 -0.05    +0.124 A  
DOCKED: ATOM      7  N   UNL     1     141.179  78.568 221.186 -0.16 +0.11    -0.251 NA 
DOCKED: ATOM      8  C   UNL     1     141.461  78.095 223.514 -0.43 -0.01    +0.034 A  
DOCKED: ATOM      9  C   UNL     1     141.662  79.828 221.354 -0.33 -0.05    +0.112 A  
DOCKED: ATOM     10  C   UNL     1     141.954  79.389 223.706 -0.61 -0.00    +0.004 A  
DOCKED: ATOM     11  C   UNL     1     142.057  80.263 222.622 -0.56 -0.01    +0.020 A  
DOCKED: ENDBRANCH   3   6
DOCKED: ENDBRANCH   2   3
DOCKED: ENDBRANCH   1   2
DOCKED: BRANCH   1  12
DOCKED: ATOM     12  C   UNL     1     141.056  73.199 221.523 -0.18 -0.02    +0.253 C  
DOCKED: BRANCH  12  13
DOCKED: ATOM     13  O   UNL     1     140.278  73.075 222.713 -0.58 +0.01    -0.492 OA 
DOCKED: BRANCH  13  14
DOCKED: ATOM     14  C   UNL     1     139.989  71.878 223.385 -0.31 -0.02    +0.120 A  
DOCKED: ATOM     15  C   UNL     1     139.045  71.015 222.812 -0.23 -0.01    +0.047 A  
DOCKED: ATOM     16  C   UNL     1     140.593  71.524 224.605 -0.44 -0.01    +0.055 A  
DOCKED: ATOM     17  C   UNL     1     138.673  69.832 223.456 -0.25 -0.00    +0.012 A  
DOCKED: ATOM     18  C   UNL     1     140.204  70.353 225.277 -0.48 +0.00    -0.013 A  
DOCKED: ATOM     19  C   UNL     1     139.229  69.502 224.701 -0.36 +0.00    -0.018 A  
DOCKED: ATOM     20  C   UNL     1     140.766  70.020 226.521 -0.54 -0.00    +0.029 A  
DOCKED: ATOM     21  C   UNL     1     138.832  68.339 225.378 -0.42 -0.00    +0.010 A  
DOCKED: ATOM     22  C   UNL     1     140.363  68.857 227.186 -0.60 -0.01    +0.041 A  
DOCKED: ATOM     23  C   UNL     1     139.400  68.020 226.615 -0.56 -0.00    +0.021 A  
DOCKED: ATOM     24  Cl  UNL     1     141.076  68.443 228.734 -0.69 +0.02    -0.084 Cl 
DOCKED: ENDBRANCH  13  14
DOCKED: ENDBRANCH  12  13
DOCKED: ENDBRANCH   1  12
DOCKED: TORSDOF 7
DOCKED: TER
DOCKED: ENDMDL
________________________________________________________________________________


    FINAL DOCKED STATE:
    ________________________


Run:   9 / 20
Time taken for this run:   0.035s

DOCKED: MODEL        9
DOCKED: USER    Run = 9
DOCKED: USER
DOCKED: USER    Estimated Free Energy of Binding    =  -6.88 kcal/mol  [=(1)+(2)+(3)-(4)]
DOCKED: USER
DOCKED: USER    (1) Final Intermolecular Energy     =  -8.97 kcal/mol
DOCKED: USER        vdW + Hbond + desolv Energy     =  -8.87 kcal/mol
DOCKED: USER        Electrostatic Energy            =  -0.10 kcal/mol
DOCKED: USER        Moving Ligand-Fixed Receptor    =  -8.97 kcal/mol
DOCKED: USER        Moving Ligand-Moving Receptor   =  +0.00 kcal/mol
DOCKED: USER    (2) Final Total Internal Energy     =  -0.88 kcal/mol
DOCKED: USER    (3) Torsional Free Energy           =  +2.09 kcal/mol
DOCKED: USER    (4) Unbound System's Energy         =  -0.88 kcal/mol
DOCKED: USER
DOCKED: USER
DOCKED: REMARK SMILES O/C(=N\CCOc1ccc2ccc(Cl)cc2c1)c1ccccn1
DOCKED: REMARK SMILES IDX 4 1 3 2 2 3 1 4 18 6 23 7 19 8 22 9 20 10 21 11 5 12 6 13
DOCKED: REMARK SMILES IDX 7 14 8 15 17 16 9 17 16 18 10 19 15 20 11 21 13 22 12 23
DOCKED: REMARK SMILES IDX 14 24
DOCKED: REMARK H PARENT 1 5
DOCKED: USER                              x       y       z     vdW  Elec       q    Type
DOCKED: USER                           _______ _______ _______ _____ _____    ______ ____
DOCKED: ROOT
DOCKED: ATOM      1  C   UNL     1     138.980  72.523 222.351 -0.15 -0.05    +0.188 C  
DOCKED: ENDROOT
DOCKED: BRANCH   1   2
DOCKED: ATOM      2  N   UNL     1     139.924  72.121 223.390 -0.29 +0.05    -0.246 NA 
DOCKED: BRANCH   2   3
DOCKED: ATOM      3  C   UNL     1     139.948  70.943 223.951 -0.28 -0.04    +0.232 C  
DOCKED: BRANCH   3   4
DOCKED: ATOM      4  O   UNL     1     139.607  69.786 223.239 -0.04 +0.09    -0.492 OA 
DOCKED: ATOM      5  H   UNL     1     139.622  68.860 223.644 +0.06 -0.06    +0.295 HD 
DOCKED: ENDBRANCH   3   4
DOCKED: BRANCH   3   6
DOCKED: ATOM      6  C   UNL     1     140.315  70.800 225.375 -0.45 -0.02    +0.124 A  
DOCKED: ATOM      7  N   UNL     1     140.219  69.571 225.959 -0.25 +0.04    -0.251 NA 
DOCKED: ATOM      8  C   UNL     1     140.744  71.896 226.147 -0.55 -0.01    +0.034 A  
DOCKED: ATOM      9  C   UNL     1     140.529  69.365 227.267 -0.51 -0.02    +0.112 A  
DOCKED: ATOM     10  C   UNL     1     141.073  71.702 227.492 -0.81 -0.00    +0.004 A  
DOCKED: ATOM     11  C   UNL     1     140.966  70.430 228.058 -0.61 -0.00    +0.020 A  
DOCKED: ENDBRANCH   3   6
DOCKED: ENDBRANCH   2   3
DOCKED: ENDBRANCH   1   2
DOCKED: BRANCH   1  12
DOCKED: ATOM     12  C   UNL     1     139.647  73.467 221.340 -0.16 -0.05    +0.253 C  
DOCKED: BRANCH  12  13
DOCKED: ATOM     13  O   UNL     1     140.476  74.443 221.970 -0.68 +0.03    -0.492 OA 
DOCKED: BRANCH  13  14
DOCKED: ATOM     14  C   UNL     1     140.089  75.743 222.328 -0.22 -0.02    +0.120 A  
DOCKED: ATOM     15  C   UNL     1     138.722  76.048 222.314 -0.30 -0.01    +0.047 A  
DOCKED: ATOM     16  C   UNL     1     141.014  76.743 222.681 -0.30 -0.02    +0.055 A  
DOCKED: ATOM     17  C   UNL     1     138.272  77.338 222.610 -0.29 -0.00    +0.012 A  
DOCKED: ATOM     18  C   UNL     1     140.576  78.052 222.949 -0.38 +0.00    -0.013 A  
DOCKED: ATOM     19  C   UNL     1     139.194  78.354 222.905 -0.31 +0.00    -0.018 A  
DOCKED: ATOM     20  C   UNL     1     141.499  79.067 223.252 -0.55 -0.01    +0.029 A  
DOCKED: ATOM     21  C   UNL     1     138.759  79.664 223.161 -0.33 -0.00    +0.010 A  
DOCKED: ATOM     22  C   UNL     1     141.053  80.368 223.506 -0.49 -0.01    +0.041 A  
DOCKED: ATOM     23  C   UNL     1     139.687  80.664 223.462 -0.40 -0.00    +0.021 A  
DOCKED: ATOM     24  Cl  UNL     1     142.209  81.629 223.894 -0.59 +0.01    -0.084 Cl 
DOCKED: ENDBRANCH  13  14
DOCKED: ENDBRANCH  12  13
DOCKED: ENDBRANCH   1  12
DOCKED: TORSDOF 7
DOCKED: TER
DOCKED: ENDMDL
________________________________________________________________________________


    FINAL DOCKED STATE:
    ________________________


Run:   10 / 20
Time taken for this run:   0.035s

DOCKED: MODEL        10
DOCKED: USER    Run = 10
DOCKED: USER
DOCKED: USER    Estimated Free Energy of Binding    =  -7.47 kcal/mol  [=(1)+(2)+(3)-(4)]
DOCKED: USER
DOCKED: USER    (1) Final Intermolecular Energy     =  -9.56 kcal/mol
DOCKED: USER        vdW + Hbond + desolv Energy     =  -9.52 kcal/mol
DOCKED: USER        Electrostatic Energy            =  -0.04 kcal/mol
DOCKED: USER        Moving Ligand-Fixed Receptor    =  -9.56 kcal/mol
DOCKED: USER        Moving Ligand-Moving Receptor   =  +0.00 kcal/mol
DOCKED: USER    (2) Final Total Internal Energy     =  -1.21 kcal/mol
DOCKED: USER    (3) Torsional Free Energy           =  +2.09 kcal/mol
DOCKED: USER    (4) Unbound System's Energy         =  -1.21 kcal/mol
DOCKED: USER
DOCKED: USER
DOCKED: REMARK SMILES O/C(=N\CCOc1ccc2ccc(Cl)cc2c1)c1ccccn1
DOCKED: REMARK SMILES IDX 4 1 3 2 2 3 1 4 18 6 23 7 19 8 22 9 20 10 21 11 5 12 6 13
DOCKED: REMARK SMILES IDX 7 14 8 15 17 16 9 17 16 18 10 19 15 20 11 21 13 22 12 23
DOCKED: REMARK SMILES IDX 14 24
DOCKED: REMARK H PARENT 1 5
DOCKED: USER                              x       y       z     vdW  Elec       q    Type
DOCKED: USER                           _______ _______ _______ _____ _____    ______ ____
DOCKED: ROOT
DOCKED: ATOM      1  C   UNL     1     141.560  74.254 220.954 -0.20 -0.04    +0.188 C  
DOCKED: ENDROOT
DOCKED: BRANCH   1   2
DOCKED: ATOM      2  N   UNL     1     140.994  75.597 220.866 -0.17 +0.08    -0.246 NA 
DOCKED: BRANCH   2   3
DOCKED: ATOM      3  C   UNL     1     140.546  76.279 221.884 -0.27 -0.07    +0.232 C  
DOCKED: BRANCH   3   4
DOCKED: ATOM      4  O   UNL     1     139.527  75.782 222.706 -0.33 +0.07    -0.492 OA 
DOCKED: ATOM      5  H   UNL     1     139.531  74.848 223.094 -0.42 -0.02    +0.295 HD 
DOCKED: ENDBRANCH   3   4
DOCKED: BRANCH   3   6
DOCKED: ATOM      6  C   UNL     1     141.092  77.618 222.187 -0.35 -0.05    +0.124 A  
DOCKED: ATOM      7  N   UNL     1     141.397  77.928 223.480 -0.27 +0.09    -0.251 NA 
DOCKED: ATOM      8  C   UNL     1     141.291  78.585 221.183 -0.32 -0.02    +0.034 A  
DOCKED: ATOM      9  C   UNL     1     141.893  79.143 223.836 -0.52 -0.03    +0.112 A  
DOCKED: ATOM     10  C   UNL     1     141.806  79.838 221.530 -0.43 -0.00    +0.004 A  
DOCKED: ATOM     11  C   UNL     1     142.109  80.122 222.863 -0.58 -0.01    +0.020 A  
DOCKED: ENDBRANCH   3   6
DOCKED: ENDBRANCH   2   3
DOCKED: ENDBRANCH   1   2
DOCKED: BRANCH   1  12
DOCKED: ATOM     12  C   UNL     1     140.473  73.222 221.286 -0.17 -0.04    +0.253 C  
DOCKED: BRANCH  12  13
DOCKED: ATOM     13  O   UNL     1     140.274  73.073 222.692 -0.58 +0.01    -0.492 OA 
DOCKED: BRANCH  13  14
DOCKED: ATOM     14  C   UNL     1     140.012  71.869 223.362 -0.31 -0.02    +0.120 A  
DOCKED: ATOM     15  C   UNL     1     139.094  70.983 222.785 -0.23 -0.01    +0.047 A  
DOCKED: ATOM     16  C   UNL     1     140.618  71.532 224.587 -0.44 -0.01    +0.055 A  
DOCKED: ATOM     17  C   UNL     1     138.749  69.790 223.426 -0.25 -0.00    +0.012 A  
DOCKED: ATOM     18  C   UNL     1     140.254  70.350 225.257 -0.48 +0.00    -0.013 A  
DOCKED: ATOM     19  C   UNL     1     139.305  69.476 224.675 -0.36 +0.00    -0.018 A  
DOCKED: ATOM     20  C   UNL     1     140.817  70.033 226.504 -0.54 -0.00    +0.029 A  
DOCKED: ATOM     21  C   UNL     1     138.934  68.302 225.350 -0.43 -0.00    +0.010 A  
DOCKED: ATOM     22  C   UNL     1     140.440  68.860 227.166 -0.59 -0.01    +0.041 A  
DOCKED: ATOM     23  C   UNL     1     139.502  67.998 226.590 -0.60 -0.00    +0.021 A  
DOCKED: ATOM     24  Cl  UNL     1     141.154  68.464 228.719 -0.68 +0.02    -0.084 Cl 
DOCKED: ENDBRANCH  13  14
DOCKED: ENDBRANCH  12  13
DOCKED: ENDBRANCH   1  12
DOCKED: TORSDOF 7
DOCKED: TER
DOCKED: ENDMDL
________________________________________________________________________________


    FINAL DOCKED STATE:
    ________________________


Run:   11 / 20
Time taken for this run:   0.035s

DOCKED: MODEL        11
DOCKED: USER    Run = 11
DOCKED: USER
DOCKED: USER    Estimated Free Energy of Binding    =  -6.34 kcal/mol  [=(1)+(2)+(3)-(4)]
DOCKED: USER
DOCKED: USER    (1) Final Intermolecular Energy     =  -8.43 kcal/mol
DOCKED: USER        vdW + Hbond + desolv Energy     =  -8.37 kcal/mol
DOCKED: USER        Electrostatic Energy            =  -0.06 kcal/mol
DOCKED: USER        Moving Ligand-Fixed Receptor    =  -8.43 kcal/mol
DOCKED: USER        Moving Ligand-Moving Receptor   =  +0.00 kcal/mol
DOCKED: USER    (2) Final Total Internal Energy     =  -1.31 kcal/mol
DOCKED: USER    (3) Torsional Free Energy           =  +2.09 kcal/mol
DOCKED: USER    (4) Unbound System's Energy         =  -1.31 kcal/mol
DOCKED: USER
DOCKED: USER
DOCKED: REMARK SMILES O/C(=N\CCOc1ccc2ccc(Cl)cc2c1)c1ccccn1
DOCKED: REMARK SMILES IDX 4 1 3 2 2 3 1 4 18 6 23 7 19 8 22 9 20 10 21 11 5 12 6 13
DOCKED: REMARK SMILES IDX 7 14 8 15 17 16 9 17 16 18 10 19 15 20 11 21 13 22 12 23
DOCKED: REMARK SMILES IDX 14 24
DOCKED: REMARK H PARENT 1 5
DOCKED: USER                              x       y       z     vdW  Elec       q    Type
DOCKED: USER                           _______ _______ _______ _____ _____    ______ ____
DOCKED: ROOT
DOCKED: ATOM      1  C   UNL     1     138.387  71.776 221.593 -0.09 -0.04    +0.188 C  
DOCKED: ENDROOT
DOCKED: BRANCH   1   2
DOCKED: ATOM      2  N   UNL     1     138.935  71.120 222.776 -0.13 +0.05    -0.246 NA 
DOCKED: BRANCH   2   3
DOCKED: ATOM      3  C   UNL     1     139.856  71.632 223.545 -0.25 -0.05    +0.232 C  
DOCKED: BRANCH   3   4
DOCKED: ATOM      4  O   UNL     1     140.704  72.652 223.093 -0.36 -0.00    -0.492 OA 
DOCKED: ATOM      5  H   UNL     1     140.392  73.413 222.506 +0.07 +0.01    +0.295 HD 
DOCKED: ENDBRANCH   3   4
DOCKED: BRANCH   3   6
DOCKED: ATOM      6  C   UNL     1     140.048  71.129 224.921 -0.41 -0.02    +0.124 A  
DOCKED: ATOM      7  N   UNL     1     140.787  71.870 225.796 -0.35 +0.04    -0.251 NA 
DOCKED: ATOM      8  C   UNL     1     139.504  69.902 225.348 -0.41 -0.01    +0.034 A  
DOCKED: ATOM      9  C   UNL     1     141.015  71.465 227.074 -0.65 -0.02    +0.112 A  
DOCKED: ATOM     10  C   UNL     1     139.722  69.474 226.660 -0.52 -0.00    +0.004 A  
DOCKED: ATOM     11  C   UNL     1     140.482  70.257 227.531 -0.61 -0.00    +0.020 A  
DOCKED: ENDBRANCH   3   6
DOCKED: ENDBRANCH   2   3
DOCKED: ENDBRANCH   1   2
DOCKED: BRANCH   1  12
DOCKED: ATOM     12  C   UNL     1     138.005  73.231 221.900 -0.09 -0.07    +0.253 C  
DOCKED: BRANCH  12  13
DOCKED: ATOM     13  O   UNL     1     139.109  74.125 221.759 -0.22 +0.11    -0.492 OA 
DOCKED: BRANCH  13  14
DOCKED: ATOM     14  C   UNL     1     139.137  75.468 222.165 -0.26 -0.03    +0.120 A  
DOCKED: ATOM     15  C   UNL     1     137.913  76.124 222.348 -0.26 -0.01    +0.047 A  
DOCKED: ATOM     16  C   UNL     1     140.335  76.174 222.378 -0.31 -0.01    +0.055 A  
DOCKED: ATOM     17  C   UNL     1     137.870  77.475 222.701 -0.27 -0.00    +0.012 A  
DOCKED: ATOM     18  C   UNL     1     140.305  77.542 222.703 -0.37 +0.00    -0.013 A  
DOCKED: ATOM     19  C   UNL     1     139.061  78.200 222.857 -0.29 +0.00    -0.018 A  
DOCKED: ATOM     20  C   UNL     1     141.498  78.266 222.866 -0.48 -0.01    +0.029 A  
DOCKED: ATOM     21  C   UNL     1     139.031  79.569 223.170 -0.35 -0.00    +0.010 A  
DOCKED: ATOM     22  C   UNL     1     141.455  79.628 223.178 -0.52 -0.01    +0.041 A  
DOCKED: ATOM     23  C   UNL     1     140.226  80.277 223.330 -0.43 -0.00    +0.021 A  
DOCKED: ATOM     24  Cl  UNL     1     142.948  80.524 223.391 -0.80 +0.02    -0.084 Cl 
DOCKED: ENDBRANCH  13  14
DOCKED: ENDBRANCH  12  13
DOCKED: ENDBRANCH   1  12
DOCKED: TORSDOF 7
DOCKED: TER
DOCKED: ENDMDL
________________________________________________________________________________


    FINAL DOCKED STATE:
    ________________________


Run:   12 / 20
Time taken for this run:   0.035s

DOCKED: MODEL        12
DOCKED: USER    Run = 12
DOCKED: USER
DOCKED: USER    Estimated Free Energy of Binding    =  -6.73 kcal/mol  [=(1)+(2)+(3)-(4)]
DOCKED: USER
DOCKED: USER    (1) Final Intermolecular Energy     =  -8.81 kcal/mol
DOCKED: USER        vdW + Hbond + desolv Energy     =  -8.67 kcal/mol
DOCKED: USER        Electrostatic Energy            =  -0.15 kcal/mol
DOCKED: USER        Moving Ligand-Fixed Receptor    =  -8.81 kcal/mol
DOCKED: USER        Moving Ligand-Moving Receptor   =  +0.00 kcal/mol
DOCKED: USER    (2) Final Total Internal Energy     =  -1.07 kcal/mol
DOCKED: USER    (3) Torsional Free Energy           =  +2.09 kcal/mol
DOCKED: USER    (4) Unbound System's Energy         =  -1.07 kcal/mol
DOCKED: USER
DOCKED: USER
DOCKED: REMARK SMILES O/C(=N\CCOc1ccc2ccc(Cl)cc2c1)c1ccccn1
DOCKED: REMARK SMILES IDX 4 1 3 2 2 3 1 4 18 6 23 7 19 8 22 9 20 10 21 11 5 12 6 13
DOCKED: REMARK SMILES IDX 7 14 8 15 17 16 9 17 16 18 10 19 15 20 11 21 13 22 12 23
DOCKED: REMARK SMILES IDX 14 24
DOCKED: REMARK H PARENT 1 5
DOCKED: USER                              x       y       z     vdW  Elec       q    Type
DOCKED: USER                           _______ _______ _______ _____ _____    ______ ____
DOCKED: ROOT
DOCKED: ATOM      1  C   UNL     1     139.575  73.715 220.482 -0.09 -0.04    +0.188 C  
DOCKED: ENDROOT
DOCKED: BRANCH   1   2
DOCKED: ATOM      2  N   UNL     1     140.954  73.610 220.013 -0.06 +0.05    -0.246 NA 
DOCKED: BRANCH   2   3
DOCKED: ATOM      3  C   UNL     1     141.955  74.286 220.505 -0.18 -0.06    +0.232 C  
DOCKED: BRANCH   3   4
DOCKED: ATOM      4  O   UNL     1     141.779  75.566 221.044 -0.12 +0.21    -0.492 OA 
DOCKED: ATOM      5  H   UNL     1     142.524  76.093 221.479 -0.40 -0.28    +0.295 HD 
DOCKED: ENDBRANCH   3   4
DOCKED: BRANCH   3   6
DOCKED: ATOM      6  C   UNL     1     143.322  73.723 220.483 -0.28 -0.03    +0.124 A  
DOCKED: ATOM      7  N   UNL     1     144.368  74.522 220.840 -0.21 +0.11    -0.251 NA 
DOCKED: ATOM      8  C   UNL     1     143.573  72.395 220.090 -0.27 -0.00    +0.034 A  
DOCKED: ATOM      9  C   UNL     1     145.653  74.076 220.834 -0.55 -0.03    +0.112 A  
DOCKED: ATOM     10  C   UNL     1     144.887  71.918 220.084 -0.34 +0.00    +0.004 A  
DOCKED: ATOM     11  C   UNL     1     145.935  72.761 220.457 -0.56 +0.00    +0.020 A  
DOCKED: ENDBRANCH   3   6
DOCKED: ENDBRANCH   2   3
DOCKED: ENDBRANCH   1   2
DOCKED: BRANCH   1  12
DOCKED: ATOM     12  C   UNL     1     139.527  73.889 222.007 -0.15 -0.04    +0.253 C  
DOCKED: BRANCH  12  13
DOCKED: ATOM     13  O   UNL     1     140.487  73.073 222.679 -0.55 -0.01    -0.492 OA 
DOCKED: BRANCH  13  14
DOCKED: ATOM     14  C   UNL     1     140.227  71.846 223.307 -0.32 -0.02    +0.120 A  
DOCKED: ATOM     15  C   UNL     1     139.414  70.924 222.636 -0.23 -0.01    +0.047 A  
DOCKED: ATOM     16  C   UNL     1     140.736  71.519 224.578 -0.42 -0.01    +0.055 A  
DOCKED: ATOM     17  C   UNL     1     139.075  69.704 223.228 -0.24 -0.00    +0.012 A  
DOCKED: ATOM     18  C   UNL     1     140.375  70.309 225.196 -0.47 +0.00    -0.013 A  
DOCKED: ATOM     19  C   UNL     1     139.530  69.397 224.519 -0.34 +0.00    -0.018 A  
DOCKED: ATOM     20  C   UNL     1     140.837  69.999 226.487 -0.54 -0.00    +0.029 A  
DOCKED: ATOM     21  C   UNL     1     139.161  68.195 225.142 -0.44 -0.00    +0.010 A  
DOCKED: ATOM     22  C   UNL     1     140.463  68.798 227.097 -0.60 -0.01    +0.041 A  
DOCKED: ATOM     23  C   UNL     1     139.628  67.899 226.425 -0.62 -0.00    +0.021 A  
DOCKED: ATOM     24  Cl  UNL     1     141.052  68.412 228.703 -0.71 +0.02    -0.084 Cl 
DOCKED: ENDBRANCH  13  14
DOCKED: ENDBRANCH  12  13
DOCKED: ENDBRANCH   1  12
DOCKED: TORSDOF 7
DOCKED: TER
DOCKED: ENDMDL
________________________________________________________________________________


    FINAL DOCKED STATE:
    ________________________


Run:   13 / 20
Time taken for this run:   0.035s

DOCKED: MODEL        13
DOCKED: USER    Run = 13
DOCKED: USER
DOCKED: USER    Estimated Free Energy of Binding    =  -7.12 kcal/mol  [=(1)+(2)+(3)-(4)]
DOCKED: USER
DOCKED: USER    (1) Final Intermolecular Energy     =  -9.20 kcal/mol
DOCKED: USER        vdW + Hbond + desolv Energy     =  -9.14 kcal/mol
DOCKED: USER        Electrostatic Energy            =  -0.06 kcal/mol
DOCKED: USER        Moving Ligand-Fixed Receptor    =  -9.20 kcal/mol
DOCKED: USER        Moving Ligand-Moving Receptor   =  +0.00 kcal/mol
DOCKED: USER    (2) Final Total Internal Energy     =  -1.25 kcal/mol
DOCKED: USER    (3) Torsional Free Energy           =  +2.09 kcal/mol
DOCKED: USER    (4) Unbound System's Energy         =  -1.25 kcal/mol
DOCKED: USER
DOCKED: USER
DOCKED: REMARK SMILES O/C(=N\CCOc1ccc2ccc(Cl)cc2c1)c1ccccn1
DOCKED: REMARK SMILES IDX 4 1 3 2 2 3 1 4 18 6 23 7 19 8 22 9 20 10 21 11 5 12 6 13
DOCKED: REMARK SMILES IDX 7 14 8 15 17 16 9 17 16 18 10 19 15 20 11 21 13 22 12 23
DOCKED: REMARK SMILES IDX 14 24
DOCKED: REMARK H PARENT 1 5
DOCKED: USER                              x       y       z     vdW  Elec       q    Type
DOCKED: USER                           _______ _______ _______ _____ _____    ______ ____
DOCKED: ROOT
DOCKED: ATOM      1  C   UNL     1     141.057  72.048 221.652 -0.19 -0.02    +0.188 C  
DOCKED: ENDROOT
DOCKED: BRANCH   1   2
DOCKED: ATOM      2  N   UNL     1     141.094  71.607 223.043 -0.09 +0.01    -0.246 NA 
DOCKED: BRANCH   2   3
DOCKED: ATOM      3  C   UNL     1     140.051  71.538 223.824 -0.28 -0.04    +0.232 C  
DOCKED: BRANCH   3   4
DOCKED: ATOM      4  O   UNL     1     138.773  71.891 223.372 -0.08 +0.16    -0.492 OA 
DOCKED: ATOM      5  H   UNL     1     138.521  72.830 223.097 -0.39 -0.15    +0.295 HD 
DOCKED: ENDBRANCH   3   4
DOCKED: BRANCH   3   6
DOCKED: ATOM      6  C   UNL     1     140.196  71.105 225.230 -0.44 -0.02    +0.124 A  
DOCKED: ATOM      7  N   UNL     1     139.553  69.974 225.639 -0.23 +0.04    -0.251 NA 
DOCKED: ATOM      8  C   UNL     1     140.964  71.834 226.158 -0.61 -0.00    +0.034 A  
DOCKED: ATOM      9  C   UNL     1     139.631  69.521 226.919 -0.45 -0.02    +0.112 A  
DOCKED: ATOM     10  C   UNL     1     141.061  71.380 227.476 -0.76 -0.00    +0.004 A  
DOCKED: ATOM     11  C   UNL     1     140.392  70.217 227.862 -0.62 -0.00    +0.020 A  
DOCKED: ENDBRANCH   3   6
DOCKED: ENDBRANCH   2   3
DOCKED: ENDBRANCH   1   2
DOCKED: BRANCH   1  12
DOCKED: ATOM     12  C   UNL     1     141.076  73.581 221.562 -0.18 -0.02    +0.253 C  
DOCKED: BRANCH  12  13
DOCKED: ATOM     13  O   UNL     1     139.841  74.166 221.973 -0.69 +0.06    -0.492 OA 
DOCKED: BRANCH  13  14
DOCKED: ATOM     14  C   UNL     1     139.646  75.507 222.335 -0.24 -0.02    +0.120 A  
DOCKED: ATOM     15  C   UNL     1     138.333  75.991 222.382 -0.28 -0.01    +0.047 A  
DOCKED: ATOM     16  C   UNL     1     140.711  76.377 222.632 -0.21 -0.01    +0.055 A  
DOCKED: ATOM     17  C   UNL     1     138.073  77.330 222.684 -0.29 -0.00    +0.012 A  
DOCKED: ATOM     18  C   UNL     1     140.464  77.734 222.907 -0.29 +0.00    -0.013 A  
DOCKED: ATOM     19  C   UNL     1     139.133  78.217 222.925 -0.29 +0.00    -0.018 A  
DOCKED: ATOM     20  C   UNL     1     141.527  78.620 223.154 -0.55 -0.01    +0.029 A  
DOCKED: ATOM     21  C   UNL     1     138.888  79.574 223.187 -0.34 -0.00    +0.010 A  
DOCKED: ATOM     22  C   UNL     1     141.269  79.970 223.414 -0.52 -0.01    +0.041 A  
DOCKED: ATOM     23  C   UNL     1     139.954  80.444 223.431 -0.42 -0.00    +0.021 A  
DOCKED: ATOM     24  Cl  UNL     1     142.599  81.068 223.733 -0.71 +0.01    -0.084 Cl 
DOCKED: ENDBRANCH  13  14
DOCKED: ENDBRANCH  12  13
DOCKED: ENDBRANCH   1  12
DOCKED: TORSDOF 7
DOCKED: TER
DOCKED: ENDMDL
________________________________________________________________________________


    FINAL DOCKED STATE:
    ________________________


Run:   14 / 20
Time taken for this run:   0.035s

DOCKED: MODEL        14
DOCKED: USER    Run = 14
DOCKED: USER
DOCKED: USER    Estimated Free Energy of Binding    =  -7.35 kcal/mol  [=(1)+(2)+(3)-(4)]
DOCKED: USER
DOCKED: USER    (1) Final Intermolecular Energy     =  -9.44 kcal/mol
DOCKED: USER        vdW + Hbond + desolv Energy     =  -9.36 kcal/mol
DOCKED: USER        Electrostatic Energy            =  -0.07 kcal/mol
DOCKED: USER        Moving Ligand-Fixed Receptor    =  -9.44 kcal/mol
DOCKED: USER        Moving Ligand-Moving Receptor   =  +0.00 kcal/mol
DOCKED: USER    (2) Final Total Internal Energy     =  -1.21 kcal/mol
DOCKED: USER    (3) Torsional Free Energy           =  +2.09 kcal/mol
DOCKED: USER    (4) Unbound System's Energy         =  -1.21 kcal/mol
DOCKED: USER
DOCKED: USER
DOCKED: REMARK SMILES O/C(=N\CCOc1ccc2ccc(Cl)cc2c1)c1ccccn1
DOCKED: REMARK SMILES IDX 4 1 3 2 2 3 1 4 18 6 23 7 19 8 22 9 20 10 21 11 5 12 6 13
DOCKED: REMARK SMILES IDX 7 14 8 15 17 16 9 17 16 18 10 19 15 20 11 21 13 22 12 23
DOCKED: REMARK SMILES IDX 14 24
DOCKED: REMARK H PARENT 1 5
DOCKED: USER                              x       y       z     vdW  Elec       q    Type
DOCKED: USER                           _______ _______ _______ _____ _____    ______ ____
DOCKED: ROOT
DOCKED: ATOM      1  C   UNL     1     140.678  74.475 220.669 -0.17 -0.04    +0.188 C  
DOCKED: ENDROOT
DOCKED: BRANCH   1   2
DOCKED: ATOM      2  N   UNL     1     140.929  75.784 221.267 -0.22 +0.08    -0.246 NA 
DOCKED: BRANCH   2   3
DOCKED: ATOM      3  C   UNL     1     140.187  76.328 222.192 -0.26 -0.05    +0.232 C  
DOCKED: BRANCH   3   4
DOCKED: ATOM      4  O   UNL     1     139.118  75.635 222.774 -0.28 +0.10    -0.492 OA 
DOCKED: ATOM      5  H   UNL     1     139.186  74.680 223.099 -0.48 -0.09    +0.295 HD 
DOCKED: ENDBRANCH   3   4
DOCKED: BRANCH   3   6
DOCKED: ATOM      6  C   UNL     1     140.443  77.713 222.638 -0.34 -0.03    +0.124 A  
DOCKED: ATOM      7  N   UNL     1     139.396  78.462 223.092 -0.19 +0.04    -0.251 NA 
DOCKED: ATOM      8  C   UNL     1     141.729  78.284 222.594 -0.34 -0.02    +0.034 A  
DOCKED: ATOM      9  C   UNL     1     139.554  79.747 223.509 -0.36 -0.02    +0.112 A  
DOCKED: ATOM     10  C   UNL     1     141.910  79.602 223.025 -0.59 -0.00    +0.004 A  
DOCKED: ATOM     11  C   UNL     1     140.818  80.340 223.485 -0.49 -0.00    +0.020 A  
DOCKED: ENDBRANCH   3   6
DOCKED: ENDBRANCH   2   3
DOCKED: ENDBRANCH   1   2
DOCKED: BRANCH   1  12
DOCKED: ATOM     12  C   UNL     1     141.149  73.349 221.600 -0.16 -0.02    +0.253 C  
DOCKED: BRANCH  12  13
DOCKED: ATOM     13  O   UNL     1     140.228  73.098 222.662 -0.59 +0.02    -0.492 OA 
DOCKED: BRANCH  13  14
DOCKED: ATOM     14  C   UNL     1     140.022  71.865 223.297 -0.31 -0.02    +0.120 A  
DOCKED: ATOM     15  C   UNL     1     139.219  70.918 222.648 -0.22 -0.01    +0.047 A  
DOCKED: ATOM     16  C   UNL     1     140.572  71.555 224.554 -0.43 -0.01    +0.055 A  
DOCKED: ATOM     17  C   UNL     1     138.931  69.690 223.249 -0.24 -0.00    +0.012 A  
DOCKED: ATOM     18  C   UNL     1     140.263  70.336 225.183 -0.47 +0.00    -0.013 A  
DOCKED: ATOM     19  C   UNL     1     139.429  69.398 224.528 -0.34 +0.00    -0.018 A  
DOCKED: ATOM     20  C   UNL     1     140.767  70.042 226.461 -0.54 -0.00    +0.029 A  
DOCKED: ATOM     21  C   UNL     1     139.112  68.186 225.162 -0.43 -0.00    +0.010 A  
DOCKED: ATOM     22  C   UNL     1     140.445  68.831 227.082 -0.59 -0.01    +0.041 A  
DOCKED: ATOM     23  C   UNL     1     139.620  67.906 226.433 -0.62 -0.00    +0.021 A  
DOCKED: ATOM     24  Cl  UNL     1     141.086  68.465 228.673 -0.71 +0.02    -0.084 Cl 
DOCKED: ENDBRANCH  13  14
DOCKED: ENDBRANCH  12  13
DOCKED: ENDBRANCH   1  12
DOCKED: TORSDOF 7
DOCKED: TER
DOCKED: ENDMDL
________________________________________________________________________________


    FINAL DOCKED STATE:
    ________________________


Run:   15 / 20
Time taken for this run:   0.035s

DOCKED: MODEL        15
DOCKED: USER    Run = 15
DOCKED: USER
DOCKED: USER    Estimated Free Energy of Binding    =  -7.39 kcal/mol  [=(1)+(2)+(3)-(4)]
DOCKED: USER
DOCKED: USER    (1) Final Intermolecular Energy     =  -9.48 kcal/mol
DOCKED: USER        vdW + Hbond + desolv Energy     =  -9.37 kcal/mol
DOCKED: USER        Electrostatic Energy            =  -0.10 kcal/mol
DOCKED: USER        Moving Ligand-Fixed Receptor    =  -9.48 kcal/mol
DOCKED: USER        Moving Ligand-Moving Receptor   =  +0.00 kcal/mol
DOCKED: USER    (2) Final Total Internal Energy     =  -1.21 kcal/mol
DOCKED: USER    (3) Torsional Free Energy           =  +2.09 kcal/mol
DOCKED: USER    (4) Unbound System's Energy         =  -1.21 kcal/mol
DOCKED: USER
DOCKED: USER
DOCKED: REMARK SMILES O/C(=N\CCOc1ccc2ccc(Cl)cc2c1)c1ccccn1
DOCKED: REMARK SMILES IDX 4 1 3 2 2 3 1 4 18 6 23 7 19 8 22 9 20 10 21 11 5 12 6 13
DOCKED: REMARK SMILES IDX 7 14 8 15 17 16 9 17 16 18 10 19 15 20 11 21 13 22 12 23
DOCKED: REMARK SMILES IDX 14 24
DOCKED: REMARK H PARENT 1 5
DOCKED: USER                              x       y       z     vdW  Elec       q    Type
DOCKED: USER                           _______ _______ _______ _____ _____    ______ ____
DOCKED: ROOT
DOCKED: ATOM      1  C   UNL     1     141.043  74.505 220.754 -0.20 -0.04    +0.188 C  
DOCKED: ENDROOT
DOCKED: BRANCH   1   2
DOCKED: ATOM      2  N   UNL     1     141.151  75.566 221.751 -0.33 +0.07    -0.246 NA 
DOCKED: BRANCH   2   3
DOCKED: ATOM      3  C   UNL     1     140.134  76.153 222.319 -0.23 -0.05    +0.232 C  
DOCKED: BRANCH   3   4
DOCKED: ATOM      4  O   UNL     1     138.929  75.475 222.541 -0.25 +0.12    -0.492 OA 
DOCKED: ATOM      5  H   UNL     1     138.876  74.560 222.967 -0.48 -0.13    +0.295 HD 
DOCKED: ENDBRANCH   3   4
DOCKED: BRANCH   3   6
DOCKED: ATOM      6  C   UNL     1     140.220  77.571 222.728 -0.29 -0.03    +0.124 A  
DOCKED: ATOM      7  N   UNL     1     139.072  78.302 222.811 -0.17 +0.04    -0.251 NA 
DOCKED: ATOM      8  C   UNL     1     141.451  78.189 223.018 -0.50 -0.01    +0.034 A  
DOCKED: ATOM      9  C   UNL     1     139.074  79.613 223.169 -0.30 -0.02    +0.112 A  
DOCKED: ATOM     10  C   UNL     1     141.472  79.535 223.394 -0.57 -0.00    +0.004 A  
DOCKED: ATOM     11  C   UNL     1     140.278  80.254 223.471 -0.45 -0.00    +0.020 A  
DOCKED: ENDBRANCH   3   6
DOCKED: ENDBRANCH   2   3
DOCKED: ENDBRANCH   1   2
DOCKED: BRANCH   1  12
DOCKED: ATOM     12  C   UNL     1     141.121  73.122 221.416 -0.18 -0.03    +0.253 C  
DOCKED: BRANCH  12  13
DOCKED: ATOM     13  O   UNL     1     140.367  73.053 222.627 -0.58 +0.01    -0.492 OA 
DOCKED: BRANCH  13  14
DOCKED: ATOM     14  C   UNL     1     140.050  71.884 223.333 -0.31 -0.02    +0.120 A  
DOCKED: ATOM     15  C   UNL     1     139.039  71.061 222.820 -0.23 -0.01    +0.047 A  
DOCKED: ATOM     16  C   UNL     1     140.691  71.520 224.531 -0.43 -0.01    +0.055 A  
DOCKED: ATOM     17  C   UNL     1     138.638  69.908 223.501 -0.26 -0.00    +0.012 A  
DOCKED: ATOM     18  C   UNL     1     140.275  70.380 225.242 -0.48 +0.00    -0.013 A  
DOCKED: ATOM     19  C   UNL     1     139.234  69.572 224.726 -0.36 +0.00    -0.018 A  
DOCKED: ATOM     20  C   UNL     1     140.876  70.040 226.465 -0.54 -0.00    +0.029 A  
DOCKED: ATOM     21  C   UNL     1     138.810  68.441 225.442 -0.43 -0.00    +0.010 A  
DOCKED: ATOM     22  C   UNL     1     140.446  68.910 227.169 -0.59 -0.01    +0.041 A  
DOCKED: ATOM     23  C   UNL     1     139.417  68.113 226.658 -0.56 -0.00    +0.021 A  
DOCKED: ATOM     24  Cl  UNL     1     141.209  68.485 228.690 -0.66 +0.02    -0.084 Cl 
DOCKED: ENDBRANCH  13  14
DOCKED: ENDBRANCH  12  13
DOCKED: ENDBRANCH   1  12
DOCKED: TORSDOF 7
DOCKED: TER
DOCKED: ENDMDL
________________________________________________________________________________


    FINAL DOCKED STATE:
    ________________________


Run:   16 / 20
Time taken for this run:   0.035s

DOCKED: MODEL        16
DOCKED: USER    Run = 16
DOCKED: USER
DOCKED: USER    Estimated Free Energy of Binding    =  -7.19 kcal/mol  [=(1)+(2)+(3)-(4)]
DOCKED: USER
DOCKED: USER    (1) Final Intermolecular Energy     =  -9.28 kcal/mol
DOCKED: USER        vdW + Hbond + desolv Energy     =  -9.19 kcal/mol
DOCKED: USER        Electrostatic Energy            =  -0.09 kcal/mol
DOCKED: USER        Moving Ligand-Fixed Receptor    =  -9.28 kcal/mol
DOCKED: USER        Moving Ligand-Moving Receptor   =  +0.00 kcal/mol
DOCKED: USER    (2) Final Total Internal Energy     =  -1.26 kcal/mol
DOCKED: USER    (3) Torsional Free Energy           =  +2.09 kcal/mol
DOCKED: USER    (4) Unbound System's Energy         =  -1.26 kcal/mol
DOCKED: USER
DOCKED: USER
DOCKED: REMARK SMILES O/C(=N\CCOc1ccc2ccc(Cl)cc2c1)c1ccccn1
DOCKED: REMARK SMILES IDX 4 1 3 2 2 3 1 4 18 6 23 7 19 8 22 9 20 10 21 11 5 12 6 13
DOCKED: REMARK SMILES IDX 7 14 8 15 17 16 9 17 16 18 10 19 15 20 11 21 13 22 12 23
DOCKED: REMARK SMILES IDX 14 24
DOCKED: REMARK H PARENT 1 5
DOCKED: USER                              x       y       z     vdW  Elec       q    Type
DOCKED: USER                           _______ _______ _______ _____ _____    ______ ____
DOCKED: ROOT
DOCKED: ATOM      1  C   UNL     1     141.797  74.462 220.757 -0.21 -0.05    +0.188 C  
DOCKED: ENDROOT
DOCKED: BRANCH   1   2
DOCKED: ATOM      2  N   UNL     1     140.705  75.430 220.803 -0.15 +0.07    -0.246 NA 
DOCKED: BRANCH   2   3
DOCKED: ATOM      3  C   UNL     1     140.361  76.105 221.865 -0.27 -0.06    +0.232 C  
DOCKED: BRANCH   3   4
DOCKED: ATOM      4  O   UNL     1     139.385  75.630 222.750 -0.33 +0.08    -0.492 OA 
DOCKED: ATOM      5  H   UNL     1     139.356  74.677 223.086 -0.46 -0.06    +0.295 HD 
DOCKED: ENDBRANCH   3   4
DOCKED: BRANCH   3   6
DOCKED: ATOM      6  C   UNL     1     140.981  77.415 222.153 -0.34 -0.05    +0.124 A  
DOCKED: ATOM      7  N   UNL     1     141.283  77.731 223.446 -0.16 +0.08    -0.251 NA 
DOCKED: ATOM      8  C   UNL     1     141.255  78.349 221.136 -0.31 -0.02    +0.034 A  
DOCKED: ATOM      9  C   UNL     1     141.845  78.920 223.787 -0.53 -0.03    +0.112 A  
DOCKED: ATOM     10  C   UNL     1     141.839  79.575 221.468 -0.42 -0.00    +0.004 A  
DOCKED: ATOM     11  C   UNL     1     142.136  79.866 222.801 -0.58 -0.01    +0.020 A  
DOCKED: ENDBRANCH   3   6
DOCKED: ENDBRANCH   2   3
DOCKED: ENDBRANCH   1   2
DOCKED: BRANCH   1  12
DOCKED: ATOM     12  C   UNL     1     141.310  73.066 221.172 -0.17 -0.03    +0.253 C  
DOCKED: BRANCH  12  13
DOCKED: ATOM     13  O   UNL     1     140.638  73.075 222.431 -0.57 +0.00    -0.492 OA 
DOCKED: BRANCH  13  14
DOCKED: ATOM     14  C   UNL     1     140.216  71.945 223.146 -0.31 -0.02    +0.120 A  
DOCKED: ATOM     15  C   UNL     1     139.150  71.200 222.628 -0.23 -0.01    +0.047 A  
DOCKED: ATOM     16  C   UNL     1     140.809  71.547 224.359 -0.33 -0.01    +0.055 A  
DOCKED: ATOM     17  C   UNL     1     138.647  70.093 223.316 -0.24 -0.00    +0.012 A  
DOCKED: ATOM     18  C   UNL     1     140.291  70.454 225.077 -0.47 +0.00    -0.013 A  
DOCKED: ATOM     19  C   UNL     1     139.195  69.726 224.555 -0.35 +0.00    -0.018 A  
DOCKED: ATOM     20  C   UNL     1     140.845  70.083 226.313 -0.54 -0.00    +0.029 A  
DOCKED: ATOM     21  C   UNL     1     138.671  68.642 225.278 -0.41 -0.00    +0.010 A  
DOCKED: ATOM     22  C   UNL     1     140.315  69.001 227.024 -0.57 -0.01    +0.041 A  
DOCKED: ATOM     23  C   UNL     1     139.232  68.283 226.507 -0.52 -0.00    +0.021 A  
DOCKED: ATOM     24  Cl  UNL     1     141.018  68.536 228.562 -0.74 +0.02    -0.084 Cl 
DOCKED: ENDBRANCH  13  14
DOCKED: ENDBRANCH  12  13
DOCKED: ENDBRANCH   1  12
DOCKED: TORSDOF 7
DOCKED: TER
DOCKED: ENDMDL
________________________________________________________________________________


    FINAL DOCKED STATE:
    ________________________


Run:   17 / 20
Time taken for this run:   0.035s

DOCKED: MODEL        17
DOCKED: USER    Run = 17
DOCKED: USER
DOCKED: USER    Estimated Free Energy of Binding    =  -6.89 kcal/mol  [=(1)+(2)+(3)-(4)]
DOCKED: USER
DOCKED: USER    (1) Final Intermolecular Energy     =  -8.97 kcal/mol
DOCKED: USER        vdW + Hbond + desolv Energy     =  -8.85 kcal/mol
DOCKED: USER        Electrostatic Energy            =  -0.13 kcal/mol
DOCKED: USER        Moving Ligand-Fixed Receptor    =  -8.97 kcal/mol
DOCKED: USER        Moving Ligand-Moving Receptor   =  +0.00 kcal/mol
DOCKED: USER    (2) Final Total Internal Energy     =  -0.81 kcal/mol
DOCKED: USER    (3) Torsional Free Energy           =  +2.09 kcal/mol
DOCKED: USER    (4) Unbound System's Energy         =  -0.81 kcal/mol
DOCKED: USER
DOCKED: USER
DOCKED: REMARK SMILES O/C(=N\CCOc1ccc2ccc(Cl)cc2c1)c1ccccn1
DOCKED: REMARK SMILES IDX 4 1 3 2 2 3 1 4 18 6 23 7 19 8 22 9 20 10 21 11 5 12 6 13
DOCKED: REMARK SMILES IDX 7 14 8 15 17 16 9 17 16 18 10 19 15 20 11 21 13 22 12 23
DOCKED: REMARK SMILES IDX 14 24
DOCKED: REMARK H PARENT 1 5
DOCKED: USER                              x       y       z     vdW  Elec       q    Type
DOCKED: USER                           _______ _______ _______ _____ _____    ______ ____
DOCKED: ROOT
DOCKED: ATOM      1  C   UNL     1     138.849  72.067 222.452 -0.16 -0.05    +0.188 C  
DOCKED: ENDROOT
DOCKED: BRANCH   1   2
DOCKED: ATOM      2  N   UNL     1     139.938  71.725 223.362 -0.25 +0.04    -0.246 NA 
DOCKED: BRANCH   2   3
DOCKED: ATOM      3  C   UNL     1     139.962  70.665 224.121 -0.27 -0.04    +0.232 C  
DOCKED: BRANCH   3   4
DOCKED: ATOM      4  O   UNL     1     139.593  69.406 223.631 -0.04 +0.09    -0.492 OA 
DOCKED: ATOM      5  H   UNL     1     139.577  68.571 224.201 +0.07 -0.06    +0.295 HD 
DOCKED: ENDBRANCH   3   4
DOCKED: BRANCH   3   6
DOCKED: ATOM      6  C   UNL     1     140.359  70.769 225.541 -0.46 -0.02    +0.124 A  
DOCKED: ATOM      7  N   UNL     1     140.040  69.750 226.390 -0.26 +0.04    -0.251 NA 
DOCKED: ATOM      8  C   UNL     1     141.042  71.894 226.042 -0.58 -0.00    +0.034 A  
DOCKED: ATOM      9  C   UNL     1     140.364  69.780 227.710 -0.52 -0.02    +0.112 A  
DOCKED: ATOM     10  C   UNL     1     141.388  71.940 227.396 -0.78 -0.00    +0.004 A  
DOCKED: ATOM     11  C   UNL     1     141.048  70.879 228.237 -0.63 -0.00    +0.020 A  
DOCKED: ENDBRANCH   3   6
DOCKED: ENDBRANCH   2   3
DOCKED: ENDBRANCH   1   2
DOCKED: BRANCH   1  12
DOCKED: ATOM     12  C   UNL     1     139.220  73.277 221.582 -0.15 -0.05    +0.253 C  
DOCKED: BRANCH  12  13
DOCKED: ATOM     13  O   UNL     1     140.210  74.104 222.193 -0.73 +0.01    -0.492 OA 
DOCKED: BRANCH  13  14
DOCKED: ATOM     14  C   UNL     1     140.561  75.401 221.790 -0.28 -0.02    +0.120 A  
DOCKED: ATOM     15  C   UNL     1     140.720  75.642 220.419 -0.19 -0.01    +0.047 A  
DOCKED: ATOM     16  C   UNL     1     140.772  76.451 222.702 -0.20 -0.01    +0.055 A  
DOCKED: ATOM     17  C   UNL     1     141.119  76.897 219.954 -0.21 -0.01    +0.012 A  
DOCKED: ATOM     18  C   UNL     1     141.205  77.709 222.249 -0.38 +0.01    -0.013 A  
DOCKED: ATOM     19  C   UNL     1     141.387  77.932 220.862 -0.31 +0.01    -0.018 A  
DOCKED: ATOM     20  C   UNL     1     141.467  78.747 223.159 -0.55 -0.01    +0.029 A  
DOCKED: ATOM     21  C   UNL     1     141.831  79.186 220.411 -0.30 -0.01    +0.010 A  
DOCKED: ATOM     22  C   UNL     1     141.907  79.992 222.696 -0.54 -0.01    +0.041 A  
DOCKED: ATOM     23  C   UNL     1     142.088  80.209 221.327 -0.39 -0.01    +0.021 A  
DOCKED: ATOM     24  Cl  UNL     1     142.223  81.286 223.837 -0.74 +0.01    -0.084 Cl 
DOCKED: ENDBRANCH  13  14
DOCKED: ENDBRANCH  12  13
DOCKED: ENDBRANCH   1  12
DOCKED: TORSDOF 7
DOCKED: TER
DOCKED: ENDMDL
________________________________________________________________________________


    FINAL DOCKED STATE:
    ________________________


Run:   18 / 20
Time taken for this run:   0.035s

DOCKED: MODEL        18
DOCKED: USER    Run = 18
DOCKED: USER
DOCKED: USER    Estimated Free Energy of Binding    =  -6.95 kcal/mol  [=(1)+(2)+(3)-(4)]
DOCKED: USER
DOCKED: USER    (1) Final Intermolecular Energy     =  -9.04 kcal/mol
DOCKED: USER        vdW + Hbond + desolv Energy     =  -8.89 kcal/mol
DOCKED: USER        Electrostatic Energy            =  -0.15 kcal/mol
DOCKED: USER        Moving Ligand-Fixed Receptor    =  -9.04 kcal/mol
DOCKED: USER        Moving Ligand-Moving Receptor   =  +0.00 kcal/mol
DOCKED: USER    (2) Final Total Internal Energy     =  -0.79 kcal/mol
DOCKED: USER    (3) Torsional Free Energy           =  +2.09 kcal/mol
DOCKED: USER    (4) Unbound System's Energy         =  -0.79 kcal/mol
DOCKED: USER
DOCKED: USER
DOCKED: REMARK SMILES O/C(=N\CCOc1ccc2ccc(Cl)cc2c1)c1ccccn1
DOCKED: REMARK SMILES IDX 4 1 3 2 2 3 1 4 18 6 23 7 19 8 22 9 20 10 21 11 5 12 6 13
DOCKED: REMARK SMILES IDX 7 14 8 15 17 16 9 17 16 18 10 19 15 20 11 21 13 22 12 23
DOCKED: REMARK SMILES IDX 14 24
DOCKED: REMARK H PARENT 1 5
DOCKED: USER                              x       y       z     vdW  Elec       q    Type
DOCKED: USER                           _______ _______ _______ _____ _____    ______ ____
DOCKED: ROOT
DOCKED: ATOM      1  C   UNL     1     139.183  72.019 222.239 -0.18 -0.04    +0.188 C  
DOCKED: ENDROOT
DOCKED: BRANCH   1   2
DOCKED: ATOM      2  N   UNL     1     140.081  71.754 223.360 -0.26 +0.04    -0.246 NA 
DOCKED: BRANCH   2   3
DOCKED: ATOM      3  C   UNL     1     140.002  70.710 224.138 -0.27 -0.04    +0.232 C  
DOCKED: BRANCH   3   4
DOCKED: ATOM      4  O   UNL     1     139.615  69.457 223.647 -0.04 +0.09    -0.492 OA 
DOCKED: ATOM      5  H   UNL     1     139.511  68.639 224.231 +0.08 -0.05    +0.295 HD 
DOCKED: ENDBRANCH   3   4
DOCKED: BRANCH   3   6
DOCKED: ATOM      6  C   UNL     1     140.300  70.828 225.581 -0.46 -0.02    +0.124 A  
DOCKED: ATOM      7  N   UNL     1     139.827  69.872 226.431 -0.26 +0.04    -0.251 NA 
DOCKED: ATOM      8  C   UNL     1     141.042  71.905 226.102 -0.59 -0.00    +0.034 A  
DOCKED: ATOM      9  C   UNL     1     140.053  69.920 227.771 -0.52 -0.02    +0.112 A  
DOCKED: ATOM     10  C   UNL     1     141.289  71.968 227.477 -0.80 -0.00    +0.004 A  
DOCKED: ATOM     11  C   UNL     1     140.792  70.971 228.319 -0.63 -0.00    +0.020 A  
DOCKED: ENDBRANCH   3   6
DOCKED: ENDBRANCH   2   3
DOCKED: ENDBRANCH   1   2
DOCKED: BRANCH   1  12
DOCKED: ATOM     12  C   UNL     1     139.093  73.525 221.954 -0.14 -0.06    +0.253 C  
DOCKED: BRANCH  12  13
DOCKED: ATOM     13  O   UNL     1     140.324  74.202 222.206 -0.71 -0.01    -0.492 OA 
DOCKED: BRANCH  13  14
DOCKED: ATOM     14  C   UNL     1     140.642  75.507 221.803 -0.29 -0.02    +0.120 A  
DOCKED: ATOM     15  C   UNL     1     140.787  75.754 220.432 -0.20 -0.01    +0.047 A  
DOCKED: ATOM     16  C   UNL     1     140.833  76.561 222.716 -0.23 -0.02    +0.055 A  
DOCKED: ATOM     17  C   UNL     1     141.153  77.020 219.966 -0.21 -0.01    +0.012 A  
DOCKED: ATOM     18  C   UNL     1     141.233  77.830 222.262 -0.40 +0.01    -0.013 A  
DOCKED: ATOM     19  C   UNL     1     141.403  78.059 220.875 -0.31 +0.01    -0.018 A  
DOCKED: ATOM     20  C   UNL     1     141.476  78.872 223.172 -0.55 -0.01    +0.029 A  
DOCKED: ATOM     21  C   UNL     1     141.814  79.323 220.424 -0.31 -0.01    +0.010 A  
DOCKED: ATOM     22  C   UNL     1     141.884  80.127 222.710 -0.54 -0.01    +0.041 A  
DOCKED: ATOM     23  C   UNL     1     142.051  80.351 221.340 -0.40 -0.01    +0.021 A  
DOCKED: ATOM     24  Cl  UNL     1     142.175  81.427 223.851 -0.68 +0.01    -0.084 Cl 
DOCKED: ENDBRANCH  13  14
DOCKED: ENDBRANCH  12  13
DOCKED: ENDBRANCH   1  12
DOCKED: TORSDOF 7
DOCKED: TER
DOCKED: ENDMDL
________________________________________________________________________________


    FINAL DOCKED STATE:
    ________________________


Run:   19 / 20
Time taken for this run:   0.035s

DOCKED: MODEL        19
DOCKED: USER    Run = 19
DOCKED: USER
DOCKED: USER    Estimated Free Energy of Binding    =  -6.97 kcal/mol  [=(1)+(2)+(3)-(4)]
DOCKED: USER
DOCKED: USER    (1) Final Intermolecular Energy     =  -9.06 kcal/mol
DOCKED: USER        vdW + Hbond + desolv Energy     =  -8.99 kcal/mol
DOCKED: USER        Electrostatic Energy            =  -0.06 kcal/mol
DOCKED: USER        Moving Ligand-Fixed Receptor    =  -9.06 kcal/mol
DOCKED: USER        Moving Ligand-Moving Receptor   =  +0.00 kcal/mol
DOCKED: USER    (2) Final Total Internal Energy     =  -1.25 kcal/mol
DOCKED: USER    (3) Torsional Free Energy           =  +2.09 kcal/mol
DOCKED: USER    (4) Unbound System's Energy         =  -1.25 kcal/mol
DOCKED: USER
DOCKED: USER
DOCKED: REMARK SMILES O/C(=N\CCOc1ccc2ccc(Cl)cc2c1)c1ccccn1
DOCKED: REMARK SMILES IDX 4 1 3 2 2 3 1 4 18 6 23 7 19 8 22 9 20 10 21 11 5 12 6 13
DOCKED: REMARK SMILES IDX 7 14 8 15 17 16 9 17 16 18 10 19 15 20 11 21 13 22 12 23
DOCKED: REMARK SMILES IDX 14 24
DOCKED: REMARK H PARENT 1 5
DOCKED: USER                              x       y       z     vdW  Elec       q    Type
DOCKED: USER                           _______ _______ _______ _____ _____    ______ ____
DOCKED: ROOT
DOCKED: ATOM      1  C   UNL     1     140.965  72.054 221.655 -0.19 -0.02    +0.188 C  
DOCKED: ENDROOT
DOCKED: BRANCH   1   2
DOCKED: ATOM      2  N   UNL     1     141.037  71.947 223.110 -0.12 +0.01    -0.246 NA 
DOCKED: BRANCH   2   3
DOCKED: ATOM      3  C   UNL     1     140.025  71.657 223.880 -0.25 -0.04    +0.232 C  
DOCKED: BRANCH   3   4
DOCKED: ATOM      4  O   UNL     1     138.705  71.878 223.468 -0.06 +0.17    -0.492 OA 
DOCKED: ATOM      5  H   UNL     1     138.374  72.765 223.114 -0.39 -0.16    +0.295 HD 
DOCKED: ENDBRANCH   3   4
DOCKED: BRANCH   3   6
DOCKED: ATOM      6  C   UNL     1     140.248  71.105 225.233 -0.44 -0.02    +0.124 A  
DOCKED: ATOM      7  N   UNL     1     140.824  71.899 226.181 -0.39 +0.04    -0.251 NA 
DOCKED: ATOM      8  C   UNL     1     139.898  69.782 225.564 -0.43 -0.01    +0.034 A  
DOCKED: ATOM      9  C   UNL     1     141.069  71.457 227.443 -0.67 -0.02    +0.112 A  
DOCKED: ATOM     10  C   UNL     1     140.137  69.312 226.858 -0.56 -0.00    +0.004 A  
DOCKED: ATOM     11  C   UNL     1     140.726  70.152 227.806 -0.61 -0.00    +0.020 A  
DOCKED: ENDBRANCH   3   6
DOCKED: ENDBRANCH   2   3
DOCKED: ENDBRANCH   1   2
DOCKED: BRANCH   1  12
DOCKED: ATOM     12  C   UNL     1     140.714  73.506 221.224 -0.18 -0.04    +0.253 C  
DOCKED: BRANCH  12  13
DOCKED: ATOM     13  O   UNL     1     139.653  74.117 221.958 -0.60 +0.08    -0.492 OA 
DOCKED: BRANCH  13  14
DOCKED: ATOM     14  C   UNL     1     139.571  75.472 222.310 -0.25 -0.02    +0.120 A  
DOCKED: ATOM     15  C   UNL     1     138.299  76.055 222.387 -0.28 -0.01    +0.047 A  
DOCKED: ATOM     16  C   UNL     1     140.706  76.261 222.570 -0.14 -0.01    +0.055 A  
DOCKED: ATOM     17  C   UNL     1     138.150  77.412 222.681 -0.29 -0.00    +0.012 A  
DOCKED: ATOM     18  C   UNL     1     140.570  77.635 222.836 -0.34 +0.00    -0.013 A  
DOCKED: ATOM     19  C   UNL     1     139.281  78.218 222.884 -0.30 +0.00    -0.018 A  
DOCKED: ATOM     20  C   UNL     1     141.703  78.440 223.046 -0.48 -0.01    +0.029 A  
DOCKED: ATOM     21  C   UNL     1     139.146  79.592 223.137 -0.35 -0.00    +0.010 A  
DOCKED: ATOM     22  C   UNL     1     141.556  79.807 223.298 -0.54 -0.01    +0.041 A  
DOCKED: ATOM     23  C   UNL     1     140.281  80.380 223.345 -0.43 -0.00    +0.021 A  
DOCKED: ATOM     24  Cl  UNL     1     142.973  80.804 223.570 -0.70 +0.02    -0.084 Cl 
DOCKED: ENDBRANCH  13  14
DOCKED: ENDBRANCH  12  13
DOCKED: ENDBRANCH   1  12
DOCKED: TORSDOF 7
DOCKED: TER
DOCKED: ENDMDL
________________________________________________________________________________


    FINAL DOCKED STATE:
    ________________________


Run:   20 / 20
Time taken for this run:   0.035s

DOCKED: MODEL        20
DOCKED: USER    Run = 20
DOCKED: USER
DOCKED: USER    Estimated Free Energy of Binding    =  -7.10 kcal/mol  [=(1)+(2)+(3)-(4)]
DOCKED: USER
DOCKED: USER    (1) Final Intermolecular Energy     =  -9.19 kcal/mol
DOCKED: USER        vdW + Hbond + desolv Energy     =  -9.13 kcal/mol
DOCKED: USER        Electrostatic Energy            =  -0.06 kcal/mol
DOCKED: USER        Moving Ligand-Fixed Receptor    =  -9.19 kcal/mol
DOCKED: USER        Moving Ligand-Moving Receptor   =  +0.00 kcal/mol
DOCKED: USER    (2) Final Total Internal Energy     =  -1.23 kcal/mol
DOCKED: USER    (3) Torsional Free Energy           =  +2.09 kcal/mol
DOCKED: USER    (4) Unbound System's Energy         =  -1.23 kcal/mol
DOCKED: USER
DOCKED: USER
DOCKED: REMARK SMILES O/C(=N\CCOc1ccc2ccc(Cl)cc2c1)c1ccccn1
DOCKED: REMARK SMILES IDX 4 1 3 2 2 3 1 4 18 6 23 7 19 8 22 9 20 10 21 11 5 12 6 13
DOCKED: REMARK SMILES IDX 7 14 8 15 17 16 9 17 16 18 10 19 15 20 11 21 13 22 12 23
DOCKED: REMARK SMILES IDX 14 24
DOCKED: REMARK H PARENT 1 5
DOCKED: USER                              x       y       z     vdW  Elec       q    Type
DOCKED: USER                           _______ _______ _______ _____ _____    ______ ____
DOCKED: ROOT
DOCKED: ATOM      1  C   UNL     1     140.996  72.080 221.695 -0.19 -0.02    +0.188 C  
DOCKED: ENDROOT
DOCKED: BRANCH   1   2
DOCKED: ATOM      2  N   UNL     1     141.062  71.828 223.131 -0.11 +0.01    -0.246 NA 
DOCKED: BRANCH   2   3
DOCKED: ATOM      3  C   UNL     1     140.022  71.646 223.898 -0.25 -0.04    +0.232 C  
DOCKED: BRANCH   3   4
DOCKED: ATOM      4  O   UNL     1     138.725  71.929 223.451 -0.03 +0.17    -0.492 OA 
DOCKED: ATOM      5  H   UNL     1     138.450  72.827 223.077 -0.39 -0.16    +0.295 HD 
DOCKED: ENDBRANCH   3   4
DOCKED: BRANCH   3   6
DOCKED: ATOM      6  C   UNL     1     140.188  71.155 225.282 -0.44 -0.02    +0.124 A  
DOCKED: ATOM      7  N   UNL     1     139.585  69.986 225.641 -0.23 +0.04    -0.251 NA 
DOCKED: ATOM      8  C   UNL     1     140.937  71.865 226.239 -0.62 -0.01    +0.034 A  
DOCKED: ATOM      9  C   UNL     1     139.685  69.477 226.899 -0.45 -0.02    +0.112 A  
DOCKED: ATOM     10  C   UNL     1     141.056  71.354 227.535 -0.76 -0.00    +0.004 A  
DOCKED: ATOM     11  C   UNL     1     140.427  70.154 227.870 -0.62 -0.00    +0.020 A  
DOCKED: ENDBRANCH   3   6
DOCKED: ENDBRANCH   2   3
DOCKED: ENDBRANCH   1   2
DOCKED: BRANCH   1  12
DOCKED: ATOM     12  C   UNL     1     140.938  73.587 221.405 -0.19 -0.03    +0.253 C  
DOCKED: BRANCH  12  13
DOCKED: ATOM     13  O   UNL     1     139.783  74.206 221.972 -0.67 +0.06    -0.492 OA 
DOCKED: BRANCH  13  14
DOCKED: ATOM     14  C   UNL     1     139.667  75.557 222.330 -0.24 -0.02    +0.120 A  
DOCKED: ATOM     15  C   UNL     1     138.386  76.124 222.347 -0.29 -0.01    +0.047 A  
DOCKED: ATOM     16  C   UNL     1     140.778  76.357 222.653 -0.16 -0.01    +0.055 A  
DOCKED: ATOM     17  C   UNL     1     138.205  77.478 222.645 -0.28 -0.00    +0.012 A  
DOCKED: ATOM     18  C   UNL     1     140.612  77.727 222.923 -0.32 +0.00    -0.013 A  
DOCKED: ATOM     19  C   UNL     1     139.315  78.294 222.910 -0.31 +0.00    -0.018 A  
DOCKED: ATOM     20  C   UNL     1     141.723  78.543 223.195 -0.53 -0.01    +0.029 A  
DOCKED: ATOM     21  C   UNL     1     139.151  79.665 223.168 -0.36 -0.00    +0.010 A  
DOCKED: ATOM     22  C   UNL     1     141.547  79.907 223.451 -0.55 -0.01    +0.041 A  
DOCKED: ATOM     23  C   UNL     1     140.265  80.465 223.438 -0.44 -0.00    +0.021 A  
DOCKED: ATOM     24  Cl  UNL     1     142.937  80.918 223.802 -0.71 +0.02    -0.084 Cl 
DOCKED: ENDBRANCH  13  14
DOCKED: ENDBRANCH  12  13
DOCKED: ENDBRANCH   1  12
DOCKED: TORSDOF 7
DOCKED: TER
DOCKED: ENDMDL
________________________________________________________________________________


    CLUSTERING HISTOGRAM
    ____________________


________________________________________________________________________________
     |           |     |           |     |
Clus | Lowest    | Run | Mean      | Num | Histogram
-ter | Binding   |     | Binding   | in  |
Rank | Energy    |     | Energy    | Clus|    5    10   15   20   25   30   35
_____|___________|_____|___________|_____|____:____|____:____|____:____|____:___
   1 |     -7.48 |   2 |     -7.33 |   8 |########
   2 |     -7.39 |   7 |     -6.97 |  11 |###########
   3 |     -6.73 |  12 |     -6.73 |   1 |#
_____|___________|_____|___________|_____|______________________________________


    RMSD TABLE
    __________


_______________________________________________________________________
     |      |      |           |         |                 |
Rank | Sub- | Run  | Binding   | Cluster | Reference       | Grep
     | Rank |      | Energy    | RMSD    | RMSD            | Pattern
_____|______|______|___________|_________|_________________|___________
   1      1      2       -7.48      0.00    272.91           RANKING
   1      2     10       -7.47      0.39    273.00           RANKING
   1      3     15       -7.39      0.87    272.96           RANKING
   1      4      1       -7.37      0.88    272.91           RANKING
   1      5      8       -7.36      0.68    272.98           RANKING
   1      6     14       -7.35      0.76    272.97           RANKING
   1      7     16       -7.19      0.56    272.91           RANKING
   1      8      3       -7.05      1.66    273.08           RANKING
   2      1      7       -7.39      0.00    273.22           RANKING
   2      2      4       -7.33      0.16    273.15           RANKING
   2      3     13       -7.12      1.33    273.27           RANKING
   2      4     20       -7.10      1.26    273.33           RANKING
   2      5     19       -6.97      1.38    273.27           RANKING
   2      6     18       -6.95      1.11    273.24           RANKING
   2      7     17       -6.89      1.16    273.20           RANKING
   2      8      9       -6.88      1.57    273.34           RANKING
   2      9      5       -6.88      1.59    273.37           RANKING
   2     10      6       -6.81      1.32    273.15           RANKING
   2     11     11       -6.34      1.80    272.96           RANKING
   3      1     12       -6.73      0.00    272.44           RANKING

Run time 0.675 sec
Idle time 0.000 sec
